1000 SPC/Fw water molecules t= 181.00000 step= 181000
 3000
    1SOL     OW    1   2.757   3.058   1.069  0.2110 -0.0943  0.4538
    1SOL    HW1    2   2.680   0.029   1.095 -2.4689  0.9817  0.1350
    1SOL    HW2    3   2.750   3.018   0.976 -1.7424  0.8493 -1.7764
    2SOL     OW    4   1.832   1.740   2.008  0.3663 -0.0503 -0.5656
    2SOL    HW1    5   1.762   1.690   1.955  0.4253 -0.8506 -0.6968
    2SOL    HW2    6   1.805   1.840   2.022  1.1904 -0.4816  0.3462
    3SOL     OW    7   1.713   2.359   2.184 -0.0978 -0.5159 -0.3791
    3SOL    HW1    8   1.719   2.396   2.277 -0.2082  2.7139 -0.0544
    3SOL    HW2    9   1.803   2.352   2.139 -0.9563  0.8341 -0.6606
    4SOL     OW   10   1.904   2.122   1.940 -0.1646  0.2797 -0.2496
    4SOL    HW1   11   1.906   2.189   2.022  0.4871  0.0631  0.2927
    4SOL    HW2   12   1.909   2.171   1.853  1.1250 -0.0434  0.1596
    5SOL     OW   13   1.035   0.705   1.906 -0.6727  0.1694  0.4463
    5SOL    HW1   14   1.111   0.777   1.913  3.1843  0.4021 -1.3545
    5SOL    HW2   15   0.944   0.745   1.886 -0.2512  0.3318 -2.6535
    6SOL     OW   16   2.812   0.723   2.949  1.0125 -0.5559  0.1399
    6SOL    HW1   17   2.854   0.656   2.888 -0.1795  0.6840 -0.8646
    6SOL    HW2   18   2.713   0.700   2.974  0.2945  1.1682 -0.2642
    7SOL     OW   19   1.100   0.949   1.574  0.3773  0.3042 -0.1424
    7SOL    HW1   20   1.067   0.855   1.577 -0.6194 -0.2247  0.9898
    7SOL    HW2   21   1.149   0.972   1.489  1.9002  0.0779  2.8325
    8SOL     OW   22   1.019   0.114   1.106 -0.2198  0.7052 -0.2539
    8SOL    HW1   23   0.998   0.201   1.051 -1.6800  1.3418  0.3138
    8SOL    HW2   24   0.932   0.080   1.144 -1.2371 -0.9377 -1.5227
    9SOL     OW   25   0.833   1.004   3.071  0.4103  0.3427  0.5468
    9SOL    HW1   26   0.792   1.091   3.041  0.5448 -2.3796  1.8458
    9SOL    HW2   27   0.844   1.000   0.086  2.4962  0.0076 -2.6110
   10SOL     OW   28   0.304   2.870   0.216 -0.0099  0.0038  0.4304
   10SOL    HW1   29   0.205   2.867   0.192  0.2136 -0.6837 -0.6087
   10SOL    HW2   30   0.343   2.775   0.230 -0.1081 -1.9744  0.8275
   11SOL     OW   31   0.356   1.527   0.016  0.2528 -0.0186  0.0678
   11SOL    HW1   32   0.439   1.502   3.050  0.0736 -0.2959 -1.3610
   11SOL    HW2   33   0.276   1.535   3.041  0.8250  0.2993 -2.8090
   12SOL     OW   34   0.658   0.057   1.461 -0.0377 -0.3271  0.5140
   12SOL    HW1   35   0.739   0.062   1.520 -1.8705  0.5396  0.1593
   12SOL    HW2   36   0.595   3.069   1.494  0.3763  0.0313  0.2822
   13SOL     OW   37   0.971   2.834   0.572  0.5556  0.0982  0.5589
   13SOL    HW1   38   1.050   2.874   0.625  0.7724 -1.9312 -0.4690
   13SOL    HW2   39   0.879   2.864   0.607  2.1809  0.0745 -0.4950
   14SOL     OW   40   1.151   2.028   1.280  0.2284 -0.3607 -0.1112
   14SOL    HW1   41   1.115   2.087   1.354 -0.7472  0.4500  0.3881
   14SOL    HW2   42   1.178   1.936   1.307  1.7776  0.7587 -0.5151
   15SOL     OW   43   2.931   0.729   2.197  0.0881  0.1560 -0.3009
   15SOL    HW1   44   2.893   0.817   2.220 -1.7307 -1.4353 -3.0847
   15SOL    HW2   45   2.859   0.655   2.196 -1.2402 -0.5078 -0.8373
   16SOL     OW   46   1.450   2.920   2.657 -0.3211  0.0985 -0.1889
   16SOL    HW1   47   1.361   2.935   2.604 -0.3715 -0.0074  2.0229
   16SOL    HW2   48   1.438   2.881   2.747 -0.0125  3.2967 -0.5522
   17SOL     OW   49   0.901   0.051   1.622 -0.1509 -0.2684  0.2012
   17SOL    HW1   50   0.981   0.077   1.677 -2.0761 -4.5859 -1.5645
   17SOL    HW2   51   0.821   0.092   1.668 -0.1939 -0.9549 -0.5606
   18SOL     OW   52   1.143   0.620   0.360 -0.4239  0.3973 -0.5427
   18SOL    HW1   53   1.045   0.595   0.356  0.0089  0.4553  0.1621
   18SOL    HW2   54   1.189   0.551   0.299 -0.0464 -0.5122 -2.2391
   19SOL     OW   55   2.101   1.686   2.723  0.3346  0.0143  0.5119
   19SOL    HW1   56   2.024   1.752   2.731  1.4497 -0.2383  1.2287
   19SOL    HW2   57   2.144   1.667   2.814 -2.0697 -1.9823  0.0963
   20SOL     OW   58   2.013   1.453   1.752 -0.0581 -0.3300 -0.6188
   20SOL    HW1   59   2.012   1.541   1.807 -2.0331 -1.3473  2.4002
   20SOL    HW2   60   1.963   1.458   1.661 -1.2465  0.9706  0.7736
   21SOL     OW   61   0.525   1.476   2.895 -0.0252 -0.6239 -0.5999
   21SOL    HW1   62   0.520   1.575   2.888  1.2201 -3.9060  0.9429
   21SOL    HW2   63   0.504   1.430   2.808  0.8617  2.6536 -1.7643
   22SOL     OW   64   2.524   3.050   1.382  0.2908 -0.0687 -0.7553
   22SOL    HW1   65   2.446   2.988   1.365  1.2181 -0.8774 -1.5101
   22SOL    HW2   66   2.530   0.022   1.301  0.3436  0.1748 -0.3059
   23SOL     OW   67   2.967   0.989   1.522 -0.5110 -0.0468 -0.3607
   23SOL    HW1   68   3.008   1.063   1.469  0.0498  0.3203 -2.5799
   23SOL    HW2   69   3.020   0.899   1.512 -0.4119 -2.2719  0.6070
   24SOL     OW   70   2.665   2.246   1.311 -0.3442 -0.0089  0.2838
   24SOL    HW1   71   2.756   2.280   1.277  0.2996 -1.4849 -0.4150
   24SOL    HW2   72   2.630   2.317   1.373 -1.4116 -1.9348 -0.3774
   25SOL     OW   73   1.904   2.950   2.521 -0.2440  0.2773  0.4120
   25SOL    HW1   74   1.949   2.944   2.425  0.8546  1.3261 -2.4080
   25SOL    HW2   75   1.828   2.883   2.527  2.9603  1.1022 -0.6406
   26SOL     OW   76   1.413   2.833   2.918  0.0906  0.0773  0.3780
   26SOL    HW1   77   1.329   2.780   2.942 -2.9426  1.3509  0.0785
   26SOL    HW2   78   1.458   2.868   3.003  0.2561  0.3783  0.5428
   27SOL     OW   79   0.333   2.198   2.847 -0.3089  0.1927  0.4059
   27SOL    HW1   80   0.368   2.184   2.940 -0.3703 -0.9542 -0.6183
   27SOL    HW2   81   0.228   2.195   2.844  0.6998  1.2371  0.9205
   28SOL     OW   82   0.100   1.604   1.391 -0.5829 -0.0137  0.1966
   28SOL    HW1   83   0.108   1.565   1.297 -1.6180 -1.4282  0.5233
   28SOL    HW2   84   0.173   1.567   1.452  0.5451 -0.3141  0.6428
   29SOL     OW   85   2.558   1.944   2.180 -0.3707  0.0424 -0.0257
   29SOL    HW1   86   2.554   1.885   2.266  1.4396 -1.8616 -0.5396
   29SOL    HW2   87   2.658   1.966   2.163 -1.1928  0.6917  1.1925
   30SOL     OW   88   1.113   2.943   1.037  0.3025 -0.0622 -0.5880
   30SOL    HW1   89   1.199   2.904   1.067  1.7218  0.3451  0.9267
   30SOL    HW2   90   1.101   3.040   1.067  1.9871 -0.0814  0.2655
   31SOL     OW   91   0.002   2.332   1.806  0.7455  0.4303 -0.4154
   31SOL    HW1   92   3.039   2.422   1.793  0.8261 -0.8178  1.9310
   31SOL    HW2   93   0.043   2.327   1.899  0.7537  1.4209 -2.1793
   32SOL     OW   94   1.200   0.899   1.835  0.2868  1.1322  1.1231
   32SOL    HW1   95   1.173   0.922   1.737 -0.2269 -0.9179  1.1536
   32SOL    HW2   96   1.237   0.974   1.887  0.8422 -1.3756 -1.8285
   33SOL     OW   97   0.181   2.665   2.298 -0.2249 -0.3035  0.0792
   33SOL    HW1   98   0.081   2.684   2.296 -2.1139 -0.0535 -2.2119
   33SOL    HW2   99   0.229   2.711   2.218  3.2491 -0.4327 -1.3430
   34SOL     OW  100   2.259   0.220   0.716 -0.4269  0.0635 -0.5843
   34SOL    HW1  101   2.289   0.187   0.624  2.2208 -1.8544 -2.2829
   34SOL    HW2  102   2.209   0.309   0.705 -1.5988  1.4976 -0.6286
   35SOL     OW  103   2.323   0.767   1.399  0.3577  0.0090  0.2734
   35SOL    HW1  104   2.278   0.860   1.384 -1.1314  1.0649  1.5344
   35SOL    HW2  105   2.423   0.782   1.396 -1.6292  1.8976 -0.2837
   36SOL     OW  106   2.297   2.588   2.147 -0.4500  0.7636  0.7552
   36SOL    HW1  107   2.257   2.538   2.067  0.2122 -0.1506 -2.6565
   36SOL    HW2  108   2.224   2.604   2.216 -2.0624 -1.9842  1.9852
   37SOL     OW  109   0.760   2.268   2.360  0.1302 -0.5229 -0.3321
   37SOL    HW1  110   0.826   2.236   2.288 -4.3579  0.7759  0.3887
   37SOL    HW2  111   0.811   2.312   2.439  0.4276  0.9254 -0.7144
   38SOL     OW  112   2.580   0.280   2.785 -0.0543 -1.1489 -0.3090
   38SOL    HW1  113   2.655   0.283   2.715 -1.4682  0.1729 -0.6388
   38SOL    HW2  114   2.611   0.254   2.879 -0.9686  0.8437 -1.8181
   39SOL     OW  115   2.017   1.725   1.808 -0.1775 -0.5838 -0.3798
   39SOL    HW1  116   1.946   1.722   1.889 -3.4123  0.2437  3.4850
   39SOL    HW2  117   2.067   1.814   1.809  2.6698  1.4734  0.9483
   40SOL     OW  118   0.084   2.868   2.731  0.5793 -0.5135  0.2923
   40SOL    HW1  119   0.007   2.800   2.721 -0.9858  2.1215 -1.3437
   40SOL    HW2  120   0.149   2.845   2.660 -0.2638  1.9753  0.6556
   41SOL     OW  121   1.846   0.502   1.218  0.2937  0.1515  0.8148
   41SOL    HW1  122   1.942   0.473   1.193  1.3063  0.7198 -1.1460
   41SOL    HW2  123   1.778   0.448   1.159 -1.6594 -3.9406 -0.4976
   42SOL     OW  124   1.085   0.173   1.792  0.1157  0.0501  0.1993
   42SOL    HW1  125   1.186   0.188   1.785  2.9946 -1.1944 -1.2403
   42SOL    HW2  126   1.045   0.228   1.866  1.2668  1.2721 -4.5463
   43SOL     OW  127   2.233   0.737   2.064  0.4336 -0.7812 -0.0863
   43SOL    HW1  128   2.238   0.826   2.111  0.3221 -1.0854  0.3187
   43SOL    HW2  129   2.289   0.738   1.981  0.7801 -1.0700 -1.6262
   44SOL     OW  130   0.052   2.910   0.158 -0.3938 -0.4787 -0.7168
   44SOL    HW1  131   3.044   2.905   0.191 -0.0784  1.9537 -0.9459
   44SOL    HW2  132   0.068   3.003   0.124 -3.0582 -0.7495 -0.5749
   45SOL     OW  133   0.214   2.547   1.988  0.0741  0.0619 -0.1750
   45SOL    HW1  134   0.218   2.637   2.035  1.0240 -1.0503 -2.6793
   45SOL    HW2  135   0.181   2.554   1.890 -1.2689  0.0998 -0.6917
   46SOL     OW  136   2.193   2.391   1.993 -0.6365  0.0916 -0.1580
   46SOL    HW1  137   2.248   2.320   2.049  0.3690  0.3397  0.1194
   46SOL    HW2  138   2.232   2.401   1.899  0.1140  2.4103 -0.3524
   47SOL     OW  139   1.655   2.105   1.384  0.4223 -0.4133 -0.9632
   47SOL    HW1  140   1.579   2.106   1.316  1.7298  0.2173  1.6005
   47SOL    HW2  141   1.669   2.203   1.412  0.1238 -0.3619  0.9714
   48SOL     OW  142   0.444   1.718   0.484  0.4791  0.1956  0.5926
   48SOL    HW1  143   0.508   1.777   0.432  0.2912 -0.1646 -1.0476
   48SOL    HW2  144   0.448   1.752   0.577  0.0457  0.3042 -4.4596
   49SOL     OW  145   2.753   0.451   2.467  0.0980  0.0018 -0.1047
   49SOL    HW1  146   2.704   0.535   2.502 -1.7055  0.8482 -0.5691
   49SOL    HW2  147   2.789   0.471   2.374  2.6237 -0.1578  1.8296
   50SOL     OW  148   2.094   0.946   0.859 -0.7656 -0.0661  0.4202
   50SOL    HW1  149   2.055   0.978   0.766 -0.4058  0.9181  1.3551
   50SOL    HW2  150   2.095   1.027   0.916 -0.1714  1.6640 -0.8072
   51SOL     OW  151   1.479   0.266   0.851  0.6734  0.0371 -0.0975
   51SOL    HW1  152   1.395   0.259   0.914 -0.0065  1.2939 -0.5069
   51SOL    HW2  153   1.460   0.319   0.768  1.4462 -3.5057 -0.3689
   52SOL     OW  154   1.256   1.259   0.041 -0.0735  0.3221 -0.5947
   52SOL    HW1  155   1.261   1.209   0.137  1.9527  0.9679  2.0258
   52SOL    HW2  156   1.317   1.336   0.046 -1.4880 -0.5467  2.8515
   53SOL     OW  157   0.957   1.769   2.619  0.7386 -0.4626  0.1537
   53SOL    HW1  158   0.922   1.820   2.701  0.9595  1.3742 -2.5408
   53SOL    HW2  159   0.877   1.721   2.571 -1.4154  3.5216  0.0454
   54SOL     OW  160   2.087   0.379   1.223 -0.7304 -0.2354  0.3296
   54SOL    HW1  161   2.184   0.417   1.221  0.5915 -0.3250  1.1244
   54SOL    HW2  162   2.072   0.328   1.308 -0.2407 -2.0873 -0.7401
   55SOL     OW  163   2.434   2.656   0.693  0.1403 -0.0580  0.0218
   55SOL    HW1  164   2.460   2.748   0.659 -1.0583 -1.4098  0.7426
   55SOL    HW2  165   2.336   2.631   0.684  1.9704 -0.1015  0.6088
   56SOL     OW  166   0.486   2.948   1.534 -0.2256 -0.1389  0.0299
   56SOL    HW1  167   0.452   2.959   1.627  1.6009  0.5343  0.9084
   56SOL    HW2  168   0.520   2.857   1.512  0.1100  1.3440  1.6250
   57SOL     OW  169   1.696   1.185   0.652 -0.0428  0.4618  0.4349
   57SOL    HW1  170   1.710   1.133   0.565 -1.8254 -0.1415  1.5929
   57SOL    HW2  171   1.741   1.278   0.647  0.6978  0.7156 -1.5292
   58SOL     OW  172   0.295   0.852   2.231  0.5443 -0.3226  0.3542
   58SOL    HW1  173   0.301   0.944   2.191  1.1239  1.1736 -2.5056
   58SOL    HW2  174   0.213   0.832   2.292 -1.9775 -1.0660  0.5786
   59SOL     OW  175   0.872   2.846   2.283  0.2528  0.7269  0.2889
   59SOL    HW1  176   0.963   2.861   2.328  2.4289 -1.0131 -0.9689
   59SOL    HW2  177   0.793   2.874   2.342  1.2567 -1.0934  2.4337
   60SOL     OW  178   2.595   2.676   1.024 -0.1822  0.5749  0.3249
   60SOL    HW1  179   2.497   2.681   0.993  0.5859 -4.3676  1.3578
   60SOL    HW2  180   2.603   2.713   1.116  1.7262 -1.7575  1.2070
   61SOL     OW  181   1.255   2.121   0.865 -0.0698  0.7773 -0.0876
   61SOL    HW1  182   1.220   2.212   0.887 -2.7222 -0.4539 -1.2133
   61SOL    HW2  183   1.194   2.052   0.911  0.4626 -1.3213  1.4124
   62SOL     OW  184   2.086   2.415   2.568 -0.1443 -0.3692 -0.8949
   62SOL    HW1  185   2.037   2.440   2.656  1.6049 -0.6692 -1.4152
   62SOL    HW2  186   2.140   2.497   2.538 -1.6629  0.7927  0.5692
   63SOL     OW  187   2.355   0.613   2.861 -0.1446  0.0619  0.3341
   63SOL    HW1  188   2.284   0.659   2.917 -1.4108 -0.1302  0.1777
   63SOL    HW2  189   2.342   0.510   2.870 -0.5616  0.2809 -0.2365
   64SOL     OW  190   0.959   1.004   2.811 -0.7412  0.1434  0.1390
   64SOL    HW1  191   1.043   0.941   2.807  2.6160 -1.4733  0.9417
   64SOL    HW2  192   0.901   0.978   2.889 -0.8193 -0.5657 -2.1134
   65SOL     OW  193   1.192   2.355   0.525  0.3497 -0.4248  0.0342
   65SOL    HW1  194   1.118   2.354   0.594  3.0996 -2.2668 -1.3358
   65SOL    HW2  195   1.187   2.280   0.457  1.6798  0.0112 -1.9216
   66SOL     OW  196   0.706   1.181   1.649 -0.3184  0.4963  0.3549
   66SOL    HW1  197   0.637   1.120   1.696 -3.0744 -1.1481  0.9712
   66SOL    HW2  198   0.796   1.142   1.652  0.5768  1.5048  0.6007
   67SOL     OW  199   2.310   2.861   2.473 -0.0437 -0.8019 -0.1911
   67SOL    HW1  200   2.239   2.881   2.546 -2.1984  0.0396  1.2308
   67SOL    HW2  201   2.292   2.924   2.394  2.2202  0.2569 -1.7477
   68SOL     OW  202   0.638   1.591   1.115  0.2619  0.2152 -0.5508
   68SOL    HW1  203   0.717   1.642   1.155  1.1826  0.4533  0.5231
   68SOL    HW2  204   0.659   1.493   1.124  1.7823  0.4572  2.9482
   69SOL     OW  205   1.508   2.370   0.151 -0.1758 -0.1839 -0.2451
   69SOL    HW1  206   1.546   2.335   0.235  1.0210 -0.0667 -1.9197
   69SOL    HW2  207   1.465   2.464   0.163  1.4970 -3.2993 -0.2815
   70SOL     OW  208   0.030   1.028   2.498 -0.0415  0.2204 -0.1433
   70SOL    HW1  209   3.021   1.056   2.513 -0.8736 -0.2068 -0.7946
   70SOL    HW2  210   0.032   0.946   2.440  0.4922  0.7697  1.3084
   71SOL     OW  211   2.871   1.538   2.696 -0.3573 -0.3430 -0.3628
   71SOL    HW1  212   2.892   1.565   2.604 -0.8205 -1.6247  2.2100
   71SOL    HW2  213   2.945   1.576   2.757  1.3217  0.5619  0.7419
   72SOL     OW  214   2.658   2.353   0.359 -0.0088  0.4605  0.4489
   72SOL    HW1  215   2.656   2.454   0.372  1.1247 -1.7142  3.0100
   72SOL    HW2  216   2.571   2.317   0.306 -2.0377 -3.4780 -3.3229
   73SOL     OW  217   0.610   1.856   0.309 -0.1621  0.2227  0.5211
   73SOL    HW1  218   0.585   1.954   0.305 -1.6509 -1.8822 -0.0693
   73SOL    HW2  219   0.715   1.856   0.317  1.2408  2.2844  0.9739
   74SOL     OW  220   2.961   1.285   2.773 -1.1763  0.1230  0.1780
   74SOL    HW1  221   2.925   1.365   2.719 -0.1956 -0.3227 -2.1057
   74SOL    HW2  222   2.945   1.198   2.727  0.7342  1.6273  1.3913
   75SOL     OW  223   1.681   1.359   1.854 -0.7860 -0.2321 -0.5453
   75SOL    HW1  224   1.693   1.362   1.954 -0.1365 -0.4815 -3.2643
   75SOL    HW2  225   1.671   1.449   1.817 -0.0551 -0.6078  2.8069
   76SOL     OW  226   1.660   2.374   1.472 -0.7642  0.0343 -0.7957
   76SOL    HW1  227   1.614   2.333   1.550  0.1851 -0.0579 -3.5660
   76SOL    HW2  228   1.665   2.474   1.491 -2.2752 -0.5292  0.8163
   77SOL     OW  229   2.609   1.028   1.174  0.0664 -0.1998 -0.7892
   77SOL    HW1  230   2.698   0.976   1.171 -0.0321 -2.3168 -2.6265
   77SOL    HW2  231   2.538   0.977   1.122  1.2174  0.8018  1.1585
   78SOL     OW  232   1.352   0.926   0.631 -0.3338 -0.3016 -0.5268
   78SOL    HW1  233   1.272   0.961   0.682  0.0386  0.7939 -1.9953
   78SOL    HW2  234   1.428   0.992   0.655  2.0245  0.2631  0.5946
   79SOL     OW  235   0.394   1.804   1.809  1.0083 -0.4084 -0.0571
   79SOL    HW1  236   0.487   1.825   1.843  2.1054  0.8305  1.4318
   79SOL    HW2  237   0.404   1.723   1.750  1.5112 -0.8003  0.8614
   80SOL     OW  238   1.520   1.086   1.533  0.5669 -0.2551 -0.1786
   80SOL    HW1  239   1.509   0.984   1.547 -0.5338 -0.6763 -1.7512
   80SOL    HW2  240   1.496   1.117   1.438  2.8659  1.5478 -1.7201
   81SOL     OW  241   0.773   0.152   0.820  0.3680  0.2883  0.0876
   81SOL    HW1  242   0.701   0.175   0.749  1.5700  0.7386 -0.4106
   81SOL    HW2  243   0.834   0.077   0.782  0.6232 -2.2899 -1.3831
   82SOL     OW  244   1.512   2.681   1.603  0.4608  0.0521 -0.2158
   82SOL    HW1  245   1.528   2.770   1.555  1.6391 -0.5734 -3.2171
   82SOL    HW2  246   1.597   2.654   1.652  2.1654  1.6379  1.2421
   83SOL     OW  247   0.744   2.249   0.868  0.0707 -0.3942  0.7185
   83SOL    HW1  248   0.662   2.221   0.922  0.9700 -0.8956 -0.4188
   83SOL    HW2  249   0.816   2.192   0.902 -1.4963  1.5878 -1.3889
   84SOL     OW  250   0.296   1.427   2.601 -0.0527 -0.2498  0.0939
   84SOL    HW1  251   0.275   1.348   2.539  2.5101  0.5678 -3.2601
   84SOL    HW2  252   0.290   1.517   2.557 -0.4532 -1.6874  2.0854
   85SOL     OW  253   0.183   2.300   1.385 -0.1380 -0.2119  0.8348
   85SOL    HW1  254   0.114   2.279   1.451  2.1512  2.9546  1.0058
   85SOL    HW2  255   0.216   2.400   1.384 -1.2782  0.0094 -0.1987
   86SOL     OW  256   2.331   2.253   1.616  0.1558 -0.4666 -0.1548
   86SOL    HW1  257   2.305   2.331   1.678  0.2574 -0.2524 -0.8172
   86SOL    HW2  258   2.321   2.287   1.521  0.3660 -0.5825  0.6446
   87SOL     OW  259   2.447   2.245   0.222 -0.0087 -0.1948 -0.2467
   87SOL    HW1  260   2.395   2.208   0.303 -0.9458 -0.8452 -0.4079
   87SOL    HW2  261   2.499   2.168   0.175 -0.2403  1.2180 -0.4661
   88SOL     OW  262   0.429   1.642   0.923  0.3880  0.5974  0.1819
   88SOL    HW1  263   0.498   1.616   0.993 -0.8932  0.6085 -1.3487
   88SOL    HW2  264   0.349   1.676   0.975  0.2860  3.3033  0.2925
   89SOL     OW  265   1.050   2.830   1.903  0.4184  0.0682  0.5487
   89SOL    HW1  266   1.047   2.789   1.807 -1.8665 -1.4295 -1.3805
   89SOL    HW2  267   1.136   2.886   1.906 -1.1277 -0.5793  2.2975
   90SOL     OW  268   2.990   1.716   1.571  0.7053  0.4757  0.1033
   90SOL    HW1  269   2.910   1.659   1.586  4.9287  1.9905 -0.5875
   90SOL    HW2  270   3.061   1.667   1.514 -1.1908 -1.6503 -1.6443
   91SOL     OW  271   1.513   2.141   0.906 -0.1909 -0.7233 -0.3236
   91SOL    HW1  272   1.414   2.140   0.882 -2.0892 -0.8132  0.4496
   91SOL    HW2  273   1.539   2.202   0.980 -3.7535  2.1937  1.1282
   92SOL     OW  274   2.548   2.454   1.422 -0.2875  0.3347  0.1863
   92SOL    HW1  275   2.527   2.440   1.517 -0.7182  1.1700 -1.8869
   92SOL    HW2  276   2.570   2.551   1.408  1.7831 -2.7207 -0.7613
   93SOL     OW  277   2.482   1.411   2.500 -0.2064  0.0539 -0.0068
   93SOL    HW1  278   2.520   1.462   2.419 -0.0041  1.0634 -1.0965
   93SOL    HW2  279   2.512   1.450   2.586 -1.9911 -2.3555 -2.2688
   94SOL     OW  280   2.738   2.614   2.085 -0.1499  0.3164 -0.0739
   94SOL    HW1  281   2.805   2.538   2.077 -0.6079 -1.2768  1.0834
   94SOL    HW2  282   2.657   2.581   2.141 -0.1605 -0.4150 -0.5470
   95SOL     OW  283   1.717   0.165   1.561 -0.0237 -0.4268 -0.5344
   95SOL    HW1  284   1.745   0.112   1.646  0.3826  0.9941  2.6883
   95SOL    HW2  285   1.760   0.129   1.475  1.2461 -0.8356 -0.5498
   96SOL     OW  286   3.048   2.819   1.542 -0.0357  0.7252  0.3735
   96SOL    HW1  287   2.956   2.856   1.554 -1.7600 -1.5246  1.0067
   96SOL    HW2  288   3.060   2.750   1.467  1.9047 -0.6161 -2.2057
   97SOL     OW  289   2.231   0.229   1.465 -0.1145  0.4815 -0.0590
   97SOL    HW1  290   2.322   0.256   1.502  2.7989 -1.2047  0.5696
   97SOL    HW2  291   2.155   0.277   1.515  0.9881  1.7267  2.3801
   98SOL     OW  292   1.314   2.308   1.523 -0.1318  0.3960 -0.2993
   98SOL    HW1  293   1.297   2.407   1.520 -0.4782 -2.2262  0.4772
   98SOL    HW2  294   1.383   2.285   1.597 -0.5182  0.0244  0.3450
   99SOL     OW  295   0.020   2.956   1.882  0.2644  0.1278  0.0554
   99SOL    HW1  296   0.064   2.883   1.838 -4.4924  4.6652  0.5178
   99SOL    HW2  297   0.041   2.954   1.981 -1.8102 -0.1772 -2.0672
  100SOL     OW  298   2.947   1.218   2.257 -0.2241 -0.2898 -0.2205
  100SOL    HW1  299   2.865   1.280   2.262 -0.2267  0.5599 -0.2490
  100SOL    HW2  300   2.937   1.128   2.306  0.9522  1.0680 -0.5526
  101SOL     OW  301   2.145   0.857   0.248  0.5701  0.1753 -0.2278
  101SOL    HW1  302   2.219   0.841   0.318 -0.2015  1.5724  1.3119
  101SOL    HW2  303   2.147   0.958   0.224  0.9108  0.0106  0.4423
  102SOL     OW  304   0.065   0.717   1.256  0.4323 -0.0865  0.1552
  102SOL    HW1  305   0.032   0.689   1.163 -1.4662  1.2984 -0.5823
  102SOL    HW2  306   0.092   0.815   1.250 -0.8899 -1.6847  1.1143
  103SOL     OW  307   2.403   0.800   2.647  0.6074 -0.0639 -0.3633
  103SOL    HW1  308   2.394   0.740   2.727 -0.3204  0.0013  0.6050
  103SOL    HW2  309   2.414   0.899   2.664  0.1502 -2.5981 -0.7471
  104SOL     OW  310   0.100   0.047   2.409  0.5322 -0.3058 -0.1244
  104SOL    HW1  311   0.008   0.052   2.455 -0.7428 -1.4060 -0.4918
  104SOL    HW2  312   0.129   0.145   2.415 -0.3173 -0.6862 -1.1037
  105SOL     OW  313   2.013   0.825   1.471 -0.6501 -0.3426 -0.0241
  105SOL    HW1  314   2.107   0.812   1.423  3.2309 -3.6191 -1.4996
  105SOL    HW2  315   1.953   0.880   1.412  3.7296 -1.7818 -2.4102
  106SOL     OW  316   1.137   2.974   0.754  0.4511  0.4277  0.4096
  106SOL    HW1  317   1.131   3.072   0.749 -0.2356 -1.9530 -0.6931
  106SOL    HW2  318   1.119   2.941   0.849  0.8915 -3.8266 -1.0690
  107SOL     OW  319   0.106   1.542   1.131  0.5115  0.7443 -0.2509
  107SOL    HW1  320   0.093   1.637   1.092 -0.9318  2.0113 -0.1254
  107SOL    HW2  321   0.132   1.479   1.051 -0.9067  0.8250  3.1406
  108SOL     OW  322   0.328   3.013   2.436 -0.0675 -0.0437 -0.4099
  108SOL    HW1  323   0.318   2.927   2.482 -2.5691  2.3270 -1.0558
  108SOL    HW2  324   0.234   3.057   2.430 -0.6020 -0.2330 -2.9553
  109SOL     OW  325   2.378   0.125   0.481  0.3505 -0.3441 -0.2270
  109SOL    HW1  326   2.347   0.160   0.387  0.7602  0.8312 -0.2768
  109SOL    HW2  327   2.478   0.113   0.479  1.3092 -1.4239  0.5255
  110SOL     OW  328   0.061   2.496   2.636 -0.2878 -0.4776  0.0863
  110SOL    HW1  329   0.023   2.403   2.655 -2.7255  2.2046  2.4014
  110SOL    HW2  330   0.161   2.496   2.660  1.2530  0.6115  2.0591
  111SOL     OW  331   1.732   2.896   2.062 -0.5100 -0.3117  0.4655
  111SOL    HW1  332   1.666   2.844   2.007  2.2697 -0.2577 -1.3303
  111SOL    HW2  333   1.749   2.991   2.030  0.1694  1.5256 -0.9896
  112SOL     OW  334   1.966   2.496   2.799  0.5254  0.0522  0.2186
  112SOL    HW1  335   1.928   2.406   2.833 -4.0174 -3.3498  2.2622
  112SOL    HW2  336   1.889   2.564   2.804  1.6961 -2.3482 -2.5085
  113SOL     OW  337   2.674   2.039   1.928 -0.5955  0.0956  0.2486
  113SOL    HW1  338   2.652   1.941   1.936 -0.5214 -1.0011 -3.0108
  113SOL    HW2  339   2.769   2.050   1.894 -1.2762  0.5453 -0.2692
  114SOL     OW  340   2.455   0.871   0.976  0.1834 -0.0159  0.3418
  114SOL    HW1  341   2.375   0.813   1.006  2.3925  0.2603 -1.5004
  114SOL    HW2  342   2.424   0.940   0.908 -0.3190  0.4270  0.1038
  115SOL     OW  343   3.057   1.660   2.849  0.2438  0.2371  0.6133
  115SOL    HW1  344   0.068   1.655   2.828 -1.2921 -1.5120 -0.6719
  115SOL    HW2  345   3.024   1.754   2.832 -0.0079 -3.5404 -0.1128
  116SOL     OW  346   0.083   1.479   2.304 -0.0643  0.0587  0.8182
  116SOL    HW1  347   0.163   1.536   2.325 -1.6474 -2.3321 -1.7233
  116SOL    HW2  348   0.083   1.443   2.210 -0.6563 -0.4572  1.5706
  117SOL     OW  349   2.613   0.218   0.789  0.5223 -0.1594 -0.2651
  117SOL    HW1  350   2.536   0.172   0.840  0.3044 -1.7210  1.0924
  117SOL    HW2  351   2.595   0.229   0.691  1.5967  0.6989 -1.6254
  118SOL     OW  352   0.690   2.132   1.748  0.3277  0.1621  0.0539
  118SOL    HW1  353   0.711   2.190   1.671  0.9262 -1.2834 -1.7179
  118SOL    HW2  354   0.687   2.031   1.723 -0.1986 -1.6061  0.6921
  119SOL     OW  355   1.596   2.284   0.406  0.2644  0.2454 -0.3203
  119SOL    HW1  356   1.688   2.303   0.445  0.4254 -0.6079  0.6251
  119SOL    HW2  357   1.573   2.187   0.413  1.6552 -0.7650  0.3445
  120SOL     OW  358   0.315   1.647   2.389 -0.3186  0.1731  0.3723
  120SOL    HW1  359   0.282   1.735   2.421 -2.4239 -0.2616 -0.2939
  120SOL    HW2  360   0.404   1.650   2.341 -0.0222 -1.4653  0.9864
  121SOL     OW  361   2.257   2.125   1.143  0.0143 -0.2463 -0.5441
  121SOL    HW1  362   2.249   2.068   1.227  0.1504 -2.0469 -0.2406
  121SOL    HW2  363   2.345   2.179   1.133  4.1834  2.1475 -1.0318
  122SOL     OW  364   2.313   1.969   2.044 -0.5636 -0.1872  0.1461
  122SOL    HW1  365   2.273   1.878   2.042 -0.2779  3.0564 -1.2974
  122SOL    HW2  366   2.412   1.961   2.077 -0.1357  1.0437 -0.8371
  123SOL     OW  367   3.008   0.055   0.726  0.7280  0.0636 -0.5634
  123SOL    HW1  368   2.983   0.123   0.797 -0.2103 -0.0676 -0.2595
  123SOL    HW2  369   3.052   3.064   0.767 -0.8071 -0.1940 -2.4190
  124SOL     OW  370   1.813   0.489   2.558 -0.0186 -0.0693  0.1087
  124SOL    HW1  371   1.764   0.461   2.475 -0.3906 -1.1685  0.7069
  124SOL    HW2  372   1.872   0.414   2.591  2.7081 -3.3974  2.5224
  125SOL     OW  373   0.284   1.347   0.204  0.0794  0.1655  0.0044
  125SOL    HW1  374   0.309   1.394   0.120 -1.8384 -0.2380  0.5046
  125SOL    HW2  375   0.292   1.244   0.190  1.8290 -1.2378  0.1773
  126SOL     OW  376   2.311   2.107   0.402 -0.2911 -0.4688  0.4619
  126SOL    HW1  377   2.219   2.061   0.395  1.2826 -2.4521 -0.4917
  126SOL    HW2  378   2.339   2.127   0.499  0.8990 -1.1555 -0.5142
  127SOL     OW  379   0.275   1.801   1.081 -0.2214  0.3652 -0.6055
  127SOL    HW1  380   0.239   1.886   1.044  0.1301 -0.9509  0.1605
  127SOL    HW2  381   0.242   1.794   1.178 -1.5414 -0.3979 -1.9858
  128SOL     OW  382   0.840   0.735   3.071 -0.3186 -0.4061 -0.3259
  128SOL    HW1  383   0.805   0.820   3.031  1.6097 -3.5667  2.1934
  128SOL    HW2  384   0.801   0.738   0.075 -1.0016  0.6919 -2.3705
  129SOL     OW  385   2.420   1.561   0.796  0.2858 -0.4301 -0.1752
  129SOL    HW1  386   2.400   1.652   0.753 -0.9555 -1.0174 -3.0582
  129SOL    HW2  387   2.497   1.517   0.754 -4.3258  0.7159 -2.5223
  130SOL     OW  388   2.185   1.687   1.225  0.0243 -0.0307 -0.2689
  130SOL    HW1  389   2.196   1.647   1.129  0.6039 -1.9474 -1.1133
  130SOL    HW2  390   2.099   1.644   1.255 -0.8956 -0.4903 -3.2457
  131SOL     OW  391   2.895   0.971   2.871 -0.1183  0.3685 -0.4274
  131SOL    HW1  392   2.859   0.878   2.892  0.5253  0.3498  0.6495
  131SOL    HW2  393   2.990   0.975   2.907 -1.6163 -2.3364  0.5412
  132SOL     OW  394   2.688   1.763   1.883 -0.0211  0.2608  0.1122
  132SOL    HW1  395   2.787   1.762   1.906 -1.3471 -3.0589 -0.6923
  132SOL    HW2  396   2.645   1.686   1.930  0.4041  1.1643  1.2067
  133SOL     OW  397   0.060   0.941   0.779 -0.6894  0.0859 -0.2194
  133SOL    HW1  398   0.147   0.924   0.830 -1.1437  2.2724 -3.1030
  133SOL    HW2  399   3.072   0.946   0.848 -0.8869 -1.5423 -2.1213
  134SOL     OW  400   0.305   1.085   0.194  0.5331 -0.0398 -0.4228
  134SOL    HW1  401   0.302   0.999   0.245 -0.4614  1.1418 -2.3157
  134SOL    HW2  402   0.353   1.070   0.104  0.6695 -0.2789 -0.8340
  135SOL     OW  403   1.946   1.250   1.270 -0.2823  0.3199  0.0890
  135SOL    HW1  404   1.956   1.226   1.368 -1.5388  0.0589 -0.4703
  135SOL    HW2  405   1.860   1.213   1.233  0.5925  1.0221 -0.7610
  136SOL     OW  406   1.775   1.084   1.153 -0.1805 -0.6145  0.3106
  136SOL    HW1  407   1.697   1.023   1.177  1.9585  1.6762 -1.2845
  136SOL    HW2  408   1.809   1.064   1.062  1.2707 -1.7841 -0.3658
  137SOL     OW  409   2.380   1.794   0.664 -0.1170 -0.0606  0.2401
  137SOL    HW1  410   2.305   1.838   0.611 -2.1488  3.3980 -0.2943
  137SOL    HW2  411   2.402   1.852   0.748  0.2959  0.9802 -0.2391
  138SOL     OW  412   1.483   0.460   1.884 -0.1571 -0.1155 -0.2262
  138SOL    HW1  413   1.585   0.460   1.885  0.4945  1.3269 -1.3768
  138SOL    HW2  414   1.460   0.553   1.851  0.1982  1.0190  0.5433
  139SOL     OW  415   2.059   0.172   2.876 -0.3552 -0.1088 -0.6235
  139SOL    HW1  416   2.137   0.117   2.834  1.8103 -0.2144 -0.1775
  139SOL    HW2  417   2.092   0.232   2.953  2.9721  0.6473 -0.6082
  140SOL     OW  418   1.450   2.196   2.482  0.0198 -0.2273 -0.1212
  140SOL    HW1  419   1.491   2.254   2.556  0.0579 -0.9751 -0.4854
  140SOL    HW2  420   1.502   2.113   2.453 -0.3247 -1.8320  0.8590
  141SOL     OW  421   1.425   1.406   1.569  0.4816 -0.3630  0.4940
  141SOL    HW1  422   1.431   1.327   1.632  0.0959 -0.2924 -0.0804
  141SOL    HW2  423   1.519   1.441   1.539  2.0631  0.1985 -0.3152
  142SOL     OW  424   2.653   0.148   3.019 -0.1066 -0.1226 -0.0655
  142SOL    HW1  425   2.725   0.095   2.970 -1.6552  0.4017  0.0269
  142SOL    HW2  426   2.564   0.103   3.033  2.5624  1.3079 -1.8035
  143SOL     OW  427   0.517   2.434   2.861  0.1399  0.3124  0.4507
  143SOL    HW1  428   0.462   2.362   2.910 -0.5818  1.9030  0.0626
  143SOL    HW2  429   0.503   2.526   2.897 -0.6572 -1.1495 -0.2429
  144SOL     OW  430   0.853   2.977   2.026  0.0304  0.4038 -0.0344
  144SOL    HW1  431   0.869   2.939   2.119  0.2009 -0.2494  2.4820
  144SOL    HW2  432   0.931   2.948   1.968  2.0119 -1.7724  0.5264
  145SOL     OW  433   2.269   1.465   0.352  0.3076 -0.4895 -0.3350
  145SOL    HW1  434   2.344   1.408   0.315 -1.8342 -3.1763  1.0258
  145SOL    HW2  435   2.271   1.470   0.452  1.2709  2.6148 -0.9526
  146SOL     OW  436   2.572   2.934   2.779 -0.3773 -0.7613 -0.3325
  146SOL    HW1  437   2.540   3.003   2.712 -0.2296  1.7488 -0.9763
  146SOL    HW2  438   2.516   2.943   2.867  0.7305  2.0670 -0.4024
  147SOL     OW  439   2.844   2.617   1.092  0.1869 -0.0530 -0.0060
  147SOL    HW1  440   2.839   2.687   1.167 -2.6034  3.3463  0.3357
  147SOL    HW2  441   2.756   2.628   1.041 -0.7333 -0.3254 -1.4929
  148SOL     OW  442   1.725   0.064   0.028  0.0751 -0.2074  0.5321
  148SOL    HW1  443   1.708   0.038   0.126 -0.8220 -2.7565 -0.4830
  148SOL    HW2  444   1.816   0.030   3.086 -2.2075 -1.8293  2.4810
  149SOL     OW  445   0.825   1.187   2.636 -0.4418  0.0182 -0.3519
  149SOL    HW1  446   0.876   1.133   2.713  1.5102 -4.0716  2.3116
  149SOL    HW2  447   0.821   1.286   2.658 -0.1452 -0.4339 -0.9745
  150SOL     OW  448   1.212   2.623   0.916  0.0901 -0.3700  0.3190
  150SOL    HW1  449   1.175   2.630   1.011  2.4450  0.7453 -0.2001
  150SOL    HW2  450   1.168   2.688   0.856  0.7090 -0.5527  1.6208
  151SOL     OW  451   0.103   2.051   0.036 -0.5115 -0.5175  0.3492
  151SOL    HW1  452   0.136   1.956   0.035 -0.9145  1.3135 -0.5108
  151SOL    HW2  453   0.085   2.089   3.033  1.5805 -1.9517  4.3285
  152SOL     OW  454   0.330   1.284   0.628  0.5633  0.2948  0.2243
  152SOL    HW1  455   0.379   1.305   0.540  1.0642 -1.3661  0.4747
  152SOL    HW2  456   0.230   1.314   0.617 -0.8224  3.0771 -0.5490
  153SOL     OW  457   2.374   2.562   2.956 -0.1805  0.6590  0.8463
  153SOL    HW1  458   2.444   2.556   3.025 -3.7062 -0.1668  1.8452
  153SOL    HW2  459   2.378   2.478   2.897 -0.9478  1.2083 -0.7577
  154SOL     OW  460   0.487   0.316   1.118 -0.5422 -0.6121 -0.1183
  154SOL    HW1  461   0.512   0.246   1.053  1.1882  1.0866  1.5486
  154SOL    HW2  462   0.472   0.287   1.212  0.8657  1.9799  0.9389
  155SOL     OW  463   2.996   1.993   1.159 -0.2497  0.3857  0.0270
  155SOL    HW1  464   3.010   1.901   1.116  1.7594  0.2859  0.3189
  155SOL    HW2  465   2.990   2.003   1.261 -0.1118 -1.1819  0.7008
  156SOL     OW  466   2.211   2.225   0.089 -0.6532 -0.2369  0.0711
  156SOL    HW1  467   2.192   2.123   0.086 -1.1074  1.3085  0.7077
  156SOL    HW2  468   2.305   2.245   0.120  1.1389 -1.8691  1.9663
  157SOL     OW  469   0.729   2.532   0.979 -0.0666 -0.0245  0.2006
  157SOL    HW1  470   0.721   2.450   0.920  2.4321  2.9804  2.7210
  157SOL    HW2  471   0.759   2.511   1.075 -1.3815 -0.1866  3.1293
  158SOL     OW  472   2.097   0.668   2.726  0.0800  0.4234  0.4065
  158SOL    HW1  473   2.132   0.641   2.819  0.0213  0.2108  2.3735
  158SOL    HW2  474   1.996   0.678   2.723  0.7591 -1.9398  1.1274
  159SOL     OW  475   0.852   0.195   2.594  0.0189 -0.3392 -0.3925
  159SOL    HW1  476   0.849   0.110   2.646  1.6456  0.5949  0.2656
  159SOL    HW2  477   0.835   0.275   2.658  0.0656  1.2245  1.0698
  160SOL     OW  478   0.887   1.875   0.316  0.4292  0.6036  0.3183
  160SOL    HW1  479   0.885   1.894   0.417  0.0423 -1.7233 -3.0009
  160SOL    HW2  480   0.928   1.781   0.294 -0.0410 -1.5061  0.4376
  161SOL     OW  481   2.799   2.163   3.034  0.0885  0.2358 -0.6346
  161SOL    HW1  482   2.870   2.146   0.013  1.6792 -1.5809 -1.7686
  161SOL    HW2  483   2.795   2.261   3.008 -1.3503 -2.1160  4.2442
  162SOL     OW  484   0.475   2.673   0.943 -0.3942 -0.2547  0.1152
  162SOL    HW1  485   0.568   2.636   0.968  0.2144  0.7993  0.4045
  162SOL    HW2  486   0.412   2.666   1.022  0.3071  0.4930  0.0059
  163SOL     OW  487   2.577   0.624   3.023  0.6852 -0.0775  0.1041
  163SOL    HW1  488   2.550   0.618   0.031  1.4759 -0.0537 -1.3963
  163SOL    HW2  489   2.495   0.618   2.962  2.2517 -0.5998  4.6285
  164SOL     OW  490   0.023   2.760   0.465  0.0849  0.3999  0.0938
  164SOL    HW1  491   3.050   2.693   0.408 -2.1364 -0.0882 -2.5463
  164SOL    HW2  492   3.082   2.853   0.455 -0.7664 -2.6707 -2.1834
  165SOL     OW  493   2.512   0.383   1.236  0.8690  0.0148  0.2651
  165SOL    HW1  494   2.528   0.346   1.333 -0.0689  1.5548 -0.4950
  165SOL    HW2  495   2.426   0.440   1.248 -1.4947  0.7769  1.0571
  166SOL     OW  496   2.047   0.301   0.968 -0.0569  0.1887 -0.4722
  166SOL    HW1  497   2.137   0.297   0.924  0.6385 -1.5438  0.3062
  166SOL    HW2  498   2.070   0.308   1.067  2.4229 -0.5822 -1.5863
  167SOL     OW  499   0.365   0.689   1.351  0.3578  0.2153  1.2626
  167SOL    HW1  500   0.302   0.611   1.362  1.1984 -0.2970  0.1604
  167SOL    HW2  501   0.315   0.776   1.329 -3.8795  0.2160  0.2526
  168SOL     OW  502   2.684   3.001   2.196  0.4259  0.1110  0.0142
  168SOL    HW1  503   2.720   2.949   2.271 -3.4033 -0.6771 -1.3234
  168SOL    HW2  504   2.590   3.023   2.216  2.2196 -1.6350 -0.4242
  169SOL     OW  505   0.033   1.552   0.797  0.2383  1.0358  0.1444
  169SOL    HW1  506   0.026   1.654   0.803  0.1218  1.5398 -1.0667
  169SOL    HW2  507   3.048   1.505   0.852 -2.3158 -0.9101 -4.1064
  170SOL     OW  508   3.085   0.757   1.513 -0.1167  0.6546 -0.3020
  170SOL    HW1  509   0.025   0.737   1.414 -1.4318  0.9184 -0.7140
  170SOL    HW2  510   0.055   0.712   1.581 -2.5856  0.8659  1.4508
  171SOL     OW  511   1.057   2.229   1.437 -0.1660 -0.4550  0.3209
  171SOL    HW1  512   1.150   2.261   1.469 -0.8560  2.5649  0.3696
  171SOL    HW2  513   0.981   2.254   1.499  0.7307 -1.5554  1.7765
  172SOL     OW  514   0.382   2.392   1.071 -0.2032  0.4211 -0.7113
  172SOL    HW1  515   0.430   2.301   1.062  3.6504 -1.0825  1.2238
  172SOL    HW2  516   0.291   2.382   1.021  0.9994  0.4196 -1.8276
  173SOL     OW  517   1.155   0.113   0.314  0.3595 -0.0549 -0.3368
  173SOL    HW1  518   1.097   0.139   0.230 -2.1305  3.1784 -0.6321
  173SOL    HW2  519   1.230   0.179   0.331  1.9254 -3.4274 -2.1468
  174SOL     OW  520   0.746   2.528   2.615  0.0022  0.3947  0.7774
  174SOL    HW1  521   0.826   2.464   2.593  1.0281 -0.6009  1.9768
  174SOL    HW2  522   0.741   2.550   2.713  0.8577 -0.6430 -1.4236
  175SOL     OW  523   1.457   0.635   0.106  0.1650 -0.4035  0.4690
  175SOL    HW1  524   1.549   0.593   0.116  0.3328  2.7559 -0.4125
  175SOL    HW2  525   1.471   0.739   0.093  1.7347  2.8612 -0.4224
  176SOL     OW  526   1.429   0.271   0.318 -0.3207 -0.0554 -0.8315
  176SOL    HW1  527   1.466   0.213   0.245  0.6179  2.5648 -0.0288
  176SOL    HW2  528   1.416   0.211   0.401  1.7193 -0.0633  2.8271
  177SOL     OW  529   1.413   1.005   0.940 -0.3963 -0.3738  0.0255
  177SOL    HW1  530   1.426   1.086   0.874  0.3017  1.3872  0.0570
  177SOL    HW2  531   1.322   1.025   0.982  0.6881 -1.7615 -0.8426
  178SOL     OW  532   2.131   1.822   2.312 -0.1846  0.0886 -0.8729
  178SOL    HW1  533   2.135   1.762   2.232 -0.8973  2.1256  0.7848
  178SOL    HW2  534   2.178   1.770   2.392  1.7965 -0.8014  1.6845
  179SOL     OW  535   0.558   2.687   2.501  0.0529  0.2218 -0.3383
  179SOL    HW1  536   0.632   2.643   2.555 -0.1783 -0.3207 -1.1404
  179SOL    HW2  537   0.497   2.612   2.465 -0.6779  0.2465 -1.1068
  180SOL     OW  538   1.534   1.994   1.729  0.7015  0.3702  0.1033
  180SOL    HW1  539   1.586   1.995   1.817 -0.7098  0.1740  1.7848
  180SOL    HW2  540   1.581   1.934   1.654  0.0709 -2.8541 -0.8390
  181SOL     OW  541   1.522   1.193   2.320 -0.1935 -0.0016  0.6452
  181SOL    HW1  542   1.483   1.258   2.387 -1.6285 -0.2536 -3.3402
  181SOL    HW2  543   1.453   1.154   2.257  1.6455  0.1416  1.7584
  182SOL     OW  544   3.069   0.575   2.580 -0.0071 -0.6643  0.6628
  182SOL    HW1  545   2.986   0.570   2.638 -0.9755  1.3940  0.9076
  182SOL    HW2  546   0.012   0.483   2.550 -2.2110  1.4586  0.3255
  183SOL     OW  547   1.364   0.274   2.723 -0.5083 -0.6560  0.4121
  183SOL    HW1  548   1.377   0.309   2.622 -0.6492  1.5278 -2.0841
  183SOL    HW2  549   1.433   0.309   2.787 -1.1106  0.1974 -0.2724
  184SOL     OW  550   0.902   0.701   1.401 -0.6426 -0.2181 -0.3232
  184SOL    HW1  551   0.854   0.774   1.462 -1.5327  1.0273  1.0172
  184SOL    HW2  552   0.886   0.734   1.300  0.3368 -0.1137  0.5594
  185SOL     OW  553   2.984   1.373   0.941  0.0903 -0.6204 -0.0229
  185SOL    HW1  554   2.930   1.401   1.027 -3.1182 -0.2125  0.8949
  185SOL    HW2  555   3.019   1.280   0.952 -0.2691  2.3014 -1.5693
  186SOL     OW  556   0.484   1.738   2.911  0.1062 -0.1330  0.3992
  186SOL    HW1  557   0.497   1.747   3.013  2.1630 -0.5653 -0.6534
  186SOL    HW2  558   0.447   1.825   2.875  1.2340  0.3663  2.1093
  187SOL     OW  559   2.483   1.393   0.187  0.5847  0.2067 -0.3876
  187SOL    HW1  560   2.559   1.462   0.197  1.1455  1.8383 -1.1772
  187SOL    HW2  561   2.427   1.413   0.106 -0.6866  0.6595 -1.4667
  188SOL     OW  562   0.074   2.240   0.629  0.0427  0.1723 -0.3803
  188SOL    HW1  563   0.106   2.257   0.536 -0.5329 -0.7102  0.0157
  188SOL    HW2  564   3.079   2.299   0.637  0.7741  0.5188 -1.7580
  189SOL     OW  565   2.663   0.953   0.250  0.2036 -0.3745 -0.4879
  189SOL    HW1  566   2.733   0.977   0.180 -0.0477  0.7164  1.7009
  189SOL    HW2  567   2.706   0.916   0.332 -3.6606  0.5265  1.5085
  190SOL     OW  568   1.546   1.688   2.136  0.3405  0.0226  0.0114
  190SOL    HW1  569   1.642   1.710   2.166  2.5903 -0.1122 -0.5060
  190SOL    HW2  570   1.476   1.680   2.212 -4.1426  0.0220 -0.8214
  191SOL     OW  571   2.524   0.298   1.494  0.0709 -0.0260  0.6702
  191SOL    HW1  572   2.568   0.217   1.540 -1.1802  4.1100  0.4553
  191SOL    HW2  573   2.528   0.379   1.551  1.1112 -5.7402 -3.7877
  192SOL     OW  574   2.117   0.217   1.789  0.5155 -0.5203  0.5876
  192SOL    HW1  575   2.104   0.121   1.814  0.0410  2.4093 -0.8574
  192SOL    HW2  576   2.212   0.248   1.807  1.5981 -2.4553 -3.0197
  193SOL     OW  577   0.882   0.540   0.367  0.1201 -0.5624 -0.0232
  193SOL    HW1  578   0.866   0.478   0.447  2.6088  0.4166 -0.8592
  193SOL    HW2  579   0.794   0.585   0.345 -1.7376  0.4988 -2.2545
  194SOL     OW  580   1.029   2.928   1.465  0.3028  0.0120  0.2530
  194SOL    HW1  581   1.095   2.978   1.411  0.4674  1.3912 -0.8676
  194SOL    HW2  582   0.978   2.995   1.524  0.9374  3.7338  1.8063
  195SOL     OW  583   2.251   0.708   1.033 -0.0499  0.0018 -0.0067
  195SOL    HW1  584   2.216   0.673   0.944  0.4611 -3.3842 -1.9078
  195SOL    HW2  585   2.180   0.768   1.074 -1.1042 -2.0548 -1.1340
  196SOL     OW  586   1.667   1.993   1.961  0.1758 -0.9870  0.0167
  196SOL    HW1  587   1.756   2.047   1.963  2.6297 -1.9221 -0.1179
  196SOL    HW2  588   1.605   2.005   2.046  0.2353  0.6484 -0.6549
  197SOL     OW  589   0.174   0.086   0.140 -0.1647  0.4607  0.0217
  197SOL    HW1  590   0.231   0.072   0.222 -2.9616 -0.7377 -1.4792
  197SOL    HW2  591   0.228   0.072   0.054 -0.4902 -0.1798 -0.0324
  198SOL     OW  592   1.151   1.044   0.779  0.1388  0.2243 -0.1956
  198SOL    HW1  593   1.138   1.142   0.815 -0.6730 -0.8875  1.5258
  198SOL    HW2  594   1.088   0.985   0.836 -1.6288  1.1898 -0.5686
  199SOL     OW  595   2.980   1.071   2.025  0.4525  0.1330 -0.1514
  199SOL    HW1  596   3.071   1.032   2.027 -1.6979 -0.9143 -0.9866
  199SOL    HW2  597   2.966   1.136   2.101 -0.3713  0.3738  1.5598
  200SOL     OW  598   2.701   1.895   2.649 -0.0948 -0.0421  0.4718
  200SOL    HW1  599   2.627   1.962   2.624 -1.1114  0.7862 -1.0328
  200SOL    HW2  600   2.713   1.892   2.751 -0.7892  0.0324  0.8123
  201SOL     OW  601   2.507   0.112   1.160 -0.2188 -0.4275 -0.1643
  201SOL    HW1  602   2.512   0.210   1.191 -0.3603  0.5745  1.7317
  201SOL    HW2  603   2.466   0.110   1.070  1.4252 -0.9529 -0.1593
  202SOL     OW  604   2.362   0.871   0.410 -0.4464 -0.4185  0.2727
  202SOL    HW1  605   2.353   0.872   0.515  0.3530  0.0844  2.8439
  202SOL    HW2  606   2.403   0.956   0.369 -1.1895  0.1893 -2.6612
  203SOL     OW  607   1.655   2.013   2.327 -0.2450  0.0430 -0.2838
  203SOL    HW1  608   1.568   1.993   2.277 -1.5236  1.9429 -1.9092
  203SOL    HW2  609   1.711   1.929   2.326 -1.6013  2.0983  1.8366
  204SOL     OW  610   1.043   1.754   2.189 -0.1460 -0.2885  0.2202
  204SOL    HW1  611   1.035   1.650   2.194  0.9922  1.8654  1.2613
  204SOL    HW2  612   1.095   1.786   2.268  0.9542  0.4403 -3.4083
  205SOL     OW  613   0.918   1.922   1.499  0.3042 -0.0842  0.2780
  205SOL    HW1  614   0.956   1.965   1.417  4.3592 -1.6917  1.5550
  205SOL    HW2  615   0.991   1.879   1.556  2.8025  0.1248 -0.9267
  206SOL     OW  616   3.018   0.364   3.018  1.1602  0.4301  0.2159
  206SOL    HW1  617   3.012   0.289   3.087  0.5810  2.6565 -1.0945
  206SOL    HW2  618   2.916   0.389   2.991 -2.4922  0.9934 -2.0271
  207SOL     OW  619   1.955   2.780   2.117  0.0475  0.3292 -0.1923
  207SOL    HW1  620   1.871   2.836   2.088 -1.6577  0.4523 -0.5863
  207SOL    HW2  621   2.001   2.737   2.034 -0.1514  3.0117 -0.4079
  208SOL     OW  622   0.412   2.149   1.423 -0.0476  0.1049 -0.0831
  208SOL    HW1  623   0.338   2.212   1.399 -0.2815  0.2332 -0.8728
  208SOL    HW2  624   0.438   2.083   1.349 -0.2955  1.0559  1.9490
  209SOL     OW  625   1.431   0.851   2.502  0.3105 -0.2383  0.4102
  209SOL    HW1  626   1.364   0.927   2.477  0.4921  2.0295  0.4633
  209SOL    HW2  627   1.491   0.825   2.423  3.9681 -0.8900  1.8178
  210SOL     OW  628   2.097   0.896   1.146 -0.7188  0.0134 -0.4525
  210SOL    HW1  629   2.137   0.956   1.221  1.7900 -2.0321  1.9161
  210SOL    HW2  630   1.995   0.888   1.154  2.2130 -1.1930  0.2176
  211SOL     OW  631   0.567   0.232   0.607 -0.6506 -0.0280 -0.1206
  211SOL    HW1  632   0.510   0.276   0.679 -0.0262 -0.1898 -1.0823
  211SOL    HW2  633   0.539   0.135   0.591 -1.4106 -1.2367  0.3593
  212SOL     OW  634   1.766   1.324   0.243  0.2216  0.2375 -0.1329
  212SOL    HW1  635   1.783   1.320   0.145 -2.1348  1.8272 -2.9382
  212SOL    HW2  636   1.669   1.294   0.257 -3.6825 -0.3087 -1.6707
  213SOL     OW  637   1.783   0.082   2.453 -0.3572  0.4564 -0.3020
  213SOL    HW1  638   1.717   0.094   2.534 -3.9353 -1.6800  0.9982
  213SOL    HW2  639   1.847   0.008   2.483 -1.8159  0.6225  0.1948
  214SOL     OW  640   1.709   1.274   2.132 -0.0755  0.0647 -0.5233
  214SOL    HW1  641   1.790   1.268   2.196  2.9705 -1.1444  0.4346
  214SOL    HW2  642   1.622   1.251   2.185 -0.2739  0.3323  1.1916
  215SOL     OW  643   0.183   1.877   0.404  0.2567 -0.1195 -0.4070
  215SOL    HW1  644   0.217   1.788   0.368 -0.4648 -0.1927  0.4052
  215SOL    HW2  645   0.195   1.950   0.334  0.9397  0.2595 -0.8794
  216SOL     OW  646   0.545   2.769   2.214 -0.0716 -0.3192  0.1313
  216SOL    HW1  647   0.636   2.738   2.182  1.4540  0.2746  0.0682
  216SOL    HW2  648   0.524   2.740   2.308 -0.3765 -0.0181  1.0627
  217SOL     OW  649   2.480   1.169   0.594  0.3462  0.5501  0.0322
  217SOL    HW1  650   2.532   1.088   0.626 -2.8964 -0.5485 -1.2693
  217SOL    HW2  651   2.457   1.155   0.496  1.6763 -1.4353  1.3010
  218SOL     OW  652   2.117   1.966   1.846 -0.0474 -0.0460  0.6018
  218SOL    HW1  653   2.045   2.034   1.846  1.1517 -0.9872 -1.4504
  218SOL    HW2  654   2.179   1.974   1.927 -2.2185  1.5299  1.0285
  219SOL     OW  655   1.910   1.220   0.002 -0.8332  0.3032  0.1673
  219SOL    HW1  656   1.986   1.282   3.063  0.8008  0.2987  1.8123
  219SOL    HW2  657   1.837   1.218   3.017 -0.9560  1.2953 -1.6088
  220SOL     OW  658   1.153   1.663   1.115 -0.4900 -0.2727  0.5322
  220SOL    HW1  659   1.185   1.697   1.206 -0.2382 -0.4903 -0.8064
  220SOL    HW2  660   1.236   1.625   1.071  1.2107 -0.0790  0.2573
  221SOL     OW  661   0.554   0.663   2.859  0.1351  0.9457  0.0469
  221SOL    HW1  662   0.626   0.689   2.791  0.1858 -1.5446  0.3695
  221SOL    HW2  663   0.489   0.591   2.829 -1.5908  0.2436  1.3373
  222SOL     OW  664   0.884   1.728   1.194  0.0920  0.1776  0.6247
  222SOL    HW1  665   0.854   1.692   1.284  1.0461 -0.9250  0.7246
  222SOL    HW2  666   0.977   1.693   1.169 -1.1111  1.4023 -0.3534
  223SOL     OW  667   1.615   0.048   2.652 -0.2932 -0.2242  0.0826
  223SOL    HW1  668   1.559   3.049   2.662  0.5661  2.0289  0.9516
  223SOL    HW2  669   1.608   0.099   2.742  0.9276 -1.0213 -1.2049
  224SOL     OW  670   2.667   0.696   0.983  0.0065 -0.3098 -0.0252
  224SOL    HW1  671   2.628   0.604   0.989 -1.0118  3.2102  0.3759
  224SOL    HW2  672   2.588   0.763   0.985 -1.6330  2.0923  1.8725
  225SOL     OW  673   1.145   0.600   1.510  0.5839 -0.2097 -0.2840
  225SOL    HW1  674   1.150   0.506   1.473 -0.5497  0.7128  0.4000
  225SOL    HW2  675   1.077   0.656   1.459  1.5109  2.7572 -0.4868
  226SOL     OW  676   1.669   1.903   2.710 -0.1852  0.1937 -0.2365
  226SOL    HW1  677   1.631   1.830   2.652 -0.4199  0.9810 -0.7626
  226SOL    HW2  678   1.643   1.902   2.809  1.8437 -1.0681 -2.1364
  227SOL     OW  679   1.261   1.777   1.348 -0.0645  0.3392  0.2098
  227SOL    HW1  680   1.359   1.746   1.346  1.8826  0.6561 -1.7781
  227SOL    HW2  681   1.212   1.765   1.435 -0.6645  2.0922  1.2627
  228SOL     OW  682   0.499   1.824   0.737  0.0333 -0.2255 -0.3865
  228SOL    HW1  683   0.598   1.850   0.756  2.0167  1.3274  1.7003
  228SOL    HW2  684   0.473   1.746   0.800  0.9345  0.0281 -1.4646
  229SOL     OW  685   1.725   0.569   0.102 -0.0605 -0.3096 -0.5431
  229SOL    HW1  686   1.731   0.569   3.085  0.4017 -3.4122 -0.7718
  229SOL    HW2  687   1.808   0.608   0.145  0.9761  0.5545  0.7334
  230SOL     OW  688   1.027   0.578   2.281 -0.2638  0.3747 -0.3626
  230SOL    HW1  689   1.080   0.507   2.229 -2.4976  1.4605  1.5070
  230SOL    HW2  690   1.046   0.571   2.381 -1.4904  1.4392 -1.2581
  231SOL     OW  691   1.337   1.702   2.327 -0.2104  0.6154 -0.2620
  231SOL    HW1  692   1.284   1.623   2.359  2.3449  2.3299  0.9238
  231SOL    HW2  693   1.287   1.792   2.344 -0.5472  3.1122 -3.8927
  232SOL     OW  694   2.180   1.602   0.973  0.0376 -0.5812  0.3623
  232SOL    HW1  695   2.079   1.581   0.963  2.6362 -2.2271 -1.0245
  232SOL    HW2  696   2.231   1.555   0.897 -1.4937 -0.8300 -2.0166
  233SOL     OW  697   1.985   2.796   0.059 -0.4081  0.2057  0.1193
  233SOL    HW1  698   1.911   2.733   0.023 -2.3051  0.5883 -0.4164
  233SOL    HW2  699   1.957   2.831   0.149  0.3592 -0.1677  1.6870
  234SOL     OW  700   0.836   2.852   2.652  0.0011  0.2754 -0.4346
  234SOL    HW1  701   0.925   2.837   2.603 -0.9328 -1.5106 -1.5613
  234SOL    HW2  702   0.764   2.862   2.582 -2.3962  3.8457 -2.3414
  235SOL     OW  703   2.413   0.018   3.040  0.3615 -0.0496 -0.4085
  235SOL    HW1  704   2.345   0.037   2.965 -0.0140 -1.5820  0.5997
  235SOL    HW2  705   2.373   3.057   0.032 -0.0493 -0.8642  3.2921
  236SOL     OW  706   2.443   2.245   2.383 -0.3687  0.0935 -0.3491
  236SOL    HW1  707   2.424   2.319   2.445  1.2175 -1.4169 -0.6801
  236SOL    HW2  708   2.542   2.245   2.358 -0.8488 -0.9333 -1.5953
  237SOL     OW  709   1.240   1.591   1.688  0.4616  0.0014 -0.2478
  237SOL    HW1  710   1.302   1.521   1.644 -0.2627  0.0106 -0.3807
  237SOL    HW2  711   1.277   1.625   1.777  1.5653  1.9877  1.0070
  238SOL     OW  712   2.148   0.207   2.380  0.0165  0.4431  0.1798
  238SOL    HW1  713   2.157   0.250   2.288  1.6296  2.1834  1.6537
  238SOL    HW2  714   2.054   0.171   2.397 -0.2906 -4.3554  0.0507
  239SOL     OW  715   0.267   1.721   2.051  0.0489 -0.6744  0.1076
  239SOL    HW1  716   0.346   1.680   2.095  0.3897 -0.0702 -1.2814
  239SOL    HW2  717   0.296   1.752   1.956  0.8534 -0.3300  1.3433
  240SOL     OW  718   2.710   2.872   0.876 -0.0105  0.4841  0.6569
  240SOL    HW1  719   2.672   2.776   0.895  1.4363 -3.1023  1.2266
  240SOL    HW2  720   2.792   2.858   0.810  1.1441  0.4978 -1.2992
  241SOL     OW  721   1.872   1.791   0.666 -0.5646  0.5779  0.5462
  241SOL    HW1  722   1.934   1.769   0.587  1.2332 -2.4523  2.6886
  241SOL    HW2  723   1.782   1.751   0.642  1.2110 -0.1708  1.6980
  242SOL     OW  724   1.356   1.749   2.768  0.1290  0.0279 -0.1470
  242SOL    HW1  725   1.425   1.697   2.713  0.7828 -2.0302  0.9442
  242SOL    HW2  726   1.262   1.704   2.760 -1.5086 -0.8690 -0.7354
  243SOL     OW  727   0.585   2.449   2.248  0.2003 -0.1724 -0.3509
  243SOL    HW1  728   0.661   2.515   2.245  1.0407 -2.5368  0.5465
  243SOL    HW2  729   0.622   2.364   2.290 -1.9408 -1.2253 -1.8912
  244SOL     OW  730   2.250   0.004   2.788 -0.1473 -0.1900  0.0329
  244SOL    HW1  731   2.324   0.013   2.717  1.1649  2.7845 -0.3451
  244SOL    HW2  732   2.191   3.009   2.757 -0.5886 -1.8195 -0.0475
  245SOL     OW  733   1.368   2.900   0.549  0.0218 -0.1986  0.2970
  245SOL    HW1  734   1.281   2.928   0.600 -4.0983  0.8563 -1.3228
  245SOL    HW2  735   1.351   2.919   0.449 -1.9365 -2.0831  0.7769
  246SOL     OW  736   0.957   2.800   0.293 -0.9365 -0.3359  0.2769
  246SOL    HW1  737   1.041   2.763   0.248 -0.9110 -0.7454  0.3576
  246SOL    HW2  738   0.970   2.802   0.395 -2.0285  1.2659 -0.1956
  247SOL     OW  739   0.714   0.871   2.095  0.0607 -0.1277 -0.0207
  247SOL    HW1  740   0.760   0.834   2.014 -3.9124 -0.4568  0.8138
  247SOL    HW2  741   0.649   0.804   2.133  2.6109 -0.9811  0.4692
  248SOL     OW  742   1.096   1.369   2.264  0.2436  0.7135  0.5635
  248SOL    HW1  743   1.018   1.418   2.218 -0.2206  0.1587  0.4892
  248SOL    HW2  744   1.120   1.406   2.352 -3.3530  0.3467 -3.0652
  249SOL     OW  745   2.139   0.462   0.671 -0.3119  0.0112 -0.5823
  249SOL    HW1  746   2.224   0.505   0.715  0.1288  1.5896 -1.7979
  249SOL    HW2  747   2.102   0.518   0.594  0.3077  0.3952  1.1713
  250SOL     OW  748   0.747   0.011   0.469  0.2561 -0.4255  0.1315
  250SOL    HW1  749   0.712   3.059   0.550  0.0788  1.6094 -0.5386
  250SOL    HW2  750   0.844   0.038   0.482 -0.3983 -0.6773  0.7789
  251SOL     OW  751   1.556   0.144   2.919  0.6205  0.6561 -0.2391
  251SOL    HW1  752   1.532   0.237   2.947  1.2323  1.3150 -1.6666
  251SOL    HW2  753   1.625   0.107   2.983 -0.2064  1.9954  1.2408
  252SOL     OW  754   1.823   1.030   2.020 -0.7844  0.0667  0.3057
  252SOL    HW1  755   1.876   0.984   2.092 -0.1091 -1.1126  0.9313
  252SOL    HW2  756   1.797   1.123   2.059  0.0800  0.2248 -1.0517
  253SOL     OW  757   2.596   2.483   1.807  0.3993 -0.3581  0.2205
  253SOL    HW1  758   2.667   2.463   1.873  1.0597  1.3266  0.0809
  253SOL    HW2  759   2.629   2.556   1.740 -0.7222  3.1606 -2.0806
  254SOL     OW  760   0.452   1.481   1.280  0.5198 -0.0543  0.4544
  254SOL    HW1  761   0.514   1.408   1.314  0.1716  2.8457  0.5121
  254SOL    HW2  762   0.489   1.526   1.196  0.6853  2.9335 -0.8211
  255SOL     OW  763   1.165   0.737   1.192 -0.9366  0.1863 -0.4907
  255SOL    HW1  764   1.072   0.704   1.177  1.7663 -1.1353  1.5179
  255SOL    HW2  765   1.163   0.834   1.216 -3.0097  2.5900 -0.0400
  256SOL     OW  766   1.732   2.589   1.743 -0.3014  0.1999  0.3193
  256SOL    HW1  767   1.689   2.515   1.796 -2.2387 -2.8033 -1.5280
  256SOL    HW2  768   1.830   2.566   1.717 -0.1716 -0.0256 -0.5860
  257SOL     OW  769   0.376   2.698   2.947 -0.1794  0.3770 -0.0473
  257SOL    HW1  770   0.386   2.766   2.875  0.4121 -0.8993  4.2040
  257SOL    HW2  771   0.463   2.678   2.998 -0.2080 -0.0724  0.1098
  258SOL     OW  772   0.794   2.610   2.178 -0.0195 -0.0665  0.4099
  258SOL    HW1  773   0.828   2.703   2.212  1.2763 -1.9084 -1.6374
  258SOL    HW2  774   0.869   2.575   2.120  0.4405  2.8539  2.4616
  259SOL     OW  775   1.271   0.149   2.324  0.0595  0.2766  0.6269
  259SOL    HW1  776   1.361   0.168   2.286 -2.0131 -1.0146  2.7212
  259SOL    HW2  777   1.280   0.145   2.425  1.0540 -0.0776 -0.7342
  260SOL     OW  778   1.698   0.358   1.018  0.2732 -0.2658  0.0921
  260SOL    HW1  779   1.630   0.292   0.976 -0.3533 -2.0955 -1.3816
  260SOL    HW2  780   1.764   0.402   0.951  0.7384  1.6283 -2.0658
  261SOL     OW  781   0.052   0.309   2.510  0.2912  0.0734  0.2963
  261SOL    HW1  782   3.087   0.256   2.579 -1.1113 -0.1264  1.0384
  261SOL    HW2  783   0.139   0.346   2.552  0.1754 -0.2215  1.6756
  262SOL     OW  784   2.934   2.440   2.035 -0.6792 -0.4002 -0.0618
  262SOL    HW1  785   3.027   2.398   2.044  0.2710 -2.9545  0.3720
  262SOL    HW2  786   2.931   2.510   1.963  0.0483  0.6570  0.9909
  263SOL     OW  787   2.596   1.578   2.320 -0.2737  0.1654  0.2584
  263SOL    HW1  788   2.687   1.614   2.284 -0.2847 -0.3671  1.3150
  263SOL    HW2  789   2.546   1.660   2.353 -1.8974  0.4940 -0.5146
  264SOL     OW  790   0.717   0.970   0.883  0.6976  0.2644  0.1732
  264SOL    HW1  791   0.683   1.047   0.938 -0.6746  2.3744  0.0842
  264SOL    HW2  792   0.727   0.976   0.779  1.5295 -1.4054 -0.9274
  265SOL     OW  793   0.793   2.120   0.245  0.5014  0.0883  0.3537
  265SOL    HW1  794   0.851   2.041   0.278  2.6650  2.5235 -0.2237
  265SOL    HW2  795   0.699   2.114   0.277  0.2537  0.5820  0.2850
  266SOL     OW  796   1.510   0.553   0.916 -0.4150  0.5124  0.5393
  266SOL    HW1  797   1.541   0.494   0.990 -0.9531  0.5550 -1.4129
  266SOL    HW2  798   1.508   0.515   0.821  0.6977  0.1251 -2.7786
  267SOL     OW  799   2.861   0.938   0.083  0.0760  0.0055 -0.2159
  267SOL    HW1  800   2.964   0.951   0.083 -0.8572 -2.3435  1.4837
  267SOL    HW2  801   2.824   0.868   0.019  0.8877  0.5847 -2.6240
  268SOL     OW  802   2.026   0.242   0.344 -0.1164  0.1967  0.0208
  268SOL    HW1  803   2.018   0.227   0.445 -0.8006  1.6676  0.8104
  268SOL    HW2  804   1.932   0.275   0.308 -3.5226  1.3663 -1.3884
  269SOL     OW  805   1.937   0.935   2.761  0.2411 -0.1517  0.0287
  269SOL    HW1  806   1.883   0.847   2.749 -0.4709 -1.3960  0.8849
  269SOL    HW2  807   1.985   0.925   2.849  0.3490 -0.4881 -0.8631
  270SOL     OW  808   0.507   0.774   0.004  0.0089 -0.0882  0.4782
  270SOL    HW1  809   0.540   0.735   3.001 -1.2945 -0.0929 -0.4173
  270SOL    HW2  810   0.419   0.727   0.028 -0.0008 -3.0933  2.3211
  271SOL     OW  811   3.050   0.689   0.147 -0.2535 -0.1689  0.0285
  271SOL    HW1  812   3.084   0.782   0.146 -1.3293 -3.3210  0.1532
  271SOL    HW2  813   0.020   0.611   0.192 -1.4600 -2.9881 -0.1378
  272SOL     OW  814   2.986   1.937   2.840 -0.4423 -0.2169  0.4428
  272SOL    HW1  815   2.985   1.947   2.739 -2.2913  0.2100  0.8446
  272SOL    HW2  816   2.902   1.904   2.884  1.2080  0.9544 -0.3275
  273SOL     OW  817   2.656   0.070   0.524  0.3064  0.1559 -0.0216
  273SOL    HW1  818   2.656   0.033   0.430 -0.9493  0.9409 -0.1273
  273SOL    HW2  819   2.738   0.131   0.529 -0.1252 -0.3842 -0.3744
  274SOL     OW  820   0.321   2.161   0.850  0.1372  0.5743  0.1023
  274SOL    HW1  821   0.294   2.084   0.790  2.9801 -0.0754  0.7670
  274SOL    HW2  822   0.367   2.232   0.801 -0.8881 -2.0243  1.2555
  275SOL     OW  823   2.501   1.621   0.486 -0.1303  0.4548 -0.0609
  275SOL    HW1  824   2.488   1.685   0.561  0.3373 -1.2235  1.7214
  275SOL    HW2  825   2.530   1.531   0.528 -2.0537  0.3617 -1.4533
  276SOL     OW  826   0.156   1.093   2.127 -0.4554  0.2012  0.0260
  276SOL    HW1  827   0.245   1.123   2.087 -3.3945  2.2722 -0.0456
  276SOL    HW2  828   0.111   1.166   2.183  0.9789 -3.3846  1.5481
  277SOL     OW  829   2.059   2.720   1.197 -0.2551  0.6742  0.4716
  277SOL    HW1  830   2.121   2.661   1.142  0.7057  0.6146 -0.2973
  277SOL    HW2  831   2.006   2.780   1.130 -0.2708  2.8220  1.5293
  278SOL     OW  832   1.185   3.026   2.172 -0.1330 -0.0902  0.0027
  278SOL    HW1  833   1.129   3.070   2.098  2.0065 -0.1848  1.5994
  278SOL    HW2  834   1.210   0.011   2.242  1.6895  2.0402  3.3749
  279SOL     OW  835   1.563   1.767   0.684  0.9333 -0.2561 -0.3030
  279SOL    HW1  836   1.601   1.863   0.691  1.9673 -0.1327 -0.5470
  279SOL    HW2  837   1.463   1.769   0.677  2.0358 -0.9385  0.0559
  280SOL     OW  838   3.060   1.762   1.042 -0.3369  0.1056  0.1908
  280SOL    HW1  839   3.081   1.797   0.948 -0.1886 -0.5963  1.7742
  280SOL    HW2  840   2.973   1.710   1.048 -1.8734  1.2278  1.0802
  281SOL     OW  841   0.042   0.770   2.394  0.2259  0.4200 -0.0497
  281SOL    HW1  842   3.070   0.755   2.315  0.6607  1.7936 -1.1420
  281SOL    HW2  843   0.032   0.689   2.454 -1.1978  0.2894 -0.3714
  282SOL     OW  844   0.773   1.003   0.619  0.0277  0.2935 -0.7924
  282SOL    HW1  845   0.713   1.045   0.546 -3.0216  0.4132 -4.0320
  282SOL    HW2  846   0.870   0.989   0.588 -2.3439 -2.7069  3.5029
  283SOL     OW  847   1.792   2.323   0.059  0.7424  0.6702  0.3336
  283SOL    HW1  848   1.712   2.388   0.065 -0.0603  0.2891 -0.8282
  283SOL    HW2  849   1.878   2.361   0.100  4.7211 -1.0747  2.6923
  284SOL     OW  850   1.256   0.453   0.192 -0.1920 -0.0499  0.7168
  284SOL    HW1  851   1.312   0.379   0.238  1.5442 -1.3373  1.7622
  284SOL    HW2  852   1.313   0.520   0.139 -0.3543 -0.2683  0.2481
  285SOL     OW  853   2.175   1.159   2.807  0.0217  0.5521  0.2550
  285SOL    HW1  854   2.103   1.231   2.812 -0.2274 -1.5245  1.4819
  285SOL    HW2  855   2.159   1.097   2.722 -2.9861 -2.2953 -3.0626
  286SOL     OW  856   1.337   2.772   1.370 -0.1709  0.4606  0.1979
  286SOL    HW1  857   1.400   2.851   1.378 -0.7532  0.7456  0.3889
  286SOL    HW2  858   1.357   2.697   1.435  1.0517 -0.0124  0.9901
  287SOL     OW  859   0.978   0.900   0.940  0.0082 -0.0967 -0.2875
  287SOL    HW1  860   0.988   0.815   0.882  0.4436 -1.6341  1.8960
  287SOL    HW2  861   0.889   0.944   0.916  0.6382 -1.4047 -4.0016
  288SOL     OW  862   1.178   2.677   0.160  0.0189  0.0056  0.4064
  288SOL    HW1  863   1.164   2.654   0.060  1.6257 -1.6506  1.5744
  288SOL    HW2  864   1.277   2.665   0.177 -2.3770 -1.3461 -0.3030
  289SOL     OW  865   0.374   1.555   1.536 -0.5263  0.5225 -0.0820
  289SOL    HW1  866   0.462   1.578   1.590  1.2678 -1.2504  3.7518
  289SOL    HW2  867   0.393   1.507   1.451  2.6214  1.1993 -1.7302
  290SOL     OW  868   1.878   2.418   1.066  0.5880 -0.2118 -0.2585
  290SOL    HW1  869   1.778   2.422   1.084  0.0100  0.0958 -2.0131
  290SOL    HW2  870   1.906   2.502   1.020  0.3818 -1.5264  0.4421
  291SOL     OW  871   1.968   3.038   3.028 -0.2867  0.0248  0.3338
  291SOL    HW1  872   2.040   0.009   2.988 -1.7586 -0.6766 -0.4516
  291SOL    HW2  873   2.005   2.958   3.080 -1.1277 -2.0993  0.5362
  292SOL     OW  874   0.863   0.585   2.069  0.5102 -0.0057  0.2314
  292SOL    HW1  875   0.934   0.612   2.002 -2.1147 -0.9261 -0.8164
  292SOL    HW2  876   0.908   0.578   2.164 -0.4779  0.0092  2.2328
  293SOL     OW  877   1.878   2.257   0.815 -0.0506 -0.0619 -0.8690
  293SOL    HW1  878   1.875   2.155   0.828  1.3570  0.8447 -2.4323
  293SOL    HW2  879   1.899   2.311   0.904  1.0818 -0.6827  3.7562
  294SOL     OW  880   0.516   0.702   2.182  0.2537  0.6241  0.3592
  294SOL    HW1  881   0.425   0.748   2.192 -0.8666  1.2201  0.3857
  294SOL    HW2  882   0.542   0.656   2.266 -1.7378  1.9523 -3.3547
  295SOL     OW  883   1.380   1.600   0.997 -0.7071 -0.4008  0.4704
  295SOL    HW1  884   1.458   1.553   1.044  0.3932 -0.0864 -0.6059
  295SOL    HW2  885   1.404   1.691   0.976  0.3650 -3.7477  0.7412
  296SOL     OW  886   2.420   1.853   0.291 -0.8097 -0.5600 -0.2573
  296SOL    HW1  887   2.450   1.950   0.309  0.9066 -1.5084  1.5491
  296SOL    HW2  888   2.480   1.796   0.342 -0.8805  0.2195 -1.5477
  297SOL     OW  889   2.276   0.220   0.257  0.3388  0.2345 -0.3487
  297SOL    HW1  890   2.187   0.220   0.311 -0.1142  1.2145  1.0177
  297SOL    HW2  891   2.258   0.249   0.162  1.8709  1.4635  2.4230
  298SOL     OW  892   0.928   2.336   2.562  0.4720  0.1531  0.6000
  298SOL    HW1  893   0.900   2.298   2.652  1.0160  1.8550 -0.5438
  298SOL    HW2  894   0.997   2.407   2.575 -1.9723 -1.2570  1.2884
  299SOL     OW  895   1.274   2.543   2.177 -0.1642  0.1385 -0.1526
  299SOL    HW1  896   1.295   2.641   2.200 -1.8198 -3.0842  0.1502
  299SOL    HW2  897   1.340   2.477   2.215 -0.3935  0.7229 -1.4757
  300SOL     OW  898   2.460   0.016   2.597 -0.4508  0.1154  0.4128
  300SOL    HW1  899   2.452   0.114   2.578  1.0920 -1.6103 -2.7409
  300SOL    HW2  900   2.424   3.059   2.518 -2.2766  2.1908 -0.0676
  301SOL     OW  901   1.432   0.569   2.162  0.2591  0.1035 -0.0694
  301SOL    HW1  902   1.408   0.665   2.145  0.0145 -0.9982 -1.6094
  301SOL    HW2  903   1.436   0.515   2.077 -0.6634 -1.9793 -0.0181
  302SOL     OW  904   2.573   2.627   0.362  0.3308  0.7068 -0.0439
  302SOL    HW1  905   2.473   2.625   0.378 -0.8965  0.3675 -2.7304
  302SOL    HW2  906   2.622   2.711   0.394 -0.5102 -2.7537  0.4264
  303SOL     OW  907   2.697   2.279   2.051  0.1937  0.2987 -0.4312
  303SOL    HW1  908   2.674   2.189   2.004 -0.5026 -1.2299  0.7225
  303SOL    HW2  909   2.790   2.311   2.031  2.1339  0.8112 -2.9749
  304SOL     OW  910   2.884   0.673   1.802  0.1893 -0.4893  0.1929
  304SOL    HW1  911   2.852   0.748   1.858  2.4639  0.3808  1.0120
  304SOL    HW2  912   2.970   0.635   1.837 -1.7233  0.6983  0.6495
  305SOL     OW  913   0.689   1.801   1.425  0.0103 -0.0618  0.1011
  305SOL    HW1  914   0.621   1.738   1.466 -0.1056  0.7999  2.8451
  305SOL    HW2  915   0.749   1.848   1.492  0.4991 -0.5246 -3.0019
  306SOL     OW  916   3.006   1.130   1.742 -0.2016 -0.4579  0.1539
  306SOL    HW1  917   2.956   1.098   1.826 -1.5080  0.1395 -0.9010
  306SOL    HW2  918   2.980   1.075   1.662 -0.1606 -1.5056  1.7629
  307SOL     OW  919   1.117   0.498   1.754 -0.0804  0.5509 -0.4261
  307SOL    HW1  920   1.101   0.554   1.842 -1.8669  2.4810  1.5869
  307SOL    HW2  921   1.129   0.555   1.673 -1.6553 -2.3674  0.4389
  308SOL     OW  922   2.829   0.842   1.143  0.2851  0.9302  0.1644
  308SOL    HW1  923   2.855   0.785   1.225  2.1479  0.5198  0.5469
  308SOL    HW2  924   2.776   0.777   1.083 -0.9357 -0.9407  0.3244
  309SOL     OW  925   2.205   1.299   0.918  0.0113 -0.6221  0.5578
  309SOL    HW1  926   2.111   1.278   0.880  1.0587 -0.6966 -2.1463
  309SOL    HW2  927   2.207   1.311   1.017 -0.9448 -1.8014 -3.2624
  310SOL     OW  928   2.950   1.985   2.548 -0.4090  0.2226  0.2493
  310SOL    HW1  929   2.996   1.935   2.470  0.2557  1.1864  0.0810
  310SOL    HW2  930   2.855   1.953   2.565  2.3800  1.6267 -1.0250
  311SOL     OW  931   2.968   2.698   2.743 -0.4849  0.6234  0.7433
  311SOL    HW1  932   2.902   2.741   2.679  0.8451 -0.0682  1.7161
  311SOL    HW2  933   3.009   2.613   2.703  0.4034 -3.2008  0.2060
  312SOL     OW  934   2.111   1.938   0.066  0.2494  0.3147  0.1594
  312SOL    HW1  935   2.198   1.895   0.044  0.8513  2.6004  2.6873
  312SOL    HW2  936   2.038   1.904   0.006 -0.8911 -1.8116  0.3275
  313SOL     OW  937   2.535   2.944   0.669 -0.0777 -0.4423 -0.4433
  313SOL    HW1  938   2.593   2.928   0.755  0.8779  0.2211  2.3784
  313SOL    HW2  939   2.567   3.031   0.626  1.1250 -0.9658 -0.4299
  314SOL     OW  940   1.698   1.033   0.440  0.1941  0.3009 -0.1389
  314SOL    HW1  941   1.681   0.931   0.426 -0.7404 -1.1625  0.2863
  314SOL    HW2  942   1.647   1.085   0.372 -3.2134 -0.4253  2.7058
  315SOL     OW  943   1.377   2.554   1.931  0.1528  0.2983 -0.4647
  315SOL    HW1  944   1.306   2.533   2.001  0.5616 -0.6196 -0.4346
  315SOL    HW2  945   1.426   2.645   1.955  3.3143 -1.3398 -1.1213
  316SOL     OW  946   0.231   0.835   0.343 -0.3844 -0.0323 -0.3174
  316SOL    HW1  947   0.228   0.786   0.256 -1.3230 -0.1810  3.5278
  316SOL    HW2  948   0.139   0.827   0.386 -2.1583 -3.6379  0.6291
  317SOL     OW  949   0.485   3.038   0.130 -0.5751  0.4660  0.1190
  317SOL    HW1  950   0.457   0.026   0.193 -3.2031 -1.1800 -1.7691
  317SOL    HW2  951   0.419   2.964   0.155 -0.8596 -1.5216  2.4125
  318SOL     OW  952   2.213   2.372   0.492 -0.1369 -0.2396 -0.4944
  318SOL    HW1  953   2.133   2.326   0.449 -0.0711  2.1787  0.9624
  318SOL    HW2  954   2.220   2.463   0.455 -0.9427 -1.2961  0.8683
  319SOL     OW  955   1.053   1.630   3.003 -0.1890 -0.1965 -0.4255
  319SOL    HW1  956   0.966   1.680   3.024 -1.8937  0.5828  0.2447
  319SOL    HW2  957   1.057   1.535   3.040  2.3156  0.5206 -1.5184
  320SOL     OW  958   0.097   2.329   2.107  0.3714  0.3244 -0.2785
  320SOL    HW1  959   0.157   2.254   2.078 -2.2995  2.1101  1.0153
  320SOL    HW2  960   0.153   2.416   2.102  1.6451  2.4281  0.9110
  321SOL     OW  961   1.649   2.824   2.514 -0.3545  0.2974 -1.1332
  321SOL    HW1  962   1.632   2.890   2.437  0.9289 -3.7343  0.9291
  321SOL    HW2  963   1.587   2.852   2.591  0.1692  0.7419 -1.0248
  322SOL     OW  964   2.721   1.358   2.217 -0.3295  0.3014 -0.6286
  322SOL    HW1  965   2.675   1.426   2.281  0.9594  1.1090 -0.3568
  322SOL    HW2  966   2.663   1.293   2.168  6.2470 -1.3056 -1.8273
  323SOL     OW  967   2.257   1.392   0.631  0.0750  0.8919  0.3159
  323SOL    HW1  968   2.320   1.450   0.681 -0.8840 -0.0908 -4.2276
  323SOL    HW2  969   2.282   1.295   0.649 -0.4034  3.5575  2.6326
  324SOL     OW  970   2.940   0.012   2.511 -0.1584 -0.2886  0.0369
  324SOL    HW1  971   2.892   0.079   2.575  0.3210 -0.4427  1.6455
  324SOL    HW2  972   2.925   3.002   2.548  1.5058 -0.4054  0.9440
  325SOL     OW  973   1.315   0.591   2.846  0.0226 -0.7936  0.8303
  325SOL    HW1  974   1.279   0.616   2.754  0.5011 -2.6175  2.6606
  325SOL    HW2  975   1.236   0.607   2.909 -0.5603 -1.1755 -0.0884
  326SOL     OW  976   2.326   2.732   1.805  0.4425 -0.4386 -0.1968
  326SOL    HW1  977   2.372   2.784   1.730  0.2248  0.4080  1.4661
  326SOL    HW2  978   2.370   2.743   1.897  0.5304 -0.6398 -0.8664
  327SOL     OW  979   2.182   0.318   0.019  0.0096  0.3193  0.4286
  327SOL    HW1  980   2.246   0.337   3.032 -0.0642  0.4320  0.1810
  327SOL    HW2  981   2.160   0.402   0.073  2.1738  0.8021 -0.4518
  328SOL     OW  982   0.178   1.231   2.419  0.1052 -0.1684  0.2096
  328SOL    HW1  983   0.135   1.152   2.467  0.2067 -4.1734  1.5371
  328SOL    HW2  984   0.109   1.296   2.391  1.0097  0.8344  0.6805
  329SOL     OW  985   2.068   3.026   1.786 -0.5065  0.3042 -0.3470
  329SOL    HW1  986   2.022   2.935   1.781  0.2604  1.8249 -3.9197
  329SOL    HW2  987   2.152   3.015   1.842 -5.7501 -0.6366  3.4336
  330SOL     OW  988   2.861   1.461   1.169 -0.4284  0.4395  0.2948
  330SOL    HW1  989   2.771   1.483   1.208 -1.7039  2.1439 -1.1390
  330SOL    HW2  990   2.923   1.429   1.246  0.4012 -1.6696  2.4139
  331SOL     OW  991   0.500   1.733   2.190 -0.2005 -0.0730 -0.3729
  331SOL    HW1  992   0.546   1.800   2.250 -0.2528 -0.3135 -4.0625
  331SOL    HW2  993   0.570   1.695   2.126 -1.8202  1.3944  0.1276
  332SOL     OW  994   0.107   2.733   1.746 -0.3759  0.8192  0.0266
  332SOL    HW1  995   0.179   2.686   1.694 -2.0443  1.0462  1.0377
  332SOL    HW2  996   0.051   2.779   1.675  0.4864 -0.3860  0.1249
  333SOL     OW  997   2.194   2.537   1.051  0.7648 -0.0944  0.2062
  333SOL    HW1  998   2.264   2.493   1.115  1.7304 -0.2257  0.2811
  333SOL    HW2  999   2.184   2.490   0.961 -3.2121 -0.5726 -0.5077
  334SOL     OW 1000   0.764   1.860   0.832 -0.3053 -0.2937  0.3077
  334SOL    HW1 1001   0.809   1.768   0.836  0.2128 -0.0842  0.7603
  334SOL    HW2 1002   0.815   1.940   0.871  0.8042 -0.7639  0.7070
  335SOL     OW 1003   0.146   2.562   2.965  0.3769 -0.2027 -0.1107
  335SOL    HW1 1004   0.093   2.541   2.879 -1.1704 -1.4990 -2.3281
  335SOL    HW2 1005   0.221   2.630   2.957 -0.2514  2.8749 -1.7715
  336SOL     OW 1006   0.471   3.034   2.194  0.1805  0.1267  0.8085
  336SOL    HW1 1007   0.413   3.035   2.277  1.8448 -1.6389  0.2899
  336SOL    HW2 1008   0.484   2.940   2.162  1.5853  1.4575 -2.4004
  337SOL     OW 1009   2.481   1.982   2.902 -0.7034  0.3454  0.0985
  337SOL    HW1 1010   2.444   1.945   2.991 -3.2095  1.2126  1.0566
  337SOL    HW2 1011   2.421   1.947   2.826  0.1991 -1.9014 -1.1786
  338SOL     OW 1012   0.914   1.487   1.020  0.2131  0.1900 -0.9757
  338SOL    HW1 1013   0.859   1.552   0.966  0.7546  2.9259  0.1710
  338SOL    HW2 1014   0.993   1.541   1.057 -0.5856 -0.4599 -0.1808
  339SOL     OW 1015   0.142   0.827   1.794  0.7674  0.0244 -0.7557
  339SOL    HW1 1016   0.101   0.789   1.882 -1.5692 -0.6954  2.0581
  339SOL    HW2 1017   0.070   0.873   1.740 -3.7267  0.4733  0.9852
  340SOL     OW 1018   1.464   2.666   0.194 -0.6588  0.0289  0.0976
  340SOL    HW1 1019   1.487   2.666   0.294  0.9919  1.7006 -1.5943
  340SOL    HW2 1020   1.514   2.744   0.154  0.7271 -0.3560 -0.0522
  341SOL     OW 1021   1.949   1.225   0.844  0.1808 -0.2940 -0.1071
  341SOL    HW1 1022   1.893   1.154   0.889  2.0459  1.4350  0.3375
  341SOL    HW2 1023   1.887   1.304   0.816 -0.2278  3.3340  0.5748
  342SOL     OW 1024   2.401   2.895   0.162 -0.0376  0.0636  0.0070
  342SOL    HW1 1025   2.350   2.820   0.206 -1.2479  1.2328  1.6277
  342SOL    HW2 1026   2.452   2.864   0.078 -0.7702  0.3681 -2.7556
  343SOL     OW 1027   1.445   2.120   1.210  0.4173  0.0733 -0.1805
  343SOL    HW1 1028   1.419   2.199   1.154 -0.4129  1.8387  0.2183
  343SOL    HW2 1029   1.360   2.099   1.264 -0.5480  2.2339  1.4276
  344SOL     OW 1030   2.135   2.085   0.690 -0.4459  0.3429 -0.5093
  344SOL    HW1 1031   2.035   2.089   0.681  0.7904 -0.3510  0.1708
  344SOL    HW2 1032   2.155   2.021   0.767 -2.5054  0.5132  1.1508
  345SOL     OW 1033   2.525   2.526   0.092  0.0810 -0.3990 -0.1886
  345SOL    HW1 1034   2.530   2.426   0.090 -0.6632  2.7137 -2.5735
  345SOL    HW2 1035   2.554   2.566   0.181  0.8894 -1.6768 -1.7675
  346SOL     OW 1036   2.861   1.388   0.689 -0.2052 -0.1594 -0.1741
  346SOL    HW1 1037   2.862   1.486   0.656  1.4560  2.9220 -0.0566
  346SOL    HW2 1038   2.902   1.369   0.779  3.3871 -0.7904 -1.5916
  347SOL     OW 1039   1.951   2.253   1.408 -0.0483  0.1597  0.1967
  347SOL    HW1 1040   1.858   2.295   1.409  0.9868  0.1467  0.5395
  347SOL    HW2 1041   1.970   2.219   1.312 -0.0048  1.7352  0.5247
  348SOL     OW 1042   0.805   1.738   3.024 -0.4245 -0.1132  0.3496
  348SOL    HW1 1043   0.808   1.775   2.927  0.0673  1.0060 -2.1472
  348SOL    HW2 1044   0.710   1.723   3.058  0.6169 -1.2315 -1.4141
  349SOL     OW 1045   2.268   1.397   1.758 -0.8765 -0.4393 -0.0036
  349SOL    HW1 1046   2.165   1.388   1.753  1.0676 -1.9211  0.8126
  349SOL    HW2 1047   2.287   1.498   1.742 -0.9560  1.7296  0.7160
  350SOL     OW 1048   3.044   2.539   0.940  0.6812  0.1226  0.0956
  350SOL    HW1 1049   2.968   2.557   1.009 -0.6693 -0.7157 -1.8122
  350SOL    HW2 1050   3.075   2.444   0.946 -0.8178 -0.1159 -0.2685
  351SOL     OW 1051   0.339   0.298   2.213 -0.4103  0.5495 -0.2682
  351SOL    HW1 1052   0.424   0.262   2.254 -3.0466  1.9711  2.1053
  351SOL    HW2 1053   0.301   0.225   2.148 -2.2516 -1.7337  1.4224
  352SOL     OW 1054   0.479   1.956   1.215  0.4139 -0.7194 -0.6213
  352SOL    HW1 1055   0.522   1.872   1.255  1.7480 -1.2219  2.9488
  352SOL    HW2 1056   0.389   1.930   1.184 -1.1179 -0.0628 -1.1347
  353SOL     OW 1057   1.533   1.655   2.553  0.1713  0.1421 -0.8721
  353SOL    HW1 1058   1.454   1.660   2.489 -0.6504  2.5691  1.0264
  353SOL    HW2 1059   1.572   1.564   2.550  0.5075  1.5527 -0.3324
  354SOL     OW 1060   1.242   0.571   0.985 -0.4404  0.2828  0.6943
  354SOL    HW1 1061   1.339   0.567   0.963 -0.6671 -0.1362 -1.2090
  354SOL    HW2 1062   1.228   0.639   1.063  1.0170 -0.6806  1.0909
  355SOL     OW 1063   2.599   0.936   0.639 -0.3197  0.3516  0.1396
  355SOL    HW1 1064   2.655   0.887   0.571 -0.8620 -2.3723  2.7884
  355SOL    HW2 1065   2.659   0.985   0.711 -1.0652 -0.3468  3.6267
  356SOL     OW 1066   2.500   1.794   2.413  0.0029 -0.5662 -0.0032
  356SOL    HW1 1067   2.545   1.871   2.467  0.5514 -1.4935 -1.5221
  356SOL    HW2 1068   2.408   1.769   2.455 -0.8367 -1.4906  2.5954
  357SOL     OW 1069   0.528   2.523   1.258  0.1079  0.1324 -0.1306
  357SOL    HW1 1070   0.624   2.498   1.240 -1.2845 -0.7147  0.2336
  357SOL    HW2 1071   0.465   2.490   1.182 -1.8444 -2.0217  1.1983
  358SOL     OW 1072   2.472   0.798   1.783  0.3119 -0.3077 -0.5876
  358SOL    HW1 1073   2.530   0.851   1.724  2.2625  1.9687  0.0861
  358SOL    HW2 1074   2.457   0.703   1.748  0.9521 -1.4982 -0.1470
  359SOL     OW 1075   2.407   2.351   2.788 -0.3752  0.1065  0.0195
  359SOL    HW1 1076   2.383   2.367   2.691 -1.3654  1.0063  2.9823
  359SOL    HW2 1077   2.416   2.252   2.811  1.7304 -2.8775  4.4749
  360SOL     OW 1078   1.951   0.726   0.909 -0.2485 -0.0280 -0.0657
  360SOL    HW1 1079   1.997   0.813   0.878  2.2496 -1.2550  0.8265
  360SOL    HW2 1080   1.906   0.738   0.997  0.3155  1.4742 -3.3639
  361SOL     OW 1081   2.384   0.125   0.916  0.1903  0.0507 -0.2246
  361SOL    HW1 1082   2.333   0.175   0.840 -2.1444  0.9869  0.7087
  361SOL    HW2 1083   2.330   0.050   0.963  0.9618 -1.2193  0.3674
  362SOL     OW 1084   1.136   1.291   0.504  0.3434 -0.3708 -0.1727
  362SOL    HW1 1085   1.085   1.324   0.585 -1.2682 -2.2214  1.6568
  362SOL    HW2 1086   1.136   1.363   0.434 -1.0578 -2.2532  0.9330
  363SOL     OW 1087   2.263   1.682   2.507  0.1023  0.1547 -0.4985
  363SOL    HW1 1088   2.217   1.686   2.602 -4.2520  0.6669 -0.8411
  363SOL    HW2 1089   2.320   1.603   2.505 -1.5985 -0.0253 -0.8247
  364SOL     OW 1090   0.783   0.470   1.478 -0.3572  0.0116 -0.3299
  364SOL    HW1 1091   0.827   0.560   1.456 -0.5608 -0.0715 -1.1676
  364SOL    HW2 1092   0.799   0.448   1.577 -1.7536 -1.0425  1.5294
  365SOL     OW 1093   0.208   3.013   0.446  0.3347 -0.2877  0.4664
  365SOL    HW1 1094   0.250   2.988   0.360 -0.4994  5.3538  0.2973
  365SOL    HW2 1095   0.108   2.990   0.450 -0.3796  2.3626  0.5667
  366SOL     OW 1096   2.812   1.308   3.044  0.0960 -0.3672  0.0194
  366SOL    HW1 1097   2.848   1.350   0.042 -1.4793  0.3239 -1.4013
  366SOL    HW2 1098   2.882   1.278   2.978 -0.3903  0.6723  0.2547
  367SOL     OW 1099   2.777   2.454   2.747 -0.0586 -0.0135 -0.2494
  367SOL    HW1 1100   2.696   2.515   2.758  0.5311 -2.2320 -0.8774
  367SOL    HW2 1101   2.825   2.454   2.836  0.8630 -0.3156 -0.1189
  368SOL     OW 1102   0.015   1.829   0.766  0.6922 -0.2038  0.1339
  368SOL    HW1 1103   3.022   1.881   0.726 -4.3644  0.8433  0.7780
  368SOL    HW2 1104   0.100   1.866   0.725 -1.3376  0.8440 -0.6373
  369SOL     OW 1105   0.729   0.067   0.207  0.1299 -0.0920  0.0774
  369SOL    HW1 1106   0.646   0.040   0.158 -0.1790 -1.3161 -0.2274
  369SOL    HW2 1107   0.722   0.047   0.308  3.1694  0.8789  0.3368
  370SOL     OW 1108   0.426   1.078   0.783 -0.0023 -0.1508 -0.0017
  370SOL    HW1 1109   0.377   1.155   0.731 -0.3479  2.3581  0.0782
  370SOL    HW2 1110   0.511   1.114   0.826 -1.0004 -0.0394  0.2066
  371SOL     OW 1111   2.142   2.656   0.633 -0.0043 -0.1922 -0.5029
  371SOL    HW1 1112   2.109   2.575   0.684  0.1390  0.3335  0.4749
  371SOL    HW2 1113   2.102   2.660   0.537 -2.3131  1.2198 -1.5894
  372SOL     OW 1114   0.273   0.968   2.633 -0.0759  0.1479  0.0284
  372SOL    HW1 1115   0.194   0.988   2.572 -2.7864  1.8929 -2.4988
  372SOL    HW2 1116   0.299   1.049   2.694 -1.8621  0.5108  2.0846
  373SOL     OW 1117   2.696   1.799   0.704 -0.0039  0.3347 -0.5661
  373SOL    HW1 1118   2.759   1.761   0.773  0.8540 -0.1769  2.5251
  373SOL    HW2 1119   2.605   1.824   0.753 -3.6307 -0.1027  2.9517
  374SOL     OW 1120   0.382   2.614   0.303  0.0051 -0.0604 -0.0274
  374SOL    HW1 1121   0.327   2.544   0.253 -0.6366 -0.9928 -1.0186
  374SOL    HW2 1122   0.468   2.579   0.331 -2.0236  0.8926  1.8137
  375SOL     OW 1123   0.337   0.435   0.183 -0.7449 -0.1890 -0.6329
  375SOL    HW1 1124   0.426   0.404   0.220  1.5931  1.3424  0.4460
  375SOL    HW2 1125   0.328   0.377   0.103  2.3025 -1.4806 -0.2139
  376SOL     OW 1126   0.428   2.853   1.864  0.0901  0.4611  0.3128
  376SOL    HW1 1127   0.529   2.870   1.851  1.2265  0.0709 -1.9077
  376SOL    HW2 1128   0.379   2.928   1.821 -0.5725 -1.9418 -0.4883
  377SOL     OW 1129   1.155   2.129   2.485 -0.6462  0.4979 -0.5233
  377SOL    HW1 1130   1.086   2.206   2.495 -0.2953  0.7860  0.3062
  377SOL    HW2 1131   1.245   2.159   2.449 -1.5859 -1.5180  2.6932
  378SOL     OW 1132   1.266   0.670   0.603  0.1269  0.2134  0.4412
  378SOL    HW1 1133   1.222   0.645   0.515 -1.0952 -2.8282 -0.9610
  378SOL    HW2 1134   1.333   0.747   0.605  0.2048  0.0851 -3.2558
  379SOL     OW 1135   0.988   1.622   0.240  0.1444 -0.1235 -0.2067
  379SOL    HW1 1136   1.005   1.582   0.149  1.1393 -0.4647 -2.5470
  379SOL    HW2 1137   0.905   1.579   0.280  0.4864  0.6705  0.3614
  380SOL     OW 1138   0.016   1.869   1.768  0.4670  0.4466 -0.3108
  380SOL    HW1 1139   3.054   1.817   1.693  1.4422  0.3377  1.2869
  380SOL    HW2 1140   0.110   1.896   1.730  1.7759  1.5890 -0.1554
  381SOL     OW 1141   0.145   1.250   1.803  0.2953 -0.0895 -0.0751
  381SOL    HW1 1142   0.053   1.211   1.790 -0.8928  2.6672  0.7310
  381SOL    HW2 1143   0.216   1.186   1.822 -1.3035  1.1097  0.5661
  382SOL     OW 1144   2.653   2.196   0.589  0.2470  0.2013 -0.8680
  382SOL    HW1 1145   2.550   2.197   0.612 -2.0170 -0.7128  1.5421
  382SOL    HW2 1146   2.676   2.266   0.519 -0.8373  1.8111  3.2969
  383SOL     OW 1147   2.112   2.033   2.482 -0.0591  0.0318 -0.6024
  383SOL    HW1 1148   2.102   1.971   2.401  0.5505 -0.7623 -1.2346
  383SOL    HW2 1149   2.096   2.126   2.446 -0.6190  2.0902  1.0014
  384SOL     OW 1150   0.620   1.893   2.394  0.4771  0.4036  0.4215
  384SOL    HW1 1151   0.596   1.985   2.434  2.6342 -3.1704  1.6689
  384SOL    HW2 1152   0.712   1.899   2.349 -1.0540  0.8077  1.7570
  385SOL     OW 1153   2.892   2.173   1.008  0.1406  0.1760 -0.2655
  385SOL    HW1 1154   2.977   2.209   0.967  2.8609 -1.0313  1.8667
  385SOL    HW2 1155   2.916   2.092   1.071 -0.0218  1.5864  1.2583
  386SOL     OW 1156   1.933   0.714   0.221 -0.1229  0.4475 -0.1476
  386SOL    HW1 1157   1.858   0.731   0.289  0.6985 -2.1347  0.4101
  386SOL    HW2 1158   2.007   0.782   0.235  0.6779 -0.7547 -0.0433
  387SOL     OW 1159   0.334   1.010   1.719  0.0855 -0.0295  0.0656
  387SOL    HW1 1160   0.269   0.934   1.740 -1.4000  2.0230  0.0726
  387SOL    HW2 1161   0.401   1.015   1.797  0.2206 -2.0824  1.2460
  388SOL     OW 1162   2.601   0.956   2.182 -0.1014 -0.1741 -0.0389
  388SOL    HW1 1163   2.554   1.009   2.108 -2.3984  1.1774  1.8048
  388SOL    HW2 1164   2.542   0.916   2.250  1.6937 -0.3157 -0.1235
  389SOL     OW 1165   1.610   0.795   2.312  0.2460  0.1990  0.5499
  389SOL    HW1 1166   1.587   0.801   2.214  0.4417  0.5564 -0.6971
  389SOL    HW2 1167   1.706   0.763   2.323  2.5983 -1.6709  2.6457
  390SOL     OW 1168   1.794   2.627   0.011  0.3761  0.3928 -0.3486
  390SOL    HW1 1169   1.710   2.649   0.065 -2.4098  0.3039 -0.3786
  390SOL    HW2 1170   1.780   2.603   3.000  1.6528 -0.0421  0.1033
  391SOL     OW 1171   1.972   2.161   1.147  0.0534 -0.0816 -0.1639
  391SOL    HW1 1172   2.069   2.155   1.132  0.4308 -3.3043 -1.1054
  391SOL    HW2 1173   1.934   2.249   1.123  5.4446 -0.1941 -2.5394
  392SOL     OW 1174   2.935   2.492   1.440 -0.0962 -0.4094  0.1599
  392SOL    HW1 1175   2.998   2.559   1.399  1.6773  0.0856 -0.0592
  392SOL    HW2 1176   2.901   2.435   1.365  0.7990  2.2944 -0.0153
  393SOL     OW 1177   1.929   1.893   2.964  0.3986 -0.0655 -0.5085
  393SOL    HW1 1178   1.872   1.808   2.954  0.5861  1.7190 -0.7593
  393SOL    HW2 1179   1.957   1.930   2.873 -0.4645 -1.3511 -1.0386
  394SOL     OW 1180   0.360   0.040   2.980 -0.2420 -0.3553  0.1824
  394SOL    HW1 1181   0.394   3.067   3.058  0.5548 -0.3086  0.9606
  394SOL    HW2 1182   0.424   0.040   2.898  2.7108  1.4785  0.9876
  395SOL     OW 1183   1.471   1.122   1.277  0.1940 -0.6623 -0.0589
  395SOL    HW1 1184   1.492   1.189   1.202  2.0345  2.0979 -0.3717
  395SOL    HW2 1185   1.502   1.033   1.239  2.2154 -1.7402 -2.5234
  396SOL     OW 1186   1.643   0.882   0.134  0.2798  0.5264 -0.1093
  396SOL    HW1 1187   1.719   0.949   0.125 -4.6165 -1.8289  0.3192
  396SOL    HW2 1188   1.660   0.830   0.221  2.4356  3.7325  2.1180
  397SOL     OW 1189   0.204   0.689   2.683 -0.5385 -0.0130 -0.2192
  397SOL    HW1 1190   0.114   0.669   2.645  0.6984  0.8457  2.0125
  397SOL    HW2 1191   0.234   0.784   2.658  1.8550  1.8770  0.9502
  398SOL     OW 1192   1.420   0.060   0.131  0.0601 -0.1720  0.4516
  398SOL    HW1 1193   1.434   0.039   0.030 -0.6864  0.9103 -2.5564
  398SOL    HW2 1194   1.365   3.074   0.170 -0.3360 -0.6916 -0.1426
  399SOL     OW 1195   2.435   2.795   2.037 -0.2112 -0.4803  0.0392
  399SOL    HW1 1196   2.531   2.769   2.020 -1.8777  2.7979 -0.1116
  399SOL    HW2 1197   2.392   2.731   2.104  4.2639 -0.8712 -1.1155
  400SOL     OW 1198   2.955   1.593   2.429  0.0727 -0.5630  0.1780
  400SOL    HW1 1199   3.018   1.535   2.372  2.0781 -2.3641  2.5332
  400SOL    HW2 1200   2.890   1.645   2.363 -4.8808 -0.5821 -2.3728
  401SOL     OW 1201   0.547   0.392   2.565  0.1041  0.2004 -0.0102
  401SOL    HW1 1202   0.607   0.391   2.649  0.3358 -0.7469 -3.1574
  401SOL    HW2 1203   0.520   0.299   2.531  0.3757  1.7314 -0.2219
  402SOL     OW 1204   0.526   2.163   1.984 -0.3146 -0.9092  0.1499
  402SOL    HW1 1205   0.578   2.166   1.892  0.3506  1.3914 -1.1399
  402SOL    HW2 1206   0.523   2.259   2.018  0.2113 -1.2257  0.3805
  403SOL     OW 1207   0.703   1.365   1.445 -1.0061  0.3687  0.2528
  403SOL    HW1 1208   0.724   1.280   1.504  0.7359 -2.0689  0.6174
  403SOL    HW2 1209   0.725   1.449   1.500 -0.9976 -1.7908  1.8083
  404SOL     OW 1210   2.759   2.631   1.607 -0.1120  0.5773 -0.3579
  404SOL    HW1 1211   2.703   2.704   1.566  0.0394 -1.3044 -0.7119
  404SOL    HW2 1212   2.799   2.567   1.538  4.7374  1.7306 -0.9074
  405SOL     OW 1213   2.992   0.138   1.832 -0.1795 -0.0650  0.1996
  405SOL    HW1 1214   3.017   0.043   1.807 -0.3520  2.0520  1.0433
  405SOL    HW2 1215   3.023   0.174   1.926  2.5380  0.4474  2.6902
  406SOL     OW 1216   1.413   2.409   2.723 -0.5732 -0.2175  0.0857
  406SOL    HW1 1217   1.466   2.329   2.761 -2.0316 -0.5439  0.8690
  406SOL    HW2 1218   1.477   2.485   2.687 -1.1711  2.7473 -0.3514
  407SOL     OW 1219   1.674   1.465   1.455 -0.1217 -0.3178  0.2856
  407SOL    HW1 1220   1.696   1.362   1.446 -0.5446 -3.5970 -1.3183
  407SOL    HW2 1221   1.753   1.523   1.484 -0.5409  1.2233  0.0775
  408SOL     OW 1222   0.599   0.175   2.165 -0.1044  0.2575 -0.6805
  408SOL    HW1 1223   0.545   0.086   2.161 -0.6944  0.0980  0.9666
  408SOL    HW2 1224   0.685   0.160   2.226  0.1541 -0.5653 -0.0496
  409SOL     OW 1225   2.919   2.414   0.708 -0.1554  1.0485  0.7778
  409SOL    HW1 1226   2.817   2.416   0.714  1.2366  0.2083 -1.1313
  409SOL    HW2 1227   2.962   2.468   0.784  1.2601  0.5615  3.3169
  410SOL     OW 1228   2.220   1.688   0.253  0.4022  0.0078  0.6774
  410SOL    HW1 1229   2.254   1.605   0.300 -1.2093  0.9666 -0.9377
  410SOL    HW2 1230   2.292   1.758   0.267 -1.6320 -2.1044 -3.5667
  411SOL     OW 1231   0.178   0.597   0.783 -0.2609 -0.7941 -0.4585
  411SOL    HW1 1232   0.223   0.587   0.693  1.0416  0.3183  0.6184
  411SOL    HW2 1233   0.219   0.676   0.836 -1.5097  0.3838  0.3092
  412SOL     OW 1234   2.019   0.623   0.485  0.3190 -0.0506  0.0844
  412SOL    HW1 1235   1.956   0.696   0.522 -1.1184  0.8779 -1.8619
  412SOL    HW2 1236   2.060   0.645   0.396  0.5879 -0.4016 -0.0736
  413SOL     OW 1237   0.714   0.444   1.195  0.2096  0.3371  0.3989
  413SOL    HW1 1238   0.622   0.398   1.178 -3.2404  2.0842  1.2716
  413SOL    HW2 1239   0.742   0.447   1.290 -0.1634 -2.2942  3.0587
  414SOL     OW 1240   0.175   1.796   0.078 -0.4490  0.6618  0.3192
  414SOL    HW1 1241   0.108   1.735   0.044 -0.3707  2.4995 -0.4818
  414SOL    HW2 1242   0.245   1.750   0.139  2.4085 -0.2960  0.6079
  415SOL     OW 1243   0.213   2.424   0.118 -0.6176 -0.2278 -0.0851
  415SOL    HW1 1244   0.258   2.342   0.086 -2.4738 -0.3819  0.0399
  415SOL    HW2 1245   0.186   2.478   0.042  1.0766 -0.5641  3.0296
  416SOL     OW 1246   1.677   0.763   0.394  0.5104  0.0861 -0.4061
  416SOL    HW1 1247   1.616   0.677   0.386 -0.2551 -0.1326 -0.7027
  416SOL    HW2 1248   1.713   0.786   0.488  2.9900  0.0465 -0.2131
  417SOL     OW 1249   0.426   0.901   0.548 -0.1993 -0.3614  0.0148
  417SOL    HW1 1250   0.349   0.873   0.482 -0.1793 -2.2868 -1.7364
  417SOL    HW2 1251   0.406   0.975   0.609 -1.5909  2.4365 -0.1107
  418SOL     OW 1252   2.612   1.168   2.575 -0.2112 -0.5179 -0.2758
  418SOL    HW1 1253   2.587   1.263   2.539 -0.5496 -1.8671 -0.9784
  418SOL    HW2 1254   2.532   1.129   2.625 -1.6925  2.8847  1.1334
  419SOL     OW 1255   0.345   0.307   3.025 -0.2504  0.1834  0.3744
  419SOL    HW1 1256   0.350   0.205   3.017  0.5924  1.4904 -0.0999
  419SOL    HW2 1257   0.263   0.345   2.984  1.0954  1.8121  3.9852
  420SOL     OW 1258   0.353   1.282   1.102  0.4625 -0.3614  0.1027
  420SOL    HW1 1259   0.301   1.339   1.036 -0.8432 -0.3591 -3.4242
  420SOL    HW2 1260   0.333   1.315   1.193  1.5116  0.1248 -2.3039
  421SOL     OW 1261   0.524   2.108   0.325 -0.4473  0.2700 -0.4709
  421SOL    HW1 1262   0.425   2.083   0.324  2.5147 -1.2633  1.9770
  421SOL    HW2 1263   0.536   2.204   0.364  0.9313  3.5153 -0.8102
  422SOL     OW 1264   2.864   0.678   1.370 -0.3341  0.4509 -0.0756
  422SOL    HW1 1265   2.933   0.708   1.435 -3.4716 -4.1912 -0.0968
  422SOL    HW2 1266   2.859   0.573   1.385  1.7015 -2.0395  0.7635
  423SOL     OW 1267   1.600   1.508   1.136  0.7292 -0.2292 -0.1177
  423SOL    HW1 1268   1.623   1.477   1.229  3.7366  1.5953  0.4002
  423SOL    HW2 1269   1.630   1.606   1.126 -0.1189 -2.0669  0.3886
  424SOL     OW 1270   1.987   1.207   0.401  0.0908 -0.1846 -0.4973
  424SOL    HW1 1271   2.063   1.186   0.338 -2.1519  3.9785 -0.7215
  424SOL    HW2 1272   1.908   1.252   0.354  2.4745 -0.2858  0.8104
  425SOL     OW 1273   0.052   2.950   2.170 -0.6028  0.0941  0.3852
  425SOL    HW1 1274   0.075   3.007   2.249  0.5253 -0.2744 -0.6936
  425SOL    HW2 1275   3.061   2.888   2.178  1.8376 -1.0614 -0.1060
  426SOL     OW 1276   2.566   2.653   2.752 -0.1158  0.1843  0.2980
  426SOL    HW1 1277   2.502   2.614   2.823  1.2372 -0.0447 -1.5459
  426SOL    HW2 1278   2.578   2.753   2.763 -0.4789 -1.2732 -0.9199
  427SOL     OW 1279   0.933   1.007   2.195 -0.3461 -0.1772 -0.7187
  427SOL    HW1 1280   0.846   0.957   2.174 -0.6572 -0.2030  0.6216
  427SOL    HW2 1281   0.974   0.965   2.281  0.3453  0.2308  1.4045
  428SOL     OW 1282   2.115   0.763   2.452  0.0038  0.1213 -0.1198
  428SOL    HW1 1283   2.114   0.746   2.552 -1.8895 -0.2140  0.4027
  428SOL    HW2 1284   2.159   0.852   2.428  0.3193  1.2104 -1.2157
  429SOL     OW 1285   2.512   0.399   0.542 -0.6781  0.6214 -0.2222
  429SOL    HW1 1286   2.453   0.315   0.539 -0.5145  0.6195 -0.1211
  429SOL    HW2 1287   2.485   0.454   0.620 -0.8993 -1.3265 -0.4901
  430SOL     OW 1288   2.144   1.040   2.012  0.5567  0.3675  0.8226
  430SOL    HW1 1289   2.085   1.003   2.089 -1.2355 -1.0002  1.7206
  430SOL    HW2 1290   2.131   0.986   1.927 -2.5727  2.2750 -0.4202
  431SOL     OW 1291   3.002   1.998   1.418  0.5085 -0.3469 -0.2048
  431SOL    HW1 1292   3.023   2.090   1.461  1.3165  0.2621  1.0357
  431SOL    HW2 1293   3.025   1.924   1.489  0.2024 -1.9999 -0.0211
  432SOL     OW 1294   1.617   2.991   2.318  1.0786 -0.0312  0.0200
  432SOL    HW1 1295   1.607   0.001   2.314  1.8075 -0.4551 -1.6210
  432SOL    HW2 1296   1.680   2.955   2.243 -0.0373  1.7714  1.1895
  433SOL     OW 1297   1.514   2.798   1.918  0.3633 -0.5651  0.2737
  433SOL    HW1 1298   1.530   2.794   1.815  2.5119 -2.6884 -0.8056
  433SOL    HW2 1299   1.435   2.860   1.936 -2.9805 -0.6917 -3.4189
  434SOL     OW 1300   0.066   2.388   2.375  0.5881 -0.4307 -0.5247
  434SOL    HW1 1301   0.016   2.466   2.416  2.3958  2.5651  1.4596
  434SOL    HW2 1302   0.052   2.369   2.276  0.1776  0.3489  2.8837
  435SOL     OW 1303   2.966   2.092   0.147 -0.1478  0.4216  0.3694
  435SOL    HW1 1304   3.063   2.073   0.121  0.5600 -1.8660 -1.3576
  435SOL    HW2 1305   2.923   2.009   0.191  0.7914  1.8130  0.0474
  436SOL     OW 1306   0.966   1.155   1.704 -0.0009 -0.1581  0.0701
  436SOL    HW1 1307   1.004   1.077   1.652 -0.4224 -1.1152 -0.2469
  436SOL    HW2 1308   0.998   1.169   1.805  0.3290  2.8666  1.6536
  437SOL     OW 1309   0.490   0.131   2.545  0.0227 -0.6465  0.4623
  437SOL    HW1 1310   0.502   0.112   2.646  2.7117  1.7397  1.6866
  437SOL    HW2 1311   0.416   0.069   2.508 -1.1111 -0.5615  0.4891
  438SOL     OW 1312   0.597   1.628   1.671  0.4489 -0.2468 -0.0944
  438SOL    HW1 1313   0.643   1.709   1.711  0.9519 -0.8618 -2.4537
  438SOL    HW2 1314   0.642   1.545   1.718 -0.0710 -1.2504  2.3888
  439SOL     OW 1315   2.038   0.927   3.017 -0.6289  0.1816  0.0034
  439SOL    HW1 1316   1.983   0.953   0.011  0.9825  2.4507  0.3250
  439SOL    HW2 1317   2.133   0.963   3.020 -2.3657 -1.1537 -2.4482
  440SOL     OW 1318   0.852   1.069   0.272 -0.1693 -0.6850  0.6097
  440SOL    HW1 1319   0.937   1.053   0.325  2.6656 -2.5809 -0.3746
  440SOL    HW2 1320   0.771   1.069   0.328  3.5552  0.4437 -0.2950
  441SOL     OW 1321   0.593   2.703   1.464 -0.6221  0.0091  0.0645
  441SOL    HW1 1322   0.557   2.651   1.387 -0.0367  1.2255  0.7168
  441SOL    HW2 1323   0.676   2.660   1.501 -1.0359  0.0629  0.1752
  442SOL     OW 1324   2.663   1.918   0.488 -0.1553 -0.2174 -0.2910
  442SOL    HW1 1325   2.659   2.022   0.482 -2.0301 -0.4703 -0.5834
  442SOL    HW2 1326   2.670   1.884   0.584  1.0298  1.9537 -0.6626
  443SOL     OW 1327   2.595   1.601   2.694 -0.0977  0.2288 -0.0090
  443SOL    HW1 1328   2.569   1.698   2.676 -2.4050  1.6959 -1.1744
  443SOL    HW2 1329   2.698   1.587   2.670  0.4022  1.0495 -1.0285
  444SOL     OW 1330   1.279   1.156   0.291  0.8137  0.1970  0.5862
  444SOL    HW1 1331   1.260   1.062   0.320  2.5628  0.1786 -3.3382
  444SOL    HW2 1332   1.230   1.220   0.353  2.2860 -1.6393  2.4714
  445SOL     OW 1333   2.329   2.466   1.758  0.2584 -0.1133 -0.2558
  445SOL    HW1 1334   2.422   2.466   1.803  1.0975 -0.2122  1.8224
  445SOL    HW2 1335   2.301   2.565   1.749 -1.6143  0.0517  0.3423
  446SOL     OW 1336   2.866   1.642   0.582  0.2643  0.4318  0.0337
  446SOL    HW1 1337   2.931   1.670   0.507 -0.2982  0.2680  0.9804
  446SOL    HW2 1338   2.788   1.707   0.583  1.7170 -1.1286  0.5732
  447SOL     OW 1339   1.015   2.325   1.167 -0.1287 -0.3095  0.0463
  447SOL    HW1 1340   1.029   2.242   1.224  1.3527  0.5904  3.0581
  447SOL    HW2 1341   1.050   2.315   1.073 -0.2756  1.5730  1.4330
  448SOL     OW 1342   1.606   1.619   1.783  0.1536 -0.0254 -0.2952
  448SOL    HW1 1343   1.521   1.630   1.838 -2.5611  0.8777  0.1603
  448SOL    HW2 1344   1.631   1.706   1.742 -0.9197  1.1617 -0.8497
  449SOL     OW 1345   0.085   1.899   2.081 -0.5933 -0.3051  0.3080
  449SOL    HW1 1346   0.007   1.871   2.025 -1.5833 -0.5063  2.9964
  449SOL    HW2 1347   0.158   1.827   2.089 -0.7032  1.4249  0.1918
  450SOL     OW 1348   2.827   1.731   2.215  0.1049 -0.0456 -0.0906
  450SOL    HW1 1349   2.824   1.830   2.246  0.5614  0.2463 -0.4022
  450SOL    HW2 1350   2.859   1.725   2.119 -3.8217 -0.2962  1.5261
  451SOL     OW 1351   2.201   0.567   1.631 -0.0098 -0.0657  0.3365
  451SOL    HW1 1352   2.249   0.630   1.565  4.5768  1.3634 -0.6448
  451SOL    HW2 1353   2.135   0.505   1.581 -0.7437  1.3268  1.0326
  452SOL     OW 1354   0.814   1.608   0.791  0.0285  0.0390 -0.1949
  452SOL    HW1 1355   0.733   1.546   0.774  0.2216 -2.0458  2.3361
  452SOL    HW2 1356   0.885   1.574   0.728 -0.9554  0.4554 -2.3633
  453SOL     OW 1357   1.360   2.358   1.122  0.0967 -0.8618 -0.0648
  453SOL    HW1 1358   1.386   2.365   1.019 -1.0199  1.3056 -2.4362
  453SOL    HW2 1359   1.294   2.435   1.144 -3.1837 -0.4896 -2.3232
  454SOL     OW 1360   0.088   1.472   0.321 -0.0520  0.3095  0.1991
  454SOL    HW1 1361   0.082   1.425   0.412  2.9778  0.1284  0.1827
  454SOL    HW2 1362   0.150   1.426   0.254 -1.9360 -0.3026 -0.6985
  455SOL     OW 1363   1.018   1.007   0.517 -0.4668 -0.7437 -0.1950
  455SOL    HW1 1364   1.060   0.931   0.462  2.1212 -0.7076 -0.5508
  455SOL    HW2 1365   1.088   1.057   0.577 -0.2160 -0.1558 -2.1227
  456SOL     OW 1366   2.120   2.426   0.770  0.3970  0.7020  1.2174
  456SOL    HW1 1367   2.042   2.366   0.788 -0.1472  0.1386 -0.4794
  456SOL    HW2 1368   2.155   2.403   0.679  1.5321 -2.5167  0.6216
  457SOL     OW 1369   1.747   2.912   2.914 -0.2338 -1.0403  0.0760
  457SOL    HW1 1370   1.693   2.993   2.898  2.1908  0.6197  1.2389
  457SOL    HW2 1371   1.845   2.932   2.938  0.8148  1.0301 -0.1508
  458SOL     OW 1372   2.553   0.667   0.226  0.2499 -0.0869 -0.3420
  458SOL    HW1 1373   2.464   0.636   0.266 -2.6563 -1.6468 -0.0694
  458SOL    HW2 1374   2.567   0.766   0.258  0.0670  2.4749  2.5371
  459SOL     OW 1375   2.218   0.294   2.119  0.0340  0.1888  0.0291
  459SOL    HW1 1376   2.160   0.373   2.093 -2.5250  0.3887  1.1655
  459SOL    HW2 1377   2.313   0.314   2.121 -3.0116 -0.0965 -0.6251
  460SOL     OW 1378   2.858   0.535   2.758  0.0705  0.0048  0.2368
  460SOL    HW1 1379   2.826   0.484   2.838  0.9215 -2.3470 -0.7497
  460SOL    HW2 1380   2.787   0.545   2.689  1.2045 -0.1514  2.3306
  461SOL     OW 1381   0.068   2.279   0.934  0.3878 -0.0625  0.1109
  461SOL    HW1 1382   0.111   2.238   1.016 -0.4800  1.0388  2.3891
  461SOL    HW2 1383   0.120   2.255   0.855 -2.9014 -3.2055  0.9823
  462SOL     OW 1384   2.816   2.856   1.246  0.2741  0.1709  0.3493
  462SOL    HW1 1385   2.764   2.929   1.190  2.2184  1.0827  0.1033
  462SOL    HW2 1386   2.919   2.870   1.226  1.0254  2.3843  0.1127
  463SOL     OW 1387   2.134   1.347   3.027  0.4268  1.0156  0.1022
  463SOL    HW1 1388   2.234   1.358   3.043 -4.3492  1.0327  1.0293
  463SOL    HW2 1389   2.113   1.372   2.933  0.4432  0.8912  2.4550
  464SOL     OW 1390   0.791   2.450   1.238  0.3419 -0.3371 -0.1088
  464SOL    HW1 1391   0.873   2.392   1.213  0.0757  1.9069  1.6127
  464SOL    HW2 1392   0.826   2.531   1.285 -1.4927  0.3030 -0.0265
  465SOL     OW 1393   0.964   0.254   1.440  0.0811  0.3440 -0.4617
  465SOL    HW1 1394   0.928   0.168   1.476  0.0346  0.2639  1.4017
  465SOL    HW2 1395   0.898   0.328   1.452 -0.1466 -2.2023 -0.1659
  466SOL     OW 1396   1.585   2.391   1.949  0.5843 -0.5590  0.0925
  466SOL    HW1 1397   1.634   2.383   2.042 -2.8954 -1.5296  1.2916
  466SOL    HW2 1398   1.504   2.457   1.943 -1.8494 -0.9582 -1.2502
  467SOL     OW 1399   0.665   2.217   1.400  0.2627 -0.1131 -0.2227
  467SOL    HW1 1400   0.664   2.307   1.354  1.0538  2.2094 -2.0342
  467SOL    HW2 1401   0.574   2.169   1.402 -3.0812 -0.6533  0.2224
  468SOL     OW 1402   2.546   1.554   2.029  0.8797 -0.4848 -0.1559
  468SOL    HW1 1403   2.540   1.534   2.128  0.9685 -0.2212 -0.2267
  468SOL    HW2 1404   2.568   1.472   1.978  0.5138 -2.0084 -2.7183
  469SOL     OW 1405   0.841   1.955   0.570  0.0930 -0.2475 -0.2242
  469SOL    HW1 1406   0.796   2.047   0.576  0.3610 -0.3516 -1.4704
  469SOL    HW2 1407   0.826   1.906   0.657  0.4481 -1.4618 -0.4515
  470SOL     OW 1408   1.971   0.951   2.218  0.3102  0.2650 -0.5120
  470SOL    HW1 1409   1.908   0.881   2.265 -1.8916 -0.5772  2.0896
  470SOL    HW2 1410   2.008   1.026   2.281  3.5065  0.5749  2.3981
  471SOL     OW 1411   0.618   2.414   0.106 -0.3178 -0.2838  0.1152
  471SOL    HW1 1412   0.596   2.446   0.197  0.0585 -1.2076 -1.1315
  471SOL    HW2 1413   0.716   2.374   0.093  0.0291 -1.8884  0.6257
  472SOL     OW 1414   0.250   2.800   2.074 -0.1446 -0.3625 -0.3379
  472SOL    HW1 1415   0.224   2.896   2.098  1.3558  1.1592 -2.5675
  472SOL    HW2 1416   0.327   2.809   2.003 -0.2080 -0.1814 -1.4808
  473SOL     OW 1417   0.605   2.660   3.080 -0.0179 -0.3417  0.1938
  473SOL    HW1 1418   0.634   2.712   0.075  1.2019 -0.4795  0.6676
  473SOL    HW2 1419   0.593   2.563   0.025 -1.9635  1.7973  0.6124
  474SOL     OW 1420   2.234   2.993   1.050 -0.3589  0.5618 -0.0003
  474SOL    HW1 1421   2.133   2.980   1.055  2.1059 -1.3993 -1.0223
  474SOL    HW2 1422   2.284   2.908   1.019 -1.0149 -2.2845  0.1773
  475SOL     OW 1423   1.839   2.833   1.755 -0.1435 -0.0871  0.3594
  475SOL    HW1 1424   1.794   2.753   1.800 -4.1520  0.0147  0.2382
  475SOL    HW2 1425   1.834   2.831   1.655 -1.5125 -0.7345  0.1473
  476SOL     OW 1426   0.553   1.441   0.800 -0.6070  0.1601 -0.2133
  476SOL    HW1 1427   0.499   1.504   0.859 -2.6540  1.0002 -0.4285
  476SOL    HW2 1428   0.590   1.359   0.846  1.2486 -0.4370 -4.2243
  477SOL     OW 1429   0.262   1.954   0.677  0.7979  0.6664 -0.3278
  477SOL    HW1 1430   0.358   1.925   0.687  0.5067 -2.2463 -0.1619
  477SOL    HW2 1431   0.232   1.943   0.585 -1.5082  1.4592  0.8987
  478SOL     OW 1432   2.993   2.616   2.429 -0.4002  0.5937  0.5273
  478SOL    HW1 1433   3.050   2.624   2.512  2.1240 -0.2106  1.9393
  478SOL    HW2 1434   2.923   2.542   2.452  1.7710 -1.4621 -0.9980
  479SOL     OW 1435   2.945   0.403   1.406  0.1309 -0.1953  0.0670
  479SOL    HW1 1436   3.046   0.390   1.421  3.5068 -1.1265 -0.5206
  479SOL    HW2 1437   2.899   0.319   1.439 -0.9189  1.2807 -0.8391
  480SOL     OW 1438   2.810   2.450   3.018  0.1061  0.0020 -0.0172
  480SOL    HW1 1439   2.885   2.523   3.001 -1.5753  1.9398 -1.8759
  480SOL    HW2 1440   2.728   2.490   3.063 -0.0535  0.4496 -2.3083
  481SOL     OW 1441   2.260   1.928   1.618 -0.0044 -0.1048 -0.2461
  481SOL    HW1 1442   2.186   1.933   1.693 -1.9900  1.1743  1.7501
  481SOL    HW2 1443   2.346   1.974   1.647 -0.2469 -0.2209  2.2938
  482SOL     OW 1444   1.822   2.147   2.481 -0.3064 -0.3490 -0.0273
  482SOL    HW1 1445   1.897   2.083   2.473 -2.0123 -0.6191 -0.0042
  482SOL    HW2 1446   1.752   2.113   2.415 -1.9910 -0.1248 -0.2483
  483SOL     OW 1447   0.893   1.510   2.185  0.1191  0.2807 -0.2733
  483SOL    HW1 1448   0.814   1.566   2.219  1.2559 -0.1633 -2.1825
  483SOL    HW2 1449   0.848   1.432   2.130 -0.6007 -2.9695 -0.1748
  484SOL     OW 1450   0.141   0.495   1.412  0.1138  0.0493  0.5094
  484SOL    HW1 1451   0.108   0.575   1.351  0.7843  3.1334 -0.6324
  484SOL    HW2 1452   0.156   0.535   1.503 -0.3472 -0.0458 -1.9064
  485SOL     OW 1453   2.479   1.131   0.312  0.3481  0.5047  0.1841
  485SOL    HW1 1454   2.545   1.058   0.279  1.7460  2.1749  0.0597
  485SOL    HW2 1455   2.502   1.211   0.266  0.0454 -1.9959  4.6931
  486SOL     OW 1456   1.506   0.153   2.206  0.3220 -0.4283  0.3400
  486SOL    HW1 1457   1.485   0.107   2.118 -0.6272 -0.4768 -0.1945
  486SOL    HW2 1458   1.602   0.182   2.207 -0.0557  2.0582  0.7554
  487SOL     OW 1459   0.810   2.053   1.233 -0.3365 -0.3154  0.3171
  487SOL    HW1 1460   0.765   2.128   1.284  0.6035  0.3094  0.7762
  487SOL    HW2 1461   0.772   1.961   1.248 -0.4131  2.1625 -1.3398
  488SOL     OW 1462   2.397   1.453   3.029 -0.0679  0.1604 -0.3193
  488SOL    HW1 1463   2.492   1.473   2.994 -3.2768  2.1248  1.2080
  488SOL    HW2 1464   2.340   1.532   3.000  1.5374 -0.0786 -1.2571
  489SOL     OW 1465   2.281   2.978   0.541  0.3202  0.1110 -0.2533
  489SOL    HW1 1466   2.350   2.951   0.611  1.4237  1.4057  0.4650
  489SOL    HW2 1467   2.298   3.076   0.509 -2.2848 -0.9333 -1.1156
  490SOL     OW 1468   1.177   2.703   2.980  0.0117  0.3713 -0.0572
  490SOL    HW1 1469   1.165   2.634   2.903  0.1998 -0.5977 -2.3302
  490SOL    HW2 1470   1.082   2.736   3.007  0.9692  1.2587 -1.2921
  491SOL     OW 1471   1.056   1.173   1.183  0.0000 -0.1957 -0.0110
  491SOL    HW1 1472   1.034   1.261   1.227 -0.4310  1.3895  0.3447
  491SOL    HW2 1473   1.065   1.187   1.081  4.0540  2.1530 -3.7032
  492SOL     OW 1474   1.393   0.409   2.459  0.0981  0.8776  0.0660
  492SOL    HW1 1475   1.490   0.397   2.430 -1.3202  1.1621 -0.2652
  492SOL    HW2 1476   1.333   0.444   2.387 -1.5707 -3.7018  0.9701
  493SOL     OW 1477   1.728   2.062   0.048 -0.6700  0.1941  0.2607
  493SOL    HW1 1478   1.728   2.163   0.051  0.5570 -1.5797 -0.4288
  493SOL    HW2 1479   1.822   2.027   0.025  1.7101  0.9831  0.1880
  494SOL     OW 1480   0.594   1.477   0.529  0.1014  0.2339 -0.2433
  494SOL    HW1 1481   0.548   1.566   0.516  0.1621 -1.6579  3.0380
  494SOL    HW2 1482   0.591   1.450   0.627 -0.6788 -3.6322  0.5999
  495SOL     OW 1483   2.844   2.700   0.658  0.5743 -0.3114  0.2636
  495SOL    HW1 1484   2.945   2.700   0.661  1.4437  2.6970 -0.0568
  495SOL    HW2 1485   2.797   2.607   0.657  0.8319  1.8440 -0.6022
  496SOL     OW 1486   2.633   0.067   1.586 -0.2339  0.8749  0.0678
  496SOL    HW1 1487   2.587   0.010   1.514  1.2793 -0.6573  0.3824
  496SOL    HW2 1488   2.591   0.060   1.678 -0.4700 -0.8549  0.5302
  497SOL     OW 1489   2.325   1.151   2.420  0.3421 -0.2024  0.3975
  497SOL    HW1 1490   2.363   1.221   2.484  2.0434 -2.7989 -2.3672
  497SOL    HW2 1491   2.272   1.090   2.478  0.2957  0.3730 -1.0345
  498SOL     OW 1492   0.533   2.150   1.015 -0.3544  0.1565 -0.2538
  498SOL    HW1 1493   0.458   2.131   0.954  1.6310  0.4001  1.2120
  498SOL    HW2 1494   0.522   2.083   1.089 -2.7224 -0.3082  1.6383
  499SOL     OW 1495   0.841   2.336   1.607  0.3579 -0.2774  0.4651
  499SOL    HW1 1496   0.789   2.406   1.663  0.9605  0.8115  0.0776
  499SOL    HW2 1497   0.787   2.324   1.521 -2.8483  6.4226 -0.7541
  500SOL     OW 1498   1.151   2.169   0.348  0.5092 -0.1878  0.4924
  500SOL    HW1 1499   1.192   2.085   0.390 -0.7195  0.7159  2.6819
  500SOL    HW2 1500   1.183   2.184   0.251  1.5256 -1.0899 -2.6664
  501SOL     OW 1501   2.348   2.830   1.335  0.2385 -0.2116  0.9541
  501SOL    HW1 1502   2.284   2.847   1.414 -0.5612 -0.6432 -0.3806
  501SOL    HW2 1503   2.294   2.815   1.249 -1.7388  4.5714 -1.7236
  502SOL     OW 1504   2.869   0.213   1.600 -0.1604  0.5039 -0.0726
  502SOL    HW1 1505   2.912   0.183   1.685  0.1060 -0.3458 -0.4932
  502SOL    HW2 1506   2.783   0.160   1.582 -2.4919 -0.7319  0.5054
  503SOL     OW 1507   2.774   0.888   1.937 -0.0866  0.0645  0.4225
  503SOL    HW1 1508   2.823   0.967   1.982  2.0874  0.4257  1.9435
  503SOL    HW2 1509   2.695   0.859   1.989 -0.2384  1.1531 -3.1146
  504SOL     OW 1510   1.406   0.701   1.785  0.1226 -0.1111 -0.5399
  504SOL    HW1 1511   1.451   0.734   1.700 -2.2614 -0.5798  1.0280
  504SOL    HW2 1512   1.330   0.762   1.812 -1.3666  0.6702  1.2826
  505SOL     OW 1513   0.900   0.154   2.059  0.3120 -0.2819 -1.1864
  505SOL    HW1 1514   0.863   0.079   2.004  1.6722  1.2839 -0.0959
  505SOL    HW2 1515   0.885   0.141   2.161 -1.6145  1.8674 -1.1201
  506SOL     OW 1516   0.344   0.311   0.789 -0.3653 -0.1108 -0.3686
  506SOL    HW1 1517   0.287   0.317   0.708 -0.1913 -2.3104  0.9498
  506SOL    HW2 1518   0.306   0.243   0.859  0.5892 -2.6783  0.6779
  507SOL     OW 1519   2.144   0.547   0.155 -0.3683  0.4778 -0.1324
  507SOL    HW1 1520   2.222   0.551   0.223 -1.6353 -1.4648 -0.7126
  507SOL    HW2 1521   2.050   0.563   0.193 -2.5738 -0.1788 -0.0430
  508SOL     OW 1522   1.774   0.233   2.226 -0.0598  0.2612  0.2037
  508SOL    HW1 1523   1.855   0.295   2.229  0.2465 -1.7795  2.7687
  508SOL    HW2 1524   1.792   0.155   2.293 -1.0949 -4.0692  0.8276
  509SOL     OW 1525   1.012   1.428   1.681 -0.0980 -0.2640  0.0201
  509SOL    HW1 1526   1.106   1.462   1.679 -2.5654  0.3327  1.1154
  509SOL    HW2 1527   1.007   1.325   1.677 -2.2313  0.2809 -0.6041
  510SOL     OW 1528   2.764   1.104   0.783 -0.0464 -0.6026  0.2443
  510SOL    HW1 1529   2.847   1.065   0.826 -1.6274 -0.1720 -1.4134
  510SOL    HW2 1530   2.713   1.174   0.841 -2.2632  0.7388 -1.7623
  511SOL     OW 1531   1.804   1.944   1.206  0.5994 -0.2100 -0.2144
  511SOL    HW1 1532   1.886   1.992   1.179  0.0369 -1.5975  0.8931
  511SOL    HW2 1533   1.750   2.002   1.271  3.9564 -0.3182 -1.7280
  512SOL     OW 1534   3.037   1.715   0.381  0.0579 -0.2206 -0.4666
  512SOL    HW1 1535   0.007   1.637   0.351  0.9454 -2.9602  1.0047
  512SOL    HW2 1536   0.018   1.788   0.408 -0.3749  0.6406  2.3271
  513SOL     OW 1537   2.908   2.322   0.289  0.2651  0.0751  0.1428
  513SOL    HW1 1538   2.917   2.243   0.219  2.1513 -2.8597  1.6975
  513SOL    HW2 1539   2.810   2.335   0.316  2.6142  0.7295 -0.4588
  514SOL     OW 1540   2.507   2.036   2.557  0.8025  0.3004  0.4204
  514SOL    HW1 1541   2.500   2.115   2.488 -0.9426  0.0624 -0.9609
  514SOL    HW2 1542   2.417   2.022   2.602 -0.4933 -0.8185  2.0059
  515SOL     OW 1543   2.004   1.442   0.541 -0.6180  0.1945  0.3915
  515SOL    HW1 1544   1.991   1.372   0.468  1.2369  1.8455 -0.7318
  515SOL    HW2 1545   2.095   1.424   0.586 -0.9003 -1.7724 -0.2179
  516SOL     OW 1546   2.012   3.056   0.579 -0.5447 -0.4893  0.6154
  516SOL    HW1 1547   2.017   0.066   0.607  0.1207 -0.0828 -0.2789
  516SOL    HW2 1548   2.107   3.015   0.584  1.4097 -0.7740  2.9109
  517SOL     OW 1549   0.839   1.908   2.807  0.1325  0.4871 -0.4910
  517SOL    HW1 1550   0.886   1.965   2.878 -0.5824  0.2124 -0.3183
  517SOL    HW2 1551   0.751   1.952   2.778  0.5280  4.2387  0.2927
  518SOL     OW 1552   0.494   0.524   1.958 -0.2611  0.3102  0.0988
  518SOL    HW1 1553   0.554   0.444   1.981  0.2025 -2.5970 -1.3287
  518SOL    HW2 1554   0.509   0.591   2.035 -1.1792 -0.7717  1.5845
  519SOL     OW 1555   0.037   0.971   0.129  0.5773 -0.1618 -0.1277
  519SOL    HW1 1556   0.066   0.968   0.031  1.3296 -1.5434 -0.6842
  519SOL    HW2 1557   0.122   1.002   0.177 -0.9875 -1.9645  0.6191
  520SOL     OW 1558   2.700   1.676   1.620 -0.2050 -0.4636  0.2840
  520SOL    HW1 1559   2.681   1.695   1.718  1.7278 -3.0399 -1.6215
  520SOL    HW2 1560   2.630   1.726   1.567 -0.8874  1.0480 -1.9755
  521SOL     OW 1561   0.366   2.495   2.408  0.0168 -0.6094  0.4531
  521SOL    HW1 1562   0.447   2.478   2.349  1.2444 -0.1965 -1.6771
  521SOL    HW2 1563   0.294   2.544   2.355 -0.7566  0.7744 -0.8519
  522SOL     OW 1564   1.839   0.065   2.038 -0.1083 -0.5260  0.4462
  522SOL    HW1 1565   1.941   0.041   2.049  0.8943  0.3822  0.5479
  522SOL    HW2 1566   1.808   0.133   2.105 -1.3386 -0.9403 -2.3508
  523SOL     OW 1567   1.937   1.833   1.420  0.6121  0.5562 -0.0070
  523SOL    HW1 1568   2.041   1.842   1.417  3.7061  0.1736 -2.1380
  523SOL    HW2 1569   1.892   1.879   1.340  0.7817 -1.1969 -1.1436
  524SOL     OW 1570   0.701   2.800   0.222  0.3253 -0.1652 -0.4436
  524SOL    HW1 1571   0.654   2.892   0.208 -1.8659  0.7214  0.8316
  524SOL    HW2 1572   0.799   2.810   0.253  3.1668 -0.3790  2.8337
  525SOL     OW 1573   2.936   0.433   0.364 -0.3582 -0.1470  0.5530
  525SOL    HW1 1574   2.897   0.485   0.288  1.2436 -0.0280  4.4574
  525SOL    HW2 1575   3.039   0.439   0.365  0.4089 -1.8947  1.2735
  526SOL     OW 1576   0.713   2.869   0.650  0.9544 -0.0463  0.0989
  526SOL    HW1 1577   0.754   2.841   0.739 -0.3217 -0.5574 -3.2581
  526SOL    HW2 1578   0.617   2.831   0.643 -0.3255 -0.2275 -0.2880
  527SOL     OW 1579   2.500   1.937   0.870  0.2826 -0.1213 -0.3698
  527SOL    HW1 1580   2.505   1.897   0.962  1.6662  0.6018  4.9280
  527SOL    HW2 1581   2.492   2.042   0.869 -1.2898  0.2925 -0.2470
  528SOL     OW 1582   2.802   0.477   2.203 -0.4231  0.1263  0.0976
  528SOL    HW1 1583   2.902   0.466   2.215 -1.9872 -1.0456 -0.1868
  528SOL    HW2 1584   2.768   0.421   2.124 -0.1968  1.0825 -0.2983
  529SOL     OW 1585   1.235   1.496   2.498  0.1379 -0.2477  0.5142
  529SOL    HW1 1586   1.306   1.422   2.521 -1.3170 -2.1748 -2.1704
  529SOL    HW2 1587   1.208   1.548   2.580 -1.2279  0.8962  0.2817
  530SOL     OW 1588   1.798   1.141   2.659 -0.0015 -0.5353  0.1573
  530SOL    HW1 1589   1.744   1.106   2.576 -3.2088  1.8439 -1.4510
  530SOL    HW2 1590   1.862   1.067   2.690  0.1266  2.1961 -1.1600
  531SOL     OW 1591   0.741   1.683   2.495  0.0091 -0.6592  0.1626
  531SOL    HW1 1592   0.682   1.763   2.468 -0.3697  0.5278  1.1223
  531SOL    HW2 1593   0.704   1.597   2.455 -0.1662  3.2471  2.0139
  532SOL     OW 1594   1.790   1.442   0.678  0.2966  0.0382  0.4715
  532SOL    HW1 1595   1.882   1.443   0.636  1.8265 -1.4568  1.9518
  532SOL    HW2 1596   1.717   1.467   0.614  1.3583 -3.4358 -0.8475
  533SOL     OW 1597   0.236   0.199   1.971 -0.0671  0.5158  0.9954
  533SOL    HW1 1598   0.276   0.111   1.937  0.5048 -2.6183 -0.1190
  533SOL    HW2 1599   0.145   0.187   2.013  0.0156 -1.7892 -0.5744
  534SOL     OW 1600   0.764   2.631   2.858 -0.3348 -0.4723 -0.3490
  534SOL    HW1 1601   0.727   2.630   2.948  1.2262  0.3206 -0.0207
  534SOL    HW2 1602   0.852   2.677   2.862 -0.8650 -3.7557  0.3348
  535SOL     OW 1603   0.391   0.120   0.321  0.1689  0.0525 -0.2222
  535SOL    HW1 1604   0.444   0.207   0.328  0.0026 -0.0221 -2.4539
  535SOL    HW2 1605   0.331   0.110   0.401 -1.2790  2.9098 -0.8768
  536SOL     OW 1606   0.255   1.496   1.770 -0.1949 -0.1091  0.4405
  536SOL    HW1 1607   0.201   1.406   1.773 -2.9088 -1.2396  1.9968
  536SOL    HW2 1608   0.268   1.529   1.678 -0.7449  1.2033  2.1986
  537SOL     OW 1609   1.047   2.740   1.653  0.4332 -0.1585 -0.5924
  537SOL    HW1 1610   1.038   2.795   1.569 -1.5261  0.8986 -0.3748
  537SOL    HW2 1611   1.117   2.667   1.639  1.6978 -1.1120 -1.4152
  538SOL     OW 1612   2.862   1.891   0.269 -0.4723  0.5285  0.0216
  538SOL    HW1 1613   2.919   1.805   0.301  0.5904 -4.0425  1.5813
  538SOL    HW2 1614   2.791   1.919   0.339 -1.8806  0.0402  1.6586
  539SOL     OW 1615   2.852   1.065   2.591  0.2041 -0.4513 -0.3479
  539SOL    HW1 1616   2.868   1.006   2.677  0.4450 -0.8596 -0.8378
  539SOL    HW2 1617   2.754   1.099   2.599 -1.0122  1.3933  0.8536
  540SOL     OW 1618   1.529   0.822   2.035  0.6545 -0.0737  0.3076
  540SOL    HW1 1619   1.603   0.784   1.974  0.6341  1.8563 -0.9522
  540SOL    HW2 1620   1.473   0.890   1.979 -2.3291  1.4386 -0.6282
  541SOL     OW 1621   0.834   0.838   1.807  0.2382 -0.3949  0.8449
  541SOL    HW1 1622   0.739   0.801   1.810 -1.1098  1.0892 -1.4760
  541SOL    HW2 1623   0.849   0.889   1.721  0.9350  0.2811  1.4645
  542SOL     OW 1624   2.318   0.334   2.859 -0.5891  0.6632  0.3096
  542SOL    HW1 1625   2.417   0.303   2.829 -0.4610 -3.5521 -1.8976
  542SOL    HW2 1626   2.260   0.345   2.775  0.6113 -0.7728  0.7021
  543SOL     OW 1627   1.002   3.061   2.993  0.1276  0.2256  0.1374
  543SOL    HW1 1628   0.986   0.034   3.075 -0.1913 -3.2930  0.3990
  543SOL    HW2 1629   1.076   0.008   2.933  1.0470 -1.2659  1.8228
  544SOL     OW 1630   2.890   1.483   1.986  0.2518 -0.1575  0.2157
  544SOL    HW1 1631   2.956   1.421   2.028  0.0073 -0.1726  0.7421
  544SOL    HW2 1632   2.796   1.451   2.003  1.5369  0.9012  0.3832
  545SOL     OW 1633   2.029   2.221   1.665 -0.0854  0.0581  0.1728
  545SOL    HW1 1634   2.007   2.221   1.565 -0.5190 -0.9030 -3.1364
  545SOL    HW2 1635   2.127   2.210   1.676 -1.3710 -1.3928 -0.5324
  546SOL     OW 1636   0.099   0.013   2.859 -0.4640 -0.4411  0.1658
  546SOL    HW1 1637   0.105   3.026   2.792  0.5288  3.3128  3.9727
  546SOL    HW2 1638   0.192   0.037   2.892 -0.2102 -1.7536 -0.5945
  547SOL     OW 1639   1.759   1.002   0.862  0.5256 -0.2692  0.3765
  547SOL    HW1 1640   1.732   1.068   0.784 -2.2757  0.9096  0.0834
  547SOL    HW2 1641   1.707   0.918   0.846  0.3260  3.6563 -1.0127
  548SOL     OW 1642   1.802   1.788   2.325  0.4295 -0.3337 -0.1402
  548SOL    HW1 1643   1.877   1.778   2.258  1.9533 -0.5402  0.1777
  548SOL    HW2 1644   1.815   1.727   2.405 -0.6527  1.2804 -0.4939
  549SOL     OW 1645   1.799   0.482   0.605 -0.0512  0.3404  0.3992
  549SOL    HW1 1646   1.845   0.538   0.541 -0.3081 -1.4563 -3.0046
  549SOL    HW2 1647   1.833   0.492   0.702 -0.8219  0.2058 -3.3947
  550SOL     OW 1648   1.910   1.555   0.954  0.6793  0.3104 -0.4664
  550SOL    HW1 1649   1.845   1.621   0.994  0.6872 -0.2273  1.7474
  550SOL    HW2 1650   1.872   1.534   0.860 -1.8386 -0.2771  0.4320
  551SOL     OW 1651   0.769   2.736   1.772  0.0182 -0.0632  0.3245
  551SOL    HW1 1652   0.867   2.729   1.737  2.1317  2.4112 -0.8865
  551SOL    HW2 1653   0.742   2.836   1.793 -0.5163  4.1449  0.5078
  552SOL     OW 1654   3.063   2.220   2.616 -0.5586 -0.7653 -0.0225
  552SOL    HW1 1655   3.018   2.135   2.591 -0.8406 -0.1604 -0.9573
  552SOL    HW2 1656   0.030   2.246   2.535  1.0434  0.6273 -2.8188
  553SOL     OW 1657   0.249   3.055   0.851  0.5413 -0.2726 -0.5970
  553SOL    HW1 1658   0.290   3.067   0.763 -3.1344 -0.8167 -3.3520
  553SOL    HW2 1659   0.313   3.007   0.911  0.0193  2.5365  0.3390
  554SOL     OW 1660   2.518   2.060   1.684 -0.2117 -0.0804  0.5380
  554SOL    HW1 1661   2.583   2.063   1.762  1.9475 -1.6947 -2.0275
  554SOL    HW2 1662   2.456   2.138   1.669 -1.0581  0.9261 -2.4082
  555SOL     OW 1663   1.128   2.128   1.921  0.8772  0.0137  0.4740
  555SOL    HW1 1664   1.175   2.116   1.833 -2.2924  0.4846  2.1384
  555SOL    HW2 1665   1.064   2.204   1.912  1.0213 -3.0589  0.6285
  556SOL     OW 1666   1.141   1.826   1.606 -0.1399  0.7201  0.2799
  556SOL    HW1 1667   1.172   1.902   1.659  0.1239 -4.1362 -1.5139
  556SOL    HW2 1668   1.179   1.743   1.647 -1.8042 -0.9473 -1.9168
  557SOL     OW 1669   1.963   2.321   2.108 -0.2489 -0.3708 -0.5998
  557SOL    HW1 1670   2.049   2.345   2.065 -3.3029 -1.8448  1.0236
  557SOL    HW2 1671   1.985   2.286   2.201  2.1046  1.3258 -0.3868
  558SOL     OW 1672   0.671   2.984   1.815 -0.6624  0.4380  0.5822
  558SOL    HW1 1673   0.720   2.982   1.905  0.7485 -2.7198 -0.5176
  558SOL    HW2 1674   0.654   3.078   1.783  0.6912 -1.3499  3.0536
  559SOL     OW 1675   2.350   2.740   0.925 -0.3390 -0.5596  0.2939
  559SOL    HW1 1676   2.388   2.713   0.832 -0.4937 -2.1992 -1.0928
  559SOL    HW2 1677   2.275   2.674   0.949  1.5423  3.3429  1.9076
  560SOL     OW 1678   1.830   2.361   0.556 -0.9158  0.1928  0.3574
  560SOL    HW1 1679   1.830   2.321   0.650 -0.5227 -1.3147 -1.4128
  560SOL    HW2 1680   1.897   2.322   0.493 -4.4306  1.3578  1.3067
  561SOL     OW 1681   0.960   0.410   0.125  0.5380  0.2672 -0.6287
  561SOL    HW1 1682   1.046   0.464   0.104  0.7687 -2.2222  0.2573
  561SOL    HW2 1683   0.923   0.431   0.220  0.3733  0.8358 -0.1425
  562SOL     OW 1684   0.646   0.560   2.385  0.0241 -0.2218 -0.3939
  562SOL    HW1 1685   0.624   0.481   2.443  3.0918  1.3046  3.1751
  562SOL    HW2 1686   0.745   0.572   2.355  3.3147  4.8239  0.5659
  563SOL     OW 1687   1.751   1.641   2.880 -0.4757 -0.7870  0.0994
  563SOL    HW1 1688   1.681   1.712   2.886  0.4214 -1.0222  0.0272
  563SOL    HW2 1689   1.753   1.574   2.959 -0.8354 -3.1860  2.1975
  564SOL     OW 1690   2.408   1.188   1.322  0.3266 -0.0545  0.3462
  564SOL    HW1 1691   2.438   1.232   1.410 -0.6930  1.4722 -1.0437
  564SOL    HW2 1692   2.489   1.161   1.268 -1.2884  1.0506  1.2515
  565SOL     OW 1693   0.866   0.473   2.744 -0.5974 -0.1294  0.0409
  565SOL    HW1 1694   0.814   0.556   2.718  0.8424  0.1502  0.0899
  565SOL    HW2 1695   0.860   0.457   2.841  2.2561 -0.9105 -1.3466
  566SOL     OW 1696   1.946   0.273   2.657  0.3798 -0.1689 -0.1533
  566SOL    HW1 1697   1.855   0.229   2.638 -1.3140  1.4441  1.8273
  566SOL    HW2 1698   1.979   0.221   2.738 -1.5531  0.2783 -0.1236
  567SOL     OW 1699   2.020   1.729   0.427 -0.1952  0.3151  0.1347
  567SOL    HW1 1700   2.079   1.724   0.341  2.1077  0.0568  1.9702
  567SOL    HW2 1701   1.991   1.636   0.450 -0.5978 -0.4121  1.0196
  568SOL     OW 1702   1.600   1.874   0.241  0.0421  0.1270  0.0979
  568SOL    HW1 1703   1.660   1.935   0.186 -0.3934 -0.1179 -0.1460
  568SOL    HW2 1704   1.506   1.882   0.199  1.5242 -0.8078 -2.7971
  569SOL     OW 1705   2.266   1.063   3.052 -0.0529  0.2200  0.2566
  569SOL    HW1 1706   2.245   1.112   2.965 -1.1143  0.8355 -0.6013
  569SOL    HW2 1707   2.345   0.999   3.041  0.4894  0.2088 -1.0093
  570SOL     OW 1708   0.335   2.611   1.670 -0.1926 -0.0325 -0.3333
  570SOL    HW1 1709   0.378   2.693   1.715  1.9726 -0.7721  0.1054
  570SOL    HW2 1710   0.402   2.536   1.677 -1.0138 -2.6006  2.3485
  571SOL     OW 1711   0.545   1.059   1.881 -0.5046 -0.0391 -0.0706
  571SOL    HW1 1712   0.488   1.111   1.950 -6.1391  1.8798  2.0662
  571SOL    HW2 1713   0.608   0.992   1.926  0.8961 -2.6956  0.3122
  572SOL     OW 1714   1.000   1.520   0.616 -0.3344  0.2886  0.4267
  572SOL    HW1 1715   0.961   1.526   0.527  2.4551 -0.0571 -1.2764
  572SOL    HW2 1716   1.096   1.553   0.617  0.0325 -0.7857 -0.4566
  573SOL     OW 1717   1.608   1.886   2.962  0.6242 -0.1817 -0.2458
  573SOL    HW1 1718   1.507   1.894   2.974  0.1014 -0.3596  0.4050
  573SOL    HW2 1719   1.658   1.955   3.019 -1.5626 -1.0971  0.6528
  574SOL     OW 1720   0.861   0.317   1.010 -0.2205  0.3317  0.3738
  574SOL    HW1 1721   0.790   0.372   1.061  1.8710  2.1758  0.7704
  574SOL    HW2 1722   0.827   0.256   0.935  1.3408  0.3513 -1.8121
  575SOL     OW 1723   0.272   1.161   1.487 -0.1221  0.0912 -0.2490
  575SOL    HW1 1724   0.286   1.098   1.571  1.3506 -1.9437  2.0883
  575SOL    HW2 1725   0.358   1.196   1.448  0.0725  1.2189  1.0806
  576SOL     OW 1726   2.075   2.650   1.480 -0.3852 -0.0652  0.1057
  576SOL    HW1 1727   2.112   2.744   1.502 -0.8503 -1.1793 -0.6706
  576SOL    HW2 1728   2.072   2.650   1.379  1.4273 -1.0102  1.4497
  577SOL     OW 1729   1.029   1.146   1.975  0.1188 -0.0917  0.2834
  577SOL    HW1 1730   1.132   1.163   1.978 -2.8263 -0.4767  1.3078
  577SOL    HW2 1731   0.993   1.107   2.062 -0.9767 -1.0888  0.6285
  578SOL     OW 1732   1.797   0.701   2.708  0.0652  0.4381 -0.0370
  578SOL    HW1 1733   1.794   0.617   2.647 -0.2331  1.5131 -0.6795
  578SOL    HW2 1734   1.707   0.757   2.712 -0.4033 -0.9364  0.2857
  579SOL     OW 1735   1.989   2.503   1.697 -0.0706 -0.1617  0.2521
  579SOL    HW1 1736   2.009   2.404   1.714  1.4139 -2.1896  0.1014
  579SOL    HW2 1737   1.999   2.523   1.599 -2.9957  1.3034 -0.4292
  580SOL     OW 1738   2.001   1.190   2.389 -0.0641 -0.2446 -0.0909
  580SOL    HW1 1739   1.914   1.228   2.413  1.9534  0.6848  1.7145
  580SOL    HW2 1740   2.061   1.268   2.366 -0.0499  0.0811 -0.5289
  581SOL     OW 1741   1.416   1.286   2.552 -0.2504  0.6147 -0.2553
  581SOL    HW1 1742   1.504   1.283   2.603  1.2111  2.7341  0.5177
  581SOL    HW2 1743   1.340   1.245   2.603  0.0195 -0.5142 -3.1375
  582SOL     OW 1744   0.918   1.667   1.779  0.0043 -0.2610 -0.5401
  582SOL    HW1 1745   0.943   1.578   1.741  1.1190  1.0346 -0.6134
  582SOL    HW2 1746   0.990   1.697   1.842 -2.8748 -0.4309  1.7919
  583SOL     OW 1747   1.757   1.219   1.553 -0.4305 -0.2536  0.1301
  583SOL    HW1 1748   1.680   1.152   1.557  2.2424  0.6452  1.8285
  583SOL    HW2 1749   1.798   1.221   1.646 -0.6290  1.7801  1.2925
  584SOL     OW 1750   2.011   2.570   0.380 -0.0594 -0.0352 -0.2674
  584SOL    HW1 1751   1.924   2.607   0.419  1.0517 -1.5873 -0.9916
  584SOL    HW2 1752   1.993   2.516   0.297 -0.2072  0.6522  1.4349
  585SOL     OW 1753   2.140   2.895   2.668 -0.3581 -0.2591 -0.3115
  585SOL    HW1 1754   2.048   2.928   2.644  0.5826 -0.5097 -2.4696
  585SOL    HW2 1755   2.138   2.799   2.710 -2.4496 -3.4861  1.8924
  586SOL     OW 1756   2.878   2.375   1.182 -0.5304  0.5258 -0.0860
  586SOL    HW1 1757   2.858   2.472   1.152 -1.8855 -0.8189  1.1827
  586SOL    HW2 1758   2.882   2.307   1.104  0.3772 -1.4383  1.8862
  587SOL     OW 1759   1.331   1.899   0.151  0.3468  0.2505  0.1544
  587SOL    HW1 1760   1.296   1.992   0.134 -0.5428  0.0935  1.9931
  587SOL    HW2 1761   1.312   1.832   0.071  0.5319 -3.8878 -4.4686
  588SOL     OW 1762   0.422   0.530   0.970 -0.0801 -0.0727 -0.6129
  588SOL    HW1 1763   0.443   0.450   1.030  1.3115 -2.0797 -1.7222
  588SOL    HW2 1764   0.355   0.506   0.901  1.9025 -0.9819 -1.6275
  589SOL     OW 1765   0.996   0.124   0.523  0.1868 -0.1194  0.4508
  589SOL    HW1 1766   0.925   0.198   0.518  1.2473 -0.3124 -0.8624
  589SOL    HW2 1767   1.047   0.112   0.438  0.1043 -0.9272  2.7744
  590SOL     OW 1768   1.502   0.425   2.915 -0.3620 -0.1835  0.0354
  590SOL    HW1 1769   1.421   0.480   2.894  0.6891  0.7406 -0.5560
  590SOL    HW2 1770   1.583   0.486   2.915  1.5126  2.0842 -0.4460
  591SOL     OW 1771   2.802   1.996   2.242 -0.5475  0.0487  0.0787
  591SOL    HW1 1772   2.790   2.086   2.291 -0.6371  1.3646 -2.6124
  591SOL    HW2 1773   2.868   2.013   2.167 -0.1443  0.0882  2.5970
  592SOL     OW 1774   2.195   1.563   2.145  0.5316  0.4754  0.6366
  592SOL    HW1 1775   2.164   1.477   2.097 -2.7330 -2.1845 -1.5771
  592SOL    HW2 1776   2.240   1.625   2.077  2.0318  1.4313 -1.2606
  593SOL     OW 1777   1.479   1.207   1.763 -0.5380 -0.1811  0.0455
  593SOL    HW1 1778   1.497   1.148   1.680  0.5794  0.2912  0.0387
  593SOL    HW2 1779   1.565   1.259   1.797  1.7321  0.3408  2.0401
  594SOL     OW 1780   2.647   1.083   2.944 -0.2195  0.0883  0.1381
  594SOL    HW1 1781   2.644   1.164   3.006  0.4717  0.0448  1.1801
  594SOL    HW2 1782   2.744   1.066   2.921 -4.3720 -0.7388  1.4682
  595SOL     OW 1783   0.592   0.694   0.603  0.2581 -0.0635 -0.2087
  595SOL    HW1 1784   0.542   0.776   0.579 -1.7373  1.4281 -1.1352
  595SOL    HW2 1785   0.665   0.693   0.675 -0.5050 -1.2459  1.3980
  596SOL     OW 1786   0.041   1.159   1.354  0.2611  0.0282  0.4566
  596SOL    HW1 1787   3.070   1.242   1.353 -1.4425 -1.1621  1.3444
  596SOL    HW2 1788   0.113   1.170   1.425 -2.4259  0.1555  0.6392
  597SOL     OW 1789   1.128   1.937   1.014 -0.3308 -0.5062 -0.2235
  597SOL    HW1 1790   1.129   1.837   1.030  0.4054  1.4590 -0.8056
  597SOL    HW2 1791   1.144   1.982   1.104 -2.0306  1.8545 -2.3795
  598SOL     OW 1792   0.338   3.083   1.753  0.2477  0.2202  0.3502
  598SOL    HW1 1793   0.384   0.088   1.743  0.0294  0.1852  1.1023
  598SOL    HW2 1794   0.258   3.081   1.696  3.5262 -0.5697  2.3232
  599SOL     OW 1795   0.229   1.606   2.848  0.4611  0.0246  0.5875
  599SOL    HW1 1796   0.260   1.542   2.775 -0.2942  0.1305 -0.9746
  599SOL    HW2 1797   0.317   1.652   2.880  2.8125 -2.4581 -0.0575
  600SOL     OW 1798   0.427   1.047   3.047 -0.0974 -0.1218  0.3052
  600SOL    HW1 1799   0.401   1.089   2.953 -2.4750 -1.5956 -1.3592
  600SOL    HW2 1800   0.465   0.954   3.033  0.7084  1.2956  1.5111
  601SOL     OW 1801   0.598   0.977   1.222  0.3942 -0.0663 -0.1942
  601SOL    HW1 1802   0.698   0.972   1.208 -0.1669 -0.2669  0.6738
  601SOL    HW2 1803   0.547   0.905   1.176 -0.0239  4.0340 -0.8681
  602SOL     OW 1804   0.978   0.152   0.108 -0.2819  0.4791 -0.4227
  602SOL    HW1 1805   0.972   0.253   0.098 -1.0145 -2.1750 -3.3108
  602SOL    HW2 1806   0.885   0.126   0.130  3.5822  0.1609  0.4960
  603SOL     OW 1807   1.436   2.336   2.245  0.1975  0.1491 -0.8002
  603SOL    HW1 1808   1.526   2.339   2.201 -1.2274 -0.7042  0.3155
  603SOL    HW2 1809   1.438   2.278   2.329 -3.0305 -0.3762 -0.6207
  604SOL     OW 1810   0.542   2.842   2.734 -0.2234  0.0812 -0.4843
  604SOL    HW1 1811   0.524   2.803   2.639  0.2349 -1.2952 -0.6377
  604SOL    HW2 1812   0.635   2.813   2.770 -2.8368 -0.5315  0.2451
  605SOL     OW 1813   2.472   1.273   1.575  0.1859  0.4694 -0.0340
  605SOL    HW1 1814   2.565   1.257   1.621  2.1415 -1.8575  2.1210
  605SOL    HW2 1815   2.404   1.297   1.643 -0.6269 -2.3630  0.3496
  606SOL     OW 1816   0.998   1.358   2.832  0.9115  0.2701 -0.7759
  606SOL    HW1 1817   0.981   1.351   2.933 -0.1436  0.2002  2.9864
  606SOL    HW2 1818   0.932   1.418   2.784 -0.0532  0.1046 -2.4784
  607SOL     OW 1819   0.827   0.343   0.557  0.3939  0.0916  0.4216
  607SOL    HW1 1820   0.725   0.315   0.560 -0.8043 -2.8399 -1.8697
  607SOL    HW2 1821   0.837   0.421   0.625 -0.1287 -0.8904  0.4371
  608SOL     OW 1822   2.755   1.441   1.503  0.0295  0.2476  0.1677
  608SOL    HW1 1823   2.741   1.526   1.560 -1.5604  3.6910 -1.2161
  608SOL    HW2 1824   2.674   1.434   1.442  0.5034 -0.8648 -0.0194
  609SOL     OW 1825   2.370   0.563   0.758  0.1617  0.4325 -0.3333
  609SOL    HW1 1826   2.434   0.540   0.833 -0.5720  1.9259 -1.8676
  609SOL    HW2 1827   2.382   0.652   0.713  0.0933  0.2538  2.3984
  610SOL     OW 1828   0.287   2.555   1.383 -0.4762 -0.1390  0.0455
  610SOL    HW1 1829   0.308   2.562   1.480  1.1073 -1.0619 -2.3824
  610SOL    HW2 1830   0.366   2.580   1.322 -2.5855  2.4237 -0.3296
  611SOL     OW 1831   1.578   1.606   0.254 -0.1966  0.3164  0.3342
  611SOL    HW1 1832   1.563   1.574   0.350  2.3120 -0.2908  1.3995
  611SOL    HW2 1833   1.608   1.706   0.261  0.1393  0.1485 -0.3144
  612SOL     OW 1834   0.672   0.162   1.746  0.5925 -0.1576 -0.3885
  612SOL    HW1 1835   0.733   0.243   1.756  0.9496  1.9707  0.3054
  612SOL    HW2 1836   0.567   0.193   1.741 -3.6933  3.4742  2.0272
  613SOL     OW 1837   0.527   2.338   0.476 -0.2419 -0.4425 -0.4278
  613SOL    HW1 1838   0.553   2.433   0.452  0.8923  1.3738  0.4351
  613SOL    HW2 1839   0.437   2.339   0.522  2.7923  0.5453 -1.1692
  614SOL     OW 1840   2.120   0.039   2.099 -0.0084  0.1181 -0.3493
  614SOL    HW1 1841   2.154   0.131   2.095 -3.1072 -3.2599  2.5508
  614SOL    HW2 1842   2.177   3.065   2.039  1.3758  0.2748  0.3467
  615SOL     OW 1843   1.250   1.621   0.581 -0.3246 -0.0381  0.4804
  615SOL    HW1 1844   1.257   1.636   0.483 -0.0447 -0.3260 -0.9561
  615SOL    HW2 1845   1.256   1.714   0.623 -1.4802 -0.7360  0.1430
  616SOL     OW 1846   1.528   1.543   0.514  0.2624  0.1346 -0.2179
  616SOL    HW1 1847   1.436   1.505   0.500  3.7102 -0.5406 -0.5941
  616SOL    HW2 1848   1.529   1.610   0.584 -0.8976 -0.9125 -1.4416
  617SOL     OW 1849   1.308   1.098   2.926 -0.1741 -0.1869 -0.5002
  617SOL    HW1 1850   1.390   1.041   2.948 -0.2089 -0.8985  0.1504
  617SOL    HW2 1851   1.286   1.152   3.008 -0.2874  1.2944 -0.6191
  618SOL     OW 1852   0.732   0.374   1.963  0.6441  0.1759  0.2264
  618SOL    HW1 1853   0.775   0.444   2.021  1.0718 -1.5136 -0.9751
  618SOL    HW2 1854   0.710   0.298   2.024 -1.6987  0.9177  3.1313
  619SOL     OW 1855   3.000   1.390   1.395  0.4747 -0.5801 -0.1474
  619SOL    HW1 1856   2.911   1.394   1.442 -2.5358  0.7458 -0.9274
  619SOL    HW2 1857   3.066   1.463   1.425 -0.1565 -0.2219  1.0810
  620SOL     OW 1858   2.563   0.188   2.265 -0.1454  0.5722 -0.1202
  620SOL    HW1 1859   2.505   0.263   2.303 -1.5331  0.1847 -4.7531
  620SOL    HW2 1860   2.644   0.225   2.217 -3.1010 -0.6672  2.6676
  621SOL     OW 1861   2.273   2.028   2.703 -0.0798 -0.3953 -0.0558
  621SOL    HW1 1862   2.212   2.075   2.770 -0.6731  0.5215 -2.4498
  621SOL    HW2 1863   2.222   2.022   2.618 -1.9528  0.0421 -0.2026
  622SOL     OW 1864   1.062   0.607   2.957  0.1703  0.1509  0.2217
  622SOL    HW1 1865   0.982   0.657   3.004 -3.3260 -0.1647  0.4794
  622SOL    HW2 1866   1.049   0.508   2.932 -1.7061 -0.9065  0.2473
  623SOL     OW 1867   0.823   1.326   2.011 -0.5210  0.2903 -0.1755
  623SOL    HW1 1868   0.892   1.251   1.994 -0.1118 -0.4160 -0.9116
  623SOL    HW2 1869   0.784   1.348   1.923  1.7319 -0.3975  2.8212
  624SOL     OW 1870   2.880   0.222   0.539 -0.4765 -0.2651 -0.0937
  624SOL    HW1 1871   2.915   0.297   0.482 -2.4198  0.0987 -0.5008
  624SOL    HW2 1872   2.931   0.188   0.617 -0.6397  0.6540  0.0386
  625SOL     OW 1873   0.958   2.388   0.721 -0.2697 -0.0216 -0.3142
  625SOL    HW1 1874   0.928   2.466   0.664 -0.8134  0.5048  1.6405
  625SOL    HW2 1875   0.895   2.311   0.694  0.2506 -0.6746 -1.8148
  626SOL     OW 1876   2.384   0.886   2.344  0.1630 -0.4854  0.0210
  626SOL    HW1 1877   2.370   0.849   2.438 -0.8768  1.9570 -0.8137
  626SOL    HW2 1878   2.350   0.982   2.335 -2.1751  0.9358 -0.6854
  627SOL     OW 1879   1.313   2.037   2.727  0.1421  0.1602 -0.5986
  627SOL    HW1 1880   1.266   2.048   2.638 -1.0985 -0.3100  0.3183
  627SOL    HW2 1881   1.342   1.937   2.734  1.1602  0.2157  0.7983
  628SOL     OW 1882   2.803   2.861   2.578 -0.0542  0.0482  0.1690
  628SOL    HW1 1883   2.731   2.808   2.529  1.5270  1.3489 -2.7859
  628SOL    HW2 1884   2.757   2.927   2.639  0.7368  0.8423  1.7532
  629SOL     OW 1885   1.313   2.733   2.485 -0.4031 -0.1618 -0.5951
  629SOL    HW1 1886   1.350   2.763   2.397 -0.5436 -0.2770 -0.1966
  629SOL    HW2 1887   1.382   2.670   2.525 -0.4088  0.7408 -1.0133
  630SOL     OW 1888   0.818   0.129   2.304  0.1726  0.0646  0.2434
  630SOL    HW1 1889   0.841   0.171   2.392 -0.9762  1.0703 -0.9678
  630SOL    HW2 1890   0.801   0.032   2.321 -0.4456  0.2973 -2.2173
  631SOL     OW 1891   2.001   1.060   0.629  0.2658 -0.2469 -0.4264
  631SOL    HW1 1892   1.970   1.121   0.708 -2.5864 -1.1550  1.5049
  631SOL    HW2 1893   2.009   1.108   0.541  0.7589 -0.1700 -3.4469
  632SOL     OW 1894   2.503   0.107   1.821  0.4242  0.0496  0.3170
  632SOL    HW1 1895   2.458   0.198   1.830  0.7888  0.2733 -2.4606
  632SOL    HW2 1896   2.585   0.099   1.882  0.5850  0.1775  2.2305
  633SOL     OW 1897   1.206   1.497   0.322  0.2794  0.0355 -0.3992
  633SOL    HW1 1898   1.279   1.482   0.254  0.1633  0.3683 -1.8736
  633SOL    HW2 1899   1.139   1.558   0.285 -2.3336 -1.2103  1.8162
  634SOL     OW 1900   2.673   2.770   1.883 -0.6496 -0.1033  0.0671
  634SOL    HW1 1901   2.748   2.838   1.870  1.9695  1.0160 -0.7504
  634SOL    HW2 1902   2.706   2.695   1.949  1.7837 -0.2244 -0.3128
  635SOL     OW 1903   1.579   0.486   0.448  0.4021  0.0144  0.1009
  635SOL    HW1 1904   1.532   0.417   0.385 -3.3944 -1.5925 -1.9863
  635SOL    HW2 1905   1.662   0.449   0.492 -0.0299 -0.6176  0.7796
  636SOL     OW 1906   0.637   1.238   3.016  0.7306  0.5823 -0.3548
  636SOL    HW1 1907   0.548   1.193   3.026 -3.4025  1.1296  0.5544
  636SOL    HW2 1908   0.626   1.328   2.971  0.1267 -3.5893  1.6683
  637SOL     OW 1909   2.592   2.049   0.113  0.4687 -0.2084 -0.4795
  637SOL    HW1 1910   2.632   1.961   0.141  0.1387  1.0763  0.2532
  637SOL    HW2 1911   2.661   2.104   0.062 -1.0973 -4.2343  1.1258
  638SOL     OW 1912   1.141   2.540   2.578  0.2587 -0.1955 -0.0472
  638SOL    HW1 1913   1.204   2.607   2.540  1.7505 -0.0218  1.0093
  638SOL    HW2 1914   1.176   2.502   2.666 -1.0547  1.0095 -1.9145
  639SOL     OW 1915   1.436   1.863   0.980 -0.3595  0.5592  0.2722
  639SOL    HW1 1916   1.414   1.927   1.050 -2.2060 -0.6673  0.1076
  639SOL    HW2 1917   1.477   1.914   0.904  1.1864 -3.0906  0.2981
  640SOL     OW 1918   2.085   2.942   0.298 -0.0333 -0.1780 -0.4267
  640SOL    HW1 1919   2.046   2.989   0.379 -0.3299  0.8883 -2.2295
  640SOL    HW2 1920   2.170   2.981   0.260 -2.9608 -1.7561  1.3955
  641SOL     OW 1921   2.761   0.405   2.973  0.3482 -0.3264 -0.1506
  641SOL    HW1 1922   2.724   0.479   3.035 -0.1696  2.2287  0.5210
  641SOL    HW2 1923   2.714   0.318   3.004  0.4077  1.0979 -1.1626
  642SOL     OW 1924   0.495   0.734   1.117 -0.1986 -0.0009  0.1425
  642SOL    HW1 1925   0.463   0.725   1.211 -3.0640 -1.7286 -0.9982
  642SOL    HW2 1926   0.474   0.645   1.066 -1.4127  1.4301  1.0954
  643SOL     OW 1927   0.666   1.461   2.360  0.4037 -0.8381 -0.1333
  643SOL    HW1 1928   0.737   1.394   2.349 -1.4249  0.4244  1.6837
  643SOL    HW2 1929   0.576   1.416   2.358  1.6444  1.3302  1.4292
  644SOL     OW 1930   1.923   1.994   0.840  0.3569 -0.2707 -0.0329
  644SOL    HW1 1931   1.920   1.909   0.785  1.9471  2.2501  3.0876
  644SOL    HW2 1932   2.005   1.984   0.902 -1.3106 -1.5559 -0.0130
  645SOL     OW 1933   1.656   2.010   0.728  0.1497 -0.3274 -0.3565
  645SOL    HW1 1934   1.622   2.073   0.802 -1.1749 -1.8613 -0.6589
  645SOL    HW2 1935   1.758   2.012   0.724 -0.7608 -1.7050  0.4068
  646SOL     OW 1936   0.080   2.130   2.847  0.3016 -0.2460 -0.8843
  646SOL    HW1 1937   0.037   2.039   2.852 -0.8626 -0.9730 -0.6109
  646SOL    HW2 1938   0.043   2.169   2.758 -2.9472  1.3665 -0.0713
  647SOL     OW 1939   1.190   3.086   1.308 -0.1713 -0.7240  0.9329
  647SOL    HW1 1940   1.118   0.065   1.271 -1.4463  1.6670 -1.0316
  647SOL    HW2 1941   1.286   0.025   1.276  3.2250  1.6651 -0.4503
  648SOL     OW 1942   1.117   0.351   0.876  0.0170  0.2398 -0.3981
  648SOL    HW1 1943   1.019   0.344   0.905 -2.1983 -0.2912  0.2298
  648SOL    HW2 1944   1.170   0.429   0.920  2.0052  0.9308  0.4733
  649SOL     OW 1945   1.311   1.954   0.421  0.2765  0.2632 -0.1748
  649SOL    HW1 1946   1.307   1.910   0.327  3.1273 -2.9914  0.7592
  649SOL    HW2 1947   1.407   1.988   0.434 -1.9739  2.1560 -0.9262
  650SOL     OW 1948   2.261   1.663   1.682 -0.2478  0.0257 -0.7467
  650SOL    HW1 1949   2.287   1.759   1.659  0.4195 -0.6409 -1.6735
  650SOL    HW2 1950   2.166   1.666   1.724 -2.0887  1.9586  1.4680
  651SOL     OW 1951   1.740   2.652   2.818  0.0342 -0.4457 -0.0998
  651SOL    HW1 1952   1.734   2.752   2.844 -0.5414 -0.3635  0.9348
  651SOL    HW2 1953   1.670   2.631   2.747  2.5177  0.2862 -1.0968
  652SOL     OW 1954   2.693   1.509   0.299  0.3977  0.0462  0.3115
  652SOL    HW1 1955   2.631   1.555   0.365  1.6066  0.2553  0.4829
  652SOL    HW2 1956   2.764   1.454   0.350 -1.5689 -0.4867  1.7071
  653SOL     OW 1957   2.955   0.158   1.113 -0.2212  0.0432  0.0661
  653SOL    HW1 1958   2.936   0.260   1.111 -1.3021 -2.8852  1.7114
  653SOL    HW2 1959   2.870   0.110   1.080 -0.3337  0.9185  0.6016
  654SOL     OW 1960   2.853   2.948   1.806 -0.1063 -0.0571  0.3113
  654SOL    HW1 1961   2.839   2.950   1.700 -2.4127  3.2595 -3.2964
  654SOL    HW2 1962   2.952   2.957   1.829 -2.0410 -0.4808 -0.0184
  655SOL     OW 1963   0.360   2.461   0.773 -0.8160 -0.2440  0.2935
  655SOL    HW1 1964   0.389   2.528   0.841 -1.5135 -0.6747 -1.1429
  655SOL    HW2 1965   0.311   2.509   0.702  2.8633  1.0911  3.6763
  656SOL     OW 1966   2.904   0.073   2.242  0.0720 -0.2776  0.1321
  656SOL    HW1 1967   2.930   0.050   2.339  2.4366 -1.4834 -2.4742
  656SOL    HW2 1968   2.822   0.023   2.218  1.4670  2.0647  4.9574
  657SOL     OW 1969   0.099   1.291   2.951 -0.7126 -0.3680  0.4084
  657SOL    HW1 1970   0.031   1.305   2.873 -0.8024  0.2216  1.8396
  657SOL    HW2 1971   0.087   1.368   3.017 -0.5293  0.7485 -1.4117
  658SOL     OW 1972   2.611   1.837   1.110  0.5253 -0.2211 -0.6009
  658SOL    HW1 1973   2.672   1.897   1.162 -2.2327 -0.2179 -0.4190
  658SOL    HW2 1974   2.552   1.774   1.170  1.0191 -1.8158 -0.0671
  659SOL     OW 1975   1.588   2.870   0.064  0.5223 -0.6291  0.0632
  659SOL    HW1 1976   1.619   2.927   0.141 -0.8566  0.8502 -2.4993
  659SOL    HW2 1977   1.656   2.877   3.075 -0.1899 -2.1987 -0.5034
  660SOL     OW 1978   1.536   1.153   0.236 -0.4553  0.6125 -0.5166
  660SOL    HW1 1979   1.549   1.068   0.174 -0.7955 -1.6910  1.1125
  660SOL    HW2 1980   1.439   1.162   0.253  3.5846 -0.0435 -2.8287
  661SOL     OW 1981   0.160   2.152   1.143 -0.1555  0.2386 -0.1732
  661SOL    HW1 1982   0.085   2.087   1.172 -3.0525  0.0204  0.9837
  661SOL    HW2 1983   0.186   2.208   1.223  0.6293 -0.8964 -3.3588
  662SOL     OW 1984   0.253   0.675   0.100  0.2466 -0.3966 -1.0608
  662SOL    HW1 1985   0.205   0.642   0.020  1.8906  2.3995  3.5721
  662SOL    HW2 1986   0.302   0.595   0.147 -0.3767 -0.6726  2.2294
  663SOL     OW 1987   1.962   1.520   1.228 -0.0493 -0.0167 -0.0228
  663SOL    HW1 1988   1.955   1.427   1.264  1.9874  1.6669  1.0887
  663SOL    HW2 1989   1.957   1.524   1.126  3.1905  0.9736 -0.6548
  664SOL     OW 1990   1.030   1.434   1.283 -1.0120  0.4474  0.3191
  664SOL    HW1 1991   1.138   1.429   1.287  1.4001  1.7692  0.6081
  664SOL    HW2 1992   0.990   1.489   1.358 -1.4341  0.0540  2.4946
  665SOL     OW 1993   1.993   2.583   2.306 -0.1012 -0.1997  0.5301
  665SOL    HW1 1994   1.957   2.653   2.240 -0.8611 -0.4646 -1.0342
  665SOL    HW2 1995   1.945   2.495   2.291  1.1381  0.4638 -2.3347
  666SOL     OW 1996   2.830   2.846   2.937  0.1911 -0.0228 -0.1661
  666SOL    HW1 1997   2.887   2.803   2.864 -2.1118  0.3571 -1.6274
  666SOL    HW2 1998   2.873   2.939   2.958  1.1125 -0.5165  0.8181
  667SOL     OW 1999   2.454   1.029   1.959 -0.1678 -0.5431  0.1089
  667SOL    HW1 2000   2.440   0.952   1.896  1.0622  0.9609 -0.1591
  667SOL    HW2 2001   2.365   1.069   1.988  2.2524 -1.5921  0.5891
  668SOL     OW 2002   0.506   0.882   2.463 -0.1669 -0.1918  0.0883
  668SOL    HW1 2003   0.429   0.871   2.526  0.3020  1.9116 -0.9211
  668SOL    HW2 2004   0.471   0.855   2.375 -0.4681 -0.5043  0.2344
  669SOL     OW 2005   2.102   2.253   2.328 -0.0004 -0.4609  0.3152
  669SOL    HW1 2006   2.176   2.251   2.261 -2.1251 -0.2769  1.4980
  669SOL    HW2 2007   2.126   2.318   2.405 -0.4635 -0.4906 -2.0287
  670SOL     OW 2008   2.191   1.321   2.020 -0.4088  0.2095 -0.1502
  670SOL    HW1 2009   2.232   1.347   1.931  0.4235 -2.2478 -0.6511
  670SOL    HW2 2010   2.162   1.221   2.012  3.6241  1.2327  1.1571
  671SOL     OW 2011   2.851   1.343   0.423  0.0748  0.3262  0.2248
  671SOL    HW1 2012   2.894   1.250   0.411 -1.4246 -1.3420  2.6729
  671SOL    HW2 2013   2.857   1.363   0.523  1.7778 -2.7986 -0.0209
  672SOL     OW 2014   2.415   0.571   2.311  0.3670 -0.4331  0.0919
  672SOL    HW1 2015   2.336   0.522   2.359 -1.0506  0.6978  0.4828
  672SOL    HW2 2016   2.396   0.663   2.275 -2.7056  2.8911 -0.1420
  673SOL     OW 2017   2.738   0.045   1.967 -0.1646  0.2496  0.4739
  673SOL    HW1 2018   2.787   3.063   1.906  1.1994 -1.4805 -2.7123
  673SOL    HW2 2019   2.723   3.088   2.058  0.8033  0.5077 -1.3317
  674SOL     OW 2020   1.692   1.887   1.552 -0.1075 -0.1556 -0.0962
  674SOL    HW1 2021   1.785   1.851   1.538  0.4500  1.2499 -0.8070
  674SOL    HW2 2022   1.672   1.962   1.486  0.6693 -0.3520  1.2651
  675SOL     OW 2023   0.874   0.533   0.734  0.1152  0.5357  0.0006
  675SOL    HW1 2024   0.809   0.558   0.808  2.2021 -0.1694  1.8931
  675SOL    HW2 2025   0.929   0.617   0.727 -0.7988  0.5806 -0.7912
  676SOL     OW 2026   1.583   0.805   0.827 -0.0147 -0.1048 -0.0321
  676SOL    HW1 2027   1.510   0.868   0.848 -0.5640 -1.9847 -2.1398
  676SOL    HW2 2028   1.567   0.717   0.875 -0.4439  0.7540 -0.3093
  677SOL     OW 2029   2.418   1.299   2.164 -0.2491  0.1251 -0.3848
  677SOL    HW1 2030   2.334   1.320   2.103 -2.5658  0.7548 -0.9730
  677SOL    HW2 2031   2.386   1.266   2.259 -2.3306 -2.7587  1.5348
  678SOL     OW 2032   2.817   1.675   1.007  0.4078  0.3863 -0.6017
  678SOL    HW1 2033   2.824   1.585   1.056  1.3044 -1.0779 -1.8200
  678SOL    HW2 2034   2.731   1.726   1.026 -3.5511 -0.9361 -0.4026
  679SOL     OW 2035   2.207   2.652   0.090  0.1752 -0.5239  0.5309
  679SOL    HW1 2036   2.121   2.704   0.059 -0.9540  1.1241 -0.5607
  679SOL    HW2 2037   2.265   2.626   0.006  2.4318  1.3147 -1.7421
  680SOL     OW 2038   0.251   2.121   2.065 -0.7217 -0.1756 -0.1026
  680SOL    HW1 2039   0.199   2.034   2.058  1.5657  0.2659  0.9315
  680SOL    HW2 2040   0.344   2.106   2.031 -2.2204  0.6314  0.5621
  681SOL     OW 2041   0.517   1.199   1.351 -0.5386  0.1063  0.3137
  681SOL    HW1 2042   0.548   1.114   1.307  2.4490  1.2010 -0.9392
  681SOL    HW2 2043   0.597   1.253   1.387  0.0240  1.3497  1.2661
  682SOL     OW 2044   1.456   2.519   0.845 -0.1261 -0.2218 -0.0634
  682SOL    HW1 2045   1.452   2.492   0.749 -0.3118 -1.7437  0.3841
  682SOL    HW2 2046   1.374   2.576   0.875 -1.5992  1.6866 -1.3350
  683SOL     OW 2047   2.586   1.404   0.649  0.1268 -0.1447 -0.1034
  683SOL    HW1 2048   2.554   1.312   0.629  1.7705  0.4283 -0.3083
  683SOL    HW2 2049   2.688   1.400   0.669  0.2653  0.6037  1.1949
  684SOL     OW 2050   0.692   1.934   2.026 -0.4738 -0.6307 -0.0639
  684SOL    HW1 2051   0.750   1.941   2.111 -0.8822  2.9700  0.6046
  684SOL    HW2 2052   0.625   2.012   2.015 -1.7299 -0.0608 -1.0227
  685SOL     OW 2053   1.768   1.540   0.044  0.4891 -0.4111 -0.1057
  685SOL    HW1 2054   1.859   1.550   0.081 -1.3584 -0.4710  1.3884
  685SOL    HW2 2055   1.695   1.541   0.119 -1.3979  0.9540  0.3005
  686SOL     OW 2056   0.292   0.899   0.968  0.2117  0.3831  0.4169
  686SOL    HW1 2057   0.352   0.967   0.923  1.2115  0.2151  1.1751
  686SOL    HW2 2058   0.360   0.835   1.009  0.0356  2.1086  1.0942
  687SOL     OW 2059   0.958   2.261   2.917  0.4079  0.1711  0.7408
  687SOL    HW1 2060   0.951   2.258   3.016  2.0278 -0.8395 -2.7830
  687SOL    HW2 2061   0.872   2.276   2.869  1.1284 -1.8283 -0.5479
  688SOL     OW 2062   2.332   1.702   1.958  0.7078  0.5588 -0.6120
  688SOL    HW1 2063   2.417   1.661   1.986  3.5899  1.2092  2.1205
  688SOL    HW2 2064   2.323   1.694   1.854  0.5616 -0.7394 -0.1092
  689SOL     OW 2065   1.971   0.650   2.089  0.2601  0.3392 -0.5918
  689SOL    HW1 2066   2.068   0.682   2.104  0.0047 -3.0440 -1.8229
  689SOL    HW2 2067   1.970   0.589   2.008 -0.0418 -1.7685  1.3496
  690SOL     OW 2068   2.214   1.012   1.367 -0.7805 -0.0432  0.7675
  690SOL    HW1 2069   2.158   1.037   1.447  0.5438 -1.0452 -3.1435
  690SOL    HW2 2070   2.304   1.060   1.357  1.8026 -2.8716 -1.8781
  691SOL     OW 2071   0.723   1.854   1.761  0.1160 -0.1864 -0.1651
  691SOL    HW1 2072   0.721   1.899   1.855  1.7814  0.5328  1.7081
  691SOL    HW2 2073   0.802   1.793   1.762  1.8557 -1.0805 -1.3270
  692SOL     OW 2074   2.112   0.016   1.348 -0.1746 -0.4279 -0.4777
  692SOL    HW1 2075   2.146   0.112   1.374  2.0639  3.1710 -0.9100
  692SOL    HW2 2076   2.152   3.078   1.256 -0.6551  3.5358  0.0273
  693SOL     OW 2077   0.596   1.110   2.219 -0.3643  0.4210 -0.1556
  693SOL    HW1 2078   0.665   1.163   2.275 -1.7517  0.8121  1.4238
  693SOL    HW2 2079   0.632   1.025   2.187 -0.5724 -0.4730 -0.1670
  694SOL     OW 2080   1.769   2.640   1.293  0.1898  0.5307 -0.1658
  694SOL    HW1 2081   1.855   2.666   1.249 -1.0342  1.2357 -0.4184
  694SOL    HW2 2082   1.727   2.559   1.248 -5.2858  0.8295  2.3777
  695SOL     OW 2083   1.293   1.106   1.978  0.4162 -0.2870  0.3969
  695SOL    HW1 2084   1.300   1.132   2.078 -0.3387  0.1966  0.4126
  695SOL    HW2 2085   1.368   1.146   1.924  1.7990  0.0375  0.2162
  696SOL     OW 2086   1.591   3.010   0.678 -0.4732  0.1671  0.0927
  696SOL    HW1 2087   1.502   2.966   0.659  2.6726  2.1670 -0.0876
  696SOL    HW2 2088   1.663   2.975   0.612 -2.3834  1.7241 -1.7220
  697SOL     OW 2089   1.184   0.155   0.707 -0.3048 -0.4960 -0.9250
  697SOL    HW1 2090   1.167   0.232   0.772 -0.7313 -0.8176 -0.9507
  697SOL    HW2 2091   1.123   0.157   0.624  2.8426  0.0525  1.3379
  698SOL     OW 2092   1.704   1.019   2.441  0.5161  0.5893  0.4235
  698SOL    HW1 2093   1.693   0.926   2.403 -1.0203  0.4907 -0.7254
  698SOL    HW2 2094   1.637   1.084   2.400  1.3289  0.5382 -1.8455
  699SOL     OW 2095   1.303   1.393   1.300 -0.0330  0.0038  0.2667
  699SOL    HW1 2096   1.344   1.329   1.236  0.8527  0.7759  3.1165
  699SOL    HW2 2097   1.348   1.383   1.394  2.7958  2.0898  0.8433
  700SOL     OW 2098   1.401   0.132   0.548 -0.0770 -0.4780 -0.1552
  700SOL    HW1 2099   1.319   0.147   0.611 -0.6213  1.0879 -1.6885
  700SOL    HW2 2100   1.460   0.067   0.595  1.5463  3.1329 -0.1687
  701SOL     OW 2101   0.432   0.268   1.721  0.0769 -0.0581  0.1204
  701SOL    HW1 2102   0.476   0.327   1.650 -1.9435 -1.6342  1.1342
  701SOL    HW2 2103   0.377   0.322   1.789 -1.6461  1.5162  2.1082
  702SOL     OW 2104   1.261   2.925   0.273  0.0352  0.9165 -0.2680
  702SOL    HW1 2105   1.199   2.986   0.320  2.6590  0.8712  1.1974
  702SOL    HW2 2106   1.207   2.871   0.203  0.0834  0.2764 -1.2541
  703SOL     OW 2107   2.566   2.763   2.450  0.3183  0.4693 -0.2212
  703SOL    HW1 2108   2.477   2.802   2.470  1.7977 -0.4968  0.3880
  703SOL    HW2 2109   2.547   2.688   2.380  0.9675 -2.3391  1.4623
  704SOL     OW 2110   0.742   2.200   0.613 -0.0666 -0.3075 -0.2723
  704SOL    HW1 2111   0.661   2.238   0.566 -0.0396 -0.2683 -3.4433
  704SOL    HW2 2112   0.740   2.217   0.718 -2.6013 -0.4356  0.9543
  705SOL     OW 2113   0.004   0.683   1.995  0.3399  0.2167  0.3200
  705SOL    HW1 2114   0.086   0.636   2.043  2.7608 -1.9190 -0.9697
  705SOL    HW2 2115   3.022   0.703   2.060  2.0756 -0.7181  1.7650
  706SOL     OW 2116   1.667   3.026   0.276 -0.1927 -0.0247  0.2185
  706SOL    HW1 2117   1.725   2.995   0.353  1.8154 -1.0875 -2.1747
  706SOL    HW2 2118   1.582   3.064   0.318  2.7187  0.6866  1.0075
  707SOL     OW 2119   1.447   1.950   2.162 -0.1651  0.0718  0.0965
  707SOL    HW1 2120   1.447   1.859   2.126 -1.0673 -0.0584  2.3874
  707SOL    HW2 2121   1.347   1.984   2.159  0.3405  0.4334 -0.4447
  708SOL     OW 2122   3.061   2.257   1.560  0.0687 -0.2479 -0.1946
  708SOL    HW1 2123   3.022   2.339   1.507 -0.1466 -0.0448  1.7500
  708SOL    HW2 2124   3.058   2.277   1.662 -1.0985  0.2512  1.9707
  709SOL     OW 2125   2.012   0.388   1.524 -0.0746  0.4266  0.6299
  709SOL    HW1 2126   2.024   0.344   1.615  1.0631  1.0668  2.7967
  709SOL    HW2 2127   1.913   0.413   1.511  0.5062  1.6352  0.7857
  710SOL     OW 2128   2.790   2.944   1.527  0.2619  0.2184  0.1381
  710SOL    HW1 2129   2.782   2.929   1.426  1.6204 -1.2878 -0.9813
  710SOL    HW2 2130   2.755   3.036   1.548 -0.0876  0.1696 -2.8990
  711SOL     OW 2131   0.086   2.309   0.353 -0.0646  0.4668 -0.4791
  711SOL    HW1 2132   0.135   2.377   0.295  2.2176 -1.3064  3.4764
  711SOL    HW2 2133   3.074   2.297   0.328  1.5874  1.0843 -1.5379
  712SOL     OW 2134   0.553   2.138   2.473 -0.1186 -0.1302  0.2026
  712SOL    HW1 2135   0.461   2.183   2.469  0.1261 -1.5580 -1.5569
  712SOL    HW2 2136   0.617   2.204   2.425 -0.9232  2.2406 -0.5548
  713SOL     OW 2137   2.112   0.665   3.002 -0.0880  0.0338 -0.0917
  713SOL    HW1 2138   2.120   0.608   3.087  2.2715 -1.3997  1.3556
  713SOL    HW2 2139   2.075   0.760   3.025  0.4044  3.3411  0.7983
  714SOL     OW 2140   1.305   1.895   0.705 -0.2883  0.4621 -0.1202
  714SOL    HW1 2141   1.282   1.971   0.772  2.8065  0.3778  1.6629
  714SOL    HW2 2142   1.291   1.931   0.612  0.5204 -0.1907 -1.2804
  715SOL     OW 2143   1.976   0.226   0.614  0.0304 -0.2323  0.6698
  715SOL    HW1 2144   1.877   0.239   0.619  1.2011  0.0654  1.9833
  715SOL    HW2 2145   2.020   0.314   0.640 -0.6487 -0.8630 -2.0497
  716SOL     OW 2146   0.571   0.757   1.821 -0.1151  0.7185  0.7608
  716SOL    HW1 2147   0.533   0.683   1.883  0.3042  1.3610 -0.0111
  716SOL    HW2 2148   0.542   0.738   1.727  2.4549  0.7376 -1.1275
  717SOL     OW 2149   0.152   0.502   2.927 -0.0972 -0.0231  0.5198
  717SOL    HW1 2150   0.140   0.561   2.850  0.7443 -3.7019  1.9198
  717SOL    HW2 2151   0.066   0.461   2.967  0.2042 -2.8999 -0.8580
  718SOL     OW 2152   1.233   0.890   0.369  0.1485  0.0966  0.2887
  718SOL    HW1 2153   1.287   0.872   0.449  0.2777  1.6208 -3.7784
  718SOL    HW2 2154   1.191   0.805   0.324 -1.1308 -1.2517 -2.1834
  719SOL     OW 2155   2.599   1.703   0.003 -0.3235  0.1256  0.3102
  719SOL    HW1 2156   2.617   1.630   3.021  0.8980  2.1462 -0.5975
  719SOL    HW2 2157   2.640   1.685   0.094  1.4537  3.7142 -1.5486
  720SOL     OW 2158   1.572   0.894   1.172  0.4026 -0.4402 -0.4443
  720SOL    HW1 2159   1.526   0.913   1.084 -1.3725  1.1887 -2.8185
  720SOL    HW2 2160   1.512   0.827   1.227  0.5580 -2.2840 -1.7791
  721SOL     OW 2161   2.825   0.808   0.414 -0.2537  0.5447  0.1679
  721SOL    HW1 2162   2.923   0.821   0.438 -0.0745  0.0101 -0.3480
  721SOL    HW2 2163   2.794   0.716   0.448  1.7928  3.7451  1.1413
  722SOL     OW 2164   1.131   1.620   2.751 -0.5273 -0.0168  0.1342
  722SOL    HW1 2165   1.058   1.674   2.703  2.9949 -0.5707  1.1750
  722SOL    HW2 2166   1.101   1.597   2.845  1.0182 -4.0032 -1.0542
  723SOL     OW 2167   0.603   1.037   0.382 -0.4977  0.1008 -0.2144
  723SOL    HW1 2168   0.554   1.127   0.387  0.5243  2.0610  3.7397
  723SOL    HW2 2169   0.543   0.964   0.422  1.3721  3.5717 -3.6321
  724SOL     OW 2170   0.953   2.337   1.939 -0.1590 -0.2970  0.2904
  724SOL    HW1 2171   0.861   2.348   1.900  1.5884  1.4025  2.8473
  724SOL    HW2 2172   0.995   2.429   1.946 -0.0578 -0.0106  2.1879
  725SOL     OW 2173   2.697   0.912   1.630  0.0813  0.3807 -0.4694
  725SOL    HW1 2174   2.781   0.908   1.573 -1.2672 -0.2874  0.3119
  725SOL    HW2 2175   2.721   0.902   1.728  1.1470  0.4479 -0.2837
  726SOL     OW 2176   1.773   2.941   0.515 -0.3198  0.4951  0.1019
  726SOL    HW1 2177   1.855   3.007   0.527  2.0758  4.4609 -0.7441
  726SOL    HW2 2178   1.799   2.845   0.492  2.4341 -1.4649 -1.8999
  727SOL     OW 2179   1.211   1.012   2.479  0.1928  0.0984  0.2811
  727SOL    HW1 2180   1.189   1.076   2.550  0.1010 -1.1968  0.2922
  727SOL    HW2 2181   1.131   0.948   2.467  0.9797 -1.7627 -1.7566
  728SOL     OW 2182   1.373   2.873   1.098 -0.3915  0.6751  0.5515
  728SOL    HW1 2183   1.347   2.826   1.184  2.8359 -0.6757 -0.2744
  728SOL    HW2 2184   1.417   2.959   1.117 -0.4259 -2.1052  0.5175
  729SOL     OW 2185   1.448   0.705   1.302  0.4031 -0.1136 -0.0232
  729SOL    HW1 2186   1.348   0.713   1.285  1.7139 -0.0404 -2.7834
  729SOL    HW2 2187   1.471   0.607   1.312  1.7102 -2.0987 -0.2339
  730SOL     OW 2188   0.865   1.947   2.239 -0.1004 -0.0151 -0.0596
  730SOL    HW1 2189   0.906   2.035   2.262 -2.1176  0.6696  1.0469
  730SOL    HW2 2190   0.935   1.870   2.219  3.0476 -0.6271 -2.0535
  731SOL     OW 2191   0.577   0.318   0.302  0.5176  0.3142  0.2982
  731SOL    HW1 2192   0.614   0.416   0.313  0.2547  1.4976 -0.9952
  731SOL    HW2 2193   0.656   0.260   0.275 -1.5233  1.2861  1.6582
  732SOL     OW 2194   0.559   0.385   2.836 -0.5601 -0.0356 -0.2115
  732SOL    HW1 2195   0.631   0.432   2.888 -1.1795  3.6872  1.3705
  732SOL    HW2 2196   0.500   0.326   2.892 -0.6377  1.2523 -0.9624
  733SOL     OW 2197   1.134   2.560   1.164 -0.2820 -0.5970 -0.0443
  733SOL    HW1 2198   1.101   2.467   1.185 -3.3275  2.5446 -0.3144
  733SOL    HW2 2199   1.083   2.634   1.218  0.8028 -0.5045 -0.4273
  734SOL     OW 2200   2.849   2.397   2.485 -0.0241  0.2117 -0.4753
  734SOL    HW1 2201   2.925   2.329   2.481  1.4878  1.3641  1.4097
  734SOL    HW2 2202   2.813   2.412   2.576  0.4589 -0.2704 -3.0151
  735SOL     OW 2203   0.854   2.863   1.108 -0.2325 -0.4281  0.0896
  735SOL    HW1 2204   0.802   2.948   1.140  0.5086  1.3990  0.7316
  735SOL    HW2 2205   0.948   2.899   1.080  2.7926 -0.8617 -1.7588
  736SOL     OW 2206   1.586   0.980   2.956  0.5183 -0.5743 -0.0100
  736SOL    HW1 2207   1.561   0.928   2.874 -1.9340 -0.3247  1.6778
  736SOL    HW2 2208   1.618   0.924   3.034  0.7316 -1.2194 -0.9566
  737SOL     OW 2209   0.183   0.244   0.589 -0.1540 -0.3701 -0.0946
  737SOL    HW1 2210   0.147   0.153   0.611  0.5750  1.3527  2.1692
  737SOL    HW2 2211   0.117   0.316   0.611  0.5408 -1.5070  1.4244
  738SOL     OW 2212   2.593   2.715   1.359  0.1428 -0.1527 -0.2166
  738SOL    HW1 2213   2.654   2.776   1.303 -0.2794  0.3985 -1.3559
  738SOL    HW2 2214   2.500   2.760   1.368 -0.8256  1.7060  1.7078
  739SOL     OW 2215   1.532   2.699   0.474 -0.1857  0.2019  1.0246
  739SOL    HW1 2216   1.475   2.762   0.526  2.5289  0.0006  0.6449
  739SOL    HW2 2217   1.500   2.603   0.491  1.0901  1.3432 -0.2447
  740SOL     OW 2218   1.971   2.931   1.023  0.3948 -0.2768  0.4186
  740SOL    HW1 2219   1.915   3.013   1.051 -4.1706  4.1683  0.6790
  740SOL    HW2 2220   1.958   2.904   0.925  1.0955  0.5956 -1.4229
  741SOL     OW 2221   1.882   0.473   0.845 -0.2912 -0.1994  0.0220
  741SOL    HW1 2222   1.951   0.400   0.866  1.3670 -2.3196 -1.7760
  741SOL    HW2 2223   1.908   0.569   0.872 -0.4261  2.0239 -1.9330
  742SOL     OW 2224   1.240   2.117   2.172 -0.0068 -0.9166 -0.7808
  742SOL    HW1 2225   1.301   2.197   2.178 -2.3637 -1.8079 -1.7059
  742SOL    HW2 2226   1.202   2.117   2.076  0.2351 -2.6682  0.2384
  743SOL     OW 2227   2.362   0.340   1.825 -0.1802  0.1495 -0.2590
  743SOL    HW1 2228   2.387   0.402   1.752 -0.0197 -0.0004  1.7319
  743SOL    HW2 2229   2.395   0.383   1.910  0.6066 -1.4560 -2.4001
  744SOL     OW 2230   2.291   0.545   1.246  0.1242  0.4437  0.1114
  744SOL    HW1 2231   2.304   0.602   1.330  1.6023 -0.1848  2.8122
  744SOL    HW2 2232   2.276   0.603   1.165  1.0086 -0.4095 -2.0159
  745SOL     OW 2233   1.932   1.175   1.794  0.1794 -0.0672 -0.1014
  745SOL    HW1 2234   1.893   1.126   1.876 -1.3741 -0.4063 -0.9487
  745SOL    HW2 2235   1.933   1.276   1.800 -0.1265 -1.0928  0.9904
  746SOL     OW 2236   1.102   1.277   0.936  0.2277 -0.5308 -0.6444
  746SOL    HW1 2237   1.178   1.328   0.884 -0.3718 -1.6301 -1.8081
  746SOL    HW2 2238   1.017   1.337   0.949  1.7820  1.9652 -0.1844
  747SOL     OW 2239   1.489   1.284   1.075  0.4524 -0.2455  0.7766
  747SOL    HW1 2240   1.462   1.288   0.975 -1.1024 -2.2145 -2.0508
  747SOL    HW2 2241   1.542   1.371   1.098  1.4602  1.1119  0.2611
  748SOL     OW 2242   3.019   3.011   0.488  0.5819 -0.0984 -0.2663
  748SOL    HW1 2243   2.931   2.973   0.444 -1.7468  0.8715 -1.0586
  748SOL    HW2 2244   2.991   3.061   0.573 -1.7706  0.7100  0.3628
  749SOL     OW 2245   0.010   0.199   2.081  0.2112  0.1117  0.6726
  749SOL    HW1 2246   3.036   0.132   2.126  1.4572 -0.4520  4.9364
  749SOL    HW2 2247   0.008   0.282   2.139  2.1824 -4.3233 -1.6707
  750SOL     OW 2248   1.828   0.012   1.339  0.3453  0.1981 -0.5112
  750SOL    HW1 2249   1.924   0.034   1.359  0.3936  1.6433 -2.3386
  750SOL    HW2 2250   1.803   0.024   1.240  1.7257  0.7601 -4.1528
  751SOL     OW 2251   3.080   0.436   0.663  0.1568  0.4554  0.3307
  751SOL    HW1 2252   2.999   0.397   0.716  1.3640  1.7284 -1.2482
  751SOL    HW2 2253   0.053   0.491   0.724 -2.6161 -0.5590 -0.7486
  752SOL     OW 2254   0.288   2.714   1.144  0.2527 -0.5833 -0.6843
  752SOL    HW1 2255   0.308   2.805   1.191  4.4505  0.0781  1.6453
  752SOL    HW2 2256   0.213   2.663   1.191 -0.5647 -1.3084 -2.5931
  753SOL     OW 2257   1.331   0.324   1.728 -0.3275 -0.0543  0.5124
  753SOL    HW1 2258   1.241   0.368   1.734  1.7486 -1.0241 -0.0205
  753SOL    HW2 2259   1.396   0.373   1.792  3.0412 -0.7214 -1.6981
  754SOL     OW 2260   1.257   2.569   1.649 -0.2429 -0.2107 -0.2559
  754SOL    HW1 2261   1.345   2.618   1.633 -1.8273  0.2401  0.4449
  754SOL    HW2 2262   1.252   2.531   1.746 -1.2351  1.3820  0.5016
  755SOL     OW 2263   3.030   1.130   0.621 -0.0263 -0.3415 -0.0195
  755SOL    HW1 2264   2.933   1.146   0.653 -2.4286 -1.3212 -1.1094
  755SOL    HW2 2265   3.074   1.049   0.663 -0.8888 -0.3474 -0.8027
  756SOL     OW 2266   1.802   1.372   2.460  0.0096  0.4079 -0.3603
  756SOL    HW1 2267   1.840   1.466   2.458  0.7781 -1.8094 -0.8623
  756SOL    HW2 2268   1.749   1.363   2.547  0.7426 -2.3179 -0.2150
  757SOL     OW 2269   2.010   2.836   0.767  0.3430  0.0845 -0.1273
  757SOL    HW1 2270   1.969   2.906   0.705  2.3243  0.9990  1.2620
  757SOL    HW2 2271   2.083   2.785   0.716 -3.4266 -0.8263  0.4647
  758SOL     OW 2272   0.838   2.734   0.867 -0.1068 -0.0636  0.0988
  758SOL    HW1 2273   0.824   2.637   0.897 -1.3795  0.2175  0.5416
  758SOL    HW2 2274   0.835   2.790   0.952 -1.3963 -0.1484 -1.2492
  759SOL     OW 2275   3.080   0.621   1.003 -0.4633 -0.1297  0.3618
  759SOL    HW1 2276   0.064   0.568   0.952  2.8294  0.5348  0.9845
  759SOL    HW2 2277   3.010   0.650   0.930  0.4095  0.1999 -0.2986
  760SOL     OW 2278   2.198   1.311   1.197 -0.0011 -0.0485 -0.2640
  760SOL    HW1 2279   2.269   1.254   1.241 -1.5800 -1.9182 -0.6417
  760SOL    HW2 2280   2.104   1.275   1.217  0.9755  2.5532 -0.1929
  761SOL     OW 2281   0.871   0.946   1.228  0.3705 -0.2822 -0.3120
  761SOL    HW1 2282   0.937   1.024   1.224  0.4044 -0.6957  1.6304
  761SOL    HW2 2283   0.890   0.884   1.150  2.7211  1.3891 -1.7208
  762SOL     OW 2284   2.219   1.943   1.342  0.1525  0.1169  0.8297
  762SOL    HW1 2285   2.212   1.848   1.307 -1.4520 -1.3486 -1.4581
  762SOL    HW2 2286   2.249   1.944   1.437 -1.8226 -2.9280 -0.1151
  763SOL     OW 2287   1.355   1.644   1.939 -0.3501 -0.3016 -0.3245
  763SOL    HW1 2288   1.433   1.638   2.001 -2.6258  0.1832 -1.7065
  763SOL    HW2 2289   1.274   1.687   1.987 -1.0283  2.6695 -0.1947
  764SOL     OW 2290   0.029   1.838   2.377  0.2868  0.4784 -0.6038
  764SOL    HW1 2291   0.039   1.839   2.277 -1.1683  4.0617  0.4073
  764SOL    HW2 2292   3.073   1.750   2.409 -0.4670 -3.0453  1.0504
  765SOL     OW 2293   0.959   2.710   1.309  0.3829  0.0043  0.1846
  765SOL    HW1 2294   0.988   2.791   1.363 -0.9158  0.8505  0.6664
  765SOL    HW2 2295   0.901   2.744   1.230 -0.3201 -1.0705 -0.0456
  766SOL     OW 2296   0.720   2.262   2.815  0.1620 -0.3989  0.0941
  766SOL    HW1 2297   0.685   2.174   2.776 -0.8842 -0.1014  2.9665
  766SOL    HW2 2298   0.644   2.330   2.834  1.1314 -0.9518  0.4859
  767SOL     OW 2299   1.503   0.808   2.757 -0.0199 -0.4251  0.0390
  767SOL    HW1 2300   1.455   0.724   2.789  0.4955 -0.9746 -1.0821
  767SOL    HW2 2301   1.462   0.837   2.669  0.4992 -1.4648 -2.2342
  768SOL     OW 2302   1.151   2.455   2.841  0.2101 -0.4843 -0.2944
  768SOL    HW1 2303   1.242   2.413   2.848 -1.0999 -2.1395  1.2177
  768SOL    HW2 2304   1.080   2.389   2.875 -0.3324  1.8311 -0.3953
  769SOL     OW 2305   0.042   2.668   1.332 -0.4375 -0.5142  0.2522
  769SOL    HW1 2306   0.039   2.739   1.262 -0.9458  0.0085  0.8340
  769SOL    HW2 2307   0.135   2.626   1.341  1.2261 -0.5497 -1.1016
  770SOL     OW 2308   0.812   3.082   2.783  0.0974 -0.5276  0.4049
  770SOL    HW1 2309   0.814   2.988   2.740 -0.8254  1.1890  1.3073
  770SOL    HW2 2310   0.895   0.005   2.844 -0.5304 -0.1894  0.3254
  771SOL     OW 2311   0.676   2.995   2.419  0.5488 -0.2912  0.2872
  771SOL    HW1 2312   0.614   3.058   2.472 -0.9729  1.0980  2.4414
  771SOL    HW2 2313   0.633   2.988   2.327  0.1614 -0.7352  1.2118
  772SOL     OW 2314   2.311   3.026   1.918  0.7081  0.3957  0.4025
  772SOL    HW1 2315   2.372   0.002   1.868  2.1331  0.3363  2.8236
  772SOL    HW2 2316   2.363   2.950   1.960 -2.5980 -1.2180 -2.8729
  773SOL     OW 2317   0.666   2.486   1.766 -0.0469 -0.0750  0.2379
  773SOL    HW1 2318   0.683   2.586   1.787  1.4173  0.5869  0.0077
  773SOL    HW2 2319   0.609   2.450   1.841 -0.4655  1.2551  0.6159
  774SOL     OW 2320   1.102   0.333   2.214 -0.1764 -0.5108  0.3698
  774SOL    HW1 2321   1.155   0.255   2.258 -1.3076 -1.9259  0.2182
  774SOL    HW2 2322   1.041   0.286   2.142 -1.2267  0.3073 -0.9012
  775SOL     OW 2323   2.150   2.679   2.833 -0.0546  0.6213  0.7523
  775SOL    HW1 2324   2.077   2.608   2.832 -1.1231 -0.7918 -0.7483
  775SOL    HW2 2325   2.236   2.645   2.880  2.2392  0.0223  0.1541
  776SOL     OW 2326   1.971   0.397   2.207 -0.1528  0.2764 -0.5685
  776SOL    HW1 2327   2.037   0.439   2.273 -0.5061 -0.3601 -0.0668
  776SOL    HW2 2328   1.946   0.467   2.137  0.2301 -0.5055 -0.0261
  777SOL     OW 2329   2.828   0.947   2.323  0.0729  0.6028  0.0742
  777SOL    HW1 2330   2.815   0.968   2.423  2.2619  0.4383 -3.6165
  777SOL    HW2 2331   2.745   0.964   2.268  0.5315 -0.8264 -0.0782
  778SOL     OW 2332   2.129   0.510   2.375 -0.2978 -0.2514  0.0406
  778SOL    HW1 2333   2.120   0.609   2.396 -0.9420  2.4426  0.0879
  778SOL    HW2 2334   2.142   0.444   2.451  2.2284  0.9572 -2.3740
  779SOL     OW 2335   3.006   0.181   0.127 -0.2154  0.2804  0.1245
  779SOL    HW1 2336   2.970   0.230   0.212 -2.5166  1.2932 -0.0824
  779SOL    HW2 2337   0.014   0.146   0.134  1.0302 -0.5787 -1.0167
  780SOL     OW 2338   2.406   0.282   2.498  0.2095 -0.1835 -0.7654
  780SOL    HW1 2339   2.392   0.329   2.586  0.8418 -0.6487 -0.8200
  780SOL    HW2 2340   2.319   0.242   2.460  1.1865  0.7721  0.3134
  781SOL     OW 2341   0.148   0.041   1.550 -0.0690  0.3591 -0.3768
  781SOL    HW1 2342   0.056   0.025   1.504 -0.8162  0.5192 -1.7559
  781SOL    HW2 2343   0.211   0.094   1.488 -0.8656 -0.8936 -1.4732
  782SOL     OW 2344   1.809   2.651   0.536  0.1475 -0.2422  0.2489
  782SOL    HW1 2345   1.712   2.664   0.504 -3.7680 -1.6499 -2.2698
  782SOL    HW2 2346   1.815   2.560   0.589  0.7336 -3.6293  0.3525
  783SOL     OW 2347   0.737   1.413   1.774  0.1533  0.5067 -0.4584
  783SOL    HW1 2348   0.839   1.417   1.771  2.1448 -0.0633 -2.3743
  783SOL    HW2 2349   0.701   1.332   1.727 -3.1028  2.2596 -1.9072
  784SOL     OW 2350   1.663   0.443   2.342  0.5667  0.2262 -0.0169
  784SOL    HW1 2351   1.591   0.505   2.299 -2.0617  1.4633  0.6006
  784SOL    HW2 2352   1.709   0.388   2.271 -2.8797  0.5185  0.9157
  785SOL     OW 2353   2.872   0.304   0.835  0.8377 -0.0322 -0.4652
  785SOL    HW1 2354   2.856   0.343   0.924  1.9858 -0.0108 -0.7284
  785SOL    HW2 2355   2.784   0.273   0.794  0.8250 -1.6805  1.0517
  786SOL     OW 2356   1.773   0.076   1.076 -0.3514  0.4200  0.0704
  786SOL    HW1 2357   1.795   0.169   1.040 -0.0288  0.7258 -2.5324
  786SOL    HW2 2358   1.736   0.008   1.000  0.0304 -3.8014 -0.4335
  787SOL     OW 2359   1.491   0.042   1.168  0.0074 -0.1386  0.1858
  787SOL    HW1 2360   1.462   0.115   1.235 -1.1384  0.6432 -1.0144
  787SOL    HW2 2361   1.581   0.062   1.126 -2.0067 -0.6312 -0.8499
  788SOL     OW 2362   3.078   0.745   0.565 -0.4255  0.7051  0.3253
  788SOL    HW1 2363   0.020   0.813   0.637  2.1586  2.8448 -2.8090
  788SOL    HW2 2364   3.071   0.651   0.602  1.1505 -0.7829  0.0792
  789SOL     OW 2365   0.374   1.191   2.032  0.7757 -0.1560  0.1707
  789SOL    HW1 2366   0.455   1.177   2.094 -2.8877  0.7685 -0.0231
  789SOL    HW2 2367   0.376   1.286   1.990 -0.2683  0.6528 -2.0194
  790SOL     OW 2368   0.273   0.420   2.609  0.3473 -0.4955  0.4339
  790SOL    HW1 2369   0.367   0.376   2.604  3.5807 -1.9195 -3.1879
  790SOL    HW2 2370   0.273   0.521   2.609  0.2215 -0.1774 -0.4937
  791SOL     OW 2371   2.346   0.587   0.368 -0.0454 -0.1663  0.5126
  791SOL    HW1 2372   2.413   0.518   0.404  0.2509 -1.1023 -1.0893
  791SOL    HW2 2373   2.347   0.673   0.423  0.5958 -3.9333  0.9454
  792SOL     OW 2374   1.174   0.373   1.336  0.2882  0.2767  0.0837
  792SOL    HW1 2375   1.161   0.391   1.236 -1.0498  2.1368 -2.6979
  792SOL    HW2 2376   1.097   0.317   1.376  2.9035  1.8221 -0.3768
  793SOL     OW 2377   0.313   2.957   1.243  0.2968 -0.3139  0.5851
  793SOL    HW1 2378   0.352   2.977   1.333 -0.0029  1.4584 -1.6126
  793SOL    HW2 2379   0.228   3.013   1.234 -1.6693  0.2894  0.9182
  794SOL     OW 2380   0.202   0.577   2.166  0.4857 -0.7722 -0.3683
  794SOL    HW1 2381   0.252   0.664   2.188 -3.9393  2.4661 -1.3554
  794SOL    HW2 2382   0.252   0.500   2.206  0.1204  1.3080 -0.4439
  795SOL     OW 2383   0.324   2.430   2.659  0.0210 -0.3489 -0.4653
  795SOL    HW1 2384   0.347   2.447   2.563  0.7482 -0.9884 -0.6256
  795SOL    HW2 2385   0.408   2.378   2.697  3.7171 -1.9514  1.1278
  796SOL     OW 2386   2.181   0.406   2.642  0.1571 -0.5905 -0.3531
  796SOL    HW1 2387   2.172   0.509   2.654  2.3534 -0.3671  0.3988
  796SOL    HW2 2388   2.089   0.357   2.631 -1.8585 -0.1151  1.0847
  797SOL     OW 2389   2.740   1.930   2.908  0.0418  0.2856  0.0685
  797SOL    HW1 2390   2.778   2.021   2.940  1.5006 -0.5988 -0.4089
  797SOL    HW2 2391   2.643   1.930   2.914  1.4461 -1.5502 -0.4478
  798SOL     OW 2392   0.191   0.600   1.654  0.1386 -0.1264 -0.1679
  798SOL    HW1 2393   0.198   0.520   1.725  2.5076 -1.7600  2.4553
  798SOL    HW2 2394   0.211   0.689   1.703  0.7841  0.4989 -0.3442
  799SOL     OW 2395   0.845   0.390   1.725 -0.2942  0.0851 -0.1496
  799SOL    HW1 2396   0.803   0.390   1.822 -0.0865 -1.5853  0.9749
  799SOL    HW2 2397   0.945   0.418   1.725 -1.4631 -0.8141 -0.6417
  800SOL     OW 2398   2.935   2.638   0.298  0.4876 -0.2791  0.3320
  800SOL    HW1 2399   2.946   2.685   0.210  1.5558  1.2182 -0.8562
  800SOL    HW2 2400   2.924   2.538   0.294  0.0587 -0.7846  0.9100
  801SOL     OW 2401   1.705   1.758   1.026 -0.0696 -0.3959 -0.0251
  801SOL    HW1 2402   1.654   1.784   0.945  1.0870  0.9008 -1.4744
  801SOL    HW2 2403   1.715   1.834   1.095  2.2958 -1.3083 -1.4243
  802SOL     OW 2404   0.609   0.581   0.372  0.1434 -0.1788 -0.0324
  802SOL    HW1 2405   0.602   0.615   0.466 -1.1690 -2.8048 -0.8558
  802SOL    HW2 2406   0.611   0.656   0.302 -0.1280  3.2295 -1.1872
  803SOL     OW 2407   1.266   1.148   2.240 -0.0825 -0.9031  0.0992
  803SOL    HW1 2408   1.237   1.084   2.315  2.3459  0.7626  1.3855
  803SOL    HW2 2409   1.201   1.228   2.244 -0.1938  0.2568  0.9425
  804SOL     OW 2410   2.195   1.933   0.937  0.3904 -0.1875 -0.5330
  804SOL    HW1 2411   2.207   2.005   1.006 -1.1112 -0.7693  1.3978
  804SOL    HW2 2412   2.211   1.844   0.982 -0.9543  0.9671 -0.3009
  805SOL     OW 2413   0.379   1.947   2.753 -0.0736  0.1693  0.4405
  805SOL    HW1 2414   0.352   2.039   2.789 -0.0915 -0.0694  0.1470
  805SOL    HW2 2415   0.332   1.933   2.661  1.9515  3.7592 -1.4089
  806SOL     OW 2416   0.669   2.570   0.362 -0.5548 -0.0371 -0.6846
  806SOL    HW1 2417   0.673   2.668   0.319  0.8156  5.3965 -2.0802
  806SOL    HW2 2418   0.734   2.569   0.439 -0.5799  0.2892 -0.8783
  807SOL     OW 2419   2.437   1.077   2.751  0.1179 -0.3563 -0.1758
  807SOL    HW1 2420   2.524   1.066   2.808 -0.5617  1.2768  0.7645
  807SOL    HW2 2421   2.371   1.122   2.817 -1.4997  1.7910 -0.4958
  808SOL     OW 2422   1.631   2.412   1.212  0.4305  0.9222  0.2345
  808SOL    HW1 2423   1.537   2.412   1.174  0.2442 -0.7435 -1.2706
  808SOL    HW2 2424   1.626   2.393   1.314 -0.1963 -1.8366  1.3094
  809SOL     OW 2425   0.313   0.559   0.535 -0.4388  0.0110  0.1262
  809SOL    HW1 2426   0.365   0.646   0.546 -0.6964 -0.3409 -1.2686
  809SOL    HW2 2427   0.371   0.493   0.481  0.4672  0.0844 -1.9487
  810SOL     OW 2428   1.362   1.518   0.107  0.0795 -0.0790 -0.1699
  810SOL    HW1 2429   1.321   1.583   0.041 -1.0191  1.9916  0.2123
  810SOL    HW2 2430   1.448   1.559   0.139 -4.1846 -1.2133 -0.2128
  811SOL     OW 2431   1.548   2.951   1.376 -0.6624  0.2672  0.0732
  811SOL    HW1 2432   1.638   2.924   1.419 -0.8239  0.8365  0.3864
  811SOL    HW2 2433   1.557   3.017   1.300  2.1668  1.2461  0.6057
  812SOL     OW 2434   1.676   2.964   0.931 -0.5426  0.2088 -0.3396
  812SOL    HW1 2435   1.620   2.991   0.854 -0.0809 -0.7199  0.0850
  812SOL    HW2 2436   1.651   2.874   0.964  0.0730  0.0301 -0.5842
  813SOL     OW 2437   1.306   2.970   1.876 -0.0784 -0.5325  0.4270
  813SOL    HW1 2438   1.353   3.059   1.899  1.5861  2.2084 -0.9035
  813SOL    HW2 2439   1.317   2.954   1.776 -2.0139  0.2170  0.7872
  814SOL     OW 2440   1.032   2.601   2.049  0.1943  0.6045  0.2260
  814SOL    HW1 2441   1.048   2.690   1.997 -1.1810  1.6559 -0.7826
  814SOL    HW2 2442   1.108   2.585   2.112  0.8281 -1.0977  1.0690
  815SOL     OW 2443   0.540   0.022   2.787  0.0743 -0.2253 -0.1480
  815SOL    HW1 2444   0.526   3.010   2.771 -1.6560  0.1574 -0.6592
  815SOL    HW2 2445   0.636   0.036   2.814  1.5502  1.1237 -0.8036
  816SOL     OW 2446   2.480   0.893   3.010 -0.6441 -0.5438  0.0797
  816SOL    HW1 2447   2.548   0.970   2.996  0.1689  0.0630  1.4367
  816SOL    HW2 2448   2.525   0.798   3.015 -0.8052 -0.5969 -1.5524
  817SOL     OW 2449   2.691   2.253   2.320  0.1572  0.0463 -0.1412
  817SOL    HW1 2450   2.734   2.324   2.379 -0.1806 -2.8538 -1.0918
  817SOL    HW2 2451   2.705   2.266   2.218 -0.5089  1.2806  1.3367
  818SOL     OW 2452   0.820   1.457   0.376 -0.6323 -0.5087 -0.2509
  818SOL    HW1 2453   0.748   1.465   0.450 -1.5693  0.7416  1.6777
  818SOL    HW2 2454   0.786   1.406   0.296 -0.2326 -0.2176  1.1592
  819SOL     OW 2455   1.703   1.226   2.909 -0.1882 -0.2526 -0.1286
  819SOL    HW1 2456   1.724   1.207   2.810  1.1178  1.2945  1.6255
  819SOL    HW2 2457   1.648   1.154   2.949 -0.4760 -0.3020  2.2329
  820SOL     OW 2458   0.497   1.280   0.383 -0.4816 -0.2063  0.2146
  820SOL    HW1 2459   0.547   1.350   0.434  0.8934 -2.2300  0.2644
  820SOL    HW2 2460   0.426   1.323   0.330 -0.1377  0.6849  1.7227
  821SOL     OW 2461   0.439   2.942   1.000 -0.6385 -0.0750 -0.1956
  821SOL    HW1 2462   0.463   2.849   0.971 -0.8481  0.3650  3.4610
  821SOL    HW2 2463   0.402   2.937   1.094  1.2387  0.9459  1.8787
  822SOL     OW 2464   2.113   2.184   2.900  0.2843  0.0130 -0.3287
  822SOL    HW1 2465   2.161   2.220   2.981 -0.7631 -0.7001 -1.0454
  822SOL    HW2 2466   2.016   2.221   2.894 -0.7719 -2.5108  0.5187
  823SOL     OW 2467   1.042   0.597   2.545  0.1117  0.2670  0.3859
  823SOL    HW1 2468   1.138   0.582   2.579 -0.1533 -0.0636 -0.1685
  823SOL    HW2 2469   0.978   0.578   2.620  2.1125 -0.3355 -0.7862
  824SOL     OW 2470   2.524   2.878   1.677  0.4230  0.2165 -0.3077
  824SOL    HW1 2471   2.561   2.821   1.757  0.6094 -0.8815  3.1263
  824SOL    HW2 2472   2.593   2.886   1.604 -1.8520 -2.0178  1.7130
  825SOL     OW 2473   0.247   1.937   2.502 -0.4781  0.4157 -0.4713
  825SOL    HW1 2474   0.275   2.017   2.446 -2.5671 -1.0441 -0.1219
  825SOL    HW2 2475   0.165   1.898   2.462  0.1337 -0.9244 -0.3749
  826SOL     OW 2476   1.767   0.330   0.229 -0.1732 -0.2167  0.2407
  826SOL    HW1 2477   1.741   0.418   0.181 -0.5014 -3.2559  0.4495
  826SOL    HW2 2478   1.745   0.254   0.169 -0.6022 -0.0359  0.1904
  827SOL     OW 2479   2.948   1.744   1.962 -0.6965  0.6274  0.0819
  827SOL    HW1 2480   2.944   1.643   1.978  0.9049 -1.3944  0.9292
  827SOL    HW2 2481   3.008   1.776   1.886  1.8459  2.0638 -0.0078
  828SOL     OW 2482   0.217   0.242   1.317 -0.2264 -0.2684  0.1550
  828SOL    HW1 2483   0.170   0.331   1.344 -1.7446 -2.1047 -0.7713
  828SOL    HW2 2484   0.318   0.247   1.338 -0.5920  0.5525 -0.6674
  829SOL     OW 2485   1.141   1.861   2.424  0.2226 -0.0495  0.6767
  829SOL    HW1 2486   1.157   1.957   2.443 -0.7011 -1.9399 -1.0841
  829SOL    HW2 2487   1.065   1.829   2.482  2.1153  0.5469  0.9996
  830SOL     OW 2488   0.762   0.919   1.505 -0.3169  0.0999  0.1398
  830SOL    HW1 2489   0.785   0.948   1.411 -1.0280  0.0876 -0.4897
  830SOL    HW2 2490   0.665   0.893   1.515  1.7823 -0.6957  0.0667
  831SOL     OW 2491   2.650   1.484   2.937 -0.0979 -0.8329 -0.1954
  831SOL    HW1 2492   2.675   1.522   2.844  2.9694  0.4518 -0.7763
  831SOL    HW2 2493   2.729   1.428   2.974  1.5305  1.3934  0.7797
  832SOL     OW 2494   1.215   2.132   2.951  0.2442 -0.4732 -0.4131
  832SOL    HW1 2495   1.126   2.174   2.932  0.5098 -1.1797 -1.5163
  832SOL    HW2 2496   1.255   2.086   2.862  0.2982  2.6971 -0.3593
  833SOL     OW 2497   0.260   0.440   1.855 -0.0189  0.0299 -0.1260
  833SOL    HW1 2498   0.341   0.477   1.908  2.2251 -2.3278 -1.5147
  833SOL    HW2 2499   0.230   0.357   1.900  1.1562  0.7167 -1.6789
  834SOL     OW 2500   0.239   0.954   1.268  1.0603 -0.3040 -0.1131
  834SOL    HW1 2501   0.230   1.051   1.298 -1.1381 -2.1117 -1.8891
  834SOL    HW2 2502   0.249   0.950   1.167 -0.1489 -0.1192 -0.5114
  835SOL     OW 2503   2.740   0.568   0.497  0.5027 -0.1869  0.1837
  835SOL    HW1 2504   2.830   0.523   0.472 -1.1954 -0.4791 -0.6903
  835SOL    HW2 2505   2.663   0.499   0.490 -2.0223  1.1141 -0.8643
  836SOL     OW 2506   0.903   2.321   0.119  0.1398 -0.1123 -0.1676
  836SOL    HW1 2507   0.961   2.374   0.184 -0.7774  1.7588 -1.2747
  836SOL    HW2 2508   0.861   2.242   0.173 -1.6315 -0.8228  4.3812
  837SOL     OW 2509   1.565   2.019   0.468  0.0503 -0.2046 -0.4041
  837SOL    HW1 2510   1.588   1.949   0.396  2.7576  0.3881 -0.8150
  837SOL    HW2 2511   1.607   1.994   0.558 -0.6791  2.8774 -2.1678
  838SOL     OW 2512   1.853   0.735   2.313 -0.3525 -0.0110 -0.3726
  838SOL    HW1 2513   1.906   0.697   2.235 -0.2148 -1.4190  0.6983
  838SOL    HW2 2514   1.902   0.716   2.397 -0.2307 -1.3870 -1.7112
  839SOL     OW 2515   1.194   1.212   2.712  1.2216 -0.1859  0.1318
  839SOL    HW1 2516   1.128   1.284   2.751 -2.1587  3.6940 -1.3376
  839SOL    HW2 2517   1.241   1.160   2.785 -0.7033 -0.4957  0.3045
  840SOL     OW 2518   0.792   1.297   0.155  0.1337 -0.2385 -0.5531
  840SOL    HW1 2519   0.833   1.213   0.201 -0.6735  1.7803 -0.2796
  840SOL    HW2 2520   0.714   1.279   0.095  1.3330  0.1708  1.1134
  841SOL     OW 2521   1.299   2.191   0.120 -0.1492  0.0629 -0.0980
  841SOL    HW1 2522   1.386   2.249   0.114  0.8663  2.1757 -1.8292
  841SOL    HW2 2523   1.267   2.169   0.025 -1.7943  2.3201 -0.8876
  842SOL     OW 2524   0.106   0.499   0.320  0.0197 -0.5190 -0.1017
  842SOL    HW1 2525   0.142   0.531   0.410 -0.9479 -0.8675  0.5282
  842SOL    HW2 2526   0.184   0.469   0.260 -0.2068  0.0657  1.4507
  843SOL     OW 2527   0.715   0.686   0.924 -0.4704 -0.6485  0.8835
  843SOL    HW1 2528   0.722   0.788   0.898  0.5710  1.3427  1.6004
  843SOL    HW2 2529   0.623   0.659   0.946 -0.2714  2.3823  1.2989
  844SOL     OW 2530   2.213   2.613   2.439 -0.4734  0.1235 -0.4383
  844SOL    HW1 2531   2.253   2.704   2.456 -0.0710 -0.0812  0.4822
  844SOL    HW2 2532   2.126   2.605   2.386  2.1490 -2.4160 -5.6885
  845SOL     OW 2533   2.979   2.564   1.770  0.1351 -0.1215 -0.2734
  845SOL    HW1 2534   3.044   2.640   1.744  2.3036 -1.2374  0.5217
  845SOL    HW2 2535   2.892   2.573   1.722  2.7611  0.4233 -1.9642
  846SOL     OW 2536   2.108   1.048   2.570 -0.2669 -0.4201  0.1822
  846SOL    HW1 2537   2.040   0.995   2.626 -2.3039  0.3898 -0.5294
  846SOL    HW2 2538   2.060   1.097   2.490 -0.6213  0.2171 -3.1354
  847SOL     OW 2539   2.759   0.433   1.727  0.0962 -0.7683 -0.0412
  847SOL    HW1 2540   2.821   0.510   1.732  0.0568 -1.6424  0.0383
  847SOL    HW2 2541   2.809   0.355   1.688  0.3281  1.3707 -1.8404
  848SOL     OW 2542   2.580   2.805   3.069 -0.1022  0.6859 -0.1313
  848SOL    HW1 2543   2.669   2.828   3.026  0.7710  1.7417  0.0376
  848SOL    HW2 2544   2.585   2.719   0.030 -0.3420  1.5781  0.3679
  849SOL     OW 2545   0.436   3.079   0.634 -0.0511  0.2637 -0.2106
  849SOL    HW1 2546   0.502   3.000   0.646  0.4505  0.6949  0.6392
  849SOL    HW2 2547   0.376   3.060   0.552 -0.2687 -1.3283 -2.3970
  850SOL     OW 2548   0.866   2.563   0.548  0.3522  0.0825 -0.0094
  850SOL    HW1 2549   0.874   2.659   0.578 -0.3811 -0.1191  1.3966
  850SOL    HW2 2550   0.924   2.544   0.469  0.6027  0.0991 -0.5518
  851SOL     OW 2551   1.812   0.533   2.922  0.3005 -0.2914 -0.4159
  851SOL    HW1 2552   1.795   0.564   2.831  0.1962 -1.0859  3.7978
  851SOL    HW2 2553   1.909   0.513   2.947  1.4895  2.1946 -1.8195
  852SOL     OW 2554   1.612   2.568   2.588  0.1917 -0.2110 -0.7419
  852SOL    HW1 2555   1.665   2.509   2.520  2.4764  0.0253 -3.4885
  852SOL    HW2 2556   1.621   2.669   2.561  0.6901  0.4314 -0.4423
  853SOL     OW 2557   2.976   2.654   3.075  0.1787 -0.2668  0.3171
  853SOL    HW1 2558   3.068   2.645   3.051 -2.2218 -1.7668 -1.7829
  853SOL    HW2 2559   2.934   2.743   3.045 -0.7270  0.2428 -2.6043
  854SOL     OW 2560   1.301   0.638   2.580 -0.4226  0.0914  0.0395
  854SOL    HW1 2561   1.369   0.564   2.563  0.4930 -0.6399 -0.9266
  854SOL    HW2 2562   1.337   0.726   2.544  1.8065 -0.7378  0.5975
  855SOL     OW 2563   0.255   2.630   0.543  0.2294  0.6932  0.1190
  855SOL    HW1 2564   0.303   2.619   0.457 -0.1230  1.1054  1.2073
  855SOL    HW2 2565   0.177   2.697   0.534 -0.8585 -1.2100  0.2926
  856SOL     OW 2566   0.239   2.770   2.540  0.0520  0.1805 -0.3670
  856SOL    HW1 2567   0.226   2.735   2.446  1.7521  2.8209  3.1274
  856SOL    HW2 2568   0.278   2.697   2.602 -0.3918 -0.6049 -1.8217
  857SOL     OW 2569   1.332   2.970   1.604 -0.4156 -0.6663  0.5676
  857SOL    HW1 2570   1.272   2.949   1.525  0.5816 -2.6765  0.2181
  857SOL    HW2 2571   1.399   3.043   1.578  2.1388 -1.8853  2.1289
  858SOL     OW 2572   0.264   1.945   1.585 -0.1499 -0.6518 -0.3550
  858SOL    HW1 2573   0.304   2.019   1.528 -1.6136 -1.4557  1.4393
  858SOL    HW2 2574   0.308   1.933   1.675  0.5095  2.1488  2.0384
  859SOL     OW 2575   2.066   2.687   1.892 -0.0659 -0.2987 -0.4261
  859SOL    HW1 2576   2.157   2.725   1.878 -1.6431  2.4082  0.1878
  859SOL    HW2 2577   2.043   2.623   1.813  0.5719 -1.7515 -1.0008
  860SOL     OW 2578   1.720   0.181   0.688  0.5120  0.1665  0.4508
  860SOL    HW1 2579   1.646   0.241   0.723 -0.2956  0.4791  2.3073
  860SOL    HW2 2580   1.708   0.080   0.699 -0.4601 -1.4815 -0.6004
  861SOL     OW 2581   2.880   0.666   0.805 -0.1261  0.4202 -0.0481
  861SOL    HW1 2582   2.861   0.681   0.703  0.2702 -1.1623 -2.5066
  861SOL    HW2 2583   2.795   0.666   0.856  2.6202 -0.1959 -3.4431
  862SOL     OW 2584   1.753   0.524   1.909 -0.3070  0.2835 -0.0936
  862SOL    HW1 2585   1.850   0.503   1.888 -1.4305 -1.0985 -0.9415
  862SOL    HW2 2586   1.735   0.624   1.891 -0.6723 -0.0841  0.5362
  863SOL     OW 2587   0.895   0.666   1.137  0.1086  0.5898  0.1320
  863SOL    HW1 2588   0.833   0.687   1.057 -2.2211  0.9982 -3.0790
  863SOL    HW2 2589   0.878   0.569   1.168 -0.5353 -2.3443 -0.1334
  864SOL     OW 2590   2.931   2.797   2.206  1.1195  0.8781 -0.3833
  864SOL    HW1 2591   2.858   2.753   2.145 -2.9586 -1.6021  1.5215
  864SOL    HW2 2592   2.938   2.744   2.295  1.9573  0.7327 -1.8790
  865SOL     OW 2593   0.993   0.873   2.412 -0.4015  0.4301 -0.3053
  865SOL    HW1 2594   1.041   0.790   2.371  2.9338 -1.3262 -0.9709
  865SOL    HW2 2595   0.905   0.847   2.462  1.2818 -1.9727 -3.5346
  866SOL     OW 2596   2.722   2.840   0.477  0.0317  0.4366 -0.1974
  866SOL    HW1 2597   2.646   2.878   0.524 -0.1685  2.6041 -2.1586
  866SOL    HW2 2598   2.772   2.787   0.551 -1.0553 -1.2768  2.3023
  867SOL     OW 2599   2.844   2.947   0.247 -0.3458  0.0513 -0.3495
  867SOL    HW1 2600   2.811   2.889   0.325 -0.6546  0.7848  2.9826
  867SOL    HW2 2601   2.773   3.010   0.223  0.8450 -0.4918  0.9782
  868SOL     OW 2602   1.894   1.026   0.173  0.5338  0.4357 -0.1505
  868SOL    HW1 2603   1.894   1.114   0.116 -2.3812  2.5018 -2.1017
  868SOL    HW2 2604   1.918   1.033   0.267  1.7944  1.1322 -1.1478
  869SOL     OW 2605   2.956   2.042   0.610 -0.0840  0.7225  0.3756
  869SOL    HW1 2606   2.874   2.101   0.606 -1.2319 -0.7530  0.2393
  869SOL    HW2 2607   3.040   2.097   0.617  2.7978  0.3495 -0.4400
  870SOL     OW 2608   2.080   1.974   0.356  0.4659  0.0946 -0.3036
  870SOL    HW1 2609   2.052   1.891   0.407  2.8147 -2.0982  0.4050
  870SOL    HW2 2610   2.093   1.952   0.260  2.7462  1.4958  2.2231
  871SOL     OW 2611   0.604   1.221   0.980 -0.4221 -0.3394 -0.1431
  871SOL    HW1 2612   0.509   1.216   1.021 -0.0973 -4.9817  0.3741
  871SOL    HW2 2613   0.667   1.263   1.052  1.0079  3.5367  0.6374
  872SOL     OW 2614   1.093   1.832   1.944  0.2629 -0.5644  0.1318
  872SOL    HW1 2615   1.104   1.931   1.952 -0.4268 -0.0755  0.9090
  872SOL    HW2 2616   1.063   1.788   2.034 -0.0769 -0.0542 -1.3003
  873SOL     OW 2617   0.498   2.443   1.989  0.1897 -0.3368  0.5662
  873SOL    HW1 2618   0.514   2.438   2.087 -1.0226 -0.5059 -1.4714
  873SOL    HW2 2619   0.403   2.478   1.975  0.8510 -1.0185  0.4090
  874SOL     OW 2620   0.785   0.034   1.214  0.0193  0.0480  0.0029
  874SOL    HW1 2621   0.739   0.045   1.308  0.6430  3.4052  2.4575
  874SOL    HW2 2622   0.715   0.049   1.141 -0.3136 -1.4164 -0.2791
  875SOL     OW 2623   2.907   0.422   1.120  0.2790  0.0412  0.6765
  875SOL    HW1 2624   2.987   0.486   1.116  1.4275 -0.2784  0.7687
  875SOL    HW2 2625   2.869   0.421   1.212  1.4702 -1.0471  0.7742
  876SOL     OW 2626   0.697   0.801   0.208 -0.2115  0.5948 -0.0276
  876SOL    HW1 2627   0.723   0.893   0.231  0.9897 -2.6433 -4.8531
  876SOL    HW2 2628   0.612   0.798   0.149 -2.3115  0.6558 -2.0350
  877SOL     OW 2629   0.518   0.425   1.539 -0.5605 -0.3486 -0.9214
  877SOL    HW1 2630   0.608   0.452   1.497 -0.8199 -0.1338  1.9093
  877SOL    HW2 2631   0.467   0.511   1.545  2.2619 -1.4697 -0.9987
  878SOL     OW 2632   2.291   2.690   0.363 -0.2098  0.2275 -0.0549
  878SOL    HW1 2633   2.231   2.670   0.286  1.5192 -0.8052  0.1049
  878SOL    HW2 2634   2.263   2.773   0.421  1.3955  1.8274 -0.2139
  879SOL     OW 2635   2.583   1.465   1.304 -0.3482  0.1343 -0.0300
  879SOL    HW1 2636   2.566   1.438   1.208  0.1221  0.6506  1.7838
  879SOL    HW2 2637   2.551   1.562   1.319  0.0642  3.2992  2.1790
  880SOL     OW 2638   1.432   2.457   0.550 -0.3531  0.0111 -0.5549
  880SOL    HW1 2639   1.501   2.395   0.505  0.2804  0.1168 -3.5557
  880SOL    HW2 2640   1.338   2.436   0.523 -1.8291  2.0535 -1.6841
  881SOL     OW 2641   1.030   2.489   0.316  0.6872  0.0959 -0.3219
  881SOL    HW1 2642   1.089   2.549   0.255 -0.6228  0.0173  1.7872
  881SOL    HW2 2643   1.087   2.416   0.355  1.8947  0.5663 -0.3228
  882SOL     OW 2644   1.833   0.772   1.151  0.4014  0.0342  0.4377
  882SOL    HW1 2645   1.852   0.694   1.212 -1.5454  0.4253 -1.3850
  882SOL    HW2 2646   1.733   0.797   1.165 -2.0387  0.4682  1.1608
  883SOL     OW 2647   1.543   0.817   1.565  0.4368 -0.0322  0.5050
  883SOL    HW1 2648   1.644   0.817   1.589 -1.0886  0.0837  2.0173
  883SOL    HW2 2649   1.521   0.752   1.492 -1.7014  1.9519  0.1666
  884SOL     OW 2650   2.817   0.564   0.153  0.3106 -0.7182 -0.0190
  884SOL    HW1 2651   2.737   0.613   0.200 -2.9948 -1.1855  0.1470
  884SOL    HW2 2652   2.904   0.623   0.142  2.2397 -1.5647 -3.4060
  885SOL     OW 2653   1.302   1.749   3.021 -0.3582  0.3088 -0.4481
  885SOL    HW1 2654   1.206   1.716   3.019  1.7627  0.6470 -0.2469
  885SOL    HW2 2655   1.319   1.769   2.922  0.1203  0.7999 -0.7076
  886SOL     OW 2656   1.673   1.436   2.713  0.1742 -0.0388  0.3666
  886SOL    HW1 2657   1.697   1.533   2.731  0.0138 -1.1220 -3.2105
  886SOL    HW2 2658   1.667   1.396   2.810 -0.6472  0.1477  1.6887
  887SOL     OW 2659   1.465   0.145   1.581  0.4598  1.0773 -0.4775
  887SOL    HW1 2660   1.422   0.209   1.650  0.3955  1.0273 -0.6361
  887SOL    HW2 2661   1.569   0.159   1.588  3.2025 -2.1169  2.2801
  888SOL     OW 2662   2.518   0.533   1.648 -0.0439 -0.5929  0.2322
  888SOL    HW1 2663   2.600   0.484   1.679  0.1545 -0.7790 -1.3987
  888SOL    HW2 2664   2.557   0.601   1.582 -1.4200 -0.9693 -0.7137
  889SOL     OW 2665   0.042   2.717   0.749  0.1354 -0.4527  0.0160
  889SOL    HW1 2666   0.015   2.636   0.807  0.1841  0.6651 -0.5520
  889SOL    HW2 2667   0.045   2.701   0.648 -3.9856 -1.8731 -0.0401
  890SOL     OW 2668   2.052   2.423   0.148 -0.4856 -0.6089  0.2147
  890SOL    HW1 2669   2.104   2.509   0.123 -1.0168 -0.3485  3.4569
  890SOL    HW2 2670   2.108   2.340   0.130  0.4061  0.3232 -0.0057
  891SOL     OW 2671   0.545   1.306   2.671  0.4735  0.2797  0.1774
  891SOL    HW1 2672   0.631   1.254   2.655  0.5319  0.3039  1.3886
  891SOL    HW2 2673   0.491   1.332   2.588 -3.0750  3.9960  1.5731
  892SOL     OW 2674   0.075   0.026   1.230  0.1750  0.2236 -0.0703
  892SOL    HW1 2675   0.137   0.107   1.254  3.1930  0.1203  0.3714
  892SOL    HW2 2676   0.002   0.065   1.171  0.0961 -3.2108 -2.8358
  893SOL     OW 2677   1.375   0.208   1.345  0.2161 -0.6932  0.1316
  893SOL    HW1 2678   1.395   0.171   1.437 -1.0000  0.4135 -1.8391
  893SOL    HW2 2679   1.291   0.267   1.352 -0.2006 -0.2073  0.0075
  894SOL     OW 2680   2.324   0.836   0.695 -0.2864  0.0098 -0.3149
  894SOL    HW1 2681   2.232   0.851   0.732 -2.4317 -0.4314  0.7826
  894SOL    HW2 2682   2.390   0.908   0.718  0.0021 -1.1280 -0.3199
  895SOL     OW 2683   1.947   1.598   2.487  0.0391  0.1190 -0.5217
  895SOL    HW1 2684   1.979   1.636   2.579 -0.1856 -0.5509 -2.6442
  895SOL    HW2 2685   2.013   1.543   2.432 -4.0215  2.6605 -0.2720
  896SOL     OW 2686   1.517   0.078   1.946  0.3235  0.5955  0.2070
  896SOL    HW1 2687   1.518   0.180   1.950 -2.2630  2.5653  3.2738
  896SOL    HW2 2688   1.573   0.049   1.865  1.2270 -0.0708 -2.0287
  897SOL     OW 2689   0.683   1.658   1.991  0.1808 -0.1322 -0.0536
  897SOL    HW1 2690   0.768   1.625   1.942  0.0228 -0.0808  0.2424
  897SOL    HW2 2691   0.688   1.757   1.987  4.2385 -1.2216  3.1425
  898SOL     OW 2692   2.558   2.549   2.272  0.4273  0.6231  0.5158
  898SOL    HW1 2693   2.466   2.537   2.231  2.2989 -1.3703  0.7172
  898SOL    HW2 2694   2.581   2.485   2.347 -1.1714 -2.8168  1.0276
  899SOL     OW 2695   1.207   0.991   1.299 -0.3003 -0.2522  0.4758
  899SOL    HW1 2696   1.140   1.062   1.271  0.4258  0.7361 -1.6606
  899SOL    HW2 2697   1.298   1.038   1.306 -0.2593  1.4966  0.8580
  900SOL     OW 2698   1.541   2.173   2.755 -0.4229  0.3920  0.2825
  900SOL    HW1 2699   1.448   2.134   2.746  2.6989  0.0063 -1.3744
  900SOL    HW2 2700   1.607   2.091   2.741 -0.5821 -3.3244 -2.4458
  901SOL     OW 2701   0.634   2.029   2.709  0.3279 -0.2650 -0.4570
  901SOL    HW1 2702   0.539   1.990   2.729 -1.6410 -0.4810  0.4420
  901SOL    HW2 2703   0.635   2.055   2.608 -2.5189  0.5002  0.8082
  902SOL     OW 2704   2.034   1.562   0.060 -0.2809  0.3949  0.3227
  902SOL    HW1 2705   2.052   1.468   0.035  0.1687  3.3605 -0.9243
  902SOL    HW2 2706   2.081   1.588   0.146 -1.0895  0.0736  1.8797
  903SOL     OW 2707   2.209   1.111   0.226  0.2618  0.0795  0.6394
  903SOL    HW1 2708   2.294   1.132   0.276  0.7625 -0.4491 -2.3595
  903SOL    HW2 2709   2.220   1.094   0.126 -1.1645  0.7430  0.1648
  904SOL     OW 2710   0.772   0.927   2.561  0.1821  0.1258 -0.2831
  904SOL    HW1 2711   0.683   0.933   2.517  2.2521 -0.8362  0.0347
  904SOL    HW2 2712   0.800   1.016   2.602  0.2489  2.0259 -0.1670
  905SOL     OW 2713   2.548   0.432   0.956 -0.1803 -0.0997 -0.2263
  905SOL    HW1 2714   2.584   0.354   0.907 -1.1726 -0.1248  3.3483
  905SOL    HW2 2715   2.534   0.402   1.053 -0.0981  0.1706 -0.1901
  906SOL     OW 2716   2.654   2.202   0.873 -0.9208  0.3918 -0.2727
  906SOL    HW1 2717   2.664   2.195   0.775  0.4931 -0.4548  1.3244
  906SOL    HW2 2718   2.742   2.175   0.921  0.2329  1.8216 -0.7940
  907SOL     OW 2719   1.409   0.459   0.652  0.5588 -0.1949  0.1066
  907SOL    HW1 2720   1.474   0.455   0.580 -3.1988  0.7632  0.2580
  907SOL    HW2 2721   1.353   0.540   0.637 -0.4647 -1.5609 -0.5578
  908SOL     OW 2722   2.142   2.913   1.527  0.6880  0.4453  0.6865
  908SOL    HW1 2723   2.146   2.992   1.462 -0.6611 -2.3018 -1.3605
  908SOL    HW2 2724   2.131   2.952   1.622  0.8840  2.0140  1.0984
  909SOL     OW 2725   2.596   0.729   1.470  0.3269 -0.0837  0.0722
  909SOL    HW1 2726   2.676   0.688   1.426  0.3142 -1.1025  2.7842
  909SOL    HW2 2727   2.619   0.817   1.512 -0.7304 -3.0629  1.4582
  910SOL     OW 2728   1.343   2.814   2.218 -0.3465 -0.0333 -0.1156
  910SOL    HW1 2729   1.276   2.889   2.213  1.7950  1.3067 -2.4845
  910SOL    HW2 2730   1.430   2.850   2.181  0.3313 -0.3055  2.4331
  911SOL     OW 2731   2.030   0.502   1.879  0.1431  0.3456 -0.2239
  911SOL    HW1 2732   2.025   0.399   1.886 -1.4783  2.9159 -1.1787
  911SOL    HW2 2733   2.087   0.528   1.802 -0.4263 -0.8206  0.7136
  912SOL     OW 2734   2.528   1.886   1.486 -0.7819  0.1116 -0.2891
  912SOL    HW1 2735   2.600   1.913   1.416  2.3094  0.2404 -0.3443
  912SOL    HW2 2736   2.533   1.938   1.569 -0.7367 -3.0682 -2.3883
  913SOL     OW 2737   2.735   1.976   1.317 -0.2520 -0.1742 -0.3657
  913SOL    HW1 2738   2.695   2.066   1.300 -2.7722 -1.2693 -0.9088
  913SOL    HW2 2739   2.816   1.974   1.375 -0.6930  1.1667 -2.3920
  914SOL     OW 2740   2.144   1.436   1.449 -0.9821  0.0143  0.4396
  914SOL    HW1 2741   2.220   1.489   1.482 -1.2278 -1.3915  0.2535
  914SOL    HW2 2742   2.159   1.408   1.354 -1.8816  0.8241 -0.9612
  915SOL     OW 2743   0.754   1.349   1.180 -0.0289  0.1158 -0.0196
  915SOL    HW1 2744   0.757   1.343   1.284 -0.3632 -0.3314  0.9234
  915SOL    HW2 2745   0.840   1.391   1.149 -0.0570 -0.0015  0.2414
  916SOL     OW 2746   2.367   2.410   1.220 -0.1551 -0.0009  0.0139
  916SOL    HW1 2747   2.395   2.332   1.169 -1.4228  1.0683  1.2607
  916SOL    HW2 2748   2.428   2.431   1.299 -0.0392  1.0446 -0.4900
  917SOL     OW 2749   2.378   1.850   0.030 -0.0104 -0.1530 -0.4502
  917SOL    HW1 2750   2.391   1.887   0.128 -2.0766  0.6257  3.0688
  917SOL    HW2 2751   2.460   1.795   0.016  1.0667  1.1262 -1.3161
  918SOL     OW 2752   1.811   2.408   2.459  0.0231 -0.1021  0.5765
  918SOL    HW1 2753   1.806   2.308   2.489  0.6336  0.8110 -0.3599
  918SOL    HW2 2754   1.896   2.451   2.495  1.0869  1.5239  0.3072
  919SOL     OW 2755   1.262   2.039   1.686  0.1745 -0.1656 -0.8973
  919SOL    HW1 2756   1.356   2.027   1.715 -0.4783  2.0933  2.1545
  919SOL    HW2 2757   1.265   2.087   1.598  0.9220  0.6428  4.0868
  920SOL     OW 2758   2.797   0.227   2.616  0.4390 -0.3364  0.2196
  920SOL    HW1 2759   2.870   0.281   2.667  1.8741  1.4989  2.9497
  920SOL    HW2 2760   2.759   0.282   2.541 -0.3890  1.0003 -1.5264
  921SOL     OW 2761   2.730   0.316   2.015 -0.5174 -0.4242 -0.0264
  921SOL    HW1 2762   2.763   0.220   2.016  0.3767 -0.8502 -0.3071
  921SOL    HW2 2763   2.767   0.358   1.931  2.0016 -0.0131  0.7965
  922SOL     OW 2764   1.986   2.230   0.372 -0.2474  0.3576 -1.0266
  922SOL    HW1 2765   1.956   2.276   0.286 -0.3509  1.0244  2.2959
  922SOL    HW2 2766   2.021   2.136   0.359 -0.0650  0.3418 -2.2681
  923SOL     OW 2767   0.254   2.119   0.255 -0.0982 -0.2323  0.5426
  923SOL    HW1 2768   0.207   2.096   0.169  3.7512  0.9599  1.1269
  923SOL    HW2 2769   0.194   2.176   0.318 -0.8517  2.2882  0.9506
  924SOL     OW 2770   0.789   0.478   3.002 -0.5328  0.6934 -0.3377
  924SOL    HW1 2771   0.843   0.432   3.079  0.6093 -1.3740  3.6135
  924SOL    HW2 2772   0.785   0.579   3.019 -0.2826  0.5096 -0.1328
  925SOL     OW 2773   2.370   1.108   0.839  0.8224 -0.6374  0.3235
  925SOL    HW1 2774   2.450   1.135   0.785 -1.7806 -0.5345  1.9869
  925SOL    HW2 2775   2.304   1.184   0.869 -3.2972  1.2930  0.0835
  926SOL     OW 2776   2.949   0.990   0.943 -0.0631 -0.1204  0.2983
  926SOL    HW1 2777   2.902   0.936   1.015 -0.9414  0.6093 -0.7372
  926SOL    HW2 2778   3.014   1.054   0.994 -1.1831  3.1054  0.6714
  927SOL     OW 2779   0.077   1.008   2.936 -0.6357 -0.5133 -0.1401
  927SOL    HW1 2780   0.140   0.974   2.867 -1.3725  0.2823  2.1529
  927SOL    HW2 2781   0.089   1.108   2.959  0.5388  1.4856 -0.9372
  928SOL     OW 2782   3.060   0.435   2.244  0.1511 -0.1633 -0.0577
  928SOL    HW1 2783   0.057   0.478   2.209 -0.7284  0.2123  2.6022
  928SOL    HW2 2784   3.080   0.397   2.336  1.0912 -1.0231  2.4914
  929SOL     OW 2785   3.071   2.866   1.138 -0.1051  0.0948 -0.0494
  929SOL    HW1 2786   0.033   2.950   1.177  0.5929  0.6882  1.3069
  929SOL    HW2 2787   3.070   2.879   1.037 -0.3230  0.9877 -1.2258
  930SOL     OW 2788   1.907   1.571   1.521  0.2551 -0.4151  0.4357
  930SOL    HW1 2789   1.966   1.513   1.463 -0.6218 -1.6344  2.0830
  930SOL    HW2 2790   1.921   1.664   1.499  0.2031 -4.8694 -0.5235
  931SOL     OW 2791   1.268   1.431   0.790 -0.3378 -0.2244  0.7327
  931SOL    HW1 2792   1.299   1.503   0.856  0.0241 -1.3896 -2.5220
  931SOL    HW2 2793   1.248   1.478   0.698 -1.3709  0.2756  0.3148
  932SOL     OW 2794   2.610   1.228   0.981 -0.5427  0.1880  0.0696
  932SOL    HW1 2795   2.623   1.157   1.056 -0.2715  0.2489  2.0154
  932SOL    HW2 2796   2.551   1.304   1.005 -1.6023 -4.2569 -1.7127
  933SOL     OW 2797   2.467   1.704   1.310 -0.1617 -0.3512  0.3521
  933SOL    HW1 2798   2.369   1.679   1.295  0.0774 -5.0657  1.9257
  933SOL    HW2 2799   2.477   1.766   1.391 -0.5767  2.5228 -1.4228
  934SOL     OW 2800   1.793   2.874   1.484  0.0343 -0.4670  0.4359
  934SOL    HW1 2801   1.806   2.963   1.432  0.5903 -0.3163  2.6918
  934SOL    HW2 2802   1.796   2.792   1.418  2.2170 -1.8405 -0.9979
  935SOL     OW 2803   0.223   1.400   0.892  0.2215  0.8526 -0.1606
  935SOL    HW1 2804   0.150   1.458   0.847  1.3304  1.0816 -0.3938
  935SOL    HW2 2805   0.304   1.396   0.825 -1.4181 -2.4083 -1.8864
  936SOL     OW 2806   0.076   1.355   0.578 -0.0854 -0.3461  0.0364
  936SOL    HW1 2807   0.032   1.264   0.596 -2.5524 -1.3584 -0.3084
  936SOL    HW2 2808   0.031   1.427   0.635 -0.7863 -2.3184 -1.1363
  937SOL     OW 2809   1.858   2.660   0.930 -0.2780  0.6065 -0.0881
  937SOL    HW1 2810   1.759   2.680   0.928  3.4307  2.4159  1.2763
  937SOL    HW2 2811   1.915   2.730   0.887 -0.6086 -3.1324 -1.1702
  938SOL     OW 2812   2.656   2.497   0.707 -0.1563  0.2149 -0.0054
  938SOL    HW1 2813   2.576   2.545   0.670  2.6672 -0.9346 -0.3946
  938SOL    HW2 2814   2.632   2.421   0.766  0.3365  0.5058  1.4857
  939SOL     OW 2815   0.451   2.199   0.018  0.4282 -0.2558  0.0643
  939SOL    HW1 2816   0.512   2.285   0.030  0.8593  4.1778  1.2955
  939SOL    HW2 2817   0.453   2.145   0.102  0.1193  0.7551  0.6077
  940SOL     OW 2818   2.927   3.084   2.988 -0.7886  0.2071  0.7401
  940SOL    HW1 2819   2.940   0.050   3.073 -2.0728  0.4885  0.9578
  940SOL    HW2 2820   3.012   0.005   2.934 -1.2407 -0.5351 -1.0452
  941SOL     OW 2821   1.207   0.066   2.821 -1.1664 -0.0266  0.0348
  941SOL    HW1 2822   1.275   0.004   2.867  1.3303 -0.7494  0.4579
  941SOL    HW2 2823   1.260   0.153   2.792  3.5976 -1.6062  0.4036
  942SOL     OW 2824   0.899   1.582   1.454  0.0261  0.1226 -0.3803
  942SOL    HW1 2825   0.941   1.528   1.531  0.1853  1.1985  3.6850
  942SOL    HW2 2826   0.888   1.676   1.489 -0.4952 -4.5801  1.6076
  943SOL     OW 2827   2.070   1.153   1.555  0.4310  0.3188 -0.1857
  943SOL    HW1 2828   2.030   1.134   1.645  0.8642 -0.7876  0.9951
  943SOL    HW2 2829   2.113   1.246   1.556 -0.3021 -0.5566 -0.0452
  944SOL     OW 2830   1.808   0.697   1.593  0.1478  0.2234 -0.0286
  944SOL    HW1 2831   1.778   0.610   1.555  0.5642  1.6819  2.5488
  944SOL    HW2 2832   1.898   0.727   1.552  3.2422  1.4583  1.5486
  945SOL     OW 2833   0.026   2.940   0.894  0.1138  0.4730  0.5078
  945SOL    HW1 2834   0.037   2.855   0.839  2.1460 -1.6197 -1.2359
  945SOL    HW2 2835   0.110   2.997   0.871 -0.0815  1.6582 -2.0714
  946SOL     OW 2836   0.485   0.804   1.547  0.2208  0.2647  0.3065
  946SOL    HW1 2837   0.443   0.760   1.469 -3.9731 -0.0142  1.3508
  946SOL    HW2 2838   0.428   0.879   1.577  1.3258 -0.4384 -0.1939
  947SOL     OW 2839   0.455   2.805   0.690 -0.0319 -0.3669 -0.2878
  947SOL    HW1 2840   0.384   2.765   0.631  1.0631 -0.9984 -1.0105
  947SOL    HW2 2841   0.461   2.759   0.779 -1.3893  0.7864 -0.8333
  948SOL     OW 2842   2.591   1.294   1.893 -0.1132 -1.3216  0.5510
  948SOL    HW1 2843   2.536   1.227   1.939  0.1640  1.2810  0.0858
  948SOL    HW2 2844   2.653   1.246   1.830  0.2858 -3.1260  0.3474
  949SOL     OW 2845   0.448   1.267   2.403 -0.3395 -0.6748  0.7663
  949SOL    HW1 2846   0.477   1.178   2.365 -1.0998 -1.4087  2.6991
  949SOL    HW2 2847   0.347   1.266   2.408  3.4207  1.0249 -0.4775
  950SOL     OW 2848   1.089   0.707   0.798 -0.4867  0.0966 -0.4113
  950SOL    HW1 2849   1.114   0.641   0.871 -0.5060 -0.1626 -0.2139
  950SOL    HW2 2850   1.151   0.701   0.718 -2.4896  0.4243  0.0405
  951SOL     OW 2851   0.953   2.212   2.185 -0.2870  0.3322 -0.0393
  951SOL    HW1 2852   0.966   2.272   2.102  0.9023  2.6327  0.1927
  951SOL    HW2 2853   1.052   2.184   2.205  1.9800 -0.8954 -0.2530
  952SOL     OW 2854   0.509   1.756   0.084 -0.4149 -0.0618 -0.0938
  952SOL    HW1 2855   0.531   1.808   0.168  1.0795  0.8412  0.8045
  952SOL    HW2 2856   0.437   1.686   0.094  2.0569 -0.2811  0.4944
  953SOL     OW 2857   2.045   2.966   2.295  0.3091  0.1200  0.2686
  953SOL    HW1 2858   2.067   3.044   2.233  0.0355  1.4675 -0.0963
  953SOL    HW2 2859   2.038   2.883   2.238  0.7148  2.0277 -2.4148
  954SOL     OW 2860   1.463   1.243   0.809  0.0981  0.2780 -0.5550
  954SOL    HW1 2861   1.528   1.247   0.729 -1.3990 -0.7915  0.0254
  954SOL    HW2 2862   1.395   1.319   0.793  0.5172 -1.3589  0.6418
  955SOL     OW 2863   0.283   2.179   2.377  0.3444  0.2466 -0.1231
  955SOL    HW1 2864   0.282   2.162   2.276  0.2832  0.6010  1.6514
  955SOL    HW2 2865   0.225   2.257   2.409  0.0918 -1.8912  2.3101
  956SOL     OW 2866   1.755   0.470   1.474 -0.5139 -0.1627 -0.3038
  956SOL    HW1 2867   1.775   0.491   1.374  1.2651 -0.1932 -1.1553
  956SOL    HW2 2868   1.656   0.452   1.484  2.4077  1.9095  1.8838
  957SOL     OW 2869   1.952   1.929   2.697  0.2439 -0.4472 -0.2393
  957SOL    HW1 2870   1.992   1.944   2.607 -2.0704 -0.6234  0.8387
  957SOL    HW2 2871   1.851   1.931   2.680 -0.4075 -1.3875 -0.5069
  958SOL     OW 2872   1.154   2.356   0.913 -0.2105 -0.1251  0.4550
  958SOL    HW1 2873   1.176   2.452   0.939 -1.3081 -0.2706  0.0393
  958SOL    HW2 2874   1.083   2.352   0.838  1.0859 -0.1947 -1.8522
  959SOL     OW 2875   1.840   2.243   2.811 -0.2254  0.5413 -0.3124
  959SOL    HW1 2876   1.745   2.235   2.844  0.7994 -2.9418 -0.4085
  959SOL    HW2 2877   1.852   2.207   2.715 -0.7810 -4.4103 -2.0803
  960SOL     OW 2878   3.029   0.228   2.751 -0.1808 -0.3012  0.2316
  960SOL    HW1 2879   0.010   0.159   2.768  0.2906  1.6623 -0.7960
  960SOL    HW2 2880   3.025   0.291   2.830  1.4012  2.8208 -1.1253
  961SOL     OW 2881   0.805   1.218   2.355  0.1217  0.4450 -0.0244
  961SOL    HW1 2882   0.865   1.179   2.281 -2.5793  1.0632  0.4085
  961SOL    HW2 2883   0.852   1.209   2.446  3.0882  2.0105 -1.2358
  962SOL     OW 2884   1.017   1.408   0.065 -0.3602  0.8261 -0.4493
  962SOL    HW1 2885   1.103   1.357   0.075 -2.1125 -0.2662 -2.1499
  962SOL    HW2 2886   0.937   1.357   0.096 -0.9692 -0.0597 -1.8572
  963SOL     OW 2887   2.194   1.682   2.969 -0.0248  0.0911 -0.0615
  963SOL    HW1 2888   2.130   1.652   3.044  2.7948  1.4308  1.0598
  963SOL    HW2 2889   2.256   1.749   3.018  0.1356 -0.3666  0.4154
  964SOL     OW 2890   1.595   2.723   0.976 -0.1070  0.4533 -0.1359
  964SOL    HW1 2891   1.565   2.648   0.916 -0.1193  0.3741  0.3827
  964SOL    HW2 2892   1.521   2.764   1.031 -1.2868 -2.5187 -0.4225
  965SOL     OW 2893   0.888   2.050   0.984  0.5674  0.5294 -0.0522
  965SOL    HW1 2894   0.855   2.064   1.082  0.6403  2.2104 -0.5045
  965SOL    HW2 2895   0.977   1.998   0.977  2.3567 -0.2150 -0.4994
  966SOL     OW 2896   0.035   1.515   0.001 -0.3341  0.6174 -0.2689
  966SOL    HW1 2897   0.003   1.577   3.014 -0.6196 -0.4003 -3.4786
  966SOL    HW2 2898   3.043   1.495   0.060 -0.8135 -0.8740  0.5812
  967SOL     OW 2899   1.735   0.004   1.788 -0.5347  0.2907 -0.1084
  967SOL    HW1 2900   1.782   0.036   1.875 -1.2023  0.6729 -1.2918
  967SOL    HW2 2901   1.777   3.002   1.750  0.5303 -0.4657 -0.9016
  968SOL     OW 2902   1.874   0.808   0.598  0.5772  0.3309 -0.0094
  968SOL    HW1 2903   1.869   0.757   0.686  0.7666 -2.7444  0.1489
  968SOL    HW2 2904   1.909   0.905   0.612 -0.8143  0.4056 -0.1295
  969SOL     OW 2905   0.132   1.412   2.035 -0.3598  0.6376 -0.3378
  969SOL    HW1 2906   0.172   1.499   1.999  0.9881  2.3299 -0.5189
  969SOL    HW2 2907   0.149   1.334   1.968  0.2928  0.2018 -0.8799
  970SOL     OW 2908   2.455   1.436   1.047  0.2180 -0.4331  0.3423
  970SOL    HW1 2909   2.371   1.411   1.096 -1.3622 -1.1652  0.6618
  970SOL    HW2 2910   2.433   1.488   0.961 -0.9437 -0.9269  0.4401
  971SOL     OW 2911   0.465   0.219   1.381 -0.5959  0.4875  0.6766
  971SOL    HW1 2912   0.452   0.291   1.448  1.9829 -0.3447 -1.4196
  971SOL    HW2 2913   0.541   0.156   1.411  1.1508  3.2542 -0.2017
  972SOL     OW 2914   0.707   0.688   2.647 -0.0939  0.1168 -0.1438
  972SOL    HW1 2915   0.748   0.783   2.635 -1.0369 -1.3778 -1.3097
  972SOL    HW2 2916   0.656   0.648   2.569  0.6470 -0.7907  0.7827
  973SOL     OW 2917   0.033   1.146   1.051  0.5162  0.7803 -0.1089
  973SOL    HW1 2918   0.023   1.129   1.155 -1.0583 -1.6665  2.9829
  973SOL    HW2 2919   0.126   1.157   1.019 -3.1630 -2.2766 -0.5877
  974SOL     OW 2920   2.134   0.889   1.772 -0.2857  0.1205 -0.0145
  974SOL    HW1 2921   2.046   0.900   1.727  2.8258  1.3416  0.7077
  974SOL    HW2 2922   2.196   0.824   1.723  1.4365 -1.2918 -4.3185
  975SOL     OW 2923   2.598   3.082   0.240 -0.1628  0.9728  0.1041
  975SOL    HW1 2924   2.535   3.004   0.222 -1.4856 -1.4300  1.5374
  975SOL    HW2 2925   2.596   0.063   0.167 -3.3455  1.4613  0.2063
  976SOL     OW 2926   2.752   1.234   1.680  0.1186 -0.7595 -0.5673
  976SOL    HW1 2927   2.762   1.324   1.633 -1.0878  1.1364 -0.7889
  976SOL    HW2 2928   2.846   1.206   1.702 -2.2965 -0.5746  0.6302
  977SOL     OW 2929   0.930   2.793   3.045 -0.4103  0.3942  0.0985
  977SOL    HW1 2930   0.940   2.895   3.032 -0.6253  0.8586  2.7693
  977SOL    HW2 2931   0.879   2.769   0.040  1.1582 -0.1612  1.2776
  978SOL     OW 2932   0.302   1.674   0.271 -0.0638 -0.0032  0.3172
  978SOL    HW1 2933   0.280   1.578   0.246 -0.8705  2.2435 -1.3697
  978SOL    HW2 2934   0.356   1.678   0.355  1.1888  1.8991 -0.7718
  979SOL     OW 2935   1.558   1.706   1.393 -0.6524 -0.3272 -0.5923
  979SOL    HW1 2936   1.596   1.769   1.462  2.2280  1.0590 -2.1663
  979SOL    HW2 2937   1.570   1.609   1.414  2.8492  1.1441  0.1853
  980SOL     OW 2938   0.451   1.438   1.961  0.0267  0.1775 -0.1367
  980SOL    HW1 2939   0.550   1.464   1.961  1.6045 -1.3686  1.1968
  980SOL    HW2 2940   0.399   1.479   1.887  1.4490 -1.8702  1.6730
  981SOL     OW 2941   2.923   1.462   0.173  0.4005 -0.1361  0.6946
  981SOL    HW1 2942   2.831   1.481   0.215 -0.5716 -0.4358  2.6344
  981SOL    HW2 2943   2.991   1.469   0.245 -2.1838  0.6628  0.5228
  982SOL     OW 2944   2.435   2.484   2.543  0.0508  0.1942  0.1850
  982SOL    HW1 2945   2.365   2.541   2.499  0.4037  0.2792 -2.7098
  982SOL    HW2 2946   2.515   2.533   2.585  0.7530 -1.2952  0.6538
  983SOL     OW 2947   1.470   0.454   1.426  0.0944  0.1387  0.4715
  983SOL    HW1 2948   1.454   0.363   1.385  2.3446 -3.9222  2.7949
  983SOL    HW2 2949   1.401   0.476   1.493  3.3818  1.5225 -2.6247
  984SOL     OW 2950   1.158   0.076   2.562 -0.3857  0.4894  0.5167
  984SOL    HW1 2951   1.101   0.144   2.515 -0.9561 -0.9746  0.5633
  984SOL    HW2 2952   1.162   0.089   2.664 -0.8918 -2.0101  0.8998
  985SOL     OW 2953   1.519   2.256   1.698 -0.6447  0.2460 -0.0274
  985SOL    HW1 2954   1.549   2.290   1.792  1.7882  0.1714  0.7267
  985SOL    HW2 2955   1.529   2.155   1.703  0.4539 -0.7400  0.7771
  986SOL     OW 2956   2.388   3.058   2.279 -0.3062  0.5259  0.0798
  986SOL    HW1 2957   2.356   3.061   2.185  1.8573 -1.6560  2.8319
  986SOL    HW2 2958   2.452   0.046   2.302 -1.0658 -3.4497 -0.8229
  987SOL     OW 2959   2.476   0.447   2.051 -0.1967  0.0844  0.0933
  987SOL    HW1 2960   2.567   0.397   2.037 -0.0871 -1.0156 -1.5907
  987SOL    HW2 2961   2.483   0.523   2.116 -1.4072  1.7396 -0.4812
  988SOL     OW 2962   2.588   0.672   2.518  0.0777 -0.1560  0.7469
  988SOL    HW1 2963   2.529   0.716   2.584  1.5203 -1.5004 -0.7017
  988SOL    HW2 2964   2.530   0.632   2.449  5.2097  1.2276  3.8270
  989SOL     OW 2965   2.316   2.210   2.143  0.2509  0.4811  0.2467
  989SOL    HW1 2966   2.319   2.109   2.116  0.2754  3.0590  2.4643
  989SOL    HW2 2967   2.381   2.224   2.223  1.1238 -3.1354  1.1934
  990SOL     OW 2968   0.328   1.163   2.830 -0.0362 -0.4914 -0.6116
  990SOL    HW1 2969   0.236   1.206   2.857 -2.2786  1.0153 -0.4797
  990SOL    HW2 2970   0.391   1.241   2.798 -0.7598  2.9190 -0.5105
  991SOL     OW 2971   0.785   1.485   2.699 -0.7546  0.1872 -0.0864
  991SOL    HW1 2972   0.687   1.483   2.727  0.2936  2.1222 -2.0539
  991SOL    HW2 2973   0.790   1.553   2.626  0.4616  0.1985  0.6690
  992SOL     OW 2974   2.945   2.081   1.839 -0.1606  0.2309  0.0394
  992SOL    HW1 2975   2.996   2.170   1.823  0.2073  1.2511  0.3988
  992SOL    HW2 2976   2.994   2.005   1.795 -0.4892  2.3645 -1.9923
  993SOL     OW 2977   0.581   0.082   1.026 -0.5892  0.2415  0.3620
  993SOL    HW1 2978   0.523   3.086   1.025 -0.8321 -1.0832  2.3697
  993SOL    HW2 2979   0.641   0.090   0.946 -2.5059 -0.4118  0.1401
  994SOL     OW 2980   0.212   1.838   1.327  0.4166  0.4692 -0.2672
  994SOL    HW1 2981   0.162   1.754   1.343  4.4863 -2.2635 -0.5760
  994SOL    HW2 2982   0.249   1.856   1.419 -0.4690 -1.8843  1.2449
  995SOL     OW 2983   2.153   1.413   2.379  0.3068  0.4168  0.5614
  995SOL    HW1 2984   2.219   1.377   2.442 -0.0317 -1.9895 -0.3914
  995SOL    HW2 2985   2.197   1.455   2.297  0.2820 -0.6209 -1.5439
  996SOL     OW 2986   2.003   1.365   2.782 -0.0949  0.3423 -0.0901
  996SOL    HW1 2987   1.989   1.468   2.794 -0.3907  1.5959  0.1569
  996SOL    HW2 2988   1.922   1.312   2.750  1.9033  1.2750 -1.9298
  997SOL     OW 2989   1.740   0.784   1.845 -0.2497 -0.1544 -0.5002
  997SOL    HW1 2990   1.775   0.768   1.749  0.9242  0.5731 -1.4699
  997SOL    HW2 2991   1.787   0.861   1.889  0.2548 -1.2550  0.0706
  998SOL     OW 2992   2.511   2.205   1.103 -0.1432  0.0708  0.2011
  998SOL    HW1 2993   2.571   2.198   1.018  0.5464  0.6443 -0.8244
  998SOL    HW2 2994   2.567   2.213   1.188 -0.1511  0.1177  1.3569
  999SOL     OW 2995   2.377   2.238   0.652 -0.0500 -0.4868  0.2723
  999SOL    HW1 2996   2.303   2.202   0.712  2.2286  0.6502 -1.1322
  999SOL    HW2 2997   2.338   2.299   0.576 -1.2344  0.2342  0.8529
 1000SOL     OW 2998   1.061   2.881   2.471  0.2434 -0.0790 -0.5121
 1000SOL    HW1 2999   1.109   2.968   2.497 -0.9529 -0.6487 -1.9403
 1000SOL    HW2 3000   1.118   2.799   2.493 -1.0396 -1.6412 -1.5801
   3.08785   3.08785   3.08785
