1000 SPC/Fw water molecules t= 482.00000 step= 482000
 3000
    1SOL     OW    1   2.669   3.095   1.461  0.5186  0.1647 -0.1295
    1SOL    HW1    2   2.678   0.079   1.456 -2.6537 -1.6542 -1.5150
    1SOL    HW2    3   2.613   3.061   1.538 -1.3398  0.3079 -1.6615
    2SOL     OW    4   2.964   2.902   2.846 -0.2773  0.0908  0.2332
    2SOL    HW1    5   2.976   2.800   2.846  0.7704 -2.1005 -0.4381
    2SOL    HW2    6   2.865   2.919   2.834  0.1531  1.1653  2.3733
    3SOL     OW    7   1.071   2.141   0.246  0.2454  0.1731 -0.2929
    3SOL    HW1    8   1.034   2.234   0.236  0.3284 -0.8401 -2.0800
    3SOL    HW2    9   0.994   2.078   0.272  0.0901  1.3637 -0.4860
    4SOL     OW   10   1.282   2.811   2.350 -0.5229  0.1570 -0.4167
    4SOL    HW1   11   1.193   2.795   2.309  4.1553  0.8594  0.5708
    4SOL    HW2   12   1.273   2.799   2.454 -2.0137  1.1071  2.3892
    5SOL     OW   13   1.976   0.309   3.041 -0.4285  0.0728 -0.4858
    5SOL    HW1   14   2.046   0.240   3.069  1.7744 -0.0726  0.9986
    5SOL    HW2   15   1.915   0.339   0.004 -0.1722  2.2373 -0.0623
    6SOL     OW   16   0.175   1.614   0.976 -0.4622 -0.1272 -0.2217
    6SOL    HW1   17   0.172   1.707   1.010  1.1101 -4.3886 -0.4180
    6SOL    HW2   18   0.258   1.602   0.917  0.9885  2.5600 -0.5923
    7SOL     OW   19   1.148   1.815   0.641 -0.3832  0.3500 -0.0688
    7SOL    HW1   20   1.116   1.797   0.739 -0.4645  0.0503  1.0246
    7SOL    HW2   21   1.252   1.817   0.639  0.6809 -0.3930 -0.1824
    8SOL     OW   22   0.396   0.461   0.455 -0.2016  0.1204 -0.4207
    8SOL    HW1   23   0.458   0.470   0.375 -0.7607  1.6715  0.1750
    8SOL    HW2   24   0.361   0.552   0.481  0.1032  1.4552  0.9241
    9SOL     OW   25   0.277   2.696   1.735  0.2177 -0.2040  0.3693
    9SOL    HW1   26   0.344   2.631   1.693  1.4244 -0.3589  1.0297
    9SOL    HW2   27   0.239   2.754   1.659 -1.2829  0.8595 -0.8104
   10SOL     OW   28   1.227   1.487   0.116 -0.1772  0.5054  0.3022
   10SOL    HW1   29   1.304   1.470   0.047  1.5313 -0.4239  3.1728
   10SOL    HW2   30   1.156   1.412   0.104 -0.8715  0.1156  1.2904
   11SOL     OW   31   1.878   0.646   1.670 -0.1374 -0.4685  0.2654
   11SOL    HW1   32   1.918   0.692   1.752 -0.2402  0.7874 -0.8319
   11SOL    HW2   33   1.773   0.648   1.679 -0.9241 -0.8238  0.7034
   12SOL     OW   34   0.444   0.727   2.189  0.1950 -0.1320  0.0331
   12SOL    HW1   35   0.533   0.772   2.152  0.7389  0.4903 -0.6021
   12SOL    HW2   36   0.473   0.646   2.244  0.4399 -0.7515  0.4636
   13SOL     OW   37   2.161   0.188   0.424  0.0118  0.1972 -0.4233
   13SOL    HW1   38   2.112   0.160   0.337 -3.3651  1.2114 -0.6675
   13SOL    HW2   39   2.093   0.213   0.499 -2.4496  0.6877 -0.5205
   14SOL     OW   40   2.490   2.130   0.182  0.5621  0.1665 -0.3897
   14SOL    HW1   41   2.421   2.170   0.242  1.4325  0.2368  0.1749
   14SOL    HW2   42   2.483   2.170   0.087  1.0160  0.8019 -3.3340
   15SOL     OW   43   2.991   2.946   0.011  0.0588  0.0667  0.0362
   15SOL    HW1   44   3.000   2.931   3.025  0.8712 -0.5543 -1.6883
   15SOL    HW2   45   2.895   2.932   0.044  0.9146  1.5006 -0.4166
   16SOL     OW   46   3.084   0.741   1.071  0.0312  0.0944  0.5110
   16SOL    HW1   47   3.082   0.681   1.153  1.0138  0.9437 -0.2179
   16SOL    HW2   48   2.985   0.745   1.034 -3.1258 -2.3990 -3.4055
   17SOL     OW   49   0.665   0.434   1.182 -0.3024 -0.0636 -0.1922
   17SOL    HW1   50   0.743   0.462   1.120  2.4911  1.3648 -1.9309
   17SOL    HW2   51   0.648   0.492   1.262 -1.1867 -1.5416  4.1287
   18SOL     OW   52   2.834   0.121   0.659 -0.2732 -0.0755 -0.2553
   18SOL    HW1   53   2.751   0.131   0.719 -1.6457 -0.0068 -0.0462
   18SOL    HW2   54   2.900   0.194   0.689  3.1259  2.3287 -0.0712
   19SOL     OW   55   2.139   1.621   0.933 -0.3602 -0.5793 -0.2006
   19SOL    HW1   56   2.214   1.666   0.887 -2.7707 -1.8247 -0.1939
   19SOL    HW2   57   2.057   1.679   0.922  3.4280  1.1890 -0.5099
   20SOL     OW   58   2.062   1.638   2.575  0.4672  0.0910 -0.0614
   20SOL    HW1   59   1.977   1.645   2.514 -4.3810  2.0110 -0.3138
   20SOL    HW2   60   2.080   1.729   2.619  0.1154 -1.8240  2.7650
   21SOL     OW   61   1.348   0.408   0.411 -0.6004  0.6309 -0.5939
   21SOL    HW1   62   1.304   0.431   0.322 -0.6388  0.1970 -3.4899
   21SOL    HW2   63   1.384   0.315   0.410  0.2862  1.8518 -1.4981
   22SOL     OW   64   2.466   1.116   3.114  0.1802 -0.2683 -0.3064
   22SOL    HW1   65   2.538   1.164   0.056  1.8139  1.1947  3.1802
   22SOL    HW2   66   2.501   1.048   3.040  2.5879 -1.7997 -1.7917
   23SOL     OW   67   0.486   0.209   2.428 -0.2940  0.2633 -0.6693
   23SOL    HW1   68   0.466   0.150   2.346  2.1453 -0.3865  0.9784
   23SOL    HW2   69   0.592   0.211   2.438 -1.2547  3.6824 -0.1773
   24SOL     OW   70   2.205   2.307   0.926  0.1142 -0.2891 -0.3413
   24SOL    HW1   71   2.211   2.386   0.990  0.0525 -0.9248  0.4264
   24SOL    HW2   72   2.151   2.335   0.843  1.5247 -0.3626  1.2766
   25SOL     OW   73   1.408   0.172   0.109  0.4624  0.3878  0.1378
   25SOL    HW1   74   1.448   0.093   0.158 -1.0262  1.5241  2.9753
   25SOL    HW2   75   1.440   0.170   0.010  2.3997  1.3233 -3.4122
   26SOL     OW   76   1.050   2.713   2.873 -0.4603 -0.2490 -0.1545
   26SOL    HW1   77   0.999   2.739   2.958 -2.4685 -1.1159  0.8665
   26SOL    HW2   78   1.119   2.640   2.896  0.7058 -1.7386 -0.4766
   27SOL     OW   79   1.063   0.549   1.359 -0.2379  0.6019  0.3525
   27SOL    HW1   80   1.082   0.496   1.273  1.4608  0.0765  2.3550
   27SOL    HW2   81   0.983   0.498   1.404 -1.3875 -0.9879  1.6570
   28SOL     OW   82   0.900   1.954   1.138  0.2113  0.2170  0.3260
   28SOL    HW1   83   0.918   1.988   1.042 -0.4722 -0.7232  2.0578
   28SOL    HW2   84   0.813   1.898   1.140 -1.6010 -1.0288 -1.9858
   29SOL     OW   85   2.829   0.776   0.947 -0.3461 -0.5303 -0.6263
   29SOL    HW1   86   2.784   0.774   0.857 -1.1600 -0.6620 -1.9146
   29SOL    HW2   87   2.842   0.875   0.978 -1.4264  2.7638  0.8671
   30SOL     OW   88   1.499   3.068   1.768 -0.5020  0.3089 -0.3388
   30SOL    HW1   89   1.527   3.107   1.677 -0.9700  0.8025 -0.7535
   30SOL    HW2   90   1.408   3.105   1.787 -0.8743  1.1665 -1.5896
   31SOL     OW   91   1.120   0.049   1.299  0.0862 -0.4882  0.0159
   31SOL    HW1   92   1.187   3.089   1.314  1.1412  0.6468  2.0909
   31SOL    HW2   93   1.084   0.054   1.202  0.2012 -0.4758 -0.6761
   32SOL     OW   94   2.444   1.126   2.258  0.3166  0.2157  0.1186
   32SOL    HW1   95   2.501   1.044   2.249  1.0733 -1.6968  1.1753
   32SOL    HW2   96   2.399   1.146   2.170  0.7427 -1.9275  1.7556
   33SOL     OW   97   2.447   2.770   2.602 -0.1267 -0.3710 -0.1423
   33SOL    HW1   98   2.429   2.705   2.525  2.7110  0.7676 -2.8715
   33SOL    HW2   99   2.505   2.847   2.567 -1.4257 -0.7687 -0.6653
   34SOL     OW  100   1.888   0.963   3.097  0.0536  0.3225  0.6459
   34SOL    HW1  101   1.948   0.888   0.009 -1.6153  2.9433  2.9919
   34SOL    HW2  102   1.799   0.941   0.022 -0.9153 -1.3983  0.0170
   35SOL     OW  103   3.037   1.274   1.261 -0.2428 -0.1555 -0.1513
   35SOL    HW1  104   3.093   1.323   1.193 -1.3677 -1.3163 -1.7471
   35SOL    HW2  105   3.052   1.178   1.240 -0.9446  1.0374 -1.6429
   36SOL     OW  106   2.180   2.267   2.610 -0.4237  0.1513  0.4803
   36SOL    HW1  107   2.281   2.266   2.574  2.9370  1.5035  1.6022
   36SOL    HW2  108   2.162   2.353   2.659  1.0732 -3.0603  0.7209
   37SOL     OW  109   1.588   0.132   2.116 -0.2006  0.1550 -0.0628
   37SOL    HW1  110   1.600   0.214   2.173 -1.0301 -1.0152  0.6975
   37SOL    HW2  111   1.614   0.153   2.018 -1.1178  1.1845 -1.4055
   38SOL     OW  112   1.088   1.409   2.291  0.1019 -0.3156  0.0508
   38SOL    HW1  113   1.022   1.472   2.241 -0.5411  0.5074 -2.7337
   38SOL    HW2  114   1.185   1.444   2.271  1.0941 -0.4412 -0.4138
   39SOL     OW  115   1.593   0.366   1.713  0.2843 -0.3096  0.8240
   39SOL    HW1  116   1.495   0.381   1.721  4.8111  2.9186 -0.5083
   39SOL    HW2  117   1.624   0.285   1.768 -0.6043  0.1634  1.2130
   40SOL     OW  118   1.084   2.494   0.551  0.0300  0.5038  0.7122
   40SOL    HW1  119   1.108   2.427   0.479  2.5020 -0.0950 -2.1956
   40SOL    HW2  120   1.163   2.509   0.612  2.3400 -0.4331 -0.0548
   41SOL     OW  121   2.367   2.186   1.210 -0.1140 -0.1184 -0.0788
   41SOL    HW1  122   2.350   2.286   1.217  2.4482  1.7560  1.2957
   41SOL    HW2  123   2.463   2.165   1.232  1.7881 -1.2220  0.9749
   42SOL     OW  124   2.599   0.012   0.448 -0.2590  0.5914  0.0197
   42SOL    HW1  125   2.679   3.101   0.390  0.1130 -0.1834  5.8537
   42SOL    HW2  126   2.610   3.088   0.540  2.7325  0.4061  2.5928
   43SOL     OW  127   0.957   1.538   2.065  0.0095  0.3071 -0.2289
   43SOL    HW1  128   0.949   1.446   2.021  1.4395 -1.4670 -0.6851
   43SOL    HW2  129   1.044   1.585   2.031  0.4054  0.5066  0.8348
   44SOL     OW  130   1.981   2.911   1.039  0.8114  0.4908 -0.2175
   44SOL    HW1  131   1.891   2.887   0.995  0.2894 -1.0003  2.9245
   44SOL    HW2  132   2.051   2.937   0.969 -2.8596 -1.6136 -0.5049
   45SOL     OW  133   0.092   2.200   2.444  0.6443 -0.1443 -0.3179
   45SOL    HW1  134   0.161   2.128   2.426 -2.4307  0.4391 -0.0396
   45SOL    HW2  135   0.139   2.277   2.483 -2.3947 -2.6311 -1.1737
   46SOL     OW  136   0.635   2.623   1.993 -0.0014  0.9753 -0.1489
   46SOL    HW1  137   0.549   2.571   2.008  0.8576 -1.9338 -1.1008
   46SOL    HW2  138   0.711   2.567   2.028 -1.8257  1.5224  2.2022
   47SOL     OW  139   0.378   1.745   0.572 -0.3192 -0.4803  0.0084
   47SOL    HW1  140   0.334   1.838   0.553 -0.9543  1.0276  1.7354
   47SOL    HW2  141   0.346   1.673   0.506  0.1693  1.2272  2.2699
   48SOL     OW  142   0.671   2.806   1.394  0.1405  0.4673 -0.2524
   48SOL    HW1  143   0.629   2.726   1.343  2.9927 -2.7553 -0.0667
   48SOL    HW2  144   0.612   2.890   1.384 -0.6026  1.9731  0.2173
   49SOL     OW  145   0.243   2.831   0.295 -0.2648  0.0915 -0.0738
   49SOL    HW1  146   0.279   2.901   0.229  2.4907 -0.4387  0.4327
   49SOL    HW2  147   0.154   2.786   0.268  0.5718 -2.7918 -2.3463
   50SOL     OW  148   1.594   0.781   0.518 -0.6840  0.3710 -0.6113
   50SOL    HW1  149   1.567   0.763   0.615 -0.3501  0.3612  0.7650
   50SOL    HW2  150   1.657   0.860   0.509 -0.3089  1.1226 -0.5389
   51SOL     OW  151   1.636   0.030   0.641 -0.0781 -0.3016 -0.6381
   51SOL    HW1  152   1.713   3.078   0.644  3.1680  0.8685 -1.0625
   51SOL    HW2  153   1.610   0.069   0.731  0.0958  0.8703  0.9373
   52SOL     OW  154   0.605   1.767   1.002 -0.1283  0.1895  0.4892
   52SOL    HW1  155   0.655   1.700   1.061  0.9513  1.7890 -0.2510
   52SOL    HW2  156   0.566   1.844   1.057 -1.3168 -0.7970  0.4762
   53SOL     OW  157   0.396   1.185   2.680 -0.0144 -0.2409 -0.4684
   53SOL    HW1  158   0.415   1.225   2.770 -1.3989  1.5404 -0.3857
   53SOL    HW2  159   0.366   1.089   2.679  1.5775  0.3760  2.8934
   54SOL     OW  160   2.263   2.009   2.711  0.5673 -0.1195  0.8844
   54SOL    HW1  161   2.222   2.100   2.691  2.1257 -1.4532  1.4326
   54SOL    HW2  162   2.294   2.001   2.809  1.5388 -0.0087 -0.8941
   55SOL     OW  163   2.688   2.165   1.327  0.0167 -0.2513  0.6254
   55SOL    HW1  164   2.762   2.233   1.336  1.7759 -0.4325 -0.8054
   55SOL    HW2  165   2.675   2.121   1.420 -0.5650  1.3868  2.1963
   56SOL     OW  166   1.333   0.868   1.436  0.1098 -0.5072  0.4910
   56SOL    HW1  167   1.435   0.864   1.438 -1.2333 -1.2354  0.5911
   56SOL    HW2  168   1.301   0.829   1.347 -2.5005  2.6846  2.9600
   57SOL     OW  169   2.071   1.896   0.719  0.2785 -0.4784 -0.8580
   57SOL    HW1  170   2.146   1.932   0.779  0.9918  2.2797 -2.2753
   57SOL    HW2  171   2.104   1.839   0.643  0.9128  0.6264 -0.6306
   58SOL     OW  172   1.981   0.277   2.314 -0.0685 -0.1640  0.4637
   58SOL    HW1  173   2.005   0.283   2.412  4.3870 -1.8663 -3.6973
   58SOL    HW2  174   2.033   0.345   2.255 -1.0996  0.2133 -2.3675
   59SOL     OW  175   1.556   0.192   2.755 -0.1625  0.1304 -0.3059
   59SOL    HW1  176   1.655   0.186   2.777  3.6188 -2.1442 -1.8807
   59SOL    HW2  177   1.518   0.113   2.705 -1.6652 -0.7104  4.4347
   60SOL     OW  178   1.741   1.663   2.940 -0.2735  0.2556  0.1185
   60SOL    HW1  179   1.758   1.694   3.036 -1.3224  1.8062  0.0433
   60SOL    HW2  180   1.751   1.741   2.879 -2.9126  0.0590 -0.2146
   61SOL     OW  181   0.384   2.190   2.946 -0.5777  0.0976  0.1635
   61SOL    HW1  182   0.293   2.160   2.922  1.1953 -1.5240  0.9025
   61SOL    HW2  183   0.442   2.196   2.864 -1.3084 -1.0662 -0.0860
   62SOL     OW  184   1.615   2.074   1.227  0.1595 -0.2061  0.4512
   62SOL    HW1  185   1.534   2.030   1.270 -1.6501  0.8974 -2.0784
   62SOL    HW2  186   1.687   2.009   1.214 -0.0906  2.0408  0.0347
   63SOL     OW  187   1.021   2.037   0.560  0.2139  0.1646 -0.0197
   63SOL    HW1  188   0.968   2.009   0.474  2.8598 -0.6926  1.1319
   63SOL    HW2  189   1.067   1.949   0.589 -0.9684  0.7746 -1.8882
   64SOL     OW  190   1.813   1.670   2.453  0.0312  0.1743 -0.2624
   64SOL    HW1  191   1.764   1.592   2.408  0.4421 -1.4675  1.0452
   64SOL    HW2  192   1.834   1.742   2.384  0.8689 -2.3909  1.9475
   65SOL     OW  193   1.894   1.985   1.237  0.2013 -0.3067  0.1281
   65SOL    HW1  194   1.964   2.058   1.263 -1.9541 -0.4501  1.4395
   65SOL    HW2  195   1.936   1.896   1.210  2.2869 -0.7700 -0.3013
   66SOL     OW  196   2.898   0.619   0.508  0.7704 -0.3698  0.4702
   66SOL    HW1  197   2.846   0.609   0.420 -1.9809  0.7868  1.5054
   66SOL    HW2  198   2.844   0.579   0.583  0.7019 -2.4640  1.7305
   67SOL     OW  199   2.190   2.541   1.021  0.3522 -0.3099 -0.2818
   67SOL    HW1  200   2.089   2.562   1.029  0.0294 -0.0822 -2.2760
   67SOL    HW2  201   2.231   2.588   0.940  0.6722  1.2118 -5.5859
   68SOL     OW  202   2.582   2.529   1.675 -0.2008  0.5057 -0.2247
   68SOL    HW1  203   2.519   2.495   1.603 -2.1512 -0.7424 -0.3944
   68SOL    HW2  204   2.567   2.625   1.704  0.2907 -1.2149  1.5721
   69SOL     OW  205   2.701   2.862   2.845 -0.2078 -0.2464 -0.2589
   69SOL    HW1  206   2.674   2.824   2.756 -0.7951 -0.3320  2.4041
   69SOL    HW2  207   2.626   2.892   2.905 -1.7331 -0.4792  1.8481
   70SOL     OW  208   1.348   1.482   2.202 -0.0494  0.2680 -0.0040
   70SOL    HW1  209   1.401   1.469   2.114  1.3658 -1.5252 -1.7428
   70SOL    HW2  210   1.362   1.580   2.230  1.7387 -1.8799 -2.6331
   71SOL     OW  211   1.091   1.837   1.955  0.3841  0.4491 -0.2968
   71SOL    HW1  212   1.112   1.739   1.935 -0.5428 -0.0492  2.5830
   71SOL    HW2  213   1.027   1.874   1.884 -0.4914  1.0829  0.7188
   72SOL     OW  214   2.775   1.372   1.595  0.0597  0.0291 -0.4399
   72SOL    HW1  215   2.752   1.301   1.666 -0.1093 -1.1800  0.8978
   72SOL    HW2  216   2.702   1.378   1.517  1.6977 -0.7595 -1.9995
   73SOL     OW  217   0.738   2.115   2.594 -0.0679  0.2769 -0.3886
   73SOL    HW1  218   0.720   2.163   2.506 -0.2311  0.8469 -2.5878
   73SOL    HW2  219   0.793   2.182   2.650  0.3151  1.1465  2.9649
   74SOL     OW  220   0.747   0.172   2.422  0.8745 -0.0179  0.9301
   74SOL    HW1  221   0.747   0.073   2.419 -0.9944  1.7643  1.6699
   74SOL    HW2  222   0.806   0.207   2.349 -0.3962 -1.6592 -1.1843
   75SOL     OW  223   0.855   3.081   0.639  0.4239  0.3795 -0.6239
   75SOL    HW1  224   0.852   2.980   0.655  0.8232 -0.4286 -0.5503
   75SOL    HW2  225   0.950   0.006   0.656 -0.2572 -1.8224  0.3337
   76SOL     OW  226   0.689   1.220   2.529 -0.1025 -0.2605  0.2457
   76SOL    HW1  227   0.748   1.146   2.480  0.6474 -0.8773  0.7334
   76SOL    HW2  228   0.639   1.266   2.457  1.6343 -2.6652  1.5922
   77SOL     OW  229   0.606   2.664   0.650 -0.1278  0.2907 -0.0868
   77SOL    HW1  230   0.560   2.699   0.567 -0.1894  0.3223 -0.3515
   77SOL    HW2  231   0.681   2.601   0.626  0.6797  2.8941  1.9128
   78SOL     OW  232   2.750   1.134   2.549  0.1602  0.3205 -0.0653
   78SOL    HW1  233   2.850   1.133   2.533  1.4009 -1.1063  0.9906
   78SOL    HW2  234   2.713   1.044   2.524  0.5826 -0.2842  2.6946
   79SOL     OW  235   1.034   1.513   2.538  0.1687 -0.1325  0.6334
   79SOL    HW1  236   1.007   1.441   2.471 -0.1562 -1.4420  2.8663
   79SOL    HW2  237   0.958   1.580   2.524  0.8982 -0.3724  1.2389
   80SOL     OW  238   2.137   0.917   1.477 -0.0662  0.3498 -0.3299
   80SOL    HW1  239   2.112   1.012   1.440  1.7000  1.3637 -3.2138
   80SOL    HW2  240   2.236   0.907   1.462 -1.5517  0.3116 -1.4972
   81SOL     OW  241   2.252   0.763   2.824  0.2822 -0.1252 -0.3694
   81SOL    HW1  242   2.184   0.834   2.831 -1.8249 -1.5195 -1.9954
   81SOL    HW2  243   2.233   0.683   2.884  1.5595 -0.7093  1.8130
   82SOL     OW  244   2.427   1.879   1.483  0.5896 -0.2797  0.5017
   82SOL    HW1  245   2.509   1.824   1.469 -3.5484 -1.9276  1.5681
   82SOL    HW2  246   2.371   1.835   1.557  0.0371  1.0406  0.7702
   83SOL     OW  247   2.095   2.964   0.244  0.4120 -0.3984  0.5495
   83SOL    HW1  248   2.000   2.948   0.283 -1.4795  2.4783  0.0815
   83SOL    HW2  249   2.144   2.882   0.203  0.7296  1.1966 -1.1490
   84SOL     OW  250   0.763   0.816   0.772  0.3411 -0.1147 -0.3046
   84SOL    HW1  251   0.804   0.892   0.827 -0.5864  2.4892  3.3978
   84SOL    HW2  252   0.693   0.767   0.833 -1.2096  0.2417  0.3595
   85SOL     OW  253   2.213   1.599   1.208  0.1576  0.5296 -0.4862
   85SOL    HW1  254   2.172   1.598   1.113 -2.1809  0.4012  0.8389
   85SOL    HW2  255   2.221   1.694   1.242  0.5132 -1.0579 -0.2490
   86SOL     OW  256   0.599   0.841   1.293  0.3719  0.0334 -0.1032
   86SOL    HW1  257   0.530   0.860   1.220 -0.0356 -0.3996 -0.5001
   86SOL    HW2  258   0.659   0.921   1.305 -2.3715 -0.5833  2.8749
   87SOL     OW  259   3.052   2.362   2.320 -0.3931  0.0817 -0.3006
   87SOL    HW1  260   3.093   2.439   2.262 -3.4665  0.2085 -1.4709
   87SOL    HW2  261   0.005   2.296   2.366  3.0512 -2.9355 -0.0424
   88SOL     OW  262   0.324   3.047   0.147  0.4947 -0.5569  0.1440
   88SOL    HW1  263   0.426   3.044   0.133  0.0395  0.3299  1.3651
   88SOL    HW2  264   0.290   0.031   0.157 -2.7648  0.0990  2.9326
   89SOL     OW  265   1.394   0.367   1.406  0.6847 -0.8182  0.4639
   89SOL    HW1  266   1.360   0.429   1.335  1.9489 -1.0020 -2.0037
   89SOL    HW2  267   1.382   0.411   1.498  0.1091  0.2537 -0.5653
   90SOL     OW  268   0.089   1.316   1.944  0.0206  0.0911 -0.1424
   90SOL    HW1  269   0.055   1.402   1.988  2.1719 -0.1775  0.9432
   90SOL    HW2  270   0.128   1.332   1.847 -0.9731 -0.3314 -3.2053
   91SOL     OW  271   1.882   2.690   0.823  0.4192  0.8111  0.1690
   91SOL    HW1  272   1.952   2.663   0.758 -1.0404 -1.5737 -1.6668
   91SOL    HW2  273   1.897   2.636   0.907  2.4647  1.6639 -0.9153
   92SOL     OW  274   1.835   1.994   0.813 -0.0965 -0.5635 -0.8527
   92SOL    HW1  275   1.933   1.977   0.808 -3.3766 -1.1055  1.2807
   92SOL    HW2  276   1.800   2.006   0.722  0.3187  0.6050  1.3071
   93SOL     OW  277   0.329   1.273   0.419 -0.6093 -0.8603 -0.1100
   93SOL    HW1  278   0.298   1.175   0.402  0.7577 -2.1037 -1.2946
   93SOL    HW2  279   0.391   1.273   0.497 -1.4332 -0.1766 -2.8743
   94SOL     OW  280   0.754   2.465   0.939 -0.4845  0.5843 -0.0950
   94SOL    HW1  281   0.856   2.479   0.932  3.6018  0.6530 -0.6903
   94SOL    HW2  282   0.723   2.420   1.027  0.6761 -0.1359  0.2274
   95SOL     OW  283   0.383   0.728   0.466 -0.4358 -0.3301 -0.3599
   95SOL    HW1  284   0.314   0.760   0.539 -0.8676 -2.1035 -1.0670
   95SOL    HW2  285   0.478   0.763   0.483  0.6483 -1.6668  0.4568
   96SOL     OW  286   0.833   2.424   2.043 -0.1288 -0.0658 -0.3827
   96SOL    HW1  287   0.935   2.435   2.043 -3.2957 -0.8836  0.4533
   96SOL    HW2  288   0.802   2.340   1.991 -0.2406 -2.1402  2.5732
   97SOL     OW  289   2.325   0.888   0.345  0.3780  0.2764  0.1778
   97SOL    HW1  290   2.349   0.973   0.398  0.6494  1.8875 -0.6119
   97SOL    HW2  291   2.297   0.919   0.249 -1.5098  0.8690 -0.7928
   98SOL     OW  292   0.295   2.028   1.913  0.5364  0.3950  0.3407
   98SOL    HW1  293   0.298   1.989   1.815 -0.9696 -0.9079 -1.2909
   98SOL    HW2  294   0.206   2.066   1.941  1.7227  0.6698 -1.1546
   99SOL     OW  295   0.173   0.451   2.024  0.1075  0.3073  0.0749
   99SOL    HW1  296   0.169   0.464   1.924 -0.8683 -3.0344 -0.1673
   99SOL    HW2  297   0.235   0.369   2.037 -0.2657 -0.6054  0.5857
  100SOL     OW  298   2.045   0.586   2.540  0.1658 -0.0003  0.3653
  100SOL    HW1  299   2.137   0.539   2.523  1.1632 -1.9065  0.2774
  100SOL    HW2  300   2.054   0.680   2.561 -1.0161 -0.7836  3.2658
  101SOL     OW  301   1.210   0.005   1.783 -0.0350 -0.1851 -0.2330
  101SOL    HW1  302   1.157   3.083   1.704 -1.2405  2.9023  2.3790
  101SOL    HW2  303   1.168   3.096   1.870 -1.8933 -0.8879  2.9722
  102SOL     OW  304   0.438   0.760   1.601 -0.4217 -0.0979  0.3667
  102SOL    HW1  305   0.354   0.754   1.543 -0.1392 -0.7794  2.3993
  102SOL    HW2  306   0.414   0.754   1.702 -0.4021 -1.4201  0.7864
  103SOL     OW  307   0.325   0.900   3.038 -0.2654  0.3873 -0.0249
  103SOL    HW1  308   0.307   0.808   3.081 -0.2026 -0.3101  0.6991
  103SOL    HW2  309   0.417   0.904   2.994  1.2498  0.8537 -0.8764
  104SOL     OW  310   0.588   2.850   1.869  0.0142  0.1810 -0.1085
  104SOL    HW1  311   0.576   2.751   1.891  0.8583 -0.4150  0.2622
  104SOL    HW2  312   0.574   2.904   1.958 -2.0996 -1.1537  2.1477
  105SOL     OW  313   2.561   2.789   2.049 -0.2513  0.2417 -0.1104
  105SOL    HW1  314   2.609   2.868   2.012 -1.7919  0.0513 -0.0497
  105SOL    HW2  315   2.510   2.807   2.137 -1.1163 -0.0225  2.9387
  106SOL     OW  316   0.556   2.923   0.795 -0.2804 -0.2438 -0.0998
  106SOL    HW1  317   0.641   2.977   0.811  0.3054 -0.2895  0.5158
  106SOL    HW2  318   0.577   2.855   0.726  0.0227  2.7646  3.2176
  107SOL     OW  319   3.030   1.845   1.002  0.5673 -0.1482  0.2152
  107SOL    HW1  320   0.018   1.866   1.001 -0.5534  0.1299 -0.7823
  107SOL    HW2  321   3.004   1.776   1.074 -1.6424 -1.3249 -1.1491
  108SOL     OW  322   0.409   2.156   0.932  0.3066  0.2884 -0.5568
  108SOL    HW1  323   0.361   2.110   0.856  0.7737 -1.0659 -1.1941
  108SOL    HW2  324   0.485   2.212   0.898 -4.9075 -1.1348 -0.0300
  109SOL     OW  325   1.428   2.950   0.603  0.4419  0.3324 -0.1898
  109SOL    HW1  326   1.383   2.914   0.690 -0.6123 -0.3664  1.2406
  109SOL    HW2  327   1.494   3.026   0.619 -0.5329  1.4550  0.6418
  110SOL     OW  328   1.468   1.930   0.431  0.4172 -0.5402 -0.5220
  110SOL    HW1  329   1.554   1.927   0.379  0.1706 -0.6167  0.1647
  110SOL    HW2  330   1.466   2.009   0.498 -1.2171 -1.8885 -0.4861
  111SOL     OW  331   1.738   2.812   2.239  0.2934  0.1313  0.4599
  111SOL    HW1  332   1.645   2.773   2.231  0.0445 -1.0210 -0.9440
  111SOL    HW2  333   1.737   2.914   2.239  0.1624 -1.2442  0.7362
  112SOL     OW  334   1.905   2.496   2.805  0.1140  0.3727  0.1154
  112SOL    HW1  335   2.001   2.498   2.773  0.2421 -0.7049  0.8647
  112SOL    HW2  336   1.891   2.576   2.859  1.7544 -1.6160 -1.2544
  113SOL     OW  337   2.267   2.122   2.026 -0.6889  0.1958  0.3701
  113SOL    HW1  338   2.337   2.132   2.105  2.6404  1.3700  2.3737
  113SOL    HW2  339   2.277   2.206   1.968  0.0535  0.2798 -2.8758
  114SOL     OW  340   0.139   1.365   1.694 -0.2839 -0.1973  0.0143
  114SOL    HW1  341   0.186   1.285   1.651 -0.7249  2.5353 -0.0749
  114SOL    HW2  342   0.142   1.448   1.637 -1.4137  0.9557  0.6287
  115SOL     OW  343   2.780   0.639   3.001  0.1362 -0.1543  0.4071
  115SOL    HW1  344   2.778   0.711   2.929 -0.5476  1.2248 -0.2711
  115SOL    HW2  345   2.800   0.677   3.094  3.3676  1.5674 -0.5433
  116SOL     OW  346   2.917   0.223   0.118 -0.1358 -0.0127  0.1789
  116SOL    HW1  347   2.932   0.295   0.046 -1.9292 -0.7618  0.4191
  116SOL    HW2  348   3.001   0.168   0.140  0.7462 -0.6997 -3.5866
  117SOL     OW  349   2.742   2.780   0.792  0.0923  0.0758  0.4231
  117SOL    HW1  350   2.748   2.738   0.694 -1.0832 -0.6859  1.5648
  117SOL    HW2  351   2.717   2.709   0.862  0.6419  0.2383 -0.2637
  118SOL     OW  352   1.200   2.127   2.042 -0.2567  0.7651 -0.4080
  118SOL    HW1  353   1.192   2.035   2.008 -1.1743  0.8092  0.8763
  118SOL    HW2  354   1.211   2.134   2.143 -2.9601  2.0057 -1.7297
  119SOL     OW  355   0.720   2.541   0.273 -0.1700 -0.3442  0.4793
  119SOL    HW1  356   0.625   2.530   0.232  0.0981  0.1655  0.2988
  119SOL    HW2  357   0.739   2.637   0.300 -1.5834 -0.7476 -1.6492
  120SOL     OW  358   1.337   0.976   0.254 -0.6233  0.4155  0.7924
  120SOL    HW1  359   1.341   0.877   0.269 -1.4357  0.4298  1.8074
  120SOL    HW2  360   1.254   1.001   0.206  3.1012 -0.8663  0.1943
  121SOL     OW  361   1.632   0.978   0.965  0.3794  0.3257  0.2774
  121SOL    HW1  362   1.600   0.917   1.037 -1.5516 -0.8117  0.6952
  121SOL    HW2  363   1.572   0.969   0.883  0.0567 -1.4023 -2.0730
  122SOL     OW  364   2.086   1.474   2.177 -0.1417 -0.0682 -0.6199
  122SOL    HW1  365   2.005   1.426   2.217 -0.4022  0.9906  0.0917
  122SOL    HW2  366   2.180   1.446   2.220  0.1030  0.8631  0.9863
  123SOL     OW  367   0.214   1.037   0.757 -0.7047 -0.1681  0.1982
  123SOL    HW1  368   0.198   1.106   0.686  1.0686 -1.5038 -0.5261
  123SOL    HW2  369   0.203   0.944   0.721 -0.8328  1.6264 -0.0939
  124SOL     OW  370   0.815   0.174   2.894 -0.0518 -0.1341 -0.1987
  124SOL    HW1  371   0.789   0.213   2.804  0.4428 -2.5571  0.5177
  124SOL    HW2  372   0.900   0.217   2.926 -0.5293 -1.5503 -0.9958
  125SOL     OW  373   0.662   2.875   3.057 -0.0075  0.4364 -0.4699
  125SOL    HW1  374   0.620   2.785   3.059 -0.8111  1.9370 -1.9391
  125SOL    HW2  375   0.651   2.921   2.970  3.5740  2.0964  0.2732
  126SOL     OW  376   0.616   1.534   2.721  0.6857 -0.6610  0.4608
  126SOL    HW1  377   0.642   1.543   2.623  1.6163 -2.6177 -2.5637
  126SOL    HW2  378   0.698   1.530   2.780 -2.6936  2.1590  0.5160
  127SOL     OW  379   1.113   2.750   0.785  0.0631 -0.3679  0.2510
  127SOL    HW1  380   1.021   2.791   0.758  2.4331  2.8408  1.5332
  127SOL    HW2  381   1.184   2.819   0.806 -0.0253  2.4441 -0.4673
  128SOL     OW  382   1.813   2.068   0.126 -0.0133  0.0483  0.2585
  128SOL    HW1  383   1.735   2.014   0.164 -1.4019  1.9746  2.6136
  128SOL    HW2  384   1.868   2.028   0.048 -0.5298 -0.3230  0.3068
  129SOL     OW  385   2.021   1.766   1.474 -0.2576  0.2688 -0.0328
  129SOL    HW1  386   2.120   1.777   1.491 -1.1273  1.7787  4.3238
  129SOL    HW2  387   1.998   1.756   1.374 -0.7268  0.6362 -2.1494
  130SOL     OW  388   2.120   1.559   1.729  0.3051  0.2594  0.2438
  130SOL    HW1  389   2.018   1.572   1.731  0.4716 -4.1986 -1.8936
  130SOL    HW2  390   2.157   1.565   1.825  0.4889  0.2885  0.9727
  131SOL     OW  391   0.877   2.810   2.046  0.4457  0.2330 -0.2354
  131SOL    HW1  392   0.925   2.806   1.958 -0.1671  1.3021  1.9523
  131SOL    HW2  393   0.776   2.793   2.035 -1.6164  4.3957  1.5023
  132SOL     OW  394   2.493   1.463   0.729 -0.4689 -0.2487  0.0889
  132SOL    HW1  395   2.474   1.561   0.705 -0.4007  0.7135 -1.8466
  132SOL    HW2  396   2.549   1.417   0.665 -1.9418  0.6153  0.9189
  133SOL     OW  397   0.817   1.635   1.822 -0.1698 -0.2097 -0.5029
  133SOL    HW1  398   0.816   1.536   1.833  2.1781 -1.8406 -1.4578
  133SOL    HW2  399   0.778   1.683   1.904 -0.4455 -1.0585 -2.2254
  134SOL     OW  400   0.065   1.132   0.958  0.2546  0.3303 -0.0588
  134SOL    HW1  401   3.085   1.125   0.918 -0.2875  0.3487  3.0005
  134SOL    HW2  402   0.129   1.078   0.900 -2.2170 -0.4563  4.0041
  135SOL     OW  403   2.125   1.752   2.970  0.0410  0.1863  0.3980
  135SOL    HW1  404   2.140   1.712   3.064 -1.1805 -2.1603 -1.0770
  135SOL    HW2  405   2.110   1.674   2.905  0.4636 -0.6377 -1.1119
  136SOL     OW  406   3.016   1.672   1.231  0.6912  0.1005 -0.1952
  136SOL    HW1  407   3.114   1.655   1.234 -0.8150  0.9079  0.7083
  136SOL    HW2  408   2.986   1.753   1.282 -1.1836 -3.1034  1.1778
  137SOL     OW  409   2.765   1.311   2.768  0.0129  0.1554 -0.1335
  137SOL    HW1  410   2.738   1.236   2.706  0.1830  4.0303 -1.6979
  137SOL    HW2  411   2.701   1.314   2.843  0.1771 -1.1409 -1.2334
  138SOL     OW  412   2.835   0.455   0.979 -0.4581 -0.7776  0.1484
  138SOL    HW1  413   2.739   0.435   1.001  2.7448  1.1371 -2.6923
  138SOL    HW2  414   2.853   0.557   0.979 -3.6101 -1.1039  0.9840
  139SOL     OW  415   1.922   2.165   2.840  0.4047  0.4117 -0.0877
  139SOL    HW1  416   1.841   2.205   2.884  1.3870  1.7831  0.9116
  139SOL    HW2  417   1.905   2.141   2.743 -0.3050 -0.9850  1.2983
  140SOL     OW  418   0.985   1.702   0.842  0.6400  0.1737  0.1203
  140SOL    HW1  419   0.932   1.788   0.829 -0.4928 -0.6504 -1.0919
  140SOL    HW2  420   0.941   1.626   0.786 -2.9301 -0.3030 -0.0615
  141SOL     OW  421   1.423   1.545   1.046  0.5597  0.2287  0.1365
  141SOL    HW1  422   1.362   1.580   0.974  1.1218 -0.3654 -1.7621
  141SOL    HW2  423   1.515   1.516   1.014 -0.6745 -1.4318  0.3477
  142SOL     OW  424   1.250   0.787   1.172  0.9489 -0.0354  0.6226
  142SOL    HW1  425   1.164   0.798   1.119 -0.9414  0.9175 -1.0557
  142SOL    HW2  426   1.275   0.691   1.179 -4.1176  0.6063  2.0173
  143SOL     OW  427   0.398   0.177   3.020  0.0060 -0.2429 -0.0455
  143SOL    HW1  428   0.433   0.255   2.965 -0.2203  0.7183 -0.0821
  143SOL    HW2  429   0.307   0.193   3.060 -1.5353 -0.1382  0.9779
  144SOL     OW  430   2.292   0.406   0.333  0.2427 -0.2305 -0.4041
  144SOL    HW1  431   2.376   0.375   0.377 -2.1481  0.5626 -0.1609
  144SOL    HW2  432   2.207   0.360   0.366 -1.7821 -0.8054 -2.3368
  145SOL     OW  433   2.233   3.027   2.816 -0.1580 -0.2111 -0.2432
  145SOL    HW1  434   2.191   2.974   2.745  2.1913  2.3048  0.2182
  145SOL    HW2  435   2.251   0.006   2.783 -2.5697 -1.3947  1.3566
  146SOL     OW  436   2.806   2.802   0.336  0.3104  0.1063 -0.1556
  146SOL    HW1  437   2.784   2.899   0.317 -0.6023  1.4098 -0.1454
  146SOL    HW2  438   2.783   2.745   0.257 -0.3162  0.8875  1.6375
  147SOL     OW  439   1.635   0.985   0.148  0.3777  0.0048  0.0466
  147SOL    HW1  440   1.542   1.014   0.167 -0.3565 -1.9925  2.0024
  147SOL    HW2  441   1.637   0.901   0.086 -1.4726 -0.9380 -0.9580
  148SOL     OW  442   1.062   0.158   0.058  0.0109 -0.6311  0.0416
  148SOL    HW1  443   0.971   0.198   0.077  1.2142  2.3527  0.2036
  148SOL    HW2  444   1.136   0.180   0.124 -0.5247  2.6664  0.9647
  149SOL     OW  445   1.390   0.623   2.566  0.5063 -0.3222  0.6518
  149SOL    HW1  446   1.300   0.665   2.532 -3.0015  0.6574 -1.5209
  149SOL    HW2  447   1.390   0.522   2.549 -1.1792 -0.0050 -0.5844
  150SOL     OW  448   1.521   2.857   2.758 -0.1252 -0.0592 -0.5708
  150SOL    HW1  449   1.523   2.893   2.854  0.1340 -0.1984  0.9414
  150SOL    HW2  450   1.511   2.757   2.759  1.5069 -0.6018 -1.8022
  151SOL     OW  451   0.119   1.076   0.163  0.2752  0.0227 -0.3774
  151SOL    HW1  452   0.171   1.141   0.102  0.7884  0.7633  0.0479
  151SOL    HW2  453   0.173   1.052   0.249  0.4421  2.5548  0.6663
  152SOL     OW  454   0.638   0.188   1.556 -0.2682 -0.4219  0.2435
  152SOL    HW1  455   0.666   0.252   1.630 -2.2886 -2.4936 -1.1052
  152SOL    HW2  456   0.715   0.176   1.492 -1.7343  1.9114  2.6018
  153SOL     OW  457   2.488   2.991   1.637 -0.1652 -0.2879  0.5771
  153SOL    HW1  458   2.437   3.054   1.696  0.6566 -1.2192 -3.4519
  153SOL    HW2  459   2.435   2.912   1.606 -0.6106  0.8835  0.2054
  154SOL     OW  460   2.219   0.460   1.897  0.2056 -0.3548  0.4229
  154SOL    HW1  461   2.170   0.399   1.831  3.2801  2.0136 -2.2657
  154SOL    HW2  462   2.173   0.453   1.987  0.9194  0.6684  0.3345
  155SOL     OW  463   0.253   1.003   0.393  0.4572  0.6521  0.5080
  155SOL    HW1  464   0.287   0.907   0.392  0.5193 -3.1057 -0.2339
  155SOL    HW2  465   0.171   1.014   0.450 -0.9416 -1.4018  1.1170
  156SOL     OW  466   1.777   1.232   0.154 -0.4985 -0.0983  0.0320
  156SOL    HW1  467   1.872   1.241   0.109 -0.1760  0.1969 -1.9054
  156SOL    HW2  468   1.748   1.135   0.175  0.1613 -0.9875 -1.5849
  157SOL     OW  469   1.015   2.369   3.066  0.5435 -0.0918 -0.6528
  157SOL    HW1  470   1.105   2.338   3.023  1.3605  1.4837  1.0584
  157SOL    HW2  471   0.951   2.288   3.051 -0.5000  0.2485  1.9342
  158SOL     OW  472   1.602   0.868   1.489  0.5170 -0.1721  0.1162
  158SOL    HW1  473   1.610   0.799   1.566 -0.2856 -2.6532 -0.1476
  158SOL    HW2  474   1.637   0.956   1.522  1.4638  1.4870  1.1845
  159SOL     OW  475   0.306   0.215   0.805  0.1766 -0.6031  0.2536
  159SOL    HW1  476   0.333   0.124   0.761  0.3964 -1.3644 -0.5467
  159SOL    HW2  477   0.271   0.279   0.733  1.8875 -0.1513  1.9058
  160SOL     OW  478   2.648   1.652   1.783 -0.4298 -0.2879  0.4131
  160SOL    HW1  479   2.694   1.622   1.867 -1.8506 -0.0702  1.6257
  160SOL    HW2  480   2.703   1.628   1.700  0.1866 -2.6183  1.2645
  161SOL     OW  481   0.080   3.074   0.435  0.1269 -0.0889 -0.4318
  161SOL    HW1  482   0.181   3.085   0.430 -0.5631 -0.0546  4.1238
  161SOL    HW2  483   0.056   2.984   0.479  1.8315 -0.6095 -1.0287
  162SOL     OW  484   0.316   0.404   2.497  0.0723 -0.2447  0.2655
  162SOL    HW1  485   0.289   0.396   2.593  1.2941  1.9069  0.0424
  162SOL    HW2  486   0.368   0.318   2.474 -1.5458 -3.5119 -2.0517
  163SOL     OW  487   3.107   2.930   2.471  0.0500  0.1936 -0.1542
  163SOL    HW1  488   3.096   3.027   2.496 -0.8606 -1.3739 -2.1732
  163SOL    HW2  489   3.016   2.891   2.460  0.1892  0.8082 -0.5259
  164SOL     OW  490   2.354   1.834   0.211  0.3450  0.2965 -0.5287
  164SOL    HW1  491   2.380   1.914   0.161  0.8216 -0.4607 -1.1832
  164SOL    HW2  492   2.379   1.754   0.154 -0.3326  3.0967 -2.2770
  165SOL     OW  493   0.834   0.182   1.388  0.4462  0.5797  0.1213
  165SOL    HW1  494   0.871   0.274   1.398 -0.7636  1.6947  0.8530
  165SOL    HW2  495   0.876   0.129   1.315 -2.7985  3.1765  2.8698
  166SOL     OW  496   2.943   0.065   0.429  0.2176  0.0990 -0.1808
  166SOL    HW1  497   3.038   0.026   0.431  0.2697 -1.8838 -1.2967
  166SOL    HW2  498   2.914   0.076   0.523  1.3600  0.1709 -1.4087
  167SOL     OW  499   2.059   0.695   0.942 -0.1462 -0.2107  0.5826
  167SOL    HW1  500   2.129   0.760   0.913 -2.4032 -1.6224  1.2696
  167SOL    HW2  501   2.065   0.675   1.042  1.6819  1.0939 -1.9511
  168SOL     OW  502   1.151   0.457   2.346  0.1817 -0.1557  0.2220
  168SOL    HW1  503   1.186   0.409   2.263  0.0710  0.3447  0.1086
  168SOL    HW2  504   1.174   0.393   2.415 -1.1094  0.3828 -2.5983
  169SOL     OW  505   1.157   1.863   1.216 -1.2180  0.1426 -0.5205
  169SOL    HW1  506   1.218   1.863   1.136 -1.1488 -2.3153  0.0390
  169SOL    HW2  507   1.075   1.920   1.204  1.8653 -0.4482  0.7589
  170SOL     OW  508   2.906   3.080   1.622  0.0048 -0.4198  0.0143
  170SOL    HW1  509   2.931   3.001   1.562  0.8599  0.9206  2.1095
  170SOL    HW2  510   2.810   3.110   1.602 -4.3536  0.8683  0.9374
  171SOL     OW  511   2.701   0.479   2.343  0.6095 -0.8243  0.2013
  171SOL    HW1  512   2.685   0.399   2.284 -1.6610 -1.7824 -1.7700
  171SOL    HW2  513   2.618   0.525   2.383 -2.3824 -0.9288  0.3244
  172SOL     OW  514   1.403   2.470   1.372  0.2831  0.3331  1.0607
  172SOL    HW1  515   1.386   2.371   1.351  0.8443  2.3520 -1.1198
  172SOL    HW2  516   1.441   2.517   1.290 -0.6807  1.2796 -0.3074
  173SOL     OW  517   2.567   2.535   2.886  0.1157  0.1000  0.4522
  173SOL    HW1  518   2.506   2.450   2.887 -1.4796 -0.3383 -2.6432
  173SOL    HW2  519   2.507   2.616   2.866  1.5914 -1.2113  2.1258
  174SOL     OW  520   1.772   0.950   0.417  0.4899  0.1832  0.3428
  174SOL    HW1  521   1.872   0.958   0.400  0.5065  1.3101  1.3481
  174SOL    HW2  522   1.723   0.933   0.328  0.3369 -0.8289  0.3392
  175SOL     OW  523   1.058   1.575   1.304 -0.0583 -0.0981 -1.0310
  175SOL    HW1  524   0.986   1.615   1.363 -1.2015 -0.6751  2.9094
  175SOL    HW2  525   1.148   1.576   1.354 -0.4999  1.7025  0.4807
  176SOL     OW  526   0.353   3.057   0.687  0.3962 -0.3682  0.7976
  176SOL    HW1  527   0.427   3.025   0.751  2.9324  2.2493  0.2605
  176SOL    HW2  528   0.286   2.984   0.664 -2.1586 -1.2253  1.3179
  177SOL     OW  529   2.698   1.296   0.310 -0.1688 -0.1944 -1.1107
  177SOL    HW1  530   2.744   1.303   0.403  0.6375  1.3687  3.3422
  177SOL    HW2  531   2.637   1.379   0.291 -0.8041  2.5795 -0.6644
  178SOL     OW  532   2.717   2.538   2.131  0.8030  0.0890 -0.0332
  178SOL    HW1  533   2.665   2.618   2.101 -0.7301 -0.5102 -0.0619
  178SOL    HW2  534   2.801   2.561   2.185 -1.4335 -0.4178  1.2878
  179SOL     OW  535   2.331   3.107   0.405  0.0777  0.4200 -0.3799
  179SOL    HW1  536   2.432   0.006   0.433 -0.4585 -1.4046 -0.9334
  179SOL    HW2  537   2.275   0.075   0.403  0.6799 -3.3527 -1.4139
  180SOL     OW  538   2.056   0.553   0.713  0.3463  0.2919  0.5542
  180SOL    HW1  539   2.046   0.613   0.792 -2.7829 -0.1950 -0.1381
  180SOL    HW2  540   2.011   0.594   0.632  0.3717  0.7227  1.4924
  181SOL     OW  541   3.040   0.202   2.839 -0.4768  0.2871  0.2749
  181SOL    HW1  542   3.089   0.117   2.863 -0.9880 -1.0872 -1.0263
  181SOL    HW2  543   2.978   0.183   2.758  0.0323  1.8218  2.3881
  182SOL     OW  544   2.704   1.896   2.463 -0.7868 -0.4915 -0.0911
  182SOL    HW1  545   2.607   1.930   2.458 -3.2363  1.4859  0.8141
  182SOL    HW2  546   2.719   1.829   2.387 -1.7372  0.1868  0.6475
  183SOL     OW  547   0.274   1.173   1.543  0.0278 -0.1380 -0.4051
  183SOL    HW1  548   0.253   1.122   1.458  1.9015  1.3893  0.8617
  183SOL    HW2  549   0.350   1.240   1.522 -0.1080  0.9972 -0.0269
  184SOL     OW  550   0.328   1.263   1.248  0.4849 -0.2605  0.4453
  184SOL    HW1  551   0.262   1.279   1.173 -1.1346  0.6819 -1.0278
  184SOL    HW2  552   0.414   1.320   1.239 -1.4739  1.5481 -0.7579
  185SOL     OW  553   3.062   2.868   1.228 -0.1595 -0.0832  0.2660
  185SOL    HW1  554   3.041   2.834   1.132 -0.4703 -0.7836 -2.6061
  185SOL    HW2  555   3.095   2.964   1.240 -3.2551 -0.5517 -0.3656
  186SOL     OW  556   2.085   2.883   2.613  0.0782 -0.2853 -0.1101
  186SOL    HW1  557   2.120   2.790   2.585 -0.5841  0.4718 -0.3363
  186SOL    HW2  558   1.989   2.877   2.649 -4.0523 -0.1201 -0.5582
  187SOL     OW  559   0.137   1.278   0.666  0.6602 -0.4148  0.1896
  187SOL    HW1  560   0.117   1.362   0.607  0.1312  3.3182 -0.0449
  187SOL    HW2  561   0.223   1.298   0.720 -0.3384 -0.0921  1.9280
  188SOL     OW  562   1.800   1.706   0.085  0.4591 -0.2759 -0.6714
  188SOL    HW1  563   1.757   1.629   0.143 -1.7364 -0.3507  1.0301
  188SOL    HW2  564   1.900   1.708   0.100 -1.1196 -2.0695  0.6085
  189SOL     OW  565   3.109   1.756   2.877 -0.4578  0.6195 -0.3501
  189SOL    HW1  566   3.105   1.753   2.980  1.9213  0.1874  1.2014
  189SOL    HW2  567   0.063   1.824   2.851 -2.2738  0.4870 -1.7117
  190SOL     OW  568   2.445   0.687   2.225 -0.4635  0.6020 -0.2423
  190SOL    HW1  569   2.502   0.770   2.215 -1.8061  0.7051  3.4723
  190SOL    HW2  570   2.454   0.650   2.320 -0.4804  1.9952  0.4995
  191SOL     OW  571   0.821   1.122   2.005 -0.7353 -0.5819  0.3688
  191SOL    HW1  572   0.728   1.161   1.974 -2.6494  0.8401  1.2734
  191SOL    HW2  573   0.818   1.096   2.100  3.0150  1.9027  0.9898
  192SOL     OW  574   2.017   1.324   1.944 -0.5985  0.2193  0.1323
  192SOL    HW1  575   2.022   1.369   2.034 -0.7761  0.0971 -0.2688
  192SOL    HW2  576   2.107   1.287   1.923 -3.0360  0.6075  1.2787
  193SOL     OW  577   0.642   0.082   0.790 -0.6115  0.0329  0.3743
  193SOL    HW1  578   0.590   0.148   0.731 -1.1958  0.8762 -0.0637
  193SOL    HW2  579   0.736   0.063   0.761 -1.0637  0.3139 -0.3839
  194SOL     OW  580   1.504   1.564   1.639  0.1564  0.1983 -0.2452
  194SOL    HW1  581   1.598   1.571   1.594 -1.5807  0.1900 -1.5163
  194SOL    HW2  582   1.497   1.481   1.702 -0.3963 -1.3876 -0.3313
  195SOL     OW  583   1.891   0.271   0.954  0.0595 -0.0587  0.1343
  195SOL    HW1  584   1.896   0.183   0.902 -0.9425  1.3784 -1.6719
  195SOL    HW2  585   1.861   0.341   0.885  2.1763 -0.6001  1.0142
  196SOL     OW  586   1.179   1.572   1.904 -0.1106 -0.4094  0.0983
  196SOL    HW1  587   1.278   1.579   1.918  0.6957  0.1109 -1.3245
  196SOL    HW2  588   1.165   1.515   1.820 -0.0317 -1.2505  1.8740
  197SOL     OW  589   0.474   0.092   2.675 -0.0478  0.4494  0.3284
  197SOL    HW1  590   0.481   0.123   2.581  1.7105 -1.7895 -1.1814
  197SOL    HW2  591   0.490   0.171   2.736 -0.8680 -1.0543 -3.5005
  198SOL     OW  592   0.175   0.797   0.625 -0.2212 -0.6642 -0.0431
  198SOL    HW1  593   0.187   0.712   0.680  0.4999  0.0891  0.6306
  198SOL    HW2  594   0.072   0.814   0.617 -0.9799 -1.4347  4.0644
  199SOL     OW  595   0.507   1.996   1.111 -0.5951  0.2745  0.0673
  199SOL    HW1  596   0.464   2.065   1.049  0.4826 -0.1876  3.4174
  199SOL    HW2  597   0.505   2.030   1.208 -0.2115 -0.0175 -0.4345
  200SOL     OW  598   2.544   1.875   3.051  0.0732  0.1399 -0.3539
  200SOL    HW1  599   2.588   1.870   0.029 -0.9359  1.2987 -0.8966
  200SOL    HW2  600   2.535   1.786   3.008  0.6885 -0.3819  1.5162
  201SOL     OW  601   0.975   2.524   1.170 -0.2734  0.4073 -0.3067
  201SOL    HW1  602   1.008   2.515   1.073 -1.2277 -2.8187 -0.7396
  201SOL    HW2  603   0.902   2.457   1.196  0.4521  1.8277  0.2111
  202SOL     OW  604   1.019   2.517   0.179  0.1571 -0.2536  0.1058
  202SOL    HW1  605   1.009   2.466   0.095  1.0032  0.4439  1.3144
  202SOL    HW2  606   0.936   2.512   0.237  1.4238  0.3089  1.8884
  203SOL     OW  607   1.488   2.984   2.994 -0.4337  0.0475 -0.3752
  203SOL    HW1  608   1.550   3.055   3.030  0.3877 -2.0723  1.1582
  203SOL    HW2  609   1.395   3.021   2.970 -1.2597 -0.0339  0.6631
  204SOL     OW  610   0.434   1.771   1.390  0.2983 -0.2810 -0.1797
  204SOL    HW1  611   0.514   1.747   1.335 -2.2999 -0.9943  0.7194
  204SOL    HW2  612   0.436   1.719   1.478 -0.0452 -1.1893  0.1258
  205SOL     OW  613   1.911   1.262   2.272 -0.4401  0.1649 -0.3683
  205SOL    HW1  614   1.980   1.206   2.324  2.8274 -0.4056  0.6084
  205SOL    HW2  615   1.841   1.195   2.230 -1.8387  0.9123  0.1761
  206SOL     OW  616   0.048   2.113   3.085  0.2485 -0.4558  0.2848
  206SOL    HW1  617   0.069   2.058   2.999  0.3112 -2.3814 -2.5134
  206SOL    HW2  618   3.066   2.112   3.111  0.5105  0.1585  1.7093
  207SOL     OW  619   0.414   2.044   2.172 -0.8464  0.4662  0.4810
  207SOL    HW1  620   0.516   2.046   2.156  0.7676 -0.6082  1.9728
  207SOL    HW2  621   0.363   2.032   2.077 -0.6430 -1.7645 -1.6510
  208SOL     OW  622   0.116   2.645   1.269  0.4257 -0.0146 -0.5554
  208SOL    HW1  623   0.194   2.710   1.260  0.7796 -0.7319 -0.7868
  208SOL    HW2  624   0.030   2.703   1.261 -1.6972 -0.0049 -0.4697
  209SOL     OW  625   1.033   2.826   2.266  0.6256  0.4818  1.1038
  209SOL    HW1  626   0.977   2.817   2.181 -4.0253 -0.0271 -0.8073
  209SOL    HW2  627   0.975   2.783   2.341 -1.3452  0.7905 -0.2733
  210SOL     OW  628   2.725   1.190   1.851  0.0627  0.2580 -0.2151
  210SOL    HW1  629   2.824   1.167   1.856 -0.4043 -1.7621  0.9981
  210SOL    HW2  630   2.669   1.109   1.860  1.2925  1.9550 -2.4099
  211SOL     OW  631   0.883   3.110   2.011  0.1014 -0.2975 -0.5201
  211SOL    HW1  632   0.859   3.013   2.031 -1.9006 -4.3480  1.2596
  211SOL    HW2  633   0.891   0.044   2.100 -1.1284  1.3119  1.4056
  212SOL     OW  634   1.890   2.676   2.040 -0.0854  0.0339 -0.0563
  212SOL    HW1  635   1.843   2.725   2.117  0.7280 -0.2365  2.8220
  212SOL    HW2  636   1.916   2.582   2.067  0.2541  2.5701 -2.3238
  213SOL     OW  637   2.752   0.267   1.701  0.0891  0.3191  0.2772
  213SOL    HW1  638   2.825   0.328   1.728 -1.1160 -2.8797 -0.5926
  213SOL    HW2  639   2.725   0.283   1.605 -3.1559  0.0482 -0.4537
  214SOL     OW  640   1.112   2.279   0.784 -0.4469  0.1446  0.4742
  214SOL    HW1  641   1.170   2.243   0.859 -1.1234 -1.2367  0.1611
  214SOL    HW2  642   1.149   2.249   0.694 -1.0094 -1.9492  1.2390
  215SOL     OW  643   2.572   1.919   0.529 -0.1505 -0.5421  0.1576
  215SOL    HW1  644   2.670   1.950   0.534  2.0984  0.3257  0.7896
  215SOL    HW2  645   2.510   2.001   0.516 -1.7639  0.8379  0.8523
  216SOL     OW  646   2.963   0.905   2.045  0.0458  0.5585  0.4729
  216SOL    HW1  647   2.987   0.963   1.967 -2.0197  2.4474  0.4738
  216SOL    HW2  648   3.020   0.822   2.047  2.6064  0.6743  0.9146
  217SOL     OW  649   2.370   0.160   1.465  0.7402  0.2089 -0.0571
  217SOL    HW1  650   2.310   0.236   1.437 -2.0375 -0.7911  0.9446
  217SOL    HW2  651   2.445   0.148   1.398  1.5338 -1.4787  1.5557
  218SOL     OW  652   1.938   2.642   1.466 -0.3296  0.5785  0.1850
  218SOL    HW1  653   1.912   2.693   1.381  0.4186  1.1567  0.7298
  218SOL    HW2  654   1.899   2.675   1.553  0.8111  1.5847 -0.2844
  219SOL     OW  655   2.215   2.472   0.229  0.1268 -0.1280  0.1451
  219SOL    HW1  656   2.149   2.433   0.169  2.2221  1.6944  1.0512
  219SOL    HW2  657   2.243   2.568   0.206  2.0944 -0.8090  2.5781
  220SOL     OW  658   1.426   3.057   0.236 -0.1199 -0.2629  0.4178
  220SOL    HW1  659   1.355   3.037   0.308  0.5306  0.4199  0.9619
  220SOL    HW2  660   1.446   2.970   0.184 -0.3311 -0.9643 -0.3753
  221SOL     OW  661   0.076   2.119   1.578  0.3259 -0.0395  0.2795
  221SOL    HW1  662   0.056   2.171   1.493  1.2789  0.9644  0.8003
  221SOL    HW2  663   3.105   2.116   1.628  3.3716  1.0641 -2.6620
  222SOL     OW  664   1.912   2.546   1.062  0.1456  0.2385  0.5113
  222SOL    HW1  665   1.904   2.622   1.130  0.6459  0.4509 -2.2231
  222SOL    HW2  666   1.870   2.462   1.089  1.5126  0.1088  1.6756
  223SOL     OW  667   1.273   2.963   1.436 -0.0628  0.2563  0.2436
  223SOL    HW1  668   1.181   2.975   1.482  0.4300  1.6646 -0.6323
  223SOL    HW2  669   1.327   2.900   1.484 -0.5097  3.3338 -1.1680
  224SOL     OW  670   2.883   2.352   1.394  0.0479  0.1370  0.2190
  224SOL    HW1  671   2.856   2.433   1.337  0.6557  1.5930 -0.6249
  224SOL    HW2  672   2.870   2.376   1.492 -0.3488  0.1663  1.2505
  225SOL     OW  673   2.457   2.080   0.786 -0.1738 -0.0111  0.3818
  225SOL    HW1  674   2.374   2.032   0.810 -0.5583 -1.2747  0.7971
  225SOL    HW2  675   2.442   2.149   0.710  2.3709  0.4730 -0.8425
  226SOL     OW  676   1.297   2.150   0.088 -0.5156 -0.3439 -0.0100
  226SOL    HW1  677   1.351   2.137   0.180 -0.8317  0.6928  2.7051
  226SOL    HW2  678   1.198   2.148   0.106 -0.1882 -0.4818 -0.4962
  227SOL     OW  679   1.874   1.068   0.730  0.5076  0.0975  0.1528
  227SOL    HW1  680   1.867   1.126   0.816 -0.8590  1.3668  0.3493
  227SOL    HW2  681   1.861   0.967   0.747  0.0958 -0.8079  0.2775
  228SOL     OW  682   1.390   0.702   0.344 -0.6063 -0.6173  0.1287
  228SOL    HW1  683   1.403   0.605   0.344 -0.0051  0.3499  0.0030
  228SOL    HW2  684   1.466   0.747   0.394  0.1281 -2.0519 -1.0511
  229SOL     OW  685   2.642   0.936   2.228  0.0314 -0.1341  0.0184
  229SOL    HW1  686   2.671   0.886   2.145 -0.0291 -0.6987  0.7344
  229SOL    HW2  687   2.715   0.995   2.264  1.9886  2.2392 -1.4926
  230SOL     OW  688   0.574   1.382   1.154  0.3138  0.0628 -0.4246
  230SOL    HW1  689   0.640   1.324   1.206  1.3030  1.3396 -0.8404
  230SOL    HW2  690   0.563   1.364   1.055 -1.0351  0.8844 -0.9513
  231SOL     OW  691   2.340   0.393   2.818 -0.4040 -0.0323  0.2478
  231SOL    HW1  692   2.270   0.450   2.864  0.8610 -2.0120  0.5263
  231SOL    HW2  693   2.431   0.442   2.802  1.4985  0.6481  0.5552
  232SOL     OW  694   2.856   2.033   0.911  0.2072  0.1749  0.2288
  232SOL    HW1  695   2.935   1.968   0.937 -2.1430  0.7163 -0.1001
  232SOL    HW2  696   2.872   2.081   0.823  0.2886  1.6058 -0.0002
  233SOL     OW  697   1.796   2.861   2.681  0.3247 -0.5396 -0.1660
  233SOL    HW1  698   1.842   2.890   2.766  2.3483 -2.6015 -1.6442
  233SOL    HW2  699   1.692   2.857   2.688 -2.4665 -0.3040  1.4960
  234SOL     OW  700   1.578   2.530   1.145 -0.5369  0.6427  0.1741
  234SOL    HW1  701   1.606   2.615   1.197  2.2076  0.0616 -0.3369
  234SOL    HW2  702   1.648   2.455   1.165  1.7425 -0.9798  0.1382
  235SOL     OW  703   0.937   1.846   1.709  0.2860  0.1458 -0.3952
  235SOL    HW1  704   0.899   1.761   1.740  1.4981 -1.7567  3.1797
  235SOL    HW2  705   1.004   1.839   1.630  2.5847  2.9558 -0.3522
  236SOL     OW  706   0.635   2.521   2.827 -0.1159 -0.0845  0.0610
  236SOL    HW1  707   0.671   2.549   2.919  0.1573  1.3971 -1.8560
  236SOL    HW2  708   0.533   2.518   2.825 -1.3742 -1.9556  0.9715
  237SOL     OW  709   0.520   3.039   1.498 -0.4493  0.3216  0.2789
  237SOL    HW1  710   0.428   3.033   1.541 -0.5597  0.8722 -1.2704
  237SOL    HW2  711   0.563   0.016   1.514  1.3457 -0.5678 -1.0986
  238SOL     OW  712   0.918   0.664   0.596 -0.5254 -0.7834  0.2253
  238SOL    HW1  713   1.018   0.682   0.588  0.8269  1.4923 -2.7590
  238SOL    HW2  714   0.868   0.712   0.672 -0.6625 -1.8101 -4.2213
  239SOL     OW  715   2.542   0.912   2.922  0.4671 -0.5489  0.1732
  239SOL    HW1  716   2.503   0.895   2.831 -0.6873 -1.7943  0.5237
  239SOL    HW2  717   2.642   0.899   2.923  0.0266  2.4403 -0.9936
  240SOL     OW  718   2.686   2.301   0.891 -0.7247 -0.2500  0.0820
  240SOL    HW1  719   2.688   2.216   0.948  0.5132  1.1060 -1.3628
  240SOL    HW2  720   2.731   2.285   0.803 -2.3382  1.6106  1.6312
  241SOL     OW  721   1.242   1.648   0.870 -0.1311 -0.0245 -0.4363
  241SOL    HW1  722   1.265   1.579   0.794  1.9214  0.0261 -2.2488
  241SOL    HW2  723   1.143   1.678   0.876 -1.1275 -2.7723 -1.8979
  242SOL     OW  724   0.873   0.553   1.006 -0.0008 -0.3057  0.3509
  242SOL    HW1  725   0.786   0.588   0.972  2.2375 -0.4869  0.0740
  242SOL    HW2  726   0.913   0.497   0.930  2.3007 -1.2970  2.3232
  243SOL     OW  727   0.180   0.597   1.222 -0.0852  0.0182  0.6444
  243SOL    HW1  728   0.134   0.514   1.191  1.4596  2.9068 -0.6451
  243SOL    HW2  729   0.200   0.655   1.140  0.5778 -0.9304 -1.6180
  244SOL     OW  730   0.725   0.119   0.406 -1.0190 -0.1683 -0.2168
  244SOL    HW1  731   0.678   0.029   0.388 -2.5084  2.0290  0.0217
  244SOL    HW2  732   0.784   0.114   0.486 -1.1106 -1.7685 -1.5114
  245SOL     OW  733   2.027   0.924   0.346  0.7409  0.4235 -0.6653
  245SOL    HW1  734   2.113   0.870   0.331  0.2147 -0.1132  1.0034
  245SOL    HW2  735   2.037   1.025   0.317  1.5801 -1.0579  2.8345
  246SOL     OW  736   0.285   0.111   1.793 -0.0215  0.1751 -0.6543
  246SOL    HW1  737   0.341   0.029   1.761 -1.2025  0.1144  0.4992
  246SOL    HW2  738   0.219   0.138   1.725  1.6837 -2.1226  1.4117
  247SOL     OW  739   0.872   0.058   1.746 -0.4910  0.2218 -0.0463
  247SOL    HW1  740   0.815   3.106   1.689 -1.7618  1.1532  0.3052
  247SOL    HW2  741   0.882   0.018   1.842 -1.9520  0.2090  0.7253
  248SOL     OW  742   0.543   1.676   2.116 -0.2620 -0.1727  0.4389
  248SOL    HW1  743   0.510   1.714   2.207  1.2613 -1.8160 -0.5976
  248SOL    HW2  744   0.605   1.735   2.064  1.5895 -1.8326  2.0368
  249SOL     OW  745   0.748   2.275   0.202 -0.0824 -0.3486 -0.1766
  249SOL    HW1  746   0.729   2.359   0.262  2.9121  0.6318  2.5213
  249SOL    HW2  747   0.719   2.286   0.105 -0.1039 -2.4479  1.0700
  250SOL     OW  748   0.623   3.030   2.082  0.3012 -0.0453  0.3360
  250SOL    HW1  749   0.542   3.063   2.137 -0.1176 -1.5174  1.0445
  250SOL    HW2  750   0.671   3.109   2.038  0.3010 -0.4631  2.2389
  251SOL     OW  751   2.941   2.005   1.611 -0.3236  0.2425  0.1865
  251SOL    HW1  752   2.927   1.942   1.687 -1.6744 -1.1984 -1.2814
  251SOL    HW2  753   2.855   2.059   1.605 -1.4445 -2.0388  0.9982
  252SOL     OW  754   1.189   0.272   1.897  0.7804 -0.1723  0.2271
  252SOL    HW1  755   1.154   0.257   1.991 -0.0006  0.7673  0.1472
  252SOL    HW2  756   1.177   0.186   1.843  0.5629 -4.1255  2.3369
  253SOL     OW  757   2.277   1.908   2.320  0.1947 -0.0357 -0.3690
  253SOL    HW1  758   2.334   1.853   2.260  1.7781  1.6222 -0.8318
  253SOL    HW2  759   2.182   1.922   2.282  0.8003  0.9969  0.3386
  254SOL     OW  760   0.943   1.532   1.072 -0.0558  0.3161 -0.0423
  254SOL    HW1  761   1.001   1.542   1.156  1.8063  1.0054  0.8509
  254SOL    HW2  762   0.934   1.614   1.013 -1.9719 -0.4648 -0.8111
  255SOL     OW  763   0.108   2.707   1.954  0.4615  0.1025 -0.6674
  255SOL    HW1  764   0.005   2.688   1.943  0.9695 -0.7386 -2.8153
  255SOL    HW2  765   0.166   2.689   1.872 -0.6224 -0.5165 -1.3123
  256SOL     OW  766   0.471   2.773   0.448 -0.2727 -0.4860  0.4149
  256SOL    HW1  767   0.539   2.845   0.410  3.1674  2.0152 -2.9545
  256SOL    HW2  768   0.383   2.786   0.402  0.6134  0.6088  0.1076
  257SOL     OW  769   1.103   2.545   2.443 -0.6076 -0.1747  0.1359
  257SOL    HW1  770   1.139   2.613   2.511  1.6377  1.6758  1.2905
  257SOL    HW2  771   1.180   2.523   2.378  2.8149  2.5020 -0.4879
  258SOL     OW  772   1.617   2.209   2.112  0.1531  0.3570  0.5121
  258SOL    HW1  773   1.536   2.235   2.056  0.7961  1.6575  0.7003
  258SOL    HW2  774   1.704   2.192   2.060  0.4070  0.9753  1.7185
  259SOL     OW  775   0.765   0.516   2.124  0.0833 -0.2919 -0.2891
  259SOL    HW1  776   0.684   0.454   2.145 -1.4415 -1.8942  1.6031
  259SOL    HW2  777   0.752   0.611   2.154  3.7722 -0.2520 -2.5763
  260SOL     OW  778   2.807   0.885   2.856 -0.2895  0.7142 -0.4825
  260SOL    HW1  779   2.866   0.947   2.907  2.2626 -1.0401 -0.8131
  260SOL    HW2  780   2.843   0.881   2.759  0.0578  1.4634  0.3073
  261SOL     OW  781   0.847   1.278   0.932  0.1736  0.9447  0.7922
  261SOL    HW1  782   0.870   1.347   1.000  1.5580 -3.0232 -1.8994
  261SOL    HW2  783   0.927   1.274   0.866  0.9030 -2.3022 -0.8248
  262SOL     OW  784   2.008   2.209   2.422 -0.7078  0.6050 -0.6396
  262SOL    HW1  785   1.940   2.283   2.435  0.0488 -0.5124  0.6409
  262SOL    HW2  786   2.081   2.221   2.495  1.3290  2.1615 -0.9258
  263SOL     OW  787   0.798   2.762   0.983  0.7899 -0.5578  0.3915
  263SOL    HW1  788   0.741   2.846   0.995 -0.7609 -0.4656 -0.0296
  263SOL    HW2  789   0.745   2.679   0.953  0.0234 -0.8807  0.8009
  264SOL     OW  790   2.820   2.014   0.532  0.0818  0.2451  0.1026
  264SOL    HW1  791   2.811   2.101   0.582 -0.5293 -0.5982 -2.7306
  264SOL    HW2  792   2.878   2.017   0.448 -1.4133  0.3594 -1.8987
  265SOL     OW  793   2.017   1.206   2.674  0.2194  0.0129 -0.3233
  265SOL    HW1  794   2.060   1.190   2.586 -1.6933 -1.2825  3.3399
  265SOL    HW2  795   2.058   1.285   2.724 -1.0798 -2.4420 -2.7521
  266SOL     OW  796   1.490   1.873   2.053  0.3009 -0.1517  0.0786
  266SOL    HW1  797   1.587   1.885   2.068 -4.3355  0.9952 -0.0356
  266SOL    HW2  798   1.449   1.809   2.123  2.3896 -3.3054 -1.0671
  267SOL     OW  799   2.520   0.603   2.501  0.0514 -0.4778 -0.1714
  267SOL    HW1  800   2.490   0.688   2.546 -0.1729  0.1098  0.5045
  267SOL    HW2  801   2.486   0.524   2.555  0.8004 -1.4637  2.1214
  268SOL     OW  802   0.852   1.267   2.985 -0.2281 -0.2908 -0.6952
  268SOL    HW1  803   0.800   1.349   3.004  0.7438 -0.3751 -1.8458
  268SOL    HW2  804   0.801   1.216   2.914  1.5677 -1.6064  0.9152
  269SOL     OW  805   0.070   2.108   2.036 -0.1007 -0.7744 -0.0439
  269SOL    HW1  806   0.063   2.114   2.137 -0.8796  0.0061 -1.4250
  269SOL    HW2  807   3.097   2.070   1.995 -1.0534  3.0109 -0.9902
  270SOL     OW  808   3.102   1.771   0.036 -0.2375 -0.2526  0.6397
  270SOL    HW1  809   3.062   1.859   0.056  1.4548  0.9770  0.6122
  270SOL    HW2  810   3.065   1.707   0.106  1.5278  0.8500  0.5735
  271SOL     OW  811   0.294   0.195   0.300 -0.2527 -0.3614  0.0412
  271SOL    HW1  812   0.334   0.127   0.361  1.2206  1.9965 -0.3604
  271SOL    HW2  813   0.321   0.292   0.331 -2.8036 -0.4078  0.6087
  272SOL     OW  814   3.041   2.843   0.514 -0.3907 -0.5797 -0.6225
  272SOL    HW1  815   3.011   2.884   0.605 -0.8381 -1.1248  4.1592
  272SOL    HW2  816   2.963   2.803   0.468  0.0890  0.0821 -0.0397
  273SOL     OW  817   0.102   2.983   2.075  0.1830 -0.5027 -0.5075
  273SOL    HW1  818   0.150   2.959   2.157 -0.9927  0.4859 -1.5574
  273SOL    HW2  819   0.101   2.901   2.019 -1.0749  0.3247  2.0110
  274SOL     OW  820   0.327   0.459   1.502  0.2816  0.6307 -0.7635
  274SOL    HW1  821   0.290   0.417   1.416 -1.7380  1.5269 -2.0173
  274SOL    HW2  822   0.239   0.503   1.539 -1.5637  0.0172 -1.2993
  275SOL     OW  823   1.374   1.841   1.005  0.0006  0.4975  0.4191
  275SOL    HW1  824   1.458   1.867   0.951  0.9853 -0.3708 -1.6350
  275SOL    HW2  825   1.324   1.763   0.962 -2.0466 -0.3328  2.2958
  276SOL     OW  826   0.344   1.587   1.886 -0.1669  0.0109  0.2752
  276SOL    HW1  827   0.427   1.602   1.944  1.0981  2.8030  0.8435
  276SOL    HW2  828   0.312   1.488   1.895 -0.9744 -0.4703 -0.2688
  277SOL     OW  829   1.434   2.327   1.981  0.4166  0.3033 -0.1112
  277SOL    HW1  830   1.423   2.410   1.928  1.5527 -1.6398 -0.9234
  277SOL    HW2  831   1.344   2.274   1.987 -3.2473 -2.1367 -3.4977
  278SOL     OW  832   2.010   0.008   2.238  0.1771  0.4602  0.1594
  278SOL    HW1  833   1.908   3.098   2.235 -3.5362  0.2500  0.9346
  278SOL    HW2  834   2.017   0.110   2.233 -2.3287 -1.7334  0.6636
  279SOL     OW  835   1.423   1.422   3.045  0.1800  0.1381 -0.3534
  279SOL    HW1  836   1.506   1.361   3.046  1.4363 -2.2032  2.7345
  279SOL    HW2  837   1.434   1.499   2.978 -0.1894  0.0968 -1.6470
  280SOL     OW  838   1.211   0.433   0.657  0.0571  0.2027 -0.1866
  280SOL    HW1  839   1.239   0.452   0.560  0.7708  1.9733  0.6126
  280SOL    HW2  840   1.119   0.454   0.691 -0.9893  1.0838  2.4757
  281SOL     OW  841   0.133   0.506   2.314  0.1037 -0.0373  0.1041
  281SOL    HW1  842   0.172   0.482   2.222 -0.7239  0.6329 -2.3930
  281SOL    HW2  843   0.200   0.479   2.386  0.3387 -0.4702  0.5609
  282SOL     OW  844   0.196   2.854   0.571  0.1018  0.4772  0.2163
  282SOL    HW1  845   0.100   2.825   0.575 -0.7282  0.5782 -0.3081
  282SOL    HW2  846   0.222   2.850   0.469  0.5806 -0.4058 -1.3552
  283SOL     OW  847   1.328   2.385   1.607  0.4263 -0.7620 -0.2838
  283SOL    HW1  848   1.346   2.430   1.515 -0.1302  5.6353 -2.5157
  283SOL    HW2  849   1.371   2.293   1.611 -2.0340  0.5598 -0.8179
  284SOL     OW  850   2.121   2.854   1.456  0.2758 -0.6518  0.4944
  284SOL    HW1  851   2.216   2.836   1.471 -1.1402  1.0981 -1.1659
  284SOL    HW2  852   2.062   2.776   1.483  1.2859 -1.3711 -0.1084
  285SOL     OW  853   0.932   2.046   0.892 -0.2894 -0.3226 -0.1634
  285SOL    HW1  854   0.967   2.124   0.841 -0.4632 -0.5495 -0.1734
  285SOL    HW2  855   0.857   1.999   0.840  0.0146 -1.4178 -0.4119
  286SOL     OW  856   2.965   2.626   1.942 -0.0927 -0.1128 -0.5199
  286SOL    HW1  857   2.884   2.669   1.980  2.0723 -0.3826 -2.8543
  286SOL    HW2  858   2.956   2.525   1.923  1.1165 -3.1862 -3.0755
  287SOL     OW  859   0.558   1.241   0.914  0.3726 -0.2851  0.2358
  287SOL    HW1  860   0.657   1.252   0.891  0.9340  1.9483 -3.3062
  287SOL    HW2  861   0.534   1.145   0.900  2.3137  0.5829  2.0988
  288SOL     OW  862   1.288   2.125   2.756  0.5018  0.2967 -0.0929
  288SOL    HW1  863   1.224   2.191   2.710 -3.0306  0.5311  1.9738
  288SOL    HW2  864   1.243   2.034   2.765  0.2939 -0.2085  0.4104
  289SOL     OW  865   2.406   1.296   2.688 -0.2015  0.2263 -0.4947
  289SOL    HW1  866   2.382   1.338   2.773  0.4953 -1.8655 -4.5687
  289SOL    HW2  867   2.390   1.357   2.607 -1.0388  2.3145 -0.6533
  290SOL     OW  868   1.871   1.738   0.886 -0.0109 -0.5917  0.2192
  290SOL    HW1  869   1.873   1.683   0.800  1.7919  0.7289 -0.3075
  290SOL    HW2  870   1.841   1.833   0.871  1.6530 -0.0155 -0.1972
  291SOL     OW  871   0.945   0.913   3.008  0.0757 -0.4452 -0.3069
  291SOL    HW1  872   1.009   0.919   2.928  0.3916 -0.6969 -0.5655
  291SOL    HW2  873   0.960   0.824   3.059  2.2831 -0.7536  0.8542
  292SOL     OW  874   1.916   1.577   0.659  0.4886  0.5941 -0.6117
  292SOL    HW1  875   1.892   1.508   0.586  0.9369 -2.9111  0.6476
  292SOL    HW2  876   2.012   1.599   0.657 -0.9933 -4.7259  0.2876
  293SOL     OW  877   1.648   3.085   1.212  0.3984 -0.5732 -0.2473
  293SOL    HW1  878   1.733   0.005   1.261 -0.3208  0.4217  1.2783
  293SOL    HW2  879   1.582   0.050   1.203  1.6383 -0.0812  2.0690
  294SOL     OW  880   2.256   0.954   0.100  0.6214  0.3238  0.3746
  294SOL    HW1  881   2.329   1.019   0.062 -0.6087 -0.7471 -0.4985
  294SOL    HW2  882   2.161   0.996   0.085 -0.3784 -1.5179 -1.3131
  295SOL     OW  883   2.036   1.855   2.706 -0.1560 -0.6491 -0.4158
  295SOL    HW1  884   1.969   1.931   2.701 -1.0916 -1.3116  2.1311
  295SOL    HW2  885   2.130   1.890   2.724  1.8964  2.1006  0.6683
  296SOL     OW  886   1.634   1.746   1.197  0.0821 -0.2112 -0.2127
  296SOL    HW1  887   1.576   1.726   1.113 -1.4854  2.0031  0.0318
  296SOL    HW2  888   1.571   1.762   1.270  3.1927 -0.5736  1.5604
  297SOL     OW  889   0.520   0.686   2.743 -0.3094  0.3456 -0.2102
  297SOL    HW1  890   0.422   0.687   2.718  0.1425 -0.2249  1.8846
  297SOL    HW2  891   0.529   0.769   2.798 -0.7586 -3.5293 -1.6835
  298SOL     OW  892   1.417   2.723   1.541  0.3186 -0.1292  0.3328
  298SOL    HW1  893   1.507   2.727   1.589 -0.6158 -1.5397  0.4818
  298SOL    HW2  894   1.406   2.642   1.473  0.4952 -0.9919  1.6126
  299SOL     OW  895   1.152   0.371   2.611 -0.0631  0.1694  0.2244
  299SOL    HW1  896   1.084   0.444   2.593  1.3407  1.8655 -0.3148
  299SOL    HW2  897   1.124   0.310   2.683 -1.0388  2.1817 -1.1131
  300SOL     OW  898   2.028   1.327   0.035  0.8582 -0.4936 -0.2343
  300SOL    HW1  899   1.967   1.368   3.080 -0.5811  1.2710 -0.5167
  300SOL    HW2  900   2.107   1.279   3.104 -2.1804 -0.4434 -1.3916
  301SOL     OW  901   2.286   0.427   2.526 -0.0094  0.1431  0.0587
  301SOL    HW1  902   2.305   0.408   2.429  0.3164  0.0061 -0.5688
  301SOL    HW2  903   2.277   0.336   2.572 -0.0428  2.8453  1.1958
  302SOL     OW  904   2.501   1.710   2.632 -0.5056  0.3481 -0.0963
  302SOL    HW1  905   2.595   1.677   2.652 -0.5173 -0.0981  1.0969
  302SOL    HW2  906   2.494   1.791   2.569 -0.6332 -1.7739 -0.4061
  303SOL     OW  907   0.217   2.539   2.402 -0.0128 -0.2914  0.2468
  303SOL    HW1  908   0.153   2.542   2.319 -0.8689  2.3814 -3.4593
  303SOL    HW2  909   0.176   2.589   2.480 -1.9786  0.3600 -1.6072
  304SOL     OW  910   0.126   1.368   1.082 -0.0781  0.4256  0.1784
  304SOL    HW1  911   0.133   1.460   1.036 -0.7983 -0.9019  1.3789
  304SOL    HW2  912   0.112   1.298   1.010  2.5450 -2.6580  0.5954
  305SOL     OW  913   0.049   0.209   2.217 -0.7875 -0.3269  0.0509
  305SOL    HW1  914   3.098   0.290   2.214  0.7239 -0.3858  0.3152
  305SOL    HW2  915   0.037   0.158   2.304  1.3360 -0.2452 -0.1046
  306SOL     OW  916   1.254   1.447   0.676 -0.1097  0.3042 -0.1466
  306SOL    HW1  917   1.341   1.402   0.676 -2.9553 -1.0058  0.4989
  306SOL    HW2  918   1.221   1.450   0.580 -0.5107 -1.3099 -1.3318
  307SOL     OW  919   3.067   0.021   1.283  0.0942  0.0330 -0.0427
  307SOL    HW1  920   0.005   0.021   1.369  0.4899 -0.6583 -2.6899
  307SOL    HW2  921   3.002   0.100   1.282 -2.4510  1.7717  0.5388
  308SOL     OW  922   2.832   1.918   2.687 -0.5893 -0.3047  0.4999
  308SOL    HW1  923   2.839   1.839   2.752 -2.6682  1.8199  1.5123
  308SOL    HW2  924   2.784   1.898   2.595  1.5643 -0.8444 -2.3296
  309SOL     OW  925   0.107   2.013   2.812  0.2353  0.0658 -0.0265
  309SOL    HW1  926   0.197   2.005   2.764 -2.4063 -0.2689  0.1172
  309SOL    HW2  927   0.035   2.031   2.740 -0.9688  1.2512 -0.9306
  310SOL     OW  928   2.340   0.432   0.053 -0.0578  0.1363  0.1702
  310SOL    HW1  929   2.406   0.508   0.045  1.6812 -0.2544 -0.9787
  310SOL    HW2  930   2.308   0.405   0.145 -1.6033  0.7287 -1.9304
  311SOL     OW  931   2.072   1.010   2.856  0.8350 -0.0412 -0.1659
  311SOL    HW1  932   2.027   1.078   2.789  0.1731  0.9510  1.7428
  311SOL    HW2  933   2.009   0.951   2.910  0.2846 -0.4848  0.9465
  312SOL     OW  934   1.236   1.167   2.050  0.3418 -0.6904  0.0620
  312SOL    HW1  935   1.175   1.240   2.010 -1.4904  0.8852  0.5653
  312SOL    HW2  936   1.186   1.082   2.053  1.3401  3.2669  0.7107
  313SOL     OW  937   0.183   0.202   0.058  0.0831 -0.1685  0.9125
  313SOL    HW1  938   0.114   0.124   0.070 -2.6018 -3.8290 -3.0501
  313SOL    HW2  939   0.236   0.219   0.143 -1.2258  0.9016  0.4588
  314SOL     OW  940   0.543   2.039   1.388  0.1704 -0.1386  0.2441
  314SOL    HW1  941   0.481   1.958   1.387 -1.4322  1.4586  1.4649
  314SOL    HW2  942   0.616   2.017   1.456  1.5052 -2.9879  0.6335
  315SOL     OW  943   1.411   1.951   1.357 -0.2037 -0.1056  0.2714
  315SOL    HW1  944   1.397   1.884   1.433 -0.7140  0.0321  0.9417
  315SOL    HW2  945   1.330   1.956   1.297  3.6300 -2.0250 -2.2031
  316SOL     OW  946   0.352   2.238   0.656  0.6273 -0.6588 -0.5109
  316SOL    HW1  947   0.291   2.307   0.698  0.2073  1.2214 -1.5718
  316SOL    HW2  948   0.446   2.232   0.693 -2.3044 -0.2248  0.9606
  317SOL     OW  949   2.597   0.372   1.099 -0.0699 -0.2805  0.0543
  317SOL    HW1  950   2.621   0.415   1.186 -2.0613 -2.5940 -2.1190
  317SOL    HW2  951   2.586   0.271   1.099 -2.2236  0.4788 -2.2354
  318SOL     OW  952   1.305   2.539   0.252  0.3987 -0.3862 -0.2364
  318SOL    HW1  953   1.308   2.617   0.322 -0.2716  2.8372 -0.7712
  318SOL    HW2  954   1.239   2.555   0.179 -1.0149 -0.6646 -0.1364
  319SOL     OW  955   1.382   0.214   2.957  0.1384  0.5118 -0.2242
  319SOL    HW1  956   1.329   0.127   2.953 -1.7419  0.6744 -2.4220
  319SOL    HW2  957   1.463   0.206   2.896 -0.1441 -3.3711  1.6822
  320SOL     OW  958   2.549   1.932   1.787  0.8855 -0.1601  0.4618
  320SOL    HW1  959   2.460   1.956   1.734 -2.4381 -0.2619 -2.7660
  320SOL    HW2  960   2.564   1.829   1.782  1.8475 -2.0699  0.0987
  321SOL     OW  961   0.177   2.568   2.932  0.2053  0.4474 -0.2639
  321SOL    HW1  962   0.113   2.632   2.886  0.4604 -0.8848 -0.4189
  321SOL    HW2  963   0.121   2.514   2.999 -1.4394 -1.5101  1.9669
  322SOL     OW  964   2.693   0.896   1.623  0.1008 -0.3076 -0.3496
  322SOL    HW1  965   2.597   0.921   1.636  0.4447 -0.0348  1.0495
  322SOL    HW2  966   2.748   0.940   1.546  1.3829 -1.0637  0.2615
  323SOL     OW  967   1.729   1.486   0.258  0.2079  0.6642  0.7576
  323SOL    HW1  968   1.636   1.522   0.284 -2.1051  1.5021  3.8656
  323SOL    HW2  969   1.725   1.392   0.218 -0.5266 -2.1572 -0.4488
  324SOL     OW  970   3.052   0.386   1.572  0.0107  0.5245 -0.0303
  324SOL    HW1  971   3.090   0.479   1.587  0.9242 -1.9982 -0.9263
  324SOL    HW2  972   3.091   0.321   1.642  1.7483  0.8626  0.6685
  325SOL     OW  973   2.666   2.983   1.204 -0.0183 -0.0445 -0.4161
  325SOL    HW1  974   2.607   2.904   1.232 -0.2062  2.5148  0.2482
  325SOL    HW2  975   2.679   3.044   1.283  0.7717  2.2007  0.5583
  326SOL     OW  976   1.723   2.776   0.351  0.2215 -0.6249  0.0861
  326SOL    HW1  977   1.672   2.790   0.264  1.4610  0.8252 -0.0719
  326SOL    HW2  978   1.674   2.815   0.435  0.7471 -1.4997  2.5219
  327SOL     OW  979   2.254   2.217   0.301  0.0329  0.7202  0.2379
  327SOL    HW1  980   2.172   2.156   0.290  0.1158 -0.0684 -1.3631
  327SOL    HW2  981   2.245   2.312   0.270 -0.6355 -2.0810 -0.5469
  328SOL     OW  982   2.650   2.279   1.957 -0.3928  0.1732 -0.3400
  328SOL    HW1  983   2.737   2.228   1.934 -0.2657  0.3358  1.1455
  328SOL    HW2  984   2.666   2.350   2.027  0.6287 -1.5944  1.6788
  329SOL     OW  985   0.094   2.133   0.700 -0.0232  0.2643 -0.0280
  329SOL    HW1  986   0.084   2.171   0.792  0.8112 -0.5352 -3.1180
  329SOL    HW2  987   0.191   2.143   0.666  0.7162  3.1044 -0.3383
  330SOL     OW  988   2.286   1.100   2.020  0.1558 -0.4314 -0.0129
  330SOL    HW1  989   2.292   1.144   1.926  1.4148  0.2872  0.4259
  330SOL    HW2  990   2.211   1.028   2.016 -1.7586  1.9348 -4.1076
  331SOL     OW  991   2.184   1.665   0.591  0.1080 -0.3652  0.3979
  331SOL    HW1  992   2.281   1.676   0.624  0.2584 -0.8651  2.0285
  331SOL    HW2  993   2.177   1.582   0.531 -0.3539  0.7165  1.8283
  332SOL     OW  994   0.161   2.833   1.544 -0.1619  0.4682 -0.0243
  332SOL    HW1  995   0.057   2.834   1.528 -2.2288 -1.5176 -1.5404
  332SOL    HW2  996   0.199   2.925   1.526  1.1482 -1.9026  0.6617
  333SOL     OW  997   0.165   1.770   1.967  0.5184 -0.1480 -0.1092
  333SOL    HW1  998   0.218   1.706   1.911 -0.0494 -0.1533  2.6200
  333SOL    HW2  999   0.214   1.859   1.952  1.7935 -3.8880 -0.6555
  334SOL     OW 1000   0.231   0.759   1.436  0.1073 -0.0014 -0.7062
  334SOL    HW1 1001   0.257   0.852   1.410 -1.7266  0.1199 -0.1531
  334SOL    HW2 1002   0.211   0.704   1.354 -2.1955 -0.4324 -0.4229
  335SOL     OW 1003   2.926   1.835   1.842 -0.3650  0.2592  0.1380
  335SOL    HW1 1004   3.009   1.819   1.788 -0.5241  1.3630 -2.9083
  335SOL    HW2 1005   2.899   1.752   1.894 -2.1144  0.5755  1.3648
  336SOL     OW 1006   1.962   3.046   2.899  0.0236 -0.5075  0.0939
  336SOL    HW1 1007   1.932   2.955   2.932  3.0520  0.5787  1.0635
  336SOL    HW2 1008   2.046   3.078   2.946  1.4010 -1.3072 -2.7654
  337SOL     OW 1009   0.571   0.584   1.392 -0.3808 -0.1662 -0.3477
  337SOL    HW1 1010   0.572   0.681   1.356 -0.4385 -0.0011  1.4957
  337SOL    HW2 1011   0.484   0.563   1.442 -2.4402 -0.6203 -0.3366
  338SOL     OW 1012   1.625   2.339   0.717  0.1116  0.4555  0.2018
  338SOL    HW1 1013   1.646   2.335   0.619  2.4297  0.0283 -0.2775
  338SOL    HW2 1014   1.706   2.323   0.772 -0.8169  1.2536 -2.7035
  339SOL     OW 1015   0.191   1.863   1.062 -0.9466 -0.3027  0.7995
  339SOL    HW1 1016   0.141   1.916   1.130  1.5663 -2.0700 -2.4310
  339SOL    HW2 1017   0.287   1.897   1.046  1.2474 -0.5091 -0.9829
  340SOL     OW 1018   0.410   0.029   2.232  0.4805 -0.2683 -0.1557
  340SOL    HW1 1019   0.365   0.101   2.181  0.7749 -1.3982  3.6277
  340SOL    HW2 1020   0.341   3.080   2.267  0.7746  0.8196  1.7378
  341SOL     OW 1021   2.225   1.364   0.822  0.5061  0.1676  0.4149
  341SOL    HW1 1022   2.163   1.444   0.839 -0.5244  1.1423  0.2491
  341SOL    HW2 1023   2.319   1.382   0.793 -0.6720  1.2672 -0.0303
  342SOL     OW 1024   1.753   2.068   0.566  0.0292  0.3118 -0.4260
  342SOL    HW1 1025   1.697   2.147   0.534 -0.6719  0.0583  0.8456
  342SOL    HW2 1026   1.831   2.058   0.503 -1.3446 -0.0557  3.8084
  343SOL     OW 1027   1.948   0.079   0.788  0.2193 -0.0237 -0.5595
  343SOL    HW1 1028   1.901   3.114   0.744  0.7783 -0.6448 -3.5449
  343SOL    HW2 1029   2.039   0.047   0.828  2.2901 -0.8371  1.0471
  344SOL     OW 1030   2.671   0.165   2.873 -0.1365  0.1213 -0.0885
  344SOL    HW1 1031   2.664   0.262   2.865 -0.2395  0.6951 -2.2857
  344SOL    HW2 1032   2.710   0.135   2.783  3.6304  3.1791  1.0356
  345SOL     OW 1033   1.351   2.763   1.232 -0.5576 -0.0122 -0.1253
  345SOL    HW1 1034   1.332   2.823   1.309 -3.8522 -3.5120 -1.4834
  345SOL    HW2 1035   1.265   2.741   1.187 -0.9583 -1.5550  1.0581
  346SOL     OW 1036   2.370   2.109   1.619 -0.3798  0.1383 -0.0391
  346SOL    HW1 1037   2.311   2.189   1.602 -0.8799  1.1036 -1.0970
  346SOL    HW2 1038   2.390   2.053   1.535 -0.1926 -0.1751 -0.4952
  347SOL     OW 1039   2.637   3.000   0.690 -0.1808  0.3203  0.0926
  347SOL    HW1 1040   2.664   2.929   0.760  1.0578 -1.0701  0.0720
  347SOL    HW2 1041   2.632   3.091   0.733  4.0704 -1.6904 -0.3735
  348SOL     OW 1042   0.806   1.019   1.244 -0.3653  0.1514  0.1153
  348SOL    HW1 1043   0.856   0.949   1.299 -1.3374 -2.1900 -0.1531
  348SOL    HW2 1044   0.850   1.109   1.254 -3.1063 -3.1446  0.7548
  349SOL     OW 1045   2.235   0.195   3.055 -0.3493 -0.1862 -0.3029
  349SOL    HW1 1046   2.278   0.281   3.094  1.9036  2.6083 -0.4641
  349SOL    HW2 1047   2.295   0.154   2.980 -2.1643 -0.6819  1.3234
  350SOL     OW 1048   2.591   2.146   3.023 -0.7106 -1.0863  0.0900
  350SOL    HW1 1049   2.572   2.047   3.020 -0.6764 -0.0636  0.6919
  350SOL    HW2 1050   2.521   2.195   2.967 -0.8172  3.7594  0.4820
  351SOL     OW 1051   0.968   0.409   0.807 -0.3057 -0.3978  0.2296
  351SOL    HW1 1052   1.034   0.333   0.824 -1.0244 -0.8981 -1.0552
  351SOL    HW2 1053   0.893   0.384   0.746  0.8948 -0.0744  2.1336
  352SOL     OW 1054   2.167   2.529   2.744 -0.4204  0.5412 -0.0455
  352SOL    HW1 1055   2.230   2.576   2.809  0.3932 -0.5985 -1.6598
  352SOL    HW2 1056   2.168   2.568   2.648  0.2878 -0.3249 -1.4626
  353SOL     OW 1057   0.513   0.497   3.072  0.0930  0.5383  0.7696
  353SOL    HW1 1058   0.533   0.467   0.051  0.3985 -0.4543  0.7718
  353SOL    HW2 1059   0.428   0.553   3.068 -0.3011  0.0531 -0.7773
  354SOL     OW 1060   0.965   1.732   0.016 -0.0925 -0.1357 -0.1154
  354SOL    HW1 1061   1.020   1.748   0.104  1.3046 -0.6443  3.2359
  354SOL    HW2 1062   1.022   1.752   3.046  0.3891  1.5450 -0.6224
  355SOL     OW 1063   2.760   2.758   1.565 -0.3427  0.0467 -0.2693
  355SOL    HW1 1064   2.690   2.827   1.579 -0.1088 -2.0759  0.0122
  355SOL    HW2 1065   2.724   2.661   1.557 -0.0547 -1.7662  0.2744
  356SOL     OW 1066   3.025   0.827   0.647  0.1011  0.1383 -0.4555
  356SOL    HW1 1067   2.971   0.914   0.629  0.3009 -0.2449 -0.9466
  356SOL    HW2 1068   2.974   0.748   0.604 -0.1270  0.4194 -1.5478
  357SOL     OW 1069   2.366   0.462   0.988 -0.1700 -0.2555 -0.0609
  357SOL    HW1 1070   2.373   0.550   1.030  0.8224 -1.3030 -2.4265
  357SOL    HW2 1071   2.450   0.412   1.012  0.2230 -1.3902  0.2741
  358SOL     OW 1072   1.058   2.512   0.927  0.0752  0.0063 -0.3581
  358SOL    HW1 1073   1.112   2.443   0.884 -0.3406  2.7001 -2.4859
  358SOL    HW2 1074   1.070   2.597   0.875 -1.7536 -0.9006  1.9990
  359SOL     OW 1075   3.052   2.346   2.828 -0.0009 -0.0760 -0.2181
  359SOL    HW1 1076   3.033   2.258   2.778 -0.9744 -0.4538  0.2765
  359SOL    HW2 1077   2.982   2.360   2.903  1.5822  0.6771  1.8364
  360SOL     OW 1078   0.461   1.039   1.854  0.7130 -0.0078 -0.1948
  360SOL    HW1 1079   0.552   1.024   1.824 -2.3883  1.6770  0.3594
  360SOL    HW2 1080   0.406   0.953   1.830  1.9541 -1.7476  0.4564
  361SOL     OW 1081   2.420   2.840   0.657  0.1772 -0.3647  0.2318
  361SOL    HW1 1082   2.342   2.883   0.603 -3.3079 -0.6985  0.1223
  361SOL    HW2 1083   2.503   2.893   0.645 -1.5784 -3.4773 -1.2623
  362SOL     OW 1084   3.034   0.056   0.991  0.3036 -0.0071  0.1910
  362SOL    HW1 1085   3.048   3.087   0.937  0.4259  1.3955 -1.4750
  362SOL    HW2 1086   3.037   0.043   1.089  1.7986  2.4984 -0.1290
  363SOL     OW 1087   0.599   1.426   0.600  0.3790  0.2704  0.6950
  363SOL    HW1 1088   0.611   1.342   0.544  2.7971  0.8772 -0.0153
  363SOL    HW2 1089   0.501   1.431   0.637 -2.4191  4.0403  0.9124
  364SOL     OW 1090   0.841   1.578   1.482 -0.0351 -0.1338  0.1173
  364SOL    HW1 1091   0.788   1.502   1.522 -0.4576 -0.5674  0.0950
  364SOL    HW2 1092   0.830   1.653   1.545 -1.0360 -1.0820 -0.3700
  365SOL     OW 1093   2.332   1.288   0.325 -0.5293  0.1916  0.3221
  365SOL    HW1 1094   2.359   1.218   0.394  0.6167  0.3208 -0.5003
  365SOL    HW2 1095   2.402   1.361   0.314  5.0318 -2.4822 -1.5622
  366SOL     OW 1096   2.748   1.586   1.162 -0.0595 -0.1745 -0.5940
  366SOL    HW1 1097   2.840   1.616   1.194  0.5472 -1.4402  0.1253
  366SOL    HW2 1098   2.682   1.606   1.236  0.5775 -1.1224  2.8990
  367SOL     OW 1099   2.165   1.891   1.865 -0.0599 -0.6592 -0.6408
  367SOL    HW1 1100   2.153   1.811   1.928  1.7321 -1.3396  1.4178
  367SOL    HW2 1101   2.212   1.964   1.918 -0.8661 -1.4387  1.0757
  368SOL     OW 1102   2.814   1.076   1.439 -0.4212  0.0358 -1.1669
  368SOL    HW1 1103   2.848   1.170   1.434 -1.9796 -0.6332  3.2911
  368SOL    HW2 1104   2.893   1.008   1.431  0.7095 -0.1559 -1.0162
  369SOL     OW 1105   2.299   2.734   0.211  0.0243  0.4322 -0.0761
  369SOL    HW1 1106   2.323   2.826   0.250  1.9230 -0.5678  0.0782
  369SOL    HW2 1107   2.370   2.705   0.146 -1.2631  0.2476 -0.0002
  370SOL     OW 1108   3.016   2.857   1.492  0.7193  0.2124 -0.0159
  370SOL    HW1 1109   2.935   2.800   1.520  0.4638 -2.0499 -3.2119
  370SOL    HW2 1110   3.024   2.872   1.390 -2.6554 -2.0651 -1.7748
  371SOL     OW 1111   0.812   1.688   2.501 -0.2253 -0.1986  0.1150
  371SOL    HW1 1112   0.738   1.752   2.531 -2.0595 -1.0278  0.2272
  371SOL    HW2 1113   0.787   1.645   2.416  0.0286  0.0393  2.3756
  372SOL     OW 1114   0.616   1.152   0.488 -0.2218 -0.1110  0.6687
  372SOL    HW1 1115   0.611   1.061   0.530  1.3034  0.1647 -1.4184
  372SOL    HW2 1116   0.630   1.142   0.387 -2.2916 -0.1254  1.7153
  373SOL     OW 1117   1.622   2.667   2.977 -0.3656 -0.1237  0.1447
  373SOL    HW1 1118   1.609   2.637   3.074  1.9697  0.6943  0.5060
  373SOL    HW2 1119   1.550   2.635   2.913 -0.1582  0.6559 -3.9847
  374SOL     OW 1120   0.257   1.841   0.120  0.0401  1.3279  0.5263
  374SOL    HW1 1121   0.256   1.936   0.086  1.5000 -5.2954 -1.2251
  374SOL    HW2 1122   0.169   1.790   0.110 -0.8516 -1.4082 -0.5733
  375SOL     OW 1123   1.185   1.377   1.688  0.5651  0.9563 -0.2851
  375SOL    HW1 1124   1.183   1.420   1.599 -0.4398 -1.1786  0.1261
  375SOL    HW2 1125   1.098   1.329   1.706  1.7475 -0.2643  1.7723
  376SOL     OW 1126   0.739   2.449   1.489  0.1433 -0.6327  0.8002
  376SOL    HW1 1127   0.648   2.402   1.487 -1.4230 -2.1687  0.4039
  376SOL    HW2 1128   0.741   2.509   1.572 -0.6866  0.7659  0.0438
  377SOL     OW 1129   2.548   1.582   2.238 -0.2565  0.6128  0.1942
  377SOL    HW1 1130   2.474   1.516   2.265 -0.2660  0.0062  1.7524
  377SOL    HW2 1131   2.631   1.524   2.214  0.2496 -1.2088 -2.5866
  378SOL     OW 1132   0.918   2.814   3.084 -0.4429 -0.0334  0.4746
  378SOL    HW1 1133   0.829   2.863   3.087 -0.2677 -0.3860  1.3238
  378SOL    HW2 1134   0.995   2.874   0.001  1.9645  2.7573  0.8021
  379SOL     OW 1135   1.713   0.440   0.770 -0.2218  0.7399  0.4049
  379SOL    HW1 1136   1.718   0.518   0.837  2.3252 -1.2281 -1.4541
  379SOL    HW2 1137   1.728   0.476   0.678 -2.1524 -0.6869  0.5314
  380SOL     OW 1138   2.920   1.908   1.352  0.0978  0.9485 -0.3311
  380SOL    HW1 1139   2.923   1.955   1.439  0.7577 -3.1910 -3.8598
  380SOL    HW2 1140   2.823   1.903   1.318 -1.2838  0.2138 -0.6820
  381SOL     OW 1141   1.737   1.890   1.770 -0.2277 -0.0219 -0.0839
  381SOL    HW1 1142   1.641   1.886   1.739  0.0676 -0.0709 -1.3617
  381SOL    HW2 1143   1.787   1.949   1.700  1.0027  2.7769 -1.7631
  382SOL     OW 1144   2.967   0.406   3.028 -0.0609  0.3432  0.0180
  382SOL    HW1 1145   2.972   0.342   2.952  0.3374 -2.1493  2.6769
  382SOL    HW2 1146   2.894   0.473   3.014  2.1728 -1.0605  0.9966
  383SOL     OW 1147   1.735   1.188   2.578 -0.2584 -0.1179 -0.3474
  383SOL    HW1 1148   1.651   1.239   2.615  0.1687 -2.6854 -1.4758
  383SOL    HW2 1149   1.819   1.208   2.628 -2.8656  0.6715  1.9182
  384SOL     OW 1150   1.287   2.220   1.279  0.0155  0.5509  0.4015
  384SOL    HW1 1151   1.331   2.195   1.190  2.5414 -0.7449 -0.2388
  384SOL    HW2 1152   1.187   2.235   1.260 -1.1057  2.2427 -0.9427
  385SOL     OW 1153   2.025   2.369   0.742 -0.1209 -0.3422  0.0309
  385SOL    HW1 1154   2.010   2.328   0.650  0.4427  1.1262  1.5990
  385SOL    HW2 1155   1.958   2.328   0.809 -2.9748 -1.7384 -0.6760
  386SOL     OW 1156   2.222   2.026   0.913 -0.2247 -0.0840  0.0594
  386SOL    HW1 1157   2.221   2.126   0.922  0.2146 -2.1826  1.2663
  386SOL    HW2 1158   2.255   1.981   0.995  0.7482  1.3211 -2.0297
  387SOL     OW 1159   0.496   2.320   1.361  0.2667  0.1971 -0.1177
  387SOL    HW1 1160   0.424   2.345   1.426  1.0196  0.2837 -0.6306
  387SOL    HW2 1161   0.524   2.220   1.366  1.1075 -0.7456 -0.6580
  388SOL     OW 1162   0.043   0.710   2.072 -0.2446 -0.7559 -0.4042
  388SOL    HW1 1163   0.056   0.613   2.100  0.5052 -0.0292  0.8411
  388SOL    HW2 1164   0.085   0.780   2.134  2.5951  1.4953  1.6108
  389SOL     OW 1165   1.801   1.221   0.936 -0.3747 -0.1911  0.3515
  389SOL    HW1 1166   1.772   1.313   0.956  1.1818  2.0197 -1.6582
  389SOL    HW2 1167   1.720   1.159   0.937 -0.4273  2.5360 -0.5762
  390SOL     OW 1168   1.021   2.159   2.345 -0.1827  0.3840 -0.1996
  390SOL    HW1 1169   0.951   2.234   2.347  0.9062  2.0444  0.0259
  390SOL    HW2 1170   0.992   2.069   2.375  1.2109  0.0733 -1.6877
  391SOL     OW 1171   0.864   1.956   2.800  0.5433  0.3768 -0.3444
  391SOL    HW1 1172   0.798   1.910   2.869 -2.5372 -0.5751  5.1308
  391SOL    HW2 1173   0.816   2.017   2.739  0.4930 -0.5894  2.8685
  392SOL     OW 1174   2.951   2.866   2.122  0.0310 -0.6521 -0.2303
  392SOL    HW1 1175   2.905   2.920   2.044 -3.3969  0.1573 -2.9562
  392SOL    HW2 1176   3.026   2.815   2.084 -2.1483  0.2424  2.7675
  393SOL     OW 1177   1.972   2.824   0.472 -0.8373  0.0426  0.0282
  393SOL    HW1 1178   1.886   2.800   0.424  0.2882 -0.1918  0.1357
  393SOL    HW2 1179   2.020   2.740   0.512  0.7328 -0.1932  0.2201
  394SOL     OW 1180   0.696   0.669   2.546 -0.6519  0.2288 -0.0688
  394SOL    HW1 1181   0.628   0.675   2.620  1.8246  1.0546 -0.8619
  394SOL    HW2 1182   0.647   0.614   2.467 -1.4127 -2.1098 -1.7734
  395SOL     OW 1183   0.717   1.256   1.395 -0.1498 -0.6946 -0.0549
  395SOL    HW1 1184   0.695   1.178   1.458 -0.1040 -0.9931  0.2867
  395SOL    HW2 1185   0.817   1.268   1.378  0.5200  0.9617 -2.0395
  396SOL     OW 1186   1.738   1.527   2.096  0.3087 -0.0922  0.1616
  396SOL    HW1 1187   1.700   1.445   2.048 -0.6725  1.5554  0.4843
  396SOL    HW2 1188   1.741   1.502   2.192  0.4873 -0.5248 -3.9513
  397SOL     OW 1189   0.915   0.533   2.677 -0.0083  0.2186 -0.3395
  397SOL    HW1 1190   0.898   0.532   2.779  0.5224 -0.3218 -0.4654
  397SOL    HW2 1191   0.838   0.584   2.631  0.3269  0.6439 -1.1156
  398SOL     OW 1192   0.333   1.937   2.661  0.1065 -0.0792 -0.1225
  398SOL    HW1 1193   0.387   2.026   2.665 -1.6289  0.7200 -1.3865
  398SOL    HW2 1194   0.293   1.922   2.571  1.7454  1.2699  1.7243
  399SOL     OW 1195   0.096   1.817   2.223 -0.0853  0.3765  0.2041
  399SOL    HW1 1196   0.104   1.729   2.274  0.3702  0.2263  0.9498
  399SOL    HW2 1197   0.143   1.813   2.133  0.6845 -0.7261  1.3741
  400SOL     OW 1198   2.865   0.680   1.673 -0.0509  0.2780 -0.1633
  400SOL    HW1 1199   2.788   0.749   1.675 -2.5487 -1.2322 -0.9890
  400SOL    HW2 1200   2.867   0.623   1.753 -0.2897  1.3789  1.0708
  401SOL     OW 1201   0.854   1.704   0.353 -0.0042  0.3530 -0.4545
  401SOL    HW1 1202   0.824   1.607   0.324 -0.3901 -0.6586  1.2100
  401SOL    HW2 1203   0.950   1.720   0.339  0.2890  2.3714 -0.7547
  402SOL     OW 1204   0.065   2.548   2.170 -0.0061  0.8158  0.0529
  402SOL    HW1 1205   0.081   2.630   2.107 -1.3301  1.1183 -0.8403
  402SOL    HW2 1206   0.074   2.467   2.107  0.5231 -0.3700 -1.3379
  403SOL     OW 1207   0.373   1.412   2.126  0.1193  0.1697  0.6848
  403SOL    HW1 1208   0.305   1.394   2.193  4.0211 -0.3400 -1.9345
  403SOL    HW2 1209   0.425   1.496   2.149  3.9288 -2.2965 -0.7632
  404SOL     OW 1210   1.883   1.989   1.554 -0.5096 -0.3563  0.4113
  404SOL    HW1 1211   1.861   2.029   1.460  1.0041 -0.0554  0.1077
  404SOL    HW2 1212   1.932   1.901   1.541 -1.7513  0.0435  0.6641
  405SOL     OW 1213   2.772   2.609   2.676  0.2137  0.4250 -0.5162
  405SOL    HW1 1214   2.697   2.569   2.731 -1.3612  1.2095 -0.4179
  405SOL    HW2 1215   2.861   2.609   2.726 -1.6702  0.4205  0.0834
  406SOL     OW 1216   0.424   1.374   2.930 -0.5842 -0.3161 -0.5364
  406SOL    HW1 1217   0.453   1.396   3.027  0.2789 -2.3753  3.7393
  406SOL    HW2 1218   0.487   1.413   2.863  0.7861 -1.7447  2.1358
  407SOL     OW 1219   2.359   2.720   2.844  0.2735 -0.3137  0.1732
  407SOL    HW1 1220   2.383   2.741   2.746 -1.3692 -1.5169 -1.1209
  407SOL    HW2 1221   2.392   2.791   2.912 -0.3912 -0.8269  1.5698
  408SOL     OW 1222   2.493   2.650   0.042 -0.4429  0.0882 -0.5332
  408SOL    HW1 1223   2.560   2.622   0.116  2.9272  2.2394  2.3907
  408SOL    HW2 1224   2.506   2.587   3.079  0.3385 -1.4958  2.7219
  409SOL     OW 1225   2.148   1.141   0.703  0.1702  0.3882 -0.4326
  409SOL    HW1 1226   2.160   1.228   0.755 -0.4250 -1.1754  1.8611
  409SOL    HW2 1227   2.049   1.118   0.700 -1.1313  1.3292  0.8579
  410SOL     OW 1228   2.947   1.471   0.759  1.0229  0.0489 -0.3468
  410SOL    HW1 1229   2.886   1.534   0.808  1.6191 -1.5189 -1.0873
  410SOL    HW2 1230   3.029   1.526   0.744 -0.8633  1.0249  1.3142
  411SOL     OW 1231   0.377   1.376   0.766 -0.5257 -0.5623  0.4010
  411SOL    HW1 1232   0.381   1.475   0.787  0.8988 -0.5016  2.6923
  411SOL    HW2 1233   0.444   1.327   0.828  1.1174 -0.2150 -1.9825
  412SOL     OW 1234   2.422   2.336   0.695 -0.0436 -0.6683 -0.1791
  412SOL    HW1 1235   2.377   2.420   0.650 -1.0823  2.4470  0.1557
  412SOL    HW2 1236   2.429   2.333   0.799  0.1191  1.5458  0.6305
  413SOL     OW 1237   1.690   1.110   2.181 -0.0680 -0.3716 -0.1407
  413SOL    HW1 1238   1.693   1.030   2.122  0.7468  2.9013 -0.8812
  413SOL    HW2 1239   1.605   1.160   2.182  4.1819 -1.0002  1.7742
  414SOL     OW 1240   2.750   3.052   0.249  0.1279  0.1815  0.2891
  414SOL    HW1 1241   2.724   3.092   0.157 -2.2839 -0.2556 -0.2158
  414SOL    HW2 1242   2.828   3.111   0.282 -0.9737  0.4421  0.3488
  415SOL     OW 1243   0.977   2.214   1.275  0.1463 -0.1031  0.2725
  415SOL    HW1 1244   0.953   2.221   1.375 -2.4588 -1.6497 -0.0654
  415SOL    HW2 1245   0.930   2.130   1.239 -2.5348  0.2310  1.7065
  416SOL     OW 1246   3.036   2.616   2.781 -0.0154 -0.4302 -0.5698
  416SOL    HW1 1247   3.098   2.642   2.704 -2.2181 -0.7398  0.5584
  416SOL    HW2 1248   3.042   2.512   2.798  2.1539 -1.4348 -4.0885
  417SOL     OW 1249   2.720   0.646   1.191 -0.1843  0.0334 -0.0884
  417SOL    HW1 1250   2.777   0.701   1.127 -0.2208 -2.6058 -1.9131
  417SOL    HW2 1251   2.784   0.615   1.265 -0.6664 -0.1045 -0.7869
  418SOL     OW 1252   3.109   0.019   0.162  0.0909 -0.5870  0.1836
  418SOL    HW1 1253   0.022   3.100   0.254 -0.2295  0.5561 -1.9302
  418SOL    HW2 1254   3.079   3.057   0.101 -0.8077  1.8887  1.4192
  419SOL     OW 1255   0.130   1.586   1.516 -0.3302  0.4058  0.1351
  419SOL    HW1 1256   0.030   1.553   1.511  0.5013 -0.9502  0.0703
  419SOL    HW2 1257   0.167   1.617   1.427 -0.8027  3.5181  1.5008
  420SOL     OW 1258   0.109   1.467   0.092  1.1673 -0.5146 -0.1375
  420SOL    HW1 1259   0.192   1.517   0.110  0.6887 -1.6980 -0.2095
  420SOL    HW2 1260   0.127   1.396   0.019  0.4097 -0.0531 -2.1838
  421SOL     OW 1261   2.140   2.622   2.479  0.5205  0.0483 -0.2962
  421SOL    HW1 1262   2.041   2.651   2.461  1.7701 -1.9093 -0.7479
  421SOL    HW2 1263   2.179   2.559   2.409  1.3925 -2.5456  0.9324
  422SOL     OW 1264   0.284   0.927   2.739 -0.0394 -0.6749 -0.5289
  422SOL    HW1 1265   0.271   0.838   2.695 -0.0898  0.5763 -1.5857
  422SOL    HW2 1266   0.292   0.928   2.844 -1.0935 -0.7588  0.9434
  423SOL     OW 1267   1.244   2.200   0.527  0.5433 -0.0021  0.2054
  423SOL    HW1 1268   1.319   2.167   0.586 -0.9955 -0.0738  0.1398
  423SOL    HW2 1269   1.163   2.137   0.529 -2.9386  1.2686 -0.9040
  424SOL     OW 1270   0.732   2.014   1.587  0.0694 -0.0138  0.4322
  424SOL    HW1 1271   0.799   2.091   1.585 -0.4322 -0.2672  2.0583
  424SOL    HW2 1272   0.771   1.934   1.635  1.1332  1.6136 -3.1583
  425SOL     OW 1273   2.578   2.449   2.554 -0.2371  0.4091  0.2880
  425SOL    HW1 1274   2.514   2.487   2.491 -1.0515 -0.0834 -0.8714
  425SOL    HW2 1275   2.651   2.516   2.573 -1.0625  0.4996 -0.0861
  426SOL     OW 1276   1.352   0.481   0.908 -0.0855 -0.4975  0.1289
  426SOL    HW1 1277   1.416   0.407   0.901 -1.4513  0.8148  1.1328
  426SOL    HW2 1278   1.294   0.488   0.826 -1.6787 -1.5121 -0.2629
  427SOL     OW 1279   0.028   1.518   2.725 -0.0093 -0.2912  0.0969
  427SOL    HW1 1280   0.000   1.599   2.778 -0.0303  2.3587 -0.0953
  427SOL    HW2 1281   3.107   1.436   2.770 -0.4649  1.3281  2.2108
  428SOL     OW 1282   1.051   1.288   0.077  0.3366  0.0070  0.0453
  428SOL    HW1 1283   1.059   1.193   0.118  0.9233  0.4374 -1.2223
  428SOL    HW2 1284   1.001   1.279   3.101  0.4809 -3.1326 -0.5031
  429SOL     OW 1285   2.777   2.639   0.566  0.3719 -0.2368 -0.1167
  429SOL    HW1 1286   2.724   2.553   0.567  0.1173  3.2566 -0.1233
  429SOL    HW2 1287   2.770   2.689   0.474  2.7586  1.3397  0.5725
  430SOL     OW 1288   0.404   2.293   2.291 -0.0693  0.5199 -0.1961
  430SOL    HW1 1289   0.319   2.341   2.308 -1.8353 -1.4433 -2.1589
  430SOL    HW2 1290   0.394   2.212   2.228 -0.8213 -0.7152  0.2213
  431SOL     OW 1291   2.904   1.313   0.502  0.3562 -0.3156  0.2379
  431SOL    HW1 1292   2.941   1.375   0.575 -2.5491  0.0065  0.6807
  431SOL    HW2 1293   2.968   1.309   0.425  1.9248  0.7306  0.3633
  432SOL     OW 1294   1.863   2.699   2.450  0.3386 -0.3686  0.3518
  432SOL    HW1 1295   1.822   2.758   2.380 -0.5988 -0.8097  3.0774
  432SOL    HW2 1296   1.835   2.739   2.539  2.8627 -0.1448  1.3502
  433SOL     OW 1297   1.330   2.733   0.454 -0.2698  0.1389  0.2833
  433SOL    HW1 1298   1.400   2.804   0.470  0.8806 -0.3757  0.7927
  433SOL    HW2 1299   1.332   2.667   0.529 -1.5981 -0.9762 -1.6446
  434SOL     OW 1300   1.391   1.745   2.281  0.0928 -0.6345  0.2470
  434SOL    HW1 1301   1.388   1.839   2.323  1.7220  0.3886  2.7141
  434SOL    HW2 1302   1.369   1.676   2.354 -1.3262  1.2705 -0.3253
  435SOL     OW 1303   2.493   0.646   0.036 -0.5759  0.0713 -0.2033
  435SOL    HW1 1304   2.482   0.709   3.073 -1.1078  0.5478  0.8404
  435SOL    HW2 1305   2.555   0.690   0.106  0.6508  0.0835  1.0007
  436SOL     OW 1306   0.414   2.693   2.363  0.4265  0.4703 -0.2131
  436SOL    HW1 1307   0.332   2.630   2.373 -1.6751 -1.4885  0.1179
  436SOL    HW2 1308   0.450   2.704   2.269  0.7315  2.7683 -1.0670
  437SOL     OW 1309   2.062   3.111   1.507  0.2311  0.0323  0.0477
  437SOL    HW1 1310   2.085   3.014   1.491 -0.8306 -2.4245  1.0184
  437SOL    HW2 1311   2.127   0.063   1.466  0.7462  1.5127 -0.4860
  438SOL     OW 1312   0.045   1.669   0.741  0.0501 -0.3624  0.0169
  438SOL    HW1 1313   3.105   1.751   0.723  0.1511 -0.7934  1.3422
  438SOL    HW2 1314   0.066   1.665   0.842 -0.0180  1.0284  0.4568
  439SOL     OW 1315   0.219   0.286   1.287 -0.2053 -0.5674  0.0969
  439SOL    HW1 1316   0.316   0.264   1.269  0.9469  3.5601  0.0462
  439SOL    HW2 1317   0.163   0.276   1.199 -0.4672  0.1921  0.1807
  440SOL     OW 1318   2.869   2.830   2.386  0.7274 -0.0843  0.4632
  440SOL    HW1 1319   2.870   2.731   2.403 -0.3966  2.1193 -1.3928
  440SOL    HW2 1320   2.871   2.850   2.286 -1.6027  2.8573 -1.2016
  441SOL     OW 1321   0.194   0.651   0.254 -1.1937 -0.1395 -0.3781
  441SOL    HW1 1322   0.273   0.695   0.307  1.3872 -0.6064  0.3690
  441SOL    HW2 1323   0.124   0.611   0.317 -0.7490 -4.2289  0.8366
  442SOL     OW 1324   1.539   2.440   2.262 -0.3505 -0.2342 -0.0949
  442SOL    HW1 1325   1.594   2.371   2.218  0.2259 -0.1074  0.9708
  442SOL    HW2 1326   1.526   2.407   2.356  0.1493  0.6248  0.4805
  443SOL     OW 1327   0.603   3.080   0.105 -0.6681  0.2762  0.0417
  443SOL    HW1 1328   0.636   3.004   0.045 -2.5187  1.1185 -1.0694
  443SOL    HW2 1329   0.626   0.060   0.069  1.8800  0.1434  0.0605
  444SOL     OW 1330   1.383   1.800   2.660 -0.4042 -0.8980  0.1993
  444SOL    HW1 1331   1.297   1.844   2.689 -1.9786 -1.2797 -2.5986
  444SOL    HW2 1332   1.371   1.721   2.597  0.0502  2.4170  0.2567
  445SOL     OW 1333   0.473   0.412   0.912 -1.1048 -0.2082 -0.2772
  445SOL    HW1 1334   0.412   0.342   0.880  2.0373  4.0473  0.4816
  445SOL    HW2 1335   0.495   0.390   1.007 -1.7663  0.4167 -1.9582
  446SOL     OW 1336   1.693   0.620   0.974 -0.3474  0.5597 -0.0771
  446SOL    HW1 1337   1.659   0.571   1.055 -0.6969  0.3922  1.6872
  446SOL    HW2 1338   1.749   0.695   1.016 -1.7685 -0.4528  0.3234
  447SOL     OW 1339   2.911   1.051   3.074 -0.0820  0.1917  0.1016
  447SOL    HW1 1340   2.867   0.968   0.004 -1.0662 -1.1823  1.0867
  447SOL    HW2 1341   3.005   1.063   3.109  1.2742 -0.1317 -0.1480
  448SOL     OW 1342   2.237   1.868   1.274  0.2371  0.5821  0.1207
  448SOL    HW1 1343   2.322   1.881   1.333 -0.9288  0.1386  2.2873
  448SOL    HW2 1344   2.178   1.945   1.279  1.9541 -1.9877  2.9680
  449SOL     OW 1345   0.838   1.583   2.919 -0.3498 -0.3929 -0.6387
  449SOL    HW1 1346   0.916   1.553   2.863 -0.7687  1.5612 -2.8380
  449SOL    HW2 1347   0.869   1.629   3.007  1.7999  0.3315  2.1236
  450SOL     OW 1348   2.187   2.973   2.355  0.2152 -0.0142 -0.1733
  450SOL    HW1 1349   2.148   2.941   2.437  2.0237 -0.5933  0.1000
  450SOL    HW2 1350   2.115   3.022   2.297 -1.9671  1.9346 -0.3730
  451SOL     OW 1351   2.439   0.820   2.639 -0.6247 -0.1966  0.2402
  451SOL    HW1 1352   2.373   0.801   2.715  1.1879  1.3024 -0.6209
  451SOL    HW2 1353   2.410   0.907   2.591  3.4792 -0.6952 -2.3685
  452SOL     OW 1354   1.818   1.212   1.311 -0.2353 -0.3218  0.3212
  452SOL    HW1 1355   1.755   1.207   1.230  1.2127  0.2024  2.6727
  452SOL    HW2 1356   1.770   1.177   1.391  1.8813 -0.0822 -1.4150
  453SOL     OW 1357   1.612   0.645   1.663 -0.2327 -0.0156 -0.0366
  453SOL    HW1 1358   1.620   0.544   1.668 -1.1392 -0.8154 -1.2570
  453SOL    HW2 1359   1.523   0.671   1.701  1.4141 -0.0816 -0.0358
  454SOL     OW 1360   0.023   0.826   2.982 -0.9328  0.3180  0.3679
  454SOL    HW1 1361   3.108   0.781   3.066  0.2963  0.4592 -3.0673
  454SOL    HW2 1362   0.108   0.884   2.993  0.7521 -2.6991 -3.1676
  455SOL     OW 1363   2.819   1.682   1.574 -0.4543 -0.4311  0.0988
  455SOL    HW1 1364   2.881   1.759   1.557 -0.4242 -1.1775  1.2136
  455SOL    HW2 1365   2.874   1.598   1.586 -2.2313  1.3451 -0.0949
  456SOL     OW 1366   1.616   2.812   1.735  0.2105  0.3473 -0.3871
  456SOL    HW1 1367   1.584   2.752   1.812  0.1521  1.5379  0.7435
  456SOL    HW2 1368   1.575   2.907   1.734  0.1059  1.5171  0.4359
  457SOL     OW 1369   1.547   2.818   0.908  0.4339  0.1348 -0.2352
  457SOL    HW1 1370   1.567   2.746   0.836  0.9050  0.1099 -2.0240
  457SOL    HW2 1371   1.576   2.783   0.999 -0.7885 -2.1968  1.9466
  458SOL     OW 1372   2.946   2.983   0.726  0.0048 -0.4987  0.7298
  458SOL    HW1 1373   2.885   2.907   0.762 -0.0499  0.9540  1.4291
  458SOL    HW2 1374   2.891   3.067   0.741 -2.6765 -1.4475 -1.1806
  459SOL     OW 1375   1.713   1.199   0.546  0.2227 -0.3227 -0.2399
  459SOL    HW1 1376   1.710   1.123   0.477 -1.9829 -2.0520  4.5002
  459SOL    HW2 1377   1.784   1.172   0.611  0.2034 -0.2148 -0.9556
  460SOL     OW 1378   0.857   2.449   2.334 -0.3523 -0.0744  0.1366
  460SOL    HW1 1379   0.868   2.485   2.237 -0.7455 -0.2858 -1.1529
  460SOL    HW2 1380   0.939   2.461   2.391 -3.1555  0.2982  2.6212
  461SOL     OW 1381   0.323   1.547   0.398  0.3310  0.4420 -0.7519
  461SOL    HW1 1382   0.323   1.572   0.303 -0.8176 -2.0467  1.4485
  461SOL    HW2 1383   0.363   1.455   0.400  0.4945  0.1766 -2.2777
  462SOL     OW 1384   2.008   2.063   0.332  0.3199 -0.4705  0.1873
  462SOL    HW1 1385   2.053   1.971   0.351 -1.3428  0.9483 -1.6374
  462SOL    HW2 1386   1.950   2.059   0.248  0.5269 -1.5609 -0.3688
  463SOL     OW 1387   2.748   0.611   0.258  0.0152 -0.0398  0.6673
  463SOL    HW1 1388   2.676   0.657   0.312 -0.9522 -0.7801 -3.3017
  463SOL    HW2 1389   2.718   0.517   0.233  0.7736  0.5774 -0.0919
  464SOL     OW 1390   0.549   2.081   0.248  0.1170  0.9847  0.0022
  464SOL    HW1 1391   0.593   2.006   0.194  1.9288 -0.3593 -0.7638
  464SOL    HW2 1392   0.612   2.161   0.245  0.8393 -0.1694 -1.4739
  465SOL     OW 1393   2.148   0.353   1.362 -0.6644 -0.8055  0.0128
  465SOL    HW1 1394   2.132   0.334   1.262 -0.0925  1.1855 -2.4022
  465SOL    HW2 1395   2.071   0.387   1.420 -1.0673  2.2921  0.0005
  466SOL     OW 1396   2.339   0.153   0.714  0.1242  0.2760 -0.1411
  466SOL    HW1 1397   2.272   0.137   0.640  0.7779  0.0722  2.5794
  466SOL    HW2 1398   2.346   0.255   0.717  1.1249  1.1443 -1.9869
  467SOL     OW 1399   0.511   0.525   2.377 -0.3902 -0.1339 -0.2397
  467SOL    HW1 1400   0.444   0.483   2.442  0.2880 -1.2040 -0.1009
  467SOL    HW2 1401   0.562   0.450   2.334 -2.3317  0.3066 -0.3783
  468SOL     OW 1402   2.743   0.061   2.272 -0.0615 -0.2232 -0.3028
  468SOL    HW1 1403   2.717   0.018   2.181  0.6352 -1.0737 -3.9104
  468SOL    HW2 1404   2.839   0.038   2.303  1.9755 -0.9624  1.8524
  469SOL     OW 1405   0.965   2.808   1.784  0.1714 -0.6338 -0.4972
  469SOL    HW1 1406   1.046   2.773   1.740 -1.5468 -0.6122 -1.3009
  469SOL    HW2 1407   0.896   2.840   1.716 -0.0193 -0.8267 -3.4163
  470SOL     OW 1408   2.538   0.979   1.880  0.1911  0.2021  0.3540
  470SOL    HW1 1409   2.568   0.897   1.930  0.6849  2.9003 -1.1471
  470SOL    HW2 1410   2.443   1.002   1.913  2.3442  0.0609 -1.1500
  471SOL     OW 1411   2.859   1.707   2.827  0.6004  0.1342  0.8298
  471SOL    HW1 1412   2.955   1.726   2.853 -3.0271 -3.4532 -2.2464
  471SOL    HW2 1413   2.810   1.675   2.914  0.7488 -1.5288  3.3941
  472SOL     OW 1414   0.615   2.268   0.783 -0.3453 -0.2715 -0.2430
  472SOL    HW1 1415   0.685   2.213   0.730  0.4430  1.3340 -0.7373
  472SOL    HW2 1416   0.659   2.339   0.846  0.8860  0.7159  2.9363
  473SOL     OW 1417   1.255   2.432   2.249  0.1510  0.7114  0.0636
  473SOL    HW1 1418   1.261   2.341   2.299 -1.5298  0.2100  2.9367
  473SOL    HW2 1419   1.343   2.447   2.194  2.1098 -0.5586 -0.9564
  474SOL     OW 1420   0.811   2.682   2.691 -0.3540 -0.5187  0.0444
  474SOL    HW1 1421   0.740   2.630   2.740 -0.0824  0.8261  0.3809
  474SOL    HW2 1422   0.888   2.692   2.751 -0.4042 -0.5206 -1.5081
  475SOL     OW 1423   0.751   1.917   0.014 -0.0734 -0.3690 -0.0550
  475SOL    HW1 1424   0.816   1.843   0.027  2.1742  2.9524 -0.1127
  475SOL    HW2 1425   0.659   1.875   0.003  1.2074 -0.1162  1.8765
  476SOL     OW 1426   1.041   0.765   0.990  0.0439  0.1128  0.2057
  476SOL    HW1 1427   0.983   0.683   1.021 -1.6658 -3.2308  0.3763
  476SOL    HW2 1428   0.966   0.834   0.971 -1.9159  0.0697  0.9957
  477SOL     OW 1429   2.136   2.122   1.320  0.3375  0.2435 -0.3911
  477SOL    HW1 1430   2.211   2.161   1.260 -0.4112  1.0302 -1.2244
  477SOL    HW2 1431   2.110   2.193   1.392  2.3070  0.6098  2.8249
  478SOL     OW 1432   0.102   0.440   3.047 -0.2582 -0.2409 -0.0129
  478SOL    HW1 1433   0.002   0.446   3.040  0.0067  0.4071 -2.6751
  478SOL    HW2 1434   0.133   0.365   3.104 -0.1940 -0.7702 -2.1817
  479SOL     OW 1435   1.050   3.037   1.566 -0.0266 -0.1347  0.1559
  479SOL    HW1 1436   0.996   0.004   1.587  0.7455  0.9353  0.2043
  479SOL    HW2 1437   0.993   2.971   1.513  0.8342 -0.0554 -1.6894
  480SOL     OW 1438   2.724   2.281   0.260  0.1504 -0.4188 -0.2636
  480SOL    HW1 1439   2.651   2.216   0.237  0.5166  0.4201  1.7254
  480SOL    HW2 1440   2.812   2.238   0.279 -1.5071  1.0647 -1.1257
  481SOL     OW 1441   0.133   0.775   1.796  0.1030  0.1552 -0.8247
  481SOL    HW1 1442   0.104   0.861   1.750 -0.7544 -0.4924  0.3875
  481SOL    HW2 1443   0.082   0.761   1.889 -2.5735 -1.6483  3.0879
  482SOL     OW 1444   0.969   3.109   1.069 -0.0395 -0.0039  0.1958
  482SOL    HW1 1445   0.869   3.103   1.045 -1.8769  0.0355  0.8558
  482SOL    HW2 1446   1.009   3.026   1.097  0.8844  2.6541  0.9897
  483SOL     OW 1447   3.011   1.440   2.492  0.0140  0.7394 -0.4456
  483SOL    HW1 1448   3.072   1.465   2.571  0.8031  1.5077  0.6580
  483SOL    HW2 1449   2.916   1.479   2.514  0.3663  2.6329  0.7947
  484SOL     OW 1450   1.770   1.823   2.029  0.0501  0.0762  0.1875
  484SOL    HW1 1451   1.797   1.723   2.018  0.2134 -2.3139  3.1359
  484SOL    HW2 1452   1.757   1.870   1.939  1.6079  3.8594  1.2182
  485SOL     OW 1453   0.249   2.930   2.340  0.0685 -0.1772  0.1035
  485SOL    HW1 1454   0.163   2.923   2.397  3.3719  1.7511 -0.2093
  485SOL    HW2 1455   0.324   2.875   2.389 -0.6800  1.0624  0.3048
  486SOL     OW 1456   1.114   0.052   0.706 -0.3542 -0.0761 -0.1636
  486SOL    HW1 1457   1.150   3.083   0.755  0.0976  0.5285  0.9549
  486SOL    HW2 1458   1.127   0.136   0.765 -3.0952 -0.9357 -1.1101
  487SOL     OW 1459   1.364   0.100   0.970 -1.1495 -0.3534  0.5065
  487SOL    HW1 1460   1.405   0.138   0.882  0.3817 -0.4920 -2.5340
  487SOL    HW2 1461   1.431   0.115   1.047  2.2725 -1.4181  0.2800
  488SOL     OW 1462   2.208   0.916   0.872  0.0476  0.2068  0.5136
  488SOL    HW1 1463   2.208   0.978   0.795  1.3695  0.3886  1.0415
  488SOL    HW2 1464   2.146   0.951   0.949 -3.2465  0.8592  1.2402
  489SOL     OW 1465   1.156   0.249   1.476 -0.0483  0.3260 -0.0499
  489SOL    HW1 1466   1.143   0.168   1.415 -0.6797 -0.5884  2.0511
  489SOL    HW2 1467   1.236   0.303   1.444  0.4253 -0.6946  0.0634
  490SOL     OW 1468   0.797   0.564   2.948  0.7723 -0.2769 -0.2086
  490SOL    HW1 1469   0.858   0.618   3.005  0.6064 -5.1958 -2.3431
  490SOL    HW2 1470   0.719   0.525   2.996  0.6650 -2.1448  0.5795
  491SOL     OW 1471   1.072   2.859   0.319 -0.0554  0.2139 -0.1231
  491SOL    HW1 1472   1.117   2.943   0.364  0.9701  0.3694 -0.6598
  491SOL    HW2 1473   1.133   2.775   0.307  0.3805 -1.3496 -0.7933
  492SOL     OW 1474   1.390   1.829   1.580  0.3284 -0.2109 -0.1642
  492SOL    HW1 1475   1.404   1.902   1.655 -0.0608 -0.9111  0.2457
  492SOL    HW2 1476   1.443   1.747   1.605  0.4793  1.4253  1.6194
  493SOL     OW 1477   0.344   1.593   0.135 -0.0431 -0.2371  0.3168
  493SOL    HW1 1478   0.332   1.696   0.132 -0.1414  2.1650 -3.5679
  493SOL    HW2 1479   0.427   1.571   0.080  2.5182 -1.2881 -0.3014
  494SOL     OW 1480   1.986   2.266   0.494 -0.4519  0.3968  0.1324
  494SOL    HW1 1481   2.003   2.183   0.439 -1.7181  0.5787 -0.6504
  494SOL    HW2 1482   1.950   2.331   0.426  1.7834  0.0051 -1.3134
  495SOL     OW 1483   0.471   1.717   2.384  0.2322 -0.6018 -0.3558
  495SOL    HW1 1484   0.514   1.782   2.446  1.9964 -1.0196 -0.6250
  495SOL    HW2 1485   0.432   1.647   2.444  0.4106 -0.8073 -0.1347
  496SOL     OW 1486   0.341   2.841   2.750  0.2015 -0.2085 -0.4462
  496SOL    HW1 1487   0.334   2.913   2.820  2.9291 -0.9960 -0.6062
  496SOL    HW2 1488   0.438   2.845   2.715  1.7675 -1.9137 -1.1020
  497SOL     OW 1489   1.466   1.234   0.653  0.2799  0.2058 -0.9563
  497SOL    HW1 1490   1.406   1.208   0.578  2.6728 -2.1232  0.0133
  497SOL    HW2 1491   1.560   1.237   0.619 -0.5554 -0.5265  0.7856
  498SOL     OW 1492   2.743   2.562   0.194  0.0981  0.0813  0.2882
  498SOL    HW1 1493   2.823   2.564   0.132 -0.6458  0.7024  0.7567
  498SOL    HW2 1494   2.722   2.464   0.219  0.5859 -1.7191 -1.2441
  499SOL     OW 1495   2.092   2.623   0.636  0.6104 -0.1497  0.2818
  499SOL    HW1 1496   2.074   2.523   0.649  0.5752  1.9625 -0.3183
  499SOL    HW2 1497   2.184   2.644   0.665 -3.4789 -0.1559 -0.0705
  500SOL     OW 1498   0.558   0.317   2.826  0.1976 -0.3106  0.2531
  500SOL    HW1 1499   0.547   0.407   2.866  2.2950 -1.6457 -2.1037
  500SOL    HW2 1500   0.639   0.312   2.766 -0.1713  0.5107 -0.4363
  501SOL     OW 1501   1.884   2.770   1.763 -0.0728  0.2025  0.1315
  501SOL    HW1 1502   1.871   2.724   1.852  0.3554  0.2933 -1.4248
  501SOL    HW2 1503   1.797   2.798   1.721 -2.5325 -2.3562 -1.9841
  502SOL     OW 1504   0.182   0.071   2.667  0.1044 -0.0245 -0.9375
  502SOL    HW1 1505   0.148   0.037   2.760 -1.7560  1.2905 -0.9426
  502SOL    HW2 1506   0.281   0.055   2.665 -1.9105 -0.0237 -0.0557
  503SOL     OW 1507   1.828   2.426   2.384  0.7122 -0.0029  0.6638
  503SOL    HW1 1508   1.870   2.426   2.295 -0.3813  1.6990  0.6141
  503SOL    HW2 1509   1.832   2.524   2.420  0.8878  2.0064 -1.7893
  504SOL     OW 1510   2.093   0.267   1.752  0.1848 -0.5546 -0.5875
  504SOL    HW1 1511   2.029   0.189   1.770  1.5486 -4.2313 -0.7774
  504SOL    HW2 1512   2.061   0.316   1.668 -1.1944 -2.1040  1.0371
  505SOL     OW 1513   2.597   1.428   1.406  0.0005  0.2784 -0.4346
  505SOL    HW1 1514   2.602   1.528   1.405  1.6447  2.2734  0.3221
  505SOL    HW2 1515   2.560   1.393   1.316 -2.6426 -1.6565 -1.4324
  506SOL     OW 1516   0.023   1.791   1.668  0.7657 -0.1112 -0.6067
  506SOL    HW1 1517   0.083   1.728   1.617 -2.4663  0.9657  3.9336
  506SOL    HW2 1518   0.012   1.880   1.623  1.3333 -0.8767  0.1412
  507SOL     OW 1519   0.475   2.587   1.574 -0.9231 -0.1448  0.4162
  507SOL    HW1 1520   0.562   2.611   1.623 -1.1937  1.9331 -0.1779
  507SOL    HW2 1521   0.488   2.572   1.475  0.8075 -0.0654  2.3318
  508SOL     OW 1522   0.712   0.758   1.602  0.1211  0.4812  0.9470
  508SOL    HW1 1523   0.742   0.691   1.675 -0.6401  1.4865  0.1051
  508SOL    HW2 1524   0.612   0.756   1.591 -3.3408 -1.0255 -0.3310
  509SOL     OW 1525   1.735   2.500   1.789 -0.0416  0.7583  0.2404
  509SOL    HW1 1526   1.677   2.560   1.844  2.8533 -1.1185 -3.6208
  509SOL    HW2 1527   1.823   2.548   1.764 -0.0436  2.5376  2.1827
  510SOL     OW 1528   2.634   1.354   2.459 -0.1259 -0.0064  0.0316
  510SOL    HW1 1529   2.671   1.271   2.506 -0.3109  1.7685  0.4484
  510SOL    HW2 1530   2.661   1.438   2.515 -1.3577  4.3251  3.5894
  511SOL     OW 1531   0.988   1.288   1.316 -0.4296 -0.1067 -0.7189
  511SOL    HW1 1532   1.057   1.264   1.245  0.5802  1.5060  1.3064
  511SOL    HW2 1533   0.996   1.391   1.333  0.5383  2.2489  1.4514
  512SOL     OW 1534   2.661   1.695   0.404 -0.5571  0.7179 -0.0126
  512SOL    HW1 1535   2.707   1.644   0.479 -2.1902 -1.0223  0.5632
  512SOL    HW2 1536   2.602   1.766   0.443 -0.1232 -1.8966  1.1478
  513SOL     OW 1537   1.269   2.173   2.309 -0.0115  0.1936  0.0803
  513SOL    HW1 1538   1.167   2.172   2.325  1.2913 -0.8851 -0.8066
  513SOL    HW2 1539   1.323   2.112   2.373 -1.7983  0.3071  0.7203
  514SOL     OW 1540   0.146   2.402   1.165  0.0322 -0.5591  0.3737
  514SOL    HW1 1541   0.131   2.498   1.198  0.6052 -1.3797  0.5614
  514SOL    HW2 1542   0.247   2.387   1.154  1.6030 -0.5448 -1.3036
  515SOL     OW 1543   2.087   1.051   1.733  0.0881  0.0332 -0.4544
  515SOL    HW1 1544   2.090   1.153   1.728 -0.1327  0.0282  1.0684
  515SOL    HW2 1545   2.115   1.000   1.652  1.1123  0.7182 -0.2060
  516SOL     OW 1546   2.756   0.037   3.107 -0.3610  0.3821  0.2608
  516SOL    HW1 1547   2.719   0.072   3.014 -2.3927  1.6328 -1.7145
  516SOL    HW2 1548   2.832   0.098   0.025  5.0282  3.2211  0.4268
  517SOL     OW 1549   1.177   1.733   2.954 -0.0486  0.1534  0.0931
  517SOL    HW1 1550   1.268   1.707   2.986  1.0165  1.6604  0.2719
  517SOL    HW2 1551   1.125   1.650   2.930 -1.7713  0.7281  3.0738
  518SOL     OW 1552   1.570   0.026   1.508  0.4692 -0.7218  0.7248
  518SOL    HW1 1553   1.519   3.088   1.439 -0.7066  1.3017  1.3779
  518SOL    HW2 1554   1.665   0.001   1.493  0.5542 -0.2983  0.9616
  519SOL     OW 1555   2.342   2.615   0.806 -0.4325 -0.5471  0.5710
  519SOL    HW1 1556   2.424   2.567   0.835 -1.8584 -0.2828 -2.2440
  519SOL    HW2 1557   2.371   2.695   0.751  4.5089 -1.4688  0.3165
  520SOL     OW 1558   2.848   2.084   1.950 -0.2983  0.4564  0.3154
  520SOL    HW1 1559   2.854   1.987   1.911  0.8950 -4.2574 -0.8161
  520SOL    HW2 1560   2.882   2.089   2.045  0.3631 -0.8475  2.5098
  521SOL     OW 1561   2.848   0.810   0.098 -0.0348 -0.1764 -0.1169
  521SOL    HW1 1562   2.800   0.753   0.171  0.5575 -0.4038 -1.7924
  521SOL    HW2 1563   2.941   0.834   0.126 -3.1459 -0.8457 -0.6869
  522SOL     OW 1564   0.897   0.827   2.455 -0.5792  0.0827 -0.4816
  522SOL    HW1 1565   0.821   0.783   2.511  0.7121 -0.6873  2.9335
  522SOL    HW2 1566   0.883   0.825   2.351  2.6556 -1.7026 -0.1702
  523SOL     OW 1567   3.059   2.341   0.613  0.6512  0.5328 -0.3765
  523SOL    HW1 1568   3.103   2.254   0.651 -0.4974  0.0120 -1.0959
  523SOL    HW2 1569   0.004   2.390   0.547  0.7960 -0.6687  0.4130
  524SOL     OW 1570   2.005   2.739   0.085 -0.0325  0.2123 -0.2150
  524SOL    HW1 1571   2.063   2.801   0.034 -1.1317 -2.4154  0.1062
  524SOL    HW2 1572   2.062   2.680   0.142 -2.6732 -1.8926 -1.2691
  525SOL     OW 1573   2.538   0.462   1.381  0.0933  0.3504  0.5233
  525SOL    HW1 1574   2.562   0.555   1.410  0.2751 -2.6365 -0.4663
  525SOL    HW2 1575   2.442   0.452   1.359  0.4650 -0.5921 -0.6365
  526SOL     OW 1576   1.222   3.055   0.465  0.0938  0.3706 -0.4997
  526SOL    HW1 1577   1.163   3.112   0.530 -1.2303  2.0626 -0.8724
  526SOL    HW2 1578   1.298   3.013   0.508 -0.2150 -0.4063 -3.1110
  527SOL     OW 1579   2.181   2.965   0.580  0.6860  0.2024 -0.3183
  527SOL    HW1 1580   2.116   2.905   0.521 -1.5617 -1.6960 -2.2783
  527SOL    HW2 1581   2.221   3.036   0.524 -0.7143  1.1966  0.7684
  528SOL     OW 1582   1.799   0.856   2.795  0.1100  1.1853 -0.1561
  528SOL    HW1 1583   1.837   0.785   2.861  0.5203 -1.4559 -0.8987
  528SOL    HW2 1584   1.748   0.805   2.722  2.6709 -2.7231  1.2689
  529SOL     OW 1585   1.694   1.445   2.349  0.0551 -0.2282  0.0712
  529SOL    HW1 1586   1.597   1.422   2.375 -0.1520  1.6422 -0.5071
  529SOL    HW2 1587   1.760   1.368   2.339  1.0804 -0.2667  1.3218
  530SOL     OW 1588   2.472   2.943   2.957 -0.3047  0.2239  0.5070
  530SOL    HW1 1589   2.408   2.977   2.885 -0.2344  2.6795  1.9167
  530SOL    HW2 1590   2.481   3.003   3.040  0.2089 -0.8920 -1.4982
  531SOL     OW 1591   1.849   1.429   2.937 -0.0993 -0.2118 -0.2245
  531SOL    HW1 1592   1.779   1.354   2.964 -1.0296 -5.9357  0.0257
  531SOL    HW2 1593   1.802   1.523   2.922 -5.2496  0.6697 -1.5278
  532SOL     OW 1594   1.514   0.210   1.193 -0.0639  0.0159 -0.2517
  532SOL    HW1 1595   1.470   0.243   1.282 -0.4299  0.4850  2.0270
  532SOL    HW2 1596   1.570   0.284   1.145  2.5221  2.0480  1.0244
  533SOL     OW 1597   0.577   0.917   2.894  0.0209 -0.4110 -0.1351
  533SOL    HW1 1598   0.603   0.988   2.830 -0.1347 -0.0778 -0.5106
  533SOL    HW2 1599   0.648   0.910   2.966 -0.2784 -0.1002 -0.0037
  534SOL     OW 1600   1.244   0.463   2.978  0.0819  0.8514  0.4397
  534SOL    HW1 1601   1.293   0.521   2.907  0.5027 -0.0252 -1.7041
  534SOL    HW2 1602   1.295   0.378   3.002  1.2397 -0.0402  2.8951
  535SOL     OW 1603   0.819   2.194   3.003  0.2490 -0.0752  0.0740
  535SOL    HW1 1604   0.727   2.230   3.002  0.9759  1.1043 -1.2465
  535SOL    HW2 1605   0.818   2.103   3.053  0.4722  0.5982  0.9860
  536SOL     OW 1606   0.626   2.977   0.344 -0.3189 -0.2079 -0.4570
  536SOL    HW1 1607   0.630   3.024   0.255 -0.7225 -0.0798 -0.6905
  536SOL    HW2 1608   0.710   2.927   0.367 -0.6903 -2.2038  0.5951
  537SOL     OW 1609   1.837   0.491   0.147  0.0937  0.2044  0.2490
  537SOL    HW1 1610   1.789   0.414   0.190 -2.3003  1.9578 -0.3692
  537SOL    HW2 1611   1.914   0.529   0.201  2.7470  2.1713 -1.5205
  538SOL     OW 1612   2.415   2.308   2.868 -0.2555  0.3069  0.4571
  538SOL    HW1 1613   2.429   2.270   2.768 -1.0156  0.5831 -1.5325
  538SOL    HW2 1614   2.319   2.299   2.902 -0.6578 -0.0994 -0.2197
  539SOL     OW 1615   2.581   1.412   3.009  0.3276 -0.0223  0.1009
  539SOL    HW1 1616   2.491   1.425   3.053 -0.3722  1.1302  1.0822
  539SOL    HW2 1617   2.638   1.346   3.065  0.7492 -0.2177  1.2738
  540SOL     OW 1618   0.764   2.903   1.644  0.1794 -0.2365 -0.4135
  540SOL    HW1 1619   0.715   2.894   1.733 -0.8146 -2.4804  0.5254
  540SOL    HW2 1620   0.710   2.883   1.562 -1.1892 -0.0249 -0.5607
  541SOL     OW 1621   2.355   0.077   2.444 -0.3723  0.4159  0.1806
  541SOL    HW1 1622   2.330   0.098   2.539 -0.8673  0.6577  0.4407
  541SOL    HW2 1623   2.317   3.102   2.412 -0.9122 -1.5211 -1.3613
  542SOL     OW 1624   0.269   0.639   0.001  0.2358  0.4517  0.1516
  542SOL    HW1 1625   0.213   0.561   3.076  0.2288 -1.6560  0.8024
  542SOL    HW2 1626   0.236   0.660   0.094  1.1475  1.9671 -2.8616
  543SOL     OW 1627   0.411   0.873   1.076  0.2335  0.3867  0.0649
  543SOL    HW1 1628   0.330   0.817   1.053 -1.6332 -0.6014  0.8721
  543SOL    HW2 1629   0.452   0.917   0.992 -1.6552  0.3267 -0.1793
  544SOL     OW 1630   2.438   0.687   1.169 -0.1646  0.0494  0.4529
  544SOL    HW1 1631   2.538   0.678   1.183 -3.5855 -1.2655 -1.6485
  544SOL    HW2 1632   2.393   0.715   1.255  0.7452 -1.3175 -2.2602
  545SOL     OW 1633   1.114   1.697   0.250  0.2790  0.5700 -0.1025
  545SOL    HW1 1634   1.172   1.761   0.299  0.4823  1.1505 -2.0393
  545SOL    HW2 1635   1.167   1.614   0.223 -1.6923 -0.6296  1.6768
  546SOL     OW 1636   2.348   2.473   1.528 -0.2932  0.0121 -0.1428
  546SOL    HW1 1637   2.285   2.409   1.579  0.2466 -0.4658  0.0349
  546SOL    HW2 1638   2.350   2.457   1.431 -0.1549  2.3181  3.1047
  547SOL     OW 1639   1.109   2.379   2.032 -0.6679  0.0556  0.2486
  547SOL    HW1 1640   1.129   2.282   2.028 -2.6188 -0.4498  0.4809
  547SOL    HW2 1641   1.152   2.417   2.116 -1.5128 -3.1144  0.2700
  548SOL     OW 1642   1.378   0.882   2.918  0.3766  0.3684  0.4275
  548SOL    HW1 1643   1.290   0.931   2.891 -1.1678 -0.6243  1.0699
  548SOL    HW2 1644   1.369   0.779   2.894 -1.5235 -1.0347 -0.5254
  549SOL     OW 1645   2.532   0.708   0.366 -0.3310  0.1800 -0.0498
  549SOL    HW1 1646   2.509   0.659   0.449  0.3585 -0.2650 -2.6567
  549SOL    HW2 1647   2.467   0.785   0.350 -2.1591  1.5937 -0.8025
  550SOL     OW 1648   2.087   1.165   0.239 -0.3451  0.4280  0.6470
  550SOL    HW1 1649   2.170   1.186   0.296  0.2298 -0.2999 -2.2386
  550SOL    HW2 1650   2.062   1.228   0.161 -1.1407  1.7372 -1.6702
  551SOL     OW 1651   1.697   0.309   1.456  0.4569  0.0778 -0.1152
  551SOL    HW1 1652   1.646   0.318   1.547 -0.9139  0.9209  0.9762
  551SOL    HW2 1653   1.631   0.342   1.384  0.2125 -0.9498 -0.4131
  552SOL     OW 1654   1.819   0.154   2.827 -0.3060  0.1630  0.2470
  552SOL    HW1 1655   1.888   0.221   2.856 -0.1515  0.6164  1.6839
  552SOL    HW2 1656   1.875   0.069   2.817 -0.1674 -1.0116 -0.7983
  553SOL     OW 1657   0.389   2.516   2.094  0.0247 -0.0134  0.0691
  553SOL    HW1 1658   0.422   2.463   2.175  0.1883  0.0874  0.1881
  553SOL    HW2 1659   0.290   2.532   2.102 -2.0148 -1.6033  1.7271
  554SOL     OW 1660   0.131   0.044   1.466 -0.2768  0.0357 -0.1503
  554SOL    HW1 1661   0.084   0.064   1.555  0.9895  0.9714  1.3786
  554SOL    HW2 1662   0.196   0.116   1.442  3.4010 -0.2319  1.9821
  555SOL     OW 1663   2.397   1.786   2.133  0.3913  0.5697  0.3757
  555SOL    HW1 1664   2.452   1.867   2.110 -0.6444 -1.1982  2.0046
  555SOL    HW2 1665   2.458   1.704   2.150  0.1028 -1.4593  1.9478
  556SOL     OW 1666   1.035   0.659   3.086 -0.4807 -0.4137 -0.6507
  556SOL    HW1 1667   1.107   0.615   3.027  0.1740  3.9142  0.8527
  556SOL    HW2 1668   1.016   0.599   0.054 -0.8116 -1.1868 -0.1872
  557SOL     OW 1669   0.253   1.981   2.389  0.1593  0.0373  0.2546
  557SOL    HW1 1670   0.342   1.982   2.335  0.6042 -0.6472 -1.0278
  557SOL    HW2 1671   0.199   1.906   2.348  1.3148 -1.1401 -2.3547
  558SOL     OW 1672   1.935   0.673   2.962 -0.2774 -0.1358  0.2882
  558SOL    HW1 1673   2.019   0.616   2.940  2.8938 -0.1944 -1.9017
  558SOL    HW2 1674   1.950   0.711   3.055  2.4561  2.5623  0.8419
  559SOL     OW 1675   2.288   1.766   1.669  0.8810  0.5509 -0.1152
  559SOL    HW1 1676   2.247   1.673   1.680  1.1039 -1.4641 -3.3516
  559SOL    HW2 1677   2.248   1.829   1.742  0.0399  1.3070 -0.0644
  560SOL     OW 1678   1.963   1.039   1.986  0.2193  0.2417  0.1882
  560SOL    HW1 1679   1.997   1.041   1.886  0.3616 -0.1348 -2.9535
  560SOL    HW2 1680   1.933   1.134   2.008  0.4581 -3.5796 -0.5270
  561SOL     OW 1681   0.064   3.078   2.892 -0.1506  0.4974 -0.4398
  561SOL    HW1 1682   3.106   3.009   2.877  2.1587 -0.1459 -2.2626
  561SOL    HW2 1683   0.145   3.039   2.938  0.8214 -2.7193 -0.3946
  562SOL     OW 1684   1.117   1.801   1.503  0.2742  0.2090  0.4418
  562SOL    HW1 1685   1.210   1.808   1.544  0.5785  0.4631 -0.6284
  562SOL    HW2 1686   1.121   1.805   1.401 -3.1229 -2.7338  0.7455
  563SOL     OW 1687   1.025   0.505   0.193 -0.9787  0.3434 -0.6359
  563SOL    HW1 1688   1.125   0.484   0.201  0.4067 -2.1373 -0.5768
  563SOL    HW2 1689   0.970   0.417   0.197 -0.9516  0.7958  1.5617
  564SOL     OW 1690   2.992   2.565   0.746  0.7560 -0.1937  0.4585
  564SOL    HW1 1691   3.026   2.486   0.694 -0.7895 -0.3323  2.3149
  564SOL    HW2 1692   2.922   2.618   0.695 -1.1132 -0.5237  1.6660
  565SOL     OW 1693   0.737   2.320   1.179 -0.0234  0.4304  0.3547
  565SOL    HW1 1694   0.827   2.271   1.190 -0.2100 -0.7125  0.5267
  565SOL    HW2 1695   0.668   2.272   1.229  0.2958  0.3332  2.2343
  566SOL     OW 1696   1.180   3.037   2.610  0.1039  0.1957 -0.1158
  566SOL    HW1 1697   1.108   3.039   2.685 -1.2658 -1.9072  1.2410
  566SOL    HW2 1698   1.138   3.060   2.518 -2.9890  0.8347  0.0186
  567SOL     OW 1699   2.167   3.050   0.852 -0.3950 -0.0358 -0.6078
  567SOL    HW1 1700   2.171   3.007   0.761  1.6478  0.6717  1.4007
  567SOL    HW2 1701   2.253   3.102   0.877  3.4546  2.7481  1.2582
  568SOL     OW 1702   1.618   1.583   0.630 -0.2654 -0.6041 -0.2606
  568SOL    HW1 1703   1.720   1.578   0.626  0.7789  0.7188  2.1534
  568SOL    HW2 1704   1.574   1.559   0.542 -1.3290  0.9356 -0.3758
  569SOL     OW 1705   2.131   1.124   2.398 -0.2474 -0.3206 -0.2197
  569SOL    HW1 1706   2.091   1.036   2.370  1.6795 -0.8590  0.9315
  569SOL    HW2 1707   2.232   1.114   2.416 -0.4327  0.2850 -1.0601
  570SOL     OW 1708   0.005   0.086   1.980  0.2812  0.0654 -0.6948
  570SOL    HW1 1709   3.101   0.142   2.063  1.9034  0.1764  0.0754
  570SOL    HW2 1710   0.054   0.001   2.011 -1.9438  0.3803 -1.3201
  571SOL     OW 1711   0.370   2.972   1.714  0.2497  0.6886 -0.2724
  571SOL    HW1 1712   0.447   2.940   1.771 -2.3832  3.0241 -1.1384
  571SOL    HW2 1713   0.294   2.906   1.720 -0.4014 -0.3700 -2.8182
  572SOL     OW 1714   0.024   2.242   1.344  0.1337  0.1938  0.2602
  572SOL    HW1 1715   3.044   2.279   1.341  1.5249  0.2682 -0.0024
  572SOL    HW2 1716   0.079   2.270   1.262  2.2663 -2.5817  0.3212
  573SOL     OW 1717   1.203   1.020   2.745 -0.1925  0.7893  0.5590
  573SOL    HW1 1718   1.282   0.982   2.686  0.8620 -4.2805 -1.1944
  573SOL    HW2 1719   1.116   1.005   2.695  0.4366 -0.7779 -1.8436
  574SOL     OW 1720   2.452   2.623   2.377 -0.3378 -0.1988  0.8544
  574SOL    HW1 1721   2.455   2.725   2.356 -0.6919 -0.9132 -0.6463
  574SOL    HW2 1722   2.381   2.569   2.325 -1.9206 -0.6238  0.6735
  575SOL     OW 1723   1.306   2.930   0.876 -0.2550  0.1621 -0.0577
  575SOL    HW1 1724   1.314   3.016   0.932 -0.5656 -1.0576  2.4919
  575SOL    HW2 1725   1.372   2.866   0.918 -0.0897  1.2667  3.4640
  576SOL     OW 1726   1.090   0.424   1.124 -0.2283 -0.5285 -0.5458
  576SOL    HW1 1727   1.104   0.332   1.087 -2.2950 -1.2057 -0.9279
  576SOL    HW2 1728   1.024   0.481   1.069  0.9045  2.8843  0.5801
  577SOL     OW 1729   2.147   1.481   0.391  0.2804 -0.1466 -0.2089
  577SOL    HW1 1730   2.182   1.398   0.353 -3.1862 -0.2914  1.8526
  577SOL    HW2 1731   2.048   1.468   0.408 -0.1194  0.1850  0.1036
  578SOL     OW 1732   2.092   0.623   1.203 -0.3012  0.0964  0.3407
  578SOL    HW1 1733   2.073   0.663   1.294 -0.3073 -2.1297  1.4523
  578SOL    HW2 1734   2.155   0.540   1.200  1.3379 -3.1399  0.4436
  579SOL     OW 1735   1.635   0.985   2.435 -0.0811 -0.1258  0.6874
  579SOL    HW1 1736   1.633   0.999   2.337 -2.8649  0.7440  0.8032
  579SOL    HW2 1737   1.675   1.064   2.489  0.4480  1.2329 -0.1512
  580SOL     OW 1738   1.414   1.027   1.883  0.6007  0.4577  0.1005
  580SOL    HW1 1739   1.426   1.069   1.792 -0.2756 -1.2914 -2.2513
  580SOL    HW2 1740   1.352   1.090   1.934 -0.8243  1.2752  1.2917
  581SOL     OW 1741   0.233   0.694   0.979  0.1428  0.3317  0.5000
  581SOL    HW1 1742   0.130   0.709   0.973 -0.1933  1.1934  0.1666
  581SOL    HW2 1743   0.267   0.659   0.891 -1.2471  1.0928  1.9038
  582SOL     OW 1744   2.864   0.474   1.986 -0.7010  0.4013 -0.1361
  582SOL    HW1 1745   2.861   0.385   1.939 -1.8848  0.6755 -0.1555
  582SOL    HW2 1746   2.905   0.468   2.078  0.2871 -1.3342  0.7266
  583SOL     OW 1747   0.170   0.386   2.787  1.0134 -0.1433  0.3839
  583SOL    HW1 1748   0.158   0.420   2.882 -0.9625 -0.1534 -1.9520
  583SOL    HW2 1749   0.134   0.292   2.767  1.6569 -0.5706  0.0520
  584SOL     OW 1750   2.022   2.384   0.056 -0.4395 -0.8034  0.2929
  584SOL    HW1 1751   2.078   2.354   3.088  2.6621 -0.6840 -2.8450
  584SOL    HW2 1752   1.922   2.368   0.044 -2.3517 -0.6227  1.6255
  585SOL     OW 1753   0.063   2.388   0.008 -0.7266  0.6126 -0.0209
  585SOL    HW1 1754   0.075   2.285   3.113 -1.6270 -1.3834  0.9711
  585SOL    HW2 1755   0.127   2.432   0.074  0.3455  0.1831 -1.0615
  586SOL     OW 1756   1.839   1.901   2.276  0.2980  0.4109 -0.0476
  586SOL    HW1 1757   1.834   1.860   2.183  1.2627 -1.0321 -0.6805
  586SOL    HW2 1758   1.913   1.969   2.274  0.0471 -0.2937 -1.5215
  587SOL     OW 1759   2.441   1.663   2.901  0.1313 -0.2180  0.2223
  587SOL    HW1 1760   2.468   1.670   2.803  1.6635 -1.4644 -0.5020
  587SOL    HW2 1761   2.391   1.575   2.916  0.1051 -0.0841 -0.1910
  588SOL     OW 1762   2.951   0.294   1.344  0.0177 -0.3241 -0.0064
  588SOL    HW1 1763   2.998   0.359   1.279 -0.3954  2.0116  0.7546
  588SOL    HW2 1764   2.997   0.306   1.436 -2.1550 -0.3971 -0.8820
  589SOL     OW 1765   0.801   0.353   0.611  0.1576 -0.1859  0.2543
  589SOL    HW1 1766   0.826   0.423   0.537  0.4862  1.8873 -1.1719
  589SOL    HW2 1767   0.708   0.310   0.599 -0.0285 -1.7684 -1.5580
  590SOL     OW 1768   2.413   2.139   0.497  0.4626 -0.0719  0.0229
  590SOL    HW1 1769   2.409   2.225   0.558 -2.9048  3.6948  2.8135
  590SOL    HW2 1770   2.341   2.152   0.428  0.1069 -1.0706  1.9811
  591SOL     OW 1771   0.450   2.514   0.814 -0.1566 -0.4126  0.1844
  591SOL    HW1 1772   0.513   2.433   0.811  2.4436 -0.0756 -0.8246
  591SOL    HW2 1773   0.482   2.599   0.766  0.0112 -0.2114 -0.3756
  592SOL     OW 1774   1.389   1.036   1.101 -0.2322 -0.7288 -0.0799
  592SOL    HW1 1775   1.482   1.077   1.102  2.2421  0.9796 -1.5015
  592SOL    HW2 1776   1.386   0.938   1.122 -0.5401 -0.2691  1.9797
  593SOL     OW 1777   1.082   2.333   1.733  0.0499 -0.2522  0.3563
  593SOL    HW1 1778   1.065   2.382   1.816 -1.4424  2.2551 -3.8787
  593SOL    HW2 1779   1.170   2.369   1.682  4.0262  2.0267 -0.3062
  594SOL     OW 1780   0.864   1.490   0.140  0.6257 -0.2373  0.5935
  594SOL    HW1 1781   0.917   1.405   0.134 -1.2522  0.5070 -1.1026
  594SOL    HW2 1782   0.919   1.572   0.108  0.5360  1.3125  1.8166
  595SOL     OW 1783   1.670   1.133   1.562 -0.0144  0.1983 -0.1702
  595SOL    HW1 1784   1.762   1.162   1.603  3.0182  0.2134 -0.2862
  595SOL    HW2 1785   1.593   1.186   1.608  1.1669  1.0269 -2.6324
  596SOL     OW 1786   2.896   1.087   2.268  0.1705  0.0882 -0.4617
  596SOL    HW1 1787   2.981   1.128   2.309  0.4289 -0.0807  1.0034
  596SOL    HW2 1788   2.922   1.027   2.190  0.6682 -0.2853  2.0925
  597SOL     OW 1789   1.547   2.657   1.945 -0.2330 -0.3728 -0.3964
  597SOL    HW1 1790   1.462   2.615   1.904 -0.8602 -0.7690  0.1685
  597SOL    HW2 1791   1.530   2.672   2.046  1.6368  2.0839  0.2997
  598SOL     OW 1792   2.391   1.271   1.543  0.7923  0.0388  0.6663
  598SOL    HW1 1793   2.474   1.323   1.523 -1.0082  1.0847  2.1820
  598SOL    HW2 1794   2.313   1.324   1.506  0.7293  0.6401 -2.2528
  599SOL     OW 1795   0.799   2.584   3.029  0.1398  0.1615 -0.2987
  599SOL    HW1 1796   0.868   2.656   3.056  0.1163 -4.0970  1.8004
  599SOL    HW2 1797   0.829   2.493   3.066 -1.3772 -1.9916 -1.2135
  600SOL     OW 1798   3.006   2.034   0.302  0.1703 -0.2764  0.1475
  600SOL    HW1 1799   2.964   2.040   0.210 -0.6073 -2.0986  0.1214
  600SOL    HW2 1800   3.104   2.052   0.293 -0.8672 -1.5711 -0.2013
  601SOL     OW 1801   0.567   1.057   1.588  0.1174  0.2692 -0.3714
  601SOL    HW1 1802   0.477   1.101   1.573 -0.5817 -1.3284  1.6310
  601SOL    HW2 1803   0.551   0.961   1.558  0.1120 -1.6298 -0.8018
  602SOL     OW 1804   0.482   0.248   1.304  0.1408 -0.3432 -0.3374
  602SOL    HW1 1805   0.513   0.248   1.403  1.4915 -0.1399  0.2610
  602SOL    HW2 1806   0.530   0.322   1.259  2.9893 -1.3147 -2.3109
  603SOL     OW 1807   0.583   2.988   2.794 -0.5182 -0.2367  0.1778
  603SOL    HW1 1808   0.566   3.080   2.759  0.6675 -2.3022  2.0360
  603SOL    HW2 1809   0.596   2.936   2.705 -0.3135  1.2305 -0.9497
  604SOL     OW 1810   1.100   2.551   1.407 -0.4702  0.6103 -0.3272
  604SOL    HW1 1811   1.195   2.520   1.378 -0.0470  2.1153 -1.8390
  604SOL    HW2 1812   1.037   2.534   1.332  1.6068 -1.5737  1.4321
  605SOL     OW 1813   1.582   1.363   1.866  0.2564 -0.2096 -0.1147
  605SOL    HW1 1814   1.675   1.327   1.854  0.6415 -1.9422  1.5357
  605SOL    HW2 1815   1.519   1.300   1.820 -0.1178  3.9320  1.1788
  606SOL     OW 1816   2.202   2.958   3.099 -0.3818 -0.5685 -0.3431
  606SOL    HW1 1817   2.283   2.964   0.042  1.1476  2.4673  0.5244
  606SOL    HW2 1818   2.226   2.970   3.001  0.2939  1.7627  1.0383
  607SOL     OW 1819   0.643   0.173   1.912 -0.0836  0.1351  0.2547
  607SOL    HW1 1820   0.684   0.115   1.839  0.0665 -1.0145 -3.0970
  607SOL    HW2 1821   0.629   0.271   1.883 -2.4842  1.2491  1.5114
  608SOL     OW 1822   0.142   2.375   1.980  0.7746 -0.0828  0.4641
  608SOL    HW1 1823   0.135   2.277   2.004 -1.3527 -2.4811 -1.4252
  608SOL    HW2 1824   0.171   2.388   1.884 -1.8991 -0.6027  3.5605
  609SOL     OW 1825   1.076   1.031   0.148  0.2043  0.0720  0.0425
  609SOL    HW1 1826   1.026   0.992   0.227  0.6457 -0.6915 -3.1205
  609SOL    HW2 1827   1.025   1.004   0.064 -1.4233 -2.1986  0.4545
  610SOL     OW 1828   0.410   2.934   1.011  0.4143 -0.0572 -0.8132
  610SOL    HW1 1829   0.478   2.941   0.935 -1.3208  1.0893  1.9179
  610SOL    HW2 1830   0.424   3.010   1.075 -1.1688 -0.5129 -3.0149
  611SOL     OW 1831   0.851   1.535   0.674  0.1085 -0.2137  0.1385
  611SOL    HW1 1832   0.756   1.503   0.660 -0.9457 -1.2534  2.7130
  611SOL    HW2 1833   0.903   1.517   0.591 -0.1654 -0.2621 -1.0339
  612SOL     OW 1834   2.123   1.809   0.354 -0.0249 -0.2111 -0.1760
  612SOL    HW1 1835   2.207   1.824   0.298  0.4575 -0.5647  1.5811
  612SOL    HW2 1836   2.148   1.753   0.437  3.2926 -0.3694  1.0005
  613SOL     OW 1837   1.502   1.607   0.352  0.1046  0.6358 -0.0516
  613SOL    HW1 1838   1.497   1.707   0.336  1.1172 -0.6120  1.6756
  613SOL    HW2 1839   1.424   1.578   0.406  1.7794 -1.3176 -0.8718
  614SOL     OW 1840   2.864   0.531   2.626 -0.4651 -0.1073  0.5800
  614SOL    HW1 1841   2.818   0.570   2.546 -2.3955 -0.5929  0.3392
  614SOL    HW2 1842   2.936   0.587   2.670  0.8560 -0.4344 -0.4395
  615SOL     OW 1843   0.640   1.820   0.527  0.0428  0.1990  0.1447
  615SOL    HW1 1844   0.689   1.744   0.489 -1.7908  2.3855 -1.5720
  615SOL    HW2 1845   0.545   1.796   0.541 -2.0135 -0.3679 -1.9171
  616SOL     OW 1846   1.405   0.932   2.600 -0.2615 -0.1044 -0.0013
  616SOL    HW1 1847   1.488   0.977   2.563 -1.0705 -1.9230  0.5640
  616SOL    HW2 1848   1.435   0.852   2.656 -0.5428 -0.5672  0.6101
  617SOL     OW 1849   1.693   0.532   0.520  0.0918  0.1951  0.4716
  617SOL    HW1 1850   1.628   0.611   0.513  0.7638  2.6549 -0.0471
  617SOL    HW2 1851   1.687   0.463   0.444 -1.0606 -0.1287 -0.3709
  618SOL     OW 1852   2.980   1.947   2.200  0.2626 -0.2909 -0.0759
  618SOL    HW1 1853   3.066   1.892   2.217  1.3059  0.4333 -2.3339
  618SOL    HW2 1854   2.892   1.888   2.192 -0.3169  1.3787 -2.7005
  619SOL     OW 1855   2.454   1.740   0.679 -0.0434 -0.2355 -0.1418
  619SOL    HW1 1856   2.449   1.765   0.777  0.3892  0.7942 -0.7228
  619SOL    HW2 1857   2.491   1.817   0.620  3.6368  3.0245 -2.8761
  620SOL     OW 1858   2.294   0.098   1.104 -0.7023 -0.8962 -0.1928
  620SOL    HW1 1859   2.238   0.186   1.094 -0.5581 -1.5481  0.6572
  620SOL    HW2 1860   2.245   0.020   1.147 -1.0805  0.0426  2.3945
  621SOL     OW 1861   3.041   1.900   0.662  0.1515  0.6243  0.0882
  621SOL    HW1 1862   2.979   1.924   0.588  1.6722  0.0774  2.7872
  621SOL    HW2 1863   3.100   1.982   0.684 -0.6948  1.7506 -0.1745
  622SOL     OW 1864   0.733   1.813   2.008  0.2409  0.0402  0.0690
  622SOL    HW1 1865   0.681   1.889   1.969 -1.7931  0.2805 -0.2561
  622SOL    HW2 1866   0.792   1.833   2.088 -0.4676 -2.1605 -0.7188
  623SOL     OW 1867   2.431   2.897   2.285 -0.3631 -0.4397  0.3261
  623SOL    HW1 1868   2.335   2.923   2.297  1.7286  0.9438 -0.8331
  623SOL    HW2 1869   2.491   2.977   2.285  1.5730  1.7461  1.1754
  624SOL     OW 1870   0.857   1.981   0.342 -0.2614 -0.0100 -0.1500
  624SOL    HW1 1871   0.846   1.879   0.346 -1.6260 -3.9127 -2.2534
  624SOL    HW2 1872   0.771   2.025   0.373 -1.6524 -2.1144 -2.9706
  625SOL     OW 1873   0.900   1.877   2.218  0.4177  0.1732 -0.2588
  625SOL    HW1 1874   0.995   1.867   2.185 -0.9939  0.7248  0.6581
  625SOL    HW2 1875   0.903   1.875   2.322  0.9412  1.8697  0.7769
  626SOL     OW 1876   0.164   2.383   0.413 -0.1245 -0.0916  0.0130
  626SOL    HW1 1877   0.244   2.383   0.475  0.1760 -2.2571  1.6457
  626SOL    HW2 1878   0.148   2.288   0.375 -1.9578  1.3672 -0.2090
  627SOL     OW 1879   1.305   1.588   2.508  0.0962 -0.1224 -0.3324
  627SOL    HW1 1880   1.366   1.510   2.508  0.8217  0.0301  1.4643
  627SOL    HW2 1881   1.204   1.567   2.506 -2.9066  2.4500 -0.0538
  628SOL     OW 1882   1.235   1.927   0.303  0.3187  0.1630 -0.6462
  628SOL    HW1 1883   1.187   2.016   0.303  1.3773  0.6860  1.8404
  628SOL    HW2 1884   1.322   1.933   0.359 -0.4361 -0.3522 -0.7361
  629SOL     OW 1885   0.795   0.572   1.863  0.5373  0.5136  0.7740
  629SOL    HW1 1886   0.778   0.569   1.964 -1.7644 -0.3170  2.3870
  629SOL    HW2 1887   0.894   0.569   1.858 -2.3120 -0.6602 -4.5160
  630SOL     OW 1888   2.363   2.743   1.549  0.0452  0.7683 -0.1569
  630SOL    HW1 1889   2.385   2.743   1.650 -0.6097  0.0613 -1.7690
  630SOL    HW2 1890   2.334   2.643   1.531 -1.3487 -2.8689 -0.3178
  631SOL     OW 1891   1.530   0.799   0.770  0.1026  0.3766  0.4224
  631SOL    HW1 1892   1.429   0.801   0.761  1.6157  0.5341 -0.2087
  631SOL    HW2 1893   1.568   0.725   0.831  1.9922 -0.4682 -0.1778
  632SOL     OW 1894   2.143   0.455   2.170 -0.3536  0.0712 -0.0940
  632SOL    HW1 1895   2.228   0.414   2.199 -1.1068  2.4477 -0.6626
  632SOL    HW2 1896   2.144   0.553   2.176 -1.3791 -1.9770  1.5753
  633SOL     OW 1897   1.592   1.036   2.882  0.2219 -0.7938  0.3275
  633SOL    HW1 1898   1.516   0.974   2.905 -0.0839 -1.2300 -2.8113
  633SOL    HW2 1899   1.674   0.981   2.859  0.3572  0.2884  0.8020
  634SOL     OW 1900   0.329   2.144   0.099  0.0083  0.0093  0.4730
  634SOL    HW1 1901   0.423   2.147   0.143  1.4557  0.9611  1.1027
  634SOL    HW2 1902   0.336   2.166   3.109 -1.3292 -0.4053 -2.2714
  635SOL     OW 1903   2.844   1.567   1.977 -0.4398  0.0704  0.5015
  635SOL    HW1 1904   2.936   1.524   1.985  0.7056 -0.9728  2.2615
  635SOL    HW2 1905   2.768   1.493   1.978 -0.4051 -1.5205  0.2195
  636SOL     OW 1906   0.481   1.760   2.815  0.6319  0.2409  0.1743
  636SOL    HW1 1907   0.517   1.671   2.775 -0.6431  0.8384 -2.4182
  636SOL    HW2 1908   0.400   1.784   2.758 -1.0358 -0.0559  2.5689
  637SOL     OW 1909   0.158   2.128   0.291  0.0299 -0.0245 -0.4984
  637SOL    HW1 1910   0.182   2.151   0.193 -2.2923 -1.5772 -2.1733
  637SOL    HW2 1911   0.218   2.056   0.325  1.8238 -0.5263 -2.1809
  638SOL     OW 1912   2.379   2.497   0.445 -1.0046 -0.1541 -0.0353
  638SOL    HW1 1913   2.400   2.594   0.456  0.0834  2.4834 -0.2187
  638SOL    HW2 1914   2.297   2.475   0.389  0.3486 -2.4445 -1.4968
  639SOL     OW 1915   0.793   0.639   0.333  0.7292  0.1696  0.2831
  639SOL    HW1 1916   0.866   0.620   0.260 -0.3833  0.6537  0.5843
  639SOL    HW2 1917   0.844   0.650   0.417 -0.4848  2.4557 -2.8653
  640SOL     OW 1918   2.374   2.295   1.842  0.0751  0.4660 -0.0354
  640SOL    HW1 1919   2.467   2.322   1.872 -2.1353  1.3562  0.9405
  640SOL    HW2 1920   2.374   2.222   1.773  1.3906 -1.5250 -0.6023
  641SOL     OW 1921   2.438   2.839   1.271 -0.1442  0.2828  0.2678
  641SOL    HW1 1922   2.359   2.877   1.220  1.3689 -0.2097  0.1261
  641SOL    HW2 1923   2.417   2.817   1.374 -2.3481  2.1869  0.8720
  642SOL     OW 1924   1.020   0.976   1.600 -0.3957  0.2601  0.1257
  642SOL    HW1 1925   0.958   0.923   1.538 -0.7366  1.2543 -0.3504
  642SOL    HW2 1926   1.108   1.000   1.567 -1.7914 -2.4240  0.7155
  643SOL     OW 1927   1.017   1.295   1.937  0.3685  0.0670  0.0388
  643SOL    HW1 1928   0.966   1.226   1.990 -0.6719  0.0640  0.3754
  643SOL    HW2 1929   1.004   1.286   1.831  0.2162 -1.8765 -5.5478
  644SOL     OW 1930   0.976   0.163   2.233  0.6894  0.2842  0.4596
  644SOL    HW1 1931   1.056   0.221   2.236 -1.7530 -0.5829 -2.6266
  644SOL    HW2 1932   0.997   0.075   2.286 -1.2493  0.8042 -0.1589
  645SOL     OW 1933   2.070   1.152   1.393  0.4627  0.0907  0.1203
  645SOL    HW1 1934   1.970   1.159   1.368  0.4153  1.2741 -1.2047
  645SOL    HW2 1935   2.112   1.242   1.396 -2.9546 -2.5170 -0.4362
  646SOL     OW 1936   1.755   2.335   0.053 -0.1923  0.2214  0.3193
  646SOL    HW1 1937   1.733   2.344   3.068  0.5273 -0.3027  0.3843
  646SOL    HW2 1938   1.755   2.237   0.081  1.2577 -0.6099 -2.2458
  647SOL     OW 1939   1.636   2.701   0.659 -0.1034 -0.4382 -0.7063
  647SOL    HW1 1940   1.718   2.667   0.711  2.1711 -1.7822 -1.0652
  647SOL    HW2 1941   1.598   2.634   0.595 -0.3114 -0.9986  0.6838
  648SOL     OW 1942   0.126   2.491   1.514  0.1426  0.2520 -0.3091
  648SOL    HW1 1943   0.168   2.559   1.454 -2.1416 -1.2754  0.0962
  648SOL    HW2 1944   0.035   2.458   1.482 -0.3226 -1.3356 -0.1957
  649SOL     OW 1945   1.252   2.549   2.923 -0.4160  0.8570  0.5774
  649SOL    HW1 1946   1.232   2.453   2.961 -0.0818 -1.9542 -1.2277
  649SOL    HW2 1947   1.336   2.558   2.863  1.4025 -1.4641 -0.5498
  650SOL     OW 1948   2.738   1.617   3.055  0.2273 -0.4034 -0.6644
  650SOL    HW1 1949   2.669   1.541   3.036 -1.8663  0.2467 -1.0081
  650SOL    HW2 1950   2.784   1.606   0.030 -0.4258  0.6435  2.4939
  651SOL     OW 1951   2.377   2.195   2.320  0.4605 -0.6154 -0.5592
  651SOL    HW1 1952   2.481   2.217   2.327  0.7421 -0.1895 -0.1260
  651SOL    HW2 1953   2.365   2.098   2.359 -0.4136 -2.4353  0.1481
  652SOL     OW 1954   2.634   2.387   0.529 -0.4308 -0.0325  0.2911
  652SOL    HW1 1955   2.561   2.361   0.590  3.5681  0.2405 -3.2754
  652SOL    HW2 1956   2.608   2.370   0.433 -0.7818  2.3457  2.0015
  653SOL     OW 1957   2.625   1.723   1.402 -0.0536 -0.0336 -0.1518
  653SOL    HW1 1958   2.650   1.785   1.329 -0.7842 -1.8935  0.8943
  653SOL    HW2 1959   2.695   1.721   1.474  0.5776  0.0228  1.3303
  654SOL     OW 1960   0.619   1.052   0.245 -0.3081 -0.2772 -0.0423
  654SOL    HW1 1961   0.540   1.097   0.197 -1.0921  1.3340  1.0967
  654SOL    HW2 1962   0.695   1.044   0.178 -0.8887 -0.5868  2.0834
  655SOL     OW 1963   1.094   1.259   0.795  0.1028 -0.4715 -0.2381
  655SOL    HW1 1964   1.162   1.183   0.798  0.2571 -0.0738 -0.9320
  655SOL    HW2 1965   1.136   1.347   0.761  1.4909  2.6098  0.9533
  656SOL     OW 1966   1.483   2.703   2.199  0.6324 -0.0426  0.1307
  656SOL    HW1 1967   1.402   2.746   2.252 -3.3663  0.9692  0.9394
  656SOL    HW2 1968   1.516   2.620   2.244 -1.9998  0.4943 -0.0094
  657SOL     OW 1969   1.885   1.428   0.449 -0.4777  0.3190 -0.4454
  657SOL    HW1 1970   1.856   1.335   0.478  2.3610 -1.2697  0.0640
  657SOL    HW2 1971   1.824   1.471   0.384 -0.7597 -2.4133 -0.1968
  658SOL     OW 1972   1.957   0.041   1.793  0.1776 -0.5854 -0.2354
  658SOL    HW1 1973   1.985   3.080   1.863 -1.5285 -0.9429 -1.1949
  658SOL    HW2 1974   1.988   0.010   1.703  1.4641  1.3917  1.5864
  659SOL     OW 1975   2.800   1.560   0.191 -0.1429  0.1287  0.2535
  659SOL    HW1 1976   2.900   1.558   0.207 -0.9314  0.8409 -0.8520
  659SOL    HW2 1977   2.751   1.603   0.273  0.9184  1.8942  1.0918
  660SOL     OW 1978   1.132   0.202   0.941 -0.5750  0.1081  0.1624
  660SOL    HW1 1979   1.066   0.122   0.957 -0.7164  0.6385  0.6882
  660SOL    HW2 1980   1.225   0.169   0.966 -1.0476 -1.4833  1.4306
  661SOL     OW 1981   1.597   0.490   0.043  0.4407 -0.7965  0.1271
  661SOL    HW1 1982   1.689   0.511   0.088  1.6604  1.1913  3.2903
  661SOL    HW2 1983   1.606   0.477   3.055 -0.3822  0.4695 -1.2585
  662SOL     OW 1984   0.397   3.110   0.438  0.4046  0.1815  0.1170
  662SOL    HW1 1985   0.366   3.089   0.532 -0.0580  2.3121  1.0034
  662SOL    HW2 1986   0.481   3.063   0.410  0.2794  1.4897 -1.5428
  663SOL     OW 1987   1.454   2.601   2.744  0.0954  0.6174  0.2642
  663SOL    HW1 1988   1.376   2.630   2.689 -1.2202  0.2106 -3.6754
  663SOL    HW2 1989   1.473   2.502   2.729  1.2177 -1.3140 -1.3713
  664SOL     OW 1990   0.523   2.603   1.273  0.1356 -0.2825 -0.0147
  664SOL    HW1 1991   0.551   2.509   1.288 -0.0638  1.2914 -0.2441
  664SOL    HW2 1992   0.487   2.611   1.177  1.4598  2.6760 -0.7727
  665SOL     OW 1993   1.614   2.828   1.186  0.0792 -0.1061  0.3055
  665SOL    HW1 1994   1.512   2.813   1.196 -1.3523  1.3066  0.2787
  665SOL    HW2 1995   1.630   2.929   1.206 -0.6074  0.6610 -1.9312
  666SOL     OW 1996   0.855   2.300   2.748 -0.1175 -0.4849 -0.2191
  666SOL    HW1 1997   0.812   2.391   2.759  0.6536 -0.1044 -3.5330
  666SOL    HW2 1998   0.875   2.248   2.835 -1.5491  0.2337  0.8914
  667SOL     OW 1999   2.908   0.596   1.392  0.0890 -0.4428 -0.2502
  667SOL    HW1 2000   2.887   0.636   1.485 -0.0471  2.6219 -0.2158
  667SOL    HW2 2001   2.986   0.526   1.393 -0.9959 -0.4454  0.1065
  668SOL     OW 2002   0.974   0.335   1.668 -0.1457  0.2048  0.0351
  668SOL    HW1 2003   1.050   0.308   1.601  3.2524  2.2776  0.8391
  668SOL    HW2 2004   0.929   0.257   1.718  1.7991  0.0022  0.2595
  669SOL     OW 2005   1.855   2.762   1.237 -0.4052 -0.2425 -0.0717
  669SOL    HW1 2006   1.753   2.784   1.225 -1.7587 -0.3432 -2.0305
  669SOL    HW2 2007   1.909   2.822   1.176  0.9274 -0.6814  0.3966
  670SOL     OW 2008   1.698   2.337   2.898  0.0150 -0.1505 -0.6189
  670SOL    HW1 2009   1.618   2.311   2.839 -0.4462  1.2700 -1.8055
  670SOL    HW2 2010   1.747   2.412   2.854 -0.5725 -1.3040  0.4599
  671SOL     OW 2011   0.153   1.278   2.983 -0.5405  0.0018 -0.0347
  671SOL    HW1 2012   0.085   1.268   2.913  0.0958  0.6586  0.8097
  671SOL    HW2 2013   0.252   1.286   2.954  0.1116  0.2835 -0.0982
  672SOL     OW 2014   2.648   0.459   2.829 -0.6888  0.0325  0.4646
  672SOL    HW1 2015   2.698   0.506   2.908  0.7240 -0.0572 -0.2752
  672SOL    HW2 2016   2.718   0.448   2.757  0.8697 -0.1994  0.0376
  673SOL     OW 2017   0.062   1.960   1.307 -0.0174 -0.4684  0.3938
  673SOL    HW1 2018   3.084   1.918   1.319  0.3264 -1.4428  0.8999
  673SOL    HW2 2019   0.063   2.057   1.337  2.2847  0.8871 -0.7766
  674SOL     OW 2020   1.488   2.154   1.561  0.4541 -0.0584 -0.6007
  674SOL    HW1 2021   1.464   2.107   1.648  1.8994 -1.8872  1.2610
  674SOL    HW2 2022   1.466   2.093   1.483 -0.0396  3.1368 -1.7029
  675SOL     OW 2023   1.368   1.387   1.246 -0.0541  0.1278 -0.2255
  675SOL    HW1 2024   1.376   1.467   1.180 -0.4240 -0.5377 -2.2758
  675SOL    HW2 2025   1.315   1.315   1.197 -1.0548 -1.2994 -0.7096
  676SOL     OW 2026   2.457   0.792   0.904  0.6039 -0.5895  0.2054
  676SOL    HW1 2027   2.367   0.834   0.889  1.0056 -0.1835 -2.6984
  676SOL    HW2 2028   2.461   0.761   1.001 -0.8450  3.1661 -0.1752
  677SOL     OW 2029   2.559   0.315   0.419  0.0487  0.0831  0.3472
  677SOL    HW1 2030   2.564   0.217   0.447  0.2171 -0.4836  0.2719
  677SOL    HW2 2031   2.590   0.339   0.323  2.1713  2.2697 -0.2598
  678SOL     OW 2032   2.612   1.094   1.259 -0.0647 -0.4055 -0.5860
  678SOL    HW1 2033   2.577   1.188   1.241  0.4016 -1.9988 -1.5113
  678SOL    HW2 2034   2.692   1.101   1.324  0.5078 -1.0023  0.6371
  679SOL     OW 2035   2.668   0.341   0.172 -0.1258 -0.2090  0.5420
  679SOL    HW1 2036   2.617   0.317   0.087  0.2336  0.0401 -1.0818
  679SOL    HW2 2037   2.759   0.295   0.176  2.4664 -0.3225  2.2128
  680SOL     OW 2038   0.761   1.585   2.250 -0.7708  0.5634  0.0422
  680SOL    HW1 2039   0.689   1.639   2.204  1.7744  1.7999  2.1770
  680SOL    HW2 2040   0.839   1.567   2.186 -2.6746  0.3040 -1.3157
  681SOL     OW 2041   2.680   2.097   1.591 -0.2917  0.7406  0.0151
  681SOL    HW1 2042   2.657   2.187   1.624 -4.1507 -2.0023 -0.8482
  681SOL    HW2 2043   2.634   2.025   1.653 -0.9858  0.2642  1.9929
  682SOL     OW 2044   0.599   1.878   2.578  0.1748  0.6614 -0.2398
  682SOL    HW1 2045   0.552   1.860   2.666 -0.4112  0.2122 -0.0790
  682SOL    HW2 2046   0.654   1.965   2.576  0.0704 -2.8560  1.0462
  683SOL     OW 2047   2.672   1.925   1.236 -0.5908 -0.3010 -0.4051
  683SOL    HW1 2048   2.645   1.916   1.139  2.1431 -1.4659 -1.2638
  683SOL    HW2 2049   2.665   2.025   1.266 -2.7741  2.0184  0.8404
  684SOL     OW 2050   2.635   1.398   1.985  0.8668 -0.3436  0.4539
  684SOL    HW1 2051   2.678   1.382   2.075 -0.3964 -2.4402  0.8478
  684SOL    HW2 2052   2.664   1.320   1.924  0.6515  1.9502 -2.5885
  685SOL     OW 2053   0.839   0.984   0.950 -0.7073 -0.2125 -0.9624
  685SOL    HW1 2054   0.843   1.085   0.939 -0.2932 -0.8342 -0.3167
  685SOL    HW2 2055   0.814   0.961   1.046 -1.9711 -2.2038  1.6942
  686SOL     OW 2056   1.024   3.000   2.817 -0.4788 -0.2124 -0.6336
  686SOL    HW1 2057   1.042   2.900   2.828 -0.8405 -0.6222  1.5326
  686SOL    HW2 2058   0.929   3.017   2.843 -0.5117 -3.3449 -0.6703
  687SOL     OW 2059   0.675   2.086   2.088  0.5023 -0.1455  0.3814
  687SOL    HW1 2060   0.709   2.144   2.012  1.9529  0.2799 -1.7311
  687SOL    HW2 2061   0.744   2.072   2.162  0.4973 -0.9854  0.2021
  688SOL     OW 2062   1.942   0.397   1.547  0.0138  0.0443  0.9041
  688SOL    HW1 2063   1.858   0.353   1.502  1.5817  0.3653 -3.4926
  688SOL    HW2 2064   1.909   0.481   1.594 -1.0653 -1.3990  1.5142
  689SOL     OW 2065   1.850   0.814   0.803  0.1348  0.4584 -0.5807
  689SOL    HW1 2066   1.790   0.863   0.873 -1.8626  0.7131  2.0364
  689SOL    HW2 2067   1.897   0.737   0.851 -2.2166  0.5993  3.0504
  690SOL     OW 2068   3.044   0.909   1.441 -0.2363 -0.3764  0.2541
  690SOL    HW1 2069   3.095   0.928   1.357  2.2288  0.8102 -0.4905
  690SOL    HW2 2070   3.014   0.811   1.446 -0.5264  0.9458  0.8078
  691SOL     OW 2071   0.208   1.065   2.027 -0.3406  0.5697  0.0808
  691SOL    HW1 2072   0.159   1.151   2.024  1.5361 -1.6300  0.9170
  691SOL    HW2 2073   0.261   1.050   1.938  1.5157  0.5659 -1.0228
  692SOL     OW 2074   0.722   0.916   1.840  0.2809 -0.0507 -0.2941
  692SOL    HW1 2075   0.782   0.997   1.860  1.6584  2.8652 -1.1698
  692SOL    HW2 2076   0.772   0.856   1.774  0.6697 -0.5497  0.4512
  693SOL     OW 2077   0.536   1.273   1.957  0.5531 -0.1481 -0.2772
  693SOL    HW1 2078   0.499   1.185   1.922  0.6727 -0.7534  2.6735
  693SOL    HW2 2079   0.478   1.320   2.023 -0.3232  0.5840  1.9226
  694SOL     OW 2080   1.416   1.793   0.643 -0.1743 -0.1710  0.1106
  694SOL    HW1 2081   1.461   1.846   0.570  1.9447 -1.2307  2.1186
  694SOL    HW2 2082   1.477   1.718   0.679  1.1208  0.5318 -0.0658
  695SOL     OW 2083   0.017   0.983   1.170 -0.1860 -0.0013  0.2795
  695SOL    HW1 2084   0.031   1.050   1.095 -1.1622  0.8647  1.6631
  695SOL    HW2 2085   0.004   0.893   1.132 -0.2546  0.9406 -0.6109
  696SOL     OW 2086   0.822   2.545   0.554 -0.0716  0.2131  0.4255
  696SOL    HW1 2087   0.773   2.479   0.496  1.3023  1.6551  0.9541
  696SOL    HW2 2088   0.920   2.514   0.566 -0.5766  1.0873  0.8858
  697SOL     OW 2089   1.212   0.641   1.553  0.0797 -0.0921 -0.4554
  697SOL    HW1 2090   1.262   0.723   1.533 -2.8060 -3.0415  2.7513
  697SOL    HW2 2091   1.157   0.622   1.468  2.0897  0.2455 -1.7834
  698SOL     OW 2092   1.852   1.646   1.656 -0.0738 -0.1527  0.0989
  698SOL    HW1 2093   1.817   1.732   1.695 -0.3070 -1.0091 -2.2879
  698SOL    HW2 2094   1.904   1.671   1.570 -0.1719 -0.7997 -0.7519
  699SOL     OW 2095   0.253   0.674   2.643 -0.0675 -0.0252 -0.3079
  699SOL    HW1 2096   0.197   0.697   2.560  0.1861  1.4563  0.6890
  699SOL    HW2 2097   0.227   0.588   2.681 -0.3275 -1.4452  1.5326
  700SOL     OW 2098   1.639   2.295   0.457  0.2647  0.5078  0.2609
  700SOL    HW1 2099   1.701   2.353   0.402 -0.8289  1.4001  0.1192
  700SOL    HW2 2100   1.547   2.285   0.411 -3.5055 -0.9955  0.1707
  701SOL     OW 2101   0.094   1.571   2.360 -0.3119 -0.0369 -0.3937
  701SOL    HW1 2102   0.001   1.538   2.386  2.1290 -0.0338 -0.7348
  701SOL    HW2 2103   0.163   1.563   2.433  0.2820 -0.7509 -1.6422
  702SOL     OW 2104   0.667   0.199   3.114 -0.5358  0.0485 -0.1398
  702SOL    HW1 2105   0.733   0.183   3.037 -2.0205  0.2120 -0.5769
  702SOL    HW2 2106   0.573   0.204   3.079  1.6704  1.3596  1.4682
  703SOL     OW 2107   1.425   0.634   2.845 -0.1503 -0.5695  0.2267
  703SOL    HW1 2108   1.513   0.594   2.888  1.6194 -0.0303  0.8773
  703SOL    HW2 2109   1.426   0.618   2.742 -0.6948 -0.3094 -1.4375
  704SOL     OW 2110   2.801   1.649   0.889 -0.0138 -0.1408  0.0916
  704SOL    HW1 2111   2.796   1.622   0.987 -0.1066 -4.4920  0.9285
  704SOL    HW2 2112   2.809   1.748   0.889  1.1035  0.0322 -0.2666
  705SOL     OW 2113   2.557   2.012   2.062  0.0953 -0.0126 -0.4936
  705SOL    HW1 2114   2.589   2.109   2.063 -1.5985  1.3683 -3.1725
  705SOL    HW2 2115   2.549   1.984   1.963 -0.3927  0.1016  0.6397
  706SOL     OW 2116   3.082   2.748   0.986 -0.3141  0.1256 -0.0680
  706SOL    HW1 2117   0.059   2.761   0.947 -3.7797  0.8874  0.5288
  706SOL    HW2 2118   3.020   2.694   0.924 -3.7683  0.1911  0.1166
  707SOL     OW 2119   1.091   2.985   0.067  0.4790 -0.1577 -0.1047
  707SOL    HW1 2120   1.090   2.941   0.158 -0.0460  2.7803 -1.5460
  707SOL    HW2 2121   1.050   3.081   0.069 -2.9448  2.5174 -0.4070
  708SOL     OW 2122   0.906   2.234   1.541  0.0737 -0.3020  0.0326
  708SOL    HW1 2123   0.981   2.266   1.602  1.0899  1.0491 -2.0753
  708SOL    HW2 2124   0.850   2.319   1.518  0.3706  0.7485  1.0667
  709SOL     OW 2125   1.930   0.345   2.583 -0.4845  0.1701  0.4779
  709SOL    HW1 2126   1.827   0.347   2.592 -0.3377 -2.0382 -0.6640
  709SOL    HW2 2127   1.964   0.444   2.581  0.3683  0.8088  1.5171
  710SOL     OW 2128   1.186   2.740   2.624 -0.4913  0.1125 -0.6334
  710SOL    HW1 2129   1.197   2.839   2.626 -1.0489  1.0385 -0.6436
  710SOL    HW2 2130   1.143   2.712   2.717 -1.6959  2.2012 -0.2240
  711SOL     OW 2131   1.102   2.282   2.646 -0.2775  0.0564 -0.1833
  711SOL    HW1 2132   1.107   2.322   2.557 -3.0358  0.2224  1.5610
  711SOL    HW2 2133   1.016   2.311   2.688  1.2180  0.4359  2.1655
  712SOL     OW 2134   1.133   1.909   2.743 -0.1884  0.0059  0.3273
  712SOL    HW1 2135   1.035   1.927   2.746  0.8566  0.9144 -0.4124
  712SOL    HW2 2136   1.153   1.854   2.829  2.7538 -0.3269  1.6140
  713SOL     OW 2137   1.016   0.822   1.824 -0.1661 -0.6219 -0.0153
  713SOL    HW1 2138   1.022   0.867   1.731  2.0479  0.0715 -1.1818
  713SOL    HW2 2139   1.008   0.724   1.821  2.7346  1.2813  0.4471
  714SOL     OW 2140   1.576   2.014   0.925 -0.7068  0.2487 -0.2783
  714SOL    HW1 2141   1.677   2.003   0.899  1.0532  0.5474 -1.0937
  714SOL    HW2 2142   1.569   2.042   1.027 -0.3038  2.8174  1.3535
  715SOL     OW 2143   0.161   0.391   0.666  0.1300 -0.0687 -0.4547
  715SOL    HW1 2144   0.070   0.357   0.703  1.3577 -0.6255 -0.1318
  715SOL    HW2 2145   0.144   0.425   0.571  1.1252  1.3345  0.9783
  716SOL     OW 2146   0.818   2.785   0.414  0.3572 -0.1372  0.0935
  716SOL    HW1 2147   0.903   2.826   0.388 -2.0754 -1.0965 -0.0745
  716SOL    HW2 2148   0.829   2.717   0.488 -3.0554  0.5101  1.5126
  717SOL     OW 2149   3.110   0.282   0.361  0.1125  0.2697  0.6268
  717SOL    HW1 2150   3.031   0.220   0.362 -0.8810 -2.2384  1.1432
  717SOL    HW2 2151   0.073   0.234   0.313 -0.4747  0.1359 -1.1526
  718SOL     OW 2152   1.745   2.306   1.162  0.0451 -0.0331  0.4536
  718SOL    HW1 2153   1.697   2.217   1.173  1.7237  1.2275 -1.1503
  718SOL    HW2 2154   1.805   2.312   1.241  1.1737 -0.3295  0.8426
  719SOL     OW 2155   2.887   2.495   0.974  0.5466  0.2150  0.2481
  719SOL    HW1 2156   2.816   2.433   0.937 -2.9429 -1.4881 -1.9060
  719SOL    HW2 2157   2.949   2.514   0.895 -0.5621  0.6749  1.3796
  720SOL     OW 2158   1.175   1.192   1.147  0.4343 -0.5230 -1.1089
  720SOL    HW1 2159   1.123   1.193   1.061 -2.2206  0.8344 -2.4342
  720SOL    HW2 2160   1.243   1.113   1.141 -1.3191 -3.9146  2.2378
  721SOL     OW 2161   1.344   0.522   1.195 -0.0173 -0.1150 -0.0715
  721SOL    HW1 2162   1.251   0.486   1.180 -1.4585 -0.7430  2.7175
  721SOL    HW2 2163   1.387   0.537   1.101 -1.0251 -0.0670  0.5807
  722SOL     OW 2164   1.242   1.138   1.475  0.3451  0.0324  0.4695
  722SOL    HW1 2165   1.255   1.050   1.427 -0.5074 -3.2410  1.2127
  722SOL    HW2 2166   1.177   1.192   1.422  1.9523 -1.6173  0.3260
  723SOL     OW 2167   0.958   2.818   1.375  0.4103 -0.9063 -0.5486
  723SOL    HW1 2168   0.857   2.819   1.382 -1.5456 -0.2929  0.6387
  723SOL    HW2 2169   0.995   2.727   1.384 -2.0023  3.8096 -1.4007
  724SOL     OW 2170   2.029   2.099   1.749  0.3080 -0.3215  0.1753
  724SOL    HW1 2171   2.071   2.013   1.785 -0.3384  3.1441 -0.5670
  724SOL    HW2 2172   1.976   2.081   1.663 -0.2766 -1.3862 -0.7405
  725SOL     OW 2173   1.050   2.854   1.121 -0.6178  0.4016  0.0267
  725SOL    HW1 2174   1.001   2.783   1.074  0.5361  2.4720 -0.3147
  725SOL    HW2 2175   1.033   2.864   1.224  1.5083 -0.7724 -2.2791
  726SOL     OW 2176   1.636   0.347   0.299  0.6205  0.3385  0.1838
  726SOL    HW1 2177   1.578   0.275   0.344  3.6047 -0.2903 -0.7271
  726SOL    HW2 2178   1.591   0.404   0.221  0.9615  0.8888 -2.9030
  727SOL     OW 2179   1.437   2.131   0.699  0.2619  0.0723  0.4802
  727SOL    HW1 2180   1.498   2.216   0.687 -1.2223  1.1538  1.6593
  727SOL    HW2 2181   1.474   2.076   0.779  0.8345  0.1061  2.1319
  728SOL     OW 2182   1.715   0.276   2.305  0.0807  0.0563 -0.1582
  728SOL    HW1 2183   1.698   0.211   2.384 -0.5457  0.8391  0.9438
  728SOL    HW2 2184   1.821   0.294   2.298  0.1486 -1.4377  1.1057
  729SOL     OW 2185   2.480   1.339   1.182  0.1989  0.8242 -0.0745
  729SOL    HW1 2186   2.395   1.396   1.185 -1.4725  0.5958  0.7296
  729SOL    HW2 2187   2.532   1.351   1.098  0.6166 -1.3557 -0.5546
  730SOL     OW 2188   2.070   0.854   2.612 -0.1274  0.0972  0.0626
  730SOL    HW1 2189   2.117   0.930   2.659 -0.9652  0.1781 -0.9955
  730SOL    HW2 2190   1.969   0.871   2.612  0.5210 -0.9760  0.6965
  731SOL     OW 2191   0.320   0.393   1.771  0.3035  0.8510 -0.2660
  731SOL    HW1 2192   0.338   0.426   1.676 -0.0742 -1.4469 -1.1913
  731SOL    HW2 2193   0.351   0.299   1.786  0.6178  1.9215  0.6934
  732SOL     OW 2194   1.705   0.387   1.133 -0.0986  0.3975  0.7997
  732SOL    HW1 2195   1.734   0.456   1.198 -2.3689 -4.3554 -2.1015
  732SOL    HW2 2196   1.782   0.353   1.074 -0.4982 -1.5340 -0.5707
  733SOL     OW 2197   0.954   1.254   1.676 -0.1601  0.3144  0.0284
  733SOL    HW1 2198   0.855   1.271   1.693  1.8312  0.4299 -0.8249
  733SOL    HW2 2199   0.958   1.156   1.636  1.0345  0.7200 -0.5855
  734SOL     OW 2200   2.511   1.500   0.289  0.4929 -0.3535  0.4455
  734SOL    HW1 2201   2.478   1.527   0.193  0.3201  1.7253  1.4651
  734SOL    HW2 2202   2.560   1.579   0.329 -0.4411  2.7830 -0.2221
  735SOL     OW 2203   0.624   0.839   0.457 -0.8849 -0.9507  0.2195
  735SOL    HW1 2204   0.590   0.892   0.380  0.3787 -1.8912 -1.9857
  735SOL    HW2 2205   0.686   0.762   0.430  1.2503 -2.2529 -1.6566
  736SOL     OW 2206   1.863   2.789   2.951 -0.0468  0.1086 -0.0594
  736SOL    HW1 2207   1.908   2.782   3.044  1.8968  0.8496  0.5743
  736SOL    HW2 2208   1.770   2.751   2.946 -0.5637  0.9141  0.6927
  737SOL     OW 2209   1.348   2.177   1.007  0.0299  0.2981  0.5803
  737SOL    HW1 2210   1.345   2.091   0.949  0.3947 -2.0767  0.0621
  737SOL    HW2 2211   1.420   2.240   0.977 -1.2590  0.1596  0.1160
  738SOL     OW 2212   2.159   0.225   2.680  0.8881 -0.4326 -0.6056
  738SOL    HW1 2213   2.207   0.301   2.735  0.0152  2.9203  0.0278
  738SOL    HW2 2214   2.069   0.266   2.655 -1.0167  0.0434 -0.3582
  739SOL     OW 2215   1.618   2.304   2.502  0.5428 -0.4437  0.0221
  739SOL    HW1 2216   1.606   2.214   2.456  1.1678 -0.4424 -1.3330
  739SOL    HW2 2217   1.698   2.351   2.454 -0.1002  3.2369 -2.1951
  740SOL     OW 2218   1.879   2.187   1.992  0.9169 -0.6575  0.3330
  740SOL    HW1 2219   1.913   2.169   1.898  0.6315 -0.1455  1.6352
  740SOL    HW2 2220   1.942   2.140   2.059  0.5057  2.6409 -0.6920
  741SOL     OW 2221   2.448   1.964   2.499 -0.0160  0.3424  0.4475
  741SOL    HW1 2222   2.380   1.936   2.427 -1.1642  2.1160 -0.8019
  741SOL    HW2 2223   2.396   1.964   2.583  0.4209 -0.0692 -3.4129
  742SOL     OW 2224   1.068   1.497   2.798  0.2473 -0.3300  0.5142
  742SOL    HW1 2225   1.107   1.410   2.828  0.3343  2.2651  0.8965
  742SOL    HW2 2226   1.068   1.505   2.695 -0.4054  3.7058 -0.8568
  743SOL     OW 2227   1.462   1.215   2.718  0.3470  0.2076 -0.6709
  743SOL    HW1 2228   1.521   1.161   2.780  2.3336  0.2474  1.0788
  743SOL    HW2 2229   1.373   1.231   2.766  0.3725  2.0316  1.5266
  744SOL     OW 2230   2.192   2.949   1.210 -0.3988  0.2515 -0.1391
  744SOL    HW1 2231   2.160   2.921   1.301  0.2198  2.4519 -5.0829
  744SOL    HW2 2232   2.124   2.918   1.142  2.2572  0.4148  0.1672
  745SOL     OW 2233   2.549   1.121   0.903  0.4181 -0.2034  0.6596
  745SOL    HW1 2234   2.496   1.093   0.983  1.8314 -1.7655 -1.9592
  745SOL    HW2 2235   2.609   1.205   0.913 -1.2569 -0.2828  4.6318
  746SOL     OW 2236   2.406   1.791   0.948  0.9284  0.0070 -0.3742
  746SOL    HW1 2237   2.344   1.779   1.030 -0.0684 -0.0133 -0.7454
  746SOL    HW2 2238   2.494   1.834   0.959  0.6119 -0.6512  1.3322
  747SOL     OW 2239   1.813   0.138   0.162 -0.6219  0.0094  0.0674
  747SOL    HW1 2240   1.769   0.160   0.251  1.3102  0.8460 -2.4241
  747SOL    HW2 2241   1.914   0.124   0.172  0.9340  0.0094  0.2540
  748SOL     OW 2242   0.595   1.529   0.015 -0.0580  0.6711 -0.5037
  748SOL    HW1 2243   0.639   1.568   3.046  2.7949  3.3115 -0.0827
  748SOL    HW2 2244   0.653   1.507   0.094 -2.2410  0.4531  1.2875
  749SOL     OW 2245   2.962   0.387   2.258 -0.1628  0.4941  0.0987
  749SOL    HW1 2246   2.867   0.409   2.288 -1.4672 -1.0769 -3.0907
  749SOL    HW2 2247   3.031   0.450   2.297 -0.2419  0.6228 -0.8117
  750SOL     OW 2248   1.057   0.561   1.810  0.4900  0.4229  0.7814
  750SOL    HW1 2249   1.034   0.464   1.792 -1.5731  0.1668 -4.2992
  750SOL    HW2 2250   1.114   0.599   1.740  1.4799 -3.1449  1.5986
  751SOL     OW 2251   2.199   2.480   1.983 -0.2295 -0.2806 -0.0719
  751SOL    HW1 2252   2.280   2.426   1.957  1.8727 -1.2981  0.0111
  751SOL    HW2 2253   2.175   2.552   1.920 -1.9629  1.1084  2.1504
  752SOL     OW 2254   1.961   1.385   1.158  0.2153 -0.5119  0.0246
  752SOL    HW1 2255   1.912   1.326   1.226  1.0061 -1.2577  1.1067
  752SOL    HW2 2256   2.057   1.360   1.146  1.2660  1.7219  3.6107
  753SOL     OW 2257   1.102   0.934   2.051  0.3270 -0.6188 -0.5283
  753SOL    HW1 2258   1.056   0.911   1.964 -2.9263  0.3635  1.0254
  753SOL    HW2 2259   1.160   0.859   2.084  0.4119  1.5967  1.5514
  754SOL     OW 2260   0.206   2.447   0.772  0.5835 -0.1144 -0.0187
  754SOL    HW1 2261   0.299   2.476   0.797 -3.1594  0.3046  1.7943
  754SOL    HW2 2262   0.141   2.514   0.818  1.9787 -1.3808 -1.5958
  755SOL     OW 2263   2.554   0.083   1.069  0.2863 -0.5168 -0.5285
  755SOL    HW1 2264   2.603   0.012   1.129  0.5740 -1.5894  1.3614
  755SOL    HW2 2265   2.453   0.077   1.080 -0.7118 -0.9787  0.7309
  756SOL     OW 2266   2.060   2.067   2.195 -0.2509 -0.2698 -0.7722
  756SOL    HW1 2267   2.056   2.138   2.271  0.2776 -0.7386  2.0502
  756SOL    HW2 2268   2.140   2.084   2.130  0.6344 -0.4669  0.5654
  757SOL     OW 2269   2.896   3.033   1.912  0.0924  0.0849  0.0657
  757SOL    HW1 2270   2.887   3.031   1.812  0.7840  1.6975  1.9091
  757SOL    HW2 2271   2.963   3.104   1.936  0.3318  2.3909 -0.2470
  758SOL     OW 2272   0.392   2.654   1.031  0.7313  0.9191  0.2770
  758SOL    HW1 2273   0.405   2.616   0.943 -2.1216  0.3843  0.9650
  758SOL    HW2 2274   0.385   2.755   1.031 -0.6157  0.5003 -2.4791
  759SOL     OW 2275   2.008   1.045   1.056  0.3031  0.1922  0.3242
  759SOL    HW1 2276   1.940   1.109   1.018 -2.4302  2.0346 -0.7416
  759SOL    HW2 2277   2.079   1.100   1.100  1.0401 -0.8360  0.4196
  760SOL     OW 2278   1.333   0.441   1.681 -0.5292 -0.2767  0.5552
  760SOL    HW1 2279   1.267   0.388   1.736  0.6511  1.5714 -1.4455
  760SOL    HW2 2280   1.274   0.513   1.639  1.5506 -4.3438  2.7376
  761SOL     OW 2281   2.148   0.322   1.103  0.0662  0.0642 -0.5703
  761SOL    HW1 2282   2.216   0.376   1.050 -1.2182  1.1494 -2.0812
  761SOL    HW2 2283   2.065   0.305   1.043 -1.2446  1.6232  0.8282
  762SOL     OW 2284   1.486   0.164   0.406  0.6335 -0.0007  0.1463
  762SOL    HW1 2285   1.533   0.111   0.477 -0.1528  1.7452 -2.0244
  762SOL    HW2 2286   1.442   0.099   0.344 -0.4602  1.2982  2.3032
  763SOL     OW 2287   0.839   0.460   1.460 -0.6629  0.2099  0.1490
  763SOL    HW1 2288   0.874   0.437   1.555  4.0394  0.6347  1.2451
  763SOL    HW2 2289   0.748   0.501   1.454 -2.1329 -1.2963  0.4714
  764SOL     OW 2290   2.256   2.443   2.292  0.8194  0.4112  0.6674
  764SOL    HW1 2291   2.290   2.348   2.300 -1.9622 -1.3363  2.7832
  764SOL    HW2 2292   2.209   2.445   2.199 -1.0443 -0.7233  0.0580
  765SOL     OW 2293   3.089   1.172   2.431  0.2558 -0.2568 -0.3461
  765SOL    HW1 2294   0.024   1.151   2.514 -0.8097 -0.3316  0.6980
  765SOL    HW2 2295   3.058   1.270   2.440 -1.6271  2.5180  0.6305
  766SOL     OW 2296   2.971   0.873   2.585 -0.1519  0.0644  0.4545
  766SOL    HW1 2297   3.050   0.842   2.528  1.0583  0.8555 -2.7918
  766SOL    HW2 2298   2.881   0.855   2.537 -2.4774 -1.4794 -0.7653
  767SOL     OW 2299   0.465   2.208   1.804  0.8392  0.1832  0.4677
  767SOL    HW1 2300   0.417   2.147   1.869  1.1484  0.0182 -1.7198
  767SOL    HW2 2301   0.415   2.293   1.787  2.1803  2.0106  1.2963
  768SOL     OW 2302   0.790   1.058   0.037  0.5411 -0.2175  0.5747
  768SOL    HW1 2303   0.840   0.976   0.007 -1.2032  1.2920 -0.7514
  768SOL    HW2 2304   0.813   1.137   3.090  0.2962  1.1125  1.6012
  769SOL     OW 2305   1.555   2.546   0.127 -0.0845  0.5621 -0.3822
  769SOL    HW1 2306   1.484   2.512   0.197  0.0810 -2.6355  0.8362
  769SOL    HW2 2307   1.614   2.465   0.103 -0.6862  3.0544 -0.9098
  770SOL     OW 2308   1.097   3.081   2.338  1.0001 -0.1676 -0.2727
  770SOL    HW1 2309   1.196   3.094   2.316  0.2165  4.0716  2.6393
  770SOL    HW2 2310   1.058   2.991   2.309  0.7378 -1.8108 -0.9282
  771SOL     OW 2311   0.851   2.806   0.722  0.1935  0.4307  0.2473
  771SOL    HW1 2312   0.788   2.729   0.695  1.2332  1.5010 -2.7116
  771SOL    HW2 2313   0.843   2.815   0.823  2.4531  1.3762 -0.6912
  772SOL     OW 2314   2.720   1.253   0.048  0.2216  0.3466  0.0545
  772SOL    HW1 2315   2.730   1.267   0.151 -0.1863 -2.7495  2.4912
  772SOL    HW2 2316   2.790   1.181   0.020  2.1962 -0.5437  0.3696
  773SOL     OW 2317   1.958   0.767   1.932  0.0307  0.6852 -0.4612
  773SOL    HW1 2318   2.037   0.732   1.987  0.4283 -1.6554  2.5258
  773SOL    HW2 2319   1.940   0.865   1.946 -0.6237 -3.2704  1.0938
  774SOL     OW 2320   0.549   0.257   0.580  0.2321  0.0640 -0.2731
  774SOL    HW1 2321   0.479   0.325   0.547  0.5529  0.6747 -2.7219
  774SOL    HW2 2322   0.569   0.186   0.510 -0.3106 -1.9973 -0.9466
  775SOL     OW 2323   1.488   0.258   0.786 -0.2205  0.2704  0.3773
  775SOL    HW1 2324   1.567   0.319   0.811 -1.6258  3.4447 -0.3001
  775SOL    HW2 2325   1.454   0.282   0.695 -1.0110 -0.8622 -0.2565
  776SOL     OW 2326   2.330   0.293   2.285 -0.2635 -0.6068  0.1958
  776SOL    HW1 2327   2.424   0.299   2.245  3.4129  0.5982  0.7964
  776SOL    HW2 2328   2.327   0.200   2.320  0.5314  0.5191 -3.4180
  777SOL     OW 2329   1.240   1.467   0.395  0.1970  0.1547  0.0489
  777SOL    HW1 2330   1.219   1.475   0.297 -2.2870  1.0954  1.6585
  777SOL    HW2 2331   1.290   1.384   0.413 -1.9493  1.1595  1.6581
  778SOL     OW 2332   0.183   2.535   0.197  0.0557 -0.6331  0.7790
  778SOL    HW1 2333   0.173   2.482   0.281 -0.8919  0.2463 -2.8309
  778SOL    HW2 2334   0.115   2.610   0.186  0.5873 -2.6517  2.2102
  779SOL     OW 2335   3.083   1.598   0.284 -0.2635 -0.1263 -0.5520
  779SOL    HW1 2336   0.021   1.526   0.240 -2.4208  0.9333  2.4252
  779SOL    HW2 2337   3.078   1.587   0.387 -0.8039  0.8041  0.5043
  780SOL     OW 2338   1.500   0.453   2.269 -0.4145  0.2881  0.0045
  780SOL    HW1 2339   1.511   0.555   2.280  1.2732  0.4620 -0.3309
  780SOL    HW2 2340   1.588   0.403   2.280 -0.4675 -1.5088 -0.6940
  781SOL     OW 2341   1.913   1.690   1.230  0.2620  0.8631 -0.6099
  781SOL    HW1 2342   1.817   1.717   1.200 -1.5458  1.4827  1.3963
  781SOL    HW2 2343   1.930   1.592   1.249 -0.0225  1.5189 -1.7413
  782SOL     OW 2344   1.946   2.425   2.132 -0.0368 -0.1328  0.2649
  782SOL    HW1 2345   1.905   2.346   2.077 -1.2380  1.2240 -1.1781
  782SOL    HW2 2346   2.039   2.444   2.094 -0.5828 -0.4191 -1.3028
  783SOL     OW 2347   1.389   0.525   2.018 -0.2361  0.0624  0.0875
  783SOL    HW1 2348   1.428   0.479   2.096 -0.1959  0.1531  0.5502
  783SOL    HW2 2349   1.341   0.461   1.951 -2.0868  0.8791 -1.6846
  784SOL     OW 2350   1.624   0.897   2.002 -0.1323 -0.1502  0.0298
  784SOL    HW1 2351   1.541   0.949   1.974 -1.9040 -0.2748  1.5449
  784SOL    HW2 2352   1.630   0.812   1.953 -1.0951 -2.8796 -0.9894
  785SOL     OW 2353   1.925   0.690   0.519  0.2734  0.0985  0.0833
  785SOL    HW1 2354   1.900   0.772   0.569  0.1955 -1.6539 -0.5810
  785SOL    HW2 2355   1.846   0.621   0.518 -0.8107  1.4462  1.4479
  786SOL     OW 2356   2.942   1.192   0.812 -0.1763 -0.2474  0.6257
  786SOL    HW1 2357   2.933   1.147   0.725 -1.5179  2.4896  0.9508
  786SOL    HW2 2358   2.949   1.293   0.795  0.0797 -3.8478  0.4912
  787SOL     OW 2359   1.643   1.889   0.245 -0.2526  0.3946 -0.1543
  787SOL    HW1 2360   1.720   1.834   0.213 -0.9403 -0.2333  0.6828
  787SOL    HW2 2361   1.565   1.885   0.181 -0.6458  1.7262 -0.2673
  788SOL     OW 2362   2.379   1.044   1.114  0.0841  0.2970  0.1202
  788SOL    HW1 2363   2.328   0.970   1.071  1.3869  2.4500  0.6654
  788SOL    HW2 2364   2.465   1.008   1.155  1.7366  0.8927  2.6512
  789SOL     OW 2365   2.729   1.805   2.192  0.8706 -0.1993  0.2919
  789SOL    HW1 2366   2.679   1.715   2.185  0.8042 -0.2258  0.5295
  789SOL    HW2 2367   2.667   1.886   2.181  1.9512 -1.2647 -1.0160
  790SOL     OW 2368   0.558   2.786   2.570 -0.3060 -0.1150 -0.5963
  790SOL    HW1 2369   0.656   2.753   2.577  0.4395 -1.6699  0.5444
  790SOL    HW2 2370   0.518   2.743   2.484 -1.1430  0.7277  0.8854
  791SOL     OW 2371   0.380   2.567   2.742 -0.4036  0.4270  0.3779
  791SOL    HW1 2372   0.376   2.671   2.729  1.4021 -0.8876 -1.7751
  791SOL    HW2 2373   0.314   2.533   2.815  3.3388 -1.8999  3.0097
  792SOL     OW 2374   1.300   0.287   2.200 -0.2216  0.5886  0.0447
  792SOL    HW1 2375   1.386   0.338   2.235  1.0175 -0.8546  1.1335
  792SOL    HW2 2376   1.311   0.189   2.224  2.0117  0.4363  1.1849
  793SOL     OW 2377   2.630   0.180   2.486  0.3750 -0.4744 -0.3088
  793SOL    HW1 2378   2.528   0.168   2.461  0.6485 -0.2141 -1.2628
  793SOL    HW2 2379   2.682   0.148   2.403  3.2216 -2.0873 -1.8026
  794SOL     OW 2380   0.562   0.306   2.139 -0.7145  0.0843  0.3564
  794SOL    HW1 2381   0.462   0.299   2.139 -3.5466 -0.1065  0.1979
  794SOL    HW2 2382   0.613   0.232   2.086  1.1561 -1.5386 -1.1456
  795SOL     OW 2383   2.867   1.060   0.583 -0.1206  0.0250 -0.1916
  795SOL    HW1 2384   2.857   1.150   0.537  0.0018  0.5081  2.0729
  795SOL    HW2 2385   2.780   1.046   0.638 -1.8735  0.1094 -1.3167
  796SOL     OW 2386   2.627   2.291   2.284 -0.3519  0.6103 -0.0397
  796SOL    HW1 2387   2.714   2.244   2.250  2.1378 -1.8583 -1.3064
  796SOL    HW2 2388   2.647   2.390   2.294  2.3096  2.3023 -0.3830
  797SOL     OW 2389   2.902   2.018   0.040  0.7885  0.5450  0.2288
  797SOL    HW1 2390   2.875   2.048   3.061  2.1928  0.2787 -1.9206
  797SOL    HW2 2391   2.828   1.957   0.079 -2.9462 -0.8198  2.7779
  798SOL     OW 2392   0.379   0.773   1.891  0.3492 -0.4420 -0.4383
  798SOL    HW1 2393   0.396   0.736   1.986  0.7185 -1.3637 -2.5226
  798SOL    HW2 2394   0.287   0.745   1.857 -2.0472 -3.2045  2.1342
  799SOL     OW 2395   2.675   0.882   2.529 -0.4638 -0.1243  0.0846
  799SOL    HW1 2396   2.592   0.855   2.589 -3.1358  2.0167 -0.7742
  799SOL    HW2 2397   2.664   0.872   2.430 -0.5134  2.4598  0.8776
  800SOL     OW 2398   2.815   2.264   0.673 -0.1773  0.2143 -0.3554
  800SOL    HW1 2399   2.910   2.301   0.650  3.1511 -0.2131  0.3194
  800SOL    HW2 2400   2.745   2.310   0.614  1.0775  0.5685 -0.0044
  801SOL     OW 2401   1.250   0.848   0.777 -0.2245  0.5822  0.2910
  801SOL    HW1 2402   1.175   0.809   0.837  0.4268 -1.8685  1.8063
  801SOL    HW2 2403   1.255   0.954   0.783 -0.2954  4.1096 -2.3351
  802SOL     OW 2404   1.825   2.245   0.893  0.3006 -0.0327 -0.2881
  802SOL    HW1 2405   1.823   2.268   0.991  2.0086  0.7797 -0.0504
  802SOL    HW2 2406   1.846   2.148   0.874 -0.7858 -0.3885  1.7566
  803SOL     OW 2407   0.082   1.496   0.529 -0.1667  0.5345 -0.1561
  803SOL    HW1 2408   0.163   1.522   0.478 -1.8942  0.3434  1.5448
  803SOL    HW2 2409   0.063   1.563   0.609  0.3715  5.1902  1.7662
  804SOL     OW 2410   1.396   2.297   0.336 -0.0283  0.1305  0.1655
  804SOL    HW1 2411   1.333   2.272   0.408  0.0830  3.8015  0.6232
  804SOL    HW2 2412   1.364   2.380   0.295 -0.4081 -1.5134  2.3316
  805SOL     OW 2413   1.411   1.980   2.461  0.9835 -0.0437  0.7755
  805SOL    HW1 2414   1.416   1.914   2.543  0.4877 -0.5549 -2.8462
  805SOL    HW2 2415   1.501   2.001   2.420  1.4754 -2.3795  1.2386
  806SOL     OW 2416   1.833   0.057   1.374  0.0122  0.2368 -0.4135
  806SOL    HW1 2417   1.918   0.021   1.416 -2.0571 -2.6662 -0.9393
  806SOL    HW2 2418   1.807   0.146   1.412 -0.5977 -1.0261  2.2923
  807SOL     OW 2419   2.073   0.120   0.160 -0.0730 -0.4230 -0.0832
  807SOL    HW1 2420   2.098   0.025   0.190  0.5981  0.8796 -0.4855
  807SOL    HW2 2421   2.131   0.146   0.080  1.4714 -0.7540  0.4906
  808SOL     OW 2422   0.506   1.839   3.071 -0.2973  0.1004 -0.2956
  808SOL    HW1 2423   0.490   1.814   2.976  2.4056  1.9330  1.4002
  808SOL    HW2 2424   0.419   1.867   0.008 -1.9910  0.7849  3.2495
  809SOL     OW 2425   0.052   1.035   2.699  0.2420 -0.3287 -0.2813
  809SOL    HW1 2426   0.146   0.992   2.697  0.3116  1.0182  2.4103
  809SOL    HW2 2427   3.088   0.974   2.664 -1.4165  1.9133  1.1189
  810SOL     OW 2428   3.076   0.643   2.743 -0.0695  0.4339 -0.0296
  810SOL    HW1 2429   3.073   0.711   2.819  1.0920  1.7628 -0.3510
  810SOL    HW2 2430   0.049   0.589   2.743  0.1969  0.1468 -0.6831
  811SOL     OW 2431   2.120   2.303   1.604  0.5102 -0.2940 -0.1304
  811SOL    HW1 2432   2.025   2.332   1.585  3.0518 -0.5852 -0.1590
  811SOL    HW2 2433   2.128   2.234   1.675 -3.2376  2.3882 -1.5853
  812SOL     OW 2434   1.277   0.416   0.147 -0.0852  0.3768 -0.5434
  812SOL    HW1 2435   1.308   0.483   0.074 -1.4867 -0.6140  1.6120
  812SOL    HW2 2436   1.337   0.333   0.147 -2.1612 -0.8075 -0.6481
  813SOL     OW 2437   1.806   0.553   2.055  0.0707 -0.3199  0.0100
  813SOL    HW1 2438   1.789   0.464   2.019 -0.7053  2.5841 -0.6861
  813SOL    HW2 2439   1.851   0.619   1.991  0.8666  2.0509  1.9093
  814SOL     OW 2440   1.840   0.827   1.122  0.4318 -0.3729  0.2319
  814SOL    HW1 2441   1.892   0.756   1.170  0.4726 -1.2989 -0.7956
  814SOL    HW2 2442   1.902   0.909   1.109  1.5624  1.9785 -3.7046
  815SOL     OW 2443   0.478   0.998   0.841  0.1094  0.7911 -0.6902
  815SOL    HW1 2444   0.516   0.945   0.761 -1.7847 -1.2627  1.4931
  815SOL    HW2 2445   0.385   1.041   0.824 -1.8338 -0.2575  1.6597
  816SOL     OW 2446   2.161   2.243   2.941 -0.2265  0.1620  0.1473
  816SOL    HW1 2447   2.070   2.232   2.894  0.0636  1.6191  0.2707
  816SOL    HW2 2448   2.191   2.152   2.981  0.3777  0.1870 -1.6328
  817SOL     OW 2449   2.852   2.582   1.231 -0.1704 -0.0079 -0.2010
  817SOL    HW1 2450   2.873   2.564   1.133 -3.8829  0.4550 -1.5503
  817SOL    HW2 2451   2.875   2.679   1.246 -1.1326 -0.6407 -1.8520
  818SOL     OW 2452   1.640   0.784   3.078  0.1529  0.7532  0.3812
  818SOL    HW1 2453   1.600   0.694   3.107 -0.4100 -0.8286  0.4274
  818SOL    HW2 2454   1.639   0.807   2.980  0.8253  1.2439  1.8041
  819SOL     OW 2455   0.623   0.662   0.979 -0.2069  0.1815 -0.1107
  819SOL    HW1 2456   0.563   0.724   1.037 -1.7478  0.6570  3.6105
  819SOL    HW2 2457   0.573   0.582   0.941 -2.3851  0.2665 -2.3037
  820SOL     OW 2458   2.001   0.710   1.433  0.2593  0.6875 -0.2628
  820SOL    HW1 2459   2.056   0.794   1.460 -1.3402  0.0306  0.6428
  820SOL    HW2 2460   1.963   0.676   1.519  1.5486 -0.1242 -1.1928
  821SOL     OW 2461   3.027   0.299   0.792 -0.0074  0.0914  0.4455
  821SOL    HW1 2462   2.970   0.377   0.825 -1.8794  1.9502  0.9138
  821SOL    HW2 2463   3.047   0.231   0.867 -3.0692  2.1921 -0.7149
  822SOL     OW 2464   0.680   2.259   2.396  0.3663  0.0251  0.0923
  822SOL    HW1 2465   0.736   2.340   2.362 -0.1658 -0.0288 -0.6085
  822SOL    HW2 2466   0.589   2.270   2.352  0.8006 -1.6316  1.9346
  823SOL     OW 2467   3.009   1.127   1.852 -0.4219  0.0443  0.0169
  823SOL    HW1 2468   3.062   1.092   1.770  1.9456  0.2395 -1.8358
  823SOL    HW2 2469   3.064   1.196   1.899  0.4619  0.2526 -1.4771
  824SOL     OW 2470   0.809   2.731   2.427 -0.7495 -0.5940 -0.0246
  824SOL    HW1 2471   0.845   2.696   2.521 -1.2164 -0.5234  1.5343
  824SOL    HW2 2472   0.797   2.652   2.362  1.8622 -0.6139 -2.4279
  825SOL     OW 2473   1.459   1.631   2.855  0.5154 -0.1255  0.4592
  825SOL    HW1 2474   1.417   1.700   2.797 -1.6711 -0.8984  0.4933
  825SOL    HW2 2475   1.558   1.652   2.878 -0.3236  2.0071  0.1113
  826SOL     OW 2476   1.265   2.289   2.988 -0.3669 -0.5187  0.2951
  826SOL    HW1 2477   1.284   2.240   3.076 -0.3894  0.2206 -2.1429
  826SOL    HW2 2478   1.291   2.231   2.909 -0.9496 -0.2282  1.5415
  827SOL     OW 2479   0.389   1.610   1.607 -0.6810  0.4438  0.2302
  827SOL    HW1 2480   0.295   1.608   1.575  0.9782 -0.2688 -2.2599
  827SOL    HW2 2481   0.395   1.599   1.707 -0.3241  1.2464 -1.5554
  828SOL     OW 2482   0.213   1.646   1.281 -0.1490  0.4026  0.6030
  828SOL    HW1 2483   0.304   1.699   1.273  1.8062  1.6011  0.1602
  828SOL    HW2 2484   0.214   1.585   1.199 -1.4138  1.0359 -0.5536
  829SOL     OW 2485   2.962   2.569   0.013 -0.4946 -0.0804  0.4621
  829SOL    HW1 2486   3.041   2.505   0.011 -1.3730 -0.6742 -1.5215
  829SOL    HW2 2487   2.894   2.520   3.071 -0.2111  1.8546 -1.4512
  830SOL     OW 2488   1.183   0.750   0.537  0.1007  0.4451 -0.5864
  830SOL    HW1 2489   1.243   0.728   0.457  2.7068 -1.7132 -2.1953
  830SOL    HW2 2490   1.231   0.794   0.615 -1.2419 -2.3882  0.2127
  831SOL     OW 2491   2.810   2.401   2.978 -0.8520  0.0954 -0.2925
  831SOL    HW1 2492   2.796   2.303   2.963  0.7993  1.1105  2.7003
  831SOL    HW2 2493   2.725   2.459   2.962  1.7367  0.8020  2.3108
  832SOL     OW 2494   1.845   2.436   0.304 -0.1594 -0.3991 -0.1208
  832SOL    HW1 2495   1.822   2.394   0.215  0.1781 -0.1277  0.7207
  832SOL    HW2 2496   1.843   2.535   0.299 -0.6716 -2.0628 -0.5151
  833SOL     OW 2497   0.619   1.323   2.296  0.0947 -0.2940 -0.0069
  833SOL    HW1 2498   0.641   1.422   2.286 -0.4755  0.5032 -0.5336
  833SOL    HW2 2499   0.522   1.308   2.311  0.8735 -0.9920 -0.4203
  834SOL     OW 2500   2.542   0.534   0.589  0.0383 -0.2777 -0.7233
  834SOL    HW1 2501   2.454   0.552   0.640 -0.3126 -0.1079  0.6531
  834SOL    HW2 2502   2.543   0.448   0.535  1.4768  0.4928 -0.7550
  835SOL     OW 2503   2.169   0.727   2.152 -0.4580 -0.5835  0.4313
  835SOL    HW1 2504   2.269   0.740   2.162 -0.4965 -2.1933  0.9636
  835SOL    HW2 2505   2.114   0.795   2.208 -2.9861  3.1309  0.1519
  836SOL     OW 2506   0.873   2.254   0.618  0.1145 -0.0768  0.4207
  836SOL    HW1 2507   0.932   2.306   0.681  2.2151  1.2171 -0.0646
  836SOL    HW2 2508   0.922   2.165   0.603  3.0796  0.1948  0.4580
  837SOL     OW 2509   2.319   1.260   1.807  0.1171 -0.0912 -0.2491
  837SOL    HW1 2510   2.357   1.259   1.710  2.8682  0.2333 -2.9702
  837SOL    HW2 2511   2.332   1.348   1.855 -0.7132  2.6882 -0.1247
  838SOL     OW 2512   0.244   1.138   2.291  0.7589 -0.4099  0.3149
  838SOL    HW1 2513   0.267   1.116   2.194  1.2750 -1.3515 -1.4496
  838SOL    HW2 2514   0.146   1.119   2.318  0.0465  2.1806 -3.0704
  839SOL     OW 2515   0.381   2.708   3.074  0.1891  0.6889 -0.5469
  839SOL    HW1 2516   0.301   2.661   3.042  0.6147  0.7391  0.7691
  839SOL    HW2 2517   0.387   2.803   3.037  0.4017  3.8746  1.2819
  840SOL     OW 2518   3.065   1.267   2.802 -0.2131  0.6038 -0.0550
  840SOL    HW1 2519   3.106   1.178   2.764 -2.9352 -0.5346 -2.0011
  840SOL    HW2 2520   2.964   1.264   2.812  3.3408  2.7676 -0.5921
  841SOL     OW 2521   0.428   2.192   2.666 -0.1434  0.4634 -0.0669
  841SOL    HW1 2522   0.341   2.238   2.647  3.9193  1.8051 -0.3103
  841SOL    HW2 2523   0.509   2.235   2.613  1.0203  1.2048  1.4311
  842SOL     OW 2524   0.701   3.061   1.014  0.3450  0.2952  0.0736
  842SOL    HW1 2525   0.640   3.069   1.094  0.7281  0.8456 -3.4914
  842SOL    HW2 2526   0.670   0.010   0.940 -0.2822  0.3656  1.6324
  843SOL     OW 2527   0.026   1.539   2.066  0.1146  0.1470 -0.5755
  843SOL    HW1 2528   0.066   1.629   2.030 -0.7689 -0.1562  2.3094
  843SOL    HW2 2529   0.024   1.537   2.168  0.4165  1.9603  1.7729
  844SOL     OW 2530   1.646   2.069   2.333  0.1707 -0.2008  0.3124
  844SOL    HW1 2531   1.648   2.131   2.251 -2.1331 -1.5142  0.1636
  844SOL    HW2 2532   1.727   2.007   2.330 -2.2707 -1.3186  2.2674
  845SOL     OW 2533   1.675   0.069   2.500 -0.3445 -0.2785 -0.4136
  845SOL    HW1 2534   1.581   0.048   2.521  1.6065  1.8029 -0.2888
  845SOL    HW2 2535   1.738   0.050   2.581  2.1011 -1.4760 -0.8764
  846SOL     OW 2536   2.385   1.591   0.059 -0.2160 -0.1367  0.1738
  846SOL    HW1 2537   2.283   1.581   0.062 -0.2259 -1.1382  2.4538
  846SOL    HW2 2538   2.418   1.612   3.073  0.5126 -1.5218 -3.5793
  847SOL     OW 2539   2.413   0.136   2.848  0.3336 -0.0630 -0.0317
  847SOL    HW1 2540   2.384   0.230   2.827  0.6956 -1.0157 -0.9857
  847SOL    HW2 2541   2.518   0.126   2.855  2.8549 -1.7510 -1.6822
  848SOL     OW 2542   2.092   0.611   0.287  0.0598 -0.1329  0.1511
  848SOL    HW1 2543   2.034   0.655   0.358 -3.3561  0.0163 -0.0374
  848SOL    HW2 2544   2.173   0.563   0.332  3.9405 -0.9531 -0.1482
  849SOL     OW 2545   1.238   3.077   2.971  0.1971  0.0128  0.0625
  849SOL    HW1 2546   1.168   3.063   2.895 -0.2592  3.4032 -1.4392
  849SOL    HW2 2547   1.195   3.052   3.058 -1.1721  1.5015 -1.8629
  850SOL     OW 2548   0.046   0.541   0.445 -0.3424 -0.1743 -0.5814
  850SOL    HW1 2549   0.029   0.449   0.414  0.4705  2.8336  0.1794
  850SOL    HW2 2550   3.071   0.577   0.473  2.8824 -2.1652  0.0078
  851SOL     OW 2551   0.507   1.354   1.565  0.0200 -0.1804  0.3499
  851SOL    HW1 2552   0.563   1.358   1.477 -0.4382  0.5986 -0.1492
  851SOL    HW2 2553   0.472   1.448   1.584  0.2267 -0.8309  0.0494
  852SOL     OW 2554   1.308   0.736   2.162  0.0325 -0.5460 -0.3101
  852SOL    HW1 2555   1.328   0.711   2.255 -0.6305 -0.4635  0.5835
  852SOL    HW2 2556   1.348   0.668   2.099 -3.5704  2.9159  0.5907
  853SOL     OW 2557   2.295   1.435   2.923  0.1428 -0.4609 -0.3338
  853SOL    HW1 2558   2.262   1.345   2.963  1.6727  0.1600 -0.3173
  853SOL    HW2 2559   2.219   1.470   2.866 -0.8901 -2.0379 -2.0216
  854SOL     OW 2560   1.429   1.238   1.678 -0.5785  0.0695 -0.0176
  854SOL    HW1 2561   1.391   1.182   1.599 -1.5358 -0.4110 -0.7368
  854SOL    HW2 2562   1.355   1.307   1.702  0.6670  0.1940 -1.1700
  855SOL     OW 2563   0.217   2.334   1.719 -0.7710 -0.8748 -0.3297
  855SOL    HW1 2564   0.184   2.426   1.684 -1.3905  2.0743 -3.1066
  855SOL    HW2 2565   0.176   2.263   1.657 -2.5340 -0.2344 -1.2745
  856SOL     OW 2566   1.084   1.179   2.429 -0.0485 -0.5331 -0.4342
  856SOL    HW1 2567   1.136   1.095   2.416 -0.8945  0.1972  0.3269
  856SOL    HW2 2568   1.112   1.255   2.367  3.2917 -1.3093  1.3076
  857SOL     OW 2569   0.954   1.036   2.612  0.4775 -0.0762  0.2807
  857SOL    HW1 2570   0.982   1.120   2.562  1.7748  1.8227 -1.6934
  857SOL    HW2 2571   0.946   0.955   2.552  0.3537  0.2226 -3.6679
  858SOL     OW 2572   0.289   0.205   2.064 -0.0797  0.4658 -0.0588
  858SOL    HW1 2573   0.280   0.174   1.970 -0.0100 -0.4969 -2.3645
  858SOL    HW2 2574   0.199   0.195   2.110 -0.6796 -0.8247 -0.6789
  859SOL     OW 2575   2.321   0.425   0.732  0.1450  0.1577  0.5466
  859SOL    HW1 2576   2.235   0.475   0.708  0.5489 -0.2001  1.1315
  859SOL    HW2 2577   2.340   0.424   0.830 -4.7932  0.9478 -2.1661
  860SOL     OW 2578   0.909   0.817   1.409 -0.4144  0.1173 -0.0739
  860SOL    HW1 2579   0.821   0.779   1.442 -2.3995 -0.1023  0.5018
  860SOL    HW2 2580   0.964   0.737   1.372 -0.9813 -0.7835  0.3821
  861SOL     OW 2581   1.579   0.834   1.187 -0.4853  0.1091 -0.3268
  861SOL    HW1 2582   1.675   0.820   1.149  2.0736 -2.9380 -2.7597
  861SOL    HW2 2583   1.584   0.862   1.285 -2.7197 -1.2054 -0.7755
  862SOL     OW 2584   0.742   3.014   2.400 -0.0322  0.1181  0.5674
  862SOL    HW1 2585   0.755   2.926   2.447 -1.7728  1.4014  0.9368
  862SOL    HW2 2586   0.704   2.994   2.307 -1.5515  3.0895  0.4597
  863SOL     OW 2587   2.698   0.245   1.398  0.1254  0.1878 -0.0276
  863SOL    HW1 2588   2.658   0.338   1.384  0.2306  0.6327  1.0941
  863SOL    HW2 2589   2.797   0.244   1.384  0.0359 -0.3828 -0.9719
  864SOL     OW 2590   2.640   2.952   2.527  0.3949 -0.2289  0.3636
  864SOL    HW1 2591   2.733   2.916   2.502  1.3637 -1.9639  2.8558
  864SOL    HW2 2592   2.617   3.039   2.483 -0.8129 -0.6853  0.0255
  865SOL     OW 2593   1.405   1.158   2.266  0.5915  0.2244  0.5924
  865SOL    HW1 2594   1.359   1.067   2.290 -0.0815 -0.1020  0.5090
  865SOL    HW2 2595   1.351   1.194   2.187 -1.4774  1.0911  0.2030
  866SOL     OW 2596   2.569   2.542   0.925  0.2708  0.4708 -0.1667
  866SOL    HW1 2597   2.559   2.578   1.016 -2.7854 -2.0364 -3.1081
  866SOL    HW2 2598   2.612   2.454   0.930  0.3884  3.0259  1.2929
  867SOL     OW 2599   2.551   2.610   1.201  0.6181 -0.5566  0.4941
  867SOL    HW1 2600   2.511   2.699   1.222  2.0715  0.9382 -0.0010
  867SOL    HW2 2601   2.648   2.610   1.219 -2.1994  3.0985  1.5837
  868SOL     OW 2602   2.991   1.476   1.489  0.1276  0.4510 -0.0229
  868SOL    HW1 2603   2.929   1.429   1.552  0.3058  1.2068  0.3599
  868SOL    HW2 2604   3.005   1.412   1.410  0.7443 -1.3040 -0.2493
  869SOL     OW 2605   2.159   1.690   2.043 -0.3819 -0.1689  0.1085
  869SOL    HW1 2606   2.261   1.708   2.072  0.8965 -1.8474  1.5552
  869SOL    HW2 2607   2.120   1.618   2.101 -1.1214  1.6989  1.1904
  870SOL     OW 2608   1.311   1.099   0.831  1.0745 -0.0019 -0.1103
  870SOL    HW1 2609   1.361   1.076   0.915  0.3035  0.9743 -0.4528
  870SOL    HW2 2610   1.376   1.145   0.765 -1.7747 -0.9460  0.2868
  871SOL     OW 2611   2.385   1.503   1.922  0.2706 -0.6607  0.6105
  871SOL    HW1 2612   2.450   1.542   1.852 -0.5662  1.2793 -0.8978
  871SOL    HW2 2613   2.442   1.462   1.996 -0.2226  0.8432 -0.5432
  872SOL     OW 2614   1.450   1.354   2.468 -0.3025 -0.0098 -0.3272
  872SOL    HW1 2615   1.456   1.308   2.559 -2.3055  0.0719 -2.5308
  872SOL    HW2 2616   1.421   1.292   2.395 -0.9524  0.5287  1.8710
  873SOL     OW 2617   1.280   1.528   1.449 -0.1832  0.1271  0.4743
  873SOL    HW1 2618   1.329   1.486   1.371  1.5213 -2.5696  0.4309
  873SOL    HW2 2619   1.350   1.544   1.517  0.6827 -1.0890 -0.6943
  874SOL     OW 2620   1.597   1.261   1.151 -0.4979  0.0316  0.4470
  874SOL    HW1 2621   1.509   1.265   1.200  2.3325 -3.3963 -1.3683
  874SOL    HW2 2622   1.626   1.353   1.119 -1.5790  1.5207 -0.0152
  875SOL     OW 2623   2.859   0.258   2.598 -0.1689  0.8165  0.2127
  875SOL    HW1 2624   2.879   0.352   2.630  1.3488 -0.2667 -0.3147
  875SOL    HW2 2625   2.757   0.247   2.570  1.0197 -1.2547 -0.4547
  876SOL     OW 2626   0.987   0.933   0.438 -0.0731  0.1001  0.2235
  876SOL    HW1 2627   1.069   0.878   0.467  1.0109 -0.3699  0.5745
  876SOL    HW2 2628   0.906   0.899   0.489 -1.0802 -1.3365  0.1340
  877SOL     OW 2629   1.854   2.966   0.669 -0.0759 -0.8020  0.0307
  877SOL    HW1 2630   1.883   2.933   0.578 -0.8348  1.4453 -1.0403
  877SOL    HW2 2631   1.826   2.896   0.734  0.1183 -0.1281 -1.7501
  878SOL     OW 2632   2.666   1.928   0.176 -0.0802 -0.1116  0.2606
  878SOL    HW1 2633   2.707   1.897   0.264  0.7301  1.3411  3.5837
  878SOL    HW2 2634   2.598   2.000   0.188 -0.1201 -3.2773  0.3336
  879SOL     OW 2635   2.977   2.309   1.865 -0.7307  0.5814 -0.0622
  879SOL    HW1 2636   2.946   2.216   1.895  1.2746 -0.0170 -1.9317
  879SOL    HW2 2637   3.075   2.324   1.884  2.0022  1.4374  2.9132
  880SOL     OW 2638   0.418   1.644   0.843 -0.4537 -0.3004  0.3563
  880SOL    HW1 2639   0.406   1.677   0.747  1.3557 -0.0619  0.6785
  880SOL    HW2 2640   0.498   1.695   0.887 -0.1985  1.8484 -0.0190
  881SOL     OW 2641   1.423   0.368   2.595 -0.1288 -0.0349 -0.0304
  881SOL    HW1 2642   1.469   0.303   2.662  1.3697 -2.2782 -0.5834
  881SOL    HW2 2643   1.323   0.362   2.607  2.6584  0.0897 -0.8880
  882SOL     OW 2644   2.554   1.008   0.665 -0.2427  0.1211 -0.3870
  882SOL    HW1 2645   2.541   1.054   0.757  0.2628 -0.1962  2.8472
  882SOL    HW2 2646   2.581   0.908   0.686  1.0287 -0.5662 -0.1077
  883SOL     OW 2647   1.628   0.760   2.589 -0.2471  0.4689  0.3989
  883SOL    HW1 2648   1.541   0.710   2.569  0.4257 -0.2322  1.5359
  883SOL    HW2 2649   1.649   0.840   2.525  1.5167  2.0582 -0.4766
  884SOL     OW 2650   0.018   0.122   1.692  0.1744 -0.1409 -0.4048
  884SOL    HW1 2651   3.037   0.086   1.668 -1.9102 -0.3944  0.8400
  884SOL    HW2 2652   0.037   0.118   1.791  0.0581  0.1403  1.2439
  885SOL     OW 2653   1.972   0.887   2.285 -0.1434  0.4144 -0.0962
  885SOL    HW1 2654   1.921   0.943   2.217 -1.5082 -1.6286  0.6076
  885SOL    HW2 2655   1.917   0.812   2.324  1.5465 -0.1041  1.4856
  886SOL     OW 2656   1.669   0.542   2.889 -0.6000 -0.1630 -0.0647
  886SOL    HW1 2657   1.666   0.473   2.810 -3.1314 -0.6294 -1.5482
  886SOL    HW2 2658   1.765   0.561   2.926 -0.0688  1.7857 -0.0540
  887SOL     OW 2659   1.167   2.673   1.639 -0.5432  0.1524 -0.1203
  887SOL    HW1 2660   1.259   2.691   1.602 -0.4923 -1.0109  1.9771
  887SOL    HW2 2661   1.125   2.606   1.573  2.0817  3.6186 -1.6877
  888SOL     OW 2662   2.421   0.723   1.448  0.3137 -0.4131  0.3067
  888SOL    HW1 2663   2.393   0.680   1.539  0.0728 -0.4156  0.4402
  888SOL    HW2 2664   2.484   0.801   1.462 -1.7098  0.7735 -1.9682
  889SOL     OW 2665   1.693   3.072   0.937  0.2898 -0.1009 -0.2772
  889SOL    HW1 2666   1.628   2.999   0.932  0.3163 -1.3549  0.1879
  889SOL    HW2 2667   1.722   3.092   1.028  0.1999 -2.0681 -0.3917
  890SOL     OW 2668   1.316   2.584   0.700  0.3121 -0.1375 -0.2700
  890SOL    HW1 2669   1.387   2.551   0.763  0.3516  1.7446  0.3409
  890SOL    HW2 2670   1.249   2.647   0.749 -2.5177 -3.3883 -1.0963
  891SOL     OW 2671   3.044   1.270   0.258  0.6069 -0.3679 -0.4594
  891SOL    HW1 2672   3.103   1.187   0.252  3.5329 -1.9922 -3.2603
  891SOL    HW2 2673   3.082   1.343   0.204  0.2196 -0.0494  0.6848
  892SOL     OW 2674   2.297   1.519   2.554  0.5711 -0.9039  0.4629
  892SOL    HW1 2675   2.356   1.602   2.586  2.8423  0.1712 -0.3981
  892SOL    HW2 2676   2.202   1.551   2.539  0.2484 -0.2112 -0.3834
  893SOL     OW 2677   2.332   2.461   1.242  0.2487 -0.2261  0.0203
  893SOL    HW1 2678   2.271   2.509   1.174  1.1412  0.0305 -0.6796
  893SOL    HW2 2679   2.429   2.498   1.226 -0.0211 -0.9099 -1.8204
  894SOL     OW 2680   0.326   0.582   0.756  0.3540  0.0408 -0.5318
  894SOL    HW1 2681   0.392   0.529   0.816 -0.3554  1.5412 -1.2217
  894SOL    HW2 2682   0.265   0.512   0.715 -0.8204  0.4071 -1.0898
  895SOL     OW 2683   2.884   2.195   2.226 -0.0409 -0.5391  0.2074
  895SOL    HW1 2684   2.938   2.272   2.266 -2.4413 -1.0385 -2.9311
  895SOL    HW2 2685   2.915   2.102   2.250  0.9539  3.0050  3.2917
  896SOL     OW 2686   1.453   3.075   2.635 -0.1414 -0.2054 -0.1647
  896SOL    HW1 2687   1.478   2.982   2.672 -2.5643  0.1147 -1.4661
  896SOL    HW2 2688   1.352   3.073   2.615 -0.3370  3.5769 -0.3729
  897SOL     OW 2689   0.298   1.964   1.670  0.7911  0.6629  0.0206
  897SOL    HW1 2690   0.220   2.019   1.633 -2.0271  0.5082 -1.2629
  897SOL    HW2 2691   0.382   1.983   1.618 -2.0362 -1.6171  0.8249
  898SOL     OW 2692   0.770   2.244   1.869  0.0761  0.3863  0.2391
  898SOL    HW1 2693   0.677   2.216   1.841 -0.3670  0.7295 -0.8849
  898SOL    HW2 2694   0.834   2.261   1.794 -0.2846 -1.3702  1.8914
  899SOL     OW 2695   1.688   0.137   1.838 -0.3491 -0.6823 -0.4110
  899SOL    HW1 2696   1.784   0.103   1.824 -1.4738 -1.4253 -0.9870
  899SOL    HW2 2697   1.620   0.063   1.817 -4.8830 -2.3171 -1.2015
  900SOL     OW 2698   1.310   1.185   0.425  0.5162  0.3371  0.1714
  900SOL    HW1 2699   1.323   1.097   0.371 -2.4569  3.1047 -0.3688
  900SOL    HW2 2700   1.216   1.189   0.467 -2.5908 -1.1886  0.4625
  901SOL     OW 2701   1.246   0.959   2.390 -0.1305  0.0142 -0.4625
  901SOL    HW1 2702   1.315   0.963   2.467 -0.2680  1.5692  1.4923
  901SOL    HW2 2703   1.206   0.867   2.385 -1.5577  2.7963  3.4762
  902SOL     OW 2704   0.011   2.276   0.959  0.1981 -0.1040  0.4287
  902SOL    HW1 2705   3.025   2.306   0.968 -0.1646  1.3725 -1.7881
  902SOL    HW2 2706   0.074   2.335   1.014  0.1480  3.8132  0.5301
  903SOL     OW 2707   2.742   1.309   2.208 -0.3204 -0.2166 -0.1019
  903SOL    HW1 2708   2.798   1.225   2.229  1.2698 -2.9333  1.8375
  903SOL    HW2 2709   2.689   1.338   2.288 -1.2677 -0.5628 -0.7814
  904SOL     OW 2710   1.447   1.895   0.073  0.1064 -0.2726  0.4565
  904SOL    HW1 2711   1.424   1.942   3.099  0.4969 -1.3048 -0.5248
  904SOL    HW2 2712   1.360   1.872   0.124  2.4882 -0.6001 -2.0565
  905SOL     OW 2713   1.982   2.967   1.987  0.1864 -0.5280 -0.6871
  905SOL    HW1 2714   1.931   2.875   1.987 -0.2345 -1.1399 -0.8582
  905SOL    HW2 2715   1.956   3.017   2.072 -1.0087  1.1995  2.3808
  906SOL     OW 2716   1.511   2.815   0.120 -0.3080  0.6599  0.5829
  906SOL    HW1 2717   1.504   2.841   0.026 -2.4816 -0.8247  2.5566
  906SOL    HW2 2718   1.507   2.714   0.128  0.4575  1.5561  0.0860
  907SOL     OW 2719   0.196   2.797   0.838  0.1843 -0.2611 -0.1753
  907SOL    HW1 2720   0.265   2.853   0.890  1.0550  1.0446 -1.9333
  907SOL    HW2 2721   0.208   2.806   0.738  1.2711  0.6239  1.2796
  908SOL     OW 2722   0.711   2.624   1.704 -0.3784  0.0610 -0.0684
  908SOL    HW1 2723   0.744   2.725   1.699  1.6707  3.2477  1.1708
  908SOL    HW2 2724   0.702   2.597   1.802 -0.5405  0.8044  2.9792
  909SOL     OW 2725   1.743   0.582   1.320  0.3095  0.5947 -0.2646
  909SOL    HW1 2726   1.688   0.643   1.384  1.9830  1.2663 -0.3206
  909SOL    HW2 2727   1.841   0.604   1.335 -0.3323  1.4801 -0.8559
  910SOL     OW 2728   0.632   0.455   0.205 -0.7656 -0.3149 -0.5867
  910SOL    HW1 2729   0.700   0.395   0.161 -1.5052  1.0044 -3.3566
  910SOL    HW2 2730   0.675   0.527   0.263  0.2115  0.2933 -0.8175
  911SOL     OW 2731   0.344   3.008   2.984 -0.4990 -0.0426 -0.2536
  911SOL    HW1 2732   0.405   3.091   2.969  2.2321  2.7355 -0.2686
  911SOL    HW2 2733   0.322   3.001   3.085  1.1939 -0.0472  2.1688
  912SOL     OW 2734   3.026   2.116   2.646  0.0968  0.4386 -0.0054
  912SOL    HW1 2735   2.955   2.042   2.658 -1.5935  0.0423  0.5959
  912SOL    HW2 2736   3.021   2.153   2.552 -0.2839 -0.1856 -2.6538
  913SOL     OW 2737   2.448   3.038   0.151  0.7294  0.4451 -0.6876
  913SOL    HW1 2738   2.395   3.070   0.231 -1.1770  2.3531  0.9930
  913SOL    HW2 2739   2.546   3.014   0.173  2.6718  1.2483  2.3765
  914SOL     OW 2740   1.440   1.597   1.958 -0.2589  0.1419  0.2835
  914SOL    HW1 2741   1.515   1.549   1.910  2.1718  0.4234  0.9629
  914SOL    HW2 2742   1.456   1.698   1.975 -0.4063  2.1132 -0.9233
  915SOL     OW 2743   2.885   2.573   2.406  0.1941  0.2865  0.4291
  915SOL    HW1 2744   2.954   2.497   2.401  0.1591 -2.5939 -0.8502
  915SOL    HW2 2745   2.824   2.572   2.493 -2.9401 -1.0692  1.7325
  916SOL     OW 2746   0.093   0.749   2.425  0.3170 -0.1861 -0.0300
  916SOL    HW1 2747   0.101   0.660   2.382 -0.5699 -1.1386  1.1630
  916SOL    HW2 2748   0.133   0.829   2.380 -1.5797 -2.5101  0.5719
  917SOL     OW 2749   1.653   0.074   3.044 -0.6239 -0.4588  0.5499
  917SOL    HW1 2750   1.690   0.083   0.021  1.7814 -1.8618  0.1282
  917SOL    HW2 2751   1.720   0.090   2.970 -1.2534 -1.5337 -2.3591
  918SOL     OW 2752   1.745   3.073   2.262 -0.4093 -0.0167 -0.6574
  918SOL    HW1 2753   1.719   3.110   2.357 -0.1400  0.8602 -1.7658
  918SOL    HW2 2754   1.689   3.104   2.185 -1.6381 -1.4220  0.9250
  919SOL     OW 2755   1.710   2.304   1.582  0.3291 -0.5466 -0.4768
  919SOL    HW1 2756   1.719   2.364   1.665  0.9265  1.5875 -0.3309
  919SOL    HW2 2757   1.615   2.262   1.574 -0.1618  0.6593 -0.3198
  920SOL     OW 2758   3.092   0.844   0.162  0.5778 -0.1605 -0.0483
  920SOL    HW1 2759   0.032   0.932   0.162 -1.9745  1.6511 -0.5516
  920SOL    HW2 2760   0.036   0.767   0.178 -2.5809  3.8808 -0.9871
  921SOL     OW 2761   2.395   1.071   2.522  0.0517  0.4021 -0.5516
  921SOL    HW1 2762   2.436   1.107   2.434 -1.8395 -0.2496 -1.0304
  921SOL    HW2 2763   2.393   1.140   2.600 -0.6640  1.5347 -0.4835
  922SOL     OW 2764   1.011   1.892   2.492 -0.1143  0.4094  0.4749
  922SOL    HW1 2765   1.073   1.903   2.570  0.9984 -0.1095  2.5377
  922SOL    HW2 2766   0.954   1.808   2.508  1.7062 -1.6566  0.3096
  923SOL     OW 2767   0.829   1.141   2.305 -0.2697  0.1532  0.2249
  923SOL    HW1 2768   0.756   1.212   2.297  0.4543  0.0874  0.5305
  923SOL    HW2 2769   0.922   1.181   2.324 -0.8109  1.2618 -0.1689
  924SOL     OW 2770   0.210   2.351   2.635  0.2443  0.2463  0.4282
  924SOL    HW1 2771   0.136   2.374   2.707 -1.6469  0.2918  1.1100
  924SOL    HW2 2772   0.277   2.426   2.620  0.4754  1.0761 -0.1448
  925SOL     OW 2773   1.711   1.469   1.027  0.0663  0.2299 -0.0504
  925SOL    HW1 2774   1.798   1.442   1.074 -1.3724  0.5112  0.7956
  925SOL    HW2 2775   1.723   1.544   0.962 -0.5287 -0.0861  0.5930
  926SOL     OW 2776   1.687   0.478   2.609 -0.2429 -0.1770 -0.1486
  926SOL    HW1 2777   1.600   0.449   2.564 -1.3613  3.0435  0.8164
  926SOL    HW2 2778   1.702   0.581   2.596 -2.3047 -0.2606 -3.0293
  927SOL     OW 2779   2.416   2.720   1.810 -0.0050  0.0611  0.0807
  927SOL    HW1 2780   2.450   2.729   1.905 -0.9757 -1.5915 -0.9146
  927SOL    HW2 2781   2.315   2.734   1.810  0.2157  0.0660 -2.6816
  928SOL     OW 2782   0.736   1.110   2.787  0.0187  0.0177 -0.1057
  928SOL    HW1 2783   0.678   1.169   2.725  0.5704 -1.1307 -3.2891
  928SOL    HW2 2784   0.822   1.083   2.737 -1.0530  0.5946 -1.9951
  929SOL     OW 2785   0.109   0.233   1.026  0.1539 -0.3599 -0.1796
  929SOL    HW1 2786   0.181   0.259   0.961  0.1801  1.4999  0.9188
  929SOL    HW2 2787   0.057   0.150   0.997  0.0953 -0.2045  1.2299
  930SOL     OW 2788   2.581   0.147   1.905  0.0212 -0.2511 -0.2215
  930SOL    HW1 2789   2.504   0.104   1.855  1.1142  0.9440 -0.5163
  930SOL    HW2 2790   2.640   0.195   1.836  3.9176 -0.1562 -3.4064
  931SOL     OW 2791   2.213   1.187   3.014 -0.2877  0.5079  0.2319
  931SOL    HW1 2792   2.156   1.127   2.954 -1.3690 -3.7377  0.3786
  931SOL    HW2 2793   2.301   1.142   3.026 -3.0605 -2.5872 -1.5676
  932SOL     OW 2794   2.600   1.381   0.953 -0.2866 -0.2933 -0.0622
  932SOL    HW1 2795   2.666   1.450   0.991 -0.0756  2.1458 -1.2616
  932SOL    HW2 2796   2.563   1.423   0.870  0.3236  0.1392  0.2941
  933SOL     OW 2797   2.804   2.369   1.661  0.4430  0.3842 -0.1836
  933SOL    HW1 2798   2.862   2.341   1.739 -0.9227  0.7254 -0.7334
  933SOL    HW2 2799   2.735   2.438   1.686 -0.1702 -1.3561 -0.7853
  934SOL     OW 2800   0.497   3.100   1.209 -0.2906 -0.1200 -0.4560
  934SOL    HW1 2801   0.486   3.049   1.298 -3.1860 -3.1712 -0.8401
  934SOL    HW2 2802   0.500   0.087   1.217 -1.2790 -0.8551 -0.0301
  935SOL     OW 2803   2.570   0.295   2.145  0.4829  0.0533 -0.3159
  935SOL    HW1 2804   2.525   0.371   2.095 -1.1281 -1.1004  0.2299
  935SOL    HW2 2805   2.599   0.218   2.084  0.3752 -1.7272  0.1876
  936SOL     OW 2806   2.707   0.788   2.019 -0.0323  0.5745 -0.0462
  936SOL    HW1 2807   2.803   0.810   2.016  1.3282  0.0528 -0.6022
  936SOL    HW2 2808   2.694   0.690   2.001  1.9720  0.9772 -1.3138
  937SOL     OW 2809   1.847   1.355   1.721 -0.0931 -0.3455  0.3651
  937SOL    HW1 2810   1.836   1.453   1.695 -0.4737  1.5194  0.1330
  937SOL    HW2 2811   1.898   1.348   1.809  0.5622  3.1860  1.1196
  938SOL     OW 2812   0.564   2.327   3.110  0.0038 -0.5768  0.1909
  938SOL    HW1 2813   0.538   2.399   0.064  1.5108  1.5263  0.7338
  938SOL    HW2 2814   0.485   2.295   3.051 -0.1575  0.1869 -2.5202
  939SOL     OW 2815   2.138   0.501   2.968  0.2005  0.3134  0.0395
  939SOL    HW1 2816   2.199   0.506   3.052  2.1388 -1.6945  1.8856
  939SOL    HW2 2817   2.063   0.432   2.985 -0.7874  0.2126  1.9810
  940SOL     OW 2818   1.506   2.512   0.881  0.0678 -0.1256 -0.1650
  940SOL    HW1 2819   1.563   2.439   0.836 -0.6927  0.3842  2.1056
  940SOL    HW2 2820   1.535   2.513   0.978  2.6040 -0.8362  0.8331
  941SOL     OW 2821   1.163   2.063   1.747  0.4066 -0.0391 -0.2542
  941SOL    HW1 2822   1.127   2.144   1.792 -1.4741 -0.9460 -3.6305
  941SOL    HW2 2823   1.096   2.032   1.679  2.9291  2.2624  2.0793
  942SOL     OW 2824   2.824   2.096   2.908  0.4761  0.1849 -0.3805
  942SOL    HW1 2825   2.829   2.039   2.823 -1.8120 -0.5957 -0.9936
  942SOL    HW2 2826   2.728   2.101   2.941  1.9029  3.3474  1.0528
  943SOL     OW 2827   2.167   2.751   1.844  0.1066  0.1485  0.0033
  943SOL    HW1 2828   2.079   2.752   1.792  2.3204 -1.0203 -2.4936
  943SOL    HW2 2829   2.167   2.830   1.904 -1.3648 -0.5041 -0.5329
  944SOL     OW 2830   1.860   2.043   2.595 -0.3812 -0.6542  0.6592
  944SOL    HW1 2831   1.798   1.962   2.593  0.5492  0.7611  0.1191
  944SOL    HW2 2832   1.909   2.064   2.508 -0.0778  0.2894 -0.0297
  945SOL     OW 2833   2.610   1.962   0.975 -0.2266 -0.2777  0.2806
  945SOL    HW1 2834   2.709   1.969   0.947 -1.2698 -0.0299 -2.7475
  945SOL    HW2 2835   2.557   2.015   0.910  2.8701 -1.1739  0.1138
  946SOL     OW 2836   1.196   1.278   2.880 -0.1167 -0.8408  0.5457
  946SOL    HW1 2837   1.191   1.177   2.854  0.1896  0.0380  0.9759
  946SOL    HW2 2838   1.259   1.305   2.957  0.0023 -0.6444  2.2504
  947SOL     OW 2839   0.210   0.857   2.206 -0.3404 -0.3436  0.5709
  947SOL    HW1 2840   0.212   0.937   2.137  2.7353  2.8317 -0.5466
  947SOL    HW2 2841   0.299   0.808   2.199 -0.2283 -1.9253 -1.3653
  948SOL     OW 2842   0.035   1.085   0.514  0.1216  0.1781 -0.7120
  948SOL    HW1 2843   0.062   1.152   0.591 -0.9248 -1.1799 -0.0697
  948SOL    HW2 2844   3.051   1.081   0.521  3.4864 -0.4082  1.6671
  949SOL     OW 2845   0.764   0.288   2.660 -0.0346 -0.1430 -0.7692
  949SOL    HW1 2846   0.811   0.369   2.630 -2.0914 -3.1676 -2.1651
  949SOL    HW2 2847   0.746   0.235   2.574  3.9954 -1.1610  0.5199
  950SOL     OW 2848   0.106   0.601   1.590 -0.1060 -0.0020  0.4025
  950SOL    HW1 2849   0.115   0.656   1.675 -2.4800 -0.6149  1.1054
  950SOL    HW2 2850   0.152   0.648   1.510  1.4650 -2.2162 -1.4254
  951SOL     OW 2851   0.365   1.313   2.441 -0.2056 -0.2934  0.5582
  951SOL    HW1 2852   0.339   1.241   2.376  0.0585 -0.0957 -0.9796
  951SOL    HW2 2853   0.390   1.278   2.530 -2.3991  3.7249 -2.6166
  952SOL     OW 2854   1.909   2.352   1.411 -0.7221  0.2524  0.4244
  952SOL    HW1 2855   1.832   2.303   1.460 -0.3950  0.9112  1.8241
  952SOL    HW2 2856   1.913   2.452   1.439 -0.5133  0.5448 -3.1565
  953SOL     OW 2857   0.469   2.542   0.152 -0.3470  0.3564  0.3946
  953SOL    HW1 2858   0.376   2.559   0.191 -0.5879  1.1044  1.8209
  953SOL    HW2 2859   0.480   2.582   0.056 -1.2976 -2.9193 -1.0722
  954SOL     OW 2860   2.841   1.016   1.068 -0.1621 -1.0112  0.5243
  954SOL    HW1 2861   2.885   1.097   1.027 -1.7518  1.6932  0.7469
  954SOL    HW2 2862   2.741   1.027   1.098 -1.9926 -1.9286  1.0059
  955SOL     OW 2863   1.640   1.271   3.044 -0.2599 -0.5682 -0.1889
  955SOL    HW1 2864   1.628   1.173   3.005  0.6657 -0.4853 -1.6782
  955SOL    HW2 2865   1.676   1.278   0.024 -1.3943 -0.9983  1.4038
  956SOL     OW 2866   1.157   0.708   2.448  0.0593  0.0199  0.0997
  956SOL    HW1 2867   1.065   0.736   2.467  3.3527 -1.2988 -3.2660
  956SOL    HW2 2868   1.158   0.615   2.405  0.2927  1.9018 -1.3280
  957SOL     OW 2869   0.624   0.403   1.737 -0.3031 -0.2907 -0.1401
  957SOL    HW1 2870   0.549   0.465   1.715 -1.0328 -1.7424 -0.7857
  957SOL    HW2 2871   0.703   0.451   1.779  0.4773  1.0005  2.6699
  958SOL     OW 2872   0.371   2.019   0.481 -0.5906  0.2063 -0.2384
  958SOL    HW1 2873   0.355   2.108   0.529  1.1819 -1.4033  2.4924
  958SOL    HW2 2874   0.454   2.014   0.421  1.6471  0.2127 -2.2020
  959SOL     OW 2875   2.307   0.607   1.689 -0.3204  0.3172  0.0991
  959SOL    HW1 2876   2.314   0.686   1.754 -1.6269  1.6569  1.4948
  959SOL    HW2 2877   2.267   0.525   1.729 -2.7086  0.0273  0.4642
  960SOL     OW 2878   0.275   1.560   2.561 -0.0130 -0.4305  0.0559
  960SOL    HW1 2879   0.299   1.465   2.528  0.6372 -1.2209 -3.0934
  960SOL    HW2 2880   0.220   1.550   2.648 -1.6149 -0.6424  0.1442
  961SOL     OW 2881   0.726   1.917   0.763  0.2826 -0.6620 -0.2359
  961SOL    HW1 2882   0.696   1.895   0.667  1.3694  0.2914 -1.0505
  961SOL    HW2 2883   0.667   1.880   0.837 -1.2976 -1.3998  0.8702
  962SOL     OW 2884   0.669   1.641   1.256  0.5343 -0.6409  0.1722
  962SOL    HW1 2885   0.733   1.609   1.326 -0.4973  2.0772 -0.2256
  962SOL    HW2 2886   0.615   1.563   1.219 -3.4278 -1.0991  1.3564
  963SOL     OW 2887   1.486   2.308   2.718  0.2531 -0.1592 -0.1150
  963SOL    HW1 2888   1.422   2.225   2.722 -2.9056  0.9210  1.6579
  963SOL    HW2 2889   1.552   2.305   2.641 -1.8879  1.3901  1.6020
  964SOL     OW 2890   0.102   2.722   2.599  0.0154  0.1128 -0.3109
  964SOL    HW1 2891   0.196   2.720   2.631  0.1209 -0.2959 -0.5282
  964SOL    HW2 2892   0.054   2.809   2.602  0.4820 -1.1372 -0.3531
  965SOL     OW 2893   2.525   2.205   2.642  0.2628  0.1559 -0.3401
  965SOL    HW1 2894   2.564   2.131   2.580  0.5013 -2.1623 -1.6893
  965SOL    HW2 2895   2.558   2.296   2.610 -1.7439 -2.7683  0.0558
  966SOL     OW 2896   2.770   1.533   2.634 -0.0499  0.0020  0.1434
  966SOL    HW1 2897   2.825   1.609   2.671  1.1982 -1.3031 -0.8342
  966SOL    HW2 2898   2.773   1.451   2.696  0.6831  0.0290 -1.5381
  967SOL     OW 2899   1.981   0.293   0.613  0.1260  0.3191  0.2415
  967SOL    HW1 2900   1.967   0.216   0.672 -1.2914  2.7660  0.9993
  967SOL    HW2 2901   2.013   0.372   0.669  0.9663 -2.6309  0.1828
  968SOL     OW 2902   2.586   0.131   0.801 -0.1205  0.7576 -0.3751
  968SOL    HW1 2903   2.570   0.115   0.902  2.0180  0.4317 -0.2241
  968SOL    HW2 2904   2.494   0.137   0.757  0.7120  1.8385 -0.7220
  969SOL     OW 2905   0.658   0.810   2.078  0.0004 -0.8941  0.3873
  969SOL    HW1 2906   0.646   0.834   1.981 -2.8404 -2.1865  1.0054
  969SOL    HW2 2907   0.758   0.825   2.103  0.9180 -0.3504  0.0781
  970SOL     OW 2908   2.061   1.509   2.812  0.1008  0.1598 -0.2728
  970SOL    HW1 2909   1.986   1.483   2.878 -1.5530 -1.3199 -1.7375
  970SOL    HW2 2910   2.024   1.564   2.735 -2.3891 -0.9138 -1.2073
  971SOL     OW 2911   2.337   0.117   1.731 -0.4274  0.2438 -0.0990
  971SOL    HW1 2912   2.254   0.164   1.769 -0.2793 -0.1252  1.0199
  971SOL    HW2 2913   2.354   0.144   1.631  0.2591  0.9843 -1.8527
  972SOL     OW 2914   3.079   0.432   1.113 -0.3224 -0.0325 -0.3085
  972SOL    HW1 2915   3.000   0.451   1.053 -0.1439 -0.7395  2.7139
  972SOL    HW2 2916   0.014   0.347   1.072  3.3758  1.0034 -2.0411
  973SOL     OW 2917   3.092   0.095   2.505  0.1634 -0.2318  0.8560
  973SOL    HW1 2918   0.054   0.091   2.569 -2.3247  2.3517 -1.3634
  973SOL    HW2 2919   3.027   0.166   2.527 -0.9831  0.5756  0.0392
  974SOL     OW 2920   0.071   0.997   1.662 -0.4460 -0.0743  0.1871
  974SOL    HW1 2921   0.131   1.064   1.608  2.3228  1.2127 -1.3091
  974SOL    HW2 2922   0.000   0.967   1.593 -0.6315 -0.7517  0.4348
  975SOL     OW 2923   1.357   3.104   2.260 -0.5295 -0.3735  0.1987
  975SOL    HW1 2924   1.433   0.013   2.196 -0.0990  1.4201 -1.4103
  975SOL    HW2 2925   1.364   3.008   2.296 -1.2223  0.0761  0.5112
  976SOL     OW 2926   2.175   1.421   1.428 -0.3287 -0.5461  0.0617
  976SOL    HW1 2927   2.188   1.467   1.336 -1.3945  1.4008 -2.4728
  976SOL    HW2 2928   2.128   1.483   1.492 -0.1171  1.3610  0.6137
  977SOL     OW 2929   3.085   2.716   0.191  0.7185 -0.4664  0.2171
  977SOL    HW1 2930   3.042   2.670   0.106  0.2311  1.3437 -1.0586
  977SOL    HW2 2931   3.015   2.780   0.237 -2.3921  0.9323  1.2674
  978SOL     OW 2932   2.350   1.402   2.295  0.1059  0.5564 -0.3481
  978SOL    HW1 2933   2.400   1.312   2.301  0.4898  2.4107  0.9189
  978SOL    HW2 2934   2.319   1.431   2.388 -0.4449 -0.5831 -0.4536
  979SOL     OW 2935   0.882   0.889   2.210  0.2009 -0.4788  0.0135
  979SOL    HW1 2936   0.972   0.895   2.163 -1.8618 -1.2934  0.5428
  979SOL    HW2 2937   0.845   0.978   2.240  2.6924  2.5612  0.1431
  980SOL     OW 2938   1.702   1.824   2.668 -0.2732  0.4971  0.0058
  980SOL    HW1 2939   1.603   1.835   2.681 -0.6302 -0.0054  0.3078
  980SOL    HW2 2940   1.715   1.758   2.591 -0.2562 -0.0927  2.2638
  981SOL     OW 2941   1.413   0.755   1.801  0.0995  0.3741 -0.1726
  981SOL    HW1 2942   1.398   0.857   1.811  1.2278  0.8715  0.4261
  981SOL    HW2 2943   1.383   0.702   1.882  0.0963  3.3437 -0.6807
  982SOL     OW 2944   0.857   0.268   0.183  0.6094 -0.2484  0.1020
  982SOL    HW1 2945   0.831   0.238   0.279  1.9986 -1.6805  3.1655
  982SOL    HW2 2946   0.785   0.236   0.121  2.6445  2.5156  2.2423
  983SOL     OW 2947   2.075   0.747   0.055  0.2513  0.1360 -0.5273
  983SOL    HW1 2948   2.068   0.706   0.148 -1.5482 -1.0987  2.5722
  983SOL    HW2 2949   2.160   0.808   0.056  1.3785  0.9082 -0.7573
  984SOL     OW 2950   1.045   0.287   2.931 -0.4494 -0.4919 -0.3614
  984SOL    HW1 2951   1.100   0.374   2.936 -0.6560  1.0854 -1.9952
  984SOL    HW2 2952   1.081   0.212   2.992  0.4708 -2.0693  2.2365
  985SOL     OW 2953   1.340   2.552   1.832  0.0963 -0.4620 -0.0910
  985SOL    HW1 2954   1.263   2.618   1.822 -1.3267  0.4118 -0.2950
  985SOL    HW2 2955   1.337   2.494   1.753 -0.5217  2.7997 -0.4629
  986SOL     OW 2956   2.669   3.061   2.040 -0.0079 -0.3690  0.0209
  986SOL    HW1 2957   2.626   0.027   2.002  2.9560 -1.1568  0.0600
  986SOL    HW2 2958   2.761   3.042   1.999  1.9403 -0.5745 -0.0050
  987SOL     OW 2959   2.203   1.267   1.077 -0.0913 -0.3637 -0.4581
  987SOL    HW1 2960   2.212   1.309   0.985 -0.7634 -2.3498  0.7262
  987SOL    HW2 2961   2.289   1.219   1.101 -0.8806  0.4930 -2.8092
  988SOL     OW 2962   2.422   0.979   1.591 -0.2721  0.0228 -0.3155
  988SOL    HW1 2963   2.455   0.992   1.690  2.9188 -1.1489  1.9729
  988SOL    HW2 2964   2.400   1.073   1.554 -0.6167  2.4042 -0.7753
  989SOL     OW 2965   1.955   1.974   3.028 -0.2883 -0.0843 -0.2308
  989SOL    HW1 2966   1.932   2.038   2.958  1.6045 -0.7037  1.2714
  989SOL    HW2 2967   2.018   1.898   2.994  0.7579 -2.3652 -1.3952
  990SOL     OW 2968   1.552   0.727   2.298 -0.1394  0.3409  0.0213
  990SOL    HW1 2969   1.651   0.731   2.314 -0.4562 -0.0742 -2.2864
  990SOL    HW2 2970   1.539   0.767   2.204  0.9139  2.3094  2.2304
  991SOL     OW 2971   1.051   1.214   0.522 -0.3886  0.4105 -0.3605
  991SOL    HW1 2972   1.016   1.126   0.490 -1.5195  1.1300  0.4682
  991SOL    HW2 2973   1.059   1.211   0.625  0.3540  0.1419  1.5873
  992SOL     OW 2974   0.258   1.007   1.327 -0.2941  0.1547 -0.5554
  992SOL    HW1 2975   0.320   1.081   1.295  2.7046  0.3180  0.0938
  992SOL    HW2 2976   0.176   0.995   1.267 -3.4859 -0.7204  0.5902
  993SOL     OW 2977   2.489   0.513   2.021  0.1597 -0.7339 -0.1020
  993SOL    HW1 2978   2.482   0.579   2.099  0.3038  1.2286  1.2443
  993SOL    HW2 2979   2.399   0.499   1.971 -1.2567 -0.3195  2.0670
  994SOL     OW 2980   1.424   1.987   1.788  0.3577 -0.1844 -0.1763
  994SOL    HW1 2981   1.463   1.951   1.877 -0.3766 -0.0282 -0.2637
  994SOL    HW2 2982   1.331   2.028   1.795  3.0502  2.3271 -0.4121
  995SOL     OW 2983   2.295   1.977   2.989 -0.3746 -0.1201  0.1594
  995SOL    HW1 2984   2.397   1.965   3.007  2.1701  0.7495  2.4255
  995SOL    HW2 2985   2.238   1.891   2.982  0.0642 -1.3062 -3.3075
  996SOL     OW 2986   2.078   1.655   0.131  0.4298  0.0232 -0.3808
  996SOL    HW1 2987   2.092   1.712   0.212  0.1658  0.8080  0.2298
  996SOL    HW2 2988   2.044   1.563   0.160 -0.3273  1.7497 -2.6834
  997SOL     OW 2989   1.835   0.656   2.322  0.1555  0.1340 -0.3212
  997SOL    HW1 2990   1.832   0.592   2.240  0.2386  0.2307 -1.8158
  997SOL    HW2 2991   1.897   0.619   2.394  1.4479 -0.3625  1.8253
  998SOL     OW 2992   2.650   0.749   0.739 -0.5930  0.2558  0.2558
  998SOL    HW1 2993   2.587   0.756   0.816  0.4045  0.4756 -1.6862
  998SOL    HW2 2994   2.622   0.683   0.665 -0.9182 -1.3110 -1.7618
  999SOL     OW 2995   2.350   1.105   0.520  0.4714  0.3156 -0.4604
  999SOL    HW1 2996   2.424   1.066   0.575  1.2657  0.0064 -0.6142
  999SOL    HW2 2997   2.268   1.101   0.584 -2.0547  0.0679  1.4833
 1000SOL     OW 2998   0.706   1.347   1.746 -0.2621  0.1207 -0.0198
 1000SOL    HW1 2999   0.663   1.330   1.835  1.1576 -1.0718 -0.2419
 1000SOL    HW2 3000   0.645   1.330   1.664  0.5746 -0.9835  0.3283
   3.11449   3.11449   3.11449
