1000 SPC/Fw water molecules t=  58.00000 step= 58000
 3000
    1SOL     OW    1   2.121   2.586   0.843  0.2311  0.2924 -0.2233
    1SOL    HW1    2   2.032   2.597   0.796 -0.8102  1.3040  1.5265
    1SOL    HW2    3   2.162   2.675   0.852 -2.3718 -5.9437  1.0167
    2SOL     OW    4   0.936   1.071   2.538 -0.0236 -0.0553  0.5913
    2SOL    HW1    5   0.872   1.105   2.612  0.0467 -1.7218  0.5537
    2SOL    HW2    6   1.032   1.091   2.564  1.5401  2.2451 -2.6740
    3SOL     OW    7   1.209   2.699   2.797  0.0509 -0.2765  0.0552
    3SOL    HW1    8   1.298   2.749   2.799  0.3112  1.8914  0.6479
    3SOL    HW2    9   1.204   2.645   2.708 -1.3631  0.2130 -2.6321
    4SOL     OW   10   1.329   1.415   2.802  0.0453 -0.4047 -0.3056
    4SOL    HW1   11   1.390   1.372   2.873 -0.5570 -0.3301 -2.6580
    4SOL    HW2   12   1.357   1.408   2.709 -0.4132  0.3195  2.5101
    5SOL     OW   13   0.924   0.736   1.902 -0.5701 -0.3042 -0.7129
    5SOL    HW1   14   0.982   0.654   1.919 -0.8813  1.8896  0.0439
    5SOL    HW2   15   0.821   0.717   1.904 -4.5743  2.1084 -0.4558
    6SOL     OW   16   2.012   0.712   2.408 -0.1250  0.8493  0.8086
    6SOL    HW1   17   2.075   0.704   2.327 -1.4817 -1.0111 -3.3574
    6SOL    HW2   18   2.018   0.633   2.470 -0.8705  1.7577 -1.8656
    7SOL     OW   19   0.123   0.538   1.654  0.5600 -0.7403 -0.5674
    7SOL    HW1   20   0.206   0.517   1.712 -0.0840 -1.1090 -1.3288
    7SOL    HW2   21   0.066   0.612   1.696 -1.1527 -2.2193 -1.5291
    8SOL     OW   22   1.914   3.045   2.026 -0.6580  0.2673 -0.2925
    8SOL    HW1   23   1.862   2.957   2.024 -0.4049 -3.7200 -1.8573
    8SOL    HW2   24   1.852   0.021   2.048  1.2048 -3.8448 -2.0585
    9SOL     OW   25   0.269   3.039   0.654 -0.4346  0.2783 -0.3246
    9SOL    HW1   26   0.175   3.029   0.618 -0.6988 -0.6292  1.5037
    9SOL    HW2   27   0.347   3.061   0.585  2.1908  0.8568 -1.2546
   10SOL     OW   28   0.542   2.196   2.122  0.2451 -0.0765  0.6769
   10SOL    HW1   29   0.588   2.230   2.203 -1.8588 -2.0086 -1.5906
   10SOL    HW2   30   0.605   2.210   2.043  2.4466 -2.2599  0.5745
   11SOL     OW   31   0.935   1.427   0.192  0.1901 -0.5959 -0.2273
   11SOL    HW1   32   0.887   1.410   0.106  3.1863 -0.3332  2.1942
   11SOL    HW2   33   0.871   1.464   0.260 -2.5564  3.5630  0.2259
   12SOL     OW   34   2.619   2.462   1.434  0.1519 -0.5471  0.0374
   12SOL    HW1   35   2.587   2.512   1.516 -0.4470  3.0763 -1.6779
   12SOL    HW2   36   2.605   2.367   1.450 -1.6244  2.4704  0.2254
   13SOL     OW   37   0.630   3.014   3.010 -0.5668 -0.0969 -0.4489
   13SOL    HW1   38   0.627   3.090   2.941 -0.8731 -0.2387 -4.7667
   13SOL    HW2   39   0.633   3.037   0.009  0.1224 -0.2794  1.0857
   14SOL     OW   40   1.444   1.774   1.388 -0.3355  0.4302 -0.2750
   14SOL    HW1   41   1.418   1.803   1.484 -2.6531  0.1554 -0.1215
   14SOL    HW2   42   1.532   1.721   1.380  1.2168  0.7804 -1.5558
   15SOL     OW   43   0.377   1.769   2.411 -0.3607  0.8124  0.2670
   15SOL    HW1   44   0.465   1.755   2.465  0.7985 -2.5092  1.7459
   15SOL    HW2   45   0.359   1.860   2.373 -0.4013 -1.1909  0.5798
   16SOL     OW   46   1.688   0.595   2.810 -0.1945  0.6664  0.1346
   16SOL    HW1   47   1.658   0.558   2.718 -1.8661  0.0918  0.8770
   16SOL    HW2   48   1.642   0.684   2.830  1.3806  0.1718 -0.4819
   17SOL     OW   49   2.992   2.641   2.502 -0.3006 -0.1615  0.2454
   17SOL    HW1   50   2.972   2.551   2.540  0.4910 -0.7134 -0.6846
   17SOL    HW2   51   2.975   2.648   2.404  1.4103 -1.4142  1.0845
   18SOL     OW   52   1.208   1.120   0.803  0.0812 -0.3883 -0.0153
   18SOL    HW1   53   1.161   1.210   0.766 -1.1693  2.5686 -1.2177
   18SOL    HW2   54   1.133   1.064   0.844  0.2645  3.2141  0.9954
   19SOL     OW   55   2.647   1.899   2.258  0.3868  0.2507  0.7751
   19SOL    HW1   56   2.732   1.870   2.304  1.2967  2.0037 -2.5884
   19SOL    HW2   57   2.598   1.978   2.304 -0.9721  1.8353  1.3065
   20SOL     OW   58   2.366   2.298   2.534 -0.1055 -0.6819 -0.2511
   20SOL    HW1   59   2.353   2.300   2.436 -0.4576  0.1754 -0.5173
   20SOL    HW2   60   2.348   2.390   2.578 -3.5988 -0.2624 -0.3047
   21SOL     OW   61   1.577   1.729   0.496  0.3703 -0.7496 -0.2379
   21SOL    HW1   62   1.645   1.667   0.545 -2.5772  0.1750  0.4865
   21SOL    HW2   63   1.613   1.821   0.488  1.8535  0.1729  2.1789
   22SOL     OW   64   2.400   2.024   1.188 -0.1453  0.4405 -0.2157
   22SOL    HW1   65   2.453   2.000   1.269  1.2548  0.5536  1.0060
   22SOL    HW2   66   2.297   2.008   1.195  2.2881 -2.1515 -1.8841
   23SOL     OW   67   3.045   1.294   1.332 -0.7149 -0.2076 -0.4458
   23SOL    HW1   68   3.042   1.378   1.278 -1.6446  0.1825  0.8186
   23SOL    HW2   69   2.972   1.287   1.400  1.8582 -0.6520 -2.3903
   24SOL     OW   70   2.364   1.237   1.883 -0.3763  0.0695  0.1540
   24SOL    HW1   71   2.442   1.272   1.831 -0.7626  1.3619  1.6001
   24SOL    HW2   72   2.392   1.224   1.978  0.0830 -1.6770 -1.0263
   25SOL     OW   73   2.114   0.124   2.481  1.1272 -0.2496  0.4415
   25SOL    HW1   74   2.013   0.130   2.502 -0.7691 -2.9339  0.1154
   25SOL    HW2   75   2.118   0.063   2.395  1.8259 -0.6836 -3.6798
   26SOL     OW   76   0.912   0.172   0.211  0.1408  0.6402 -0.2203
   26SOL    HW1   77   0.844   0.161   0.286 -0.3621  0.0786 -2.7581
   26SOL    HW2   78   0.890   0.260   0.165 -0.1278 -0.8311  0.1099
   27SOL     OW   79   0.732   1.876   0.873 -0.0293 -0.0777  0.0248
   27SOL    HW1   80   0.733   1.821   0.788  1.4309  1.7600  1.8431
   27SOL    HW2   81   0.689   1.829   0.950  0.3803 -2.9325 -0.1712
   28SOL     OW   82   2.397   2.292   1.018  0.1894  0.1618  0.0137
   28SOL    HW1   83   2.399   2.209   1.080 -1.0949  1.1532 -1.4900
   28SOL    HW2   84   2.328   2.358   1.047  0.2705 -0.9327  0.6817
   29SOL     OW   85   2.064   0.005   1.812 -0.2313  0.3417  0.0785
   29SOL    HW1   86   2.020   3.079   1.901  1.0983 -1.0915  1.6104
   29SOL    HW2   87   2.163   0.017   1.830 -0.5424 -1.2848 -1.6374
   30SOL     OW   88   0.640   2.877   1.241  0.4808 -0.0885  0.5323
   30SOL    HW1   89   0.543   2.895   1.268 -2.8788  1.5298  1.7281
   30SOL    HW2   90   0.688   2.967   1.228 -0.5063  2.2320 -0.5861
   31SOL     OW   91   0.013   1.931   2.017 -0.1764  0.1108  0.6165
   31SOL    HW1   92   0.077   1.986   1.961  0.9475  1.2497  0.4330
   31SOL    HW2   93   0.031   1.834   1.996  0.3565 -1.2943  0.2704
   32SOL     OW   94   1.465   1.774   2.255 -0.0131  0.1091 -0.1227
   32SOL    HW1   95   1.366   1.759   2.236  0.1616 -1.4349 -0.2560
   32SOL    HW2   96   1.508   1.687   2.289 -0.4996  0.8092 -0.8858
   33SOL     OW   97   0.232   0.155   2.931  0.0768 -0.0110  0.4071
   33SOL    HW1   98   0.268   0.192   2.841  0.8837  2.4739  0.6544
   33SOL    HW2   99   0.270   0.063   2.957 -0.3733 -0.4236  0.1422
   34SOL     OW  100   2.484   2.987   0.430  0.0089  0.1951  0.2566
   34SOL    HW1  101   2.473   3.084   0.455  1.5345  1.2929 -2.6391
   34SOL    HW2  102   2.551   2.938   0.488 -1.8542 -0.5309 -1.6896
   35SOL     OW  103   2.769   0.340   1.699 -0.2091  0.0292 -0.0429
   35SOL    HW1  104   2.747   0.369   1.793 -1.0551 -0.5046  2.2957
   35SOL    HW2  105   2.860   0.359   1.674 -1.2936  1.3537 -3.2243
   36SOL     OW  106   2.652   2.853   2.344  0.0784 -0.1376  0.2309
   36SOL    HW1  107   2.584   2.813   2.407 -2.4188  0.9971  2.0950
   36SOL    HW2  108   2.731   2.792   2.320  0.7334 -1.9999  0.2973
   37SOL     OW  109   1.474   2.841   0.136 -0.4393  0.0346 -0.3798
   37SOL    HW1  110   1.516   2.865   0.230  1.2445  1.6321 -0.8598
   37SOL    HW2  111   1.379   2.807   0.150  0.5732  1.2411  1.2630
   38SOL     OW  112   0.039   0.855   3.041  0.0359 -0.2645  0.3956
   38SOL    HW1  113   3.069   0.778   3.034 -0.4135 -1.1546  0.3552
   38SOL    HW2  114   0.091   0.864   2.951  1.7887  4.4248  0.3405
   39SOL     OW  115   1.604   1.893   2.062  0.0683 -0.0162  0.1147
   39SOL    HW1  116   1.551   1.979   2.040 -0.2848  5.7714 -1.3167
   39SOL    HW2  117   1.559   1.841   2.143 -0.4579 -1.7577  2.9269
   40SOL     OW  118   0.064   0.503   2.675 -0.6771 -0.0625  0.6320
   40SOL    HW1  119   3.087   0.457   2.730 -1.3375  2.2319  1.3485
   40SOL    HW2  120   0.107   0.443   2.602 -0.1710 -0.1348 -1.6799
   41SOL     OW  121   1.669   1.135   1.998  0.5334 -0.0881 -0.3221
   41SOL    HW1  122   1.751   1.086   1.976 -1.6067  2.2270 -0.4727
   41SOL    HW2  123   1.677   1.179   2.091  1.9647  1.3217 -1.8892
   42SOL     OW  124   3.037   0.324   1.610 -0.1654  0.5087 -0.1218
   42SOL    HW1  125   3.084   0.415   1.605  1.1490 -2.3119  1.2848
   42SOL    HW2  126   3.097   0.262   1.664 -4.0707 -0.0703  3.3937
   43SOL     OW  127   1.332   1.429   1.595 -0.5746 -1.0379 -0.1071
   43SOL    HW1  128   1.229   1.439   1.614 -0.7339 -2.6731 -1.1907
   43SOL    HW2  129   1.374   1.356   1.658  1.0416 -0.9223  1.0169
   44SOL     OW  130   2.981   0.333   2.810  0.1180  0.3395  0.2791
   44SOL    HW1  131   3.036   0.340   2.897 -1.0883  1.1940  1.7663
   44SOL    HW2  132   2.891   0.304   2.836 -1.5313  1.5647 -1.6645
   45SOL     OW  133   0.353   2.131   1.366  0.3111  0.2802  0.2003
   45SOL    HW1  134   0.268   2.120   1.306 -1.8748 -3.0913 -1.9905
   45SOL    HW2  135   0.434   2.113   1.307  2.2548 -1.2987  1.8272
   46SOL     OW  136   2.335   3.097   1.896  0.5512 -0.5425 -0.2546
   46SOL    HW1  137   2.407   0.047   1.943  0.7338 -1.5450  0.6430
   46SOL    HW2  138   2.367   3.080   1.798  2.0139 -0.2414 -0.0542
   47SOL     OW  139   0.330   1.895   1.036 -0.5112 -0.0864  0.2322
   47SOL    HW1  140   0.345   1.845   0.949 -0.1898 -0.3831  3.0822
   47SOL    HW2  141   0.248   1.856   1.074 -0.0282 -0.0261 -2.3138
   48SOL     OW  142   0.652   3.005   0.192  1.1651  0.0421 -0.1725
   48SOL    HW1  143   0.627   3.098   0.216  1.3601  1.2237 -0.3359
   48SOL    HW2  144   0.582   2.938   0.225  0.6028 -1.8301 -0.8052
   49SOL     OW  145   2.979   1.661   1.754  0.0938 -0.1452 -0.5986
   49SOL    HW1  146   3.055   1.642   1.816  2.6839 -0.4736 -1.1433
   49SOL    HW2  147   2.936   1.580   1.703  0.2248 -0.7715 -0.9094
   50SOL     OW  148   1.315   3.053   0.564  0.1770 -0.2014 -0.0273
   50SOL    HW1  149   1.392   3.079   0.504 -1.2501 -1.4123  1.9560
   50SOL    HW2  150   1.294   0.029   0.628 -1.7306 -2.3333 -0.1099
   51SOL     OW  151   1.163   0.241   1.210 -0.3018 -0.2680 -0.1581
   51SOL    HW1  152   1.146   0.242   1.310  2.1416 -0.3960 -1.1220
   51SOL    HW2  153   1.143   0.334   1.169  0.2760  0.5860 -1.4293
   52SOL     OW  154   0.724   1.294   0.533  0.0196 -0.0722  1.1169
   52SOL    HW1  155   0.670   1.245   0.465  1.5129 -0.4879 -0.8193
   52SOL    HW2  156   0.775   1.230   0.596  0.5476  0.7905  1.0305
   53SOL     OW  157   1.366   2.934   2.520  0.0901 -0.7257  0.0750
   53SOL    HW1  158   1.436   2.979   2.458  0.1084 -4.4492  0.8787
   53SOL    HW2  159   1.403   2.887   2.605 -0.6040  0.9856 -0.9706
   54SOL     OW  160   1.725   0.686   1.690 -0.1702 -0.4809 -0.3686
   54SOL    HW1  161   1.795   0.760   1.671  0.9682  1.2326  0.6790
   54SOL    HW2  162   1.763   0.592   1.673  0.7101 -3.0866 -0.7730
   55SOL     OW  163   3.004   2.640   0.422 -0.0256  0.8767 -0.5769
   55SOL    HW1  164   3.035   2.711   0.486  0.3952  0.9294 -0.2346
   55SOL    HW2  165   3.052   2.549   0.440  0.6784 -5.6232 -1.3593
   56SOL     OW  166   1.006   2.816   1.708  0.3260 -0.1529  0.3271
   56SOL    HW1  167   0.955   2.880   1.647  2.0969  0.7420  1.7193
   56SOL    HW2  168   1.091   2.789   1.665 -0.6399  1.9920  2.0518
   57SOL     OW  169   1.735   0.742   2.403  0.3723 -0.5024 -0.2076
   57SOL    HW1  170   1.836   0.752   2.404  1.4317 -1.0274  2.5560
   57SOL    HW2  171   1.691   0.772   2.314 -0.8674  0.7748 -1.0769
   58SOL     OW  172   0.564   1.078   2.045 -0.4201  0.3832 -1.1770
   58SOL    HW1  173   0.577   1.163   1.993 -1.6584  2.7655 -0.0398
   58SOL    HW2  174   0.472   1.067   2.089 -2.6704 -1.4262 -0.4623
   59SOL     OW  175   0.696   2.536   2.001  0.7057  0.2143 -0.0363
   59SOL    HW1  176   0.695   2.448   1.953  1.3971 -0.8372 -2.3032
   59SOL    HW2  177   0.734   2.609   1.938 -3.8289  1.4816 -3.0853
   60SOL     OW  178   2.356   2.461   0.160  0.0590  0.5966 -0.3086
   60SOL    HW1  179   2.413   2.384   0.120  1.0145 -2.9269  2.2089
   60SOL    HW2  180   2.403   2.551   0.146 -0.8081 -2.5933 -0.2946
   61SOL     OW  181   1.053   2.622   0.615 -0.3731 -0.2620 -0.6978
   61SOL    HW1  182   1.042   2.550   0.683 -1.4496  2.3052 -0.2690
   61SOL    HW2  183   1.090   2.583   0.533 -2.0734  1.3500  0.9246
   62SOL     OW  184   1.516   2.512   2.867  0.6007 -0.4975  0.1479
   62SOL    HW1  185   1.504   2.410   2.876  1.6655 -1.3735  0.9441
   62SOL    HW2  186   1.505   2.563   2.955 -2.7542 -3.1258 -0.3341
   63SOL     OW  187   2.364   0.690   2.863 -0.3562 -0.3218  0.3724
   63SOL    HW1  188   2.309   0.762   2.912  0.5924  0.4425  1.8322
   63SOL    HW2  189   2.371   0.613   2.930  0.1872  0.3600  2.2628
   64SOL     OW  190   1.386   1.217   0.284  0.1879  0.7306 -0.4089
   64SOL    HW1  191   1.320   1.229   0.209  0.4060  1.2628  1.6518
   64SOL    HW2  192   1.383   1.279   0.366  0.1007  1.5739  1.0284
   65SOL     OW  193   0.905   3.093   1.483 -0.3925  0.1849  0.2601
   65SOL    HW1  194   0.960   3.017   1.439  0.5597 -1.0411 -0.0341
   65SOL    HW2  195   0.922   0.084   1.446  0.2747  0.1224  0.4885
   66SOL     OW  196   0.801   1.241   1.324 -0.2319 -0.2335 -0.7461
   66SOL    HW1  197   0.808   1.184   1.407  3.9417  4.2452  0.8990
   66SOL    HW2  198   0.876   1.217   1.262 -2.7355 -1.2714 -0.6689
   67SOL     OW  199   2.286   2.351   1.918 -0.1487 -0.3680  0.0982
   67SOL    HW1  200   2.377   2.341   1.965  2.6881  0.2006 -0.9545
   67SOL    HW2  201   2.288   2.281   1.842  1.0309 -1.8965  0.5674
   68SOL     OW  202   1.095   1.199   1.824  0.2274  0.1301  0.1401
   68SOL    HW1  203   1.084   1.243   1.737  1.1376 -0.0646  0.2582
   68SOL    HW2  204   1.050   1.102   1.823  1.4428 -1.6112  0.5420
   69SOL     OW  205   2.722   2.701   0.133 -0.5648 -0.6349  0.0321
   69SOL    HW1  206   2.736   2.654   0.221  1.0979  0.0457 -1.6915
   69SOL    HW2  207   2.626   2.726   0.120  1.9796 -1.5794  2.3115
   70SOL     OW  208   2.463   0.828   2.514  0.3325  0.0465 -0.2611
   70SOL    HW1  209   2.453   0.904   2.583 -1.1489  4.0484  1.0375
   70SOL    HW2  210   2.516   0.755   2.557 -0.1213  0.4025  0.5251
   71SOL     OW  211   0.179   1.846   0.584  0.5088  0.0646 -0.2991
   71SOL    HW1  212   0.174   1.774   0.514  1.3701  2.7455 -0.0466
   71SOL    HW2  213   0.096   1.859   0.639  1.2063  1.8696 -0.6110
   72SOL     OW  214   2.633   1.729   0.423 -0.2426 -0.7055  0.1671
   72SOL    HW1  215   2.564   1.774   0.365  2.7959 -1.7042  2.9807
   72SOL    HW2  216   2.604   1.637   0.445  2.6599 -0.0412 -2.8886
   73SOL     OW  217   0.983   0.369   0.642 -1.0283 -0.4197 -0.1997
   73SOL    HW1  218   1.076   0.411   0.663  1.7974  1.4317  0.2332
   73SOL    HW2  219   0.912   0.401   0.703  0.8083  3.1091 -1.3139
   74SOL     OW  220   2.514   2.305   2.063  0.0740  0.1154  0.9517
   74SOL    HW1  221   2.593   2.243   2.037 -0.2931  1.0260 -2.4123
   74SOL    HW2  222   2.559   2.400   2.063  2.8713  3.7778 -0.4418
   75SOL     OW  223   1.634   1.863   1.774  0.0825  0.0852  0.2234
   75SOL    HW1  224   1.617   1.858   1.875  0.7170  1.1987 -1.2268
   75SOL    HW2  225   1.566   1.811   1.716  1.0749 -0.5010 -0.8649
   76SOL     OW  226   0.975   2.080   1.152 -0.4786  0.0011  0.8654
   76SOL    HW1  227   1.022   1.988   1.148  0.5896 -4.2358 -3.1641
   76SOL    HW2  228   0.906   2.076   1.227 -0.2791  0.6838 -0.9908
   77SOL     OW  229   2.741   1.616   1.923 -0.3151 -0.8123  0.2410
   77SOL    HW1  230   2.762   1.609   2.021 -1.5624 -1.0709 -0.8307
   77SOL    HW2  231   2.826   1.635   1.871  0.1977 -1.3484 -0.9535
   78SOL     OW  232   1.888   0.651   0.574  0.0260 -0.4080 -0.3411
   78SOL    HW1  233   1.981   0.689   0.593  3.7119  2.4488  1.0259
   78SOL    HW2  234   1.821   0.724   0.559  0.2198  0.3450  1.1968
   79SOL     OW  235   1.692   1.421   1.856  0.5680  0.1144  0.0443
   79SOL    HW1  236   1.764   1.380   1.913  1.4872 -2.7892 -0.5111
   79SOL    HW2  237   1.728   1.413   1.765  0.6380  0.3005  5.3461
   80SOL     OW  238   1.025   0.515   1.670  0.3964  0.3153 -0.4878
   80SOL    HW1  239   1.112   0.514   1.615  0.8179 -0.6368  1.2368
   80SOL    HW2  240   1.040   0.556   1.762 -2.6673 -0.3786  1.4804
   81SOL     OW  241   0.768   2.710   0.647  0.1731 -0.1308  0.3625
   81SOL    HW1  242   0.765   2.779   0.723 -0.1851 -1.2562 -1.9638
   81SOL    HW2  243   0.859   2.682   0.613 -2.1915 -0.5782 -0.6546
   82SOL     OW  244   1.345   0.434   1.958 -0.7272  0.0431  0.5096
   82SOL    HW1  245   1.384   0.475   1.870  0.0021  2.5803  0.7053
   82SOL    HW2  246   1.407   0.360   1.992  0.9123 -0.3821 -0.1743
   83SOL     OW  247   0.213   2.384   0.664  0.1743  0.1610  0.6119
   83SOL    HW1  248   0.220   2.296   0.614 -0.7571 -0.1347 -0.0985
   83SOL    HW2  249   0.200   2.374   0.765 -0.3163 -0.5922  0.2765
   84SOL     OW  250   2.605   1.480   3.041  0.4379  0.1255  0.1346
   84SOL    HW1  251   2.678   1.428   2.995  3.3657  2.2129  0.6353
   84SOL    HW2  252   2.647   1.568   3.055 -1.7506 -3.1395  0.2156
   85SOL     OW  253   2.568   2.221   1.708 -0.3496 -0.5808  0.3480
   85SOL    HW1  254   2.476   2.193   1.725  2.0670  0.4795 -0.5197
   85SOL    HW2  255   2.630   2.181   1.775 -0.6862 -0.8427 -0.1323
   86SOL     OW  256   1.681   2.674   1.191 -0.4235 -0.0206  0.3310
   86SOL    HW1  257   1.758   2.631   1.239 -0.5139 -1.0606 -0.4584
   86SOL    HW2  258   1.703   2.669   1.089  0.6724  0.3614  2.4994
   87SOL     OW  259   2.486   1.510   0.445 -0.2336  0.1731 -0.2826
   87SOL    HW1  260   2.394   1.540   0.483  1.1195  0.7127  1.3272
   87SOL    HW2  261   2.479   1.471   0.352  0.4467 -0.8891 -0.6494
   88SOL     OW  262   0.963   0.238   0.910 -0.2921 -0.0363 -0.2935
   88SOL    HW1  263   0.981   0.167   0.987 -0.5681 -1.4096  0.7321
   88SOL    HW2  264   0.863   0.258   0.897 -1.4339  0.1009  0.6759
   89SOL     OW  265   0.719   3.093   1.872  0.4386  0.3220  0.4289
   89SOL    HW1  266   0.760   0.087   1.883  1.1607  0.4997 -1.0344
   89SOL    HW2  267   0.797   3.034   1.887 -1.2359  2.0845 -2.7657
   90SOL     OW  268   2.976   1.697   0.768 -0.1787  0.0557 -0.1121
   90SOL    HW1  269   2.893   1.727   0.718 -0.8667  0.2977  1.4100
   90SOL    HW2  270   2.985   1.597   0.761 -0.0455  1.9589 -0.9276
   91SOL     OW  271   1.036   1.763   1.148 -0.2805  0.3077 -0.1924
   91SOL    HW1  272   0.949   1.748   1.198  1.7842 -1.9030  1.1544
   91SOL    HW2  273   1.114   1.719   1.197  1.4698  0.1382 -1.5534
   92SOL     OW  274   2.556   0.009   1.543  0.1153 -0.3345 -0.6140
   92SOL    HW1  275   2.528   0.079   1.607  1.3090 -3.5024 -0.3782
   92SOL    HW2  276   2.639   3.053   1.573 -0.0224 -0.9027 -1.2121
   93SOL     OW  277   0.318   1.146   2.856 -0.3744  0.4747  0.2553
   93SOL    HW1  278   0.397   1.098   2.901  0.8980 -0.6459 -3.0335
   93SOL    HW2  279   0.334   1.163   2.759 -2.7809 -0.0006 -0.5446
   94SOL     OW  280   2.596   0.101   1.991 -0.4563 -0.0782 -0.7568
   94SOL    HW1  281   2.586   0.168   2.069  2.7081  1.5299  1.0734
   94SOL    HW2  282   2.693   0.103   1.963 -0.9811  1.9727  1.3060
   95SOL     OW  283   1.629   0.709   2.152  0.1772 -0.3059 -0.1176
   95SOL    HW1  284   1.542   0.653   2.162  0.3357  0.3419  1.9563
   95SOL    HW2  285   1.632   0.741   2.052 -1.5179  2.4489  0.6090
   96SOL     OW  286   2.931   0.630   1.843  0.3116 -0.2875 -0.5670
   96SOL    HW1  287   2.861   0.585   1.905 -3.0451 -0.1815  0.1475
   96SOL    HW2  288   2.909   0.731   1.837 -1.0000  0.3680 -0.7210
   97SOL     OW  289   2.034   2.899   1.631 -0.0624 -0.0187 -0.7047
   97SOL    HW1  290   2.130   2.868   1.627 -0.8457  1.2329 -0.1827
   97SOL    HW2  291   2.038   2.963   1.709 -1.3242  0.7788  3.7764
   98SOL     OW  292   2.123   2.536   1.772  0.5783  0.3776  0.2139
   98SOL    HW1  293   2.190   2.460   1.791 -1.0091  1.8992  2.3413
   98SOL    HW2  294   2.069   2.569   1.852 -1.3166  0.6622  2.4694
   99SOL     OW  295   2.613   0.618   1.425 -0.4517  0.4444  0.0398
   99SOL    HW1  296   2.566   0.527   1.430  0.2932 -1.4675 -1.7622
   99SOL    HW2  297   2.701   0.614   1.476 -3.2845  0.9577  2.0572
  100SOL     OW  298   2.520   1.752   1.896 -0.7714 -0.2529  0.4376
  100SOL    HW1  299   2.518   1.844   1.938  0.6580  0.1467 -2.2107
  100SOL    HW2  300   2.611   1.705   1.912 -2.6925  1.1916  0.5395
  101SOL     OW  301   2.148   0.010   0.245 -0.7347 -0.0944 -0.0612
  101SOL    HW1  302   2.249   3.087   0.238  1.9737 -0.9098 -1.7669
  101SOL    HW2  303   2.114   0.059   0.164 -2.1830  0.2836  0.9956
  102SOL     OW  304   0.664   0.661   1.127  0.4252  0.6709  0.0237
  102SOL    HW1  305   0.642   0.587   1.193 -1.1794  1.6758  1.2456
  102SOL    HW2  306   0.592   0.657   1.054  1.0985  0.1337 -0.6754
  103SOL     OW  307   2.745   0.022   2.356 -0.3988 -0.0660  0.1031
  103SOL    HW1  308   2.712   3.024   2.357  0.5779  0.7895  2.3786
  103SOL    HW2  309   2.824   0.033   2.293  0.2834  3.0560 -0.4861
  104SOL     OW  310   0.295   2.765   1.491  0.5733 -0.5880  0.1824
  104SOL    HW1  311   0.354   2.854   1.507  1.2586  2.6078  0.9787
  104SOL    HW2  312   0.305   2.683   1.550  0.0772  0.0378 -0.7749
  105SOL     OW  313   1.176   1.496   1.938  0.8263 -0.0930 -0.8841
  105SOL    HW1  314   1.159   1.508   2.035  0.9777  1.9095 -0.3381
  105SOL    HW2  315   1.148   1.402   1.909 -0.0266 -0.0489 -0.0544
  106SOL     OW  316   1.843   0.399   0.697 -0.1856 -0.0626 -0.0150
  106SOL    HW1  317   1.935   0.390   0.753  1.7167  0.3935 -0.1558
  106SOL    HW2  318   1.822   0.497   0.674 -1.3911  0.5778 -1.7898
  107SOL     OW  319   0.689   0.921   1.396  0.3618 -0.1079  0.2331
  107SOL    HW1  320   0.627   0.853   1.439  1.3491  0.3165  1.5776
  107SOL    HW2  321   0.638   0.985   1.330 -0.0183  1.3860 -0.2144
  108SOL     OW  322   3.025   0.609   2.370  0.3132 -0.4168 -0.2450
  108SOL    HW1  323   2.966   0.646   2.295  0.1689  2.1104  0.8136
  108SOL    HW2  324   2.997   0.512   2.400 -0.9515  0.5971  0.2059
  109SOL     OW  325   1.858   2.919   2.622 -0.0994 -0.4155 -0.1270
  109SOL    HW1  326   1.827   2.850   2.688 -0.0321  2.3231  1.8402
  109SOL    HW2  327   1.930   2.977   2.665 -0.4167  1.0530 -2.2063
  110SOL     OW  328   0.102   1.759   2.734 -0.3103 -0.2587 -0.3939
  110SOL    HW1  329   0.006   1.732   2.745  0.3464  0.1711  0.8988
  110SOL    HW2  330   0.131   1.817   2.814 -0.0731 -0.1930  2.1722
  111SOL     OW  331   2.718   0.602   2.277 -0.1395 -0.0814  0.5538
  111SOL    HW1  332   2.644   0.617   2.345  2.9022  0.4404 -0.1290
  111SOL    HW2  333   2.750   0.503   2.287  0.5525  1.4228  0.8712
  112SOL     OW  334   2.776   2.615   1.284  0.5451  0.2906 -0.3804
  112SOL    HW1  335   2.716   2.550   1.336 -2.6100 -2.4769  0.9863
  112SOL    HW2  336   2.863   2.573   1.253  0.3533  0.5634 -1.5338
  113SOL     OW  337   2.240   2.103   2.227 -0.1900  0.4222  0.4874
  113SOL    HW1  338   2.286   2.193   2.245 -1.4344  2.8418  2.6050
  113SOL    HW2  339   2.143   2.103   2.249  0.9967 -1.4470  1.8262
  114SOL     OW  340   3.056   0.328   0.191 -0.0003 -0.2681  0.7878
  114SOL    HW1  341   3.029   0.232   0.174  2.8072  0.5783  1.3226
  114SOL    HW2  342   3.090   0.340   0.285 -1.0343  1.4026  2.0945
  115SOL     OW  343   2.756   1.720   3.026 -0.0332  0.5451  0.5699
  115SOL    HW1  344   2.848   1.678   3.066  0.0559 -2.4372  2.1280
  115SOL    HW2  345   2.775   1.755   2.933 -2.0256 -2.1588 -0.0857
  116SOL     OW  346   2.995   1.330   1.845 -0.2511 -0.1874 -0.0634
  116SOL    HW1  347   3.084   1.342   1.796 -1.9296 -3.9609  3.7015
  116SOL    HW2  348   2.916   1.357   1.786 -1.2914 -2.1043  0.4611
  117SOL     OW  349   2.193   3.065   1.209 -0.3421  0.2303  0.3361
  117SOL    HW1  350   2.095   3.063   1.183 -0.1132  2.2040  0.5460
  117SOL    HW2  351   2.206   3.095   1.307 -1.4774 -2.1949  0.4279
  118SOL     OW  352   2.843   2.396   1.970  0.5639 -0.0295  0.2306
  118SOL    HW1  353   2.829   2.490   1.938  1.0188 -2.3142 -0.9439
  118SOL    HW2  354   2.940   2.372   1.996  0.4837  1.0076  0.8118
  119SOL     OW  355   0.796   1.747   1.310 -0.2676  0.2345  0.3280
  119SOL    HW1  356   0.779   1.843   1.294 -0.4625 -2.1069  0.4229
  119SOL    HW2  357   0.786   1.730   1.410 -2.0684 -1.0781 -2.3630
  120SOL     OW  358   0.122   1.721   1.349 -0.0264 -0.3286  0.5562
  120SOL    HW1  359   0.096   1.735   1.446  2.2809 -4.0200  1.3669
  120SOL    HW2  360   0.076   1.792   1.289  0.8626  0.5228  1.4236
  121SOL     OW  361   1.902   1.416   0.965 -0.2550  0.1272  0.5259
  121SOL    HW1  362   1.834   1.402   0.887 -1.6510 -1.6017 -2.8452
  121SOL    HW2  363   1.944   1.331   0.996 -0.5103 -0.3349 -0.0190
  122SOL     OW  364   1.798   1.970   2.606  0.3554 -0.0178 -0.5593
  122SOL    HW1  365   1.834   1.982   2.511 -2.3806  0.9159 -1.8140
  122SOL    HW2  366   1.870   1.990   2.672 -0.1567  1.9510 -3.2855
  123SOL     OW  367   2.988   0.075   0.149  0.6712  0.0447 -0.5080
  123SOL    HW1  368   3.068   0.016   0.171 -2.0274  3.4507 -0.6291
  123SOL    HW2  369   2.921   0.078   0.232 -0.6454 -0.7393  1.5969
  124SOL     OW  370   1.039   1.208   0.509  0.2011  0.1596  0.3083
  124SOL    HW1  371   0.949   1.178   0.545  3.5008 -0.1320 -0.6504
  124SOL    HW2  372   1.077   1.278   0.566 -2.9079  0.8888  1.1960
  125SOL     OW  373   0.181   1.296   2.047  0.0686 -0.4885 -0.0492
  125SOL    HW1  374   0.196   1.303   1.950  1.3773 -0.5541 -1.8897
  125SOL    HW2  375   0.154   1.392   2.081  1.4377  1.7014  1.2013
  126SOL     OW  376   0.138   2.423   0.037 -0.0359  0.4477 -0.0993
  126SOL    HW1  377   0.196   2.396   0.114 -1.7331 -1.6982 -3.0066
  126SOL    HW2  378   0.112   2.522   0.056 -1.0750  1.0923  1.9928
  127SOL     OW  379   2.901   1.670   0.345  0.2268  0.0121  0.1947
  127SOL    HW1  380   2.905   1.674   0.241 -0.6673 -1.0829 -0.3152
  127SOL    HW2  381   2.809   1.701   0.378 -3.4452 -0.9143  0.4281
  128SOL     OW  382   1.385   0.904   0.817 -0.4607  0.3782  0.4248
  128SOL    HW1  383   1.311   0.975   0.821  1.5696  1.5252  1.5053
  128SOL    HW2  384   1.473   0.937   0.849 -0.2076  1.7833 -0.9943
  129SOL     OW  385   2.378   1.937   0.932 -0.4374 -0.8713 -0.0142
  129SOL    HW1  386   2.281   1.960   0.904 -3.5238  0.4666 -0.1882
  129SOL    HW2  387   2.399   1.960   1.032 -0.3386  1.2908  1.6448
  130SOL     OW  388   2.189   0.961   0.839 -0.4699 -0.2908 -0.1126
  130SOL    HW1  389   2.284   0.983   0.866 -2.4132 -1.5487  2.6808
  130SOL    HW2  390   2.142   1.042   0.810 -0.5561 -1.4909  0.9964
  131SOL     OW  391   2.939   1.224   2.515 -0.1590 -0.1951  0.1375
  131SOL    HW1  392   2.877   1.169   2.573  0.2577  1.1792  1.6065
  131SOL    HW2  393   3.023   1.165   2.486 -0.0978 -1.5826 -1.7129
  132SOL     OW  394   1.492   1.441   2.059 -0.8808  0.0443 -0.1289
  132SOL    HW1  395   1.561   1.445   1.985 -2.0624 -0.8062  2.3468
  132SOL    HW2  396   1.413   1.378   2.041 -1.1192  1.3160 -0.3994
  133SOL     OW  397   0.219   1.073   0.406 -0.2130  0.6520  0.3763
  133SOL    HW1  398   0.118   1.079   0.424 -3.4031  0.1444 -0.1511
  133SOL    HW2  399   0.244   1.129   0.328  2.2917 -0.8662 -2.6395
  134SOL     OW  400   2.769   1.110   0.255  0.5808 -0.2525  0.6012
  134SOL    HW1  401   2.813   1.027   0.220 -0.6867  0.4465 -0.5423
  134SOL    HW2  402   2.676   1.103   0.216  1.8924 -1.0839  3.4090
  135SOL     OW  403   1.627   0.764   0.080 -0.3668  0.0072  0.7223
  135SOL    HW1  404   1.644   0.792   3.084 -3.0502 -2.3816  1.3051
  135SOL    HW2  405   1.555   0.815   0.127  2.0568  0.0708  0.7624
  136SOL     OW  406   1.874   1.944   1.663 -0.3551  0.2566 -0.0705
  136SOL    HW1  407   1.788   1.919   1.715  2.3525  0.6169 -2.5734
  136SOL    HW2  408   1.860   2.025   1.602 -3.6246  0.1002 -1.5015
  137SOL     OW  409   2.601   2.420   0.567  0.0545 -0.8642  0.2454
  137SOL    HW1  410   2.660   2.339   0.552 -0.2289  1.7736  1.7719
  137SOL    HW2  411   2.508   2.405   0.523  0.3600  0.8197  0.8564
  138SOL     OW  412   2.461   0.394   1.465 -0.5344 -0.0873  0.0699
  138SOL    HW1  413   2.424   0.372   1.556  0.4937  2.2897 -0.5681
  138SOL    HW2  414   2.493   0.319   1.412 -1.0376  1.9740 -0.6940
  139SOL     OW  415   2.436   0.321   2.810  0.6274 -0.4916 -0.0515
  139SOL    HW1  416   2.408   0.368   2.901 -0.4038  2.2961  1.6104
  139SOL    HW2  417   2.535   0.288   2.802  0.7737  0.7971  1.3157
  140SOL     OW  418   1.090   1.907   2.245 -0.0139 -0.0297  0.1112
  140SOL    HW1  419   1.133   1.964   2.312 -1.6159 -2.7666  2.2836
  140SOL    HW2  420   1.157   1.876   2.174 -1.0514  0.4260 -0.4732
  141SOL     OW  421   0.880   0.697   2.268 -0.0365 -0.1368 -0.4275
  141SOL    HW1  422   0.898   0.744   2.358 -0.2879 -1.6535 -0.1580
  141SOL    HW2  423   0.909   0.753   2.188  1.0334  1.9781 -1.5803
  142SOL     OW  424   2.670   2.670   2.777 -0.3620 -0.3944  0.1144
  142SOL    HW1  425   2.595   2.737   2.778  2.2426 -0.5301  2.6110
  142SOL    HW2  426   2.645   2.577   2.806 -0.1119 -1.4111  0.6605
  143SOL     OW  427   0.987   1.952   0.419  0.3006  0.2789 -0.1554
  143SOL    HW1  428   1.085   1.959   0.426 -0.7585  3.5603  2.6188
  143SOL    HW2  429   0.943   1.989   0.506 -0.6687  1.8528  2.5595
  144SOL     OW  430   1.194   2.781   0.133  0.4186  0.0650 -0.3672
  144SOL    HW1  431   1.189   2.722   0.056  1.0605  1.1781  3.7089
  144SOL    HW2  432   1.116   2.847   0.129  0.9786 -1.5371  1.4602
  145SOL     OW  433   1.520   1.987   2.554  0.1212  0.1314 -0.2550
  145SOL    HW1  434   1.619   1.983   2.576 -1.0530  0.4065  0.1988
  145SOL    HW2  435   1.518   2.026   2.457 -1.5831  1.5159 -0.8647
  146SOL     OW  436   2.320   0.051   2.939  0.3914  0.0313  0.2920
  146SOL    HW1  437   2.405   3.098   2.959  4.6778  1.5415  2.5815
  146SOL    HW2  438   2.292   0.056   2.839 -2.6905  0.3279 -0.8844
  147SOL     OW  439   2.840   1.049   1.117  0.3340 -0.1243  0.4092
  147SOL    HW1  440   2.775   1.030   1.195  1.1899  0.3867  2.2733
  147SOL    HW2  441   2.850   1.154   1.111  1.4234  1.1739  1.9160
  148SOL     OW  442   2.257   2.840   0.120 -0.1954  0.5245 -0.1010
  148SOL    HW1  443   2.214   2.817   0.208  0.4107  1.3558 -1.8346
  148SOL    HW2  444   2.190   2.883   0.053  2.3132  0.6047  0.4196
  149SOL     OW  445   0.584   1.838   2.815  0.2039  0.0549  0.5624
  149SOL    HW1  446   0.640   1.767   2.771 -2.0884  0.1523  1.6278
  149SOL    HW2  447   0.531   1.903   2.755 -1.4471  2.1643 -1.0960
  150SOL     OW  448   0.502   2.523   0.342 -0.2103 -0.0246 -0.4510
  150SOL    HW1  449   0.588   2.506   0.287  4.9624 -1.8554  0.0713
  150SOL    HW2  450   0.517   2.474   0.433  1.7043 -2.6497  1.2433
  151SOL     OW  451   0.327   1.215   0.196  0.2153 -0.1761 -0.8005
  151SOL    HW1  452   0.344   1.122   0.160  1.2773  4.3409 -0.3152
  151SOL    HW2  453   0.304   1.281   0.121 -1.6446 -0.0911 -0.0095
  152SOL     OW  454   2.839   2.113   0.649 -0.2909 -0.1940  0.0190
  152SOL    HW1  455   2.808   2.184   0.710  1.6246  0.3441 -1.1055
  152SOL    HW2  456   2.768   2.108   0.575  0.2435  0.5645  1.2084
  153SOL     OW  457   1.795   2.192   0.765  0.9365  0.6564 -0.3358
  153SOL    HW1  458   1.804   2.182   0.866  0.7564  0.6611  2.4788
  153SOL    HW2  459   1.727   2.265   0.738 -0.4424  1.9413 -1.6090
  154SOL     OW  460   0.740   2.640   1.325  0.5283  0.8807  0.2697
  154SOL    HW1  461   0.689   2.726   1.310  0.9236 -2.0358  0.5711
  154SOL    HW2  462   0.837   2.637   1.284  0.5499 -1.1747 -1.1208
  155SOL     OW  463   2.750   1.832   0.648  0.0032  0.0191 -0.0542
  155SOL    HW1  464   2.774   1.931   0.645 -1.2170 -0.1860 -0.0536
  155SOL    HW2  465   2.711   1.796   0.560  1.1164 -1.7143 -0.2744
  156SOL     OW  466   2.806   2.277   2.866  0.0469  0.0649 -0.2365
  156SOL    HW1  467   2.784   2.351   2.930  0.7195 -0.5760 -1.5787
  156SOL    HW2  468   2.762   2.192   2.904  1.1455  0.7644 -1.3790
  157SOL     OW  469   0.506   2.317   1.559 -0.1558  0.6200  0.3564
  157SOL    HW1  470   0.455   2.393   1.601  0.9886  0.3817  0.1660
  157SOL    HW2  471   0.447   2.268   1.490 -2.5810 -0.6934 -2.3333
  158SOL     OW  472   1.390   0.343   0.657  0.1193 -0.5162  0.5099
  158SOL    HW1  473   1.311   0.291   0.691  1.0284  1.6749 -1.1478
  158SOL    HW2  474   1.477   0.324   0.708  1.7721 -0.2873  1.1264
  159SOL     OW  475   1.667   0.505   0.162 -1.0303 -0.1318  0.3435
  159SOL    HW1  476   1.681   0.487   0.259 -1.3158  0.4726  1.4832
  159SOL    HW2  477   1.640   0.603   0.142  0.4026  1.6893  0.9203
  160SOL     OW  478   0.618   1.493   0.713 -0.0949  0.7344 -0.0895
  160SOL    HW1  479   0.640   1.476   0.810  0.0443 -0.5920 -0.4982
  160SOL    HW2  480   0.657   1.420   0.653  1.7125  1.1708 -0.7217
  161SOL     OW  481   2.942   2.388   2.641 -0.3496  0.0871  0.1917
  161SOL    HW1  482   2.877   2.370   2.716  0.0387  1.0100  1.1705
  161SOL    HW2  483   3.024   2.326   2.642  0.7244 -2.3307 -0.2280
  162SOL     OW  484   0.123   2.141   1.208 -0.2029 -0.0574  0.1380
  162SOL    HW1  485   0.045   2.198   1.244  0.0171  0.2676  1.5577
  162SOL    HW2  486   0.113   2.114   1.113  1.1596 -1.3909 -2.6831
  163SOL     OW  487   0.257   0.640   2.801 -0.6611  0.1250 -0.0903
  163SOL    HW1  488   0.245   0.739   2.818 -3.5052  2.3455  1.5666
  163SOL    HW2  489   0.170   0.612   2.751 -0.3923  1.0801  0.1618
  164SOL     OW  490   0.276   2.952   2.548  0.5981  0.1523 -0.1540
  164SOL    HW1  491   0.374   2.934   2.561 -1.7308 -1.9714  0.8757
  164SOL    HW2  492   0.237   2.857   2.549 -0.9161 -0.5901  0.3720
  165SOL     OW  493   2.512   1.062   1.665 -0.1353 -0.0125  0.1175
  165SOL    HW1  494   2.489   1.009   1.581 -2.1857 -0.2084  1.5169
  165SOL    HW2  495   2.504   0.997   1.749 -1.3480 -2.6799 -1.8587
  166SOL     OW  496   2.075   2.191   1.404  0.1299  0.3384  0.4214
  166SOL    HW1  497   2.168   2.215   1.435 -0.0128 -0.0372 -0.7036
  166SOL    HW2  498   2.090   2.128   1.327  0.5140  2.7302  1.5411
  167SOL     OW  499   0.761   0.995   2.335 -0.1739 -0.0682 -0.3148
  167SOL    HW1  500   0.789   1.019   2.241 -1.4225  1.3617 -0.5708
  167SOL    HW2  501   0.837   1.001   2.398  0.1107 -1.8432 -0.1537
  168SOL     OW  502   2.101   0.212   2.086 -0.5623  0.0691 -0.4948
  168SOL    HW1  503   2.097   0.140   2.156  1.2446  2.2181 -1.0071
  168SOL    HW2  504   2.196   0.213   2.048  1.5078 -3.3927 -2.7232
  169SOL     OW  505   0.372   0.941   0.109  0.2196 -0.2219 -0.2647
  169SOL    HW1  506   0.462   0.929   0.156  1.3596  0.5756  1.6317
  169SOL    HW2  507   0.321   0.855   0.115  3.4286  2.7153 -0.2045
  170SOL     OW  508   0.575   1.488   1.686 -0.3943 -0.0860  0.1535
  170SOL    HW1  509   0.592   1.420   1.610  1.1156 -1.1863 -2.5546
  170SOL    HW2  510   0.587   1.444   1.778 -1.7103  0.0693 -0.5316
  171SOL     OW  511   1.035   2.473   1.789  0.0696 -0.0261 -0.6692
  171SOL    HW1  512   1.055   2.424   1.700 -1.7283 -1.2100 -1.7330
  171SOL    HW2  513   0.953   2.534   1.777  1.4523  0.5490  1.3825
  172SOL     OW  514   1.293   2.865   1.923  0.3263 -0.0644  0.2107
  172SOL    HW1  515   1.224   2.880   1.999  2.2224  1.2572  0.2100
  172SOL    HW2  516   1.295   2.770   1.902  1.5052  1.8333  1.7407
  173SOL     OW  517   1.548   2.307   0.718 -0.0505  0.0845 -0.4439
  173SOL    HW1  518   1.492   2.230   0.676 -1.2509 -2.4147  1.1476
  173SOL    HW2  519   1.501   2.323   0.807  0.9498 -0.6665  0.8557
  174SOL     OW  520   2.242   2.816   0.388 -0.0324 -0.8572 -0.2414
  174SOL    HW1  521   2.323   2.879   0.382  4.0368  0.7617 -0.4455
  174SOL    HW2  522   2.169   2.869   0.434 -0.3222  1.0587 -0.5457
  175SOL     OW  523   1.119   1.366   0.722  0.0200  0.2904 -0.1163
  175SOL    HW1  524   1.147   1.447   0.661  1.0888 -1.5223 -0.9584
  175SOL    HW2  525   1.079   1.401   0.810  1.2929  0.8053  1.4106
  176SOL     OW  526   0.738   1.733   0.645  0.7870 -0.4323 -0.4738
  176SOL    HW1  527   0.730   1.781   0.554 -1.1660  2.4934  0.1319
  176SOL    HW2  528   0.675   1.654   0.645  1.2597  1.7042  0.9688
  177SOL     OW  529   1.259   1.189   1.186  0.1017 -0.1722 -0.2609
  177SOL    HW1  530   1.318   1.265   1.222  0.9868 -1.0055  0.8053
  177SOL    HW2  531   1.319   1.110   1.154 -0.6678 -0.7147 -3.4791
  178SOL     OW  532   2.485   1.867   0.234  0.5611  0.3601  0.4843
  178SOL    HW1  533   2.435   1.954   0.258  1.0438 -3.4241 -3.1469
  178SOL    HW2  534   2.421   1.799   0.187  1.1422 -0.4829 -2.7395
  179SOL     OW  535   1.238   2.540   3.047 -0.4098  0.1061  0.1798
  179SOL    HW1  536   1.251   2.566   2.950 -1.4735  0.7666  0.5369
  179SOL    HW2  537   1.289   2.453   3.065 -2.5422 -1.3367  1.1765
  180SOL     OW  538   2.121   1.416   1.841 -0.3671 -0.2777  0.0491
  180SOL    HW1  539   2.184   1.343   1.870 -0.6377  0.0853 -2.1549
  180SOL    HW2  540   2.156   1.435   1.751  3.0260  0.6837  0.9325
  181SOL     OW  541   0.936   0.809   2.535  0.3496  0.2814 -0.2418
  181SOL    HW1  542   0.955   0.905   2.564  0.2059 -0.3663  0.1052
  181SOL    HW2  543   0.979   0.745   2.602 -0.1715  0.0041 -0.9988
  182SOL     OW  544   2.926   1.386   2.278 -0.1707 -0.2228 -0.6772
  182SOL    HW1  545   2.920   1.338   2.364 -1.3868 -1.1196 -0.5873
  182SOL    HW2  546   2.905   1.324   2.201 -2.2453 -0.9038 -1.1686
  183SOL     OW  547   1.384   0.541   2.477  0.3771 -0.0982  0.2489
  183SOL    HW1  548   1.361   0.443   2.497 -2.5496  0.7270  0.6249
  183SOL    HW2  549   1.400   0.558   2.377 -1.9196 -0.3811 -1.1456
  184SOL     OW  550   0.454   0.511   1.603  0.2791 -0.5781 -0.0439
  184SOL    HW1  551   0.416   0.455   1.680 -3.0447 -0.5523  1.3182
  184SOL    HW2  552   0.392   0.523   1.526 -0.3146  2.7381 -0.5476
  185SOL     OW  553   2.082   1.706   0.463 -0.6911 -0.2907  0.3920
  185SOL    HW1  554   2.103   1.604   0.458 -0.1643 -1.3437  1.3068
  185SOL    HW2  555   2.161   1.751   0.512  0.5486  0.9579  2.7472
  186SOL     OW  556   0.260   1.825   0.257  0.0975  0.3451  0.1255
  186SOL    HW1  557   0.359   1.817   0.220  1.7931 -1.0959 -1.6986
  186SOL    HW2  558   0.233   1.752   0.324  0.8553 -0.7618 -0.9925
  187SOL     OW  559   2.075   2.449   0.093  0.0384 -0.3085  0.2074
  187SOL    HW1  560   2.032   2.403   0.175  1.6968  1.6497 -0.1864
  187SOL    HW2  561   2.177   2.436   0.097 -1.0731  0.5737  0.5057
  188SOL     OW  562   0.876   2.291   1.016 -0.0478  0.8272 -0.8317
  188SOL    HW1  563   0.835   2.353   1.082  2.7719  0.4739 -0.9655
  188SOL    HW2  564   0.925   2.211   1.070 -1.1236 -0.0525 -0.6493
  189SOL     OW  565   2.173   1.362   2.602  0.8619 -0.8206 -0.1062
  189SOL    HW1  566   2.083   1.400   2.566 -2.0107  1.8212 -1.0136
  189SOL    HW2  567   2.222   1.437   2.653  0.2297 -1.4263  2.1157
  190SOL     OW  568   0.861   2.450   2.193 -0.3118  0.1757 -0.1032
  190SOL    HW1  569   0.803   2.495   2.126  0.0643  1.2963  1.1176
  190SOL    HW2  570   0.806   2.382   2.243 -0.0981  3.9513 -3.0052
  191SOL     OW  571   2.454   0.844   1.472 -0.1384 -0.3522 -0.2894
  191SOL    HW1  572   2.356   0.825   1.444 -1.9954 -1.6119 -0.8634
  191SOL    HW2  573   2.517   0.766   1.447  3.1233 -1.0340 -1.3729
  192SOL     OW  574   2.581   0.682   1.793 -0.3186  0.7699 -0.3469
  192SOL    HW1  575   2.590   0.705   1.693  1.6518 -0.1989  1.2017
  192SOL    HW2  576   2.554   0.766   1.840  0.7634  0.0331 -1.9800
  193SOL     OW  577   0.662   0.378   0.163 -0.0981  0.1189  0.0139
  193SOL    HW1  578   0.602   0.449   0.205 -0.7904 -0.7864 -1.6290
  193SOL    HW2  579   0.749   0.416   0.122 -0.5093 -0.1927 -0.6068
  194SOL     OW  580   1.167   2.412   1.318  0.6974  0.2890  0.1181
  194SOL    HW1  581   1.203   2.333   1.263  0.1964  1.3268  0.5329
  194SOL    HW2  582   1.249   2.476   1.333  2.7202  1.3551  2.1790
  195SOL     OW  583   2.453   0.980   0.446 -0.2653 -0.1894 -0.2332
  195SOL    HW1  584   2.449   0.878   0.441 -0.0364  0.5796  1.4898
  195SOL    HW2  585   2.463   1.020   0.355  0.6325 -0.1616  1.3618
  196SOL     OW  586   0.756   2.260   1.469 -0.4396  0.4248 -0.1077
  196SOL    HW1  587   0.774   2.315   1.385  1.8522 -1.6274  0.9273
  196SOL    HW2  588   0.659   2.282   1.495 -2.6636  1.4412 -3.9882
  197SOL     OW  589   0.397   0.809   2.378 -0.0982  0.1299  0.2696
  197SOL    HW1  590   0.372   0.900   2.340  0.9057 -0.0878 -1.9558
  197SOL    HW2  591   0.318   0.749   2.403 -0.8691 -1.4629  0.1633
  198SOL     OW  592   1.709   0.819   0.446 -0.0684 -0.4947 -0.4850
  198SOL    HW1  593   1.639   0.862   0.508  2.5654  0.3250  0.2586
  198SOL    HW2  594   1.676   0.754   0.380  3.2931  0.1215  0.1913
  199SOL     OW  595   2.738   0.542   1.991  0.3327 -0.1300  0.3912
  199SOL    HW1  596   2.699   0.548   2.087 -0.7810 -2.0110  1.5744
  199SOL    HW2  597   2.670   0.578   1.923 -0.0463  1.9573 -1.9980
  200SOL     OW  598   2.289   0.120   2.688  0.6340 -0.2604  0.2784
  200SOL    HW1  599   2.334   0.203   2.732 -3.2602 -1.2758  0.2556
  200SOL    HW2  600   2.271   0.132   2.585  0.1722 -2.6096 -0.7879
  201SOL     OW  601   2.552   0.190   1.322  0.5479  0.0927  0.8744
  201SOL    HW1  602   2.564   0.124   1.402  0.1172  0.7352 -1.5824
  201SOL    HW2  603   2.490   0.147   1.250 -1.4959  2.5668 -2.0995
  202SOL     OW  604   3.075   2.620   0.128 -0.1088 -0.4776  0.0372
  202SOL    HW1  605   3.023   2.641   0.216 -0.3625 -0.0917 -2.0007
  202SOL    HW2  606   3.020   2.579   0.054  2.7115 -0.6620 -0.5312
  203SOL     OW  607   1.078   1.804   2.873 -0.5049 -0.2876 -0.0960
  203SOL    HW1  608   1.106   1.714   2.917 -1.4875  1.1577 -0.3423
  203SOL    HW2  609   1.102   1.798   2.774  1.4382  0.6508  1.1668
  204SOL     OW  610   0.508   1.969   2.601  0.2991 -0.5277 -0.1170
  204SOL    HW1  611   0.450   1.995   2.521 -0.4656  0.3311  2.1718
  204SOL    HW2  612   0.554   2.056   2.635  1.6782  1.5436  0.8682
  205SOL     OW  613   1.131   0.827   1.123 -0.2401  0.3932  0.3822
  205SOL    HW1  614   1.075   0.814   1.203  0.1965  1.8375 -1.5290
  205SOL    HW2  615   1.230   0.852   1.140  0.3971 -0.8979  1.0460
  206SOL     OW  616   0.182   0.906   2.823  0.7749 -0.3509 -0.4573
  206SOL    HW1  617   0.254   0.971   2.846 -0.9556 -2.2817 -0.5374
  206SOL    HW2  618   0.113   0.941   2.753 -1.2356  1.9104 -2.7954
  207SOL     OW  619   1.640   2.380   1.808  0.6713 -0.1102  0.6612
  207SOL    HW1  620   1.716   2.424   1.859  0.7480 -1.4568 -0.6269
  207SOL    HW2  621   1.551   2.406   1.849 -0.7478  1.3312  3.1160
  208SOL     OW  622   0.389   2.984   1.081 -0.2754  0.6722  0.4475
  208SOL    HW1  623   0.306   2.941   1.112  2.0931  0.4504 -0.7293
  208SOL    HW2  624   0.417   2.959   0.984  1.5969 -0.9886 -2.3067
  209SOL     OW  625   1.764   1.186   0.582 -0.7843  0.1812 -0.3008
  209SOL    HW1  626   1.824   1.103   0.593  2.7251 -2.5051  1.7253
  209SOL    HW2  627   1.709   1.180   0.496 -3.0477 -2.7856 -0.2258
  210SOL     OW  628   2.505   0.480   0.837  0.4465 -0.4695  0.0276
  210SOL    HW1  629   2.417   0.485   0.781 -1.8023  3.2443  0.3928
  210SOL    HW2  630   2.585   0.426   0.804 -0.8617  1.8023 -1.2434
  211SOL     OW  631   1.293   2.742   0.387  0.0024  0.3804 -0.5995
  211SOL    HW1  632   1.225   2.736   0.313  1.5167  0.9005  0.6666
  211SOL    HW2  633   1.304   2.839   0.422  2.1528  1.5565 -0.1343
  212SOL     OW  634   1.960   2.261   0.564  0.0286  0.1250  0.0016
  212SOL    HW1  635   2.028   2.282   0.635  1.6189 -2.1666 -0.7997
  212SOL    HW2  636   1.880   2.212   0.604  0.9499 -0.1938  0.8086
  213SOL     OW  637   1.951   0.740   2.719  0.0208  0.1729  0.3049
  213SOL    HW1  638   2.044   0.699   2.697  0.2491  2.1753 -1.8710
  213SOL    HW2  639   1.879   0.666   2.734 -1.4141  0.2523  0.2328
  214SOL     OW  640   0.938   1.611   1.843 -0.3715  0.1796 -0.3449
  214SOL    HW1  641   1.029   1.573   1.874  1.4935 -1.0614  2.1399
  214SOL    HW2  642   0.942   1.625   1.746  2.2662 -1.4558  2.4909
  215SOL     OW  643   0.079   1.221   0.969  0.3382  0.1423  0.1772
  215SOL    HW1  644   0.030   1.159   1.032  1.3514 -1.7204  0.8689
  215SOL    HW2  645   0.124   1.292   1.025 -0.7687  3.7612 -1.5226
  216SOL     OW  646   0.347   2.214   2.565 -0.2057 -0.3362 -0.0261
  216SOL    HW1  647   0.366   2.313   2.545  2.3413  0.3362 -0.1466
  216SOL    HW2  648   0.382   2.194   2.659  0.9076 -0.7366  1.4718
  217SOL     OW  649   2.647   1.046   1.339  0.0001  0.2236  0.0941
  217SOL    HW1  650   2.559   1.003   1.322  4.5456  2.0642  0.9186
  217SOL    HW2  651   2.645   1.138   1.285 -0.8126 -1.4329 -2.3450
  218SOL     OW  652   0.769   2.233   1.924  0.3796 -0.6602 -0.8183
  218SOL    HW1  653   0.705   2.195   1.856  0.3101  1.7230  1.7562
  218SOL    HW2  654   0.843   2.167   1.943  0.0314 -0.8907 -0.7830
  219SOL     OW  655   2.150   1.299   0.233  0.5045  0.3000 -0.2891
  219SOL    HW1  656   2.179   1.318   0.140  0.8316  0.3879  1.3570
  219SOL    HW2  657   2.177   1.374   0.297 -0.3403 -3.4645 -0.3895
  220SOL     OW  658   2.203   0.762   0.621 -0.5150 -0.0805 -0.3551
  220SOL    HW1  659   2.198   0.820   0.706 -2.2468  0.9980  1.1865
  220SOL    HW2  660   2.186   0.822   0.539  0.6896 -0.7596 -0.1660
  221SOL     OW  661   2.811   0.695   0.286  0.0301  0.2054  0.0699
  221SOL    HW1  662   2.818   0.781   0.226 -2.8679 -2.3418 -0.6778
  221SOL    HW2  663   2.830   0.613   0.232  0.2936 -0.6367  1.0105
  222SOL     OW  664   1.706   1.351   0.789  0.7197  0.0643 -0.0832
  222SOL    HW1  665   1.719   1.280   0.719 -1.5381  2.7825 -0.2498
  222SOL    HW2  666   1.609   1.353   0.829 -1.6351 -0.7452  1.3031
  223SOL     OW  667   0.823   0.147   2.827  0.2316  0.2544  0.0712
  223SOL    HW1  668   0.730   0.167   2.864 -0.4119 -2.6035  1.0604
  223SOL    HW2  669   0.835   0.158   2.724  1.7051 -0.5434 -0.6173
  224SOL     OW  670   1.273   3.009   1.221  0.0596 -0.4179  0.6247
  224SOL    HW1  671   1.328   3.064   1.290 -2.8059  1.0882 -0.0574
  224SOL    HW2  672   1.190   2.985   1.273  1.0114  1.6918 -0.1558
  225SOL     OW  673   0.324   2.496   1.940 -0.2357 -0.2400 -0.3703
  225SOL    HW1  674   0.360   2.559   2.012  2.5148  0.0526  0.2154
  225SOL    HW2  675   0.317   2.403   1.986  0.0004 -0.1862  0.3285
  226SOL     OW  676   1.376   1.351   0.520  0.8043  0.2134 -0.1788
  226SOL    HW1  677   1.399   1.299   0.602  2.8690 -0.1027  0.6851
  226SOL    HW2  678   1.304   1.421   0.536  0.6342 -1.6021 -1.2615
  227SOL     OW  679   0.329   1.549   0.919 -0.0783  0.1618  0.6277
  227SOL    HW1  680   0.384   1.610   0.859 -0.3394  1.3460  0.4726
  227SOL    HW2  681   0.345   1.453   0.897  1.2891 -1.1212 -0.2721
  228SOL     OW  682   2.999   1.442   0.750  0.0518  0.0999 -0.1634
  228SOL    HW1  683   2.959   1.350   0.767  0.5225 -0.0283 -0.0702
  228SOL    HW2  684   2.996   1.466   0.649  1.9876  0.0053  0.3732
  229SOL     OW  685   2.363   0.486   3.050 -0.3695 -0.1979 -0.1783
  229SOL    HW1  686   2.284   0.488   0.008 -0.4323  0.9157 -1.4066
  229SOL    HW2  687   2.430   0.417   3.082  0.5714  2.4677  1.1464
  230SOL     OW  688   2.038   1.176   1.013  0.1741 -0.3824  0.3579
  230SOL    HW1  689   2.116   1.243   1.010  0.7516  2.0382 -1.4401
  230SOL    HW2  690   2.040   1.129   1.100 -1.3295  0.6511 -1.8552
  231SOL     OW  691   1.503   1.280   2.966  0.2423  0.8230  0.2380
  231SOL    HW1  692   1.531   1.252   2.872  3.7237 -1.9112  1.2018
  231SOL    HW2  693   1.586   1.297   3.024  1.5517  0.1021 -0.8898
  232SOL     OW  694   2.438   2.240   0.743 -0.2499 -0.0130 -0.3016
  232SOL    HW1  695   2.500   2.310   0.712  2.8350  0.0506  1.4598
  232SOL    HW2  696   2.446   2.229   0.845  0.8233  0.7761  0.9383
  233SOL     OW  697   0.634   2.537   0.820  1.0681  0.1018  0.0439
  233SOL    HW1  698   0.592   2.582   0.900 -0.4135 -1.2247 -1.5423
  233SOL    HW2  699   0.702   2.596   0.771  2.0064 -0.9121 -1.2509
  234SOL     OW  700   0.560   0.497   2.548 -0.1967  0.4265 -0.4648
  234SOL    HW1  701   0.593   0.592   2.547 -3.0723  0.4019  0.4029
  234SOL    HW2  702   0.516   0.464   2.637 -0.7020 -1.6148  1.7261
  235SOL     OW  703   2.847   0.837   2.214 -0.1724 -0.7081 -0.2136
  235SOL    HW1  704   2.782   0.753   2.207  2.6432 -2.4903  1.9687
  235SOL    HW2  705   2.876   0.863   2.309 -0.5997 -0.6748 -0.4857
  236SOL     OW  706   1.492   2.925   1.531 -0.4265 -0.1096 -0.1556
  236SOL    HW1  707   1.487   2.884   1.435 -1.6079  0.7948 -0.6346
  236SOL    HW2  708   1.481   2.845   1.598 -0.8217  0.7104  3.3074
  237SOL     OW  709   1.014   1.412   2.441 -0.0274  0.2609  0.0065
  237SOL    HW1  710   0.923   1.372   2.444 -0.2884 -2.1297 -2.0784
  237SOL    HW2  711   1.044   1.454   2.528 -1.9540  0.5599 -2.6322
  238SOL     OW  712   1.057   0.427   2.393 -0.2887  0.1204  0.6176
  238SOL    HW1  713   1.101   0.511   2.424 -1.3887 -1.5022 -0.4391
  238SOL    HW2  714   0.956   0.437   2.392 -1.4112  1.3093 -0.9048
  239SOL     OW  715   0.286   2.243   2.034  0.2866 -0.4701 -0.0884
  239SOL    HW1  716   0.374   2.218   2.079 -0.0080 -0.7323 -0.7972
  239SOL    HW2  717   0.264   2.176   1.955 -0.3867 -1.9841 -2.7470
  240SOL     OW  718   2.658   2.767   0.520 -0.5611  0.1453 -0.1151
  240SOL    HW1  719   2.718   2.731   0.595 -1.0796  0.9660  0.2090
  240SOL    HW2  720   2.560   2.746   0.541  1.6795  2.2529  1.7977
  241SOL     OW  721   2.802   1.170   0.521  0.3046  0.3163  0.1545
  241SOL    HW1  722   2.741   1.229   0.572 -0.3476 -1.7239  0.0762
  241SOL    HW2  723   2.762   1.123   0.439 -0.1530  0.7652 -1.4821
  242SOL     OW  724   1.812   2.496   1.991 -0.1313 -0.0764  0.4769
  242SOL    HW1  725   1.888   2.425   1.996 -0.3954 -0.6159 -0.7932
  242SOL    HW2  726   1.845   2.589   1.993  0.1524 -1.5584  0.2129
  243SOL     OW  727   0.462   2.683   2.090 -0.0486 -0.5340  0.1103
  243SOL    HW1  728   0.465   2.774   2.139 -1.8724  0.5000  1.0928
  243SOL    HW2  729   0.552   2.630   2.083 -0.6333 -0.7918 -4.0462
  244SOL     OW  730   2.548   0.552   2.491  0.6572  0.3162 -0.2526
  244SOL    HW1  731   2.607   0.505   2.556 -2.2883 -1.1443  1.6352
  244SOL    HW2  732   2.478   0.488   2.453  1.2002 -2.8805 -3.2451
  245SOL     OW  733   1.315   0.092   1.016 -0.1388 -0.1104  0.1044
  245SOL    HW1  734   1.304   0.182   1.061 -1.6306  2.9176  0.9446
  245SOL    HW2  735   1.300   0.018   1.078 -2.8472 -2.0590 -2.8775
  246SOL     OW  736   1.624   2.635   0.104 -0.3163  0.2318 -0.0321
  246SOL    HW1  737   1.718   2.674   0.099 -5.0523  0.3390  0.5351
  246SOL    HW2  738   1.555   2.706   0.104  3.5343 -0.7303 -0.3367
  247SOL     OW  739   1.247   0.857   2.250 -0.3687 -0.3952  0.5106
  247SOL    HW1  740   1.157   0.889   2.202  1.9452  0.3173 -0.5473
  247SOL    HW2  741   1.232   0.852   2.348  0.9109 -1.4275  1.4369
  248SOL     OW  742   0.148   2.308   1.554  0.0502  1.0435  0.3276
  248SOL    HW1  743   0.165   2.204   1.546 -0.9162 -2.3254  0.6731
  248SOL    HW2  744   0.053   2.310   1.585  0.5728 -0.0954 -1.5133
  249SOL     OW  745   2.839   0.490   0.129  0.0966  0.9260  0.2341
  249SOL    HW1  746   2.922   0.441   0.152 -1.0863  0.3045  0.2338
  249SOL    HW2  747   2.760   0.425   0.115 -1.3791 -2.0451 -0.2562
  250SOL     OW  748   2.674   0.005   2.639  0.1011 -0.3309 -0.1942
  250SOL    HW1  749   2.705   0.006   2.544  1.2926 -0.2878  0.9176
  250SOL    HW2  750   2.701   3.015   2.681 -1.3710 -2.9763  1.8477
  251SOL     OW  751   1.329   0.598   0.141 -0.1786  0.3257  0.3378
  251SOL    HW1  752   1.342   0.531   0.215  0.0220  1.9547  0.7866
  251SOL    HW2  753   1.362   0.689   0.161 -2.3361  0.7467 -0.3220
  252SOL     OW  754   1.447   2.396   2.013 -0.3889 -0.2713  0.4059
  252SOL    HW1  755   1.364   2.355   2.051  1.1083  1.0834  1.3965
  252SOL    HW2  756   1.509   2.425   2.084 -2.0250  0.6677 -2.1433
  253SOL     OW  757   2.296   2.473   1.301 -0.4501  0.1227 -0.4611
  253SOL    HW1  758   2.353   2.550   1.281  1.6296  0.7543 -1.4116
  253SOL    HW2  759   2.233   2.453   1.225  0.1500  0.6766 -0.1686
  254SOL     OW  760   2.348   1.219   0.566 -0.0723 -0.3150  0.1387
  254SOL    HW1  761   2.373   1.126   0.542  0.1734  2.8612  0.6833
  254SOL    HW2  762   2.278   1.223   0.636 -0.3493 -0.4924 -0.0249
  255SOL     OW  763   1.050   2.881   1.390  0.3097  0.3463  0.5388
  255SOL    HW1  764   1.008   2.805   1.338 -1.3314 -0.9645 -4.7164
  255SOL    HW2  765   1.122   2.848   1.448  0.9732  0.4605 -2.9975
  256SOL     OW  766   1.847   2.198   1.564 -0.5715  0.3142 -0.4703
  256SOL    HW1  767   1.941   2.203   1.520  1.7562  0.0971 -2.0788
  256SOL    HW2  768   1.768   2.181   1.498 -1.8244 -0.3728 -1.0994
  257SOL     OW  769   0.681   2.536   2.530  0.6941 -0.1393  0.4126
  257SOL    HW1  770   0.705   2.611   2.463 -0.7014 -2.6278  0.9680
  257SOL    HW2  771   0.718   2.545   2.622 -0.7386 -1.9270 -1.6898
  258SOL     OW  772   0.783   2.535   0.427  0.4557  0.6170  0.2732
  258SOL    HW1  773   0.832   2.603   0.373 -3.2002 -1.3407 -1.2986
  258SOL    HW2  774   0.747   2.576   0.516  0.7372  2.8533  1.7604
  259SOL     OW  775   1.526   0.310   2.879  0.0473 -0.0141 -0.1583
  259SOL    HW1  776   1.494   0.236   2.939 -0.4485  2.6448 -2.6805
  259SOL    HW2  777   1.495   0.402   2.918 -0.5513 -0.2618  1.1208
  260SOL     OW  778   2.689   0.634   1.147 -0.3954 -0.0682 -0.0795
  260SOL    HW1  779   2.771   0.579   1.127 -5.2328 -0.7719  0.5879
  260SOL    HW2  780   2.668   0.633   1.249 -3.4831 -3.3176  2.0377
  261SOL     OW  781   0.782   0.395   2.402 -0.0937 -0.3251 -0.2248
  261SOL    HW1  782   0.711   0.427   2.468  0.3194 -0.4818  0.4796
  261SOL    HW2  783   0.749   0.317   2.341 -2.4883  0.5956  2.9715
  262SOL     OW  784   1.069   2.360   2.027  0.0445  0.0537 -0.2779
  262SOL    HW1  785   0.985   2.392   2.079 -1.3868 -1.8556 -0.0282
  262SOL    HW2  786   1.062   2.381   1.930  0.1377 -1.3397  0.4485
  263SOL     OW  787   0.414   1.922   3.027 -0.7301  0.1294  0.4438
  263SOL    HW1  788   0.454   1.987   3.098  3.1395  0.3210  0.5413
  263SOL    HW2  789   0.485   1.910   2.956  0.5236 -0.3591  0.3096
  264SOL     OW  790   0.991   1.529   1.010  0.3189  0.0159  0.4081
  264SOL    HW1  791   0.961   1.605   0.946  0.5057 -0.0174 -0.3298
  264SOL    HW2  792   1.041   1.583   1.085  0.7652  2.2310  0.6043
  265SOL     OW  793   1.145   2.292   0.568 -0.0814  0.6584 -0.3909
  265SOL    HW1  794   1.239   2.272   0.602 -3.6597 -1.5061 -0.3310
  265SOL    HW2  795   1.155   2.359   0.489  2.0409 -0.3365 -2.3354
  266SOL     OW  796   2.046   0.437   0.875 -0.1746 -0.2305  0.2544
  266SOL    HW1  797   2.098   0.401   0.956  0.0836  1.7310  0.4270
  266SOL    HW2  798   2.045   0.542   0.883  0.7530  1.9855 -0.2229
  267SOL     OW  799   3.071   1.430   2.654  0.2679  0.2024 -0.1143
  267SOL    HW1  800   3.088   1.407   2.757  0.5329 -0.5965  1.5023
  267SOL    HW2  801   3.013   1.352   2.611 -3.5746  1.1163  2.2667
  268SOL     OW  802   1.580   2.908   0.380  0.8752 -0.2936 -0.0403
  268SOL    HW1  803   1.684   2.895   0.379  1.2158 -0.4801  1.0763
  268SOL    HW2  804   1.558   2.997   0.424 -0.7604  1.9462 -0.9113
  269SOL     OW  805   2.909   0.799   2.569 -0.1118 -0.1359  0.6051
  269SOL    HW1  806   2.902   0.724   2.503  3.5419  0.6131  2.2299
  269SOL    HW2  807   3.005   0.829   2.575 -2.3014 -1.4956  3.0793
  270SOL     OW  808   3.092   1.404   0.094 -0.5894 -0.0048 -0.2470
  270SOL    HW1  809   3.048   1.342   0.161  2.1189  2.8506 -1.5508
  270SOL    HW2  810   0.089   1.381   0.079  2.1252 -1.2118  1.0475
  271SOL     OW  811   2.663   1.475   2.648 -0.2433  0.3495 -0.8845
  271SOL    HW1  812   2.585   1.536   2.644  4.1545 -1.8329  1.7266
  271SOL    HW2  813   2.637   1.393   2.594  2.3529  1.2791  1.2258
  272SOL     OW  814   2.566   2.557   2.143 -0.0079 -0.3768 -0.0408
  272SOL    HW1  815   2.499   2.547   2.219 -1.0302  0.3379 -0.4859
  272SOL    HW2  816   2.541   2.640   2.085 -1.0234  1.4517 -1.3542
  273SOL     OW  817   0.449   2.785   0.215  0.1949  0.3765 -0.3286
  273SOL    HW1  818   0.448   2.757   0.316  0.8839 -1.3499 -0.3483
  273SOL    HW2  819   0.358   2.819   0.189  1.2411  2.5413  3.9764
  274SOL     OW  820   1.013   2.401   0.787 -0.4328 -0.4715  0.0809
  274SOL    HW1  821   1.063   2.324   0.749 -0.3865  0.1402  0.2164
  274SOL    HW2  822   0.966   2.371   0.872  1.6946  2.2960 -0.4817
  275SOL     OW  823   2.319   1.653   0.137  0.1068 -0.3895 -0.0562
  275SOL    HW1  824   2.219   1.676   0.158 -0.7514 -1.2698  1.0838
  275SOL    HW2  825   2.322   1.626   0.039  0.5984  0.5783  1.9695
  276SOL     OW  826   2.530   1.696   1.234 -0.7780  0.2451  0.3442
  276SOL    HW1  827   2.533   1.634   1.316  2.9909  0.2117  0.8524
  276SOL    HW2  828   2.618   1.677   1.174 -0.7341 -1.6707 -0.2879
  277SOL     OW  829   2.521   2.993   0.854 -0.4156 -0.0187  0.1377
  277SOL    HW1  830   2.447   2.937   0.803 -1.1139 -2.3641  0.3075
  277SOL    HW2  831   2.546   2.941   0.937  0.1558  0.0356 -2.2429
  278SOL     OW  832   1.724   0.319   2.419 -0.2277 -0.2291 -0.0153
  278SOL    HW1  833   1.691   0.404   2.461 -1.1397  3.6772 -0.3898
  278SOL    HW2  834   1.771   0.257   2.487  1.4323 -2.9449  1.2974
  279SOL     OW  835   1.458   2.795   1.282  0.4175 -0.3002 -0.6621
  279SOL    HW1  836   1.552   2.749   1.259  1.0727 -0.0996  1.2607
  279SOL    HW2  837   1.414   2.847   1.202 -1.7607  4.9010 -1.4103
  280SOL     OW  838   1.190   0.964   0.483  0.2144 -0.0965 -0.1700
  280SOL    HW1  839   1.163   1.064   0.485  2.8154  3.5870 -0.5350
  280SOL    HW2  840   1.290   0.944   0.499 -0.9074 -1.3133  0.4746
  281SOL     OW  841   2.283   1.588   2.720 -0.2613 -0.2676 -0.3971
  281SOL    HW1  842   2.367   1.626   2.678 -2.0261  0.5837 -0.6859
  281SOL    HW2  843   2.220   1.662   2.754 -1.9063 -2.9828  0.4871
  282SOL     OW  844   3.055   1.350   2.934  0.6816 -1.0015  0.7238
  282SOL    HW1  845   3.094   1.259   2.945  1.4395  0.4419  1.7820
  282SOL    HW2  846   3.045   1.385   3.028 -0.0608 -0.7976 -1.5648
  283SOL     OW  847   1.691   2.675   2.710 -0.3241 -0.1810 -0.4449
  283SOL    HW1  848   1.696   2.641   2.618 -1.9364 -2.6980  6.8337
  283SOL    HW2  849   1.631   2.612   2.765  1.4845  0.5031 -1.3857
  284SOL     OW  850   0.561   0.155   2.895 -0.4124 -0.1280  0.2011
  284SOL    HW1  851   0.534   0.220   2.968  1.0390 -0.5335 -0.4197
  284SOL    HW2  852   0.496   0.151   2.815 -0.1764  1.7912 -1.1990
  285SOL     OW  853   2.031   1.826   2.543  1.0689  0.2935  0.0344
  285SOL    HW1  854   2.104   1.891   2.520 -0.3406  0.2084  1.4020
  285SOL    HW2  855   1.938   1.850   2.510 -5.0879  0.2314 -1.3125
  286SOL     OW  856   1.286   1.962   0.807  0.0437  0.1612 -0.4762
  286SOL    HW1  857   1.191   1.934   0.830  2.7287 -1.3650  2.5062
  286SOL    HW2  858   1.336   1.997   0.884 -1.2471 -1.0637 -2.2974
  287SOL     OW  859   1.648   0.301   1.327  0.3741 -0.1773  0.0824
  287SOL    HW1  860   1.658   0.279   1.424 -1.7078 -1.0965 -0.8483
  287SOL    HW2  861   1.728   0.359   1.304  0.0205  1.5707 -0.7317
  288SOL     OW  862   0.731   2.771   2.398  0.4542  0.0897  0.1447
  288SOL    HW1  863   0.809   2.811   2.453 -0.0388  0.4084  1.1666
  288SOL    HW2  864   0.715   2.814   2.304 -0.0950 -0.7819 -1.9789
  289SOL     OW  865   0.108   1.028   0.737 -0.6232  0.0049 -0.1958
  289SOL    HW1  866   0.112   1.082   0.822 -2.0495 -1.7081 -1.1395
  289SOL    HW2  867   0.061   0.938   0.751  2.7490 -2.2168 -1.4774
  290SOL     OW  868   1.264   2.166   1.183  0.7102 -0.0875 -0.5006
  290SOL    HW1  869   1.326   2.121   1.115  0.7811  2.2556  1.2717
  290SOL    HW2  870   1.161   2.149   1.166 -1.1499  0.5060  0.1037
  291SOL     OW  871   1.895   2.619   0.674  0.3305  0.0597  0.3200
  291SOL    HW1  872   1.892   2.716   0.702  0.6886  0.1348  0.6351
  291SOL    HW2  873   1.800   2.582   0.667 -1.5750  1.8310 -1.7989
  292SOL     OW  874   0.493   0.128   1.785 -0.6229  0.4407 -0.4199
  292SOL    HW1  875   0.424   0.055   1.800  0.8579  2.7555 -1.1042
  292SOL    HW2  876   0.585   0.094   1.797 -2.8260 -1.0631 -0.5821
  293SOL     OW  877   2.284   1.789   0.652 -0.6629  0.5431  0.5179
  293SOL    HW1  878   2.340   1.728   0.708  1.1510  0.6346 -0.7454
  293SOL    HW2  879   2.337   1.875   0.643  2.3715  0.5861  1.0112
  294SOL     OW  880   0.997   0.120   2.090  0.3731 -0.3441  0.1619
  294SOL    HW1  881   1.044   0.180   2.152 -1.4280  0.4696 -0.3580
  294SOL    HW2  882   1.013   0.024   2.122 -0.8073  0.8503 -2.1927
  295SOL     OW  883   0.836   1.118   0.708 -0.2597  0.7491 -0.0792
  295SOL    HW1  884   0.743   1.088   0.736  0.7441  2.4500 -0.6561
  295SOL    HW2  885   0.905   1.098   0.781  1.6724 -1.6323  0.2925
  296SOL     OW  886   2.118   2.062   0.915 -0.2076 -0.1875  0.3883
  296SOL    HW1  887   2.090   1.980   0.858 -2.7618 -1.2494  1.3256
  296SOL    HW2  888   2.132   2.151   0.867  0.6591 -0.8162  1.4250
  297SOL     OW  889   1.741   0.149   2.815  0.1899 -0.5596  0.1446
  297SOL    HW1  890   1.654   0.208   2.813 -0.7373  2.5909 -0.5901
  297SOL    HW2  891   1.818   0.201   2.859  1.8580  1.9016 -0.8175
  298SOL     OW  892   1.230   0.079   2.558  0.1844 -1.0200 -0.0157
  298SOL    HW1  893   1.281   3.094   2.541 -1.2941  0.2627  1.4188
  298SOL    HW2  894   1.185   0.063   2.650 -0.9067  0.4326 -3.0993
  299SOL     OW  895   1.129   2.979   2.129  1.0686 -0.0528  0.3455
  299SOL    HW1  896   1.197   3.058   2.135  1.2096 -0.6768  1.5132
  299SOL    HW2  897   1.108   2.946   2.225 -0.3438  1.5175 -0.5069
  300SOL     OW  898   2.503   0.192   1.699  0.0993 -0.1588 -0.5085
  300SOL    HW1  899   2.589   0.245   1.701  2.0337  0.3384 -1.5376
  300SOL    HW2  900   2.431   0.243   1.747  2.5682 -0.0373 -0.9588
  301SOL     OW  901   2.364   0.460   1.726  0.1137  0.3119  0.1583
  301SOL    HW1  902   2.300   0.443   1.805 -1.8894  0.4598  1.7144
  301SOL    HW2  903   2.429   0.544   1.732  1.2317 -0.4193  0.9396
  302SOL     OW  904   0.787   2.571   3.046  0.4962 -0.1112  0.4821
  302SOL    HW1  905   0.830   2.488   3.086 -0.2418 -0.5097 -0.0778
  302SOL    HW2  906   0.683   2.559   3.040  0.0671 -3.3104  0.3463
  303SOL     OW  907   1.660   2.141   1.384  0.0030  0.6576 -0.1489
  303SOL    HW1  908   1.565   2.170   1.388 -1.3714 -1.7709 -0.6662
  303SOL    HW2  909   1.677   2.084   1.301 -1.2468 -0.5828 -0.3150
  304SOL     OW  910   0.306   0.791   0.896  0.0543  0.3568  0.4019
  304SOL    HW1  911   0.303   0.832   0.988  0.6260 -2.1199 -1.2085
  304SOL    HW2  912   0.220   0.735   0.880  1.2210  0.1870 -1.2082
  305SOL     OW  913   1.155   0.672   0.909  0.1644  0.1018  0.2944
  305SOL    HW1  914   1.151   0.733   0.993 -1.6725 -0.9237  2.2121
  305SOL    HW2  915   1.203   0.715   0.829 -0.1516 -0.3790  1.5246
  306SOL     OW  916   0.533   1.013   2.969  0.3267 -0.0741  0.3623
  306SOL    HW1  917   0.593   0.971   2.895 -1.5092  1.2793 -1.2042
  306SOL    HW2  918   0.513   0.955   3.055  0.6478 -1.8312 -1.3774
  307SOL     OW  919   0.902   0.271   1.628 -0.2684 -0.3502  0.2696
  307SOL    HW1  920   0.944   0.361   1.640 -0.5097 -2.5969 -0.2889
  307SOL    HW2  921   0.874   0.231   1.716  0.5382 -0.2889 -0.4369
  308SOL     OW  922   0.878   0.578   0.997  0.4733  0.0492  0.3961
  308SOL    HW1  923   0.794   0.626   1.040 -1.1771  0.9451 -0.8593
  308SOL    HW2  924   0.967   0.633   0.996  0.3378  1.4641  0.7509
  309SOL     OW  925   2.429   0.713   0.464 -0.5029 -0.4398 -0.5333
  309SOL    HW1  926   2.361   0.739   0.530  1.7653 -0.7251 -2.9101
  309SOL    HW2  927   2.517   0.675   0.506  1.1593 -0.4596 -1.0275
  310SOL     OW  928   1.208   1.263   0.049  0.0594  0.1142  0.2762
  310SOL    HW1  929   1.221   1.355   0.088 -1.4044 -1.6372 -1.2167
  310SOL    HW2  930   1.163   1.266   3.059 -0.2740  0.1991 -0.7584
  311SOL     OW  931   2.198   2.563   2.172  0.1583 -0.2705 -0.6009
  311SOL    HW1  932   2.197   2.570   2.073  1.4721  0.7794 -0.4596
  311SOL    HW2  933   2.134   2.636   2.209  1.6654  1.1310  0.3371
  312SOL     OW  934   2.144   2.476   2.926 -0.5501  0.1404  0.0021
  312SOL    HW1  935   2.202   2.391   2.922 -0.6239 -0.7110  1.2860
  312SOL    HW2  936   2.104   2.484   3.022 -1.8293  0.8992  1.1441
  313SOL     OW  937   0.327   0.187   0.164  0.0566 -0.6053  0.1126
  313SOL    HW1  938   0.308   0.281   0.202 -2.2577 -0.3910  0.3682
  313SOL    HW2  939   0.321   0.192   0.067  0.7682 -0.6718 -0.4529
  314SOL     OW  940   2.357   1.561   2.975  0.1124 -0.3220 -0.5670
  314SOL    HW1  941   2.451   1.526   2.986 -0.4994 -0.3428  0.9574
  314SOL    HW2  942   2.331   1.564   2.879  3.0923  0.8540  4.6709
  315SOL     OW  943   1.863   0.518   2.190  0.0156 -0.1604 -0.6165
  315SOL    HW1  944   1.898   0.470   2.278  0.5732  0.1716 -0.7275
  315SOL    HW2  945   1.790   0.590   2.210  0.6545  3.3151  0.2233
  316SOL     OW  946   2.993   0.812   0.740  0.1947 -0.0038 -0.4481
  316SOL    HW1  947   2.925   0.875   0.782 -2.3712  1.0119 -1.3331
  316SOL    HW2  948   2.967   0.792   0.642  3.9122 -1.6044  1.7951
  317SOL     OW  949   0.831   2.820   0.087 -0.1402  0.2756 -0.2982
  317SOL    HW1  950   0.744   2.870   0.077  0.2986 -1.5611 -0.3733
  317SOL    HW2  951   0.835   2.745   0.023 -2.2537  1.1135 -1.5678
  318SOL     OW  952   1.813   2.718   1.617 -0.6420 -0.0801 -0.6713
  318SOL    HW1  953   1.893   2.776   1.636 -1.0609  2.1284  0.2144
  318SOL    HW2  954   1.834   2.615   1.602  0.6868 -2.4236 -2.9145
  319SOL     OW  955   1.147   1.566   2.981 -0.3083 -0.4664 -0.7954
  319SOL    HW1  956   1.183   1.566   3.079  3.9273  1.8701 -0.9024
  319SOL    HW2  957   1.210   1.499   2.937 -1.5193 -1.0358 -0.1447
  320SOL     OW  958   0.361   1.798   0.780  0.0907 -0.2371  0.3451
  320SOL    HW1  959   0.295   1.783   0.707 -2.3729  0.7523 -2.9423
  320SOL    HW2  960   0.399   1.884   0.752  1.3954 -1.2778  0.8633
  321SOL     OW  961   2.006   2.722   1.984 -0.2377  0.4260 -0.3185
  321SOL    HW1  962   2.085   2.785   2.000  2.3779 -0.3196 -2.1479
  321SOL    HW2  963   1.918   2.760   2.013 -1.8046  0.3529  0.4742
  322SOL     OW  964   2.297   1.926   2.462 -0.2444 -0.1860 -0.3422
  322SOL    HW1  965   2.299   1.998   2.385  0.9785 -0.6098 -1.5623
  322SOL    HW2  966   2.332   1.839   2.423 -1.2918 -2.5143  0.7166
  323SOL     OW  967   2.661   3.098   0.649  0.3465 -0.1014 -0.1111
  323SOL    HW1  968   2.612   3.049   0.722  0.4047  2.3061 -2.1190
  323SOL    HW2  969   2.591   0.059   0.601  0.6813  0.9635 -1.2326
  324SOL     OW  970   2.819   2.678   2.238 -0.1300  0.3652  0.1512
  324SOL    HW1  971   2.908   2.638   2.210  0.8701 -0.5420  0.1054
  324SOL    HW2  972   2.742   2.622   2.201  0.4387  3.8183 -1.0230
  325SOL     OW  973   1.064   0.628   2.697  0.4043 -0.1538  0.1698
  325SOL    HW1  974   1.160   0.649   2.705 -4.0103 -0.5936  1.8398
  325SOL    HW2  975   1.054   0.529   2.680 -1.2280  3.1625 -2.1142
  326SOL     OW  976   2.712   2.476   1.038 -0.0351 -0.4541 -0.0039
  326SOL    HW1  977   2.746   2.545   1.106 -0.7036 -2.8720  1.2052
  326SOL    HW2  978   2.666   2.525   0.959  0.6854  0.8481 -3.4082
  327SOL     OW  979   2.418   3.046   0.178  0.3995 -0.0405  0.8155
  327SOL    HW1  980   2.464   3.023   0.266  2.8832  0.4514 -1.6381
  327SOL    HW2  981   2.370   2.966   0.135 -0.6804  0.9684  3.2924
  328SOL     OW  982   0.524   0.767   1.576  0.0296  0.2258 -0.0573
  328SOL    HW1  983   0.504   0.665   1.591 -0.6268 -0.8365  2.2795
  328SOL    HW2  984   0.529   0.824   1.662 -0.3770  3.0895 -1.0980
  329SOL     OW  985   2.025   0.549   1.499  0.2311 -0.2126  0.8745
  329SOL    HW1  986   2.017   0.498   1.587 -2.4061 -0.5961  3.1268
  329SOL    HW2  987   2.119   0.534   1.455 -2.0884  0.2407 -0.9897
  330SOL     OW  988   0.705   0.415   0.882  0.5238  0.0347  0.2943
  330SOL    HW1  989   0.613   0.409   0.933  1.8023  0.4317 -0.5463
  330SOL    HW2  990   0.776   0.460   0.941 -1.2328 -3.0401 -3.3441
  331SOL     OW  991   0.790   1.833   1.905  0.0989  0.1417 -0.2694
  331SOL    HW1  992   0.825   1.737   1.901  1.2812 -2.0359  0.5459
  331SOL    HW2  993   0.789   1.874   1.813 -0.0161  2.2828 -1.1290
  332SOL     OW  994   2.594   2.516   1.708  0.2809  0.2032  0.1461
  332SOL    HW1  995   2.668   2.562   1.759  0.2383 -0.8375 -0.4402
  332SOL    HW2  996   2.587   2.418   1.736 -0.3781 -3.5443  0.3184
  333SOL     OW  997   3.068   2.955   0.860  0.3154 -0.5045 -0.8533
  333SOL    HW1  998   0.022   3.044   0.874  1.0628 -1.0601  2.5282
  333SOL    HW2  999   3.003   2.962   0.784 -0.6330  0.8094  1.8725
  334SOL     OW 1000   3.068   1.136   0.513 -0.4955 -0.1360  0.2714
  334SOL    HW1 1001   2.973   1.146   0.537  2.2463  0.1651  0.0460
  334SOL    HW2 1002   0.021   1.114   0.598 -0.0935  0.5473  0.9916
  335SOL     OW 1003   0.799   2.603   2.782  0.5740  0.4673  0.2630
  335SOL    HW1 1004   0.817   2.585   2.882 -0.5458  4.2685  0.6733
  335SOL    HW2 1005   0.773   2.703   2.763 -0.3092 -0.7973  2.3641
  336SOL     OW 1006   2.830   2.900   1.978  0.0557 -0.0428  0.7138
  336SOL    HW1 1007   2.746   2.932   2.016 -0.0041 -2.0542 -1.6551
  336SOL    HW2 1008   2.906   2.903   2.046  1.9750  2.2089  0.6790
  337SOL     OW 1009   1.290   2.152   1.595 -0.2569 -0.6103  0.0732
  337SOL    HW1 1010   1.219   2.157   1.667 -2.1966  1.5933  1.2122
  337SOL    HW2 1011   1.384   2.152   1.629  2.1208  2.8975 -0.7666
  338SOL     OW 1012   0.880   0.209   2.569  0.3606 -0.2966  0.0654
  338SOL    HW1 1013   0.851   0.297   2.525 -0.0188 -2.3965 -0.2686
  338SOL    HW2 1014   0.880   0.140   2.499 -2.3962  2.4130  1.1747
  339SOL     OW 1015   0.560   1.153   2.355 -0.3621  0.0340  0.0989
  339SOL    HW1 1016   0.495   1.159   2.274 -2.7955  3.2232 -0.2888
  339SOL    HW2 1017   0.634   1.088   2.336 -2.7082  0.7046  1.7663
  340SOL     OW 1018   2.213   0.348   1.065 -0.0588 -0.0579 -0.4354
  340SOL    HW1 1019   2.264   0.261   1.057 -1.5931  0.3938  0.2544
  340SOL    HW2 1020   2.280   0.419   1.082 -1.2712 -1.6989 -1.8452
  341SOL     OW 1021   2.158   1.244   0.755  0.4300  0.5340 -0.4535
  341SOL    HW1 1022   2.089   1.298   0.705  0.7694  0.6522 -1.5067
  341SOL    HW2 1023   2.189   1.289   0.839  5.7852 -1.7653 -0.7982
  342SOL     OW 1024   2.115   2.740   2.846 -0.2190  0.5118 -0.2098
  342SOL    HW1 1025   2.105   2.635   2.848 -3.1769 -2.1118 -0.1374
  342SOL    HW2 1026   2.045   2.790   2.895  0.2767  0.2632 -0.9857
  343SOL     OW 1027   0.241   2.500   1.336  0.5563  0.0242  0.2133
  343SOL    HW1 1028   0.197   2.428   1.393 -0.9975  0.8667  1.7260
  343SOL    HW2 1029   0.272   2.577   1.396  0.8463 -2.3607  1.3947
  344SOL     OW 1030   2.449   2.799   1.365 -0.8968  0.1063 -0.0939
  344SOL    HW1 1031   2.539   2.757   1.392  0.2425 -0.8857  1.5490
  344SOL    HW2 1032   2.414   2.853   1.442 -1.2226  1.5378 -1.6060
  345SOL     OW 1033   2.562   2.238   0.115 -0.0969  0.2292  0.6581
  345SOL    HW1 1034   2.653   2.274   0.148 -0.8361 -1.6616 -0.7536
  345SOL    HW2 1035   2.568   2.185   0.030 -1.3643  0.5142  1.4808
  346SOL     OW 1036   1.539   2.443   1.555 -0.1951  0.4663 -0.5071
  346SOL    HW1 1037   1.516   2.355   1.507  1.5756  2.5818  0.7704
  346SOL    HW2 1038   1.616   2.421   1.619  0.2802 -1.0863  1.5834
  347SOL     OW 1039   1.020   2.034   1.452 -0.4352 -0.2411  0.2462
  347SOL    HW1 1040   1.104   1.984   1.436  0.4384 -0.4303 -2.0920
  347SOL    HW2 1041   1.033   2.136   1.469 -0.1749  1.5067  3.3650
  348SOL     OW 1042   0.218   2.037   1.850  0.4619  0.2648  0.0562
  348SOL    HW1 1043   0.190   2.051   1.750 -2.2879  0.2951 -0.6649
  348SOL    HW2 1044   0.311   1.991   1.864  2.1213 -0.1833  1.4670
  349SOL     OW 1045   1.668   1.620   1.475  0.4888  0.1616 -0.0282
  349SOL    HW1 1046   1.621   1.606   1.566 -1.4939  0.4490  3.7326
  349SOL    HW2 1047   1.764   1.658   1.486  1.2139  0.7144  1.7814
  350SOL     OW 1048   2.147   2.199   0.357  0.6330 -0.3017  0.4095
  350SOL    HW1 1049   2.071   2.145   0.397  0.7487 -0.9454 -2.0346
  350SOL    HW2 1050   2.185   2.269   0.421  1.5965  0.3936  1.1290
  351SOL     OW 1051   0.701   2.966   1.604  0.1656 -0.5125  0.1756
  351SOL    HW1 1052   0.709   3.008   1.698 -1.7538  1.4212  1.5142
  351SOL    HW2 1053   0.777   3.001   1.542  3.8850 -0.5638 -2.4830
  352SOL     OW 1054   0.567   0.787   0.878 -0.0533  0.2655  0.4922
  352SOL    HW1 1055   0.464   0.775   0.891 -1.7636  0.3442  3.2537
  352SOL    HW2 1056   0.599   0.756   0.784 -0.4638  0.7901 -2.7204
  353SOL     OW 1057   1.110   1.839   2.588 -0.1946 -0.2114  0.1790
  353SOL    HW1 1058   1.024   1.894   2.575 -2.1783  0.6522 -0.6139
  353SOL    HW2 1059   1.092   1.743   2.572 -0.2068  2.1007  0.0198
  354SOL     OW 1060   1.744   2.819   2.057 -0.0538  0.0579 -0.0671
  354SOL    HW1 1061   1.699   2.792   2.143  1.5005  0.1813 -0.8350
  354SOL    HW2 1062   1.688   2.821   1.973  2.4343  0.2668 -0.4518
  355SOL     OW 1063   2.023   1.061   0.202 -0.2916 -0.2035 -0.0563
  355SOL    HW1 1064   2.081   1.141   0.229  0.0068  2.5230  3.0245
  355SOL    HW2 1065   2.005   1.054   0.100  4.3144  0.9688 -0.8593
  356SOL     OW 1066   2.876   1.660   1.321 -0.0199 -0.4724 -0.4868
  356SOL    HW1 1067   2.888   1.756   1.281  0.7178 -1.4852 -0.0229
  356SOL    HW2 1068   2.935   1.590   1.275  3.9916 -1.4575 -2.8344
  357SOL     OW 1069   0.150   2.895   1.198 -0.1893 -0.2691 -0.2099
  357SOL    HW1 1070   0.051   2.875   1.177 -0.1451 -1.0480  1.5735
  357SOL    HW2 1071   0.174   2.865   1.289  1.0410  2.2668 -0.9787
  358SOL     OW 1072   2.536   1.907   1.398 -0.3655  0.0997 -0.5262
  358SOL    HW1 1073   2.601   1.883   1.476 -0.4593 -1.9036  0.7950
  358SOL    HW2 1074   2.551   1.847   1.315  0.6639 -0.4898  0.8165
  359SOL     OW 1075   2.093   3.006   2.698 -0.1824  0.2574 -0.4023
  359SOL    HW1 1076   2.152   3.094   2.697  1.4152 -0.2186 -1.7307
  359SOL    HW2 1077   2.149   2.934   2.739 -1.0206  1.2471 -0.0409
  360SOL     OW 1078   1.024   2.887   0.917  0.2611 -0.1286 -0.0594
  360SOL    HW1 1079   1.027   2.910   0.819 -0.0452  0.4480  3.5347
  360SOL    HW2 1080   1.090   2.814   0.937  1.7387  0.7225 -1.1358
  361SOL     OW 1081   2.018   0.116   0.455 -0.5433 -0.6030 -0.2613
  361SOL    HW1 1082   2.057   0.064   0.377  0.1780 -0.6980  0.1406
  361SOL    HW2 1083   2.093   0.183   0.481  3.3131  2.1157  0.6285
  362SOL     OW 1084   1.604   1.022   1.016  0.1980  1.0800  0.1377
  362SOL    HW1 1085   1.697   0.976   0.998  5.3388  0.9816  1.1588
  362SOL    HW2 1086   1.614   1.116   1.049 -2.0132 -0.7455 -0.5309
  363SOL     OW 1087   2.320   1.239   2.401 -0.3098  0.2683 -0.0496
  363SOL    HW1 1088   2.274   1.315   2.449 -0.3886 -2.8473  0.6089
  363SOL    HW2 1089   2.275   1.149   2.420 -1.3181 -1.2279  4.1531
  364SOL     OW 1090   0.331   0.770   1.364 -0.7992  0.2891 -0.0685
  364SOL    HW1 1091   0.396   0.807   1.434  1.6851  0.5622 -0.0397
  364SOL    HW2 1092   0.316   0.831   1.283  0.8998 -2.7986  2.9443
  365SOL     OW 1093   0.529   0.132   2.476  0.3084 -0.2870  0.1584
  365SOL    HW1 1094   0.543   0.039   2.514  3.7649  0.3360 -1.8287
  365SOL    HW2 1095   0.615   0.164   2.433  1.8688  1.8145 -0.4442
  366SOL     OW 1096   2.286   2.060   2.696  0.3453 -0.3676 -0.1980
  366SOL    HW1 1097   2.290   1.986   2.623 -0.2881 -0.0120  1.3170
  366SOL    HW2 1098   2.306   2.150   2.649  0.1131  3.6858 -0.8555
  367SOL     OW 1099   2.795   2.474   3.041 -0.1299  0.5446  0.0675
  367SOL    HW1 1100   2.751   2.542   0.003  2.3289  2.4659  0.4863
  367SOL    HW2 1101   2.863   2.524   2.987 -1.6295  0.2397  1.3091
  368SOL     OW 1102   2.664   1.301   1.264 -0.6100 -0.5757  0.1664
  368SOL    HW1 1103   2.578   1.350   1.274  0.2995 -0.3817 -1.2880
  368SOL    HW2 1104   2.727   1.348   1.203  2.1595  1.0793 -1.9362
  369SOL     OW 1105   0.955   2.867   2.517 -0.3623 -0.1969  0.1487
  369SOL    HW1 1106   1.047   2.867   2.466  1.2591  0.2349  0.5851
  369SOL    HW2 1107   0.967   2.844   2.617 -0.9869  1.8012  1.3852
  370SOL     OW 1108   2.814   0.306   0.490 -0.2367  0.0085  0.0718
  370SOL    HW1 1109   2.894   0.358   0.450 -1.2387  1.7887 -1.6445
  370SOL    HW2 1110   2.724   0.335   0.450  0.2235 -2.1783  0.1536
  371SOL     OW 1111   1.441   2.327   0.963  0.0802 -0.1270  0.5157
  371SOL    HW1 1112   1.494   2.332   1.050 -0.3528  0.5914 -1.3418
  371SOL    HW2 1113   1.366   2.401   0.961 -1.7111  0.1759 -0.1129
  372SOL     OW 1114   0.057   0.889   2.576 -0.7044  0.1429 -0.4428
  372SOL    HW1 1115   0.106   0.811   2.530  1.0710 -1.3118  2.0263
  372SOL    HW2 1116   0.077   0.983   2.535 -1.1435  3.8489 -3.5900
  373SOL     OW 1117   2.540   1.738   0.801 -0.1221  0.6629 -0.0403
  373SOL    HW1 1118   2.622   1.768   0.748  1.4495 -0.9658 -2.6332
  373SOL    HW2 1119   2.493   1.809   0.859  1.4728 -1.4249  1.0727
  374SOL     OW 1120   0.538   2.926   2.578 -0.5554 -0.1165  0.0245
  374SOL    HW1 1121   0.598   2.933   2.659 -0.4139  0.3129 -0.8940
  374SOL    HW2 1122   0.569   2.850   2.518  1.0583  1.0559  0.6670
  375SOL     OW 1123   0.184   2.925   2.823 -0.0582  0.4548 -0.1624
  375SOL    HW1 1124   0.229   2.952   2.733  0.7544 -0.5385 -1.2320
  375SOL    HW2 1125   0.245   2.947   2.905  1.5148 -0.7255  0.3380
  376SOL     OW 1126   2.880   2.217   1.758 -0.2087 -0.3123 -0.1652
  376SOL    HW1 1127   2.850   2.122   1.747  2.6823  2.2550 -3.1688
  376SOL    HW2 1128   2.837   2.267   1.839 -0.8267  0.4467  0.4354
  377SOL     OW 1129   1.930   2.344   2.747 -0.1093  0.2312 -0.5392
  377SOL    HW1 1130   1.847   2.380   2.778  1.0939 -0.2928 -2.3635
  377SOL    HW2 1131   1.965   2.403   2.673 -0.1853 -0.6605  3.9662
  378SOL     OW 1132   0.204   0.359   2.454  0.4976  0.3333  0.2542
  378SOL    HW1 1133   0.276   0.409   2.399  1.7958  1.4456  0.7402
  378SOL    HW2 1134   0.195   0.261   2.422 -0.5473 -1.2630 -1.6540
  379SOL     OW 1135   0.429   0.716   0.530  0.4789  0.1509 -0.2894
  379SOL    HW1 1136   0.514   0.729   0.575 -2.5275 -3.0100  1.3389
  379SOL    HW2 1137   0.357   0.792   0.542 -3.2853  1.9943  0.2840
  380SOL     OW 1138   0.290   1.583   1.696 -0.2680 -0.4734 -0.1834
  380SOL    HW1 1139   0.371   1.559   1.645  0.5416  1.4571  0.0088
  380SOL    HW2 1140   0.317   1.616   1.790 -0.9031 -1.2641 -3.3855
  381SOL     OW 1141   0.487   0.853   1.831 -0.2732 -0.4289  0.1411
  381SOL    HW1 1142   0.399   0.831   1.881  1.3577 -1.7177 -1.5958
  381SOL    HW2 1143   0.534   0.927   1.886  1.5884 -1.5113  1.7399
  382SOL     OW 1144   2.409   2.123   0.303  0.4987 -0.0711 -0.8335
  382SOL    HW1 1145   2.458   2.166   0.226  2.4676  0.7184 -0.7851
  382SOL    HW2 1146   2.314   2.159   0.311  0.0361 -0.2906 -0.1853
  383SOL     OW 1147   0.161   1.899   2.951  0.2404 -0.4861 -0.3243
  383SOL    HW1 1148   0.099   1.878   3.030  1.4931  1.5482 -2.5276
  383SOL    HW2 1149   0.261   1.890   2.978 -0.0912  0.6724 -3.9967
  384SOL     OW 1150   0.853   1.962   2.857  0.0695  0.0044  0.0926
  384SOL    HW1 1151   0.926   1.894   2.863 -1.1355  2.0653  1.4803
  384SOL    HW2 1152   0.760   1.920   2.871 -0.7137 -0.6019  0.1389
  385SOL     OW 1153   2.419   2.014   0.583 -0.6436  0.1606 -0.4355
  385SOL    HW1 1154   2.427   2.095   0.647 -1.0995 -0.3091 -1.9800
  385SOL    HW2 1155   2.440   2.042   0.490  3.4283 -2.1970  1.5660
  386SOL     OW 1156   2.191   1.109   1.706 -0.1161 -0.3044 -0.2310
  386SOL    HW1 1157   2.283   1.140   1.741  1.1378  1.3278 -0.4676
  386SOL    HW2 1158   2.119   1.103   1.779  0.4169 -0.3100  0.1523
  387SOL     OW 1159   2.774   1.608   2.211 -0.4555 -0.1015  0.6571
  387SOL    HW1 1160   2.830   1.529   2.234  0.6151 -1.3702 -1.7167
  387SOL    HW2 1161   2.794   1.682   2.283 -1.4459  5.1710  0.0061
  388SOL     OW 1162   0.336   1.677   1.929  0.2682  0.3211  0.0882
  388SOL    HW1 1163   0.395   1.618   1.987  0.3378  0.9354  1.2520
  388SOL    HW2 1164   0.368   1.773   1.937  1.4375 -0.0617 -1.2146
  389SOL     OW 1165   1.422   1.248   1.781  0.1197 -0.6428  0.3636
  389SOL    HW1 1166   1.513   1.258   1.817 -2.1758 -0.1789  1.2147
  389SOL    HW2 1167   1.382   1.157   1.796 -0.7304  2.1271  0.1588
  390SOL     OW 1168   2.033   3.031   0.917 -0.8091  0.3651 -0.0064
  390SOL    HW1 1169   1.996   3.024   1.011  1.5143  0.3696  0.2364
  390SOL    HW2 1170   2.049   0.031   0.901 -1.3385 -2.2609  0.1374
  391SOL     OW 1171   1.954   1.799   1.265 -0.3657  0.1538  0.4438
  391SOL    HW1 1172   1.988   1.737   1.188 -0.0318  1.6101  0.8133
  391SOL    HW2 1173   1.939   1.747   1.348  0.0311  2.9463 -3.8980
  392SOL     OW 1174   2.777   2.526   0.353  0.2592  0.1536 -0.1009
  392SOL    HW1 1175   2.710   2.533   0.427  2.1909 -1.0168 -1.2239
  392SOL    HW2 1176   2.864   2.567   0.383 -1.1255 -1.2093 -0.6628
  393SOL     OW 1177   2.031   2.102   2.747 -0.2719  0.3690 -0.5558
  393SOL    HW1 1178   2.135   2.110   2.741  3.4659  1.4800 -0.6163
  393SOL    HW2 1179   1.988   2.191   2.747  1.1832 -1.9713  0.5932
  394SOL     OW 1180   0.156   2.694   2.548 -0.3051 -0.0722 -0.6271
  394SOL    HW1 1181   0.133   2.687   2.652  0.0463  1.1270  3.0516
  394SOL    HW2 1182   0.082   2.652   2.494  1.0054 -0.9569  0.1048
  395SOL     OW 1183   0.607   0.285   0.659 -0.2377  0.1618 -0.0331
  395SOL    HW1 1184   0.510   0.287   0.637  0.6900 -1.6375  2.4179
  395SOL    HW2 1185   0.625   0.322   0.748  2.3765 -0.1293 -0.8464
  396SOL     OW 1186   1.903   0.963   0.605  0.1552  0.3211  0.4927
  396SOL    HW1 1187   1.819   0.934   0.566  1.6294  0.8512  0.1562
  396SOL    HW2 1188   1.979   0.977   0.535  1.0324 -0.8028  0.5625
  397SOL     OW 1189   0.598   0.708   2.220 -0.2838 -0.1660 -0.1762
  397SOL    HW1 1190   0.684   0.708   2.277 -0.6154 -0.8445  1.6649
  397SOL    HW2 1191   0.531   0.767   2.268 -0.1027 -2.8348 -0.6380
  398SOL     OW 1192   0.945   3.027   0.441  0.0762  0.5629  0.1191
  398SOL    HW1 1193   0.908   0.015   0.462 -0.0516 -2.0467  0.9020
  398SOL    HW2 1194   0.991   2.987   0.522 -0.8874  0.4396 -0.6567
  399SOL     OW 1195   2.344   2.955   1.631 -0.1913 -0.1545 -0.3319
  399SOL    HW1 1196   2.360   2.863   1.658  0.0731  0.9982  0.4942
  399SOL    HW2 1197   2.420   3.007   1.586 -1.2900  1.4679 -0.8496
  400SOL     OW 1198   0.896   1.728   2.293  0.2457  0.1870 -0.1375
  400SOL    HW1 1199   0.972   1.791   2.268 -1.4610 -1.0705 -3.0989
  400SOL    HW2 1200   0.836   1.763   2.365  2.2170 -1.1889 -1.7321
  401SOL     OW 1201   0.753   1.170   2.762  0.2247 -0.5513  0.1264
  401SOL    HW1 1202   0.680   1.236   2.790  0.5807 -0.6372  0.6646
  401SOL    HW2 1203   0.720   1.073   2.768 -2.3567  2.4254  0.6685
  402SOL     OW 1204   3.059   1.945   0.779 -0.1190 -0.5067 -0.6075
  402SOL    HW1 1205   2.982   1.999   0.745 -2.6461  1.7726  0.1196
  402SOL    HW2 1206   3.045   1.847   0.771  2.9714  2.5573  0.0605
  403SOL     OW 1207   0.005   1.123   2.174 -0.1425  0.3195 -0.2669
  403SOL    HW1 1208   3.018   1.129   2.128  1.9019 -1.0288  0.8573
  403SOL    HW2 1209   0.076   1.190   2.134  3.3024  1.5820 -0.1746
  404SOL     OW 1210   3.051   2.556   2.222 -0.1258 -0.0841  0.5388
  404SOL    HW1 1211   3.070   2.458   2.209  3.3484  1.7285  1.6084
  404SOL    HW2 1212   0.027   2.610   2.186 -4.3448  0.9056 -0.6312
  405SOL     OW 1213   0.084   0.174   1.802  0.5980 -0.2928  0.0246
  405SOL    HW1 1214   0.179   0.190   1.830  0.8272 -1.6077 -0.8187
  405SOL    HW2 1215   0.020   0.201   1.880 -3.5800 -1.4428  1.5616
  406SOL     OW 1216   1.538   1.529   2.535  0.8807 -0.0496 -0.4654
  406SOL    HW1 1217   1.563   1.585   2.617 -0.1208  1.9963 -2.9470
  406SOL    HW2 1218   1.569   1.560   2.446  0.8342  1.0706  0.9292
  407SOL     OW 1219   1.590   0.936   2.574  0.1863  0.2955  0.3944
  407SOL    HW1 1220   1.640   1.026   2.589  2.1535  1.9422 -2.8887
  407SOL    HW2 1221   1.632   0.886   2.492  2.6550 -3.9821 -2.9565
  408SOL     OW 1222   0.837   3.080   2.380 -0.2961 -0.0340  0.3363
  408SOL    HW1 1223   0.870   3.034   2.462 -0.7375  3.2224  1.9693
  408SOL    HW2 1224   0.800   3.009   2.311  0.6884 -1.4352  0.9310
  409SOL     OW 1225   0.167   2.087   0.930 -0.1219  0.0884 -0.2852
  409SOL    HW1 1226   0.088   2.055   0.876 -0.6453  0.5494  0.4316
  409SOL    HW2 1227   0.215   2.010   0.969 -0.1596 -0.5696  0.6643
  410SOL     OW 1228   2.465   1.427   0.185  0.4542  0.2946  0.4535
  410SOL    HW1 1229   2.394   1.499   0.175 -2.7249  1.8527 -0.3865
  410SOL    HW2 1230   2.521   1.426   0.097 -2.3826 -0.3329 -1.1127
  411SOL     OW 1231   0.272   0.083   1.241 -0.4524  0.0659 -0.0534
  411SOL    HW1 1232   0.207   0.030   1.301  2.0925  2.1241 -0.6180
  411SOL    HW2 1233   0.342   0.031   1.184  1.0414 -0.3774  1.2932
  412SOL     OW 1234   1.934   0.820   1.516  0.5012  0.4757 -0.6355
  412SOL    HW1 1235   1.941   0.720   1.510  1.0776  2.0036  0.0876
  412SOL    HW2 1236   1.865   0.843   1.443  0.0340  0.2024  1.4175
  413SOL     OW 1237   0.833   0.222   1.891  0.1421 -0.2833  0.2536
  413SOL    HW1 1238   0.896   0.189   1.966  0.4695 -2.0164  2.6654
  413SOL    HW2 1239   0.775   0.295   1.928 -1.5700 -1.0208 -0.9916
  414SOL     OW 1240   2.884   1.639   2.619  0.3497  0.5707 -0.5979
  414SOL    HW1 1241   2.964   1.580   2.628  0.7113  0.8436  1.0848
  414SOL    HW2 1242   2.805   1.578   2.655 -1.5866 -2.1299  1.9040
  415SOL     OW 1243   0.635   2.375   0.170  0.0256 -0.0344  0.5074
  415SOL    HW1 1244   0.723   2.348   0.129 -0.2420 -0.0316  1.0655
  415SOL    HW2 1245   0.630   2.332   0.259 -1.9000  0.4541 -3.2660
  416SOL     OW 1246   1.796   3.050   2.990  0.5765 -0.2818  0.7476
  416SOL    HW1 1247   1.747   3.047   3.077  0.0787 -1.7157 -0.3768
  416SOL    HW2 1248   1.752   0.021   2.927  1.2682  1.7032 -1.8464
  417SOL     OW 1249   0.328   0.315   0.562 -0.2835 -0.2819  0.0488
  417SOL    HW1 1250   0.320   0.388   0.633  0.6141  0.2160  3.2911
  417SOL    HW2 1251   0.258   0.241   0.564  1.8955  2.3870  1.9330
  418SOL     OW 1252   2.616   2.872   1.096 -0.4233  0.1884  0.3052
  418SOL    HW1 1253   2.544   2.850   1.164  1.1393  0.1364 -1.1856
  418SOL    HW2 1254   2.688   2.929   1.132 -4.7661 -0.9346 -1.1103
  419SOL     OW 1255   0.137   2.751   0.604 -0.4200  0.0115 -0.6848
  419SOL    HW1 1256   0.134   2.754   0.706  0.0358  0.3632 -0.2273
  419SOL    HW2 1257   0.233   2.745   0.574 -0.8027  2.5997 -0.2516
  420SOL     OW 1258   0.139   1.348   1.708  0.0365 -0.5344  0.6285
  420SOL    HW1 1259   0.188   1.437   1.687  0.3004  0.0799 -1.6270
  420SOL    HW2 1260   0.134   1.286   1.624  1.1165 -1.3939 -0.3775
  421SOL     OW 1261   1.405   2.691   0.640 -0.2396  0.0293  0.2742
  421SOL    HW1 1262   1.357   2.676   0.551 -1.4668 -0.2770  0.3972
  421SOL    HW2 1263   1.454   2.780   0.640  2.0978  0.0952 -2.1519
  422SOL     OW 1264   0.642   0.473   1.330  0.3488  0.4006  0.0503
  422SOL    HW1 1265   0.686   0.488   1.421 -1.6146  1.0445  2.2830
  422SOL    HW2 1266   0.564   0.406   1.342 -2.4471 -1.8543 -2.7953
  423SOL     OW 1267   1.068   1.288   1.570  0.4034  0.3272  0.5301
  423SOL    HW1 1268   1.062   1.344   1.487  1.9621  0.3395 -0.2194
  423SOL    HW2 1269   1.114   1.199   1.546  1.3048 -1.9821  0.8112
  424SOL     OW 1270   1.933   2.076   0.166 -0.7190 -0.2386 -0.1358
  424SOL    HW1 1271   1.912   2.173   0.185 -0.6508  0.6038  0.4032
  424SOL    HW2 1272   1.925   2.016   0.250 -0.5999  0.2810  1.7186
  425SOL     OW 1273   3.015   0.204   2.020 -0.3582 -0.0977  0.2950
  425SOL    HW1 1274   3.010   0.154   2.107  2.4398  0.1363 -1.0787
  425SOL    HW2 1275   2.935   0.175   1.962  0.3137 -0.3710  2.0638
  426SOL     OW 1276   0.136   2.636   2.828 -0.4168 -0.2013 -0.2085
  426SOL    HW1 1277   0.147   2.731   2.860  1.9177  0.3996 -0.8744
  426SOL    HW2 1278   0.221   2.581   2.853  0.6068  1.2455  1.6557
  427SOL     OW 1279   1.347   0.497   2.989 -0.3023 -0.0675  0.4095
  427SOL    HW1 1280   1.355   0.515   3.091  0.1354  1.5754  1.5340
  427SOL    HW2 1281   1.278   0.426   2.978  0.5894  0.5812 -1.5366
  428SOL     OW 1282   2.874   0.902   1.801  0.0049  0.2099 -0.0308
  428SOL    HW1 1283   2.805   0.924   1.875 -0.9732  0.8090  1.5305
  428SOL    HW2 1284   2.852   0.966   1.722 -1.3190  0.2170 -3.4078
  429SOL     OW 1285   1.933   2.848   1.379 -0.3528 -0.1133 -0.3064
  429SOL    HW1 1286   1.983   2.865   1.468  3.5813  0.9138  1.4252
  429SOL    HW2 1287   1.937   2.750   1.354 -0.8226  1.5645 -0.8130
  430SOL     OW 1288   1.106   1.554   2.662 -0.2716 -0.1308 -0.1422
  430SOL    HW1 1289   1.025   1.526   2.718  0.6961  0.2670 -2.5465
  430SOL    HW2 1290   1.187   1.523   2.713  0.8648  0.0360 -0.3225
  431SOL     OW 1291   2.736   1.630   1.541 -0.2138 -0.3202  0.0467
  431SOL    HW1 1292   2.719   1.721   1.589 -2.5763  3.3880  2.3669
  431SOL    HW2 1293   2.798   1.635   1.461  1.8129  2.9761  1.0047
  432SOL     OW 1294   1.183   2.498   2.366  0.1407  0.3319  0.0789
  432SOL    HW1 1295   1.187   2.485   2.469 -0.3362 -0.0981  1.4084
  432SOL    HW2 1296   1.089   2.482   2.328  0.6026  2.7052  1.9466
  433SOL     OW 1297   1.901   0.360   1.980  0.0073  0.0622  0.0998
  433SOL    HW1 1298   1.978   0.298   2.005 -0.6829 -0.3083  1.0088
  433SOL    HW2 1299   1.878   0.426   2.057  1.7860  1.2567 -0.6012
  434SOL     OW 1300   0.686   2.281   2.338  0.1001 -0.1710  0.1450
  434SOL    HW1 1301   0.697   2.317   2.432 -2.3879  0.2270  0.4732
  434SOL    HW2 1302   0.729   2.188   2.336  0.0351  0.2318  2.4843
  435SOL     OW 1303   0.125   3.071   0.254  0.2094  0.3755  0.3774
  435SOL    HW1 1304   0.189   0.043   0.241  0.6349 -1.7671  3.3265
  435SOL    HW2 1305   0.102   3.044   0.351 -1.8058 -2.1883  0.7613
  436SOL     OW 1306   0.657   0.648   1.934  0.2928  0.0906 -0.1436
  436SOL    HW1 1307   0.588   0.713   1.892 -2.2267  1.1769 -1.6125
  436SOL    HW2 1308   0.661   0.661   2.037 -0.2676 -0.6880  2.6096
  437SOL     OW 1309   0.643   2.271   2.710 -0.3359  0.8975 -0.4133
  437SOL    HW1 1310   0.643   2.350   2.651  2.7268 -2.0514  3.2201
  437SOL    HW2 1311   0.552   2.257   2.752  0.7549 -0.1474 -2.9780
  438SOL     OW 1312   1.005   1.248   1.134  0.3537 -0.1581 -0.3582
  438SOL    HW1 1313   1.014   1.339   1.093  0.8124 -3.1929  1.6605
  438SOL    HW2 1314   1.097   1.210   1.153 -2.9606  1.6452  1.7845
  439SOL     OW 1315   2.587   1.255   2.508  0.8366  0.1566 -0.5044
  439SOL    HW1 1316   2.604   1.155   2.518 -1.5931 -0.4151  0.7617
  439SOL    HW2 1317   2.488   1.280   2.473 -0.4344 -0.7624 -0.5354
  440SOL     OW 1318   0.182   0.737   0.139 -0.2446 -0.0582  0.4030
  440SOL    HW1 1319   0.257   0.672   0.102  1.9453  0.2675  0.3451
  440SOL    HW2 1320   0.122   0.775   0.065 -0.8040  0.9744 -1.3718
  441SOL     OW 1321   1.186   2.147   1.849 -0.0615 -0.0279  0.3391
  441SOL    HW1 1322   1.233   2.195   1.928  0.7025  1.4356  1.1364
  441SOL    HW2 1323   1.098   2.106   1.883  1.2303 -0.5991 -0.8339
  442SOL     OW 1324   2.064   1.827   0.821 -0.2237  0.1648 -0.6122
  442SOL    HW1 1325   2.045   1.763   0.897 -4.4934  0.2242  0.9348
  442SOL    HW2 1326   2.128   1.797   0.745  2.0916  0.9791  0.6540
  443SOL     OW 1327   2.571   1.857   2.735 -0.1371 -0.3402 -0.2244
  443SOL    HW1 1328   2.669   1.867   2.760 -1.2548  3.0732 -1.4686
  443SOL    HW2 1329   2.513   1.840   2.819 -1.0971 -0.3415  2.6929
  444SOL     OW 1330   1.888   1.581   2.842 -0.1027 -0.3986  0.3645
  444SOL    HW1 1331   1.803   1.621   2.876  1.3290 -1.4632 -1.5324
  444SOL    HW2 1332   1.963   1.652   2.826 -2.3709 -0.5497  0.3149
  445SOL     OW 1333   2.489   2.744   1.964 -0.4078  0.4090  0.2168
  445SOL    HW1 1334   2.532   2.836   1.981  1.7601  0.3495  3.3640
  445SOL    HW2 1335   2.468   2.738   1.867 -0.8887  0.0797  0.4350
  446SOL     OW 1336   1.017   0.938   1.732 -0.5279 -0.0337  0.1648
  446SOL    HW1 1337   1.068   0.903   1.650  2.2823 -0.7702  1.2780
  446SOL    HW2 1338   0.982   0.861   1.791  0.6508 -3.1268 -1.8800
  447SOL     OW 1339   0.999   0.982   0.927 -0.3320 -0.4979 -0.2812
  447SOL    HW1 1340   1.053   0.926   0.997 -1.9556 -0.2000 -0.0619
  447SOL    HW2 1341   0.900   0.987   0.954  1.1190 -0.1699 -1.5032
  448SOL     OW 1342   1.200   1.228   2.340  0.0874 -0.1643 -0.3927
  448SOL    HW1 1343   1.138   1.296   2.387  0.4675  2.5587  0.7776
  448SOL    HW2 1344   1.176   1.214   2.241  2.0770  0.2365 -1.0364
  449SOL     OW 1345   3.031   2.106   2.224 -0.1410  0.0627 -0.2678
  449SOL    HW1 1346   3.076   2.082   2.310  1.2371  0.7416 -0.1254
  449SOL    HW2 1347   3.055   2.042   2.148 -0.5432  1.5348 -1.7815
  450SOL     OW 1348   2.140   1.821   2.007 -0.2463  0.1935  0.4074
  450SOL    HW1 1349   2.173   1.748   2.073  1.2183 -0.9125 -0.3561
  450SOL    HW2 1350   2.039   1.841   2.014 -0.5042  0.6271  1.1342
  451SOL     OW 1351   2.514   1.511   1.425  0.3228 -0.3824  0.1285
  451SOL    HW1 1352   2.588   1.553   1.479 -2.3619  0.4071 -0.9671
  451SOL    HW2 1353   2.431   1.481   1.479  0.1611 -2.4792  1.9538
  452SOL     OW 1354   0.410   1.212   1.552 -0.6207 -0.9154  0.2246
  452SOL    HW1 1355   0.315   1.209   1.516 -0.9961  0.9999  1.5540
  452SOL    HW2 1356   0.470   1.267   1.491  0.3944  1.6085  3.2564
  453SOL     OW 1357   0.599   1.022   0.758 -0.1214 -0.0399 -0.0653
  453SOL    HW1 1358   0.524   1.066   0.700 -0.4717  2.6531 -0.2354
  453SOL    HW2 1359   0.575   0.929   0.799 -3.1658  1.7082  1.4476
  454SOL     OW 1360   0.768   1.532   0.405  0.1507  0.4830  0.9645
  454SOL    HW1 1361   0.787   1.438   0.442  3.8346 -2.7061 -0.6520
  454SOL    HW2 1362   0.677   1.560   0.430  2.7842 -0.4265 -3.8629
  455SOL     OW 1363   1.884   0.722   1.178  0.2146 -0.6557  0.1568
  455SOL    HW1 1364   1.809   0.760   1.229 -1.2821  0.2335  2.2258
  455SOL    HW2 1365   1.906   0.635   1.226  0.2940 -1.1440  2.4641
  456SOL     OW 1366   1.748   2.640   0.935 -0.3968 -0.4475  0.2760
  456SOL    HW1 1367   1.714   2.585   0.854 -1.3980  1.5928 -0.4680
  456SOL    HW2 1368   1.817   2.711   0.900  0.8621  1.1509  0.0779
  457SOL     OW 1369   2.010   0.435   2.508 -0.9056 -0.5314 -0.7718
  457SOL    HW1 1370   2.047   0.423   2.606 -2.7436 -0.3521 -0.5707
  457SOL    HW2 1371   2.058   0.371   2.446  2.4495 -1.0274 -1.6292
  458SOL     OW 1372   2.623   0.787   2.958  0.0366  0.8616  0.2579
  458SOL    HW1 1373   2.532   0.788   2.908  0.2867 -0.2130 -0.6119
  458SOL    HW2 1374   2.688   0.734   2.902  0.1787 -0.1445  1.8733
  459SOL     OW 1375   0.070   1.651   1.948 -0.4259  0.2469 -0.0308
  459SOL    HW1 1376   0.166   1.643   1.926 -0.0545  0.4266  0.6114
  459SOL    HW2 1377   0.063   1.601   2.039  0.4230  0.5351 -0.9250
  460SOL     OW 1378   0.345   0.605   3.074  0.1461 -0.6120 -0.4367
  460SOL    HW1 1379   0.316   0.605   2.977  3.2685  0.0112  0.9242
  460SOL    HW2 1380   0.447   0.629   3.081  0.7443  1.2651  0.6844
  461SOL     OW 1381   0.007   2.395   0.422  0.1849  0.0954 -0.5319
  461SOL    HW1 1382   0.000   2.293   0.428 -1.0347 -2.5213 -0.2022
  461SOL    HW2 1383   0.092   2.435   0.376 -0.0738  3.2135 -2.0993
  462SOL     OW 1384   0.059   2.872   1.564  0.0459  0.3775  0.2002
  462SOL    HW1 1385   0.140   2.822   1.527  2.2171  0.5916 -1.3896
  462SOL    HW2 1386   0.070   2.971   1.545 -1.5997  1.2964 -2.6985
  463SOL     OW 1387   1.545   2.150   1.695  0.4252 -0.3411 -0.2158
  463SOL    HW1 1388   1.588   2.059   1.674 -1.8549  2.2281  0.7613
  463SOL    HW2 1389   1.597   2.218   1.748 -0.4013 -3.5359  1.7959
  464SOL     OW 1390   0.161   2.783   0.875 -0.2029 -0.0375 -0.3556
  464SOL    HW1 1391   0.083   2.854   0.871 -0.8289 -2.1186  1.1200
  464SOL    HW2 1392   0.248   2.832   0.878  1.1920 -0.4794  4.5479
  465SOL     OW 1393   0.362   0.148   1.541 -0.1059 -0.4068  0.2633
  465SOL    HW1 1394   0.421   0.170   1.628  1.7803  4.0897  2.2441
  465SOL    HW2 1395   0.373   0.222   1.472 -2.0214  1.6778  3.2727
  466SOL     OW 1396   1.203   2.168   2.429  0.3360 -0.2751 -0.4559
  466SOL    HW1 1397   1.284   2.204   2.482 -0.4943 -0.5891  1.5622
  466SOL    HW2 1398   1.116   2.206   2.467 -1.5121 -0.6939  0.2383
  467SOL     OW 1399   2.846   1.293   1.027  0.5266  0.3201 -0.4081
  467SOL    HW1 1400   2.813   1.390   1.016 -1.7193  1.8423  0.5865
  467SOL    HW2 1401   2.883   1.258   0.937  0.9376  0.8026 -3.1013
  468SOL     OW 1402   2.372   1.960   2.939 -0.0319 -0.0828  0.2631
  468SOL    HW1 1403   2.349   1.967   2.841  0.1891 -0.1801  1.1074
  468SOL    HW2 1404   2.296   1.919   2.992 -2.5504  1.0692  1.6114
  469SOL     OW 1405   1.366   2.141   0.612 -0.2191 -0.2593  0.1438
  469SOL    HW1 1406   1.332   2.095   0.526  0.6572 -0.8255  1.4236
  469SOL    HW2 1407   1.346   2.088   0.693  0.7592  2.0765 -1.7054
  470SOL     OW 1408   1.939   1.670   1.538  0.5003 -0.0873 -0.1383
  470SOL    HW1 1409   1.933   1.734   1.621 -1.1601  1.3678 -0.5737
  470SOL    HW2 1410   2.032   1.644   1.520 -3.1326  1.9554 -0.0502
  471SOL     OW 1411   0.252   2.397   0.273 -0.0649 -0.3460 -0.1300
  471SOL    HW1 1412   0.322   2.452   0.325  4.5586 -0.3954 -0.8928
  471SOL    HW2 1413   0.248   2.303   0.307 -0.7247 -1.1052 -0.3710
  472SOL     OW 1414   2.396   1.737   2.324 -0.5724 -0.1546 -0.0145
  472SOL    HW1 1415   2.483   1.779   2.286  1.8668  2.4385  1.6114
  472SOL    HW2 1416   2.351   1.686   2.249 -0.1740  0.5058  1.7722
  473SOL     OW 1417   1.208   2.483   0.943  0.1376 -0.0224 -0.2532
  473SOL    HW1 1418   1.125   2.473   0.890 -1.1507  2.5739  2.8324
  473SOL    HW2 1419   1.215   2.568   0.999  3.2244 -1.0166  0.3545
  474SOL     OW 1420   3.008   0.217   1.358 -0.0704 -0.4550 -0.0676
  474SOL    HW1 1421   3.000   0.267   1.445 -1.6499 -0.1431  0.6176
  474SOL    HW2 1422   2.919   0.194   1.320  0.4275  0.0951 -0.1027
  475SOL     OW 1423   2.220   2.895   2.017  0.1210 -0.2087  0.4599
  475SOL    HW1 1424   2.297   2.835   2.057  4.1403 -0.8605  1.5967
  475SOL    HW2 1425   2.262   2.973   1.964  1.2706 -1.3785 -0.4688
  476SOL     OW 1426   0.356   0.495   0.762 -0.3327  0.0620 -0.5295
  476SOL    HW1 1427   0.387   0.418   0.821 -0.9196  2.5249 -3.0848
  476SOL    HW2 1428   0.354   0.580   0.819  0.1717  2.4356  2.6671
  477SOL     OW 1429   0.711   2.144   0.839 -0.2414  0.2090  0.8090
  477SOL    HW1 1430   0.741   2.184   0.924  1.7874 -1.2814 -0.5669
  477SOL    HW2 1431   0.721   2.041   0.845  1.4518 -1.9191 -0.2070
  478SOL     OW 1432   0.988   2.396   2.757  0.0222 -0.6021 -0.5422
  478SOL    HW1 1433   0.986   2.322   2.827 -1.2401  0.5051  0.9325
  478SOL    HW2 1434   0.923   2.474   2.775 -2.0576 -0.3431 -1.6084
  479SOL     OW 1435   2.884   1.208   2.069  0.0404  0.1335  0.3563
  479SOL    HW1 1436   2.803   1.146   2.058 -1.0007 -2.1933 -1.1092
  479SOL    HW2 1437   2.911   1.251   1.979  0.0892 -0.8414 -0.1204
  480SOL     OW 1438   0.331   2.475   2.947 -0.4683  0.0033  0.0034
  480SOL    HW1 1439   0.243   2.448   2.997 -3.5517 -1.7807  4.6919
  480SOL    HW2 1440   0.405   2.497   3.010 -0.0771 -0.9437  1.3943
  481SOL     OW 1441   1.599   2.972   2.344  0.8852  0.6438  0.0570
  481SOL    HW1 1442   1.695   2.932   2.351  1.2172  0.4641 -0.8354
  481SOL    HW2 1443   1.595   3.072   2.343 -5.0715 -0.0591 -1.7275
  482SOL     OW 1444   1.850   2.007   3.005  0.3941  0.6398  0.2650
  482SOL    HW1 1445   1.875   2.017   0.007  0.8788 -1.6825  2.9183
  482SOL    HW2 1446   1.884   2.086   2.950  1.0829 -1.2632  0.6572
  483SOL     OW 1447   1.200   2.480   2.640 -0.4540 -0.5303 -0.4540
  483SOL    HW1 1448   1.247   2.396   2.604  0.9632 -1.1203  0.2105
  483SOL    HW2 1449   1.118   2.461   2.699 -0.3338  1.9553 -0.2454
  484SOL     OW 1450   0.533   2.713   1.018  0.3865 -0.6454  0.8239
  484SOL    HW1 1451   0.466   2.764   0.956 -1.5156  2.4349 -0.8976
  484SOL    HW2 1452   0.587   2.769   1.082 -0.6290  0.1591  0.9393
  485SOL     OW 1453   2.255   0.489   0.720  0.6106 -0.0097  0.3085
  485SOL    HW1 1454   2.238   0.582   0.676  2.8152  2.7363 -3.5392
  485SOL    HW2 1455   2.179   0.460   0.779  1.7868  0.9619 -1.9042
  486SOL     OW 1456   2.121   2.780   2.308  0.5629 -0.6458  0.3095
  486SOL    HW1 1457   2.104   2.743   2.401  0.1599 -1.3458 -3.5932
  486SOL    HW2 1458   2.214   2.821   2.300  0.6059  1.1037  0.7120
  487SOL     OW 1459   0.962   1.666   0.771  0.6090  0.2272  0.3135
  487SOL    HW1 1460   0.890   1.670   0.694 -1.6032 -1.2709 -3.7700
  487SOL    HW2 1461   1.008   1.757   0.787  1.1843  0.6706 -1.8224
  488SOL     OW 1462   2.012   0.206   0.076  0.3535  0.2639 -0.6473
  488SOL    HW1 1463   2.053   0.286   0.131  0.2182 -1.4474 -1.3987
  488SOL    HW2 1464   2.003   0.238   3.080 -3.3399  1.1730 -0.6207
  489SOL     OW 1465   2.032   2.940   0.536  0.0383  0.2232  0.1116
  489SOL    HW1 1466   1.996   2.900   0.623 -1.7484  0.0559 -1.9748
  489SOL    HW2 1467   2.023   3.043   0.522  0.4036  1.2593 -2.0893
  490SOL     OW 1468   1.483   3.004   2.991 -0.4195 -0.4540 -0.3945
  490SOL    HW1 1469   1.459   0.002   3.016  0.3994  1.3101 -0.6154
  490SOL    HW2 1470   1.471   2.945   3.069  0.2426  0.1092  2.5099
  491SOL     OW 1471   0.787   0.022   1.209 -0.2742 -0.3661 -0.1252
  491SOL    HW1 1472   0.818   0.095   1.272  0.8208 -0.6754 -0.7122
  491SOL    HW2 1473   0.858   0.003   1.148 -2.4913  3.0494  1.7461
  492SOL     OW 1474   1.846   2.834   0.360 -0.3510  0.4364  0.2216
  492SOL    HW1 1475   1.914   2.885   0.412 -2.3221 -2.5218 -3.7030
  492SOL    HW2 1476   1.883   2.777   0.282 -0.7891 -0.2357 -0.8248
  493SOL     OW 1477   1.334   2.047   3.006  0.1452 -0.2583  0.3527
  493SOL    HW1 1478   1.303   1.990   3.084  0.8174 -2.4685  1.6651
  493SOL    HW2 1479   1.332   1.997   2.917 -0.4540  1.4639  0.2824
  494SOL     OW 1480   0.396   1.178   1.171 -0.3117 -0.6340  0.5685
  494SOL    HW1 1481   0.400   1.255   1.232 -2.6661  1.7562 -2.8232
  494SOL    HW2 1482   0.479   1.178   1.107  1.4502 -0.4967 -3.6944
  495SOL     OW 1483   2.845   0.667   1.562  0.2368 -0.0438  0.2195
  495SOL    HW1 1484   2.926   0.723   1.531 -1.1805  2.6612  0.3305
  495SOL    HW2 1485   2.863   0.636   1.655 -0.2709  0.6687  1.0576
  496SOL     OW 1486   2.352   2.346   2.271 -0.0255 -0.8061 -0.2523
  496SOL    HW1 1487   2.402   2.334   2.183  0.5767  0.2497  1.1562
  496SOL    HW2 1488   2.286   2.429   2.273 -1.6138 -1.7105  1.6799
  497SOL     OW 1489   1.567   1.225   2.705 -0.0891  0.3497 -0.0259
  497SOL    HW1 1490   1.647   1.221   2.641  0.8383  2.0162 -0.6400
  497SOL    HW2 1491   1.484   1.237   2.651  3.1701  1.2012 -0.1649
  498SOL     OW 1492   0.921   2.119   0.627  0.4426  0.3668  0.4534
  498SOL    HW1 1493   0.999   2.185   0.613  1.1039 -0.8480  2.7915
  498SOL    HW2 1494   0.830   2.162   0.656  0.4474  1.2522  0.7920
  499SOL     OW 1495   0.073   1.526   0.963 -0.0808  0.1472 -0.1034
  499SOL    HW1 1496   0.049   1.466   0.883  2.4904  0.1254 -3.6077
  499SOL    HW2 1497   0.172   1.544   0.957 -0.8027  1.2679 -2.4819
  500SOL     OW 1498   1.181   2.475   0.389  0.3694  0.0955  0.0323
  500SOL    HW1 1499   1.150   2.442   0.295  0.3109  1.6627  2.8843
  500SOL    HW2 1500   1.257   2.535   0.383 -4.7242 -4.3055  0.9685
  501SOL     OW 1501   2.171   2.445   1.074  0.1422 -0.8528 -0.0581
  501SOL    HW1 1502   2.072   2.433   1.091 -2.7147  2.5652  0.5895
  501SOL    HW2 1503   2.178   2.512   0.999  1.0631 -0.9507  1.5912
  502SOL     OW 1504   0.255   0.530   1.412 -0.5193 -0.3166  0.2242
  502SOL    HW1 1505   0.200   0.526   1.498  2.1326 -0.6401  2.0873
  502SOL    HW2 1506   0.287   0.625   1.394 -1.5560  0.6923 -1.3213
  503SOL     OW 1507   2.051   0.195   1.609  0.3872 -0.6466 -0.1205
  503SOL    HW1 1508   1.956   0.189   1.567  2.3300  1.8321  0.6717
  503SOL    HW2 1509   2.064   0.128   1.686  1.5285 -1.3887  1.1649
  504SOL     OW 1510   2.065   0.673   1.865  0.1892  0.1410  0.0189
  504SOL    HW1 1511   2.042   0.587   1.818 -0.6789  2.0410  0.2991
  504SOL    HW2 1512   2.127   0.726   1.803  0.7970 -1.3068  0.6610
  505SOL     OW 1513   1.175   2.866   2.355 -0.5233  0.3162  0.6857
  505SOL    HW1 1514   1.221   2.797   2.292  0.3544 -3.0591 -0.1460
  505SOL    HW2 1515   1.240   2.890   2.432  2.2792 -2.3119  0.5324
  506SOL     OW 1516   0.381   0.368   1.814 -0.2805 -0.1042 -0.1252
  506SOL    HW1 1517   0.398   0.377   1.917 -0.1218  2.7617  1.0607
  506SOL    HW2 1518   0.426   0.283   1.787 -2.5509  0.6478  0.1464
  507SOL     OW 1519   1.425   0.161   3.079 -0.0649 -0.6501 -0.1640
  507SOL    HW1 1520   1.343   0.137   0.034  0.1745  2.6032 -2.0581
  507SOL    HW2 1521   1.507   0.183   0.040  0.2410  0.4424  1.4986
  508SOL     OW 1522   2.164   0.436   2.260  0.4842 -0.2901 -0.0552
  508SOL    HW1 1523   2.147   0.518   2.199  0.6482 -4.4765 -1.4567
  508SOL    HW2 1524   2.160   0.355   2.194 -2.1863 -0.7542 -0.1335
  509SOL     OW 1525   0.649   1.566   2.290  0.2316  0.4020 -0.4517
  509SOL    HW1 1526   0.657   1.489   2.360 -0.7991 -0.4849 -0.9297
  509SOL    HW2 1527   0.739   1.611   2.284 -4.3297  1.8016  1.2053
  510SOL     OW 1528   2.943   0.482   0.892 -1.2926 -0.1882  0.2222
  510SOL    HW1 1529   3.044   0.502   0.870  4.0233 -0.8126  1.5362
  510SOL    HW2 1530   2.918   0.479   0.991  0.4717  0.4302  0.5548
  511SOL     OW 1531   1.698   1.475   1.255  0.0342  0.6081  0.1974
  511SOL    HW1 1532   1.662   1.537   1.324  0.3636  0.8696 -2.2125
  511SOL    HW2 1533   1.794   1.435   1.285  4.6507 -0.7950  1.2926
  512SOL     OW 1534   0.355   1.480   0.586 -0.5040 -0.1212  0.4559
  512SOL    HW1 1535   0.439   1.510   0.633  1.1263 -0.2145 -0.9358
  512SOL    HW2 1536   0.327   1.394   0.636  1.2511 -1.2344  0.6245
  513SOL     OW 1537   0.509   2.056   1.152 -0.1039  0.1232 -0.2152
  513SOL    HW1 1538   0.445   1.993   1.102 -2.0688 -3.2935 -0.6092
  513SOL    HW2 1539   0.508   2.149   1.112 -1.4088 -0.3576  1.5341
  514SOL     OW 1540   0.211   2.088   0.334 -0.5705 -0.3785 -0.4120
  514SOL    HW1 1541   0.108   2.094   0.346  3.5670 -1.9369  1.0181
  514SOL    HW2 1542   0.231   1.990   0.310  0.5996  0.2192 -0.7566
  515SOL     OW 1543   2.824   0.074   3.042 -0.7202  0.4075  0.3148
  515SOL    HW1 1544   2.791   3.083   3.014  0.6588  0.6926  0.1751
  515SOL    HW2 1545   2.903   0.062   0.002 -0.0582 -1.8142  2.3231
  516SOL     OW 1546   1.913   3.031   1.183  0.1498 -0.6151 -0.0303
  516SOL    HW1 1547   1.829   3.088   1.204  2.1479 -1.0026  1.4145
  516SOL    HW2 1548   1.932   2.968   1.261  5.0339  1.2522 -3.6650
  517SOL     OW 1549   1.754   1.580   0.654  0.2284 -0.3125 -0.3994
  517SOL    HW1 1550   1.785   1.656   0.718  1.4084 -1.6049  0.1495
  517SOL    HW2 1551   1.705   1.511   0.708  0.4343 -2.5807 -1.0746
  518SOL     OW 1552   1.432   0.456   1.008 -0.3448  0.0475  0.1017
  518SOL    HW1 1553   1.334   0.464   0.980  1.3396 -0.3156  1.3866
  518SOL    HW2 1554   1.490   0.430   0.927 -1.8094  0.7090 -2.0530
  519SOL     OW 1555   2.806   2.289   0.207 -0.1008 -0.0381 -0.3941
  519SOL    HW1 1556   2.804   2.374   0.266 -1.0636 -1.3226  0.2999
  519SOL    HW2 1557   2.864   2.302   0.125 -1.5353 -0.4338  1.6473
  520SOL     OW 1558   1.920   2.078   1.917 -0.0635 -0.1415  0.4398
  520SOL    HW1 1559   1.893   2.003   1.980  0.8821  0.4415  1.0979
  520SOL    HW2 1560   1.928   2.041   1.824 -0.3203  2.4086 -0.9734
  521SOL     OW 1561   1.534   2.720   2.220 -0.3936 -0.6961 -0.1313
  521SOL    HW1 1562   1.440   2.707   2.179  0.6854 -1.4961  1.1351
  521SOL    HW2 1563   1.538   2.804   2.280 -0.8472  2.7031 -0.5655
  522SOL     OW 1564   2.823   0.127   1.831 -0.6043 -0.1811  0.1571
  522SOL    HW1 1565   2.805   0.207   1.764 -0.6765  2.3192 -2.7949
  522SOL    HW2 1566   2.810   0.040   1.781  2.9530 -3.5646  3.2615
  523SOL     OW 1567   1.026   2.321   1.546  0.2614 -0.0358  0.6213
  523SOL    HW1 1568   0.927   2.293   1.528 -1.8263 -0.4564  0.9444
  523SOL    HW2 1569   1.070   2.367   1.467 -1.0586  2.2695  0.3416
  524SOL     OW 1570   2.302   2.239   2.940  0.2878  0.4407 -0.0271
  524SOL    HW1 1571   2.322   2.160   2.881 -0.5744 -1.2139 -0.7470
  524SOL    HW2 1572   2.266   2.212   3.032 -1.4988 -1.1566 -0.7404
  525SOL     OW 1573   2.871   0.907   0.117 -0.1075  0.4078  0.3214
  525SOL    HW1 1574   2.971   0.912   0.128 -1.2436 -0.6801 -0.1175
  525SOL    HW2 1575   2.847   0.931   0.020 -0.6590  2.4874 -0.4616
  526SOL     OW 1576   0.761   2.899   0.836  0.0008 -0.2960 -0.2659
  526SOL    HW1 1577   0.844   2.878   0.893  0.6573 -0.0500  2.1918
  526SOL    HW2 1578   0.751   2.999   0.817  2.9173 -2.4002  1.8488
  527SOL     OW 1579   2.598   1.333   0.637 -0.3560  0.3915  0.0121
  527SOL    HW1 1580   2.525   1.260   0.631 -2.0988  1.3172 -1.0128
  527SOL    HW2 1581   2.575   1.405   0.569 -0.6330 -0.8398  0.2621
  528SOL     OW 1582   0.635   0.766   2.543 -0.0727 -0.2827 -0.2333
  528SOL    HW1 1583   0.705   0.812   2.488 -0.0021  1.3458  1.0283
  528SOL    HW2 1584   0.536   0.789   2.508 -2.8009  0.2524 -0.8593
  529SOL     OW 1585   0.759   1.433   3.063 -0.4995  0.1018  0.0722
  529SOL    HW1 1586   0.707   1.522   3.064  2.3564  1.5528 -0.7814
  529SOL    HW2 1587   0.707   1.359   0.010  1.4368  2.0964 -0.9035
  530SOL     OW 1588   1.418   1.035   1.997 -0.5497 -0.2854 -0.3874
  530SOL    HW1 1589   1.494   1.098   2.026  1.9541  1.2579  1.2361
  530SOL    HW2 1590   1.462   0.953   1.964  2.2117  0.7626 -1.5034
  531SOL     OW 1591   1.178   1.879   0.100  0.5375  0.4128  0.0739
  531SOL    HW1 1592   1.082   1.847   0.103 -1.2970  1.7283 -1.7206
  531SOL    HW2 1593   1.235   1.815   0.152 -0.2642  2.2763  2.3957
  532SOL     OW 1594   2.227   0.953   2.920 -0.3860 -0.2035  0.3782
  532SOL    HW1 1595   2.170   0.908   2.989  0.8399  0.4800  1.0218
  532SOL    HW2 1596   2.168   1.027   2.877  0.1759 -0.4779  1.8022
  533SOL     OW 1597   0.013   0.467   1.979 -0.0347  0.4607 -0.3071
  533SOL    HW1 1598   3.070   0.381   1.982 -0.2636  3.3726 -1.0813
  533SOL    HW2 1599   3.047   0.540   1.937 -3.0335 -1.3939  0.4102
  534SOL     OW 1600   1.824   0.069   0.205 -0.7768 -0.0170  0.1523
  534SOL    HW1 1601   1.860   3.085   0.251  1.6007 -1.1467  0.0477
  534SOL    HW2 1602   1.899   0.121   0.157 -0.8575  1.0255 -2.0310
  535SOL     OW 1603   0.373   0.192   2.685  0.1124 -0.2309 -0.5729
  535SOL    HW1 1604   0.417   0.169   2.597 -2.6059 -0.3307  1.2325
  535SOL    HW2 1605   0.383   0.293   2.701 -1.4084  0.3630  1.5089
  536SOL     OW 1606   0.806   1.959   1.672 -0.2994  0.0445  0.0056
  536SOL    HW1 1607   0.769   1.867   1.640 -0.3368  2.5208 -1.1602
  536SOL    HW2 1608   0.885   1.993   1.621  0.2241  1.7598  1.2266
  537SOL     OW 1609   2.949   2.693   1.625  0.4499  0.9962 -0.8540
  537SOL    HW1 1610   3.035   2.736   1.615 -3.8430 -1.3189  0.8190
  537SOL    HW2 1611   2.882   2.739   1.561  0.5790  0.7435 -0.6572
  538SOL     OW 1612   3.057   2.115   0.404  0.1509 -0.6565 -0.1856
  538SOL    HW1 1613   3.010   2.075   0.483  0.1792  1.2124  0.5939
  538SOL    HW2 1614   3.001   2.116   0.318  0.1265 -1.4481 -1.1256
  539SOL     OW 1615   2.429   1.020   2.721  0.4702 -0.0754 -0.3814
  539SOL    HW1 1616   2.341   0.995   2.768  0.1718  1.4374  0.2019
  539SOL    HW2 1617   2.488   1.082   2.783  3.8799  0.1659 -0.2770
  540SOL     OW 1618   1.927   0.655   0.111  0.4105  0.2684 -0.5815
  540SOL    HW1 1619   1.848   0.715   0.132 -2.1001 -0.5871  1.5532
  540SOL    HW2 1620   1.899   0.576   0.048 -1.0100  2.6341  1.2645
  541SOL     OW 1621   0.901   0.490   2.104 -0.3585 -0.0749 -0.5234
  541SOL    HW1 1622   0.895   0.552   2.188  0.0332  0.9005 -0.4943
  541SOL    HW2 1623   0.811   0.435   2.092  1.5520 -1.3768  2.4807
  542SOL     OW 1624   1.638   2.470   2.188 -0.2651 -0.3559 -0.0391
  542SOL    HW1 1625   1.593   2.565   2.189  0.2951  2.1662 -1.4117
  542SOL    HW2 1626   1.702   2.468   2.110  0.3347  1.9094  1.7545
  543SOL     OW 1627   0.939   2.762   0.330  0.3515 -0.2777 -0.3904
  543SOL    HW1 1628   0.965   2.855   0.370  0.1314 -1.1620 -0.6223
  543SOL    HW2 1629   0.885   2.774   0.241 -0.4439  1.6169 -0.9199
  544SOL     OW 1630   2.819   1.933   2.066  0.6219  0.2484  0.5381
  544SOL    HW1 1631   2.914   1.908   2.085  0.7363  1.4867  1.9782
  544SOL    HW2 1632   2.752   1.910   2.142  0.1032 -0.2974 -2.1725
  545SOL     OW 1633   1.428   2.255   1.371  0.1135  0.5589  0.4927
  545SOL    HW1 1634   1.364   2.230   1.447  1.2107  1.5998  0.1377
  545SOL    HW2 1635   1.387   2.221   1.284  2.5395 -0.5519 -1.1153
  546SOL     OW 1636   0.338   0.077   2.265  0.1425 -0.0981 -0.1245
  546SOL    HW1 1637   0.411   0.077   2.335 -0.9570 -1.3573  1.7997
  546SOL    HW2 1638   0.249   0.057   2.315 -2.5158 -0.5686 -1.9889
  547SOL     OW 1639   1.137   0.212   0.379  0.2331 -0.3645  0.3383
  547SOL    HW1 1640   1.044   0.206   0.328  0.1601 -1.4761 -1.8509
  547SOL    HW2 1641   1.124   0.195   0.477 -0.9053  0.5042 -1.5763
  548SOL     OW 1642   1.544   1.889   0.112  0.0445 -0.2792 -0.3244
  548SOL    HW1 1643   1.574   1.981   0.143 -0.5940 -1.1659  1.4078
  548SOL    HW2 1644   1.541   1.880   0.012 -1.6714  0.7519  2.0647
  549SOL     OW 1645   2.148   0.974   0.421  0.0776  0.5002  0.3525
  549SOL    HW1 1646   2.099   0.996   0.333 -0.3527  2.0170  0.2672
  549SOL    HW2 1647   2.248   0.990   0.408 -0.9427  1.1278  1.9438
  550SOL     OW 1648   2.675   2.156   0.409 -0.5486  0.3992  0.2501
  550SOL    HW1 1649   2.583   2.168   0.366 -1.5668 -1.9028 -0.6499
  550SOL    HW2 1650   2.751   2.180   0.340  1.2005 -0.9705 -2.0412
  551SOL     OW 1651   1.273   0.504   1.523  0.5390  0.3590 -0.3883
  551SOL    HW1 1652   1.336   0.506   1.444  0.4891 -1.4562  1.8482
  551SOL    HW2 1653   1.206   0.429   1.505  1.4537 -1.3034  0.3914
  552SOL     OW 1654   0.144   2.159   2.895  0.1976 -0.4317 -0.3263
  552SOL    HW1 1655   0.184   2.064   2.911  2.0170 -0.1560 -0.0280
  552SOL    HW2 1656   0.060   2.167   2.947  6.7588 -2.5641 -1.3094
  553SOL     OW 1657   2.829   2.684   0.710  0.3431  0.6178  0.1636
  553SOL    HW1 1658   2.757   2.673   0.782  2.1905  0.4990  0.6706
  553SOL    HW2 1659   2.880   2.597   0.708 -2.2013  1.5008  0.3956
  554SOL     OW 1660   1.832   1.356   1.597  0.6404 -0.2487  0.7404
  554SOL    HW1 1661   1.859   1.261   1.582 -1.4002  3.6102  1.7969
  554SOL    HW2 1662   1.851   1.402   1.506 -0.1590  2.6055 -2.7774
  555SOL     OW 1663   1.248   2.232   2.173 -0.1983  0.0203  0.2777
  555SOL    HW1 1664   1.212   2.202   2.262 -0.4115 -0.7707 -1.3455
  555SOL    HW2 1665   1.166   2.281   2.131 -0.2136 -1.3470 -0.1477
  556SOL     OW 1666   1.331   1.695   1.865  0.7873 -0.2649  0.7352
  556SOL    HW1 1667   1.277   1.613   1.876  1.6416 -1.8592  0.5553
  556SOL    HW2 1668   1.413   1.679   1.815 -2.1176 -0.6849  0.8967
  557SOL     OW 1669   1.544   0.073   1.785 -0.5090  0.0609 -0.0551
  557SOL    HW1 1670   1.582   3.084   1.799 -1.1538  2.8905 -1.5535
  557SOL    HW2 1671   1.448   0.066   1.792  4.3923  1.5107 -1.2497
  558SOL     OW 1672   0.481   2.991   2.103 -0.1281  0.7244  0.4212
  558SOL    HW1 1673   0.451   2.971   2.007 -4.4735  1.0277 -3.9556
  558SOL    HW2 1674   0.417   3.056   2.146  0.9271 -0.9358 -0.1561
  559SOL     OW 1675   1.703   2.500   0.343  0.4539  0.3244 -0.0821
  559SOL    HW1 1676   1.654   2.509   0.255 -1.3891 -1.3826  0.0021
  559SOL    HW2 1677   1.729   2.589   0.385  1.7980 -1.2244 -0.1349
  560SOL     OW 1678   1.257   1.997   0.395  0.6397  0.1797  0.0025
  560SOL    HW1 1679   1.329   1.926   0.363  2.7962 -1.9787 -1.2222
  560SOL    HW2 1680   1.262   2.080   0.339 -0.1621  0.5413  2.5538
  561SOL     OW 1681   1.320   0.434   0.361 -0.2870  0.4459 -0.4480
  561SOL    HW1 1682   1.410   0.380   0.366  1.6918 -4.1776 -1.2122
  561SOL    HW2 1683   1.241   0.368   0.357 -1.4864 -2.1530  0.6153
  562SOL     OW 1684   0.626   1.351   1.922 -0.4358  0.8390 -0.4604
  562SOL    HW1 1685   0.722   1.370   1.961 -1.6835 -1.0168  2.9281
  562SOL    HW2 1686   0.629   1.291   1.840  0.3853 -1.7589  1.6706
  563SOL     OW 1687   1.562   2.198   2.843 -0.1890 -0.6949  0.1559
  563SOL    HW1 1688   1.472   2.161   2.871  1.3139  0.5308  0.2052
  563SOL    HW2 1689   1.633   2.137   2.861  0.5479  1.0411  0.7482
  564SOL     OW 1690   2.815   0.933   0.870 -0.6467 -0.9747  0.4205
  564SOL    HW1 1691   2.749   0.854   0.864 -2.0780 -0.7586  0.7922
  564SOL    HW2 1692   2.800   0.988   0.958 -2.0042  1.1602  1.4213
  565SOL     OW 1693   0.618   1.204   0.041 -0.0173  0.2171  0.2101
  565SOL    HW1 1694   0.549   1.171   3.076  1.5890  1.3635 -1.6409
  565SOL    HW2 1695   0.692   1.130   0.046 -1.0503 -1.1656  0.4088
  566SOL     OW 1696   2.385   2.824   2.823 -0.3019 -0.5076  0.0896
  566SOL    HW1 1697   2.395   2.882   2.910 -1.5020  1.1951 -0.0173
  566SOL    HW2 1698   2.298   2.772   2.832 -1.1516  0.5402 -1.1226
  567SOL     OW 1699   1.394   1.361   1.340  0.3752  0.5302 -0.2885
  567SOL    HW1 1700   1.475   1.405   1.303 -2.0781 -0.5791 -0.0949
  567SOL    HW2 1701   1.382   1.399   1.439  0.8967  3.9785  1.1635
  568SOL     OW 1702   1.444   1.022   3.008 -0.0189  0.0978 -0.2299
  568SOL    HW1 1703   1.347   0.999   2.978 -0.2544 -1.9454  0.1374
  568SOL    HW2 1704   1.462   1.120   2.990 -1.2972 -2.2680  0.9466
  569SOL     OW 1705   2.228   2.162   0.083 -0.2832 -0.3607 -0.8709
  569SOL    HW1 1706   2.193   2.079   0.043 -1.2147  2.4151  0.6010
  569SOL    HW2 1707   2.197   2.161   0.179 -0.5517  1.3802  0.5997
  570SOL     OW 1708   2.796   2.244   2.212 -0.2399  0.1862  0.0165
  570SOL    HW1 1709   2.817   2.329   2.159 -0.9097  0.5089 -0.5773
  570SOL    HW2 1710   2.878   2.190   2.234  1.2078 -0.3456  1.7931
  571SOL     OW 1711   2.882   1.923   1.777 -0.3531 -0.0791 -0.5108
  571SOL    HW1 1712   2.929   1.836   1.746  1.6044 -2.6047  1.3439
  571SOL    HW2 1713   2.865   1.919   1.875  0.4382  1.7574 -1.3597
  572SOL     OW 1714   1.564   2.188   0.298 -0.0492 -0.3146 -0.1447
  572SOL    HW1 1715   1.466   2.212   0.268 -0.7754  2.4411  1.4605
  572SOL    HW2 1716   1.630   2.265   0.286  1.3280  1.8689 -0.4754
  573SOL     OW 1717   1.384   1.736   0.701 -0.0556  0.0095 -0.1800
  573SOL    HW1 1718   1.458   1.758   0.632  1.0499  0.7733 -2.2950
  573SOL    HW2 1719   1.351   1.826   0.738  0.2737  2.4283  1.1072
  574SOL     OW 1720   1.313   0.051   1.548  0.2665  0.0918  0.3360
  574SOL    HW1 1721   1.388   3.081   1.541  0.1429  0.1199 -0.4312
  574SOL    HW2 1722   1.278   0.062   1.640 -0.1964 -3.5477 -1.7442
  575SOL     OW 1723   0.766   0.920   1.037 -0.1947  0.1657 -0.1348
  575SOL    HW1 1724   0.763   0.856   1.116 -0.8524  1.9574  2.5001
  575SOL    HW2 1725   0.705   0.884   0.965 -1.6937 -1.8141 -0.3351
  576SOL     OW 1726   2.797   0.174   1.184 -0.2555 -0.1386 -0.1733
  576SOL    HW1 1727   2.785   0.182   1.086  0.7212 -2.4620  0.2392
  576SOL    HW2 1728   2.715   0.196   1.241 -2.0827  0.4609  0.5668
  577SOL     OW 1729   1.622   0.550   2.550  0.0709 -0.2514 -0.3896
  577SOL    HW1 1730   1.527   0.541   2.510  2.0699 -1.9874  0.5093
  577SOL    HW2 1731   1.668   0.628   2.500 -2.7046 -1.2062  1.3231
  578SOL     OW 1732   2.014   1.538   2.445  0.6124  0.6777 -0.2192
  578SOL    HW1 1733   1.939   1.508   2.513 -1.1774  0.5816  3.0096
  578SOL    HW2 1734   2.052   1.629   2.469  3.0766  1.6470  0.4499
  579SOL     OW 1735   0.352   1.614   1.233 -0.7178 -0.2302 -0.2705
  579SOL    HW1 1736   0.256   1.648   1.261  0.9807  1.5540  0.1209
  579SOL    HW2 1737   0.352   1.561   1.145 -0.7713  0.3369 -1.3565
  580SOL     OW 1738   1.388   2.308   3.085 -0.3484 -0.9712 -0.6594
  580SOL    HW1 1739   1.487   2.310   0.015  1.5106 -2.1120 -0.2065
  580SOL    HW2 1740   1.371   2.214   3.053 -0.8989 -1.5048  1.7766
  581SOL     OW 1741   0.979   0.895   2.100 -0.4670 -1.1026  0.1167
  581SOL    HW1 1742   0.939   0.994   2.093  0.6673 -0.3841  1.9897
  581SOL    HW2 1743   0.960   0.850   2.011  2.2723  3.0352 -0.9121
  582SOL     OW 1744   0.616   1.171   1.046  0.3565  0.1414 -1.1558
  582SOL    HW1 1745   0.671   1.085   1.038 -2.8161 -1.9775 -0.5185
  582SOL    HW2 1746   0.668   1.255   1.030 -0.7732  0.3233 -0.1863
  583SOL     OW 1747   0.862   1.413   2.027 -0.1366  0.1150  0.6598
  583SOL    HW1 1748   0.890   1.472   1.948 -1.6207  1.7441  1.0801
  583SOL    HW2 1749   0.927   1.432   2.106  2.1423  0.4255  0.6425
  584SOL     OW 1750   2.195   2.605   0.538  0.2226 -0.0460  0.2349
  584SOL    HW1 1751   2.096   2.604   0.575 -0.1793 -0.5113  1.9672
  584SOL    HW2 1752   2.214   2.681   0.472 -0.4525 -2.7980  1.0476
  585SOL     OW 1753   1.805   0.473   3.038 -0.4080 -0.0322  0.9451
  585SOL    HW1 1754   1.756   0.467   0.032 -1.6192  0.5059  1.6756
  585SOL    HW2 1755   1.757   0.537   2.977 -2.5656  0.2808  1.9161
  586SOL     OW 1756   0.175   1.623   0.445 -0.0746 -0.3949  0.5492
  586SOL    HW1 1757   0.101   1.566   0.407 -0.5533 -0.9111 -1.6035
  586SOL    HW2 1758   0.230   1.571   0.517  2.1904 -2.9905  0.3995
  587SOL     OW 1759   1.623   1.970   0.751  0.3598  0.2730  0.3661
  587SOL    HW1 1760   1.681   2.050   0.755  0.4582 -1.0466  0.4992
  587SOL    HW2 1761   1.674   1.894   0.799 -0.9643  0.3187  0.9757
  588SOL     OW 1762   0.454   0.333   1.005  0.4732  0.7193 -0.0736
  588SOL    HW1 1763   0.374   0.372   1.059  0.9730 -0.1834  1.9031
  588SOL    HW2 1764   0.491   0.246   1.049 -2.0385 -2.6357  0.7166
  589SOL     OW 1765   1.171   0.414   0.927 -0.0693 -0.0318  0.3727
  589SOL    HW1 1766   1.087   0.360   0.913 -2.3297  0.2899  1.4778
  589SOL    HW2 1767   1.163   0.511   0.889 -0.6293  1.5679 -1.5670
  590SOL     OW 1768   1.401   0.842   0.253 -0.2669 -0.5894 -0.1404
  590SOL    HW1 1769   1.312   0.881   0.237 -0.9703 -0.1542 -2.9315
  590SOL    HW2 1770   1.432   0.852   0.350 -0.3101 -0.5803  0.1728
  591SOL     OW 1771   2.581   2.574   2.501  0.0165 -0.5122 -0.0343
  591SOL    HW1 1772   2.586   2.508   2.581 -0.6655 -0.7490  0.6825
  591SOL    HW2 1773   2.672   2.598   2.466  2.1420  0.0841 -1.9081
  592SOL     OW 1774   1.479   2.050   0.963  0.4092 -0.1499 -0.0159
  592SOL    HW1 1775   1.535   2.022   0.885  0.2014  0.3486 -0.1425
  592SOL    HW2 1776   1.474   2.150   0.966  1.0127  1.6748  1.4114
  593SOL     OW 1777   1.042   0.009   1.076 -0.3497  0.0485  0.1969
  593SOL    HW1 1778   1.049   3.013   1.036 -0.9621 -0.0440 -0.8237
  593SOL    HW2 1779   1.135   0.052   1.084 -3.8940  1.2570 -0.7398
  594SOL     OW 1780   0.343   1.047   2.170  0.3204  0.1116  0.2033
  594SOL    HW1 1781   0.289   1.121   2.126 -0.3413  1.3110  2.2341
  594SOL    HW2 1782   0.314   0.953   2.143  0.5347  0.8620  0.1168
  595SOL     OW 1783   0.362   2.507   1.083 -0.2378  0.5229 -0.3751
  595SOL    HW1 1784   0.314   2.523   1.173 -2.2669  2.7261  1.0383
  595SOL    HW2 1785   0.399   2.599   1.051 -0.1813  1.4858  2.3490
  596SOL     OW 1786   0.128   0.878   1.616 -0.0121 -0.5410 -0.0343
  596SOL    HW1 1787   0.223   0.847   1.607 -1.5498  0.2091 -1.1172
  596SOL    HW2 1788   0.102   0.929   1.701  0.7969 -1.0704  1.9830
  597SOL     OW 1789   1.903   1.948   0.403  0.0976 -0.1402 -0.1554
  597SOL    HW1 1790   1.824   1.967   0.471  3.4045  2.6477  1.2456
  597SOL    HW2 1791   1.958   1.871   0.433 -4.6804  2.3602 -1.3348
  598SOL     OW 1792   0.426   2.737   1.816 -0.0567  0.2408 -0.4292
  598SOL    HW1 1793   0.451   2.710   1.724 -1.0868 -0.5129  2.9990
  598SOL    HW2 1794   0.414   2.660   1.877 -1.9129  1.2061  0.6410
  599SOL     OW 1795   2.632   2.102   2.982  0.1880  0.1191  0.1979
  599SOL    HW1 1796   2.542   2.053   2.956  0.4219 -0.7393 -2.5728
  599SOL    HW2 1797   2.670   2.048   3.060  0.4744  2.2708 -3.3694
  600SOL     OW 1798   0.650   0.844   0.217  0.5239  0.5143  0.3748
  600SOL    HW1 1799   0.716   0.898   0.161  1.8524 -0.7514 -1.3224
  600SOL    HW2 1800   0.666   0.862   0.315  0.0464 -3.1471 -0.1454
  601SOL     OW 1801   0.981   0.845   0.354  0.2507 -0.4108  0.2921
  601SOL    HW1 1802   1.059   0.886   0.409  1.2848 -1.3905 -0.4433
  601SOL    HW2 1803   0.897   0.890   0.394 -1.3275 -1.0491 -0.7010
  602SOL     OW 1804   1.435   2.720   0.921  0.0894 -0.0121  0.1938
  602SOL    HW1 1805   1.512   2.783   0.927 -2.0365 -2.5825  2.1892
  602SOL    HW2 1806   1.434   2.675   0.832  1.4160  2.7380  0.9049
  603SOL     OW 1807   0.731   2.935   2.169  0.2254 -0.0154  0.3540
  603SOL    HW1 1808   0.645   2.964   2.123 -0.6284 -1.0880  2.0861
  603SOL    HW2 1809   0.805   2.935   2.098 -1.7656  1.9987 -0.4424
  604SOL     OW 1810   2.995   0.027   2.228  0.7071 -0.1589  0.5810
  604SOL    HW1 1811   3.031   3.043   2.189  0.1430  1.7813  3.7206
  604SOL    HW2 1812   3.046   0.050   2.312 -0.2241 -3.0796 -2.7120
  605SOL     OW 1813   2.742   2.251   1.196  0.3414 -0.1088 -0.5880
  605SOL    HW1 1814   2.724   2.320   1.121 -0.0273 -0.4847 -0.6877
  605SOL    HW2 1815   2.660   2.242   1.259 -0.0463 -0.4621 -0.1279
  606SOL     OW 1816   0.402   1.506   2.920 -0.2283 -0.4555 -0.6928
  606SOL    HW1 1817   0.465   1.560   2.986  0.1423  0.0661  0.6061
  606SOL    HW2 1818   0.381   1.564   2.836  1.2693  3.0539 -1.0524
  607SOL     OW 1819   0.914   0.435   0.102  0.1519 -0.5135 -0.6051
  607SOL    HW1 1820   0.918   0.534   0.136 -0.2019  2.0118  1.2928
  607SOL    HW2 1821   0.991   0.424   0.032 -1.4337 -2.7633 -2.4938
  608SOL     OW 1822   1.700   1.140   2.276  0.0375  0.0046 -0.0760
  608SOL    HW1 1823   1.609   1.094   2.287 -0.1223 -1.9973 -0.5173
  608SOL    HW2 1824   1.732   1.180   2.368  0.2451  1.0026 -1.9133
  609SOL     OW 1825   3.080   0.126   0.914  0.5090  0.6970 -0.5159
  609SOL    HW1 1826   0.030   0.199   0.960 -3.0205 -1.5454  0.2672
  609SOL    HW2 1827   2.981   0.120   0.947 -1.2051  1.4475  1.2551
  610SOL     OW 1828   0.489   2.565   0.044 -0.1132  0.2690  0.3186
  610SOL    HW1 1829   0.547   2.502   0.095 -4.3217  3.5907 -1.8483
  610SOL    HW2 1830   0.462   2.643   0.103 -2.1871 -4.9127 -0.9645
  611SOL     OW 1831   1.777   1.148   0.319  0.0313 -0.3470  0.0140
  611SOL    HW1 1832   1.859   1.092   0.307  0.0519 -1.4543 -0.1554
  611SOL    HW2 1833   1.698   1.111   0.264 -2.3165  0.1602  0.7873
  612SOL     OW 1834   0.966   2.268   2.511  0.2910  0.0771  0.2003
  612SOL    HW1 1835   0.921   2.185   2.552 -2.1599 -2.7453  0.4512
  612SOL    HW2 1836   0.987   2.339   2.583 -0.7318  1.9935  1.0007
  613SOL     OW 1837   1.019   2.173   2.923 -0.0180  0.2513 -0.1088
  613SOL    HW1 1838   1.104   2.122   2.938 -0.1963  0.0736  0.2201
  613SOL    HW2 1839   0.937   2.114   2.911  1.9524 -0.8139  1.6406
  614SOL     OW 1840   2.791   2.828   1.447 -0.0585  0.2095  0.3350
  614SOL    HW1 1841   2.828   2.897   1.384 -0.6939  2.6947  0.6522
  614SOL    HW2 1842   2.772   2.747   1.388 -2.5740 -1.2504 -0.0920
  615SOL     OW 1843   2.187   1.359   3.036  0.3358  0.2727  0.4038
  615SOL    HW1 1844   2.097   1.344   2.989 -0.4435 -0.4196 -1.2205
  615SOL    HW2 1845   2.236   1.440   2.998  0.6678  1.2941  1.7326
  616SOL     OW 1846   1.544   0.060   0.459 -0.3216  0.1932  0.0081
  616SOL    HW1 1847   1.506   0.104   0.377  0.8716  0.5440 -0.5587
  616SOL    HW2 1848   1.622   0.116   0.495  2.3584  0.6960 -0.3595
  617SOL     OW 1849   0.826   1.025   0.081 -0.2211 -0.3451 -0.3961
  617SOL    HW1 1850   0.874   1.054   3.097 -0.2082  0.0718  1.4272
  617SOL    HW2 1851   0.878   1.070   0.158 -1.6841 -0.9104 -0.4438
  618SOL     OW 1852   0.646   0.396   2.006 -0.0597 -0.1810 -0.2310
  618SOL    HW1 1853   0.552   0.355   2.019 -3.7180  0.5946 -1.0181
  618SOL    HW2 1854   0.647   0.492   1.966 -0.5004  1.1790 -0.6932
  619SOL     OW 1855   0.141   1.175   1.493 -0.1741  0.3495  0.6331
  619SOL    HW1 1856   0.061   1.207   1.437 -1.7531 -1.0963 -0.6415
  619SOL    HW2 1857   0.141   1.073   1.499 -1.3914 -0.2505  0.0764
  620SOL     OW 1858   1.930   1.084   3.059 -0.3331 -0.0941  0.0032
  620SOL    HW1 1859   1.926   1.161   2.992 -0.2488  2.7350  2.0968
  620SOL    HW2 1860   1.885   0.996   3.030 -0.3040 -0.7679 -0.7149
  621SOL     OW 1861   2.343   2.869   1.140  0.3203  0.1342  0.4385
  621SOL    HW1 1862   2.277   2.943   1.160  2.2371 -3.1370 -0.8749
  621SOL    HW2 1863   2.382   2.833   1.229 -1.5326  0.9524 -2.4223
  622SOL     OW 1864   1.327   0.851   2.580 -0.0836 -0.0754  0.1644
  622SOL    HW1 1865   1.418   0.900   2.583 -0.6694  0.4298  2.8121
  622SOL    HW2 1866   1.321   0.778   2.649 -2.2238 -3.7965  0.3599
  623SOL     OW 1867   1.104   0.356   2.998  0.3342 -0.1947  0.0809
  623SOL    HW1 1868   1.065   0.378   2.905  0.7176 -1.8290 -0.7524
  623SOL    HW2 1869   1.069   0.267   3.033  0.5222 -0.1156 -0.1191
  624SOL     OW 1870   1.588   0.418   0.424 -0.5018  0.5424 -0.0048
  624SOL    HW1 1871   1.528   0.449   0.502 -1.0093  2.2620 -1.5279
  624SOL    HW2 1872   1.665   0.355   0.450  0.0245  0.9754 -3.1840
  625SOL     OW 1873   0.707   1.454   0.975 -0.1231 -0.3700  0.0459
  625SOL    HW1 1874   0.812   1.456   0.994  4.8303 -1.0892  0.9780
  625SOL    HW2 1875   0.669   1.539   1.018  2.0728  1.0189  3.7182
  626SOL     OW 1876   1.574   1.077   0.152  0.0218 -0.4152  0.0369
  626SOL    HW1 1877   1.495   1.111   0.200 -0.2127 -1.4182 -3.4469
  626SOL    HW2 1878   1.546   1.012   0.083  1.2972 -1.4369  1.9775
  627SOL     OW 1879   0.927   2.928   1.973 -0.7005  0.2220  0.1426
  627SOL    HW1 1880   0.962   2.876   1.892  0.3184 -0.1304  0.3605
  627SOL    HW2 1881   1.002   2.954   2.039  1.3334 -1.5842 -0.5803
  628SOL     OW 1882   2.545   0.270   2.181 -0.4516  0.0265  0.0941
  628SOL    HW1 1883   2.644   0.282   2.196  2.5570  0.7450 -1.3419
  628SOL    HW2 1884   2.493   0.279   2.267 -0.9903  2.1978  1.1920
  629SOL     OW 1885   0.943   1.125   2.967  0.3383 -0.0171 -0.2901
  629SOL    HW1 1886   1.019   1.097   2.905 -0.9512 -0.3984 -0.4912
  629SOL    HW2 1887   0.870   1.153   2.905  2.8081  0.5332  1.3315
  630SOL     OW 1888   1.098   0.179   2.336 -0.2498  0.1222 -0.1871
  630SOL    HW1 1889   1.085   0.278   2.346 -0.0674 -1.4270 -3.8432
  630SOL    HW2 1890   1.132   0.136   2.422 -0.0645  0.9203 -0.1835
  631SOL     OW 1891   2.659   0.619   0.565  0.2988  0.2728 -0.3447
  631SOL    HW1 1892   2.658   0.539   0.626 -2.4959  1.4689 -0.9207
  631SOL    HW2 1893   2.754   0.636   0.527 -0.2871 -0.3351  0.4460
  632SOL     OW 1894   2.407   0.999   1.197  0.1862 -0.0423 -0.7805
  632SOL    HW1 1895   2.351   0.921   1.224 -0.4534  1.7406  1.0062
  632SOL    HW2 1896   2.437   0.989   1.095 -0.3700 -1.1537 -1.3807
  633SOL     OW 1897   1.982   0.689   0.929 -0.1687  0.3255  0.6210
  633SOL    HW1 1898   1.953   0.779   0.893 -0.0430 -0.6214 -2.5245
  633SOL    HW2 1899   1.952   0.682   1.025 -3.0469  2.9474 -3.2752
  634SOL     OW 1900   1.863   2.863   0.787 -0.2955 -0.6088  0.2990
  634SOL    HW1 1901   1.932   2.923   0.837  0.5991 -0.1994 -1.6594
  634SOL    HW2 1902   1.776   2.912   0.780  1.2063  0.9366 -0.4533
  635SOL     OW 1903   1.735   0.876   1.362 -0.5632  0.0884 -0.1468
  635SOL    HW1 1904   1.642   0.836   1.364  1.3847  0.6868  0.3975
  635SOL    HW2 1905   1.721   0.979   1.371 -1.3145  2.5234 -2.4786
  636SOL     OW 1906   0.669   0.643   0.649 -0.4192  0.1070 -0.2049
  636SOL    HW1 1907   0.676   0.572   0.723 -2.2499 -1.5606  2.5702
  636SOL    HW2 1908   0.730   0.619   0.571 -1.1543 -1.1960 -1.8382
  637SOL     OW 1909   1.917   2.347   0.288  0.2718  0.0686 -0.6097
  637SOL    HW1 1910   1.830   2.396   0.317 -1.0463 -0.6733  0.2414
  637SOL    HW2 1911   1.956   2.295   0.363 -1.9696 -0.9166  2.1388
  638SOL     OW 1912   1.456   2.863   2.752  0.1484  0.3347 -0.1028
  638SOL    HW1 1913   1.455   2.920   2.838  2.0531  0.8848 -0.0741
  638SOL    HW2 1914   1.550   2.850   2.712 -0.1442 -0.4363  0.9215
  639SOL     OW 1915   0.741   2.036   1.315 -0.2089 -0.2917  0.1525
  639SOL    HW1 1916   0.666   2.056   1.245 -2.0271 -1.8683 -0.9945
  639SOL    HW2 1917   0.750   2.098   1.395  1.7840 -1.1409 -1.7582
  640SOL     OW 1918   0.167   2.827   0.114  0.1753 -0.1661 -0.2158
  640SOL    HW1 1919   0.100   2.753   0.111  0.6445  0.4204  1.3983
  640SOL    HW2 1920   0.135   2.902   0.178  0.7216  0.8123  1.6638
  641SOL     OW 1921   0.047   0.334   3.029 -0.1566  0.2238  0.4835
  641SOL    HW1 1922   3.097   0.306   0.012  0.5948 -0.4533 -0.6830
  641SOL    HW2 1923   0.127   0.270   3.011 -2.0209  1.0141  1.4277
  642SOL     OW 1924   3.093   1.036   1.213  0.1406 -0.3293  0.4201
  642SOL    HW1 1925   3.007   1.009   1.164 -4.5516 -0.3025 -1.3589
  642SOL    HW2 1926   3.076   1.137   1.241 -0.7907  0.6298  0.8089
  643SOL     OW 1927   0.631   1.847   2.143 -0.6639  0.5489  0.4461
  643SOL    HW1 1928   0.622   1.769   2.206 -0.4220 -0.1523  3.0885
  643SOL    HW2 1929   0.688   1.826   2.058  1.6542  1.7475  1.0828
  644SOL     OW 1930   1.639   2.547   0.691 -0.1435  0.0143 -0.1216
  644SOL    HW1 1931   1.606   2.448   0.696  0.1764 -1.9314  0.0384
  644SOL    HW2 1932   1.575   2.605   0.639 -1.4703  2.5582  1.0339
  645SOL     OW 1933   1.616   2.350   1.175 -0.4866 -0.0613 -0.5501
  645SOL    HW1 1934   1.599   2.344   1.275 -1.5866  0.5784 -0.7838
  645SOL    HW2 1935   1.649   2.442   1.156 -0.3538  1.7254 -0.3181
  646SOL     OW 1936   1.067   2.513   0.144  0.6358 -0.5561  0.5821
  646SOL    HW1 1937   1.115   2.517   0.052  1.0046  0.2540 -1.4957
  646SOL    HW2 1938   1.058   2.599   0.198 -1.4239 -1.6436 -3.2340
  647SOL     OW 1939   0.363   2.992   1.868  0.2662 -0.5089  0.3151
  647SOL    HW1 1940   0.261   2.992   1.849 -1.7316  2.9901 -0.5396
  647SOL    HW2 1941   0.406   2.906   1.842 -1.8475  0.4808 -0.0975
  648SOL     OW 1942   2.079   0.916   1.123  0.2157 -0.2830 -0.2779
  648SOL    HW1 1943   2.008   0.847   1.124  1.7666  1.9974  3.3804
  648SOL    HW2 1944   2.095   0.953   1.030 -2.5040 -0.7008  0.3515
  649SOL     OW 1945   1.937   2.298   3.009 -0.2360  0.1968  0.0240
  649SOL    HW1 1946   1.992   2.329   3.088  2.1547  2.2846 -0.4856
  649SOL    HW2 1947   1.953   2.351   2.925  0.1728 -1.2742  0.9074
  650SOL     OW 1948   2.654   1.868   1.643  0.3979  0.3733  0.2232
  650SOL    HW1 1949   2.746   1.899   1.675 -0.0797 -1.0194 -1.1174
  650SOL    HW2 1950   2.597   1.837   1.721 -1.6787 -0.1199 -0.0593
  651SOL     OW 1951   1.569   1.720   2.732  0.3961 -0.5825 -0.2808
  651SOL    HW1 1952   1.628   1.751   2.805  3.5539  0.2551  0.7933
  651SOL    HW2 1953   1.482   1.778   2.725 -0.6797  1.7458 -2.7335
  652SOL     OW 1954   0.991   2.871   2.781  0.0131 -0.3354  0.1716
  652SOL    HW1 1955   1.070   2.820   2.819  1.0198 -0.1050 -2.6422
  652SOL    HW2 1956   1.014   2.970   2.761 -1.6782 -1.0006 -0.6636
  653SOL     OW 1957   1.946   2.340   1.181 -0.1039  0.2491  0.3945
  653SOL    HW1 1958   1.903   2.278   1.111  1.4927  0.3474  1.4430
  653SOL    HW2 1959   1.994   2.278   1.247  0.8975 -1.4206 -1.6426
  654SOL     OW 1960   2.594   2.947   2.097  0.0817  0.3023  0.3993
  654SOL    HW1 1961   2.612   2.917   2.192  1.4244 -1.4538 -1.0297
  654SOL    HW2 1962   2.579   3.047   2.082 -0.6155 -2.7651 -1.7180
  655SOL     OW 1963   2.799   2.085   0.991 -0.6912  0.0505  0.2029
  655SOL    HW1 1964   2.783   2.147   0.909  0.3157  2.4752 -3.6949
  655SOL    HW2 1965   2.774   2.128   1.082  2.3283  1.6029  0.2180
  656SOL     OW 1966   0.070   2.232   2.614 -0.6259  0.3541 -0.1462
  656SOL    HW1 1967   0.155   2.254   2.561 -0.6600 -0.2703  1.8934
  656SOL    HW2 1968   0.098   2.207   2.708  1.2311 -0.4664  0.1458
  657SOL     OW 1969   2.961   0.834   0.449  0.0072  0.3965 -0.4306
  657SOL    HW1 1970   2.898   0.768   0.401  1.8089 -0.2858 -0.5527
  657SOL    HW2 1971   3.061   0.817   0.432 -1.2755 -1.2421 -0.3896
  658SOL     OW 1972   1.439   1.821   1.110  0.3620  0.0756  0.2732
  658SOL    HW1 1973   1.440   1.810   1.211 -0.0461  1.7149 -0.9370
  658SOL    HW2 1974   1.469   1.918   1.085  0.2541  1.4111  1.7022
  659SOL     OW 1975   1.424   0.481   1.290  0.5814  0.2383 -0.2562
  659SOL    HW1 1976   1.505   0.418   1.301  3.0120  0.7097 -0.8091
  659SOL    HW2 1977   1.399   0.489   1.191 -1.9059 -0.1430 -3.1347
  660SOL     OW 1978   1.968   1.376   0.616  0.0907  0.1563  0.1642
  660SOL    HW1 1979   1.904   1.296   0.602 -2.8455 -1.4851  3.2085
  660SOL    HW2 1980   1.910   1.460   0.613 -0.1994 -2.6109  0.5131
  661SOL     OW 1981   0.490   1.503   0.344 -0.6348  0.3325 -0.0829
  661SOL    HW1 1982   0.529   1.411   0.337  1.3953  0.2668  0.5719
  661SOL    HW2 1983   0.398   1.499   0.382  2.7886  0.0473 -3.6142
  662SOL     OW 1984   2.715   0.996   2.047  0.0449 -0.7679  0.3003
  662SOL    HW1 1985   2.777   0.943   2.113  0.5791 -2.5859  2.3850
  662SOL    HW2 1986   2.624   0.987   2.087  2.6919 -0.3117 -0.4571
  663SOL     OW 1987   2.149   1.440   1.430 -0.1060 -0.1765 -0.5507
  663SOL    HW1 1988   2.180   1.509   1.369  1.6969  0.1549  0.0842
  663SOL    HW2 1989   2.223   1.409   1.498  0.2984 -2.1999  0.5739
  664SOL     OW 1990   0.556   0.110   1.091 -0.0594  0.2552  0.6221
  664SOL    HW1 1991   0.502   0.023   1.075 -2.9300 -0.7398 -1.4091
  664SOL    HW2 1992   0.643   0.103   1.141 -0.6083 -0.5178  0.5811
  665SOL     OW 1993   1.191   0.018   2.831 -0.0625 -0.0095  0.0114
  665SOL    HW1 1994   1.284   0.018   2.876  0.6560 -1.1533  0.0147
  665SOL    HW2 1995   1.124   0.033   2.902  3.3109  1.6457 -1.0075
  666SOL     OW 1996   0.414   0.474   2.316  0.0128 -0.1443  1.2363
  666SOL    HW1 1997   0.447   0.540   2.244 -0.3302  1.0448 -0.0476
  666SOL    HW2 1998   0.472   0.475   2.400  2.2563  1.9678 -1.1658
  667SOL     OW 1999   1.921   1.415   2.023  0.2592  0.0242  0.0452
  667SOL    HW1 2000   1.994   1.440   1.956  0.6341  1.0997 -0.0213
  667SOL    HW2 2001   1.963   1.354   2.096  1.0658 -0.9356 -0.2525
  668SOL     OW 2002   0.220   1.356   2.489 -0.0068 -0.4793  0.1349
  668SOL    HW1 2003   0.156   1.418   2.539 -1.8035  1.1486 -1.3781
  668SOL    HW2 2004   0.274   1.406   2.417  0.5949 -0.4824  4.3048
  669SOL     OW 2005   2.477   0.081   2.425  0.5114  0.1070  0.3121
  669SOL    HW1 2006   2.465   0.075   2.528  0.7170  0.8884 -1.1485
  669SOL    HW2 2007   2.576   0.071   2.397 -0.2482 -2.5711 -0.6410
  670SOL     OW 2008   2.762   1.014   2.614 -0.0121  0.5124  0.3539
  670SOL    HW1 2009   2.804   0.918   2.604  0.9244 -1.8583  0.8708
  670SOL    HW2 2010   2.692   1.017   2.684 -1.4695 -3.3351 -1.6199
  671SOL     OW 2011   2.721   1.937   0.083 -0.3640 -0.3295 -0.5991
  671SOL    HW1 2012   2.730   1.854   0.024  0.2209 -2.7733  0.7478
  671SOL    HW2 2013   2.653   1.913   0.156 -0.9870  0.8231 -1.1544
  672SOL     OW 2014   2.246   1.574   2.126  0.7136 -0.3607  0.3829
  672SOL    HW1 2015   2.192   1.506   2.169 -0.1496  0.4142 -3.9023
  672SOL    HW2 2016   2.342   1.542   2.123 -0.7272 -1.8676  0.3811
  673SOL     OW 2017   2.699   1.540   1.048 -0.7101 -0.1510 -0.4624
  673SOL    HW1 2018   2.616   1.502   0.998 -0.9843  0.7205 -1.7318
  673SOL    HW2 2019   2.739   1.624   1.005  0.6532  0.4151 -2.9152
  674SOL     OW 2020   1.271   1.884   2.046 -0.2407 -0.0510  0.0345
  674SOL    HW1 2021   1.330   1.961   2.022 -0.0227  0.0238  2.0694
  674SOL    HW2 2022   1.296   1.811   1.980 -0.6954 -0.3619 -1.1648
  675SOL     OW 2023   2.896   0.457   1.147  0.1831 -0.0622 -0.2747
  675SOL    HW1 2024   2.986   0.491   1.177  2.4033  0.1185  2.3874
  675SOL    HW2 2025   2.893   0.363   1.184  1.8367 -0.1985 -1.6636
  676SOL     OW 2026   2.880   1.165   0.781  0.2142  0.8006 -0.4179
  676SOL    HW1 2027   2.858   1.161   0.680 -1.0587  1.9164 -2.3933
  676SOL    HW2 2028   2.856   1.076   0.836 -1.2126 -3.6468  0.4417
  677SOL     OW 2029   1.622   1.548   2.274 -0.0417  0.1723  0.1794
  677SOL    HW1 2030   1.709   1.583   2.235  2.7963  1.3696  0.9587
  677SOL    HW2 2031   1.570   1.493   2.209  0.8572  2.9706  0.0387
  678SOL     OW 2032   2.236   1.375   0.979 -0.0136  0.8139 -0.1268
  678SOL    HW1 2033   2.303   1.435   0.926  1.5382  1.1532 -1.7741
  678SOL    HW2 2034   2.282   1.342   1.064  0.4315  2.2437 -0.3313
  679SOL     OW 2035   0.491   2.436   0.596  0.7005 -0.0350  0.0482
  679SOL    HW1 2036   0.530   2.466   0.685  0.0533 -0.0494  1.5741
  679SOL    HW2 2037   0.393   2.408   0.619  1.7045 -4.2249  1.0800
  680SOL     OW 2038   2.825   1.795   0.990 -0.0515  0.0808 -0.0525
  680SOL    HW1 2039   2.891   1.770   0.912  3.5070 -1.1693 -0.5419
  680SOL    HW2 2040   2.796   1.890   0.998 -1.0557  0.5577  2.9620
  681SOL     OW 2041   0.931   0.755   1.318 -0.0982  0.0640 -0.4642
  681SOL    HW1 2042   0.864   0.830   1.335  1.4178  2.7708  1.2579
  681SOL    HW2 2043   0.883   0.666   1.322 -1.7806 -1.9033 -1.3555
  682SOL     OW 2044   1.618   2.969   0.763  0.2795  0.1417  0.0092
  682SOL    HW1 2045   1.606   3.024   0.847  2.9136 -1.9892  0.6066
  682SOL    HW2 2046   1.560   2.999   0.686  0.0246  0.6022 -0.4462
  683SOL     OW 2047   2.348   1.422   1.605  0.3083 -0.4488  0.3325
  683SOL    HW1 2048   2.331   1.506   1.665  2.5364 -2.3730  0.6281
  683SOL    HW2 2049   2.436   1.384   1.641  0.4477  0.5702 -1.8236
  684SOL     OW 2050   0.109   1.791   1.613 -0.1911  0.1334 -0.8630
  684SOL    HW1 2051   0.035   1.797   1.686  1.5426 -1.1235  1.3993
  684SOL    HW2 2052   0.164   1.707   1.627 -1.8591 -0.3191 -0.9174
  685SOL     OW 2053   2.055   1.751   0.193  0.1276  0.4939 -0.0298
  685SOL    HW1 2054   2.058   1.765   0.296 -0.7814  1.2506  1.9689
  685SOL    HW2 2055   1.963   1.723   0.161  2.3327  0.3459  0.4918
  686SOL     OW 2056   2.789   0.093   0.906 -0.3319 -0.1024  0.1141
  686SOL    HW1 2057   2.778   0.108   0.805  0.5857 -0.1646  0.5549
  686SOL    HW2 2058   2.718   0.025   0.938  0.0126 -4.0703  0.3949
  687SOL     OW 2059   1.834   0.119   2.555 -0.1416  0.2669 -0.0850
  687SOL    HW1 2060   1.862   0.029   2.527 -1.0792  3.8781  1.1140
  687SOL    HW2 2061   1.797   0.108   2.651  0.1304 -2.2767 -2.0110
  688SOL     OW 2062   1.459   2.060   2.306  0.3736  0.1015  0.4833
  688SOL    HW1 2063   1.448   1.959   2.288  0.5534 -1.8416  0.5094
  688SOL    HW2 2064   1.387   2.114   2.255 -1.3196  1.0472  0.3187
  689SOL     OW 2065   2.521   1.511   2.118 -0.0654 -0.8278  0.3299
  689SOL    HW1 2066   2.549   1.531   2.022 -2.0624  0.4648 -3.2817
  689SOL    HW2 2067   2.602   1.533   2.175 -1.1274 -3.6375 -0.3071
  690SOL     OW 2068   1.710   1.906   1.188  0.2087 -0.0678  0.2220
  690SOL    HW1 2069   1.679   1.829   1.131 -0.6464  1.6276  0.2903
  690SOL    HW2 2070   1.799   1.883   1.233 -1.4530 -0.1501 -0.2460
  691SOL     OW 2071   0.313   1.293   0.827  0.8186  0.5240 -0.3841
  691SOL    HW1 2072   0.354   1.219   0.773 -2.4484  0.4932 -0.6109
  691SOL    HW2 2073   0.214   1.269   0.853 -1.8409 -0.2363 -1.0468
  692SOL     OW 2074   2.362   2.944   2.318 -0.6069 -0.3386  0.1253
  692SOL    HW1 2075   2.366   2.888   2.402  0.4903 -1.5691 -0.4280
  692SOL    HW2 2076   2.407   3.033   2.334 -0.7015 -2.5647 -0.4413
  693SOL     OW 2077   0.059   1.507   2.177 -0.5064 -0.3372  0.0296
  693SOL    HW1 2078   3.095   1.457   2.238  2.8765 -0.4636 -1.5188
  693SOL    HW2 2079   0.149   1.528   2.218  1.6221  1.0545 -0.8776
  694SOL     OW 2080   2.219   0.060   1.446 -0.2080 -0.6049  0.1170
  694SOL    HW1 2081   2.156   0.129   1.488  0.6472  0.1876  1.4099
  694SOL    HW2 2082   2.233   3.084   1.513  0.7083 -0.5392  0.2440
  695SOL     OW 2083   1.184   0.993   2.869  0.4582  0.6252  0.3530
  695SOL    HW1 2084   1.168   0.891   2.870 -3.9874 -1.0824 -0.1431
  695SOL    HW2 2085   1.182   1.033   2.773 -0.7454  0.7821  0.9243
  696SOL     OW 2086   1.726   0.141   2.011 -0.1835 -0.0742 -0.1165
  696SOL    HW1 2087   1.767   0.230   1.994  0.4503 -1.6383  2.0570
  696SOL    HW2 2088   1.664   0.119   1.931  1.6922  1.8493 -0.0556
  697SOL     OW 2089   1.577   0.149   2.289  0.1423  0.4156  0.2665
  697SOL    HW1 2090   1.607   0.230   2.346 -0.7893 -2.0053  1.6911
  697SOL    HW2 2091   1.622   0.141   2.198  0.9253  0.8805  0.0074
  698SOL     OW 2092   1.884   1.609   2.198 -0.5762  0.1690  0.2012
  698SOL    HW1 2093   1.931   1.588   2.284  0.7452  0.7329 -2.0590
  698SOL    HW2 2094   1.889   1.530   2.130 -0.5120  1.0013 -2.3405
  699SOL     OW 2095   1.933   0.503   0.337 -0.3220  0.0886 -0.0939
  699SOL    HW1 2096   1.932   0.569   0.262 -1.8408 -0.4555  1.3518
  699SOL    HW2 2097   1.888   0.534   0.425 -0.6403  0.2157  0.2306
  700SOL     OW 2098   1.253   0.051   0.179  0.1733  0.5158 -0.1016
  700SOL    HW1 2099   1.222   0.116   0.257 -3.1424  0.7712  2.6432
  700SOL    HW2 2100   1.188   3.076   0.167  3.8544  2.3470  4.0602
  701SOL     OW 2101   0.223   0.487   1.054  0.4556  0.0725 -0.0730
  701SOL    HW1 2102   0.158   0.414   1.088  1.4989 -1.3229 -3.2616
  701SOL    HW2 2103   0.177   0.555   0.993 -2.0970  3.5792  0.0556
  702SOL     OW 2104   1.792   0.159   1.555  0.7741 -0.0147 -0.3312
  702SOL    HW1 2105   1.715   0.207   1.605 -1.1561 -0.0097  1.8635
  702SOL    HW2 2106   1.774   0.059   1.532  0.6956 -3.0999 -0.5553
  703SOL     OW 2107   2.785   0.993   1.545 -0.0261  0.1096  0.0358
  703SOL    HW1 2108   2.795   0.891   1.562 -2.1207 -1.6263 -0.4248
  703SOL    HW2 2109   2.714   1.010   1.469 -3.0217  1.9777  2.7209
  704SOL     OW 2110   0.729   2.388   1.223  0.3640  0.3553 -0.4291
  704SOL    HW1 2111   0.703   2.479   1.257  2.7908 -1.5069 -3.1762
  704SOL    HW2 2112   0.665   2.350   1.154 -0.0835 -0.7704 -0.4607
  705SOL     OW 2113   0.307   1.538   2.279  0.0259  0.0105  0.7596
  705SOL    HW1 2114   0.367   1.503   2.204 -0.1809 -2.1187 -1.1647
  705SOL    HW2 2115   0.341   1.621   2.322  3.8902  1.6199  0.3882
  706SOL     OW 2116   2.671   0.245   0.111  0.0635 -0.1489  0.6958
  706SOL    HW1 2117   2.576   0.233   0.079 -0.9375  1.1605 -0.5341
  706SOL    HW2 2118   2.737   0.175   0.065  3.0518 -2.3052 -1.9015
  707SOL     OW 2119   1.729   2.599   2.428  0.3550 -0.1972 -0.5319
  707SOL    HW1 2120   1.759   2.694   2.405 -0.8487  0.6703 -0.3829
  707SOL    HW2 2121   1.692   2.553   2.349  1.2651  0.2187  0.4707
  708SOL     OW 2122   0.287   2.530   1.671  0.0641 -0.1104  0.3040
  708SOL    HW1 2123   0.289   2.540   1.772 -0.6950  0.7482  0.6468
  708SOL    HW2 2124   0.239   2.447   1.636 -1.7761 -1.7088 -0.0421
  709SOL     OW 2125   0.237   0.854   1.984 -0.1035  0.1031 -0.1400
  709SOL    HW1 2126   0.154   0.900   1.941 -1.5215  2.4320 -1.1848
  709SOL    HW2 2127   0.207   0.768   2.026  0.9706  0.6908 -2.5274
  710SOL     OW 2128   0.010   0.552   1.262  0.7093  0.2809  0.3995
  710SOL    HW1 2129   0.107   0.538   1.296  0.3075  0.4030  0.7649
  710SOL    HW2 2130   3.078   0.646   1.296 -1.1501  1.4674 -0.6638
  711SOL     OW 2131   3.019   2.529   1.180  0.5254 -0.5797 -0.8438
  711SOL    HW1 2132   3.085   2.455   1.213 -2.0855 -0.6239 -0.8380
  711SOL    HW2 2133   3.065   2.565   1.101  0.1987 -0.0906  3.5986
  712SOL     OW 2134   0.123   0.050   2.422 -0.0681  0.0370  0.0399
  712SOL    HW1 2135   0.184   3.082   2.471  1.7173  1.0675 -2.3015
  712SOL    HW2 2136   0.046   0.076   2.483  0.1105  0.8785 -0.7480
  713SOL     OW 2137   2.488   0.149   0.501 -0.4070  0.5246  0.1641
  713SOL    HW1 2138   2.392   0.178   0.512 -0.6862  0.3018  0.0435
  713SOL    HW2 2139   2.534   0.205   0.429 -0.5620  1.3068 -0.7582
  714SOL     OW 2140   1.797   1.694   0.141  0.1818  0.3198  0.5706
  714SOL    HW1 2141   1.725   1.749   0.191 -2.5948  0.6983  1.6901
  714SOL    HW2 2142   1.808   1.602   0.184 -0.0672 -0.4679  0.1230
  715SOL     OW 2143   3.068   0.178   0.622 -0.3856  0.0479 -0.1316
  715SOL    HW1 2144   3.060   0.085   0.584 -2.5321  0.9870 -1.6805
  715SOL    HW2 2145   3.063   0.168   0.725 -0.4838 -0.0693  2.4925
  716SOL     OW 2146   1.108   0.553   1.925  0.1641 -0.3306 -0.1282
  716SOL    HW1 2147   1.187   0.491   1.937  0.2299 -0.2406 -0.0001
  716SOL    HW2 2148   1.038   0.534   1.993 -0.3477  3.2765 -3.6596
  717SOL     OW 2149   0.437   0.436   2.777  0.2981 -0.1468  0.4148
  717SOL    HW1 2150   0.369   0.511   2.772 -0.2133 -0.6868 -0.7589
  717SOL    HW2 2151   0.498   0.436   2.858  0.7217  1.8226 -0.3589
  718SOL     OW 2152   1.171   0.765   3.047  0.1591 -0.3579  0.4072
  718SOL    HW1 2153   1.181   0.851   0.003 -0.2325 -0.4513 -0.6740
  718SOL    HW2 2154   1.248   0.701   3.062  0.9530 -0.4901 -1.0121
  719SOL     OW 2155   2.625   2.361   2.671 -0.1828  0.1669  0.1123
  719SOL    HW1 2156   2.669   2.320   2.749 -0.0583  0.1557  0.6549
  719SOL    HW2 2157   2.543   2.311   2.635  4.0088 -2.2206 -0.7526
  720SOL     OW 2158   1.480   0.748   1.359  0.3531  0.0371  0.2480
  720SOL    HW1 2159   1.438   0.782   1.444  1.8864  0.4614  0.3536
  720SOL    HW2 2160   1.468   0.649   1.338  1.6658  0.0118 -2.3895
  721SOL     OW 2161   2.999   2.826   1.087 -0.3509  0.1352  0.0647
  721SOL    HW1 2162   3.006   2.875   1.000 -0.6228 -0.3077  0.8229
  721SOL    HW2 2163   2.947   2.735   1.086  0.3067 -2.9979  3.4284
  722SOL     OW 2164   0.913   1.510   2.853  0.1539 -0.3618  0.6489
  722SOL    HW1 2165   0.853   1.480   2.927  2.6578  1.7216  0.1120
  722SOL    HW2 2166   1.006   1.535   2.893  1.0087 -1.3625  0.0381
  723SOL     OW 2167   2.355   0.106   1.026  0.0646 -0.1583 -0.3025
  723SOL    HW1 2168   2.293   0.048   1.080 -0.2706  1.0065  3.1626
  723SOL    HW2 2169   2.432   0.048   0.980  5.4107 -1.6913 -0.2403
  724SOL     OW 2170   0.577   2.083   0.089  0.0684  0.0105 -0.4200
  724SOL    HW1 2171   0.661   2.067   0.148  1.7521 -0.3581  3.2962
  724SOL    HW2 2172   0.557   2.184   0.087 -0.0338  3.0643  1.6877
  725SOL     OW 2173   0.238   0.956   1.118 -0.3197  0.1265 -0.0248
  725SOL    HW1 2174   0.147   0.987   1.156  0.2414  1.7514  0.6987
  725SOL    HW2 2175   0.298   1.034   1.119 -2.3871 -3.3582  0.2347
  726SOL     OW 2176   2.325   0.600   0.254  0.1971 -0.4110 -0.8626
  726SOL    HW1 2177   2.357   0.635   0.344  1.0500 -2.2565  2.5424
  726SOL    HW2 2178   2.407   0.614   0.194  0.4774 -1.4886  1.0977
  727SOL     OW 2179   1.771   1.188   2.530 -0.3318 -0.1689 -0.1385
  727SOL    HW1 2180   1.821   1.275   2.562  1.3970 -1.7940  1.9823
  727SOL    HW2 2181   1.831   1.104   2.534 -0.7088  0.5274  1.0101
  728SOL     OW 2182   1.721   3.019   1.431 -0.1922  0.0077  0.0468
  728SOL    HW1 2183   1.788   2.941   1.413 -1.3942  0.6565  2.1268
  728SOL    HW2 2184   1.641   2.979   1.478 -1.1960 -1.4836  0.0664
  729SOL     OW 2185   2.273   0.873   2.320  0.5412  0.1425  0.3266
  729SOL    HW1 2186   2.343   0.858   2.390 -0.5521  1.1221  0.1534
  729SOL    HW2 2187   2.196   0.927   2.357 -0.9997  0.7504  0.3202
  730SOL     OW 2188   1.112   0.853   1.490  0.2010 -0.3251 -0.0293
  730SOL    HW1 2189   1.041   0.799   1.441 -1.9193  1.1896 -1.6636
  730SOL    HW2 2190   1.111   0.950   1.455 -1.0707  1.4013  1.0339
  731SOL     OW 2191   0.470   0.356   3.058  0.5271 -0.0127  0.9406
  731SOL    HW1 2192   0.539   0.347   0.036  3.1602 -0.0252 -0.2774
  731SOL    HW2 2193   0.408   0.436   3.079 -0.5872  0.0449  2.0124
  732SOL     OW 2194   0.334   0.426   0.292 -0.3580 -0.2355  0.2209
  732SOL    HW1 2195   0.397   0.504   0.286  1.5399  0.3207  2.6606
  732SOL    HW2 2196   0.310   0.403   0.392 -0.3889 -1.0943 -1.0305
  733SOL     OW 2197   1.818   1.465   2.610  0.1307  0.3766  0.1457
  733SOL    HW1 2198   1.723   1.469   2.571 -1.7160  2.9059 -1.9624
  733SOL    HW2 2199   1.822   1.504   2.703 -1.0354  0.5438 -0.8781
  734SOL     OW 2200   0.001   1.934   2.446 -0.2686 -0.1197 -0.4612
  734SOL    HW1 2201   0.083   1.874   2.426  0.9700 -1.1482  0.1458
  734SOL    HW2 2202   3.092   1.966   2.544 -0.1527 -2.3465 -0.7374
  735SOL     OW 2203   1.889   0.448   1.284 -0.3718  0.2647  0.4585
  735SOL    HW1 2204   1.952   0.402   1.217  2.2342 -0.8506 -1.1777
  735SOL    HW2 2205   1.937   0.482   1.366 -1.9515  0.4000  1.8468
  736SOL     OW 2206   1.713   1.779   2.988 -0.1904 -0.5712  0.0860
  736SOL    HW1 2207   1.736   1.733   3.075  0.0005 -0.5819 -0.1671
  736SOL    HW2 2208   1.769   1.865   2.981  0.1299  2.7378 -0.3180
  737SOL     OW 2209   3.077   0.377   0.455 -0.8387 -0.1387  0.3983
  737SOL    HW1 2210   0.032   0.450   0.496 -1.5107  0.3977 -0.6793
  737SOL    HW2 2211   3.076   0.295   0.512  1.2038 -1.5578 -3.2215
  738SOL     OW 2212   0.582   2.114   1.765  0.2108 -0.4253 -0.2314
  738SOL    HW1 2213   0.535   2.181   1.705  1.4051 -0.2716 -4.0964
  738SOL    HW2 2214   0.647   2.052   1.710 -0.4563  1.0103 -1.8735
  739SOL     OW 2215   1.252   2.665   2.162 -0.8225  0.3751  0.6492
  739SOL    HW1 2216   1.227   2.651   2.062 -0.3920 -2.2852 -2.3870
  739SOL    HW2 2217   1.210   2.594   2.224 -1.1399 -1.1214  0.6529
  740SOL     OW 2218   1.933   2.478   1.574 -0.0419  0.0306 -0.1839
  740SOL    HW1 2219   1.920   2.376   1.587  0.5421 -0.0349  1.4007
  740SOL    HW2 2220   2.015   2.515   1.625  3.1919  1.0510 -0.7256
  741SOL     OW 2221   2.143   0.385   0.243  0.2684 -0.4819 -0.1166
  741SOL    HW1 2222   2.196   0.474   0.247  1.0090  2.5280 -0.1519
  741SOL    HW2 2223   2.049   0.407   0.276  0.4305 -1.2487 -0.9378
  742SOL     OW 2224   0.857   2.333   0.038 -0.6273  0.3883 -0.2296
  742SOL    HW1 2225   0.867   2.243   3.098 -0.7299  0.5629  2.5399
  742SOL    HW2 2226   0.947   2.354   0.082  2.1288  0.1882  1.5702
  743SOL     OW 2227   2.436   0.970   2.132  0.3152 -0.3604 -0.4684
  743SOL    HW1 2228   2.374   0.925   2.198  1.0417  1.2764  1.2532
  743SOL    HW2 2229   2.460   1.065   2.152  2.0335  2.3801  1.1054
  744SOL     OW 2230   2.728   0.391   0.731 -0.4025  0.4554 -0.2913
  744SOL    HW1 2231   2.765   0.355   0.643 -0.8459 -2.2555  1.8399
  744SOL    HW2 2232   2.798   0.435   0.796 -1.6284 -1.6070  1.2942
  745SOL     OW 2233   2.568   1.322   1.719 -0.0683  0.1378 -0.1968
  745SOL    HW1 2234   2.564   1.223   1.683  0.9883 -1.4064 -0.5276
  745SOL    HW2 2235   2.668   1.352   1.725  0.6478  0.4385  2.8971
  746SOL     OW 2236   1.447   1.331   0.893 -0.2356  0.1082  0.7750
  746SOL    HW1 2237   1.417   1.426   0.917  0.1717  0.4034 -2.1792
  746SOL    HW2 2238   1.361   1.276   0.877 -1.5861 -0.3788 -0.2296
  747SOL     OW 2239   1.287   1.877   1.601 -0.3289 -0.2862  0.4845
  747SOL    HW1 2240   1.245   1.966   1.594  0.2714 -0.8066  1.3882
  747SOL    HW2 2241   1.283   1.849   1.694  1.0815  1.5774 -1.1967
  748SOL     OW 2242   0.341   3.020   3.021  0.5605  0.7419  0.7777
  748SOL    HW1 2243   0.441   3.019   3.026 -1.6235  0.4701  0.7424
  748SOL    HW2 2244   0.296   2.962   3.092 -0.3375  0.7286 -0.4076
  749SOL     OW 2245   0.422   1.199   2.590 -0.5405  0.1672 -0.2279
  749SOL    HW1 2246   0.486   1.164   2.513  0.0157 -1.2577  0.0460
  749SOL    HW2 2247   0.339   1.242   2.548  1.0492  0.5845  0.9897
  750SOL     OW 2248   1.828   0.902   1.936 -0.0836  0.0867 -0.7176
  750SOL    HW1 2249   1.908   0.838   1.906  1.2577 -1.8160  0.2407
  750SOL    HW2 2250   1.744   0.851   1.922  0.5703 -0.7827 -1.4280
  751SOL     OW 2251   2.570   0.350   0.328  0.5636  0.2435  0.1203
  751SOL    HW1 2252   2.624   0.312   0.248  1.6218 -0.1979 -1.3675
  751SOL    HW2 2253   2.510   0.426   0.302  0.8133 -0.3877 -0.7581
  752SOL     OW 2254   0.202   2.357   0.930 -0.0536 -0.5329 -0.8009
  752SOL    HW1 2255   0.190   2.257   0.948  0.0819  3.2807 -0.8680
  752SOL    HW2 2256   0.279   2.400   0.987  0.2999  1.1599 -0.5820
  753SOL     OW 2257   0.980   2.602   1.225 -0.0521  0.4994 -0.2879
  753SOL    HW1 2258   1.052   2.547   1.276  1.2102 -1.8308  0.2794
  753SOL    HW2 2259   1.009   2.613   1.129  1.3189 -0.0966  2.6219
  754SOL     OW 2260   0.105   2.987   1.831  0.1583  0.2188 -0.3410
  754SOL    HW1 2261   0.092   3.084   1.813  0.9211 -2.3502  0.9034
  754SOL    HW2 2262   0.079   2.930   1.753 -0.1225 -0.2081  1.0972
  755SOL     OW 2263   2.240   0.258   0.519  0.6958  0.2192  0.0517
  755SOL    HW1 2264   2.236   0.314   0.433 -0.0151  1.5607  1.3385
  755SOL    HW2 2265   2.246   0.316   0.600 -0.3094 -2.7887 -0.1637
  756SOL     OW 2266   2.285   2.514   2.695 -0.3789  0.2329 -0.2219
  756SOL    HW1 2267   2.234   2.507   2.783 -0.4856  0.3756 -0.3545
  756SOL    HW2 2268   2.236   2.580   2.634 -0.3967  0.0862 -1.1695
  757SOL     OW 2269   1.751   0.222   0.499 -0.2724  0.1037 -0.2269
  757SOL    HW1 2270   1.823   0.182   0.436 -2.2840 -0.4930  2.4792
  757SOL    HW2 2271   1.792   0.256   0.582 -0.5393  1.1402  0.2153
  758SOL     OW 2272   2.243   0.527   1.348  0.3317 -0.0683 -0.2245
  758SOL    HW1 2273   2.312   0.478   1.404 -0.0577  1.2053  1.2367
  758SOL    HW2 2274   2.277   0.538   1.253 -1.0648 -0.0934  0.0523
  759SOL     OW 2275   2.417   0.544   1.081  0.0289  0.1417  0.1789
  759SOL    HW1 2276   2.490   0.596   1.128  2.6122 -2.2439 -2.2567
  759SOL    HW2 2277   2.451   0.508   0.992  1.5296 -1.3008  0.4192
  760SOL     OW 2278   2.326   1.263   1.235  0.0518  0.6259 -0.1023
  760SOL    HW1 2279   2.279   1.260   1.320  2.8703 -0.3143 -1.4432
  760SOL    HW2 2280   2.365   1.167   1.212  2.0254 -1.2013 -0.1241
  761SOL     OW 2281   0.527   0.600   0.292  0.0674  0.5765 -0.2988
  761SOL    HW1 2282   0.599   0.656   0.246  4.4300  2.3606  1.3554
  761SOL    HW2 2283   0.501   0.638   0.384  0.4758  1.2500 -0.7945
  762SOL     OW 2284   1.023   1.953   0.827  0.3778  0.1542 -0.1295
  762SOL    HW1 2285   0.955   1.913   0.891  1.7058  2.4246 -2.5596
  762SOL    HW2 2286   0.974   2.016   0.762 -0.4482  1.1888 -1.7811
  763SOL     OW 2287   1.211   1.102   1.445  0.4090 -0.1228  0.0170
  763SOL    HW1 2288   1.238   1.121   1.347 -0.3113 -0.0922 -0.0323
  763SOL    HW2 2289   1.296   1.070   1.497  4.1322 -1.2730  0.4997
  764SOL     OW 2290   0.332   1.625   2.666 -0.7647 -0.7164 -0.4499
  764SOL    HW1 2291   0.344   1.645   2.567  1.7921 -0.0769 -2.3751
  764SOL    HW2 2292   0.241   1.653   2.702 -0.1835  0.8761 -0.9069
  765SOL     OW 2293   0.631   2.700   1.589 -0.0786 -0.3492 -0.2551
  765SOL    HW1 2294   0.670   2.650   1.511  1.6677  2.1502  0.2157
  765SOL    HW2 2295   0.649   2.797   1.576 -2.3045 -0.0214  0.5042
  766SOL     OW 2296   2.574   2.138   2.364 -0.1394  0.0417  0.0436
  766SOL    HW1 2297   2.496   2.208   2.367 -0.6198  2.8938 -1.5889
  766SOL    HW2 2298   2.654   2.168   2.308 -0.5913 -1.0327 -1.2317
  767SOL     OW 2299   1.453   1.041   2.325  0.7307 -0.4632 -0.4975
  767SOL    HW1 2300   1.393   0.974   2.276  0.0008 -0.8309  0.7093
  767SOL    HW2 2301   1.402   1.118   2.368 -0.0778  1.0961 -0.9260
  768SOL     OW 2302   1.386   1.760   0.283  0.7765  0.0727  0.1500
  768SOL    HW1 2303   1.446   1.739   0.362  2.6425 -0.6859 -1.4948
  768SOL    HW2 2304   1.438   1.817   0.217 -1.9375 -2.7099 -2.0159
  769SOL     OW 2305   0.487   1.809   1.407  0.4767 -0.4903 -0.0157
  769SOL    HW1 2306   0.450   1.902   1.386 -0.3711  1.6656  1.8415
  769SOL    HW2 2307   0.434   1.741   1.351 -0.6866 -0.8451 -0.9771
  770SOL     OW 2308   1.563   0.849   2.834  0.0437  0.0041 -0.4246
  770SOL    HW1 2309   1.490   0.903   2.881 -0.9427  2.4381  0.0638
  770SOL    HW2 2310   1.574   0.873   2.738  3.0894 -0.8727  4.1204
  771SOL     OW 2311   3.088   2.913   2.071  0.0737 -0.5824  0.2997
  771SOL    HW1 2312   0.045   2.835   2.097 -1.4561  1.4570  0.0339
  771SOL    HW2 2313   0.028   2.946   1.982 -1.8327  2.0794 -2.7203
  772SOL     OW 2314   2.160   1.918   1.682 -0.2699  0.5366  0.0536
  772SOL    HW1 2315   2.164   1.885   1.778  0.0593 -0.1575 -2.3579
  772SOL    HW2 2316   2.071   1.894   1.633 -1.7622 -2.0431 -1.4163
  773SOL     OW 2317   0.685   1.727   1.585 -0.2442  0.0575 -0.1512
  773SOL    HW1 2318   0.654   1.660   1.655 -0.0727 -0.9840  4.8825
  773SOL    HW2 2319   0.606   1.762   1.530 -0.0072 -1.5430  0.8996
  774SOL     OW 2320   1.328   0.640   2.741 -0.5820  0.2619 -0.3067
  774SOL    HW1 2321   1.380   0.602   2.661  0.2205 -1.2421 -3.1633
  774SOL    HW2 2322   1.341   0.580   2.827 -2.5855  0.0518  0.1981
  775SOL     OW 2323   1.839   2.782   2.915 -0.1384 -0.0009 -0.7644
  775SOL    HW1 2324   1.813   2.879   2.934  2.6921 -1.2579  3.3425
  775SOL    HW2 2325   1.773   2.738   2.851  0.5773  0.2759  1.9341
  776SOL     OW 2326   0.186   0.595   2.165  0.5127 -0.4305  0.0976
  776SOL    HW1 2327   0.139   0.519   2.113  1.8796 -0.6506  0.0152
  776SOL    HW2 2328   0.246   0.568   2.241  1.4858 -1.5588 -1.3197
  777SOL     OW 2329   2.397   1.969   2.028 -0.1986  1.0000 -0.0185
  777SOL    HW1 2330   2.338   1.897   1.985 -1.5100 -1.8247 -0.4369
  777SOL    HW2 2331   2.341   2.016   2.092  0.1923 -1.2152 -3.5996
  778SOL     OW 2332   1.921   1.065   2.161 -0.1162  0.2058 -0.1213
  778SOL    HW1 2333   1.844   1.089   2.218 -0.8909 -0.0982  0.3046
  778SOL    HW2 2334   1.894   1.015   2.078 -1.5417  0.2967  2.5745
  779SOL     OW 2335   2.507   1.128   0.185 -0.4978 -0.1405 -0.1080
  779SOL    HW1 2336   2.488   1.218   0.229  3.2243 -1.7238  1.7517
  779SOL    HW2 2337   2.453   1.125   0.097  0.1762 -0.7404 -1.0276
  780SOL     OW 2338   2.736   0.447   2.655 -0.4834 -1.2538 -0.1396
  780SOL    HW1 2339   2.775   0.519   2.715 -0.2006 -0.8552 -3.2677
  780SOL    HW2 2340   2.700   0.367   2.708  0.3111  2.3066 -1.1367
  781SOL     OW 2341   0.208   2.040   1.589 -0.5095 -0.2509  0.2073
  781SOL    HW1 2342   0.279   2.042   1.513 -1.2125  1.0998  1.5820
  781SOL    HW2 2343   0.177   1.944   1.593  2.5835 -0.0094 -1.1477
  782SOL     OW 2344   2.470   2.483   2.918 -0.3033  0.7794  0.5553
  782SOL    HW1 2345   2.446   2.519   2.827  3.2271  0.8373  0.3331
  782SOL    HW2 2346   2.419   2.395   2.938  0.9202  0.5669  1.2786
  783SOL     OW 2347   0.551   1.361   1.353  0.0282 -0.6997  0.3596
  783SOL    HW1 2348   0.636   1.321   1.314  0.8902 -0.1662 -2.4074
  783SOL    HW2 2349   0.541   1.459   1.328 -0.5771 -0.1005  2.0718
  784SOL     OW 2350   1.823   0.857   2.922 -0.1534  0.1837 -0.2170
  784SOL    HW1 2351   1.891   0.800   2.870  1.4229  0.0257  0.9406
  784SOL    HW2 2352   1.730   0.854   2.880  0.2216 -1.3824  0.3771
  785SOL     OW 2353   2.450   2.658   0.661 -0.4823 -0.0534  0.3921
  785SOL    HW1 2354   2.488   2.568   0.630  0.2611 -0.3824  1.7552
  785SOL    HW2 2355   2.352   2.667   0.629  2.7990 -1.3741  0.0447
  786SOL     OW 2356   0.782   2.037   2.298 -0.3812 -0.3570 -0.2872
  786SOL    HW1 2357   0.713   1.978   2.258  1.3770 -0.4306  2.4706
  786SOL    HW2 2358   0.873   2.002   2.274 -0.6426 -2.1731  0.7097
  787SOL     OW 2359   1.402   0.940   1.179  0.2386 -0.4230 -0.6180
  787SOL    HW1 2360   1.428   0.874   1.257  0.4216 -3.9570  1.7487
  787SOL    HW2 2361   1.477   0.951   1.109  1.0802 -1.3194  1.5237
  788SOL     OW 2362   0.152   0.594   0.565 -0.8336  0.3249  0.0906
  788SOL    HW1 2363   0.250   0.585   0.594 -0.6042  1.6246  1.6083
  788SOL    HW2 2364   0.141   0.680   0.508 -1.3988  1.2129 -0.8382
  789SOL     OW 2365   2.956   1.982   1.230 -0.0687  0.1048  0.3877
  789SOL    HW1 2366   2.915   1.984   1.139  1.4511 -0.5063  0.9698
  789SOL    HW2 2367   2.975   2.071   1.259 -3.6544 -3.5578 -2.6811
  790SOL     OW 2368   1.303   0.765   1.872  0.1881  0.1305  0.3369
  790SOL    HW1 2369   1.232   0.698   1.900 -0.1862 -0.1945  0.4177
  790SOL    HW2 2370   1.299   0.840   1.937 -1.7807 -0.5551  1.6838
  791SOL     OW 2371   1.332   0.588   0.574  0.4611 -0.0379 -0.2570
  791SOL    HW1 2372   1.314   0.537   0.486 -1.3177 -0.5144  0.3332
  791SOL    HW2 2373   1.356   0.510   0.638 -0.7620  0.0031  0.3129
  792SOL     OW 2374   1.573   2.875   1.865  0.1294 -0.2575  0.3188
  792SOL    HW1 2375   1.481   2.902   1.895 -0.9620 -0.6901 -1.7486
  792SOL    HW2 2376   1.564   2.809   1.787 -2.4897 -0.6936  1.3297
  793SOL     OW 2377   0.825   0.184   0.487 -0.2462  0.1549  0.7841
  793SOL    HW1 2378   0.884   0.256   0.529 -1.5020  0.9366  0.3560
  793SOL    HW2 2379   0.732   0.196   0.519 -1.5550  0.2504 -1.3626
  794SOL     OW 2380   0.821   1.116   2.078 -0.3208 -0.0977  0.0550
  794SOL    HW1 2381   0.729   1.099   2.043 -1.0492 -2.0820 -1.1730
  794SOL    HW2 2382   0.838   1.216   2.067  0.1654 -0.1424  1.0563
  795SOL     OW 2383   0.393   2.051   2.360  0.0418 -0.5455 -0.0192
  795SOL    HW1 2384   0.387   2.083   2.265 -0.3523 -2.1261  0.0420
  795SOL    HW2 2385   0.374   2.133   2.424 -1.1016 -0.5670 -0.0239
  796SOL     OW 2386   2.438   1.238   2.148  0.1134 -0.4460  0.1055
  796SOL    HW1 2387   2.407   1.236   2.244  1.3403  0.2004  0.6035
  796SOL    HW2 2388   2.486   1.326   2.134 -0.7042 -1.0872  0.6983
  797SOL     OW 2389   2.986   2.540   2.864 -0.3095  0.2062 -0.1513
  797SOL    HW1 2390   3.079   2.585   2.874  0.5626  0.1953  3.2772
  797SOL    HW2 2391   2.972   2.517   2.768  1.6688  1.9219  3.4493
  798SOL     OW 2392   0.023   2.325   2.087  0.0037 -0.4093 -0.4775
  798SOL    HW1 2393   0.114   2.304   2.045  0.9647  2.1921  1.4351
  798SOL    HW2 2394   0.008   2.246   2.149 -0.0534 -0.1715 -2.0637
  799SOL     OW 2395   0.395   2.237   2.837 -0.0048 -0.0497  0.0246
  799SOL    HW1 2396   0.383   2.332   2.874 -3.9967  1.6221 -0.1765
  799SOL    HW2 2397   0.307   2.189   2.861 -2.6069 -2.8925 -0.2738
  800SOL     OW 2398   1.241   1.528   0.144 -0.2399 -0.2153 -0.2327
  800SOL    HW1 2399   1.168   1.507   0.206 -1.4144  0.1079 -4.0180
  800SOL    HW2 2400   1.300   1.595   0.184 -0.6618 -2.0471  0.0512
  801SOL     OW 2401   1.910   1.351   1.334  0.2718 -0.5223  0.3356
  801SOL    HW1 2402   1.917   1.256   1.300 -1.0306 -3.6566 -0.1519
  801SOL    HW2 2403   2.004   1.389   1.351 -0.6752 -0.9717 -1.3238
  802SOL     OW 2404   2.981   1.266   0.301  0.2121 -0.1352  0.1263
  802SOL    HW1 2405   3.014   1.200   0.369  0.4704 -0.0964 -4.6326
  802SOL    HW2 2406   2.895   1.230   0.256  2.4906 -0.3468 -0.1775
  803SOL     OW 2407   1.346   1.916   2.735 -0.1881  0.2110  0.1202
  803SOL    HW1 2408   1.423   1.947   2.676  2.9009 -1.1163  0.0734
  803SOL    HW2 2409   1.258   1.898   2.678 -0.9590 -0.7586 -1.0792
  804SOL     OW 2410   1.848   1.404   0.233  0.1944  0.3799  0.8695
  804SOL    HW1 2411   1.805   1.327   0.287 -1.1606 -0.8298  2.4017
  804SOL    HW2 2412   1.951   1.390   0.229  0.5441  1.9353 -1.6715
  805SOL     OW 2413   2.499   1.660   2.572 -0.0008  0.1130  0.7016
  805SOL    HW1 2414   2.503   1.684   2.469 -2.2369  0.8595 -1.8253
  805SOL    HW2 2415   2.536   1.740   2.622  0.0188  0.4418  0.3569
  806SOL     OW 2416   0.478   0.009   0.493 -0.0282 -0.3850  0.1473
  806SOL    HW1 2417   0.510   0.076   0.423 -1.2223 -2.1587  0.3580
  806SOL    HW2 2418   0.523   3.023   0.478 -0.6314 -0.2891  0.3336
  807SOL     OW 2419   1.920   1.325   2.928  0.1782  0.1918  0.0440
  807SOL    HW1 2420   1.915   1.422   2.894  0.9860  1.6270 -0.6290
  807SOL    HW2 2421   1.848   1.306   3.001  2.0500  2.9677 -0.3825
  808SOL     OW 2422   3.026   1.469   0.477  0.2647 -0.2101  0.3764
  808SOL    HW1 2423   3.010   1.384   0.421  0.7391 -1.8431  0.2988
  808SOL    HW2 2424   2.980   1.548   0.430 -0.0530  4.2215  1.2464
  809SOL     OW 2425   2.355   1.150   3.082  0.2665 -0.0452 -0.0311
  809SOL    HW1 2426   2.313   1.079   3.022 -2.5279 -0.3996 -0.6052
  809SOL    HW2 2427   2.306   1.238   3.072 -0.0013  0.3069  0.3668
  810SOL     OW 2428   0.576   1.246   0.309 -0.3925 -0.0049 -0.2788
  810SOL    HW1 2429   0.619   1.238   0.219  2.4266 -0.6877  1.0853
  810SOL    HW2 2430   0.474   1.225   0.292 -1.0248 -1.1746 -2.8246
  811SOL     OW 2431   1.368   2.568   1.393  0.4685 -0.2536 -0.0621
  811SOL    HW1 2432   1.400   2.658   1.359 -0.2371  2.4237 -0.2969
  811SOL    HW2 2433   1.446   2.514   1.429  1.5821 -0.2012  1.8945
  812SOL     OW 2434   0.809   2.680   1.800 -0.1010  0.0453 -0.7973
  812SOL    HW1 2435   0.726   2.711   1.746 -2.7496 -0.6935  1.2399
  812SOL    HW2 2436   0.894   2.727   1.765 -0.1481 -0.6917  0.9016
  813SOL     OW 2437   1.299   0.103   2.186 -0.0272  0.0407 -0.2221
  813SOL    HW1 2438   1.393   0.130   2.221 -1.3430 -1.7192  2.2698
  813SOL    HW2 2439   1.222   0.134   2.246  1.1991 -2.3496 -0.0995
  814SOL     OW 2440   1.379   2.260   2.605 -0.2936  0.0901 -0.6980
  814SOL    HW1 2441   1.384   2.165   2.646  1.6627 -0.1433 -0.9983
  814SOL    HW2 2442   1.453   2.316   2.642 -1.5926  0.9182  0.5203
  815SOL     OW 2443   0.691   0.183   2.257 -0.2207 -0.2642  0.0448
  815SOL    HW1 2444   0.649   0.167   2.167  1.0685  1.1392  0.7380
  815SOL    HW2 2445   0.755   0.108   2.284  0.2970  4.1344  0.9471
  816SOL     OW 2446   1.969   0.306   2.915 -0.2079  0.2658  0.3387
  816SOL    HW1 2447   2.045   0.330   2.855  1.0631  0.2766 -0.0880
  816SOL    HW2 2448   1.915   0.391   2.947  0.8006  1.8509  0.9793
  817SOL     OW 2449   2.383   0.347   2.410  0.5246 -0.4502 -0.5623
  817SOL    HW1 2450   2.383   0.256   2.452  0.6424  0.3963 -0.5964
  817SOL    HW2 2451   2.290   0.386   2.384 -0.1089 -1.8490 -0.5866
  818SOL     OW 2452   1.606   0.236   0.147 -0.4965  0.0319 -0.0290
  818SOL    HW1 2453   1.621   0.340   0.133  1.8463  1.6633 -1.9453
  818SOL    HW2 2454   1.690   0.183   0.167  0.5181  0.8595 -1.4415
  819SOL     OW 2455   2.105   1.770   2.806 -0.2487  0.2916 -0.4325
  819SOL    HW1 2456   2.065   1.794   2.715 -2.7695 -2.0070 -3.9020
  819SOL    HW2 2457   2.113   1.850   2.868  0.7933  0.3125  0.9414
  820SOL     OW 2458   0.063   1.830   0.087 -0.1410  0.1796  0.3072
  820SOL    HW1 2459   3.092   1.904   0.107  0.3592  2.0505 -0.8238
  820SOL    HW2 2460   0.148   1.846   0.140 -0.2924 -0.2264  1.0402
  821SOL     OW 2461   0.452   2.904   0.817  0.3751 -0.2225  0.2189
  821SOL    HW1 2462   0.555   2.898   0.802 -0.6890  0.6113 -1.9100
  821SOL    HW2 2463   0.404   2.938   0.734 -0.7068  2.7983 -2.1158
  822SOL     OW 2464   2.786   2.889   3.007 -0.3289  0.1277  0.6080
  822SOL    HW1 2465   2.776   2.825   3.084  0.1171 -0.4973  0.4100
  822SOL    HW2 2466   2.847   2.847   2.935  2.8971 -3.1987 -0.7657
  823SOL     OW 2467   1.330   0.312   2.632  0.0203  0.1089  0.3284
  823SOL    HW1 2468   1.313   0.217   2.606  1.3873  1.3226 -0.7090
  823SOL    HW2 2469   1.404   0.309   2.704  4.2171 -2.1559 -0.5542
  824SOL     OW 2470   2.628   2.075   1.928 -0.0252  0.2090 -0.0000
  824SOL    HW1 2471   2.696   2.030   1.990 -0.7888 -0.0132  0.9718
  824SOL    HW2 2472   2.530   2.046   1.958 -3.1046 -1.5055 -0.6049
  825SOL     OW 2473   2.879   2.079   2.642 -0.2878 -0.0299  0.3732
  825SOL    HW1 2474   2.943   2.141   2.597 -1.6437 -1.0759  2.5105
  825SOL    HW2 2475   2.785   2.112   2.632 -1.7982  0.8023 -0.0648
  826SOL     OW 2476   2.079   1.328   2.248  0.7019  0.2338 -0.3880
  826SOL    HW1 2477   2.085   1.238   2.293 -0.5409 -1.9126 -1.4380
  826SOL    HW2 2478   2.061   1.406   2.310  0.9399  0.0826  1.9386
  827SOL     OW 2479   2.333   2.275   1.476 -0.1391  0.2608 -0.2823
  827SOL    HW1 2480   2.329   2.369   1.434 -2.8705  1.5112 -4.1134
  827SOL    HW2 2481   2.417   2.222   1.445  1.4920  0.1556 -0.0510
  828SOL     OW 2482   0.109   0.031   1.473 -0.9098  0.3459 -0.2792
  828SOL    HW1 2483   0.038   0.100   1.466  3.4858  0.7702  2.4337
  828SOL    HW2 2484   0.189   0.078   1.517 -0.4744  3.0430 -1.6711
  829SOL     OW 2485   1.683   2.222   2.282 -0.0732 -0.2170 -0.2254
  829SOL    HW1 2486   1.599   2.165   2.296  1.0301 -1.8248  1.2806
  829SOL    HW2 2487   1.666   2.320   2.256 -0.5858  0.7699  1.1975
  830SOL     OW 2488   0.875   0.611   0.462 -0.2192 -0.3614  0.3642
  830SOL    HW1 2489   0.917   0.523   0.449  0.7098  1.2905  2.6200
  830SOL    HW2 2490   0.929   0.686   0.407  0.6728  0.7513  0.1543
  831SOL     OW 2491   2.782   1.369   2.875 -0.0298  0.2602  0.4428
  831SOL    HW1 2492   2.880   1.377   2.905  0.3782  0.8628  2.2946
  831SOL    HW2 2493   2.768   1.406   2.783  0.0915  0.3569  0.4149
  832SOL     OW 2494   1.461   2.098   1.966 -0.4764 -0.2882  0.5303
  832SOL    HW1 2495   1.498   2.184   1.998  1.4935 -1.4020 -0.9012
  832SOL    HW2 2496   1.465   2.092   1.867  2.5667  1.3880 -2.4923
  833SOL     OW 2497   0.399   0.285   2.075  0.0132  0.0091  0.0377
  833SOL    HW1 2498   0.427   0.323   2.167  0.2625  1.7897 -1.6365
  833SOL    HW2 2499   0.321   0.224   2.089  2.3916  1.0534 -0.5672
  834SOL     OW 2500   0.811   1.065   1.577 -0.6289 -0.0861 -0.3047
  834SOL    HW1 2501   0.768   0.992   1.519  2.4065 -4.0513 -1.1997
  834SOL    HW2 2502   0.882   1.025   1.640  0.4303  1.4393 -2.2109
  835SOL     OW 2503   2.797   0.978   2.965  0.0271 -0.0077  0.3665
  835SOL    HW1 2504   2.725   0.905   2.973 -2.4869 -1.3850  2.4630
  835SOL    HW2 2505   2.751   1.062   2.933  0.0066  1.9960 -0.6125
  836SOL     OW 2506   1.199   1.572   0.568 -0.3902 -0.5659 -0.3095
  836SOL    HW1 2507   1.145   1.609   0.489 -0.9503 -0.9262  3.4274
  836SOL    HW2 2508   1.245   1.646   0.624  2.0983  0.2163  0.8191
  837SOL     OW 2509   1.692   1.649   1.048  0.3108 -0.0565  0.1992
  837SOL    HW1 2510   1.717   1.581   1.118 -0.0170  0.8183 -0.3207
  837SOL    HW2 2511   1.598   1.632   1.011 -1.6351 -0.0851  1.6840
  838SOL     OW 2512   1.080   1.526   2.191  0.0262  0.3106  0.0132
  838SOL    HW1 2513   1.076   1.465   2.276  0.2450 -1.0069  3.8636
  838SOL    HW2 2514   1.033   1.612   2.214  0.0218  1.2292  1.4588
  839SOL     OW 2515   0.812   2.083   2.643  0.4637 -0.6444  0.5754
  839SOL    HW1 2516   0.831   2.024   2.723 -2.8553  0.7690 -0.4411
  839SOL    HW2 2517   0.764   2.168   2.668  1.3274 -0.6696 -0.0813
  840SOL     OW 2518   0.718   2.255   0.404 -0.3140 -0.1474  0.0218
  840SOL    HW1 2519   0.771   2.334   0.442  0.5725  1.0088  1.0545
  840SOL    HW2 2520   0.665   2.218   0.479  1.5786 -0.4568 -1.6515
  841SOL     OW 2521   1.885   2.708   0.082  0.1142  0.0697 -0.0145
  841SOL    HW1 2522   1.950   2.632   0.080 -2.1718 -0.2839 -1.8598
  841SOL    HW2 2523   1.848   2.739   3.085  0.5439 -0.2044 -2.8006
  842SOL     OW 2524   0.638   0.619   3.079 -0.3532 -0.3095  0.0188
  842SOL    HW1 2525   0.691   0.542   3.044 -0.2587 -0.3927 -1.0654
  842SOL    HW2 2526   0.700   0.702   3.081  1.7948  3.6812 -0.8748
  843SOL     OW 2527   1.262   0.137   0.771  1.0104 -0.7680 -0.4229
  843SOL    HW1 2528   1.295   0.118   0.860 -0.5955  0.1603 -0.3500
  843SOL    HW2 2529   1.162   0.153   0.766 -0.6345  0.1832 -0.4229
  844SOL     OW 2530   2.869   2.804   2.697  0.2096  0.0827  0.1450
  844SOL    HW1 2531   2.900   2.758   2.609  0.6002 -1.0556 -3.2542
  844SOL    HW2 2532   2.796   2.749   2.743 -0.3077 -0.7585  3.9474
  845SOL     OW 2533   2.774   2.310   0.808  0.0829  0.6477  0.4787
  845SOL    HW1 2534   2.840   2.351   0.745 -2.3200 -0.2066  2.6809
  845SOL    HW2 2535   2.770   2.354   0.899 -0.9094 -2.6794 -0.5118
  846SOL     OW 2536   2.887   1.789   2.372  0.1227 -0.2353 -0.0800
  846SOL    HW1 2537   2.873   1.742   2.462  0.6583 -1.4478 -0.7746
  846SOL    HW2 2538   2.969   1.845   2.376  0.8594 -4.4620  0.2254
  847SOL     OW 2539   1.369   0.889   1.570 -0.2513  0.0088  0.0245
  847SOL    HW1 2540   1.282   0.890   1.516  0.3535 -1.3914 -1.6363
  847SOL    HW2 2541   1.350   0.855   1.664  3.0070 -0.9908 -1.9982
  848SOL     OW 2542   2.530   3.012   3.038 -0.7789  0.3282 -1.0385
  848SOL    HW1 2543   2.505   3.044   0.033 -0.7504  1.2789 -0.3747
  848SOL    HW2 2544   2.619   2.957   3.034  0.6054 -0.7630  1.0925
  849SOL     OW 2545   0.720   2.873   2.786  0.3890  0.0851 -0.3778
  849SOL    HW1 2546   0.681   2.894   2.877  0.9519 -0.9336 -0.8004
  849SOL    HW2 2547   0.820   2.882   2.803 -1.5734  0.1988  0.2064
  850SOL     OW 2548   1.228   2.738   1.078  0.5623  1.0405 -0.1084
  850SOL    HW1 2549   1.242   2.782   1.168 -1.1062  2.3375  0.9140
  850SOL    HW2 2550   1.310   2.743   1.018  2.3506 -1.3933  1.8757
  851SOL     OW 2551   2.825   0.311   2.198  0.0183 -0.3963  0.1705
  851SOL    HW1 2552   2.848   0.317   2.296 -0.7679  2.0478 -0.6339
  851SOL    HW2 2553   2.910   0.296   2.142  0.9088  0.4159 -0.5743
  852SOL     OW 2554   2.080   1.088   2.397  0.5162 -0.0827 -0.0484
  852SOL    HW1 2555   2.015   1.066   2.320  2.1207  0.2224  2.3744
  852SOL    HW2 2556   2.041   1.043   2.483  0.8755 -1.6145  1.0188
  853SOL     OW 2557   2.839   0.063   0.375  0.3956 -0.3034  0.2606
  853SOL    HW1 2558   2.824   0.149   0.433 -2.5722  2.7247 -1.1262
  853SOL    HW2 2559   2.803   3.081   0.424  0.3468 -1.2258  0.3263
  854SOL     OW 2560   2.127   1.070   1.978 -0.1785  0.5573  0.1418
  854SOL    HW1 2561   2.075   1.083   2.065  0.7409 -1.4483 -1.4945
  854SOL    HW2 2562   2.201   1.140   1.975 -0.6420  3.3901  1.7495
  855SOL     OW 2563   1.266   2.141   0.173 -0.5807  0.1264 -0.4429
  855SOL    HW1 2564   1.207   2.060   0.156  3.8225 -0.6006  0.7719
  855SOL    HW2 2565   1.283   2.193   0.088 -1.1846 -0.8987 -0.6601
  856SOL     OW 2566   3.051   0.129   2.610  0.2405 -0.4357  0.1554
  856SOL    HW1 2567   3.009   0.054   2.664 -1.6007  0.7023  1.3312
  856SOL    HW2 2568   0.005   0.195   2.673 -0.8257  2.8327 -0.2089
  857SOL     OW 2569   1.280   0.049   1.819 -0.4711 -0.1261 -0.7272
  857SOL    HW1 2570   1.238   0.083   1.904  3.0587  1.3137 -3.2946
  857SOL    HW2 2571   1.292   3.048   1.826 -1.3827 -0.6678 -0.0229
  858SOL     OW 2572   2.315   2.167   1.727 -0.2784  0.4204  0.0147
  858SOL    HW1 2573   2.292   2.211   1.636 -1.1576  2.3940 -0.8511
  858SOL    HW2 2574   2.275   2.075   1.732  0.9144 -0.7156  0.5399
  859SOL     OW 2575   1.237   2.741   1.579  0.2171 -0.7315  0.3294
  859SOL    HW1 2576   1.295   2.732   1.660  0.3160  1.0006  2.1903
  859SOL    HW2 2577   1.271   2.682   1.500 -0.3812  0.5572 -2.0985
  860SOL     OW 2578   2.455   2.690   0.058 -0.0117 -0.1643  0.3708
  860SOL    HW1 2579   2.444   2.633   3.073  0.0383  2.5714 -2.6103
  860SOL    HW2 2580   2.370   2.748   0.070  0.2290 -1.4986 -1.1398
  861SOL     OW 2581   2.218   2.826   0.907 -0.0297  0.6512 -0.0281
  861SOL    HW1 2582   2.153   2.903   0.916 -0.2870  0.7502  1.0379
  861SOL    HW2 2583   2.273   2.821   0.995  1.1696  0.1336  2.0491
  862SOL     OW 2584   1.847   2.841   2.362 -0.3284 -0.6759  0.1286
  862SOL    HW1 2585   1.938   2.815   2.319  0.8374  2.0467  0.1418
  862SOL    HW2 2586   1.855   2.880   2.456 -0.6681  1.6385  1.3750
  863SOL     OW 2587   0.090   0.638   0.832  0.1926 -0.3799  0.1735
  863SOL    HW1 2588   0.004   0.688   0.823  2.4305  0.7972  0.2822
  863SOL    HW2 2589   0.119   0.591   0.744  1.9607 -1.4500  0.8717
  864SOL     OW 2590   0.158   2.683   2.075 -0.1425 -0.2110 -0.0559
  864SOL    HW1 2591   0.160   2.607   2.008 -1.3847 -0.5622 -3.0596
  864SOL    HW2 2592   0.250   2.727   2.072 -0.7051 -0.0502 -0.5979
  865SOL     OW 2593   0.560   1.375   2.738  0.7005 -0.6019  0.1651
  865SOL    HW1 2594   0.498   1.417   2.813 -1.0456  1.2250 -1.8727
  865SOL    HW2 2595   0.500   1.311   2.689 -1.3148  0.3352 -2.6470
  866SOL     OW 2596   2.829   0.656   2.798 -0.9587  0.2476  0.8557
  866SOL    HW1 2597   2.868   0.720   2.723  1.8401 -1.1573 -1.6155
  866SOL    HW2 2598   2.888   0.634   2.877 -1.0459 -1.5797 -1.6005
  867SOL     OW 2599   3.041   3.012   2.792 -0.5905 -0.2997 -0.2863
  867SOL    HW1 2600   0.035   2.981   2.818 -2.2681 -0.4069 -0.2397
  867SOL    HW2 2601   2.985   2.932   2.763  2.9145  0.5715 -0.0556
  868SOL     OW 2602   1.078   2.895   0.634  0.9526  0.1456  0.1148
  868SOL    HW1 2603   1.177   2.921   0.620  1.7645 -1.1157  0.8078
  868SOL    HW2 2604   1.071   2.794   0.622  1.7738  0.8373  0.5324
  869SOL     OW 2605   1.397   1.595   0.947 -0.2713  0.3473  0.6558
  869SOL    HW1 2606   1.384   1.652   0.863  1.0488 -1.0428 -0.7171
  869SOL    HW2 2607   1.375   1.655   1.028  0.7628  1.7571  0.2282
  870SOL     OW 2608   2.127   2.002   1.192 -0.5751 -0.1691 -0.4615
  870SOL    HW1 2609   2.104   2.026   1.097  0.5929  0.2188  1.1595
  870SOL    HW2 2610   2.075   1.924   1.222 -1.0151  1.5463 -2.9038
  871SOL     OW 2611   1.040   1.630   1.596 -0.3817 -0.5645 -0.4852
  871SOL    HW1 2612   1.121   1.692   1.580  3.5521  1.2550 -0.6121
  871SOL    HW2 2613   1.039   1.551   1.527 -3.9030 -1.2655 -0.3399
  872SOL     OW 2614   0.969   1.462   1.378  0.2016 -0.1651  0.0035
  872SOL    HW1 2615   0.919   1.542   1.342 -2.9777  0.7468  0.2060
  872SOL    HW2 2616   0.910   1.379   1.365 -1.7675 -0.6579  1.9331
  873SOL     OW 2617   1.196   1.081   2.617  0.0452 -0.0463  0.0542
  873SOL    HW1 2618   1.259   1.168   2.617  1.7946  1.1636 -0.2442
  873SOL    HW2 2619   1.244   0.996   2.595 -0.8357 -1.6899  1.8529
  874SOL     OW 2620   3.077   1.525   1.211 -0.0664 -0.2822 -0.3255
  874SOL    HW1 2621   3.095   1.521   1.111  1.9382 -1.4713 -0.1565
  874SOL    HW2 2622   0.043   1.579   1.265  0.8892  1.0129 -1.6308
  875SOL     OW 2623   2.900   2.963   0.642 -0.3745 -0.4996 -0.0333
  875SOL    HW1 2624   2.826   3.029   0.645  2.4895 -0.5032  2.3294
  875SOL    HW2 2625   2.863   2.875   0.643 -2.7800  2.2238 -0.9726
  876SOL     OW 2626   0.925   0.750   2.895 -0.3396  0.2430  0.3757
  876SOL    HW1 2627   0.958   0.714   2.808  2.0996  2.0510  1.4398
  876SOL    HW2 2628   1.001   0.754   2.963  0.9090 -0.1960 -0.9242
  877SOL     OW 2629   0.095   0.266   1.132  0.0917  0.1142 -0.6181
  877SOL    HW1 2630   0.027   0.275   1.205 -0.8963 -3.7475  1.4270
  877SOL    HW2 2631   0.143   0.178   1.151  0.3692 -0.0386 -0.4852
  878SOL     OW 2632   1.657   2.363   0.014  0.4662 -0.2861 -0.3281
  878SOL    HW1 2633   1.667   2.459   0.049 -2.0012 -2.1668  0.1804
  878SOL    HW2 2634   1.743   2.328   3.075 -4.1469  3.7968 -0.3943
  879SOL     OW 2635   2.294   1.800   1.464 -0.1749  0.6006 -0.1886
  879SOL    HW1 2636   2.380   1.840   1.432 -4.0069  0.9195 -0.0559
  879SOL    HW2 2637   2.253   1.846   1.544  0.1197 -1.9314 -0.0118
  880SOL     OW 2638   0.753   0.569   1.540  0.0954  0.9159 -0.1987
  880SOL    HW1 2639   0.847   0.558   1.581 -0.1728  0.1368  1.1463
  880SOL    HW2 2640   0.677   0.566   1.609  0.7433 -3.1429 -0.8836
  881SOL     OW 2641   0.949   1.755   0.139 -0.2222 -0.2667 -0.0954
  881SOL    HW1 2642   0.894   1.695   0.081 -2.3217  1.4151  1.6306
  881SOL    HW2 2643   0.967   1.721   0.235  0.2754 -2.7707 -0.6081
  882SOL     OW 2644   2.191   0.830   1.670 -0.1165  0.2746 -0.3697
  882SOL    HW1 2645   2.208   0.934   1.673 -0.3785  0.3961  0.3402
  882SOL    HW2 2646   2.150   0.806   1.582  2.4823  0.2293  1.6629
  883SOL     OW 2647   1.387   0.615   2.192 -0.3018  0.3009  0.5764
  883SOL    HW1 2648   1.331   0.696   2.214  0.7500 -3.1892 -2.7586
  883SOL    HW2 2649   1.337   0.561   2.122  0.3385  3.1677  2.5858
  884SOL     OW 2650   2.400   0.210   0.038 -0.1698  0.4168  0.5810
  884SOL    HW1 2651   2.352   0.161   3.059  2.2723  0.4975 -2.1447
  884SOL    HW2 2652   2.351   0.185   0.123 -1.0730  0.5589  0.7223
  885SOL     OW 2653   0.272   2.121   0.571 -0.3771  0.4673  0.0253
  885SOL    HW1 2654   0.268   2.106   0.470 -1.0981 -3.3135  0.4180
  885SOL    HW2 2655   0.237   2.037   0.613 -0.0214  2.4884 -1.5007
  886SOL     OW 2656   1.716   1.299   0.022 -1.2702  0.2793 -0.5132
  886SOL    HW1 2657   1.662   1.229   0.076 -3.0784  1.2823  0.5054
  886SOL    HW2 2658   1.777   1.352   0.087  1.4887  0.5533  2.9760
  887SOL     OW 2659   1.438   0.531   1.726  0.3917 -0.5089 -0.7772
  887SOL    HW1 2660   1.498   0.615   1.731 -0.7336  1.4308 -1.6737
  887SOL    HW2 2661   1.373   0.528   1.643 -2.5900  0.5144 -1.1735
  888SOL     OW 2662   2.840   1.249   1.487 -0.1021 -0.2373 -0.3885
  888SOL    HW1 2663   2.837   1.148   1.522  1.0919 -0.5891 -0.7022
  888SOL    HW2 2664   2.760   1.269   1.426 -2.2463  2.2256 -2.3380
  889SOL     OW 2665   0.023   2.550   0.908 -0.1100  0.0686  0.2750
  889SOL    HW1 2666   0.088   2.627   0.902  1.3650  1.1520 -1.0993
  889SOL    HW2 2667   0.081   2.468   0.911  0.3286  1.6999  3.2548
  890SOL     OW 2668   0.390   2.496   2.556  0.2567 -0.1396  0.1433
  890SOL    HW1 2669   0.486   2.508   2.536 -1.8450  1.9418  2.7393
  890SOL    HW2 2670   0.333   2.579   2.553 -1.0298 -0.3024 -0.8371
  891SOL     OW 2671   0.519   1.740   0.211  0.3494 -0.4457  0.0917
  891SOL    HW1 2672   0.587   1.812   0.235  0.3395  0.0828 -0.2512
  891SOL    HW2 2673   0.518   1.655   0.268 -0.1219  0.1997 -1.7064
  892SOL     OW 2674   3.012   2.265   1.309 -0.2237  0.5839  0.3631
  892SOL    HW1 2675   3.008   2.301   1.403 -2.0351  1.3080 -3.5729
  892SOL    HW2 2676   2.926   2.291   1.258  1.6113 -1.7270  0.3834
  893SOL     OW 2677   0.430   3.000   1.475 -0.6751 -0.1067  0.3178
  893SOL    HW1 2678   0.518   2.992   1.530 -1.7806 -2.0180 -0.0032
  893SOL    HW2 2679   0.385   3.094   1.485 -1.6272  4.7229 -0.3560
  894SOL     OW 2680   2.502   1.469   0.867 -0.3849 -0.2927  0.2105
  894SOL    HW1 2681   2.515   1.563   0.830  0.6381 -1.2108  0.6604
  894SOL    HW2 2682   2.519   1.402   0.788 -0.8282 -2.6102 -5.0079
  895SOL     OW 2683   2.356   2.674   1.701 -0.0362 -0.0762  0.2630
  895SOL    HW1 2684   2.268   2.628   1.722  0.4229 -2.3725 -0.4089
  895SOL    HW2 2685   2.428   2.601   1.704 -3.2657  0.3670 -0.8038
  896SOL     OW 2686   0.805   0.250   1.373  0.0672  0.6961  0.0391
  896SOL    HW1 2687   0.774   0.329   1.321  1.2629 -0.7360  2.0833
  896SOL    HW2 2688   0.814   0.271   1.475  2.2665  0.9859 -0.2343
  897SOL     OW 2689   0.624   1.713   1.071 -0.1055  0.6947 -0.4531
  897SOL    HW1 2690   0.526   1.729   1.088  0.4261  0.0936 -0.9293
  897SOL    HW2 2691   0.683   1.733   1.151 -0.3845  0.5790 -1.4905
  898SOL     OW 2692   1.553   2.685   1.688  0.2083 -0.0109  0.8992
  898SOL    HW1 2693   1.538   2.589   1.654  1.4269 -0.1630  0.1834
  898SOL    HW2 2694   1.652   2.704   1.677  0.5913 -2.1678  0.4272
  899SOL     OW 2695   1.071   0.346   2.729  0.1401  0.4091  0.1587
  899SOL    HW1 2696   1.166   0.328   2.694  0.7878 -1.5002  2.7008
  899SOL    HW2 2697   1.005   0.276   2.700 -0.4456  0.3604  2.0741
  900SOL     OW 2698   1.267   2.611   1.847  0.5033  0.2086 -0.4300
  900SOL    HW1 2699   1.177   2.571   1.825 -0.9527  2.3633 -0.7320
  900SOL    HW2 2700   1.341   2.538   1.860  1.9705 -2.3135  0.7285
  901SOL     OW 2701   0.827   1.997   0.207  0.2241 -0.3171 -0.3597
  901SOL    HW1 2702   0.895   2.040   0.272  1.2485 -1.6507  0.2750
  901SOL    HW2 2703   0.865   1.920   0.159 -2.3540 -1.8578  1.0206
  902SOL     OW 2704   1.592   1.271   1.111  0.2784  0.1827 -0.0616
  902SOL    HW1 2705   1.640   1.346   1.160 -0.4210 -0.1557 -1.9415
  902SOL    HW2 2706   1.523   1.308   1.042 -0.2238  2.6559  0.8223
  903SOL     OW 2707   2.578   1.168   2.899 -0.8336  0.1912 -0.3909
  903SOL    HW1 2708   2.642   1.249   2.900 -0.9339  2.2617 -0.2118
  903SOL    HW2 2709   2.511   1.191   2.970  1.0476  0.1156  0.6150
  904SOL     OW 2710   0.959   1.169   0.258  0.3081 -0.2680 -0.2085
  904SOL    HW1 2711   0.963   1.269   0.227  2.3122 -1.2032  1.4055
  904SOL    HW2 2712   1.024   1.163   0.338 -0.9512 -0.7341  1.1842
  905SOL     OW 2713   1.665   0.056   1.210  0.7856 -0.1143  0.0793
  905SOL    HW1 2714   1.662   0.156   1.232 -0.6951  3.4146 -0.8101
  905SOL    HW2 2715   1.659   0.000   1.296  2.0169 -0.9466  0.6446
  906SOL     OW 2716   2.619   2.677   0.899  0.1841  0.3367 -0.0688
  906SOL    HW1 2717   2.585   2.749   0.962 -1.8030  0.6323  0.2909
  906SOL    HW2 2718   2.553   2.661   0.821 -1.4002 -0.5184  0.3588
  907SOL     OW 2719   1.432   0.837   0.553 -0.5755  0.6672 -0.2440
  907SOL    HW1 2720   1.402   0.740   0.543  0.7554  1.8392  1.5987
  907SOL    HW2 2721   1.397   0.869   0.645  1.5878  0.2264 -1.0672
  908SOL     OW 2722   1.571   0.058   0.948 -0.1636  0.0125 -0.3770
  908SOL    HW1 2723   1.473   0.064   0.965  0.1954 -1.6401 -1.5245
  908SOL    HW2 2724   1.620   0.058   1.039 -1.7720  0.1080 -0.1838
  909SOL     OW 2725   2.230   0.802   1.331 -0.2510  0.1643  0.2180
  909SOL    HW1 2726   2.161   0.858   1.285  1.4405  3.1996 -1.0054
  909SOL    HW2 2727   2.215   0.703   1.341  1.6269 -1.9574  1.2455
  910SOL     OW 2728   2.202   0.667   2.133  0.0791 -0.1316 -0.1234
  910SOL    HW1 2729   2.127   0.692   2.068  2.0756  1.1969  1.3872
  910SOL    HW2 2730   2.254   0.748   2.161 -1.4561 -1.7869 -1.6515
  911SOL     OW 2731   2.219   0.671   2.652 -0.1516  0.2912 -0.6141
  911SOL    HW1 2732   2.255   0.657   2.557  1.3622 -0.6131 -1.3079
  911SOL    HW2 2733   2.295   0.691   2.722  1.5658 -2.0501  0.8451
  912SOL     OW 2734   0.614   1.174   1.729  0.4974  0.3338  0.4907
  912SOL    HW1 2735   0.692   1.138   1.674 -0.7547  1.0779 -0.5504
  912SOL    HW2 2736   0.534   1.163   1.671  0.7795  0.1587  0.4084
  913SOL     OW 2737   2.974   2.377   1.556  0.1287  0.0279  0.8143
  913SOL    HW1 2738   2.937   2.317   1.628 -2.1444 -0.8319 -0.1516
  913SOL    HW2 2739   2.956   2.471   1.584 -2.6053 -1.0647  0.0117
  914SOL     OW 2740   1.577   0.778   1.891  0.3549 -0.1049 -1.1280
  914SOL    HW1 2741   1.478   0.755   1.881 -1.1082 -0.3140  0.7780
  914SOL    HW2 2742   1.641   0.757   1.813 -1.8442  0.7897 -0.0607
  915SOL     OW 2743   2.443   0.978   0.914 -0.5872  0.3097 -0.3960
  915SOL    HW1 2744   2.472   0.878   0.910 -1.0850 -2.2387  1.6601
  915SOL    HW2 2745   2.514   1.042   0.873 -0.2620  1.5920 -2.4177
  916SOL     OW 2746   1.772   2.155   1.072 -0.3569 -0.0389 -0.2622
  916SOL    HW1 2747   1.722   2.220   1.136  0.4306 -1.1284  0.3668
  916SOL    HW2 2748   1.754   2.056   1.088  1.7623  0.8054  0.2842
  917SOL     OW 2749   1.943   2.307   2.259 -0.3130 -0.5012  0.3705
  917SOL    HW1 2750   1.841   2.290   2.257  0.3102  1.5296  1.5606
  917SOL    HW2 2751   1.979   2.321   2.165 -1.4857 -1.6794  1.8769
  918SOL     OW 2752   1.979   2.466   2.481  0.1845  0.2993 -0.5224
  918SOL    HW1 2753   1.895   2.516   2.447  1.1028 -0.4431 -2.4252
  918SOL    HW2 2754   1.991   2.389   2.412  0.3396  1.3096  1.1009
  919SOL     OW 2755   1.127   0.268   1.486 -0.1641 -0.5298  0.1697
  919SOL    HW1 2756   1.205   0.203   1.502  0.3667 -0.2588  1.9264
  919SOL    HW2 2757   1.043   0.243   1.535  1.8470 -0.6447 -0.3948
  920SOL     OW 2758   2.903   0.341   2.467  0.5053  0.0335  0.0510
  920SOL    HW1 2759   2.955   0.260   2.499 -1.6265  0.7699  1.0720
  920SOL    HW2 2760   2.825   0.363   2.530 -0.6511 -1.3582 -2.5333
  921SOL     OW 2761   0.028   1.015   1.839  0.6943  0.0975  0.2079
  921SOL    HW1 2762   0.011   1.117   1.844  0.0882  3.8137  2.2752
  921SOL    HW2 2763   3.034   0.969   1.852 -2.9111 -0.1929 -0.6143
  922SOL     OW 2764   2.354   2.422   0.439  0.0221  0.2012 -0.1573
  922SOL    HW1 2765   2.288   2.484   0.486 -1.5096 -1.7616  1.5809
  922SOL    HW2 2766   2.340   2.412   0.339  0.3641 -1.7085 -0.7219
  923SOL     OW 2767   0.555   2.094   0.621 -0.1207  0.3586  0.0048
  923SOL    HW1 2768   0.615   2.119   0.702  2.2887  0.6843  0.9641
  923SOL    HW2 2769   0.463   2.137   0.633  0.2025  0.2494  0.1833
  924SOL     OW 2770   1.192   0.978   0.125  0.2218 -0.4070 -0.5101
  924SOL    HW1 2771   1.241   1.067   0.107  1.2730 -0.9606  1.0115
  924SOL    HW2 2772   1.090   0.988   0.141 -3.1483  1.2097 -1.8358
  925SOL     OW 2773   2.600   0.755   0.904  0.3712  0.1442  0.5972
  925SOL    HW1 2774   2.638   0.719   0.991 -2.5741 -0.1379 -1.2614
  925SOL    HW2 2775   2.542   0.679   0.866 -0.7704  1.6067 -0.5070
  926SOL     OW 2776   0.411   0.323   1.321  0.7391  0.3700 -0.5475
  926SOL    HW1 2777   0.381   0.258   1.248 -2.1964 -2.8928  1.1237
  926SOL    HW2 2778   0.342   0.397   1.318 -2.4124  0.7498 -3.0202
  927SOL     OW 2779   0.739   1.348   2.470 -0.6065  0.1494  0.3139
  927SOL    HW1 2780   0.712   1.364   2.563  1.1434 -0.1333 -1.4672
  927SOL    HW2 2781   0.701   1.260   2.432 -2.2734 -1.1265  0.5712
  928SOL     OW 2782   0.174   0.695   2.448  0.4975  0.2873  0.0341
  928SOL    HW1 2783   0.089   0.684   2.392  0.7658  0.4243 -1.1461
  928SOL    HW2 2784   0.164   0.623   2.522 -2.5730  0.7870 -0.0693
  929SOL     OW 2785   2.842   3.004   1.220  0.1360 -0.3593  0.0582
  929SOL    HW1 2786   2.918   2.955   1.172  0.2649  1.4547  1.0541
  929SOL    HW2 2787   2.839   0.005   1.222  0.3036 -0.2780 -1.6228
  930SOL     OW 2788   1.999   0.420   1.733  0.3669 -0.3374 -0.3386
  930SOL    HW1 2789   2.034   0.345   1.680  0.6619  1.3007  0.7959
  930SOL    HW2 2790   1.951   0.391   1.814 -0.8528 -0.8318  0.1492
  931SOL     OW 2791   2.167   0.760   0.081  0.0794 -0.3435 -0.2918
  931SOL    HW1 2792   2.092   0.691   0.075  1.1261  1.3918 -0.4248
  931SOL    HW2 2793   2.218   0.755   0.169  1.1196 -2.2522  0.6548
  932SOL     OW 2794   2.187   1.423   0.471 -0.0413  0.0997 -0.2294
  932SOL    HW1 2795   2.251   1.346   0.499  0.6465 -0.8697 -0.4060
  932SOL    HW2 2796   2.101   1.411   0.517  2.8769 -1.5799 -0.1414
  933SOL     OW 2797   2.026   1.652   1.052  0.0437 -0.3312  0.6521
  933SOL    HW1 2798   2.101   1.613   1.105 -0.0407  0.7254  1.5917
  933SOL    HW2 2799   1.963   1.579   1.015 -0.2106 -1.6600 -0.4618
  934SOL     OW 2800   1.962   1.007   2.621  0.5237 -0.1009 -0.3295
  934SOL    HW1 2801   2.001   1.062   2.698  0.9837  1.1578 -1.5106
  934SOL    HW2 2802   1.954   0.904   2.642 -2.2609 -1.7117  0.6985
  935SOL     OW 2803   0.361   1.062   0.647  0.4857  0.7676 -0.5607
  935SOL    HW1 2804   0.335   1.069   0.551  0.5594  1.1493  1.1434
  935SOL    HW2 2805   0.282   1.034   0.702  2.6662  0.5543 -1.0885
  936SOL     OW 2806   0.670   0.065   0.802  0.2344 -0.2488 -0.2967
  936SOL    HW1 2807   0.641   0.107   0.892  1.3589  2.0817  1.0385
  936SOL    HW2 2808   0.628   0.121   0.721 -1.2100  1.6615 -2.2719
  937SOL     OW 2809   2.771   2.975   1.685  0.5166  0.0617 -0.2606
  937SOL    HW1 2810   2.789   2.919   1.602  1.2943  1.7445 -1.4064
  937SOL    HW2 2811   2.778   2.928   1.771 -0.6616 -0.2475  0.6964
  938SOL     OW 2812   3.017   2.253   3.061  0.0468 -0.0947 -0.0540
  938SOL    HW1 2813   2.956   2.301   3.000  0.6097 -1.7684  1.7942
  938SOL    HW2 2814   0.007   2.309   3.068  1.9906  0.8513 -0.1489
  939SOL     OW 2815   1.235   1.606   1.288 -0.1199 -0.5006  0.2268
  939SOL    HW1 2816   1.261   1.517   1.321  1.1728  2.0229 -0.0910
  939SOL    HW2 2817   1.299   1.676   1.324  0.2365  3.2076 -2.1950
  940SOL     OW 2818   2.996   0.593   3.007  0.0188  0.2207  0.1406
  940SOL    HW1 2819   3.081   0.537   2.996  3.2750  3.0387  0.0605
  940SOL    HW2 2820   2.936   0.561   3.083  1.5801  0.6861  1.3980
  941SOL     OW 2821   2.171   0.416   2.728 -0.3784  0.4224  0.7571
  941SOL    HW1 2822   2.259   0.371   2.737  2.1681  1.2629 -1.4958
  941SOL    HW2 2823   2.195   0.514   2.710  1.2997  1.6365 -1.4249
  942SOL     OW 2824   1.614   0.291   0.810  0.3680 -0.2257 -0.3020
  942SOL    HW1 2825   1.626   0.196   0.849 -1.1893 -0.4558  1.0434
  942SOL    HW2 2826   1.704   0.335   0.789  1.9756  1.8462 -0.0384
  943SOL     OW 2827   1.194   1.197   2.072 -0.2613  0.1306  0.1627
  943SOL    HW1 2828   1.276   1.143   2.068 -1.5656 -1.4697 -0.2517
  943SOL    HW2 2829   1.147   1.199   1.980 -2.3756  0.6084 -2.0510
  944SOL     OW 2830   1.944   1.104   1.543 -0.3393  0.6532  0.3692
  944SOL    HW1 2831   1.938   1.005   1.570  2.5992 -2.5589  1.2642
  944SOL    HW2 2832   2.016   1.149   1.594  0.5193  2.5306 -0.3974
  945SOL     OW 2833   2.685   0.218   2.811 -0.0888  0.0149 -0.3767
  945SOL    HW1 2834   2.661   0.146   2.747 -0.0392  1.2470  1.1882
  945SOL    HW2 2835   2.713   0.179   2.904 -1.9915 -1.2068 -0.2558
  946SOL     OW 2836   2.812   1.420   1.680  0.1718 -0.4201 -0.3794
  946SOL    HW1 2837   2.843   1.370   1.598 -2.1113  0.1665 -0.5105
  946SOL    HW2 2838   2.764   1.506   1.651 -0.2780 -0.0713 -0.5549
  947SOL     OW 2839   1.017   3.002   0.152 -0.3447  0.2534 -0.4552
  947SOL    HW1 2840   0.939   2.945   0.114 -2.3286 -4.6165  0.3544
  947SOL    HW2 2841   0.978   3.066   0.221 -1.2612 -2.5298 -1.9930
  948SOL     OW 2842   2.246   1.646   1.259 -0.4862 -0.0510  0.0049
  948SOL    HW1 2843   2.246   1.721   1.329 -0.0099 -0.6992  0.4461
  948SOL    HW2 2844   2.340   1.630   1.225  0.2293 -3.0509 -2.7663
  949SOL     OW 2845   0.234   1.361   3.071 -0.3056  0.0301  0.9229
  949SOL    HW1 2846   0.213   1.289   3.006 -2.5789  1.4441 -1.5887
  949SOL    HW2 2847   0.294   1.429   3.021 -2.0930  1.3616 -2.6898
  950SOL     OW 2848   0.557   2.299   1.041  0.2174  0.0905 -0.1736
  950SOL    HW1 2849   0.490   2.371   1.054 -1.1677  0.2820  0.1555
  950SOL    HW2 2850   0.581   2.295   0.941 -0.2915  2.8314 -1.4189
  951SOL     OW 2851   0.706   1.621   2.709  0.1748 -0.2264 -0.7769
  951SOL    HW1 2852   0.792   1.596   2.757 -2.2974 -1.4767  2.4347
  951SOL    HW2 2853   0.642   1.541   2.713  1.1816 -2.8327  2.7693
  952SOL     OW 2854   0.748   0.887   0.529 -0.0623  0.1239 -0.3052
  952SOL    HW1 2855   0.754   0.789   0.567  2.3554 -0.9581  1.3764
  952SOL    HW2 2856   0.760   0.951   0.608 -2.1594  1.4326  0.0340
  953SOL     OW 2857   2.429   2.800   2.533 -0.2362  0.5540 -0.7687
  953SOL    HW1 2858   2.479   2.711   2.547 -0.8636 -1.2132  0.5561
  953SOL    HW2 2859   2.373   2.823   2.619  1.1878  0.5124  1.1639
  954SOL     OW 2860   1.873   0.969   0.871  0.4747  0.6022  0.2168
  954SOL    HW1 2861   1.911   1.054   0.911 -0.9097 -0.6953  0.5927
  954SOL    HW2 2862   1.890   0.961   0.769  0.1604 -1.6072  0.8189
  955SOL     OW 2863   0.652   1.926   0.421 -0.0757 -0.1393 -0.5479
  955SOL    HW1 2864   0.708   1.984   0.355  1.6827  0.9833 -0.1827
  955SOL    HW2 2865   0.587   1.984   0.472  2.6121 -1.6866  1.4899
  956SOL     OW 2866   2.322   0.444   2.014 -0.3277  0.0637 -0.1333
  956SOL    HW1 2867   2.283   0.528   2.056 -0.6674 -0.3710 -0.4966
  956SOL    HW2 2868   2.419   0.430   2.037  2.4513  2.6972  0.9253
  957SOL     OW 2869   2.027   2.326   2.003  1.1239 -0.0737  0.2157
  957SOL    HW1 2870   2.121   2.319   1.960  2.8473 -2.1193  0.0122
  957SOL    HW2 2871   1.976   2.240   1.984  1.2216 -2.4765 -0.9653
  958SOL     OW 2872   1.649   1.135   1.380 -0.0858  0.4571 -0.1391
  958SOL    HW1 2873   1.622   1.219   1.433  0.2547 -0.9125 -0.9099
  958SOL    HW2 2874   1.618   1.152   1.283  2.1007 -0.0578  1.0591
  959SOL     OW 2875   1.860   1.853   2.062  0.3644 -0.1425  0.0687
  959SOL    HW1 2876   1.886   1.765   2.100  1.4382 -0.1924 -0.0808
  959SOL    HW2 2877   1.759   1.857   2.041  1.6612 -1.4384 -0.3672
  960SOL     OW 2878   0.709   0.903   2.797  0.2245 -0.1963 -0.5941
  960SOL    HW1 2879   0.680   0.855   2.711 -1.5118 -0.3846 -0.3519
  960SOL    HW2 2880   0.780   0.853   2.851 -0.7404 -0.5387 -0.3808
  961SOL     OW 2881   0.058   1.120   2.967  0.2869  0.0520 -0.3160
  961SOL    HW1 2882   0.043   1.022   2.997 -3.4479  0.9892 -0.8973
  961SOL    HW2 2883   0.148   1.145   2.925 -1.4279  0.7779  0.0120
  962SOL     OW 2884   0.783   1.819   2.509 -0.7060 -0.0982 -0.4818
  962SOL    HW1 2885   0.758   1.737   2.570 -1.6702 -0.0691 -2.0067
  962SOL    HW2 2886   0.757   1.912   2.549  0.4057  2.6325  2.1715
  963SOL     OW 2887   2.988   2.029   0.147  0.6976  0.7312  0.1411
  963SOL    HW1 2888   2.890   1.994   0.151  1.4076  0.4760  1.0280
  963SOL    HW2 2889   2.994   2.102   0.083  1.4498 -4.2873  4.1897
  964SOL     OW 2890   0.969   2.047   1.978  0.2067 -0.4320  0.1793
  964SOL    HW1 2891   1.010   2.036   2.071 -0.1570 -0.4638 -1.3008
  964SOL    HW2 2892   0.923   1.956   1.957 -1.7097 -0.4070 -0.1240
  965SOL     OW 2893   1.665   1.996   0.490  0.3691 -0.1466  0.2799
  965SOL    HW1 2894   1.627   2.085   0.440 -0.5540  1.9822 -3.8293
  965SOL    HW2 2895   1.642   1.989   0.584  0.2117  3.2093 -1.3086
  966SOL     OW 2896   2.963   1.650   0.095 -0.1055  0.0595  0.0391
  966SOL    HW1 2897   3.051   1.700   0.072  1.1852  1.9524 -3.7640
  966SOL    HW2 2898   2.976   1.552   0.115 -1.9853  3.1277  0.8379
  967SOL     OW 2899   2.112   3.077   2.263  0.0587  0.0962  0.0501
  967SOL    HW1 2900   2.202   3.033   2.259 -1.7032  1.2911  1.8670
  967SOL    HW2 2901   2.040   3.027   2.208  0.6042  0.0017  0.5920
  968SOL     OW 2902   0.972   0.696   0.122  0.1024 -0.3117 -0.7314
  968SOL    HW1 2903   0.972   0.755   0.206 -1.6302  0.1250  0.9784
  968SOL    HW2 2904   1.056   0.703   0.067  1.6370 -0.2750  0.6796
  969SOL     OW 2905   0.493   1.521   2.088 -0.0712  0.0792  0.0854
  969SOL    HW1 2906   0.544   1.552   2.172  1.0862  0.3397 -0.0011
  969SOL    HW2 2907   0.535   1.441   2.041  1.9450 -1.7215 -1.0712
  970SOL     OW 2908   1.904   2.578   1.316 -0.7185 -0.4628  0.0149
  970SOL    HW1 2909   1.931   2.511   1.248 -1.2075  0.1106  0.8908
  970SOL    HW2 2910   1.907   2.539   1.411  0.0324  1.0090  0.4660
  971SOL     OW 2911   2.155   2.292   0.764  0.4029  0.8402  0.0124
  971SOL    HW1 2912   2.143   2.382   0.803 -1.6269 -3.5690 -0.8181
  971SOL    HW2 2913   2.249   2.264   0.753 -1.1008  2.9770  1.1849
  972SOL     OW 2914   0.077   1.118   2.437  0.6306 -0.2574  0.0471
  972SOL    HW1 2915   0.060   1.120   2.340 -0.0164 -0.2387  4.2494
  972SOL    HW2 2916   0.135   1.198   2.466  0.1901 -0.1865 -1.8137
  973SOL     OW 2917   0.562   0.146   0.276  0.7144  0.2315  0.4808
  973SOL    HW1 2918   0.606   0.233   0.249 -1.8910 -0.5698  0.8034
  973SOL    HW2 2919   0.465   0.149   0.242  2.9284 -4.5599 -1.4744
  974SOL     OW 2920   2.449   0.907   1.876 -0.0823  0.0458 -0.4013
  974SOL    HW1 2921   2.355   0.901   1.841  1.5753 -1.5699 -2.2175
  974SOL    HW2 2922   2.443   0.938   1.976 -1.6365 -0.4992 -1.1057
  975SOL     OW 2923   0.030   2.991   0.504 -0.4779  0.3327  0.5446
  975SOL    HW1 2924   3.039   2.992   0.551 -0.7618 -0.7057  1.2937
  975SOL    HW2 2925   0.080   2.905   0.526 -1.1955 -0.9743 -0.7888
  976SOL     OW 2926   0.064   1.802   1.022 -0.4166  0.8482 -0.2806
  976SOL    HW1 2927   0.001   1.861   0.972  0.7301 -2.3339  0.5961
  976SOL    HW2 2928   0.065   1.706   0.988  0.9313 -0.8119  1.2941
  977SOL     OW 2929   1.017   1.668   0.392 -0.2411  0.7110  0.3541
  977SOL    HW1 2930   0.937   1.607   0.419  1.0392 -1.0789  0.3871
  977SOL    HW2 2931   1.000   1.758   0.431  1.1836 -0.7457  0.3820
  978SOL     OW 2932   0.171   0.813   0.397  0.2245  0.0132  0.6343
  978SOL    HW1 2933   0.183   0.780   0.300 -0.1152 -0.9805 -2.0387
  978SOL    HW2 2934   0.202   0.915   0.407  2.8759  3.0167  0.7607
  979SOL     OW 2935   1.792   1.799   0.830 -0.1435 -0.0515  0.5394
  979SOL    HW1 2936   1.890   1.827   0.828  2.6265 -4.1905 -2.0687
  979SOL    HW2 2937   1.776   1.729   0.904  1.4634 -3.7829 -1.1112
  980SOL     OW 2938   0.449   1.944   1.931 -0.4532 -0.3194  0.0414
  980SOL    HW1 2939   0.506   1.912   2.006 -0.5826 -0.2049 -1.0919
  980SOL    HW2 2940   0.495   2.016   1.873 -0.6164 -1.6151 -3.4900
  981SOL     OW 2941   2.089   1.169   2.785 -0.4224  0.4432  0.0259
  981SOL    HW1 2942   2.011   1.228   2.809  1.2588 -1.2391 -0.7932
  981SOL    HW2 2943   2.160   1.221   2.732  0.3082 -0.9647 -1.5935
  982SOL     OW 2944   2.800   2.633   1.850  0.4339  0.8726 -0.5672
  982SOL    HW1 2945   2.811   2.713   1.909 -0.2547  4.8067 -1.1605
  982SOL    HW2 2946   2.852   2.642   1.766 -2.0059 -1.5157 -1.0522
  983SOL     OW 2947   1.573   0.298   1.646  0.5001 -0.1279  0.2957
  983SOL    HW1 2948   1.532   0.375   1.696 -1.1828 -0.2264  0.9515
  983SOL    HW2 2949   1.565   0.213   1.700  1.0848 -0.4904  2.0151
  984SOL     OW 2950   2.075   3.014   3.045 -0.1066 -0.4998 -0.0616
  984SOL    HW1 2951   2.146   3.077   3.011 -2.0745 -0.4372  0.8734
  984SOL    HW2 2952   1.981   3.037   3.017  1.6130 -1.0181 -0.7146
  985SOL     OW 2953   1.534   1.597   1.715 -0.1049  0.2183  0.5594
  985SOL    HW1 2954   1.470   1.522   1.680 -0.6783 -0.2326  0.3214
  985SOL    HW2 2955   1.588   1.559   1.790  1.0169 -3.1407  1.9928
  986SOL     OW 2956   2.107   2.674   2.573  0.9545  0.0722 -0.3770
  986SOL    HW1 2957   2.081   2.708   2.663 -0.3327  1.7721  1.2602
  986SOL    HW2 2958   2.045   2.595   2.543 -1.3596  2.0412 -1.6039
  987SOL     OW 2959   2.869   1.832   2.798  0.8130 -0.1771 -0.1116
  987SOL    HW1 2960   2.880   1.755   2.730  0.6088  0.7472 -0.0202
  987SOL    HW2 2961   2.880   1.925   2.759  0.5230  3.2202 -1.7196
  988SOL     OW 2962   3.047   0.819   1.430  0.5224  0.6590 -0.0251
  988SOL    HW1 2963   0.009   0.849   1.509 -1.0520  0.1434  2.5972
  988SOL    HW2 2964   3.051   0.883   1.352  0.8754  0.6789 -0.6728
  989SOL     OW 2965   2.030   1.118   1.295 -0.1141  0.6629  0.2499
  989SOL    HW1 2966   2.047   1.029   1.254  0.3840 -0.2471  1.8261
  989SOL    HW2 2967   2.001   1.112   1.392  0.8921 -0.0149  2.5719
  990SOL     OW 2968   2.544   0.669   0.106  0.4220  0.0632  0.2242
  990SOL    HW1 2969   2.556   0.717   0.017 -3.7360  0.0412  3.8863
  990SOL    HW2 2970   2.617   0.682   0.170  0.1121 -1.0949 -1.9703
  991SOL     OW 2971   0.604   1.645   3.076  0.1063 -0.1417 -0.1551
  991SOL    HW1 2972   0.597   1.729   3.017  0.4891 -0.5709 -1.1844
  991SOL    HW2 2973   0.570   1.669   0.069  1.0163  0.5359 -0.0470
  992SOL     OW 2974   2.312   1.617   1.805  0.0664  0.7868 -0.2653
  992SOL    HW1 2975   2.256   1.576   1.882 -1.5490 -1.4257 -1.9787
  992SOL    HW2 2976   2.396   1.676   1.832  0.3985  2.1721 -0.2987
  993SOL     OW 2977   0.627   2.874   0.494  0.5862 -0.3828  0.1413
  993SOL    HW1 2978   0.698   2.930   0.440  2.8910 -0.2691  1.8956
  993SOL    HW2 2979   0.677   2.805   0.549 -1.0367  1.6749  0.3295
  994SOL     OW 2980   2.587   2.186   1.445 -0.3300  0.1301 -0.1945
  994SOL    HW1 2981   2.582   2.202   1.544 -0.1468 -2.2640 -0.0976
  994SOL    HW2 2982   2.615   2.091   1.423  1.9968  1.6262 -1.3404
  995SOL     OW 2983   1.866   1.969   2.354 -0.1805  0.3891  0.2825
  995SOL    HW1 2984   1.831   2.065   2.333  0.2320  1.6114 -2.3814
  995SOL    HW2 2985   1.822   1.908   2.291 -0.1457  1.7121  2.6410
  996SOL     OW 2986   2.136   1.908   3.067  0.2241 -0.1367 -0.0079
  996SOL    HW1 2987   2.055   1.966   3.047  2.2101  2.3409  3.1833
  996SOL    HW2 2988   2.114   1.842   0.040  1.5181 -0.1808 -1.7041
  997SOL     OW 2989   1.387   1.299   2.523  0.3283 -0.1339  0.1427
  997SOL    HW1 2990   1.344   1.286   2.433  1.8650  2.5883  1.7882
  997SOL    HW2 2991   1.450   1.379   2.520  1.1672 -1.4385 -2.1236
  998SOL     OW 2992   2.989   2.426   0.679 -0.5379  0.6178 -0.6015
  998SOL    HW1 2993   3.028   2.426   0.586  0.9189 -0.7954 -1.1805
  998SOL    HW2 2994   3.044   2.486   0.740  0.3724  0.8385 -0.7581
  999SOL     OW 2995   0.400   2.721   0.492  0.3682  0.3982  0.3772
  999SOL    HW1 2996   0.440   2.647   0.429 -1.6790 -1.7139 -0.7517
  999SOL    HW2 2997   0.472   2.743   0.560 -1.9234 -0.2768 -1.5621
 1000SOL     OW 2998   1.005   0.103   3.018 -0.1274 -0.8154  0.2174
 1000SOL    HW1 2999   0.978   0.083   0.014  1.6527  1.0946 -0.3401
 1000SOL    HW2 3000   0.923   0.107   2.963  0.5053 -1.1500  1.7863
   3.09921   3.09921   3.09921
