1000 SPC/Fw water molecules t= 332.00000 step= 332000
 3000
    1SOL     OW    1   2.281   0.077   1.283  0.0576  0.0575  0.1301
    1SOL    HW1    2   2.298   3.109   1.237  0.3629 -2.3012  0.4707
    1SOL    HW2    3   2.292   0.053   1.383  3.0666 -0.4912  0.0804
    2SOL     OW    4   2.589   2.373   0.834  0.1210  0.0580  0.3853
    2SOL    HW1    5   2.630   2.464   0.855  1.2989 -0.9085 -1.5459
    2SOL    HW2    6   2.517   2.346   0.901  0.4312  2.5111 -0.1760
    3SOL     OW    7   1.096   3.067   3.007 -0.4070 -0.0865  0.2270
    3SOL    HW1    8   1.126   2.991   3.077  0.8429 -3.3637 -0.7231
    3SOL    HW2    9   0.997   3.070   2.993  0.9403  1.3118  1.8198
    4SOL     OW   10   1.868   2.628   2.173 -0.6579  0.2530 -0.2978
    4SOL    HW1   11   1.928   2.701   2.135 -0.0894 -1.5054  0.3321
    4SOL    HW2   12   1.916   2.538   2.159 -2.0379  2.3175  1.8443
    5SOL     OW   13   1.434   1.093   1.899 -0.5313 -0.0538  0.2454
    5SOL    HW1   14   1.467   1.091   1.800 -2.0311  0.6560 -0.0915
    5SOL    HW2   15   1.347   1.037   1.911 -1.0429 -1.1523 -0.2215
    6SOL     OW   16   1.979   2.806   0.733  0.7613 -0.0311  0.1810
    6SOL    HW1   17   1.972   2.728   0.667 -1.0299  2.0090 -1.1122
    6SOL    HW2   18   1.961   2.770   0.825 -1.0295 -0.9137 -2.0617
    7SOL     OW   19   2.301   1.162   1.319  0.1796 -0.3524 -0.4276
    7SOL    HW1   20   2.401   1.181   1.323 -0.0160  0.8323  1.0449
    7SOL    HW2   21   2.263   1.163   1.415  0.7438 -1.7247 -0.0938
    8SOL     OW   22   0.774   1.757   1.381  0.2171 -0.3282  0.2765
    8SOL    HW1   23   0.707   1.681   1.386  2.4097 -1.5746  1.0662
    8SOL    HW2   24   0.748   1.835   1.436  1.3563 -2.2127 -2.8478
    9SOL     OW   25   1.233   2.619   2.293  0.2676 -0.8273 -0.5212
    9SOL    HW1   26   1.190   2.601   2.385  0.2212 -1.6442  0.2768
    9SOL    HW2   27   1.170   2.682   2.237 -0.8895  2.7088 -1.4604
   10SOL     OW   28   0.247   2.015   0.798 -0.1222 -0.0652 -0.5139
   10SOL    HW1   29   0.324   1.963   0.839 -0.1598  1.5444 -1.8708
   10SOL    HW2   30   0.200   2.056   0.879 -1.0630  3.2905  1.7830
   11SOL     OW   31   1.621   2.138   1.005 -0.2403  0.0646  0.1494
   11SOL    HW1   32   1.573   2.134   1.096 -1.2925  0.0204  1.2348
   11SOL    HW2   33   1.616   2.054   0.949  0.5043  0.8006 -0.8180
   12SOL     OW   34   2.328   3.028   2.077  0.2088  0.0562  0.4277
   12SOL    HW1   35   2.399   3.075   2.131  0.5553 -0.2178 -2.8618
   12SOL    HW2   36   2.278   3.100   2.021  0.6199 -0.1495 -1.1731
   13SOL     OW   37   2.649   2.874   0.611 -0.3556 -0.1837  0.6392
   13SOL    HW1   38   2.584   2.951   0.628  0.8647  1.7981  0.2725
   13SOL    HW2   39   2.742   2.901   0.644 -2.7651  0.5071  0.2747
   14SOL     OW   40   1.514   1.841   2.934  0.0499  0.2661 -0.2199
   14SOL    HW1   41   1.517   1.739   2.951 -2.3144 -1.2257  1.3567
   14SOL    HW2   42   1.568   1.866   2.853  0.1842  1.0004  2.8854
   15SOL     OW   43   2.858   2.702   1.495  0.1442  0.0426  0.2381
   15SOL    HW1   44   2.949   2.750   1.483  1.1035 -0.2329 -1.5639
   15SOL    HW2   45   2.789   2.760   1.542 -0.0696  0.8615  2.1101
   16SOL     OW   46   2.688   2.972   0.351 -0.6524  0.1392 -0.0661
   16SOL    HW1   47   2.691   2.906   0.430  0.4161 -1.3158 -0.2042
   16SOL    HW2   48   2.776   2.980   0.301  3.0365  1.2532  0.5044
   17SOL     OW   49   0.391   0.158   1.485 -0.1509 -0.4303  0.2594
   17SOL    HW1   50   0.452   0.212   1.425 -1.2299 -1.7144  0.2215
   17SOL    HW2   51   0.395   0.057   1.461 -0.2683 -1.6761 -0.2994
   18SOL     OW   52   2.277   0.887   0.613  0.2496 -0.2393  0.2249
   18SOL    HW1   53   2.358   0.931   0.569 -1.9912 -0.2359 -0.2150
   18SOL    HW2   54   2.266   0.920   0.706  1.2041  0.2915 -1.1668
   19SOL     OW   55   1.564   1.779   0.169 -0.5112 -0.1249 -0.5488
   19SOL    HW1   56   1.604   1.782   0.263 -0.8657  1.9201 -0.6683
   19SOL    HW2   57   1.634   1.828   0.120 -1.5729 -1.2074  1.2832
   20SOL     OW   58   2.480   2.000   2.332  1.4973 -0.4601  0.8463
   20SOL    HW1   59   2.422   1.927   2.287 -3.8230 -2.2378  0.0634
   20SOL    HW2   60   2.424   2.068   2.381 -1.1928  1.1931  1.7350
   21SOL     OW   61   1.878   0.000   0.577  0.0646  0.0830 -0.1210
   21SOL    HW1   62   1.797   3.103   0.637 -1.8321 -1.6169  2.9345
   21SOL    HW2   63   1.962   0.003   0.632  0.6855 -0.2290 -1.0460
   22SOL     OW   64   2.522   0.343   1.405 -0.4915  0.3731  0.2241
   22SOL    HW1   65   2.545   0.248   1.437  0.2736 -2.4300 -0.9786
   22SOL    HW2   66   2.437   0.380   1.442  0.0211 -1.8536 -1.8915
   23SOL     OW   67   0.547   0.526   1.576 -0.0296  0.3429  0.3842
   23SOL    HW1   68   0.543   0.598   1.649  1.6953  2.9968  0.3836
   23SOL    HW2   69   0.484   0.545   1.496 -0.5587 -0.5335  0.1537
   24SOL     OW   70   2.496   2.644   0.578  0.2438 -0.3838  0.3242
   24SOL    HW1   71   2.560   2.567   0.589  1.6429 -1.5821  1.7761
   24SOL    HW2   72   2.551   2.730   0.582 -0.6252 -0.7097  0.2299
   25SOL     OW   73   1.180   2.683   2.594 -0.4964  0.0026  0.0351
   25SOL    HW1   74   1.116   2.758   2.580  1.2087 -1.4223  2.8865
   25SOL    HW2   75   1.276   2.727   2.589  0.9928 -2.0836 -1.8819
   26SOL     OW   76   1.562   2.556   3.106  0.6756  0.3781 -0.0311
   26SOL    HW1   77   1.499   2.576   0.059 -1.5291  1.4606 -2.9663
   26SOL    HW2   78   1.653   2.588   0.009 -2.4276  1.4596 -1.4802
   27SOL     OW   79   2.411   1.002   2.868  0.4180  0.2609  0.3864
   27SOL    HW1   80   2.394   1.101   2.885  0.1442  0.1315  0.4271
   27SOL    HW2   81   2.505   1.005   2.827 -1.0647 -2.7910 -0.0157
   28SOL     OW   82   1.026   1.649   1.099 -0.7318  0.5899 -0.1225
   28SOL    HW1   83   1.059   1.588   1.176  0.5374  0.5197 -0.7801
   28SOL    HW2   84   0.940   1.614   1.056 -2.6024  0.9199 -0.7528
   29SOL     OW   85   2.926   2.598   1.780 -0.1721  0.1000 -0.2872
   29SOL    HW1   86   3.017   2.643   1.767  0.1311 -0.7629 -0.8533
   29SOL    HW2   87   2.933   2.504   1.813 -1.5221 -1.0145 -2.6868
   30SOL     OW   88   1.364   0.051   1.067 -0.2817  0.5811 -0.3343
   30SOL    HW1   89   1.427   0.023   1.146  0.4239  1.9156  1.0251
   30SOL    HW2   90   1.397   0.133   1.020 -2.1899 -1.5708  0.1032
   31SOL     OW   91   1.918   3.031   2.285 -0.0316 -0.6006  0.3252
   31SOL    HW1   92   1.849   2.988   2.342  2.2316 -1.3648 -0.3370
   31SOL    HW2   93   1.874   3.062   2.195 -2.3307  2.1745 -1.5912
   32SOL     OW   94   0.917   1.633   0.244 -0.4750  0.1334  0.4014
   32SOL    HW1   95   0.975   1.560   0.208  2.2506  0.2178  0.8253
   32SOL    HW2   96   0.947   1.672   0.333  1.1068  0.4189  0.8638
   33SOL     OW   97   0.328   0.791   2.520 -0.4231  0.1623 -0.0425
   33SOL    HW1   98   0.311   0.694   2.496 -0.6055  1.3822 -0.2724
   33SOL    HW2   99   0.255   0.847   2.480  1.8309  0.5969  1.5374
   34SOL     OW  100   2.443   3.067   0.607 -0.2560 -0.0539 -0.7711
   34SOL    HW1  101   2.465   3.066   0.706  1.0103  0.9766 -0.3944
   34SOL    HW2  102   2.345   3.053   0.581 -1.3174 -0.3861  0.3258
   35SOL     OW  103   2.266   2.932   1.838  0.7701  0.6837  0.3424
   35SOL    HW1  104   2.167   2.955   1.819 -0.7200  1.5410  0.3119
   35SOL    HW2  105   2.290   2.946   1.939  1.5773  2.5407  0.4999
   36SOL     OW  106   1.982   2.263   0.059 -0.0919 -0.1646 -0.3414
   36SOL    HW1  107   1.914   2.262   3.103  0.1811 -1.2598 -1.6595
   36SOL    HW2  108   2.002   2.170   0.092 -0.5486 -1.7576 -1.1386
   37SOL     OW  109   1.566   0.552   2.230  0.3166  0.3051  0.2804
   37SOL    HW1  110   1.657   0.601   2.243  0.4509 -1.1799  0.8448
   37SOL    HW2  111   1.556   0.482   2.305 -0.5525 -1.4590  1.7785
   38SOL     OW  112   0.284   0.351   2.805 -0.2671 -0.9827 -0.1256
   38SOL    HW1  113   0.348   0.395   2.874 -0.0632  1.0104 -1.0785
   38SOL    HW2  114   0.299   0.253   2.785  0.9915 -0.6771  0.0996
   39SOL     OW  115   2.071   1.316   1.837 -0.0720 -0.2256  0.4380
   39SOL    HW1  116   2.130   1.392   1.804 -2.0263 -0.1785  2.1388
   39SOL    HW2  117   2.033   1.347   1.925  0.3012 -2.4576  3.6157
   40SOL     OW  118   1.440   2.606   0.245  0.2285  0.1340 -0.0381
   40SOL    HW1  119   1.387   2.579   0.327 -1.4424  0.2804 -1.7059
   40SOL    HW2  120   1.376   2.610   0.166  0.2015  0.6912 -0.1411
   41SOL     OW  121   2.420   1.341   0.918  0.6776 -0.0718 -0.4921
   41SOL    HW1  122   2.391   1.331   1.018 -3.0939  0.9202  2.1791
   41SOL    HW2  123   2.501   1.406   0.908  2.0881  1.2490 -3.0881
   42SOL     OW  124   0.786   0.306   1.342 -0.3607  0.1412  0.0448
   42SOL    HW1  125   0.795   0.409   1.346 -0.8789  1.0402 -1.3969
   42SOL    HW2  126   0.878   0.258   1.337  1.4521 -0.6067 -0.1561
   43SOL     OW  127   0.049   1.383   2.412  0.7548 -0.2243 -0.6852
   43SOL    HW1  128   0.039   1.419   2.503 -2.7559  1.1744 -1.7032
   43SOL    HW2  129   0.142   1.404   2.380  1.8399  1.5760 -0.2630
   44SOL     OW  130   2.559   0.122   1.566 -0.2000 -0.7090 -0.0111
   44SOL    HW1  131   2.602   0.191   1.630  1.1163 -1.0577 -0.9709
   44SOL    HW2  132   2.520   0.056   1.629 -0.6888  2.1484 -0.0231
   45SOL     OW  133   1.273   3.066   2.398  0.4061 -0.0693  0.0249
   45SOL    HW1  134   1.343   3.016   2.346  1.5538 -0.9104  0.3662
   45SOL    HW2  135   1.197   2.999   2.414 -2.5119 -1.9444 -0.2434
   46SOL     OW  136   0.975   2.554   2.748  0.6219  0.1999 -0.3854
   46SOL    HW1  137   1.030   2.580   2.664  0.7779 -0.1951 -0.7165
   46SOL    HW2  138   0.878   2.529   2.727 -0.2180 -1.5160  1.3673
   47SOL     OW  139   1.805   1.596   0.869  0.0038 -0.0715 -0.0828
   47SOL    HW1  140   1.874   1.551   0.808 -1.9950 -2.6971  2.0655
   47SOL    HW2  141   1.847   1.666   0.939  0.6298 -0.3462  1.2056
   48SOL     OW  142   1.171   2.134   0.655 -0.1841 -0.0227 -0.0802
   48SOL    HW1  143   1.226   2.132   0.566 -1.3705  2.0872 -0.9442
   48SOL    HW2  144   1.170   2.039   0.692 -2.2118 -1.2416  2.6144
   49SOL     OW  145   2.206   0.029   2.751  0.0552  0.4880  0.2235
   49SOL    HW1  146   2.177   3.053   2.759 -0.0256  1.5959  1.1298
   49SOL    HW2  147   2.262   0.055   2.669  1.9654 -0.5380 -1.0006
   50SOL     OW  148   1.884   2.986   0.113 -0.4671 -0.1635  0.4738
   50SOL    HW1  149   1.809   3.035   0.067 -0.9222  0.4573 -2.3479
   50SOL    HW2  150   1.975   2.991   0.062  0.8189  2.1432  1.9898
   51SOL     OW  151   2.257   0.775   1.257  0.2899  0.5602  0.5073
   51SOL    HW1  152   2.324   0.698   1.242 -1.5377 -0.0079 -0.4277
   51SOL    HW2  153   2.278   0.830   1.343  1.6718  0.8390 -1.4603
   52SOL     OW  154   0.997   1.564   0.679  0.2743  0.1032  0.0664
   52SOL    HW1  155   0.950   1.608   0.601  1.9771  0.8104 -0.1317
   52SOL    HW2  156   1.046   1.632   0.739  2.3714 -2.9570 -1.5471
   53SOL     OW  157   0.425   1.588   2.424  0.4520  0.0031  1.2063
   53SOL    HW1  158   0.486   1.570   2.341  0.0455 -0.1771  0.0281
   53SOL    HW2  159   0.483   1.630   2.495 -0.3222 -2.8014  0.5671
   54SOL     OW  160   2.853   1.202   1.685 -0.0490 -0.3472 -0.1703
   54SOL    HW1  161   2.822   1.126   1.747 -1.9108  0.2604 -1.8047
   54SOL    HW2  162   2.940   1.248   1.715 -0.6940 -0.4922 -0.7352
   55SOL     OW  163   2.456   1.903   0.644  0.1081  0.7492 -0.0563
   55SOL    HW1  164   2.385   1.836   0.614 -0.4411  0.3426 -1.8469
   55SOL    HW2  165   2.416   1.988   0.676 -0.6252 -1.7503  1.0748
   56SOL     OW  166   1.502   0.244   1.629  0.0815  0.4558 -0.2788
   56SOL    HW1  167   1.440   0.284   1.562  0.0289 -1.1184  0.2589
   56SOL    HW2  168   1.465   0.259   1.724 -0.4247 -1.6662 -1.0396
   57SOL     OW  169   1.490   1.187   2.735 -0.2737  0.2432  0.7199
   57SOL    HW1  170   1.537   1.132   2.667  0.6891  2.2779  1.6835
   57SOL    HW2  171   1.396   1.215   2.705 -1.1041  0.3492 -1.5305
   58SOL     OW  172   0.111   0.492   1.502  0.6030  0.2168  0.2306
   58SOL    HW1  173   0.208   0.491   1.467  2.4841  2.4349 -0.8649
   58SOL    HW2  174   0.085   0.586   1.532 -0.9313 -0.3245 -1.1164
   59SOL     OW  175   1.655   2.779   0.446  0.1039 -0.6161  0.2583
   59SOL    HW1  176   1.693   2.872   0.431  0.9064 -1.8935 -1.2800
   59SOL    HW2  177   1.553   2.776   0.428 -0.6992 -0.4475  2.7164
   60SOL     OW  178   2.895   1.895   3.003  0.1366 -0.1346 -0.4093
   60SOL    HW1  179   2.977   1.833   3.005  0.5145  0.3191 -0.2443
   60SOL    HW2  180   2.824   1.861   2.937 -1.5640 -1.4080  0.6099
   61SOL     OW  181   0.882   2.556   0.781 -0.1352 -0.3091 -0.2609
   61SOL    HW1  182   0.915   2.594   0.868  1.2347 -0.1121  1.6209
   61SOL    HW2  183   0.872   2.454   0.784 -1.1184 -0.6448 -0.6843
   62SOL     OW  184   2.001   1.385   2.745  0.0172 -0.6933 -0.3745
   62SOL    HW1  185   2.064   1.332   2.683  3.2458 -1.8632  0.1016
   62SOL    HW2  186   2.005   1.482   2.724  3.2788  1.1540  2.8565
   63SOL     OW  187   2.260   2.119   0.410 -0.0253  0.4220 -0.7411
   63SOL    HW1  188   2.249   2.141   0.510  4.2354 -0.2634  2.2024
   63SOL    HW2  189   2.352   2.161   0.391  1.1235  1.0540  1.1987
   64SOL     OW  190   1.764   1.220   3.067 -0.0437  0.2535  0.4434
   64SOL    HW1  191   1.699   1.149   3.104 -0.6946 -0.0175 -0.0740
   64SOL    HW2  192   1.851   1.176   3.041  0.5296  3.1699  0.2928
   65SOL     OW  193   1.890   1.714   2.365  0.2352 -0.7940  0.0410
   65SOL    HW1  194   1.976   1.664   2.372  0.9757  1.6138  1.7548
   65SOL    HW2  195   1.887   1.786   2.295 -3.1628 -2.0415  0.2612
   66SOL     OW  196   0.360   0.863   1.319 -0.4389  0.4712 -0.0516
   66SOL    HW1  197   0.458   0.857   1.293 -2.1537 -0.6189 -1.0347
   66SOL    HW2  198   0.335   0.956   1.349  0.2657 -0.2918  0.0776
   67SOL     OW  199   2.153   2.890   2.788 -0.1227 -0.4494 -0.1144
   67SOL    HW1  200   2.053   2.892   2.773  0.8916  0.0439 -1.4101
   67SOL    HW2  201   2.202   2.868   2.702  2.2027  0.4696 -0.4952
   68SOL     OW  202   1.145   2.407   1.229 -0.6282  0.6350 -0.4939
   68SOL    HW1  203   1.226   2.421   1.164 -0.7065 -1.5576  1.2846
   68SOL    HW2  204   1.177   2.380   1.323 -0.8670  1.4997 -1.1152
   69SOL     OW  205   0.666   2.454   0.043 -0.8044 -0.0083  0.4435
   69SOL    HW1  206   0.679   2.552   0.069  1.4404 -3.1946  0.9986
   69SOL    HW2  207   0.630   2.395   0.119  0.4927 -2.6110  0.4478
   70SOL     OW  208   3.035   0.518   2.503 -0.5192 -0.2220  0.5166
   70SOL    HW1  209   2.975   0.492   2.423 -1.9772 -0.2164  1.8443
   70SOL    HW2  210   3.076   0.611   2.492  1.4262 -2.1382  0.4115
   71SOL     OW  211   0.557   1.723   2.763 -0.2459 -0.2759 -0.0198
   71SOL    HW1  212   0.583   1.627   2.748 -0.2361  2.7255  0.1531
   71SOL    HW2  213   0.536   1.740   2.861 -1.0008 -1.1035 -0.6008
   72SOL     OW  214   0.189   1.721   2.358  0.5939 -0.2786 -0.6391
   72SOL    HW1  215   0.288   1.695   2.356 -3.7718 -1.4075 -1.6885
   72SOL    HW2  216   0.178   1.821   2.360 -0.6393 -1.7304  0.2395
   73SOL     OW  217   1.655   1.484   0.362  0.1891  0.3445  0.1557
   73SOL    HW1  218   1.642   1.454   0.460  0.4103 -2.3545  1.9231
   73SOL    HW2  219   1.674   1.587   0.346 -2.8882 -1.4471 -2.2372
   74SOL     OW  220   2.346   2.768   2.921 -0.3538  0.4140  0.1417
   74SOL    HW1  221   2.278   2.813   2.858 -0.8934 -1.3785  2.9202
   74SOL    HW2  222   2.301   2.693   2.979 -0.0554 -0.7184  3.1734
   75SOL     OW  223   2.216   2.108   0.974  0.1988 -0.2349 -0.3644
   75SOL    HW1  224   2.139   2.160   1.023 -2.5979 -0.5299  1.5123
   75SOL    HW2  225   2.246   2.032   1.034 -2.2115 -0.3500 -0.9760
   76SOL     OW  226   2.637   2.092   2.124  0.0236 -0.0802  0.8447
   76SOL    HW1  227   2.586   2.072   2.206 -1.0214 -0.8376 -3.9664
   76SOL    HW2  228   2.662   2.189   2.124  0.0994  1.5507 -0.1685
   77SOL     OW  229   2.865   0.183   2.346  0.1738 -0.2073  0.7371
   77SOL    HW1  230   2.837   0.141   2.259 -0.0008 -0.9617 -0.2379
   77SOL    HW2  231   2.795   0.165   2.416  1.9337 -0.9168 -1.9087
   78SOL     OW  232   2.000   1.059   3.023 -0.1613 -0.1799 -0.4243
   78SOL    HW1  233   2.041   1.035   3.114  2.7531  0.6874  1.4539
   78SOL    HW2  234   2.052   1.129   2.967 -0.0009  1.3762 -1.7347
   79SOL     OW  235   2.771   1.396   2.513 -0.1850 -0.0779 -0.1078
   79SOL    HW1  236   2.700   1.341   2.462  0.9561  0.9752  2.3090
   79SOL    HW2  237   2.751   1.498   2.507  2.6480 -0.7362  1.2444
   80SOL     OW  238   1.535   1.557   1.492 -0.0106 -0.3916  0.3186
   80SOL    HW1  239   1.436   1.577   1.513 -3.3627  0.1428 -1.8460
   80SOL    HW2  240   1.587   1.614   1.559 -1.7237  0.5693  0.4220
   81SOL     OW  241   1.672   0.813   1.951 -0.1695  0.6068  0.6494
   81SOL    HW1  242   1.716   0.769   2.033 -0.4492  0.0665  1.4067
   81SOL    HW2  243   1.722   0.889   1.906  1.8220 -0.0709 -0.0210
   82SOL     OW  244   1.813   2.071   1.727  0.3962  0.0956 -0.0187
   82SOL    HW1  245   1.806   2.101   1.629 -1.1724  0.1420 -2.4185
   82SOL    HW2  246   1.899   2.103   1.774  0.1407  0.7434 -2.6246
   83SOL     OW  247   2.971   3.064   0.263 -0.0494 -0.5380 -0.2071
   83SOL    HW1  248   3.005   0.001   0.341  1.8917 -0.5402 -0.8658
   83SOL    HW2  249   2.930   0.003   0.192  0.6618 -0.4226 -1.6992
   84SOL     OW  250   0.681   1.151   0.098 -0.1953  0.0241  0.1401
   84SOL    HW1  251   0.692   1.052   0.076 -0.6343  1.3357 -0.4193
   84SOL    HW2  252   0.585   1.164   0.133 -0.1092  0.8627  1.6296
   85SOL     OW  253   2.704   2.099   1.520 -0.1148 -0.8125  0.0403
   85SOL    HW1  254   2.683   2.026   1.457 -0.6257  1.1128 -1.5866
   85SOL    HW2  255   2.664   2.190   1.496  0.2367  1.8404  1.8198
   86SOL     OW  256   0.639   2.714   1.321 -0.3653  0.0318  0.1105
   86SOL    HW1  257   0.709   2.714   1.250 -1.7913  0.6502  0.7242
   86SOL    HW2  258   0.549   2.694   1.281  1.6133 -0.5442  0.5093
   87SOL     OW  259   0.482   2.504   2.550 -0.6220  0.5175  0.2801
   87SOL    HW1  260   0.537   2.491   2.461  0.5827  1.2061 -2.1020
   87SOL    HW2  261   0.394   2.452   2.546 -1.7760 -0.2102  2.0966
   88SOL     OW  262   0.175   2.333   0.403  0.2865 -0.0063 -0.3068
   88SOL    HW1  263   0.099   2.268   0.399  1.8490 -0.6959  2.0275
   88SOL    HW2  264   0.254   2.292   0.452 -0.8218 -0.6537 -0.4165
   89SOL     OW  265   0.859   0.966   0.998  0.0177  0.6389  0.2017
   89SOL    HW1  266   0.928   0.968   1.069 -1.5086 -0.9453 -1.1670
   89SOL    HW2  267   0.895   0.917   0.915 -2.7642  1.1410 -0.0943
   90SOL     OW  268   0.159   1.077   1.771 -0.3981  0.1127  0.0889
   90SOL    HW1  269   0.159   1.165   1.721  1.6139 -2.8220  2.3658
   90SOL    HW2  270   0.248   1.036   1.755 -0.1267  2.2692 -2.0739
   91SOL     OW  271   1.197   0.860   0.777 -0.2200 -0.0876 -0.9314
   91SOL    HW1  272   1.284   0.885   0.825  0.0655 -0.6283 -3.7425
   91SOL    HW2  273   1.212   0.802   0.698 -0.9275 -1.1849  1.2348
   92SOL     OW  274   2.054   1.380   0.991 -0.0878 -0.0463  0.4588
   92SOL    HW1  275   2.031   1.371   1.091 -2.9891 -0.8210 -0.0463
   92SOL    HW2  276   2.013   1.297   0.945 -1.0383 -1.7213  2.5455
   93SOL     OW  277   2.509   0.830   2.453  0.0794  0.0198 -0.3330
   93SOL    HW1  278   2.565   0.751   2.423  0.0902  0.2002 -1.2231
   93SOL    HW2  279   2.434   0.810   2.516 -0.5222 -2.0296  0.4306
   94SOL     OW  280   2.029   1.648   2.697 -0.1401 -0.0002  0.1688
   94SOL    HW1  281   1.980   1.739   2.668  1.4681  2.8999 -1.2020
   94SOL    HW2  282   2.128   1.663   2.703 -0.8170  0.3655  0.4674
   95SOL     OW  283   2.672   0.820   1.282 -0.3138  0.5908  0.0633
   95SOL    HW1  284   2.665   0.829   1.180  2.3186 -2.6032 -0.1856
   95SOL    HW2  285   2.656   0.724   1.310  2.7792 -2.6644 -1.5923
   96SOL     OW  286   2.493   3.055   1.747 -0.2858 -0.1089  0.5858
   96SOL    HW1  287   2.559   3.073   1.822 -1.9789 -0.9935 -0.5242
   96SOL    HW2  288   2.419   2.993   1.784 -0.2910  1.7006  1.1502
   97SOL     OW  289   2.554   1.020   1.417  0.0924  0.5477 -0.1006
   97SOL    HW1  290   2.608   0.935   1.388  1.2832  1.9136  1.0730
   97SOL    HW2  291   2.607   1.077   1.480 -0.0515  0.6199 -2.4944
   98SOL     OW  292   1.592   2.460   1.784  0.6995 -0.0515 -0.4250
   98SOL    HW1  293   1.555   2.375   1.821 -2.5010 -0.2788  1.2302
   98SOL    HW2  294   1.514   2.522   1.760 -1.1278 -0.7922  0.1075
   99SOL     OW  295   0.615   2.445   1.614 -0.5870 -0.0537  0.4613
   99SOL    HW1  296   0.635   2.420   1.516 -0.6148 -1.8580 -0.9554
   99SOL    HW2  297   0.521   2.477   1.629  0.6806  0.4620  2.7740
  100SOL     OW  298   1.188   0.574   3.042  0.1922 -0.5702 -0.7926
  100SOL    HW1  299   1.172   0.564   0.024  1.0963  0.3165 -0.8759
  100SOL    HW2  300   1.241   0.496   3.015 -2.2703  2.8360  1.2170
  101SOL     OW  301   2.449   0.164   2.610  0.2206  0.0010 -0.0552
  101SOL    HW1  302   2.542   0.122   2.598 -0.0115 -1.7617 -1.3762
  101SOL    HW2  303   2.444   0.216   2.697  1.7485  0.5598 -0.2075
  102SOL     OW  304   0.361   0.584   1.384  0.4370  0.1946 -0.0715
  102SOL    HW1  305   0.399   0.552   1.295  2.3701 -2.7337 -0.6885
  102SOL    HW2  306   0.367   0.687   1.400 -0.3548  3.3246 -1.9906
  103SOL     OW  307   0.669   0.595   2.738  0.2491  0.8832 -0.4102
  103SOL    HW1  308   0.678   0.639   2.831 -3.8136 -0.7512 -0.9024
  103SOL    HW2  309   0.719   0.507   2.730  0.1666 -2.8541 -0.4976
  104SOL     OW  310   0.851   0.710   2.404 -0.3656  0.0787  0.1131
  104SOL    HW1  311   0.787   0.635   2.376  0.0215 -3.6008 -0.0770
  104SOL    HW2  312   0.806   0.772   2.470 -1.1030  0.6503 -0.1862
  105SOL     OW  313   2.044   2.115   1.856  0.0050 -0.1704 -0.2253
  105SOL    HW1  314   2.064   2.107   1.957 -2.1283 -0.7486  0.2274
  105SOL    HW2  315   2.115   2.174   1.806  4.5312  0.2914 -0.3053
  106SOL     OW  316   2.175   0.017   0.714 -0.1922 -0.5284 -0.3004
  106SOL    HW1  317   2.177   3.042   0.670 -1.1501 -1.7817 -0.8469
  106SOL    HW2  318   2.142   0.086   0.652 -2.0557 -2.0978  1.9466
  107SOL     OW  319   2.510   2.063   1.103 -0.5936 -0.0595  0.4642
  107SOL    HW1  320   2.437   1.994   1.090 -1.3182 -0.7093  2.5485
  107SOL    HW2  321   2.562   2.081   1.014  2.4753  1.0699  0.8533
  108SOL     OW  322   2.594   2.884   1.301 -0.0829  0.3744 -0.2424
  108SOL    HW1  323   2.568   2.809   1.365  2.0203  0.8518  1.7633
  108SOL    HW2  324   2.614   2.966   1.358 -0.2347 -0.7707  0.0783
  109SOL     OW  325   1.855   2.507   1.086 -0.4176 -0.2460  0.0100
  109SOL    HW1  326   1.867   2.497   1.181 -0.4617 -1.8277 -2.2831
  109SOL    HW2  327   1.933   2.568   1.049  1.6141 -0.5348  0.4115
  110SOL     OW  328   0.658   1.766   1.969  0.0900 -0.2028  0.0648
  110SOL    HW1  329   0.639   1.756   1.868 -1.5932 -0.0663 -0.6798
  110SOL    HW2  330   0.567   1.781   2.012 -1.8218  1.9184 -2.1605
  111SOL     OW  331   1.569   2.515   2.483 -0.1840 -0.1587  0.1722
  111SOL    HW1  332   1.668   2.537   2.508  1.2025  1.7862  1.0750
  111SOL    HW2  333   1.567   2.457   2.401 -0.0574 -1.5817 -1.9515
  112SOL     OW  334   1.926   1.908   2.566 -0.4587 -0.0018  0.0463
  112SOL    HW1  335   2.006   1.972   2.578  4.5164  0.0093 -0.9697
  112SOL    HW2  336   1.930   1.868   2.470  1.4562 -0.0844 -1.6768
  113SOL     OW  337   1.574   2.185   1.843 -0.0323 -0.1410  0.0258
  113SOL    HW1  338   1.487   2.139   1.829  3.1706  1.2251 -1.8682
  113SOL    HW2  339   1.641   2.142   1.780  0.5034 -2.4113  0.2646
  114SOL     OW  340   3.005   0.932   0.751 -0.6681  0.1905 -0.1463
  114SOL    HW1  341   2.976   0.844   0.713  3.0283  1.3292  0.7623
  114SOL    HW2  342   3.025   0.925   0.848 -3.2370 -2.4759 -2.5271
  115SOL     OW  343   0.641   0.848   0.191  0.1288 -0.2782 -0.7585
  115SOL    HW1  344   0.601   0.905   0.262  0.4853 -0.3948  0.7997
  115SOL    HW2  345   0.609   0.752   0.194  1.1563 -2.3694 -0.6845
  116SOL     OW  346   2.842   1.680   2.473 -0.6818  0.2554 -0.5545
  116SOL    HW1  347   2.782   1.760   2.494 -2.3476  1.7616 -0.5319
  116SOL    HW2  348   2.936   1.701   2.506 -0.3470  2.8813  2.5860
  117SOL     OW  349   2.925   2.800   0.627 -0.6337 -0.1444  0.2880
  117SOL    HW1  350   2.950   2.746   0.544  0.8632  0.5546  0.4284
  117SOL    HW2  351   2.927   2.739   0.706  2.0730 -0.7691 -0.2823
  118SOL     OW  352   1.016   1.449   2.733 -0.2064  0.1149  0.5205
  118SOL    HW1  353   0.920   1.457   2.702 -2.3196  1.5783 -3.8023
  118SOL    HW2  354   1.069   1.523   2.686  2.2200 -3.0055 -0.6139
  119SOL     OW  355   0.362   2.118   0.126  0.5110  0.4824 -0.4311
  119SOL    HW1  356   0.272   2.139   0.077 -1.0432 -0.4896 -0.5562
  119SOL    HW2  357   0.358   2.048   0.200  2.2067 -0.0118  1.1072
  120SOL     OW  358   1.530   0.876   0.289  0.4626 -0.0766 -0.2969
  120SOL    HW1  359   1.617   0.823   0.303  1.2809 -0.0671 -1.0417
  120SOL    HW2  360   1.524   0.952   0.358  1.7906  0.4305  2.6370
  121SOL     OW  361   1.289   2.483   0.452 -0.5264  0.1385 -0.7162
  121SOL    HW1  362   1.320   2.485   0.551 -2.7024  0.9107  1.5377
  121SOL    HW2  363   1.312   2.389   0.418  0.0121  1.8903 -0.9887
  122SOL     OW  364   2.528   2.414   1.877  0.6666  0.2892 -0.0140
  122SOL    HW1  365   2.581   2.454   1.793  3.9932  0.0332  0.1830
  122SOL    HW2  366   2.516   2.310   1.866 -1.5841 -0.7194  1.6462
  123SOL     OW  367   0.813   2.011   0.528  0.8276 -0.4080 -0.1062
  123SOL    HW1  368   0.731   2.025   0.467 -0.0992  1.3769 -0.1159
  123SOL    HW2  369   0.865   2.095   0.543 -2.6542  1.8840 -1.2536
  124SOL     OW  370   3.069   0.726   0.164 -0.5272  0.8341  0.2044
  124SOL    HW1  371   0.016   0.653   0.188  2.3114  0.9465 -0.6599
  124SOL    HW2  372   3.019   0.755   0.248 -2.9365  1.1483  0.8413
  125SOL     OW  373   0.483   0.964   0.418 -0.1738  0.0674  0.5300
  125SOL    HW1  374   0.391   0.928   0.435  0.3093  0.0146 -2.0158
  125SOL    HW2  375   0.540   0.992   0.496  0.7515 -0.9422 -0.0712
  126SOL     OW  376   2.994   1.787   0.754 -0.6403  0.2795 -0.5407
  126SOL    HW1  377   2.999   1.803   0.852 -1.8566  0.7359 -1.0915
  126SOL    HW2  378   3.092   1.788   0.720 -0.7911  0.6104  0.6526
  127SOL     OW  379   1.368   1.994   1.853 -0.4834 -0.5582  0.3972
  127SOL    HW1  380   1.443   1.923   1.856  1.1904  1.0107  0.1156
  127SOL    HW2  381   1.331   2.000   1.951 -3.3189  0.7908 -0.4031
  128SOL     OW  382   0.872   1.274   0.243 -0.2245 -0.5895 -0.6146
  128SOL    HW1  383   0.807   1.216   0.189 -2.2614  1.9046 -0.3418
  128SOL    HW2  384   0.830   1.365   0.262  1.6380 -1.0399  0.9295
  129SOL     OW  385   1.707   1.554   1.283 -0.0189 -0.4308  0.4147
  129SOL    HW1  386   1.697   1.640   1.234 -0.9549 -2.4143 -2.0545
  129SOL    HW2  387   1.626   1.551   1.348  2.0793  1.4572  1.6862
  130SOL     OW  388   2.329   1.750   1.642 -0.4840 -0.0796  0.1791
  130SOL    HW1  389   2.243   1.796   1.672  1.1101  1.6812 -1.4430
  130SOL    HW2  390   2.415   1.772   1.690  0.8269 -1.1670 -0.0733
  131SOL     OW  391   3.024   2.608   2.919  0.1611  0.4879 -0.2712
  131SOL    HW1  392   2.933   2.647   2.951 -3.3896  2.4045  1.8136
  131SOL    HW2  393   3.047   2.641   2.826 -1.2177 -1.6186  1.2154
  132SOL     OW  394   2.890   1.553   0.604 -0.2081  0.1033  0.5815
  132SOL    HW1  395   2.912   1.639   0.655 -0.1654 -2.0971 -0.7189
  132SOL    HW2  396   2.787   1.540   0.608 -0.2095  3.3163 -1.2723
  133SOL     OW  397   0.573   0.113   1.906  0.1911 -0.3196  0.0582
  133SOL    HW1  398   0.639   0.069   1.843 -0.0619 -1.0440 -0.8678
  133SOL    HW2  399   0.495   0.144   1.848  1.2775 -0.2073  2.7499
  134SOL     OW  400   0.223   1.790   2.974  0.3616  0.0759 -0.0210
  134SOL    HW1  401   0.138   1.771   3.033 -0.0461  1.0560 -0.0809
  134SOL    HW2  402   0.215   1.878   2.922 -1.2049 -1.9974 -2.2636
  135SOL     OW  403   1.422   0.764   1.838  0.1437 -0.8560 -0.0780
  135SOL    HW1  404   1.347   0.826   1.864 -0.6512 -0.0211  0.4904
  135SOL    HW2  405   1.508   0.786   1.890  1.8605  1.8110 -1.0056
  136SOL     OW  406   2.804   1.365   0.265  0.4843 -0.2489 -0.5032
  136SOL    HW1  407   2.898   1.386   0.310  2.5254 -0.0239  0.4174
  136SOL    HW2  408   2.776   1.435   0.195 -1.9995 -1.9941  0.9570
  137SOL     OW  409   0.004   1.861   0.990  0.8112  0.8137  0.0504
  137SOL    HW1  410   0.083   1.795   1.000  1.1259 -0.9577  0.2274
  137SOL    HW2  411   0.046   1.954   0.974  2.8719  0.6651  1.6931
  138SOL     OW  412   2.459   0.580   1.152 -0.0808 -0.8628 -0.0321
  138SOL    HW1  413   2.528   0.584   1.224 -0.9444 -0.6606  2.3146
  138SOL    HW2  414   2.420   0.482   1.143 -2.6223  0.7452 -2.1407
  139SOL     OW  415   1.274   2.590   0.042 -0.4101  0.1463  0.0036
  139SOL    HW1  416   1.264   2.579   3.061 -2.2278 -1.5613 -2.0003
  139SOL    HW2  417   1.184   2.584   0.083  1.5762 -1.4707 -0.2838
  140SOL     OW  418   1.233   1.813   1.139 -0.2473  0.7863 -0.2650
  140SOL    HW1  419   1.149   1.756   1.115 -1.1127 -1.3540 -0.3571
  140SOL    HW2  420   1.238   1.898   1.081  0.8678  1.2245 -0.5070
  141SOL     OW  421   1.242   2.232   0.402 -0.1088  0.2794  0.7680
  141SOL    HW1  422   1.146   2.237   0.375  1.6352 -0.5570  0.6536
  141SOL    HW2  423   1.293   2.190   0.324 -1.3851 -0.6753  1.2605
  142SOL     OW  424   1.100   0.276   0.769 -0.2504  0.7415 -0.0366
  142SOL    HW1  425   1.200   0.277   0.763  1.2591  0.2736 -0.0997
  142SOL    HW2  426   1.066   0.327   0.688  2.1961  0.9424 -1.4137
  143SOL     OW  427   0.867   1.682   2.992 -0.2663  0.1541  0.5348
  143SOL    HW1  428   0.899   1.752   3.058  0.4033 -1.9078  0.1713
  143SOL    HW2  429   0.858   1.724   2.900 -3.0414  0.9466 -1.0347
  144SOL     OW  430   1.652   2.594   0.648 -0.7446  0.0899 -0.2368
  144SOL    HW1  431   1.685   2.680   0.602  1.6292  1.9657 -2.0060
  144SOL    HW2  432   1.682   2.510   0.602 -1.8329 -1.5857  1.5644
  145SOL     OW  433   2.079   0.632   2.559 -0.7245 -0.4557 -0.4569
  145SOL    HW1  434   2.085   0.623   2.460  1.3329 -0.7015  0.5424
  145SOL    HW2  435   2.169   0.605   2.602  0.9991  1.0618 -2.2665
  146SOL     OW  436   0.435   3.041   0.727  0.5298  0.1846 -0.5085
  146SOL    HW1  437   0.345   3.014   0.773 -2.3992  2.4729 -0.4899
  146SOL    HW2  438   0.466   2.971   0.662  1.4719 -2.7191 -1.1458
  147SOL     OW  439   2.249   0.352   2.067  0.1102 -0.6371  0.2254
  147SOL    HW1  440   2.152   0.344   2.091  1.9995 -0.1637  0.7117
  147SOL    HW2  441   2.257   0.448   2.032 -0.0863 -0.8060 -2.0527
  148SOL     OW  442   0.968   3.068   2.165  0.5971  0.1813 -0.3071
  148SOL    HW1  443   0.884   0.005   2.177  1.1435  1.5798 -2.5091
  148SOL    HW2  444   1.032   3.117   2.230  1.6765  3.6467  2.0775
  149SOL     OW  445   1.555   0.310   2.069  0.0339  0.4042 -0.4178
  149SOL    HW1  446   1.489   0.297   1.990 -1.4612 -0.8985  0.3497
  149SOL    HW2  447   1.537   0.389   2.133  1.1720  0.4373 -0.7252
  150SOL     OW  448   0.010   0.275   0.130  0.1718  0.1670  0.1495
  150SOL    HW1  449   3.035   0.250   0.138  0.1818  0.3908 -0.3449
  150SOL    HW2  450   0.015   0.319   0.037 -0.2402  3.3180 -2.5628
  151SOL     OW  451   0.662   1.515   0.263  0.0247 -0.6140  0.4074
  151SOL    HW1  452   0.635   1.508   0.163 -0.3246 -1.6224 -2.2587
  151SOL    HW2  453   0.746   1.580   0.270  0.3004  0.1424  0.6975
  152SOL     OW  454   3.078   0.391   0.437 -0.0575  0.1619 -0.1583
  152SOL    HW1  455   2.988   0.406   0.395 -0.5061 -1.0442 -1.9196
  152SOL    HW2  456   0.025   0.453   0.403  0.8339  0.9932  0.9447
  153SOL     OW  457   2.663   0.544   1.329  0.0259 -0.2094 -0.0378
  153SOL    HW1  458   2.612   0.459   1.357  0.2319 -0.5439  2.6951
  153SOL    HW2  459   2.762   0.525   1.321 -0.9997  0.7486 -1.7854
  154SOL     OW  460   1.632   0.082   2.332 -0.6144 -0.3937  0.2645
  154SOL    HW1  461   1.687   0.057   2.251 -1.2661  0.4295 -0.8724
  154SOL    HW2  462   1.534   0.094   2.305 -2.0871 -0.6201  1.1511
  155SOL     OW  463   0.109   1.807   0.656 -0.0183  0.3257  0.3005
  155SOL    HW1  464   0.171   1.876   0.695 -2.1773  0.9701  0.2794
  155SOL    HW2  465   0.155   1.717   0.655 -0.4520 -0.8958 -0.8131
  156SOL     OW  466   2.008   2.089   2.911 -0.0219 -0.0535  0.2914
  156SOL    HW1  467   1.965   1.995   2.899 -0.4512  2.2726 -1.1622
  156SOL    HW2  468   1.943   2.159   2.933  3.5206 -2.7403 -2.1763
  157SOL     OW  469   1.058   0.429   0.547  0.2787  0.0742  0.5563
  157SOL    HW1  470   1.021   0.516   0.509 -2.4730 -3.3527  0.8903
  157SOL    HW2  471   1.071   0.361   0.467 -0.2162 -0.8468  1.4864
  158SOL     OW  472   2.394   0.437   2.364 -0.0810 -0.1690 -0.2657
  158SOL    HW1  473   2.299   0.401   2.363 -0.9879  2.4902  0.7059
  158SOL    HW2  474   2.410   0.492   2.279 -1.1072  1.6294 -3.1809
  159SOL     OW  475   3.088   0.131   0.431 -0.5470  0.2473 -0.2262
  159SOL    HW1  476   3.090   0.234   0.439  0.2896 -1.3758  5.0745
  159SOL    HW2  477   0.056   0.092   0.400  2.8202 -2.3650 -0.5339
  160SOL     OW  478   1.598   1.957   2.128  0.0496  0.4304  0.1750
  160SOL    HW1  479   1.498   1.981   2.124  0.9290  0.1946 -0.4754
  160SOL    HW2  480   1.615   1.888   2.053  0.0658 -0.0741 -1.0160
  161SOL     OW  481   2.812   0.722   2.833  0.5455  0.1750  0.2898
  161SOL    HW1  482   2.904   0.769   2.819  0.5304  0.5132 -0.6008
  161SOL    HW2  483   2.813   0.622   2.830 -3.4604  2.2621 -0.6969
  162SOL     OW  484   0.847   2.627   1.486  0.1091  0.2961 -0.2177
  162SOL    HW1  485   0.913   2.636   1.409 -0.5789 -1.3464  0.3795
  162SOL    HW2  486   0.752   2.645   1.461  1.3665 -2.1348  0.8079
  163SOL     OW  487   2.643   0.370   2.497  0.1933 -0.2281  0.3075
  163SOL    HW1  488   2.575   0.301   2.530 -0.0814  1.2572  0.5297
  163SOL    HW2  489   2.608   0.448   2.437 -2.3920  1.7968 -1.0554
  164SOL     OW  490   2.123   1.790   0.081 -0.1512 -0.1068  0.3284
  164SOL    HW1  491   2.082   1.719   0.016  0.5273 -1.2466  1.7554
  164SOL    HW2  492   2.219   1.800   0.065  1.2164  2.8154 -0.6564
  165SOL     OW  493   2.887   0.290   1.550 -0.2378  0.5278  0.2657
  165SOL    HW1  494   2.906   0.297   1.447 -0.0390 -1.0606 -1.5598
  165SOL    HW2  495   2.963   0.243   1.603  1.5260 -0.3592  1.7572
  166SOL     OW  496   2.338   0.754   2.962 -0.0962  0.6080 -0.1609
  166SOL    HW1  497   2.425   0.734   3.014 -0.9628 -1.1757  1.9311
  166SOL    HW2  498   2.347   0.847   2.924  0.2950  0.1511 -1.8489
  167SOL     OW  499   2.840   0.557   0.085  0.3665  0.0679 -0.1601
  167SOL    HW1  500   2.901   0.637   0.082  0.1799 -0.9456 -0.8841
  167SOL    HW2  501   2.853   0.494   0.005  1.3163  1.0405 -0.7334
  168SOL     OW  502   1.826   2.834   2.868  0.1912  0.1723  0.3836
  168SOL    HW1  503   1.834   2.762   2.935 -1.8371  3.9673 -2.6800
  168SOL    HW2  504   1.834   2.928   2.905 -0.2373 -0.4281  1.4153
  169SOL     OW  505   0.187   1.318   0.768 -0.3735 -0.3364 -1.0377
  169SOL    HW1  506   0.091   1.327   0.740  0.4680 -1.4737 -0.3556
  169SOL    HW2  507   0.197   1.263   0.853 -1.3748  1.4113 -1.4931
  170SOL     OW  508   2.937   0.580   1.327 -0.4633 -0.0943 -0.2287
  170SOL    HW1  509   2.991   0.494   1.316  2.3641  1.1221  0.0739
  170SOL    HW2  510   2.946   0.619   1.422  2.5053  0.0486  0.8648
  171SOL     OW  511   1.951   2.361   2.052  0.4871 -0.3584 -0.0779
  171SOL    HW1  512   1.872   2.302   2.064  0.4408 -0.1060 -0.1050
  171SOL    HW2  513   2.026   2.332   2.109 -1.6040  1.5144 -0.2088
  172SOL     OW  514   0.269   2.446   1.590 -0.1116 -1.1408  0.0741
  172SOL    HW1  515   0.322   2.362   1.582  1.5740  2.1883  1.2968
  172SOL    HW2  516   0.324   2.532   1.618  0.7243  1.5617 -0.2306
  173SOL     OW  517   1.269   1.252   0.136  0.6447  0.3343  0.1819
  173SOL    HW1  518   1.370   1.263   0.157  0.5937  2.0999  1.4560
  173SOL    HW2  519   1.255   1.214   0.045  1.9877  1.1443 -0.0942
  174SOL     OW  520   1.293   3.107   2.691  0.1752  0.2383  0.3268
  174SOL    HW1  521   1.272   3.018   2.731  3.9194  0.5716  1.1419
  174SOL    HW2  522   1.310   3.100   2.589  1.2440 -1.0215 -0.8473
  175SOL     OW  523   2.049   1.859   0.910 -0.1193  0.4636 -0.6973
  175SOL    HW1  524   2.121   1.934   0.914  0.8995  4.5660  2.7750
  175SOL    HW2  525   2.073   1.786   0.976  0.3043 -0.1450 -0.7149
  176SOL     OW  526   1.567   0.212   0.236  0.3740  0.3260 -0.4413
  176SOL    HW1  527   1.646   0.239   0.293 -2.4769 -0.6485 -0.2730
  176SOL    HW2  528   1.502   0.287   0.216 -0.7975  0.0910 -1.0622
  177SOL     OW  529   0.616   1.545   3.119  0.2166 -0.0569  0.0830
  177SOL    HW1  530   0.568   1.622   3.073  0.4162 -1.3378  1.9408
  177SOL    HW2  531   0.698   1.530   3.065 -3.1277 -2.4713  0.4778
  178SOL     OW  532   2.716   2.322   2.636 -0.2850 -0.0204  0.2964
  178SOL    HW1  533   2.747   2.250   2.571 -0.8682 -0.9633 -1.2367
  178SOL    HW2  534   2.642   2.372   2.586  0.2789  0.5780 -0.2298
  179SOL     OW  535   2.723   0.137   3.038 -0.5677  0.1665  0.7446
  179SOL    HW1  536   2.745   0.136   2.939  1.0449  0.0695 -0.8801
  179SOL    HW2  537   2.645   0.074   3.058 -1.1651 -2.7498  2.0791
  180SOL     OW  538   1.558   1.416   0.619  0.8337 -0.2200 -0.1465
  180SOL    HW1  539   1.579   1.323   0.656  1.6364  2.1117 -1.0965
  180SOL    HW2  540   1.460   1.434   0.621  0.8741 -1.5028 -0.8543
  181SOL     OW  541   1.869   1.261   2.426 -0.0125 -0.0981  0.4224
  181SOL    HW1  542   1.867   1.217   2.328 -2.5811 -0.3758 -4.6448
  181SOL    HW2  543   1.869   1.188   2.498  0.6402 -0.2112 -0.8941
  182SOL     OW  544   2.581   2.778   2.602 -0.2164 -0.3350  0.2829
  182SOL    HW1  545   2.631   2.714   2.667 -0.7455 -0.7193  0.1362
  182SOL    HW2  546   2.647   2.844   2.558  1.5969 -0.5912  0.5338
  183SOL     OW  547   1.881   0.630   2.041 -0.7511 -0.4609  0.4739
  183SOL    HW1  548   1.962   0.674   1.993  0.5649  3.5051 -3.6087
  183SOL    HW2  549   1.909   0.539   2.084 -2.2467  0.6653  2.0727
  184SOL     OW  550   0.152   1.289   1.612 -0.0219  0.1420 -0.2315
  184SOL    HW1  551   0.149   1.331   1.520  0.2438 -1.8287 -0.1590
  184SOL    HW2  552   0.062   1.315   1.653  0.3995  0.1064  0.1266
  185SOL     OW  553   1.777   0.458   0.876 -0.7713  0.3310  0.0666
  185SOL    HW1  554   1.784   0.387   0.949 -2.6610  0.8521 -1.8991
  185SOL    HW2  555   1.744   0.411   0.792  1.3406 -0.8342  1.3397
  186SOL     OW  556   0.276   2.508   2.879 -0.0526  0.0098 -0.9127
  186SOL    HW1  557   0.192   2.513   2.941  0.6903 -1.0034  3.9508
  186SOL    HW2  558   0.247   2.536   2.784 -0.2924 -0.2787 -0.2761
  187SOL     OW  559   2.779   1.113   0.326  0.2676 -0.3136 -0.3044
  187SOL    HW1  560   2.797   1.209   0.284  1.3699  3.9273 -1.8700
  187SOL    HW2  561   2.762   1.046   0.253 -1.8618  1.1345  0.6070
  188SOL     OW  562   2.682   1.516   1.455  0.7043  0.3301 -0.6344
  188SOL    HW1  563   2.709   1.417   1.457 -1.5417 -0.8298 -2.1456
  188SOL    HW2  564   2.743   1.577   1.401 -2.9393  2.3222 -1.5129
  189SOL     OW  565   2.835   0.444   2.654 -0.2164 -0.1774  0.3481
  189SOL    HW1  566   2.751   0.419   2.595 -4.6320  0.5929 -1.3144
  189SOL    HW2  567   2.911   0.477   2.591  1.6863 -0.3321  2.5231
  190SOL     OW  568   1.366   1.112   1.602  0.3001  0.0936  0.7189
  190SOL    HW1  569   1.428   1.140   1.528  0.4679 -1.2294 -1.9018
  190SOL    HW2  570   1.287   1.170   1.616 -2.7243 -3.0924  0.1879
  191SOL     OW  571   0.554   0.389   2.149 -0.5030 -0.1304 -0.1570
  191SOL    HW1  572   0.457   0.419   2.151  0.6224  1.8661 -0.9097
  191SOL    HW2  573   0.589   0.379   2.057 -0.7783  0.0653  2.3476
  192SOL     OW  574   1.812   1.856   1.328  0.5002 -0.2960 -0.6726
  192SOL    HW1  575   1.770   1.842   1.233 -3.0957 -1.5955  1.1280
  192SOL    HW2  576   1.750   1.826   1.403 -2.3800  3.3396  3.6019
  193SOL     OW  577   1.543   0.871   1.138  0.1549 -0.3260 -0.2287
  193SOL    HW1  578   1.616   0.939   1.163  1.5222 -1.7115 -1.4133
  193SOL    HW2  579   1.582   0.783   1.114 -0.9163  0.2536 -0.1871
  194SOL     OW  580   0.606   2.066   1.356 -0.2186 -0.6666  0.6546
  194SOL    HW1  581   0.623   2.164   1.362 -0.4922 -0.2327 -1.5574
  194SOL    HW2  582   0.590   2.047   1.255  3.5072  0.9210  0.1596
  195SOL     OW  583   1.773   0.241   0.420  0.2353 -0.1697  0.1411
  195SOL    HW1  584   1.801   0.164   0.477  0.0883  1.8399 -2.1246
  195SOL    HW2  585   1.850   0.263   0.355  1.6625 -2.3772  0.5319
  196SOL     OW  586   0.276   1.126   1.385  0.2787 -0.4192  0.5362
  196SOL    HW1  587   0.254   1.224   1.388 -0.1887 -0.4292 -0.5190
  196SOL    HW2  588   0.377   1.109   1.419  2.8177 -0.3768 -2.2969
  197SOL     OW  589   1.097   0.152   1.702  0.1165  0.3124  0.0574
  197SOL    HW1  590   1.161   0.114   1.630  1.3806 -1.4898 -0.9494
  197SOL    HW2  591   1.118   0.111   1.794 -1.0638  1.5478 -2.8618
  198SOL     OW  592   0.497   0.893   0.972  0.2446 -0.2110  0.7305
  198SOL    HW1  593   0.521   0.945   1.057  2.0372 -1.8572 -2.2812
  198SOL    HW2  594   0.492   0.960   0.893  0.4680 -0.9872 -0.2416
  199SOL     OW  595   0.132   2.390   1.831  0.2709  0.0481  0.0033
  199SOL    HW1  596   0.131   2.453   1.907  0.5329 -4.3059 -1.5076
  199SOL    HW2  597   0.187   2.421   1.752 -1.5146 -0.2749  2.4940
  200SOL     OW  598   1.793   1.848   1.905  0.3615  0.2077 -0.6996
  200SOL    HW1  599   1.852   1.770   1.890 -1.9010  1.2906 -0.2651
  200SOL    HW2  600   1.824   1.931   1.863 -2.5198 -0.8475 -0.0829
  201SOL     OW  601   0.391   1.772   2.055 -0.0621  0.4082 -0.0913
  201SOL    HW1  602   0.351   1.866   2.028 -0.2666  1.2947 -2.0513
  201SOL    HW2  603   0.318   1.702   2.057 -0.3151  0.9608 -0.3880
  202SOL     OW  604   1.860   0.483   3.092  0.0211 -0.1728 -0.0395
  202SOL    HW1  605   1.809   0.466   3.003 -0.5164  1.2856  0.2792
  202SOL    HW2  606   1.850   0.580   3.115 -0.3477 -0.1532 -0.1786
  203SOL     OW  607   1.272   2.860   1.804 -0.6470  0.3251  0.3112
  203SOL    HW1  608   1.332   2.898   1.874  0.3027 -0.0086 -2.9533
  203SOL    HW2  609   1.176   2.878   1.831  1.8271 -2.3423 -1.2004
  204SOL     OW  610   0.585   1.762   1.696 -0.5397  0.5110 -0.3865
  204SOL    HW1  611   0.641   1.800   1.617  2.1401  0.5242 -1.1671
  204SOL    HW2  612   0.495   1.811   1.710 -0.8493  0.6988  1.0330
  205SOL     OW  613   1.543   1.794   1.900 -0.1727  0.2922 -0.5125
  205SOL    HW1  614   1.642   1.817   1.890  0.8036  0.7354  0.3735
  205SOL    HW2  615   1.536   1.715   1.964  3.0093  1.2288  2.0012
  206SOL     OW  616   0.080   1.122   2.304  0.7799 -0.1767 -0.3349
  206SOL    HW1  617   0.114   1.151   2.214 -0.7597 -1.1284 -1.5320
  206SOL    HW2  618   0.089   1.202   2.369 -0.4033 -0.2231  2.5939
  207SOL     OW  619   0.681   2.906   2.065  0.6513  0.4031  0.0653
  207SOL    HW1  620   0.728   2.878   2.155  0.3795 -0.9566 -0.0885
  207SOL    HW2  621   0.735   2.971   2.012 -2.3190  0.7006  2.0531
  208SOL     OW  622   0.560   2.672   1.970 -0.3718  0.2189 -0.1073
  208SOL    HW1  623   0.583   2.771   1.982  1.5438 -0.8708 -2.0290
  208SOL    HW2  624   0.635   2.614   1.998 -0.8460 -1.2390 -1.9354
  209SOL     OW  625   1.512   3.085   0.325 -0.8308  0.1571 -0.2161
  209SOL    HW1  626   1.609   3.052   0.343 -0.7422  0.0725 -0.1067
  209SOL    HW2  627   1.525   0.054   0.284 -2.8051  0.1240  0.4492
  210SOL     OW  628   2.608   0.666   0.782  0.7755  0.1326  0.4935
  210SOL    HW1  629   2.630   0.746   0.719  1.9397 -1.7343  1.5692
  210SOL    HW2  630   2.611   0.577   0.732  1.2690  0.9010 -0.1814
  211SOL     OW  631   0.735   0.389   1.686  0.1493  0.9003 -0.2603
  211SOL    HW1  632   0.643   0.423   1.640 -4.0173  2.8242 -0.4081
  211SOL    HW2  633   0.802   0.467   1.681 -1.6792  1.0441  0.7575
  212SOL     OW  634   1.507   2.149   1.353  0.6016  0.1275  0.5906
  212SOL    HW1  635   1.412   2.136   1.397 -1.1439  2.6854  1.3291
  212SOL    HW2  636   1.518   2.242   1.313 -3.6906 -0.9648  1.0493
  213SOL     OW  637   2.688   0.290   1.721 -0.3233  0.4378 -0.0722
  213SOL    HW1  638   2.752   0.327   1.650  0.8184  1.5286 -0.9271
  213SOL    HW2  639   2.742   0.239   1.788 -0.3308  1.5012 -0.9670
  214SOL     OW  640   0.653   2.436   2.340 -0.5410 -0.5787  0.0226
  214SOL    HW1  641   0.688   2.424   2.246  3.5109 -1.0167  0.0629
  214SOL    HW2  642   0.724   2.414   2.410  2.0146  0.8195 -0.1580
  215SOL     OW  643   2.677   1.558   1.753 -0.3058  0.0619  0.1744
  215SOL    HW1  644   2.781   1.563   1.755  1.8080  0.1241 -0.3500
  215SOL    HW2  645   2.649   1.540   1.657 -1.2839  0.6961 -1.3462
  216SOL     OW  646   0.647   0.704   1.994 -0.6271  0.2769  0.6068
  216SOL    HW1  647   0.581   0.709   2.073 -1.7092  3.0768  1.1210
  216SOL    HW2  648   0.708   0.786   1.990 -0.5432  0.6453 -2.8260
  217SOL     OW  649   2.780   0.135   1.027 -0.5245  0.1232  0.5500
  217SOL    HW1  650   2.819   0.203   0.961  1.8622  0.4302 -2.1116
  217SOL    HW2  651   2.829   0.149   1.116  0.0208  0.6190 -3.0136
  218SOL     OW  652   1.477   1.830   0.899  0.5539 -0.4442  0.2797
  218SOL    HW1  653   1.489   1.869   0.805 -1.7156 -0.4884 -1.6280
  218SOL    HW2  654   1.403   1.890   0.933 -0.9623 -1.0536 -0.8708
  219SOL     OW  655   2.173   2.895   0.573  0.7617 -0.1438 -0.1489
  219SOL    HW1  656   2.105   2.857   0.639 -0.4102  0.8211  2.0513
  219SOL    HW2  657   2.179   2.841   0.483  1.2978 -1.6101 -1.1186
  220SOL     OW  658   1.897   2.370   0.287  0.0429  0.3631 -0.0400
  220SOL    HW1  659   1.849   2.288   0.331 -0.9257 -0.4512 -1.4050
  220SOL    HW2  660   1.931   2.345   0.195  0.8744  0.4766 -2.5153
  221SOL     OW  661   3.009   1.693   0.239 -0.1476  0.3860 -0.3812
  221SOL    HW1  662   2.924   1.743   0.257  0.1968 -0.8222  1.0312
  221SOL    HW2  663   3.009   1.604   0.291  0.3311  0.8390  0.1973
  222SOL     OW  664   0.619   2.235   0.962  0.2308  0.4806  0.0401
  222SOL    HW1  665   0.556   2.259   0.884 -2.7712 -0.5941  2.9298
  222SOL    HW2  666   0.716   2.246   0.928 -0.7926 -0.9925 -0.7572
  223SOL     OW  667   1.168   0.308   0.323 -0.3592  0.0364  0.3423
  223SOL    HW1  668   1.214   0.249   0.393 -0.6678  2.1856 -0.0956
  223SOL    HW2  669   1.117   0.251   0.256  2.2241  0.2863  0.4335
  224SOL     OW  670   2.854   1.158   0.878  0.0431  0.1784  0.1979
  224SOL    HW1  671   2.777   1.126   0.821  0.8913  2.8224  0.8276
  224SOL    HW2  672   2.942   1.114   0.853  2.2071 -0.2144  1.4074
  225SOL     OW  673   0.329   1.621   1.388  0.1512  0.4899  0.2618
  225SOL    HW1  674   0.366   1.714   1.394  0.4031 -1.8507  0.4169
  225SOL    HW2  675   0.404   1.559   1.391 -2.8033  1.3602 -0.4661
  226SOL     OW  676   0.593   3.040   0.945 -0.5828  0.3410 -0.3836
  226SOL    HW1  677   0.532   3.065   0.869 -0.4993  0.0582  2.0456
  226SOL    HW2  678   0.636   0.004   0.981  1.4867  5.0308  2.1658
  227SOL     OW  679   1.193   1.525   1.724  0.3742  0.3067 -0.0029
  227SOL    HW1  680   1.136   1.584   1.788  1.5261  0.6486 -1.1200
  227SOL    HW2  681   1.226   1.567   1.635  2.7539 -0.7018 -1.9827
  228SOL     OW  682   0.741   0.297   1.953 -0.0586  0.1863  0.1082
  228SOL    HW1  683   0.675   0.216   1.948 -1.2420 -0.1383  1.1220
  228SOL    HW2  684   0.758   0.337   1.861 -2.9002 -0.7724  1.9089
  229SOL     OW  685   3.032   0.786   2.493  0.0312 -0.1588 -0.1552
  229SOL    HW1  686   3.019   0.843   2.576  0.7110 -2.0022  1.2255
  229SOL    HW2  687   3.120   0.814   2.449 -0.4859 -0.8657  1.3630
  230SOL     OW  688   0.219   0.732   1.108 -0.1845 -0.7475 -0.5081
  230SOL    HW1  689   0.216   0.727   1.003  0.1156  0.7616 -0.8899
  230SOL    HW2  690   0.271   0.808   1.145 -1.9500 -0.8063 -1.6277
  231SOL     OW  691   1.229   0.084   1.964 -0.1090  0.1506 -0.6645
  231SOL    HW1  692   1.208   0.124   2.058  0.6933 -2.4855  2.9023
  231SOL    HW2  693   1.289   3.122   1.981  1.5605 -0.8637 -0.6307
  232SOL     OW  694   3.116   2.115   0.352  0.2998  0.0596  0.3417
  232SOL    HW1  695   0.021   2.015   0.356  0.5495 -0.1085  1.4501
  232SOL    HW2  696   3.059   2.125   0.270  0.7620  0.2308 -3.2935
  233SOL     OW  697   1.288   2.375   2.829 -0.4306  0.2521 -0.3773
  233SOL    HW1  698   1.286   2.358   2.729  0.2499  0.1112  0.6854
  233SOL    HW2  699   1.281   2.478   2.839  3.0001  0.8207 -1.4992
  234SOL     OW  700   0.408   0.976   1.712 -0.3112 -0.2082 -0.4310
  234SOL    HW1  701   0.411   0.988   1.611  0.3628  0.0294 -1.3787
  234SOL    HW2  702   0.493   0.996   1.755 -3.6921 -2.2241 -2.2973
  235SOL     OW  703   0.033   2.373   2.471  0.3946  0.7476 -0.0238
  235SOL    HW1  704   0.123   2.327   2.452 -1.3232 -0.6852  2.0144
  235SOL    HW2  705   0.011   2.343   2.571  1.1012 -0.1383  0.5338
  236SOL     OW  706   1.640   1.866   2.692  0.5349  0.7812 -0.1196
  236SOL    HW1  707   1.587   1.793   2.643  0.3845 -1.9272  1.7246
  236SOL    HW2  708   1.714   1.900   2.634 -2.6371  3.1480  1.6516
  237SOL     OW  709   1.642   0.838   0.865 -0.3220  0.0590  0.0515
  237SOL    HW1  710   1.585   0.775   0.808  1.0789 -1.6242  1.2450
  237SOL    HW2  711   1.583   0.908   0.905  1.4011 -1.2337 -1.9659
  238SOL     OW  712   1.039   2.818   2.186  0.0546 -0.1338 -0.5128
  238SOL    HW1  713   1.021   2.919   2.185 -2.7892 -1.6799 -1.7087
  238SOL    HW2  714   1.067   2.780   2.093 -1.9464 -1.7621  3.7250
  239SOL     OW  715   1.092   2.659   1.970  0.8467  0.4187  0.7700
  239SOL    HW1  716   1.042   2.727   1.917  0.4001 -0.1871  0.8297
  239SOL    HW2  717   1.137   2.587   1.913  1.9275 -2.1114 -0.8201
  240SOL     OW  718   2.135   0.030   1.013  0.2748 -0.4023 -0.1640
  240SOL    HW1  719   2.169   0.042   0.921 -1.6047  0.8164  1.8214
  240SOL    HW2  720   2.185   0.095   1.077 -2.9159  1.9476  0.2678
  241SOL     OW  721   1.147   1.280   2.360 -0.1745 -0.1145  0.1915
  241SOL    HW1  722   1.086   1.211   2.319  1.2694  1.2218  1.4734
  241SOL    HW2  723   1.110   1.373   2.353 -1.5622 -0.7935 -1.5101
  242SOL     OW  724   2.622   0.710   3.032  0.2824 -0.0299  0.0821
  242SOL    HW1  725   2.615   0.609   3.046 -0.6794 -0.4874  1.2049
  242SOL    HW2  726   2.691   0.721   2.959  3.1440  0.1137  1.1543
  243SOL     OW  727   0.818   0.626   1.352 -0.1254  0.2644  0.0324
  243SOL    HW1  728   0.809   0.658   1.446  0.5237  1.8636 -3.3996
  243SOL    HW2  729   0.911   0.649   1.313  1.9649  0.7981 -0.1749
  244SOL     OW  730   1.298   2.898   2.918 -0.3119  0.0149 -0.2729
  244SOL    HW1  731   1.216   2.944   2.951 -1.4224  0.1571 -0.3562
  244SOL    HW2  732   1.383   2.923   2.970  2.2366  0.0006 -0.3121
  245SOL     OW  733   1.803   2.727   0.002 -0.0281  0.5381  0.2203
  245SOL    HW1  734   1.866   2.653   3.102 -0.1664  2.2497 -1.5734
  245SOL    HW2  735   1.850   2.803   0.058  1.0974  0.7437  0.6289
  246SOL     OW  736   0.771   0.935   1.522  0.1131  0.1389  0.5234
  246SOL    HW1  737   0.805   0.876   1.593 -1.6947 -0.3979  1.7423
  246SOL    HW2  738   0.848   0.978   1.468  0.8971 -0.8473 -0.8670
  247SOL     OW  739   0.254   0.420   2.091  0.7367  0.3066 -0.3782
  247SOL    HW1  740   0.195   0.339   2.097  0.6839  0.9947  0.2160
  247SOL    HW2  741   0.300   0.422   2.000  2.7343  0.8236 -0.2126
  248SOL     OW  742   2.932   1.268   2.037 -0.4202 -0.0339  0.0634
  248SOL    HW1  743   2.852   1.329   2.025  2.0357  0.8876 -0.7672
  248SOL    HW2  744   2.972   1.277   2.135  0.1419  1.2630  0.8018
  249SOL     OW  745   0.278   0.346   0.153  0.3190 -0.2146 -0.5236
  249SOL    HW1  746   0.361   0.306   0.199  2.7260 -0.6058 -2.8551
  249SOL    HW2  747   0.193   0.284   0.152 -0.6174  1.7133 -1.2657
  250SOL     OW  748   2.878   0.201   0.157 -0.0692 -0.2219  0.7565
  250SOL    HW1  749   2.847   0.274   0.219 -0.2462  1.4586 -0.4044
  250SOL    HW2  750   2.815   0.189   0.081  0.5942 -1.6772  0.8603
  251SOL     OW  751   0.968   2.072   1.636 -0.1437 -0.3767 -0.4957
  251SOL    HW1  752   0.990   2.158   1.589 -0.7729 -1.7460  1.9069
  251SOL    HW2  753   0.991   2.082   1.741 -0.9871  1.2930 -2.2924
  252SOL     OW  754   2.027   2.237   1.117 -0.1320  0.1865  0.8477
  252SOL    HW1  755   1.972   2.301   1.064 -0.4608 -1.2702 -1.2973
  252SOL    HW2  756   2.026   2.246   1.216 -0.6479 -1.4040 -1.4990
  253SOL     OW  757   1.840   2.100   2.334  0.7502  0.0795  0.4816
  253SOL    HW1  758   1.819   2.154   2.252  0.4337  3.1531 -1.4745
  253SOL    HW2  759   1.861   2.007   2.307  2.5918  0.4222 -1.4592
  254SOL     OW  760   0.762   2.429   2.086 -0.2489  0.3715  0.4819
  254SOL    HW1  761   0.751   2.396   1.989 -1.2830 -1.8095 -1.3745
  254SOL    HW2  762   0.864   2.435   2.108  2.2288  2.7418 -0.8058
  255SOL     OW  763   0.996   0.148   1.290  0.5710  0.3135 -0.0150
  255SOL    HW1  764   1.025   0.122   1.199 -2.1169  0.8376  3.8039
  255SOL    HW2  765   0.989   0.066   1.357  0.6517 -2.3230  0.3033
  256SOL     OW  766   2.248   2.250   1.723 -0.0418 -0.5790 -0.2649
  256SOL    HW1  767   2.236   2.220   1.626 -0.3614 -0.5665 -2.7725
  256SOL    HW2  768   2.339   2.229   1.764  2.7109  0.6638  2.1224
  257SOL     OW  769   0.735   2.162   2.719 -0.0301  0.1944  0.3246
  257SOL    HW1  770   0.667   2.209   2.782  0.8809  0.0920 -1.0059
  257SOL    HW2  771   0.815   2.118   2.775  1.5524 -2.7836 -0.0834
  258SOL     OW  772   0.531   1.007   2.229  0.1837 -0.4038  0.2720
  258SOL    HW1  773   0.531   1.054   2.317  0.4068 -1.2537 -4.1371
  258SOL    HW2  774   0.500   0.909   2.235  2.7846 -1.5260 -0.2993
  259SOL     OW  775   0.664   1.346   1.970 -0.3594  0.2589 -0.0573
  259SOL    HW1  776   0.656   1.379   1.875  0.6853 -1.1683  1.1924
  259SOL    HW2  777   0.761   1.354   1.995  1.1425  1.2778  0.2850
  260SOL     OW  778   1.956   1.070   1.299  0.1635 -0.3450  0.1581
  260SOL    HW1  779   2.035   1.033   1.247 -1.4324  4.1494  1.3569
  260SOL    HW2  780   1.985   1.142   1.368 -0.4405 -0.9916 -1.5294
  261SOL     OW  781   1.065   3.022   0.836  0.1471  0.1475  0.2559
  261SOL    HW1  782   0.980   3.074   0.834 -0.1324 -1.6897 -2.0562
  261SOL    HW2  783   1.124   3.044   0.756 -0.2946 -1.2321  0.2197
  262SOL     OW  784   2.108   2.637   2.467  0.0275 -0.6835  0.3235
  262SOL    HW1  785   2.165   2.656   2.551 -0.9982 -1.3038  0.1381
  262SOL    HW2  786   2.168   2.664   2.385  1.0728  1.5690 -2.8643
  263SOL     OW  787   0.206   1.537   2.841 -0.0909 -0.2865 -0.0654
  263SOL    HW1  788   0.222   1.634   2.857 -0.1337 -0.0294 -0.0149
  263SOL    HW2  789   0.271   1.476   2.893 -1.6510 -3.0403  0.1791
  264SOL     OW  790   0.435   1.869   1.435 -0.0585  0.4334  0.0680
  264SOL    HW1  791   0.490   1.948   1.402  0.3826 -1.3128  1.1041
  264SOL    HW2  792   0.397   1.882   1.525  2.1727  1.3714  2.5210
  265SOL     OW  793   0.659   0.997   0.631  0.3770  0.1581 -0.0145
  265SOL    HW1  794   0.687   0.896   0.626 -2.2034 -1.9055 -1.1240
  265SOL    HW2  795   0.718   1.062   0.580  1.3924  0.6631 -0.9039
  266SOL     OW  796   1.240   1.775   2.938 -0.0344 -0.0839 -0.3284
  266SOL    HW1  797   1.333   1.806   2.920 -0.6187 -0.9862 -0.1823
  266SOL    HW2  798   1.236   1.675   2.960 -0.0903  0.8043  1.5805
  267SOL     OW  799   0.610   0.796   2.554 -0.0876 -0.5811 -0.0047
  267SOL    HW1  800   0.638   0.742   2.635 -1.3601 -1.0798 -0.9597
  267SOL    HW2  801   0.508   0.794   2.540 -0.9933 -0.3134 -0.8928
  268SOL     OW  802   0.957   0.714   3.042  0.2075 -0.5384 -0.2748
  268SOL    HW1  803   0.943   0.802   3.091  1.9336 -0.9024  4.6231
  268SOL    HW2  804   1.053   0.699   3.051 -0.0445  1.4921 -0.2781
  269SOL     OW  805   1.917   2.982   2.633 -0.1078  0.5585  0.0291
  269SOL    HW1  806   1.863   3.055   2.607  4.4455 -0.2697  1.4752
  269SOL    HW2  807   1.882   2.944   2.723  1.0625 -1.2934  1.1750
  270SOL     OW  808   0.933   1.018   2.718  0.1458  0.3678 -0.7380
  270SOL    HW1  809   0.999   1.077   2.769  0.6651 -0.4333 -0.6476
  270SOL    HW2  810   0.851   1.002   2.780 -0.8635  1.7270 -2.1283
  271SOL     OW  811   0.186   0.616   0.263  0.3065  0.2623 -0.2900
  271SOL    HW1  812   0.219   0.676   0.188 -1.1046 -0.7252 -2.3109
  271SOL    HW2  813   0.182   0.520   0.232  1.4623  1.2446 -2.0647
  272SOL     OW  814   2.439   1.269   2.640 -0.0880  0.1714 -0.0531
  272SOL    HW1  815   2.458   1.268   2.741  1.1587  0.3922 -0.8706
  272SOL    HW2  816   2.493   1.194   2.594 -3.8182 -0.8502 -2.6061
  273SOL     OW  817   0.135   0.137   2.391  0.1704  0.2997 -0.7989
  273SOL    HW1  818   0.115   0.195   2.474  4.5006 -0.5629 -0.5673
  273SOL    HW2  819   0.233   0.121   2.382  0.0015  0.8626 -0.9728
  274SOL     OW  820   0.140   0.166   2.116 -0.0554 -0.2019 -0.1932
  274SOL    HW1  821   0.217   0.108   2.082 -0.1052 -1.6981 -0.9416
  274SOL    HW2  822   0.114   0.143   2.210  0.0938  1.6217 -4.0311
  275SOL     OW  823   1.961   1.487   0.436 -0.4492 -0.1871 -0.1549
  275SOL    HW1  824   1.963   1.533   0.343 -2.0284  3.6447 -1.9774
  275SOL    HW2  825   1.869   1.443   0.447 -0.4420  0.1066 -1.1164
  276SOL     OW  826   0.244   0.832   2.790 -0.0850  0.3523 -0.0538
  276SOL    HW1  827   0.193   0.920   2.802 -2.5612  2.3370  1.1696
  276SOL    HW2  828   0.268   0.818   2.691  1.0598  0.0726  2.4327
  277SOL     OW  829   1.726   2.804   2.478 -0.3194  0.1427 -0.8252
  277SOL    HW1  830   1.773   2.719   2.499 -0.2687 -0.1543 -3.2770
  277SOL    HW2  831   1.699   2.847   2.566 -0.9058  0.6303 -0.1215
  278SOL     OW  832   1.940   0.130   1.635 -0.2100  0.1958 -0.5112
  278SOL    HW1  833   1.874   0.202   1.662  0.4386 -0.1036 -0.4437
  278SOL    HW2  834   1.985   0.147   1.546 -0.3616  0.1025  1.3347
  279SOL     OW  835   1.483   1.250   3.022  0.1530 -0.1672 -0.1669
  279SOL    HW1  836   1.510   1.209   2.931  1.0546  1.5354  2.3063
  279SOL    HW2  837   1.556   1.306   3.066  4.8810  1.1956  1.9376
  280SOL     OW  838   0.733   1.292   2.985 -0.0216 -0.3969  0.1642
  280SOL    HW1  839   0.826   1.329   3.002 -0.4768  0.7009 -0.2819
  280SOL    HW2  840   0.692   1.255   3.071  1.2283  0.7820 -1.9523
  281SOL     OW  841   3.067   2.881   1.476 -0.7307 -0.2891  0.0655
  281SOL    HW1  842   0.039   2.862   1.512  1.3609 -2.9813 -2.8917
  281SOL    HW2  843   3.029   2.955   1.526  0.4570 -1.0981 -1.2817
  282SOL     OW  844   3.072   2.392   0.771 -0.5062 -0.6041  0.1204
  282SOL    HW1  845   3.061   2.327   0.694  1.9714  0.4605 -0.0961
  282SOL    HW2  846   0.027   2.456   0.757 -2.9751 -1.2230 -0.7470
  283SOL     OW  847   1.198   2.291   2.032 -0.2753 -0.0513  0.0986
  283SOL    HW1  848   1.126   2.343   2.075  2.1034  0.0989  0.2296
  283SOL    HW2  849   1.266   2.261   2.102 -0.3934  0.0501 -1.2597
  284SOL     OW  850   2.208   0.625   0.497 -0.6394  0.0468 -0.1003
  284SOL    HW1  851   2.209   0.547   0.563 -0.5614 -0.5309  0.8570
  284SOL    HW2  852   2.220   0.714   0.540  1.4404 -2.6129 -0.3144
  285SOL     OW  853   0.036   2.680   2.658  0.1598 -0.6763  0.1682
  285SOL    HW1  854   3.097   2.655   2.577  2.0235  0.1268 -0.6914
  285SOL    HW2  855   0.135   2.686   2.629 -3.5723 -0.9587  2.5003
  286SOL     OW  856   1.909   2.557   1.371 -0.8994  0.3682  0.4204
  286SOL    HW1  857   1.996   2.591   1.411 -0.4077 -1.3687 -0.1867
  286SOL    HW2  858   1.839   2.626   1.354  0.0953 -0.7025  1.4245
  287SOL     OW  859   0.803   1.546   0.970  0.0918  0.2247 -0.3452
  287SOL    HW1  860   0.766   1.451   0.969  0.2943 -0.3184  0.0763
  287SOL    HW2  861   0.745   1.621   1.009 -0.1117  1.3865 -0.2756
  288SOL     OW  862   1.964   2.528   3.025  0.1450  0.5679  0.6345
  288SOL    HW1  863   2.023   2.461   3.071 -3.6165 -1.3615 -0.1089
  288SOL    HW2  864   1.890   2.487   2.969  0.9994  0.6143  0.4286
  289SOL     OW  865   0.718   1.905   2.374 -0.4894  0.0614  0.3041
  289SOL    HW1  866   0.685   1.953   2.291 -0.0745 -1.1082  1.1112
  289SOL    HW2  867   0.663   1.933   2.450 -0.0255 -0.5563 -1.1549
  290SOL     OW  868   1.318   2.042   0.986  0.2028 -0.1451  0.0692
  290SOL    HW1  869   1.344   2.125   0.930  0.1465  2.2987  1.3603
  290SOL    HW2  870   1.266   2.069   1.075 -0.5286  0.1909  1.2690
  291SOL     OW  871   1.597   1.587   2.963 -0.8661  0.2344 -0.7979
  291SOL    HW1  872   1.655   1.569   2.882  0.0115  1.8024 -1.0792
  291SOL    HW2  873   1.640   1.544   3.044  2.8485 -0.4387  0.5445
  292SOL     OW  874   1.444   1.516   0.990 -0.4133 -0.1761 -0.5417
  292SOL    HW1  875   1.534   1.541   0.948  2.3613 -1.5898  0.1376
  292SOL    HW2  876   1.428   1.562   1.083 -0.3752  1.7094  2.9143
  293SOL     OW  877   1.582   2.828   0.891  0.3601  0.5404  0.1545
  293SOL    HW1  878   1.613   2.735   0.902  1.2153  2.1102  2.4864
  293SOL    HW2  879   1.482   2.830   0.909  2.9828 -1.4298  1.7154
  294SOL     OW  880   3.095   1.102   2.589 -0.2526  0.2880  0.6007
  294SOL    HW1  881   3.021   1.166   2.620  2.6971 -3.7074 -2.0737
  294SOL    HW2  882   3.083   1.069   2.493  0.5560 -1.2185  0.3705
  295SOL     OW  883   1.441   2.123   2.669 -0.2915 -0.4441 -0.1307
  295SOL    HW1  884   1.451   2.126   2.770  1.3196 -1.2736 -2.0947
  295SOL    HW2  885   1.534   2.135   2.626  2.8451  0.2098  1.5318
  296SOL     OW  886   2.066   0.976   2.254  0.1152  0.7166  0.4986
  296SOL    HW1  887   1.967   0.998   2.242  2.4155  0.6214 -0.0432
  296SOL    HW2  888   2.092   0.982   2.352 -1.3621 -0.8329  0.5133
  297SOL     OW  889   0.184   0.689   2.148  0.0870 -0.0205  0.1628
  297SOL    HW1  890   0.214   0.592   2.135 -1.3390  0.2197 -1.4338
  297SOL    HW2  891   0.104   0.716   2.092 -0.2603 -1.0760  1.3624
  298SOL     OW  892   1.021   2.460   2.143 -0.6640 -0.2274 -0.2567
  298SOL    HW1  893   1.045   2.555   2.117  1.3859  3.3799 -0.3296
  298SOL    HW2  894   1.012   2.452   2.244 -1.9453  1.2768 -1.1838
  299SOL     OW  895   0.549   3.008   2.708 -0.1177 -0.2398  0.2534
  299SOL    HW1  896   0.602   2.928   2.742  2.6834 -1.3155  0.6754
  299SOL    HW2  897   0.614   3.092   2.716  0.9399  3.8160 -0.9157
  300SOL     OW  898   0.142   0.635   3.023 -0.2476  0.7427  0.0726
  300SOL    HW1  899   0.140   0.682   2.934  0.7757 -1.2230 -1.9476
  300SOL    HW2  900   0.152   0.703   3.099 -2.1682 -1.4311  0.1418
  301SOL     OW  901   1.678   1.229   1.657 -0.0899  0.0859 -0.1349
  301SOL    HW1  902   1.623   1.204   1.572  0.1164 -2.2137 -0.1871
  301SOL    HW2  903   1.661   1.326   1.681 -0.4833 -1.3214  0.3906
  302SOL     OW  904   2.724   1.926   2.513  0.7248  0.3682 -0.0866
  302SOL    HW1  905   2.775   2.010   2.495 -4.3190 -2.9132  2.2014
  302SOL    HW2  906   2.631   1.932   2.475  0.2806  0.1049  1.5279
  303SOL     OW  907   3.096   0.107   2.729 -0.1564 -0.1744 -0.2864
  303SOL    HW1  908   0.013   0.017   2.712 -0.6878 -0.5433 -0.0983
  303SOL    HW2  909   0.021   0.187   2.688 -3.9955  4.5032 -0.2152
  304SOL     OW  910   2.921   0.757   1.573  0.0548  0.4657  0.3280
  304SOL    HW1  911   3.007   0.782   1.623  0.7909 -0.3670 -1.1746
  304SOL    HW2  912   2.853   0.724   1.645  1.2056 -1.9246  0.3940
  305SOL     OW  913   2.901   3.057   1.623 -0.1594  0.1089  0.5876
  305SOL    HW1  914   2.874   0.002   1.692 -1.4210  0.0626 -0.8278
  305SOL    HW2  915   2.844   3.059   1.540  1.2643  2.3453  0.2986
  306SOL     OW  916   2.741   1.261   1.439  0.1438 -0.2634 -0.4830
  306SOL    HW1  917   2.775   1.240   1.532  0.8942  2.9354  0.2023
  306SOL    HW2  918   2.808   1.217   1.375  1.3460  4.1397 -0.0814
  307SOL     OW  919   2.027   0.678   1.255 -0.7468 -0.9783 -0.8616
  307SOL    HW1  920   2.122   0.709   1.268 -1.2457  0.1841  0.6376
  307SOL    HW2  921   1.977   0.703   1.169 -0.3496 -0.4535 -1.1892
  308SOL     OW  922   2.973   1.922   1.222  0.3954  0.2933 -0.2163
  308SOL    HW1  923   3.019   1.889   1.135 -3.2808  0.6280 -2.3444
  308SOL    HW2  924   2.946   2.017   1.206  0.4679 -0.7125  1.0128
  309SOL     OW  925   2.096   1.879   1.706 -0.5018  0.3766  0.0887
  309SOL    HW1  926   2.053   1.926   1.627  0.5846 -0.6762 -0.2317
  309SOL    HW2  927   2.089   1.943   1.786  2.3884  0.8942  0.2270
  310SOL     OW  928   2.541   1.686   3.050 -0.3041 -0.7064  0.3401
  310SOL    HW1  929   2.511   1.780   3.060 -2.0573 -3.6860 -0.7468
  310SOL    HW2  930   2.594   1.672   2.961 -0.0589 -1.1532 -0.5458
  311SOL     OW  931   2.412   1.270   2.911  0.9819  0.0956 -0.1013
  311SOL    HW1  932   2.476   1.284   2.991 -0.9778 -2.4518  0.5884
  311SOL    HW2  933   2.314   1.265   2.938  2.9831 -2.3836 -0.6716
  312SOL     OW  934   1.285   2.347   1.455 -0.8894 -0.0625 -0.6331
  312SOL    HW1  935   1.377   2.393   1.461  2.7513 -2.1490  0.5160
  312SOL    HW2  936   1.283   2.266   1.512  2.0804  0.9966 -0.3565
  313SOL     OW  937   0.400   2.607   1.228 -0.0792  0.2367  0.4793
  313SOL    HW1  938   0.302   2.635   1.236 -1.7953 -0.0946  1.5693
  313SOL    HW2  939   0.417   2.513   1.199  2.4911  1.5579 -1.2791
  314SOL     OW  940   1.022   1.751   1.498 -0.5265  0.2120  0.2907
  314SOL    HW1  941   0.930   1.756   1.452  1.5793 -1.7723  2.0623
  314SOL    HW2  942   1.023   1.804   1.585  0.0104  1.4961 -0.5667
  315SOL     OW  943   0.410   2.895   2.434  0.0357 -0.1300 -0.7374
  315SOL    HW1  944   0.424   2.986   2.474  0.6439  0.3484  1.0913
  315SOL    HW2  945   0.374   2.903   2.336 -2.3220 -2.1122  0.1668
  316SOL     OW  946   3.028   2.182   0.917 -0.1991  0.4163 -0.0666
  316SOL    HW1  947   3.068   2.253   0.856  2.6619  1.0373  1.8085
  316SOL    HW2  948   2.944   2.143   0.881 -1.2470  0.0590  2.6181
  317SOL     OW  949   1.926   0.711   0.503 -0.6220 -0.1806  0.0312
  317SOL    HW1  950   1.908   0.716   0.605 -0.3481  0.6726  1.4508
  317SOL    HW2  951   2.018   0.671   0.488 -0.5464 -1.9941  1.8952
  318SOL     OW  952   2.827   2.441   0.216  0.3933  0.3295 -0.4891
  318SOL    HW1  953   2.767   2.507   0.181  0.9297 -4.4103  2.6045
  318SOL    HW2  954   2.803   2.432   0.314 -0.3762  0.3645  2.4173
  319SOL     OW  955   1.372   1.586   0.169  0.1096 -0.0610  0.6538
  319SOL    HW1  956   1.405   1.562   0.267  2.5505 -1.7808  1.2696
  319SOL    HW2  957   1.426   1.664   0.132 -2.7480 -0.1745 -1.2928
  320SOL     OW  958   0.654   2.561   2.749 -0.2093  0.3443  0.6110
  320SOL    HW1  959   0.589   2.545   2.668 -0.9500 -1.0714 -0.0209
  320SOL    HW2  960   0.631   2.498   2.828  2.5592  1.0094  1.3735
  321SOL     OW  961   1.099   0.056   0.218 -0.1806  0.0484 -0.7469
  321SOL    HW1  962   1.068   0.023   0.309 -0.1770 -2.5427 -2.1938
  321SOL    HW2  963   1.155   3.109   0.167  1.4436  2.8526  0.5624
  322SOL     OW  964   2.244   0.949   2.057  0.2424  0.6436  0.0788
  322SOL    HW1  965   2.174   0.960   2.126  1.1711  1.5061  0.6449
  322SOL    HW2  966   2.325   0.988   2.107 -0.0814 -0.5117  1.8151
  323SOL     OW  967   2.952   0.808   0.401  0.2867  0.5028  0.3044
  323SOL    HW1  968   3.015   0.756   0.461 -1.6746  1.6194 -1.4365
  323SOL    HW2  969   2.969   0.905   0.420  0.8780 -0.4360  1.9708
  324SOL     OW  970   0.081   0.318   2.594 -0.6145 -0.1734 -0.0428
  324SOL    HW1  971   0.020   0.393   2.573  0.3185 -2.0079  0.2503
  324SOL    HW2  972   0.159   0.352   2.649  1.2350 -1.0129  0.7310
  325SOL     OW  973   0.800   3.097   2.485 -0.1126 -0.0766 -0.2049
  325SOL    HW1  974   0.749   0.055   2.447  1.8956 -0.6075  1.4453
  325SOL    HW2  975   0.812   3.117   2.581 -0.3252 -0.2960 -1.3645
  326SOL     OW  976   2.578   2.573   1.154  0.3320 -0.1082 -0.4229
  326SOL    HW1  977   2.476   2.603   1.165  0.2492  0.7777 -0.3738
  326SOL    HW2  978   2.609   2.607   1.064  2.1498 -0.9269 -1.3729
  327SOL     OW  979   1.871   0.769   0.060 -0.0782  0.3573 -0.5115
  327SOL    HW1  980   1.819   0.760   0.148 -2.5035 -0.5227 -1.8604
  327SOL    HW2  981   1.823   0.831   3.119 -1.3918 -0.6950 -3.5609
  328SOL     OW  982   2.985   1.711   2.003  0.2065  0.1479 -0.0358
  328SOL    HW1  983   3.038   1.653   2.071  3.0335 -0.8531 -0.9920
  328SOL    HW2  984   2.912   1.770   2.044  1.0319 -2.0337  2.7547
  329SOL     OW  985   1.982   2.967   1.772 -0.4602 -0.8511 -0.0622
  329SOL    HW1  986   1.945   3.058   1.754  0.4264 -1.5364  1.2241
  329SOL    HW2  987   1.914   2.894   1.766  1.2720  1.5501 -1.2117
  330SOL     OW  988   2.423   1.676   2.006 -0.3102 -0.0465  0.0121
  330SOL    HW1  989   2.425   1.576   1.987 -0.5437 -0.9150  2.6226
  330SOL    HW2  990   2.486   1.723   1.941 -2.8576 -1.9228 -3.4380
  331SOL     OW  991   2.911   2.163   1.189 -0.0186  0.2488 -0.1499
  331SOL    HW1  992   2.973   2.226   1.136  0.2135  2.0165 -0.9381
  331SOL    HW2  993   2.813   2.184   1.171  0.4338  1.1620 -0.9209
  332SOL     OW  994   0.522   2.908   0.490  0.0825 -0.3330  0.0105
  332SOL    HW1  995   0.563   2.979   0.429 -1.0347 -0.1946 -0.6317
  332SOL    HW2  996   0.481   2.836   0.431  1.2790 -1.8661 -1.3593
  333SOL     OW  997   1.826   0.313   2.473 -0.0958  0.8003  0.0465
  333SOL    HW1  998   1.760   0.247   2.520 -1.4999  1.0740  2.0484
  333SOL    HW2  999   1.871   0.260   2.400 -0.1141 -0.5886 -0.5107
  334SOL     OW 1000   0.605   1.373   0.766 -0.5810  1.0639 -0.6448
  334SOL    HW1 1001   0.682   1.320   0.817  2.5641 -0.4710 -0.8509
  334SOL    HW2 1002   0.614   1.358   0.666  0.0037 -0.3682 -0.9102
  335SOL     OW 1003   0.032   2.924   2.176  0.0969  0.5493  0.0745
  335SOL    HW1 1004   3.095   2.963   2.246 -2.0889  4.4583  0.1875
  335SOL    HW2 1005   3.116   2.939   2.082 -0.1862  0.3904 -1.1797
  336SOL     OW 1006   2.862   0.106   1.879  0.0637  0.0145 -0.3809
  336SOL    HW1 1007   2.817   0.080   1.966  2.5850 -0.5541  0.8836
  336SOL    HW2 1008   2.948   0.160   1.898  1.1375 -0.1180 -1.1308
  337SOL     OW 1009   2.008   1.528   0.695  0.0672  0.0322 -0.1507
  337SOL    HW1 1010   2.106   1.519   0.724  1.6241 -2.6064 -1.9399
  337SOL    HW2 1011   2.000   1.502   0.596 -2.3808 -0.5667  2.3833
  338SOL     OW 1012   0.899   1.857   0.897  0.2336  0.0930 -0.2178
  338SOL    HW1 1013   0.811   1.867   0.848  1.8323  0.6605  0.6155
  338SOL    HW2 1014   0.893   1.779   0.962  1.0648  0.6270 -1.7386
  339SOL     OW 1015   3.087   0.926   1.007 -0.3309  0.5178  0.3826
  339SOL    HW1 1016   3.114   1.007   1.058 -0.2039 -1.9189  1.0171
  339SOL    HW2 1017   3.015   0.880   1.060  0.7889  0.5236 -1.9271
  340SOL     OW 1018   1.382   2.836   2.262 -0.1151 -0.0458  0.1333
  340SOL    HW1 1019   1.337   2.751   2.305 -0.0283 -0.8741 -0.1236
  340SOL    HW2 1020   1.482   2.815   2.240  3.2728  0.4683  1.5567
  341SOL     OW 1021   2.283   1.525   0.782 -0.4791  0.6638 -0.3705
  341SOL    HW1 1022   2.347   1.461   0.832  1.2587 -2.4496  0.8706
  341SOL    HW2 1023   2.257   1.607   0.840  2.3029 -0.3593  0.1508
  342SOL     OW 1024   3.031   1.376   0.769  0.3742  0.4331 -0.1543
  342SOL    HW1 1025   2.946   1.332   0.812 -2.2052 -2.4281  0.4082
  342SOL    HW2 1026   2.991   1.451   0.716  1.1254  0.2860  0.1720
  343SOL     OW 1027   2.510   1.191   1.792  0.1246  0.0947  0.8234
  343SOL    HW1 1028   2.515   1.089   1.808 -0.7875  0.5462 -1.2094
  343SOL    HW2 1029   2.604   1.230   1.781 -1.8671  1.4858  0.4126
  344SOL     OW 1030   1.893   0.785   0.997  0.5106  0.2178 -0.0350
  344SOL    HW1 1031   1.799   0.757   0.968 -0.1228 -1.8523  0.8279
  344SOL    HW2 1032   1.886   0.875   1.032  2.4262 -2.4593 -3.2045
  345SOL     OW 1033   0.016   2.958   2.726  0.0233 -0.7243  0.6313
  345SOL    HW1 1034   0.006   2.873   2.670  2.0244  1.4885  0.8102
  345SOL    HW2 1035   0.118   2.985   2.729  0.4514  3.0307  0.4681
  346SOL     OW 1036   2.734   1.551   0.099  0.6018  0.9743 -0.0055
  346SOL    HW1 1037   2.685   1.604   0.169 -2.0507 -0.0466 -2.2932
  346SOL    HW2 1038   2.676   1.553   0.011  1.0747  0.1526 -0.0307
  347SOL     OW 1039   1.762   2.745   1.816  0.4102 -0.1195  0.3251
  347SOL    HW1 1040   1.794   2.651   1.831 -2.8100  3.2855 -2.0446
  347SOL    HW2 1041   1.695   2.750   1.738 -1.0686  0.6836 -0.0173
  348SOL     OW 1042   1.093   1.274   1.651 -0.0715  0.1717 -0.1379
  348SOL    HW1 1043   1.109   1.372   1.679 -1.6264  0.1088 -1.8897
  348SOL    HW2 1044   0.994   1.252   1.638  0.6204  0.4201 -0.0648
  349SOL     OW 1045   2.096   1.439   2.303  0.6922  0.3259 -0.6362
  349SOL    HW1 1046   2.083   1.365   2.378 -0.1717  1.0543  1.0369
  349SOL    HW2 1047   2.157   1.511   2.339  0.2764  2.9076 -0.8469
  350SOL     OW 1048   2.531   2.224   0.364 -0.7876 -0.0631  0.5680
  350SOL    HW1 1049   2.506   2.260   0.272 -0.6938  0.5857  1.1673
  350SOL    HW2 1050   2.569   2.298   0.421  0.2532 -1.3131 -0.1512
  351SOL     OW 1051   0.362   0.200   1.755 -0.0768  0.4893 -0.2527
  351SOL    HW1 1052   0.337   0.293   1.782 -1.8026  0.7601  2.1812
  351SOL    HW2 1053   0.364   0.184   1.653  0.4394 -3.5630  0.6239
  352SOL     OW 1054   1.368   2.623   1.726 -0.3202 -0.0189  0.4699
  352SOL    HW1 1055   1.323   2.709   1.751 -6.2827  2.2296 -2.7675
  352SOL    HW2 1056   1.299   2.555   1.742  0.7015 -0.8608 -1.4875
  353SOL     OW 1057   0.950   1.134   2.254  0.2826 -0.3282 -0.5318
  353SOL    HW1 1058   0.910   1.139   2.348  1.0797 -0.4622  0.8651
  353SOL    HW2 1059   0.973   1.038   2.229  0.8617  3.1615  0.4537
  354SOL     OW 1060   1.292   1.576   0.592  0.1501  0.0395  0.0822
  354SOL    HW1 1061   1.255   1.602   0.683  1.5418 -0.9296 -2.6301
  354SOL    HW2 1062   1.311   1.656   0.532 -1.9650  0.5058 -0.1447
  355SOL     OW 1063   2.059   0.369   1.071 -0.1267  0.3127  0.3312
  355SOL    HW1 1064   1.979   0.312   1.060  4.0674  0.9567  0.9983
  355SOL    HW2 1065   2.073   0.432   0.992 -0.3635 -0.1981 -0.8783
  356SOL     OW 1066   3.019   1.215   3.055 -0.2674 -0.2592  1.0552
  356SOL    HW1 1067   3.094   1.155   3.042 -0.4109  0.8764 -1.0391
  356SOL    HW2 1068   2.933   1.165   3.048 -1.2814  1.0641 -1.3989
  357SOL     OW 1069   3.100   2.976   1.908  0.4661 -0.0931  0.4005
  357SOL    HW1 1070   0.052   3.025   1.854  1.3236  1.2396 -1.7096
  357SOL    HW2 1071   3.018   3.034   1.911 -1.0038 -1.4473 -0.3421
  358SOL     OW 1072   0.605   1.453   2.740 -0.7306 -0.1070 -0.0405
  358SOL    HW1 1073   0.545   1.385   2.697  0.8084  1.7926  1.0336
  358SOL    HW2 1074   0.659   1.408   2.817  0.5855  2.8898  0.3729
  359SOL     OW 1075   2.764   2.739   2.389 -0.1110 -0.4280  0.7430
  359SOL    HW1 1076   2.667   2.703   2.396 -1.2424  0.7347 -0.2658
  359SOL    HW2 1077   2.830   2.668   2.411 -0.2054  1.6188  1.3851
  360SOL     OW 1078   1.616   1.333   1.154 -0.0347 -0.1440  0.0362
  360SOL    HW1 1079   1.654   1.324   1.058 -1.4112  0.5562  0.9732
  360SOL    HW2 1080   1.655   1.410   1.211  1.6009 -0.4249  1.2722
  361SOL     OW 1081   1.960   2.301   1.405  0.3396 -0.7598  0.1565
  361SOL    HW1 1082   1.879   2.236   1.412 -1.0571 -2.2992 -0.7160
  361SOL    HW2 1083   1.916   2.391   1.412 -2.7881 -1.6493 -0.1709
  362SOL     OW 1084   1.705   1.314   0.917  0.8418 -0.3405  0.4031
  362SOL    HW1 1085   1.782   1.273   0.865  1.0467  0.2977 -2.6449
  362SOL    HW2 1086   1.624   1.319   0.853 -1.0321 -1.6653 -0.3498
  363SOL     OW 1087   2.290   2.377   0.677 -0.1397 -0.0684 -0.1665
  363SOL    HW1 1088   2.311   2.461   0.734  0.6157  1.2458  4.2209
  363SOL    HW2 1089   2.276   2.406   0.576 -1.8636  1.0447 -2.9219
  364SOL     OW 1090   0.117   0.202   1.197 -0.2560  0.6066  0.1444
  364SOL    HW1 1091   0.073   0.125   1.155  2.2086  2.7473  0.3491
  364SOL    HW2 1092   0.215   0.196   1.179  0.5204 -0.4650  2.8129
  365SOL     OW 1093   0.648   2.737   0.744  0.3678 -0.5608 -0.4365
  365SOL    HW1 1094   0.708   2.816   0.753  1.0748  0.6624 -1.0849
  365SOL    HW2 1095   0.691   2.649   0.766  1.1689  4.0803 -1.3962
  366SOL     OW 1096   0.174   1.501   0.441 -1.0183 -0.0257 -0.1833
  366SOL    HW1 1097   0.227   1.546   0.366 -0.0389 -2.4305 -0.8307
  366SOL    HW2 1098   0.214   1.519   0.535  1.2846  1.5104  4.3109
  367SOL     OW 1099   2.624   2.390   2.920  0.3331  0.5413 -0.6177
  367SOL    HW1 1100   2.682   2.346   2.992  2.1079 -2.8353 -0.0526
  367SOL    HW2 1101   2.641   2.340   2.833  2.2731 -3.6699  1.3900
  368SOL     OW 1102   2.426   1.756   0.926  0.4093  0.3437 -0.4309
  368SOL    HW1 1103   2.459   1.794   0.841  2.8538 -1.7863  2.0333
  368SOL    HW2 1104   2.469   1.667   0.937  0.0273 -2.7891 -0.3634
  369SOL     OW 1105   1.025   1.045   0.232  0.2793 -0.4228  0.4455
  369SOL    HW1 1106   0.995   1.139   0.259  0.4500  0.0335 -2.4487
  369SOL    HW2 1107   1.095   1.013   0.297  1.8752  2.3962 -1.4831
  370SOL     OW 1108   0.375   2.986   1.126  0.7445  0.0466 -0.3025
  370SOL    HW1 1109   0.320   2.901   1.110  0.0841 -0.7088  0.4836
  370SOL    HW2 1110   0.448   2.997   1.059 -1.4555 -2.3513  0.1412
  371SOL     OW 1111   2.935   1.276   2.697  0.0211 -0.7576  0.8555
  371SOL    HW1 1112   2.881   1.323   2.623  1.2261  0.3991 -2.3320
  371SOL    HW2 1113   2.882   1.284   2.783  0.4774 -0.1301  1.1886
  372SOL     OW 1114   0.665   0.512   2.374  0.6486  0.2721 -0.0389
  372SOL    HW1 1115   0.627   0.455   2.302 -2.3378 -0.7187  3.7104
  372SOL    HW2 1116   0.630   0.485   2.466 -0.0634  1.2514  1.4578
  373SOL     OW 1117   0.840   0.482   0.033  0.0322  0.2623  0.4316
  373SOL    HW1 1118   0.916   0.550   0.011  2.5390  0.5940  1.6149
  373SOL    HW2 1119   0.851   0.442   0.130 -4.2350 -0.4317  2.6064
  374SOL     OW 1120   1.125   2.272   0.054 -0.3195 -0.0941  0.1654
  374SOL    HW1 1121   1.227   2.281   0.053 -0.4477  0.5826  0.6614
  374SOL    HW2 1122   1.099   2.187   0.006 -0.4888  2.4938  1.3803
  375SOL     OW 1123   0.912   2.878   1.578  0.1797 -0.2395 -0.4574
  375SOL    HW1 1124   0.902   2.781   1.550 -0.0076 -0.3811  0.2836
  375SOL    HW2 1125   0.828   2.924   1.551 -1.3876 -1.3809  1.5949
  376SOL     OW 1126   0.292   2.598   2.114 -0.2995 -0.0711  0.3846
  376SOL    HW1 1127   0.365   2.642   2.056  2.3225  0.7217 -0.7740
  376SOL    HW2 1128   0.330   2.507   2.151 -2.3069 -0.7958  2.8435
  377SOL     OW 1129   2.282   2.064   2.947 -0.1143 -0.2100  0.0642
  377SOL    HW1 1130   2.184   2.055   2.923  1.1623 -0.1477  0.8657
  377SOL    HW2 1131   2.342   2.037   2.869  1.5492  1.7456  0.9362
  378SOL     OW 1132   2.259   0.417   0.674  0.6955 -0.5642 -0.3471
  378SOL    HW1 1133   2.229   0.471   0.753  2.4144 -1.9440 -0.5453
  378SOL    HW2 1134   2.332   0.349   0.695  0.3711 -0.9872  0.7776
  379SOL     OW 1135   1.246   0.666   0.588 -0.3787 -0.1233  0.5818
  379SOL    HW1 1136   1.247   0.707   0.491  0.9907 -2.1966 -1.9811
  379SOL    HW2 1137   1.187   0.584   0.604  1.3445  0.4834 -0.4228
  380SOL     OW 1138   2.650   2.357   2.166 -0.2522 -0.1406 -0.4580
  380SOL    HW1 1139   2.741   2.402   2.146  1.9126  2.5988  1.8133
  380SOL    HW2 1140   2.589   2.366   2.090  1.4805 -2.3592  3.2962
  381SOL     OW 1141   2.714   1.424   2.041  0.3188 -0.0265 -0.5067
  381SOL    HW1 1142   2.720   1.504   2.102 -1.1228 -0.9937 -4.4640
  381SOL    HW2 1143   2.673   1.443   1.951 -0.3979 -1.3021 -0.4857
  382SOL     OW 1144   3.010   2.053   2.803 -0.1354 -0.0315  0.1452
  382SOL    HW1 1145   2.974   2.140   2.768 -1.5836 -2.1906 -0.7406
  382SOL    HW2 1146   2.970   2.010   2.885  0.6277 -1.0158 -1.4831
  383SOL     OW 1147   1.249   0.696   2.546 -0.2081  0.0501  0.0449
  383SOL    HW1 1148   1.265   0.785   2.589 -1.5838  2.2603  0.9669
  383SOL    HW2 1149   1.259   0.713   2.447 -1.4171  1.1420  1.6589
  384SOL     OW 1150   1.336   2.009   2.162  0.6861 -0.1635  0.3645
  384SOL    HW1 1151   1.360   2.092   2.217 -0.4343 -1.7403  0.8074
  384SOL    HW2 1152   1.249   1.966   2.191 -0.8293  2.2670  2.8907
  385SOL     OW 1153   2.657   2.753   0.190 -0.6661 -0.3554 -0.3653
  385SOL    HW1 1154   2.575   2.695   0.191  0.6065  3.5703  1.1494
  385SOL    HW2 1155   2.665   2.811   0.271  2.2853 -1.1989 -0.5963
  386SOL     OW 1156   1.572   1.144   0.700 -0.4749  0.2794 -0.1948
  386SOL    HW1 1157   1.518   1.121   0.784 -0.2018  1.1983  0.6954
  386SOL    HW2 1158   1.656   1.086   0.693  1.3987 -0.9031 -0.1060
  387SOL     OW 1159   3.025   1.848   1.656 -0.3636  0.3501 -0.8602
  387SOL    HW1 1160   3.093   1.837   1.732 -2.4425 -0.6647  2.4770
  387SOL    HW2 1161   3.073   1.879   1.573  1.1234  4.4045  3.5543
  388SOL     OW 1162   0.521   1.071   1.460  0.4331 -0.2225 -0.5405
  388SOL    HW1 1163   0.551   1.106   1.368 -1.8894 -1.7049  0.3295
  388SOL    HW2 1164   0.598   1.036   1.508 -1.0958 -0.8449 -1.4914
  389SOL     OW 1165   2.114   1.015   2.563  1.0279 -0.2055  0.2346
  389SOL    HW1 1166   2.167   0.928   2.580  2.9496 -1.2131 -1.0420
  389SOL    HW2 1167   2.010   0.999   2.574 -2.6700  3.4494  0.9329
  390SOL     OW 1168   0.911   1.847   0.078  0.2332  0.1630  0.1877
  390SOL    HW1 1169   0.866   1.928   0.125 -1.6395  1.4621 -1.8089
  390SOL    HW2 1170   0.892   1.761   0.129 -1.4118 -2.5573  1.3927
  391SOL     OW 1171   1.256   1.824   0.427  0.2764  0.1782 -0.0515
  391SOL    HW1 1172   1.155   1.817   0.423 -0.7327 -0.0033  0.1165
  391SOL    HW2 1173   1.291   1.898   0.365  0.2282 -0.6235 -0.7307
  392SOL     OW 1174   2.736   2.936   2.165  0.4283 -0.5110  0.1350
  392SOL    HW1 1175   2.695   2.885   2.084  0.4133 -1.8416 -1.4632
  392SOL    HW2 1176   2.742   2.872   2.241 -3.1102 -0.1324 -1.9821
  393SOL     OW 1177   1.557   2.091   3.066  0.1762 -0.5836  0.5239
  393SOL    HW1 1178   1.518   2.021   3.005 -0.0436 -1.6192  0.7196
  393SOL    HW2 1179   1.503   2.178   3.061  0.0331 -1.7835  0.6220
  394SOL     OW 1180   0.382   0.100   2.350  0.5661 -0.0311  0.3424
  394SOL    HW1 1181   0.479   0.130   2.363 -1.3645 -1.4468  2.6308
  394SOL    HW2 1182   0.373   0.068   2.253  0.3767 -0.0247  0.3913
  395SOL     OW 1183   0.155   1.384   1.335 -0.6455  0.0822 -0.5502
  395SOL    HW1 1184   0.205   1.470   1.359 -0.2670  0.6638  0.7015
  395SOL    HW2 1185   0.085   1.395   1.265  0.8379  0.2466 -1.2651
  396SOL     OW 1186   2.129   1.285   2.965 -0.3081  0.0444  0.5600
  396SOL    HW1 1187   2.069   1.312   2.886  0.2429  1.4584  1.8044
  396SOL    HW2 1188   2.133   1.361   3.032  0.3023 -3.8417 -1.6745
  397SOL     OW 1189   0.409   0.752   2.986  0.5983  0.1759 -0.0656
  397SOL    HW1 1190   0.503   0.761   2.950  0.5246  1.0083 -0.7907
  397SOL    HW2 1191   0.350   0.779   2.905  2.3420  0.9219 -0.6147
  398SOL     OW 1192   1.059   2.597   0.322 -0.4438  0.2280 -0.1071
  398SOL    HW1 1193   1.154   2.566   0.347 -2.6566  2.0118  2.4018
  398SOL    HW2 1194   1.033   2.656   0.400  2.3578  0.1344  1.2193
  399SOL     OW 1195   1.847   2.566   2.479 -0.2983  0.9598  0.3477
  399SOL    HW1 1196   1.942   2.604   2.492  0.4867  0.9201 -1.0025
  399SOL    HW2 1197   1.832   2.553   2.376  0.8106 -1.9298 -0.8274
  400SOL     OW 1198   3.051   1.050   1.917 -0.2442  0.0769 -0.3679
  400SOL    HW1 1199   3.013   1.135   1.959 -2.6273  3.2497 -1.5415
  400SOL    HW2 1200   3.117   1.075   1.847 -2.4832 -1.4220  0.8301
  401SOL     OW 1201   0.757   0.743   0.659 -0.1381  0.0193 -0.0040
  401SOL    HW1 1202   0.662   0.710   0.659  2.9479  0.3455  1.0807
  401SOL    HW2 1203   0.806   0.700   0.735  0.2068  0.1108 -0.3187
  402SOL     OW 1204   0.819   0.035   2.739 -0.2660 -0.4241 -0.4155
  402SOL    HW1 1205   0.818   0.134   2.732 -0.7672  1.7228  2.2364
  402SOL    HW2 1206   0.850   0.008   2.832  0.0548 -0.0476  0.3600
  403SOL     OW 1207   2.569   1.792   1.811  0.6043 -0.6558  0.8057
  403SOL    HW1 1208   2.628   1.869   1.772  3.0586 -1.3421 -2.8493
  403SOL    HW2 1209   2.615   1.704   1.791  0.4089 -2.3805 -1.8447
  404SOL     OW 1210   2.669   2.534   1.671  0.2489 -0.0662 -0.1251
  404SOL    HW1 1211   2.757   2.574   1.709  2.7102  2.2879  0.0307
  404SOL    HW2 1212   2.688   2.482   1.587  0.6782 -0.3541 -0.4829
  405SOL     OW 1213   1.992   0.196   2.797 -0.2276  0.6096  0.1970
  405SOL    HW1 1214   2.082   0.141   2.786  1.2334  1.0518  0.0703
  405SOL    HW2 1215   1.927   0.178   2.718  0.9427 -0.7071 -2.5010
  406SOL     OW 1216   1.128   1.958   3.112 -0.5159  0.0261 -0.4229
  406SOL    HW1 1217   1.169   1.890   3.047 -1.3407  3.8250 -1.0054
  406SOL    HW2 1218   1.039   1.916   0.021  3.6472 -0.4618 -0.5891
  407SOL     OW 1219   1.662   1.644   0.640 -0.3535  0.3634 -0.1315
  407SOL    HW1 1220   1.628   1.547   0.630 -1.9900  1.7067 -2.5930
  407SOL    HW2 1221   1.706   1.650   0.733 -1.8413 -0.1148 -1.9340
  408SOL     OW 1222   0.034   0.286   1.659  0.3797  0.4734  0.0063
  408SOL    HW1 1223   0.069   0.369   1.614  1.5654  0.5958  0.9047
  408SOL    HW2 1224   0.056   0.199   1.610  5.3518  1.6793  2.5701
  409SOL     OW 1225   2.534   1.283   0.036 -0.3639  0.2306 -0.5503
  409SOL    HW1 1226   2.523   1.199   0.090 -1.5625  3.2132 -1.1357
  409SOL    HW2 1227   2.476   1.363   0.063  1.5751 -0.3515 -0.0347
  410SOL     OW 1228   2.357   2.338   1.001  0.1606  0.5322 -0.0679
  410SOL    HW1 1229   2.377   2.345   1.102 -1.6078  0.7767 -0.8783
  410SOL    HW2 1230   2.325   2.245   0.972 -2.2629 -1.5358  0.5342
  411SOL     OW 1231   0.616   3.076   0.241 -0.5235  0.2542 -0.2639
  411SOL    HW1 1232   0.567   0.037   0.216  1.8734  1.4906  0.3279
  411SOL    HW2 1233   0.709   3.071   0.197  1.4175  0.4473 -1.9801
  412SOL     OW 1234   1.781   3.003   0.371 -0.0372 -0.0423 -0.6109
  412SOL    HW1 1235   1.839   3.005   0.288  0.9518 -0.5686 -0.3119
  412SOL    HW2 1236   1.835   3.045   0.451  1.8409 -1.0199  1.6883
  413SOL     OW 1237   1.969   0.366   2.122  0.6330 -0.0081  0.4978
  413SOL    HW1 1238   1.971   0.297   2.197 -1.7416 -2.0109 -1.7032
  413SOL    HW2 1239   1.912   0.339   2.040  0.9413  1.6526  2.7803
  414SOL     OW 1240   3.090   0.670   0.585 -0.9515 -0.2629 -0.1998
  414SOL    HW1 1241   0.063   0.637   0.568  1.2741 -0.6633 -3.3406
  414SOL    HW2 1242   3.068   0.641   0.679 -1.7795  0.3543 -2.1138
  415SOL     OW 1243   3.002   1.054   0.472  0.6202 -0.0556 -0.6179
  415SOL    HW1 1244   2.915   1.066   0.421 -0.1272  0.3004  1.0513
  415SOL    HW2 1245   2.991   1.043   0.576 -0.5616  0.3561  2.9001
  416SOL     OW 1246   0.083   0.362   2.988 -0.0933 -0.1095 -0.0879
  416SOL    HW1 1247   0.107   0.334   2.892 -1.4690 -0.5401  1.5199
  416SOL    HW2 1248   0.110   0.459   3.003  0.0647 -2.0731 -3.2952
  417SOL     OW 1249   2.518   0.180   0.954 -0.1383  0.2045  0.3279
  417SOL    HW1 1250   2.476   0.252   1.017 -1.2058  0.3562  0.5245
  417SOL    HW2 1251   2.611   0.155   0.985  0.1601  1.1289 -3.0143
  418SOL     OW 1252   0.808   3.042   2.984 -0.2080  0.0009 -0.6106
  418SOL    HW1 1253   0.805   3.044   3.087  1.2326 -0.0411  2.0926
  418SOL    HW2 1254   0.772   2.954   2.948 -2.8985 -0.6954  1.7875
  419SOL     OW 1255   0.173   0.711   0.845 -0.4220 -0.2320 -0.0836
  419SOL    HW1 1256   0.119   0.802   0.825  0.3585  2.1511  0.1021
  419SOL    HW2 1257   0.263   0.726   0.805 -2.0666 -0.0283 -0.1422
  420SOL     OW 1258   2.984   1.156   1.321  0.0230  0.6693 -0.3943
  420SOL    HW1 1259   3.080   1.150   1.284  1.5856  0.5987 -0.2651
  420SOL    HW2 1260   2.951   1.062   1.343 -1.2521  1.5351  3.3322
  421SOL     OW 1261   1.061   1.859   2.759  0.1357  0.4795  0.2620
  421SOL    HW1 1262   1.131   1.822   2.826 -1.1541  0.0755 -0.7949
  421SOL    HW2 1263   1.102   1.929   2.697 -0.4895 -1.3171 -0.5879
  422SOL     OW 1264   2.493   0.573   2.141  0.7775  0.4935 -0.2890
  422SOL    HW1 1265   2.413   0.590   2.079 -0.5254  1.0132  0.3343
  422SOL    HW2 1266   2.580   0.611   2.109 -0.2190 -0.1424  0.5965
  423SOL     OW 1267   1.964   1.606   0.200 -0.2639  0.4840  0.6157
  423SOL    HW1 1268   2.029   1.686   0.193  3.8661  2.2342 -1.9495
  423SOL    HW2 1269   1.894   1.609   0.125 -0.0719 -0.1455  0.5070
  424SOL     OW 1270   0.910   0.902   1.814  0.5376 -0.4187 -0.2667
  424SOL    HW1 1271   0.851   0.903   1.896 -0.3304 -0.5638  0.1602
  424SOL    HW2 1272   0.955   0.993   1.809 -1.0000 -2.3567 -2.2197
  425SOL     OW 1273   0.002   2.640   2.195  0.3454 -0.3225  0.7820
  425SOL    HW1 1274   0.094   2.596   2.209  0.0308  0.3401 -2.3783
  425SOL    HW2 1275   0.025   2.728   2.153  1.7193 -3.6239  1.5113
  426SOL     OW 1276   2.298   2.529   0.434 -0.5707  0.3462 -0.1995
  426SOL    HW1 1277   2.365   2.580   0.491  1.6665 -1.8440  0.6717
  426SOL    HW2 1278   2.219   2.585   0.412  0.8652 -2.1139 -2.6358
  427SOL     OW 1279   0.692   0.752   2.968 -0.6505  0.3550  0.4218
  427SOL    HW1 1280   0.689   0.855   2.970 -1.4180  0.6948  0.0063
  427SOL    HW2 1281   0.776   0.712   3.009  0.9950  0.1659  2.6240
  428SOL     OW 1282   2.799   1.355   2.955 -0.3084  0.2627  0.1536
  428SOL    HW1 1283   2.723   1.297   2.993 -2.1052 -0.8231 -0.5646
  428SOL    HW2 1284   2.891   1.316   2.980  0.2901 -2.5403  1.6522
  429SOL     OW 1285   2.563   0.544   0.383  0.3007 -0.2796 -0.0649
  429SOL    HW1 1286   2.556   0.525   0.482  0.7867 -0.6937  2.4947
  429SOL    HW2 1287   2.566   0.643   0.362  1.0241 -0.3020  0.1233
  430SOL     OW 1288   1.401   2.218   2.329 -0.1713 -0.2533 -0.5269
  430SOL    HW1 1289   1.488   2.263   2.299 -1.5952 -0.8445  1.6642
  430SOL    HW2 1290   1.369   2.249   2.421 -0.2451 -1.0170  0.0391
  431SOL     OW 1291   0.262   2.120   1.471 -0.2422 -0.0647 -0.2768
  431SOL    HW1 1292   0.206   2.043   1.430 -0.9768  1.4732  0.7666
  431SOL    HW2 1293   0.309   2.082   1.551 -0.0716  0.6386 -0.2772
  432SOL     OW 1294   1.666   2.791   2.219  0.4944 -0.2624  0.0236
  432SOL    HW1 1295   1.740   2.724   2.201  0.2772  0.0813 -1.6865
  432SOL    HW2 1296   1.665   2.799   2.322  0.7293 -0.8040  0.2841
  433SOL     OW 1297   0.995   2.236   0.297 -0.0104 -0.2035 -0.5735
  433SOL    HW1 1298   1.030   2.253   0.205  2.8156 -0.3584  1.7949
  433SOL    HW2 1299   0.915   2.173   0.289 -0.9080  2.5239  0.2023
  434SOL     OW 1300   0.327   2.098   2.611 -0.5775  0.1587  0.1781
  434SOL    HW1 1301   0.428   2.075   2.615  0.6982  0.8084  0.9457
  434SOL    HW2 1302   0.287   2.104   2.702  0.0519 -0.0443 -1.6576
  435SOL     OW 1303   0.214   0.884   0.412 -0.0829  0.0340 -0.5429
  435SOL    HW1 1304   0.203   0.929   0.325 -0.7066 -0.8819  3.9261
  435SOL    HW2 1305   0.205   0.784   0.393  0.4567  3.2434  0.3570
  436SOL     OW 1306   0.401   2.657   1.722  0.2140 -0.2717  0.3632
  436SOL    HW1 1307   0.427   2.741   1.664 -0.4836  1.0323  1.7518
  436SOL    HW2 1308   0.457   2.661   1.808  0.2587 -1.1233  0.4761
  437SOL     OW 1309   0.884   0.097   0.817 -0.2780  0.3199  0.1754
  437SOL    HW1 1310   0.963   0.159   0.790  1.6346  3.3385 -1.6449
  437SOL    HW2 1311   0.791   0.134   0.796  1.8996 -4.9320 -1.1305
  438SOL     OW 1312   0.309   2.214   0.598 -0.0887  0.5214  0.4006
  438SOL    HW1 1313   0.367   2.267   0.666  2.2061  1.2741  0.4236
  438SOL    HW2 1314   0.260   2.134   0.637  1.3823  2.3705  1.4699
  439SOL     OW 1315   0.922   2.470   1.707  0.3174  0.1627  0.1523
  439SOL    HW1 1316   0.849   2.423   1.755  0.7128  0.4079 -3.2766
  439SOL    HW2 1317   0.878   2.524   1.634 -1.1666  0.6162 -0.2113
  440SOL     OW 1318   1.783   0.030   2.088 -0.4753 -0.1599 -0.1327
  440SOL    HW1 1319   1.796   0.118   2.032 -3.1189  2.6484 -2.6799
  440SOL    HW2 1320   1.737   3.085   2.024 -0.9452 -1.4608 -2.6058
  441SOL     OW 1321   3.078   0.263   1.917 -0.0130 -0.1624 -0.0717
  441SOL    HW1 1322   0.031   0.246   1.982 -2.2674 -1.6860  0.0488
  441SOL    HW2 1323   3.113   0.266   1.821  1.6308 -1.2515  0.1026
  442SOL     OW 1324   1.974   2.275   0.637  0.5550  0.4108 -0.2909
  442SOL    HW1 1325   2.073   2.275   0.673  0.6935 -2.4875 -0.5538
  442SOL    HW2 1326   1.918   2.240   0.715  2.0291  0.6342  3.4014
  443SOL     OW 1327   2.895   0.803   2.249 -0.6975 -0.1452  0.0218
  443SOL    HW1 1328   2.953   0.797   2.331 -1.7588  0.2298 -1.3410
  443SOL    HW2 1329   2.802   0.825   2.281  1.8970  3.6925  0.3153
  444SOL     OW 1330   1.812   1.032   2.241  0.0705 -0.0634 -0.1013
  444SOL    HW1 1331   1.737   1.059   2.184  1.2888 -1.2683  1.5988
  444SOL    HW2 1332   1.798   0.939   2.271 -4.5959  1.3095  1.7813
  445SOL     OW 1333   3.036   2.505   1.071  0.4736  0.6709  0.3074
  445SOL    HW1 1334   0.005   2.531   1.113 -1.3581  0.3790  2.4009
  445SOL    HW2 1335   3.034   2.460   0.981 -2.3523  1.8949  1.1513
  446SOL     OW 1336   2.798   1.553   1.076  0.3668 -0.0845 -0.5302
  446SOL    HW1 1337   2.829   1.601   1.161 -0.3068 -2.1667  1.4680
  446SOL    HW2 1338   2.812   1.452   1.085  1.9957 -0.6889 -2.0309
  447SOL     OW 1339   0.484   1.121   0.799  0.2543 -0.1028  0.3856
  447SOL    HW1 1340   0.556   1.076   0.736  0.0555 -3.6055  1.4136
  447SOL    HW2 1341   0.473   1.217   0.768 -1.7010  0.2982 -0.7684
  448SOL     OW 1342   1.503   1.597   2.091 -0.4927  0.1286 -0.4207
  448SOL    HW1 1343   1.467   1.567   2.001  1.8480  0.9540 -0.6086
  448SOL    HW2 1344   1.551   1.516   2.130 -0.2234  0.0984  0.5856
  449SOL     OW 1345   1.121   1.469   0.153 -0.0824  0.0004  0.1218
  449SOL    HW1 1346   1.212   1.521   0.153  1.7347 -0.3196 -0.3348
  449SOL    HW2 1347   1.151   1.372   0.140 -0.7965 -0.9078  0.2753
  450SOL     OW 1348   2.863   2.514   2.117 -0.8683  0.3247 -0.3616
  450SOL    HW1 1349   2.941   2.557   2.159 -1.7294  0.5891 -0.3431
  450SOL    HW2 1350   2.803   2.583   2.084  2.9129 -3.6979  1.3318
  451SOL     OW 1351   2.223   0.105   2.481 -0.1012  0.4563  0.1412
  451SOL    HW1 1352   2.239   0.009   2.453 -1.0721  0.1292 -0.4539
  451SOL    HW2 1353   2.316   0.147   2.505  1.4388  0.6228  0.9918
  452SOL     OW 1354   1.723   0.291   1.098  0.4033  0.1308 -0.0311
  452SOL    HW1 1355   1.631   0.264   1.066  0.4232  1.3198  1.2487
  452SOL    HW2 1356   1.714   0.343   1.186 -0.7278  0.5310 -0.0513
  453SOL     OW 1357   1.711   1.064   1.175  0.2245 -0.4016  0.1884
  453SOL    HW1 1358   1.801   1.067   1.225  0.3398  0.7960  1.4499
  453SOL    HW2 1359   1.671   1.161   1.163  0.6423 -3.6768  0.9550
  454SOL     OW 1360   3.043   1.450   0.395  0.6008 -0.2572 -0.1442
  454SOL    HW1 1361   0.019   1.473   0.415 -2.6352 -0.6258 -0.5378
  454SOL    HW2 1362   2.985   1.470   0.480 -2.1854  2.0140  2.4382
  455SOL     OW 1363   2.929   3.073   0.661 -0.4086 -0.0556  0.0873
  455SOL    HW1 1364   2.937   0.000   0.572  0.5256  0.1999  0.4480
  455SOL    HW2 1365   2.927   2.971   0.644 -0.8735 -1.7338 -1.9542
  456SOL     OW 1366   0.130   2.672   1.199  0.2475 -0.1487  0.5737
  456SOL    HW1 1367   0.068   2.756   1.206  2.0217  1.0580  0.8616
  456SOL    HW2 1368   0.130   2.619   1.288  1.5784  0.1396 -1.7244
  457SOL     OW 1369   1.363   0.174   0.479  0.4211  0.1673  0.7828
  457SOL    HW1 1370   1.395   0.115   0.402 -0.5320 -2.3297 -0.1375
  457SOL    HW2 1371   1.436   0.187   0.551  0.2510  0.7829 -2.4936
  458SOL     OW 1372   2.450   0.230   0.698  0.0883 -0.6216 -0.3059
  458SOL    HW1 1373   2.475   0.230   0.795  0.1909  2.1197 -2.1850
  458SOL    HW2 1374   2.424   0.137   0.670 -0.7734 -1.2012 -0.9324
  459SOL     OW 1375   2.332   0.558   2.616  0.1183 -0.3643  0.1265
  459SOL    HW1 1376   2.359   0.504   2.537 -0.7532  0.5113 -0.0353
  459SOL    HW2 1377   2.382   0.523   2.695 -0.6576  0.4156  1.0888
  460SOL     OW 1378   3.006   2.994   2.978 -0.1553  0.3190  0.1482
  460SOL    HW1 1379   3.056   2.981   2.890 -1.1415 -1.6582 -0.4557
  460SOL    HW2 1380   2.945   2.915   2.996  2.0957 -0.5035 -0.0732
  461SOL     OW 1381   0.977   1.799   0.518  0.3196 -0.1311  0.6074
  461SOL    HW1 1382   1.033   1.816   0.599  1.8700 -2.3112 -0.3638
  461SOL    HW2 1383   0.906   1.870   0.502 -0.3126 -1.5882 -1.3332
  462SOL     OW 1384   2.439   2.270   1.287 -0.1941 -0.1516 -0.0586
  462SOL    HW1 1385   2.347   2.244   1.316 -1.2560 -0.4692  0.3107
  462SOL    HW2 1386   2.471   2.203   1.222  0.7184  0.2134 -0.2328
  463SOL     OW 1387   2.488   1.015   0.481  0.2480 -0.3931 -0.5663
  463SOL    HW1 1388   2.435   1.095   0.447  0.7430 -0.8564 -0.2756
  463SOL    HW2 1389   2.528   0.963   0.400  1.7730  2.0705 -3.7320
  464SOL     OW 1390   0.372   3.018   1.407 -0.1579  0.5707  0.1798
  464SOL    HW1 1391   0.405   3.012   1.312 -0.0516 -2.4537 -0.4551
  464SOL    HW2 1392   0.428   2.957   1.464  1.5286  3.3450 -1.6126
  465SOL     OW 1393   3.005   1.477   0.028  0.1720 -0.1310  0.2509
  465SOL    HW1 1394   2.908   1.506   0.049 -1.4058 -2.3295  1.5302
  465SOL    HW2 1395   3.002   1.375   0.004  1.1677 -1.2037 -1.7061
  466SOL     OW 1396   1.865   3.108   2.945  0.3001 -0.7797  0.1083
  466SOL    HW1 1397   1.919   0.056   2.900 -1.3451 -0.3661 -2.1105
  466SOL    HW2 1398   1.803   0.030   3.014 -0.5243 -1.5040 -1.6527
  467SOL     OW 1399   0.923   0.674   1.630  0.1254 -0.2246 -0.3216
  467SOL    HW1 1400   0.975   0.587   1.648  0.6427 -1.7391  1.9515
  467SOL    HW2 1401   0.929   0.734   1.715  1.8030  0.0909 -2.0913
  468SOL     OW 1402   0.591   1.061   2.499 -0.2246 -0.0832  0.5335
  468SOL    HW1 1403   0.684   1.105   2.500  2.0032 -0.8939 -0.1780
  468SOL    HW2 1404   0.603   0.962   2.508  0.9270  2.4679 -0.1262
  469SOL     OW 1405   0.099   2.123   0.040 -0.4561  0.4451  0.0732
  469SOL    HW1 1406   0.067   2.218   0.038 -1.7139  0.2703 -0.8774
  469SOL    HW2 1407   0.017   2.070   0.083 -0.7895 -1.5509 -1.4874
  470SOL     OW 1408   2.301   1.713   2.668  0.1849  0.5635 -0.2486
  470SOL    HW1 1409   2.383   1.659   2.665 -1.3070  2.9105  1.3046
  470SOL    HW2 1410   2.324   1.813   2.666 -1.7140 -2.2232  0.1989
  471SOL     OW 1411   2.458   1.024   2.211 -0.5454  0.1360  0.2104
  471SOL    HW1 1412   2.479   0.968   2.294  0.4514 -1.0798 -1.0154
  471SOL    HW2 1413   2.546   1.039   2.164 -5.9827  0.5126  1.6017
  472SOL     OW 1414   0.430   2.632   0.631 -0.3001 -0.1988 -0.4620
  472SOL    HW1 1415   0.429   2.649   0.533  0.4131  1.3530  1.2229
  472SOL    HW2 1416   0.512   2.680   0.670 -1.4441  1.3830 -0.2276
  473SOL     OW 1417   0.596   0.077   3.036  0.6469 -0.1712  0.3649
  473SOL    HW1 1418   0.681   0.023   3.023  0.1347  1.6208  1.3695
  473SOL    HW2 1419   0.613   0.177   3.034 -0.4304  0.0012  2.3215
  474SOL     OW 1420   1.729   0.079   2.586 -1.0812  0.3090  0.1198
  474SOL    HW1 1421   1.666   0.066   2.667  0.4270 -2.0187  2.7856
  474SOL    HW2 1422   1.680   0.069   2.497  0.5381 -0.2015  0.3471
  475SOL     OW 1423   1.967   2.551   0.592 -0.3249  0.6803 -0.5676
  475SOL    HW1 1424   1.968   2.446   0.610 -1.9371 -3.5398  1.7143
  475SOL    HW2 1425   1.946   2.568   0.496  1.0345  0.4214 -0.7107
  476SOL     OW 1426   0.115   0.482   1.067 -0.1134 -0.2505  0.3006
  476SOL    HW1 1427   0.142   0.580   1.052  2.7773  3.4046 -0.6969
  476SOL    HW2 1428   0.112   0.459   1.166 -0.8439 -1.1120  1.9465
  477SOL     OW 1429   1.387   2.261   0.795 -0.2542  0.4965 -0.3705
  477SOL    HW1 1430   1.467   2.245   0.736 -1.9836 -1.1757  2.1681
  477SOL    HW2 1431   1.303   2.229   0.747 -0.1092 -0.2942 -1.6163
  478SOL     OW 1432   0.295   2.317   2.457  0.2090  0.0389 -0.0665
  478SOL    HW1 1433   0.323   2.236   2.518 -1.3185  0.0860  0.2858
  478SOL    HW2 1434   0.332   2.309   2.356  0.7071  0.8785  2.4689
  479SOL     OW 1435   2.399   0.717   0.934  0.3247  0.4437  0.2797
  479SOL    HW1 1436   2.481   0.701   0.876 -0.5867  1.0489 -0.5750
  479SOL    HW2 1437   2.415   0.660   1.018  0.4196  1.8244 -0.7444
  480SOL     OW 1438   3.051   2.828   0.163 -0.7276  0.1994 -0.6640
  480SOL    HW1 1439   3.024   2.916   0.204 -0.7223 -0.1900  3.3383
  480SOL    HW2 1440   0.019   2.831   0.125 -1.3579  0.4885  2.6837
  481SOL     OW 1441   2.811   2.459   1.208  0.5263 -0.2304  0.1273
  481SOL    HW1 1442   2.871   2.474   1.130 -0.2485 -4.2472  2.2191
  481SOL    HW2 1443   2.727   2.516   1.185 -0.3884  0.5967 -1.7686
  482SOL     OW 1444   1.034   2.308   2.818 -0.3707 -0.2520  0.7733
  482SOL    HW1 1445   1.137   2.319   2.834  1.0884  0.2969 -1.2335
  482SOL    HW2 1446   0.989   2.395   2.814  0.0268 -2.8626  0.4342
  483SOL     OW 1447   0.564   1.974   2.630  0.2302  0.4254 -0.2022
  483SOL    HW1 1448   0.549   1.877   2.660  1.4834 -2.8971 -1.3959
  483SOL    HW2 1449   0.636   2.014   2.691 -0.0899  0.6448 -1.7774
  484SOL     OW 1450   1.076   0.932   1.168  0.1484  0.6581  0.0361
  484SOL    HW1 1451   1.170   0.895   1.148  0.8172  3.4344 -1.4954
  484SOL    HW2 1452   1.062   0.930   1.271 -2.3107 -0.9760  2.8807
  485SOL     OW 1453   2.276   0.757   0.259 -0.0422 -0.3150 -0.6971
  485SOL    HW1 1454   2.272   0.715   0.352 -1.0114  0.8832  2.7154
  485SOL    HW2 1455   2.259   0.686   0.188 -0.7339  0.4202 -0.5980
  486SOL     OW 1456   1.943   2.972   1.388  0.1994 -0.2323 -0.1039
  486SOL    HW1 1457   1.875   2.915   1.440 -1.0013  0.5619  0.6262
  486SOL    HW2 1458   1.926   3.071   1.399  1.6955 -1.8755 -0.3931
  487SOL     OW 1459   0.212   2.235   1.248 -0.1258  0.1358 -0.3027
  487SOL    HW1 1460   0.224   2.197   1.342  2.0959 -0.7534  2.2562
  487SOL    HW2 1461   0.157   2.323   1.262 -0.3904  1.0609  1.0851
  488SOL     OW 1462   2.639   0.942   0.067  0.5649 -0.1206 -0.2390
  488SOL    HW1 1463   2.544   0.986   0.072  1.2045  1.0368 -1.6172
  488SOL    HW2 1464   2.638   0.862   0.004 -1.9890  1.1267 -0.7477
  489SOL     OW 1465   1.859   0.055   0.987  0.3251  0.2997 -0.0304
  489SOL    HW1 1466   1.951   0.022   1.012 -1.7126 -1.6653 -1.4150
  489SOL    HW2 1467   1.834   0.136   1.043  0.7492  0.6413  1.3269
  490SOL     OW 1468   0.917   0.649   0.454  0.5605  0.1436  0.7636
  490SOL    HW1 1469   0.860   0.681   0.532 -2.9134  0.3294 -0.5208
  490SOL    HW2 1470   0.912   0.709   0.375 -2.2409 -0.3861  0.6448
  491SOL     OW 1471   0.496   2.372   0.725 -0.0968  0.5609  0.7687
  491SOL    HW1 1472   0.547   2.362   0.637 -1.5448  0.0863  3.6944
  491SOL    HW2 1473   0.466   2.467   0.725 -0.0875  1.0470 -1.8270
  492SOL     OW 1474   1.238   1.609   2.200  0.2395 -1.0142  0.5316
  492SOL    HW1 1475   1.286   1.587   2.285  0.2539 -0.9748  1.6125
  492SOL    HW2 1476   1.309   1.633   2.128  2.8762  1.2138 -2.4195
  493SOL     OW 1477   0.057   2.771   0.951 -0.2930  0.3315  0.5010
  493SOL    HW1 1478   3.090   2.743   0.916  2.2279  0.7464  0.1834
  493SOL    HW2 1479   0.084   2.725   1.041  0.9956 -1.7981  1.3652
  494SOL     OW 1480   2.937   1.994   0.126 -0.3486 -0.5544  0.2498
  494SOL    HW1 1481   2.854   1.961   0.175  1.3372  0.5791  0.8803
  494SOL    HW2 1482   2.934   1.952   0.030  0.4617 -0.7327 -0.9728
  495SOL     OW 1483   2.721   1.866   2.783 -0.2104  1.1115 -0.3923
  495SOL    HW1 1484   2.743   1.873   2.683  0.3073  1.2945  0.0232
  495SOL    HW2 1485   2.677   1.776   2.801 -0.8622  2.3033 -0.2852
  496SOL     OW 1486   2.731   3.095   1.420  0.4865 -0.4280  0.2613
  496SOL    HW1 1487   2.811   0.017   1.369  1.4072  0.9929 -0.9481
  496SOL    HW2 1488   2.668   0.042   1.456  0.4883  2.5709 -1.7451
  497SOL     OW 1489   2.796   1.070   2.997  0.5321  0.0612  0.1515
  497SOL    HW1 1490   2.758   1.035   2.911  0.4869 -1.3880 -0.6090
  497SOL    HW2 1491   2.746   1.035   3.075  2.6179 -0.4453 -1.3740
  498SOL     OW 1492   0.165   2.013   2.086 -0.2246  0.2967 -0.3436
  498SOL    HW1 1493   0.070   2.047   2.072  1.5389  0.2307  1.3267
  498SOL    HW2 1494   0.191   2.012   2.186 -0.0300  0.2516  0.1011
  499SOL     OW 1495   0.937   2.073   2.874 -0.0565  0.2247  1.3207
  499SOL    HW1 1496   0.979   1.985   2.836 -0.8373 -1.8669 -0.3017
  499SOL    HW2 1497   0.992   2.156   2.852 -1.6045  0.3154  1.6576
  500SOL     OW 1498   1.670   0.085   0.022 -0.4334 -0.1329  0.9911
  500SOL    HW1 1499   1.617   0.015   3.102  2.0274  3.1704  0.7378
  500SOL    HW2 1500   1.616   0.144   0.088  0.1155  0.6632  1.4785
  501SOL     OW 1501   1.566   3.103   1.507 -0.0623  0.2360 -0.0360
  501SOL    HW1 1502   1.557   3.098   1.405  0.5186 -1.9287 -0.0674
  501SOL    HW2 1503   1.567   0.077   1.540  0.6924 -3.1076  1.7937
  502SOL     OW 1504   2.767   0.649   2.072 -0.3937  0.3352  0.4481
  502SOL    HW1 1505   2.811   0.714   2.138  0.8784  0.3024 -0.6797
  502SOL    HW2 1506   2.829   0.577   2.032 -0.9767  1.1991  1.8005
  503SOL     OW 1507   2.212   2.321   2.239 -0.1069  0.0971 -0.2691
  503SOL    HW1 1508   2.244   2.284   2.330 -0.1832 -0.7902 -0.8252
  503SOL    HW2 1509   2.227   2.420   2.235 -1.2952  0.7769  0.0946
  504SOL     OW 1510   1.453   0.674   1.567  0.4258 -0.4223 -0.3243
  504SOL    HW1 1511   1.530   0.702   1.504 -1.2255 -0.0586  1.1957
  504SOL    HW2 1512   1.460   0.724   1.661 -1.6483  2.1501  2.0123
  505SOL     OW 1513   0.612   1.067   1.170  0.2149  0.0143 -0.1897
  505SOL    HW1 1514   0.653   1.122   1.091 -0.7903 -2.6794 -1.4890
  505SOL    HW2 1515   0.676   0.995   1.199 -1.4277  2.0200 -1.9819
  506SOL     OW 1516   0.292   0.523   2.462  0.1862  0.0339 -0.3314
  506SOL    HW1 1517   0.213   0.467   2.459  2.7757 -0.1593  0.6704
  506SOL    HW2 1518   0.370   0.487   2.514 -0.0964  1.5951 -0.3053
  507SOL     OW 1519   0.165   2.852   0.019  0.1527  0.1553 -0.6140
  507SOL    HW1 1520   0.247   2.836   3.089 -2.8610 -2.5153 -0.4409
  507SOL    HW2 1521   0.130   2.943   3.112 -0.4946 -0.5780 -1.4756
  508SOL     OW 1522   1.274   0.893   1.484  0.0448  0.5927 -0.7191
  508SOL    HW1 1523   1.293   0.809   1.536  0.9384 -0.7068 -0.2822
  508SOL    HW2 1524   1.315   0.974   1.524  0.3429 -0.2742 -2.5105
  509SOL     OW 1525   1.154   2.111   1.186 -0.0321 -0.3196  0.2819
  509SOL    HW1 1526   1.168   2.055   1.270 -0.4769 -2.3663  1.5307
  509SOL    HW2 1527   1.134   2.207   1.208 -2.0403  1.8019 -2.2947
  510SOL     OW 1528   2.394   1.298   2.235  0.4617  0.8256 -0.1422
  510SOL    HW1 1529   2.311   1.303   2.293  0.7165 -1.2959 -1.0001
  510SOL    HW2 1530   2.438   1.207   2.237  1.4317  0.5297 -0.4914
  511SOL     OW 1531   0.697   1.750   1.112  0.2989 -0.3112  0.0160
  511SOL    HW1 1532   0.620   1.822   1.109 -2.8125  2.2346  3.3757
  511SOL    HW2 1533   0.735   1.743   1.207  1.2999  0.1577 -0.4485
  512SOL     OW 1534   2.664   2.018   0.508  0.1582 -0.1291 -0.4854
  512SOL    HW1 1535   2.627   2.099   0.457  0.2061  0.4588 -0.1444
  512SOL    HW2 1536   2.588   1.964   0.556 -1.8010  0.3665  1.9409
  513SOL     OW 1537   3.113   1.706   2.536  0.2503 -0.1204 -0.3287
  513SOL    HW1 1538   0.067   1.694   2.475 -0.3625  0.3381  0.6167
  513SOL    HW2 1539   3.116   1.626   2.596 -0.1021 -0.8428 -0.9570
  514SOL     OW 1540   3.008   2.590   2.421 -0.4675 -0.3600  0.0248
  514SOL    HW1 1541   3.038   2.497   2.443  0.1586 -0.5786  0.0115
  514SOL    HW2 1542   3.053   2.620   2.334 -1.3993 -1.2794 -0.7745
  515SOL     OW 1543   2.227   1.152   1.580  0.2274 -0.0331  0.0787
  515SOL    HW1 1544   2.130   1.188   1.594  0.7962 -0.1429  1.8444
  515SOL    HW2 1545   2.283   1.187   1.658  1.9280  1.0347 -0.1749
  516SOL     OW 1546   2.252   2.297   3.098  0.8045 -0.4394 -0.3637
  516SOL    HW1 1547   2.158   2.273   0.014 -0.2031  0.3288  2.0736
  516SOL    HW2 1548   2.284   2.228   3.029  0.0614 -2.2012 -0.9280
  517SOL     OW 1549   1.251   1.100   3.031  0.0842  0.5364  0.3251
  517SOL    HW1 1550   1.341   1.149   3.009  4.9097  1.6150  0.5427
  517SOL    HW2 1551   1.261   0.998   3.003 -1.7412 -0.4502 -0.5376
  518SOL     OW 1552   3.028   3.090   2.370  0.2195 -0.0017 -0.0562
  518SOL    HW1 1553   3.113   0.014   2.385  1.2611 -2.3938 -1.1119
  518SOL    HW2 1554   2.957   0.038   2.369 -2.9314  0.1256 -2.2276
  519SOL     OW 1555   1.520   1.782   2.330  0.6264  0.1838  0.3911
  519SOL    HW1 1556   1.521   1.704   2.263 -1.5429 -1.4307 -3.5378
  519SOL    HW2 1557   1.559   1.864   2.289  0.7886  0.2860 -1.2145
  520SOL     OW 1558   2.854   2.950   2.559  0.2866  0.1252  0.0590
  520SOL    HW1 1559   2.835   2.882   2.481  0.0336 -0.8014  0.9075
  520SOL    HW2 1560   2.938   3.002   2.540 -3.4723  0.0494  2.5889
  521SOL     OW 1561   0.252   1.542   2.048 -0.2928 -0.7282 -0.1537
  521SOL    HW1 1562   0.315   1.478   2.096 -0.2551  0.9010 -1.0259
  521SOL    HW2 1563   0.156   1.536   2.085  1.1389  0.8725  0.3677
  522SOL     OW 1564   0.986   2.878   1.848 -0.0036  0.4282  0.0934
  522SOL    HW1 1565   0.968   2.880   1.745  0.2628 -1.5396  1.7299
  522SOL    HW2 1566   0.914   2.931   1.895 -1.8258  1.6292 -1.4229
  523SOL     OW 1567   0.110   2.466   1.389  0.5278 -0.3666  0.3304
  523SOL    HW1 1568   0.170   2.463   1.472 -0.5278  1.5506  0.2189
  523SOL    HW2 1569   0.008   2.445   1.416 -2.4426  0.1462  1.1196
  524SOL     OW 1570   1.387   2.562   0.702 -0.1346 -0.0576 -1.0801
  524SOL    HW1 1571   1.483   2.576   0.666  0.2855 -0.3191 -0.1287
  524SOL    HW2 1572   1.376   2.480   0.759 -0.1241  1.3207 -2.4693
  525SOL     OW 1573   2.545   1.034   0.949  0.0024  0.2521 -0.3916
  525SOL    HW1 1574   2.557   1.083   1.037 -3.2306 -1.5985  1.7344
  525SOL    HW2 1575   2.448   1.013   0.936 -1.0171 -3.3866  3.9131
  526SOL     OW 1576   0.918   2.239   0.597 -0.2890  0.4361 -0.3156
  526SOL    HW1 1577   0.905   2.320   0.542 -2.7058 -0.7629 -0.2316
  526SOL    HW2 1578   1.014   2.211   0.624  1.2103 -1.3607 -3.1619
  527SOL     OW 1579   2.662   2.109   0.880  0.2072 -0.1470  0.1204
  527SOL    HW1 1580   2.707   2.048   0.808  0.5694 -0.3476 -1.3645
  527SOL    HW2 1581   2.672   2.204   0.841 -0.4599  2.9993  2.1694
  528SOL     OW 1582   2.244   0.581   0.062  0.2955 -0.2057  0.1080
  528SOL    HW1 1583   2.261   0.640   3.102  1.6517 -0.6814  0.4601
  528SOL    HW2 1584   2.203   0.493   0.035 -2.5241  0.2798  0.9318
  529SOL     OW 1585   1.047   1.125   1.880  0.1444 -0.3154  0.2813
  529SOL    HW1 1586   1.003   1.195   1.940 -1.0653 -4.4104  2.1614
  529SOL    HW2 1587   1.079   1.165   1.792  0.0089 -0.1656  0.2017
  530SOL     OW 1588   2.593   1.077   2.547  0.5391  0.4562 -0.0537
  530SOL    HW1 1589   2.634   1.107   2.456  0.2027  0.0108  1.0048
  530SOL    HW2 1590   2.534   0.997   2.528 -0.5858 -0.2769 -0.8380
  531SOL     OW 1591   0.990   0.991   3.104 -0.1861 -0.3280 -0.1546
  531SOL    HW1 1592   1.081   1.022   3.066  1.3084 -0.1968 -1.8825
  531SOL    HW2 1593   0.994   1.005   0.084 -1.0811 -0.6166  0.7461
  532SOL     OW 1594   1.790   0.968   0.661 -0.1473 -0.3098 -0.0913
  532SOL    HW1 1595   1.741   0.918   0.731  2.0792  2.6227 -1.1249
  532SOL    HW2 1596   1.837   0.916   0.586  0.3328  0.6285 -1.9747
  533SOL     OW 1597   0.489   0.703   2.232  0.8087 -0.1076  0.5055
  533SOL    HW1 1598   0.395   0.661   2.236  0.7440 -0.8679  0.1025
  533SOL    HW2 1599   0.548   0.660   2.302  1.1814  2.8036 -0.1137
  534SOL     OW 1600   1.551   0.069   2.774 -0.6995 -0.8035 -0.1764
  534SOL    HW1 1601   1.562   0.152   2.830  0.3259 -2.5688 -2.0636
  534SOL    HW2 1602   1.450   0.054   2.767  0.4407 -0.6180  0.5173
  535SOL     OW 1603   0.775   0.174   0.355  0.0364 -0.4109 -0.0776
  535SOL    HW1 1604   0.840   0.143   0.427 -1.0730  2.2708  0.6181
  535SOL    HW2 1605   0.710   0.101   0.337  4.5579 -0.2336 -0.2930
  536SOL     OW 1606   1.102   0.074   1.055 -0.0430 -0.0663 -0.2474
  536SOL    HW1 1607   1.203   0.085   1.058  1.2440  0.5349 -1.3996
  536SOL    HW2 1608   1.070   0.041   0.967 -1.5997  0.9755 -3.1671
  537SOL     OW 1609   1.385   2.992   2.006 -0.6880 -0.4822 -0.2208
  537SOL    HW1 1610   1.371   2.961   2.101  0.5812  1.6706 -0.0588
  537SOL    HW2 1611   1.484   2.984   1.985 -1.5703 -1.3580  2.7121
  538SOL     OW 1612   0.349   2.777   2.960 -0.1254  0.0943 -0.6208
  538SOL    HW1 1613   0.362   2.681   2.932 -0.0638  2.0596  0.8153
  538SOL    HW2 1614   0.367   2.850   2.888 -2.3298 -0.0537  0.3151
  539SOL     OW 1615   2.954   1.601   1.751 -0.8790 -0.7392 -0.5817
  539SOL    HW1 1616   2.971   1.670   1.675  0.9459 -2.2615 -1.1152
  539SOL    HW2 1617   2.976   1.640   1.844  1.1911  2.8989  0.5551
  540SOL     OW 1618   2.493   2.585   2.330  0.4089 -0.8922 -0.0478
  540SOL    HW1 1619   2.415   2.605   2.268 -3.3019 -0.2886 -0.1664
  540SOL    HW2 1620   2.538   2.496   2.301  0.0806  2.0765  1.6066
  541SOL     OW 1621   0.206   2.892   1.595 -0.1024  0.2259  0.2981
  541SOL    HW1 1622   0.224   2.940   1.679 -0.4510  0.0218 -0.1360
  541SOL    HW2 1623   0.256   2.938   1.524  1.3161  0.1145 -1.2307
  542SOL     OW 1624   3.012   0.513   2.072 -0.2052  0.2595 -0.2784
  542SOL    HW1 1625   3.065   0.592   2.032 -1.6964  1.2228 -1.6114
  542SOL    HW2 1626   3.012   0.437   2.003 -1.1658 -2.0915 -3.4730
  543SOL     OW 1627   0.746   0.409   0.942 -0.3818  0.2237 -0.4178
  543SOL    HW1 1628   0.841   0.406   0.976  0.0113  0.1777  2.1075
  543SOL    HW2 1629   0.719   0.509   0.935 -1.1668  1.7107 -1.8993
  544SOL     OW 1630   2.210   2.197   1.459 -0.4923  0.2795  0.7411
  544SOL    HW1 1631   2.173   2.104   1.426 -0.2269 -2.6654  1.6721
  544SOL    HW2 1632   2.136   2.267   1.453 -0.1399  1.3832 -0.6606
  545SOL     OW 1633   1.223   1.650   0.891 -0.1239 -0.5357 -0.2059
  545SOL    HW1 1634   1.308   1.604   0.927  2.8766 -2.4021 -0.1335
  545SOL    HW2 1635   1.151   1.652   0.965  0.6374 -0.7050 -3.5253
  546SOL     OW 1636   2.888   0.447   2.304  0.1098 -0.3244 -0.0969
  546SOL    HW1 1637   2.893   0.348   2.322  0.3807  1.4995 -0.8655
  546SOL    HW2 1638   2.954   0.480   2.238  0.6093 -1.1045  3.7374
  547SOL     OW 1639   2.914   0.406   2.999 -0.6026  0.0446 -0.0179
  547SOL    HW1 1640   2.871   0.313   2.986  1.7349 -0.6809 -0.2993
  547SOL    HW2 1641   3.015   0.411   2.973  1.9085  3.1126  0.9085
  548SOL     OW 1642   2.437   1.953   2.691 -0.1507 -0.4216  0.0162
  548SOL    HW1 1643   2.533   1.949   2.725 -2.4189 -0.8973 -0.3307
  548SOL    HW2 1644   2.424   2.026   2.618 -0.6058 -2.2333  0.1783
  549SOL     OW 1645   2.175   0.575   0.879  0.2989  0.2651 -0.6211
  549SOL    HW1 1646   2.093   0.623   0.840 -2.0983  0.3461 -0.2392
  549SOL    HW2 1647   2.249   0.645   0.899 -2.3414  0.6817 -0.6471
  550SOL     OW 1648   2.534   1.432   0.367  0.0287 -0.3138 -0.2072
  550SOL    HW1 1649   2.467   1.360   0.382  3.0740  1.1993 -1.8260
  550SOL    HW2 1650   2.620   1.396   0.339  0.9332 -0.2088  0.7631
  551SOL     OW 1651   1.406   2.682   1.405 -0.6112 -0.3761 -0.2566
  551SOL    HW1 1652   1.384   2.672   1.306 -2.6213 -0.6397 -0.6146
  551SOL    HW2 1653   1.318   2.694   1.455  1.6229  0.3003  0.8773
  552SOL     OW 1654   2.417   2.426   2.542 -0.1996 -0.2166 -0.7135
  552SOL    HW1 1655   2.437   2.484   2.460 -0.6586  2.1321  1.4193
  552SOL    HW2 1656   2.384   2.470   2.626  0.0802  1.6269  0.8399
  553SOL     OW 1657   0.773   2.962   0.607  0.2903  0.6170  0.6388
  553SOL    HW1 1658   0.781   3.037   0.670 -0.8680 -1.5143 -2.6567
  553SOL    HW2 1659   0.676   2.937   0.590  0.2215 -0.2577 -1.2225
  554SOL     OW 1660   1.869   2.485   1.818  0.4810 -0.1898  0.2528
  554SOL    HW1 1661   1.771   2.458   1.796  0.6298  0.6386 -1.0523
  554SOL    HW2 1662   1.911   2.442   1.900 -0.7204  1.5383 -1.5447
  555SOL     OW 1663   1.572   2.399   2.205  0.2591  0.1682 -0.6416
  555SOL    HW1 1664   1.646   2.362   2.149 -1.6317  1.5026  0.3067
  555SOL    HW2 1665   1.530   2.483   2.162  0.8033  1.8453 -1.1652
  556SOL     OW 1666   1.514   0.653   0.708 -0.5464 -0.2670 -0.2717
  556SOL    HW1 1667   1.525   0.582   0.777  0.2059  1.4751 -1.4705
  556SOL    HW2 1668   1.414   0.661   0.678 -1.4744 -0.8836  0.0506
  557SOL     OW 1669   1.031   2.318   1.529  0.4480 -0.5642 -0.4843
  557SOL    HW1 1670   0.979   2.378   1.593 -0.8009  0.4463 -1.5298
  557SOL    HW2 1671   1.127   2.351   1.532 -0.3088  0.7968  2.7782
  558SOL     OW 1672   2.935   1.339   2.306 -0.2902  0.1670 -0.1743
  558SOL    HW1 1673   2.875   1.391   2.364 -0.2407 -1.7599 -4.0625
  558SOL    HW2 1674   3.024   1.333   2.354 -2.2765  0.9580  2.5689
  559SOL     OW 1675   2.211   2.632   2.203 -0.1637 -0.2816 -0.2461
  559SOL    HW1 1676   2.251   2.591   2.118  0.6866 -2.1427 -0.1664
  559SOL    HW2 1677   2.162   2.719   2.183  2.8495 -1.0738 -1.4795
  560SOL     OW 1678   0.387   0.146   2.630  0.1845 -0.2211 -0.0896
  560SOL    HW1 1679   0.404   0.129   2.533  2.3351 -1.2669  1.6217
  560SOL    HW2 1680   0.396   0.059   2.681 -0.2211  1.0660 -0.9486
  561SOL     OW 1681   1.244   0.791   0.333  0.2124 -0.2337 -0.0966
  561SOL    HW1 1682   1.309   0.857   0.295  0.0981  0.9419  2.5169
  561SOL    HW2 1683   1.233   0.721   0.262 -0.0315 -1.1740 -2.0632
  562SOL     OW 1684   0.822   1.229   1.640  0.7087 -0.5439  0.0359
  562SOL    HW1 1685   0.795   1.250   1.544  0.0165  0.1674  1.6954
  562SOL    HW2 1686   0.781   1.144   1.681 -0.8482  0.2874 -1.9850
  563SOL     OW 1687   2.020   2.034   0.171 -0.7873 -0.0595 -0.0176
  563SOL    HW1 1688   2.068   1.953   0.126  0.4865  0.5511 -0.9961
  563SOL    HW2 1689   2.023   2.030   0.272 -1.1876  0.4977 -0.5352
  564SOL     OW 1690   2.964   2.220   0.560  0.1186 -0.2143  0.2659
  564SOL    HW1 1691   2.920   2.143   0.606 -1.0130  3.5319 -3.3180
  564SOL    HW2 1692   3.020   2.182   0.485  1.5959  0.1207  1.3490
  565SOL     OW 1693   0.287   3.004   2.780  0.0473  0.1486 -0.0116
  565SOL    HW1 1694   0.293   3.077   2.849  0.8156 -2.2374  0.2298
  565SOL    HW2 1695   0.374   2.988   2.727 -0.6333 -2.5248  1.5184
  566SOL     OW 1696   1.236   2.633   2.868  0.2506 -0.1462  0.0018
  566SOL    HW1 1697   1.144   2.649   2.824 -2.0921 -0.0303  0.5963
  566SOL    HW2 1698   1.280   2.727   2.877  1.5141  1.8485  1.5227
  567SOL     OW 1699   2.073   1.974   1.419 -0.2546 -0.2062  0.4070
  567SOL    HW1 1700   2.126   1.892   1.392  0.8142  1.1604 -0.0026
  567SOL    HW2 1701   1.972   1.959   1.409 -2.1292 -0.5888  0.8046
  568SOL     OW 1702   1.845   0.890   2.839 -0.1625 -0.1493  0.2193
  568SOL    HW1 1703   1.886   0.796   2.853 -0.4903 -0.9076  2.7154
  568SOL    HW2 1704   1.896   0.958   2.892  1.0246  2.7430 -0.8136
  569SOL     OW 1705   2.134   2.082   2.138 -0.5205  0.4119  0.0333
  569SOL    HW1 1706   2.210   2.019   2.155  1.8260  0.6647  0.1594
  569SOL    HW2 1707   2.155   2.179   2.167 -0.6396 -0.3403 -1.3841
  570SOL     OW 1708   2.771   2.845   1.767  0.1185  0.0076  0.0854
  570SOL    HW1 1709   2.813   2.929   1.732 -1.3627 -0.3005  0.7314
  570SOL    HW2 1710   2.843   2.782   1.800  0.6823  2.6865 -0.0124
  571SOL     OW 1711   0.087   0.783   1.405 -0.4715  0.0217 -0.4903
  571SOL    HW1 1712   0.158   0.789   1.340 -0.3704 -1.8609  3.2768
  571SOL    HW2 1713   3.118   0.816   1.374 -1.1807  1.3327  0.3974
  572SOL     OW 1714   0.029   1.545   1.070  0.2180 -0.3801 -0.1181
  572SOL    HW1 1715   3.070   1.604   1.060 -2.2627 -2.9672  0.6364
  572SOL    HW2 1716   0.025   1.468   1.000  0.9162 -0.6763 -0.8825
  573SOL     OW 1717   0.913   0.789   0.229 -0.2108  0.3175  0.3441
  573SOL    HW1 1718   0.818   0.794   0.186  0.3390  2.1096 -0.0959
  573SOL    HW2 1719   0.961   0.880   0.234 -0.4568 -0.3376  3.8677
  574SOL     OW 1720   0.498   0.228   0.291  0.4175  0.0043 -0.6484
  574SOL    HW1 1721   0.570   0.294   0.313 -2.4511 -0.5564  2.7150
  574SOL    HW2 1722   0.465   0.179   0.379 -1.8802 -1.1696 -0.0022
  575SOL     OW 1723   0.872   2.290   0.873  0.3232 -0.5943 -0.4422
  575SOL    HW1 1724   0.886   2.275   0.777 -1.3671 -1.9114  1.9791
  575SOL    HW2 1725   0.910   2.218   0.931 -0.0153  2.3368 -0.9516
  576SOL     OW 1726   3.051   2.846   1.199  0.2966 -0.1255  0.5180
  576SOL    HW1 1727   2.962   2.819   1.152  1.0035 -1.7222 -0.0439
  576SOL    HW2 1728   3.031   2.851   1.301 -0.2806 -1.9874  1.4494
  577SOL     OW 1729   2.772   1.874   2.052  0.0920 -0.2966 -0.3553
  577SOL    HW1 1730   2.715   1.952   2.085  1.6196 -0.5960  1.9409
  577SOL    HW2 1731   2.791   1.879   1.953  0.3489 -2.7344  0.2819
  578SOL     OW 1732   1.163   0.168   2.895  0.7056  0.3732 -0.4766
  578SOL    HW1 1733   1.197   0.121   2.813  1.6996  0.7433 -1.2654
  578SOL    HW2 1734   1.153   0.098   2.968 -0.7852  0.5327  1.2729
  579SOL     OW 1735   1.952   1.884   2.175  0.1055  0.2603 -0.2779
  579SOL    HW1 1736   2.032   1.952   2.163 -1.2933  1.1200  1.9892
  579SOL    HW2 1737   1.903   1.877   2.087 -1.4494 -3.1299  2.6043
  580SOL     OW 1738   1.798   0.764   2.289 -0.2019  0.1232  0.2150
  580SOL    HW1 1739   1.839   0.720   2.211  0.0616 -2.1720  0.7874
  580SOL    HW2 1740   1.798   0.698   2.372 -2.7640 -1.2220 -1.5637
  581SOL     OW 1741   0.932   1.302   2.053  0.9921 -0.0501  0.3856
  581SOL    HW1 1742   0.968   1.386   2.096 -0.0722 -0.5805  0.9536
  581SOL    HW2 1743   0.914   1.227   2.122 -2.0163 -0.7979 -0.7406
  582SOL     OW 1744   0.038   2.730   1.760  0.7912  0.1339 -0.5138
  582SOL    HW1 1745   0.120   2.752   1.709 -1.5380 -1.9697  1.6252
  582SOL    HW2 1746   0.012   2.811   1.812  2.1834 -1.2340  2.8852
  583SOL     OW 1747   1.538   1.273   1.432  0.2569 -0.0587 -0.6194
  583SOL    HW1 1748   1.556   1.268   1.330 -0.2784  1.1678  0.3619
  583SOL    HW2 1749   1.529   1.368   1.463 -2.3104  1.6182  0.4113
  584SOL     OW 1750   1.265   1.955   2.553  0.1278 -0.3905  0.1604
  584SOL    HW1 1751   1.304   1.899   2.481 -1.6457  3.8246 -0.9218
  584SOL    HW2 1752   1.338   2.011   2.602  1.0366 -2.1932  1.0327
  585SOL     OW 1753   0.244   2.501   0.195  0.2186  0.1273  0.8498
  585SOL    HW1 1754   0.187   2.542   0.124 -0.2048  3.8436  0.9179
  585SOL    HW2 1755   0.194   2.433   0.257  0.4098  0.4468  0.0501
  586SOL     OW 1756   1.993   1.816   0.647 -0.4445  0.1245 -0.5053
  586SOL    HW1 1757   1.958   1.721   0.634 -0.1058  3.6920 -2.0463
  586SOL    HW2 1758   2.015   1.825   0.746 -2.7926  0.0803  1.0563
  587SOL     OW 1759   2.853   2.016   0.705 -0.7192  0.0914  0.3739
  587SOL    HW1 1760   2.896   1.925   0.721  1.0751  1.3081  1.3739
  587SOL    HW2 1761   2.778   2.004   0.642  0.4169 -0.8818 -3.6491
  588SOL     OW 1762   2.346   0.322   1.137  0.3259 -0.3806  0.4280
  588SOL    HW1 1763   2.345   0.245   1.206 -1.3778 -0.7902 -0.8704
  588SOL    HW2 1764   2.248   0.336   1.113 -0.2259  2.1852 -0.1009
  589SOL     OW 1765   0.970   0.681   0.842 -0.1167  0.9324 -0.1576
  589SOL    HW1 1766   1.066   0.708   0.832 -1.4655  2.5147 -0.1904
  589SOL    HW2 1767   0.959   0.601   0.913 -2.0000 -0.2790  0.9694
  590SOL     OW 1768   2.492   2.325   0.111 -0.4008 -0.0598  0.1388
  590SOL    HW1 1769   2.403   2.307   0.063  0.1332 -0.6538  1.1397
  590SOL    HW2 1770   2.573   2.298   0.051 -0.3564 -3.7619  0.4889
  591SOL     OW 1771   0.728   2.334   1.831 -0.5346 -0.2779 -0.5267
  591SOL    HW1 1772   0.718   2.233   1.848  0.4115 -0.6522 -0.4628
  591SOL    HW2 1773   0.674   2.366   1.751 -0.3387  0.6574  1.6068
  592SOL     OW 1774   0.765   1.319   1.378  0.3404  0.0323  0.0767
  592SOL    HW1 1775   0.827   1.394   1.414  0.2019 -0.5653 -0.5772
  592SOL    HW2 1776   0.811   1.284   1.292  2.3429  0.6636 -0.6658
  593SOL     OW 1777   0.942   2.082   1.035  0.3940  0.0786 -0.0190
  593SOL    HW1 1778   0.917   1.996   0.982 -0.3207 -0.7190 -3.6982
  593SOL    HW2 1779   1.034   2.080   1.085  1.3298  1.3130 -0.2875
  594SOL     OW 1780   0.835   1.162   2.513  0.2685 -0.0777 -0.4032
  594SOL    HW1 1781   0.883   1.105   2.585  0.4208  0.8557 -2.4519
  594SOL    HW2 1782   0.832   1.264   2.541 -0.2118 -2.4881 -1.3307
  595SOL     OW 1783   1.430   0.474   0.942 -0.1924  0.6954  0.1225
  595SOL    HW1 1784   1.501   0.508   1.006  1.0624 -0.9070  1.2196
  595SOL    HW2 1785   1.337   0.496   0.972 -0.9875  0.1212 -1.4827
  596SOL     OW 1786   0.233   1.078   0.916  0.1037  0.3480 -0.2972
  596SOL    HW1 1787   0.319   1.071   0.862 -0.2260 -0.8394  0.1834
  596SOL    HW2 1788   0.167   1.026   0.869  2.0075  3.2683  2.6583
  597SOL     OW 1789   0.166   2.040   2.877 -0.2504 -0.5183  0.1634
  597SOL    HW1 1790   0.068   2.040   2.847 -0.1255 -3.1739  1.1667
  597SOL    HW2 1791   0.170   2.075   2.971  0.4381  0.4582  2.5818
  598SOL     OW 1792   2.094   2.125   2.655  0.5433  0.2860  0.3648
  598SOL    HW1 1793   2.025   2.179   2.602 -1.8219 -0.0746 -1.1583
  598SOL    HW2 1794   2.070   2.119   2.753  2.7118  0.0353 -1.9413
  599SOL     OW 1795   1.587   0.553   0.411  0.1641 -0.5960 -0.1180
  599SOL    HW1 1796   1.538   0.493   0.345 -1.6964 -0.7546 -2.2117
  599SOL    HW2 1797   1.527   0.577   0.489 -0.4032  0.7846 -0.2958
  600SOL     OW 1798   1.025   0.024   0.478 -0.0628 -0.1355  0.2881
  600SOL    HW1 1799   0.965   3.065   0.491  0.4143 -0.3107 -0.8484
  600SOL    HW2 1800   1.106   0.013   0.535 -1.8975 -0.9577  0.1931
  601SOL     OW 1801   0.508   0.299   1.286  0.4396 -0.8904  0.2682
  601SOL    HW1 1802   0.491   0.376   1.223  1.8322 -1.4683 -0.2635
  601SOL    HW2 1803   0.608   0.300   1.311 -0.6017 -1.2166  0.7822
  602SOL     OW 1804   0.180   3.016   0.880 -0.4708 -0.6123  0.2033
  602SOL    HW1 1805   0.132   2.934   0.920  1.6383 -0.4860  2.7354
  602SOL    HW2 1806   0.117   3.094   0.882  2.5712  0.2963 -1.5806
  603SOL     OW 1807   0.814   2.673   2.524 -0.1478  0.5309  0.1415
  603SOL    HW1 1808   0.782   2.740   2.455 -2.1310 -2.5127  0.9317
  603SOL    HW2 1809   0.749   2.672   2.601  3.3850  2.5518 -2.5528
  604SOL     OW 1810   0.925   2.683   2.996  0.1159  0.3798  0.1621
  604SOL    HW1 1811   0.926   2.602   3.054 -2.3527  1.4713 -2.7260
  604SOL    HW2 1812   0.958   2.658   2.904 -2.2037  1.2697 -0.3560
  605SOL     OW 1813   1.033   0.995   1.471 -0.0747  0.1882 -0.3448
  605SOL    HW1 1814   1.120   0.956   1.502 -2.3394 -1.4107 -0.0666
  605SOL    HW2 1815   1.029   1.096   1.489 -0.4531 -1.9573  1.3348
  606SOL     OW 1816   1.422   0.442   2.669 -0.7770  0.0118 -0.0503
  606SOL    HW1 1817   1.411   0.428   2.772  2.7897 -0.0404 -1.1242
  606SOL    HW2 1818   1.339   0.477   2.634  1.8761  1.0531  1.5357
  607SOL     OW 1819   0.120   1.144   1.170 -0.1236 -0.1504 -0.4549
  607SOL    HW1 1820   0.175   1.130   1.251 -2.9254  0.7278 -0.9826
  607SOL    HW2 1821   0.168   1.115   1.082  1.9784 -0.1996 -3.6736
  608SOL     OW 1822   2.974   2.279   2.258 -0.2148  0.0979  0.1149
  608SOL    HW1 1823   2.968   2.348   2.182 -2.2362  1.3032 -0.8374
  608SOL    HW2 1824   3.048   2.296   2.327  0.8266 -1.0428 -0.8917
  609SOL     OW 1825   1.957   0.296   0.190 -0.2181  0.4228  0.1927
  609SOL    HW1 1826   2.047   0.285   0.143  1.3210 -0.6366 -1.3369
  609SOL    HW2 1827   1.899   0.360   0.132  0.0279  0.3289  0.4627
  610SOL     OW 1828   0.984   2.777   0.973  0.2561  0.1936 -0.2967
  610SOL    HW1 1829   1.038   2.848   0.922  3.3583  0.0447 -1.7727
  610SOL    HW2 1830   1.034   2.728   1.045 -1.7178  0.9367 -3.7281
  611SOL     OW 1831   0.593   1.368   0.491  0.0681 -0.3421  0.8848
  611SOL    HW1 1832   0.620   1.397   0.392  0.5292 -0.5805 -3.6370
  611SOL    HW2 1833   0.493   1.348   0.488 -0.2388 -2.4613 -2.4527
  612SOL     OW 1834   0.919   0.354   2.425 -0.1153 -0.2919  0.4120
  612SOL    HW1 1835   0.849   0.419   2.449  1.4423  1.3978 -0.2084
  612SOL    HW2 1836   1.010   0.376   2.462  0.1660 -0.6408 -0.5168
  613SOL     OW 1837   2.335   1.230   0.446 -1.0265  0.4357 -0.1416
  613SOL    HW1 1838   2.278   1.222   0.530  0.7353  1.3472  2.4636
  613SOL    HW2 1839   2.286   1.192   0.366  1.5357  1.1998  0.7622
  614SOL     OW 1840   1.715   0.555   1.808  0.0057 -0.1043  0.3473
  614SOL    HW1 1841   1.741   0.560   1.905 -0.2591 -1.0321  0.8320
  614SOL    HW2 1842   1.741   0.650   1.765  4.0112  1.2648 -0.5172
  615SOL     OW 1843   0.550   2.018   1.108  0.3649  0.1678  0.6665
  615SOL    HW1 1844   0.492   1.974   1.036  2.9190  0.5608 -1.1790
  615SOL    HW2 1845   0.597   2.099   1.073 -1.2695 -2.0663 -0.5890
  616SOL     OW 1846   1.562   1.005   2.513 -0.3316 -1.0315 -0.2128
  616SOL    HW1 1847   1.529   1.051   2.428 -1.6590 -1.5984 -0.4378
  616SOL    HW2 1848   1.480   0.979   2.571  0.2882  0.0771  1.7393
  617SOL     OW 1849   1.901   2.664   0.341 -0.1888 -0.2559 -0.5092
  617SOL    HW1 1850   1.815   2.708   0.365  1.1547 -2.7088 -0.3398
  617SOL    HW2 1851   1.885   2.571   0.298  0.1289 -3.4569  1.2245
  618SOL     OW 1852   0.765   1.031   2.935  0.7948 -0.0666  0.5358
  618SOL    HW1 1853   0.747   1.134   2.925  1.7085  1.8925  0.9171
  618SOL    HW2 1854   0.851   1.018   2.986  1.0070 -0.0120 -0.7255
  619SOL     OW 1855   2.634   1.483   0.635  0.6689 -0.5971 -0.1382
  619SOL    HW1 1856   2.644   1.381   0.628  2.0786 -2.0767  0.6557
  619SOL    HW2 1857   2.566   1.507   0.562  1.6790 -1.6508 -1.2487
  620SOL     OW 1858   2.572   2.897   2.925 -0.4590 -0.6021 -0.1334
  620SOL    HW1 1859   2.480   2.854   2.931  0.9492 -1.0970  2.6404
  620SOL    HW2 1860   2.628   2.856   2.853 -0.7802  0.6413 -0.3064
  621SOL     OW 1861   2.199   1.154   0.219  0.5322 -0.1081 -0.0491
  621SOL    HW1 1862   2.137   1.076   0.207  1.6377 -0.0097  0.4792
  621SOL    HW2 1863   2.157   1.240   0.180  1.4826  1.0075 -0.9662
  622SOL     OW 1864   1.055   2.087   2.400  0.3687  0.0031  0.4559
  622SOL    HW1 1865   1.060   2.022   2.321 -0.7615  0.9881 -2.3864
  622SOL    HW2 1866   1.136   2.074   2.463 -2.5444 -0.1125  3.0934
  623SOL     OW 1867   0.491   1.763   3.011  0.4769  0.3460  0.0292
  623SOL    HW1 1868   0.392   1.782   2.995  1.4077  1.4203  1.3489
  623SOL    HW2 1869   0.537   1.851   3.043  0.9835  0.2630  0.1619
  624SOL     OW 1870   0.317   0.063   2.965  0.4061 -0.5886  0.6262
  624SOL    HW1 1871   0.409   0.072   3.010 -0.7474 -1.0313 -1.5140
  624SOL    HW2 1872   0.236   0.054   3.025  1.3646 -1.4897 -1.6949
  625SOL     OW 1873   0.790   2.074   0.213  0.2290 -0.4973  0.5108
  625SOL    HW1 1874   0.772   2.120   0.124  0.0003 -0.3903 -1.1036
  625SOL    HW2 1875   0.704   2.053   0.264  1.3565 -0.1971  3.2405
  626SOL     OW 1876   2.486   0.341   0.149  0.0279 -0.1391  0.5509
  626SOL    HW1 1877   2.538   0.260   0.185  1.4383 -1.0716  0.5807
  626SOL    HW2 1878   2.494   0.419   0.215 -2.1499 -2.2764 -0.5111
  627SOL     OW 1879   1.319   0.956   2.633  0.1480 -0.4673  0.5048
  627SOL    HW1 1880   1.270   1.041   2.610 -1.7660 -1.6072 -1.3412
  627SOL    HW2 1881   1.311   0.929   2.732 -0.4683  0.4897 -1.8054
  628SOL     OW 1882   1.125   0.467   2.559  0.6968 -0.0538 -0.3227
  628SOL    HW1 1883   1.069   0.446   2.642 -0.9286  1.0140 -0.6071
  628SOL    HW2 1884   1.163   0.561   2.560  1.2853 -1.4070  1.3787
  629SOL     OW 1885   0.241   3.081   1.827  0.2165 -0.4911 -1.0896
  629SOL    HW1 1886   0.284   3.063   1.923  0.1224 -0.6580  1.4577
  629SOL    HW2 1887   0.290   0.036   1.782  0.8150  2.0762 -0.3555
  630SOL     OW 1888   2.474   0.932   1.855 -0.9394 -0.4752  0.4722
  630SOL    HW1 1889   2.386   0.947   1.906  2.0598 -0.1845  2.0161
  630SOL    HW2 1890   2.484   0.839   1.821  0.1870  2.2051 -0.9609
  631SOL     OW 1891   2.231   1.225   0.686 -0.0042 -0.6257  0.3147
  631SOL    HW1 1892   2.274   1.302   0.731 -1.7728 -1.4835 -0.1740
  631SOL    HW2 1893   2.215   1.153   0.754  2.4541  0.5007 -1.4888
  632SOL     OW 1894   2.400   0.451   1.754  0.3570  0.0284  0.4034
  632SOL    HW1 1895   2.471   0.381   1.775 -2.1522 -2.7123 -1.2919
  632SOL    HW2 1896   2.339   0.417   1.681  0.3563  0.4106 -0.4466
  633SOL     OW 1897   0.942   2.810   0.130 -0.0929  0.1481 -0.0196
  633SOL    HW1 1898   0.953   2.748   0.048  2.2303 -1.2768  0.2776
  633SOL    HW2 1899   0.865   2.777   0.187 -4.1403 -0.6254 -1.2382
  634SOL     OW 1900   1.546   2.933   3.067  0.5875 -0.1437  0.0755
  634SOL    HW1 1901   1.503   2.909   0.035  0.1206  2.2966 -1.4139
  634SOL    HW2 1902   1.624   2.868   3.048  0.4181  0.7236  1.5291
  635SOL     OW 1903   2.808   0.422   0.315 -0.6177 -0.0241 -0.2889
  635SOL    HW1 1904   2.826   0.481   0.233 -0.5322  2.7365  1.0693
  635SOL    HW2 1905   2.728   0.459   0.364  3.3680 -2.3616  0.3875
  636SOL     OW 1906   0.513   1.627   0.821 -0.0125  0.3707  0.5053
  636SOL    HW1 1907   0.587   1.686   0.781  2.2534 -0.1632  0.0969
  636SOL    HW2 1908   0.541   1.527   0.818 -1.0132  1.0672  1.3064
  637SOL     OW 1909   0.410   2.687   0.348  0.1748  0.1839 -0.5417
  637SOL    HW1 1910   0.422   2.651   0.254  0.4381 -1.5541  1.5444
  637SOL    HW2 1911   0.317   2.666   0.384  1.0443  1.8737  0.5019
  638SOL     OW 1912   3.031   2.672   0.407  0.7290  0.5101 -0.3540
  638SOL    HW1 1913   3.020   2.718   0.318  1.2019 -0.8705  1.8068
  638SOL    HW2 1914   0.006   2.680   0.433 -1.8981 -1.0771  1.6923
  639SOL     OW 1915   1.189   1.338   0.481 -0.0295 -0.2452 -0.3051
  639SOL    HW1 1916   1.110   1.352   0.418  0.3666 -1.7838 -0.3635
  639SOL    HW2 1917   1.210   1.421   0.537 -0.6130  0.3909 -0.7643
  640SOL     OW 1918   1.365   2.359   1.054 -0.2684  0.2180  0.4873
  640SOL    HW1 1919   1.452   2.389   1.099  1.1895  1.0608 -1.1058
  640SOL    HW2 1920   1.374   2.345   0.954  1.1840  2.3060  1.2827
  641SOL     OW 1921   2.942   2.624   0.815 -0.3930  0.2260  0.1397
  641SOL    HW1 1922   2.963   2.528   0.798 -0.2054  0.8474  1.2937
  641SOL    HW2 1923   2.854   2.631   0.864 -0.1477  2.7696  0.3425
  642SOL     OW 1924   0.816   3.092   1.922 -0.0565 -0.1282 -0.5691
  642SOL    HW1 1925   0.874   0.005   1.997  0.4225  1.4356 -0.6812
  642SOL    HW2 1926   0.830   0.021   1.837 -2.8243 -2.2815  0.4143
  643SOL     OW 1927   0.834   2.247   2.454 -0.3486  0.4946 -0.9143
  643SOL    HW1 1928   0.908   2.185   2.424 -2.2721  1.9173 -1.1342
  643SOL    HW2 1929   0.789   2.200   2.535  0.3011  2.3447 -0.7129
  644SOL     OW 1930   0.960   2.721   0.554  0.3750  0.1182 -0.3090
  644SOL    HW1 1931   0.923   2.646   0.613  0.7545  2.1223  1.1728
  644SOL    HW2 1932   0.894   2.793   0.543  2.5225 -1.4099  0.8893
  645SOL     OW 1933   1.408   1.441   1.866  0.0995  0.0318 -0.5613
  645SOL    HW1 1934   1.325   1.474   1.810  1.0604  0.1062 -3.3892
  645SOL    HW2 1935   1.395   1.344   1.903 -1.9992  0.6093  2.4518
  646SOL     OW 1936   0.452   1.162   0.216  0.3398 -0.1780 -0.3471
  646SOL    HW1 1937   0.354   1.134   0.201 -0.7815 -1.4039  1.0552
  646SOL    HW2 1938   0.485   1.128   0.307 -0.0091 -0.6191  1.8972
  647SOL     OW 1939   1.532   0.150   0.691  0.2822 -0.2795 -0.0174
  647SOL    HW1 1940   1.588   0.068   0.719 -0.1328  1.1887  1.4592
  647SOL    HW2 1941   1.598   0.229   0.679 -1.6021 -2.1452 -0.5895
  648SOL     OW 1942   2.542   2.664   1.468  0.2618  0.6920 -0.0277
  648SOL    HW1 1943   2.549   2.636   1.567  0.1315  0.5957  1.9261
  648SOL    HW2 1944   2.612   2.602   1.422  1.6658  1.2291  0.0667
  649SOL     OW 1945   0.801   2.184   3.085  0.6340  0.3419 -0.2740
  649SOL    HW1 1946   0.862   2.139   3.012 -1.4259 -0.5608 -0.6157
  649SOL    HW2 1947   0.816   2.281   3.082 -0.3513 -0.5634  1.9786
  650SOL     OW 1948   2.982   2.167   1.515 -0.2548  0.4637  0.3736
  650SOL    HW1 1949   2.999   2.264   1.495 -0.4427 -2.3760 -0.8521
  650SOL    HW2 1950   2.886   2.138   1.494  0.1015 -0.0510 -0.5912
  651SOL     OW 1951   0.071   0.020   3.091 -0.6191  0.5692  0.0868
  651SOL    HW1 1952   3.122   3.084   3.043 -0.2470 -1.1999 -1.9597
  651SOL    HW2 1953   0.031   0.105   0.001  3.7790 -2.0908  1.4015
  652SOL     OW 1954   2.415   1.919   0.025 -0.0607 -0.4220  0.3542
  652SOL    HW1 1955   2.348   1.970   3.089 -1.8403  0.8483 -0.7473
  652SOL    HW2 1956   2.408   1.935   0.121  1.7180  3.3149 -7.7279
  653SOL     OW 1957   0.252   0.306   0.927 -0.0300  0.3984  0.1507
  653SOL    HW1 1958   0.185   0.360   0.978  1.2900 -2.2530  0.9356
  653SOL    HW2 1959   0.294   0.232   0.980  1.0012  1.8658 -0.5323
  654SOL     OW 1960   1.432   2.878   0.179  0.5636 -0.2991  0.0051
  654SOL    HW1 1961   1.474   2.787   0.198  1.4922  1.3137  0.2546
  654SOL    HW2 1962   1.459   2.951   0.249  2.5515  1.9151 -1.0738
  655SOL     OW 1963   0.740   2.857   1.090 -0.3679 -0.2451 -0.1550
  655SOL    HW1 1964   0.679   2.893   1.018 -1.1446 -2.6964  0.3265
  655SOL    HW2 1965   0.832   2.831   1.051 -1.1920 -0.3050 -0.1025
  656SOL     OW 1966   0.368   0.015   2.098 -0.1680 -1.1262 -0.4077
  656SOL    HW1 1967   0.368   3.037   2.120 -1.1569  3.7188  0.4961
  656SOL    HW2 1968   0.445   0.045   2.039  2.1895 -1.7890 -1.0349
  657SOL     OW 1969   1.822   0.569   2.499  0.0984 -0.3553  0.1097
  657SOL    HW1 1970   1.812   0.468   2.505  0.8971 -0.6156  0.8907
  657SOL    HW2 1971   1.920   0.591   2.523 -1.4425  0.0851  0.9899
  658SOL     OW 1972   2.184   1.724   1.315  0.0755  0.1269 -1.0483
  658SOL    HW1 1973   2.114   1.671   1.371 -0.4405  1.7759 -1.4815
  658SOL    HW2 1974   2.280   1.702   1.349  0.2842 -3.5918 -0.3243
  659SOL     OW 1975   2.853   2.747   3.119  0.2689  0.3820  0.5105
  659SOL    HW1 1976   2.929   2.772   0.061  1.1818  0.0528  0.5735
  659SOL    HW2 1977   2.772   2.738   0.059 -2.4210 -1.0183 -1.3814
  660SOL     OW 1978   1.450   0.691   0.112 -0.0484  0.3583  0.2682
  660SOL    HW1 1979   1.529   0.660   0.052 -0.5771  1.5467 -2.9306
  660SOL    HW2 1980   1.478   0.758   0.180 -0.2068 -0.8174 -2.1529
  661SOL     OW 1981   2.300   2.628   1.038 -0.3461 -0.1209 -0.3422
  661SOL    HW1 1982   2.329   2.693   0.963 -1.3902  0.2731 -0.2242
  661SOL    HW2 1983   2.295   2.536   1.004 -0.7015 -1.8576  0.1420
  662SOL     OW 1984   0.543   0.582   0.655  0.1662  0.3140 -0.3968
  662SOL    HW1 1985   0.559   0.495   0.707  2.4090 -0.4627 -1.6371
  662SOL    HW2 1986   0.506   0.565   0.561 -1.3544  0.6666 -0.6324
  663SOL     OW 1987   1.308   2.396   2.547  0.1195 -0.0518 -0.0159
  663SOL    HW1 1988   1.395   2.441   2.522 -0.4317  1.2283 -1.1586
  663SOL    HW2 1989   1.234   2.466   2.537  0.8413  2.2200 -0.9057
  664SOL     OW 1990   0.643   2.343   1.353  0.1544  0.6226 -0.1102
  664SOL    HW1 1991   0.733   2.319   1.313 -0.4008 -1.2212  1.8932
  664SOL    HW2 1992   0.572   2.360   1.279 -1.9971 -0.4586 -1.3064
  665SOL     OW 1993   1.345   2.083   1.580 -0.0557 -0.2453  0.4268
  665SOL    HW1 1994   1.356   2.047   1.674 -1.8496  1.2440 -0.3924
  665SOL    HW2 1995   1.285   2.020   1.521  0.9233  1.2753 -0.5402
  666SOL     OW 1996   0.537   2.851   0.053 -0.3025  0.0306  0.4082
  666SOL    HW1 1997   0.534   2.953   0.067  0.2711  1.3849 -2.0535
  666SOL    HW2 1998   0.459   2.820   3.115 -1.2240  0.3348  0.0999
  667SOL     OW 1999   1.724   1.840   1.605  0.3780  0.2405  0.4386
  667SOL    HW1 2000   1.785   1.763   1.632  0.2436 -0.2212 -0.2234
  667SOL    HW2 2001   1.727   1.914   1.672 -1.0600  1.3814  0.0917
  668SOL     OW 2002   0.646   0.174   2.410  0.1092  0.0472  0.0812
  668SOL    HW1 2003   0.717   0.204   2.343  0.3995 -3.1824  0.1440
  668SOL    HW2 2004   0.645   0.236   2.489 -1.2902  0.1406  3.3137
  669SOL     OW 2005   2.290   2.497   1.970  0.3326 -0.2837 -0.0173
  669SOL    HW1 2006   2.228   2.510   1.887 -1.0935 -0.4112 -4.4309
  669SOL    HW2 2007   2.380   2.463   1.937  0.2274 -2.3349 -1.4783
  670SOL     OW 2008   2.355   1.852   0.294 -0.1150  0.0471  0.2410
  670SOL    HW1 2009   2.305   1.942   0.290  0.8031 -1.0692  1.4580
  670SOL    HW2 2010   2.311   1.796   0.367  1.2394 -0.5295  1.3579
  671SOL     OW 2011   1.170   1.172   1.220 -0.0714  0.0300  0.6657
  671SOL    HW1 2012   1.258   1.192   1.171 -0.0928 -0.9891 -2.0865
  671SOL    HW2 2013   1.138   1.078   1.201  0.8821  2.7989 -1.0284
  672SOL     OW 2014   2.480   1.535   2.322  0.2619 -0.0911 -0.9904
  672SOL    HW1 2015   2.560   1.579   2.280  0.4820 -1.7134  0.8960
  672SOL    HW2 2016   2.461   1.445   2.287 -1.0275  0.7321  1.4813
  673SOL     OW 2017   2.720   1.638   2.227  0.2789 -0.1083  0.0797
  673SOL    HW1 2018   2.768   1.646   2.317  0.7248 -0.1818 -0.0792
  673SOL    HW2 2019   2.746   1.713   2.163  1.2641  3.6420  2.4160
  674SOL     OW 2020   1.046   2.918   2.441 -0.4241  0.6390  0.1297
  674SOL    HW1 2021   0.968   2.984   2.451 -0.8923 -0.0988  1.6246
  674SOL    HW2 2022   1.040   2.864   2.352  0.0269  1.9808 -0.1605
  675SOL     OW 2023   0.645   0.819   1.301  0.2635 -0.3485 -0.1897
  675SOL    HW1 2024   0.687   0.725   1.291 -0.6304 -2.5586 -0.5971
  675SOL    HW2 2025   0.663   0.857   1.395  1.9583 -2.9214  0.9234
  676SOL     OW 2026   1.913   0.648   0.755 -0.1753 -0.1371 -0.3598
  676SOL    HW1 2027   1.868   0.565   0.794 -2.1651  1.9465  1.9043
  676SOL    HW2 2028   1.933   0.717   0.829 -0.8073  0.4177 -3.0135
  677SOL     OW 2029   2.690   1.594   2.828  0.0344  0.1066 -0.1144
  677SOL    HW1 2030   2.734   1.513   2.864  0.2300  0.2031 -2.6480
  677SOL    HW2 2031   2.632   1.564   2.751 -2.7941  2.8227  0.3721
  678SOL     OW 2032   3.105   3.098   1.127 -0.0570  0.5731  0.6274
  678SOL    HW1 2033   3.095   3.120   1.024  2.1444  1.3499 -1.4690
  678SOL    HW2 2034   3.080   2.999   1.153 -0.5365  0.0126  1.3254
  679SOL     OW 2035   2.259   0.080   0.275  0.2544  0.4313  0.7680
  679SOL    HW1 2036   2.230   0.151   0.209 -2.2523 -1.0549  1.1427
  679SOL    HW2 2037   2.326   0.109   0.336 -0.1642  0.6266 -1.6984
  680SOL     OW 2038   0.423   2.339   2.220 -0.0761 -0.4505  0.5842
  680SOL    HW1 2039   0.500   2.384   2.270 -1.9590 -0.5437  0.4279
  680SOL    HW2 2040   0.460   2.280   2.141  1.9124  0.7783  1.4731
  681SOL     OW 2041   2.813   1.721   1.325  0.7227 -0.8647  0.0829
  681SOL    HW1 2042   2.726   1.777   1.307 -0.2386 -2.0440  1.3561
  681SOL    HW2 2043   2.894   1.780   1.298  2.0522  1.6633  1.0324
  682SOL     OW 2044   0.260   2.119   1.839 -0.1397  0.3402  0.2030
  682SOL    HW1 2045   0.190   2.179   1.804  0.8424  0.2523  2.1942
  682SOL    HW2 2046   0.239   2.086   1.932  1.6800  1.7514 -1.4080
  683SOL     OW 2047   2.784   1.982   1.756  0.1121 -0.2074  0.3423
  683SOL    HW1 2048   2.754   2.019   1.667  0.1174 -2.7814 -0.6907
  683SOL    HW2 2049   2.883   1.957   1.744  0.0766  1.4222 -2.7487
  684SOL     OW 2050   2.521   1.564   2.615  0.2181  0.6198 -0.4986
  684SOL    HW1 2051   2.530   1.555   2.514 -0.7324  1.0108  2.6914
  684SOL    HW2 2052   2.475   1.479   2.651 -0.2884 -3.5827 -0.2455
  685SOL     OW 2053   1.524   1.264   0.272  0.2719 -0.2787 -0.0182
  685SOL    HW1 2054   1.468   1.224   0.349 -1.1579 -1.9858  0.8074
  685SOL    HW2 2055   1.569   1.353   0.299 -0.1325 -1.0930 -0.8504
  686SOL     OW 2056   0.620   0.141   0.754  0.0483  0.2298  0.0387
  686SOL    HW1 2057   0.573   0.234   0.759 -1.2726 -1.1509 -0.8340
  686SOL    HW2 2058   0.552   0.070   0.768  1.3288  0.1529  0.0624
  687SOL     OW 2059   1.397   1.142   2.316 -0.2638  0.2189  0.1986
  687SOL    HW1 2060   1.406   1.232   2.359  3.8454 -1.5595 -1.8735
  687SOL    HW2 2061   1.301   1.126   2.293  2.4114  4.3605  2.4291
  688SOL     OW 2062   1.183   1.932   1.379 -0.4813 -0.3949 -0.4934
  688SOL    HW1 2063   1.210   1.873   1.301 -1.5037 -1.4527  0.4192
  688SOL    HW2 2064   1.109   1.876   1.422  2.3271 -3.8150 -1.0221
  689SOL     OW 2065   1.993   0.371   1.345 -0.1342 -0.8974 -0.0294
  689SOL    HW1 2066   2.028   0.399   1.255 -0.0981 -1.9249  2.9120
  689SOL    HW2 2067   1.923   0.442   1.378  1.2744  0.9557 -0.4056
  690SOL     OW 2068   2.869   1.298   1.114  0.1106  0.2725 -0.3399
  690SOL    HW1 2069   2.916   1.251   1.190  3.0023  0.5473 -3.3774
  690SOL    HW2 2070   2.847   1.231   1.039 -2.0679 -0.2717 -1.7825
  691SOL     OW 2071   0.451   2.344   1.153 -0.3053 -0.0743 -0.4504
  691SOL    HW1 2072   0.521   2.333   1.076 -2.9262  2.7505  0.0956
  691SOL    HW2 2073   0.392   2.263   1.170  2.9785 -0.0091 -2.2236
  692SOL     OW 2074   2.252   0.417   1.526 -0.1478  0.1272  0.0328
  692SOL    HW1 2075   2.182   0.479   1.492  0.4380  2.1439 -1.8836
  692SOL    HW2 2076   2.225   0.323   1.550  3.2236 -0.1232  0.2797
  693SOL     OW 2077   0.051   1.873   1.886  0.4856 -0.3667 -0.1465
  693SOL    HW1 2078   3.106   1.814   1.933  1.0803  0.0449  0.3418
  693SOL    HW2 2079   0.102   1.937   1.948  3.4951  1.9321  0.6312
  694SOL     OW 2080   1.666   1.472   1.775 -0.1472 -0.3536  0.0631
  694SOL    HW1 2081   1.745   1.438   1.831  0.3856  4.1833 -1.5513
  694SOL    HW2 2082   1.577   1.462   1.820 -0.1517 -1.9443 -0.8016
  695SOL     OW 2083   0.698   0.681   0.977 -0.3204  0.1336  0.4022
  695SOL    HW1 2084   0.621   0.744   0.972  1.8616 -0.0935  0.4381
  695SOL    HW2 2085   0.791   0.721   1.000 -0.6158 -2.8450  0.1919
  696SOL     OW 2086   1.690   3.076   0.794 -0.2319 -0.3644  0.3759
  696SOL    HW1 2087   1.760   3.115   0.861 -0.7971 -1.2222  0.9822
  696SOL    HW2 2088   1.670   2.978   0.818  2.6299 -2.8439 -3.1618
  697SOL     OW 2089   1.115   0.387   1.432 -0.2734  0.2268  0.1422
  697SOL    HW1 2090   1.106   0.399   1.532  2.2645  2.8247 -2.5286
  697SOL    HW2 2091   1.080   0.295   1.399  1.9386  1.0810  0.6880
  698SOL     OW 2092   1.668   1.378   2.132  0.2165  0.1806 -0.2782
  698SOL    HW1 2093   1.618   1.288   2.149  0.2340  1.6988 -0.5013
  698SOL    HW2 2094   1.702   1.413   2.220  1.0994 -1.0452 -0.5649
  699SOL     OW 2095   1.850   0.803   1.399  0.0139  0.1251 -0.4904
  699SOL    HW1 2096   1.923   0.751   1.352 -0.1434 -3.8463  0.4138
  699SOL    HW2 2097   1.849   0.899   1.370  0.7015 -2.5245 -0.6687
  700SOL     OW 2098   0.998   2.512   0.066  0.2752  0.2031  0.6008
  700SOL    HW1 2099   0.991   2.535   0.161  2.2879  0.8162 -3.3508
  700SOL    HW2 2100   1.043   2.422   0.054  0.9399  1.2413  0.4957
  701SOL     OW 2101   2.400   2.519   2.808  0.2751  0.0882 -0.1279
  701SOL    HW1 2102   2.416   2.618   2.832  0.8785 -0.4069  1.8233
  701SOL    HW2 2103   2.453   2.458   2.867 -2.8084  1.2571  0.4295
  702SOL     OW 2104   0.767   0.133   1.077  0.0744 -0.5528  0.0165
  702SOL    HW1 2105   0.772   0.225   1.114 -1.0003 -1.7927 -0.6307
  702SOL    HW2 2106   0.841   0.120   1.010  0.2826  1.8392 -1.3910
  703SOL     OW 2107   1.982   0.172   2.309 -0.0696 -0.6332 -0.0685
  703SOL    HW1 2108   2.068   0.180   2.364  0.1115 -0.9903  2.3433
  703SOL    HW2 2109   1.943   0.079   2.303 -0.5817  1.0805 -1.3450
  704SOL     OW 2110   2.876   2.486   0.526  0.1306 -0.2148  0.3202
  704SOL    HW1 2111   2.947   2.544   0.479  2.2105 -1.6202  0.7520
  704SOL    HW2 2112   2.903   2.389   0.521 -1.6163  0.3780  0.6486
  705SOL     OW 2113   2.718   0.077   2.096 -0.2987  0.3045  0.0791
  705SOL    HW1 2114   2.648   0.128   2.144  2.9199 -2.6248  1.5259
  705SOL    HW2 2115   2.736   3.109   2.139  2.3051  0.3938  1.1634
  706SOL     OW 2116   2.180   2.851   1.401  0.4025 -0.0963 -0.3494
  706SOL    HW1 2117   2.183   2.755   1.432 -1.0468  2.6699 -1.5244
  706SOL    HW2 2118   2.088   2.888   1.393  5.2800  0.3270 -0.4389
  707SOL     OW 2119   0.704   2.874   2.378 -0.0135  0.5489 -0.1175
  707SOL    HW1 2120   0.604   2.890   2.373  0.9026 -1.4134 -0.1254
  707SOL    HW2 2121   0.746   2.944   2.432 -3.9116  0.6418  2.6050
  708SOL     OW 2122   3.005   2.263   1.819  0.2683 -0.3502  0.1253
  708SOL    HW1 2123   2.980   2.243   1.722 -0.3221  1.0812 -0.9362
  708SOL    HW2 2124   3.090   2.313   1.822 -2.1263 -1.0811 -0.3853
  709SOL     OW 2125   1.735   0.325   1.694  0.1157 -0.1975  0.0107
  709SOL    HW1 2126   1.744   0.420   1.740  2.1395  6.8286  3.3851
  709SOL    HW2 2127   1.643   0.296   1.660  1.4467  0.7424 -0.0823
  710SOL     OW 2128   1.348   0.378   2.924  0.7370 -0.7028 -0.3299
  710SOL    HW1 2129   1.445   0.347   2.940 -0.1730  0.6691  2.1919
  710SOL    HW2 2130   1.282   0.302   2.899 -1.3337  0.3768  1.1895
  711SOL     OW 2131   0.873   1.683   2.392  0.6218 -0.4908 -0.0293
  711SOL    HW1 2132   0.961   1.695   2.447  0.9983 -0.8712 -0.2556
  711SOL    HW2 2133   0.814   1.765   2.379 -1.6498 -0.4028  0.5711
  712SOL     OW 2134   1.093   1.660   2.575  0.1310  0.4338 -0.2267
  712SOL    HW1 2135   1.192   1.662   2.545  3.0579 -0.2075 -0.2250
  712SOL    HW2 2136   1.068   1.748   2.622 -2.2459  2.0774 -0.9546
  713SOL     OW 2137   1.840   1.001   2.567  0.6057  0.3439 -0.0260
  713SOL    HW1 2138   1.749   0.990   2.520 -0.9068  0.2738 -2.8265
  713SOL    HW2 2139   1.841   0.977   2.665 -0.1233  0.3983 -0.7086
  714SOL     OW 2140   1.027   1.788   1.795  0.2036  0.3444 -0.3810
  714SOL    HW1 2141   0.976   1.737   1.869 -1.6551 -1.0037 -0.2454
  714SOL    HW2 2142   1.059   1.881   1.826 -1.6349  2.7476 -1.3325
  715SOL     OW 2143   2.178   0.399   2.932 -0.0248 -0.4309  0.3381
  715SOL    HW1 2144   2.181   0.353   3.023 -1.8098  0.0371  2.8685
  715SOL    HW2 2145   2.115   0.356   2.865  2.6966  2.1853  2.4334
  716SOL     OW 2146   2.984   2.435   1.440 -0.0470 -0.0616 -0.4196
  716SOL    HW1 2147   2.971   2.512   1.503 -0.1047  0.0385  0.1065
  716SOL    HW2 2148   2.916   2.434   1.364  1.5666  0.5881  0.7858
  717SOL     OW 2149   2.620   1.193   0.693  0.2113  0.4592 -0.3431
  717SOL    HW1 2150   2.543   1.173   0.754  1.7741  1.2731 -0.1428
  717SOL    HW2 2151   2.612   1.147   0.605 -1.0440 -1.9909  1.3240
  718SOL     OW 2152   1.071   2.077   1.894 -0.6823  0.0237  0.2032
  718SOL    HW1 2153   1.093   2.163   1.944  0.7541  1.6623 -2.2710
  718SOL    HW2 2154   0.992   2.027   1.938  1.2174  2.2964 -1.8664
  719SOL     OW 2155   2.423   0.369   2.811 -0.0526 -0.2091  0.1079
  719SOL    HW1 2156   2.330   0.365   2.863 -1.8083  0.6655  1.9360
  719SOL    HW2 2157   2.495   0.419   2.862 -0.7900 -0.0989 -0.3665
  720SOL     OW 2158   1.017   0.438   0.969 -0.1588 -0.0349 -0.0548
  720SOL    HW1 2159   1.073   0.421   1.052  0.3643 -0.0665  1.7815
  720SOL    HW2 2160   1.050   0.381   0.893  0.1158  0.5551  0.7966
  721SOL     OW 2161   2.677   0.842   0.578  0.2341  0.3302 -0.2691
  721SOL    HW1 2162   2.614   0.918   0.554 -0.9175 -1.3870  1.7402
  721SOL    HW2 2163   2.744   0.807   0.501 -1.5154 -0.3276 -1.9683
  722SOL     OW 2164   0.341   2.716   2.614 -0.3628  0.0034 -0.4612
  722SOL    HW1 2165   0.386   2.630   2.589 -2.9550  3.5051 -0.5975
  722SOL    HW2 2166   0.365   2.789   2.546 -3.1901 -0.2242 -0.1978
  723SOL     OW 2167   1.670   0.408   0.631 -0.3896  0.0853 -0.2895
  723SOL    HW1 2168   1.720   0.398   0.543 -1.4140 -2.7424 -1.4168
  723SOL    HW2 2169   1.631   0.501   0.639  2.8226 -1.4663  0.0591
  724SOL     OW 2170   0.890   1.597   1.951  0.2588  1.1265  0.0647
  724SOL    HW1 2171   0.902   1.567   2.049 -1.0466 -1.1770  0.8665
  724SOL    HW2 2172   0.800   1.642   1.953  1.0611 -3.0500  1.0018
  725SOL     OW 2173   1.502   3.038   1.253 -0.5125 -0.7611  0.4442
  725SOL    HW1 2174   1.425   2.974   1.268 -1.6342 -1.9649  1.1746
  725SOL    HW2 2175   1.580   2.995   1.212 -2.2832  0.5276  3.1071
  726SOL     OW 2176   2.303   2.944   0.175  0.1372 -0.5752  0.0283
  726SOL    HW1 2177   2.274   3.034   0.224 -1.4098 -0.7277 -0.5688
  726SOL    HW2 2178   2.402   2.925   0.181 -0.8028 -1.2548 -0.5575
  727SOL     OW 2179   1.496   1.898   0.646  0.9138 -0.1860  1.1118
  727SOL    HW1 2180   1.555   1.820   0.619  0.0757 -1.3754 -3.6973
  727SOL    HW2 2181   1.406   1.897   0.599 -0.2865  0.6176 -0.7725
  728SOL     OW 2182   2.045   2.814   2.074  0.1889 -0.1526  0.2148
  728SOL    HW1 2183   2.052   2.785   1.978  1.2792 -0.0639  1.2148
  728SOL    HW2 2184   2.069   2.911   2.088 -2.0474 -0.4491  1.2536
  729SOL     OW 2185   1.755   2.120   1.438 -0.1820  0.2985  1.0446
  729SOL    HW1 2186   1.652   2.134   1.439 -3.7005 -1.9594  1.8628
  729SOL    HW2 2187   1.773   2.030   1.395  0.9717  1.6322  0.9723
  730SOL     OW 2188   1.594   1.059   0.093 -0.2447  0.6216  0.2582
  730SOL    HW1 2189   1.574   1.148   0.139  4.5902  0.0398 -0.8387
  730SOL    HW2 2190   1.541   0.982   0.136 -1.0067  0.1794  2.5211
  731SOL     OW 2191   0.684   3.058   1.278  0.2414  0.0411  0.4356
  731SOL    HW1 2192   0.750   3.119   1.230  0.8364 -1.3022 -1.4189
  731SOL    HW2 2193   0.702   2.971   1.229  0.6596 -0.2549 -0.9136
  732SOL     OW 2194   1.526   0.230   0.935 -0.5497  0.4502  0.3071
  732SOL    HW1 2195   1.493   0.327   0.934 -0.2122  3.5897  0.6873
  732SOL    HW2 2196   1.524   0.175   0.845  0.2452  1.5648 -2.5945
  733SOL     OW 2197   0.916   1.242   1.180  0.4103 -0.5757 -0.6332
  733SOL    HW1 2198   0.902   1.262   1.082 -0.2725  0.4806  1.3863
  733SOL    HW2 2199   1.013   1.208   1.192  0.0507 -1.9419 -0.6520
  734SOL     OW 2200   2.713   2.660   2.842 -0.0808 -0.0470 -0.4184
  734SOL    HW1 2201   2.737   2.685   2.938 -0.8132 -1.8486 -0.2960
  734SOL    HW2 2202   2.654   2.578   2.847  0.8239 -1.9480 -1.2142
  735SOL     OW 2203   1.165   2.887   1.226 -0.3689  0.3562  0.4912
  735SOL    HW1 2204   1.123   2.958   1.281  0.9746  0.0607 -2.2505
  735SOL    HW2 2205   1.182   2.918   1.132 -2.1406 -0.4473  1.9989
  736SOL     OW 2206   1.759   1.935   0.093  0.3127  0.0533  0.3700
  736SOL    HW1 2207   1.708   1.988   0.026  2.5888 -2.7652  0.8178
  736SOL    HW2 2208   1.850   1.978   0.102 -0.3825 -1.0794  0.6370
  737SOL     OW 2209   0.031   1.946   1.427 -0.0755 -0.2690  0.4203
  737SOL    HW1 2210   3.089   1.921   1.356  0.3832 -2.1479  0.9271
  737SOL    HW2 2211   0.003   2.039   1.455  3.4129 -1.8769 -0.6068
  738SOL     OW 2212   1.918   2.344   2.611  0.3875  0.1359  0.3723
  738SOL    HW1 2213   1.993   2.377   2.669 -0.9549  0.1381 -3.2363
  738SOL    HW2 2214   1.885   2.415   2.544  0.3251  2.3421 -2.5727
  739SOL     OW 2215   1.344   1.644   2.473  0.1061 -0.1441  0.3942
  739SOL    HW1 2216   1.418   1.697   2.423 -0.5024  0.6108 -1.0605
  739SOL    HW2 2217   1.379   1.586   2.550  0.2849  0.6411 -2.1677
  740SOL     OW 2218   1.306   2.926   0.968  0.4446 -0.0474  0.0559
  740SOL    HW1 2219   1.335   3.017   0.991 -2.6851 -3.3985 -2.0303
  740SOL    HW2 2220   1.234   2.930   0.894  1.3800  1.4603 -1.8002
  741SOL     OW 2221   0.032   1.205   0.323 -0.7317 -0.0413  0.1492
  741SOL    HW1 2222   0.002   1.134   0.392 -0.8389  3.5639 -0.4655
  741SOL    HW2 2223   3.117   1.295   0.354 -2.2214  1.7636  0.2257
  742SOL     OW 2224   0.987   1.531   2.206  0.3971 -0.3269 -0.1723
  742SOL    HW1 2225   1.086   1.557   2.208  0.3828  2.2937  2.6099
  742SOL    HW2 2226   0.938   1.600   2.273 -0.3998 -0.4862  2.4192
  743SOL     OW 2227   0.986   0.873   2.217  0.2570  0.5862 -0.3068
  743SOL    HW1 2228   0.940   0.808   2.282 -1.2759 -1.6970 -0.7245
  743SOL    HW2 2229   1.082   0.838   2.210  0.1650 -0.5892 -0.9478
  744SOL     OW 2230   2.306   3.048   1.530 -0.4338  0.5944 -0.8494
  744SOL    HW1 2231   2.369   3.012   1.601  0.2740 -2.1529  0.8168
  744SOL    HW2 2232   2.263   2.969   1.480 -1.7643 -1.5843  0.7253
  745SOL     OW 2233   1.968   1.524   1.409  0.1894 -0.5292 -0.0102
  745SOL    HW1 2234   1.901   1.558   1.336 -2.7684 -1.5365 -0.4347
  745SOL    HW2 2235   1.953   1.565   1.499 -2.8090 -3.4647  0.4070
  746SOL     OW 2236   1.896   1.195   0.762  0.2122 -0.4046  0.4280
  746SOL    HW1 2237   1.975   1.251   0.726  0.3758  0.6332  0.3615
  746SOL    HW2 2238   1.866   1.118   0.701 -0.4916 -0.3606  0.9711
  747SOL     OW 2239   2.263   1.720   0.586 -0.1136 -0.3680  0.1601
  747SOL    HW1 2240   2.277   1.640   0.644 -0.3380 -0.0659 -1.9769
  747SOL    HW2 2241   2.171   1.757   0.604 -0.9358 -0.7330 -2.2159
  748SOL     OW 2242   0.365   1.891   0.308  0.0199  0.5422  0.8433
  748SOL    HW1 2243   0.265   1.893   0.335 -0.4338 -1.1201  0.6049
  748SOL    HW2 2244   0.376   1.793   0.280  2.8200 -1.3763  2.5343
  749SOL     OW 2245   3.000   2.355   2.728 -0.5126  0.0912  0.5887
  749SOL    HW1 2246   2.913   2.389   2.683  0.7031  1.3658  4.8966
  749SOL    HW2 2247   3.031   2.412   2.808  0.2422 -0.4463 -0.7971
  750SOL     OW 2248   2.284   0.974   0.867  0.3231 -0.1683 -0.3800
  750SOL    HW1 2249   2.327   0.883   0.873  0.1291  0.3038  1.4073
  750SOL    HW2 2250   2.230   0.996   0.956 -3.7737 -1.3542  2.3504
  751SOL     OW 2251   2.575   0.085   0.213  0.0516 -0.0982 -0.2328
  751SOL    HW1 2252   2.541   0.038   0.128 -0.8683  0.2459  3.5282
  751SOL    HW2 2253   2.602   0.018   0.286  2.4763 -1.2981 -0.3698
  752SOL     OW 2254   2.404   2.781   0.849 -0.2011  0.1733  0.5219
  752SOL    HW1 2255   2.421   2.882   0.857  1.4570  0.8858  0.1811
  752SOL    HW2 2256   2.372   2.760   0.755 -0.7653 -0.4115  1.8737
  753SOL     OW 2257   1.758   1.495   2.364 -0.3038 -0.5657 -0.6106
  753SOL    HW1 2258   1.829   1.428   2.397  1.0569 -0.5925  2.3395
  753SOL    HW2 2259   1.789   1.593   2.373  0.6924  0.4961  4.0163
  754SOL     OW 2260   2.148   2.493   1.760  0.0846  0.1935  0.3954
  754SOL    HW1 2261   2.184   2.397   1.751 -0.3954  0.8474  0.6419
  754SOL    HW2 2262   2.045   2.490   1.775 -1.2724 -0.5512 -2.9798
  755SOL     OW 2263   2.686   0.815   1.001 -1.0613 -0.3527  0.1731
  755SOL    HW1 2264   2.667   0.742   0.939 -0.0170  3.1982  2.1707
  755SOL    HW2 2265   2.627   0.896   0.976  0.3107  1.6266 -0.6972
  756SOL     OW 2266   1.061   1.213   2.850 -0.0226  0.1640 -0.3642
  756SOL    HW1 2267   1.122   1.209   2.931 -0.2679 -0.4899  1.1916
  756SOL    HW2 2268   1.025   1.310   2.835  1.7095 -0.0930  0.6658
  757SOL     OW 2269   1.631   2.570   0.919  0.4779 -0.7803  0.3454
  757SOL    HW1 2270   1.656   2.587   0.821  0.4888 -2.7229 -1.1239
  757SOL    HW2 2271   1.713   2.545   0.971 -2.3169  1.9982 -0.5622
  758SOL     OW 2272   0.872   2.309   1.215  0.2341  0.1640  0.3596
  758SOL    HW1 2273   0.944   2.367   1.263 -0.0599  0.6757 -1.2277
  758SOL    HW2 2274   0.911   2.234   1.165 -0.2751  2.1554 -1.6264
  759SOL     OW 2275   2.580   1.176   1.202  0.0934  0.3242 -0.3464
  759SOL    HW1 2276   2.600   1.125   1.283  1.6083  2.0546 -0.8809
  759SOL    HW2 2277   2.661   1.230   1.183 -1.5375  0.0841 -0.8828
  760SOL     OW 2278   1.786   1.013   1.785 -0.4073  0.3457 -0.0523
  760SOL    HW1 2279   1.879   1.048   1.805  1.4893 -1.2550  0.0603
  760SOL    HW2 2280   1.739   1.077   1.724 -2.0419 -0.8328 -0.2915
  761SOL     OW 2281   2.145   2.747   0.345  0.0190  0.2901 -0.6538
  761SOL    HW1 2282   2.046   2.732   0.337 -0.9227  1.4339  1.2287
  761SOL    HW2 2283   2.183   2.797   0.265  0.3639  0.3812 -1.3390
  762SOL     OW 2284   1.991   1.633   2.991  0.4221 -0.0808  0.5066
  762SOL    HW1 2285   1.905   1.581   2.998 -1.0002 -2.0882 -0.5269
  762SOL    HW2 2286   2.012   1.636   2.892  0.6024 -2.7386  1.7702
  763SOL     OW 2287   0.582   1.503   1.449 -0.0620  0.0583  0.4015
  763SOL    HW1 2288   0.639   1.429   1.405 -2.3369 -1.1431 -1.5438
  763SOL    HW2 2289   0.598   1.504   1.554 -1.5175  0.5206  1.4069
  764SOL     OW 2290   3.067   2.383   0.086  0.1571 -0.0699  0.0602
  764SOL    HW1 2291   2.991   2.407   0.151 -0.9513  0.0062  0.3011
  764SOL    HW2 2292   3.122   2.464   0.048 -2.1747  0.0051 -1.6433
  765SOL     OW 2293   0.686   3.045   1.547  0.0768  0.2619  0.2519
  765SOL    HW1 2294   0.672   3.059   1.443 -0.3591 -1.8812 -4.0012
  765SOL    HW2 2295   0.722   0.002   1.598  0.0877 -1.4614 -2.6488
  766SOL     OW 2296   3.038   2.091   2.036  0.0119  0.3651 -0.0859
  766SOL    HW1 2297   2.985   2.128   2.113  2.1166 -0.1583  0.6453
  766SOL    HW2 2298   3.018   2.144   1.953 -0.7778 -1.7547  0.9252
  767SOL     OW 2299   2.699   1.063   2.071  0.3554 -1.0856 -0.2691
  767SOL    HW1 2300   2.689   1.009   1.986  0.3454 -0.7382  0.4303
  767SOL    HW2 2301   2.774   1.133   2.061  1.3132  2.8145  1.4553
  768SOL     OW 2302   0.792   0.322   2.768 -0.1255  0.1720  0.5756
  768SOL    HW1 2303   0.731   0.335   2.849 -2.9249 -0.6748  1.8553
  768SOL    HW2 2304   0.887   0.353   2.793  0.5773 -0.3568 -0.6011
  769SOL     OW 2305   2.028   2.693   1.007 -0.0551 -0.3246 -0.2660
  769SOL    HW1 2306   2.125   2.664   1.019 -2.9183 -0.1235  0.2548
  769SOL    HW2 2307   2.015   2.784   1.051 -1.7461 -0.4126  0.1193
  770SOL     OW 2308   2.825   0.197   2.764 -0.0290 -0.1326 -0.4215
  770SOL    HW1 2309   2.819   0.296   2.739 -0.2695 -1.7278 -1.8800
  770SOL    HW2 2310   2.918   0.157   2.768 -1.6642  1.3705  1.0198
  771SOL     OW 2311   1.738   2.213   2.055  0.3507  0.5912  0.0045
  771SOL    HW1 2312   1.689   2.232   1.965 -0.4627  2.5595 -3.4725
  771SOL    HW2 2313   1.699   2.127   2.089 -1.6951  0.8746 -1.1075
  772SOL     OW 2314   1.416   0.440   0.229 -0.3629  0.9421  0.6769
  772SOL    HW1 2315   1.331   0.417   0.278 -0.6686 -0.2225 -1.6910
  772SOL    HW2 2316   1.408   0.531   0.182 -1.8922  0.7220  0.1167
  773SOL     OW 2317   2.741   0.702   1.775  0.2258 -0.2181  0.2075
  773SOL    HW1 2318   2.740   0.683   1.875  1.2483  1.9421 -0.4978
  773SOL    HW2 2319   2.648   0.681   1.733 -0.3715 -2.8747 -2.1338
  774SOL     OW 2320   1.189   1.158   0.816 -0.1870  0.2047 -0.4568
  774SOL    HW1 2321   1.101   1.199   0.781 -2.5216 -1.0964 -0.1893
  774SOL    HW2 2322   1.184   1.056   0.818  1.7192  1.2602 -0.9771
  775SOL     OW 2323   2.522   3.075   3.099 -0.3456  0.2214  0.4935
  775SOL    HW1 2324   2.423   3.107   3.095  1.7189  2.2933  2.9688
  775SOL    HW2 2325   2.541   3.006   3.022 -1.7757 -1.9590  0.0757
  776SOL     OW 2326   2.438   1.413   1.970 -0.7175  0.2474 -0.0036
  776SOL    HW1 2327   2.437   1.370   2.063 -1.4183 -0.0014  0.3100
  776SOL    HW2 2328   2.442   1.344   1.891  2.2917  0.3391  1.1694
  777SOL     OW 2329   0.446   1.247   2.600 -0.3092  0.0966  0.0974
  777SOL    HW1 2330   0.395   1.272   2.513  1.4195  1.0242 -1.6720
  777SOL    HW2 2331   0.524   1.187   2.580  0.7755  1.6718  0.4126
  778SOL     OW 2332   0.577   0.583   0.144  0.0981  0.4067  0.6468
  778SOL    HW1 2333   0.669   0.541   0.129  0.7046  0.4086  1.1691
  778SOL    HW2 2334   0.518   0.564   0.061 -0.4159 -0.6326  1.2813
  779SOL     OW 2335   0.492   0.431   2.617  0.1184 -0.5807  0.6692
  779SOL    HW1 2336   0.542   0.491   2.684 -0.9205  1.6979  0.9540
  779SOL    HW2 2337   0.432   0.361   2.657 -1.5546  1.2482  2.1864
  780SOL     OW 2338   2.298   0.835   2.636 -0.1257 -0.2941 -0.4660
  780SOL    HW1 2339   2.342   0.871   2.720  1.3567  2.2267 -0.7660
  780SOL    HW2 2340   2.307   0.735   2.626 -0.2283  1.0752  0.9046
  781SOL     OW 2341   2.798   0.961   1.827 -0.2683 -0.0205 -0.0663
  781SOL    HW1 2342   2.773   0.871   1.797 -0.8197  1.4943  4.4548
  781SOL    HW2 2343   2.898   0.976   1.842  0.0649  0.2101 -0.4649
  782SOL     OW 2344   0.792   1.444   2.558 -0.1140  0.0524  0.3371
  782SOL    HW1 2345   0.711   1.463   2.621 -1.0192 -0.5960  0.4339
  782SOL    HW2 2346   0.821   1.531   2.524  1.0511 -2.6697  1.9206
  783SOL     OW 2347   1.019   2.643   1.275 -0.3121 -0.6167 -0.2920
  783SOL    HW1 2348   1.099   2.714   1.267  4.5976  0.0670 -0.1065
  783SOL    HW2 2349   1.068   2.558   1.252 -0.3345  1.1256 -0.6445
  784SOL     OW 2350   1.624   0.297   2.926 -0.0237  0.4474 -0.2063
  784SOL    HW1 2351   1.655   0.253   3.010 -2.8282  0.1766  2.6478
  784SOL    HW2 2352   1.678   0.377   2.899 -0.0035 -0.0956 -1.2756
  785SOL     OW 2353   0.850   0.185   2.224 -0.3626  0.6257  0.2854
  785SOL    HW1 2354   0.910   0.236   2.288  1.5526 -2.6211 -1.8413
  785SOL    HW2 2355   0.821   0.248   2.148  0.2667  1.0342 -1.5029
  786SOL     OW 2356   0.566   2.034   0.386 -0.0746 -0.1297 -0.9812
  786SOL    HW1 2357   0.483   1.975   0.361 -1.3343 -2.7965  2.2862
  786SOL    HW2 2358   0.544   2.108   0.450  0.9556  0.4514  1.3776
  787SOL     OW 2359   1.462   1.047   0.474 -0.1999 -0.0725  0.0713
  787SOL    HW1 2360   1.359   1.058   0.469 -3.5598 -2.1398  0.5427
  787SOL    HW2 2361   1.494   1.082   0.566  2.0264  1.1273 -0.4281
  788SOL     OW 2362   2.437   1.703   1.389 -0.1974  0.2066  0.0495
  788SOL    HW1 2363   2.510   1.628   1.386  0.1320 -4.3781 -3.8164
  788SOL    HW2 2364   2.408   1.731   1.482 -0.1294 -0.5914 -1.3468
  789SOL     OW 2365   2.722   1.146   2.329 -0.1202 -0.1872  0.3149
  789SOL    HW1 2366   2.690   1.112   2.241  0.5481 -2.0208 -0.9520
  789SOL    HW2 2367   2.813   1.191   2.312  0.9903 -0.8039  1.2266
  790SOL     OW 2368   0.862   3.062   0.133  0.6707 -0.0089  0.2314
  790SOL    HW1 2369   0.904   2.969   0.141  0.7735 -3.0814  0.2051
  790SOL    HW2 2370   0.937   0.003   0.159 -0.3795 -1.9033 -2.3457
  791SOL     OW 2371   0.258   0.822   0.084 -0.0254 -1.3291 -0.0793
  791SOL    HW1 2372   0.270   0.913   0.124  2.8614 -0.3407 -0.4034
  791SOL    HW2 2373   0.319   0.812   0.000 -0.5952  1.5481 -2.3461
  792SOL     OW 2374   1.627   0.658   2.636  0.3737 -0.1299 -0.6189
  792SOL    HW1 2375   1.534   0.626   2.613  2.4069 -2.0605  1.0812
  792SOL    HW2 2376   1.700   0.627   2.576 -1.4076  1.7131 -1.4709
  793SOL     OW 2377   2.935   0.389   0.697  0.3363  0.1529 -0.3760
  793SOL    HW1 2378   2.990   0.382   0.611 -0.8681  0.0995  1.0971
  793SOL    HW2 2379   2.935   0.482   0.740 -0.2594  2.2638  1.0608
  794SOL     OW 2380   0.307   0.477   1.826  0.5486 -1.0787 -0.0482
  794SOL    HW1 2381   0.363   0.557   1.799  1.4999  3.9087  0.3394
  794SOL    HW2 2382   0.210   0.512   1.819 -0.3669  1.4582  2.9749
  795SOL     OW 2383   0.357   1.449   3.050 -0.3657 -0.0758 -0.0085
  795SOL    HW1 2384   0.451   1.471   3.078 -1.8821  0.6581  1.4900
  795SOL    HW2 2385   0.302   1.408   0.007  0.5244 -0.1970 -0.8619
  796SOL     OW 2386   0.189   1.061   0.170 -0.6442 -0.7514  0.1445
  796SOL    HW1 2387   0.125   1.111   0.228 -0.5895  4.1808  1.1123
  796SOL    HW2 2388   0.170   1.079   0.073 -1.6386  0.9663  0.4800
  797SOL     OW 2389   1.691   2.508   2.878  0.0814  0.2865  0.0115
  797SOL    HW1 2390   1.627   2.541   2.948 -1.0756 -0.1419 -1.5304
  797SOL    HW2 2391   1.688   2.553   2.792 -0.7199 -0.8635  1.9279
  798SOL     OW 2392   3.090   0.361   1.336 -0.6319  0.1984 -0.3596
  798SOL    HW1 2393   0.021   0.302   1.270 -0.2570 -1.3626 -1.1071
  798SOL    HW2 2394   0.024   0.405   1.407 -1.7560 -1.3496  0.3821
  799SOL     OW 2395   2.064   0.750   1.861  0.0822 -0.5478  0.2079
  799SOL    HW1 2396   2.117   0.838   1.867 -1.1607 -1.6706  1.0267
  799SOL    HW2 2397   1.994   0.756   1.783 -1.8201  0.8779 -1.4665
  800SOL     OW 2398   0.093   1.858   0.385  0.5112  0.0302 -0.0665
  800SOL    HW1 2399   0.091   1.833   0.484  0.2549 -1.3567  0.3398
  800SOL    HW2 2400   0.032   1.797   0.334  1.0475  1.0132  3.2065
  801SOL     OW 2401   1.622   2.262   0.625  0.0912 -0.1411 -0.0432
  801SOL    HW1 2402   1.630   2.245   0.525 -0.0879  0.8587 -0.9874
  801SOL    HW2 2403   1.701   2.219   0.674  0.8382 -2.3639 -0.5150
  802SOL     OW 2404   1.263   1.481   2.920  0.1400 -0.1942  0.4584
  802SOL    HW1 2405   1.324   1.459   2.997 -1.2380  2.2993  0.4001
  802SOL    HW2 2406   1.168   1.456   2.942 -2.5557 -2.1135  4.3173
  803SOL     OW 2407   0.378   1.946   1.695 -0.4897 -0.0608  0.0188
  803SOL    HW1 2408   0.337   2.016   1.754  3.3951 -0.2535 -2.1610
  803SOL    HW2 2409   0.326   1.862   1.694  0.7219 -0.7540  1.8503
  804SOL     OW 2410   1.414   2.672   1.113  0.2244  0.0139 -0.4377
  804SOL    HW1 2411   1.476   2.613   1.068 -2.6399  2.3273  2.2487
  804SOL    HW2 2412   1.373   2.738   1.045 -0.6059  2.6805 -0.3029
  805SOL     OW 2413   2.319   2.169   2.498  0.0350 -0.1001 -0.3324
  805SOL    HW1 2414   2.347   2.261   2.528  0.2502  1.4602  1.5719
  805SOL    HW2 2415   2.239   2.135   2.556 -0.3438 -1.3940  1.1479
  806SOL     OW 2416   2.431   3.051   0.890 -0.5155  0.0926 -1.2987
  806SOL    HW1 2417   2.364   3.030   0.963 -0.5392  0.9473 -1.3872
  806SOL    HW2 2418   2.485   0.013   0.916  1.3012  2.4083 -0.0871
  807SOL     OW 2419   0.205   1.102   2.754 -0.5027 -0.2781  0.6577
  807SOL    HW1 2420   0.287   1.141   2.704 -0.8123  0.2180 -0.9799
  807SOL    HW2 2421   0.114   1.116   2.701 -0.2768  1.6497 -3.2828
  808SOL     OW 2422   0.674   1.860   0.744 -0.1136  0.1710  0.4315
  808SOL    HW1 2423   0.580   1.897   0.764 -1.7658  2.7488  2.8722
  808SOL    HW2 2424   0.725   1.902   0.669 -1.1670  0.6254 -1.0455
  809SOL     OW 2425   2.502   0.170   2.245  0.1288  0.2830 -0.4961
  809SOL    HW1 2426   2.442   0.227   2.188  0.5553  0.6656  0.2571
  809SOL    HW2 2427   2.526   0.228   2.324 -1.2398  1.3517 -1.6665
  810SOL     OW 2428   1.381   0.428   1.457  0.3819 -0.1030  0.1298
  810SOL    HW1 2429   1.284   0.432   1.428  0.1836  3.6499 -0.6338
  810SOL    HW2 2430   1.410   0.507   1.520 -1.0854 -1.7228  2.2877
  811SOL     OW 2431   1.791   0.263   1.953 -0.5996  0.6174 -0.9610
  811SOL    HW1 2432   1.778   0.261   1.851  1.2013  3.8023  0.1409
  811SOL    HW2 2433   1.702   0.275   2.001  1.5969 -1.8504 -2.0545
  812SOL     OW 2434   1.735   1.740   0.386  0.1606 -0.0741  0.2260
  812SOL    HW1 2435   1.813   1.800   0.371  1.4629 -0.5206  1.2587
  812SOL    HW2 2436   1.743   1.704   0.478 -0.2893  0.5935 -1.9909
  813SOL     OW 2437   1.260   0.525   1.868  0.1742 -0.0168  0.5183
  813SOL    HW1 2438   1.228   0.523   1.966 -0.1102 -1.4254  1.9443
  813SOL    HW2 2439   1.333   0.594   1.856  0.3946 -2.0249 -1.5691
  814SOL     OW 2440   0.390   0.130   1.091 -0.3896  0.0249  0.0459
  814SOL    HW1 2441   0.365   0.033   1.099 -2.2109  1.4301 -3.4483
  814SOL    HW2 2442   0.448   0.160   1.173 -0.9290  0.3576  3.2954
  815SOL     OW 2443   0.409   0.138   0.526 -0.1510  0.3484  0.2889
  815SOL    HW1 2444   0.404   0.069   0.601 -0.0886  1.5359  0.8585
  815SOL    HW2 2445   0.351   0.217   0.559 -0.2395  0.8403  0.4589
  816SOL     OW 2446   2.236   1.641   2.403 -0.0714  0.1356  0.1842
  816SOL    HW1 2447   2.330   1.614   2.373  1.0823  1.0915  0.2536
  816SOL    HW2 2448   2.238   1.662   2.502  1.5176  0.7931 -3.7398
  817SOL     OW 2449   1.246   3.066   0.628 -0.0852 -0.1004 -0.4517
  817SOL    HW1 2450   1.333   3.114   0.604 -0.2050  1.9033  0.3498
  817SOL    HW2 2451   1.262   2.968   0.616 -0.5970  5.3691 -1.1145
  818SOL     OW 2452   1.754   0.505   2.829  0.1141 -0.8284  0.2772
  818SOL    HW1 2453   1.701   0.577   2.786 -1.0121 -1.1012  1.2684
  818SOL    HW2 2454   1.855   0.514   2.810  1.6461 -0.5640  1.3083
  819SOL     OW 2455   2.234   0.269   0.068  0.1442  0.2389 -0.5554
  819SOL    HW1 2456   2.314   0.325   0.097 -1.6451  0.2815 -2.6380
  819SOL    HW2 2457   2.263   0.186   0.016 -1.8970 -0.0709  0.9894
  820SOL     OW 2458   1.985   0.664   2.821  0.6937 -0.0799 -0.0561
  820SOL    HW1 2459   2.057   0.645   2.889 -0.7974 -1.7803 -2.2049
  820SOL    HW2 2460   2.011   0.656   2.723 -4.2288  1.1725  0.1353
  821SOL     OW 2461   3.031   0.304   0.936 -0.0386 -0.4049 -1.0067
  821SOL    HW1 2462   3.081   0.365   1.001 -0.8207  2.1325 -0.6704
  821SOL    HW2 2463   3.011   0.343   0.845  0.3500  0.0517 -0.1424
  822SOL     OW 2464   0.963   2.495   2.412  0.1488  0.4666  0.0454
  822SOL    HW1 2465   0.933   2.407   2.457  1.5996 -1.0915  1.0119
  822SOL    HW2 2466   0.891   2.567   2.430  1.4468 -0.1163 -1.1826
  823SOL     OW 2467   0.328   1.430   1.796 -0.8183  0.1278 -0.2163
  823SOL    HW1 2468   0.284   1.447   1.887 -0.3219 -4.0996  0.1421
  823SOL    HW2 2469   0.260   1.387   1.733  1.0497 -0.8267 -0.5141
  824SOL     OW 2470   1.443   2.754   2.570 -0.2325  0.3761  0.2964
  824SOL    HW1 2471   1.494   2.693   2.502  3.3757 -4.2246 -3.1257
  824SOL    HW2 2472   1.505   2.804   2.634 -0.5129 -2.0913 -0.6160
  825SOL     OW 2473   1.756   0.733   0.306  0.2808 -0.0879  0.2084
  825SOL    HW1 2474   1.695   0.662   0.349 -0.1982  0.9614  2.2874
  825SOL    HW2 2475   1.834   0.745   0.368 -1.5811  0.7111 -3.6102
  826SOL     OW 2476   2.099   0.908   0.127  0.3477  0.2905 -0.2687
  826SOL    HW1 2477   2.030   0.844   0.090  3.2045  0.1964  0.1149
  826SOL    HW2 2478   2.165   0.859   0.190  0.1036  1.2432  0.7489
  827SOL     OW 2479   0.544   1.552   2.177 -0.0279 -0.3932 -0.3305
  827SOL    HW1 2480   0.555   1.633   2.118 -2.0984 -2.0952  2.2515
  827SOL    HW2 2481   0.548   1.460   2.128  1.1819 -1.0893  1.6003
  828SOL     OW 2482   2.243   1.503   1.783 -0.4033 -0.2556 -0.4095
  828SOL    HW1 2483   2.277   1.577   1.724  0.9495 -0.4778 -0.3712
  828SOL    HW2 2484   2.304   1.492   1.861 -1.0390  0.9320 -1.0589
  829SOL     OW 2485   0.238   1.577   0.719 -0.3197 -0.2547 -0.1016
  829SOL    HW1 2486   0.224   1.474   0.733 -0.6469 -2.8262 -2.3047
  829SOL    HW2 2487   0.311   1.619   0.778 -0.5151  2.8884 -0.4144
  830SOL     OW 2488   1.441   1.020   0.942  0.1897  0.4633  0.1430
  830SOL    HW1 2489   1.400   1.109   0.970 -0.0971 -1.6169 -0.4014
  830SOL    HW2 2490   1.475   0.972   1.023 -0.3842  2.0359 -0.0514
  831SOL     OW 2491   3.098   1.727   3.107 -0.2023  0.1280  0.0142
  831SOL    HW1 2492   3.059   1.724   0.080 -1.9533 -0.4597  0.5580
  831SOL    HW2 2493   3.111   1.632   3.073  0.3692 -1.1792 -0.9556
  832SOL     OW 2494   0.870   0.399   0.293 -0.4035  0.0755 -0.5091
  832SOL    HW1 2495   0.864   0.474   0.364  0.0464  1.4326  1.1080
  832SOL    HW2 2496   0.832   0.307   0.327  0.5505 -1.2779  0.5517
  833SOL     OW 2497   0.882   0.475   2.088  0.3061  0.0274  0.5862
  833SOL    HW1 2498   0.821   0.557   2.097  0.4665 -0.2765  0.3575
  833SOL    HW2 2499   0.830   0.387   2.054 -0.8089 -3.4113  1.2363
  834SOL     OW 2500   0.216   0.272   0.656 -0.6461  0.1541 -0.0781
  834SOL    HW1 2501   0.128   0.245   0.617  1.2629 -0.4879  1.1297
  834SOL    HW2 2502   0.225   0.255   0.756  1.2215  1.6832  2.1320
  835SOL     OW 2503   2.796   2.813   1.076 -0.2080  0.6934 -0.0713
  835SOL    HW1 2504   2.726   2.807   1.153  0.5888  2.0869  3.0974
  835SOL    HW2 2505   2.780   2.885   1.005 -0.6873  2.0562 -0.6351
  836SOL     OW 2506   0.585   2.028   3.065  0.4985 -0.2562 -0.3792
  836SOL    HW1 2507   0.655   2.094   3.051 -1.3270  1.5424 -1.9316
  836SOL    HW2 2508   0.500   2.062   3.112 -2.3264  0.9751 -5.4160
  837SOL     OW 2509   1.511   1.362   2.432 -0.2037 -0.1332 -0.2095
  837SOL    HW1 2510   1.467   1.414   2.507 -0.0829 -2.9884 -3.3613
  837SOL    HW2 2511   1.609   1.389   2.427 -1.7549  1.6892  0.0646
  838SOL     OW 2512   0.029   0.831   1.675 -0.2601  0.3141  0.6297
  838SOL    HW1 2513   0.079   0.815   1.583  1.2704  1.1211 -2.1638
  838SOL    HW2 2514   0.064   0.916   1.722  0.8410  1.4081 -1.3460
  839SOL     OW 2515   0.784   1.233   0.920  0.3638  1.1832  0.2985
  839SOL    HW1 2516   0.778   1.133   0.946 -0.6558 -4.1409  0.5582
  839SOL    HW2 2517   0.860   1.251   0.856 -0.6326 -1.5221  0.3707
  840SOL     OW 2518   1.652   2.938   1.980 -0.0282 -0.1499 -0.3050
  840SOL    HW1 2519   1.666   2.884   2.067  0.8472  0.4093  1.0129
  840SOL    HW2 2520   1.697   2.894   1.904 -2.5156  2.9410  4.3347
  841SOL     OW 2521   0.590   2.339   0.464 -0.3590 -0.1060 -0.8933
  841SOL    HW1 2522   0.676   2.391   0.454 -1.9655  1.3853  1.6650
  841SOL    HW2 2523   0.553   2.328   0.369  2.3718  1.0357  0.2398
  842SOL     OW 2524   0.482   0.381   0.814  0.3605  0.3986 -0.2552
  842SOL    HW1 2525   0.387   0.362   0.850  0.3135 -0.1913  0.4533
  842SOL    HW2 2526   0.552   0.369   0.892  3.2038  0.2702  0.6120
  843SOL     OW 2527   0.768   0.950   2.054  0.3898 -0.1718  0.2112
  843SOL    HW1 2528   0.699   0.982   2.119  1.2629 -1.4267 -0.1519
  843SOL    HW2 2529   0.848   0.928   2.111  1.6735 -1.8983  0.5035
  844SOL     OW 2530   1.426   2.316   3.066 -0.1970  0.4884  0.3887
  844SOL    HW1 2531   1.364   2.336   2.984  0.1408 -2.2648 -1.0251
  844SOL    HW2 2532   1.487   2.397   3.082  1.5461 -3.1008 -2.4149
  845SOL     OW 2533   2.302   2.807   2.574 -0.5618  0.1881  0.0554
  845SOL    HW1 2534   2.280   2.868   2.497 -0.7323  1.7375 -0.6008
  845SOL    HW2 2535   2.400   2.775   2.567  2.0241  1.5410  1.1217
  846SOL     OW 2536   1.817   1.902   2.914 -0.1088  0.3139  0.1146
  846SOL    HW1 2537   1.767   1.889   2.827 -0.3442  0.2943  1.4234
  846SOL    HW2 2538   1.781   1.858   2.998  0.6502  0.0679  0.4218
  847SOL     OW 2539   2.271   0.048   3.026  0.8686  0.0499 -0.2993
  847SOL    HW1 2540   2.211   3.099   3.074 -0.7862 -2.5221  1.4597
  847SOL    HW2 2541   2.263   0.027   2.930  1.5311  0.2107  0.3947
  848SOL     OW 2542   0.224   0.544   0.594 -0.4462 -0.0245 -0.1159
  848SOL    HW1 2543   0.292   0.576   0.661 -0.0233 -0.1020 -2.5860
  848SOL    HW2 2544   0.213   0.443   0.596 -0.8838  4.2017  0.0101
  849SOL     OW 2545   1.318   2.952   1.566  0.3061  0.4167  1.1306
  849SOL    HW1 2546   1.411   2.986   1.540  2.7503 -1.7477 -0.2128
  849SOL    HW2 2547   1.317   2.918   1.660  1.2616  3.5410 -3.2726
  850SOL     OW 2548   0.354   1.626   0.246 -0.6419  0.0318 -0.2063
  850SOL    HW1 2549   0.297   1.582   0.177  0.8778  1.4537  2.8858
  850SOL    HW2 2550   0.448   1.592   0.254  2.3267  0.6238 -1.8693
  851SOL     OW 2551   0.159   0.923   0.687 -0.2312 -0.1041  0.1494
  851SOL    HW1 2552   0.191   0.916   0.588 -1.2526  0.9552  1.2764
  851SOL    HW2 2553   0.057   0.937   0.687  1.7604  0.4666  2.0916
  852SOL     OW 2554   1.564   2.477   1.493 -0.3262  0.2344 -0.0709
  852SOL    HW1 2555   1.607   2.454   1.583 -1.0065  0.2129  1.6487
  852SOL    HW2 2556   1.510   2.565   1.501  1.3725  5.4938  1.3678
  853SOL     OW 2557   0.168   1.390   0.117  0.3662 -0.0977  0.3520
  853SOL    HW1 2558   0.078   1.430   0.084 -0.5790  3.6880 -1.1355
  853SOL    HW2 2559   0.157   1.309   0.168 -1.2170 -0.8233 -1.5119
  854SOL     OW 2560   1.576   1.129   2.124 -0.4896 -0.3740  0.0803
  854SOL    HW1 2561   1.512   1.117   2.200  0.4208  1.5402  2.1802
  854SOL    HW2 2562   1.535   1.115   2.035  0.6075  0.1840  1.8657
  855SOL     OW 2563   0.530   2.396   2.924  0.3873  0.0731  1.0241
  855SOL    HW1 2564   0.436   2.441   2.920  0.0839 -0.7708 -0.4194
  855SOL    HW2 2565   0.558   2.385   3.019  0.0179  0.5892 -0.1059
  856SOL     OW 2566   0.057   0.602   1.817 -0.1015 -0.2156 -0.0362
  856SOL    HW1 2567   3.089   0.561   1.801 -0.5597 -0.7054  0.3873
  856SOL    HW2 2568   0.060   0.703   1.788  0.2774  0.9501 -0.4593
  857SOL     OW 2569   0.638   1.075   1.832  0.1191  0.2231 -0.4068
  857SOL    HW1 2570   0.672   1.021   1.912  2.2708  0.5686 -2.1370
  857SOL    HW2 2571   0.634   1.167   1.872 -0.6934  1.4172 -0.9152
  858SOL     OW 2572   0.309   1.358   2.361 -0.3786 -1.0351  0.2912
  858SOL    HW1 2573   0.348   1.452   2.381 -1.2716 -0.5414 -0.2883
  858SOL    HW2 2574   0.358   1.328   2.280  2.0361  0.4141  3.7614
  859SOL     OW 2575   2.788   3.015   0.909  0.3552  0.0726 -0.3189
  859SOL    HW1 2576   2.796   3.104   0.961  1.8875  2.2492  2.5984
  859SOL    HW2 2577   2.849   3.017   0.833 -2.2437 -0.0704  4.2837
  860SOL     OW 2578   2.109   2.945   3.094  0.4025  0.0845  0.4362
  860SOL    HW1 2579   2.171   2.910   0.046  3.5106 -0.0561 -0.9676
  860SOL    HW2 2580   2.132   2.897   3.004  0.6345 -2.4799 -1.3419
  861SOL     OW 2581   0.456   0.551   0.388  0.0163  0.2157 -0.3278
  861SOL    HW1 2582   0.506   0.580   0.303  1.7746 -2.1079 -1.6116
  861SOL    HW2 2583   0.357   0.573   0.380  0.0801  0.1191  1.4501
  862SOL     OW 2584   1.399   0.278   1.870 -0.0352  0.4884  0.0595
  862SOL    HW1 2585   1.331   0.209   1.895 -0.8028  2.5512  2.4674
  862SOL    HW2 2586   1.355   0.370   1.869 -0.5721 -0.3065 -0.4640
  863SOL     OW 2587   2.637   2.385   1.405  0.0767 -0.2312  0.4248
  863SOL    HW1 2588   2.556   2.357   1.352 -0.5512 -0.6460  1.2290
  863SOL    HW2 2589   2.716   2.409   1.342  1.2762 -0.9885 -2.4574
  864SOL     OW 2590   2.215   2.961   2.363 -0.0955 -0.1680  0.1037
  864SOL    HW1 2591   2.115   2.954   2.362  1.1404  1.0583  1.0831
  864SOL    HW2 2592   2.250   2.976   2.270 -2.1756 -1.1461  0.2730
  865SOL     OW 2593   1.062   0.443   1.686  0.5195  0.4296  0.3036
  865SOL    HW1 2594   1.040   0.351   1.729  0.0312  2.0443 -0.2299
  865SOL    HW2 2595   1.122   0.498   1.747 -1.4558  1.0954  1.0837
  866SOL     OW 2596   1.982   2.938   1.117 -0.5487 -0.9499  0.2482
  866SOL    HW1 2597   2.055   2.994   1.068 -0.9865 -0.2649  0.2681
  866SOL    HW2 2598   1.963   2.968   1.210  2.1226  0.4236  0.3164
  867SOL     OW 2599   2.623   2.402   0.555 -0.0289 -0.2891  0.1775
  867SOL    HW1 2600   2.592   2.347   0.636  0.1426 -0.5818  0.7926
  867SOL    HW2 2601   2.718   2.438   0.567 -2.0352 -0.3790  2.1810
  868SOL     OW 2602   0.741   1.951   1.556 -0.6965  0.7929 -0.0995
  868SOL    HW1 2603   0.825   1.987   1.598  0.5254  0.2515 -2.5351
  868SOL    HW2 2604   0.706   2.023   1.496  1.7992 -0.0165  2.5598
  869SOL     OW 2605   2.264   2.575   3.092  0.5899  0.0880  0.3730
  869SOL    HW1 2606   2.247   2.478   3.067 -0.7124  0.0629  1.1170
  869SOL    HW2 2607   2.326   2.580   0.048 -0.8887 -1.4651 -0.1043
  870SOL     OW 2608   2.297   1.897   1.103  0.2714  0.0056  0.0192
  870SOL    HW1 2609   2.362   1.838   1.052  0.5780 -1.4136  0.2453
  870SOL    HW2 2610   2.245   1.842   1.174  2.0878 -0.4278 -0.9296
  871SOL     OW 2611   0.247   1.716   1.646  0.4831  0.4730  0.0859
  871SOL    HW1 2612   0.255   1.668   1.553 -0.0958 -1.7283 -1.7622
  871SOL    HW2 2613   0.226   1.652   1.721 -1.5013 -1.8920  2.0004
  872SOL     OW 2614   0.473   1.262   2.144  0.0982  0.0920 -0.1638
  872SOL    HW1 2615   0.560   1.287   2.093 -0.2163  0.0473 -0.5300
  872SOL    HW2 2616   0.471   1.160   2.168  2.5839 -1.5456  1.4650
  873SOL     OW 2617   1.170   2.454   1.793  0.0019  0.1780 -0.0187
  873SOL    HW1 2618   1.199   2.386   1.864  0.2724 -0.7739  2.2290
  873SOL    HW2 2619   1.077   2.438   1.749 -0.4064 -4.5867 -2.2937
  874SOL     OW 2620   1.234   0.945   1.940 -0.6490  0.1744 -0.2057
  874SOL    HW1 2621   1.139   0.968   1.905 -2.2948 -0.8131 -1.5811
  874SOL    HW2 2622   1.231   0.883   2.017 -0.3921  0.4787 -3.4801
  875SOL     OW 2623   2.648   2.641   0.889  0.4239 -0.5068  0.4777
  875SOL    HW1 2624   2.571   2.688   0.847  1.3672 -1.7573 -1.0718
  875SOL    HW2 2625   2.706   2.714   0.933 -0.4107  0.4304 -0.4344
  876SOL     OW 2626   0.831   1.193   0.501  0.1864 -0.1495 -0.7904
  876SOL    HW1 2627   0.844   1.163   0.408 -0.6772  2.4820  0.1283
  876SOL    HW2 2628   0.759   1.267   0.496 -0.5912  0.9241 -1.0630
  877SOL     OW 2629   2.933   0.119   1.264  0.3000  0.0220 -0.3147
  877SOL    HW1 2630   2.993   0.056   1.212  0.5432 -0.3085  1.1701
  877SOL    HW2 2631   2.984   0.197   1.300 -0.0477 -0.7879  1.0711
  878SOL     OW 2632   2.574   1.706   0.283  0.3048  0.2821  0.3546
  878SOL    HW1 2633   2.555   1.613   0.317 -0.5235 -0.0369  1.1880
  878SOL    HW2 2634   2.487   1.765   0.275  2.5921  0.2983  1.2447
  879SOL     OW 2635   2.611   1.903   1.318  0.0775  0.5588 -0.4032
  879SOL    HW1 2636   2.539   1.832   1.339 -1.4694  0.6050  0.3897
  879SOL    HW2 2637   2.589   1.961   1.238  3.3572 -2.9382  4.6083
  880SOL     OW 2638   0.177   2.632   0.751  0.0456 -0.3622  0.1424
  880SOL    HW1 2639   0.146   2.700   0.821  3.6930  0.4376 -1.1685
  880SOL    HW2 2640   0.277   2.649   0.729 -0.6166  0.9984  0.9494
  881SOL     OW 2641   1.331   1.280   1.008 -0.2983 -0.1346 -0.3233
  881SOL    HW1 2642   1.376   1.372   0.988  0.4029  0.2194  0.9108
  881SOL    HW2 2643   1.265   1.249   0.935  1.4476 -1.3346 -0.8288
  882SOL     OW 2644   2.673   0.969   2.783  0.3313 -0.0710 -0.2031
  882SOL    HW1 2645   2.679   1.008   2.689  0.6848 -0.7485 -3.2165
  882SOL    HW2 2646   2.702   0.869   2.783 -2.8512  1.4048 -1.8840
  883SOL     OW 2647   1.083   3.045   1.474 -0.2945  0.1012  0.5918
  883SOL    HW1 2648   1.015   2.983   1.518  3.0230  2.0091  0.0429
  883SOL    HW2 2649   1.179   3.014   1.486 -2.2315  1.1839  2.6915
  884SOL     OW 2650   3.074   0.047   0.859 -0.5459 -0.6242 -0.1321
  884SOL    HW1 2651   3.030   0.005   0.778  1.0828 -1.0318 -0.0509
  884SOL    HW2 2652   3.052   0.149   0.871 -0.3071  4.6631  0.2632
  885SOL     OW 2653   1.307   0.782   1.234  0.0949  0.0442  0.5369
  885SOL    HW1 2654   1.290   0.770   1.333  3.5770  0.1049  0.6744
  885SOL    HW2 2655   1.397   0.823   1.219  2.3783 -0.6046 -0.4001
  886SOL     OW 2656   1.550   0.841   2.833  0.4917  0.4992  0.2745
  886SOL    HW1 2657   1.573   0.783   2.752 -3.0235  0.6880  0.2641
  886SOL    HW2 2658   1.628   0.902   2.851 -1.3395  1.2313 -0.9375
  887SOL     OW 2659   1.641   0.598   1.075 -0.0380  0.1989  0.6837
  887SOL    HW1 2660   1.613   0.562   1.165  1.2026 -1.3049  0.6203
  887SOL    HW2 2661   1.720   0.557   1.031 -2.9016  0.3846 -1.2797
  888SOL     OW 2662   2.040   1.677   1.916  0.1685 -0.6282  0.4735
  888SOL    HW1 2663   2.028   1.611   1.987  1.3427  0.1558  1.5733
  888SOL    HW2 2664   2.124   1.653   1.866  1.2594  0.9915 -2.6304
  889SOL     OW 2665   2.262   2.116   0.701  0.1344  0.1988  0.2794
  889SOL    HW1 2666   2.311   2.203   0.704  0.2256 -1.5084  2.4478
  889SOL    HW2 2667   2.242   2.086   0.794  1.2024 -1.9874 -0.5197
  890SOL     OW 2668   1.117   1.879   0.756  0.4159 -0.3093  0.0033
  890SOL    HW1 2669   1.161   1.791   0.789  1.2972 -4.7614  0.4145
  890SOL    HW2 2670   1.027   1.900   0.802 -2.0620 -0.0231 -0.8126
  891SOL     OW 2671   2.671   0.627   2.354  0.5322  0.4425  0.6032
  891SOL    HW1 2672   2.751   0.565   2.338  1.0246  2.0032  0.6912
  891SOL    HW2 2673   2.603   0.608   2.280  1.6534  0.5961 -0.4715
  892SOL     OW 2674   1.281   0.395   2.318 -0.0538  0.4921  0.3855
  892SOL    HW1 2675   1.376   0.363   2.332 -5.2070  1.3763  0.4999
  892SOL    HW2 2676   1.243   0.412   2.409  0.6860 -1.8350 -2.8213
  893SOL     OW 2677   1.611   0.427   1.294 -0.1280 -0.1313  0.1247
  893SOL    HW1 2678   1.672   0.477   1.358 -0.9238 -1.1660 -2.2655
  893SOL    HW2 2679   1.518   0.408   1.338 -1.5291  1.0684 -2.3862
  894SOL     OW 2680   2.654   0.420   0.647 -0.0122  0.2410 -0.5403
  894SOL    HW1 2681   2.595   0.334   0.644  0.4294  0.1010 -2.9177
  894SOL    HW2 2682   2.751   0.397   0.658  0.5943  2.4635  1.4914
  895SOL     OW 2683   2.121   2.428   2.785 -0.1937 -0.8115 -0.4341
  895SOL    HW1 2684   2.220   2.458   2.773  1.5946 -2.4937 -1.1435
  895SOL    HW2 2685   2.064   2.493   2.837  0.2336  2.3225 -1.4664
  896SOL     OW 2686   1.751   2.878   1.559  0.2096  0.2177  0.2386
  896SOL    HW1 2687   1.685   2.958   1.556 -0.8787  0.9897 -1.7891
  896SOL    HW2 2688   1.729   2.813   1.486  2.2482  0.9818  0.5020
  897SOL     OW 2689   0.490   2.206   1.996  0.6883  0.5702 -0.1224
  897SOL    HW1 2690   0.562   2.198   1.928  0.8425 -1.6701  2.3957
  897SOL    HW2 2691   0.403   2.195   1.938 -1.4629 -1.6927 -1.9003
  898SOL     OW 2692   2.320   1.832   2.194  0.2113  0.1116 -0.0038
  898SOL    HW1 2693   2.377   1.801   2.113 -2.2549  2.9661  1.2649
  898SOL    HW2 2694   2.274   1.755   2.249 -1.4682  1.8473 -1.4713
  899SOL     OW 2695   1.808   2.170   0.427  0.2548 -0.3503 -0.1305
  899SOL    HW1 2696   1.866   2.216   0.493 -0.2815 -1.5834 -0.1514
  899SOL    HW2 2697   1.838   2.077   0.405  0.5227  3.4307  0.1005
  900SOL     OW 2698   1.128   0.582   0.192 -0.7767 -0.3359 -0.3185
  900SOL    HW1 2699   1.055   0.649   0.215 -0.2467  1.8138 -1.6804
  900SOL    HW2 2700   1.115   0.490   0.230 -0.7525  0.7830  0.4982
  901SOL     OW 2701   1.107   1.857   2.236 -0.2453  0.1681  0.0193
  901SOL    HW1 2702   1.054   1.877   2.152  2.9990 -2.3469  0.4305
  901SOL    HW2 2703   1.156   1.768   2.230  1.6291 -3.2680 -0.0872
  902SOL     OW 2704   2.604   0.417   3.036 -0.2760  0.2999 -0.0332
  902SOL    HW1 2705   2.636   0.319   3.018 -1.0814 -2.2706 -1.5167
  902SOL    HW2 2706   2.559   0.415   0.004  1.7370 -0.3010  0.7922
  903SOL     OW 2707   2.175   0.680   2.278  0.3947  0.0843 -0.2583
  903SOL    HW1 2708   2.210   0.621   2.210 -3.6581  1.1601  1.2649
  903SOL    HW2 2709   2.163   0.771   2.237 -0.2321  0.0516 -0.3631
  904SOL     OW 2710   1.418   0.780   2.316 -0.7376  0.1395  0.1231
  904SOL    HW1 2711   1.467   0.803   2.398 -1.0034 -0.0431 -1.0954
  904SOL    HW2 2712   1.461   0.701   2.264 -1.5171  1.1521  0.9979
  905SOL     OW 2713   2.206   0.144   1.656 -0.2188 -0.1930  0.5102
  905SOL    HW1 2714   2.251   0.058   1.614 -0.3724 -0.1377 -0.1669
  905SOL    HW2 2715   2.104   0.128   1.668 -1.5270 -2.1304  1.7519
  906SOL     OW 2716   2.030   1.967   0.411  0.0967 -0.5822 -0.1211
  906SOL    HW1 2717   2.121   2.008   0.422  1.4346 -0.0390 -1.1820
  906SOL    HW2 2718   2.011   1.912   0.496 -1.0470  0.7350  0.5306
  907SOL     OW 2719   1.267   2.794   0.606 -0.0911  0.0116  0.3684
  907SOL    HW1 2720   1.336   2.717   0.610  0.5141  0.8070 -0.6013
  907SOL    HW2 2721   1.177   2.757   0.621  1.0325 -2.1356 -4.8378
  908SOL     OW 2722   1.704   2.154   2.577 -0.0384  0.2737  0.3419
  908SOL    HW1 2723   1.769   2.202   2.636 -1.6168 -0.2845  1.3023
  908SOL    HW2 2724   1.751   2.139   2.484  1.2119 -1.7734 -4.0066
  909SOL     OW 2725   2.264   0.589   1.952  0.5966 -0.4970  0.0201
  909SOL    HW1 2726   2.182   0.650   1.924 -0.4765  0.9716  0.1644
  909SOL    HW2 2727   2.304   0.543   1.868  1.1869 -0.4217 -3.5721
  910SOL     OW 2728   1.311   0.854   2.961  0.4744 -0.3593 -0.2468
  910SOL    HW1 2729   1.272   0.762   2.984 -1.0529 -1.3632  1.3241
  910SOL    HW2 2730   1.408   0.850   2.924  1.0576 -1.0505  0.9451
  911SOL     OW 2731   3.020   0.901   3.064 -0.6793  0.5137  0.3647
  911SOL    HW1 2732   2.931   0.942   3.073  2.8585  1.0442  0.4091
  911SOL    HW2 2733   3.053   0.844   0.019  3.2472 -0.5003 -0.8106
  912SOL     OW 2734   0.173   2.587   0.491  0.3742 -0.2163  0.1514
  912SOL    HW1 2735   0.183   2.488   0.459  0.8051 -2.9442  1.6359
  912SOL    HW2 2736   0.195   2.589   0.591  2.1448 -2.3633 -0.5568
  913SOL     OW 2737   2.855   2.151   2.479 -0.0957 -0.4105 -0.2378
  913SOL    HW1 2738   2.877   2.194   2.389  0.4381  0.5856  1.9376
  913SOL    HW2 2739   2.927   2.082   2.506  1.2208 -1.7661  0.5573
  914SOL     OW 2740   1.658   1.767   1.095 -0.3153  0.3825 -0.2180
  914SOL    HW1 2741   1.631   1.818   1.011 -0.9399 -1.9197  1.4596
  914SOL    HW2 2742   1.565   1.737   1.134 -1.8430 -0.2947 -2.2602
  915SOL     OW 2743   0.302   2.863   2.176  0.2748  0.3519 -0.2961
  915SOL    HW1 2744   0.300   2.761   2.156  0.8517 -0.6845  0.8864
  915SOL    HW2 2745   0.204   2.894   2.161 -1.4755 -2.4008 -0.1481
  916SOL     OW 2746   0.821   0.120   1.688  0.2479  0.3992  0.5437
  916SOL    HW1 2747   0.918   0.104   1.658 -1.6172 -1.9974 -2.7809
  916SOL    HW2 2748   0.802   0.221   1.672  2.5322  0.0889 -1.3444
  917SOL     OW 2749   2.546   0.817   0.288  0.6089 -0.0496  0.6416
  917SOL    HW1 2750   2.588   0.858   0.202 -1.9093 -0.0875  1.5112
  917SOL    HW2 2751   2.446   0.790   0.273 -1.0113 -2.0520 -0.4999
  918SOL     OW 2752   1.800   2.259   2.980  0.1332 -0.1109  0.5569
  918SOL    HW1 2753   1.753   2.336   2.932 -1.1101 -0.3450  1.2596
  918SOL    HW2 2754   1.735   2.189   3.018 -0.8754 -1.4255  0.4044
  919SOL     OW 2755   1.705   2.898   1.125 -0.6719 -0.6627  0.0056
  919SOL    HW1 2756   1.806   2.912   1.128  0.3769 -0.8390  0.4180
  919SOL    HW2 2757   1.669   2.892   1.030 -0.4532 -0.9918  0.8652
  920SOL     OW 2758   1.522   0.352   2.413 -0.1440  0.1055 -0.3651
  920SOL    HW1 2759   1.485   0.359   2.507 -0.3961 -1.2600  1.3939
  920SOL    HW2 2760   1.597   0.287   2.412 -0.9137  3.0275  2.3545
  921SOL     OW 2761   3.043   0.902   2.791 -0.0174 -0.3644 -0.5318
  921SOL    HW1 2762   3.090   0.979   2.749  0.3215  0.4270  1.4167
  921SOL    HW2 2763   3.034   0.907   2.895 -2.3141  0.6839  3.2300
  922SOL     OW 2764   0.124   2.098   1.027 -0.2385 -0.3735 -0.4063
  922SOL    HW1 2765   0.032   2.123   0.992  1.9094  1.9474 -1.3952
  922SOL    HW2 2766   0.151   2.146   1.107  1.0858 -3.2726  0.0555
  923SOL     OW 2767   0.599   1.492   1.737  0.7071 -1.0127 -0.0254
  923SOL    HW1 2768   0.580   1.595   1.727 -0.3536 -0.3728  0.1769
  923SOL    HW2 2769   0.508   1.449   1.754 -1.3273  1.0037 -0.2822
  924SOL     OW 2770   1.623   2.913   2.709  0.4126 -0.4001 -0.2792
  924SOL    HW1 2771   1.573   2.997   2.734 -0.9520 -1.3091 -0.0725
  924SOL    HW2 2772   1.684   2.890   2.787 -0.9824 -0.1853 -0.8953
  925SOL     OW 2773   2.604   1.538   0.903 -0.2424 -0.0310 -0.0966
  925SOL    HW1 2774   2.650   1.529   0.811  2.6533 -1.0883  0.0456
  925SOL    HW2 2775   2.682   1.545   0.967  1.2577 -2.8395  1.2011
  926SOL     OW 2776   2.184   1.004   1.136  0.0686  0.1235  0.7956
  926SOL    HW1 2777   2.197   0.912   1.181 -0.8514  3.4160 -0.8831
  926SOL    HW2 2778   2.242   1.072   1.187 -0.6715 -0.3890  2.2841
  927SOL     OW 2779   2.010   0.120   1.360 -0.1365 -0.1014 -0.1943
  927SOL    HW1 2780   2.013   0.220   1.356  1.5313 -1.8457  0.1393
  927SOL    HW2 2781   2.102   0.085   1.331  2.4519  3.4986  1.9052
  928SOL     OW 2782   0.136   0.861   2.360  0.2051  0.1781 -0.3129
  928SOL    HW1 2783   0.155   0.800   2.277 -0.5859  0.7115 -1.7508
  928SOL    HW2 2784   0.117   0.955   2.329  1.8736 -2.6924  0.1350
  929SOL     OW 2785   2.349   0.879   1.473  0.3880  0.1718 -0.2156
  929SOL    HW1 2786   2.294   0.953   1.520 -0.5652 -0.1114  1.1145
  929SOL    HW2 2787   2.434   0.929   1.448 -0.4539 -1.6056 -2.0423
  930SOL     OW 2788   2.608   2.772   1.976  0.6297  0.3792 -0.2438
  930SOL    HW1 2789   2.649   2.803   1.891 -1.2676  0.8665  1.1238
  930SOL    HW2 2790   2.524   2.722   1.945  1.7683  0.2077 -0.9447
  931SOL     OW 2791   1.989   1.272   1.503  0.4674 -0.1691  0.2592
  931SOL    HW1 2792   1.928   1.248   1.580  0.7266 -0.2673 -0.1206
  931SOL    HW2 2793   1.978   1.364   1.453  2.4392 -0.6807 -0.8303
  932SOL     OW 2794   0.485   0.714   1.775  0.0090  0.4670  0.0603
  932SOL    HW1 2795   0.451   0.801   1.739  0.5013 -0.4142 -1.9369
  932SOL    HW2 2796   0.554   0.720   1.854 -1.2384  3.3985  1.1798
  933SOL     OW 2797   2.454   2.137   1.902  0.0605 -0.2635  0.2423
  933SOL    HW1 2798   2.438   2.046   1.862 -0.0515  1.5343 -1.5121
  933SOL    HW2 2799   2.508   2.127   1.989 -1.2489  1.4729  1.7997
  934SOL     OW 2800   0.649   2.058   1.817  0.2309 -0.2270  0.0692
  934SOL    HW1 2801   0.648   1.972   1.871  1.1192 -1.0233 -1.0790
  934SOL    HW2 2802   0.660   2.029   1.720 -1.5540 -0.7649  3.8718
  935SOL     OW 2803   3.054   1.358   1.775 -0.7258  0.1148 -0.2277
  935SOL    HW1 2804   3.036   1.457   1.762 -1.1325  0.4791  0.6518
  935SOL    HW2 2805   3.042   1.339   1.874  1.7979  1.0575  1.0268
  936SOL     OW 2806   2.900   0.919   1.369 -0.4148 -0.9424 -0.1360
  936SOL    HW1 2807   2.808   0.884   1.333 -1.6249 -1.6918  0.9372
  936SOL    HW2 2808   2.912   0.872   1.459 -1.5513  0.8978 -1.8329
  937SOL     OW 2809   1.770   0.548   1.464 -0.3139  0.2993  0.2951
  937SOL    HW1 2810   1.808   0.637   1.440 -0.3225 -1.5450  1.5306
  937SOL    HW2 2811   1.782   0.527   1.566  0.5891  1.1406  2.2188
  938SOL     OW 2812   0.671   2.698   0.224 -0.5353 -0.0955 -0.4277
  938SOL    HW1 2813   0.622   2.744   0.147 -0.4051 -0.2732  0.8924
  938SOL    HW2 2814   0.623   2.709   0.312 -0.7405 -0.3934  2.4546
  939SOL     OW 2815   3.069   1.991   2.539 -0.2808 -0.3461  1.0193
  939SOL    HW1 2816   3.061   1.890   2.520  0.8272 -0.7122  1.8471
  939SOL    HW2 2817   3.065   1.999   2.642  1.6577  1.6109 -0.2863
  940SOL     OW 2818   1.334   1.994   0.232 -0.2158 -0.4391 -0.0566
  940SOL    HW1 2819   1.413   1.942   0.196 -2.5544  1.6929 -1.2187
  940SOL    HW2 2820   1.263   1.995   0.158 -0.2017  1.0824 -0.6014
  941SOL     OW 2821   2.441   2.573   0.199  0.2731  0.4666  0.2168
  941SOL    HW1 2822   2.397   2.564   0.290 -1.2535  0.2805  2.9318
  941SOL    HW2 2823   2.467   2.480   0.168 -1.2800 -0.9161  1.3766
  942SOL     OW 2824   1.838   2.159   0.818  0.1516  0.2317 -0.2612
  942SOL    HW1 2825   1.905   2.087   0.847  2.2363 -1.5772  0.8186
  942SOL    HW2 2826   1.768   2.181   0.894 -1.6507  0.8306  2.1581
  943SOL     OW 2827   1.855   0.779   1.670  0.1248 -0.3220 -0.5712
  943SOL    HW1 2828   1.866   0.773   1.569 -1.3367 -0.5393 -0.4544
  943SOL    HW2 2829   1.826   0.874   1.704 -1.7068  1.2210 -0.9005
  944SOL     OW 2830   1.227   0.770   2.130 -0.4320  0.1365 -0.4433
  944SOL    HW1 2831   1.303   0.781   2.199 -0.1575 -1.6102 -0.9767
  944SOL    HW2 2832   1.202   0.670   2.122  2.6868  0.8230 -0.0153
  945SOL     OW 2833   2.190   2.602   1.519  0.2454  0.0263 -0.7550
  945SOL    HW1 2834   2.288   2.625   1.532 -0.2643  1.4400 -0.3811
  945SOL    HW2 2835   2.156   2.572   1.608 -0.9191 -0.9668  2.1138
  946SOL     OW 2836   0.329   1.288   0.528  0.0524 -0.0594 -0.3256
  946SOL    HW1 2837   0.299   1.299   0.622 -1.3789 -0.8633 -0.9741
  946SOL    HW2 2838   0.256   1.289   0.457 -0.2897  1.4225  1.9261
  947SOL     OW 2839   1.593   2.405   1.223 -0.0924  0.3483 -0.0921
  947SOL    HW1 2840   1.594   2.421   1.324  0.4351  0.1415 -0.6432
  947SOL    HW2 2841   1.682   2.431   1.168  1.3427  3.4642 -2.1556
  948SOL     OW 2842   0.220   1.723   1.126 -0.2954  0.0639 -0.0088
  948SOL    HW1 2843   0.248   1.717   1.222 -0.3866 -1.5295  2.2080
  948SOL    HW2 2844   0.153   1.648   1.106  0.1388  0.1580 -1.3021
  949SOL     OW 2845   1.138   1.450   1.294  0.3415 -0.1622 -0.2893
  949SOL    HW1 2846   1.065   1.434   1.366  1.2054  0.3556 -2.0701
  949SOL    HW2 2847   1.183   1.363   1.258  1.0589  1.0855  0.2172
  950SOL     OW 2848   0.449   0.521   1.126 -0.2141  0.1743  0.5708
  950SOL    HW1 2849   0.522   0.576   1.081  0.1264  0.2501  0.3296
  950SOL    HW2 2850   0.356   0.553   1.108  0.0686 -0.4378 -1.1889
  951SOL     OW 2851   0.693   2.105   2.183  0.0162 -0.4100 -0.0081
  951SOL    HW1 2852   0.627   2.145   2.115  1.5920  0.1055 -1.0549
  951SOL    HW2 2853   0.695   2.169   2.264  0.0513  2.6075  1.6586
  952SOL     OW 2854   0.955   1.441   3.050  0.0721 -0.0639 -0.3871
  952SOL    HW1 2855   0.923   1.537   3.024 -0.2781  1.1105 -1.6108
  952SOL    HW2 2856   1.000   1.434   0.021  0.9159 -1.4912 -0.3522
  953SOL     OW 2857   1.192   2.944   0.117  0.4207 -0.4170  0.1212
  953SOL    HW1 2858   1.284   2.916   0.148 -0.5711  0.0795  0.8101
  953SOL    HW2 2859   1.121   2.870   0.131  0.3638 -2.9816 -0.7608
  954SOL     OW 2860   1.707   1.470   0.050  0.4610 -0.2226  0.3146
  954SOL    HW1 2861   1.739   1.379   0.033 -0.2631  3.4845  0.8118
  954SOL    HW2 2862   1.674   1.486   0.146 -1.4720 -0.9581 -1.4725
  955SOL     OW 2863   0.090   2.588   3.101  0.5837  0.4928  0.4757
  955SOL    HW1 2864   0.110   2.686   3.122  1.9985 -1.5671  2.2941
  955SOL    HW2 2865   0.016   2.587   3.029  1.3671 -0.6571  2.0614
  956SOL     OW 2866   1.195   0.510   1.172  0.3876 -0.2883 -0.1949
  956SOL    HW1 2867   1.229   0.606   1.181  0.1300 -0.4186  1.3919
  956SOL    HW2 2868   1.163   0.471   1.260  2.1146 -1.4351  0.5423
  957SOL     OW 2869   1.269   1.630   1.448 -0.8103  0.2918  0.2959
  957SOL    HW1 2870   1.182   1.678   1.473  0.8214  0.8518  2.8911
  957SOL    HW2 2871   1.242   1.550   1.389 -1.7998 -1.4174 -0.0747
  958SOL     OW 2872   0.395   1.841   0.960  0.4240  0.3429 -0.7630
  958SOL    HW1 2873   0.336   1.807   1.035 -1.5781  2.6031 -2.3756
  958SOL    HW2 2874   0.452   1.762   0.928 -0.8618 -1.1446  1.3492
  959SOL     OW 2875   1.439   1.678   1.246  0.0454  0.2774  0.1863
  959SOL    HW1 2876   1.363   1.728   1.203  1.4933 -2.1501  0.7259
  959SOL    HW2 2877   1.425   1.672   1.348  2.1909  2.4082 -0.2294
  960SOL     OW 2878   0.193   1.179   3.029 -0.4945  0.4430 -0.0887
  960SOL    HW1 2879   0.216   1.278   3.012  2.6566  0.1384  0.7042
  960SOL    HW2 2880   0.212   1.130   2.941 -0.1536  2.4343 -1.3458
  961SOL     OW 2881   0.925   1.502   1.512 -0.7348  0.2294  0.4427
  961SOL    HW1 2882   0.897   1.459   1.600  0.1310 -0.1942  1.6416
  961SOL    HW2 2883   0.972   1.593   1.530  0.1942  2.8167 -2.2646
  962SOL     OW 2884   0.968   1.286   0.725 -0.2047 -0.3412 -0.0737
  962SOL    HW1 2885   0.963   1.384   0.714  2.3249 -2.0172 -0.4759
  962SOL    HW2 2886   0.927   1.237   0.648  2.2353  0.7137  2.7764
  963SOL     OW 2887   1.431   1.491   2.691 -0.0059 -0.1149 -0.5270
  963SOL    HW1 2888   1.524   1.474   2.717 -3.6974  0.7287 -0.2603
  963SOL    HW2 2889   1.362   1.477   2.765 -1.3596 -0.6329  1.0362
  964SOL     OW 2890   0.737   2.814   2.860  0.0251 -0.0536  0.2261
  964SOL    HW1 2891   0.815   2.787   2.925 -0.8746 -0.8523 -2.1257
  964SOL    HW2 2892   0.692   2.727   2.827  1.3845 -2.6436 -0.0544
  965SOL     OW 2893   0.480   2.335   0.231 -0.0759 -0.1369 -0.9035
  965SOL    HW1 2894   0.450   2.243   0.199 -1.0837 -1.1118  1.3430
  965SOL    HW2 2895   0.406   2.405   0.216  1.3112 -0.2637  0.1013
  966SOL     OW 2896   0.012   1.477   2.662  0.4159 -0.9138 -0.2938
  966SOL    HW1 2897   3.083   1.392   2.691 -0.4174 -1.1693 -1.9554
  966SOL    HW2 2898   0.088   1.496   2.732 -0.1011  0.4826  2.8056
  967SOL     OW 2899   2.719   0.058   2.535 -0.1695 -0.0009  0.2210
  967SOL    HW1 2900   2.745   3.083   2.529  3.4777  3.0118 -0.3907
  967SOL    HW2 2901   2.765   0.098   2.616 -0.1794 -3.1366 -1.9168
  968SOL     OW 2902   2.144   0.217   0.533  0.1145 -0.1157  0.4544
  968SOL    HW1 2903   2.093   0.264   0.457 -1.3679 -2.1078  1.6732
  968SOL    HW2 2904   2.193   0.289   0.587 -2.5145  1.2477 -0.7368
  969SOL     OW 2905   0.198   1.219   2.058 -0.2989 -0.0320  0.0374
  969SOL    HW1 2906   0.152   1.169   1.983  0.2485 -0.6793  1.3185
  969SOL    HW2 2907   0.296   1.222   2.046 -1.7220  0.6561 -3.3439
  970SOL     OW 2908   2.141   1.635   1.037 -0.4152 -0.0787 -0.3665
  970SOL    HW1 2909   2.168   1.632   1.135 -0.1284  0.7617 -2.9248
  970SOL    HW2 2910   2.143   1.538   1.008 -1.2537  0.8319  0.3473
  971SOL     OW 2911   2.365   2.961   1.183 -0.3695 -0.6586 -0.1012
  971SOL    HW1 2912   2.299   2.889   1.181  2.5455  0.9437  1.1371
  971SOL    HW2 2913   2.453   2.928   1.216 -1.9985 -0.4609  0.9311
  972SOL     OW 2914   0.538   2.826   1.551  0.1684 -0.2053  0.0708
  972SOL    HW1 2915   0.569   2.788   1.466  1.0992  0.7956  3.2698
  972SOL    HW2 2916   0.594   2.908   1.567 -2.8238 -2.7359 -0.0600
  973SOL     OW 2917   0.636   0.359   2.996  0.2865 -0.1564  0.3406
  973SOL    HW1 2918   0.703   0.404   3.060 -1.2599  0.4534  0.6955
  973SOL    HW2 2919   0.543   0.401   3.010 -1.4347 -2.2583  0.4450
  974SOL     OW 2920   1.963   1.436   2.065 -0.7032 -0.2081 -0.0632
  974SOL    HW1 2921   1.863   1.431   2.091 -2.5066  0.5634 -2.1878
  974SOL    HW2 2922   2.029   1.420   2.144  2.3539 -0.6173  3.6153
  975SOL     OW 2923   0.128   0.089   1.477 -0.4640  1.1474 -0.0056
  975SOL    HW1 2924   0.219   0.127   1.459 -1.3880 -0.1037 -2.5035
  975SOL    HW2 2925   0.100   0.020   1.407 -0.7441 -2.9688 -1.2310
  976SOL     OW 2926   0.888   1.970   2.039  0.7620 -0.0443 -0.9031
  976SOL    HW1 2927   0.849   2.030   2.118 -0.5790  0.9900  2.8915
  976SOL    HW2 2928   0.814   1.909   2.010 -0.4632  0.4869 -1.8684
  977SOL     OW 2929   0.848   2.449   0.419 -0.1948  0.4352  0.2635
  977SOL    HW1 2930   0.896   2.536   0.406  0.2565 -0.6077  0.3519
  977SOL    HW2 2931   0.898   2.372   0.371 -0.7839 -1.9194 -2.7188
  978SOL     OW 2932   0.032   1.571   2.173 -0.3119  0.4194  0.0318
  978SOL    HW1 2933   0.063   1.647   2.238 -0.0200  0.6677 -1.6179
  978SOL    HW2 2934   3.121   1.486   2.222 -0.5582 -1.2424  2.0065
  979SOL     OW 2935   1.664   2.733   1.330 -0.1156 -0.3063  0.6933
  979SOL    HW1 2936   1.661   2.761   1.230  1.5019 -2.1046  0.8083
  979SOL    HW2 2937   1.568   2.714   1.363 -0.2855  1.3756 -0.6067
  980SOL     OW 2938   1.243   1.216   2.601  0.0888  0.2642  0.0867
  980SOL    HW1 2939   1.200   1.251   2.514 -0.7562  3.8026 -0.5912
  980SOL    HW2 2940   1.179   1.226   2.681  0.9684 -1.8324  3.6709
  981SOL     OW 2941   2.202   0.100   1.932 -0.2059 -0.2549  0.1586
  981SOL    HW1 2942   2.230   0.198   1.961 -0.0461 -0.3535 -2.6125
  981SOL    HW2 2943   2.202   0.092   1.827 -0.1151 -1.9881 -1.0609
  982SOL     OW 2944   0.394   0.488   3.006  0.0686 -0.3605  0.7446
  982SOL    HW1 2945   0.305   0.459   3.047  1.1712  2.8808  1.0582
  982SOL    HW2 2946   0.386   0.589   2.994  1.2071  2.9483 -0.4887
  983SOL     OW 2947   2.195   1.258   2.514  0.5373  0.1883 -0.3205
  983SOL    HW1 2948   2.284   1.253   2.559 -2.7966 -3.0433 -1.0732
  983SOL    HW2 2949   2.159   1.163   2.528  2.8911 -2.0194 -0.4676
  984SOL     OW 2950   1.227   0.151   2.231  0.4252 -0.0916 -0.2376
  984SOL    HW1 2951   1.264   0.081   2.296  0.3659  0.4262 -0.3863
  984SOL    HW2 2952   1.243   0.246   2.254 -1.5898 -2.5494 -0.1990
  985SOL     OW 2953   1.921   1.627   1.643 -0.1178  0.5437  0.1593
  985SOL    HW1 2954   1.940   1.557   1.711  0.4682 -0.6619  1.5758
  985SOL    HW2 2955   1.973   1.711   1.662  1.1038 -0.4414 -2.6274
  986SOL     OW 2956   2.484   0.711   1.672 -0.5492 -0.8007 -0.6213
  986SOL    HW1 2957   2.435   0.622   1.687 -0.0584 -0.7036  0.2939
  986SOL    HW2 2958   2.444   0.766   1.594 -1.7526  3.4289  0.0010
  987SOL     OW 2959   2.932   0.691   1.079  0.1930  0.0290 -0.4848
  987SOL    HW1 2960   2.939   0.648   1.170  2.8878 -0.9746 -0.8026
  987SOL    HW2 2961   2.849   0.748   1.064  1.3463  1.4149  1.0113
  988SOL     OW 2962   3.076   0.804   2.020 -0.6793  0.6982  0.1089
  988SOL    HW1 2963   3.027   0.813   2.107 -0.5945  1.4827 -0.4624
  988SOL    HW2 2964   3.061   0.892   1.970  0.7017 -4.0587  0.2908
  989SOL     OW 2965   2.384   1.503   0.080 -0.0366 -0.0559  0.2446
  989SOL    HW1 2966   2.428   1.515   0.171 -1.4687  0.7932  2.9616
  989SOL    HW2 2967   2.430   1.563   0.004  1.0637 -0.8248 -1.6001
  990SOL     OW 2968   1.045   0.415   2.840  0.0873  0.4392  0.5983
  990SOL    HW1 2969   1.091   0.328   2.870 -2.4472  1.2504 -0.4278
  990SOL    HW2 2970   1.056   0.486   2.906  1.1511 -0.0452 -0.2764
  991SOL     OW 2971   1.186   1.064   0.503  0.2281 -0.5435 -0.3839
  991SOL    HW1 2972   1.198   1.162   0.477  1.2075  0.4425 -0.6666
  991SOL    HW2 2973   1.116   1.050   0.578 -1.0543  1.1021 -0.5127
  992SOL     OW 2974   2.142   1.382   0.108 -0.3943 -0.6289 -0.2070
  992SOL    HW1 2975   2.080   1.454   0.151  1.0409 -1.8303  1.0374
  992SOL    HW2 2976   2.237   1.408   0.094  0.1020 -0.2084  1.9812
  993SOL     OW 2977   3.034   0.593   0.841  0.3120  0.1953  0.2806
  993SOL    HW1 2978   0.006   0.610   0.854 -3.2101 -0.1863  0.2885
  993SOL    HW2 2979   2.981   0.629   0.922 -2.1518  0.5781 -0.1563
  994SOL     OW 2980   0.160   1.995   2.389  0.2353  0.0678 -0.2108
  994SOL    HW1 2981   0.064   2.009   2.426  2.7871 -0.0648  1.4242
  994SOL    HW2 2982   0.227   2.032   2.458  2.0422  0.6095  0.0834
  995SOL     OW 2983   1.727   1.393   2.771 -0.1210 -0.1720  0.3141
  995SOL    HW1 2984   1.668   1.310   2.788 -0.4230  0.8551  1.3339
  995SOL    HW2 2985   1.826   1.374   2.763 -3.4339  0.8458  0.0289
  996SOL     OW 2986   2.398   1.052   0.089 -0.7838 -0.2417 -0.0282
  996SOL    HW1 2987   2.331   1.088   0.154  1.9680 -3.1509 -1.1114
  996SOL    HW2 2988   2.347   1.013   0.011  1.9920 -1.3874  3.7487
  997SOL     OW 2989   2.075   1.039   1.850 -0.1722 -0.3244 -0.1924
  997SOL    HW1 2990   2.140   1.009   1.920  2.7776 -0.0664  0.1654
  997SOL    HW2 2991   2.065   1.140   1.851  2.4923  2.3841  0.7890
  998SOL     OW 2992   2.791   1.846   0.312  0.1519  0.2278 -0.1265
  998SOL    HW1 2993   2.712   1.789   0.285 -1.7278  0.1369  0.7374
  998SOL    HW2 2994   2.761   1.902   0.393  1.2181  3.0904  0.7060
  999SOL     OW 2995   2.748   2.261   0.000 -0.2653 -0.4765 -0.7855
  999SOL    HW1 2996   2.755   2.166   0.032  0.4141 -2.8678  0.1206
  999SOL    HW2 2997   2.828   2.308   0.041 -0.1643  0.4285  0.2709
 1000SOL     OW 2998   1.149   0.523   2.112  0.6973  0.0390  0.0223
 1000SOL    HW1 2999   1.184   0.464   2.188 -0.3231  3.1936 -0.9792
 1000SOL    HW2 3000   1.044   0.502   2.100 -2.2032  1.3699 -0.6598
   3.12240   3.12240   3.12240
