1000 SPC/Fw water molecules t= 360.00000 step= 360000
 3000
    1SOL     OW    1   2.515   2.971   1.470  0.2595  0.4255  0.1204
    1SOL    HW1    2   2.511   2.902   1.540 -0.3792  5.1355 -2.0592
    1SOL    HW2    3   2.516   2.937   1.374 -0.4542 -1.6635  0.2261
    2SOL     OW    4   2.730   2.306   0.754  0.1495 -0.1019  0.2587
    2SOL    HW1    5   2.687   2.364   0.826  1.2543 -0.2536 -1.2585
    2SOL    HW2    6   2.759   2.373   0.683  0.7587  0.7001  2.2308
    3SOL     OW    7   1.558   3.043   3.047 -0.1413  0.2753  0.2398
    3SOL    HW1    8   1.611   0.037   3.019  1.6476  1.0098 -0.3449
    3SOL    HW2    9   1.459   3.058   3.057 -2.3645 -0.0698 -1.5230
    4SOL     OW   10   1.531   2.770   2.305 -0.1241  0.0094 -0.3189
    4SOL    HW1   11   1.448   2.814   2.267  0.1887 -0.6387  5.6147
    4SOL    HW2   12   1.613   2.785   2.245 -0.4273  3.2915 -1.1889
    5SOL     OW   13   1.976   0.342   1.657 -0.5947  0.3143 -0.1535
    5SOL    HW1   14   2.043   0.414   1.677  1.2968 -1.9993 -0.2109
    5SOL    HW2   15   1.889   0.368   1.623  1.0675 -2.4898  2.7597
    6SOL     OW   16   2.157   2.429   0.548 -0.0746 -0.3853 -0.0686
    6SOL    HW1   17   2.085   2.494   0.523 -1.3731  0.4849 -0.7247
    6SOL    HW2   18   2.172   2.423   0.649 -1.8081  0.4099 -0.9190
    7SOL     OW   19   1.761   0.890   1.145  0.5859  0.3818  0.3158
    7SOL    HW1   20   1.691   0.945   1.091 -0.8249 -2.3817  1.0796
    7SOL    HW2   21   1.782   0.938   1.230 -0.5919 -0.3134 -0.5292
    8SOL     OW   22   0.711   1.543   1.359 -0.0170 -1.1040  0.4202
    8SOL    HW1   23   0.622   1.536   1.307  1.4224 -0.4228 -1.5180
    8SOL    HW2   24   0.788   1.582   1.303  1.7970 -0.3309  0.4857
    9SOL     OW   25   1.203   2.267   1.866  0.0907  0.0400  0.4065
    9SOL    HW1   26   1.142   2.338   1.905 -0.2499 -3.1556  1.0068
    9SOL    HW2   27   1.145   2.198   1.817  0.4045  2.1892  0.6898
   10SOL     OW   28   0.592   2.372   0.555  0.2548 -0.2726  0.3084
   10SOL    HW1   29   0.564   2.404   0.649  0.8298  0.0172  2.6103
   10SOL    HW2   30   0.647   2.445   0.516  0.9500  0.9040  2.0098
   11SOL     OW   31   1.629   2.059   1.389 -0.3167 -0.1883  0.1072
   11SOL    HW1   32   1.587   2.133   1.450  0.2216 -0.3496  0.1323
   11SOL    HW2   33   1.655   2.090   1.293 -0.3615 -0.1119 -0.0027
   12SOL     OW   34   2.590   0.363   2.258 -0.1001 -0.0356 -0.4336
   12SOL    HW1   35   2.683   0.338   2.234 -0.2244 -2.2418  1.4762
   12SOL    HW2   36   2.578   0.465   2.260  0.8184 -0.5867 -0.0705
   13SOL     OW   37   2.729   3.024   0.575  0.0807  0.5438 -0.1489
   13SOL    HW1   38   2.666   2.965   0.630  0.3304 -1.9906  1.6183
   13SOL    HW2   39   2.819   2.982   0.571 -1.9838 -1.3838  1.4687
   14SOL     OW   40   1.593   1.465   3.081  0.1984 -0.2944 -0.1616
   14SOL    HW1   41   1.579   1.566   3.071 -1.7661 -1.6837  0.1389
   14SOL    HW2   42   1.507   1.414   3.056  2.0012 -1.0052 -0.3271
   15SOL     OW   43   2.317   2.543   1.430 -0.9523 -0.2826  0.2742
   15SOL    HW1   44   2.389   2.472   1.436  0.0245 -0.6347  2.0063
   15SOL    HW2   45   2.241   2.521   1.489  0.8906  0.0520 -2.1647
   16SOL     OW   46   2.368   2.697   0.321 -0.0593 -0.1375  0.5503
   16SOL    HW1   47   2.269   2.714   0.344 -0.2062 -0.8038  0.5579
   16SOL    HW2   48   2.422   2.783   0.339 -0.0180  0.6315 -0.8341
   17SOL     OW   49   0.741   0.503   1.270  0.1295 -0.3769 -0.1424
   17SOL    HW1   50   0.684   0.429   1.309 -0.3564 -0.1299 -3.6074
   17SOL    HW2   51   0.674   0.579   1.238 -0.9604  1.8359 -1.1879
   18SOL     OW   52   2.040   0.468   0.497 -0.1513 -0.3327  0.0573
   18SOL    HW1   53   1.983   0.441   0.573  0.7216  1.8130  0.3385
   18SOL    HW2   54   2.002   0.427   0.412 -2.0890 -1.5167 -0.2927
   19SOL     OW   55   2.048   1.342   0.156 -0.6217 -0.2238 -0.0803
   19SOL    HW1   56   2.074   1.351   0.059 -1.1102  2.7016  0.5486
   19SOL    HW2   57   2.040   1.437   0.197  1.8190  0.4025 -0.8332
   20SOL     OW   58   2.406   1.533   2.379  0.5778 -0.0028  0.2766
   20SOL    HW1   59   2.493   1.503   2.423  1.1010 -0.6565  0.7706
   20SOL    HW2   60   2.419   1.579   2.285 -1.9810 -0.3003 -2.0878
   21SOL     OW   61   1.488   0.211   0.618  0.0373  0.5480 -0.0208
   21SOL    HW1   62   1.508   0.247   0.713  0.5174 -1.2694  2.2722
   21SOL    HW2   63   1.574   0.175   0.577 -1.4047  0.5655  1.2356
   22SOL     OW   64   2.813   0.501   1.443  0.3048  0.2227 -0.0067
   22SOL    HW1   65   2.744   0.566   1.477  0.3548  0.5283  1.2802
   22SOL    HW2   66   2.802   0.487   1.340 -0.5803 -2.2445  0.8379
   23SOL     OW   67   0.226   0.232   1.754  0.4856  0.0630  0.1764
   23SOL    HW1   68   0.223   0.331   1.736  1.6780  0.3745  0.3548
   23SOL    HW2   69   0.129   0.212   1.783 -2.6325 -0.0087  1.8918
   24SOL     OW   70   2.721   2.665   0.374 -0.2786  0.2893  0.1106
   24SOL    HW1   71   2.817   2.685   0.335 -0.6378 -0.5117  0.1932
   24SOL    HW2   72   2.667   2.750   0.361  1.5921 -2.6736  0.6164
   25SOL     OW   73   1.127   2.803   2.812 -0.2143 -0.1357  0.3745
   25SOL    HW1   74   1.035   2.778   2.773 -0.0944 -0.1550 -3.2579
   25SOL    HW2   75   1.140   2.906   2.804  1.0499  0.1631 -3.2590
   26SOL     OW   76   1.242   2.633   0.422  0.0638  0.0627 -0.1391
   26SOL    HW1   77   1.288   2.541   0.433 -1.0881 -1.7933 -1.0841
   26SOL    HW2   78   1.298   2.713   0.445  0.4107  1.7135 -2.7077
   27SOL     OW   79   2.222   0.769   0.753 -0.5243 -0.0033  0.3354
   27SOL    HW1   80   2.242   0.818   0.841 -0.8632  1.2479  0.1559
   27SOL    HW2   81   2.257   0.669   0.761  1.9186 -3.2063  2.1027
   28SOL     OW   82   0.881   1.647   1.145 -0.1478  0.5344 -0.0798
   28SOL    HW1   83   0.839   1.591   1.069 -2.1900 -2.4231  1.7183
   28SOL    HW2   84   0.982   1.653   1.146 -0.3357 -0.7074 -0.7151
   29SOL     OW   85   0.009   2.847   1.721  0.2420  0.4361 -0.8840
   29SOL    HW1   86   0.099   2.874   1.757 -0.6861  0.8826  0.0108
   29SOL    HW2   87   3.034   2.922   1.721  1.3946 -2.7624  0.9186
   30SOL     OW   88   1.227   0.003   1.226  0.1757  0.0526  0.3040
   30SOL    HW1   89   1.165   0.046   1.162 -2.1163 -0.5390 -1.3838
   30SOL    HW2   90   1.184   0.026   1.317  2.1420  1.0392  0.0335
   31SOL     OW   91   1.792   2.746   2.421  0.0837  0.9504  0.0242
   31SOL    HW1   92   1.695   2.736   2.448 -2.9360  1.2445  0.7624
   31SOL    HW2   93   1.801   2.822   2.352 -0.7335  2.8120 -0.6963
   32SOL     OW   94   0.887   1.365   0.223 -0.4021 -0.5355  0.3168
   32SOL    HW1   95   0.858   1.394   0.129  2.6080 -0.6617 -1.4081
   32SOL    HW2   96   0.920   1.443   0.277 -0.1679 -2.8944 -0.6883
   33SOL     OW   97   3.027   0.925   2.641 -0.0022 -0.0577 -0.1951
   33SOL    HW1   98   3.059   0.902   2.549 -0.5251 -3.2701  2.3529
   33SOL    HW2   99   3.044   0.840   2.693  2.5444 -0.0658 -4.9068
   34SOL     OW  100   2.257   0.034   0.474 -0.2799 -0.5729  0.1895
   34SOL    HW1  101   2.272   0.057   0.570  0.5229  0.2647  0.0816
   34SOL    HW2  102   2.247   3.026   0.456 -0.5678 -1.2756 -3.1053
   35SOL     OW  103   2.615   2.371   1.749  0.2419 -0.1476 -0.0276
   35SOL    HW1  104   2.679   2.329   1.819 -1.4272  3.1715  0.3050
   35SOL    HW2  105   2.516   2.376   1.783 -0.6785  0.7251 -0.1141
   36SOL     OW  106   2.250   2.069   2.801 -0.1996 -0.1776 -0.0781
   36SOL    HW1  107   2.328   2.107   2.751  2.3535  0.3661  1.5389
   36SOL    HW2  108   2.180   2.143   2.806 -3.2521  2.9519 -1.2431
   37SOL     OW  109   1.746   0.300   1.886  0.2475 -0.2824 -0.0444
   37SOL    HW1  110   1.743   0.399   1.862 -0.8677  6.2403  0.9815
   37SOL    HW2  111   1.725   0.247   1.801  1.0457  0.2885  1.0902
   38SOL     OW  112   0.002   0.498   2.798  0.4419  0.3657 -0.5545
   38SOL    HW1  113   3.012   0.468   2.742 -1.8262  1.7565  0.1991
   38SOL    HW2  114   3.067   0.533   2.892 -2.7770  2.5375  0.0893
   39SOL     OW  115   2.021   1.189   1.527  0.8391  0.1917  0.0524
   39SOL    HW1  116   2.026   1.133   1.609 -0.4293  0.0899 -1.3455
   39SOL    HW2  117   2.053   1.283   1.538  0.3435 -4.7935  0.0044
   40SOL     OW  118   1.260   2.164   0.476 -0.3991  0.6520 -0.0368
   40SOL    HW1  119   1.187   2.154   0.543  0.6224  3.4059 -0.6531
   40SOL    HW2  120   1.239   2.134   0.383 -1.5390 -1.1541  0.8603
   41SOL     OW  121   1.984   1.567   0.974 -0.2016 -0.1660  0.0780
   41SOL    HW1  122   2.068   1.517   0.945  0.6093  1.6535  1.6157
   41SOL    HW2  123   1.977   1.649   0.915 -1.4065  1.3307 -0.3764
   42SOL     OW  124   0.503   0.279   0.991  0.3642 -0.2515 -0.7041
   42SOL    HW1  125   0.544   0.223   1.064 -4.1316  0.3388  2.7672
   42SOL    HW2  126   0.468   0.370   1.028  0.4406  0.1055 -3.2665
   43SOL     OW  127   3.067   1.623   2.479 -0.1335 -0.2346  0.4634
   43SOL    HW1  128   0.016   1.705   2.523  0.4145  1.2158  1.9593
   43SOL    HW2  129   3.053   1.548   2.547  0.9298  1.6879  1.1496
   44SOL     OW  130   2.046   2.906   1.349 -0.2190 -0.0307  0.5193
   44SOL    HW1  131   2.038   2.859   1.440  1.0191 -0.1615  0.5260
   44SOL    HW2  132   2.122   2.876   1.287  0.6042  0.4194 -1.8000
   45SOL     OW  133   1.131   0.135   2.239  0.1613 -0.4671  0.5280
   45SOL    HW1  134   1.208   0.074   2.249  2.0098  0.3848 -0.0882
   45SOL    HW2  135   1.052   0.103   2.295  1.0691 -0.9322 -0.0108
   46SOL     OW  136   0.812   2.532   2.504  0.3018  0.2405  0.0181
   46SOL    HW1  137   0.791   2.580   2.416 -1.0997  0.1202 -1.6537
   46SOL    HW2  138   0.768   2.445   2.517 -0.3401  3.5292  0.6304
   47SOL     OW  139   0.841   1.925   0.859 -0.3651  0.5109 -0.1338
   47SOL    HW1  140   0.922   1.942   0.918 -1.0706  2.4521 -0.7915
   47SOL    HW2  141   0.845   1.833   0.823  0.9893 -0.6257  0.1123
   48SOL     OW  142   1.270   2.809   0.963  0.2954  0.1062  0.1359
   48SOL    HW1  143   1.239   2.725   0.911  0.3297 -2.2600 -2.4201
   48SOL    HW2  144   1.266   2.786   1.063  1.2136  0.7576 -3.2746
   49SOL     OW  145   2.367   0.149   2.955 -0.0666 -0.1958 -0.0338
   49SOL    HW1  146   2.387   0.089   3.033 -0.8654  0.2518 -0.7485
   49SOL    HW2  147   2.452   0.157   2.897  1.8323 -0.7413  2.0590
   50SOL     OW  148   1.815   0.184   0.194  0.7269 -0.4515  0.3782
   50SOL    HW1  149   1.892   0.149   0.138 -1.0968  0.7737 -1.2343
   50SOL    HW2  150   1.733   0.192   0.132  0.6002 -0.3955 -1.5413
   51SOL     OW  151   2.295   0.568   1.212 -0.2698 -0.2002  0.6108
   51SOL    HW1  152   2.268   0.668   1.217  0.7082  1.5678  0.5755
   51SOL    HW2  153   2.331   0.542   1.301  0.5601 -0.5691  1.6370
   52SOL     OW  154   0.724   1.664   0.209  0.1477  0.1122  0.1952
   52SOL    HW1  155   0.692   1.604   0.137 -2.1804  3.0789  3.0515
   52SOL    HW2  156   0.813   1.708   0.179  0.3422 -0.8671  1.0049
   53SOL     OW  157   0.192   1.376   2.794 -0.5980  0.3339 -0.3183
   53SOL    HW1  158   0.175   1.285   2.765 -1.2300  3.1687 -0.3344
   53SOL    HW2  159   0.234   1.384   2.888  1.3728  0.1956  1.7731
   54SOL     OW  160   2.701   1.080   1.677  0.0219  0.0281  0.2220
   54SOL    HW1  161   2.783   1.022   1.696  3.0924 -0.6178 -2.9099
   54SOL    HW2  162   2.676   1.134   1.761 -0.4401  0.5488 -1.2237
   55SOL     OW  163   2.277   2.027   0.476 -0.5112  0.4565 -0.2578
   55SOL    HW1  164   2.377   1.999   0.497  2.7396 -3.9627  1.7208
   55SOL    HW2  165   2.219   2.004   0.557 -1.3547 -1.6012  1.6181
   56SOL     OW  166   1.809   0.022   1.520 -0.5900 -0.3028 -0.2172
   56SOL    HW1  167   1.858   0.068   1.444  0.9481  2.4453 -4.0533
   56SOL    HW2  168   1.779   3.018   1.489 -2.1717 -0.0772 -0.7714
   57SOL     OW  169   1.557   1.369   2.797 -0.0523 -0.0788 -1.3076
   57SOL    HW1  170   1.635   1.330   2.740  1.0033  1.7328 -2.5940
   57SOL    HW2  171   1.585   1.397   2.887 -2.6095 -0.6235 -0.0132
   58SOL     OW  172   0.165   0.497   1.237 -0.2678  0.0948  0.2768
   58SOL    HW1  173   0.131   0.504   1.335  0.9690  0.0502 -1.4005
   58SOL    HW2  174   0.134   0.403   1.205  1.6003 -1.1244  0.0872
   59SOL     OW  175   1.365   2.690   0.162 -0.2828 -0.1762 -0.3878
   59SOL    HW1  176   1.300   2.649   0.225 -0.9283  0.2261 -3.5025
   59SOL    HW2  177   1.314   2.737   0.090  2.1377 -2.6872  0.6851
   60SOL     OW  178   0.165   1.907   2.829  0.5117  0.4026  0.1094
   60SOL    HW1  179   0.266   1.873   2.823  3.1561 -1.8099  0.5407
   60SOL    HW2  180   0.157   2.007   2.825  1.7097  3.1266 -0.9934
   61SOL     OW  181   0.862   2.316   1.108  0.0709  0.0223  0.1997
   61SOL    HW1  182   0.921   2.303   1.186 -3.1420 -1.0230 -0.2507
   61SOL    HW2  183   0.835   2.411   1.105 -0.2802  0.3167  1.9480
   62SOL     OW  184   1.569   1.624   2.711  0.1201  0.2845  0.3607
   62SOL    HW1  185   1.670   1.620   2.726  0.8869  2.3594 -0.9012
   62SOL    HW2  186   1.526   1.533   2.723  1.1827  2.5052  0.6835
   63SOL     OW  187   2.144   1.833   0.171  0.0895  0.3460 -0.2968
   63SOL    HW1  188   2.066   1.885   0.128 -0.1297  1.2997  1.9197
   63SOL    HW2  189   2.156   1.868   0.263 -1.8624 -2.1404 -0.1140
   64SOL     OW  190   2.067   1.143   0.359 -0.0166  0.4613 -0.2456
   64SOL    HW1  191   2.082   1.206   0.281 -1.0530 -1.4683  1.0743
   64SOL    HW2  192   2.157   1.095   0.379  2.7088 -1.8358 -0.9643
   65SOL     OW  193   2.241   1.735   2.197 -0.1558 -0.1941  0.0381
   65SOL    HW1  194   2.196   1.685   2.120 -1.1325  2.1710 -1.5777
   65SOL    HW2  195   2.335   1.762   2.171  0.5073 -0.0937  0.4119
   66SOL     OW  196   0.428   1.040   1.583 -0.2063  0.3919  0.0625
   66SOL    HW1  197   0.385   1.097   1.512  0.6021 -1.4311  2.5584
   66SOL    HW2  198   0.361   1.027   1.660 -4.1726  0.1550 -0.0111
   67SOL     OW  199   2.024   0.029   2.564 -0.5893  0.1506  0.2820
   67SOL    HW1  200   1.927   0.027   2.598 -2.4147 -0.0079 -0.1464
   67SOL    HW2  201   2.034   0.060   2.469  0.7612 -1.6824 -0.0575
   68SOL     OW  202   1.450   2.211   1.544  0.0028  0.1699 -0.4920
   68SOL    HW1  203   1.406   2.235   1.454 -0.2442  0.1501  3.3036
   68SOL    HW2  204   1.434   2.286   1.609  1.4162  1.6803 -1.4644
   69SOL     OW  205   0.625   2.586   0.001 -0.1939  0.5158 -0.0054
   69SOL    HW1  206   0.643   2.516   0.071  2.7783  1.4995 -1.0742
   69SOL    HW2  207   0.700   2.584   3.023  1.8499 -3.6621  0.6033
   70SOL     OW  208   0.184   0.754   2.191 -0.0978  0.3871 -0.0913
   70SOL    HW1  209   0.146   0.710   2.109  2.1981  0.8820  3.3981
   70SOL    HW2  210   0.239   0.836   2.169 -2.6213 -1.9043 -1.4482
   71SOL     OW  211   0.799   1.178   2.573  0.1378  0.1733  0.3898
   71SOL    HW1  212   0.701   1.151   2.593 -0.6068 -0.5284 -1.7344
   71SOL    HW2  213   0.863   1.175   2.651 -1.6138  1.1021 -0.8904
   72SOL     OW  214   2.962   1.611   2.237  0.0549  0.5644 -0.0470
   72SOL    HW1  215   3.005   1.606   2.331  1.9199 -1.3683  2.1414
   72SOL    HW2  216   2.875   1.667   2.250  1.8753 -0.6612  1.2574
   73SOL     OW  217   1.597   1.693   0.392  0.0866 -0.6154 -0.6116
   73SOL    HW1  218   1.606   1.797   0.371  1.3682  0.8682  0.1873
   73SOL    HW2  219   1.508   1.681   0.436 -3.7828  0.8425  1.3164
   74SOL     OW  220   2.404   0.033   2.568  0.5897 -0.3729 -0.2725
   74SOL    HW1  221   2.358   0.121   2.587 -3.2178  1.9611  0.3371
   74SOL    HW2  222   2.354   3.077   2.494 -0.8025 -1.8103 -1.1150
   75SOL     OW  223   1.689   2.187   1.141  0.1415  0.4227  0.2001
   75SOL    HW1  224   1.758   2.258   1.149 -0.6077  0.1085 -0.5646
   75SOL    HW2  225   1.720   2.119   1.071 -1.5523  2.5060 -0.4887
   76SOL     OW  226   3.080   1.982   1.970 -0.2895  0.1041  0.1881
   76SOL    HW1  227   3.088   1.877   1.961 -0.2737  0.3094  2.6346
   76SOL    HW2  228   3.069   2.032   1.880  0.8655 -0.5753 -2.4342
   77SOL     OW  229   0.054   0.043   1.974 -0.6950  0.4174  0.2651
   77SOL    HW1  230   0.110   3.075   1.912 -0.4982 -0.9658 -0.0226
   77SOL    HW2  231   0.026   0.129   1.931  0.2538  1.6185 -0.2362
   78SOL     OW  232   2.435   1.023   0.169 -0.2164  0.4531  0.1044
   78SOL    HW1  233   2.449   1.088   0.094  0.0964 -0.1064  2.3452
   78SOL    HW2  234   2.508   0.957   0.164  1.6746  1.2137 -1.0094
   79SOL     OW  235   2.938   1.314   2.415 -0.0449 -0.2843  0.8087
   79SOL    HW1  236   2.918   1.374   2.495 -0.7713 -0.3413 -0.1313
   79SOL    HW2  237   3.009   1.245   2.438 -0.7800 -2.1904 -0.6978
   80SOL     OW  238   1.525   1.331   1.502 -0.2366  0.1184  0.3608
   80SOL    HW1  239   1.489   1.349   1.596 -0.7228 -1.5681 -0.8494
   80SOL    HW2  240   1.567   1.240   1.509  1.9550  2.6347 -1.4262
   81SOL     OW  241   2.103   1.033   1.788  0.0464 -0.4308 -0.8032
   81SOL    HW1  242   2.011   0.990   1.789 -0.9867  1.5976  1.2960
   81SOL    HW2  243   2.173   0.963   1.783  0.8017  2.5827 -3.1575
   82SOL     OW  244   1.679   1.622   1.678 -0.7660 -0.0221  0.5855
   82SOL    HW1  245   1.681   1.559   1.755 -1.0967 -0.2833  0.5056
   82SOL    HW2  246   1.762   1.603   1.619  0.7059 -0.6100  0.7253
   83SOL     OW  247   0.304   0.329   0.233 -0.2701 -0.3682 -0.1058
   83SOL    HW1  248   0.289   0.249   0.171 -0.7801  3.6238 -1.6695
   83SOL    HW2  249   0.379   0.311   0.299  0.3165 -0.4028 -1.7783
   84SOL     OW  250   0.022   0.909   3.002  0.0474 -0.1699 -0.4743
   84SOL    HW1  251   0.051   0.880   0.005  1.3137 -0.2134 -1.1079
   84SOL    HW2  252   0.070   0.990   2.962 -2.0866 -1.5354 -0.2072
   85SOL     OW  253   2.282   2.238   1.091 -0.0304  0.1248 -1.0145
   85SOL    HW1  254   2.268   2.168   1.013 -0.0764  0.4471 -1.5246
   85SOL    HW2  255   2.380   2.236   1.124  4.2278 -1.0003  2.1791
   86SOL     OW  256   0.453   2.468   1.341  0.3829 -0.1410  0.3190
   86SOL    HW1  257   0.537   2.515   1.373  0.8870  0.4762  0.5764
   86SOL    HW2  258   0.451   2.447   1.239  0.6235 -0.3622 -1.1599
   87SOL     OW  259   0.657   2.346   2.143 -0.0810  0.4006 -1.0264
   87SOL    HW1  260   0.701   2.433   2.166  1.1212 -1.9761 -0.3818
   87SOL    HW2  261   0.604   2.313   2.224  0.1264  0.6589 -0.8508
   88SOL     OW  262   0.128   1.967   0.314 -0.0479 -0.1723 -0.1353
   88SOL    HW1  263   0.068   2.016   0.249  2.5574  0.7292 -1.8092
   88SOL    HW2  264   0.166   1.880   0.273  1.0974  1.6843 -0.6973
   89SOL     OW  265   0.790   1.069   0.809 -0.1101 -0.1541 -0.1253
   89SOL    HW1  266   0.705   1.016   0.837  0.0406 -0.9010 -0.0912
   89SOL    HW2  267   0.846   1.025   0.739  0.4442  2.2319  2.4293
   90SOL     OW  268   0.180   1.390   2.151  0.2549 -0.2126  0.1165
   90SOL    HW1  269   0.179   1.492   2.131  0.4549  1.4728 -1.1065
   90SOL    HW2  270   0.080   1.355   2.146 -1.1076 -0.9784 -0.5210
   91SOL     OW  271   1.594   1.064   1.026  0.1766 -0.4931  0.1245
   91SOL    HW1  272   1.582   1.168   1.028  2.2818 -1.5694  1.9735
   91SOL    HW2  273   1.594   1.045   0.926  1.8195  0.4488 -0.2089
   92SOL     OW  274   2.009   1.151   0.938  0.5156 -0.2322  0.0061
   92SOL    HW1  275   1.928   1.215   0.956 -0.8844 -0.3487 -1.8535
   92SOL    HW2  276   2.021   1.137   0.838 -0.6285 -1.0249 -0.2555
   93SOL     OW  277   2.763   0.716   2.290 -0.3317  0.0864 -0.0407
   93SOL    HW1  278   2.686   0.662   2.250  1.7652  0.4891 -2.5960
   93SOL    HW2  279   2.828   0.668   2.362  1.7108 -4.9877  2.6050
   94SOL     OW  280   2.261   1.797   2.808 -0.3016 -0.6126  0.0478
   94SOL    HW1  281   2.257   1.754   2.714 -1.6810 -0.5356 -3.5414
   94SOL    HW2  282   2.247   1.895   2.808  2.2578  0.1474  0.3008
   95SOL     OW  283   2.912   0.274   0.958 -0.4521 -0.0197  0.2249
   95SOL    HW1  284   2.916   0.315   0.868  1.8723 -1.0014 -0.3553
   95SOL    HW2  285   2.903   0.175   0.954 -1.1724  0.5513 -0.2080
   96SOL     OW  286   2.470   2.704   1.596  0.2290  0.0572 -0.0418
   96SOL    HW1  287   2.455   2.698   1.697 -2.7585  1.1057  1.9753
   96SOL    HW2  288   2.405   2.641   1.549  1.3005  0.1359  3.2799
   97SOL     OW  289   2.466   0.981   1.573  0.1020  0.4634 -0.0590
   97SOL    HW1  290   2.476   0.951   1.475 -0.3931  0.8278 -2.1289
   97SOL    HW2  291   2.554   1.010   1.616  2.6113 -3.2346 -1.1017
   98SOL     OW  292   1.794   2.582   1.831 -0.0777 -0.2491  0.2356
   98SOL    HW1  293   1.881   2.540   1.865 -1.4741 -0.9745 -0.3210
   98SOL    HW2  294   1.749   2.525   1.764  3.9374  1.0657  1.2068
   99SOL     OW  295   0.293   2.611   1.508  0.0239  0.3367  0.5295
   99SOL    HW1  296   0.347   2.553   1.442  1.6082 -0.6203  0.3535
   99SOL    HW2  297   0.353   2.644   1.588  3.5914  1.0499  2.7110
  100SOL     OW  298   1.736   0.314   2.652  0.4895  0.0464  0.5584
  100SOL    HW1  299   1.759   0.352   2.559 -0.1994  0.4294 -4.0646
  100SOL    HW2  300   1.779   0.372   2.729 -0.7711  0.3593  1.7647
  101SOL     OW  301   2.406   0.425   2.608  0.2230  0.3077  0.6824
  101SOL    HW1  302   2.360   0.350   2.558 -1.1168  0.2189 -3.0186
  101SOL    HW2  303   2.405   0.505   2.550 -0.1553 -1.4084 -2.5123
  102SOL     OW  304   0.459   0.827   1.408  0.2128  0.0152 -0.4455
  102SOL    HW1  305   0.412   0.748   1.444 -0.3547  0.2487  1.3643
  102SOL    HW2  306   0.466   0.904   1.469  0.9948 -2.4522 -2.1653
  103SOL     OW  307   0.959   1.023   2.732  0.3163 -0.3045 -0.4304
  103SOL    HW1  308   1.056   1.004   2.713  0.4953 -2.0648  1.0185
  103SOL    HW2  309   0.910   0.934   2.717  1.1310 -0.5878  0.9529
  104SOL     OW  310   0.303   0.814   2.609 -0.0337 -0.8860 -0.0855
  104SOL    HW1  311   0.223   0.783   2.665  0.1240  0.0732  0.1003
  104SOL    HW2  312   0.344   0.735   2.560  1.5491 -1.2271 -0.9847
  105SOL     OW  313   2.258   1.885   1.514 -0.2391 -0.3706  0.2380
  105SOL    HW1  314   2.216   1.923   1.597  3.3544 -1.9242 -0.2403
  105SOL    HW2  315   2.224   1.919   1.424 -1.0718  1.1507 -1.3181
  106SOL     OW  316   1.802   3.021   0.544  0.1727 -0.1171  0.2445
  106SOL    HW1  317   1.739   2.942   0.561  0.5376  0.4056  1.8079
  106SOL    HW2  318   1.890   3.000   0.592  0.3610  2.8474  0.9348
  107SOL     OW  319   1.983   2.159   1.106 -0.6593  0.4552  0.1963
  107SOL    HW1  320   1.978   2.060   1.077 -3.7038 -5.3216 -0.4911
  107SOL    HW2  321   2.076   2.195   1.109 -1.8806 -0.7045  2.1559
  108SOL     OW  322   2.707   2.654   1.476  0.3203 -0.2475 -0.0914
  108SOL    HW1  323   2.766   2.585   1.522 -0.2479  1.9871 -0.6231
  108SOL    HW2  324   2.618   2.670   1.520 -1.3638 -0.5959  1.4271
  109SOL     OW  325   2.001   2.384   0.911 -0.1027 -0.7448  0.1988
  109SOL    HW1  326   2.099   2.385   0.887  0.9524 -0.8864  0.4336
  109SOL    HW2  327   1.987   2.312   0.986  1.1374  0.0609 -0.4728
  110SOL     OW  328   0.971   1.743   1.908 -0.0676 -0.2387  0.1265
  110SOL    HW1  329   1.009   1.684   1.979  1.9414  1.3577  1.4285
  110SOL    HW2  330   1.045   1.775   1.847 -1.7821 -0.8182 -0.8245
  111SOL     OW  331   1.677   2.328   2.157  0.3238  0.0323  0.4281
  111SOL    HW1  332   1.647   2.283   2.069 -0.4685 -0.8441 -2.4843
  111SOL    HW2  333   1.594   2.362   2.208 -0.1668 -0.3348  2.1857
  112SOL     OW  334   1.665   1.685   2.383 -0.1823 -0.2629 -0.3907
  112SOL    HW1  335   1.733   1.732   2.329 -1.5035  0.5897  1.5882
  112SOL    HW2  336   1.692   1.673   2.481 -1.0441 -2.1517 -0.5019
  113SOL     OW  337   1.789   1.871   1.832  0.0848  0.0658 -0.4104
  113SOL    HW1  338   1.697   1.911   1.820 -0.3880  0.5379 -1.4975
  113SOL    HW2  339   1.796   1.807   1.906 -0.1787  2.3861 -2.3676
  114SOL     OW  340   2.894   1.125   1.452 -0.2403  0.3874  0.5102
  114SOL    HW1  341   2.828   1.183   1.504  0.2002  1.6208 -2.4090
  114SOL    HW2  342   2.856   1.037   1.418  2.2002  1.7211  0.2679
  115SOL     OW  343   0.827   0.734   0.146  0.6148 -0.9622 -0.2223
  115SOL    HW1  344   0.740   0.776   0.189 -1.1428  1.9675  1.5595
  115SOL    HW2  345   0.910   0.757   0.199 -0.5181 -0.7189 -2.0084
  116SOL     OW  346   2.757   1.788   2.267 -0.0133 -0.0143 -0.2951
  116SOL    HW1  347   2.776   1.861   2.206  0.2653 -2.0373  0.7129
  116SOL    HW2  348   2.724   1.824   2.359  2.3891 -1.7141  0.0301
  117SOL     OW  349   3.021   2.608   0.747  0.2843  0.5882 -0.2237
  117SOL    HW1  350   3.082   2.624   0.667  1.4990  0.4593  2.6354
  117SOL    HW2  351   3.047   2.526   0.799 -1.6998  0.5155 -0.7795
  118SOL     OW  352   0.722   1.744   2.848  0.3910 -0.1785 -0.3942
  118SOL    HW1  353   0.703   1.839   2.887  0.0441  1.6889  0.9082
  118SOL    HW2  354   0.817   1.722   2.868 -1.7901  0.1567 -3.0931
  119SOL     OW  355   0.614   1.981   0.435  0.5676  0.0053 -0.1486
  119SOL    HW1  356   0.665   2.025   0.511 -0.7740  1.9757 -1.9231
  119SOL    HW2  357   0.563   2.050   0.384  1.5411 -0.8570  0.2040
  120SOL     OW  358   1.165   0.587   0.142  0.4253 -0.4966  0.4080
  120SOL    HW1  359   1.104   0.642   0.199 -0.9129  2.0493  1.6602
  120SOL    HW2  360   1.131   0.492   0.131  0.4148 -0.5167 -1.7860
  121SOL     OW  361   1.457   2.460   0.694  0.1949 -0.3237  0.3266
  121SOL    HW1  362   1.467   2.369   0.741  0.9694  2.3225  1.3914
  121SOL    HW2  363   1.439   2.441   0.593  0.7121 -1.3969  1.6963
  122SOL     OW  364   2.866   2.337   1.874  0.7964  0.3253 -0.2096
  122SOL    HW1  365   2.942   2.316   1.809 -2.4154  1.2632 -1.0708
  122SOL    HW2  366   2.903   2.382   1.958 -0.7671  1.2567  0.7684
  123SOL     OW  367   0.638   1.654   0.842  0.7560  0.1451 -0.4052
  123SOL    HW1  368   0.630   1.562   0.803 -0.2528 -1.9238  2.5988
  123SOL    HW2  369   0.599   1.723   0.779  0.5088 -1.7338 -0.3269
  124SOL     OW  370   0.065   0.964   0.411  0.2640  0.2632  0.3209
  124SOL    HW1  371   0.020   0.915   0.484 -1.7065 -0.4283 -2.2113
  124SOL    HW2  372   3.089   1.003   0.341 -2.6596  0.5585 -1.4935
  125SOL     OW  373   0.453   0.732   3.009 -0.4272 -0.5215 -0.4631
  125SOL    HW1  374   0.408   0.648   3.034  0.1516 -0.9660 -0.6377
  125SOL    HW2  375   0.435   0.808   3.075  0.3532 -0.6588 -2.1236
  126SOL     OW  376   2.834   2.015   0.582 -0.8341 -0.8275 -0.6419
  126SOL    HW1  377   2.735   2.025   0.548 -1.9892 -0.4073 -1.7127
  126SOL    HW2  378   2.848   2.076   0.661 -3.2868  1.9835  2.2809
  127SOL     OW  379   1.421   2.407   1.915  0.0181 -0.1333 -0.6052
  127SOL    HW1  380   1.328   2.371   1.901  1.0060 -1.1173  1.3892
  127SOL    HW2  381   1.487   2.333   1.919 -3.3408  1.2086 -0.7147
  128SOL     OW  382   1.116   1.252   0.111 -0.0043  0.1079  0.3597
  128SOL    HW1  383   1.081   1.172   0.057 -0.1503 -1.0368  1.3850
  128SOL    HW2  384   1.039   1.290   0.170 -3.6250  0.5631  0.1770
  129SOL     OW  385   1.948   1.817   1.605 -0.1032  0.3107 -0.0062
  129SOL    HW1  386   1.930   1.899   1.547  0.6843 -1.7665  0.1883
  129SOL    HW2  387   1.888   1.821   1.688 -1.3720  1.7948 -2.7430
  130SOL     OW  388   2.296   1.642   1.638 -1.0349 -0.1015 -0.3367
  130SOL    HW1  389   2.295   1.662   1.738  1.3803  2.7693  0.6804
  130SOL    HW2  390   2.286   1.733   1.594 -1.6456 -0.3822 -1.1266
  131SOL     OW  391   2.780   3.017   2.840  0.0807 -0.2231 -0.0143
  131SOL    HW1  392   2.715   3.080   2.793  0.3248 -1.3204 -1.2073
  131SOL    HW2  393   2.792   2.936   2.780  1.1803 -2.1018 -0.8083
  132SOL     OW  394   2.502   2.109   0.725 -0.2096  0.1754 -0.3095
  132SOL    HW1  395   2.528   2.070   0.633  0.1872 -1.3029 -0.5578
  132SOL    HW2  396   2.569   2.183   0.742 -0.6336 -2.1145  2.1612
  133SOL     OW  397   0.478   0.321   2.316  0.2163 -0.4623  0.1010
  133SOL    HW1  398   0.477   0.383   2.232 -0.4932  0.0184 -0.4310
  133SOL    HW2  399   0.542   0.246   2.301 -0.1836  2.1200 -0.4017
  134SOL     OW  400   2.963   2.024   2.988  0.4740 -0.2413 -0.3783
  134SOL    HW1  401   3.005   1.933   2.976  3.2703 -0.8401  0.5161
  134SOL    HW2  402   2.861   2.022   2.984 -1.1364  2.0958 -1.3032
  135SOL     OW  403   1.482   0.856   2.128 -0.2549  0.0132  0.0803
  135SOL    HW1  404   1.392   0.894   2.143 -0.4636 -0.1853  0.7891
  135SOL    HW2  405   1.549   0.935   2.132  1.0540  1.3860  0.1601
  136SOL     OW  406   2.393   1.761   0.712 -0.0534  0.2327  0.0338
  136SOL    HW1  407   2.496   1.751   0.705  0.9718 -0.0407  1.3927
  136SOL    HW2  408   2.371   1.758   0.812 -0.2472 -0.8823 -0.9334
  137SOL     OW  409   2.650   1.695   0.727  0.1075  0.1506 -0.3404
  137SOL    HW1  410   2.631   1.602   0.757 -0.4778  1.2314 -0.4844
  137SOL    HW2  411   2.725   1.735   0.782 -2.1177  2.0625  1.7595
  138SOL     OW  412   2.743   0.636   0.964 -0.1592 -0.5778 -0.3688
  138SOL    HW1  413   2.640   0.635   0.955  0.7076 -2.3773  1.5637
  138SOL    HW2  414   2.787   0.591   0.880  1.3176 -1.6319  1.4261
  139SOL     OW  415   0.332   2.532   2.983 -0.0412 -0.1014 -0.0631
  139SOL    HW1  416   0.413   2.539   3.044 -1.4420 -0.5928  0.2201
  139SOL    HW2  417   0.350   2.537   2.882  1.2230  0.4436  0.4587
  140SOL     OW  418   0.724   1.880   1.486  0.6542 -0.3104  0.3928
  140SOL    HW1  419   0.731   1.902   1.587  1.5593  0.3647  0.4645
  140SOL    HW2  420   0.738   1.965   1.434  1.1539 -0.5972  2.6881
  141SOL     OW  421   1.017   2.040   0.624  0.0904 -0.0236  0.1560
  141SOL    HW1  422   1.086   1.992   0.683  1.6364  0.6719 -1.0338
  141SOL    HW2  423   0.924   2.060   0.664 -1.4446 -0.6140  0.7398
  142SOL     OW  424   1.066   0.684   0.948  0.0003  0.5128  0.4328
  142SOL    HW1  425   1.034   0.780   0.942  0.3339 -0.7943 -0.5245
  142SOL    HW2  426   0.986   0.623   0.951  2.3472 -1.7407  0.6576
  143SOL     OW  427   0.871   1.185   2.924 -0.1585  0.5982 -0.5140
  143SOL    HW1  428   0.922   1.105   2.887 -1.4990  2.3102  1.1437
  143SOL    HW2  429   0.910   1.276   2.900 -0.2447 -1.9798 -2.6344
  144SOL     OW  430   1.857   2.536   0.726  0.0704 -0.8755 -0.3879
  144SOL    HW1  431   1.773   2.578   0.764  0.5229  0.1164 -0.7665
  144SOL    HW2  432   1.902   2.487   0.805  0.2400 -0.4009  1.1337
  145SOL     OW  433   1.835   0.697   2.686 -0.0030  0.0075  0.3251
  145SOL    HW1  434   1.766   0.752   2.630 -1.2741  1.7734 -1.5897
  145SOL    HW2  435   1.896   0.755   2.746 -0.1244  0.3028  1.1297
  146SOL     OW  436   0.039   2.883   0.780 -0.2569  0.0121 -0.2344
  146SOL    HW1  437   0.134   2.882   0.809 -1.0607  0.4189 -0.1948
  146SOL    HW2  438   3.083   2.802   0.819  0.0772  0.0179  1.5097
  147SOL     OW  439   1.390   0.720   1.903  0.2607 -0.2841 -0.2490
  147SOL    HW1  440   1.447   0.753   1.821  0.6753 -1.6766 -0.3162
  147SOL    HW2  441   1.412   0.777   1.986  0.7411 -0.1662  2.6250
  148SOL     OW  442   1.180   0.581   2.045 -0.6468 -0.0302  0.2877
  148SOL    HW1  443   1.255   0.632   2.000 -1.4381  0.9255  2.4599
  148SOL    HW2  444   1.214   0.503   2.105  2.0287 -0.7588 -0.1448
  149SOL     OW  445   1.588   0.067   2.259 -0.5185 -0.0909  0.2105
  149SOL    HW1  446   1.594   0.158   2.219  0.3617 -1.1819 -1.8093
  149SOL    HW2  447   1.587   0.001   2.177 -1.2993  1.9138  1.4369
  150SOL     OW  448   2.659   3.082   0.147  0.2189  0.6697  0.2770
  150SOL    HW1  449   2.735   3.037   0.100  1.2781  1.4373  1.5214
  150SOL    HW2  450   2.650   0.092   0.125 -1.1944  3.2974 -1.7745
  151SOL     OW  451   0.623   1.272   2.969  0.7406 -0.5810  0.1637
  151SOL    HW1  452   0.708   1.240   2.933 -0.3833 -0.3943  3.1831
  151SOL    HW2  453   0.562   1.193   2.993  0.9849  0.0180 -0.6992
  152SOL     OW  454   3.014   0.285   0.677  0.1466 -0.2831  0.6502
  152SOL    HW1  455   3.075   0.211   0.712 -1.0876 -2.3237 -1.0992
  152SOL    HW2  456   3.031   0.295   0.578 -0.5413 -1.0566 -0.2177
  153SOL     OW  457   2.452   0.303   1.614 -0.0602 -0.3958 -0.1740
  153SOL    HW1  458   2.392   0.218   1.600  1.1996 -3.7797  0.6174
  153SOL    HW2  459   2.543   0.284   1.577 -1.1182 -2.1020 -0.5584
  154SOL     OW  460   1.616   0.344   2.124 -0.0880  0.4399 -0.0960
  154SOL    HW1  461   1.628   0.308   2.026  0.5503 -1.6709 -1.3573
  154SOL    HW2  462   1.614   0.446   2.132 -2.2856  0.0370  2.0122
  155SOL     OW  463   3.050   1.835   0.525 -0.4524 -0.1709 -0.0898
  155SOL    HW1  464   0.013   1.881   0.450 -0.8066 -0.3270  1.0242
  155SOL    HW2  465   2.964   1.888   0.532 -1.3800 -0.5583 -0.4214
  156SOL     OW  466   2.803   1.756   2.911  0.2579  0.3974 -0.6554
  156SOL    HW1  467   2.905   1.765   2.941  0.2620  2.4091 -0.2638
  156SOL    HW2  468   2.747   1.714   2.985 -1.0927  1.1667 -0.4759
  157SOL     OW  469   0.826   0.264   0.595 -0.1038  0.3766 -0.2747
  157SOL    HW1  470   0.866   0.315   0.516 -1.6750 -0.2921 -0.8027
  157SOL    HW2  471   0.825   0.168   0.570  0.6744  0.7565 -0.5724
  158SOL     OW  472   2.259   0.682   1.574  0.1991  0.3023 -0.1989
  158SOL    HW1  473   2.300   0.616   1.507  0.2324  0.4613  0.6456
  158SOL    HW2  474   2.159   0.691   1.560 -0.0810 -0.2993 -0.9115
  159SOL     OW  475   3.090   0.290   0.347 -0.0864  0.5295 -0.0961
  159SOL    HW1  476   3.020   0.219   0.369 -0.4103 -2.3498  1.0003
  159SOL    HW2  477   0.072   0.261   0.275  1.3360  1.9987  2.0483
  160SOL     OW  478   2.022   2.007   1.905 -0.3207 -0.1179 -0.4211
  160SOL    HW1  479   2.006   2.090   1.961  0.3708 -2.3018  1.2845
  160SOL    HW2  480   1.939   1.974   1.864  1.2629 -1.5014  2.3579
  161SOL     OW  481   2.982   0.631   2.472  0.4263  0.2076  0.1143
  161SOL    HW1  482   2.943   0.651   2.565 -1.9069 -0.5075 -2.0050
  161SOL    HW2  483   2.997   0.533   2.450  1.2594  0.7312  0.6263
  162SOL     OW  484   1.025   2.704   1.345 -0.0888  0.1868 -0.0238
  162SOL    HW1  485   1.029   2.625   1.409  0.9415 -0.2688 -1.3196
  162SOL    HW2  486   1.015   2.791   1.399  0.5067  0.2745 -1.8163
  163SOL     OW  487   2.465   0.126   2.287 -0.4372  0.1122 -0.2983
  163SOL    HW1  488   2.542   0.064   2.271 -2.4399  3.0225 -0.3816
  163SOL    HW2  489   2.500   0.220   2.295  0.9301 -0.2995 -2.2914
  164SOL     OW  490   2.385   1.860   0.043  0.0760 -0.3138  0.1638
  164SOL    HW1  491   2.291   1.853   0.084  1.7505  3.1829 -2.6049
  164SOL    HW2  492   2.411   1.770   0.003 -0.6725 -1.7434  0.2648
  165SOL     OW  493   0.048   0.273   1.110 -0.2321 -0.1331  0.0337
  165SOL    HW1  494   0.127   0.244   1.046  2.6459 -1.7955 -1.2564
  165SOL    HW2  495   3.053   0.296   1.058 -1.6194 -0.8214 -0.0574
  166SOL     OW  496   2.236   0.815   0.472 -0.3603  0.2819  0.5403
  166SOL    HW1  497   2.226   0.800   0.573  0.5249  1.4257  0.0308
  166SOL    HW2  498   2.295   0.895   0.458 -0.7424 -0.6028  2.8849
  167SOL     OW  499   2.598   0.919   2.951 -0.3503 -0.6036  0.6482
  167SOL    HW1  500   2.525   0.899   2.882  0.2791  0.4018  0.1182
  167SOL    HW2  501   2.586   1.020   2.977 -2.1338  2.4913  1.2309
  168SOL     OW  502   1.860   0.149   2.894 -0.1411  0.4942  0.6747
  168SOL    HW1  503   1.949   0.105   2.917  0.5851  0.6093 -1.7820
  168SOL    HW2  504   1.828   0.116   2.803 -0.5659  3.0801 -1.4322
  169SOL     OW  505   0.173   1.525   0.806  0.0860 -0.3863 -0.4105
  169SOL    HW1  506   0.080   1.516   0.842 -0.0272  0.6996 -1.7104
  169SOL    HW2  507   0.240   1.465   0.856 -0.2949  0.1126 -1.9014
  170SOL     OW  508   0.074   0.770   1.145 -0.4154  0.6947  0.1001
  170SOL    HW1  509   0.076   0.836   1.222 -1.0333 -0.8008 -1.9763
  170SOL    HW2  510   0.105   0.677   1.176 -0.3069 -0.1273  0.1765
  171SOL     OW  511   2.523   2.098   1.955  0.2050 -0.0039  0.0678
  171SOL    HW1  512   2.593   2.064   1.889  0.4293  2.1163  0.2826
  171SOL    HW2  513   2.445   2.028   1.948 -2.7190  1.9926 -0.8385
  172SOL     OW  514   0.299   2.233   1.499  0.4400  0.5516  0.0892
  172SOL    HW1  515   0.201   2.198   1.497 -1.2137  1.6278  0.8475
  172SOL    HW2  516   0.300   2.335   1.482 -1.6290 -1.1820  0.1804
  173SOL     OW  517   1.308   1.413   3.057  0.6672  0.4661 -0.6176
  173SOL    HW1  518   1.263   1.372   0.052 -3.4631 -0.8360  0.4117
  173SOL    HW2  519   1.264   1.497   3.024 -0.5621  1.0319  1.2450
  174SOL     OW  520   1.427   0.608   2.883  0.5681 -0.4585 -0.2120
  174SOL    HW1  521   1.493   0.678   2.843  1.0152  0.3437 -0.2235
  174SOL    HW2  522   1.414   0.620   2.983  1.6039 -0.0405  2.9949
  175SOL     OW  523   1.304   1.897   1.240 -0.1106 -0.5456 -0.3799
  175SOL    HW1  524   1.387   1.861   1.288  1.2860  0.8477  0.9984
  175SOL    HW2  525   1.229   1.829   1.241  1.2374  2.2288  0.2788
  176SOL     OW  526   1.612   3.056   0.219  0.3853 -0.1147 -0.6454
  176SOL    HW1  527   1.596   3.067   0.118  2.2073 -0.1461 -2.1718
  176SOL    HW2  528   1.709   3.076   0.232  0.0937 -1.1213 -1.6886
  177SOL     OW  529   0.414   1.100   3.048  0.1653 -0.1244 -0.1130
  177SOL    HW1  530   0.357   1.185   3.057  2.2375 -1.2111 -1.8797
  177SOL    HW2  531   0.398   1.031   0.032 -0.1215 -0.2465  0.6046
  178SOL     OW  532   2.315   2.239   2.201 -0.6733 -0.0912 -0.1955
  178SOL    HW1  533   2.338   2.291   2.289 -0.1980 -0.0737  2.5005
  178SOL    HW2  534   2.345   2.298   2.125 -1.2187  0.1732  0.4967
  179SOL     OW  535   2.798   0.001   2.495  0.0456  0.3784 -0.2994
  179SOL    HW1  536   2.751   0.043   2.570  1.1056  0.5234 -1.8702
  179SOL    HW2  537   2.753   3.083   2.403  0.6798  2.7205 -1.3789
  180SOL     OW  538   1.936   0.698   0.770 -1.1353 -0.2472 -0.1099
  180SOL    HW1  539   2.034   0.697   0.749 -4.3856 -0.4245  0.8790
  180SOL    HW2  540   1.929   0.697   0.871 -0.3133 -2.0691 -3.0186
  181SOL     OW  541   2.049   1.190   2.222  0.2900 -0.0187 -0.0865
  181SOL    HW1  542   2.087   1.254   2.296 -0.0807  2.8015  1.8710
  181SOL    HW2  543   2.000   1.113   2.258  1.3365  1.0811  0.1696
  182SOL     OW  544   2.733   2.392   2.142  0.0593  0.0959  0.6685
  182SOL    HW1  545   2.824   2.418   2.108  0.3825  0.2637 -1.2572
  182SOL    HW2  546   2.746   2.307   2.200 -0.0643  0.8323  1.4617
  183SOL     OW  547   1.985   0.646   1.683  0.3242  0.0945  0.0733
  183SOL    HW1  548   1.900   0.599   1.725  0.3443 -2.9528  0.9958
  183SOL    HW2  549   2.067   0.626   1.740  0.1005 -0.9382  1.7353
  184SOL     OW  550   3.039   1.602   1.347 -0.0288  0.7508  0.8460
  184SOL    HW1  551   3.045   1.539   1.263  1.8000 -0.2552 -2.6136
  184SOL    HW2  552   0.044   1.630   1.373  3.3979  3.6187 -2.4616
  185SOL     OW  553   2.460   3.048   0.856 -0.8262  0.9058 -0.3058
  185SOL    HW1  554   2.539   0.008   0.902  2.3342  0.0011 -1.0402
  185SOL    HW2  555   2.503   2.967   0.808 -0.5496 -0.5193 -0.5541
  186SOL     OW  556   2.876   2.517   2.703  0.6041 -0.2892  0.1892
  186SOL    HW1  557   2.855   2.421   2.665 -1.0962 -1.4161 -0.6123
  186SOL    HW2  558   2.926   2.506   2.788 -3.9018 -1.3247 -3.3011
  187SOL     OW  559   2.878   1.509   0.658 -0.5210 -0.1109  0.5508
  187SOL    HW1  560   2.893   1.569   0.572  1.0515  0.9752  0.0008
  187SOL    HW2  561   2.805   1.439   0.644  1.7791 -3.4017  1.0856
  188SOL     OW  562   2.439   1.192   1.124  0.2282 -0.2742 -0.7105
  188SOL    HW1  563   2.502   1.242   1.189  1.7537  1.9539 -0.4794
  188SOL    HW2  564   2.338   1.214   1.142 -2.0653  0.9912 -2.4328
  189SOL     OW  565   3.012   0.371   2.443 -0.0634 -0.1339 -0.0510
  189SOL    HW1  566   2.941   0.372   2.525 -0.4169  0.2655  1.4374
  189SOL    HW2  567   3.057   0.284   2.449 -1.9713 -0.9767 -2.2126
  190SOL     OW  568   1.579   0.749   1.686 -0.0112  0.1878  0.4204
  190SOL    HW1  569   1.663   0.802   1.700  0.2515  1.5562 -2.6042
  190SOL    HW2  570   1.582   0.732   1.588 -1.5358  0.9999  2.0158
  191SOL     OW  571   0.704   0.361   2.120 -0.3927  0.2195  0.4710
  191SOL    HW1  572   0.752   0.268   2.129 -1.2789 -0.4624  0.4630
  191SOL    HW2  573   0.763   0.438   2.141  1.1575 -0.5474 -1.2507
  192SOL     OW  574   1.514   1.979   1.890  0.4887 -0.1985  0.1710
  192SOL    HW1  575   1.482   1.924   1.975  0.4744  4.5283  2.5564
  192SOL    HW2  576   1.445   1.971   1.817  1.7599 -0.6501  0.5479
  193SOL     OW  577   1.430   0.281   0.884 -0.0650  0.0178  0.4555
  193SOL    HW1  578   1.373   0.365   0.905  1.0500  1.9992  2.2206
  193SOL    HW2  579   1.464   0.244   0.974 -0.5307  1.6688 -2.8575
  194SOL     OW  580   0.693   2.122   1.328 -0.2964  0.4133 -0.2941
  194SOL    HW1  581   0.589   2.125   1.332 -0.2766  0.8528 -1.1920
  194SOL    HW2  582   0.725   2.069   1.247 -1.3041  0.5469  2.3051
  195SOL     OW  583   1.609   0.545   0.327 -0.2476 -0.3826  0.8787
  195SOL    HW1  584   1.651   0.635   0.338  0.5600 -3.1389  0.0213
  195SOL    HW2  585   1.620   0.513   0.230 -2.0239 -0.0570 -1.8279
  196SOL     OW  586   0.371   1.427   1.747  0.5452 -0.2612  0.4184
  196SOL    HW1  587   0.384   1.527   1.746 -2.4779  2.1500 -1.4371
  196SOL    HW2  588   0.277   1.402   1.715 -1.3496  1.9468 -1.2379
  197SOL     OW  589   0.962   0.279   1.737 -0.2785  0.3242 -0.1034
  197SOL    HW1  590   0.962   0.278   1.635 -1.6212  1.1110  3.3592
  197SOL    HW2  591   1.022   0.353   1.773  0.9817  0.0454 -0.5865
  198SOL     OW  592   1.115   1.291   1.046  1.2218  0.1897 -0.5353
  198SOL    HW1  593   1.021   1.314   1.017 -0.7767 -2.5912 -3.1765
  198SOL    HW2  594   1.151   1.197   1.014  1.8970 -1.7472  1.8870
  199SOL     OW  595   0.098   2.309   1.745  0.0606 -0.9683 -0.5847
  199SOL    HW1  596   0.066   2.407   1.728 -1.6691 -0.8529 -2.0206
  199SOL    HW2  597   0.193   2.292   1.712 -0.4130  0.1200 -0.6251
  200SOL     OW  598   1.734   1.201   1.827 -0.2714  0.3421  0.5306
  200SOL    HW1  599   1.762   1.302   1.828  0.8807 -1.1374  1.0915
  200SOL    HW2  600   1.656   1.190   1.885  3.7883  0.2580 -3.9671
  201SOL     OW  601   0.714   1.766   2.080  0.3910  0.3322  0.3228
  201SOL    HW1  602   0.794   1.753   2.022 -0.6490  0.4214 -2.2121
  201SOL    HW2  603   0.647   1.694   2.060  1.3208  0.0939  2.2820
  202SOL     OW  604   1.217   0.089   0.224  0.4331  0.4669  0.1957
  202SOL    HW1  605   1.279   0.071   0.302 -0.2235 -1.2596  1.9881
  202SOL    HW2  606   1.249   0.031   0.144  0.3268  0.6138  1.9135
  203SOL     OW  607   1.313   3.034   2.327  0.3681  0.2899  0.1979
  203SOL    HW1  608   1.292   2.984   2.412  2.2331  0.5697 -0.6562
  203SOL    HW2  609   1.390   0.006   2.344 -3.5965 -0.4794  0.6424
  204SOL     OW  610   0.769   1.839   1.757 -0.3059 -0.1570 -0.0047
  204SOL    HW1  611   0.752   1.932   1.800  0.1577  1.2810  3.0699
  204SOL    HW2  612   0.862   1.811   1.791  0.1736 -0.1581 -2.0794
  205SOL     OW  613   1.666   1.352   2.456 -0.8293 -0.0340  0.6568
  205SOL    HW1  614   1.677   1.371   2.354 -1.9410  1.9186 -1.7204
  205SOL    HW2  615   1.729   1.413   2.512 -1.0502  0.8083 -0.1104
  206SOL     OW  616   0.320   1.709   2.411  0.6958 -0.2047 -0.1139
  206SOL    HW1  617   0.415   1.721   2.443 -2.0282  1.5294 -0.3915
  206SOL    HW2  618   0.274   1.630   2.458 -2.9616 -0.4412  0.6148
  207SOL     OW  619   1.016   2.924   1.509 -0.0194 -0.0929 -0.5012
  207SOL    HW1  620   1.012   2.875   1.598  0.9887  0.0431 -0.8096
  207SOL    HW2  621   1.095   2.989   1.515  1.5574  1.4541  0.0618
  208SOL     OW  622   0.463   2.557   1.842  0.3058  0.1286  0.6850
  208SOL    HW1  623   0.476   2.495   1.921  2.0961 -3.0171  0.7937
  208SOL    HW2  624   0.526   2.527   1.770 -0.5668  0.1530  3.7948
  209SOL     OW  625   1.361   2.857   0.521  0.5290 -0.0775  0.0231
  209SOL    HW1  626   1.386   2.861   0.619  0.2613  2.1100 -3.5580
  209SOL    HW2  627   1.410   2.925   0.474 -2.2162 -3.5568  0.9735
  210SOL     OW  628   2.740   0.977   0.953 -0.5747  0.4847 -0.7043
  210SOL    HW1  629   2.768   0.961   0.857 -1.7189  0.6998 -1.9016
  210SOL    HW2  630   2.639   0.983   0.951  1.3445  1.0222  0.5014
  211SOL     OW  631   0.449   0.142   1.850  0.1248 -0.1134 -0.1018
  211SOL    HW1  632   0.517   0.216   1.839 -2.0712 -2.2855  0.1099
  211SOL    HW2  633   0.358   0.176   1.818 -2.9122  0.2197  4.6427
  212SOL     OW  634   1.399   2.455   1.636 -0.3627  0.1879  0.0364
  212SOL    HW1  635   1.463   2.504   1.571  3.0276  1.8803 -0.6581
  212SOL    HW2  636   1.418   2.478   1.732  0.6038 -2.0975  0.5713
  213SOL     OW  637   2.986   0.261   1.523 -0.1815  0.2840 -0.3538
  213SOL    HW1  638   3.042   0.209   1.455  0.3995 -1.2759 -0.2088
  213SOL    HW2  639   2.894   0.279   1.491  0.3254  2.0289  0.3348
  214SOL     OW  640   0.829   2.582   1.834  0.1018 -0.1792  0.3053
  214SOL    HW1  641   0.766   2.550   1.762  0.0296  0.9099  0.3195
  214SOL    HW2  642   0.781   2.658   1.889  1.0227 -0.3222  1.8401
  215SOL     OW  643   2.610   1.567   1.606  0.0852  0.3674 -0.4907
  215SOL    HW1  644   2.509   1.579   1.589 -1.7073  1.9941  0.8713
  215SOL    HW2  645   2.655   1.652   1.643  2.3228  0.0060  1.9517
  216SOL     OW  646   0.352   0.957   2.152  0.0947 -0.7517 -0.0085
  216SOL    HW1  647   0.345   1.052   2.100 -2.3104  0.1145  0.5199
  216SOL    HW2  648   0.428   0.907   2.109  1.2101  0.9000  0.2579
  217SOL     OW  649   2.650   0.157   1.483 -0.4754  0.0889  0.1242
  217SOL    HW1  650   2.566   0.095   1.479 -3.6479 -2.5780  2.9694
  217SOL    HW2  651   2.731   0.121   1.432  0.4782  0.1436  1.7016
  218SOL     OW  652   1.439   2.288   1.084 -0.3908 -0.0362 -0.3637
  218SOL    HW1  653   1.419   2.265   0.987  2.7061 -2.4275 -0.2874
  218SOL    HW2  654   1.536   2.263   1.110 -0.8815  2.4563 -2.5316
  219SOL     OW  655   1.659   2.800   0.547 -0.2739  0.2674 -0.4951
  219SOL    HW1  656   1.599   2.756   0.620  2.2228  1.3899  0.5629
  219SOL    HW2  657   1.618   2.782   0.455 -1.1452  0.5466 -1.3010
  220SOL     OW  658   1.653   2.328   0.298 -0.1446 -0.0311 -0.5044
  220SOL    HW1  659   1.612   2.280   0.217 -0.3479 -0.8002 -0.6049
  220SOL    HW2  660   1.707   2.408   0.259  0.0840 -0.3409 -0.2924
  221SOL     OW  661   2.574   1.935   0.951 -0.3849  0.4111  0.7952
  221SOL    HW1  662   2.587   1.990   0.864  1.0597  2.5670  0.3974
  221SOL    HW2  663   2.658   1.883   0.976 -1.1187  0.7237  1.2935
  222SOL     OW  664   0.758   2.477   0.879  0.1806 -0.3731 -0.5391
  222SOL    HW1  665   0.672   2.424   0.863  2.1669 -3.7519 -0.7626
  222SOL    HW2  666   0.827   2.411   0.913 -1.5859 -0.2879 -0.0525
  223SOL     OW  667   1.156   2.782   3.077  0.2424  0.4377  0.1732
  223SOL    HW1  668   1.141   2.780   2.976  1.1286 -0.8383  0.8274
  223SOL    HW2  669   1.084   2.723   0.031 -0.4352 -2.7402  0.8680
  224SOL     OW  670   3.022   0.972   1.050  0.4217  0.6481 -0.0755
  224SOL    HW1  671   2.932   0.942   1.018  3.1687 -1.9336  0.9468
  224SOL    HW2  672   3.070   0.885   1.081  2.6830  0.7643 -0.6811
  225SOL     OW  673   2.912   1.809   0.812  0.5473  0.0120  0.1076
  225SOL    HW1  674   2.884   1.904   0.813  0.2965  0.0392  1.2512
  225SOL    HW2  675   2.996   1.791   0.758 -1.0503 -0.2285 -0.8066
  226SOL     OW  676   0.789   2.734   0.937 -0.5786 -0.4260 -0.2581
  226SOL    HW1  677   0.752   2.646   0.903 -1.0092  3.2801 -2.1856
  226SOL    HW2  678   0.843   2.782   0.862 -0.7146 -1.1234 -2.8278
  227SOL     OW  679   0.685   1.276   1.490  0.2169  0.5565 -0.1637
  227SOL    HW1  680   0.709   1.265   1.590 -0.1541  1.3061  1.3779
  227SOL    HW2  681   0.687   1.370   1.453 -2.1019 -1.4696 -3.2126
  228SOL     OW  682   1.400   0.235   1.955  0.2121 -0.4875 -0.7475
  228SOL    HW1  683   1.432   0.147   1.978 -3.6359  3.1723 -0.9402
  228SOL    HW2  684   1.348   0.269   2.035  3.1483  0.7500 -1.8859
  229SOL     OW  685   0.015   0.848   2.388  0.5515 -0.2164 -0.4183
  229SOL    HW1  686   3.047   0.768   2.403  1.2230 -0.0343 -0.9637
  229SOL    HW2  687   0.098   0.824   2.340 -0.1505  2.4398 -1.2873
  230SOL     OW  688   0.058   1.159   0.883  0.1603  0.3614  0.3295
  230SOL    HW1  689   0.016   1.163   0.787 -0.9680 -0.0374 -2.2262
  230SOL    HW2  690   0.002   1.101   0.945 -0.3915  0.1823 -0.0910
  231SOL     OW  691   1.496   0.223   2.614 -0.4204 -0.8950  0.1418
  231SOL    HW1  692   1.586   0.267   2.632  1.8152  0.3736  0.0852
  231SOL    HW2  693   1.507   0.131   2.574  2.8119  4.3335  2.7946
  232SOL     OW  694   0.388   1.466   3.022 -0.2617  0.2871  0.1091
  232SOL    HW1  695   0.423   1.476   2.928 -1.4166 -0.2164  0.0217
  232SOL    HW2  696   0.464   1.443   0.000 -0.2961 -1.7073 -0.0003
  233SOL     OW  697   1.368   2.373   2.969 -0.1448  0.1519  0.7196
  233SOL    HW1  698   1.409   2.291   2.924  2.2521  0.6727 -0.0706
  233SOL    HW2  699   1.328   2.436   2.901 -1.1173  0.6463 -1.1682
  234SOL     OW  700   1.048   1.506   2.052 -0.4537 -0.7234 -0.5369
  234SOL    HW1  701   0.957   1.471   2.070 -0.0514  1.6760 -1.2459
  234SOL    HW2  702   1.104   1.493   2.135 -3.1294 -1.4492 -0.1169
  235SOL     OW  703   0.419   2.333   2.041  0.0781 -0.4836  0.5253
  235SOL    HW1  704   0.426   2.249   1.981  1.3458  0.6747 -0.8979
  235SOL    HW2  705   0.511   2.342   2.086  0.6558 -0.1069  0.2306
  236SOL     OW  706   1.627   2.224   2.610 -0.1071  0.3582  0.0905
  236SOL    HW1  707   1.560   2.189   2.676  2.0009  0.8053 -0.5732
  236SOL    HW2  708   1.640   2.326   2.624  0.3206 -0.9615  0.2825
  237SOL     OW  709   1.453   0.689   0.635 -0.7237 -0.2382  0.3393
  237SOL    HW1  710   1.556   0.669   0.626  1.9645 -0.0603 -1.8006
  237SOL    HW2  711   1.402   0.622   0.579  1.9689 -3.1204 -0.0943
  238SOL     OW  712   1.041   0.153   2.520  0.5447 -0.3061  0.3930
  238SOL    HW1  713   1.011   0.061   2.488  1.5236 -0.4830 -2.5868
  238SOL    HW2  714   0.963   0.222   2.506 -0.3374  0.9340 -1.4922
  239SOL     OW  715   1.058   2.937   1.915 -0.3860  0.3015  0.2206
  239SOL    HW1  716   1.043   2.839   1.879  0.0230 -4.3183  1.5398
  239SOL    HW2  717   1.014   3.015   1.862 -2.0305  0.3264  0.4262
  240SOL     OW  718   2.098   2.690   0.724 -0.7004 -0.2294  0.1720
  240SOL    HW1  719   2.002   2.661   0.714  4.4056 -2.9136 -1.5202
  240SOL    HW2  720   2.131   2.664   0.815  0.5322 -0.5046 -3.1192
  241SOL     OW  721   1.610   1.459   1.897  0.0082  0.1237 -0.2914
  241SOL    HW1  722   1.526   1.409   1.862 -0.6765  0.2018 -0.2062
  241SOL    HW2  723   1.593   1.515   1.980  0.4708 -1.8097  0.3105
  242SOL     OW  724   2.627   0.568   0.331 -0.1438  0.3166  0.2510
  242SOL    HW1  725   2.650   0.566   0.234 -2.1992  2.8582 -1.3621
  242SOL    HW2  726   2.569   0.487   0.348  1.8091  1.3931 -0.9865
  243SOL     OW  727   0.768   0.942   1.147  0.7414 -0.2211 -0.7747
  243SOL    HW1  728   0.802   0.914   1.238  1.6488 -2.6482  1.3577
  243SOL    HW2  729   0.844   0.925   1.080 -1.4760  2.0918 -0.3147
  244SOL     OW  730   1.657   0.252   3.042  0.5471  0.2539 -0.3125
  244SOL    HW1  731   1.593   0.303   2.978 -0.7832  2.1356 -0.1490
  244SOL    HW2  732   1.740   0.217   2.989  3.0023 -0.1374 -1.8012
  245SOL     OW  733   2.130   0.060   2.894  0.1401  0.3668 -0.2244
  245SOL    HW1  734   2.231   0.089   2.907  1.5045  1.5678  0.7639
  245SOL    HW2  735   2.127   3.059   2.845 -1.0729 -0.6065 -0.8297
  246SOL     OW  736   1.122   1.082   1.374 -0.0925  0.1690 -0.0418
  246SOL    HW1  737   1.163   0.994   1.345  0.0878 -0.2947  3.0140
  246SOL    HW2  738   1.020   1.071   1.389  2.9947  0.6799  0.7547
  247SOL     OW  739   0.512   0.067   2.095 -0.5141 -0.7250 -0.1563
  247SOL    HW1  740   0.423   0.057   2.149 -1.1636 -1.0497  2.3099
  247SOL    HW2  741   0.496   0.091   1.996  0.2600 -0.6411 -1.9872
  248SOL     OW  742   0.156   1.653   1.794  0.1544 -0.5929  0.5054
  248SOL    HW1  743   0.092   1.641   1.874 -2.0576 -0.4212  2.6314
  248SOL    HW2  744   0.250   1.677   1.824  3.1713  1.2117 -1.0388
  249SOL     OW  745   2.939   0.161   2.838 -0.1963 -0.3169 -0.5787
  249SOL    HW1  746   2.888   0.073   2.830 -0.1477  2.9140  3.3986
  249SOL    HW2  747   3.008   0.148   2.911 -0.2246  1.8649 -1.0002
  250SOL     OW  748   2.916   0.104   0.380  0.3050  0.0114 -0.0894
  250SOL    HW1  749   2.870   0.030   0.435  4.1550 -0.8205  1.0677
  250SOL    HW2  750   2.941   0.063   0.289 -0.6542 -2.5002 -0.7782
  251SOL     OW  751   0.470   1.519   1.220  0.0512 -0.0691  0.2228
  251SOL    HW1  752   0.411   1.507   1.301 -1.2595  0.3485  0.2966
  251SOL    HW2  753   0.466   1.436   1.161 -3.4231 -0.3097  0.0996
  252SOL     OW  754   1.736   2.842   1.434 -0.4433 -0.2309  0.4576
  252SOL    HW1  755   1.785   2.810   1.350 -2.4286 -1.7616 -1.2784
  252SOL    HW2  756   1.644   2.859   1.406 -1.5908 -0.3889  0.0899
  253SOL     OW  757   2.328   1.698   2.569  0.6253  0.1589 -0.3521
  253SOL    HW1  758   2.382   1.784   2.551 -1.4305  1.4500 -1.8094
  253SOL    HW2  759   2.333   1.636   2.487 -1.7040  1.3028  0.3522
  254SOL     OW  760   0.858   1.954   2.226 -0.1315  0.1709  0.2285
  254SOL    HW1  761   0.797   1.884   2.181  0.4924  0.1398 -1.3811
  254SOL    HW2  762   0.829   1.966   2.325  0.5038 -0.9566  0.7548
  255SOL     OW  763   0.997   0.262   1.468 -0.4919 -0.4487 -0.2881
  255SOL    HW1  764   1.034   0.325   1.398 -0.3677 -2.3139  0.1935
  255SOL    HW2  765   0.941   0.190   1.422  1.0546  2.6000  1.8023
  256SOL     OW  766   2.318   2.200   1.370 -0.3190  0.5792 -0.6973
  256SOL    HW1  767   2.277   2.120   1.414  1.4881 -1.9804 -1.0946
  256SOL    HW2  768   2.287   2.215   1.271 -0.0559  1.6766 -2.7243
  257SOL     OW  769   0.629   2.349   2.863 -0.0492 -0.1567  0.1404
  257SOL    HW1  770   0.535   2.376   2.857  5.2714 -2.0075 -1.8072
  257SOL    HW2  771   0.689   2.429   2.875 -0.3518 -0.1096  0.0817
  258SOL     OW  772   0.554   1.562   2.780  0.1623  0.1014 -0.0989
  258SOL    HW1  773   0.636   1.623   2.803  0.5791 -0.5277 -0.6634
  258SOL    HW2  774   0.575   1.494   2.704 -0.9587  0.5871 -2.8318
  259SOL     OW  775   0.585   1.413   2.560 -0.6626  0.4960 -0.1126
  259SOL    HW1  776   0.580   1.312   2.550 -1.0873 -0.1957  3.1151
  259SOL    HW2  777   0.675   1.451   2.556 -1.7297 -0.8876  1.5079
  260SOL     OW  778   2.124   1.033   1.339  0.1161  1.0781 -0.3657
  260SOL    HW1  779   2.096   1.082   1.423  1.1200  0.5282 -0.1193
  260SOL    HW2  780   2.158   1.099   1.270 -0.9739  0.5080  1.4601
  261SOL     OW  781   1.198   0.785   0.700  0.0590  0.1021  0.2888
  261SOL    HW1  782   1.299   0.788   0.699  1.7733 -0.0577  0.3341
  261SOL    HW2  783   1.152   0.754   0.785  1.6786 -0.1600  0.4773
  262SOL     OW  784   1.862   2.110   2.615  0.3457  0.1632  0.4362
  262SOL    HW1  785   1.918   2.180   2.571 -0.6906  2.5403  1.6135
  262SOL    HW2  786   1.766   2.139   2.607 -1.3699 -0.3315  1.1110
  263SOL     OW  787   0.140   1.553   0.004 -0.4902 -0.3108 -0.2448
  263SOL    HW1  788   0.078   1.484   0.041  0.8602  0.4855 -0.5761
  263SOL    HW2  789   0.233   1.513   3.071  1.9666  0.3613  0.6645
  264SOL     OW  790   0.363   1.871   1.243 -0.3691  0.1809  0.3723
  264SOL    HW1  791   0.374   1.853   1.346  0.7544 -0.1143 -0.5864
  264SOL    HW2  792   0.431   1.819   1.186  1.4580  0.7587 -0.9400
  265SOL     OW  793   0.477   0.868   0.524 -0.2671 -0.3481 -0.3476
  265SOL    HW1  794   0.423   0.833   0.605 -2.6145 -1.2580  1.7542
  265SOL    HW2  795   0.497   0.969   0.533 -1.7435  0.1426 -0.6658
  266SOL     OW  796   1.352   1.723   0.128 -0.2091  0.0039 -0.5584
  266SOL    HW1  797   1.327   1.676   0.209  0.6192  1.8732 -0.9313
  266SOL    HW2  798   1.294   1.696   0.049  0.1567  0.9435  0.4658
  267SOL     OW  799   0.616   0.829   2.085 -0.1717 -0.6505  0.2096
  267SOL    HW1  800   0.619   0.826   1.984  0.8146 -1.7834 -0.1026
  267SOL    HW2  801   0.704   0.862   2.121 -1.5734 -0.9767 -0.1568
  268SOL     OW  802   0.636   0.922   2.878 -0.1278  0.1638 -0.6594
  268SOL    HW1  803   0.669   0.998   2.940 -1.0445  0.6189  2.4036
  268SOL    HW2  804   0.587   0.854   2.936 -1.8272 -0.1802  0.7075
  269SOL     OW  805   1.580   3.047   2.498 -0.5213  0.3767 -0.0859
  269SOL    HW1  806   1.608   0.003   2.410 -1.5758 -1.3935 -1.8203
  269SOL    HW2  807   1.518   2.969   2.474 -2.5742  0.4663 -1.5942
  270SOL     OW  808   1.092   1.437   2.360 -0.5075  0.4721  0.4923
  270SOL    HW1  809   0.990   1.406   2.364 -2.4180 -1.5065  3.1192
  270SOL    HW2  810   1.134   1.409   2.448 -3.9231  0.3562 -0.0373
  271SOL     OW  811   0.034   0.186   3.068 -0.4394 -0.2045  0.0224
  271SOL    HW1  812   0.029   0.289   3.054  1.1289  1.1753 -0.3713
  271SOL    HW2  813   0.126   0.158   0.004 -2.4901 -1.2478 -0.5116
  272SOL     OW  814   2.226   0.844   0.168  0.3185 -0.3783 -0.0969
  272SOL    HW1  815   2.212   0.822   0.270 -1.1093  0.6430 -2.1937
  272SOL    HW2  816   2.308   0.904   0.155  1.4196 -0.2137  0.5131
  273SOL     OW  817   0.263   0.038   2.178  0.2469  0.3501  0.7751
  273SOL    HW1  818   0.194   0.054   2.106  2.4709 -0.6283  0.4726
  273SOL    HW2  819   0.232   0.056   2.273  0.6112  0.7359  0.2938
  274SOL     OW  820   3.054   0.226   1.802  0.1867  0.5697 -1.1036
  274SOL    HW1  821   3.020   0.311   1.855 -2.7178  5.8833  2.0745
  274SOL    HW2  822   3.006   0.203   1.710  0.4076 -0.2365 -2.3808
  275SOL     OW  823   1.323   1.835   0.514  0.1142  0.5554 -0.4643
  275SOL    HW1  824   1.262   1.766   0.466 -0.6086  0.1960  0.1062
  275SOL    HW2  825   1.291   1.852   0.609  0.3609 -3.1238  0.3554
  276SOL     OW  826   0.704   0.960   2.388  0.4901 -0.6481  0.0516
  276SOL    HW1  827   0.754   1.024   2.452 -0.2662 -0.5597  0.7209
  276SOL    HW2  828   0.602   0.979   2.390 -4.6229  1.6697  0.8846
  277SOL     OW  829   1.880   2.481   2.313 -0.1048  0.9781  0.7632
  277SOL    HW1  830   1.834   2.442   2.226  0.8126 -2.5640 -1.1871
  277SOL    HW2  831   1.823   2.553   2.356  0.3148 -0.2050  1.4168
  278SOL     OW  832   1.862   2.936   2.233 -0.2022 -0.2142 -0.0929
  278SOL    HW1  833   1.947   2.910   2.182 -1.5101  2.4031  2.6212
  278SOL    HW2  834   1.866   3.039   2.237  0.4499 -0.6110  1.0316
  279SOL     OW  835   1.798   1.231   0.119 -0.3236 -0.4196 -0.0701
  279SOL    HW1  836   1.741   1.293   0.174  1.0479  0.6236  0.1270
  279SOL    HW2  837   1.893   1.261   0.129  1.1459  1.2215 -4.3634
  280SOL     OW  838   0.784   1.045   0.057 -0.4379 -0.4652  0.3453
  280SOL    HW1  839   0.832   1.113   3.087  1.2400  0.5024  1.2080
  280SOL    HW2  840   0.829   0.958   0.055  1.6094  0.3348  0.1166
  281SOL     OW  841   0.008   0.116   1.316 -0.1054 -0.2396 -0.3418
  281SOL    HW1  842   0.090   0.074   1.354  1.6939  2.1323  0.3204
  281SOL    HW2  843   0.029   0.168   1.230 -1.5995 -1.9868 -1.5874
  282SOL     OW  844   2.913   2.117   0.840  0.1656  0.2560  0.1797
  282SOL    HW1  845   2.959   2.100   0.929 -2.0925  1.6672 -1.7492
  282SOL    HW2  846   2.839   2.188   0.844 -2.1269  0.2951 -0.4626
  283SOL     OW  847   1.371   1.856   2.099  0.8405 -0.0778 -0.3165
  283SOL    HW1  848   1.412   1.761   2.120  0.8679 -1.9465 -0.9723
  283SOL    HW2  849   1.287   1.880   2.155  2.4255 -0.9138 -0.0021
  284SOL     OW  850   1.690   0.161   0.462  0.2998  0.4832  0.0536
  284SOL    HW1  851   1.737   0.072   0.481 -1.2014  0.7105 -0.7584
  284SOL    HW2  852   1.715   0.188   0.368  0.2502  1.6258  0.6574
  285SOL     OW  853   2.798   2.790   2.699 -0.2277 -0.3826 -0.1812
  285SOL    HW1  854   2.714   2.797   2.639  1.5793  1.0217 -0.7695
  285SOL    HW2  855   2.831   2.692   2.703 -0.3428 -0.9316 -0.5881
  286SOL     OW  856   2.230   2.503   1.170 -0.0664  0.0679  0.1402
  286SOL    HW1  857   2.274   2.523   1.259  0.7909 -0.4448 -1.6580
  286SOL    HW2  858   2.262   2.415   1.138  1.1657 -0.0919  1.2729
  287SOL     OW  859   0.445   1.336   0.676 -0.3520  0.6519  0.0397
  287SOL    HW1  860   0.383   1.332   0.756  2.2132 -1.3855 -0.1593
  287SOL    HW2  861   0.430   1.419   0.619  2.0571  1.0890  3.1731
  288SOL     OW  862   1.842   1.758   2.579  0.2142 -0.1123  0.2110
  288SOL    HW1  863   1.900   1.684   2.537  0.7964  1.8060  0.2148
  288SOL    HW2  864   1.888   1.847   2.578  1.1806  0.9992 -0.5229
  289SOL     OW  865   0.296   1.494   2.567 -0.5356  0.0781 -0.5209
  289SOL    HW1  866   0.397   1.498   2.583 -2.1564  1.3885  0.8321
  289SOL    HW2  867   0.254   1.485   2.659  2.0411 -1.1101  1.7050
  290SOL     OW  868   1.320   2.176   1.309  0.3035  0.7098 -0.3058
  290SOL    HW1  869   1.343   2.225   1.222  1.5483  0.7681  0.4411
  290SOL    HW2  870   1.300   2.076   1.285 -1.5235 -4.0531 -0.2079
  291SOL     OW  871   1.739   1.134   2.966 -0.0382 -0.6009 -0.0648
  291SOL    HW1  872   1.832   1.104   2.933  1.7775 -0.9001 -1.4733
  291SOL    HW2  873   1.745   1.182   3.058  0.1199 -0.0132  3.9554
  292SOL     OW  874   1.022   1.692   0.807 -0.3111 -0.4121  0.0512
  292SOL    HW1  875   0.977   1.617   0.756 -3.4123  2.3942  1.1528
  292SOL    HW2  876   1.087   1.659   0.880  3.1652  2.0418  0.0041
  293SOL     OW  877   1.841   2.865   0.920  0.7517 -0.0873  0.0090
  293SOL    HW1  878   1.926   2.922   0.916  0.1586  0.2178  2.4348
  293SOL    HW2  879   1.762   2.926   0.892  0.6435  1.8304 -0.0176
  294SOL     OW  880   2.698   1.226   2.782  0.4739 -0.3456 -0.2330
  294SOL    HW1  881   2.608   1.237   2.729 -0.3566 -0.7038 -0.6078
  294SOL    HW2  882   2.743   1.144   2.736  0.3125 -0.8724  0.9323
  295SOL     OW  883   1.659   2.113   2.362 -0.2457  0.5249  0.1557
  295SOL    HW1  884   1.646   2.163   2.452 -4.7141 -1.3690  0.8049
  295SOL    HW2  885   1.671   2.173   2.280 -2.0374 -1.4983 -4.4750
  296SOL     OW  886   1.750   0.564   1.837 -0.6660  0.5536 -0.0464
  296SOL    HW1  887   1.665   0.593   1.794  0.2532 -0.6313  0.3839
  296SOL    HW2  888   1.765   0.617   1.923 -0.6936 -2.3281  1.1096
  297SOL     OW  889   0.056   0.622   1.958  1.0197 -0.1749 -0.0228
  297SOL    HW1  890   3.076   0.556   1.965  1.1523  1.2022  0.5442
  297SOL    HW2  891   0.020   0.715   1.934 -0.1555  0.4841 -0.5595
  298SOL     OW  892   1.090   2.580   2.155 -0.3010 -0.0358  0.3197
  298SOL    HW1  893   1.049   2.529   2.075 -0.0433 -0.1663 -2.8272
  298SOL    HW2  894   1.136   2.512   2.222  0.4736 -2.2267  0.2524
  299SOL     OW  895   1.239   2.542   2.805 -0.1550 -0.3494 -0.6043
  299SOL    HW1  896   1.186   2.634   2.809 -3.6873  4.1753 -1.2215
  299SOL    HW2  897   1.311   2.545   2.737  0.8576 -2.5563 -0.3109
  300SOL     OW  898   2.769   1.008   2.658  0.6773  0.2548 -0.3706
  300SOL    HW1  899   2.700   0.931   2.653 -0.4372 -0.2437 -2.1832
  300SOL    HW2  900   2.862   0.969   2.642  0.6879  0.5438  0.0945
  301SOL     OW  901   1.717   0.921   1.451  0.4401  0.6046 -0.3624
  301SOL    HW1  902   1.786   0.848   1.426 -0.2944  1.4726  0.0643
  301SOL    HW2  903   1.744   1.019   1.422  1.4582  1.3562 -0.6424
  302SOL     OW  904   2.676   1.860   2.518 -0.1840 -0.5984  0.0918
  302SOL    HW1  905   2.684   1.782   2.587 -1.2848 -1.3758 -1.3181
  302SOL    HW2  906   2.584   1.894   2.506  1.2452  2.6822  0.3332
  303SOL     OW  907   0.117   2.884   2.421  0.2168 -0.0513 -0.2251
  303SOL    HW1  908   0.044   2.885   2.493 -0.3069  0.6724  1.7632
  303SOL    HW2  909   0.205   2.895   2.462 -0.9473 -1.8512 -1.0290
  304SOL     OW  910   0.163   0.854   1.396 -0.0552  0.3378  0.1082
  304SOL    HW1  911   0.251   0.819   1.358 -0.0107 -1.3176  2.2951
  304SOL    HW2  912   0.170   0.954   1.397  0.1566 -2.4016 -3.3219
  305SOL     OW  913   2.853   0.456   1.744 -0.2358 -0.3626  0.4766
  305SOL    HW1  914   2.888   0.458   1.646 -2.3781 -0.7526 -0.2569
  305SOL    HW2  915   2.806   0.366   1.746 -1.7427  1.2061 -1.2616
  306SOL     OW  916   2.387   1.427   1.401  0.5060 -0.4220 -0.2810
  306SOL    HW1  917   2.377   1.364   1.479 -1.3046 -0.6887 -1.6844
  306SOL    HW2  918   2.331   1.512   1.414 -0.0498 -0.4376  0.7814
  307SOL     OW  919   2.569   2.856   0.694 -0.0025  0.3481  0.1865
  307SOL    HW1  920   2.631   2.786   0.721 -1.7861  1.6942 -0.2051
  307SOL    HW2  921   2.476   2.809   0.681 -0.7532 -1.1313  1.1633
  308SOL     OW  922   2.609   1.901   1.275 -0.5933  0.0602  0.1421
  308SOL    HW1  923   2.533   1.845   1.246  0.8247  2.8307 -2.1181
  308SOL    HW2  924   2.700   1.854   1.265  0.4981 -0.3018  0.4941
  309SOL     OW  925   2.100   2.073   1.631 -0.5088 -0.3243 -0.1105
  309SOL    HW1  926   2.023   2.068   1.565 -2.2857 -1.5765 -1.0847
  309SOL    HW2  927   2.069   2.048   1.720 -2.8551  0.2722 -3.4192
  310SOL     OW  928   2.090   1.499   2.688  0.4028  0.8042 -0.0837
  310SOL    HW1  929   2.128   1.460   2.776 -0.4823  0.4049 -1.3644
  310SOL    HW2  930   2.090   1.600   2.690  0.6421  0.7857 -1.1284
  311SOL     OW  931   1.971   1.085   2.872  0.3864 -0.2703 -0.4516
  311SOL    HW1  932   1.936   1.114   2.785  0.2740  2.0591 -0.2812
  311SOL    HW2  933   1.999   0.991   2.876  1.9934 -0.5944 -0.7143
  312SOL     OW  934   1.231   2.367   2.273  0.1383  0.0428  0.1582
  312SOL    HW1  935   1.242   2.264   2.251 -0.7934 -2.1399 -0.1152
  312SOL    HW2  936   1.186   2.364   2.364  0.8390 -0.2338  0.8867
  313SOL     OW  937   0.487   2.931   0.880 -0.1559 -0.6143  0.2045
  313SOL    HW1  938   0.560   2.899   0.808 -0.8798 -1.1141 -0.7180
  313SOL    HW2  939   0.525   2.936   0.974 -1.7140 -0.0390  0.0374
  314SOL     OW  940   0.541   1.736   1.077  0.3389  0.4534 -0.3012
  314SOL    HW1  941   0.521   1.648   1.126 -0.9054 -0.6112 -0.1974
  314SOL    HW2  942   0.587   1.718   0.992  0.6252  3.1969 -2.0802
  315SOL     OW  943   0.798   2.607   2.245  0.2153  0.5812  0.2516
  315SOL    HW1  944   0.739   2.692   2.249  0.4068 -0.7595 -1.5575
  315SOL    HW2  945   0.892   2.615   2.204  0.3852 -1.2110 -0.3167
  316SOL     OW  946   3.055   2.055   1.049 -1.0083  0.2312  0.1491
  316SOL    HW1  947   3.024   2.069   1.143 -0.9311  2.3759 -0.7592
  316SOL    HW2  948   0.057   2.013   1.052  0.8266  2.4293 -1.8471
  317SOL     OW  949   2.003   0.719   0.383  0.4244  0.3427  0.1433
  317SOL    HW1  950   2.089   0.755   0.427  1.0954 -0.9480  0.7806
  317SOL    HW2  951   1.988   0.631   0.434 -0.1699  0.8588  0.3075
  318SOL     OW  952   2.609   2.478   2.993 -0.4919 -0.3089  0.4224
  318SOL    HW1  953   2.542   2.517   3.064 -1.9407 -0.8427 -0.4134
  318SOL    HW2  954   2.701   2.507   3.010 -4.6580 -3.8084 -0.2206
  319SOL     OW  955   1.567   1.734   3.071 -0.0877  0.4394 -0.3572
  319SOL    HW1  956   1.580   1.797   2.994  1.8707  0.1599 -0.7488
  319SOL    HW2  957   1.481   1.740   0.033  1.3226 -1.8467  1.5759
  320SOL     OW  958   0.500   2.311   2.604  0.0454 -0.2966  0.1522
  320SOL    HW1  959   0.417   2.252   2.622  0.2228 -0.4247 -1.0850
  320SOL    HW2  960   0.574   2.276   2.666  4.3357  0.3470  2.2270
  321SOL     OW  961   0.966   2.597   0.087 -0.5590 -0.1846  0.0550
  321SOL    HW1  962   0.971   2.496   0.120  1.8972 -0.2793 -0.4365
  321SOL    HW2  963   0.927   2.662   0.151 -0.8088  0.8179  0.5149
  322SOL     OW  964   2.028   0.365   2.299 -0.1771 -0.0512  0.1407
  322SOL    HW1  965   1.957   0.397   2.367 -3.7535 -0.8370  3.8453
  322SOL    HW2  966   2.092   0.433   2.270 -1.8123 -1.1811 -1.3051
  323SOL     OW  967   2.909   0.765   0.599  0.3975  0.4190  0.2969
  323SOL    HW1  968   2.912   0.695   0.672  0.0905 -1.4983 -1.7924
  323SOL    HW2  969   2.940   0.727   0.506  1.7847 -0.1353 -1.4239
  324SOL     OW  970   0.338   0.624   2.366 -0.0791 -0.1152 -0.0790
  324SOL    HW1  971   0.266   0.672   2.311  1.0009  0.9815  1.7400
  324SOL    HW2  972   0.423   0.608   2.313  1.3663  0.5323  2.2297
  325SOL     OW  973   0.611   2.974   2.354 -0.6556 -0.3215 -0.1714
  325SOL    HW1  974   0.661   3.038   2.289  0.6146  0.3459  0.3557
  325SOL    HW2  975   0.534   3.025   2.400  0.7026  1.3706  1.1597
  326SOL     OW  976   2.632   2.245   0.380  0.2308 -0.1517 -0.5729
  326SOL    HW1  977   2.571   2.283   0.307  1.5981 -0.3263 -3.0706
  326SOL    HW2  978   2.717   2.298   0.384  1.3196  2.5869  1.1171
  327SOL     OW  979   2.369   1.375   0.750  0.0232 -0.3468 -0.3561
  327SOL    HW1  980   2.361   1.275   0.772  0.6584 -0.5323  0.4637
  327SOL    HW2  981   2.342   1.392   0.653  2.4679  1.3249  1.7948
  328SOL     OW  982   0.402   1.982   2.258  0.0723  0.0017 -0.1088
  328SOL    HW1  983   0.369   1.894   2.296 -1.2179  0.1730  3.8580
  328SOL    HW2  984   0.320   2.041   2.241 -0.4204 -0.8455  1.4003
  329SOL     OW  985   2.821   2.422   1.549  0.1058  0.0764  0.2162
  329SOL    HW1  986   2.800   2.354   1.475 -1.6266 -0.3580  1.1111
  329SOL    HW2  987   2.770   2.405   1.635  1.0918 -0.2292 -0.6061
  330SOL     OW  988   2.440   1.173   1.885  0.3030 -0.1019 -0.5546
  330SOL    HW1  989   2.372   1.185   1.963 -1.9753  2.0308  3.0172
  330SOL    HW2  990   2.540   1.185   1.909  0.3050 -0.5584 -0.6033
  331SOL     OW  991   2.552   2.170   1.114 -0.2291 -0.3967 -0.1698
  331SOL    HW1  992   2.612   2.175   1.200  2.5552  2.5337  3.3651
  331SOL    HW2  993   2.547   2.078   1.068 -0.7059 -0.2029 -2.9469
  332SOL     OW  994   0.398   2.651   0.843  0.1278  0.1379  0.1443
  332SOL    HW1  995   0.391   2.707   0.763 -1.3739  1.8563  1.6576
  332SOL    HW2  996   0.363   2.693   0.929  0.5023 -0.5179  1.6048
  333SOL     OW  997   2.048   0.096   2.282 -0.0293 -0.7336 -0.3754
  333SOL    HW1  998   2.020   0.082   2.187  2.1647  0.4571  0.1045
  333SOL    HW2  999   2.058   0.197   2.303 -0.7331  0.4986 -0.1053
  334SOL     OW 1000   1.061   1.101   0.456 -0.3889 -0.2521 -0.0035
  334SOL    HW1 1001   1.089   1.202   0.474 -1.4885  1.7088  0.5967
  334SOL    HW2 1002   1.007   1.066   0.536  3.7834  1.9796 -0.0712
  335SOL     OW 1003   0.410   2.543   2.225 -0.4307 -0.5055  0.8293
  335SOL    HW1 1004   0.404   2.453   2.184 -3.0782  2.5722 -2.6059
  335SOL    HW2 1005   0.316   2.569   2.261 -1.4754  1.0991  0.9720
  336SOL     OW 1006   2.548   2.836   2.598  0.0335  0.5611  0.4067
  336SOL    HW1 1007   2.514   2.931   2.597 -0.6216 -1.7890 -0.5596
  336SOL    HW2 1008   2.522   2.785   2.513  0.8607 -0.2414 -0.9198
  337SOL     OW 1009   1.143   1.677   1.192 -0.2322 -0.3729  0.2231
  337SOL    HW1 1010   1.144   1.593   1.253 -1.9544  0.2415 -0.7969
  337SOL    HW2 1011   1.178   1.653   1.099 -2.4555 -0.5863 -0.4194
  338SOL     OW 1012   0.741   1.904   1.154  0.2483  0.5570 -0.7550
  338SOL    HW1 1013   0.816   1.830   1.155  1.6985 -0.8142  0.7661
  338SOL    HW2 1014   0.653   1.854   1.161  0.5611  0.1186  0.0535
  339SOL     OW 1015   0.051   1.120   1.683 -0.1408 -0.3517  0.1063
  339SOL    HW1 1016   0.022   1.085   1.590  1.1838  0.9319  0.0540
  339SOL    HW2 1017   3.056   1.155   1.734 -2.2531 -1.3813 -0.0965
  340SOL     OW 1018   1.520   3.081   1.992  0.0066 -0.7122  0.4331
  340SOL    HW1 1019   1.608   3.070   1.942  0.5546 -0.9743  2.3851
  340SOL    HW2 1020   1.452   3.008   1.964 -0.2393 -0.8144  1.9723
  341SOL     OW 1021   1.635   1.671   1.144 -0.7204  0.0840  0.1538
  341SOL    HW1 1022   1.601   1.736   1.214 -0.3629 -3.5628 -1.3369
  341SOL    HW2 1023   1.661   1.581   1.186 -0.0070  0.6629  1.0596
  342SOL     OW 1024   2.979   1.441   0.894 -0.5976  0.5885 -0.1153
  342SOL    HW1 1025   2.940   1.494   0.813 -0.1858 -0.9913  0.4330
  342SOL    HW2 1026   2.908   1.372   0.913  0.9691  2.1497  1.6018
  343SOL     OW 1027   3.011   0.751   1.484  0.6969 -0.1118 -0.0565
  343SOL    HW1 1028   2.978   0.659   1.473 -1.6531  2.9561  0.1639
  343SOL    HW2 1029   0.008   0.765   1.439 -2.7102 -3.5893  0.6901
  344SOL     OW 1030   1.798   0.287   0.998 -0.1086  0.5099 -0.2707
  344SOL    HW1 1031   1.745   0.369   0.986  1.4593 -2.3156 -2.1045
  344SOL    HW2 1032   1.845   0.289   1.088  2.5612 -2.0992 -0.7777
  345SOL     OW 1033   0.344   2.841   2.578 -0.3814 -0.2519  0.0126
  345SOL    HW1 1034   0.392   2.761   2.532 -1.2363 -3.2981 -1.5314
  345SOL    HW2 1035   0.413   2.912   2.582 -1.5383 -1.0753 -2.3884
  346SOL     OW 1036   2.372   1.542   0.350  0.0752 -0.6659  0.1878
  346SOL    HW1 1037   2.292   1.595   0.380  0.9124 -0.5172  0.1078
  346SOL    HW2 1038   2.455   1.577   0.398  0.2649 -0.7529  1.6349
  347SOL     OW 1039   1.971   0.097   1.742  0.0092 -0.4510 -0.4231
  347SOL    HW1 1040   1.976   0.196   1.721  2.0548 -0.3849 -0.5551
  347SOL    HW2 1041   1.922   0.043   1.671 -0.1698 -0.0366 -0.2669
  348SOL     OW 1042   1.082   1.217   1.617 -0.4980 -0.0938  0.0686
  348SOL    HW1 1043   1.081   1.160   1.533  1.6264 -2.0133  1.0798
  348SOL    HW2 1044   1.150   1.294   1.611  1.2512  0.3892 -0.4897
  349SOL     OW 1045   2.726   0.694   1.754  0.5252 -0.2717 -0.5712
  349SOL    HW1 1046   2.776   0.606   1.773  0.3639 -0.1450 -2.1298
  349SOL    HW2 1047   2.789   0.766   1.720  2.8330  2.5082 -0.9313
  350SOL     OW 1048   2.435   2.107   3.035  0.7634 -0.0409 -0.0709
  350SOL    HW1 1049   2.393   2.126   2.946  0.9161 -2.2838  0.0973
  350SOL    HW2 1050   2.398   2.018   3.070  2.5789  0.5172 -0.1464
  351SOL     OW 1051   0.629   2.998   1.753  0.6282 -0.4315 -0.4173
  351SOL    HW1 1052   0.693   2.982   1.832  2.7343  1.0689  0.4622
  351SOL    HW2 1053   0.563   3.075   1.766 -1.3954 -0.0455 -2.7346
  352SOL     OW 1054   1.994   2.413   1.900  0.7564 -0.2840 -0.2593
  352SOL    HW1 1055   2.094   2.423   1.883 -2.4352  1.2169  2.5757
  352SOL    HW2 1056   1.965   2.346   1.968  0.4789 -0.0153  1.1552
  353SOL     OW 1057   0.815   1.316   2.316  0.6422 -0.2872 -0.1090
  353SOL    HW1 1058   0.869   1.254   2.255  1.0622  0.5952  0.5982
  353SOL    HW2 1059   0.802   1.261   2.404 -0.6975 -1.6632 -0.6334
  354SOL     OW 1060   0.969   1.792   2.996 -0.2972  0.0074  0.0977
  354SOL    HW1 1061   0.959   1.888   2.957 -0.0054  1.6085 -1.2992
  354SOL    HW2 1062   0.975   1.798   0.008 -0.2857  1.0895  0.7905
  355SOL     OW 1063   2.054   3.040   1.002 -0.4562 -0.1083 -0.1038
  355SOL    HW1 1064   2.148   3.023   1.036 -0.9224  0.3331 -0.1313
  355SOL    HW2 1065   2.047   0.047   0.962 -2.6597 -0.9393 -0.0288
  356SOL     OW 1066   2.597   1.189   3.036  0.2790  0.3855  0.0210
  356SOL    HW1 1067   2.647   1.197   2.949 -1.4228  1.7219  2.6954
  356SOL    HW2 1068   2.543   1.277   3.056 -2.3205 -0.9358 -0.9532
  357SOL     OW 1069   2.899   0.069   2.081  0.1682  0.5546  0.3091
  357SOL    HW1 1070   2.991   0.023   2.062  2.4558 -1.3333  0.6224
  357SOL    HW2 1071   2.834   0.050   2.006 -0.3208 -0.2423 -0.0751
  358SOL     OW 1072   0.146   1.388   0.562 -0.1551  0.5179  0.0572
  358SOL    HW1 1073   0.075   1.316   0.580 -2.1651  0.3254  0.1774
  358SOL    HW2 1074   0.168   1.440   0.648  0.1859 -1.1965 -1.4960
  359SOL     OW 1075   2.591   0.347   2.792  0.0932 -0.2492 -0.4341
  359SOL    HW1 1076   2.544   0.397   2.715 -1.8783  1.4437  0.3975
  359SOL    HW2 1077   2.556   0.367   2.884  0.1827 -0.8020 -1.2680
  360SOL     OW 1078   1.391   0.898   1.075 -0.2523 -0.5843 -0.5803
  360SOL    HW1 1079   1.424   0.833   1.000  1.1609 -1.6194 -2.0347
  360SOL    HW2 1080   1.466   0.964   1.099 -1.3853 -2.1986 -2.8154
  361SOL     OW 1081   2.610   2.410   0.962  0.6152  0.7008  0.1332
  361SOL    HW1 1082   2.578   2.344   1.036 -0.1959 -2.8715  2.0801
  361SOL    HW2 1083   2.538   2.479   0.945 -0.0190 -0.3697 -1.2277
  362SOL     OW 1084   1.282   0.510   0.994 -0.1510 -0.2054  0.0230
  362SOL    HW1 1085   1.274   0.443   1.067  0.1682 -1.0552 -2.8628
  362SOL    HW2 1086   1.205   0.575   0.994  0.9201 -0.6391 -0.9298
  363SOL     OW 1087   2.002   1.873   0.511  0.3679  0.5577  0.0532
  363SOL    HW1 1088   2.083   1.817   0.538 -1.5080  1.8916  0.3515
  363SOL    HW2 1089   2.016   1.964   0.546  1.7156  1.2490  1.5026
  364SOL     OW 1090   0.424   0.512   1.131 -1.0632  0.3605 -0.2150
  364SOL    HW1 1091   0.330   0.509   1.165  3.7015  1.2094 -0.5906
  364SOL    HW2 1092   0.477   0.587   1.176  1.6702 -2.1347 -2.4263
  365SOL     OW 1093   0.236   2.914   0.983 -0.4313  0.1788 -0.0359
  365SOL    HW1 1094   0.324   2.920   0.933 -1.7537 -0.1221  1.4504
  365SOL    HW2 1095   0.226   2.999   1.036 -0.7227 -1.6293 -0.2335
  366SOL     OW 1096   2.853   1.574   0.212  0.8405 -0.0420  0.0303
  366SOL    HW1 1097   2.896   1.506   0.147  3.2913  1.7129  0.7305
  366SOL    HW2 1098   2.914   1.596   0.297  1.4913 -1.3599 -0.7718
  367SOL     OW 1099   2.391   2.375   2.414  0.0746 -0.1612  0.8454
  367SOL    HW1 1100   2.343   2.413   2.494 -1.1842 -1.6544 -1.1981
  367SOL    HW2 1101   2.482   2.414   2.409 -1.6837  0.1999  0.2391
  368SOL     OW 1102   2.191   1.678   0.538 -0.0219  0.1266  0.2769
  368SOL    HW1 1103   2.252   1.700   0.617  1.6198 -1.7569  1.8389
  368SOL    HW2 1104   2.130   1.593   0.544  0.2435  1.7642 -1.2538
  369SOL     OW 1105   1.449   0.924   0.124 -0.1857 -0.2650 -0.0130
  369SOL    HW1 1106   1.391   0.982   0.184 -0.5184  1.3636 -1.2658
  369SOL    HW2 1107   1.420   0.829   0.116  1.4351  0.3550 -2.4688
  370SOL     OW 1108   0.505   0.103   0.791  0.1852  0.6028 -0.3094
  370SOL    HW1 1109   0.495   0.167   0.868 -0.6412  1.4444  0.1665
  370SOL    HW2 1110   0.496   0.007   0.822  0.4442 -0.9545 -1.0245
  371SOL     OW 1111   2.841   1.415   2.648  0.1737 -0.0926 -0.2798
  371SOL    HW1 1112   2.922   1.439   2.704  3.1674 -2.3841  2.1705
  371SOL    HW2 1113   2.771   1.353   2.696 -1.6411  1.3438  1.3398
  372SOL     OW 1114   0.690   0.688   2.415 -0.0141 -0.3275 -0.0150
  372SOL    HW1 1115   0.599   0.648   2.409  0.5138 -0.3663 -1.0919
  372SOL    HW2 1116   0.683   0.791   2.403  1.0981  1.7382  0.4439
  373SOL     OW 1117   0.414   0.196   2.887 -0.3362  0.2384  0.1640
  373SOL    HW1 1118   0.338   0.214   2.824 -0.0318  0.8139  1.8938
  373SOL    HW2 1119   0.489   0.160   2.829  0.3358  0.5171  0.0201
  374SOL     OW 1120   1.202   1.652   2.989  0.2718  0.3741  0.3392
  374SOL    HW1 1121   1.247   1.688   2.907  1.7453 -2.3420 -0.1902
  374SOL    HW2 1122   1.107   1.693   2.989 -0.7277 -0.6198  0.8373
  375SOL     OW 1123   0.679   0.277   1.846 -0.5047  0.1959 -0.0278
  375SOL    HW1 1124   0.777   0.257   1.830 -1.0100 -0.0019 -2.8049
  375SOL    HW2 1125   0.674   0.309   1.941  0.8306 -2.7773 -3.0683
  376SOL     OW 1126   0.288   2.855   2.115 -0.0769  0.4530  0.0875
  376SOL    HW1 1127   0.256   2.946   2.144 -1.3750  0.9618  2.8308
  376SOL    HW2 1128   0.386   2.836   2.147  1.0386  0.7375  0.9724
  377SOL     OW 1129   2.618   2.249   2.846  0.4275 -0.4824 -0.1716
  377SOL    HW1 1130   2.631   2.347   2.891  0.2749  3.2304  1.0061
  377SOL    HW2 1131   2.606   2.178   2.917 -1.4206  3.1211  1.8240
  378SOL     OW 1132   1.996   0.386   0.209  0.2479  0.0322  0.0241
  378SOL    HW1 1133   1.909   0.331   0.224 -2.6316 -1.7428  1.0014
  378SOL    HW2 1134   2.051   0.348   0.130  1.8197  1.7081  2.9159
  379SOL     OW 1135   1.744   0.779   0.355 -0.0691  0.5490  0.2890
  379SOL    HW1 1136   1.833   0.726   0.372 -0.3224 -1.7884  1.3112
  379SOL    HW2 1137   1.751   0.838   0.268  1.9882  0.7018 -2.5780
  380SOL     OW 1138   2.758   2.025   1.813 -0.3306 -0.1584 -0.0797
  380SOL    HW1 1139   2.848   2.068   1.781  2.3034  2.9195  2.0764
  380SOL    HW2 1140   2.731   1.951   1.747  0.4298  2.0255  0.3274
  381SOL     OW 1141   2.697   1.196   1.963 -0.1551  0.5572  0.2531
  381SOL    HW1 1142   2.720   1.278   2.017 -0.2589  1.7812 -0.1239
  381SOL    HW2 1143   2.707   1.109   2.019 -1.8211 -2.0532  0.1426
  382SOL     OW 1144   2.840   2.233   2.684 -0.6328 -0.6125 -0.4382
  382SOL    HW1 1145   2.752   2.230   2.735  0.3439  0.4359  0.0924
  382SOL    HW2 1146   2.841   2.166   2.609 -1.7880 -1.3940  1.1902
  383SOL     OW 1147   1.248   1.012   2.869 -0.1765  0.3293  0.4336
  383SOL    HW1 1148   1.261   0.956   2.782 -1.0014  2.3047 -1.7856
  383SOL    HW2 1149   1.341   1.032   2.916  2.2246  0.9644  1.2360
  384SOL     OW 1150   1.804   1.909   2.283  0.7118  0.1163  0.2541
  384SOL    HW1 1151   1.771   1.989   2.332  1.0465 -1.8256 -0.6638
  384SOL    HW2 1152   1.896   1.891   2.319 -2.1767  2.4639 -0.1605
  385SOL     OW 1153   2.438   2.558   0.094  0.7106 -0.2408 -0.0999
  385SOL    HW1 1154   2.446   2.464   0.127  2.1316 -0.0421 -0.8368
  385SOL    HW2 1155   2.401   2.620   0.170 -0.2504 -0.0132  0.4555
  386SOL     OW 1156   1.742   1.383   0.624  0.5422  0.5524  0.2077
  386SOL    HW1 1157   1.756   1.284   0.588  1.0399  0.1006 -0.0996
  386SOL    HW2 1158   1.735   1.446   0.550 -1.6351 -1.2615 -0.5894
  387SOL     OW 1159   2.408   1.727   1.227 -0.0299 -0.3476 -0.1801
  387SOL    HW1 1160   2.325   1.687   1.268  0.6213  1.7199 -1.5454
  387SOL    HW2 1161   2.479   1.653   1.210 -0.4876 -1.2587 -1.0853
  388SOL     OW 1162   0.619   1.061   1.758 -0.4145 -0.1212 -0.3123
  388SOL    HW1 1163   0.549   1.061   1.677  1.0237  2.0931  0.9894
  388SOL    HW2 1164   0.611   1.145   1.815  1.1927  2.5078  0.3475
  389SOL     OW 1165   2.226   1.075   2.659  0.4569 -0.3058 -0.5059
  389SOL    HW1 1166   2.141   1.126   2.643 -0.9360 -1.7842 -0.7160
  389SOL    HW2 1167   2.300   1.144   2.679 -2.1620 -0.4084 -0.7945
  390SOL     OW 1168   0.759   1.480   3.089  0.4678  0.8131 -0.1654
  390SOL    HW1 1169   0.828   1.509   3.022 -4.8297  1.4607  3.1146
  390SOL    HW2 1170   0.698   1.414   3.054  1.0812  0.2761  1.1724
  391SOL     OW 1171   0.752   2.035   0.185  0.1711  0.5333 -0.2111
  391SOL    HW1 1172   0.736   2.080   0.095  0.9301  0.2152  0.4115
  391SOL    HW2 1173   0.673   2.025   0.249  0.7820 -2.3006  0.9721
  392SOL     OW 1174   2.756   2.693   2.118  0.6854  0.4588  0.2813
  392SOL    HW1 1175   2.818   2.705   2.037  2.0814  0.2612 -1.4379
  392SOL    HW2 1176   2.739   2.592   2.128  1.9553  0.8918  1.5487
  393SOL     OW 1177   1.543   2.244   0.064  0.5571 -0.6339  0.3820
  393SOL    HW1 1178   1.475   2.314   0.039 -1.2495  0.9753 -1.2525
  393SOL    HW2 1179   1.503   2.153   0.079  0.0433 -2.8190 -0.1544
  394SOL     OW 1180   0.867   0.337   2.467 -0.5184 -0.0213  0.0383
  394SOL    HW1 1181   0.838   0.419   2.525 -2.4570  1.3391 -0.1585
  394SOL    HW2 1182   0.857   0.367   2.370 -1.8602 -2.0907 -0.0740
  395SOL     OW 1183   0.285   1.547   1.430  0.2667 -0.1429 -0.0320
  395SOL    HW1 1184   0.308   1.633   1.485  1.6045  0.8371  1.1816
  395SOL    HW2 1185   0.259   1.471   1.497 -0.3232 -0.1525  2.1455
  396SOL     OW 1186   2.056   1.333   2.950 -0.1130  0.0708  0.4467
  396SOL    HW1 1187   2.049   1.237   2.919  1.4753  2.2537  0.3580
  396SOL    HW2 1188   1.970   1.381   2.954  1.1508 -0.5798 -0.7202
  397SOL     OW 1189   0.168   0.594   0.169  0.1442 -0.9173 -0.6270
  397SOL    HW1 1190   0.226   0.525   0.125  2.4737  3.4451  1.0165
  397SOL    HW2 1191   0.216   0.611   0.255 -0.7971 -1.6580 -0.9546
  398SOL     OW 1192   0.987   2.652   0.447  0.0670 -0.3731 -0.3808
  398SOL    HW1 1193   1.086   2.636   0.448 -1.8848  3.5031 -0.9005
  398SOL    HW2 1194   0.965   2.735   0.391  0.4736  2.2360 -0.4484
  399SOL     OW 1195   1.997   2.301   2.468  0.3434  0.7128  0.4756
  399SOL    HW1 1196   1.939   2.379   2.433  0.7071 -1.4442  1.2464
  399SOL    HW2 1197   2.039   2.244   2.392 -0.3969  1.8970  1.2543
  400SOL     OW 1198   2.947   1.475   1.560 -0.2597 -0.0970 -0.1655
  400SOL    HW1 1199   2.883   1.399   1.533  1.3686 -3.4982 -2.8641
  400SOL    HW2 1200   2.978   1.527   1.476  0.1506 -2.5507 -0.4262
  401SOL     OW 1201   1.555   1.000   0.753  0.2969 -0.1809 -0.0160
  401SOL    HW1 1202   1.458   1.041   0.753  1.3284 -0.6472 -0.5124
  401SOL    HW2 1203   1.590   0.990   0.663  0.6141 -2.4905  1.0337
  402SOL     OW 1204   0.453   0.003   2.542 -0.1418  0.1908 -0.2038
  402SOL    HW1 1205   0.523   0.028   2.618  1.2250  0.1680  1.9199
  402SOL    HW2 1206   0.361   0.040   2.567 -1.3996  0.8713 -0.6634
  403SOL     OW 1207   2.876   1.634   1.782 -0.0426 -0.1399 -0.2793
  403SOL    HW1 1208   2.908   1.572   1.707  0.9190 -0.4541 -0.9566
  403SOL    HW2 1209   2.825   1.716   1.741  0.3105 -1.7853  0.1534
  404SOL     OW 1210   2.524   1.954   1.526 -0.2715  0.1596  0.7389
  404SOL    HW1 1211   2.426   1.924   1.532 -1.6693  0.5612  1.5084
  404SOL    HW2 1212   2.562   1.933   1.432  1.0939  0.6418 -0.3270
  405SOL     OW 1213   2.192   0.230   2.613 -0.0199  0.0623  0.3551
  405SOL    HW1 1214   2.134   0.147   2.592 -2.7544 -1.2972 -2.5056
  405SOL    HW2 1215   2.155   0.281   2.691  1.2157  0.6988 -0.4979
  406SOL     OW 1216   0.915   1.469   2.863 -0.1575 -0.4076 -0.6523
  406SOL    HW1 1217   1.018   1.480   2.869  0.6153  0.1739  0.1044
  406SOL    HW2 1218   0.876   1.476   2.764 -2.6083 -1.1998 -2.9385
  407SOL     OW 1219   1.751   2.010   0.906 -0.1444 -0.3573  0.3178
  407SOL    HW1 1220   1.677   2.034   0.841 -2.5191  0.1654  0.4851
  407SOL    HW2 1221   1.844   2.042   0.872 -0.0471 -0.3498 -0.9259
  408SOL     OW 1222   0.056   0.067   0.739 -0.0408 -0.1372  0.2429
  408SOL    HW1 1223   0.032   3.062   0.773  2.1117  1.3541  3.6821
  408SOL    HW2 1224   0.095   0.115   0.817  0.9895  0.4548 -0.0990
  409SOL     OW 1225   1.737   1.445   0.894  0.5257 -0.1953  0.0279
  409SOL    HW1 1226   1.818   1.507   0.902  0.1867 -1.4240  0.7735
  409SOL    HW2 1227   1.722   1.408   0.800 -0.9424  0.8125 -0.4747
  410SOL     OW 1228   2.132   2.184   0.095 -0.0603  0.1035  0.4539
  410SOL    HW1 1229   2.217   2.132   0.080  1.9607  2.0094  0.4102
  410SOL    HW2 1230   2.121   2.217   0.192 -1.7027  2.0092  2.1878
  411SOL     OW 1231   0.151   2.926   0.334 -0.0024  0.1546 -0.1710
  411SOL    HW1 1232   0.060   2.933   0.293 -0.9876  1.3181 -1.9777
  411SOL    HW2 1233   0.177   3.007   0.390 -0.8418 -2.1129  0.1537
  412SOL     OW 1234   1.444   2.882   0.789  0.2519  0.2856  0.2259
  412SOL    HW1 1235   1.382   2.866   0.869 -1.1440 -0.1583 -0.3824
  412SOL    HW2 1236   1.531   2.937   0.807  1.7336 -0.0700 -0.4046
  413SOL     OW 1237   1.728   0.404   2.386  0.3371  0.0127 -0.0077
  413SOL    HW1 1238   1.744   0.504   2.384  1.8793  0.8821  2.0616
  413SOL    HW2 1239   1.679   0.374   2.302 -0.5190  1.3900  1.9668
  414SOL     OW 1240   0.309   0.659   0.397 -0.5691 -0.4217  0.5410
  414SOL    HW1 1241   0.314   0.762   0.427  0.0138  0.0272  0.2215
  414SOL    HW2 1242   0.403   0.622   0.418  1.5960  0.3521  0.0982
  415SOL     OW 1243   3.038   1.177   1.223 -0.1805 -0.5915 -0.4235
  415SOL    HW1 1244   2.972   1.162   1.296 -0.7353  2.1899  1.4726
  415SOL    HW2 1245   3.022   1.119   1.143  1.6525 -0.5637 -2.6939
  416SOL     OW 1246   0.360   0.473   3.036  0.4221  0.2281 -0.2877
  416SOL    HW1 1247   0.327   0.425   2.952  0.7434 -0.0807 -0.7852
  416SOL    HW2 1248   0.402   0.404   0.010 -0.4559 -1.3474  3.0672
  417SOL     OW 1249   2.423   0.338   0.915 -0.4103 -0.2487 -0.4812
  417SOL    HW1 1250   2.426   0.285   0.827  1.7717  0.4328  1.5559
  417SOL    HW2 1251   2.501   0.319   0.975 -1.3242 -0.1909 -1.2282
  418SOL     OW 1252   0.261   0.365   2.504  0.3352 -0.5646  0.7443
  418SOL    HW1 1253   0.341   0.346   2.447 -1.0001  1.2630  0.9984
  418SOL    HW2 1254   0.240   0.463   2.484 -1.2758 -1.3019  0.1224
  419SOL     OW 1255   0.315   0.809   0.766  0.1607  0.0092 -0.2414
  419SOL    HW1 1256   0.220   0.835   0.798 -3.3646 -2.2234  2.3541
  419SOL    HW2 1257   0.331   0.709   0.791  0.6000 -1.3386  0.6677
  420SOL     OW 1258   1.976   1.459   1.222 -0.5813 -0.1007 -0.0882
  420SOL    HW1 1259   1.887   1.439   1.261  0.9229 -2.2867 -2.5045
  420SOL    HW2 1260   1.971   1.505   1.129 -0.5359  1.1398 -1.2201
  421SOL     OW 1261   1.036   2.120   2.622 -0.4198 -0.0191 -0.4686
  421SOL    HW1 1262   0.988   2.032   2.619  0.9732  0.0086 -0.9657
  421SOL    HW2 1263   1.135   2.107   2.640 -1.6864  0.0073  2.4005
  422SOL     OW 1264   2.507   0.462   3.059  0.2357 -0.4152 -0.0845
  422SOL    HW1 1265   2.425   0.519   3.068  2.3890  1.5943  0.3529
  422SOL    HW2 1266   2.589   0.528   3.064 -1.5357 -0.2258 -0.0714
  423SOL     OW 1267   1.998   1.591   0.286  0.3115  0.3499  0.2082
  423SOL    HW1 1268   2.064   1.665   0.267 -0.0886 -0.2794 -0.0903
  423SOL    HW2 1269   1.906   1.606   0.241 -2.3703 -1.8360 -3.7042
  424SOL     OW 1270   0.852   1.017   1.648 -0.3735  0.0311 -0.8633
  424SOL    HW1 1271   0.761   1.027   1.694 -1.5944  0.7820 -1.9238
  424SOL    HW2 1272   0.908   1.101   1.675  4.1889  0.2518  0.8944
  425SOL     OW 1273   2.838   2.736   2.382 -0.1569 -0.4133  0.1141
  425SOL    HW1 1274   2.881   2.826   2.401 -0.9038 -0.5542  3.0884
  425SOL    HW2 1275   2.805   2.728   2.287  1.0335  2.3751 -0.1951
  426SOL     OW 1276   1.930   2.612   0.434  0.1600 -0.4342  0.2478
  426SOL    HW1 1277   1.892   2.561   0.356  1.3495 -1.8796  1.3314
  426SOL    HW2 1278   1.862   2.675   0.470  1.7029 -2.2041 -2.9010
  427SOL     OW 1279   0.697   0.545   3.090  0.4360 -0.3983 -0.0360
  427SOL    HW1 1280   0.773   0.592   0.053  0.5411  4.3682  1.9497
  427SOL    HW2 1281   0.630   0.610   3.050 -0.6446 -1.2180  0.5827
  428SOL     OW 1282   2.456   1.239   2.657  0.0186  0.6656 -0.2899
  428SOL    HW1 1283   2.477   1.212   2.563 -0.2976  2.9678  3.6448
  428SOL    HW2 1284   2.453   1.338   2.670  0.1711 -2.0366 -1.0974
  429SOL     OW 1285   2.762   0.219   0.620 -0.1764 -0.1101 -0.0325
  429SOL    HW1 1286   2.752   0.125   0.584 -0.8885  0.2663  3.0547
  429SOL    HW2 1287   2.851   0.251   0.653  1.5236  1.8301  0.8831
  430SOL     OW 1288   1.029   2.870   2.177  0.4224 -0.2581  0.0567
  430SOL    HW1 1289   1.045   2.766   2.180 -0.7898 -2.2600  0.8673
  430SOL    HW2 1290   1.011   2.915   2.089  2.0704  1.2352  0.9406
  431SOL     OW 1291   2.885   1.808   1.281 -0.2709  0.0900 -0.3651
  431SOL    HW1 1292   2.958   1.750   1.322 -1.3297 -1.3663 -0.6768
  431SOL    HW2 1293   2.867   1.774   1.183  1.5994  1.6255  0.3838
  432SOL     OW 1294   2.501   2.350   2.027 -0.1400 -0.4407  0.3461
  432SOL    HW1 1295   2.586   2.372   2.076 -1.3363  1.2120 -0.1707
  432SOL    HW2 1296   2.503   2.251   2.001  1.2179  0.7444  4.3082
  433SOL     OW 1297   1.437   1.994   0.145  0.4387  0.4884 -0.1954
  433SOL    HW1 1298   1.428   1.895   0.125  0.8399  0.8843 -0.2782
  433SOL    HW2 1299   1.340   2.018   0.167 -0.2268  0.2834 -2.7166
  434SOL     OW 1300   0.197   2.212   2.821 -0.1745  0.0578  0.3829
  434SOL    HW1 1301   0.204   2.205   2.920 -2.0177 -0.3679 -1.9057
  434SOL    HW2 1302   0.146   2.294   2.793  0.5706 -1.8112  1.7235
  435SOL     OW 1303   3.043   1.188   0.620  0.3320  0.0377 -0.2391
  435SOL    HW1 1304   3.087   1.146   0.542 -0.8186  2.0147  1.9752
  435SOL    HW2 1305   2.949   1.153   0.637  1.2479 -0.4120  3.2215
  436SOL     OW 1306   0.475   2.781   1.675 -0.2274  0.4869  0.1923
  436SOL    HW1 1307   0.486   2.724   1.761 -1.6914 -0.8348 -1.9300
  436SOL    HW2 1308   0.513   2.875   1.685 -0.1056  1.8513  0.5666
  437SOL     OW 1309   1.236   2.458   1.099  0.4856 -0.1554 -0.3856
  437SOL    HW1 1310   1.313   2.395   1.099 -0.0692 -0.2167  3.7854
  437SOL    HW2 1311   1.218   2.497   1.005 -1.6229 -3.9476 -1.6380
  438SOL     OW 1312   0.248   2.243   0.813  0.6578  0.0779  0.1007
  438SOL    HW1 1313   0.194   2.179   0.749 -0.4721 -0.4343 -0.0662
  438SOL    HW2 1314   0.192   2.315   0.860 -0.4933  1.3516  1.7071
  439SOL     OW 1315   1.011   2.741   1.736  0.2200  0.0408  0.0509
  439SOL    HW1 1316   1.072   2.672   1.696 -4.2872  1.2719  1.2281
  439SOL    HW2 1317   0.927   2.698   1.781 -1.5762 -0.3231  0.3124
  440SOL     OW 1318   2.070   2.877   2.038 -0.1165  0.0157 -0.1327
  440SOL    HW1 1319   2.075   2.805   1.966  0.1143  3.3694  1.2330
  440SOL    HW2 1320   2.132   2.957   2.028 -0.8391 -2.9371  2.4621
  441SOL     OW 1321   0.198   0.527   1.724 -0.1496  0.1923  0.3574
  441SOL    HW1 1322   0.246   0.615   1.702  0.8411  1.1612 -2.0216
  441SOL    HW2 1323   0.148   0.538   1.808  1.5726 -1.4251 -3.1458
  442SOL     OW 1324   1.777   2.309   0.551  0.1316 -0.3504 -0.2002
  442SOL    HW1 1325   1.781   2.402   0.589 -2.7508 -2.4984 -0.1139
  442SOL    HW2 1326   1.727   2.302   0.464 -1.2239  1.2307 -0.3658
  443SOL     OW 1327   0.103   0.746   2.777 -0.1632 -0.2615  0.0036
  443SOL    HW1 1328   0.079   0.645   2.766 -0.6277 -1.9229 -0.6506
  443SOL    HW2 1329   0.095   0.772   2.877  2.0438 -2.9958  4.0216
  444SOL     OW 1330   1.708   1.005   2.158 -0.0643 -0.3250  0.2269
  444SOL    HW1 1331   1.744   0.938   2.088 -1.9242 -1.5287  0.8531
  444SOL    HW2 1332   1.723   1.101   2.142  0.6110 -3.4215  1.4543
  445SOL     OW 1333   3.051   2.497   1.421 -0.2350  0.6757  0.3980
  445SOL    HW1 1334   0.023   2.539   1.492  2.4358 -1.1943 -0.6394
  445SOL    HW2 1335   2.961   2.481   1.461 -1.6157  1.1005 -1.1725
  446SOL     OW 1336   2.768   1.759   1.037 -0.1123 -0.0042 -0.3184
  446SOL    HW1 1337   2.695   1.684   1.041 -3.3349 -1.0537  0.6420
  446SOL    HW2 1338   2.844   1.751   0.964  1.4988  0.8054 -2.2940
  447SOL     OW 1339   0.305   1.095   0.309 -0.1281 -0.2676 -0.1236
  447SOL    HW1 1340   0.387   1.102   0.369  1.9033  2.8374  0.9022
  447SOL    HW2 1341   0.225   1.055   0.354  1.1095  1.1691 -0.7029
  448SOL     OW 1342   1.297   2.148   2.133 -0.3981  0.2363  0.3629
  448SOL    HW1 1343   1.288   2.198   2.044  1.4374 -0.7691  0.5170
  448SOL    HW2 1344   1.358   2.067   2.127 -2.0737  4.0637  0.0996
  449SOL     OW 1345   1.269   1.612   0.370  0.4511 -0.3072  0.3117
  449SOL    HW1 1346   1.344   1.554   0.410  0.7578  1.3101 -1.4341
  449SOL    HW2 1347   1.176   1.575   0.394 -1.8884 -3.6814 -0.5676
  450SOL     OW 1348   2.713   2.621   1.812  0.2743 -0.0586 -0.3160
  450SOL    HW1 1349   2.676   2.542   1.756 -0.9785 -1.2840  0.0394
  450SOL    HW2 1350   2.815   2.612   1.813  1.4542  0.1299  0.2557
  451SOL     OW 1351   2.019   0.772   2.407  0.4062  0.7357  0.2591
  451SOL    HW1 1352   2.096   0.838   2.418 -0.2539 -0.6153 -0.9044
  451SOL    HW2 1353   2.037   0.692   2.465 -0.3863  1.2881 -1.1799
  452SOL     OW 1354   1.723   0.592   0.655 -0.0682  0.2755  0.2950
  452SOL    HW1 1355   1.734   0.492   0.635  0.9885 -0.8695 -0.3493
  452SOL    HW2 1356   1.808   0.623   0.697  0.5972  0.4456 -2.8972
  453SOL     OW 1357   1.885   0.722   1.428 -0.1277  0.3071 -0.7921
  453SOL    HW1 1358   1.898   0.678   1.517  1.3386  2.2734 -2.6108
  453SOL    HW2 1359   1.918   0.663   1.351 -2.0100 -0.7650 -0.5554
  454SOL     OW 1360   3.025   1.581   0.416  0.0769  0.0298  0.1477
  454SOL    HW1 1361   0.009   1.514   0.439 -1.7768  0.8045 -0.3620
  454SOL    HW2 1362   3.046   1.666   0.461  0.4864 -0.5786 -1.3088
  455SOL     OW 1363   2.490   2.723   1.139  0.0500 -0.1181  0.1494
  455SOL    HW1 1364   2.582   2.700   1.186  1.8287 -2.2838  0.3579
  455SOL    HW2 1365   2.502   2.734   1.036 -0.6109 -0.8836 -0.5944
  456SOL     OW 1366   0.102   2.800   1.477  0.1842 -0.8951  0.6134
  456SOL    HW1 1367   0.174   2.729   1.481  0.5751  0.2939 -0.8769
  456SOL    HW2 1368   0.053   2.806   1.569 -1.5594 -2.5372 -0.4383
  457SOL     OW 1369   1.433   0.009   0.407  0.5450 -0.0184 -0.0799
  457SOL    HW1 1370   1.506   0.005   0.335  0.4327 -0.9493  1.0272
  457SOL    HW2 1371   1.458   0.074   0.480 -0.4230 -1.0781 -0.6714
  458SOL     OW 1372   2.348   2.685   0.627  0.3638 -0.1918 -0.0926
  458SOL    HW1 1373   2.248   2.674   0.650 -0.7377  1.5889 -1.2714
  458SOL    HW2 1374   2.362   2.652   0.534 -0.8350 -0.4872 -2.0918
  459SOL     OW 1375   2.262   0.645   2.794 -0.0389 -0.4537 -0.2226
  459SOL    HW1 1376   2.265   0.629   2.895 -0.8633  1.8349  0.5513
  459SOL    HW2 1377   2.311   0.563   2.755 -2.2647 -1.0726  0.9785
  460SOL     OW 1378   2.341   2.896   2.910  0.0147  0.1523  1.0726
  460SOL    HW1 1379   2.274   2.902   2.828 -1.9451  1.2675 -2.8543
  460SOL    HW2 1380   2.411   2.824   2.895  2.6822 -0.8396 -0.3130
  461SOL     OW 1381   0.929   1.836   0.191  0.2729 -0.1232  0.3579
  461SOL    HW1 1382   0.946   1.805   0.288  0.8343 -0.2720 -0.8991
  461SOL    HW2 1383   0.858   1.912   0.194 -0.1718  0.4916  2.6620
  462SOL     OW 1384   2.015   2.039   0.802  0.3622  0.4074 -0.3573
  462SOL    HW1 1385   2.116   2.042   0.833  4.4418  0.4973 -0.7776
  462SOL    HW2 1386   2.000   2.096   0.716  0.5473 -0.7932 -0.2361
  463SOL     OW 1387   2.570   1.049   0.580 -0.3505  0.1731  0.0303
  463SOL    HW1 1388   2.579   0.956   0.538 -0.4950 -0.3266  2.2985
  463SOL    HW2 1389   2.466   1.059   0.605 -1.0393  0.1621  2.3950
  464SOL     OW 1390   0.634   2.902   1.129  0.7082  0.1403 -0.6121
  464SOL    HW1 1391   0.607   2.868   1.220 -1.4243 -1.8292  2.4079
  464SOL    HW2 1392   0.657   2.818   1.078 -0.1673  3.4452  2.3701
  465SOL     OW 1393   2.470   1.426   0.060 -0.5595  0.7176 -0.0781
  465SOL    HW1 1394   2.439   1.433   0.158  2.2087 -1.9815  0.7101
  465SOL    HW2 1395   2.424   1.493   3.085 -0.5920  0.4081 -0.3933
  466SOL     OW 1396   2.066   0.348   2.828  1.0288 -0.2391 -0.1094
  466SOL    HW1 1397   1.981   0.396   2.860 -0.3197  0.2795  1.7566
  466SOL    HW2 1398   2.064   0.249   2.854  0.8053 -1.9717  0.4904
  467SOL     OW 1399   0.934   0.601   1.436 -0.2097  0.1897 -0.1416
  467SOL    HW1 1400   1.026   0.617   1.394  0.8540 -0.5108 -1.8004
  467SOL    HW2 1401   0.873   0.569   1.366  2.1489  2.4830  3.0562
  468SOL     OW 1402   0.338   1.046   2.761 -0.1744 -0.2541  0.8063
  468SOL    HW1 1403   0.374   1.025   2.855 -0.0318  1.6213  0.0143
  468SOL    HW2 1404   0.337   0.956   2.706  0.5172 -0.5747  1.0406
  469SOL     OW 1405   0.529   2.171   0.267  0.2100  0.5788  0.0903
  469SOL    HW1 1406   0.450   2.209   0.325 -1.8741  1.2080  0.8283
  469SOL    HW2 1407   0.600   2.243   0.247 -0.8641  0.6546  1.0329
  470SOL     OW 1408   2.635   1.451   2.450 -0.3171 -0.3119 -0.1075
  470SOL    HW1 1409   2.702   1.448   2.527 -0.1217 -1.5742 -2.1315
  470SOL    HW2 1410   2.682   1.452   2.360 -0.1561  0.3649  2.4446
  471SOL     OW 1411   2.730   0.984   2.133 -0.8368  0.0133  0.2088
  471SOL    HW1 1412   2.744   0.982   2.235  1.1576 -0.6355 -2.3866
  471SOL    HW2 1413   2.702   0.893   2.091  0.7338 -0.8840 -0.8829
  472SOL     OW 1414   0.681   2.872   0.682 -0.5895  0.1338 -0.2151
  472SOL    HW1 1415   0.675   2.872   0.580 -1.6658  0.4922  0.1368
  472SOL    HW2 1416   0.778   2.871   0.717  1.9397  2.1321  0.5958
  473SOL     OW 1417   0.822   3.072   3.055 -0.7800  0.9992 -0.0315
  473SOL    HW1 1418   0.731   3.043   3.090  1.8180  0.6058  0.3570
  473SOL    HW2 1419   0.825   3.037   2.960 -2.4157  5.2280  0.5762
  474SOL     OW 1420   1.842   0.089   2.100 -0.0680  0.3283 -0.3757
  474SOL    HW1 1421   1.804   0.173   2.141 -0.5236  0.8464 -0.2351
  474SOL    HW2 1422   1.777   0.063   2.023 -0.0482 -1.6783  1.0975
  475SOL     OW 1423   1.404   2.401   0.442 -0.5756  0.2746 -0.1054
  475SOL    HW1 1424   1.373   2.313   0.479  1.7196  3.4358 -0.4875
  475SOL    HW2 1425   1.487   2.392   0.377 -0.2928  0.7019 -0.9188
  476SOL     OW 1426   0.498   1.004   0.840  0.4444 -0.4602 -0.0044
  476SOL    HW1 1427   0.429   0.928   0.820 -0.0969 -3.5878 -0.1305
  476SOL    HW2 1428   0.444   1.087   0.808 -1.9671  0.0273  0.4407
  477SOL     OW 1429   1.551   2.493   1.237  0.1278 -0.2376  0.3939
  477SOL    HW1 1430   1.501   2.416   1.193  0.7109  0.9561 -0.0711
  477SOL    HW2 1431   1.597   2.551   1.163 -0.9011 -0.2787 -0.4576
  478SOL     OW 1432   0.562   1.744   2.521  0.0341  0.3393  0.8382
  478SOL    HW1 1433   0.645   1.733   2.461  0.2406 -0.2913 -0.3093
  478SOL    HW2 1434   0.568   1.676   2.598  3.1966 -3.1962  0.6454
  479SOL     OW 1435   2.886   3.061   1.019  0.6528  0.0771 -0.4469
  479SOL    HW1 1436   2.842   2.984   0.966  0.4777 -0.2456  0.5143
  479SOL    HW2 1437   2.923   3.028   1.109 -1.4556  1.8996 -0.4573
  480SOL     OW 1438   2.981   2.949   0.533 -0.2853  0.1454 -0.6946
  480SOL    HW1 1439   3.051   2.928   0.602  0.2224  0.7293 -0.6205
  480SOL    HW2 1440   3.008   2.903   0.446 -0.4504  0.1612  0.2347
  481SOL     OW 1441   2.415   2.575   0.884  0.3738 -0.2541 -0.4887
  481SOL    HW1 1442   2.397   2.598   0.788 -0.9254 -1.5947  2.8159
  481SOL    HW2 1443   2.363   2.643   0.946  0.0879  0.8878 -1.5562
  482SOL     OW 1444   1.357   2.094   2.592 -0.1231 -0.0907 -0.1663
  482SOL    HW1 1445   1.399   2.042   2.515 -1.9348 -2.5389 -1.0568
  482SOL    HW2 1446   1.359   2.199   2.585  0.6386  2.6818  2.0558
  483SOL     OW 1447   0.542   2.008   2.610 -0.7044 -0.4827 -0.3699
  483SOL    HW1 1448   0.529   1.911   2.585  1.5210  3.2995  0.1231
  483SOL    HW2 1449   0.457   2.058   2.594  0.9390 -3.8530  1.1760
  484SOL     OW 1450   0.801   1.381   1.994 -0.2334  0.2986 -0.4407
  484SOL    HW1 1451   0.827   1.294   2.042  1.4876 -4.2366 -1.2672
  484SOL    HW2 1452   0.824   1.376   1.893 -0.3467 -0.0706  1.1716
  485SOL     OW 1453   2.424   0.346   0.365  0.1802  0.7447  0.1705
  485SOL    HW1 1454   2.349   0.283   0.331 -0.0526 -0.7554  3.1703
  485SOL    HW2 1455   2.391   0.420   0.419  0.5596 -3.0335 -2.1454
  486SOL     OW 1456   1.626   3.040   0.923  0.0150 -0.0707  0.4332
  486SOL    HW1 1457   1.588   3.026   1.014  0.9312 -3.8748 -0.4268
  486SOL    HW2 1458   1.661   0.043   0.911 -0.8421  2.3687 -1.1633
  487SOL     OW 1459   0.437   2.053   0.857  0.1909  0.0668  0.3325
  487SOL    HW1 1460   0.376   2.133   0.843 -1.6026 -1.1542  2.6936
  487SOL    HW2 1461   0.526   2.080   0.897  0.1885  3.3104 -2.2032
  488SOL     OW 1462   2.722   1.347   0.306 -0.3358 -0.0592 -0.0899
  488SOL    HW1 1463   2.773   1.433   0.277  0.1033  2.7116 -1.1382
  488SOL    HW2 1464   2.757   1.266   0.252  1.3979  1.5698 -1.6886
  489SOL     OW 1465   1.486   3.041   1.166 -0.9167  1.0275  0.1553
  489SOL    HW1 1466   1.506   2.966   1.231  0.6787  1.2357  0.2593
  489SOL    HW2 1467   1.383   3.052   1.169  0.9512 -2.3855  3.8535
  490SOL     OW 1468   1.042   0.834   0.265  0.2728 -0.2226  0.1995
  490SOL    HW1 1469   1.131   0.824   0.315  0.2380  1.2178 -0.1157
  490SOL    HW2 1470   0.993   0.925   0.277 -1.2549 -0.3468 -0.8148
  491SOL     OW 1471   0.748   2.575   0.454  0.2920 -0.0493  0.6781
  491SOL    HW1 1472   0.847   2.585   0.442 -1.0595  0.9022 -2.2359
  491SOL    HW2 1473   0.696   2.650   0.401 -1.3357  1.4297 -1.0485
  492SOL     OW 1474   1.298   1.407   2.177 -0.2535  1.1629 -0.0865
  492SOL    HW1 1475   1.249   1.414   2.264 -1.8331 -3.6116  0.5851
  492SOL    HW2 1476   1.268   1.319   2.133  1.4485  0.9815 -1.4159
  493SOL     OW 1477   0.009   2.385   0.934 -0.7893 -0.2605  0.3206
  493SOL    HW1 1478   3.048   2.300   0.916  0.7613  0.2510 -1.3347
  493SOL    HW2 1479   0.060   2.380   1.022 -1.1825  0.0111  0.0982
  494SOL     OW 1480   2.711   2.006   2.958  0.5344  0.2699 -0.2833
  494SOL    HW1 1481   2.724   1.915   2.913 -2.0049 -0.3791  1.9808
  494SOL    HW2 1482   2.617   2.008   2.996  0.8391  2.8308 -0.2475
  495SOL     OW 1483   2.694   1.630   2.692  0.0426  0.2133  0.3979
  495SOL    HW1 1484   2.716   1.684   2.773  1.0097 -0.4362  0.2177
  495SOL    HW2 1485   2.757   1.548   2.686  0.2396  0.3183  1.3403
  496SOL     OW 1486   2.740   0.209   1.757  0.0599  0.3254 -0.3740
  496SOL    HW1 1487   2.715   0.195   1.662 -1.5290 -1.6225  2.5933
  496SOL    HW2 1488   2.717   0.123   1.810  2.2965 -0.8354 -0.4976
  497SOL     OW 1489   2.638   0.853   0.196  0.1525 -0.1511 -0.4974
  497SOL    HW1 1490   2.660   0.815   0.289 -0.8129  0.7069  0.2652
  497SOL    HW2 1491   2.665   0.787   0.124  1.0840 -0.9262  1.6534
  498SOL     OW 1492   0.102   2.388   2.629 -0.5039  0.2458 -0.2864
  498SOL    HW1 1493   0.058   2.471   2.585  1.8093  2.0869 -1.8705
  498SOL    HW2 1494   0.086   2.302   2.573 -0.2816 -1.2956 -0.0418
  499SOL     OW 1495   1.188   2.083   0.207 -0.3524 -0.1654  0.2174
  499SOL    HW1 1496   1.099   2.067   0.258 -1.4140  0.1255  0.2569
  499SOL    HW2 1497   1.167   2.112   0.111 -1.6406  2.0155  3.5948
  500SOL     OW 1498   1.277   3.049   0.003  0.3063 -0.0789  0.6666
  500SOL    HW1 1499   1.239   0.028   3.030 -1.0493  0.2190  1.5360
  500SOL    HW2 1500   1.242   2.959   3.060 -1.6408  0.7254 -1.9163
  501SOL     OW 1501   1.629   0.182   1.659  0.4537 -0.1740  0.4609
  501SOL    HW1 1502   1.552   0.125   1.700  1.5222 -2.2463 -1.7773
  501SOL    HW2 1503   1.686   0.116   1.600  2.0485 -0.7617  0.5165
  502SOL     OW 1504   2.855   0.295   2.212 -0.8107 -0.4702  0.8640
  502SOL    HW1 1505   2.929   0.314   2.281 -0.0394  1.0589  1.2290
  502SOL    HW2 1506   2.865   0.205   2.171  1.6600  0.3393  0.1158
  503SOL     OW 1507   2.417   1.938   2.489  0.1852  0.6404 -0.4680
  503SOL    HW1 1508   2.428   1.957   2.391  0.7056 -0.8879  1.8777
  503SOL    HW2 1509   2.422   2.030   2.534  1.0317  0.9101 -1.4447
  504SOL     OW 1510   1.363   0.583   1.571  0.4117  0.0309  0.2480
  504SOL    HW1 1511   1.439   0.590   1.505 -0.1625 -3.9264  2.6132
  504SOL    HW2 1512   1.386   0.522   1.648 -1.4446  0.3241 -1.5599
  505SOL     OW 1513   0.385   0.574   1.467  0.3629  0.2895  0.0944
  505SOL    HW1 1514   0.420   0.533   1.551 -3.2748 -0.1812  0.3962
  505SOL    HW2 1515   0.292   0.540   1.448  1.7561  0.0585  1.8402
  506SOL     OW 1516   0.435   0.956   2.410 -0.0895  0.5656 -0.1095
  506SOL    HW1 1517   0.380   0.915   2.489 -0.6049 -2.1704  0.2287
  506SOL    HW2 1518   0.375   0.967   2.327 -3.8393 -1.3069  2.9733
  507SOL     OW 1519   0.153   2.889   2.779  0.1524 -0.1103 -0.0483
  507SOL    HW1 1520   0.064   2.894   2.730  1.1191  0.5090  2.0431
  507SOL    HW2 1521   0.220   2.850   2.716  2.2841 -2.5215 -1.3668
  508SOL     OW 1522   1.599   0.629   1.443 -0.0078  0.0467  0.0779
  508SOL    HW1 1523   1.583   0.567   1.361 -0.5378 -0.3902 -1.2218
  508SOL    HW2 1524   1.675   0.689   1.423 -3.1475  3.5980  0.4690
  509SOL     OW 1525   1.123   1.841   1.669 -0.2781  0.0708 -0.4123
  509SOL    HW1 1526   1.210   1.899   1.659 -2.2105 -1.1829 -1.9467
  509SOL    HW2 1527   1.078   1.814   1.580  0.7766 -0.9870  0.8958
  510SOL     OW 1528   2.181   1.213   1.986 -0.0282  0.0666  0.1015
  510SOL    HW1 1529   2.106   1.205   2.057 -0.2336 -0.4764  0.8686
  510SOL    HW2 1530   2.156   1.166   1.905  0.0638  0.7760  1.9742
  511SOL     OW 1531   0.521   1.860   0.674 -0.1562 -0.7311 -0.1106
  511SOL    HW1 1532   0.545   1.902   0.586 -1.9456 -0.9959  0.4815
  511SOL    HW2 1533   0.482   1.929   0.745 -0.6638 -0.0430  1.0635
  512SOL     OW 1534   2.468   2.292   0.140 -0.0886  0.1631  0.3412
  512SOL    HW1 1535   2.473   2.224   0.068  2.6390  1.5837 -0.0832
  512SOL    HW2 1536   2.379   2.282   0.192  1.3544  0.5144 -0.0916
  513SOL     OW 1537   0.096   1.847   2.546  0.3351 -0.0911 -0.0032
  513SOL    HW1 1538   0.110   1.904   2.628 -0.7607  0.0626  0.6181
  513SOL    HW2 1539   0.186   1.830   2.499 -0.2263 -1.3698 -2.2441
  514SOL     OW 1540   0.312   2.551   2.700  0.2380 -0.0382 -0.1184
  514SOL    HW1 1541   0.238   2.485   2.680  1.6190  0.0011  2.5371
  514SOL    HW2 1542   0.372   2.569   2.620 -1.1460 -0.7918  1.8247
  515SOL     OW 1543   2.151   1.413   1.624 -0.3476 -0.1792 -0.1198
  515SOL    HW1 1544   2.210   1.341   1.660  0.2254  2.2341  0.6399
  515SOL    HW2 1545   2.202   1.495   1.635 -0.2207 -0.8812 -1.2471
  516SOL     OW 1546   2.438   2.188   2.642 -0.1530 -0.1458 -0.5614
  516SOL    HW1 1547   2.422   2.255   2.567  0.6326 -0.0442 -1.6388
  516SOL    HW2 1548   2.501   2.231   2.715 -1.2277  2.6083 -1.0718
  517SOL     OW 1549   1.493   0.989   2.975 -0.1215  0.4018 -0.0883
  517SOL    HW1 1550   1.574   1.048   2.971 -0.9418 -3.0952 -0.5976
  517SOL    HW2 1551   1.483   0.955   3.070  1.0124 -0.4414 -1.6226
  518SOL     OW 1552   2.702   3.055   2.246 -0.0584  0.4747  0.6140
  518SOL    HW1 1553   2.788   0.015   2.218  2.0147 -1.8965 -0.3848
  518SOL    HW2 1554   2.665   2.992   2.174 -1.4214 -0.5148  4.0297
  519SOL     OW 1555   1.735   1.752   2.058  0.4928 -0.0121 -0.0336
  519SOL    HW1 1556   1.654   1.703   2.089  0.7785 -0.0690  0.0796
  519SOL    HW2 1557   1.758   1.828   2.120 -1.8894 -1.9251 -2.4605
  520SOL     OW 1558   2.631   0.098   2.695  0.0939  1.1411 -0.1402
  520SOL    HW1 1559   2.614   0.188   2.740  2.3693  0.1844  2.1305
  520SOL    HW2 1560   2.540   0.064   2.659  2.1409 -1.3876 -0.9646
  521SOL     OW 1561   0.455   1.610   2.031  0.2697 -0.0352  0.0272
  521SOL    HW1 1562   0.354   1.615   2.038 -1.2609 -0.0744  0.5863
  521SOL    HW2 1563   0.495   1.535   2.088 -0.8550  0.5215  1.0805
  522SOL     OW 1564   1.182   0.047   1.510  0.8111 -0.7377  0.2325
  522SOL    HW1 1565   1.244   0.046   1.590  0.3524 -0.7799 -0.1444
  522SOL    HW2 1566   1.129   0.135   1.501 -1.5822 -0.5793  0.5804
  523SOL     OW 1567   0.116   2.416   1.189 -0.2094  0.4304  0.1413
  523SOL    HW1 1568   0.073   2.432   1.278  1.1828 -1.2678 -1.9496
  523SOL    HW2 1569   0.219   2.399   1.197  5.5895 -1.4032  1.1906
  524SOL     OW 1570   1.611   2.664   0.819 -0.0360 -0.5223  0.0338
  524SOL    HW1 1571   1.552   2.588   0.794 -0.2953  2.4924 -0.2711
  524SOL    HW2 1572   1.558   2.752   0.809  0.3785  3.5009 -1.5698
  525SOL     OW 1573   2.448   0.977   0.972 -0.3472 -0.0790  0.0065
  525SOL    HW1 1574   2.442   1.052   1.045 -0.0790  0.9545  2.2760
  525SOL    HW2 1575   2.423   0.887   1.012  0.5612  0.2010  0.2739
  526SOL     OW 1576   0.985   2.553   0.725  0.3535  0.2940 -0.0970
  526SOL    HW1 1577   0.894   2.554   0.779 -1.4958 -1.5652  1.8558
  526SOL    HW2 1578   0.975   2.601   0.637 -1.4139 -1.0283  2.7302
  527SOL     OW 1579   2.292   2.051   0.902 -0.4120  0.3612  0.7351
  527SOL    HW1 1580   2.379   2.072   0.846 -0.1060  0.1337 -0.2919
  527SOL    HW2 1581   2.290   1.948   0.913  0.8582  0.5001 -0.0984
  528SOL     OW 1582   2.298   0.555   0.467  0.5261 -0.4864  0.7421
  528SOL    HW1 1583   2.279   0.650   0.427  2.8041 -1.0226 -2.1791
  528SOL    HW2 1584   2.205   0.512   0.486 -1.8426  0.2134 -1.3867
  529SOL     OW 1585   1.232   1.160   2.094  0.0320  0.1411 -0.5391
  529SOL    HW1 1586   1.223   1.156   1.993  0.7315  2.7662  0.9700
  529SOL    HW2 1587   1.194   1.071   2.131 -0.0411 -0.7173 -0.1738
  530SOL     OW 1588   2.399   0.872   2.753 -0.1706 -0.0084  0.2782
  530SOL    HW1 1589   2.351   0.791   2.794  1.6001  2.6726  0.8698
  530SOL    HW2 1590   2.334   0.943   2.719  1.5234 -0.4889 -0.9430
  531SOL     OW 1591   1.276   1.138   0.288  0.0164  0.0660  0.0475
  531SOL    HW1 1592   1.226   1.194   0.216  1.4092 -0.2321 -0.5550
  531SOL    HW2 1593   1.205   1.105   0.357 -1.7128  0.2090 -2.8594
  532SOL     OW 1594   2.223   0.028   0.738  0.1593 -0.4951  0.0466
  532SOL    HW1 1595   2.184   0.094   0.806 -2.3501  2.8719  0.1434
  532SOL    HW2 1596   2.319   3.089   0.769  2.1561  0.3113  0.0349
  533SOL     OW 1597   0.631   0.796   1.807 -0.3224  0.0096 -0.4205
  533SOL    HW1 1598   0.628   0.892   1.772 -0.7330  1.6984  1.2486
  533SOL    HW2 1599   0.706   0.747   1.770 -0.6761  2.3377 -0.5839
  534SOL     OW 1600   1.788   0.069   2.650 -0.1691 -0.5276  0.4112
  534SOL    HW1 1601   1.721   0.019   2.596 -1.6184  4.7741  2.2174
  534SOL    HW2 1602   1.760   0.166   2.648 -2.0938  0.4450 -0.8057
  535SOL     OW 1603   0.565   0.240   0.296  0.2136  0.4806 -0.6860
  535SOL    HW1 1604   0.588   0.253   0.197  0.9612 -0.5886  1.3812
  535SOL    HW2 1605   0.586   0.147   0.326  1.6891  3.2568  1.7560
  536SOL     OW 1606   0.842   2.621   1.189  0.8671 -0.0711 -0.1286
  536SOL    HW1 1607   0.918   2.667   1.238 -1.6175  0.5804 -0.0449
  536SOL    HW2 1608   0.831   2.659   1.097 -0.8949 -0.0603 -0.2050
  537SOL     OW 1609   1.760   3.056   1.863  0.0877 -0.3690 -0.9145
  537SOL    HW1 1610   1.840   0.010   1.824  0.1116 -2.0276  3.9512
  537SOL    HW2 1611   1.743   2.965   1.821  1.9703 -0.6367 -0.1191
  538SOL     OW 1612   2.984   2.702   0.300 -0.2333  0.2804  0.1130
  538SOL    HW1 1613   3.016   2.689   0.204 -3.1178  1.4090 -1.6124
  538SOL    HW2 1614   3.032   2.643   0.367  1.2222  1.6596  0.5418
  539SOL     OW 1615   2.824   1.990   2.077  0.3697 -0.2409 -0.3861
  539SOL    HW1 1616   2.926   1.979   2.065  2.1684  0.2389  0.5806
  539SOL    HW2 1617   2.783   2.012   1.987 -0.4574  0.6717  0.2546
  540SOL     OW 1618   0.021   2.563   1.780  0.3635  0.3308  0.0808
  540SOL    HW1 1619   0.081   2.555   1.861 -1.4166 -2.2566 -1.9041
  540SOL    HW2 1620   0.017   2.659   1.753 -0.3061  1.1523 -0.3650
  541SOL     OW 1621   2.855   2.967   1.644 -0.4167 -0.7169  0.3169
  541SOL    HW1 1622   2.851   2.876   1.609  0.0951  0.0744 -1.3613
  541SOL    HW2 1623   2.834   3.039   1.568 -0.3377  3.7352 -0.8397
  542SOL     OW 1624   2.977   0.404   1.983 -0.8464 -0.4398 -0.2886
  542SOL    HW1 1625   2.909   0.423   1.911  3.2322 -0.1683 -0.4541
  542SOL    HW2 1626   2.935   0.363   2.066  0.7700 -3.5142  2.1688
  543SOL     OW 1627   0.629   0.723   0.807 -0.1372 -0.1624 -0.2763
  543SOL    HW1 1628   0.584   0.809   0.842  1.8034 -1.1389 -2.0476
  543SOL    HW2 1629   0.637   0.658   0.881 -1.6918 -1.0436  0.8605
  544SOL     OW 1630   2.025   1.867   1.083  0.6269  0.0101  0.1184
  544SOL    HW1 1631   1.968   1.800   1.038 -0.5070  2.4033  0.9574
  544SOL    HW2 1632   2.119   1.865   1.033  2.0674 -1.7795 -2.3489
  545SOL     OW 1633   0.914   1.802   0.446  0.2498 -0.0309  0.1642
  545SOL    HW1 1634   0.964   1.882   0.482 -2.3427 -3.2340 -0.4576
  545SOL    HW2 1635   0.836   1.779   0.508 -1.6697 -0.8534  0.0559
  546SOL     OW 1636   2.266   0.564   2.220  0.6047 -0.7215 -0.6322
  546SOL    HW1 1637   2.251   0.641   2.151  1.0269  0.9003 -4.2205
  546SOL    HW2 1638   2.273   0.474   2.171  0.8106  1.0386  1.7899
  547SOL     OW 1639   0.098   0.160   2.449 -0.2309  0.0384 -0.1951
  547SOL    HW1 1640   0.099   0.086   2.521 -0.0653 -1.1392 -1.0194
  547SOL    HW2 1641   0.180   0.221   2.460  1.0227 -3.0169 -3.0962
  548SOL     OW 1642   2.085   2.113   2.282 -0.4187 -0.5643  0.4435
  548SOL    HW1 1643   2.176   2.139   2.232  1.7796  0.2005 -2.4525
  548SOL    HW2 1644   2.090   2.018   2.313  3.0591  0.5320  0.5081
  549SOL     OW 1645   2.593   0.297   1.197 -0.1146  0.7580 -0.5046
  549SOL    HW1 1646   2.586   0.319   1.297 -0.0844  0.2088  2.0886
  549SOL    HW2 1647   2.662   0.358   1.150 -1.2902  0.6003 -0.6181
  550SOL     OW 1648   1.727   1.715   0.630  0.7837  0.1968  0.2195
  550SOL    HW1 1649   1.687   1.709   0.537 -0.1493 -0.2606 -0.3991
  550SOL    HW2 1650   1.663   1.683   0.701  2.6220 -0.7723 -2.0984
  551SOL     OW 1651   1.252   0.340   1.217 -0.1200 -0.7752 -0.0167
  551SOL    HW1 1652   1.202   0.293   1.142 -1.0570  0.6761  2.6013
  551SOL    HW2 1653   1.298   0.278   1.284 -0.1065  2.5232  2.0676
  552SOL     OW 1654   1.941   2.218   2.074  0.3780  0.7560  0.2943
  552SOL    HW1 1655   1.849   2.235   2.117  2.0664 -0.2737 -0.3859
  552SOL    HW2 1656   1.999   2.183   2.149  1.5765  2.3283 -0.3764
  553SOL     OW 1657   0.613   3.016   0.114  0.3272  0.3065  0.2579
  553SOL    HW1 1658   0.637   3.035   0.212 -0.7355  1.1735 -1.3047
  553SOL    HW2 1659   0.515   2.988   0.097  0.5456  0.2003 -1.4000
  554SOL     OW 1660   1.720   2.717   2.061  0.6408  0.1275  0.1275
  554SOL    HW1 1661   1.727   2.656   1.979  0.1756 -0.0965  0.9564
  554SOL    HW2 1662   1.793   2.788   2.065  0.3235 -0.4187 -1.1784
  555SOL     OW 1663   2.389   2.599   2.112  0.0816 -0.1772 -0.5589
  555SOL    HW1 1664   2.436   2.509   2.088  1.1580 -0.1115  0.4968
  555SOL    HW2 1665   2.302   2.579   2.149  0.4988 -1.4231 -1.0137
  556SOL     OW 1666   0.867   0.029   0.462 -0.0919 -0.4272 -0.0177
  556SOL    HW1 1667   0.946   3.086   0.517  0.9490 -1.6776  1.2404
  556SOL    HW2 1668   0.898   0.032   0.366  0.6906 -0.5400  0.9497
  557SOL     OW 1669   0.879   2.189   2.058 -0.0241  0.6282  0.4257
  557SOL    HW1 1670   0.799   2.250   2.077  3.3722 -0.9337  0.7600
  557SOL    HW2 1671   0.876   2.113   2.127 -0.3341 -3.4237  0.4647
  558SOL     OW 1672   2.730   0.977   2.394 -0.2393 -0.2023  0.5837
  558SOL    HW1 1673   2.747   0.882   2.363 -1.5069  2.2055  0.3962
  558SOL    HW2 1674   2.753   0.987   2.495  2.4955  2.2336  1.5348
  559SOL     OW 1675   2.473   2.015   2.238  0.6436  0.0897  0.4640
  559SOL    HW1 1676   2.409   2.098   2.241 -1.9272  3.4975  0.2533
  559SOL    HW2 1677   2.545   2.018   2.162  2.5512  0.2765 -1.2572
  560SOL     OW 1678   0.525   0.564   2.143 -0.1420 -0.6237  0.1680
  560SOL    HW1 1679   0.595   0.494   2.102  0.6380 -1.8034 -1.4270
  560SOL    HW2 1680   0.528   0.649   2.096 -1.0395  0.2731 -0.7461
  561SOL     OW 1681   1.062   0.334   0.107  0.1272  0.3919  0.0060
  561SOL    HW1 1682   1.115   0.259   0.147  1.0655  0.4356  1.3613
  561SOL    HW2 1683   1.013   0.306   0.023 -0.8752 -0.3389 -0.2755
  562SOL     OW 1684   0.771   1.591   1.627 -0.1877  0.3789  0.5894
  562SOL    HW1 1685   0.731   1.563   1.539  1.0960  1.6211  1.4036
  562SOL    HW2 1686   0.761   1.690   1.647  0.0587 -1.3399 -0.2507
  563SOL     OW 1687   1.775   2.586   0.195 -1.0310 -0.6445  0.4040
  563SOL    HW1 1688   1.861   2.601   0.140 -2.4485 -0.6651  0.3547
  563SOL    HW2 1689   1.713   2.666   0.197  4.0152  0.0985  0.9259
  564SOL     OW 1690   2.908   2.060   0.329  0.4587  0.5008  0.4264
  564SOL    HW1 1691   2.832   2.014   0.280 -0.2480 -0.4955 -0.0673
  564SOL    HW2 1692   2.900   2.034   0.426 -0.9704 -1.5169  2.3055
  565SOL     OW 1693   0.545   2.781   2.153 -0.3072  0.1874 -0.1456
  565SOL    HW1 1694   0.555   2.847   2.228 -0.8553 -0.2022  2.7327
  565SOL    HW2 1695   0.513   2.692   2.185 -0.4329  1.2383 -1.4596
  566SOL     OW 1696   1.669   2.504   2.592 -0.5501 -0.3450  0.7708
  566SOL    HW1 1697   1.688   2.504   2.693 -0.8009 -0.2344 -0.2063
  566SOL    HW2 1698   1.749   2.511   2.532 -2.0140 -0.4619 -1.4224
  567SOL     OW 1699   1.894   2.092   1.477 -0.2474  0.5697 -0.6480
  567SOL    HW1 1700   1.907   2.193   1.455  0.9341 -0.8366 -1.0010
  567SOL    HW2 1701   1.807   2.053   1.440 -0.6837 -0.8633 -2.2342
  568SOL     OW 1702   2.046   0.811   2.845 -0.1643 -0.0792  0.0628
  568SOL    HW1 1703   2.051   0.818   2.944 -0.1441 -1.0771 -3.0849
  568SOL    HW2 1704   2.125   0.759   2.810  5.4403  0.0554 -2.6374
  569SOL     OW 1705   2.758   1.399   2.174  0.3463 -0.4641  0.2642
  569SOL    HW1 1706   2.856   1.416   2.188  0.5540  0.4925  1.0349
  569SOL    HW2 1707   2.729   1.320   2.229 -1.2353 -1.3485  0.1744
  570SOL     OW 1708   2.463   2.708   1.866  0.0812 -0.8952 -0.3257
  570SOL    HW1 1709   2.445   2.677   1.961  0.0373  2.0210  1.2999
  570SOL    HW2 1710   2.561   2.696   1.841  0.0073  0.2348 -1.1719
  571SOL     OW 1711   0.321   0.032   1.586  0.2646  0.2627  0.6769
  571SOL    HW1 1712   0.420   0.041   1.560 -1.4591 -1.5071 -2.4102
  571SOL    HW2 1713   0.293   0.122   1.622  0.5981 -0.8316  0.2796
  572SOL     OW 1714   0.080   2.035   0.732 -0.1941 -0.5013  0.3987
  572SOL    HW1 1715   0.008   2.087   0.787  0.9198  0.5511  0.8056
  572SOL    HW2 1716   0.079   1.935   0.747 -0.9671  2.4049 -0.7778
  573SOL     OW 1717   1.015   0.689   3.038 -0.1073  0.2271  0.0748
  573SOL    HW1 1718   0.925   0.686   3.087  1.2254  2.0592 -0.7423
  573SOL    HW2 1719   1.090   0.653   0.005 -1.4999  1.6589  1.6740
  574SOL     OW 1720   3.014   0.017   0.128 -0.4117 -0.4378  0.0142
  574SOL    HW1 1721   3.059   0.083   0.064  0.1583 -0.5900  1.2740
  574SOL    HW2 1722   2.957   3.043   0.075 -0.5310  1.0834  0.9830
  575SOL     OW 1723   1.075   2.311   1.295 -0.0146  0.1689  0.3977
  575SOL    HW1 1724   1.143   2.245   1.328  0.7918  1.5837 -1.6757
  575SOL    HW2 1725   1.128   2.376   1.240 -0.7629 -4.8798  1.6048
  576SOL     OW 1726   2.951   2.866   1.306  0.5963  0.5327 -0.5467
  576SOL    HW1 1727   2.883   2.798   1.282  2.7616  1.0590 -0.7431
  576SOL    HW2 1728   3.033   2.817   1.343  1.1702 -1.6189 -0.5917
  577SOL     OW 1729   2.175   1.616   1.348  0.2837  0.2290 -0.1140
  577SOL    HW1 1730   2.157   1.673   1.427 -0.1162  2.2746 -0.7272
  577SOL    HW2 1731   2.102   1.554   1.316 -1.0084  1.1581 -1.0385
  578SOL     OW 1732   1.157   3.056   2.695 -0.1683 -0.0003 -1.2925
  578SOL    HW1 1733   1.111   0.012   2.616 -1.8781  2.8020  1.8536
  578SOL    HW2 1734   1.194   0.039   2.754  2.9496 -0.8813 -0.0485
  579SOL     OW 1735   2.505   1.725   2.148  0.1814  0.4054  0.6888
  579SOL    HW1 1736   2.563   1.677   2.079 -1.9667  2.1046  1.6127
  579SOL    HW2 1737   2.561   1.771   2.217 -1.3943  1.9118 -0.7005
  580SOL     OW 1738   1.727   0.397   1.543  0.1735 -0.1786  0.4219
  580SOL    HW1 1739   1.683   0.315   1.586 -0.9094  0.7815  1.1385
  580SOL    HW2 1740   1.657   0.472   1.521  1.5756 -0.1773 -2.9352
  581SOL     OW 1741   1.188   1.500   1.823  0.6777  0.7471  0.1140
  581SOL    HW1 1742   1.151   1.488   1.915  0.4121  1.0499  2.4892
  581SOL    HW2 1743   1.245   1.585   1.822  1.0494 -0.2667  1.6371
  582SOL     OW 1744   3.057   2.745   2.109 -0.1855 -0.3728 -0.1606
  582SOL    HW1 1745   3.051   2.835   2.152 -1.1773 -1.9817  1.6840
  582SOL    HW2 1746   0.038   2.751   2.034  3.0601  0.4195  1.5417
  583SOL     OW 1747   1.440   1.434   1.255  0.3171  0.2181  0.1950
  583SOL    HW1 1748   1.451   1.386   1.347 -0.4499 -1.8674 -0.7099
  583SOL    HW2 1749   1.349   1.483   1.256 -1.0969  0.4293  1.9201
  584SOL     OW 1750   1.626   1.891   2.844 -0.0566 -0.2210  0.2400
  584SOL    HW1 1751   1.720   1.924   2.859 -0.9061  0.0983  1.1991
  584SOL    HW2 1752   1.620   1.865   2.748  1.2486  0.9058 -0.9567
  585SOL     OW 1753   0.277   2.544   0.346 -0.0670 -0.2988  0.0859
  585SOL    HW1 1754   0.316   2.459   0.389  0.2037  1.0570  0.9158
  585SOL    HW2 1755   0.266   2.518   0.250  0.8641 -4.6652  2.7657
  586SOL     OW 1756   2.020   2.344   2.999 -0.4419 -0.1906  0.7347
  586SOL    HW1 1757   2.063   2.281   3.065 -4.0688  1.5608  0.3799
  586SOL    HW2 1758   2.084   2.362   2.921  0.2115 -0.0021 -3.6494
  587SOL     OW 1759   2.582   2.018   0.483 -0.3671  0.0812 -0.1312
  587SOL    HW1 1760   2.605   2.111   0.444 -1.1281 -1.1295 -0.3296
  587SOL    HW2 1761   2.577   1.947   0.409 -0.8262 -0.7750 -0.1631
  588SOL     OW 1762   2.199   0.393   1.043 -0.5776  0.8509  0.0690
  588SOL    HW1 1763   2.278   0.355   0.990 -1.3043  0.2486  1.1619
  588SOL    HW2 1764   2.239   0.458   1.110  2.7620 -0.2839 -1.1574
  589SOL     OW 1765   0.934   0.903   0.643  0.0738  0.1221 -0.0396
  589SOL    HW1 1766   0.878   0.825   0.604  0.0915 -0.9233 -0.9466
  589SOL    HW2 1767   1.024   0.863   0.662 -2.2686  1.3709  0.1087
  590SOL     OW 1768   2.744   2.477   0.194  0.2922  0.1365  0.7245
  590SOL    HW1 1769   2.663   2.427   0.158  0.0623 -1.0626 -0.4892
  590SOL    HW2 1770   2.717   2.545   0.261  4.2024 -2.8657 -1.2567
  591SOL     OW 1771   0.230   2.643   1.963 -0.5358 -0.2170  0.1001
  591SOL    HW1 1772   0.309   2.610   1.911 -0.4003  0.1036 -1.7258
  591SOL    HW2 1773   0.266   2.717   2.027  2.4793  1.1313 -0.2940
  592SOL     OW 1774   0.703   1.207   1.230  0.1876 -0.1179 -0.8365
  592SOL    HW1 1775   0.690   1.209   1.331 -0.6338  1.4285  0.9130
  592SOL    HW2 1776   0.727   1.117   1.188  1.4636 -0.1414  0.2534
  593SOL     OW 1777   1.023   1.791   1.430 -0.2100 -0.3462 -0.7524
  593SOL    HW1 1778   1.057   1.755   1.343 -1.3962 -1.7001 -0.5582
  593SOL    HW2 1779   0.923   1.820   1.423 -0.7136 -2.1560 -0.7534
  594SOL     OW 1780   0.416   1.803   2.811  0.3508  0.2971  0.3542
  594SOL    HW1 1781   0.486   1.878   2.809 -0.3806 -0.1899  0.7895
  594SOL    HW2 1782   0.458   1.711   2.815  1.9051 -4.7335 -1.4966
  595SOL     OW 1783   1.473   0.678   0.906  0.2982 -0.4749  0.6914
  595SOL    HW1 1784   1.470   0.674   0.806  1.1890  0.2702  2.0661
  595SOL    HW2 1785   1.407   0.618   0.950 -0.5670  1.9660 -2.0762
  596SOL     OW 1786   0.284   1.526   0.375  0.3178 -0.4429  0.4730
  596SOL    HW1 1787   0.242   1.592   0.309  2.0919  1.3467  0.3394
  596SOL    HW2 1788   0.216   1.476   0.436  1.4765 -1.2594 -1.0518
  597SOL     OW 1789   2.982   2.287   2.891 -0.5385 -0.1840  0.2734
  597SOL    HW1 1790   2.936   2.260   2.804  0.2035  0.0881 -0.1792
  597SOL    HW2 1791   3.001   2.205   2.942  0.8011 -0.4707 -1.1806
  598SOL     OW 1792   2.103   1.847   2.391 -0.3028  0.5278 -0.0218
  598SOL    HW1 1793   2.166   1.809   2.320 -0.3862  3.1011 -2.5126
  598SOL    HW2 1794   2.147   1.840   2.484  0.4289  0.1350  5.3680
  599SOL     OW 1795   1.408   0.459   0.485  0.4436 -0.2360  0.0571
  599SOL    HW1 1796   1.437   0.367   0.520  2.9053  2.0274  1.0042
  599SOL    HW2 1797   1.473   0.502   0.417 -2.5635  2.6944 -1.3604
  600SOL     OW 1798   0.864   2.833   0.246  0.1989 -0.6621 -0.5722
  600SOL    HW1 1799   0.888   2.932   0.234 -3.3813 -1.5226  1.0965
  600SOL    HW2 1800   0.763   2.818   0.253  0.8361 -0.4087  0.9736
  601SOL     OW 1801   0.606   0.708   1.215  0.1112  0.3290 -0.3041
  601SOL    HW1 1802   0.568   0.754   1.299 -0.4932  0.5198  0.4697
  601SOL    HW2 1803   0.674   0.768   1.169  4.1254  1.4687 -0.0801
  602SOL     OW 1804   0.279   2.719   1.148 -0.4896  0.3457  0.4520
  602SOL    HW1 1805   0.260   2.808   1.098 -0.0795 -1.7181 -1.2700
  602SOL    HW2 1806   0.194   2.666   1.162 -1.5059  2.6191 -0.5083
  603SOL     OW 1807   1.236   2.678   2.428 -0.4627 -0.0655 -0.0158
  603SOL    HW1 1808   1.229   2.701   2.328  0.9179 -0.2642 -0.5855
  603SOL    HW2 1809   1.285   2.755   2.473  0.9361  0.7494  1.0313
  604SOL     OW 1810   0.869   2.721   2.726 -0.4515  0.9169 -0.3015
  604SOL    HW1 1811   0.831   2.643   2.768  1.4758  2.7406 -2.8903
  604SOL    HW2 1812   0.867   2.700   2.627 -2.7132  1.3917  2.4924
  605SOL     OW 1813   0.848   0.653   1.716 -0.5278  0.1514  0.4044
  605SOL    HW1 1814   0.897   0.630   1.623  0.9458 -0.0461 -2.7122
  605SOL    HW2 1815   0.886   0.603   1.794 -0.0317 -1.0963 -2.4946
  606SOL     OW 1816   2.009   0.538   2.542 -0.7972  0.0003 -0.1889
  606SOL    HW1 1817   2.075   0.487   2.600  0.6643  1.5324  0.1761
  606SOL    HW2 1818   1.938   0.577   2.602 -2.6718  1.1541  1.0601
  607SOL     OW 1819   0.458   1.264   1.144 -0.1121 -0.3566  0.6154
  607SOL    HW1 1820   0.560   1.277   1.152  0.2688 -1.4208  1.4290
  607SOL    HW2 1821   0.436   1.162   1.149  0.3670 -4.4893  1.8215
  608SOL     OW 1822   0.164   2.603   2.335  0.2121 -0.2186  0.1277
  608SOL    HW1 1823   0.155   2.707   2.325 -1.0131  3.0617  2.6800
  608SOL    HW2 1824   0.104   2.566   2.408 -0.3462  0.0719 -0.9131
  609SOL     OW 1825   1.414   0.665   0.061  0.3820 -0.5192 -0.6676
  609SOL    HW1 1826   1.486   0.611   0.103 -2.1161 -1.4200 -0.2809
  609SOL    HW2 1827   1.321   0.633   0.084  0.2538 -0.6712 -0.0397
  610SOL     OW 1828   0.655   2.629   1.421  0.1316  0.6575  0.2244
  610SOL    HW1 1829   0.731   2.617   1.353  1.1973  2.5541  0.5496
  610SOL    HW2 1830   0.609   2.717   1.393  0.3889 -0.4554  0.8580
  611SOL     OW 1831   1.543   0.983   0.459  0.1882 -0.1569  0.4781
  611SOL    HW1 1832   1.575   1.076   0.434  0.2813 -0.7488 -1.0713
  611SOL    HW2 1833   1.595   0.908   0.419 -1.9829  0.5005 -0.2815
  612SOL     OW 1834   1.509   0.826   2.754  0.5017 -0.2057  0.1585
  612SOL    HW1 1835   1.414   0.849   2.731 -0.2964  2.1413  2.5585
  612SOL    HW2 1836   1.530   0.882   2.834 -0.4930 -1.6995 -2.8408
  613SOL     OW 1837   2.336   1.097   0.763  0.0201  0.1845 -0.4539
  613SOL    HW1 1838   2.240   1.072   0.729 -2.0967 -1.2369 -1.3646
  613SOL    HW2 1839   2.362   1.046   0.847 -2.0069 -3.0459  2.2603
  614SOL     OW 1840   2.314   0.320   2.133  0.1993 -0.4470  0.3601
  614SOL    HW1 1841   2.362   0.254   2.190  0.5372  2.7518 -0.6500
  614SOL    HW2 1842   2.372   0.333   2.049 -1.2923 -0.5223 -1.8823
  615SOL     OW 1843   0.691   2.134   0.984 -0.3564 -0.4661  0.4056
  615SOL    HW1 1844   0.715   2.037   1.013  0.9177 -2.9513 -1.9241
  615SOL    HW2 1845   0.758   2.204   1.022 -0.4462 -1.6116  0.8578
  616SOL     OW 1846   1.558   1.078   2.393 -0.0491 -0.1951  0.1951
  616SOL    HW1 1847   1.614   1.066   2.305 -1.2915  1.8675 -0.8011
  616SOL    HW2 1848   1.552   1.176   2.426 -1.9657 -0.3009 -0.9562
  617SOL     OW 1849   1.597   2.786   0.261  0.0709  0.0080 -0.0943
  617SOL    HW1 1850   1.616   2.883   0.239 -0.3371 -1.0018 -1.0162
  617SOL    HW2 1851   1.510   2.756   0.210 -2.3757 -0.8865 -1.6409
  618SOL     OW 1852   1.192   1.393   2.593  0.4569  0.2319  0.2176
  618SOL    HW1 1853   1.283   1.435   2.592 -0.7821  0.5794 -1.4356
  618SOL    HW2 1854   1.178   1.358   2.685  2.4892  0.5162  0.1304
  619SOL     OW 1855   2.611   1.467   0.832 -0.0325 -0.1385 -1.0614
  619SOL    HW1 1856   2.522   1.434   0.792 -3.1305  0.5029 -0.2960
  619SOL    HW2 1857   2.675   1.387   0.847  1.4315  0.0739  1.9997
  620SOL     OW 1858   2.283   2.497   2.644  0.2286 -0.3799  0.2898
  620SOL    HW1 1859   2.349   2.555   2.697  0.9217 -1.2926  1.9760
  620SOL    HW2 1860   2.205   2.559   2.623  0.1686  1.1639 -0.5780
  621SOL     OW 1861   2.741   1.300   0.574  0.6945  0.0607  0.0181
  621SOL    HW1 1862   2.727   1.331   0.475  1.0042  1.0492 -2.1288
  621SOL    HW2 1863   2.690   1.208   0.590 -0.0750 -0.7009  2.8303
  622SOL     OW 1864   1.349   2.372   2.547 -0.1802  0.1627 -0.5229
  622SOL    HW1 1865   1.421   2.402   2.485 -3.6437  0.1434 -0.4335
  622SOL    HW2 1866   1.266   2.426   2.528  0.7837 -3.0205  1.8819
  623SOL     OW 1867   0.263   2.140   3.078  0.1068 -0.0244  0.2176
  623SOL    HW1 1868   0.335   2.068   3.087 -2.0778 -0.5847 -0.4151
  623SOL    HW2 1869   0.185   2.116   0.050  1.5979  0.1491  2.5110
  624SOL     OW 1870   0.287   0.123   0.036 -1.0239  0.5130  0.0157
  624SOL    HW1 1871   0.353   0.129   3.050 -2.2027  0.6811  2.5334
  624SOL    HW2 1872   0.283   0.030   0.076  2.1152  1.1934 -0.1289
  625SOL     OW 1873   0.781   2.203   3.041 -0.2404  0.1021 -0.2965
  625SOL    HW1 1874   0.849   2.277   3.071  2.5516  2.2864 -0.8794
  625SOL    HW2 1875   0.703   2.254   2.993 -1.0377  2.6669 -0.4546
  626SOL     OW 1876   3.020   0.691   0.372 -0.2351  0.1751  0.3195
  626SOL    HW1 1877   3.048   0.691   0.274  1.0134 -0.0153 -0.5042
  626SOL    HW2 1878   3.049   0.606   0.421  0.1149 -3.3547  0.9061
  627SOL     OW 1879   1.834   1.498   2.944 -0.3616  0.1222 -0.0162
  627SOL    HW1 1880   1.753   1.499   3.009 -1.9926  1.7408  0.6183
  627SOL    HW2 1881   1.890   1.585   2.957 -2.8430 -0.6104 -0.8599
  628SOL     OW 1882   1.175   1.300   2.854  0.2266 -0.0574 -0.3706
  628SOL    HW1 1883   1.169   1.202   2.867 -0.9201  0.2102 -0.0202
  628SOL    HW2 1884   1.257   1.336   2.906 -2.1239 -1.4875  1.7407
  629SOL     OW 1885   0.243   2.960   1.801 -0.0646  0.7526 -0.0460
  629SOL    HW1 1886   0.316   2.900   1.840 -0.6066 -0.7384 -1.6523
  629SOL    HW2 1887   0.280   3.039   1.744 -0.1988 -1.3253 -2.2898
  630SOL     OW 1888   2.213   0.770   2.046  0.1460  0.3731  0.0260
  630SOL    HW1 1889   2.281   0.765   1.970 -2.2157  1.9703 -1.3252
  630SOL    HW2 1890   2.126   0.718   2.026 -0.2197  1.5284  0.8995
  631SOL     OW 1891   1.861   0.313   0.614 -0.3486  0.0782 -0.6498
  631SOL    HW1 1892   1.880   0.231   0.674  2.2757 -0.0161  2.7708
  631SOL    HW2 1893   1.774   0.302   0.557  1.3060 -1.0333 -1.7328
  632SOL     OW 1894   0.080   0.477   1.489  0.1795  0.0034  0.0188
  632SOL    HW1 1895   0.013   0.397   1.494 -0.8956 -0.0382  1.6555
  632SOL    HW2 1896   0.116   0.496   1.583 -1.7471  0.1502  1.3149
  633SOL     OW 1897   0.946   0.227   2.959  0.0412  0.5273  0.1978
  633SOL    HW1 1898   0.887   0.297   2.917 -0.0845  0.0612 -1.7119
  633SOL    HW2 1899   0.892   0.148   3.001 -0.0140 -1.8781  3.3134
  634SOL     OW 1900   0.833   2.513   2.929 -0.2782 -0.5759  0.3117
  634SOL    HW1 1901   0.879   2.568   3.003 -3.0120  0.6591 -1.5136
  634SOL    HW2 1902   0.904   2.458   2.880 -1.0789  0.4395  1.4702
  635SOL     OW 1903   0.110   0.473   0.500 -1.1406  0.2820  0.2935
  635SOL    HW1 1904   0.071   0.405   0.435  1.1151  0.2202 -0.0568
  635SOL    HW2 1905   0.182   0.530   0.449  0.7175  1.0456 -2.8339
  636SOL     OW 1906   0.676   1.205   0.281 -0.2337  0.2654 -0.3345
  636SOL    HW1 1907   0.700   1.143   0.208  0.6128  0.1505 -0.6383
  636SOL    HW2 1908   0.751   1.277   0.286  1.6136 -0.5376 -0.8653
  637SOL     OW 1909   0.360   2.777   0.450 -0.0641 -0.3724 -0.4542
  637SOL    HW1 1910   0.332   2.689   0.410  0.5386  1.7715 -1.3250
  637SOL    HW2 1911   0.284   2.845   0.433  1.6608 -1.8278 -1.3131
  638SOL     OW 1912   0.047   2.546   0.489 -0.1554  0.4560 -0.3719
  638SOL    HW1 1913   0.021   2.450   0.461  0.0610 -1.3914 -0.5373
  638SOL    HW2 1914   0.138   2.577   0.457 -0.5397 -0.6476 -0.4273
  639SOL     OW 1915   1.735   0.936   0.141 -0.0823 -0.1054 -0.2828
  639SOL    HW1 1916   1.635   0.916   0.131  1.3608  1.2383  0.1921
  639SOL    HW2 1917   1.749   1.032   0.122 -0.5149 -0.9135  1.7496
  640SOL     OW 1918   1.738   2.348   1.683  0.1375  0.0537  0.4173
  640SOL    HW1 1919   1.711   2.338   1.588  0.8658  0.3409 -0.2998
  640SOL    HW2 1920   1.829   2.312   1.704  0.6181 -1.4225  0.9073
  641SOL     OW 1921   2.854   2.481   1.063  0.8677  0.4869 -0.2678
  641SOL    HW1 1922   2.762   2.464   1.017  1.3069 -1.5836  1.5813
  641SOL    HW2 1923   2.940   2.478   1.001  1.5336 -1.0663 -1.8655
  642SOL     OW 1924   0.924   0.012   1.749 -0.0907 -0.4368  0.7413
  642SOL    HW1 1925   0.866   3.044   1.686  1.4460 -0.0951  1.8493
  642SOL    HW2 1926   0.907   0.112   1.738 -2.5661 -0.1946  1.7093
  643SOL     OW 1927   1.033   2.369   2.808 -0.4750 -0.5313  0.6403
  643SOL    HW1 1928   1.039   2.334   2.710  1.3582  0.3772 -1.2817
  643SOL    HW2 1929   1.115   2.428   2.825  1.5125 -0.3374 -1.6805
  644SOL     OW 1930   1.221   2.565   0.837 -0.2178  0.1809  0.0195
  644SOL    HW1 1931   1.298   2.538   0.771 -1.9785 -1.1824 -0.4062
  644SOL    HW2 1932   1.129   2.565   0.795  1.0303  0.6558 -1.1591
  645SOL     OW 1933   1.392   1.330   1.778  0.0860  0.2332 -0.9480
  645SOL    HW1 1934   1.375   1.231   1.773  3.3951  0.7881 -3.1799
  645SOL    HW2 1935   1.305   1.379   1.805 -0.1440  0.1453 -1.4597
  646SOL     OW 1936   0.106   0.834   0.153 -0.1961  0.4308  0.6441
  646SOL    HW1 1937   0.139   0.737   0.150 -0.2520 -0.8801 -2.2914
  646SOL    HW2 1938   0.104   0.865   0.248  1.0339 -2.1684 -1.4154
  647SOL     OW 1939   1.148   0.465   0.523  0.1340 -0.6061  0.5133
  647SOL    HW1 1940   1.238   0.466   0.477  0.6353  2.3495  0.2153
  647SOL    HW2 1941   1.147   0.532   0.599 -0.1093  2.5518 -0.6562
  648SOL     OW 1942   2.180   2.696   0.989 -0.0605 -0.1113  0.0840
  648SOL    HW1 1943   2.207   2.634   1.068 -1.6847  2.6117  1.5259
  648SOL    HW2 1944   2.144   2.783   1.024 -0.5928 -1.4951 -1.1400
  649SOL     OW 1945   0.622   1.996   2.870  0.0481  0.0980 -0.0020
  649SOL    HW1 1946   0.591   2.021   2.777  2.1422 -4.0221 -0.3759
  649SOL    HW2 1947   0.579   2.045   2.946 -3.3724 -1.3884 -0.1134
  650SOL     OW 1948   2.313   1.924   1.914  0.2939  1.0968 -0.2724
  650SOL    HW1 1949   2.216   1.954   1.934 -1.3459 -1.7882 -1.8322
  650SOL    HW2 1950   2.321   1.820   1.903  1.8698  0.8209 -1.0815
  651SOL     OW 1951   3.006   2.916   2.608  0.0696 -0.0191 -0.5860
  651SOL    HW1 1952   2.922   2.861   2.639  0.7804  2.2708  1.1442
  651SOL    HW2 1953   2.969   2.991   2.546 -0.7502  0.8536 -0.3608
  652SOL     OW 1954   2.607   1.636   0.452  0.1500 -0.2407 -0.2328
  652SOL    HW1 1955   2.636   1.675   0.544 -0.0430 -4.2519  1.8054
  652SOL    HW2 1956   2.675   1.565   0.423  4.2577 -0.5719 -0.4747
  653SOL     OW 1957   0.228   0.176   0.940 -0.5375 -0.2736  0.0058
  653SOL    HW1 1958   0.276   0.230   0.869 -0.4348 -0.2952  0.8556
  653SOL    HW2 1959   0.287   0.111   0.991  1.4193 -1.1768  2.0224
  654SOL     OW 1960   0.954   0.014   0.209  0.1359 -0.0174 -0.2963
  654SOL    HW1 1961   1.049   0.050   0.224 -1.1230 -0.1858 -0.2455
  654SOL    HW2 1962   0.915   0.018   0.115  2.4550  0.8600 -0.7592
  655SOL     OW 1963   0.480   2.809   1.330  0.5410 -0.0864  0.8110
  655SOL    HW1 1964   0.427   2.834   1.416 -1.5813  1.1665  1.5610
  655SOL    HW2 1965   0.415   2.765   1.258  1.5965 -1.1516  0.7259
  656SOL     OW 1966   2.998   2.970   2.284 -0.4042 -0.1989  0.1211
  656SOL    HW1 1967   3.090   2.939   2.320  0.5555  0.5095  1.4654
  656SOL    HW2 1968   2.960   3.046   2.338  1.9070 -1.0392 -3.4729
  657SOL     OW 1969   1.778   0.671   2.339  0.2531  0.0396 -0.6373
  657SOL    HW1 1970   1.704   0.730   2.382  0.1961  0.0142 -1.5303
  657SOL    HW2 1971   1.869   0.697   2.378  0.2442  1.4916 -1.2141
  658SOL     OW 1972   1.739   1.444   1.358  1.3398 -0.1126 -0.3994
  658SOL    HW1 1973   1.652   1.433   1.414 -0.3798  2.4123 -0.1041
  658SOL    HW2 1974   1.805   1.503   1.406  2.2116  0.0795 -0.2118
  659SOL     OW 1975   2.465   2.624   2.787 -0.2788 -0.0798  0.3399
  659SOL    HW1 1976   2.501   2.706   2.730  2.3209  4.6034  0.6806
  659SOL    HW2 1977   2.543   2.587   2.846  0.8828 -1.5644  1.0304
  660SOL     OW 1978   1.289   0.808   0.426 -0.0228  0.2770 -0.1188
  660SOL    HW1 1979   1.244   0.796   0.517 -1.8288  0.7746  4.0371
  660SOL    HW2 1980   1.363   0.872   0.435  0.7527 -2.1474 -2.8337
  661SOL     OW 1981   2.598   2.896   0.350  0.6682 -0.0137  0.0931
  661SOL    HW1 1982   2.626   2.945   0.434 -0.0648 -1.1247 -1.9283
  661SOL    HW2 1983   2.605   2.956   0.266  0.9465 -0.5067 -0.6832
  662SOL     OW 1984   0.823   0.541   0.992  0.1166  0.1925 -0.4034
  662SOL    HW1 1985   0.805   0.512   1.091  0.6798  0.9978  4.0103
  662SOL    HW2 1986   0.801   0.463   0.931  1.5837  0.6055 -0.1469
  663SOL     OW 1987   1.311   2.793   2.177  0.2374  0.3064 -0.3616
  663SOL    HW1 1988   1.247   2.872   2.162 -0.1062  2.6855 -0.8035
  663SOL    HW2 1989   1.343   2.752   2.088 -0.1470  0.2397  0.0855
  664SOL     OW 1990   0.720   2.245   1.577 -0.3892  0.4997 -0.0266
  664SOL    HW1 1991   0.808   2.283   1.615  2.9777 -1.6003  0.1242
  664SOL    HW2 1992   0.734   2.217   1.480 -0.8882  1.2354  2.1146
  665SOL     OW 1993   1.021   2.095   1.727  0.0995 -0.5447  0.2060
  665SOL    HW1 1994   0.920   2.087   1.735 -3.1689  0.8372 -1.4127
  665SOL    HW2 1995   1.066   2.006   1.722  0.6678  3.3956  1.2907
  666SOL     OW 1996   0.184   2.764   3.019  0.0235 -0.2984  0.2951
  666SOL    HW1 1997   0.187   2.801   2.924 -0.8477  2.1031  2.9105
  666SOL    HW2 1998   0.227   2.673   3.027  0.6905  1.1202 -0.6564
  667SOL     OW 1999   1.524   1.809   1.346  0.1089 -0.4556 -0.0210
  667SOL    HW1 2000   1.511   1.768   1.438  2.0508  1.8144 -0.9310
  667SOL    HW2 2001   1.560   1.905   1.363 -0.5933  1.1227  1.0469
  668SOL     OW 2002   1.277   0.383   2.182  0.3653 -0.3593  0.0959
  668SOL    HW1 2003   1.300   0.446   2.262  0.0324  0.0654  2.7286
  668SOL    HW2 2004   1.239   0.297   2.218  1.0055 -0.1667 -2.0964
  669SOL     OW 2005   2.316   2.205   1.726 -0.1434 -0.6964  0.0702
  669SOL    HW1 2006   2.233   2.168   1.680  1.0079  1.5792 -0.0252
  669SOL    HW2 2007   2.383   2.134   1.755  1.1026 -0.1366 -0.6692
  670SOL     OW 2008   1.892   1.949   0.141  0.1188 -0.1055 -0.0962
  670SOL    HW1 2009   1.836   1.937   0.227 -0.5038 -2.4592 -2.6140
  670SOL    HW2 2010   1.858   2.026   0.081 -0.6957  1.3343 -0.0421
  671SOL     OW 2011   1.220   1.065   0.967 -0.3197  0.7461 -0.6964
  671SOL    HW1 2012   1.276   0.985   1.004 -0.4480 -2.0334 -1.0028
  671SOL    HW2 2013   1.273   1.109   0.889 -3.0834  0.6645  0.0792
  672SOL     OW 2014   2.494   1.151   2.379 -0.1032  0.5245  0.0380
  672SOL    HW1 2015   2.432   1.101   2.310  0.1588  0.9123  0.4651
  672SOL    HW2 2016   2.588   1.107   2.387 -0.7735  2.2623 -1.1115
  673SOL     OW 2017   3.028   1.707   1.992 -0.0184 -0.1499  0.2901
  673SOL    HW1 2018   2.989   1.651   2.065 -0.2224 -1.2447  1.5566
  673SOL    HW2 2019   2.994   1.674   1.899  0.9264  0.0375  0.4255
  674SOL     OW 2020   1.082   2.451   2.490  0.2595 -0.5726 -0.3318
  674SOL    HW1 2021   1.127   2.535   2.454 -0.4881  0.3918  0.9176
  674SOL    HW2 2022   0.987   2.471   2.520 -0.2295  0.4071  3.1410
  675SOL     OW 2023   0.836   1.357   1.723  0.0314 -0.0519 -0.1930
  675SOL    HW1 2024   0.928   1.337   1.680 -1.0865 -0.9162 -1.3762
  675SOL    HW2 2025   0.803   1.451   1.700  1.4509 -1.3500 -1.1310
  676SOL     OW 2026   2.310   0.527   0.745  1.1436  0.1028 -0.1931
  676SOL    HW1 2027   2.316   0.506   0.643  0.9614 -1.9591 -1.1772
  676SOL    HW2 2028   2.360   0.459   0.805 -0.7798 -0.6179  1.3155
  677SOL     OW 2029   2.454   1.500   2.717  0.1443  1.1670  0.0103
  677SOL    HW1 2030   2.541   1.552   2.727  2.8239  2.2566 -0.3062
  677SOL    HW2 2031   2.384   1.560   2.680  1.1010  1.2338  1.8993
  678SOL     OW 2032   0.338   0.036   1.149 -0.1005 -0.2663 -0.1703
  678SOL    HW1 2033   0.304   3.086   1.239  0.1209  0.6931 -1.6692
  678SOL    HW2 2034   0.433   0.065   1.158 -0.0857 -0.4861 -0.6942
  679SOL     OW 2035   2.185   0.380   0.020 -0.3732  0.1791 -0.1024
  679SOL    HW1 2036   2.159   0.326   3.030  1.3515 -2.6107  0.6424
  679SOL    HW2 2037   2.246   0.333   0.089 -2.1801 -0.1022  1.4457
  680SOL     OW 2038   0.168   2.372   2.083  0.4164 -0.2474 -0.5232
  680SOL    HW1 2039   0.265   2.355   2.057 -0.6284 -2.2206 -2.0934
  680SOL    HW2 2040   0.152   2.470   2.089 -1.0528 -1.2155 -0.4622
  681SOL     OW 2041   2.107   1.991   1.308 -0.3341  0.2456  0.1585
  681SOL    HW1 2042   2.039   2.054   1.345  0.1722  0.4522 -0.3676
  681SOL    HW2 2043   2.075   1.935   1.226 -0.0292 -0.9601 -1.6902
  682SOL     OW 2044   0.179   2.115   2.155  0.2701 -0.0033 -0.7488
  682SOL    HW1 2045   0.115   2.084   2.085  0.5283  1.1802  1.3157
  682SOL    HW2 2046   0.186   2.215   2.139  0.7637 -1.9472  2.3629
  683SOL     OW 2047   0.037   2.156   1.455 -0.1782 -0.3729  0.3701
  683SOL    HW1 2048   0.005   2.057   1.476  1.7471 -0.8190 -1.7942
  683SOL    HW2 2049   3.061   2.205   1.387 -1.7131  0.9431 -3.2798
  684SOL     OW 2050   2.255   0.892   2.472  0.0508 -0.0106 -0.1127
  684SOL    HW1 2051   2.302   0.932   2.391 -1.0843  1.4044  0.2548
  684SOL    HW2 2052   2.229   0.961   2.541 -1.3483 -0.2759 -3.2707
  685SOL     OW 2053   1.386   1.509   0.585 -0.1303 -0.4789 -0.2995
  685SOL    HW1 2054   1.458   1.440   0.561  0.5051  1.4156  2.9659
  685SOL    HW2 2055   1.394   1.532   0.684 -1.4972 -2.6438 -1.1007
  686SOL     OW 2056   0.205   0.024   0.501 -0.1209 -0.3592 -0.6152
  686SOL    HW1 2057   0.258   0.107   0.531  1.3914  1.1391  2.4858
  686SOL    HW2 2058   0.141   0.000   0.581 -0.5719 -0.4084 -1.4071
  687SOL     OW 2059   1.444   1.523   2.508 -0.4842 -0.8138 -0.2250
  687SOL    HW1 2060   1.516   1.456   2.473  1.8556 -2.8485  0.4560
  687SOL    HW2 2061   1.492   1.584   2.576 -0.5311 -2.6449  1.4169
  688SOL     OW 2062   1.038   1.518   1.604  0.0751  0.2726 -0.3045
  688SOL    HW1 2063   0.948   1.567   1.621 -0.2361 -0.6525 -1.0679
  688SOL    HW2 2064   1.097   1.522   1.686  0.5288 -2.3306 -0.2245
  689SOL     OW 2065   2.254   0.163   1.228  0.0509 -0.9986  0.0642
  689SOL    HW1 2066   2.297   0.244   1.186 -0.3452 -2.8636  0.2694
  689SOL    HW2 2067   2.274   0.080   1.172 -1.2759  0.7991 -1.5252
  690SOL     OW 2068   3.049   1.447   1.147  0.0924  0.1530  0.0111
  690SOL    HW1 2069   3.017   1.456   1.050  1.4992  1.8118 -2.2436
  690SOL    HW2 2070   3.048   1.348   1.174  4.1411 -0.5679 -1.9962
  691SOL     OW 2071   0.398   2.362   1.112  0.3293  0.3450 -0.5450
  691SOL    HW1 2072   0.406   2.273   1.162  0.7295 -1.4225 -0.1164
  691SOL    HW2 2073   0.463   2.362   1.035 -0.5253  1.7157  1.4740
  692SOL     OW 2074   2.186   0.517   1.840 -0.0227 -0.3455  1.0846
  692SOL    HW1 2075   2.134   0.455   1.902  1.8429 -0.0299  0.6479
  692SOL    HW2 2076   2.286   0.493   1.834  1.5427  0.0127  0.3587
  693SOL     OW 2077   0.541   1.948   2.021 -0.7901 -0.5892 -0.5106
  693SOL    HW1 2078   0.614   1.878   2.039 -1.9407 -0.3996 -1.1959
  693SOL    HW2 2079   0.477   1.962   2.102 -0.3219  1.0156  1.0958
  694SOL     OW 2080   1.466   1.035   1.504  0.0371  0.3742  0.6776
  694SOL    HW1 2081   1.401   1.063   1.434 -2.6058 -0.9446 -4.0966
  694SOL    HW2 2082   1.532   0.969   1.466 -0.3288  1.6582 -0.9705
  695SOL     OW 2083   0.693   1.322   0.752  0.1864  0.4638  0.6105
  695SOL    HW1 2084   0.722   1.227   0.771  1.6403 -1.0869  0.6296
  695SOL    HW2 2085   0.594   1.327   0.723 -2.9245 -0.6392  0.7669
  696SOL     OW 2086   1.093   3.001   0.574 -0.4002  0.0028 -0.0237
  696SOL    HW1 2087   1.157   2.961   0.508  0.0963  2.3207  1.1840
  696SOL    HW2 2088   1.146   3.079   0.613  2.1313 -0.4781 -3.3657
  697SOL     OW 2089   1.445   0.483   1.793 -0.5468 -0.0991 -0.1925
  697SOL    HW1 2090   1.438   0.405   1.859  0.7188  0.8502  0.6229
  697SOL    HW2 2091   1.428   0.568   1.850 -1.3135  1.1852  0.2503
  698SOL     OW 2092   1.713   1.342   2.197 -1.0390  0.0569 -0.0772
  698SOL    HW1 2093   1.786   1.408   2.163  0.8161 -0.1458 -0.8468
  698SOL    HW2 2094   1.647   1.317   2.123  1.6884 -2.0130  2.0767
  699SOL     OW 2095   2.441   0.434   1.873 -0.3666 -0.1174 -0.4638
  699SOL    HW1 2096   2.520   0.498   1.891  0.4486  2.7893 -0.4986
  699SOL    HW2 2097   2.451   0.381   1.788 -0.8867  0.9784  0.0156
  700SOL     OW 2098   0.942   2.124   0.355 -0.8321 -0.1428  0.0289
  700SOL    HW1 2099   0.876   2.085   0.288 -2.1704  2.0158  2.1846
  700SOL    HW2 2100   0.920   2.108   0.456 -0.0390 -2.0742  3.3899
  701SOL     OW 2101   2.016   2.738   2.595  0.9596  0.4813 -0.1749
  701SOL    HW1 2102   1.942   2.721   2.524 -2.0745  1.4637 -2.6992
  701SOL    HW2 2103   1.971   2.720   2.684 -2.1157  1.0512 -1.3131
  702SOL     OW 2104   1.078   0.186   1.044 -0.6948 -0.0377  0.3016
  702SOL    HW1 2105   1.126   0.106   1.007  3.0573  0.3755 -0.3695
  702SOL    HW2 2106   1.061   0.252   0.967  0.9398  3.6529 -0.3950
  703SOL     OW 2107   2.557   2.894   2.096 -0.0378 -0.0910 -0.1190
  703SOL    HW1 2108   2.471   2.888   2.146  0.0756  0.1735 -0.7989
  703SOL    HW2 2109   2.611   2.806   2.097  1.7135 -0.8961  0.8837
  704SOL     OW 2110   3.014   2.299   0.423  0.0220 -0.6581  0.6578
  704SOL    HW1 2111   3.086   2.250   0.472 -2.6714  0.9509  0.6417
  704SOL    HW2 2112   2.959   2.233   0.368  0.4852 -2.5734  0.9792
  705SOL     OW 2113   2.460   2.716   2.358  0.1506  0.3711  0.5742
  705SOL    HW1 2114   2.364   2.703   2.390 -3.1046 -0.6112  1.8722
  705SOL    HW2 2115   2.464   2.676   2.263 -1.5053 -1.6147 -0.1446
  706SOL     OW 2116   2.310   3.035   1.090  0.1810  0.2906  0.7922
  706SOL    HW1 2117   2.357   3.038   1.000 -0.2873 -0.3521 -0.1387
  706SOL    HW2 2118   2.333   2.950   1.141 -0.4992 -1.9649  0.4556
  707SOL     OW 2119   0.952   3.010   2.394  0.1738  0.6180  0.2215
  707SOL    HW1 2120   1.002   2.947   2.331  0.3382 -2.2501 -3.0888
  707SOL    HW2 2121   0.855   3.011   2.358 -2.0126 -1.3406  0.3856
  708SOL     OW 2122   3.011   2.110   1.741  0.1916  0.3368  0.1188
  708SOL    HW1 2123   3.084   2.183   1.737  0.3466 -0.4071  1.0357
  708SOL    HW2 2124   3.000   2.064   1.651 -0.1100  0.0127  0.7063
  709SOL     OW 2125   1.533   0.461   1.252  0.0338 -0.2035  0.0772
  709SOL    HW1 2126   1.570   0.509   1.169  1.3249  1.4809 -2.2850
  709SOL    HW2 2127   1.515   0.368   1.223  2.1511  1.1250 -0.4546
  710SOL     OW 2128   0.651   0.108   2.748  0.0747  0.3747 -0.3738
  710SOL    HW1 2129   0.693   0.020   2.763  0.6062  2.6585 -2.1606
  710SOL    HW2 2130   0.707   0.185   2.781  0.9249 -1.1476 -0.5580
  711SOL     OW 2131   0.804   1.977   2.509  0.4766  0.5835 -0.2269
  711SOL    HW1 2132   0.710   1.988   2.554 -2.4722  0.6133 -2.6890
  711SOL    HW2 2133   0.857   1.897   2.544 -1.1473  0.7767  1.0328
  712SOL     OW 2134   0.990   2.077   2.902  0.4435  0.1174  0.3891
  712SOL    HW1 2135   0.903   2.111   2.948 -0.4670  0.6457  0.8318
  712SOL    HW2 2136   1.003   2.126   2.813 -0.0577  0.3317 -0.5036
  713SOL     OW 2137   1.816   0.853   1.971  0.3912 -0.1295  0.1512
  713SOL    HW1 2138   1.820   0.876   1.872 -0.1079  0.1636  0.0127
  713SOL    HW2 2139   1.894   0.799   2.010 -1.2558  0.3429 -0.9917
  714SOL     OW 2140   1.303   1.740   1.852 -0.3511  0.0019 -0.6446
  714SOL    HW1 2141   1.305   1.798   1.937  1.8659 -0.2206  1.7923
  714SOL    HW2 2142   1.264   1.790   1.770  2.1541 -0.8394 -0.7818
  715SOL     OW 2143   2.265   0.639   3.077 -0.4379 -0.2782  0.5044
  715SOL    HW1 2144   2.216   0.552   3.089  1.7254 -0.6324  0.2414
  715SOL    HW2 2145   2.246   0.705   0.059  0.0416 -0.0649  1.3656
  716SOL     OW 2146   2.953   2.244   1.247 -0.2508 -0.1317 -0.3181
  716SOL    HW1 2147   2.859   2.221   1.281 -0.5698 -1.1531 -0.8132
  716SOL    HW2 2148   2.962   2.341   1.216 -3.0153 -1.9802  0.9333
  717SOL     OW 2149   2.786   1.250   0.860  0.5359  0.3501  0.0904
  717SOL    HW1 2150   2.759   1.160   0.894  0.5680 -1.2178 -2.5316
  717SOL    HW2 2151   2.819   1.248   0.762  0.4182 -0.1634 -0.9391
  718SOL     OW 2152   1.449   1.729   1.591  0.2082  0.0427 -0.6482
  718SOL    HW1 2153   1.540   1.713   1.636  1.2847 -0.6558  0.3026
  718SOL    HW2 2154   1.382   1.654   1.611 -3.1653 -0.9660  2.4368
  719SOL     OW 2155   2.730   0.613   0.055  0.3085  0.6824  0.6825
  719SOL    HW1 2156   2.778   0.676   3.083 -2.4407  0.8966 -1.6126
  719SOL    HW2 2157   2.782   0.536   0.091 -0.5385  0.8597  0.2804
  720SOL     OW 2158   1.059   0.372   0.832 -0.3276  0.2547 -0.1776
  720SOL    HW1 2159   1.045   0.398   0.736  0.8457 -0.0196  3.0908
  720SOL    HW2 2160   0.977   0.393   0.888  1.5514  2.0945 -0.5559
  721SOL     OW 2161   2.640   0.757   0.532 -0.3356 -0.2050  0.0313
  721SOL    HW1 2162   2.630   0.673   0.477 -1.4676 -1.3977  0.6380
  721SOL    HW2 2163   2.735   0.761   0.567  1.1165  0.9692  0.0658
  722SOL     OW 2164   0.479   2.591   2.508 -0.2896  0.2890  0.2430
  722SOL    HW1 2165   0.515   2.502   2.552  1.1770 -2.0866  0.8187
  722SOL    HW2 2166   0.455   2.577   2.413 -1.4935  3.4615  1.7533
  723SOL     OW 2167   2.042   0.217   0.909  0.6527  0.1374  0.2862
  723SOL    HW1 2168   2.094   0.289   0.959 -2.9258 -1.3087 -0.7038
  723SOL    HW2 2169   1.943   0.240   0.916 -1.2019 -0.4401 -0.6509
  724SOL     OW 2170   1.029   1.706   2.320  0.3164  0.1188  0.7509
  724SOL    HW1 2171   1.087   1.747   2.249 -2.6804  3.3125  0.2438
  724SOL    HW2 2172   1.071   1.617   2.359 -0.2683 -1.8026 -0.1984
  725SOL     OW 2173   1.466   2.857   1.389  0.1847  0.6511  0.3067
  725SOL    HW1 2174   1.419   2.942   1.414 -0.4536  0.1975 -1.9855
  725SOL    HW2 2175   1.410   2.774   1.410  2.5817 -0.7569  0.8592
  726SOL     OW 2176   2.227   2.666   3.043  0.0131 -0.1453  0.2557
  726SOL    HW1 2177   2.253   2.751   2.992  0.5162  0.3869  1.2544
  726SOL    HW2 2178   2.307   2.622   0.001  0.2619 -0.8919  0.1571
  727SOL     OW 2179   1.371   1.949   0.977 -0.7706  0.2131  0.5211
  727SOL    HW1 2180   1.342   1.935   1.072 -1.2033  0.3605 -1.2889
  727SOL    HW2 2181   1.461   1.896   0.967  1.4293  0.0142  1.1792
  728SOL     OW 2182   2.163   2.519   2.214  0.0822 -0.0705  0.3140
  728SOL    HW1 2183   2.182   2.597   2.281 -0.2868  0.8187 -1.8262
  728SOL    HW2 2184   2.070   2.473   2.235 -1.9485  1.3710 -0.7563
  729SOL     OW 2185   1.937   2.353   1.451 -0.0717 -0.6953 -0.0997
  729SOL    HW1 2186   1.945   2.402   1.363  0.2759 -1.8563  2.6541
  729SOL    HW2 2187   1.979   2.411   1.524  0.9033  1.9536 -0.7641
  730SOL     OW 2188   1.663   0.846   2.531  0.0749  0.0855 -0.0750
  730SOL    HW1 2189   1.613   0.823   2.613 -0.6106  1.6308 -0.3237
  730SOL    HW2 2190   1.641   0.942   2.502 -2.7705  0.4071 -3.5197
  731SOL     OW 2191   0.818   0.037   1.407  0.2404  0.4975  0.8357
  731SOL    HW1 2192   0.865   3.057   1.464  1.9884 -0.4828  2.0149
  731SOL    HW2 2193   0.833   0.021   1.309 -0.0555  1.4476  0.4773
  732SOL     OW 2194   1.226   0.116   0.682  0.0220  0.2070  0.3677
  732SOL    HW1 2195   1.175   0.205   0.688  0.4351 -0.6486  2.0070
  732SOL    HW2 2196   1.327   0.128   0.661 -1.8202 -0.6368 -2.2251
  733SOL     OW 2197   1.185   1.543   0.967  0.1754 -0.5018  0.5541
  733SOL    HW1 2198   1.271   1.528   0.916 -0.0042 -1.0950 -0.8169
  733SOL    HW2 2199   1.162   1.455   1.013 -1.4986 -2.2549 -1.7394
  734SOL     OW 2200   2.665   2.454   2.474  0.1833  0.2709 -0.2615
  734SOL    HW1 2201   2.659   2.553   2.460  1.2562 -1.7777 -0.8960
  734SOL    HW2 2202   2.737   2.410   2.418  0.1858 -0.5369  0.7949
  735SOL     OW 2203   0.846   0.038   1.140  0.0841 -0.0830 -0.2223
  735SOL    HW1 2204   0.832   3.038   1.090  2.5673 -1.7589 -0.9187
  735SOL    HW2 2205   0.913   0.103   1.094  2.2795  0.5670 -3.9792
  736SOL     OW 2206   1.463   2.128   2.826  0.1371  0.5497 -0.2402
  736SOL    HW1 2207   1.394   2.082   2.768 -2.4615  0.6344  0.0355
  736SOL    HW2 2208   1.539   2.062   2.842  0.6372  1.2500 -2.2476
  737SOL     OW 2209   0.429   2.137   1.260  0.6102 -0.1032  0.1163
  737SOL    HW1 2210   0.388   2.045   1.257  0.5723  2.2250  1.2438
  737SOL    HW2 2211   0.400   2.174   1.351  0.5481  0.7942 -0.8621
  738SOL     OW 2212   1.531   2.722   2.643  0.1281  0.1316  1.0725
  738SOL    HW1 2213   1.596   2.759   2.715 -1.7083 -0.4923  0.8343
  738SOL    HW2 2214   1.572   2.634   2.613  2.0329 -0.3179 -0.6173
  739SOL     OW 2215   1.126   1.940   2.176  0.1129 -0.3482 -0.6251
  739SOL    HW1 2216   1.162   2.036   2.171 -0.4016  2.1708  0.2669
  739SOL    HW2 2217   1.028   1.933   2.206  1.1003 -0.0118 -0.2583
  740SOL     OW 2218   1.225   2.700   1.193 -0.2227  0.1003  0.0313
  740SOL    HW1 2219   1.240   2.600   1.179 -1.1644  3.0692 -1.2494
  740SOL    HW2 2220   1.150   2.713   1.263  0.2104 -1.5447  1.2668
  741SOL     OW 2221   2.763   1.092   0.151  0.0050  0.2199  0.2204
  741SOL    HW1 2222   2.719   1.004   0.180 -0.8820  3.1472 -0.7372
  741SOL    HW2 2223   2.715   1.134   0.069 -0.5204  1.5411  0.7520
  742SOL     OW 2224   0.752   1.686   2.357  0.3738  0.2266  0.0714
  742SOL    HW1 2225   0.846   1.687   2.315 -0.5148 -1.2774 -0.8831
  742SOL    HW2 2226   0.685   1.636   2.296 -1.3017 -0.0675 -0.1714
  743SOL     OW 2227   0.879   0.900   2.198  0.4316  0.4437 -0.3013
  743SOL    HW1 2228   0.813   0.930   2.271  2.0961 -0.8659  2.3497
  743SOL    HW2 2229   0.902   0.802   2.207  1.5863  1.6836 -1.3692
  744SOL     OW 2230   2.086   2.504   1.610  0.0228  0.1854  0.2771
  744SOL    HW1 2231   2.158   2.483   1.681 -2.1925  1.3097 -2.2761
  744SOL    HW2 2232   2.045   2.596   1.619  0.3580  0.3854 -0.3203
  745SOL     OW 2233   1.786   1.153   1.376  0.3781 -0.4359 -0.1645
  745SOL    HW1 2234   1.771   1.253   1.351  0.4676  1.4846  2.5179
  745SOL    HW2 2235   1.876   1.156   1.424  2.4158 -2.4075 -1.1475
  746SOL     OW 2236   2.122   0.893   0.993 -0.2749  0.1606  0.0921
  746SOL    HW1 2237   2.112   0.992   0.978  3.4012 -2.2437 -1.2787
  746SOL    HW2 2238   2.036   0.837   0.982  0.9472 -1.5704 -0.3359
  747SOL     OW 2239   1.965   1.771   0.816  0.0266  0.0289  0.1849
  747SOL    HW1 2240   1.977   1.869   0.802 -0.2425 -4.2695  1.0231
  747SOL    HW2 2241   1.904   1.740   0.741  0.4611 -0.0246 -2.9762
  748SOL     OW 2242   0.720   1.614   0.495 -0.4426  0.2931 -0.0297
  748SOL    HW1 2243   0.621   1.616   0.518  0.9435 -0.3016 -0.6112
  748SOL    HW2 2244   0.732   1.633   0.393  1.7811 -2.9474  2.0525
  749SOL     OW 2245   3.033   2.580   2.506  0.0527  0.1062  0.1704
  749SOL    HW1 2246   2.984   2.626   2.424 -1.9234 -0.0939 -0.9879
  749SOL    HW2 2247   2.968   2.574   2.580  2.6381  2.0190 -1.5405
  750SOL     OW 2248   1.980   0.531   1.229  0.4407 -0.1597 -0.7356
  750SOL    HW1 2249   2.067   0.492   1.194  1.3124 -1.0890  0.1426
  750SOL    HW2 2250   1.902   0.468   1.246  2.0898  0.4880  0.6459
  751SOL     OW 2251   2.281   0.167   0.226 -0.0775 -0.2022 -0.0800
  751SOL    HW1 2252   2.293   0.104   0.149 -2.8092  1.8172  1.5837
  751SOL    HW2 2253   2.251   0.113   0.311 -2.2391  0.1445  1.3295
  752SOL     OW 2254   2.279   2.243   0.332 -0.0559 -0.5524  0.5449
  752SOL    HW1 2255   2.261   2.319   0.394  2.9232 -1.7759 -2.1230
  752SOL    HW2 2256   2.281   2.159   0.390 -0.9302  0.9787  0.2974
  753SOL     OW 2257   1.959   1.553   2.418 -0.6655  0.4619  0.0580
  753SOL    HW1 2258   2.053   1.505   2.425 -0.7162 -3.8060  0.5546
  753SOL    HW2 2259   1.933   1.570   2.323  0.3676 -1.4102 -0.5695
  754SOL     OW 2260   2.538   2.314   1.483  0.1544 -0.3653 -0.3850
  754SOL    HW1 2261   2.544   2.303   1.584 -1.8048 -0.6586 -1.0519
  754SOL    HW2 2262   2.464   2.258   1.443 -1.8203  0.7147  0.7001
  755SOL     OW 2263   2.456   0.676   0.974  0.1740 -0.3391  0.0865
  755SOL    HW1 2264   2.418   0.612   1.043  2.4429  0.0884 -0.1423
  755SOL    HW2 2265   2.431   0.657   0.878  1.1730 -1.2918  3.9696
  756SOL     OW 2266   1.354   1.794   2.810 -0.1260  0.4589 -0.7315
  756SOL    HW1 2267   1.456   1.774   2.807 -0.5955 -0.0633 -1.1892
  756SOL    HW2 2268   1.318   1.800   2.714 -0.0988 -3.5843  2.6815
  757SOL     OW 2269   1.704   2.637   1.075  0.6440 -0.1894 -0.1280
  757SOL    HW1 2270   1.750   2.721   1.112  0.5123  0.6544  3.6982
  757SOL    HW2 2271   1.684   2.648   0.977  0.8562  0.3444  1.1588
  758SOL     OW 2272   1.000   2.325   1.563 -0.3936  0.3789  0.5741
  758SOL    HW1 2273   1.015   2.234   1.616 -1.1730 -0.4379  2.3068
  758SOL    HW2 2274   1.013   2.322   1.461  1.6268  0.1787  0.8624
  759SOL     OW 2275   2.179   1.210   1.150 -0.1777 -0.3336 -0.2895
  759SOL    HW1 2276   2.156   1.294   1.197 -1.0051 -3.2342  0.9488
  759SOL    HW2 2277   2.110   1.189   1.079  1.3375  1.1265  2.4114
  760SOL     OW 2278   2.265   0.835   1.218 -0.6803 -0.3025  0.2305
  760SOL    HW1 2279   2.198   0.846   1.143 -1.7258 -1.6791  0.8512
  760SOL    HW2 2280   2.237   0.900   1.295 -1.0482  0.3641 -1.5360
  761SOL     OW 2281   2.078   2.908   0.132  0.2792  0.4663 -0.4258
  761SOL    HW1 2282   2.107   2.883   0.228 -0.6468 -0.7195  1.1557
  761SOL    HW2 2283   2.081   2.825   0.076  2.9864  2.0643 -0.9540
  762SOL     OW 2284   1.964   1.735   2.926 -0.4794  0.0696  0.0671
  762SOL    HW1 2285   1.907   1.817   2.912 -3.8658  0.2696  2.5484
  762SOL    HW2 2286   2.052   1.758   2.971  0.4008  0.6071  0.6439
  763SOL     OW 2287   0.194   1.148   1.366  0.5277 -0.1359 -0.1948
  763SOL    HW1 2288   0.105   1.168   1.318  0.4941  3.3323  0.8920
  763SOL    HW2 2289   0.272   1.196   1.316  0.3483  0.2175 -0.4142
  764SOL     OW 2290   2.866   2.486   3.025 -0.8246 -0.5221 -0.0680
  764SOL    HW1 2291   2.846   2.471   0.035 -1.2641  0.7106  0.3120
  764SOL    HW2 2292   2.903   2.401   2.978 -0.8352  1.3373 -0.3643
  765SOL     OW 2293   0.772   3.070   2.088  0.5187  0.3656  0.2641
  765SOL    HW1 2294   0.828   0.062   2.067  2.0473  1.9661 -1.8239
  765SOL    HW2 2295   0.674   0.005   2.083 -1.5084  0.4101 -1.9222
  766SOL     OW 2296   0.110   2.146   2.428 -0.1597 -0.0752 -0.2698
  766SOL    HW1 2297   0.019   2.103   2.435  0.6704 -0.2049 -1.0678
  766SOL    HW2 2298   0.143   2.134   2.333 -0.2036 -1.7900 -0.7435
  767SOL     OW 2299   2.960   1.201   1.883 -0.1777  0.2514 -0.1336
  767SOL    HW1 2300   3.001   1.250   1.960 -0.4541  0.2355 -0.9510
  767SOL    HW2 2301   2.862   1.186   1.906  0.2413  1.5435  0.2211
  768SOL     OW 2302   1.156   0.649   2.823  0.1603  0.1680  0.1591
  768SOL    HW1 2303   1.096   0.666   2.906 -1.2031 -0.6653  0.1149
  768SOL    HW2 2304   1.250   0.627   2.855  0.8888  1.3696  1.0723
  769SOL     OW 2305   2.001   2.171   0.567  0.4293 -0.0340 -0.7085
  769SOL    HW1 2306   2.069   2.244   0.538  1.1641 -0.9784  0.7517
  769SOL    HW2 2307   1.906   2.204   0.546  0.2005 -2.5684 -1.3166
  770SOL     OW 2308   2.882   0.398   0.157  0.5948  0.0005 -0.3186
  770SOL    HW1 2309   2.799   0.341   0.169 -3.4315 -2.2118 -2.3587
  770SOL    HW2 2310   2.959   0.364   0.217 -0.5228 -1.1385 -1.2412
  771SOL     OW 2311   1.623   2.215   1.928  0.0002  0.1515  0.8719
  771SOL    HW1 2312   1.651   2.255   1.837  3.0845 -0.5513 -1.0393
  771SOL    HW2 2313   1.587   2.121   1.908 -0.0021  0.9852 -0.1882
  772SOL     OW 2314   0.726   0.364   2.860  0.1265 -0.3352  0.0715
  772SOL    HW1 2315   0.671   0.408   2.933  0.2544 -1.0783 -0.8297
  772SOL    HW2 2316   0.735   0.424   2.774  0.8842  0.5883 -1.7381
  773SOL     OW 2317   2.904   0.877   1.701  0.3324  0.1336 -0.5474
  773SOL    HW1 2318   2.957   0.828   1.627 -1.6337  1.5299 -0.6461
  773SOL    HW2 2319   2.964   0.873   1.784 -3.4974 -0.2392  0.4836
  774SOL     OW 2320   1.481   1.279   0.429 -0.1328  0.1960 -0.0139
  774SOL    HW1 2321   1.417   1.213   0.383 -0.0089 -2.0906  0.6107
  774SOL    HW2 2322   1.538   1.332   0.360 -0.4892  1.6348 -0.1925
  775SOL     OW 2323   2.412   3.048   0.059 -0.1894 -0.2366  0.2847
  775SOL    HW1 2324   2.498   3.047   0.112 -1.5800  0.2934  3.6894
  775SOL    HW2 2325   2.403   2.967   3.087 -2.0304 -1.2684  1.3228
  776SOL     OW 2326   2.313   0.982   2.198 -0.5545 -0.1393  0.1894
  776SOL    HW1 2327   2.273   1.070   2.177  2.4176 -1.8801 -1.1557
  776SOL    HW2 2328   2.264   0.898   2.162 -1.5082 -0.4643 -1.1429
  777SOL     OW 2329   0.085   1.103   2.794  0.5649 -0.2358  0.5396
  777SOL    HW1 2330   0.186   1.083   2.776 -1.8466 -1.2581  1.4303
  777SOL    HW2 2331   0.024   1.067   2.719 -0.2207 -0.1981 -2.3846
  778SOL     OW 2332   0.682   0.506   0.381  0.7476 -0.4145  0.2391
  778SOL    HW1 2333   0.779   0.470   0.376  0.5525 -0.2982  0.8426
  778SOL    HW2 2334   0.623   0.427   0.353 -1.2247  3.3467 -3.1225
  779SOL     OW 2335   0.779   0.542   2.635  0.4289  0.0931  0.5227
  779SOL    HW1 2336   0.803   0.623   2.696 -1.7309 -0.0160 -1.0986
  779SOL    HW2 2337   0.726   0.583   2.555 -1.5198  2.0773 -2.0461
  780SOL     OW 2338   1.874   1.007   2.398 -0.0829  0.1326  0.4185
  780SOL    HW1 2339   1.806   1.017   2.323 -1.9207  1.9164 -0.3791
  780SOL    HW2 2340   1.914   0.915   2.388  0.1241  2.0526 -0.6744
  781SOL     OW 2341   3.076   0.874   1.912  0.2718 -0.0806 -1.1410
  781SOL    HW1 2342   0.069   0.929   1.880 -0.6405 -2.2727  1.4620
  781SOL    HW2 2343   3.053   0.917   2.003  0.1599  0.6647  0.5690
  782SOL     OW 2344   0.810   1.568   2.621 -0.0776  0.1923 -0.0594
  782SOL    HW1 2345   0.790   1.594   2.523 -0.6913 -1.8159 -0.6847
  782SOL    HW2 2346   0.817   1.657   2.671 -0.9729 -0.1757 -1.7855
  783SOL     OW 2347   0.648   2.480   1.657 -0.1214  0.0305  0.0084
  783SOL    HW1 2348   0.646   2.383   1.641 -1.3350  2.1867  1.6148
  783SOL    HW2 2349   0.660   2.537   1.571  0.2464  0.5980 -0.3878
  784SOL     OW 2350   1.419   0.333   2.877 -0.7386  0.1536  0.5259
  784SOL    HW1 2351   1.440   0.305   2.783 -1.4886  2.1639  1.1748
  784SOL    HW2 2352   1.412   0.435   2.880 -1.0267 -1.7015  2.8102
  785SOL     OW 2353   1.084   0.553   2.581 -0.5940  0.1435 -0.6231
  785SOL    HW1 2354   1.135   0.467   2.558  2.4277 -0.4715 -1.1880
  785SOL    HW2 2355   1.105   0.583   2.677  2.9496 -0.6862  1.5509
  786SOL     OW 2356   0.488   1.793   0.226 -0.4229  0.3044 -0.2085
  786SOL    HW1 2357   0.575   1.734   0.209  2.2128  1.2119 -0.4424
  786SOL    HW2 2358   0.494   1.838   0.313  2.6426  0.4777 -2.5933
  787SOL     OW 2359   1.823   1.151   0.473  0.1351  0.2309 -0.0620
  787SOL    HW1 2360   1.908   1.151   0.417 -0.5372 -2.5705  2.6129
  787SOL    HW2 2361   1.818   1.051   0.514  0.3813 -4.0373 -0.6351
  788SOL     OW 2362   1.912   1.557   1.542 -0.2629 -0.3206  0.0582
  788SOL    HW1 2363   1.961   1.645   1.570 -1.8855  0.7655 -0.2128
  788SOL    HW2 2364   1.968   1.475   1.562 -0.6768 -0.6445 -2.0807
  789SOL     OW 2365   0.201   1.672   2.138  0.1495  0.0322 -0.2252
  789SOL    HW1 2366   0.113   1.717   2.125 -0.7772  1.0058  0.0053
  789SOL    HW2 2367   0.236   1.690   2.234 -0.1335  0.1296  1.4891
  790SOL     OW 2368   0.593   2.749   0.316 -0.3891 -0.0598 -0.1080
  790SOL    HW1 2369   0.556   2.760   0.222  1.5470  0.2007 -0.5161
  790SOL    HW2 2370   0.528   2.786   0.386 -1.3502 -2.0587 -2.6707
  791SOL     OW 2371   0.599   0.293   0.036 -0.0696 -0.0847 -0.5863
  791SOL    HW1 2372   0.633   0.389   0.040 -0.8450 -0.4823  0.8313
  791SOL    HW2 2373   0.580   0.252   3.033  0.4891 -1.9168 -0.7217
  792SOL     OW 2374   1.605   0.598   2.147  0.0408  0.4210 -0.2169
  792SOL    HW1 2375   1.687   0.639   2.197 -0.7572  2.0979  1.0792
  792SOL    HW2 2376   1.536   0.671   2.133  1.0887 -1.9358 -1.6714
  793SOL     OW 2377   0.345   0.567   0.863  0.0173 -0.6149 -0.0950
  793SOL    HW1 2378   0.344   0.483   0.805  3.0711 -1.6945  1.1481
  793SOL    HW2 2379   0.400   0.556   0.951 -0.3605  1.7678  0.7938
  794SOL     OW 2380   0.563   0.074   1.479  0.3485  0.2573 -0.4729
  794SOL    HW1 2381   0.664   0.056   1.470 -1.3473 -1.0076 -0.9480
  794SOL    HW2 2382   0.544   0.177   1.473  1.3758  0.6963  0.8589
  795SOL     OW 2383   3.063   1.363   0.072  0.1079  0.3726 -0.0084
  795SOL    HW1 2384   0.046   1.297   0.100  0.3941 -1.0370  2.9728
  795SOL    HW2 2385   3.017   1.333   3.077 -1.6272 -0.7843  3.1653
  796SOL     OW 2386   3.054   0.532   3.071 -0.0539  0.5980  0.0416
  796SOL    HW1 2387   0.041   0.567   0.040 -1.4842  0.6313  2.2883
  796SOL    HW2 2388   2.985   0.484   0.034  0.3609  1.1357 -0.2324
  797SOL     OW 2389   1.502   2.581   3.049  0.8119  0.5345  0.1541
  797SOL    HW1 2390   1.467   2.610   0.051 -2.1278 -2.1645 -1.0130
  797SOL    HW2 2391   1.447   2.499   3.019 -4.7954  0.9271 -0.2971
  798SOL     OW 2392   2.908   0.524   0.787 -0.7671  0.1749 -0.6814
  798SOL    HW1 2393   2.919   0.456   0.713  0.4394 -0.9808 -1.1569
  798SOL    HW2 2394   2.997   0.545   0.832 -0.6798 -1.3407 -0.4443
  799SOL     OW 2395   2.539   0.619   2.167  0.3375  0.3160 -0.0658
  799SOL    HW1 2396   2.443   0.600   2.197  1.4673  0.0162  0.2124
  799SOL    HW2 2397   2.547   0.706   2.115 -0.7073  0.2388  0.3600
  800SOL     OW 2398   0.127   2.151   0.499 -0.9913 -0.7317  0.0018
  800SOL    HW1 2399   0.094   2.106   0.589  1.8089  1.0228  3.6414
  800SOL    HW2 2400   0.150   2.086   0.426 -2.6663  1.2989  0.3481
  801SOL     OW 2401   1.195   1.896   0.777 -0.7533  0.0652  0.1587
  801SOL    HW1 2402   1.261   1.908   0.856  1.5288  0.0957 -0.3678
  801SOL    HW2 2403   1.135   1.812   0.787  3.0330 -0.3006 -0.7256
  802SOL     OW 2404   0.986   1.791   2.595 -0.1246 -0.5614  0.7622
  802SOL    HW1 2405   1.080   1.778   2.634 -0.4218 -0.9945 -1.2217
  802SOL    HW2 2406   0.992   1.771   2.498 -2.2772 -1.6561  0.4201
  803SOL     OW 2407   2.980   1.902   1.528  0.7779 -0.1647  0.0254
  803SOL    HW1 2408   2.935   1.887   1.435 -2.2195 -2.7892 -0.8296
  803SOL    HW2 2409   3.070   1.849   1.531 -0.5346 -3.1406 -0.8099
  804SOL     OW 2410   1.144   2.559   1.563  0.5076 -0.3518  0.3078
  804SOL    HW1 2411   1.236   2.519   1.566 -1.3113  1.1666 -0.6474
  804SOL    HW2 2412   1.082   2.481   1.596  1.1638 -2.2858 -0.0199
  805SOL     OW 2413   2.331   1.606   2.988  0.1895 -0.2908 -0.3433
  805SOL    HW1 2414   2.292   1.519   2.954  0.0574 -0.1206 -0.3542
  805SOL    HW2 2415   2.308   1.684   2.924  0.4753  4.2348  2.4232
  806SOL     OW 2416   2.042   2.939   0.666 -0.4991 -0.0855 -0.2893
  806SOL    HW1 2417   2.060   2.843   0.681 -0.1198  2.7247 -1.4611
  806SOL    HW2 2418   2.115   3.001   0.709 -1.4674 -0.2572  2.0166
  807SOL     OW 2419   2.850   0.695   2.692 -0.1852 -0.0363  0.2929
  807SOL    HW1 2420   2.847   0.712   2.796 -0.9912  0.9551  3.5187
  807SOL    HW2 2421   2.757   0.694   2.655  3.3225  2.1758  2.0760
  808SOL     OW 2422   0.519   1.144   0.493 -0.4924  0.0145  0.4004
  808SOL    HW1 2423   0.589   1.162   0.423  1.4038 -0.3634  2.1663
  808SOL    HW2 2424   0.511   1.225   0.556  0.0824 -1.5322 -0.5402
  809SOL     OW 2425   2.568   0.808   1.961  0.0713  0.6706 -0.4080
  809SOL    HW1 2426   2.490   0.848   1.910  0.8259 -0.9207  0.2641
  809SOL    HW2 2427   2.637   0.780   1.889 -0.3848 -0.8935  0.0624
  810SOL     OW 2428   1.208   0.571   1.332 -0.3346  0.5148 -0.1544
  810SOL    HW1 2429   1.246   0.494   1.272  1.2736  2.3440  1.5811
  810SOL    HW2 2430   1.270   0.583   1.415  0.2047  1.5730  0.8012
  811SOL     OW 2431   2.217   2.814   1.788  0.0350 -0.4337  0.2055
  811SOL    HW1 2432   2.306   2.768   1.809  0.7145 -3.5815 -1.5937
  811SOL    HW2 2433   2.217   2.915   1.801  1.3503 -1.4777  0.3989
  812SOL     OW 2434   1.809   2.172   3.066  0.2734  0.3585  0.1794
  812SOL    HW1 2435   1.735   2.216   0.028  1.9597 -0.8691  1.6640
  812SOL    HW2 2436   1.882   2.236   3.041 -1.0022  0.4531  0.1777
  813SOL     OW 2437   1.293   0.848   1.628 -0.2745 -0.8449 -0.0452
  813SOL    HW1 2438   1.353   0.913   1.578 -0.5653  0.7317 -0.3333
  813SOL    HW2 2439   1.302   0.753   1.592  2.5640  0.2644 -1.9367
  814SOL     OW 2440   0.543   0.331   1.421  0.6541  0.6200 -0.5946
  814SOL    HW1 2441   0.467   0.395   1.394 -3.5308  1.5693 -0.4406
  814SOL    HW2 2442   0.589   0.369   1.501  0.6299  0.0901  1.1543
  815SOL     OW 2443   0.601   0.763   0.311  0.0317 -0.1240 -0.2620
  815SOL    HW1 2444   0.632   0.666   0.312 -0.9208 -1.2042 -1.5607
  815SOL    HW2 2445   0.560   0.789   0.399 -1.7161 -1.1216 -3.0919
  816SOL     OW 2446   2.183   1.353   2.411 -0.1625  0.1444 -0.5453
  816SOL    HW1 2447   2.167   1.351   2.509  0.3265  1.0204 -1.2668
  816SOL    HW2 2448   2.274   1.397   2.391 -0.9932 -0.8089 -4.4283
  817SOL     OW 2449   0.959   2.860   0.769 -0.7013 -0.3550 -0.0731
  817SOL    HW1 2450   1.019   2.900   0.839  2.3133 -1.4544  1.1527
  817SOL    HW2 2451   0.987   2.907   0.682  2.0036  2.4445 -1.6184
  818SOL     OW 2452   1.828   0.484   2.832  0.0462  0.0145  0.4683
  818SOL    HW1 2453   1.847   0.515   2.927  1.0678  3.2642  0.2142
  818SOL    HW2 2454   1.801   0.565   2.773 -1.7091 -1.0557 -1.5622
  819SOL     OW 2455   1.650   0.477   0.075 -0.1694  0.4724 -0.0946
  819SOL    HW1 2456   1.734   0.525   0.046 -1.4624 -1.5456  1.9535
  819SOL    HW2 2457   1.654   0.381   0.038 -0.9326  1.1874 -0.4909
  820SOL     OW 2458   1.889   0.587   0.011  0.4763 -0.1254 -0.6747
  820SOL    HW1 2459   1.924   0.527   0.086  1.6038 -1.6026  1.0276
  820SOL    HW2 2460   1.927   0.682   0.021  0.5058 -0.0575  0.5307
  821SOL     OW 2461   2.480   0.276   0.633  0.1492 -0.1345 -0.0587
  821SOL    HW1 2462   2.441   0.275   0.540  2.2921  2.7996 -1.5677
  821SOL    HW2 2463   2.579   0.261   0.634 -1.9803  1.6194  2.4941
  822SOL     OW 2464   0.992   2.415   1.961  0.5345  0.3194 -0.1262
  822SOL    HW1 2465   0.925   2.476   1.911  1.3344  0.6196 -1.8790
  822SOL    HW2 2466   0.952   2.329   2.001 -0.9442 -0.1562  1.4290
  823SOL     OW 2467   0.145   1.372   1.619 -0.5302 -0.5858  0.4707
  823SOL    HW1 2468   0.059   1.414   1.583  1.7122  0.7497 -2.4015
  823SOL    HW2 2469   0.133   1.279   1.660 -0.3836  0.3027 -1.3857
  824SOL     OW 2470   1.340   2.894   2.560 -0.0232  0.4126  0.1137
  824SOL    HW1 2471   1.413   2.833   2.599  1.2712  1.4770  1.1167
  824SOL    HW2 2472   1.308   2.952   2.633  2.0894 -0.6669 -0.4332
  825SOL     OW 2473   2.041   1.100   0.660 -0.2115  0.2616 -0.3235
  825SOL    HW1 2474   1.984   1.019   0.638  1.8028 -0.6392  1.9561
  825SOL    HW2 2475   2.040   1.158   0.578  0.3695 -0.7450 -3.0252
  826SOL     OW 2476   1.981   0.830   0.049 -0.0095  0.9191 -0.2757
  826SOL    HW1 2477   2.057   0.843   0.115 -0.9495  1.5646 -1.3646
  826SOL    HW2 2478   1.896   0.878   0.080  0.7895  0.1435 -0.3259
  827SOL     OW 2479   0.414   1.696   1.774 -0.5118 -0.0317 -0.1092
  827SOL    HW1 2480   0.467   1.760   1.719  0.2400  0.1465  0.9517
  827SOL    HW2 2481   0.472   1.664   1.856 -0.7905  0.8632  0.0234
  828SOL     OW 2482   2.410   1.247   1.616  0.1226  0.0638 -0.4394
  828SOL    HW1 2483   2.414   1.243   1.721  3.7319  0.9710  1.1182
  828SOL    HW2 2484   2.409   1.153   1.579  0.7124  0.8762  1.8377
  829SOL     OW 2485   0.226   1.741   0.166 -0.3822 -0.2534 -0.4350
  829SOL    HW1 2486   0.323   1.749   0.184 -1.3042  0.8025 -0.4336
  829SOL    HW2 2487   0.206   1.672   0.095 -0.1301 -0.2122 -1.8890
  830SOL     OW 2488   1.870   0.894   0.591  0.2210 -0.6449 -0.8177
  830SOL    HW1 2489   1.863   0.821   0.661 -0.7977 -0.9561 -1.4544
  830SOL    HW2 2490   1.835   0.857   0.503  0.2560 -1.2732 -0.2348
  831SOL     OW 2491   3.084   1.759   2.979  0.0921  0.5534  0.0552
  831SOL    HW1 2492   0.044   1.819   2.912  0.0215 -0.1341 -0.2278
  831SOL    HW2 2493   0.049   1.698   3.039 -0.4319 -1.7461 -1.6911
  832SOL     OW 2494   0.946   0.401   0.371  0.1425  0.0547  0.0649
  832SOL    HW1 2495   1.028   0.431   0.427  1.0909 -0.7481  3.3921
  832SOL    HW2 2496   0.980   0.372   0.277  3.8703 -2.9000 -1.3508
  833SOL     OW 2497   0.636   0.478   1.628 -0.1600  0.6896 -0.5802
  833SOL    HW1 2498   0.715   0.543   1.632 -0.6535  0.9520  0.4290
  833SOL    HW2 2499   0.638   0.416   1.709  2.7373  0.1291  1.9452
  834SOL     OW 2500   0.289   0.342   0.707 -0.0512 -0.0017  0.3350
  834SOL    HW1 2501   0.354   0.283   0.656  1.5893  0.3396  0.2894
  834SOL    HW2 2502   0.219   0.376   0.642 -0.0050 -0.9502 -0.4842
  835SOL     OW 2503   2.277   2.778   1.274  0.2202  0.1047 -0.4364
  835SOL    HW1 2504   2.276   2.739   1.367 -3.1905  1.3225  2.0469
  835SOL    HW2 2505   2.354   2.745   1.217  0.7757  0.9136  0.0514
  836SOL     OW 2506   0.513   2.038   0.025 -0.5618  0.2108  0.1106
  836SOL    HW1 2507   0.488   2.094   0.104 -1.0802 -4.2861 -0.6212
  836SOL    HW2 2508   0.525   1.940   0.057 -0.3868 -2.5102  0.5408
  837SOL     OW 2509   1.828   1.415   2.689  0.1614 -0.1924  0.4996
  837SOL    HW1 2510   1.810   1.441   2.786  3.5456  1.0450 -0.1527
  837SOL    HW2 2511   1.927   1.427   2.670  4.7753  1.0293 -1.5490
  838SOL     OW 2512   0.333   1.185   2.016 -0.4528 -0.3206 -0.1377
  838SOL    HW1 2513   0.408   1.226   1.957  1.8718  0.5291 -0.2878
  838SOL    HW2 2514   0.294   1.259   2.080 -0.2028  3.7649 -1.1224
  839SOL     OW 2515   0.306   1.310   0.909 -0.2357 -0.0518  0.1489
  839SOL    HW1 2516   0.358   1.309   0.995 -2.3367 -0.3287 -1.6116
  839SOL    HW2 2517   0.217   1.263   0.917 -2.4933  1.1564  2.2681
  840SOL     OW 2518   2.263   3.025   2.363  0.3238  0.0635 -0.0935
  840SOL    HW1 2519   2.189   3.087   2.341  4.4113 -1.6158 -0.6587
  840SOL    HW2 2520   2.349   3.051   2.314 -0.2181  0.7673 -0.8200
  841SOL     OW 2521   0.993   2.330   0.165 -0.7953 -0.3000  0.2117
  841SOL    HW1 2522   0.981   2.259   0.235 -0.4272 -0.0002 -0.4198
  841SOL    HW2 2523   1.067   2.300   0.102  1.6852  1.5125 -2.3166
  842SOL     OW 2524   0.428   0.189   0.544  0.0401  0.2049 -0.3463
  842SOL    HW1 2525   0.476   0.148   0.627  0.6041  0.8666  0.1064
  842SOL    HW2 2526   0.487   0.175   0.462 -0.9839 -3.1317  2.0505
  843SOL     OW 2527   0.215   1.240   0.095 -0.0083  0.5490  0.3438
  843SOL    HW1 2528   0.232   1.166   0.164 -0.1692 -0.1702 -0.2657
  843SOL    HW2 2529   0.282   1.317   0.082 -1.4394  1.7652 -2.3274
  844SOL     OW 2530   1.150   2.210   3.074 -0.7971  0.1648  0.1354
  844SOL    HW1 2531   1.100   2.152   3.007 -2.1033 -0.6847 -0.9567
  844SOL    HW2 2532   1.228   2.257   3.030  0.9182 -3.0729  1.8718
  845SOL     OW 2533   2.180   2.738   2.373  0.2770 -0.1966  0.1961
  845SOL    HW1 2534   2.186   2.836   2.337  0.8434 -0.2441 -1.5451
  845SOL    HW2 2535   2.120   2.727   2.455  0.0277 -0.2510 -0.1421
  846SOL     OW 2536   1.872   1.995   2.866  0.2985  0.1646  0.2961
  846SOL    HW1 2537   1.855   2.049   2.949  0.0667 -2.4998 -1.4516
  846SOL    HW2 2538   1.873   2.055   2.780  0.7206  1.4214 -2.0928
  847SOL     OW 2539   2.612   0.260   0.142 -0.5174  0.3587  0.0299
  847SOL    HW1 2540   2.571   0.321   0.074  0.0600  0.7295  0.4581
  847SOL    HW2 2541   2.546   0.257   0.219 -0.3622  0.7324 -0.2702
  848SOL     OW 2542   0.790   0.702   0.579 -0.6008 -0.7828 -0.0847
  848SOL    HW1 2543   0.735   0.702   0.665  0.4178 -3.5458 -2.1573
  848SOL    HW2 2544   0.764   0.616   0.537 -0.4983  2.0404  0.1975
  849SOL     OW 2545   1.466   2.685   1.973  0.0804 -0.3656 -0.7193
  849SOL    HW1 2546   1.552   2.700   2.026  1.0947 -0.8096 -1.0712
  849SOL    HW2 2547   1.458   2.581   1.970  1.7077 -0.7283  0.9151
  850SOL     OW 2548   0.905   1.465   0.650 -0.1233 -0.3603  0.4711
  850SOL    HW1 2549   0.856   1.387   0.687 -0.2849  2.1893 -0.4633
  850SOL    HW2 2550   0.841   1.527   0.601  2.8553  0.0629 -0.5067
  851SOL     OW 2551   0.497   1.433   0.223  0.4102 -0.0976 -0.1067
  851SOL    HW1 2552   0.553   1.351   0.253  0.9194 -0.7589 -0.7038
  851SOL    HW2 2553   0.422   1.455   0.293  0.4507 -1.0569  1.3870
  852SOL     OW 2554   1.343   2.914   1.877 -0.1854 -0.3832  0.3474
  852SOL    HW1 2555   1.242   2.903   1.890  0.8491  0.5702 -0.8757
  852SOL    HW2 2556   1.386   2.824   1.906  1.6034 -2.8746  0.3822
  853SOL     OW 2557   2.652   1.654   0.023 -1.0609  0.5611  0.3928
  853SOL    HW1 2558   2.569   1.591   0.038  0.0202 -0.3425 -2.1506
  853SOL    HW2 2559   2.727   1.626   0.089 -0.3671  1.7891  3.5548
  854SOL     OW 2560   1.516   1.157   2.010 -0.4557 -0.1605 -0.6142
  854SOL    HW1 2561   1.436   1.150   2.068  0.4652 -1.2357 -1.8028
  854SOL    HW2 2562   1.502   1.108   1.925  0.1372 -1.4210  1.9410
  855SOL     OW 2563   0.218   2.410   0.102  0.4849  0.5099  0.6687
  855SOL    HW1 2564   0.223   2.312   0.075 -2.4581 -4.7977  1.2694
  855SOL    HW2 2565   0.268   2.469   0.034  0.8164 -0.3166  0.5989
  856SOL     OW 2566   0.349   0.745   1.716  0.0642  0.1719  0.0712
  856SOL    HW1 2567   0.440   0.749   1.763 -0.3744  1.6375  0.0539
  856SOL    HW2 2568   0.289   0.824   1.739 -3.1850 -1.9035  2.4853
  857SOL     OW 2569   1.187   0.896   2.168  0.0093  0.2085  0.4456
  857SOL    HW1 2570   1.085   0.901   2.167 -0.0998  0.2193  0.1133
  857SOL    HW2 2571   1.222   0.863   2.262 -2.1676  1.9609  0.2487
  858SOL     OW 2572   0.383   1.336   2.329 -0.4120 -0.1890 -0.0953
  858SOL    HW1 2573   0.367   1.383   2.415 -0.1509 -2.0539  0.5728
  858SOL    HW2 2574   0.314   1.354   2.260  2.8137 -3.6788  0.0872
  859SOL     OW 2575   2.633   0.088   1.033  0.3740 -0.6809  0.2668
  859SOL    HW1 2576   2.611   0.159   1.098 -2.4013 -1.2123  0.0457
  859SOL    HW2 2577   2.734   0.060   1.046  1.1868  0.7897 -0.6433
  860SOL     OW 2578   2.025   0.074   0.052 -0.7890  0.7591  0.3060
  860SOL    HW1 2579   2.031   3.074   0.096 -1.9577 -0.0307 -0.0331
  860SOL    HW2 2580   2.079   0.072   3.051  0.0713 -1.3455 -1.3894
  861SOL     OW 2581   0.776   0.324   0.858 -0.4319 -0.4146  0.6085
  861SOL    HW1 2582   0.806   0.299   0.762  0.4368  0.6355 -0.6322
  861SOL    HW2 2583   0.677   0.300   0.865 -0.5441 -2.6427  0.3115
  862SOL     OW 2584   1.233   0.325   2.547  0.8112 -0.2653 -0.2155
  862SOL    HW1 2585   1.157   0.262   2.521  0.7114 -0.1453  0.5288
  862SOL    HW2 2586   1.308   0.277   2.599 -0.5811 -0.4983  0.5244
  863SOL     OW 2587   2.263   2.379   0.790 -0.5020 -0.8382 -0.1864
  863SOL    HW1 2588   2.316   2.447   0.840 -0.9668 -1.4096 -0.7050
  863SOL    HW2 2589   2.309   2.293   0.758 -0.3323  1.3022 -3.1803
  864SOL     OW 2590   2.692   3.034   1.912 -0.3334  0.1497 -0.2861
  864SOL    HW1 2591   2.703   2.992   1.817 -0.0521 -1.3798 -2.7487
  864SOL    HW2 2592   2.624   2.980   1.970  0.7450 -0.5989 -1.5853
  865SOL     OW 2593   1.127   0.511   1.766 -0.3078  0.2335 -0.1158
  865SOL    HW1 2594   1.200   0.533   1.698  0.4816 -1.8048  0.1147
  865SOL    HW2 2595   1.140   0.537   1.865  1.6803 -2.9637  1.4970
  866SOL     OW 2596   1.836   2.840   1.187 -0.7651 -0.4282 -0.0751
  866SOL    HW1 2597   1.914   2.890   1.236 -0.0770  1.0640  1.3880
  866SOL    HW2 2598   1.842   2.854   1.081  0.9088 -1.7863 -2.2205
  867SOL     OW 2599   2.804   2.468   0.540  0.0755 -0.1969 -0.0272
  867SOL    HW1 2600   2.772   2.537   0.470  0.2004 -0.6567 -0.1827
  867SOL    HW2 2601   2.900   2.435   0.527  0.2165 -1.4396 -1.2411
  868SOL     OW 2602   0.498   2.111   1.608 -0.0391  0.1688 -0.3272
  868SOL    HW1 2603   0.428   2.178   1.574  0.9502  1.1755 -1.1217
  868SOL    HW2 2604   0.590   2.155   1.606  0.8936  1.0312  0.9498
  869SOL     OW 2605   2.119   2.315   2.729 -0.7531 -0.0667 -0.5369
  869SOL    HW1 2606   2.062   2.309   2.647 -0.2444  2.4169  0.9629
  869SOL    HW2 2607   2.205   2.363   2.705  0.5100  0.0755 -1.1432
  870SOL     OW 2608   1.613   1.766   0.903  0.3034  0.1033  0.1588
  870SOL    HW1 2609   1.678   1.844   0.890 -1.2768 -1.5570  1.8522
  870SOL    HW2 2610   1.633   1.708   0.984 -1.2786 -0.7602  0.0937
  871SOL     OW 2611   0.141   1.794   1.558  0.0654 -0.2257  0.2713
  871SOL    HW1 2612   0.234   1.827   1.539  0.0034 -1.6301  1.5599
  871SOL    HW2 2613   0.138   1.737   1.644  0.2629 -1.5598 -0.3438
  872SOL     OW 2614   0.537   1.134   2.586  0.0245 -0.3881 -0.2073
  872SOL    HW1 2615   0.515   1.074   2.505  1.5120 -1.9225 -1.4041
  872SOL    HW2 2616   0.459   1.138   2.658 -3.8615 -0.4861 -0.4565
  873SOL     OW 2617   0.748   2.106   1.835  0.3732 -0.1368  0.1892
  873SOL    HW1 2618   0.804   2.132   1.915 -0.9698 -0.3503  1.5205
  873SOL    HW2 2619   0.650   2.130   1.845 -2.4759  0.8518 -1.8094
  874SOL     OW 2620   1.057   0.868   1.808  0.3405 -0.3451 -0.1002
  874SOL    HW1 2621   1.132   0.842   1.746  1.2640  0.8073 -0.8648
  874SOL    HW2 2622   0.975   0.811   1.783  0.6821 -4.0602 -0.9003
  875SOL     OW 2623   2.747   2.635   0.749 -0.0813 -0.8416 -0.6103
  875SOL    HW1 2624   2.717   2.595   0.661  2.9683 -0.1647 -0.3373
  875SOL    HW2 2625   2.852   2.622   0.761  4.8504 -1.8029 -1.9427
  876SOL     OW 2626   0.991   1.530   0.384 -0.1807  0.3783 -0.5493
  876SOL    HW1 2627   0.964   1.491   0.472 -1.5887  0.7888 -1.5444
  876SOL    HW2 2628   0.977   1.629   0.381 -0.9464 -0.1544  0.9030
  877SOL     OW 2629   2.771   2.818   0.968 -0.2055 -0.4298 -0.1804
  877SOL    HW1 2630   2.794   2.743   0.901  1.4997  0.2413 -2.1157
  877SOL    HW2 2631   2.775   2.791   1.068 -1.7434  0.9131 -2.1132
  878SOL     OW 2632   2.022   1.476   0.516 -0.7883  0.1566  0.7793
  878SOL    HW1 2633   2.010   1.527   0.426 -0.0366 -1.8122 -1.3609
  878SOL    HW2 2634   1.934   1.440   0.553 -1.4945 -0.9905  1.7676
  879SOL     OW 2635   2.272   1.766   0.998 -0.4213  0.3944 -0.2103
  879SOL    HW1 2636   2.326   1.792   1.083 -1.7059 -1.6156  1.7734
  879SOL    HW2 2637   2.276   1.664   0.997 -1.6401 -1.0850  0.3333
  880SOL     OW 2638   0.505   2.403   0.796  0.1360  0.1084 -0.2828
  880SOL    HW1 2639   0.421   2.350   0.798  0.9649 -0.1577 -0.3582
  880SOL    HW2 2640   0.476   2.503   0.816 -1.6731  4.5712  3.0645
  881SOL     OW 2641   0.992   0.957   0.947 -0.3809 -0.4095 -0.2112
  881SOL    HW1 2642   0.935   1.023   0.891 -0.5183 -1.9815 -0.0814
  881SOL    HW2 2643   1.091   0.990   0.964 -1.1460  0.1612  0.0151
  882SOL     OW 2644   2.341   1.082   0.413  0.1670 -0.3705  0.8446
  882SOL    HW1 2645   2.367   1.057   0.321  0.3475  0.5323  1.3774
  882SOL    HW2 2646   2.329   1.178   0.436  0.7908 -3.2895  2.7102
  883SOL     OW 2647   1.386   0.042   1.710 -0.1391 -0.4630 -0.2935
  883SOL    HW1 2648   1.375   0.124   1.765 -0.8461  0.1066 -0.2501
  883SOL    HW2 2649   1.373   3.052   1.774  0.0441  0.5826  0.1868
  884SOL     OW 2650   2.865   0.016   1.386  0.1292  0.2261 -0.2829
  884SOL    HW1 2651   2.939   0.081   1.355  1.0196 -0.3275  2.5033
  884SOL    HW2 2652   2.895   3.014   1.359  0.9378  1.3549  1.2767
  885SOL     OW 2653   1.114   1.125   1.861  0.2135  0.4439 -0.3884
  885SOL    HW1 2654   1.092   1.024   1.860 -1.0893 -1.2104 -0.0058
  885SOL    HW2 2655   1.095   1.169   1.771 -0.7704 -2.1654 -2.7416
  886SOL     OW 2656   1.329   0.794   2.374 -0.6307  0.3170  0.5227
  886SOL    HW1 2657   1.400   0.862   2.400 -1.8458 -1.5577 -0.1568
  886SOL    HW2 2658   1.364   0.694   2.368 -2.5089 -1.9737 -0.9728
  887SOL     OW 2659   1.700   0.544   1.040 -0.1644 -0.1912 -0.3298
  887SOL    HW1 2660   1.623   0.588   0.985 -0.7841  2.0562 -2.0466
  887SOL    HW2 2661   1.784   0.605   1.035  1.1852  2.0585 -1.3245
  888SOL     OW 2662   2.353   1.641   1.902  0.1833 -0.2213 -0.2823
  888SOL    HW1 2663   2.271   1.599   1.949 -3.3182 -0.0147 -1.6053
  888SOL    HW2 2664   2.444   1.624   1.947 -0.6356 -0.1885  0.0451
  889SOL     OW 2665   1.605   2.131   0.683 -0.5244 -0.2746  0.1960
  889SOL    HW1 2666   1.673   2.201   0.660  0.3102  2.1160  0.1591
  889SOL    HW2 2667   1.557   2.089   0.601  3.1340 -1.9642 -1.8762
  890SOL     OW 2668   0.709   2.119   0.650  0.2269  0.2005  0.3829
  890SOL    HW1 2669   0.722   2.093   0.746 -1.2304  0.8888 -0.4423
  890SOL    HW2 2670   0.690   2.220   0.639  1.2465  1.0691  0.6707
  891SOL     OW 2671   2.594   0.791   2.592  0.9022  0.1738  0.4941
  891SOL    HW1 2672   2.535   0.749   2.517  2.1188  1.7814 -1.6074
  891SOL    HW2 2673   2.533   0.813   2.671  1.8647 -0.5432  0.5962
  892SOL     OW 2674   0.938   0.634   2.347 -0.3233 -0.2547 -0.1985
  892SOL    HW1 2675   0.842   0.661   2.377 -0.9069  1.9791  0.2413
  892SOL    HW2 2676   0.991   0.594   2.423 -0.6680 -1.5208 -1.9027
  893SOL     OW 2677   1.542   0.217   1.125 -0.2014 -0.0343  0.0273
  893SOL    HW1 2678   1.639   0.245   1.093 -2.1989  0.6993 -0.7289
  893SOL    HW2 2679   1.531   0.120   1.157  1.4861 -1.4112 -0.3723
  894SOL     OW 2680   2.755   2.684   1.227 -0.4177 -0.5807 -0.2295
  894SOL    HW1 2681   2.724   2.671   1.322 -0.3805 -0.1728  0.2197
  894SOL    HW2 2682   2.797   2.601   1.187  1.6087  1.9362 -0.7509
  895SOL     OW 2683   1.904   2.701   2.863  0.0586 -0.1996 -0.4093
  895SOL    HW1 2684   1.816   2.747   2.879 -0.4645 -0.0849  0.0145
  895SOL    HW2 2685   1.922   2.647   2.953  1.0896 -1.3051  2.1495
  896SOL     OW 2686   2.174   3.088   1.902 -0.2806 -0.3815  0.3767
  896SOL    HW1 2687   2.078   0.023   1.873  2.4422 -0.5117 -0.3856
  896SOL    HW2 2688   2.221   0.077   1.944 -0.9952 -1.2282 -0.5565
  897SOL     OW 2689   0.448   2.142   1.859 -0.1799  0.1095 -0.0152
  897SOL    HW1 2690   0.444   2.125   1.761  0.9262 -1.4979  0.6657
  897SOL    HW2 2691   0.485   2.061   1.911  1.4846 -0.5262 -0.8882
  898SOL     OW 2692   2.637   1.564   1.966 -0.3200 -0.6205 -0.4729
  898SOL    HW1 2693   2.690   1.516   2.034 -1.3480  2.3571 -3.0327
  898SOL    HW2 2694   2.688   1.583   1.883  0.4685  1.3485  1.3295
  899SOL     OW 2695   1.388   2.202   0.829 -0.0190 -0.4977 -0.1034
  899SOL    HW1 2696   1.296   2.181   0.790 -2.0283 -0.2492  0.8663
  899SOL    HW2 2697   1.452   2.134   0.786 -0.9188  1.0276 -2.0041
  900SOL     OW 2698   0.855   2.998   2.786  0.1270  0.2456  0.0050
  900SOL    HW1 2699   0.859   2.906   2.748 -2.6716 -0.0697 -1.1965
  900SOL    HW2 2700   0.902   3.064   2.728 -0.9083  2.1513  0.6253
  901SOL     OW 2701   1.296   1.767   2.509  0.8165 -0.4403  0.3027
  901SOL    HW1 2702   1.356   1.820   2.441 -1.1349 -0.0309 -0.9974
  901SOL    HW2 2703   1.338   1.675   2.533  1.5873  1.2230  0.3967
  902SOL     OW 2704   2.861   0.342   2.680 -0.0480 -0.2508 -0.0608
  902SOL    HW1 2705   2.763   0.368   2.706 -1.3360 -1.6423 -1.3584
  902SOL    HW2 2706   2.892   0.262   2.737 -2.0477  1.0205  0.2642
  903SOL     OW 2707   1.984   0.629   2.084 -0.1194  0.4169  0.2886
  903SOL    HW1 2708   1.978   0.625   2.185 -1.9002  3.2079  1.2314
  903SOL    HW2 2709   1.980   0.543   2.030 -1.7920 -1.0845 -2.0000
  904SOL     OW 2710   1.363   0.522   2.420  0.1259  0.8206  0.3821
  904SOL    HW1 2711   1.447   0.500   2.469 -0.6257  1.4399 -1.0853
  904SOL    HW2 2712   1.281   0.476   2.461 -1.3512  0.3122  0.3847
  905SOL     OW 2713   2.252   2.446   1.825  0.1589  0.1675  0.0500
  905SOL    HW1 2714   2.314   2.486   1.894  2.0100 -1.3012 -2.2713
  905SOL    HW2 2715   2.285   2.351   1.803  0.7152 -2.4022  0.0799
  906SOL     OW 2716   1.778   1.932   0.372  0.4158 -0.7422 -0.3017
  906SOL    HW1 2717   1.849   1.906   0.443 -2.7973  1.5196 -0.4742
  906SOL    HW2 2718   1.705   1.984   0.420  0.3395 -3.4574  2.3025
  907SOL     OW 2719   1.162   3.043   0.905 -0.1871  0.3003  0.1079
  907SOL    HW1 2720   1.197   3.090   0.820 -0.1965 -0.9399 -0.9776
  907SOL    HW2 2721   1.221   2.968   0.947 -0.5990 -2.2352 -0.7811
  908SOL     OW 2722   1.487   2.468   2.311  0.0221 -0.4199 -0.4862
  908SOL    HW1 2723   1.483   2.569   2.321 -0.6873 -2.3428 -2.3836
  908SOL    HW2 2724   1.397   2.437   2.271  2.6636 -0.7219 -1.4639
  909SOL     OW 2725   2.030   0.348   2.003 -0.1375 -0.4740  0.0037
  909SOL    HW1 2726   2.056   0.300   2.086  0.7934 -1.8631 -1.0760
  909SOL    HW2 2727   1.943   0.311   1.966 -0.9713 -0.1146 -0.7031
  910SOL     OW 2728   1.067   0.983   0.007  0.4278 -0.5172  0.0158
  910SOL    HW1 2729   1.090   0.887   0.028 -3.0130 -0.6070 -3.9846
  910SOL    HW2 2730   1.132   1.018   3.030  1.0743 -3.7089  2.7085
  911SOL     OW 2731   3.017   1.088   0.245  0.0871  0.2246  0.6035
  911SOL    HW1 2732   3.057   1.179   0.222 -0.6059 -0.4584  2.0605
  911SOL    HW2 2733   2.923   1.084   0.204  0.3492  1.7841  0.4579
  912SOL     OW 2734   0.342   2.312   0.438 -0.0484 -0.0949 -0.2131
  912SOL    HW1 2735   0.261   2.261   0.476  0.3678 -1.7197 -1.6937
  912SOL    HW2 2736   0.429   2.290   0.492  1.1203  1.8163  1.1239
  913SOL     OW 2737   2.791   2.185   2.283  0.1824  0.0030  0.8165
  913SOL    HW1 2738   2.822   2.136   2.365  2.6221  1.6027  0.4507
  913SOL    HW2 2739   2.822   2.132   2.199 -0.7343  1.3715  0.5420
  914SOL     OW 2740   1.344   1.979   1.656  0.0933 -0.0242 -0.9928
  914SOL    HW1 2741   1.380   2.068   1.623  0.8961  0.2329  0.2754
  914SOL    HW2 2742   1.403   1.903   1.625  2.7242  1.2856 -1.0948
  915SOL     OW 2743   0.759   2.785   1.969  0.3086  0.3275 -0.2221
  915SOL    HW1 2744   0.834   2.850   1.995 -0.8125  2.2140  0.0648
  915SOL    HW2 2745   0.678   2.786   2.032 -0.5084  1.2732  1.3509
  916SOL     OW 2746   0.897   0.888   1.426 -0.3577 -0.2608 -0.2429
  916SOL    HW1 2747   0.929   0.794   1.447  2.4275  0.1026 -1.1713
  916SOL    HW2 2748   0.868   0.937   1.508 -0.9661 -1.5018  0.4054
  917SOL     OW 2749   2.810   0.465   0.503 -0.1663 -0.0306  0.7699
  917SOL    HW1 2750   2.789   0.367   0.522 -1.7459  1.3974 -0.0623
  917SOL    HW2 2751   2.752   0.496   0.421  1.9669  0.4462  1.6934
  918SOL     OW 2752   1.730   2.467   2.860  0.1426 -0.0417 -0.0895
  918SOL    HW1 2753   1.815   2.417   2.872  0.3362  1.7390  0.1237
  918SOL    HW2 2754   1.691   2.487   2.952  2.1780  2.2767  1.6479
  919SOL     OW 2755   1.611   2.585   1.491  0.3908 -0.5206 -0.5525
  919SOL    HW1 2756   1.589   2.550   1.400  2.4440 -0.3999 -0.5564
  919SOL    HW2 2757   1.649   2.678   1.479 -0.1602  0.5365 -1.3796
  920SOL     OW 2758   0.847   0.776   2.773  0.1617 -0.4213 -0.4455
  920SOL    HW1 2759   0.909   0.772   2.852 -3.1736  1.3853 -2.3506
  920SOL    HW2 2760   0.766   0.832   2.802 -0.0539  0.2226  1.7139
  921SOL     OW 2761   2.854   0.804   2.949 -0.3186 -0.0119  0.1305
  921SOL    HW1 2762   2.773   0.869   2.962  0.8128  0.2472  1.5629
  921SOL    HW2 2763   2.939   0.851   2.977 -0.5111 -0.5300 -1.1808
  922SOL     OW 2764   0.221   1.946   1.037 -0.2713 -0.0830 -0.3678
  922SOL    HW1 2765   0.262   1.918   1.128  0.3270  0.9579 -0.3475
  922SOL    HW2 2766   0.295   1.978   0.971 -0.0412  0.9639 -0.6378
  923SOL     OW 2767   0.554   1.308   1.895 -0.4913 -0.4743 -0.1554
  923SOL    HW1 2768   0.631   1.345   1.949  1.0013 -0.6595 -0.3015
  923SOL    HW2 2769   0.496   1.379   1.850  2.5542  0.8935 -0.0560
  924SOL     OW 2770   1.620   2.798   2.912 -0.0255 -0.1569  0.7392
  924SOL    HW1 2771   1.565   2.717   2.944  0.1321 -1.4376  1.0721
  924SOL    HW2 2772   1.599   2.881   2.970  0.2554  0.3120  1.4161
  925SOL     OW 2773   2.567   1.537   1.081  0.2691  0.2851  0.4967
  925SOL    HW1 2774   2.564   1.504   0.982 -0.0146 -2.1067 -1.8933
  925SOL    HW2 2775   2.593   1.459   1.139  0.6008 -1.1274 -0.4815
  926SOL     OW 2776   2.408   0.497   1.446 -0.1331 -0.5855 -0.5262
  926SOL    HW1 2777   2.477   0.568   1.466  1.2634  2.2370  1.2688
  926SOL    HW2 2778   2.412   0.421   1.516  1.3861  0.1233 -0.0484
  927SOL     OW 2779   1.992   0.074   1.294  0.5157  0.7888  0.4503
  927SOL    HW1 2780   2.086   0.111   1.274 -0.4250  1.1298  0.0545
  927SOL    HW2 2781   2.004   3.064   1.318 -1.4819 -0.6022  0.2281
  928SOL     OW 2782   0.069   1.123   2.451  0.8754  0.0759  0.3553
  928SOL    HW1 2783   0.164   1.151   2.428  1.0091 -0.0779  1.1239
  928SOL    HW2 2784   0.042   1.031   2.418  1.6874  0.6809  0.6490
  929SOL     OW 2785   2.539   0.909   1.335  0.1123 -0.1982  0.2774
  929SOL    HW1 2786   2.452   0.885   1.286 -0.5265 -0.8392 -1.0192
  929SOL    HW2 2787   2.600   0.961   1.270 -3.0070 -1.3667 -1.4686
  930SOL     OW 2788   2.977   2.463   2.088  0.0498 -0.0877 -0.5365
  930SOL    HW1 2789   2.995   2.564   2.104 -1.3354 -1.2637 -1.6369
  930SOL    HW2 2790   3.058   2.408   2.119 -0.3801 -2.5162  0.3286
  931SOL     OW 2791   1.915   0.712   1.031  0.1073  0.3252 -0.2925
  931SOL    HW1 2792   1.966   0.670   1.109 -0.1084 -0.2457 -1.3941
  931SOL    HW2 2793   1.855   0.783   1.070  1.6893  1.8910  2.1707
  932SOL     OW 2794   0.229   0.993   1.838  0.3524  0.6530 -0.4204
  932SOL    HW1 2795   0.260   1.063   1.906  2.6666 -1.5127 -0.2907
  932SOL    HW2 2796   0.167   1.044   1.769 -0.7953  2.3313 -1.0765
  933SOL     OW 2797   2.721   1.823   1.638  0.0962 -0.0228  0.1739
  933SOL    HW1 2798   2.809   1.837   1.592 -1.9097 -1.4102  2.7026
  933SOL    HW2 2799   2.637   1.861   1.589  2.2249  0.2467  1.8061
  934SOL     OW 2800   0.452   1.851   1.507  0.2725 -0.4790  0.6728
  934SOL    HW1 2801   0.545   1.814   1.501 -1.3113  0.6426  2.3616
  934SOL    HW2 2802   0.450   1.938   1.560  2.6606 -1.5894  0.0416
  935SOL     OW 2803   2.600   1.361   1.277  0.0517  0.5879 -0.1799
  935SOL    HW1 2804   2.515   1.402   1.317  1.8878 -0.8732  2.7721
  935SOL    HW2 2805   2.654   1.316   1.356  2.0899 -1.6618  2.8033
  936SOL     OW 2806   2.719   1.316   1.524  0.6626  0.1944  0.1872
  936SOL    HW1 2807   2.689   1.230   1.580 -1.3905 -0.6871  1.1227
  936SOL    HW2 2808   2.674   1.400   1.569 -0.3964  0.0068 -1.6410
  937SOL     OW 2809   1.843   0.297   1.293  0.1833  0.4960 -0.0365
  937SOL    HW1 2810   1.903   0.214   1.297 -1.8892  0.9474 -1.5613
  937SOL    HW2 2811   1.812   0.338   1.382  0.5862 -0.7107 -1.0873
  938SOL     OW 2812   0.328   2.946   0.118  0.8052 -0.4883 -0.3920
  938SOL    HW1 2813   0.266   2.929   0.198 -1.5797 -0.7588  2.3511
  938SOL    HW2 2814   0.295   2.891   0.038 -0.4364  1.1492  0.5592
  939SOL     OW 2815   2.925   2.006   2.473  0.1963  0.0008 -0.2983
  939SOL    HW1 2816   3.006   1.946   2.477 -1.8099  0.1867  0.7452
  939SOL    HW2 2817   2.843   1.945   2.495  2.1009  1.1720  1.7823
  940SOL     OW 2818   1.529   2.002   0.456  0.0318 -0.1239 -0.5162
  940SOL    HW1 2819   1.490   2.047   0.373 -1.5399 -0.9006 -0.9075
  940SOL    HW2 2820   1.456   1.939   0.492 -2.0065 -1.8507  0.6977
  941SOL     OW 2821   1.987   2.581   0.022  0.2138 -0.2661  0.0063
  941SOL    HW1 2822   2.080   2.619   0.002  0.0527 -0.9709 -0.0175
  941SOL    HW2 2823   1.973   2.488   3.073 -1.6769  0.9565  0.0386
  942SOL     OW 2824   1.951   2.465   1.195 -0.3699 -0.0042  0.6975
  942SOL    HW1 2825   1.882   2.531   1.159 -3.8224  0.8380 -0.6628
  942SOL    HW2 2826   2.044   2.501   1.191 -2.9246 -1.9434  2.9850
  943SOL     OW 2827   2.332   0.846   1.763  0.2875  0.1066  0.3672
  943SOL    HW1 2828   2.380   0.916   1.704 -0.7982  0.5208  0.1278
  943SOL    HW2 2829   2.294   0.773   1.702  0.5927  1.6510  2.2897
  944SOL     OW 2830   1.227   0.843   2.635 -0.0219  0.7629 -0.0694
  944SOL    HW1 2831   1.234   0.823   2.536 -3.2936 -1.0859  0.5423
  944SOL    HW2 2832   1.183   0.762   2.688 -1.1036 -2.0187 -0.0571
  945SOL     OW 2833   2.701   2.171   1.337  0.1304  0.2278  0.5496
  945SOL    HW1 2834   2.690   2.072   1.325 -0.1593  0.3174 -3.7773
  945SOL    HW2 2835   2.630   2.206   1.396  2.6295 -2.4024  1.0913
  946SOL     OW 2836   0.409   0.884   0.140  0.0741 -0.0263  0.1574
  946SOL    HW1 2837   0.342   0.926   0.202  0.9437  2.2557 -1.5142
  946SOL    HW2 2838   0.493   0.857   0.193  0.9025  0.5811 -0.1957
  947SOL     OW 2839   2.030   2.771   1.595 -0.8319  0.3866 -0.8516
  947SOL    HW1 2840   1.933   2.791   1.628 -2.1531 -0.3885  1.1661
  947SOL    HW2 2841   2.104   2.810   1.656  1.7366 -2.7466 -1.6608
  948SOL     OW 2842   0.121   1.786   0.827 -0.0434 -0.1239  0.0589
  948SOL    HW1 2843   0.158   1.818   0.916  1.4661 -2.9407 -2.8132
  948SOL    HW2 2844   0.136   1.688   0.813 -2.4271  1.5076 -0.1853
  949SOL     OW 2845   1.424   1.064   1.772  0.0672 -0.9246  0.2959
  949SOL    HW1 2846   1.458   1.054   1.675  1.0135 -0.6185  0.0596
  949SOL    HW2 2847   1.353   0.991   1.784  0.6601 -0.9853 -0.0561
  950SOL     OW 2848   0.485   0.985   1.146  0.1117 -0.2669  0.0416
  950SOL    HW1 2849   0.582   0.949   1.152  1.1996 -1.2784  3.0986
  950SOL    HW2 2850   0.442   0.962   1.057  0.0656 -2.2306 -1.1019
  951SOL     OW 2851   0.496   2.248   2.329 -0.1204  0.1848  0.8575
  951SOL    HW1 2852   0.470   2.153   2.314  1.1896  3.0281  0.4753
  951SOL    HW2 2853   0.508   2.260   2.430 -1.3631 -1.3301  0.2556
  952SOL     OW 2854   1.609   1.444   0.259  0.1412 -0.1742  0.2019
  952SOL    HW1 2855   1.612   1.532   0.311  1.6642 -0.9916 -1.2416
  952SOL    HW2 2856   1.571   1.455   0.168  3.4786  0.8380 -1.1214
  953SOL     OW 2857   1.207   0.137   2.918 -0.2413 -0.1954 -0.5108
  953SOL    HW1 2858   1.107   0.168   2.924 -0.3054 -0.8336 -0.4844
  953SOL    HW2 2859   1.274   0.217   2.933 -0.5688 -0.5635  1.9031
  954SOL     OW 2860   2.273   1.340   0.485 -0.0980  0.0098  0.1170
  954SOL    HW1 2861   2.177   1.370   0.508 -1.8115  0.8325 -2.1149
  954SOL    HW2 2862   2.316   1.399   0.416 -0.1617 -1.7201  1.2220
  955SOL     OW 2863   2.862   2.933   0.009 -0.1134  0.3145  0.3673
  955SOL    HW1 2864   2.841   2.949   2.997 -0.0364  1.1091 -1.7585
  955SOL    HW2 2865   2.896   2.839   0.022 -3.1456 -0.4529 -0.0249
  956SOL     OW 2866   1.244   0.833   1.292 -0.1098  0.4584 -0.8549
  956SOL    HW1 2867   1.293   0.845   1.201  2.1243 -2.1980 -1.5717
  956SOL    HW2 2868   1.221   0.734   1.308  1.2349 -1.5047 -1.7228
  957SOL     OW 2869   1.170   1.438   1.349  0.2878  0.6631 -0.0172
  957SOL    HW1 2870   1.132   1.448   1.446 -1.4119  2.6815  3.8197
  957SOL    HW2 2871   1.138   1.353   1.302 -0.0648 -2.3141 -2.7899
  958SOL     OW 2872   0.432   1.604   0.590  0.3746 -0.3854 -0.0735
  958SOL    HW1 2873   0.425   1.701   0.629 -1.3869  3.1723 -2.9924
  958SOL    HW2 2874   0.379   1.598   0.504 -1.2048  1.7258 -2.3057
  959SOL     OW 2875   1.538   1.327   1.026 -0.0164 -0.3409 -0.6390
  959SOL    HW1 2876   1.621   1.363   0.984  2.2000  0.7088  0.5518
  959SOL    HW2 2877   1.524   1.363   1.121  1.6258 -2.0010  0.9239
  960SOL     OW 2878   2.969   1.266   2.907 -0.2305  0.4341  0.1229
  960SOL    HW1 2879   3.040   1.213   2.860 -0.4538  0.8183  0.5054
  960SOL    HW2 2880   2.877   1.244   2.868  1.2474  1.7865 -0.2429
  961SOL     OW 2881   0.806   1.385   1.027  0.0273  0.3004 -0.2393
  961SOL    HW1 2882   0.781   1.346   1.120 -1.4889  2.5434  0.1285
  961SOL    HW2 2883   0.755   1.352   0.945  1.4095 -0.2308  0.2218
  962SOL     OW 2884   1.141   1.337   0.595  0.4791  0.0958 -0.1347
  962SOL    HW1 2885   1.061   1.391   0.617  2.4394 -4.3313  2.0578
  962SOL    HW2 2886   1.224   1.394   0.597 -3.1766 -0.0928  0.3186
  963SOL     OW 2887   1.490   1.918   2.385  0.3153  0.4975 -0.0197
  963SOL    HW1 2888   1.551   2.001   2.383  0.8770 -1.5296 -0.8417
  963SOL    HW2 2889   1.548   1.835   2.382  1.3831  1.9786  3.2148
  964SOL     OW 2890   3.009   2.713   0.002 -0.2142  0.0393  0.1417
  964SOL    HW1 2891   2.965   2.624   3.065  1.1898  0.6877  1.9717
  964SOL    HW2 2892   0.018   2.717   3.061  0.3603 -0.4813 -0.3391
  965SOL     OW 2893   0.699   2.397   0.229 -0.1648 -0.3842  0.1498
  965SOL    HW1 2894   0.688   2.441   0.321 -0.0391  1.2754  1.3560
  965SOL    HW2 2895   0.793   2.384   0.198  1.1647  0.1323 -0.5091
  966SOL     OW 2896   3.056   1.523   2.765  1.1118  0.1931  0.2785
  966SOL    HW1 2897   0.028   1.443   2.773  2.2316  0.2920 -0.2055
  966SOL    HW2 2898   3.077   1.573   2.847  0.7393 -1.2916 -2.1988
  967SOL     OW 2899   2.164   2.929   2.723 -0.6338 -0.0695  0.4055
  967SOL    HW1 2900   2.097   2.857   2.699  0.4297  1.4705  1.5861
  967SOL    HW2 2901   2.147   3.009   2.662 -2.3898  1.4821  0.1568
  968SOL     OW 2902   2.127   2.836   0.399  0.0991  0.1260 -0.1451
  968SOL    HW1 2903   2.050   2.766   0.391 -0.0709 -2.6408  0.9093
  968SOL    HW2 2904   2.129   2.881   0.492  2.3210 -1.0393 -2.2822
  969SOL     OW 2905   0.609   1.467   2.231 -0.6669 -0.1099  0.4272
  969SOL    HW1 2906   0.683   1.396   2.248  3.0215 -1.2138 -0.6565
  969SOL    HW2 2907   0.524   1.440   2.283  2.2259  1.6010 -0.2198
  970SOL     OW 2908   1.439   1.553   0.852  0.6378 -0.7539  0.5220
  970SOL    HW1 2909   1.485   1.634   0.891  1.1192 -1.1469 -0.5180
  970SOL    HW2 2910   1.487   1.471   0.876 -1.2475  3.5029 -1.5085
  971SOL     OW 2911   2.334   0.088   1.483 -0.0871 -0.1840 -0.0165
  971SOL    HW1 2912   2.385   3.089   1.477 -2.7579 -3.0083  0.5219
  971SOL    HW2 2913   2.290   0.114   1.391 -3.8844 -0.8768 -1.2661
  972SOL     OW 2914   0.203   3.009   1.357 -0.0623 -0.5270 -0.2415
  972SOL    HW1 2915   0.254   3.050   1.433 -3.1637 -0.7261  0.2603
  972SOL    HW2 2916   0.144   2.932   1.395 -0.5147 -0.1996  2.1666
  973SOL     OW 2917   0.223   0.359   2.786 -0.3447 -0.5768 -0.0556
  973SOL    HW1 2918   0.135   0.416   2.789 -0.1321  2.8089  0.1902
  973SOL    HW2 2919   0.240   0.333   2.684  1.4152 -0.6148 -1.2381
  974SOL     OW 2920   2.178   1.495   2.059  0.0731 -0.0882 -0.4803
  974SOL    HW1 2921   2.197   1.485   2.157  1.5013  0.6988 -1.0647
  974SOL    HW2 2922   2.180   1.404   2.014 -1.8495  0.6840  1.0230
  975SOL     OW 2923   0.583   0.116   1.201  0.3643  0.4006  0.5420
  975SOL    HW1 2924   0.680   0.100   1.159  0.5334  0.7124 -2.1591
  975SOL    HW2 2925   0.581   0.104   1.302 -1.7212 -2.7522  1.8423
  976SOL     OW 2926   0.775   2.261   2.540  0.2939  0.2131  0.4482
  976SOL    HW1 2927   0.861   2.265   2.585 -0.2895  0.8462  0.6001
  976SOL    HW2 2928   0.754   2.164   2.527 -0.3730 -0.9824 -0.8024
  977SOL     OW 2929   0.600   3.070   0.405 -0.2500  0.5235  1.2655
  977SOL    HW1 2930   0.696   3.068   0.433 -2.7973 -0.4181 -0.1557
  977SOL    HW2 2931   0.543   3.033   0.476  0.2072  0.6875  0.2485
  978SOL     OW 2932   3.012   1.256   2.150 -0.0464 -0.7337  0.0641
  978SOL    HW1 2933   3.023   1.155   2.138  1.4693 -2.6984  1.0807
  978SOL    HW2 2934   2.968   1.280   2.237 -0.6899 -0.9807 -1.0147
  979SOL     OW 2935   1.756   2.831   1.721  0.8640 -0.0669 -0.4865
  979SOL    HW1 2936   1.726   2.816   1.624 -0.3903  1.0696  1.1321
  979SOL    HW2 2937   1.763   2.742   1.772  2.0141  0.3687 -0.3239
  980SOL     OW 2938   1.518   1.590   2.163  0.3244 -0.1971 -0.0684
  980SOL    HW1 2939   1.446   1.523   2.171 -0.0413 -0.0989  0.2195
  980SOL    HW2 2940   1.574   1.601   2.247  2.3310  0.7989  1.1610
  981SOL     OW 2941   2.587   0.669   1.515 -0.3486 -0.0914  0.4170
  981SOL    HW1 2942   2.610   0.682   1.615 -1.9101 -1.5388 -0.2272
  981SOL    HW2 2943   2.577   0.764   1.479 -0.2902  0.4645 -1.1475
  982SOL     OW 2944   0.183   0.058   2.711  0.8135  0.1307  0.2821
  982SOL    HW1 2945   0.184   3.061   2.765 -2.5817 -1.3847 -1.1802
  982SOL    HW2 2946   0.115   0.123   2.748  0.3493  0.1025 -0.2130
  983SOL     OW 2947   2.393   0.648   2.451 -0.1363 -0.5260  0.3518
  983SOL    HW1 2948   2.332   0.723   2.493 -1.6323  0.3692  1.6957
  983SOL    HW2 2949   2.349   0.605   2.369 -0.4004  0.4422  1.4578
  984SOL     OW 2950   0.935   0.194   2.081 -0.0966  0.6619  0.0183
  984SOL    HW1 2951   0.946   0.291   2.057 -2.0609 -1.5931 -0.9497
  984SOL    HW2 2952   1.022   0.152   2.117  0.8561  2.1001  1.2518
  985SOL     OW 2953   1.890   1.535   2.135  0.2704 -0.2255  0.3428
  985SOL    HW1 2954   1.846   1.609   2.083  0.0167  2.6810  0.2739
  985SOL    HW2 2955   1.981   1.499   2.094  1.7951 -1.3091 -3.4402
  986SOL     OW 2956   2.807   0.469   1.157  0.0477  0.1083  0.1197
  986SOL    HW1 2957   2.861   0.421   1.094 -1.4445  1.8931  2.5344
  986SOL    HW2 2958   2.780   0.554   1.108  0.4547 -1.1227  1.5424
  987SOL     OW 2959   2.747   1.078   1.193 -0.3981  0.0328 -0.3329
  987SOL    HW1 2960   2.735   1.177   1.170 -0.8128  0.2950 -1.4558
  987SOL    HW2 2961   2.732   1.018   1.108 -1.4077  1.0598 -3.4463
  988SOL     OW 2962   3.005   0.984   2.165  0.4596 -0.5820  0.6686
  988SOL    HW1 2963   2.903   0.977   2.158  0.8904 -0.6004 -0.2001
  988SOL    HW2 2964   3.033   0.939   2.252 -2.8629  0.1590 -0.3643
  989SOL     OW 2965   1.791   1.691   0.131  0.1323  0.4823  0.1162
  989SOL    HW1 2966   1.837   1.781   0.147 -2.8962 -0.2325  0.6768
  989SOL    HW2 2967   1.701   1.697   0.083 -1.7313  0.9064  0.7397
  990SOL     OW 2968   0.933   0.519   2.119  0.2765  0.4399  0.5427
  990SOL    HW1 2969   1.018   0.552   2.078 -2.7994  0.2218  0.3335
  990SOL    HW2 2970   0.938   0.563   2.209 -0.9458  0.2050  0.2570
  991SOL     OW 2971   1.320   1.143   0.716  0.2397  0.2456  0.6898
  991SOL    HW1 2972   1.251   1.214   0.697 -0.6791  0.5809  1.9868
  991SOL    HW2 2973   1.362   1.112   0.628  1.2439 -1.7165 -0.3972
  992SOL     OW 2974   2.263   1.484   0.997 -0.4154  0.2242 -0.0830
  992SOL    HW1 2975   2.315   1.444   1.073 -1.0186  5.0451 -0.9271
  992SOL    HW2 2976   2.279   1.431   0.910 -1.4363  0.6606 -0.4088
  993SOL     OW 2977   0.055   0.616   0.900  0.2257  0.1401 -0.1062
  993SOL    HW1 2978   0.057   0.692   0.964  1.3089 -1.4995 -2.8037
  993SOL    HW2 2979   0.145   0.575   0.892  1.5018  3.2860  1.5639
  994SOL     OW 2980   0.305   2.122   2.595 -0.9200 -0.6359  0.1154
  994SOL    HW1 2981   0.231   2.101   2.528  1.7340 -3.2078 -0.9581
  994SOL    HW2 2982   0.259   2.146   2.686 -2.7330 -0.3712  1.2455
  995SOL     OW 2983   1.948   1.161   2.603 -0.1361 -0.3966  0.5814
  995SOL    HW1 2984   1.923   1.101   2.524  1.3333 -1.5824 -0.8810
  995SOL    HW2 2985   1.880   1.239   2.613 -2.0684  2.1691  2.2263
  996SOL     OW 2986   2.807   0.995   0.686  0.2525 -0.4229 -0.6153
  996SOL    HW1 2987   2.719   1.018   0.647  0.2850 -1.2729  1.8723
  996SOL    HW2 2988   2.838   0.908   0.644 -0.3076  2.2098  0.7044
  997SOL     OW 2989   1.861   0.967   1.712 -0.4584  0.2547 -0.1225
  997SOL    HW1 2990   1.810   1.048   1.746 -3.2492 -0.4878  2.2816
  997SOL    HW2 2991   1.849   0.947   1.614  2.5693 -2.3762  0.5543
  998SOL     OW 2992   2.589   1.845   0.277  0.1329  0.3439 -0.1656
  998SOL    HW1 2993   2.541   1.837   0.191 -0.3317 -0.6577  1.6465
  998SOL    HW2 2994   2.595   1.753   0.328 -1.4310  1.3654  0.7233
  999SOL     OW 2995   0.011   2.110   0.123  0.1148 -0.3418  0.2167
  999SOL    HW1 2996   3.064   2.068   0.039 -0.0621 -0.9409 -0.4887
  999SOL    HW2 2997   3.042   2.185   0.152  1.0295  0.5966  1.7383
 1000SOL     OW 2998   0.938   1.170   2.133  0.0380  0.2894 -0.4442
 1000SOL    HW1 2999   0.913   1.070   2.141  0.3760 -2.4052  1.8960
 1000SOL    HW2 3000   1.008   1.189   2.059  2.8823 -0.6128 -0.5956
   3.09031   3.09031   3.09031
