1000 SPC/Fw water molecules t= 218.00000 step= 218000
 3000
    1SOL     OW    1   3.058   2.860   0.745  0.0461  0.0440 -0.3103
    1SOL    HW1    2   0.010   2.811   0.825  2.4189  0.3573  0.0391
    1SOL    HW2    3   3.081   2.963   0.742 -1.9749  3.6766  1.4333
    2SOL     OW    4   1.803   1.635   1.836 -0.0330  0.1220  0.3962
    2SOL    HW1    5   1.900   1.676   1.816  1.4221  2.1376 -1.8731
    2SOL    HW2    6   1.804   1.591   1.928 -0.7893  0.0826 -0.4837
    3SOL     OW    7   1.668   2.352   2.126  0.2440 -0.6613 -0.0063
    3SOL    HW1    8   1.605   2.407   2.190 -0.4384  1.0868  2.2160
    3SOL    HW2    9   1.771   2.372   2.145  4.7620 -0.7063 -0.0676
    4SOL     OW   10   2.106   1.959   2.365  0.0935  0.2602 -0.8504
    4SOL    HW1   11   2.175   1.919   2.427 -0.8999  0.9719  0.9952
    4SOL    HW2   12   2.015   1.961   2.413 -0.3469  1.4306 -0.8054
    5SOL     OW   13   1.361   0.748   1.515  0.5021  0.0687 -0.1465
    5SOL    HW1   14   1.430   0.819   1.479 -1.7910 -2.1958  2.7997
    5SOL    HW2   15   1.401   0.679   1.579  2.3187 -1.3832  1.3274
    6SOL     OW   16   2.641   0.496   2.913  0.0780 -0.2947  0.1505
    6SOL    HW1   17   2.720   0.482   2.978  1.0333  2.0745  1.0040
    6SOL    HW2   18   2.655   0.450   2.821  1.0428 -0.2761 -3.1396
    7SOL     OW   19   0.437   1.598   1.445 -0.6908 -0.0628 -0.2706
    7SOL    HW1   20   0.469   1.500   1.424 -1.2294  2.1501  1.0369
    7SOL    HW2   21   0.478   1.665   1.377  0.5092  2.2429 -0.6622
    8SOL     OW   22   1.179   0.527   0.911 -0.0129  0.4181  0.3858
    8SOL    HW1   23   1.108   0.456   0.901 -1.1347 -1.2210  3.9903
    8SOL    HW2   24   1.156   0.591   0.984  2.5239 -1.6068 -1.8489
    9SOL     OW   25   1.372   0.452   2.540 -0.1600 -0.3549 -0.1523
    9SOL    HW1   26   1.450   0.511   2.577 -0.2070 -1.7374 -1.2295
    9SOL    HW2   27   1.413   0.387   2.475 -0.3013  2.3000  2.0439
   10SOL     OW   28   0.749   2.561   0.144  0.1326 -0.6595  0.2209
   10SOL    HW1   29   0.840   2.531   0.100  0.2660  2.2426  3.0115
   10SOL    HW2   30   0.744   2.664   0.154 -1.5286 -0.9963 -1.1022
   11SOL     OW   31   0.660   1.174   3.081 -0.1790 -0.2213 -0.2490
   11SOL    HW1   32   0.744   1.124   3.048  0.9064 -2.1099  1.1978
   11SOL    HW2   33   0.572   1.122   3.067  0.2722  0.3463 -1.7481
   12SOL     OW   34   0.267   0.364   1.535  0.0785  0.0338  0.2659
   12SOL    HW1   35   0.358   0.410   1.553 -0.9823 -1.4244 -2.5985
   12SOL    HW2   36   0.239   0.309   1.614  0.7234 -0.2933 -0.2331
   13SOL     OW   37   1.053   0.051   0.256 -0.1136 -0.0158  0.2458
   13SOL    HW1   38   1.019   0.131   0.201  0.6904 -0.6212  0.5696
   13SOL    HW2   39   1.143   0.063   0.305  0.4648 -1.6194 -0.4961
   14SOL     OW   40   1.155   2.446   1.320  0.1808  1.1027 -0.3005
   14SOL    HW1   41   1.098   2.429   1.235 -0.7829 -0.5252 -2.1481
   14SOL    HW2   42   1.242   2.398   1.299 -1.6950 -1.4380 -0.5036
   15SOL     OW   43   2.718   1.237   1.878  0.3263 -0.0753  0.1425
   15SOL    HW1   44   2.670   1.213   1.791  0.4384  1.0191  0.4496
   15SOL    HW2   45   2.803   1.183   1.887 -1.8532 -2.7326 -0.2052
   16SOL     OW   46   1.553   3.050   3.029 -0.3705 -0.2350  0.0905
   16SOL    HW1   47   1.531   0.009   0.017 -1.1923  0.7875  1.0977
   16SOL    HW2   48   1.648   3.079   2.997 -1.0582 -0.8067  0.0026
   17SOL     OW   49   0.888   0.058   1.130 -0.9567 -0.1532  0.0967
   17SOL    HW1   50   0.808   0.006   1.167 -0.0525  1.6384  2.1045
   17SOL    HW2   51   0.947   3.092   1.082 -1.1363  1.7574  1.3568
   18SOL     OW   52   1.110   0.572   0.210  0.2199  0.3928 -0.2804
   18SOL    HW1   53   1.180   0.510   0.243 -2.1643  3.0630  1.0759
   18SOL    HW2   54   1.137   0.664   0.250 -2.6852 -1.1092  2.3491
   19SOL     OW   55   2.252   1.929   3.008 -0.1642  0.2855 -0.0649
   19SOL    HW1   56   2.281   2.028   3.016 -1.1609  0.2153 -0.5645
   19SOL    HW2   57   2.169   1.916   3.063 -1.4911 -1.0202  1.2290
   20SOL     OW   58   2.031   1.614   1.612 -0.3046  0.0840  0.0856
   20SOL    HW1   59   1.968   1.657   1.540 -2.2273 -1.7696 -2.7958
   20SOL    HW2   60   1.981   1.547   1.670 -0.8237  0.7679 -0.2712
   21SOL     OW   61   0.878   1.017   2.922  0.5839  0.5616 -0.0680
   21SOL    HW1   62   0.868   1.059   2.832  0.0092  0.1956  1.8719
   21SOL    HW2   63   0.945   1.075   2.979 -1.1171  0.7909  2.4066
   22SOL     OW   64   2.028   3.068   1.295  0.3907  0.1931 -0.6567
   22SOL    HW1   65   1.943   3.070   1.353  0.1129  1.3383  0.1566
   22SOL    HW2   66   2.025   2.987   1.231 -1.8525  0.8727 -1.6596
   23SOL     OW   67   3.005   0.567   1.611 -0.2617  0.3567  0.2080
   23SOL    HW1   68   3.082   0.619   1.658  0.0671 -1.5951 -2.0395
   23SOL    HW2   69   2.947   0.625   1.551  0.0580 -1.5115 -2.7783
   24SOL     OW   70   2.408   2.503   1.246  0.5978 -0.4435 -0.0225
   24SOL    HW1   71   2.394   2.511   1.147  2.0263  0.9112  1.7090
   24SOL    HW2   72   2.485   2.565   1.273 -0.0216 -2.3314  0.0522
   25SOL     OW   73   1.822   2.829   2.667 -0.0608  0.3335  0.2820
   25SOL    HW1   74   1.846   2.735   2.688  0.2591  1.5328  0.2855
   25SOL    HW2   75   1.834   2.856   2.567  1.1285  0.7481 -0.5912
   26SOL     OW   76   1.409   2.811   0.395  0.5705  0.1420  0.4809
   26SOL    HW1   77   1.487   2.748   0.398  1.8628  0.6781  0.1800
   26SOL    HW2   78   1.339   2.768   0.333  1.7503  0.3657 -0.4206
   27SOL     OW   79   0.407   1.645   2.591  0.4687  0.0142  0.1273
   27SOL    HW1   80   0.315   1.683   2.572 -0.8367  1.4769  0.0777
   27SOL    HW2   81   0.479   1.715   2.586  2.8575  0.7215  0.4453
   28SOL     OW   82   2.919   1.231   1.597  0.1325  0.0835  0.7035
   28SOL    HW1   83   2.900   1.311   1.537  1.7196  0.3153  2.3388
   28SOL    HW2   84   2.982   1.267   1.670 -0.2522 -0.6978  2.8822
   29SOL     OW   85   2.636   2.426   2.204 -0.3114  0.1976 -0.6082
   29SOL    HW1   86   2.685   2.377   2.278  1.3213  2.3831  0.3388
   29SOL    HW2   87   2.681   2.415   2.113 -0.3892  0.1294 -1.7534
   30SOL     OW   88   1.549   0.105   0.136 -0.3462  0.3705 -0.2805
   30SOL    HW1   89   1.480   0.180   0.142  1.1931 -0.7834  0.0682
   30SOL    HW2   90   1.640   0.153   0.117 -0.0032 -1.1612  0.3678
   31SOL     OW   91   2.968   2.498   1.965 -0.3948  0.1396 -0.4534
   31SOL    HW1   92   2.928   2.418   1.915  0.0187  0.2962  0.8547
   31SOL    HW2   93   3.069   2.482   1.980  1.5135  1.1827 -0.8967
   32SOL     OW   94   1.136   1.510   1.458  0.4232  0.3719  0.2084
   32SOL    HW1   95   1.104   1.412   1.471 -0.1429  1.8335  1.8932
   32SOL    HW2   96   1.235   1.515   1.436 -3.0995 -2.2391 -0.1770
   33SOL     OW   97   0.109   2.780   2.849  0.0672 -0.2232 -0.0833
   33SOL    HW1   98   0.165   2.729   2.783 -0.0903  1.8772  0.3027
   33SOL    HW2   99   0.060   2.713   2.912  1.0606  0.2245  0.6068
   34SOL     OW  100   1.923   0.128   0.858  0.1172 -0.4594 -0.0760
   34SOL    HW1  101   1.898   0.034   0.820 -0.2701 -1.4329  2.5538
   34SOL    HW2  102   2.020   0.148   0.859 -1.0377 -1.4918 -0.8642
   35SOL     OW  103   2.201   0.090   0.768  0.1952 -0.5424  0.1807
   35SOL    HW1  104   2.166   3.094   0.737 -2.1795 -0.2544  1.2381
   35SOL    HW2  105   2.266   0.083   0.846  1.4355 -0.9928 -0.2977
   36SOL     OW  106   1.902   2.855   2.395  0.0039  0.3457 -0.0150
   36SOL    HW1  107   1.988   2.814   2.363 -2.9796  2.2741  1.1944
   36SOL    HW2  108   1.860   2.922   2.328 -1.4043  0.0605 -2.4395
   37SOL     OW  109   1.103   2.725   2.239  0.8581  0.5926 -0.1354
   37SOL    HW1  110   1.092   2.630   2.199  0.0962 -2.6601  0.2872
   37SOL    HW2  111   1.058   2.734   2.331  0.9399  1.2714 -1.4771
   38SOL     OW  112   2.802   3.003   2.772  0.4614 -0.2848 -0.0825
   38SOL    HW1  113   2.794   2.919   2.825  1.3643  1.9624  1.8994
   38SOL    HW2  114   2.711   3.043   2.746  0.9949 -3.1041 -0.8546
   39SOL     OW  115   2.286   1.465   1.984  0.1632 -0.0318  0.4135
   39SOL    HW1  116   2.302   1.505   1.893  0.5723  1.9642 -0.2491
   39SOL    HW2  117   2.242   1.529   2.049  0.5269 -2.4999 -0.0313
   40SOL     OW  118   0.108   3.035   2.817 -0.2900 -0.6958 -0.0084
   40SOL    HW1  119   0.195   3.075   2.857 -0.8259 -0.1940 -1.0249
   40SOL    HW2  120   0.112   2.935   2.819  1.9393  1.7493 -1.1709
   41SOL     OW  121   1.615   0.651   0.870 -0.1505 -0.4368  0.3526
   41SOL    HW1  122   1.513   0.661   0.878 -2.8788  3.5695 -0.7420
   41SOL    HW2  123   1.641   0.581   0.807  0.9458  0.1662 -0.3451
   42SOL     OW  124   0.489   0.852   1.368  0.4354 -0.0217 -0.0558
   42SOL    HW1  125   0.477   0.758   1.324 -1.2198 -2.0112  0.7514
   42SOL    HW2  126   0.404   0.903   1.345 -0.2646  0.9340  1.2016
   43SOL     OW  127   2.690   1.414   2.513  0.1238  0.0949  0.3683
   43SOL    HW1  128   2.627   1.332   2.512 -1.1423  0.4679 -1.0553
   43SOL    HW2  129   2.664   1.481   2.583  0.9657 -0.6237  0.9866
   44SOL     OW  130   0.051   2.703   0.389 -0.3662 -0.0695 -0.0288
   44SOL    HW1  131   3.063   2.762   0.390  1.3967 -0.5603  0.6747
   44SOL    HW2  132   0.134   2.766   0.386 -0.9591 -0.0161 -0.2993
   45SOL     OW  133   0.413   2.494   1.969 -0.0476 -0.6260  0.0168
   45SOL    HW1  134   0.312   2.513   1.949 -1.3764  0.1289 -2.3814
   45SOL    HW2  135   0.458   2.566   2.025 -3.4674 -1.9785  1.6904
   46SOL     OW  136   2.306   2.488   2.346  0.1513 -0.1763  0.1006
   46SOL    HW1  137   2.377   2.430   2.396  1.6766 -0.9764 -1.6266
   46SOL    HW2  138   2.326   2.499   2.248  1.2168 -0.0571  1.8562
   47SOL     OW  139   2.270   1.953   1.463 -0.2078 -0.0646  0.2877
   47SOL    HW1  140   2.332   1.968   1.543  0.8855  2.3633 -1.5542
   47SOL    HW2  141   2.177   1.959   1.497 -0.1099 -0.9457 -0.4123
   48SOL     OW  142   0.723   1.645   0.116 -0.1703  0.1603 -0.5613
   48SOL    HW1  143   0.692   1.569   0.058  0.5391  0.7330  2.2077
   48SOL    HW2  144   0.821   1.640   0.120 -2.5667 -0.5571 -3.5400
   49SOL     OW  145   2.645   0.360   2.616 -0.3868 -0.0031 -0.5735
   49SOL    HW1  146   2.606   0.269   2.592  1.2411 -0.7234  1.9166
   49SOL    HW2  147   2.571   0.431   2.614  2.3228  0.8458 -0.1405
   50SOL     OW  148   2.259   0.841   0.341  0.4252  0.0750  0.1180
   50SOL    HW1  149   2.166   0.867   0.367  2.9002 -2.7288 -0.6037
   50SOL    HW2  150   2.270   0.743   0.331 -0.2362  1.8295  1.7390
   51SOL     OW  151   1.942   0.796   1.183 -0.2341  0.8418  0.3799
   51SOL    HW1  152   1.893   0.732   1.122 -1.5797 -1.2099 -0.4542
   51SOL    HW2  153   2.029   0.750   1.213  0.0611 -0.5980 -2.2972
   52SOL     OW  154   1.049   1.187   3.022 -0.2869  0.2583  0.9518
   52SOL    HW1  155   1.070   1.260   3.090  1.7548  1.9392  0.8417
   52SOL    HW2  156   1.118   1.180   2.947 -0.8609 -0.4175 -1.4834
   53SOL     OW  157   1.063   1.612   1.911  0.3705 -0.1005 -0.0165
   53SOL    HW1  158   1.038   1.567   1.997  0.8340 -0.3220  2.3102
   53SOL    HW2  159   0.989   1.621   1.843  0.6227 -0.5147 -1.3921
   54SOL     OW  160   1.945   0.358   1.034 -0.0554  0.4043 -0.3646
   54SOL    HW1  161   2.004   0.322   1.114 -1.4695 -1.0120  1.7315
   54SOL    HW2  162   1.933   0.287   0.960 -0.4574 -0.9826 -3.0759
   55SOL     OW  163   2.580   2.265   1.089  0.1302 -0.0843  0.0897
   55SOL    HW1  164   2.532   2.342   1.037  0.4771 -0.2598  1.8582
   55SOL    HW2  165   2.508   2.193   1.116 -1.7360 -1.7060  0.6561
   56SOL     OW  166   0.879   2.658   1.603 -0.1251 -0.3964 -0.2541
   56SOL    HW1  167   0.919   2.684   1.512 -2.5843  0.0997  1.2376
   56SOL    HW2  168   0.921   2.703   1.681 -2.2709 -1.2383  0.7462
   57SOL     OW  169   1.526   1.265   0.303 -0.1303 -0.5492  0.3298
   57SOL    HW1  170   1.605   1.196   0.294  0.8673 -1.3802  1.3150
   57SOL    HW2  171   1.559   1.363   0.282 -1.2563 -0.1225  0.6659
   58SOL     OW  172   2.887   0.495   2.447 -0.6322 -0.2222 -0.1583
   58SOL    HW1  173   2.897   0.598   2.446 -0.8176  1.0940 -0.3134
   58SOL    HW2  174   2.792   0.461   2.477 -1.0630  0.4154 -1.2052
   59SOL     OW  175   1.064   2.669   2.503 -0.1837  0.2260  0.2279
   59SOL    HW1  176   1.158   2.692   2.539  1.3613  2.5156 -1.1432
   59SOL    HW2  177   1.060   2.578   2.461 -2.4911 -1.2625 -0.9000
   60SOL     OW  178   2.450   2.610   0.770 -0.7211 -0.0745  0.2975
   60SOL    HW1  179   2.423   2.596   0.669 -1.9404 -2.4666 -2.3189
   60SOL    HW2  180   2.381   2.664   0.812  4.0396 -2.6302 -3.5851
   61SOL     OW  181   1.215   2.275   0.865  0.0883  0.1909  0.1151
   61SOL    HW1  182   1.232   2.370   0.897  1.8938  0.0246 -1.2157
   61SOL    HW2  183   1.251   2.213   0.937  1.0174  0.7767 -0.5339
   62SOL     OW  184   2.415   2.071   2.555 -0.2735  0.1605  0.2080
   62SOL    HW1  185   2.348   2.038   2.628 -1.7396 -0.5976  1.1047
   62SOL    HW2  186   2.427   2.001   2.478 -2.0640  0.4491 -0.7189
   63SOL     OW  187   2.404   0.391   3.012  0.5842 -0.0004  0.2406
   63SOL    HW1  188   2.493   0.430   2.977 -0.5879 -0.8339 -3.5686
   63SOL    HW2  189   2.392   0.294   2.982  0.2778  1.2266  0.6348
   64SOL     OW  190   1.247   0.706   2.631  0.2333  0.3893  0.0290
   64SOL    HW1  191   1.162   0.761   2.611 -0.4968  1.1178  1.2161
   64SOL    HW2  192   1.241   0.615   2.580 -0.7366 -1.1759  0.5324
   65SOL     OW  193   1.244   2.031   0.339  0.7182  0.2828  0.0746
   65SOL    HW1  194   1.206   2.030   0.436  2.2592 -1.8008  0.7552
   65SOL    HW2  195   1.280   2.126   0.312 -1.0639  0.6925 -0.6484
   66SOL     OW  196   0.314   1.180   1.713  0.8423  0.4097 -0.2026
   66SOL    HW1  197   0.316   1.255   1.781 -2.5740 -1.5689 -0.1829
   66SOL    HW2  198   0.398   1.171   1.661 -0.6130  0.3424 -0.8393
   67SOL     OW  199   2.278   0.064   2.482 -0.1017 -0.5987 -0.5557
   67SOL    HW1  200   2.373   0.108   2.499  1.9631 -1.0263  0.5461
   67SOL    HW2  201   2.255   0.060   2.380  0.1540 -0.2166 -0.1818
   68SOL     OW  202   0.410   2.376   1.156  0.1418  0.0062 -0.3426
   68SOL    HW1  203   0.471   2.434   1.206 -1.1344 -0.4020  0.3656
   68SOL    HW2  204   0.364   2.304   1.210  1.0696  0.2972  0.2463
   69SOL     OW  205   0.898   2.680   0.472  0.6899  0.3765 -0.0711
   69SOL    HW1  206   0.922   2.728   0.385 -3.1112 -2.1847  1.4655
   69SOL    HW2  207   0.902   2.745   0.552  0.6536 -0.5521 -2.8850
   70SOL     OW  208   2.881   1.007   2.744 -0.0831 -0.4630 -0.3666
   70SOL    HW1  209   2.933   1.093   2.727  1.1657  0.3101 -0.7891
   70SOL    HW2  210   2.921   0.928   2.689 -1.0337 -0.4956 -2.5125
   71SOL     OW  211   0.146   1.394   2.617 -0.3365 -0.1188 -0.2162
   71SOL    HW1  212   0.251   1.380   2.614 -0.1720 -1.7002 -0.9192
   71SOL    HW2  213   0.111   1.431   2.527 -1.4903  2.1190 -1.3615
   72SOL     OW  214   0.158   2.337   0.346 -0.0348  0.2504 -0.3048
   72SOL    HW1  215   0.249   2.370   0.373 -1.2868 -1.7420 -1.2256
   72SOL    HW2  216   0.086   2.372   0.414 -1.2960 -0.2591 -0.3973
   73SOL     OW  217   0.708   1.341   0.197 -0.1300 -0.1190 -0.6118
   73SOL    HW1  218   0.805   1.352   0.224 -2.2552  2.6549 -3.3256
   73SOL    HW2  219   0.692   1.263   0.137  0.5319 -0.7105 -0.5389
   74SOL     OW  220   3.008   0.229   0.292 -0.1624  0.2784 -0.4184
   74SOL    HW1  221   2.955   0.189   0.210 -1.0786  0.2164  0.6123
   74SOL    HW2  222   3.095   0.271   0.257 -0.3825 -1.3224  0.9321
   75SOL     OW  223   2.344   1.498   2.330 -0.1998  0.3430 -0.5568
   75SOL    HW1  224   2.428   1.466   2.279  0.2758 -0.0984 -4.4533
   75SOL    HW2  225   2.288   1.552   2.267 -1.3534  0.4931 -0.3596
   76SOL     OW  226   2.118   2.772   1.457  0.6921 -0.1215  0.2290
   76SOL    HW1  227   2.189   2.704   1.486  0.4085  0.5838  2.2219
   76SOL    HW2  228   2.095   2.753   1.358 -0.7418 -0.2903 -3.1107
   77SOL     OW  229   2.590   0.481   1.177 -0.8515 -0.1851 -0.2714
   77SOL    HW1  230   2.603   0.581   1.195 -0.2117  0.2772 -1.0448
   77SOL    HW2  231   2.610   0.459   1.080  1.1328  1.2550  3.5846
   78SOL     OW  232   1.756   1.027   3.028 -0.5630  0.1393 -0.0801
   78SOL    HW1  233   1.733   1.097   2.955 -1.6081  1.1632 -0.6070
   78SOL    HW2  234   1.824   1.063   3.094  0.6969 -1.1938 -0.1778
   79SOL     OW  235   0.771   1.849   1.976  0.0157  0.0106 -0.0383
   79SOL    HW1  236   0.826   1.869   1.889  0.7490  0.7775  0.0752
   79SOL    HW2  237   0.748   1.749   1.967 -0.5760  1.3816 -0.4260
   80SOL     OW  238   1.497   1.082   0.824  0.2491 -0.1608  0.0150
   80SOL    HW1  239   1.486   1.127   0.733 -1.4304 -2.9228  0.3110
   80SOL    HW2  240   1.577   1.016   0.826 -0.0575  1.5096  0.7796
   81SOL     OW  241   0.333   0.484   1.151  0.2449 -0.2054 -0.2146
   81SOL    HW1  242   0.239   0.474   1.110  0.0692  0.6031 -0.4383
   81SOL    HW2  243   0.400   0.427   1.096  0.7664  0.4271  1.5943
   82SOL     OW  244   1.513   2.289   1.673 -0.2169 -0.1273  0.1436
   82SOL    HW1  245   1.502   2.280   1.774 -1.1326 -1.9200 -2.2596
   82SOL    HW2  246   1.454   2.219   1.622  0.2406 -2.1039 -0.9471
   83SOL     OW  247   0.440   2.882   1.340  0.2460  0.2107 -0.0458
   83SOL    HW1  248   0.390   2.868   1.252 -1.7593  2.1253 -0.5808
   83SOL    HW2  249   0.434   2.796   1.399  2.1956 -0.5452 -1.4866
   84SOL     OW  250   0.290   0.871   2.832 -0.2972  0.1421 -0.3387
   84SOL    HW1  251   0.245   0.861   2.739  0.0569 -0.1883  1.8173
   84SOL    HW2  252   0.338   0.785   2.858 -1.0184 -0.3195 -1.5339
   85SOL     OW  253   2.901   2.466   1.663 -0.4661  0.3969  0.3758
   85SOL    HW1  254   2.913   2.436   1.566 -0.0258 -0.8056  0.6711
   85SOL    HW2  255   2.807   2.442   1.693 -0.9691  0.0209 -0.1392
   86SOL     OW  256   2.907   2.749   1.671  0.5649 -0.1112  0.3037
   86SOL    HW1  257   2.919   2.651   1.689 -0.9622  0.1835 -0.5847
   86SOL    HW2  258   2.968   2.769   1.591 -1.6984 -0.1457 -0.5468
   87SOL     OW  259   2.953   2.599   2.968  0.2491  0.4947 -0.1067
   87SOL    HW1  260   2.930   2.645   2.881  1.5414 -2.6832 -1.7233
   87SOL    HW2  261   2.937   2.502   2.969 -0.1222  0.6170 -0.7953
   88SOL     OW  262   0.268   1.907   1.326 -0.0603  0.1283 -0.0167
   88SOL    HW1  263   0.244   2.003   1.329  3.0176 -2.7132  1.1097
   88SOL    HW2  264   0.277   1.870   1.230 -0.4476 -0.4500 -0.0089
   89SOL     OW  265   1.053   0.336   1.798 -0.0345  0.7162 -0.1030
   89SOL    HW1  266   0.973   0.374   1.747  0.6391 -0.2940  0.2974
   89SOL    HW2  267   1.037   0.240   1.827  0.4843 -0.9563 -0.9180
   90SOL     OW  268   0.010   1.513   1.915 -0.7303 -0.0377 -0.5034
   90SOL    HW1  269   3.023   1.518   1.968  1.4470  0.4249 -2.6739
   90SOL    HW2  270   0.002   1.566   1.824 -2.1753 -0.8432  0.5758
   91SOL     OW  271   1.105   1.768   0.572 -0.4397 -0.2232  0.2234
   91SOL    HW1  272   1.089   1.806   0.668 -1.1597  0.5186  0.7606
   91SOL    HW2  273   1.178   1.696   0.574 -1.1406 -1.6996  2.9327
   92SOL     OW  274   2.330   0.249   1.154 -0.5177  0.3164  0.2144
   92SOL    HW1  275   2.406   0.281   1.217  1.9511  0.0753  0.7863
   92SOL    HW2  276   2.237   0.261   1.194 -0.6703 -0.3829 -0.6118
   93SOL     OW  277   2.503   1.496   2.948 -0.4401  0.0964  0.4972
   93SOL    HW1  278   2.426   1.451   3.002 -1.8592  0.1215 -0.7637
   93SOL    HW2  279   2.468   1.589   2.917  0.8231  0.6725 -2.5058
   94SOL     OW  280   2.474   2.316   2.501 -0.0019  0.2442 -0.3985
   94SOL    HW1  281   2.439   2.218   2.518  1.3653  0.5907 -0.3028
   94SOL    HW2  282   2.573   2.303   2.500 -3.8071  0.0097 -1.9759
   95SOL     OW  283   1.776   0.582   1.090 -0.2717 -0.2018  0.2878
   95SOL    HW1  284   1.715   0.616   1.018  0.4262  1.7294 -0.2151
   95SOL    HW2  285   1.835   0.510   1.051  0.9102  0.2475 -0.8840
   96SOL     OW  286   2.774   2.927   1.818  0.3334 -0.0630  0.1127
   96SOL    HW1  287   2.833   2.860   1.768  2.5048  1.0125  1.0934
   96SOL    HW2  288   2.740   2.996   1.752 -1.3813  0.4769 -0.3585
   97SOL     OW  289   2.081   0.284   1.275  0.5106  0.0235  0.3262
   97SOL    HW1  290   2.045   0.194   1.291  0.8269  0.5502  1.2239
   97SOL    HW2  291   2.038   0.345   1.341  0.1137  0.4960  1.8151
   98SOL     OW  292   1.630   2.035   1.397 -0.4054  0.1843  0.5196
   98SOL    HW1  293   1.670   2.094   1.321 -1.6552  2.6378 -2.0963
   98SOL    HW2  294   1.699   2.023   1.472  1.2314 -2.4126  1.9438
   99SOL     OW  295   0.106   2.826   1.870  0.1532  0.1473 -0.0786
   99SOL    HW1  296   0.116   2.843   1.773 -0.6125 -1.7091  1.3059
   99SOL    HW2  297   0.036   2.883   1.917 -1.3868  1.6051  1.2305
  100SOL     OW  298   0.233   0.882   2.574  0.1053  0.0186  0.2878
  100SOL    HW1  299   0.174   0.965   2.553 -1.2222  0.3302  1.1574
  100SOL    HW2  300   0.255   0.835   2.485  0.7411  0.0187 -1.8170
  101SOL     OW  301   1.672   0.786   3.091 -0.2056 -0.0877 -0.6063
  101SOL    HW1  302   1.679   0.710   3.024 -3.0497 -0.3503  1.6413
  101SOL    HW2  303   1.710   0.877   3.064  1.0998  1.1072  0.2730
  102SOL     OW  304   0.149   0.698   1.432  0.4138 -0.2419  0.5898
  102SOL    HW1  305   0.167   0.701   1.329  1.7585  2.1180 -0.2076
  102SOL    HW2  306   0.221   0.651   1.484 -0.2080  2.4518  0.3024
  103SOL     OW  307   2.637   0.766   1.899 -0.2256 -0.2038  0.7319
  103SOL    HW1  308   2.708   0.749   1.969  1.4994  2.2226 -1.7250
  103SOL    HW2  309   2.582   0.852   1.914 -3.5652 -1.8487 -0.9127
  104SOL     OW  310   0.272   0.227   2.761 -0.0849 -0.1825  0.0357
  104SOL    HW1  311   0.255   0.204   2.661  0.6604 -3.6761  1.2974
  104SOL    HW2  312   0.312   0.146   2.813  2.1676 -0.7034  4.8081
  105SOL     OW  313   2.077   1.315   1.668  0.2343  0.0762  0.4659
  105SOL    HW1  314   2.005   1.249   1.637 -0.6447 -1.0412 -0.3592
  105SOL    HW2  315   2.086   1.328   1.767 -1.4188  2.0751 -3.1433
  106SOL     OW  316   1.276   0.119   0.395  0.3015  0.0487  0.6747
  106SOL    HW1  317   1.368   0.097   0.420 -1.9734  0.1504 -1.1142
  106SOL    HW2  318   1.271   0.216   0.375 -1.1395 -2.4209  0.4917
  107SOL     OW  319   0.173   1.699   1.465  0.4391 -0.1692 -0.2539
  107SOL    HW1  320   0.260   1.652   1.484 -0.8227 -1.5449  3.0458
  107SOL    HW2  321   0.195   1.795   1.430 -0.5282 -2.1242 -2.2613
  108SOL     OW  322   0.049   2.594   2.467  0.0974 -0.0108  0.2345
  108SOL    HW1  323   0.111   2.584   2.550  0.8347  0.3002 -0.4290
  108SOL    HW2  324   0.014   2.685   2.459  1.6887 -1.9515 -1.0140
  109SOL     OW  325   1.727   0.321   0.142  0.4780  0.0623 -0.2759
  109SOL    HW1  326   1.667   0.354   0.213  1.0029 -1.7568  1.2516
  109SOL    HW2  327   1.787   0.399   0.105  0.5539 -2.4181  0.9291
  110SOL     OW  328   0.311   2.221   2.632  0.7279  0.3191  0.4437
  110SOL    HW1  329   0.362   2.305   2.599  0.2220 -0.7292  0.0579
  110SOL    HW2  330   0.359   2.133   2.614 -2.3160 -0.4922 -1.1341
  111SOL     OW  331   1.454   2.582   1.942  0.5204 -0.1843  0.0832
  111SOL    HW1  332   1.556   2.589   1.960 -0.6665  2.1679  3.3147
  111SOL    HW2  333   1.426   2.633   1.858 -0.2177  1.6889  0.9084
  112SOL     OW  334   1.945   2.502   2.573 -0.2686  0.0456 -0.2907
  112SOL    HW1  335   1.904   2.515   2.667 -0.3494  0.2214  0.6347
  112SOL    HW2  336   2.039   2.541   2.570  2.8129  0.7624  0.2770
  113SOL     OW  337   1.960   2.688   1.780 -0.0515 -0.1571 -0.9492
  113SOL    HW1  338   1.960   2.663   1.878  1.8435  0.4316  0.4939
  113SOL    HW2  339   1.961   2.598   1.725  1.9892 -1.4886 -1.4058
  114SOL     OW  340   2.882   0.857   0.449 -0.3099  0.2727  0.2740
  114SOL    HW1  341   2.820   0.868   0.528 -0.8789 -0.4884  0.8702
  114SOL    HW2  342   2.902   0.950   0.414  0.2720 -0.9445  1.9477
  115SOL     OW  343   0.325   1.245   2.889  0.2229  0.3921  0.6625
  115SOL    HW1  344   0.365   1.277   2.800 -1.9419  1.3520 -2.6248
  115SOL    HW2  345   0.372   1.161   2.924  0.6766  0.4858  0.4884
  116SOL     OW  346   0.317   1.193   2.101 -0.2649 -0.2180 -0.9865
  116SOL    HW1  347   0.291   1.226   2.007 -2.6217 -2.2512  0.4358
  116SOL    HW2  348   0.257   1.236   2.171 -1.3321 -2.5029 -2.1538
  117SOL     OW  349   2.559   0.119   0.765 -0.3640 -0.4918  0.0010
  117SOL    HW1  350   2.582   0.113   0.666  0.0446 -0.8720 -0.7885
  117SOL    HW2  351   2.496   0.205   0.783 -2.9535  5.1258 -1.0370
  118SOL     OW  352   1.268   1.902   1.669 -0.3998  0.4028 -0.2403
  118SOL    HW1  353   1.307   1.805   1.656  3.0928  0.7817  1.8741
  118SOL    HW2  354   1.243   1.919   1.767  0.6113 -1.4004  0.2088
  119SOL     OW  355   1.094   2.468   0.269 -0.1101 -0.0154  0.4493
  119SOL    HW1  356   1.065   2.441   0.366 -0.1169 -0.7848  2.9256
  119SOL    HW2  357   1.169   2.405   0.234  1.8567  0.8770 -0.3550
  120SOL     OW  358   0.547   0.959   2.700  0.3944 -0.1281 -0.4561
  120SOL    HW1  359   0.599   0.873   2.685 -1.7147 -0.3844  0.7533
  120SOL    HW2  360   0.453   0.934   2.733 -3.1329  2.7319  3.3832
  121SOL     OW  361   2.100   2.763   1.185  0.5645  0.4260 -0.3317
  121SOL    HW1  362   2.011   2.810   1.160  0.4174 -0.7379 -0.1188
  121SOL    HW2  363   2.180   2.815   1.152  0.5580 -0.7894  0.8627
  122SOL     OW  364   2.391   2.125   1.921  0.5668 -0.3095 -0.8566
  122SOL    HW1  365   2.378   2.103   2.020  1.0549 -0.4498  0.8720
  122SOL    HW2  366   2.313   2.169   1.875  0.0551  0.0063  0.3589
  123SOL     OW  367   0.159   0.005   0.405 -0.1918  0.0310  0.1878
  123SOL    HW1  368   0.163   0.092   0.467  2.3246  3.2072  0.5330
  123SOL    HW2  369   0.121   0.021   0.311  0.3581  1.4090 -3.0516
  124SOL     OW  370   1.931   0.624   2.583 -0.1179 -0.3361  0.1786
  124SOL    HW1  371   1.937   0.727   2.586  2.7417  1.3629 -0.0149
  124SOL    HW2  372   1.966   0.586   2.496  1.6522  0.0248  1.7199
  125SOL     OW  373   0.333   1.511   0.757  0.2252 -0.2454  0.3063
  125SOL    HW1  374   0.411   1.519   0.691 -0.5388  2.7770 -0.4777
  125SOL    HW2  375   0.277   1.597   0.763  1.3727 -0.9091 -0.6031
  126SOL     OW  376   2.412   1.623   0.755  0.0610  0.1093  0.2343
  126SOL    HW1  377   2.475   1.642   0.833 -0.2274  3.6442  3.7460
  126SOL    HW2  378   2.332   1.689   0.756 -1.2567  1.3874  0.1608
  127SOL     OW  379   0.150   2.159   1.687 -0.4010  0.4531 -0.1033
  127SOL    HW1  380   0.117   2.133   1.594  1.3957  2.5056 -0.9892
  127SOL    HW2  381   0.109   2.246   1.715  1.4098 -0.5198  0.0045
  128SOL     OW  382   0.844   0.517   2.566  0.5776  0.6104  0.2676
  128SOL    HW1  383   0.907   0.577   2.516 -0.0863 -2.0286  1.7990
  128SOL    HW2  384   0.885   0.426   2.567  2.2804  1.9681 -1.7498
  129SOL     OW  385   2.509   1.118   0.951 -0.0657 -0.0263 -0.4748
  129SOL    HW1  386   2.609   1.102   0.942 -0.6344 -0.9649 -3.6369
  129SOL    HW2  387   2.461   1.138   0.862 -1.0295 -0.9839 -0.5067
  130SOL     OW  388   2.520   1.425   1.653 -0.6031 -0.0205 -0.5056
  130SOL    HW1  389   2.518   1.342   1.593  1.0161 -0.7306  0.2596
  130SOL    HW2  390   2.427   1.469   1.664 -2.4515 -1.9920 -0.6115
  131SOL     OW  391   2.561   0.752   2.948 -0.1152 -0.3341 -0.4661
  131SOL    HW1  392   2.648   0.793   2.976  2.1840  0.2410  0.1347
  131SOL    HW2  393   2.585   0.660   2.914 -0.2706  0.9301 -0.5515
  132SOL     OW  394   2.673   2.135   1.862  0.0692  0.7736  0.2112
  132SOL    HW1  395   2.582   2.109   1.895 -0.7847 -0.0687 -0.2899
  132SOL    HW2  396   2.735   2.173   1.937  2.2125  1.0950 -3.3013
  133SOL     OW  397   0.406   1.154   0.995  0.5112 -0.3744 -0.2132
  133SOL    HW1  398   0.408   1.197   0.904 -0.0611  0.4263 -0.4953
  133SOL    HW2  399   0.379   1.221   1.071  0.2659  1.2856 -1.2566
  134SOL     OW  400   0.214   1.348   0.031 -0.0769  0.0167 -0.2236
  134SOL    HW1  401   0.274   1.430   0.048  1.0437 -3.0466  0.4311
  134SOL    HW2  402   0.254   1.298   3.046  0.9887 -0.8057 -0.4051
  135SOL     OW  403   2.167   1.444   1.356 -0.2872  0.6567 -0.0415
  135SOL    HW1  404   2.191   1.356   1.401  0.5437  0.6293 -0.5175
  135SOL    HW2  405   2.106   1.504   1.413 -0.4262 -1.3089 -0.8763
  136SOL     OW  406   2.729   0.872   0.683 -0.0180 -0.0697  0.4656
  136SOL    HW1  407   2.674   0.952   0.652 -1.6826  1.2318 -1.6150
  136SOL    HW2  408   2.671   0.793   0.709 -0.3117  2.7825  1.1562
  137SOL     OW  409   2.555   1.689   0.972 -0.4052 -0.7386  0.7682
  137SOL    HW1  410   2.587   1.751   1.044  0.9865 -0.5249 -0.0018
  137SOL    HW2  411   2.533   1.593   1.006  0.6003  2.6874 -0.2003
  138SOL     OW  412   1.618   0.668   1.354  0.0828 -0.1230  0.1871
  138SOL    HW1  413   1.645   0.645   1.260  0.2297 -1.0405 -2.9537
  138SOL    HW2  414   1.601   0.584   1.406 -0.2082 -2.9315 -1.0810
  139SOL     OW  415   2.070   0.152   3.006 -0.1539 -0.0091  0.1806
  139SOL    HW1  416   2.065   0.252   2.986 -0.8688  1.2469  1.9345
  139SOL    HW2  417   2.159   0.109   2.964  2.9357 -1.8844 -1.4270
  140SOL     OW  418   1.561   1.648   2.101  0.2765 -0.0837 -0.5099
  140SOL    HW1  419   1.656   1.645   2.143 -1.2034 -0.9980  2.7451
  140SOL    HW2  420   1.531   1.555   2.077  0.9308  4.4102  0.9420
  141SOL     OW  421   1.953   1.960   0.925  0.1397 -0.4349  0.5139
  141SOL    HW1  422   1.995   2.031   0.983 -1.5281 -1.0892  2.6576
  141SOL    HW2  423   1.888   1.890   0.972 -0.5791 -2.8429  1.2553
  142SOL     OW  424   2.947   0.728   0.062 -0.3991 -0.2206  0.0657
  142SOL    HW1  425   3.005   0.674   0.001  0.0360 -0.4311  0.5545
  142SOL    HW2  426   3.008   0.771   0.138  0.6223  1.4596 -0.7127
  143SOL     OW  427   0.350   2.093   2.945 -0.0597 -0.0334 -0.2689
  143SOL    HW1  428   0.432   2.031   2.956  0.2612 -0.0939 -0.2469
  143SOL    HW2  429   0.263   2.035   2.935 -1.9673 -0.3715 -1.1403
  144SOL     OW  430   0.800   2.970   1.726  0.1395 -0.1349  0.6037
  144SOL    HW1  431   0.819   2.991   1.626 -0.7004 -2.2686 -2.8929
  144SOL    HW2  432   0.880   2.920   1.769  1.7436 -2.4291 -0.6838
  145SOL     OW  433   2.387   1.335   0.433  0.4522 -0.0872  0.4965
  145SOL    HW1  434   2.302   1.271   0.436 -2.9889 -2.9219  1.1224
  145SOL    HW2  435   2.393   1.369   0.336 -2.2067  0.3797 -1.5199
  146SOL     OW  436   2.542   2.655   0.014 -0.0035  1.0011  0.0909
  146SOL    HW1  437   2.614   2.595   0.055 -1.5631 -1.0887 -1.1810
  146SOL    HW2  438   2.508   2.608   3.029  2.7072  0.8877  0.5168
  147SOL     OW  439   2.700   2.902   1.130 -0.2243 -0.1624 -0.4829
  147SOL    HW1  440   2.678   2.964   1.202  0.0073  1.2128  2.0070
  147SOL    HW2  441   2.704   2.949   1.037 -0.5447 -0.3081  1.0053
  148SOL     OW  442   1.577   2.974   2.470 -0.1445 -0.2445  0.2724
  148SOL    HW1  443   1.597   3.075   2.489 -0.6601 -1.4041  2.1854
  148SOL    HW2  444   1.562   2.933   2.563  2.0976 -1.1763 -1.3764
  149SOL     OW  445   1.095   0.383   2.508 -0.1041 -0.0544  0.0894
  149SOL    HW1  446   1.192   0.403   2.533  1.1347  0.6697 -0.4141
  149SOL    HW2  447   1.084   0.353   2.410 -2.9524  0.4501 -1.1455
  150SOL     OW  448   0.917   2.848   0.690  0.4362  0.2113  0.7354
  150SOL    HW1  449   0.860   2.930   0.661 -0.3084 -0.3732  0.2965
  150SOL    HW2  450   1.008   2.885   0.722 -1.1918  0.6170  1.3006
  151SOL     OW  451   3.082   1.811   0.079 -0.1106 -0.4702  0.2219
  151SOL    HW1  452   2.983   1.789   0.095 -3.5572 -1.4314  1.3494
  151SOL    HW2  453   0.029   1.730   0.035  1.3162  0.1397 -0.1485
  152SOL     OW  454   0.117   1.004   0.579 -0.3592 -0.1512  0.1453
  152SOL    HW1  455   0.173   1.080   0.540  1.1856  1.4102  4.3507
  152SOL    HW2  456   0.182   0.935   0.617  0.9681 -2.6795  0.0383
  153SOL     OW  457   2.256   3.052   0.475  0.5841  0.0275 -0.7760
  153SOL    HW1  458   2.282   0.049   0.487 -0.5010 -0.4325 -1.5447
  153SOL    HW2  459   2.197   3.041   0.387 -0.1718  1.3062 -0.7667
  154SOL     OW  460   0.938   0.682   1.628  0.2812 -0.1027  0.0355
  154SOL    HW1  461   0.854   0.735   1.603  0.2935  1.6968 -1.6862
  154SOL    HW2  462   0.937   0.671   1.728 -1.9427 -0.4268  0.0247
  155SOL     OW  463   3.022   1.719   0.849 -0.2889  0.1354 -0.4307
  155SOL    HW1  464   2.933   1.667   0.852  1.9090 -0.6567 -1.5325
  155SOL    HW2  465   3.006   1.820   0.852 -0.0249 -2.0310  0.0572
  156SOL     OW  466   2.419   2.165   0.229  0.1852 -0.0996 -0.1539
  156SOL    HW1  467   2.470   2.083   0.255 -1.8744  1.2796 -0.0424
  156SOL    HW2  468   2.394   2.164   0.132  0.9305 -1.5162  2.4750
  157SOL     OW  469   0.973   2.893   1.030 -0.2845  0.1973 -0.4753
  157SOL    HW1  470   0.913   2.811   1.032  1.2393 -0.0616 -0.8184
  157SOL    HW2  471   1.026   2.899   0.942  0.7442  0.4556  0.1905
  158SOL     OW  472   2.480   0.560   2.611 -0.0953 -0.1720 -0.2928
  158SOL    HW1  473   2.403   0.587   2.672 -0.2787 -3.2901  1.9782
  158SOL    HW2  474   2.472   0.583   2.512  0.9376  2.1073 -0.7417
  159SOL     OW  475   0.446   0.321   0.048  0.0070  0.4680  0.5266
  159SOL    HW1  476   0.439   0.218   0.041 -2.1300  1.4360  1.4725
  159SOL    HW2  477   0.445   0.360   3.050 -0.9745  0.6762 -2.5387
  160SOL     OW  478   1.214   1.877   0.137  0.1308 -0.2564 -0.2753
  160SOL    HW1  479   1.283   1.915   0.072  1.7278 -0.3195 -1.2481
  160SOL    HW2  480   1.197   1.936   0.224 -1.2198 -0.8136  2.0626
  161SOL     OW  481   2.813   1.814   2.705 -0.0088  0.2312  0.2590
  161SOL    HW1  482   2.913   1.788   2.729  1.6977  2.3064  3.1375
  161SOL    HW2  483   2.768   1.860   2.786 -0.2036  0.5035 -0.7465
  162SOL     OW  484   0.303   2.854   1.099  0.0879  0.5170 -0.2041
  162SOL    HW1  485   0.326   2.757   1.077 -0.6351  0.5001  0.9101
  162SOL    HW2  486   0.230   2.888   1.034 -2.2157  1.3354 -0.8547
  163SOL     OW  487   2.131   0.441   3.053 -0.1415  0.1300 -0.2391
  163SOL    HW1  488   2.226   0.426   3.023 -0.7671  2.5139  0.3958
  163SOL    HW2  489   2.067   0.478   2.981 -0.4558  0.9336  0.2114
  164SOL     OW  490   3.057   1.973   0.812  0.1494  0.0117  0.0682
  164SOL    HW1  491   0.035   1.995   0.739  1.8387  0.8198 -2.7775
  164SOL    HW2  492   3.030   2.059   0.856  0.3923 -4.0905 -0.6614
  165SOL     OW  493   2.710   0.021   1.642 -0.8072  0.4116  0.9484
  165SOL    HW1  494   2.791   0.081   1.622 -0.3544 -1.1429  2.2833
  165SOL    HW2  495   2.632   0.044   1.582 -0.1914 -2.1976 -2.7249
  166SOL     OW  496   2.380   0.327   0.771  0.0922 -0.9281 -0.6255
  166SOL    HW1  497   2.340   0.415   0.741 -2.0861 -2.1389 -0.2954
  166SOL    HW2  498   2.307   0.272   0.818 -1.0999 -0.9225  0.0889
  167SOL     OW  499   0.484   0.369   0.980  0.2078 -0.3554  0.1012
  167SOL    HW1  500   0.573   0.367   1.033 -2.3046 -0.4707 -0.0658
  167SOL    HW2  501   0.500   0.325   0.888 -0.1322  1.5954 -0.6128
  168SOL     OW  502   1.912   3.067   1.853  0.2366  0.2695  0.1122
  168SOL    HW1  503   1.883   2.997   1.922 -1.7723  0.9945  1.9596
  168SOL    HW2  504   1.990   3.027   1.794 -0.4378 -3.1851 -0.6864
  169SOL     OW  505   0.356   1.237   0.715 -0.5292 -0.2048 -0.8158
  169SOL    HW1  506   0.355   1.336   0.732  2.6461 -3.6842  1.2029
  169SOL    HW2  507   0.301   1.214   0.632  0.8940  1.1567 -0.2008
  170SOL     OW  508   2.642   0.794   1.199  0.4589 -0.1038 -0.2924
  170SOL    HW1  509   2.548   0.820   1.168 -0.7490  0.2749 -1.1444
  170SOL    HW2  510   2.639   0.751   1.296  0.4890 -2.9530  1.4256
  171SOL     OW  511   0.791   2.405   1.559  0.7131 -0.0157  0.6025
  171SOL    HW1  512   0.849   2.324   1.568 -1.2151 -0.6379 -1.3586
  171SOL    HW2  513   0.840   2.490   1.592  0.9120  0.7348  0.4265
  172SOL     OW  514   0.108   2.575   1.381  0.1572 -0.2507  0.2122
  172SOL    HW1  515   0.172   2.540   1.455  0.5298  0.4378  2.5920
  172SOL    HW2  516   0.094   2.679   1.377  0.8335  3.3984 -2.9237
  173SOL     OW  517   1.344   0.260   0.047  0.5793  0.2599  0.2330
  173SOL    HW1  518   1.295   0.191   3.091  1.9114 -0.5954  0.3809
  173SOL    HW2  519   1.395   0.321   3.084 -0.0346 -1.7631 -1.5578
  174SOL     OW  520   1.538   0.208   2.858  0.0867 -0.0470  0.0948
  174SOL    HW1  521   1.530   0.186   2.761 -0.7876  0.6324 -1.0720
  174SOL    HW2  522   1.466   0.151   2.906 -2.5028  1.0340 -2.5708
  175SOL     OW  523   1.756   2.636   3.027 -0.1366  0.1979 -0.1182
  175SOL    HW1  524   1.667   2.674   2.999  1.5385  0.9877  1.1608
  175SOL    HW2  525   1.806   2.716   3.075  0.8764  0.1413  4.0601
  176SOL     OW  526   1.775   0.359   2.928  0.0743  0.2314  0.8537
  176SOL    HW1  527   1.790   0.372   3.028  0.4146 -1.0689 -1.6630
  176SOL    HW2  528   1.688   0.306   2.913 -1.6737  2.0466 -1.1270
  177SOL     OW  529   0.787   1.568   0.571  0.2018  0.1451  0.0239
  177SOL    HW1  530   0.822   1.637   0.504  0.8250  0.4391 -2.1781
  177SOL    HW2  531   0.837   1.586   0.662  1.5229 -0.8785  3.3598
  178SOL     OW  532   0.019   1.540   2.412  0.3674 -0.6747 -0.3275
  178SOL    HW1  533   0.034   1.570   2.313  0.7777 -0.9530 -2.9648
  178SOL    HW2  534   3.017   1.533   2.427  0.0682  1.3393  0.0228
  179SOL     OW  535   0.655   2.540   2.726 -0.3882  0.3108  0.2097
  179SOL    HW1  536   0.757   2.541   2.713 -0.2491  1.3239  0.8859
  179SOL    HW2  537   0.621   2.627   2.759 -2.6243  0.4137  2.6811
  180SOL     OW  538   2.009   1.937   1.579 -0.2977  0.3307  0.2782
  180SOL    HW1  539   2.002   1.892   1.671 -0.3121  1.1261  2.5212
  180SOL    HW2  540   1.959   1.880   1.509  0.8156  0.8185  1.8851
  181SOL     OW  541   1.225   1.013   2.326 -0.3673  0.0661 -0.1219
  181SOL    HW1  542   1.295   0.982   2.396  3.1607 -2.1668 -0.0032
  181SOL    HW2  543   1.188   1.106   2.353 -1.7574 -1.4922  0.3540
  182SOL     OW  544   2.907   0.073   2.577 -0.3323  0.2400  0.5530
  182SOL    HW1  545   2.873   0.005   2.644  2.1063  1.7908  0.5021
  182SOL    HW2  546   3.002   0.054   2.558 -2.5989 -2.5715 -2.2392
  183SOL     OW  547   1.208   0.499   2.876  0.2681 -0.0741  0.0981
  183SOL    HW1  548   1.221   0.549   2.787 -0.1987 -1.7656 -1.1448
  183SOL    HW2  549   1.294   0.458   2.916 -1.5231  0.1566  1.5960
  184SOL     OW  550   0.827   1.074   1.386  0.4590 -1.6239 -0.0209
  184SOL    HW1  551   0.733   1.068   1.428  1.4911 -0.8138 -0.3070
  184SOL    HW2  552   0.823   1.072   1.283  1.7068 -2.4023 -0.3877
  185SOL     OW  553   2.523   1.140   1.222  0.1523 -1.0992 -0.1515
  185SOL    HW1  554   2.624   1.152   1.225  2.2838  1.4053  1.0362
  185SOL    HW2  555   2.489   1.148   1.126  0.2565 -0.6416  0.3716
  186SOL     OW  556   0.836   1.529   2.538  0.3887  0.7490  0.3271
  186SOL    HW1  557   0.925   1.553   2.497 -0.8757 -1.1168  0.7287
  186SOL    HW2  558   0.761   1.578   2.488  1.5220  1.2067  0.7033
  187SOL     OW  559   2.400   1.429   0.170  0.3602  1.0554 -0.0612
  187SOL    HW1  560   2.340   1.402   0.091  0.2944  0.7927  3.2308
  187SOL    HW2  561   2.494   1.391   0.144 -1.7931  1.9179 -0.0402
  188SOL     OW  562   0.112   1.995   0.583  0.3632  0.4285  0.3560
  188SOL    HW1  563   0.172   2.077   0.592 -0.9131  1.2758 -1.2367
  188SOL    HW2  564   0.141   1.939   0.503  0.8456 -1.6175 -3.3212
  189SOL     OW  565   2.601   0.822   0.253  0.1388  0.3968 -0.2462
  189SOL    HW1  566   2.641   0.732   0.213  0.5555 -0.6089 -0.5358
  189SOL    HW2  567   2.499   0.819   0.240 -0.9389  0.2472  0.5386
  190SOL     OW  568   1.107   1.252   2.410 -0.8900 -0.1348  0.5034
  190SOL    HW1  569   1.171   1.317   2.369 -3.0439  0.3451  2.5706
  190SOL    HW2  570   1.015   1.281   2.403  1.3488 -0.0781 -0.8419
  191SOL     OW  571   2.256   0.150   1.949 -0.2322  0.2240  0.2505
  191SOL    HW1  572   2.308   0.237   1.969 -3.0697 -1.1024 -2.6900
  191SOL    HW2  573   2.194   0.164   1.875  0.9468  0.1394  2.0373
  192SOL     OW  574   1.832   0.702   1.587 -0.0326  0.1215  0.2072
  192SOL    HW1  575   1.869   0.713   1.682 -0.8907  0.1655  0.3194
  192SOL    HW2  576   1.737   0.659   1.588 -0.6828 -2.1110  0.1257
  193SOL     OW  577   0.724   0.839   0.612 -0.1593 -0.2943 -0.0430
  193SOL    HW1  578   0.663   0.882   0.681  0.2841  1.2317 -1.1986
  193SOL    HW2  579   0.755   0.914   0.550 -1.0584 -1.4163 -0.7407
  194SOL     OW  580   1.404   2.926   0.920 -0.0208 -0.2592  0.4008
  194SOL    HW1  581   1.449   2.840   0.891  0.8637 -0.5871 -1.2750
  194SOL    HW2  582   1.401   2.935   1.022 -0.0209  0.3106 -0.5596
  195SOL     OW  583   2.464   0.519   0.472 -0.1274 -0.3459  0.1722
  195SOL    HW1  584   2.402   0.522   0.391  0.7359  1.5546 -0.5815
  195SOL    HW2  585   2.552   0.473   0.447  0.3718  0.8998  0.3344
  196SOL     OW  586   1.068   1.765   1.523 -0.2079  0.0969  0.3104
  196SOL    HW1  587   1.098   1.666   1.503  0.2676  0.3537 -0.1315
  196SOL    HW2  588   1.143   1.835   1.540 -1.0356  1.5469 -1.5787
  197SOL     OW  589   0.288   2.935   0.149 -0.1774  0.2888 -0.0664
  197SOL    HW1  590   0.321   2.896   0.241  1.1600 -2.3087  1.4708
  197SOL    HW2  591   0.295   2.866   0.072  1.4989  0.0855 -1.2773
  198SOL     OW  592   0.814   1.295   0.690  0.3878 -0.2321  0.3980
  198SOL    HW1  593   0.766   1.228   0.632  0.8457 -1.6442  0.9320
  198SOL    HW2  594   0.840   1.377   0.635 -1.8543  2.3767  1.5862
  199SOL     OW  595   0.036   0.321   1.880  0.2146 -1.2466  0.5153
  199SOL    HW1  596   0.011   0.421   1.884  1.3003  1.5574 -2.1812
  199SOL    HW2  597   0.128   0.307   1.845 -4.3378 -1.0091  1.4232
  200SOL     OW  598   2.218   1.981   2.739  0.0575  0.7384  0.2185
  200SOL    HW1  599   2.243   1.955   2.837 -0.4066 -0.4609  0.4799
  200SOL    HW2  600   2.154   2.062   2.741 -1.4536 -1.6867 -0.7312
  201SOL     OW  601   2.676   3.022   0.879 -0.1067 -0.2010  0.5529
  201SOL    HW1  602   2.627   0.002   0.829  0.4333 -0.4895 -0.6621
  201SOL    HW2  603   2.694   2.940   0.822 -0.9301  4.5412  3.1644
  202SOL     OW  604   2.756   0.573   0.196 -0.1765 -0.2231 -0.4634
  202SOL    HW1  605   2.821   0.633   0.139  2.6015  1.4589  0.5876
  202SOL    HW2  606   2.755   0.480   0.149  2.5513  0.4718  0.9275
  203SOL     OW  607   1.273   1.455   2.350  0.0691 -0.0681 -0.1581
  203SOL    HW1  608   1.356   1.453   2.407 -0.8776 -1.4487  0.5456
  203SOL    HW2  609   1.279   1.532   2.283  0.6304 -0.1140  0.2300
  204SOL     OW  610   0.927   1.458   2.102  0.1821  0.0869  0.2061
  204SOL    HW1  611   0.905   1.361   2.137  2.7447 -0.5542 -0.2469
  204SOL    HW2  612   0.853   1.492   2.035 -1.4759  2.6210 -0.2285
  205SOL     OW  613   1.367   2.100   1.508 -0.2634 -0.0012 -0.1859
  205SOL    HW1  614   1.316   2.035   1.569  0.0521  0.1686 -2.3269
  205SOL    HW2  615   1.462   2.066   1.489 -1.1292 -0.7643 -1.4679
  206SOL     OW  616   0.060   0.418   2.754 -0.2587  0.2306 -0.0423
  206SOL    HW1  617   0.139   0.355   2.769  1.6912 -2.3460 -1.4193
  206SOL    HW2  618   3.073   0.366   2.742 -0.4248  0.1136  1.5586
  207SOL     OW  619   1.809   2.991   2.103  0.1233  0.2272 -0.6155
  207SOL    HW1  620   1.726   2.970   2.159  1.7506  1.3223  0.9567
  207SOL    HW2  621   1.857   3.069   2.143 -1.7433 -1.6940  0.1571
  208SOL     OW  622   0.686   2.197   1.923  0.5166 -0.3330 -0.2863
  208SOL    HW1  623   0.622   2.145   1.982  1.9973  1.5114  3.4161
  208SOL    HW2  624   0.640   2.251   1.853  1.8495  1.5777  0.2440
  209SOL     OW  625   1.730   1.150   2.787 -0.1166  1.0121  0.0093
  209SOL    HW1  626   1.671   1.220   2.747 -0.9135  0.2898 -3.2712
  209SOL    HW2  627   1.685   1.057   2.785  0.2379 -0.4463 -1.5504
  210SOL     OW  628   2.758   0.474   0.695  0.5570  0.0362  0.8127
  210SOL    HW1  629   2.817   0.486   0.612  1.1857  0.5649  1.0609
  210SOL    HW2  630   2.667   0.517   0.688  1.4014 -0.6449  0.1697
  211SOL     OW  631   0.845   1.058   1.089  0.0723  0.5738  0.6118
  211SOL    HW1  632   0.885   1.108   1.010  2.5481 -0.5519  0.2400
  211SOL    HW2  633   0.888   0.967   1.104  2.7762 -3.8828 -0.3940
  212SOL     OW  634   1.331   1.612   0.514 -0.0854 -0.2144  0.1007
  212SOL    HW1  635   1.342   1.514   0.521  1.8316  0.5452  1.7974
  212SOL    HW2  636   1.321   1.626   0.415  0.5660  2.1144 -1.2378
  213SOL     OW  637   1.441   3.017   1.773 -0.2482 -0.4230  0.1793
  213SOL    HW1  638   1.517   3.076   1.733  1.7050  0.5959  1.2853
  213SOL    HW2  639   1.353   3.052   1.740  3.7705 -0.2539 -0.8678
  214SOL     OW  640   1.533   1.619   2.471 -0.0232 -0.3530 -0.0737
  214SOL    HW1  641   1.495   1.626   2.565 -0.4731  3.0867  2.1596
  214SOL    HW2  642   1.567   1.708   2.439 -1.7271 -1.9868  3.1768
  215SOL     OW  643   0.337   1.806   1.080 -0.0853  0.1136  0.4441
  215SOL    HW1  644   0.327   1.706   1.054  0.0514 -0.9620  1.4953
  215SOL    HW2  645   0.324   1.864   0.992  0.6271  1.4026 -4.0261
  216SOL     OW  646   0.556   2.894   2.465  0.5833  0.7217 -0.4177
  216SOL    HW1  647   0.562   2.944   2.374  0.1218 -0.3260 -1.1535
  216SOL    HW2  648   0.627   2.925   2.529 -0.5834 -1.5068  0.3465
  217SOL     OW  649   2.344   0.674   3.094 -0.3328  0.2939  0.7309
  217SOL    HW1  650   2.364   0.587   3.044 -0.4813  0.7596  1.7415
  217SOL    HW2  651   2.425   0.739   3.080  3.3087 -1.5171 -1.6023
  218SOL     OW  652   2.156   1.636   2.153 -0.1637  0.2328  0.2387
  218SOL    HW1  653   2.060   1.647   2.185  0.4286  0.5813 -1.0889
  218SOL    HW2  654   2.178   1.720   2.096 -0.5457  0.4233 -2.1205
  219SOL     OW  655   1.642   0.920   0.244  0.5445 -0.5078  0.0088
  219SOL    HW1  656   1.650   0.876   0.152  0.3569  2.3274 -1.0307
  219SOL    HW2  657   1.689   1.011   0.236 -2.6651 -0.2629  1.4400
  220SOL     OW  658   1.526   1.794   1.008  0.1691  0.5819  0.4109
  220SOL    HW1  659   1.483   1.867   0.951  3.1713 -0.0388  0.6867
  220SOL    HW2  660   1.450   1.727   1.018 -1.7026  0.7625  0.8724
  221SOL     OW  661   0.034   0.557   3.021  0.3846  0.1966 -0.2634
  221SOL    HW1  662   0.121   0.569   3.070 -2.6637 -0.7657 -0.0704
  221SOL    HW2  663   0.047   0.514   2.928 -0.5405  1.1204  0.2240
  222SOL     OW  664   1.189   2.385   1.566 -0.1043  0.5190 -0.3281
  222SOL    HW1  665   1.170   2.411   1.469 -2.1230 -0.8754 -2.3278
  222SOL    HW2  666   1.285   2.344   1.581  3.6995  0.5188  1.0220
  223SOL     OW  667   1.570   2.849   2.732 -0.2829  0.5016  0.2255
  223SOL    HW1  668   1.668   2.855   2.712 -2.5733  2.1404 -0.0786
  223SOL    HW2  669   1.558   2.818   2.830 -0.0689 -2.3103 -1.8932
  224SOL     OW  670   2.518   1.415   1.015  0.9821 -0.2574  0.1805
  224SOL    HW1  671   2.605   1.394   1.060  2.0186 -1.2291 -1.5082
  224SOL    HW2  672   2.484   1.346   0.952  0.9926  3.3363 -0.5439
  225SOL     OW  673   1.032   1.236   1.431 -1.1200 -0.4172  0.2987
  225SOL    HW1  674   0.957   1.178   1.388  2.1101 -0.9353  0.2089
  225SOL    HW2  675   1.124   1.188   1.432  1.0292  0.9172  2.2834
  226SOL     OW  676   1.798   2.498   2.791 -0.4701 -0.4708  0.3234
  226SOL    HW1  677   1.827   2.534   2.882  0.6843  0.7388  2.3365
  226SOL    HW2  678   1.734   2.418   2.797 -0.3219  0.6408  0.8706
  227SOL     OW  679   0.771   2.144   0.975 -0.4087 -0.5606 -0.7287
  227SOL    HW1  680   0.684   2.195   0.947 -0.6901  0.1533 -1.6688
  227SOL    HW2  681   0.798   2.176   1.068  1.6768 -0.5924 -1.2752
  228SOL     OW  682   0.242   2.184   1.260 -0.2813 -0.1246 -0.3140
  228SOL    HW1  683   0.179   2.182   1.340 -0.5666  1.8965 -1.4829
  228SOL    HW2  684   0.192   2.175   1.173 -0.1919 -0.5969  0.3130
  229SOL     OW  685   2.251   1.069   0.161 -0.2707  0.0302 -0.0101
  229SOL    HW1  686   2.317   1.103   0.089  0.6693 -1.6587  1.7811
  229SOL    HW2  687   2.285   0.986   0.210 -3.3722 -2.1846 -0.1978
  230SOL     OW  688   0.985   0.970   2.056 -0.2467 -0.2746 -0.0086
  230SOL    HW1  689   0.956   1.059   2.097 -0.9873  0.4256  0.8339
  230SOL    HW2  690   1.088   0.965   2.045 -1.0995  0.8072  3.2276
  231SOL     OW  691   1.515   1.852   1.880 -0.2966 -0.1934 -0.0329
  231SOL    HW1  692   1.549   1.785   1.950  1.8518  0.4445 -0.4022
  231SOL    HW2  693   1.447   1.806   1.822 -1.4853 -1.9789  0.4462
  232SOL     OW  694   2.053   2.279   1.361  0.2942 -0.1858  0.0025
  232SOL    HW1  695   2.020   2.244   1.453 -1.8914  1.5422  1.0039
  232SOL    HW2  696   2.023   2.377   1.342 -1.1357 -0.1953 -1.3204
  233SOL     OW  697   1.755   2.603   2.353 -0.0704 -0.2452 -0.0638
  233SOL    HW1  698   1.813   2.523   2.390 -0.9226  0.7967 -0.1286
  233SOL    HW2  699   1.785   2.684   2.406 -0.0766 -0.8664  2.8566
  234SOL     OW  700   1.092   3.024   2.767  0.1614 -0.4624  0.1219
  234SOL    HW1  701   1.146   3.025   2.680 -1.5387 -0.5918 -1.1355
  234SOL    HW2  702   1.005   2.971   2.747  1.2035 -2.1106 -3.0657
  235SOL     OW  703   2.639   2.847   2.964  0.1581  0.1229 -0.3679
  235SOL    HW1  704   2.640   2.750   3.005 -0.6591 -1.1984  0.1884
  235SOL    HW2  705   2.630   2.911   3.044 -2.8761 -4.1098  0.6708
  236SOL     OW  706   2.129   2.708   2.310 -0.0418  0.0113  0.0967
  236SOL    HW1  707   2.168   2.612   2.300  0.7204 -2.5197 -4.3686
  236SOL    HW2  708   2.185   2.755   2.384  0.7081 -2.8853 -0.3057
  237SOL     OW  709   1.597   1.084   1.652  0.0696 -0.4782 -0.0884
  237SOL    HW1  710   1.605   1.006   1.596  1.1169 -2.0287  2.4092
  237SOL    HW2  711   1.512   1.135   1.624 -1.3857 -0.7749  1.2452
  238SOL     OW  712   2.200   0.023   2.179 -0.0257  0.1665 -0.0452
  238SOL    HW1  713   2.228   0.074   2.096  2.4642  1.8208 -0.3489
  238SOL    HW2  714   2.176   3.027   2.152  0.4703  2.5091  1.0143
  239SOL     OW  715   0.703   1.591   1.953 -0.3431  0.0352 -0.1816
  239SOL    HW1  716   0.716   1.516   1.889 -0.8703 -0.3561 -0.6416
  239SOL    HW2  717   0.632   1.566   2.021  1.9547  0.0584 -0.3160
  240SOL     OW  718   3.065   2.466   0.510  0.0493 -0.6463 -0.1118
  240SOL    HW1  719   2.964   2.472   0.518  0.3927  1.9430 -0.5611
  240SOL    HW2  720   3.097   2.549   0.460  0.1212  1.6802 -0.8462
  241SOL     OW  721   1.729   2.049   0.740  0.4356 -0.2911  0.0848
  241SOL    HW1  722   1.795   1.998   0.797 -1.0061 -1.6305 -0.6195
  241SOL    HW2  723   1.772   2.070   0.648  1.9777 -1.0161 -2.0347
  242SOL     OW  724   1.253   1.691   2.958 -0.0263  0.2520 -0.4391
  242SOL    HW1  725   1.328   1.640   3.005 -0.8932  1.9530 -0.3150
  242SOL    HW2  726   1.271   1.790   2.967  0.1129  2.0636  0.6053
  243SOL     OW  727   1.022   2.891   2.065  0.0932 -0.3616 -0.6142
  243SOL    HW1  728   0.919   2.914   2.074  0.0210  0.4072 -1.5185
  243SOL    HW2  729   1.046   2.822   2.138  1.0566  1.1892 -1.6127
  244SOL     OW  730   2.000   2.964   2.839 -0.3218 -0.5476 -0.1864
  244SOL    HW1  731   1.942   2.915   2.772  0.0515  0.4515  1.6547
  244SOL    HW2  732   2.071   3.030   2.804  0.5695  1.8290  1.4929
  245SOL     OW  733   1.323   2.765   0.649  0.1721 -0.0223  0.0516
  245SOL    HW1  734   1.378   2.774   0.565 -0.0390 -0.5230  3.6769
  245SOL    HW2  735   1.239   2.829   0.641  1.4799 -0.6446 -1.4202
  246SOL     OW  736   1.058   0.024   3.075 -0.1162 -0.2746  0.5650
  246SOL    HW1  737   1.119   3.053   3.032  0.8153  0.3683  1.0565
  246SOL    HW2  738   1.054   0.009   0.080  1.3069 -0.4240  0.0645
  247SOL     OW  739   0.066   0.534   2.159 -0.1335 -0.4446 -0.2779
  247SOL    HW1  740   3.084   0.516   2.095 -4.1838 -1.9104 -0.2363
  247SOL    HW2  741   0.146   0.577   2.113 -0.3813  1.0288 -2.2684
  248SOL     OW  742   0.723   0.951   1.976 -0.2449  0.0802  0.2157
  248SOL    HW1  743   0.674   0.906   2.059  0.2693 -0.6342  0.5701
  248SOL    HW2  744   0.826   0.967   1.995  1.9377  0.3762  1.4641
  249SOL     OW  745   2.300   0.578   0.264  0.6313 -0.4160 -0.2336
  249SOL    HW1  746   2.210   0.535   0.295 -0.5872 -2.5036 -0.7073
  249SOL    HW2  747   2.302   0.602   0.164 -0.0780 -0.9197 -1.9698
  250SOL     OW  748   0.554   0.166   0.468  0.3405  0.0337  0.3947
  250SOL    HW1  749   0.606   0.077   0.469 -1.1715 -0.3934 -1.6920
  250SOL    HW2  750   0.587   0.212   0.383  1.2456 -0.1487  2.1073
  251SOL     OW  751   1.260   0.127   2.863 -0.3889 -0.1291  0.0949
  251SOL    HW1  752   1.190   0.062   2.832 -1.0595  1.7404 -0.6071
  251SOL    HW2  753   1.330   0.158   2.791  0.8630 -0.5405 -3.2405
  252SOL     OW  754   1.905   1.642   2.287  0.1519  0.1659  0.4001
  252SOL    HW1  755   1.902   1.738   2.260 -1.5941 -2.0105 -0.2239
  252SOL    HW2  756   1.885   1.641   2.387 -1.8151 -1.3656  2.0459
  253SOL     OW  757   2.156   2.411   1.962 -0.3990  0.2105 -0.3741
  253SOL    HW1  758   2.253   2.417   1.996 -3.6519 -0.0408 -0.4167
  253SOL    HW2  759   2.151   2.368   1.873  1.2456  0.5625  0.8524
  254SOL     OW  760   0.984   2.209   1.556  0.3414 -0.2103 -0.3363
  254SOL    HW1  761   0.997   2.158   1.471  2.6802  1.6769 -0.0860
  254SOL    HW2  762   1.064   2.271   1.568  1.0355 -1.2319 -1.5019
  255SOL     OW  763   1.012   1.154   0.847 -0.1354 -0.4499 -0.3968
  255SOL    HW1  764   1.046   1.223   0.914 -0.3299  0.7765 -2.8723
  255SOL    HW2  765   0.962   1.211   0.777 -0.9762 -0.2626  1.5028
  256SOL     OW  766   1.948   1.885   2.156  0.0351 -0.0067  0.2299
  256SOL    HW1  767   1.920   1.967   2.104 -0.1163  0.0486  3.0936
  256SOL    HW2  768   2.018   1.917   2.222 -2.8975 -2.1668 -0.4424
  257SOL     OW  769   0.636   2.339   2.904 -0.0106  0.1623 -0.0857
  257SOL    HW1  770   0.644   2.424   2.845 -1.4136 -3.3591  0.5508
  257SOL    HW2  771   0.536   2.326   2.922  0.2003 -1.3502 -1.1088
  258SOL     OW  772   0.706   0.206   2.185 -0.0969  0.2118 -0.0960
  258SOL    HW1  773   0.808   0.204   2.179  1.7059  1.2041  1.7488
  258SOL    HW2  774   0.679   0.234   2.088  0.3441  2.0564  1.3164
  259SOL     OW  775   0.955   0.169   2.141 -0.0421  0.2430  0.0997
  259SOL    HW1  776   1.011   0.130   2.064  1.8376 -1.5912 -2.0255
  259SOL    HW2  777   0.984   0.259   2.173  1.2714 -0.3678 -3.4104
  260SOL     OW  778   1.361   0.818   0.888  0.2166  0.2006  0.0098
  260SOL    HW1  779   1.406   0.872   0.813  0.8824 -2.1601 -1.1348
  260SOL    HW2  780   1.281   0.864   0.929  1.6196 -0.6979 -2.0550
  261SOL     OW  781   0.591   3.067   2.796  0.3133 -0.1432  0.5725
  261SOL    HW1  782   0.666   3.080   2.864  1.1525  1.1688 -0.7053
  261SOL    HW2  783   0.595   0.046   2.731  1.5951 -0.6320  1.7763
  262SOL     OW  784   2.409   2.858   2.240 -0.9063 -0.3650 -0.0461
  262SOL    HW1  785   2.451   2.951   2.221  0.7343  2.1825 -0.9332
  262SOL    HW2  786   2.327   2.848   2.178 -0.4509 -2.1072 -0.5225
  263SOL     OW  787   0.301   1.972   2.429  0.6434  0.6366  0.6004
  263SOL    HW1  788   0.207   2.005   2.460 -0.7403 -0.3081 -0.0605
  263SOL    HW2  789   0.318   1.872   2.431 -0.1450 -0.7272  1.0924
  264SOL     OW  790   0.766   1.382   1.218  0.2104  0.0291 -0.1342
  264SOL    HW1  791   0.824   1.465   1.202 -0.6114  1.5383 -1.1080
  264SOL    HW2  792   0.759   1.339   1.128  3.3069 -2.4745  0.3742
  265SOL     OW  793   0.532   1.902   2.968  0.0310 -0.0788  0.1705
  265SOL    HW1  794   0.522   1.810   2.926 -1.1989  1.5688 -0.5657
  265SOL    HW2  795   0.611   1.912   3.035 -2.3079 -1.8338 -0.9132
  266SOL     OW  796   1.115   1.192   0.484  0.1735 -0.2613  0.1167
  266SOL    HW1  797   1.190   1.254   0.521 -0.7061  1.3590  0.4903
  266SOL    HW2  798   1.094   1.104   0.537  0.9854  1.3182 -0.8724
  267SOL     OW  799   2.617   0.997   0.031  0.0296  0.4039 -0.1162
  267SOL    HW1  800   2.671   0.976   3.045 -0.2264  1.8573  1.6772
  267SOL    HW2  801   2.648   0.929   0.096 -1.5179  0.0902 -1.1268
  268SOL     OW  802   2.560   0.039   2.735 -0.1413 -0.2665  0.6063
  268SOL    HW1  803   2.538   0.064   2.638  0.1185  0.5512  0.0049
  268SOL    HW2  804   2.500   3.055   2.765 -0.8592  0.4893  0.3799
  269SOL     OW  805   1.612   0.627   2.598  0.0778  0.0107  0.4643
  269SOL    HW1  806   1.581   0.697   2.524  1.4370 -1.5885 -2.4360
  269SOL    HW2  807   1.707   0.596   2.584  1.5911 -1.1094  4.1609
  270SOL     OW  808   0.907   1.140   2.660  0.0632  0.1776 -0.2403
  270SOL    HW1  809   0.868   1.176   2.576  0.1136 -2.9457  1.0997
  270SOL    HW2  810   0.980   1.203   2.699  2.1928  0.7803  1.4990
  271SOL     OW  811   2.614   1.251   0.136  0.0576  0.0559 -0.7078
  271SOL    HW1  812   2.595   1.152   0.124  2.6432 -0.1454  0.6560
  271SOL    HW2  813   2.687   1.264   0.205 -2.0801  1.9259  0.1051
  272SOL     OW  814   2.639   1.589   2.706  0.9019 -0.0468 -0.0194
  272SOL    HW1  815   2.606   1.572   2.803  1.4200  1.4545  3.2050
  272SOL    HW2  816   2.698   1.670   2.704  0.6954 -1.6250  1.2494
  273SOL     OW  817   2.094   0.442   0.345 -0.1639  0.1582 -0.5022
  273SOL    HW1  818   1.998   0.474   0.361  2.4114  1.7191 -0.3750
  273SOL    HW2  819   2.094   0.355   0.295  0.8175 -0.8714  1.8337
  274SOL     OW  820   0.198   2.590   1.129  0.4030 -0.0937  0.1670
  274SOL    HW1  821   0.270   2.527   1.096  0.4664  2.1218  2.3313
  274SOL    HW2  822   0.154   2.557   1.220  1.2577 -0.0622  1.0062
  275SOL     OW  823   2.488   1.569   0.493 -0.2843  0.2488 -0.3328
  275SOL    HW1  824   2.439   1.476   0.477 -2.6813 -0.1192 -0.4660
  275SOL    HW2  825   2.465   1.611   0.582 -0.9962  0.2803 -2.0676
  276SOL     OW  826   0.094   1.101   2.500 -0.5156  0.0805 -0.3243
  276SOL    HW1  827   0.005   1.152   2.511 -0.7580 -2.2535  0.1543
  276SOL    HW2  828   0.171   1.162   2.484 -0.2663  1.1296 -0.8547
  277SOL     OW  829   1.695   2.575   1.375 -0.0853 -1.0262  0.4683
  277SOL    HW1  830   1.792   2.609   1.374 -0.0989 -0.9982 -2.1079
  277SOL    HW2  831   1.698   2.475   1.352 -0.9435 -1.1160  0.5576
  278SOL     OW  832   1.092   0.039   1.894  0.0552 -0.2990  0.0553
  278SOL    HW1  833   1.079   3.047   1.941 -2.5928  0.5135 -2.7067
  278SOL    HW2  834   1.157   0.046   1.820  0.9252 -1.8884  1.5520
  279SOL     OW  835   1.685   1.648   0.375 -0.0365  0.3047 -0.1796
  279SOL    HW1  836   1.612   1.682   0.442 -0.8768  1.3077  0.9337
  279SOL    HW2  837   1.768   1.710   0.390  0.8513  0.4964 -0.5028
  280SOL     OW  838   0.528   1.773   0.780  0.2734 -0.2793  0.5515
  280SOL    HW1  839   0.490   1.724   0.700 -1.0800 -0.7478  3.8778
  280SOL    HW2  840   0.464   1.845   0.816 -2.6200 -1.5418  0.1456
  281SOL     OW  841   2.895   0.315   2.725 -0.4051  0.2647  0.5102
  281SOL    HW1  842   2.836   0.377   2.665  1.4333  1.2166 -0.5004
  281SOL    HW2  843   2.894   0.219   2.690  0.0275 -0.9470 -2.6623
  282SOL     OW  844   0.517   1.036   0.673 -0.3464 -0.5349 -0.1284
  282SOL    HW1  845   0.447   0.961   0.683  0.6941  2.1763 -0.1023
  282SOL    HW2  846   0.461   1.123   0.681 -0.3664  0.6635  0.0255
  283SOL     OW  847   2.033   1.995   0.197 -0.4479 -0.3527  0.1862
  283SOL    HW1  848   2.086   2.082   0.230  1.0353  1.2035  0.0663
  283SOL    HW2  849   1.936   1.995   0.219  1.6194  0.1652  1.2847
  284SOL     OW  850   1.157   1.091   0.243  0.0270  0.1234 -0.2154
  284SOL    HW1  851   1.127   1.122   0.338 -0.9112  0.2032 -0.8907
  284SOL    HW2  852   1.184   1.179   0.194  0.9669 -0.1073  1.3270
  285SOL     OW  853   2.268   0.632   2.794 -0.7025 -0.4483  0.1786
  285SOL    HW1  854   2.292   0.715   2.844 -2.1162  1.5577 -1.0505
  285SOL    HW2  855   2.168   0.613   2.804 -2.3007 -0.7346  0.2750
  286SOL     OW  856   1.462   2.721   1.377 -0.0844 -0.3600 -0.0260
  286SOL    HW1  857   1.425   2.698   1.469 -1.5472 -0.2831  1.3096
  286SOL    HW2  858   1.553   2.676   1.369 -1.7533  0.4789 -2.6495
  287SOL     OW  859   1.103   1.295   1.102  0.1952 -0.1800 -0.3002
  287SOL    HW1  860   1.188   1.237   1.128  0.8916  0.4849  0.2653
  287SOL    HW2  861   1.054   1.321   1.191  4.5303  1.3930  2.2506
  288SOL     OW  862   1.207   2.891   2.986  0.1082  0.2320 -0.3321
  288SOL    HW1  863   1.310   2.902   3.003 -2.1178 -1.1539  1.6418
  288SOL    HW2  864   1.178   2.918   2.892 -0.1552 -2.8700 -0.1789
  289SOL     OW  865   0.268   1.383   1.892  0.0064  0.1916  0.2705
  289SOL    HW1  866   0.347   1.449   1.879  0.6842 -0.1213 -1.0868
  289SOL    HW2  867   0.180   1.432   1.919  0.2331 -0.5865  0.1435
  290SOL     OW  868   1.713   2.233   0.971  0.5983  0.6213  0.0515
  290SOL    HW1  869   1.703   2.187   0.882 -1.3459  0.6965 -0.1080
  290SOL    HW2  870   1.810   2.267   0.989 -1.0127 -0.7803  2.1288
  291SOL     OW  871   2.182   2.376   2.923  0.2245 -0.5781 -0.1227
  291SOL    HW1  872   2.117   2.424   2.987  0.2633 -1.4025 -2.2011
  291SOL    HW2  873   2.221   2.439   2.851 -0.6150  2.0907  3.3562
  292SOL     OW  874   0.938   0.711   1.892 -0.1522 -0.1924  0.0933
  292SOL    HW1  875   0.917   0.807   1.931  2.9224  2.2471  0.5729
  292SOL    HW2  876   1.040   0.705   1.878 -2.2376 -1.0333  0.9480
  293SOL     OW  877   1.970   2.585   0.878 -0.0911 -0.1218  0.0677
  293SOL    HW1  878   1.901   2.660   0.877  1.8640 -2.3851 -2.7327
  293SOL    HW2  879   2.068   2.613   0.867  0.0441  0.7893  0.2787
  294SOL     OW  880   0.583   0.474   2.471 -0.1478 -0.3457 -0.1221
  294SOL    HW1  881   0.505   0.484   2.538  1.0861 -0.9453  0.9659
  294SOL    HW2  882   0.676   0.480   2.515  2.6714  0.0606 -0.7417
  295SOL     OW  883   1.531   1.758   0.585 -0.0634 -0.6325 -0.2536
  295SOL    HW1  884   1.589   1.714   0.659 -0.9856  0.0153  1.3485
  295SOL    HW2  885   1.452   1.701   0.553  0.3736  0.6231  0.5659
  296SOL     OW  886   2.543   1.952   0.339 -0.3943 -0.0971 -0.6398
  296SOL    HW1  887   2.640   1.967   0.321  4.7281 -0.0873  0.8382
  296SOL    HW2  888   2.525   1.851   0.365  0.0633 -1.6668 -0.3084
  297SOL     OW  889   2.082   0.200   0.224  0.3423  0.1009 -0.2805
  297SOL    HW1  890   2.040   0.211   0.134 -1.1482 -1.1572  3.7733
  297SOL    HW2  891   2.093   0.098   0.238  0.1393 -2.4038  3.4969
  298SOL     OW  892   1.351   2.327   2.341  0.2736  0.4279  0.1521
  298SOL    HW1  893   1.306   2.287   2.261 -0.5030 -1.2414  2.6733
  298SOL    HW2  894   1.414   2.403   2.315  2.4399 -0.7037 -0.7566
  299SOL     OW  895   1.314   2.735   2.593 -0.3279 -0.3561  0.0943
  299SOL    HW1  896   1.372   2.772   2.670 -1.2099 -0.2091  0.1048
  299SOL    HW2  897   1.366   2.690   2.518 -0.2895  1.9608  2.8561
  300SOL     OW  898   2.149   0.090   2.728 -0.0419  0.1168 -0.1527
  300SOL    HW1  899   2.088   0.174   2.736 -0.5271  3.1812  1.2766
  300SOL    HW2  900   2.195   0.095   2.638 -0.6021 -1.3415  0.9094
  301SOL     OW  901   1.476   1.079   1.958 -0.0423  0.6104  0.3316
  301SOL    HW1  902   1.561   1.050   2.007  0.9116  1.2424  1.3754
  301SOL    HW2  903   1.503   1.141   1.881  1.0250 -0.7838  0.1386
  302SOL     OW  904   2.719   2.254   0.172  0.5955  0.1436  0.3105
  302SOL    HW1  905   2.743   2.340   0.122  1.4407 -0.7653 -0.9097
  302SOL    HW2  906   2.620   2.258   0.183  3.4352  1.3473 -2.5797
  303SOL     OW  907   2.745   2.280   2.492  0.1540  1.0717 -0.0660
  303SOL    HW1  908   2.790   2.362   2.448  0.8689  2.5753  0.6127
  303SOL    HW2  909   2.782   2.194   2.450 -2.1315  0.4157  0.7745
  304SOL     OW  910   2.799   0.476   1.794  0.5006  0.4051 -0.6221
  304SOL    HW1  911   2.867   0.487   1.718  0.8234 -0.2908 -2.0832
  304SOL    HW2  912   2.843   0.459   1.883 -0.0304 -0.7145  1.1922
  305SOL     OW  913   0.761   2.071   1.694  0.2245 -0.4154  0.3263
  305SOL    HW1  914   0.835   2.122   1.645  2.1013  2.7577 -0.4001
  305SOL    HW2  915   0.728   2.122   1.771  2.1970 -1.6570 -0.3115
  306SOL     OW  916   2.728   0.807   1.649  0.5235 -0.2294  0.5958
  306SOL    HW1  917   2.685   0.764   1.568  2.0837 -0.7423 -1.5240
  306SOL    HW2  918   2.697   0.764   1.735  2.3972 -4.3638  0.5588
  307SOL     OW  919   1.718   1.007   2.076 -0.1254  0.2251  0.3980
  307SOL    HW1  920   1.735   0.908   2.096  0.2065 -1.1016 -1.1122
  307SOL    HW2  921   1.800   1.042   2.029 -3.0609  1.1442  1.3630
  308SOL     OW  922   2.779   1.603   0.849 -0.2597 -0.3304 -0.1372
  308SOL    HW1  923   2.806   1.509   0.858 -3.0262  3.0329  1.0391
  308SOL    HW2  924   2.691   1.629   0.890  2.0729 -0.7027 -0.0393
  309SOL     OW  925   2.359   1.549   1.236 -0.2326 -0.5505 -0.3145
  309SOL    HW1  926   2.416   1.471   1.221  1.4986 -1.2804  1.0656
  309SOL    HW2  927   2.280   1.521   1.299 -1.6303  2.3428 -0.2100
  310SOL     OW  928   2.759   1.844   2.428 -0.4609  0.1376  0.4575
  310SOL    HW1  929   2.794   1.756   2.396 -0.4351  1.9535  1.0377
  310SOL    HW2  930   2.769   1.855   2.528 -0.1368 -3.9940 -0.1931
  311SOL     OW  931   0.172   2.490   3.092  0.5907 -0.2944  0.0394
  311SOL    HW1  932   0.130   2.579   0.025 -1.3053 -0.6042  0.3463
  311SOL    HW2  933   0.180   2.424   0.075 -1.9436  0.0411  1.2643
  312SOL     OW  934   2.273   1.343   0.908  0.2289 -0.0157 -0.5998
  312SOL    HW1  935   2.309   1.428   0.952 -0.4686  1.0401 -1.1278
  312SOL    HW2  936   2.316   1.319   0.816 -0.9545  0.2929 -0.7518
  313SOL     OW  937   2.726   0.150   0.997  0.3964  0.1058  0.6434
  313SOL    HW1  938   2.686   0.237   0.955 -4.3201  0.9952 -0.9234
  313SOL    HW2  939   2.708   0.068   0.935  0.5745 -0.3772 -0.9926
  314SOL     OW  940   1.305   1.655   0.251 -0.1803 -0.3506  0.5559
  314SOL    HW1  941   1.356   1.603   0.181  2.1773  2.3779 -0.7223
  314SOL    HW2  942   1.259   1.740   0.210  1.3618  1.2191  0.0520
  315SOL     OW  943   1.248   2.305   2.075 -0.1783  0.3555 -0.3380
  315SOL    HW1  944   1.330   2.284   2.015 -1.3869 -1.4721  0.7165
  315SOL    HW2  945   1.177   2.232   2.063  0.7180 -0.9010 -0.5670
  316SOL     OW  946   3.016   1.084   0.391  0.2835  0.1986  0.0335
  316SOL    HW1  947   3.043   1.146   0.312  2.5781 -0.2051 -2.1426
  316SOL    HW2  948   3.094   1.043   0.436 -0.6827  2.5469  2.2638
  317SOL     OW  949   0.806   3.071   0.403  0.2056  0.4535  0.1965
  317SOL    HW1  950   0.890   0.020   0.364  2.3696  3.4800 -0.7807
  317SOL    HW2  951   0.806   3.075   0.504  0.4658 -0.7251 -1.4386
  318SOL     OW  952   2.785   2.461   0.548  0.2117  0.0314 -0.0402
  318SOL    HW1  953   2.766   2.360   0.546 -3.9089 -4.4156  2.1803
  318SOL    HW2  954   2.770   2.509   0.457  2.0563  2.6615 -0.1393
  319SOL     OW  955   0.831   1.264   2.436  0.0800 -0.3044  0.3861
  319SOL    HW1  956   0.740   1.216   2.448 -0.4541 -0.6092  1.6455
  319SOL    HW2  957   0.818   1.356   2.486 -2.1940  1.1668  2.4427
  320SOL     OW  958   0.570   2.360   1.750 -0.2610 -0.8438 -0.0041
  320SOL    HW1  959   0.653   2.410   1.713  0.2256 -0.5210  0.8110
  320SOL    HW2  960   0.501   2.424   1.788 -1.6598  2.9797  1.2599
  321SOL     OW  961   1.484   2.203   3.033  0.3371 -0.2746 -0.4224
  321SOL    HW1  962   1.555   2.230   0.009 -3.0364  2.3690 -2.2595
  321SOL    HW2  963   1.509   2.243   2.944  1.1084  0.4039  0.9372
  322SOL     OW  964   2.952   1.236   2.148 -0.4706 -0.0153 -0.7538
  322SOL    HW1  965   2.917   1.175   2.221 -0.8998 -0.4013 -1.2227
  322SOL    HW2  966   2.939   1.189   2.053  0.2683 -0.1251 -0.3022
  323SOL     OW  967   2.372   0.950   0.567 -0.3879 -0.8688  0.1887
  323SOL    HW1  968   2.474   0.965   0.546  3.0021 -0.8416  2.3409
  323SOL    HW2  969   2.322   0.934   0.477 -1.8820  1.3360 -2.1685
  324SOL     OW  970   0.346   2.778   3.037 -0.1983 -0.0811 -0.2158
  324SOL    HW1  971   0.389   2.704   3.091  1.7378  0.4733 -2.8789
  324SOL    HW2  972   0.259   2.755   2.997  0.9749  0.5244  1.5676
  325SOL     OW  973   1.447   0.269   2.351  0.1595  0.0106 -0.1287
  325SOL    HW1  974   1.540   0.301   2.331  0.2143 -1.9707  1.5381
  325SOL    HW2  975   1.406   0.217   2.275  0.0274 -0.9700 -3.8249
  326SOL     OW  976   2.282   2.554   1.485  0.0345  0.7812 -0.0523
  326SOL    HW1  977   2.359   2.540   1.554  3.3411 -3.2178 -2.3352
  326SOL    HW2  978   2.315   2.542   1.388  1.7462  0.4835 -0.1369
  327SOL     OW  979   1.888   0.510   0.076 -0.1600 -0.8306  0.1474
  327SOL    HW1  980   1.877   0.601   0.122  0.7329  1.3052 -0.4621
  327SOL    HW2  981   1.991   0.486   0.061  4.3491  0.4482 -3.1199
  328SOL     OW  982   2.799   0.716   2.118 -0.3741  0.3269  0.2948
  328SOL    HW1  983   2.875   0.782   2.112  0.3310 -0.3731  1.5642
  328SOL    HW2  984   2.769   0.714   2.219  0.2759  1.3339 -1.6378
  329SOL     OW  985   1.525   0.006   2.011  0.6397  0.3990 -0.2960
  329SOL    HW1  986   1.530   3.027   2.082  0.9144 -1.4797  0.7437
  329SOL    HW2  987   1.509   3.071   1.915  0.7499 -2.4664  1.5280
  330SOL     OW  988   2.851   1.785   1.364  0.0882  0.1461 -0.2578
  330SOL    HW1  989   2.921   1.744   1.305  0.4715  0.0188  2.5198
  330SOL    HW2  990   2.817   1.714   1.429  1.0377  2.3937  1.3524
  331SOL     OW  991   0.603   1.300   2.088 -0.2155 -0.0340 -0.3495
  331SOL    HW1  992   0.567   1.211   2.133 -0.5974 -0.6987  1.8400
  331SOL    HW2  993   0.543   1.377   2.117  0.8849 -0.2027  0.3792
  332SOL     OW  994   0.297   3.030   1.704 -0.0269 -0.3775 -0.0334
  332SOL    HW1  995   0.355   3.066   1.624  0.0227 -0.1644 -3.2542
  332SOL    HW2  996   0.211   3.085   1.717  0.4105  1.5356 -1.5152
  333SOL     OW  997   2.407   2.785   1.728 -0.3238 -0.5902  0.4617
  333SOL    HW1  998   2.477   2.731   1.778  1.6834  2.4361 -0.1184
  333SOL    HW2  999   2.450   2.812   1.645 -1.7552 -0.0490 -0.5318
  334SOL     OW 1000   0.983   2.139   0.805  0.2583  0.7498 -0.0336
  334SOL    HW1 1001   0.896   2.148   0.856 -0.5343 -2.2071 -1.4681
  334SOL    HW2 1002   1.052   2.206   0.841 -0.9132 -1.6587  1.0655
  335SOL     OW 1003   0.870   2.243   2.988  0.1559  0.0207  0.0568
  335SOL    HW1 1004   0.780   2.287   2.964  1.0237  0.1298  0.0821
  335SOL    HW2 1005   0.926   2.301   3.053  0.0547  0.4871  0.4245
  336SOL     OW 1006   0.300   0.214   2.072 -0.0895 -0.5876 -0.2657
  336SOL    HW1 1007   0.200   0.215   2.092  0.2486  0.7873  0.5027
  336SOL    HW2 1008   0.342   0.146   2.138 -0.4067 -2.1167 -0.4032
  337SOL     OW 1009   2.790   2.049   2.983  0.2689 -0.2047  0.2528
  337SOL    HW1 1010   2.826   2.039   3.079  1.3108  2.7485 -1.3703
  337SOL    HW2 1011   2.861   2.089   2.919  0.5337 -1.5139  2.0538
  338SOL     OW 1012   1.102   1.837   1.084  0.1701 -0.6471 -0.1595
  338SOL    HW1 1013   1.147   1.871   1.173  0.5172  3.3825  1.7332
  338SOL    HW2 1014   1.001   1.864   1.076  0.5769  0.4444 -2.3260
  339SOL     OW 1015   0.053   0.191   2.133 -0.5059 -0.7040  0.0845
  339SOL    HW1 1016   0.006   0.237   2.052  0.0190 -0.3525  0.4450
  339SOL    HW2 1017   0.014   0.224   2.224  0.0525  0.6601  1.6346
  340SOL     OW 1018   1.612   2.629   0.434 -0.1356  0.4502  0.1470
  340SOL    HW1 1019   1.614   2.578   0.342 -1.0275 -0.8963 -1.9985
  340SOL    HW2 1020   1.619   2.558   0.507 -0.2471 -1.8116  0.8735
  341SOL     OW 1021   1.917   1.527   1.054 -0.4412  0.2177  1.0067
  341SOL    HW1 1022   1.847   1.478   1.109  2.1490 -0.7773  0.7198
  341SOL    HW2 1023   1.927   1.490   0.958  1.6544  0.6934 -1.1206
  342SOL     OW 1024   0.264   1.694   0.474 -0.4912 -0.4088  0.1158
  342SOL    HW1 1025   0.231   1.747   0.399  2.8896 -0.2066 -0.4398
  342SOL    HW2 1026   0.359   1.655   0.463  2.8528  0.4399  0.3598
  343SOL     OW 1027   1.377   2.290   1.243 -0.3290  0.5119 -0.4687
  343SOL    HW1 1028   1.433   2.251   1.324  2.9174 -5.1052  1.2568
  343SOL    HW2 1029   1.348   2.213   1.182  0.7827 -0.9961 -2.0519
  344SOL     OW 1030   2.194   2.747   0.847  0.0546  0.1124 -0.3901
  344SOL    HW1 1031   2.158   2.808   0.773  0.9873 -3.1719  2.3230
  344SOL    HW2 1032   2.220   2.804   0.926  0.2006  0.1631  1.3829
  345SOL     OW 1033   2.740   2.372   2.750 -0.3023  0.2158  0.0507
  345SOL    HW1 1034   2.752   2.353   2.651 -0.2173 -0.5162 -0.0079
  345SOL    HW2 1035   2.782   2.294   2.798 -0.9000 -1.1180  1.0491
  346SOL     OW 1036   0.335   1.968   0.817 -0.1766 -0.3186 -0.5278
  346SOL    HW1 1037   0.263   1.907   0.784 -0.0458  3.0567  0.5488
  346SOL    HW2 1038   0.322   2.060   0.779  0.0531 -2.3871  1.3242
  347SOL     OW 1039   1.977   2.511   1.273 -0.2468  0.0477  0.3616
  347SOL    HW1 1040   2.036   2.591   1.249 -0.0381  2.4215 -1.3105
  347SOL    HW2 1041   1.967   2.455   1.190  3.2733  1.5196 -0.4638
  348SOL     OW 1042   1.217   1.593   2.713 -0.1330  0.4550  0.2440
  348SOL    HW1 1043   1.195   1.625   2.811 -1.4165  1.2009  0.0092
  348SOL    HW2 1044   1.211   1.667   2.643  0.6694  1.0936 -0.8626
  349SOL     OW 1045   2.336   0.836   2.149  0.1158  0.1060 -0.0873
  349SOL    HW1 1046   2.387   0.882   2.229  2.0458  1.4660 -0.5172
  349SOL    HW2 1047   2.314   0.901   2.076 -0.1564  2.0474 -0.6201
  350SOL     OW 1048   2.983   2.416   1.415 -0.3842  0.4329 -0.3693
  350SOL    HW1 1049   3.054   2.486   1.406 -1.6522 -0.2521 -0.3012
  350SOL    HW2 1050   2.908   2.431   1.345 -0.2937  1.0436  0.0661
  351SOL     OW 1051   0.496   0.371   2.882  0.2476  0.2836  0.3760
  351SOL    HW1 1052   0.422   0.352   2.807 -3.3465  1.6235 -0.5956
  351SOL    HW2 1053   0.584   0.318   2.874  1.5438 -2.2154  0.6516
  352SOL     OW 1054   0.632   2.498   1.347  0.0139 -0.5806 -0.2355
  352SOL    HW1 1055   0.688   2.453   1.417  0.4405 -1.7063 -2.2173
  352SOL    HW2 1056   0.569   2.563   1.399  0.6830  0.3162  3.2166
  353SOL     OW 1057   1.059   0.904   2.607  0.0070 -0.4785  0.1418
  353SOL    HW1 1058   1.010   0.975   2.657 -0.7734 -0.2720 -0.2848
  353SOL    HW2 1059   1.098   0.953   2.526  0.2073  1.5146 -0.4318
  354SOL     OW 1060   1.574   0.845   0.479  0.3298  0.4533 -0.4154
  354SOL    HW1 1061   1.483   0.854   0.519  1.1188  3.2999  0.9005
  354SOL    HW2 1062   1.572   0.886   0.385  0.3885  0.2273 -1.4998
  355SOL     OW 1063   2.619   0.317   0.378 -0.3018 -0.0674  0.0631
  355SOL    HW1 1064   2.634   0.267   0.286  0.3500 -1.2013 -0.1611
  355SOL    HW2 1065   2.678   0.286   0.453 -0.9250  1.9012  0.0030
  356SOL     OW 1066   2.726   0.771   2.378  0.0467  0.7022  0.0624
  356SOL    HW1 1067   2.802   0.808   2.433  1.7976  1.1062 -0.6494
  356SOL    HW2 1068   2.642   0.826   2.392 -1.1236 -0.9330 -1.5438
  357SOL     OW 1069   0.616   2.736   1.729 -0.3631  0.1005  0.0397
  357SOL    HW1 1070   0.689   2.691   1.677  1.3185 -0.1441  0.3129
  357SOL    HW2 1071   0.647   2.818   1.779 -0.7101  1.0914 -0.1514
  358SOL     OW 1072   2.205   1.279   2.398  0.5197  0.1945  0.1330
  358SOL    HW1 1073   2.274   1.351   2.390 -0.3385  0.1711  3.4688
  358SOL    HW2 1074   2.116   1.324   2.424 -1.0830  0.3693  1.5053
  359SOL     OW 1075   2.610   2.577   2.833 -0.1229  0.2313 -0.0979
  359SOL    HW1 1076   2.631   2.661   2.779 -0.1932  0.8576 -0.8937
  359SOL    HW2 1077   2.681   2.507   2.814  0.0377  3.5401  2.0538
  360SOL     OW 1078   2.250   0.555   0.660 -0.2379 -0.2279  0.3030
  360SOL    HW1 1079   2.287   0.619   0.732  0.2102 -3.0598  0.2626
  360SOL    HW2 1080   2.317   0.534   0.587 -3.2610  2.3518  0.1958
  361SOL     OW 1081   1.868   2.894   1.090  0.5699  0.6552  0.0169
  361SOL    HW1 1082   1.792   2.941   1.142 -1.4070 -2.5077  1.4906
  361SOL    HW2 1083   1.837   2.842   1.008  1.3514  1.7075  1.9911
  362SOL     OW 1084   1.366   1.318   0.533 -0.0678 -0.5199 -0.6021
  362SOL    HW1 1085   1.412   1.274   0.454 -3.2634  0.1817  0.9987
  362SOL    HW2 1086   1.442   1.341   0.602  0.5256 -1.9482  0.4307
  363SOL     OW 1087   2.844   1.594   2.340 -0.4093  0.0175 -0.2811
  363SOL    HW1 1088   2.874   1.568   2.242 -0.1957  0.9987 -1.7942
  363SOL    HW2 1089   2.770   1.537   2.379 -0.0430  0.2272  1.3740
  364SOL     OW 1090   1.137   0.639   1.175  0.6353  0.2573  0.4515
  364SOL    HW1 1091   1.116   0.602   1.269  1.9794 -1.5895 -0.4062
  364SOL    HW2 1092   1.225   0.694   1.174  1.1663 -0.0403 -0.3209
  365SOL     OW 1093   3.091   0.026   1.141  0.5607 -0.0483 -0.2378
  365SOL    HW1 1094   0.079   0.008   1.090  0.1662 -1.5746  0.6517
  365SOL    HW2 1095   3.036   0.109   1.102 -3.3352  1.2930  0.7528
  366SOL     OW 1096   2.761   1.230   0.362 -0.4221 -0.3923 -0.1154
  366SOL    HW1 1097   2.741   1.314   0.416  1.1950 -0.9684 -0.3366
  366SOL    HW2 1098   2.858   1.201   0.387  3.2925 -0.6994  1.8990
  367SOL     OW 1099   0.112   1.978   3.002 -0.4129 -0.2947  0.5412
  367SOL    HW1 1100   0.051   2.053   3.029 -0.6882  1.2659 -0.9269
  367SOL    HW2 1101   0.101   1.910   3.079 -1.7593 -2.5219  0.4443
  368SOL     OW 1102   2.999   2.356   1.099 -0.5085 -0.6555 -0.4254
  368SOL    HW1 1103   2.930   2.380   1.170 -0.3142 -3.6114  0.7033
  368SOL    HW2 1104   3.005   2.433   1.031  1.4999 -0.3680  0.8720
  369SOL     OW 1105   0.371   0.355   0.478  0.5386  0.2805 -0.1040
  369SOL    HW1 1106   0.286   0.310   0.505 -0.6108  0.5893  0.0830
  369SOL    HW2 1107   0.452   0.288   0.471 -0.7444 -1.0544 -1.4114
  370SOL     OW 1108   0.257   0.933   1.634  0.0145 -0.1134 -0.5215
  370SOL    HW1 1109   0.262   1.028   1.673 -0.7151  0.6523  0.4198
  370SOL    HW2 1110   0.247   0.947   1.533  2.3481  1.7597 -1.2514
  371SOL     OW 1111   2.228   2.180   0.885  0.7038 -0.6327 -0.0058
  371SOL    HW1 1112   2.168   2.148   0.959  0.1162  2.4898 -3.1331
  371SOL    HW2 1113   2.307   2.114   0.876 -1.0657 -0.2070 -0.7662
  372SOL     OW 1114   2.979   0.840   2.522 -0.7705 -0.7974  0.7726
  372SOL    HW1 1115   3.021   0.758   2.567 -0.2375 -1.3645  0.7072
  372SOL    HW2 1116   3.041   0.922   2.519  0.3401  0.6096 -2.5547
  373SOL     OW 1117   2.752   1.466   0.485 -0.7083 -0.2021  0.1473
  373SOL    HW1 1118   2.841   1.515   0.468  0.2029  1.2101 -2.0772
  373SOL    HW2 1119   2.674   1.534   0.480  0.5553  1.4473  1.2210
  374SOL     OW 1120   0.657   2.269   0.138  0.1628  0.1987  0.2101
  374SOL    HW1 1121   0.685   2.366   0.145 -1.5242 -0.3670  0.1285
  374SOL    HW2 1122   0.661   2.230   0.044 -0.1495 -2.0818  1.5185
  375SOL     OW 1123   0.637   0.281   0.238  0.5299  0.1907 -0.3364
  375SOL    HW1 1124   0.722   0.338   0.228 -1.4114 -2.9548  1.8587
  375SOL    HW2 1125   0.563   0.311   0.171  1.1695  0.1192  0.2441
  376SOL     OW 1126   0.334   3.051   2.159  0.4213  0.2595 -0.2847
  376SOL    HW1 1127   0.366   2.991   2.086  0.5873  0.3430  4.9594
  376SOL    HW2 1128   0.248   3.014   2.203 -1.6277  0.3565  3.1166
  377SOL     OW 1129   0.823   1.837   2.233 -0.3625 -0.1339  0.2379
  377SOL    HW1 1130   0.868   1.913   2.280  0.1709 -1.8369  1.2818
  377SOL    HW2 1131   0.802   1.858   2.137 -2.5433  0.8490  1.2353
  378SOL     OW 1132   1.044   0.946   0.559 -0.5631 -0.2545  0.0457
  378SOL    HW1 1133   0.998   0.908   0.643  0.1285  1.4088  1.3706
  378SOL    HW2 1134   0.973   0.970   0.486 -3.2374  1.6109  1.2692
  379SOL     OW 1135   1.038   1.541   2.982 -0.6243 -0.1747 -0.4044
  379SOL    HW1 1136   1.032   1.482   3.069  2.1384 -0.8686  2.8714
  379SOL    HW2 1137   1.119   1.608   2.982  0.8045  0.0252 -1.1514
  380SOL     OW 1138   3.047   1.955   1.835  0.9692  0.8912  0.2264
  380SOL    HW1 1139   2.952   1.954   1.792 -1.9104 -0.8056 -0.7767
  380SOL    HW2 1140   0.023   1.943   1.764  2.7273 -0.8101 -0.6594
  381SOL     OW 1141   2.954   0.859   1.819  0.4934  0.0368  0.3268
  381SOL    HW1 1142   3.033   0.797   1.796  0.1864 -1.1373  1.1028
  381SOL    HW2 1143   2.880   0.861   1.753  4.4152  1.4217  0.1132
  382SOL     OW 1144   2.575   2.212   2.950 -0.0072  0.3899 -0.1699
  382SOL    HW1 1145   2.608   2.286   2.891 -0.8280  0.7656  0.2141
  382SOL    HW2 1146   2.650   2.146   2.962  0.3267  1.6140 -1.3165
  383SOL     OW 1147   2.323   2.058   2.177  0.6695  0.0649 -0.0116
  383SOL    HW1 1148   2.410   2.017   2.215  2.3468  3.2772  0.2090
  383SOL    HW2 1149   2.257   2.072   2.254  0.7473 -0.9682 -0.8390
  384SOL     OW 1150   0.867   2.347   2.042 -0.2782 -0.1066 -0.3339
  384SOL    HW1 1151   0.807   2.301   1.972 -0.7169  1.5141  1.9537
  384SOL    HW2 1152   0.817   2.372   2.127  1.4943  0.0740 -2.7645
  385SOL     OW 1153   2.704   1.977   0.927  0.0765 -0.2458 -0.4586
  385SOL    HW1 1154   2.769   2.057   0.911  1.2736  0.3882 -3.1705
  385SOL    HW2 1155   2.694   1.960   1.028  1.5128  0.5771  1.9195
  386SOL     OW 1156   1.625   0.901   2.764  0.0803  0.4276  0.1269
  386SOL    HW1 1157   1.536   0.912   2.809 -1.7441  0.2829 -0.8114
  386SOL    HW2 1158   1.646   0.803   2.738 -1.9827  1.3832 -0.6311
  387SOL     OW 1159   0.264   0.635   1.972 -0.0177 -0.1685  0.1943
  387SOL    HW1 1160   0.319   0.716   1.941 -0.8794  1.2888  2.8123
  387SOL    HW2 1161   0.323   0.553   1.982  1.7943 -1.8627  3.1365
  388SOL     OW 1162   2.688   1.094   1.599  0.0964  0.5534  0.3166
  388SOL    HW1 1163   2.691   0.989   1.596  1.3271 -0.7319 -1.0450
  388SOL    HW2 1164   2.783   1.130   1.601 -1.0982  0.1911 -1.3563
  389SOL     OW 1165   1.776   1.049   2.493 -0.2153  0.0801 -0.2890
  389SOL    HW1 1166   1.851   0.992   2.536  1.9038  0.5299  1.5762
  389SOL    HW2 1167   1.754   1.128   2.550  2.5540 -1.1660 -0.6502
  390SOL     OW 1168   2.089   2.194   0.594 -0.4303 -0.4135  0.4630
  390SOL    HW1 1169   2.152   2.168   0.670  0.3779 -1.6994  1.9343
  390SOL    HW2 1170   2.029   2.272   0.611 -1.0356  3.1711  0.0243
  391SOL     OW 1171   1.761   2.765   0.882 -0.4219 -0.1952  0.2593
  391SOL    HW1 1172   1.791   2.832   0.817 -0.7824 -2.6795  1.1964
  391SOL    HW2 1173   1.657   2.756   0.875 -1.9461  0.9801 -1.0121
  392SOL     OW 1174   2.614   2.822   1.540 -0.2865  0.1975 -0.5617
  392SOL    HW1 1175   2.632   2.911   1.494 -0.3544  0.1360 -0.4842
  392SOL    HW2 1176   2.698   2.794   1.596 -1.9438 -1.7892  1.7163
  393SOL     OW 1177   1.913   1.840   2.753 -0.3107 -0.0319  0.1677
  393SOL    HW1 1178   1.856   1.914   2.792 -0.0787  0.2718 -0.0348
  393SOL    HW2 1179   1.962   1.796   2.829 -0.8406  0.8847 -1.5115
  394SOL     OW 1180   0.548   2.792   2.822  0.2050 -0.1940  0.2799
  394SOL    HW1 1181   0.542   2.869   2.756  1.5805  0.2413 -1.3884
  394SOL    HW2 1182   0.483   2.810   2.897 -0.2044  1.7342 -0.7725
  395SOL     OW 1183   1.105   1.487   0.905  0.3138 -0.3525 -0.3567
  395SOL    HW1 1184   1.009   1.504   0.871  0.0033 -1.4013  0.6234
  395SOL    HW2 1185   1.089   1.413   0.975 -1.2993 -2.0659  2.7321
  396SOL     OW 1186   1.960   0.906   2.871  0.1448  0.6404  0.2415
  396SOL    HW1 1187   1.876   0.955   2.904  3.0067  0.6364  1.4293
  396SOL    HW2 1188   2.001   0.854   2.948  2.8512  0.7931 -0.5349
  397SOL     OW 1189   0.152   0.554   2.483 -0.0419  0.1124 -0.4107
  397SOL    HW1 1190   0.101   0.483   2.423  0.3193 -0.4330  0.9830
  397SOL    HW2 1191   0.083   0.604   2.549 -0.1289 -0.1849  0.6894
  398SOL     OW 1192   0.977   0.658   0.481  0.7533 -0.1011  0.8723
  398SOL    HW1 1193   1.045   0.711   0.427 -0.1406 -0.4233  0.1279
  398SOL    HW2 1194   0.878   0.692   0.453 -4.8305  0.7838 -0.2561
  399SOL     OW 1195   1.828   0.192   1.737 -0.3957  0.0303  0.2153
  399SOL    HW1 1196   1.735   0.170   1.701 -0.4805  0.3340  1.6248
  399SOL    HW2 1197   1.860   0.125   1.809  0.1942  0.1041  2.2952
  400SOL     OW 1198   0.000   2.146   2.320  0.1435 -0.0858  0.4746
  400SOL    HW1 1199   3.090   2.212   2.242 -0.9618  0.0810 -1.9100
  400SOL    HW2 1200   0.015   2.057   2.278 -1.4818  2.1574 -0.2490
  401SOL     OW 1201   0.701   0.020   0.173 -0.1096 -0.1435 -0.4011
  401SOL    HW1 1202   0.714   0.119   0.160 -0.3409 -1.4710  1.9763
  401SOL    HW2 1203   0.738   3.093   0.264 -1.0824 -2.4556 -3.6817
  402SOL     OW 1204   0.276   2.447   1.568  0.0953  0.4979  0.5660
  402SOL    HW1 1205   0.323   2.355   1.555 -1.2368 -1.6249  2.9135
  402SOL    HW2 1206   0.208   2.433   1.645 -0.9641 -0.9413 -1.4647
  403SOL     OW 1207   0.078   1.326   1.243 -0.0580 -0.4274  1.1644
  403SOL    HW1 1208   0.086   1.307   1.144 -0.1800 -2.1598  0.3722
  403SOL    HW2 1209   0.053   1.421   1.269  0.8109  1.3824  0.7670
  404SOL     OW 1210   0.164   2.562   1.939 -0.5051 -0.3989 -0.0737
  404SOL    HW1 1211   0.164   2.561   2.042  0.8380  3.4060 -0.7691
  404SOL    HW2 1212   0.181   2.655   1.909 -0.4908 -2.2018 -0.6256
  405SOL     OW 1213   2.759   0.286   2.198  0.6673 -0.0116 -0.4941
  405SOL    HW1 1214   2.666   0.320   2.217 -0.0845  1.2524  1.9714
  405SOL    HW2 1215   2.781   0.194   2.236 -2.9405  1.4648  0.2282
  406SOL     OW 1216   2.099   2.478   0.238  0.2869  0.0878  0.0913
  406SOL    HW1 1217   2.123   2.383   0.244 -1.4894  1.1639  1.6944
  406SOL    HW2 1218   2.138   2.528   0.317  2.5117 -0.2370 -0.0258
  407SOL     OW 1219   1.885   1.751   0.723  0.3527  0.6533  0.0338
  407SOL    HW1 1220   1.930   1.828   0.774 -0.4281 -0.9568  0.3449
  407SOL    HW2 1221   1.895   1.755   0.623  0.9396 -1.5753  2.5442
  408SOL     OW 1222   0.516   0.223   2.398  0.1920 -0.3791  0.3748
  408SOL    HW1 1223   0.534   0.323   2.418 -0.4773  0.5333 -0.8626
  408SOL    HW2 1224   0.572   0.193   2.315 -4.9102  0.4562 -2.3497
  409SOL     OW 1225   2.757   1.832   0.673  0.2687 -0.0032 -0.3992
  409SOL    HW1 1226   2.782   1.739   0.714 -2.3595 -1.2081 -0.4491
  409SOL    HW2 1227   2.727   1.894   0.749  1.7788  1.1899  0.7189
  410SOL     OW 1228   2.098   1.278   1.153 -0.3523 -0.1998  0.3131
  410SOL    HW1 1229   2.164   1.283   1.078 -2.1785  1.0695 -1.7640
  410SOL    HW2 1230   2.118   1.349   1.221  1.2097 -1.9514  0.8275
  411SOL     OW 1231   3.077   0.789   0.290 -0.1618 -0.1691  0.2342
  411SOL    HW1 1232   0.023   0.710   0.338 -0.8245 -1.4011 -0.2517
  411SOL    HW2 1233   2.997   0.821   0.346 -0.0595 -1.3914 -0.9646
  412SOL     OW 1234   1.566   0.490   0.302  0.3391 -0.2594 -0.0619
  412SOL    HW1 1235   1.522   0.546   0.228  0.1201 -0.3397  0.7449
  412SOL    HW2 1236   1.593   0.547   0.386  1.1041  0.7450 -0.5887
  413SOL     OW 1237   0.714   0.821   1.554 -0.2694 -0.5596  0.0425
  413SOL    HW1 1238   0.684   0.767   1.637  0.5935 -1.1753  1.2331
  413SOL    HW2 1239   0.631   0.827   1.488 -3.0425  2.0555  0.9185
  414SOL     OW 1240   0.022   1.188   2.847 -0.4942 -0.4885  0.2905
  414SOL    HW1 1241   0.030   1.214   2.747  0.2757  0.0722 -0.3578
  414SOL    HW2 1242   0.104   1.218   2.899  2.4462 -0.4277  1.3002
  415SOL     OW 1243   0.474   1.636   2.900  0.5458  0.1077 -0.2881
  415SOL    HW1 1244   0.528   1.549   2.924  1.4802  0.8596 -0.0608
  415SOL    HW2 1245   0.426   1.634   2.809 -2.3857 -2.9109 -1.1383
  416SOL     OW 1246   1.198   0.788   0.340  0.3151  0.2356 -0.6305
  416SOL    HW1 1247   1.267   0.813   0.412  2.2148  0.6066 -1.0440
  416SOL    HW2 1248   1.182   0.863   0.276  0.5059  2.1300 -1.2132
  417SOL     OW 1249   0.224   0.736   1.168  0.7288  0.4356  0.1365
  417SOL    HW1 1250   0.252   0.800   1.096  0.0212  1.6389  1.8106
  417SOL    HW2 1251   0.224   0.639   1.138 -1.1711  0.3811  1.1714
  418SOL     OW 1252   2.211   1.005   2.804 -0.3250  0.0215  0.6068
  418SOL    HW1 1253   2.136   0.942   2.832  0.4493  1.9076  0.0775
  418SOL    HW2 1254   2.296   0.948   2.799 -2.3774 -1.8649 -1.3784
  419SOL     OW 1255   0.416   0.619   0.517 -0.4349  0.1697 -0.2927
  419SOL    HW1 1256   0.507   0.607   0.556 -2.6934 -2.2396 -1.1692
  419SOL    HW2 1257   0.375   0.526   0.494  0.9974 -0.2662 -0.0356
  420SOL     OW 1258   0.371   1.552   1.022 -0.0287  0.3810 -0.4139
  420SOL    HW1 1259   0.358   1.471   1.091 -0.2928  1.1773  1.5965
  420SOL    HW2 1260   0.370   1.528   0.923 -0.2623  0.2628  1.2166
  421SOL     OW 1261   0.294   2.017   0.129  0.3016  0.1088 -0.3129
  421SOL    HW1 1262   0.338   2.039   0.038  0.4737 -2.9473  0.4002
  421SOL    HW2 1263   0.369   2.002   0.196 -1.7172 -0.8671  0.8282
  422SOL     OW 1264   2.504   0.331   1.415  0.3828  0.3167 -0.2903
  422SOL    HW1 1265   2.526   0.401   1.341 -0.9988 -2.1358  1.2734
  422SOL    HW2 1266   2.530   0.361   1.503 -3.4010 -2.4582 -1.3345
  423SOL     OW 1267   2.015   1.272   0.762  0.5229 -0.1944  0.0573
  423SOL    HW1 1268   2.109   1.300   0.786 -2.4808  2.4375  2.0995
  423SOL    HW2 1269   1.974   1.230   0.844 -1.4303 -0.7983  0.1907
  424SOL     OW 1270   1.964   1.558   0.125 -0.5668 -0.2435  0.4782
  424SOL    HW1 1271   1.998   1.476   0.075 -1.1173  1.1211 -1.0936
  424SOL    HW2 1272   2.012   1.557   0.213  0.0627 -0.3085 -1.6474
  425SOL     OW 1273   0.117   2.919   2.232  0.3679 -0.1186  0.0491
  425SOL    HW1 1274   0.041   2.906   2.289  2.6618  1.4462  0.0166
  425SOL    HW2 1275   0.080   2.928   2.135 -0.5002  1.7940 -0.7973
  426SOL     OW 1276   2.645   2.769   2.613 -0.3441 -0.5093  0.5508
  426SOL    HW1 1277   2.559   2.810   2.644 -0.7368  0.4764 -3.8560
  426SOL    HW2 1278   2.647   2.737   2.515  0.5671 -1.3939 -2.5210
  427SOL     OW 1279   0.606   0.856   2.212 -0.3909  0.1013  0.6453
  427SOL    HW1 1280   0.544   0.775   2.214  1.6278  0.8788  1.4738
  427SOL    HW2 1281   0.681   0.834   2.276 -0.4955  0.9005  0.9750
  428SOL     OW 1282   2.063   0.801   2.202 -0.2976  0.0412 -0.4221
  428SOL    HW1 1283   2.165   0.802   2.178  1.7097 -0.8314 -3.0611
  428SOL    HW2 1284   2.030   0.895   2.230  0.7286 -1.3149  0.0531
  429SOL     OW 1285   2.316   0.209   0.480  0.4606 -0.3096 -0.4280
  429SOL    HW1 1286   2.327   0.245   0.386 -0.0222  1.3447  0.2960
  429SOL    HW2 1287   2.337   0.279   0.548  0.1505 -3.6174  1.5449
  430SOL     OW 1288   1.622   1.250   2.186  0.0403 -0.3135 -0.4500
  430SOL    HW1 1289   1.675   1.166   2.159  1.6782  1.0742 -0.5041
  430SOL    HW2 1290   1.531   1.254   2.140 -3.9158 -0.5738  3.1163
  431SOL     OW 1291   2.815   2.053   1.429  0.2078  0.4277  0.1719
  431SOL    HW1 1292   2.832   1.951   1.411  2.7733 -4.6296  0.9319
  431SOL    HW2 1293   2.824   2.093   1.337  2.0660 -3.5338  0.6346
  432SOL     OW 1294   1.176   2.597   1.771 -0.4882  0.0119 -0.6702
  432SOL    HW1 1295   1.153   2.528   1.697 -0.7678 -0.3926  2.6236
  432SOL    HW2 1296   1.161   2.553   1.864 -0.4355  0.0604 -3.0326
  433SOL     OW 1297   1.660   3.018   1.191 -0.9594  0.0694 -0.0398
  433SOL    HW1 1298   1.672   3.079   1.109 -0.6521 -3.2317 -2.2185
  433SOL    HW2 1299   1.564   2.994   1.206  0.1497  1.1977  0.0496
  434SOL     OW 1300   0.277   2.261   2.124  0.2601 -0.0628  0.0718
  434SOL    HW1 1301   0.342   2.293   2.054  1.4247  0.9767  1.9079
  434SOL    HW2 1302   0.322   2.205   2.192 -0.5832  1.5613 -0.2782
  435SOL     OW 1303   0.294   1.606   0.026  0.5051 -0.1830  0.5446
  435SOL    HW1 1304   0.194   1.608   0.003  1.4899 -2.2461 -2.1260
  435SOL    HW2 1305   0.351   1.626   3.043 -0.9360  0.0846 -2.0115
  436SOL     OW 1306   0.645   1.141   1.764 -0.7527  0.0721 -0.1953
  436SOL    HW1 1307   0.651   1.237   1.785 -1.4141  2.0034 -1.0181
  436SOL    HW2 1308   0.669   1.089   1.846  0.2520  3.7710 -1.3919
  437SOL     OW 1309   1.091   0.689   3.020  0.1868 -0.7971  0.2396
  437SOL    HW1 1310   1.048   0.647   0.006  1.6573 -1.4303 -2.1605
  437SOL    HW2 1311   1.144   0.617   2.965  2.3027 -3.3656 -1.3028
  438SOL     OW 1312   0.441   1.901   1.560 -0.3989  0.1407  0.1429
  438SOL    HW1 1313   0.394   1.904   1.471 -0.0709  0.3341  2.1853
  438SOL    HW2 1314   0.532   1.861   1.542  1.1561  0.7601  1.7002
  439SOL     OW 1315   2.013   1.696   2.988  0.0950  0.0573 -0.1695
  439SOL    HW1 1316   2.082   1.627   2.944  0.4571 -2.5831  1.8304
  439SOL    HW2 1317   1.995   1.666   3.085 -0.6556 -2.6457  2.6526
  440SOL     OW 1318   1.442   0.468   0.682  0.0378  0.4314 -0.3294
  440SOL    HW1 1319   1.450   0.396   0.755  2.6513 -0.3672  3.9762
  440SOL    HW2 1320   1.344   0.492   0.675 -1.7007 -1.2586  1.9798
  441SOL     OW 1321   0.452   2.672   1.501 -0.6124 -0.1448 -0.2240
  441SOL    HW1 1322   0.509   2.699   1.583 -0.2776 -0.8303  0.7770
  441SOL    HW2 1323   0.375   2.607   1.520 -0.0257 -1.0845  0.1334
  442SOL     OW 1324   2.389   2.378   0.927 -0.5969  0.0149  0.1138
  442SOL    HW1 1325   2.305   2.333   0.896  0.2153  4.3210 -1.2175
  442SOL    HW2 1326   2.420   2.450   0.859 -1.2712 -0.4838 -0.9768
  443SOL     OW 1327   2.481   0.954   2.375 -0.0456 -0.2358  0.1941
  443SOL    HW1 1328   2.415   0.941   2.447  2.6905 -2.0623  0.7819
  443SOL    HW2 1329   2.504   1.057   2.366  2.7142  0.5379 -0.2615
  444SOL     OW 1330   1.591   0.852   2.442 -0.4468  0.0958  0.3188
  444SOL    HW1 1331   1.667   0.919   2.464 -4.8927  0.0274  2.5452
  444SOL    HW2 1332   1.593   0.817   2.346 -1.0651  0.6157 -0.8356
  445SOL     OW 1333   2.617   2.388   1.728  0.3096 -0.6886  0.2740
  445SOL    HW1 1334   2.631   2.324   1.642  0.6746 -2.7845 -3.1585
  445SOL    HW2 1335   2.619   2.327   1.808  0.3619  0.1407 -0.7270
  446SOL     OW 1336   0.099   1.493   0.442  0.0773 -0.2204 -0.3325
  446SOL    HW1 1337   0.167   1.557   0.485  0.4855 -1.0860  1.8535
  446SOL    HW2 1338   0.020   1.542   0.394 -2.5290  0.1412 -0.0998
  447SOL     OW 1339   0.938   2.459   1.137  0.2098  0.5113 -0.8176
  447SOL    HW1 1340   0.873   2.533   1.135  0.1155 -1.7073 -1.1178
  447SOL    HW2 1341   1.021   2.493   1.084 -2.3835 -1.5415  2.5920
  448SOL     OW 1342   1.676   1.645   1.588 -0.2191  0.2930  0.5735
  448SOL    HW1 1343   1.700   1.663   1.684  2.9102  0.1511 -1.6506
  448SOL    HW2 1344   1.713   1.557   1.546 -0.8840  0.6888 -1.6983
  449SOL     OW 1345   0.864   1.799   2.777  0.0082  0.2073  0.0359
  449SOL    HW1 1346   0.849   1.836   2.872  0.1320 -1.7288  2.8197
  449SOL    HW2 1347   0.847   1.698   2.765  0.2598 -0.7203 -2.0382
  450SOL     OW 1348   3.097   1.878   2.253  0.3270 -0.3848 -0.5386
  450SOL    HW1 1349   0.061   1.795   2.251  1.1671 -0.6502  1.6280
  450SOL    HW2 1350   3.004   1.846   2.285 -1.9310 -1.8951 -0.9666
  451SOL     OW 1351   1.928   0.512   1.414  0.2093 -0.1644 -0.0695
  451SOL    HW1 1352   1.863   0.434   1.428 -1.5026 -1.3372  1.0811
  451SOL    HW2 1353   1.890   0.598   1.455 -3.5604 -0.1737 -2.3602
  452SOL     OW 1354   0.993   2.684   1.364 -0.0862 -0.5071 -0.4497
  452SOL    HW1 1355   1.049   2.603   1.354 -0.4486  0.8375  0.4625
  452SOL    HW2 1356   0.918   2.704   1.298 -0.6627  1.4354 -1.2038
  453SOL     OW 1357   1.044   1.860   0.809 -0.0445 -0.1026  0.1781
  453SOL    HW1 1358   1.092   1.836   0.898 -1.4497  2.5062  0.7836
  453SOL    HW2 1359   0.984   1.944   0.821  0.2650 -1.0757  0.0273
  454SOL     OW 1360   3.040   1.170   0.719 -0.0126  0.2062 -0.3723
  454SOL    HW1 1361   3.096   1.135   0.641 -0.1213  0.0323 -1.4482
  454SOL    HW2 1362   3.002   1.259   0.690  3.6155 -1.0852  3.8138
  455SOL     OW 1363   0.672   1.171   0.511  0.1547  0.3351 -0.0387
  455SOL    HW1 1364   0.615   1.234   0.456 -0.8509  1.6839 -0.1411
  455SOL    HW2 1365   0.614   1.112   0.567 -0.2671  2.3389 -2.4960
  456SOL     OW 1366   1.951   2.354   1.039  0.3840  0.5552  0.5616
  456SOL    HW1 1367   2.035   2.302   1.016  2.5471 -0.3539  1.2500
  456SOL    HW2 1368   1.942   2.442   0.989  0.2821 -0.6736  0.0794
  457SOL     OW 1369   1.356   2.626   0.033  0.4964 -0.0606 -0.1653
  457SOL    HW1 1370   1.337   2.639   0.132 -1.0585 -1.3023 -0.0806
  457SOL    HW2 1371   1.335   2.525   0.007 -2.3427 -1.8109 -0.3141
  458SOL     OW 1372   2.775   0.156   2.985  0.2011  0.2248 -0.8275
  458SOL    HW1 1373   2.747   0.158   2.885  1.6657 -1.5025 -0.3496
  458SOL    HW2 1374   2.854   0.089   2.996 -0.4479  0.7135  3.6045
  459SOL     OW 1375   2.099   0.188   1.669  0.2055  0.3389 -0.3359
  459SOL    HW1 1376   2.122   0.110   1.598  0.2221 -2.3252 -1.2945
  459SOL    HW2 1377   2.002   0.190   1.682  1.4875 -0.0014 -0.9061
  460SOL     OW 1378   2.874   0.439   3.068 -0.1173  0.0869 -0.0320
  460SOL    HW1 1379   2.968   0.479   3.055  1.2018  0.6486  0.3584
  460SOL    HW2 1380   2.869   0.342   3.045  0.2182 -0.8606 -0.0747
  461SOL     OW 1381   0.078   2.171   1.042 -0.2246 -0.1961  0.4195
  461SOL    HW1 1382   0.099   2.178   0.941 -2.8943  0.9511 -0.7106
  461SOL    HW2 1383   0.011   2.248   1.067  0.7320  2.2562 -1.4202
  462SOL     OW 1384   0.033   0.022   0.725  0.1136  0.1834  0.1598
  462SOL    HW1 1385   0.083   0.096   0.677 -0.2209 -0.4102  2.5384
  462SOL    HW2 1386   3.066   0.069   0.789  0.2082  0.3299  2.0063
  463SOL     OW 1387   2.284   1.359   3.053  0.0531 -0.1925  0.7298
  463SOL    HW1 1388   2.317   1.262   3.045 -1.5925 -0.8318  1.9877
  463SOL    HW2 1389   2.229   1.387   2.971  0.4700 -0.7197  1.5468
  464SOL     OW 1390   0.665   3.017   1.228  0.3019  0.3880 -0.4640
  464SOL    HW1 1391   0.582   2.984   1.282  0.6195 -2.9415 -1.1896
  464SOL    HW2 1392   0.689   2.943   1.163  2.1617  1.7067  0.2076
  465SOL     OW 1393   0.946   0.772   1.061 -0.3367  0.0833  0.2114
  465SOL    HW1 1394   1.015   0.714   1.109  0.5818 -1.2490  0.3909
  465SOL    HW2 1395   0.895   0.716   0.994 -3.1177  0.2903  0.8733
  466SOL     OW 1396   1.481   2.324   1.941  0.6685  0.0359  0.0204
  466SOL    HW1 1397   1.452   2.423   1.944 -2.8899  1.2726  0.0439
  466SOL    HW2 1398   1.567   2.318   1.994 -0.9709 -1.0492 -1.5654
  467SOL     OW 1399   0.750   2.947   2.045  0.7685 -0.2907  0.2420
  467SOL    HW1 1400   0.702   2.982   2.126  0.8188  1.7960  0.0036
  467SOL    HW2 1401   0.724   3.007   1.967 -1.0182  0.9433 -2.2028
  468SOL     OW 1402   0.120   1.266   2.287 -0.5224 -0.7951  0.5116
  468SOL    HW1 1403   0.024   1.231   2.280 -0.9510 -1.7164  0.2160
  468SOL    HW2 1404   0.117   1.363   2.321 -0.1972 -0.2665  1.8906
  469SOL     OW 1405   1.242   2.325   0.572 -0.0593  0.6155  0.1239
  469SOL    HW1 1406   1.152   2.367   0.544  1.9158  0.1949 -0.4116
  469SOL    HW2 1407   1.230   2.284   0.660  2.0848  4.0024 -2.9275
  470SOL     OW 1408   1.985   1.064   2.242  0.6424  0.4231 -0.3103
  470SOL    HW1 1409   1.912   1.078   2.313 -2.7404  0.3362  0.3647
  470SOL    HW2 1410   2.056   1.137   2.248  0.6825  1.4806 -1.6529
  471SOL     OW 1411   0.969   2.453   0.038 -0.1075  0.6141  0.5049
  471SOL    HW1 1412   1.020   2.454   0.124  3.6301 -0.4258  0.5134
  471SOL    HW2 1413   1.011   2.520   3.064  0.9251  1.1521 -0.9475
  472SOL     OW 1414   0.152   2.530   2.200  0.2953  0.7633  0.1141
  472SOL    HW1 1415   0.173   2.425   2.187  0.0892 -1.4534 -0.7734
  472SOL    HW2 1416   0.126   2.557   2.295  1.7467  1.5165  2.5469
  473SOL     OW 1417   0.797   0.023   2.997  0.4945  0.7451  0.2243
  473SOL    HW1 1418   0.900   0.019   3.009 -0.1838  1.4594 -0.2354
  473SOL    HW2 1419   0.747   3.092   3.082  0.1581 -0.2995 -1.7196
  474SOL     OW 1420   1.747   0.399   0.800 -0.3959  0.3750 -0.0375
  474SOL    HW1 1421   1.724   0.374   0.701 -2.2012 -0.5302 -0.2632
  474SOL    HW2 1422   1.847   0.422   0.804  0.0727 -0.1730  2.9017
  475SOL     OW 1423   1.494   0.306   1.480  0.7154 -0.8684 -0.8332
  475SOL    HW1 1424   1.394   0.306   1.481  1.0740  0.1783 -0.1949
  475SOL    HW2 1425   1.531   0.297   1.384  0.5968 -0.2664 -1.2225
  476SOL     OW 1426   0.197   0.995   1.043 -0.2584 -0.4544 -0.7234
  476SOL    HW1 1427   0.191   1.022   1.141  0.6606 -2.2077 -0.4807
  476SOL    HW2 1428   0.273   1.041   0.995  0.6564  1.7203 -0.3967
  477SOL     OW 1429   1.128   2.036   0.587  0.1632 -0.5770  0.2603
  477SOL    HW1 1430   1.122   1.937   0.604 -0.3605  2.2444 -2.2023
  477SOL    HW2 1431   1.097   2.080   0.673 -1.2371 -3.0105  1.2667
  478SOL     OW 1432   0.244   2.611   2.665 -0.2048  0.6514  0.4427
  478SOL    HW1 1433   0.306   2.531   2.674 -0.7149 -1.0724  1.0532
  478SOL    HW2 1434   0.272   2.680   2.588  1.4995  1.9743 -1.4872
  479SOL     OW 1435   2.999   0.407   1.256  0.4881  0.6420 -0.2613
  479SOL    HW1 1436   2.953   0.497   1.253  0.6681  1.1413 -1.1712
  479SOL    HW2 1437   3.043   0.404   1.351  0.2729 -1.7293 -0.0170
  480SOL     OW 1438   2.786   2.516   0.096 -0.7418  0.1271  0.4147
  480SOL    HW1 1439   2.851   2.563   0.034 -0.2044  1.8034 -0.0621
  480SOL    HW2 1440   2.790   2.550   0.192  1.1520  0.1964  0.6738
  481SOL     OW 1441   2.446   2.025   1.668  0.0749  0.1638 -0.1636
  481SOL    HW1 1442   2.492   2.096   1.616 -2.7148  0.9913  1.3312
  481SOL    HW2 1443   2.437   2.050   1.763 -0.6265 -3.1300 -1.3526
  482SOL     OW 1444   1.588   1.917   2.415 -0.1569 -1.0311 -0.2916
  482SOL    HW1 1445   1.585   1.939   2.314 -0.6702 -0.3701 -0.2768
  482SOL    HW2 1446   1.517   1.962   2.468  0.2557 -1.3570  0.3228
  483SOL     OW 1447   0.885   1.647   1.697 -0.3079 -0.0024 -0.0996
  483SOL    HW1 1448   0.961   1.709   1.670  1.7604  0.9542 -1.4406
  483SOL    HW2 1449   0.886   1.556   1.649 -1.1156 -1.5968 -1.7147
  484SOL     OW 1450   0.496   0.524   1.588 -0.4619  0.3685 -0.1184
  484SOL    HW1 1451   0.495   0.571   1.495 -0.4283  0.0944  1.7447
  484SOL    HW2 1452   0.554   0.581   1.653  0.8083  1.1029  0.1479
  485SOL     OW 1453   2.383   1.117   3.010  0.1477  0.4419  0.1285
  485SOL    HW1 1454   2.310   1.086   2.941 -1.8451 -0.8968  1.4620
  485SOL    HW2 1455   2.459   1.048   3.022  0.6242  0.1594  0.2504
  486SOL     OW 1456   1.241   0.102   1.692 -0.3074  0.1129 -0.2633
  486SOL    HW1 1457   1.191   0.086   1.603 -0.8385  0.3910  0.5451
  486SOL    HW2 1458   1.330   0.155   1.678  3.5333  1.0928  0.4418
  487SOL     OW 1459   0.473   2.228   1.545 -0.4270 -0.4345  0.1492
  487SOL    HW1 1460   0.542   2.276   1.606  1.0627  1.8245 -3.1826
  487SOL    HW2 1461   0.503   2.126   1.542  2.9722 -2.2075  1.5408
  488SOL     OW 1462   2.560   1.946   2.791  0.1947  0.1936 -0.2250
  488SOL    HW1 1463   2.567   2.004   2.706  3.3205  1.5382 -0.2056
  488SOL    HW2 1464   2.577   1.994   2.882  0.1030  0.5856  2.6050
  489SOL     OW 1465   2.110   2.956   0.668 -0.5615 -0.6398 -0.6667
  489SOL    HW1 1466   2.014   2.993   0.665  1.4692 -0.2262  0.4626
  489SOL    HW2 1467   2.165   2.970   0.582  0.2341  1.3416 -0.4420
  490SOL     OW 1468   1.292   2.384   3.050 -0.6225  0.8639 -1.1385
  490SOL    HW1 1469   1.219   2.381   2.978 -1.1949 -0.7091  2.1238
  490SOL    HW2 1470   1.344   2.297   3.047 -2.3356  2.9402 -1.4724
  491SOL     OW 1471   0.686   1.419   1.738  0.3500  0.2772  0.1705
  491SOL    HW1 1472   0.597   1.470   1.722 -2.6649  2.0639 -1.9479
  491SOL    HW2 1473   0.736   1.431   1.649  1.3698 -1.7141  1.9832
  492SOL     OW 1474   1.200   0.762   1.856  0.3420 -0.3523 -0.3753
  492SOL    HW1 1475   1.187   0.844   1.791 -0.2428  3.4553 -3.2127
  492SOL    HW2 1476   1.242   0.809   1.936  1.3215 -1.4126 -3.0513
  493SOL     OW 1477   2.217   1.822   0.847  0.2068  0.3025  0.7821
  493SOL    HW1 1478   2.129   1.875   0.866 -0.9028  1.3253  1.8658
  493SOL    HW2 1479   2.208   1.733   0.895 -3.4135  0.3012 -0.6757
  494SOL     OW 1480   0.673   1.670   0.978 -0.1498 -0.1210  0.1006
  494SOL    HW1 1481   0.619   1.670   1.061 -2.3314 -0.6640 -2.6888
  494SOL    HW2 1482   0.606   1.700   0.904 -1.3509  2.2352 -2.0548
  495SOL     OW 1483   2.358   2.610   0.514 -0.5056  0.0898  0.4477
  495SOL    HW1 1484   2.386   2.667   0.434  0.2777 -3.4657 -2.0820
  495SOL    HW2 1485   2.381   2.515   0.488  2.2442  2.1035 -0.1704
  496SOL     OW 1486   2.634   3.027   1.360 -0.1185 -0.6001  0.1015
  496SOL    HW1 1487   2.697   0.011   1.345 -1.8630  1.4394 -3.0579
  496SOL    HW2 1488   2.549   3.053   1.411  3.6130 -1.8114 -1.2487
  497SOL     OW 1489   2.232   1.024   2.515  0.0358  0.9648  0.0258
  497SOL    HW1 1490   2.222   1.116   2.469 -2.1387  3.4755 -0.3974
  497SOL    HW2 1491   2.233   1.036   2.619  1.1603  0.5524  0.3288
  498SOL     OW 1492   0.023   2.168   1.449 -0.2054  0.1661 -0.1844
  498SOL    HW1 1493   3.038   2.113   1.415 -0.6146  0.1901  0.4965
  498SOL    HW2 1494   0.008   2.266   1.452 -0.5642  0.5360 -1.9613
  499SOL     OW 1495   1.072   2.516   2.012  0.3799 -0.0541  0.5010
  499SOL    HW1 1496   0.974   2.480   2.007  0.0767 -1.9634 -2.0171
  499SOL    HW2 1497   1.134   2.440   2.047 -2.9740  0.3464 -1.2687
  500SOL     OW 1498   0.855   2.109   0.236  0.0176  0.3365 -0.0887
  500SOL    HW1 1499   0.930   2.101   0.167 -0.2726  2.5330  0.8940
  500SOL    HW2 1500   0.785   2.177   0.207 -1.6971 -0.8440  2.7741
  501SOL     OW 1501   1.782   3.066   1.460 -0.3047 -0.5102 -0.0109
  501SOL    HW1 1502   1.727   3.067   1.370 -0.2701 -1.0754  1.3906
  501SOL    HW2 1503   1.802   2.972   1.494  0.9116 -1.5215  1.5689
  502SOL     OW 1504   2.575   0.460   1.650  0.3420  0.4778 -0.0667
  502SOL    HW1 1505   2.490   0.515   1.667  2.0786  0.5487  1.9652
  502SOL    HW2 1506   2.649   0.476   1.723  0.5586  0.2188  3.8202
  503SOL     OW 1507   2.597   1.202   2.108  0.2344 -0.1590 -0.1384
  503SOL    HW1 1508   2.547   1.286   2.132  0.0435  0.6501  0.4398
  503SOL    HW2 1509   2.655   1.221   2.028  0.2782  1.9221  1.0610
  504SOL     OW 1510   1.526   0.928   1.385  0.2815  0.0224  0.1844
  504SOL    HW1 1511   1.613   0.881   1.391  0.4978  1.8287  0.1276
  504SOL    HW2 1512   1.532   1.015   1.331 -1.0140  3.5468 -3.5231
  505SOL     OW 1513   0.598   0.060   1.744  0.6757 -0.4101  0.1122
  505SOL    HW1 1514   0.675   3.086   1.746  2.1565 -2.0916  1.5785
  505SOL    HW2 1515   0.551   0.054   1.653  1.1573  2.2674  2.9598
  506SOL     OW 1516   0.193   0.299   0.232 -0.9123 -0.3909  0.1069
  506SOL    HW1 1517   0.229   0.372   0.168 -1.0250 -0.5424  1.0021
  506SOL    HW2 1518   0.256   0.296   0.312  0.0549 -0.8943 -0.1106
  507SOL     OW 1519   2.340   3.029   0.029  0.4528 -0.0499  0.0658
  507SOL    HW1 1520   2.422   3.009   0.082 -3.2593 -1.3580 -1.5743
  507SOL    HW2 1521   2.269   2.959   0.050  0.1063  2.6416  0.5354
  508SOL     OW 1522   1.242   0.364   2.006 -0.5727 -0.2386 -0.0912
  508SOL    HW1 1523   1.192   0.358   1.915 -0.9508  0.7763 -2.5501
  508SOL    HW2 1524   1.322   0.430   1.996  0.4424  1.3578  0.8983
  509SOL     OW 1525   1.799   1.790   1.034  0.2202  0.6965 -0.4607
  509SOL    HW1 1526   1.697   1.797   1.024 -0.4383 -0.1086 -1.2410
  509SOL    HW2 1527   1.831   1.694   1.044  1.2302 -0.9630 -1.9120
  510SOL     OW 1528   2.518   1.238   1.461 -0.9580 -0.2249  0.1296
  510SOL    HW1 1529   2.587   1.183   1.517 -2.0905 -2.2734 -0.9072
  510SOL    HW2 1530   2.521   1.207   1.362 -1.6379 -0.6625  1.0800
  511SOL     OW 1531   1.562   1.791   1.294  0.0216 -0.0494 -0.1082
  511SOL    HW1 1532   1.570   1.819   1.194 -2.1585  1.5528  0.6384
  511SOL    HW2 1533   1.576   1.872   1.356 -2.4595 -1.8281  0.5647
  512SOL     OW 1534   3.015   1.422   0.632  0.0253  0.3335 -0.4377
  512SOL    HW1 1535   3.091   1.456   0.570  1.0057  0.1614 -1.8640
  512SOL    HW2 1536   2.992   1.497   0.696  0.4763  1.6978 -0.3481
  513SOL     OW 1537   0.051   1.559   3.031 -0.7983 -0.0137  0.0730
  513SOL    HW1 1538   0.032   1.569   2.933  3.1247 -0.4584  0.8585
  513SOL    HW2 1539   0.104   1.470   3.049 -1.5070 -0.4422 -4.8309
  514SOL     OW 1540   2.818   2.100   2.332  0.2979  0.5577 -0.3740
  514SOL    HW1 1541   2.915   2.128   2.341  2.8660  0.0858  1.4401
  514SOL    HW2 1542   2.797   2.005   2.357 -0.7206 -0.3925  0.9469
  515SOL     OW 1543   2.231   0.896   0.794 -0.0144  0.3060  0.0316
  515SOL    HW1 1544   2.294   0.866   0.865 -0.3947  1.4014 -0.0119
  515SOL    HW2 1545   2.276   0.906   0.699  1.8585  0.8280 -2.0419
  516SOL     OW 1546   2.179   2.810   0.094 -0.1573 -0.2556  0.5785
  516SOL    HW1 1547   2.141   2.744   0.163 -0.0050 -0.4723 -0.8938
  516SOL    HW2 1548   2.173   2.772   3.097  1.4622  0.7863 -1.3954
  517SOL     OW 1549   1.122   1.988   2.577 -0.1676  0.2358  0.4196
  517SOL    HW1 1550   1.023   2.014   2.564 -1.5881  3.6551 -0.2723
  517SOL    HW2 1551   1.140   1.891   2.548 -1.5082  1.8101 -2.4221
  518SOL     OW 1552   0.236   0.199   2.502 -0.1492 -0.0176  0.1898
  518SOL    HW1 1553   0.322   0.186   2.446 -1.3016 -1.5749 -0.4891
  518SOL    HW2 1554   0.152   0.221   2.453 -0.8989 -1.2508  1.4232
  519SOL     OW 1555   0.611   1.424   3.002 -0.4325  0.6332 -0.2573
  519SOL    HW1 1556   0.677   1.436   2.927  2.3551  0.6521  1.2146
  519SOL    HW2 1557   0.613   1.332   3.049  0.0336 -3.1299  1.0688
  520SOL     OW 1558   2.840   2.243   2.043  0.0308  0.5177 -0.4117
  520SOL    HW1 1559   2.813   2.219   2.139 -0.6750 -0.9586  0.6507
  520SOL    HW2 1560   2.939   2.231   2.030 -0.4595 -0.8082 -2.3323
  521SOL     OW 1561   0.888   2.201   2.375  0.0330 -0.1740 -0.2174
  521SOL    HW1 1562   0.875   2.146   2.460 -1.6451 -0.6101  1.8830
  521SOL    HW2 1563   0.803   2.260   2.356  1.7269  0.6909  0.1289
  522SOL     OW 1564   1.712   2.745   1.986 -0.2854 -0.1595  0.0490
  522SOL    HW1 1565   1.729   2.834   2.039 -0.2576  3.8469 -0.2677
  522SOL    HW2 1566   1.684   2.767   1.890 -1.6507  2.1590 -1.7885
  523SOL     OW 1567   1.959   1.905   1.840  0.0288  0.1132 -0.1964
  523SOL    HW1 1568   2.046   1.876   1.883  0.4242  1.5336 -0.3891
  523SOL    HW2 1569   1.904   1.958   1.907 -0.4917 -2.1632  2.5491
  524SOL     OW 1570   0.646   2.542   0.482 -0.0362  0.8179  0.0832
  524SOL    HW1 1571   0.588   2.546   0.402  0.0424 -0.4372 -0.0522
  524SOL    HW2 1572   0.733   2.597   0.473  2.4361  2.6863  1.7441
  525SOL     OW 1573   0.119   0.563   0.360  0.0241  0.1280 -0.3399
  525SOL    HW1 1574   0.110   0.492   0.287  1.3694 -1.0850  0.7895
  525SOL    HW2 1575   0.083   0.527   0.453 -0.3802  0.7712 -0.3201
  526SOL     OW 1576   0.719   3.061   0.660 -0.4253  0.4868  0.3853
  526SOL    HW1 1577   0.638   3.016   0.697  3.0410  0.8105 -1.4552
  526SOL    HW2 1578   0.743   0.035   0.725 -1.0370  0.7452 -0.8402
  527SOL     OW 1579   2.187   1.593   1.013 -0.0691 -0.1472  0.2982
  527SOL    HW1 1580   2.091   1.581   1.052  1.9284 -1.3425  0.2680
  527SOL    HW2 1581   2.256   1.583   1.089 -0.0420  0.0523  1.0754
  528SOL     OW 1582   2.880   2.488   2.367  0.9511  0.6434 -0.3036
  528SOL    HW1 1583   2.837   2.579   2.388  0.0072  2.2585 -1.2761
  528SOL    HW2 1584   2.980   2.492   2.394 -1.0510 -1.8839  0.0191
  529SOL     OW 1585   1.327   1.719   2.236 -0.7659 -0.7663 -0.4252
  529SOL    HW1 1586   1.307   1.807   2.191  1.5219 -2.8029 -0.0520
  529SOL    HW2 1587   1.417   1.686   2.202  0.5661 -3.5249 -1.7784
  530SOL     OW 1588   1.499   1.314   2.935  0.0821 -0.1108 -0.0258
  530SOL    HW1 1589   1.540   1.333   2.840  4.4769 -0.2657 -3.5548
  530SOL    HW2 1590   1.435   1.236   2.929  0.6674 -2.4891  0.6239
  531SOL     OW 1591   0.446   0.996   3.005 -0.1498  0.5270  0.0466
  531SOL    HW1 1592   0.390   0.948   2.931  0.2185 -0.7103  0.6680
  531SOL    HW2 1593   0.505   0.924   3.046  1.3468  0.3124 -1.6578
  532SOL     OW 1594   1.772   1.160   0.285  0.1153  0.2851  0.3451
  532SOL    HW1 1595   1.815   1.188   0.375 -0.4704  0.7764  1.1388
  532SOL    HW2 1596   1.842   1.167   0.210 -0.4704 -0.7866 -1.1294
  533SOL     OW 1597   0.640   0.178   2.635  0.3707 -0.0887 -0.6016
  533SOL    HW1 1598   0.588   0.190   2.549  1.8108  3.0149 -2.1879
  533SOL    HW2 1599   0.734   0.218   2.629 -0.1627  0.5459 -1.1555
  534SOL     OW 1600   1.023   2.680   2.981 -0.1920  0.8794 -0.3630
  534SOL    HW1 1601   0.932   2.723   2.990  2.2257 -1.1584  0.2632
  534SOL    HW2 1602   1.091   2.756   2.986 -0.5050  3.1546 -2.2259
  535SOL     OW 1603   0.104   0.051   0.111  0.1287  0.8033 -0.0681
  535SOL    HW1 1604   0.173   3.076   0.107 -1.6741  1.4298 -1.3950
  535SOL    HW2 1605   0.142   0.142   0.136 -2.5117 -1.8376  0.1564
  536SOL     OW 1606   2.964   0.931   2.200 -0.2292  0.0293  0.0346
  536SOL    HW1 1607   2.991   0.984   2.116  1.3439  2.5102 -1.2950
  536SOL    HW2 1608   3.039   0.872   2.235 -1.5186  3.1246 -1.3470
  537SOL     OW 1609   1.098   0.118   1.439 -0.3050 -0.1417  0.2972
  537SOL    HW1 1610   1.134   0.042   1.381  0.8585  0.3333  0.1427
  537SOL    HW2 1611   1.122   0.210   1.399 -1.8041 -0.6070 -0.6908
  538SOL     OW 1612   0.476   1.649   0.252  0.7384  0.1166  0.3077
  538SOL    HW1 1613   0.402   1.614   0.184 -0.7005 -0.4364 -0.5816
  538SOL    HW2 1614   0.570   1.650   0.215 -1.7977 -0.0284  0.9532
  539SOL     OW 1615   2.524   1.004   1.951  0.4690 -0.6623  0.0075
  539SOL    HW1 1616   2.420   1.016   1.937 -2.2054  1.1625 -2.4865
  539SOL    HW2 1617   2.557   1.071   2.017  0.0711  2.1930 -0.3780
  540SOL     OW 1618   1.813   1.482   2.087 -0.4574 -0.1694  0.2992
  540SOL    HW1 1619   1.751   1.413   2.130 -0.2428 -0.6371  0.1150
  540SOL    HW2 1620   1.867   1.525   2.160  1.4641  0.4034 -0.5832
  541SOL     OW 1621   0.828   1.439   1.513 -0.5243  0.3528  0.0979
  541SOL    HW1 1622   0.886   1.357   1.513 -0.2118 -0.2056 -0.0765
  541SOL    HW2 1623   0.808   1.467   1.418  1.8464  0.8421  0.8877
  542SOL     OW 1624   1.685   0.384   2.305  0.4977 -0.2704  0.7354
  542SOL    HW1 1625   1.763   0.353   2.363  0.1868  2.1331  0.5866
  542SOL    HW2 1626   1.701   0.363   2.207  1.5311  0.1406 -0.1671
  543SOL     OW 1627   0.837   0.383   0.548  0.3510 -0.3636 -0.2577
  543SOL    HW1 1628   0.915   0.331   0.588 -3.4019 -0.3790  1.1898
  543SOL    HW2 1629   0.871   0.419   0.457 -0.9234 -0.3400  2.2577
  544SOL     OW 1630   2.484   1.904   2.369  0.5305  0.2267 -0.3016
  544SOL    HW1 1631   2.445   1.823   2.415  0.2191 -0.9295  0.4638
  544SOL    HW2 1632   2.588   1.901   2.373 -0.9492  1.7006  0.4109
  545SOL     OW 1633   1.814   2.098   2.009 -0.1857 -0.2995  0.1981
  545SOL    HW1 1634   1.868   2.174   2.047 -1.1018 -2.9100  2.0726
  545SOL    HW2 1635   1.754   2.134   1.935  3.0524 -0.6955  0.5043
  546SOL     OW 1636   0.457   0.044   0.073 -0.0048  1.1228 -0.2374
  546SOL    HW1 1637   0.552   0.029   0.111 -0.6988  0.1705  0.5422
  546SOL    HW2 1638   0.395   3.066   0.100 -2.4097 -1.6216 -0.9156
  547SOL     OW 1639   1.960   0.758   0.207 -0.4508 -0.6407  0.2306
  547SOL    HW1 1640   1.951   0.703   0.287 -0.3866  1.6046 -0.2159
  547SOL    HW2 1641   1.965   0.855   0.241  1.8929  2.9370  1.8218
  548SOL     OW 1642   2.177   1.710   2.665 -0.0309 -0.2545 -0.3048
  548SOL    HW1 1643   2.165   1.809   2.695  1.4596 -3.2459  1.4334
  548SOL    HW2 1644   2.267   1.703   2.618  0.0536 -0.5112  0.1717
  549SOL     OW 1645   2.048   0.363   0.733 -0.4329  0.1043  0.0137
  549SOL    HW1 1646   2.029   0.288   0.670  0.5942  3.7226  2.3448
  549SOL    HW2 1647   2.113   0.430   0.701 -2.6698 -2.6193  0.8258
  550SOL     OW 1648   2.475   2.212   0.706  0.1620  0.0187  0.4817
  550SOL    HW1 1649   2.458   2.120   0.748  0.2832 -1.4014  0.9379
  550SOL    HW2 1650   2.436   2.287   0.762  1.4148  0.3283 -0.7205
  551SOL     OW 1651   0.879   3.070   1.481  0.0582  0.2543 -0.4846
  551SOL    HW1 1652   0.961   0.027   1.471  0.0387 -0.8224  0.2673
  551SOL    HW2 1653   0.843   3.031   1.392 -2.3681  0.1400  0.6399
  552SOL     OW 1654   2.953   2.155   2.814 -0.0986 -0.1354  0.1380
  552SOL    HW1 1655   2.993   2.216   2.885  1.1982  0.2497 -1.7505
  552SOL    HW2 1656   3.016   2.140   2.733  3.8117  1.5332  2.8442
  553SOL     OW 1657   0.277   2.844   0.404  0.4980 -0.3907 -0.3242
  553SOL    HW1 1658   0.259   2.946   0.422 -3.9547  5.2428 -1.5992
  553SOL    HW2 1659   0.259   2.782   0.484  0.3842  0.7804  1.7189
  554SOL     OW 1660   2.226   2.248   1.739 -0.0071  0.0065  0.0823
  554SOL    HW1 1661   2.143   2.222   1.687  1.0327 -2.2009 -0.0625
  554SOL    HW2 1662   2.281   2.316   1.688 -0.1951  1.6927 -0.8403
  555SOL     OW 1663   1.116   2.136   1.870  0.3668  0.3584  0.2479
  555SOL    HW1 1664   1.093   2.123   1.774 -2.1303 -0.2549  2.3531
  555SOL    HW2 1665   1.122   2.045   1.920 -0.4594  0.4374  1.7527
  556SOL     OW 1666   1.401   1.565   1.310  0.1633 -0.4000 -0.4444
  556SOL    HW1 1667   1.345   1.600   1.233 -0.6194 -0.1420 -1.1870
  556SOL    HW2 1668   1.467   1.637   1.350  0.8806  1.2497 -1.2000
  557SOL     OW 1669   1.952   2.315   2.126 -0.3069  0.4289 -0.2571
  557SOL    HW1 1670   2.025   2.340   2.056  0.4586 -1.8754  0.0662
  557SOL    HW2 1671   1.999   2.306   2.217  2.9241 -1.8867  1.5348
  558SOL     OW 1672   0.594   3.038   2.244 -0.0064  0.4530 -0.3947
  558SOL    HW1 1673   0.494   3.044   2.221 -0.2594 -0.0560  0.1451
  558SOL    HW2 1674   0.636   0.035   2.249  0.3753  2.1811  1.2435
  559SOL     OW 1675   2.323   2.891   1.084 -0.5758 -0.4285 -0.5848
  559SOL    HW1 1676   2.385   2.889   1.164  1.8455 -0.3133  1.5336
  559SOL    HW2 1677   2.347   2.969   1.023  0.0513 -1.2975 -0.0237
  560SOL     OW 1678   0.993   2.428   0.525  0.3932 -0.3847 -0.2174
  560SOL    HW1 1679   0.929   2.508   0.508  0.4548  1.3185 -0.8057
  560SOL    HW2 1680   0.934   2.344   0.536  0.2585  1.8807  0.1116
  561SOL     OW 1681   0.855   0.458   0.245 -0.3611  0.0051  0.3596
  561SOL    HW1 1682   0.945   0.506   0.224  1.3872  0.7187  1.0157
  561SOL    HW2 1683   0.791   0.522   0.290  0.7121 -1.8329  0.1554
  562SOL     OW 1684   0.761   0.288   2.943 -0.0806  0.3915 -0.7099
  562SOL    HW1 1685   0.775   0.186   2.941  0.0844  0.1463  2.3193
  562SOL    HW2 1686   0.856   0.324   2.952  1.2678 -2.1583 -0.7753
  563SOL     OW 1687   1.524   1.859   2.775  0.0013 -0.1814 -0.1762
  563SOL    HW1 1688   1.598   1.920   2.814  2.6488  2.4259 -1.7494
  563SOL    HW2 1689   1.465   1.922   2.718  2.6709 -1.9321  2.8131
  564SOL     OW 1690   2.799   1.103   0.895 -0.3358 -0.1727  0.5137
  564SOL    HW1 1691   2.900   1.091   0.909 -3.1974 -1.7685  0.7223
  564SOL    HW2 1692   2.766   1.094   0.798 -1.2410 -2.4855  0.5520
  565SOL     OW 1693   1.053   0.295   2.951  0.5728 -0.5200  0.1317
  565SOL    HW1 1694   1.102   0.203   2.950 -0.0848 -1.8286  2.8373
  565SOL    HW2 1695   1.101   0.369   2.900  0.1750  1.6152 -0.6667
  566SOL     OW 1696   1.325   0.147   2.139  0.2237 -0.3403 -0.7311
  566SOL    HW1 1697   1.279   0.226   2.090  1.1442 -1.2544  1.7259
  566SOL    HW2 1698   1.389   0.089   2.083  0.0548  0.2607  1.8705
  567SOL     OW 1699   2.391   1.188   0.681 -0.9240 -0.2625  0.0434
  567SOL    HW1 1700   2.375   1.090   0.651  0.5362 -0.0379  1.2187
  567SOL    HW2 1701   2.389   1.256   0.602  0.3874  0.5080 -0.1919
  568SOL     OW 1702   1.893   1.805   0.442  0.7794  0.1379 -0.6936
  568SOL    HW1 1703   1.987   1.816   0.404 -0.0090  0.3635 -0.1573
  568SOL    HW2 1704   1.848   1.893   0.456  1.8134 -0.1535  1.5205
  569SOL     OW 1705   2.023   1.336   3.091  0.0978 -0.0465 -0.2579
  569SOL    HW1 1706   1.989   1.360   2.995 -0.3497 -0.9290  0.8517
  569SOL    HW2 1707   2.129   1.341   3.096  1.2214 -0.5595 -0.3060
  570SOL     OW 1708   0.376   2.903   1.939  0.3881  0.2415  0.0861
  570SOL    HW1 1709   0.292   2.850   1.922 -0.3306  0.9780  0.2716
  570SOL    HW2 1710   0.400   2.962   1.855  0.5535  4.7843 -0.1489
  571SOL     OW 1711   0.019   0.333   2.349 -0.3909 -0.2124 -0.3689
  571SOL    HW1 1712   0.042   0.397   2.277  2.2285 -1.7415 -0.1261
  571SOL    HW2 1713   3.036   0.371   2.404 -2.7903  0.6264  1.3028
  572SOL     OW 1714   0.896   1.622   0.807 -0.2930 -0.2914 -0.2915
  572SOL    HW1 1715   0.807   1.649   0.844 -3.3177  1.2154 -1.1607
  572SOL    HW2 1716   0.962   1.700   0.801  1.5461 -0.4371 -0.4133
  573SOL     OW 1717   1.337   2.294   0.316 -0.7936  0.3726 -0.3656
  573SOL    HW1 1718   1.423   2.351   0.301  1.6200 -0.3075  0.5453
  573SOL    HW2 1719   1.303   2.309   0.408  3.9258 -2.6854 -4.3282
  574SOL     OW 1720   0.968   0.331   0.923  0.0084 -0.2335  0.0263
  574SOL    HW1 1721   1.013   0.315   1.013 -0.3301 -0.9680  2.3353
  574SOL    HW2 1722   0.905   0.257   0.893 -0.5752  0.6818  1.6331
  575SOL     OW 1723   3.024   1.052   1.389 -0.5358 -0.0587 -0.0957
  575SOL    HW1 1724   2.969   1.038   1.304 -0.2164  1.1608 -1.7529
  575SOL    HW2 1725   2.985   1.130   1.443 -1.4478  0.7148 -0.7445
  576SOL     OW 1726   1.604   0.100   1.620 -0.6121  0.8893 -0.3519
  576SOL    HW1 1727   1.567   0.185   1.573  0.7272 -2.2899 -0.7003
  576SOL    HW2 1728   1.656   0.055   1.546  2.0926  0.1285 -2.4178
  577SOL     OW 1729   0.157   0.962   2.048 -0.0426 -0.0871 -0.1931
  577SOL    HW1 1730   0.139   0.899   2.126 -1.7518 -3.4313 -3.0054
  577SOL    HW2 1731   0.213   1.044   2.074 -1.8881 -0.0907 -0.8788
  578SOL     OW 1732   1.970   0.308   2.729 -0.0678  0.3079  0.4690
  578SOL    HW1 1733   1.990   0.406   2.748 -1.7648  3.1308 -0.0716
  578SOL    HW2 1734   1.905   0.273   2.797 -2.3487 -0.0242  1.4761
  579SOL     OW 1735   2.205   1.838   1.971  0.2838  0.1399 -0.7241
  579SOL    HW1 1736   2.293   1.825   1.916  2.9919 -0.3012  1.0899
  579SOL    HW2 1737   2.216   1.921   2.027  0.5567  1.3550  0.3455
  580SOL     OW 1738   1.899   1.365   2.858 -0.1516  0.3140  0.0740
  580SOL    HW1 1739   1.833   1.441   2.836  1.0595  0.7630  2.7609
  580SOL    HW2 1740   1.857   1.278   2.823 -0.1080 -2.9990  0.8900
  581SOL     OW 1741   1.292   1.142   2.868  0.3309  0.1056 -0.4462
  581SOL    HW1 1742   1.279   1.045   2.907 -2.9728 -2.6046  2.0221
  581SOL    HW2 1743   1.272   1.157   2.768  1.9717  0.5005  0.1653
  582SOL     OW 1744   0.845   1.803   1.357 -0.0169 -0.3071  0.6908
  582SOL    HW1 1745   0.771   1.826   1.423  3.6964 -1.3717 -1.7210
  582SOL    HW2 1746   0.928   1.804   1.411 -1.7116 -0.9245  0.4840
  583SOL     OW 1747   1.507   1.182   1.264  0.1988 -0.3569  0.1463
  583SOL    HW1 1748   1.457   1.164   1.173  1.2138  2.9487 -0.6015
  583SOL    HW2 1749   1.534   1.276   1.261 -0.3470 -1.8832  1.5224
  584SOL     OW 1750   1.923   2.404   0.680  0.5912 -0.1224 -0.0614
  584SOL    HW1 1751   1.825   2.413   0.651  1.8472  1.8695 -1.8714
  584SOL    HW2 1752   1.939   2.456   0.765  1.3721 -1.6797 -2.3647
  585SOL     OW 1753   2.166   2.746   2.892 -0.2205  0.3582  0.0964
  585SOL    HW1 1754   2.116   2.835   2.888  1.5504  1.4162 -0.6342
  585SOL    HW2 1755   2.174   2.706   2.800  1.1371  2.2369 -0.8547
  586SOL     OW 1756   2.903   2.203   0.879 -0.0979 -0.5189  0.1187
  586SOL    HW1 1757   2.884   2.264   0.800  0.2550 -0.9529  3.1969
  586SOL    HW2 1758   2.923   2.259   0.964 -0.3028  1.8500  0.9546
  587SOL     OW 1759   0.986   1.757   0.131  0.0019 -0.4901  0.3701
  587SOL    HW1 1760   1.076   1.802   0.143 -1.9538 -0.6924  0.4827
  587SOL    HW2 1761   0.958   1.761   0.036 -0.6653 -1.0315 -0.3223
  588SOL     OW 1762   0.536   0.096   1.030 -0.2930  0.2321  0.1070
  588SOL    HW1 1763   0.543   0.077   1.129  1.5103 -2.3723  2.0924
  588SOL    HW2 1764   0.504   0.194   1.006  0.5944  0.6336 -2.4080
  589SOL     OW 1765   1.204   0.644   0.660 -0.6456  0.3564 -0.3367
  589SOL    HW1 1766   1.198   0.630   0.763 -0.2687 -1.0839  0.8605
  589SOL    HW2 1767   1.108   0.650   0.625  2.5885 -0.7352  2.5515
  590SOL     OW 1768   1.960   2.468   0.005 -0.2678  0.0771  0.4914
  590SOL    HW1 1769   1.996   2.486   0.098  0.8947  1.5331  1.0281
  590SOL    HW2 1770   1.885   2.535   3.095 -0.0633  1.8597  2.4178
  591SOL     OW 1771   0.463   2.440   2.552 -0.6999 -0.5329 -0.0188
  591SOL    HW1 1772   0.537   2.470   2.617 -1.6057 -0.7002  2.0376
  591SOL    HW2 1773   0.466   2.501   2.471 -0.9873  1.2716  1.6059
  592SOL     OW 1774   2.907   1.496   2.103 -0.4935 -0.8724  0.3314
  592SOL    HW1 1775   2.929   1.403   2.140 -0.1670  0.6678  0.4375
  592SOL    HW2 1776   2.838   1.487   2.026 -2.3925 -1.5595  1.0833
  593SOL     OW 1777   1.748   1.411   1.443 -0.0013  0.2242  0.3406
  593SOL    HW1 1778   1.810   1.334   1.459  1.0215  1.8687 -0.8226
  593SOL    HW2 1779   1.724   1.417   1.342 -0.4831 -1.1689 -3.4359
  594SOL     OW 1780   2.631   1.125   2.753  0.6571  0.2649  0.1152
  594SOL    HW1 1781   2.642   1.182   2.834  1.3581 -1.0161  0.7736
  594SOL    HW2 1782   2.723   1.088   2.731  2.8830 -3.1070 -0.6556
  595SOL     OW 1783   0.854   1.012   0.396 -0.0752  0.5999 -0.6217
  595SOL    HW1 1784   0.787   1.083   0.435  0.5414  1.1156  0.8672
  595SOL    HW2 1785   0.802   0.958   0.328 -0.0704  1.1253 -0.6353
  596SOL     OW 1786   2.897   1.402   1.362  0.5238 -0.3425 -0.1307
  596SOL    HW1 1787   2.849   1.327   1.305 -0.7417  0.9744 -3.1069
  596SOL    HW2 1788   2.969   1.443   1.308 -2.3566 -0.5383  2.7300
  597SOL     OW 1789   0.926   2.071   1.319 -0.6077  0.2735  0.0712
  597SOL    HW1 1790   0.857   2.132   1.277 -0.8643 -1.9441 -0.8216
  597SOL    HW2 1791   0.885   1.980   1.343 -1.3515  2.1087  1.7340
  598SOL     OW 1792   2.590   2.630   1.860 -0.4450 -0.2923  0.4122
  598SOL    HW1 1793   2.625   2.554   1.803 -0.7377  2.6233  0.1386
  598SOL    HW2 1794   2.665   2.682   1.911  0.6571  1.7134  0.2672
  599SOL     OW 1795   0.427   1.346   2.622  0.2721 -0.1692 -0.4697
  599SOL    HW1 1796   0.456   1.438   2.588  2.1490 -0.7107 -1.3316
  599SOL    HW2 1797   0.502   1.283   2.600 -1.7899  0.1485  0.3500
  600SOL     OW 1798   0.554   0.778   0.017 -0.3794 -0.2594  0.0398
  600SOL    HW1 1799   0.614   0.690   0.015  1.5024  0.2426 -0.2990
  600SOL    HW2 1800   0.508   0.780   0.103  3.1754  1.2954 -3.3112
  601SOL     OW 1801   0.599   0.697   1.766 -0.1886 -0.1267  0.4719
  601SOL    HW1 1802   0.647   0.645   1.840  2.4626  0.9954 -1.1298
  601SOL    HW2 1803   0.530   0.760   1.798 -0.2934  0.0504 -2.0828
  602SOL     OW 1804   0.422   2.620   0.299 -0.4375 -0.2036 -0.1870
  602SOL    HW1 1805   0.412   2.721   0.321  0.1954 -0.4809  0.6764
  602SOL    HW2 1806   0.434   2.608   0.200 -1.6121 -0.3412  2.1882
  603SOL     OW 1807   1.369   2.739   2.137 -0.6748  0.2808  0.4911
  603SOL    HW1 1808   1.269   2.748   2.140  0.5272  2.3829 -0.7605
  603SOL    HW2 1809   1.394   2.666   2.066 -1.5294 -2.6409 -0.9943
  604SOL     OW 1810   0.369   2.364   2.947 -0.4639 -0.0407  0.4384
  604SOL    HW1 1811   0.344   2.266   2.924 -0.8213 -0.5169 -1.8374
  604SOL    HW2 1812   0.283   2.403   2.983 -1.5923 -0.0593 -1.6846
  605SOL     OW 1813   2.153   0.961   1.535  0.4675 -0.3525  0.4082
  605SOL    HW1 1814   2.063   0.937   1.492  0.5636 -0.5840  1.2251
  605SOL    HW2 1815   2.187   1.048   1.492  0.7191  2.5368  1.9489
  606SOL     OW 1816   0.706   0.741   2.666 -0.2035 -0.3102  0.3045
  606SOL    HW1 1817   0.731   0.738   2.765  0.8451  1.1679  0.9843
  606SOL    HW2 1818   0.740   0.653   2.628 -1.2629  0.4509 -0.2877
  607SOL     OW 1819   0.703   0.382   1.142  0.9361 -0.0598  0.4530
  607SOL    HW1 1820   0.727   0.344   1.229 -1.6326  0.5596  0.1040
  607SOL    HW2 1821   0.746   0.471   1.127 -2.6598  1.2912  2.1296
  608SOL     OW 1822   2.810   1.952   1.723  0.6169 -0.4918 -0.5280
  608SOL    HW1 1823   2.741   2.025   1.754  0.6112  1.9364 -2.0078
  608SOL    HW2 1824   2.816   1.945   1.621 -0.0091  1.9690 -0.9683
  609SOL     OW 1825   2.364   0.249   0.170 -0.0672  0.2685 -0.1642
  609SOL    HW1 1826   2.357   0.332   0.108  1.2671  0.7927  1.7110
  609SOL    HW2 1827   2.270   0.213   0.188  0.1539  0.9315  0.0616
  610SOL     OW 1828   3.090   2.839   1.446  0.1123 -0.0434 -0.0361
  610SOL    HW1 1829   3.071   2.926   1.489  2.0753 -0.6571  0.0410
  610SOL    HW2 1830   3.057   2.841   1.350 -0.2004  2.0683  0.4258
  611SOL     OW 1831   1.694   2.254   0.118  0.3507 -0.0561  0.2287
  611SOL    HW1 1832   1.684   2.168   0.164 -1.5817  1.9217  0.0221
  611SOL    HW2 1833   1.772   2.247   0.051 -1.8089  1.5600 -3.2179
  612SOL     OW 1834   0.660   0.268   1.918 -0.7036  0.1237 -0.4607
  612SOL    HW1 1835   0.625   0.191   1.866  1.7500 -0.4568 -0.3814
  612SOL    HW2 1836   0.696   0.335   1.853 -1.7324 -0.9037  0.1323
  613SOL     OW 1837   0.170   2.207   0.753 -0.3401 -0.3826  0.6684
  613SOL    HW1 1838   0.096   2.248   0.697 -0.2626 -2.4758 -1.4368
  613SOL    HW2 1839   0.258   2.260   0.750  0.8239 -0.1515  2.1466
  614SOL     OW 1840   1.679   0.457   1.894 -0.2147 -0.0029 -0.2827
  614SOL    HW1 1841   1.778   0.486   1.887 -2.3587 -2.8263 -1.7077
  614SOL    HW2 1842   1.673   0.362   1.926 -1.0411 -0.3476  0.4765
  615SOL     OW 1843   1.609   1.359   0.678 -0.4353  0.2431 -0.2250
  615SOL    HW1 1844   1.699   1.325   0.639 -2.2304  0.7019 -0.3238
  615SOL    HW2 1845   1.627   1.456   0.720  3.6336  2.3061  3.4922
  616SOL     OW 1846   2.038   1.479   0.366  0.1550 -0.2629  0.1025
  616SOL    HW1 1847   1.958   1.518   0.406  2.2552  0.0212 -0.3717
  616SOL    HW2 1848   2.120   1.532   0.388  0.0427 -1.5914  1.0969
  617SOL     OW 1849   1.470   0.648   0.109  0.1580 -0.2572 -0.0421
  617SOL    HW1 1850   1.374   0.684   0.122 -1.4246  2.6385  0.4166
  617SOL    HW2 1851   1.530   0.730   0.095 -0.2550 -4.1873 -1.1768
  618SOL     OW 1852   0.546   0.599   2.236  0.6756 -0.4317  0.2089
  618SOL    HW1 1853   0.584   0.544   2.314 -1.2326 -0.0341  0.7972
  618SOL    HW2 1854   0.521   0.541   2.155  1.3947  1.6251 -2.5977
  619SOL     OW 1855   0.003   1.569   1.295 -0.4814  0.6739  0.6222
  619SOL    HW1 1856   0.063   1.621   1.354 -1.4945 -1.1221 -3.6604
  619SOL    HW2 1857   0.020   1.595   1.195  1.7531  0.7344 -1.4313
  620SOL     OW 1858   2.307   2.842   2.491 -0.1423  0.5214  0.2622
  620SOL    HW1 1859   2.348   2.853   2.400  1.3300  0.4946  3.6515
  620SOL    HW2 1860   2.315   2.933   2.541  2.3387  0.3320  0.5333
  621SOL     OW 1861   2.813   1.745   0.166  0.7462 -0.1310  0.3104
  621SOL    HW1 1862   2.740   1.738   0.094 -0.9069  1.5768  1.8789
  621SOL    HW2 1863   2.801   1.841   0.201 -0.0647 -1.4205 -2.2862
  622SOL     OW 1864   1.434   0.101   2.614 -0.1481 -0.0187 -0.3214
  622SOL    HW1 1865   1.388   0.020   2.578 -1.5697  1.9103 -1.7612
  622SOL    HW2 1866   1.435   0.166   2.533 -0.0838 -1.1901  0.3535
  623SOL     OW 1867   0.767   2.255   1.218  0.6453 -0.2472  0.3757
  623SOL    HW1 1868   0.698   2.285   1.292  2.4105 -0.8524  4.4136
  623SOL    HW2 1869   0.845   2.326   1.218  0.4701 -2.8851 -3.2185
  624SOL     OW 1870   2.932   2.854   0.008  0.0437  0.0504  0.0277
  624SOL    HW1 1871   2.928   2.780   3.036  2.1880  0.6131  0.5784
  624SOL    HW2 1872   2.956   2.943   3.068 -0.1397 -1.0798  1.9859
  625SOL     OW 1873   0.760   2.269   0.585 -0.4289  0.0957  0.2744
  625SOL    HW1 1874   0.713   2.180   0.597  1.9628  1.6615  0.7534
  625SOL    HW2 1875   0.703   2.346   0.546 -0.2235  2.5608 -0.5896
  626SOL     OW 1876   0.002   0.663   2.671  0.6148 -0.0592  0.7571
  626SOL    HW1 1877   0.004   0.727   2.751  1.5279  2.4175 -0.1246
  626SOL    HW2 1878   0.022   0.571   2.710  0.5285  3.0245  0.1770
  627SOL     OW 1879   1.358   1.979   3.017 -0.3614  0.2683  0.1993
  627SOL    HW1 1880   1.408   2.067   3.046 -2.8635  1.3302  0.2876
  627SOL    HW2 1881   1.288   1.994   2.942 -2.0205 -0.1100 -4.2554
  628SOL     OW 1882   3.049   2.281   3.028 -0.6276  0.0478  0.1473
  628SOL    HW1 1883   0.036   2.344   3.030  2.3355  0.5662  2.0651
  628SOL    HW2 1884   3.048   2.221   0.014  1.5979  2.4753  1.4042
  629SOL     OW 1885   0.901   2.844   2.689  0.4054  0.0515  0.8639
  629SOL    HW1 1886   0.919   2.765   2.626  1.4125 -0.3101 -1.4575
  629SOL    HW2 1887   0.828   2.905   2.646 -2.3061 -0.5568  0.5106
  630SOL     OW 1888   1.280   0.534   1.730  0.4528 -0.0677  0.1774
  630SOL    HW1 1889   1.218   0.454   1.741  0.2096 -1.8688  1.5372
  630SOL    HW2 1890   1.233   0.624   1.758 -0.6874  1.8639  0.3087
  631SOL     OW 1891   2.027   0.966   0.422 -0.0896  0.4542 -0.1361
  631SOL    HW1 1892   2.065   1.060   0.409 -0.5222  1.3910  0.5415
  631SOL    HW2 1893   1.966   0.968   0.499  3.0117  0.9923 -1.5349
  632SOL     OW 1894   2.627   0.205   1.870  0.7141  0.1514  0.4014
  632SOL    HW1 1895   2.661   0.257   1.794 -0.2396 -0.9446  2.2563
  632SOL    HW2 1896   2.601   0.110   1.848  0.6753 -1.1544  0.2816
  633SOL     OW 1897   0.973   1.388   0.349  0.7007  0.0380  0.4086
  633SOL    HW1 1898   0.938   1.461   0.414  0.3760  1.0970  0.0060
  633SOL    HW2 1899   1.015   1.311   0.402 -0.5264  0.3096 -0.2700
  634SOL     OW 1900   2.618   2.681   2.340  0.0963 -0.6307  0.2328
  634SOL    HW1 1901   2.611   2.585   2.316  1.8017  1.9055  2.9439
  634SOL    HW2 1902   2.543   2.734   2.292  0.5202  3.0175  1.1098
  635SOL     OW 1903   1.891   0.600   0.463 -0.0547 -0.3457  0.2468
  635SOL    HW1 1904   1.788   0.608   0.473 -2.6294  1.1247  2.8841
  635SOL    HW2 1905   1.935   0.653   0.542 -0.3289 -1.9429  0.2589
  636SOL     OW 1906   0.697   1.392   0.948  0.3643 -0.0006 -0.2540
  636SOL    HW1 1907   0.691   1.494   0.955 -0.8662  0.0956 -0.3029
  636SOL    HW2 1908   0.724   1.366   0.856  0.0308  2.2681 -0.8449
  637SOL     OW 1909   2.782   2.001   0.244  0.9839 -0.0323  0.0940
  637SOL    HW1 1910   2.849   1.998   0.321 -1.1393 -0.1309  0.5656
  637SOL    HW2 1911   2.774   2.099   0.208  1.3281 -0.5099  1.1174
  638SOL     OW 1912   1.510   2.535   2.283 -0.1310 -0.2601 -0.3145
  638SOL    HW1 1913   1.450   2.614   2.251 -0.0860 -1.1851  1.9715
  638SOL    HW2 1914   1.600   2.571   2.312 -0.2757  2.0767  1.6045
  639SOL     OW 1915   1.504   1.972   0.408 -0.0624 -0.0078 -0.1797
  639SOL    HW1 1916   1.423   1.959   0.356  1.3135  1.1203 -0.1586
  639SOL    HW2 1917   1.523   1.890   0.467 -0.0782 -3.7786  2.4608
  640SOL     OW 1918   2.017   0.178   0.534 -0.5225 -0.0432 -0.4389
  640SOL    HW1 1919   2.096   0.123   0.570  0.1856  0.3382  1.7684
  640SOL    HW2 1920   2.024   0.204   0.432 -1.7913 -0.0180 -0.7245
  641SOL     OW 1921   2.921   0.133   0.521  0.0319 -0.0138 -0.4217
  641SOL    HW1 1922   2.937   0.193   0.604  0.8699  1.8242 -1.0458
  641SOL    HW2 1923   2.975   0.171   0.439  0.7999 -0.3341  0.0540
  642SOL     OW 1924   0.494   0.591   1.319 -0.1480 -0.6421  0.5217
  642SOL    HW1 1925   0.581   0.588   1.265  3.1348  0.4024 -0.3074
  642SOL    HW2 1926   0.416   0.547   1.265 -1.0849 -2.1305  0.0535
  643SOL     OW 1927   0.874   1.192   2.170 -0.0671 -0.1423  0.1642
  643SOL    HW1 1928   0.882   1.207   2.269 -0.2172 -0.3123 -2.6450
  643SOL    HW2 1929   0.778   1.200   2.141 -0.2601 -0.4881  2.3575
  644SOL     OW 1930   1.523   2.179   0.573  0.3323  0.1340  0.3698
  644SOL    HW1 1931   1.517   2.096   0.515 -0.2139 -1.7144  1.2347
  644SOL    HW2 1932   1.438   2.239   0.570 -0.0033  1.9394 -0.2447
  645SOL     OW 1933   1.715   2.003   0.239  0.0624 -0.6544  1.2712
  645SOL    HW1 1934   1.694   1.926   0.169 -0.5383 -1.7251  0.7866
  645SOL    HW2 1935   1.648   1.995   0.315 -1.7017  1.6019  2.2787
  646SOL     OW 1936   3.047   1.530   2.769  0.1374 -0.1333 -0.2687
  646SOL    HW1 1937   2.961   1.479   2.746 -1.2844  0.1175  0.5247
  646SOL    HW2 1938   0.028   1.503   2.714 -2.2241  0.1180  0.7951
  647SOL     OW 1939   0.820   0.567   0.919  0.0983  0.3041  0.3483
  647SOL    HW1 1940   0.861   0.475   0.946  0.7497 -2.0416  1.1814
  647SOL    HW2 1941   0.733   0.548   0.869 -0.5574 -1.0506 -1.3281
  648SOL     OW 1942   1.370   0.729   1.183 -0.3998 -0.4370 -0.1413
  648SOL    HW1 1943   1.409   0.764   1.095  2.6857 -3.1275 -1.8970
  648SOL    HW2 1944   1.433   0.751   1.266  2.9249  0.5456  2.0719
  649SOL     OW 1945   0.923   1.725   0.392  0.2320  0.6074 -0.2833
  649SOL    HW1 1946   0.955   1.733   0.298  0.6028  0.8089 -2.1471
  649SOL    HW2 1947   0.998   1.760   0.454 -1.8736  0.6093 -0.4151
  650SOL     OW 1948   2.519   1.472   2.128  0.1808 -0.0479 -0.1095
  650SOL    HW1 1949   2.439   1.491   2.068 -1.9309 -0.5719  0.7412
  650SOL    HW2 1950   2.606   1.486   2.079  1.4070 -0.0362 -1.5226
  651SOL     OW 1951   1.602   2.273   2.781  0.2885 -0.0441 -0.5276
  651SOL    HW1 1952   1.670   2.212   2.738  0.0013  0.6963 -1.5364
  651SOL    HW2 1953   1.522   2.297   2.724 -0.4437  0.4155  2.8551
  652SOL     OW 1954   2.575   1.789   0.041 -0.3401  0.5005 -0.7237
  652SOL    HW1 1955   2.501   1.768   3.071 -0.0462 -0.9875 -0.3420
  652SOL    HW2 1956   2.547   1.857   0.111  0.6422 -0.1810 -0.8987
  653SOL     OW 1957   0.202   0.239   0.871  0.7674 -0.0133 -0.2079
  653SOL    HW1 1958   0.129   0.299   0.908 -1.2933  0.0013 -0.2509
  653SOL    HW2 1959   0.230   0.173   0.942 -0.3754 -1.4059 -0.7221
  654SOL     OW 1960   2.557   3.073   2.181 -0.3118  0.6495  0.2888
  654SOL    HW1 1961   2.641   3.082   2.237  2.3310 -1.1822 -0.2238
  654SOL    HW2 1962   2.579   3.083   2.083 -0.2786  1.1354  1.5116
  655SOL     OW 1963   0.479   2.964   0.863  0.1919  0.0585 -0.4599
  655SOL    HW1 1964   0.383   2.954   0.830  1.3030  5.2157  0.5349
  655SOL    HW2 1965   0.485   3.050   0.918 -1.3764  0.0971 -1.5810
  656SOL     OW 1966   3.049   2.831   2.490  0.2671  0.3384  0.3661
  656SOL    HW1 1967   2.968   2.852   2.433  1.8193 -0.6738  0.1687
  656SOL    HW2 1968   0.004   2.919   2.517 -1.2633  1.1820  0.1589
  657SOL     OW 1969   2.797   0.872   2.973 -0.0459  0.4967  0.1477
  657SOL    HW1 1970   2.823   0.916   2.881 -0.8585  0.0759 -0.9603
  657SOL    HW2 1971   2.874   0.833   3.026 -0.7836 -1.1880 -1.9816
  658SOL     OW 1972   2.401   2.088   1.188 -0.5832  0.0367 -0.3289
  658SOL    HW1 1973   2.381   2.149   1.267 -2.1825  1.7641 -0.1162
  658SOL    HW2 1974   2.404   1.989   1.216 -0.0687 -0.3035 -0.3196
  659SOL     OW 1975   1.875   2.775   0.507 -0.2427  0.0437 -0.1622
  659SOL    HW1 1976   1.963   2.722   0.502 -0.3980  0.2796  2.5847
  659SOL    HW2 1977   1.795   2.706   0.495 -2.3885 -1.8993 -1.1612
  660SOL     OW 1978   1.523   1.281   2.671  0.3016  0.0176 -0.1592
  660SOL    HW1 1979   1.558   1.299   2.576 -2.0619 -2.0059 -2.3901
  660SOL    HW2 1980   1.422   1.266   2.663 -0.8851  0.0509  0.6354
  661SOL     OW 1981   2.855   2.110   1.173  0.1698  0.6084  0.5386
  661SOL    HW1 1982   2.762   2.134   1.142  0.5719 -0.7218 -0.4445
  661SOL    HW2 1983   2.927   2.124   1.099 -0.3018 -0.2888 -1.7306
  662SOL     OW 1984   0.380   0.751   0.230 -0.0574  0.3265 -0.7723
  662SOL    HW1 1985   0.309   0.824   0.220 -0.6030  1.1171 -0.0039
  662SOL    HW2 1986   0.381   0.712   0.327 -2.8063 -0.1469  0.6461
  663SOL     OW 1987   2.112   2.092   1.142 -0.1586 -0.1050 -0.6465
  663SOL    HW1 1988   2.078   2.148   1.223 -0.1276  2.8154  0.3014
  663SOL    HW2 1989   2.210   2.066   1.145 -2.8715  1.7336 -1.7183
  664SOL     OW 1990   0.931   1.605   1.177 -0.5455 -0.0181  0.2920
  664SOL    HW1 1991   1.028   1.631   1.170 -2.1208 -0.3768  0.9889
  664SOL    HW2 1992   0.881   1.669   1.236 -0.9063 -0.0233 -0.7857
  665SOL     OW 1993   1.732   2.492   1.900 -0.6228  0.4529 -0.1356
  665SOL    HW1 1994   1.743   2.591   1.917 -3.0438 -2.3111  1.5836
  665SOL    HW2 1995   1.712   2.444   1.985 -0.6332 -0.9800 -2.8824
  666SOL     OW 1996   2.719   2.606   0.339 -0.2141  0.2662 -0.2356
  666SOL    HW1 1997   2.742   2.707   0.320 -0.9694 -0.4494 -1.2765
  666SOL    HW2 1998   2.618   2.594   0.339  0.3565  1.3573  4.1234
  667SOL     OW 1999   2.720   1.510   1.925 -0.9242  0.5158 -0.9090
  667SOL    HW1 2000   2.721   1.578   1.849  1.3765  0.7026  0.0901
  667SOL    HW2 2001   2.697   1.422   1.887  0.6587 -1.4757 -1.2735
  668SOL     OW 2002   0.384   0.538   2.643  0.4063  0.5171 -0.1080
  668SOL    HW1 2003   0.424   0.620   2.692  2.4061  2.3167  0.1237
  668SOL    HW2 2004   0.286   0.554   2.619  1.1578 -0.4502 -0.0165
  669SOL     OW 2005   1.878   2.227   3.013  0.6719 -0.8406  0.1756
  669SOL    HW1 2006   1.939   2.183   2.941 -0.3423 -1.6202  1.9965
  669SOL    HW2 2007   1.926   2.314   3.043  3.1370 -0.8189 -1.8539
  670SOL     OW 2008   2.421   1.678   2.527 -0.0414 -0.3407  0.3157
  670SOL    HW1 2009   2.496   1.641   2.587  1.7257  0.5122  0.6140
  670SOL    HW2 2010   2.377   1.603   2.472  0.8341 -0.9773  1.7863
  671SOL     OW 2011   0.187   1.738   0.753 -0.0010  0.2960 -0.0979
  671SOL    HW1 2012   0.197   1.745   0.651 -1.7552 -0.9469  1.0944
  671SOL    HW2 2013   0.091   1.760   0.778  1.2210  1.5347 -1.8938
  672SOL     OW 2014   2.453   0.613   2.031  0.6326  0.0642  0.1309
  672SOL    HW1 2015   2.382   0.683   2.062 -2.5489  0.9184 -0.9374
  672SOL    HW2 2016   2.528   0.655   1.976  2.9355  0.9247 -0.4820
  673SOL     OW 2017   2.388   2.509   2.088 -1.1000  0.0151  0.4756
  673SOL    HW1 2018   2.483   2.474   2.109  2.6949 -1.1540 -1.2822
  673SOL    HW2 2019   2.403   2.596   2.040  1.0545  1.1267  0.0455
  674SOL     OW 2020   1.410   2.611   1.623 -0.2540 -0.0950  0.3786
  674SOL    HW1 2021   1.457   2.522   1.640  4.6935 -1.0213 -1.9665
  674SOL    HW2 2022   1.319   2.627   1.673  0.5861  1.8747 -0.0556
  675SOL     OW 2023   0.599   0.959   1.057  0.3700  0.3909  0.2659
  675SOL    HW1 2024   0.536   1.036   1.036 -2.1148 -2.8373  0.4914
  675SOL    HW2 2025   0.695   0.995   1.043  1.1378  0.7771  1.0560
  676SOL     OW 2026   1.833   1.221   0.543  0.5099  0.1328  0.2749
  676SOL    HW1 2027   1.823   1.124   0.555 -0.4859  3.1380 -2.8741
  676SOL    HW2 2028   1.895   1.263   0.615 -1.0884  2.6838  0.1792
  677SOL     OW 2029   2.928   1.272   2.480  0.3437  0.0945 -0.0754
  677SOL    HW1 2030   2.860   1.321   2.537 -1.3198 -1.9336 -1.7586
  677SOL    HW2 2031   2.871   1.207   2.425  0.0146 -0.2731  1.4009
  678SOL     OW 2032   2.660   1.856   1.155 -0.1186  0.3870  0.2175
  678SOL    HW1 2033   2.728   1.828   1.225 -1.9859 -0.8380  0.1003
  678SOL    HW2 2034   2.568   1.859   1.198 -2.6886  0.4925  1.7178
  679SOL     OW 2035   2.088   2.597   0.504  0.5143  0.1983 -0.1395
  679SOL    HW1 2036   2.189   2.593   0.520  0.6649  1.8446  0.4870
  679SOL    HW2 2037   2.029   2.525   0.550  0.7335  2.2559  0.4283
  680SOL     OW 2038   0.034   2.199   2.040  0.3844 -0.2319  0.1630
  680SOL    HW1 2039   0.034   2.121   1.975 -1.9608  1.7259 -0.4772
  680SOL    HW2 2040   0.121   2.238   2.070 -1.4695  2.5882 -0.1064
  681SOL     OW 2041   0.032   1.277   1.772 -0.1137  0.4543  0.4332
  681SOL    HW1 2042   0.129   1.253   1.744  1.9855 -0.2507  0.2744
  681SOL    HW2 2043   0.037   1.368   1.818 -1.2062 -0.8990 -2.4750
  682SOL     OW 2044   1.154   2.541   0.988 -0.2461 -0.4793  0.2792
  682SOL    HW1 2045   1.246   2.550   1.026  1.0426 -0.4336 -0.1237
  682SOL    HW2 2046   1.110   2.633   0.974  0.5631  1.5942 -1.5332
  683SOL     OW 2047   2.269   1.037   1.235 -0.0240  0.0027 -0.5918
  683SOL    HW1 2048   2.189   1.092   1.265 -1.5131 -0.6911 -0.3155
  683SOL    HW2 2049   2.356   1.090   1.233 -1.5729 -2.5084  0.1774
  684SOL     OW 2050   0.612   1.841   2.619  0.1625  0.2445 -0.0026
  684SOL    HW1 2051   0.697   1.806   2.658  0.9188 -0.0319 -0.1855
  684SOL    HW2 2052   0.606   1.941   2.633  1.0047  0.1141  0.1749
  685SOL     OW 2053   1.474   1.565   3.082  0.0307  0.6956 -0.1254
  685SOL    HW1 2054   1.473   1.481   3.026  0.0629 -0.1384  2.5175
  685SOL    HW2 2055   1.570   1.580   0.019  1.0289  0.7689  0.2418
  686SOL     OW 2056   2.931   0.665   1.210  0.2250 -0.1996 -0.1293
  686SOL    HW1 2057   2.927   0.718   1.300 -2.6209  0.6678  1.5433
  686SOL    HW2 2058   2.977   0.719   1.133 -0.4926 -0.0528 -4.5493
  687SOL     OW 2059   1.172   2.317   2.789 -0.2785  0.4686 -0.2349
  687SOL    HW1 2060   1.097   2.373   2.750 -0.7507 -1.3888  2.7281
  687SOL    HW2 2061   1.140   2.221   2.806 -2.3658 -0.1699 -0.8426
  688SOL     OW 2062   0.172   1.874   1.975 -0.0785 -0.0526 -0.0434
  688SOL    HW1 2063   0.236   1.926   1.913  0.8003  2.4568 -2.5464
  688SOL    HW2 2064   0.076   1.879   1.946 -1.5871  0.5335 -1.1220
  689SOL     OW 2065   1.908   0.738   1.837  0.3776 -0.4997  0.0293
  689SOL    HW1 2066   1.837   0.758   1.911  1.1621  2.3741 -0.5612
  689SOL    HW2 2067   1.950   0.647   1.855 -0.4289  2.4886 -0.3138
  690SOL     OW 2068   2.368   0.643   0.898 -0.1216 -0.0847  0.3155
  690SOL    HW1 2069   2.279   0.605   0.936 -0.6560  2.0759  0.1291
  690SOL    HW2 2070   2.397   0.719   0.959 -0.5862  0.8498  1.6674
  691SOL     OW 2071   0.702   1.819   1.590 -0.4092 -0.0637  0.2973
  691SOL    HW1 2072   0.742   1.740   1.644  1.8072 -0.4535 -0.9590
  691SOL    HW2 2073   0.711   1.905   1.637 -0.5514  0.0571 -1.9309
  692SOL     OW 2074   1.844   0.256   1.401  1.1907  0.3723  0.6325
  692SOL    HW1 2075   1.851   0.167   1.445  0.7466  1.8988  0.9543
  692SOL    HW2 2076   1.769   0.252   1.333  0.8321 -0.3995  1.3870
  693SOL     OW 2077   0.332   0.743   2.382 -0.5090 -0.2238 -0.0157
  693SOL    HW1 2078   0.267   0.668   2.414 -2.5267  1.9073 -0.6812
  693SOL    HW2 2079   0.420   0.707   2.339  0.2407 -1.2540  0.0633
  694SOL     OW 2080   1.640   0.245   1.224  0.1386 -0.1598  0.0148
  694SOL    HW1 2081   1.567   0.315   1.199  2.2933  1.0240  2.2659
  694SOL    HW2 2082   1.686   0.190   1.145  3.5411 -0.2729 -2.1905
  695SOL     OW 2083   1.299   1.186   1.691 -0.4605  0.1928  0.7009
  695SOL    HW1 2084   1.264   1.181   1.594 -0.9683 -2.5177 -2.1324
  695SOL    HW2 2085   1.248   1.122   1.746 -1.3825  0.3479  0.3580
  696SOL     OW 2086   1.501   3.076   0.366  0.0699 -0.2266 -0.2294
  696SOL    HW1 2087   1.471   2.980   0.361 -0.7370  1.8952 -1.2864
  696SOL    HW2 2088   1.525   0.019   0.275  2.5010  1.3310 -2.9143
  697SOL     OW 2089   0.660   0.565   0.637 -0.1223 -0.3223 -0.1697
  697SOL    HW1 2090   0.698   0.664   0.634  0.7432  2.4109  1.0640
  697SOL    HW2 2091   0.729   0.495   0.608  0.6686 -0.3191  2.4798
  698SOL     OW 2092   1.272   1.182   2.616  0.1859 -0.2406  0.1630
  698SOL    HW1 2093   1.190   1.197   2.552 -1.4408  0.6760 -3.9789
  698SOL    HW2 2094   1.314   1.091   2.597 -0.3104 -0.7320  1.5522
  699SOL     OW 2095   1.658   1.460   1.166  0.0768 -0.4227 -0.2408
  699SOL    HW1 2096   1.586   1.531   1.191 -1.8434  3.3331 -0.0718
  699SOL    HW2 2097   1.644   1.414   1.074  2.6755  0.7907 -3.7651
  700SOL     OW 2098   1.658   0.046   0.581 -0.6334  0.2934  0.0566
  700SOL    HW1 2099   1.605   0.019   0.496 -2.1458 -2.5399 -2.6911
  700SOL    HW2 2100   1.695   0.141   0.574  1.0639 -0.9706  2.0007
  701SOL     OW 2101   2.764   0.008   2.362 -0.0682 -0.1972  0.2699
  701SOL    HW1 2102   2.815   3.026   2.328 -0.2352 -0.6621 -0.8914
  701SOL    HW2 2103   2.818   0.059   2.434  1.3710  1.3774 -2.8656
  702SOL     OW 2104   0.944   0.251   0.109 -0.2279 -0.0661  0.2137
  702SOL    HW1 2105   0.916   0.336   0.164  0.9474  1.5271  2.0403
  702SOL    HW2 2106   0.984   0.276   0.020 -3.9677  1.9348  0.2944
  703SOL     OW 2107   2.165   2.888   2.052  0.0893 -0.4186 -0.3448
  703SOL    HW1 2108   2.105   2.811   2.088  1.9950  1.2540  1.5245
  703SOL    HW2 2109   2.168   2.893   1.945 -0.3629 -1.2414 -3.2474
  704SOL     OW 2110   0.554   2.296   0.936 -0.0198 -0.1010 -0.1035
  704SOL    HW1 2111   0.492   2.286   0.858 -1.7280 -2.0170  1.3343
  704SOL    HW2 2112   0.501   2.304   1.022  1.2531 -1.0687  0.0089
  705SOL     OW 2113   2.802   0.025   2.000  0.1465  0.0372 -0.3628
  705SOL    HW1 2114   2.739   0.101   1.972  0.0840 -1.0946  0.0672
  705SOL    HW2 2115   2.775   3.031   1.965  1.8432  3.1835 -1.0749
  706SOL     OW 2116   1.759   0.304   0.516 -0.3826  0.7556 -0.4157
  706SOL    HW1 2117   1.855   0.261   0.528  4.0391  0.8118  0.5334
  706SOL    HW2 2118   1.769   0.389   0.454  0.8919 -0.1781 -2.3215
  707SOL     OW 2119   1.264   1.964   2.148  0.0460  0.2028  0.4038
  707SOL    HW1 2120   1.339   2.026   2.168 -2.7954 -0.7121  0.5916
  707SOL    HW2 2121   1.178   2.014   2.176  1.4258  0.2960  2.3367
  708SOL     OW 2122   0.072   2.424   1.714  0.3520  0.4551  0.6527
  708SOL    HW1 2123   0.100   2.481   1.794 -2.6913  0.2914 -0.3735
  708SOL    HW2 2124   3.067   2.439   1.695 -0.7403 -2.5039  1.2962
  709SOL     OW 2125   1.687   0.220   2.056  0.2999  0.2670 -0.1821
  709SOL    HW1 2126   1.784   0.214   2.040 -0.2496 -2.9124 -0.6697
  709SOL    HW2 2127   1.636   0.133   2.039  0.2399  0.2634  0.1264
  710SOL     OW 2128   2.104   0.497   1.637  0.6353  0.4955  0.0188
  710SOL    HW1 2129   2.038   0.521   1.562  1.5197 -1.8545 -1.5694
  710SOL    HW2 2130   2.121   0.395   1.640 -0.3320 -0.9873 -0.2422
  711SOL     OW 2131   0.475   1.925   0.341  0.0555 -0.0425 -0.2025
  711SOL    HW1 2132   0.462   1.828   0.305  2.2382 -0.6698 -3.1568
  711SOL    HW2 2133   0.573   1.938   0.373  0.3012  0.6938  1.6173
  712SOL     OW 2134   0.548   2.642   2.352  0.2876  0.4921 -0.5647
  712SOL    HW1 2135   0.517   2.655   2.249 -0.7042  0.2918 -2.2587
  712SOL    HW2 2136   0.566   2.734   2.389 -0.4629  0.0908 -2.3732
  713SOL     OW 2137   1.968   1.105   0.109  0.5127  0.0852  0.2144
  713SOL    HW1 2138   2.001   1.191   0.060 -1.3547  0.6744  0.7524
  713SOL    HW2 2139   2.051   1.064   0.152  2.3683 -2.9304  3.3018
  714SOL     OW 2140   0.820   1.890   1.041 -0.1031 -0.3215 -0.4043
  714SOL    HW1 2141   0.765   1.811   1.014 -1.7170  0.3815 -0.9286
  714SOL    HW2 2142   0.768   1.976   1.023 -1.9235  0.4195 -0.3564
  715SOL     OW 2143   1.842   0.002   3.020  0.4405 -0.0823 -0.0661
  715SOL    HW1 2144   1.919   0.065   3.038  1.2926 -2.9115  1.5262
  715SOL    HW2 2145   1.876   3.026   2.956  1.4959 -3.0446  0.1740
  716SOL     OW 2146   0.029   0.066   1.767 -0.3928 -0.7118 -0.9637
  716SOL    HW1 2147   0.056   0.167   1.772 -0.7073  1.5896 -0.5176
  716SOL    HW2 2148   0.005   0.029   1.860 -1.0741 -1.0069  0.5794
  717SOL     OW 2149   0.334   1.172   0.207  0.1919  0.6454  0.4095
  717SOL    HW1 2150   0.286   1.085   0.179 -0.1211  1.7392  0.4783
  717SOL    HW2 2151   0.304   1.248   0.150  0.1237  0.0134  1.8685
  718SOL     OW 2152   1.372   0.928   2.557 -0.1635  0.2862 -0.3054
  718SOL    HW1 2153   1.342   0.841   2.599 -0.8819  0.0329 -1.7230
  718SOL    HW2 2154   1.463   0.915   2.508 -3.0424 -2.1076 -0.1089
  719SOL     OW 2155   2.697   1.299   2.965  0.2746 -0.0775 -0.2207
  719SOL    HW1 2156   2.677   1.279   3.067 -3.0052 -0.6855  0.6037
  719SOL    HW2 2157   2.638   1.380   2.945 -1.2364 -1.3809  2.8406
  720SOL     OW 2158   1.149   0.957   1.002 -0.7193  0.1431 -0.5112
  720SOL    HW1 2159   1.084   0.880   1.019 -0.4009 -0.4359 -0.4510
  720SOL    HW2 2160   1.106   1.021   0.933  0.8947  0.2714 -2.0739
  721SOL     OW 2161   2.619   0.993   0.455  0.5025 -0.0721 -0.1578
  721SOL    HW1 2162   2.628   0.922   0.381 -2.0811  1.4302 -1.2766
  721SOL    HW2 2163   2.660   1.079   0.426  2.3264 -1.9519  1.6756
  722SOL     OW 2164   1.227   0.883   2.888 -0.3511 -0.7513  0.1277
  722SOL    HW1 2165   1.172   0.817   2.942 -0.3172 -1.1840 -0.9772
  722SOL    HW2 2166   1.196   0.896   2.795 -0.1124  0.8388  0.9716
  723SOL     OW 2167   0.197   1.228   0.441  0.0389  0.2082 -0.1318
  723SOL    HW1 2168   0.163   1.324   0.434 -3.4204  3.3568 -0.1639
  723SOL    HW2 2169   0.249   1.202   0.354 -3.5751  1.6399 -1.9747
  724SOL     OW 2170   0.508   1.553   2.162  0.0123 -0.0746 -0.1406
  724SOL    HW1 2171   0.443   1.631   2.148 -2.9992  0.6009 -0.6703
  724SOL    HW2 2172   0.562   1.568   2.242  0.1311 -0.3388 -1.6584
  725SOL     OW 2173   2.302   0.716   1.472 -0.6860  0.8575  0.4652
  725SOL    HW1 2174   2.274   0.816   1.468 -0.1799  1.8150  0.4031
  725SOL    HW2 2175   2.309   0.687   1.567 -2.0423  2.1984 -2.7956
  726SOL     OW 2176   1.825   2.960   0.708 -0.9239  0.5706 -0.1216
  726SOL    HW1 2177   1.835   2.881   0.644 -0.6085 -2.8621 -1.1300
  726SOL    HW2 2178   1.768   3.039   0.668  1.4116 -0.1643 -1.7296
  727SOL     OW 2179   1.260   0.939   2.062  0.3434  0.4270 -0.2706
  727SOL    HW1 2180   1.240   0.963   2.160 -1.9739 -0.6411  1.5940
  727SOL    HW2 2181   1.338   0.994   2.024  1.7587 -0.2913 -0.6996
  728SOL     OW 2182   1.390   2.543   1.141  0.2005 -0.2702 -0.3712
  728SOL    HW1 2183   1.393   2.621   1.205  2.3282 -0.5765  3.3118
  728SOL    HW2 2184   1.407   2.452   1.193 -0.1327 -1.3745  0.8892
  729SOL     OW 2185   1.990   0.950   0.924  0.0324  0.5812 -0.2479
  729SOL    HW1 2186   2.049   0.956   0.839  1.3242 -1.8171  1.3765
  729SOL    HW2 2187   2.030   0.901   1.004  1.4866  2.3507  0.0290
  730SOL     OW 2188   0.644   1.668   2.379 -0.5139  0.2424 -0.4021
  730SOL    HW1 2189   0.706   1.733   2.331 -1.1371 -0.9401 -1.2680
  730SOL    HW2 2190   0.623   1.701   2.467 -0.7799 -1.3651 -5.3168
  731SOL     OW 2191   0.559   0.304   0.722  0.3306 -1.2583 -0.1535
  731SOL    HW1 2192   0.554   0.243   0.648 -2.8216  3.0024  2.7472
  731SOL    HW2 2193   0.579   0.399   0.697  0.2414 -0.5409 -0.8705
  732SOL     OW 2194   0.776   0.823   0.188 -0.4468  0.4942  0.5208
  732SOL    HW1 2195   0.717   0.808   0.109  0.5320 -0.5561  2.6143
  732SOL    HW2 2196   0.870   0.859   0.160  1.6107  1.0149 -0.4168
  733SOL     OW 2197   0.770   2.435   0.860  0.1676 -0.3854 -0.0882
  733SOL    HW1 2198   0.813   2.374   0.792  0.8242  0.3970  1.0862
  733SOL    HW2 2199   0.693   2.389   0.908 -1.4456  2.2377 -2.1400
  734SOL     OW 2200   3.092   1.872   2.773 -0.0044 -0.3682  0.5876
  734SOL    HW1 2201   0.003   1.955   2.713 -1.5392  0.6206 -2.5211
  734SOL    HW2 2202   0.051   1.884   2.857 -1.4005 -1.7431 -1.8532
  735SOL     OW 2203   1.015   0.307   1.194 -0.5714  0.6968 -0.1106
  735SOL    HW1 2204   0.990   0.360   1.277  0.9495  2.6908  0.6382
  735SOL    HW2 2205   0.960   0.223   1.187  1.4289  0.5812  0.7555
  736SOL     OW 2206   1.830   2.869   0.071  0.3866 -0.0000  0.1393
  736SOL    HW1 2207   1.819   2.886   0.171  1.2689 -2.0912  2.5044
  736SOL    HW2 2208   1.812   2.956   0.023  1.5326 -0.8843  0.1981
  737SOL     OW 2209   3.081   0.446   0.568 -0.6019 -0.0359  0.2352
  737SOL    HW1 2210   3.009   0.481   0.509  0.9258 -1.3753  0.3534
  737SOL    HW2 2211   3.055   0.462   0.666 -1.8574  0.2159  0.2613
  738SOL     OW 2212   2.385   0.051   0.976 -0.8452  0.7987 -0.0483
  738SOL    HW1 2213   2.368   0.123   1.043  0.2952 -0.8990 -0.7470
  738SOL    HW2 2214   2.463   0.074   0.916  0.7167  0.3581  0.2235
  739SOL     OW 2215   1.571   2.492   0.194 -0.2984  0.5480 -0.3513
  739SOL    HW1 2216   1.625   2.414   0.159 -2.7160  0.3583  0.7235
  739SOL    HW2 2217   1.547   2.556   0.116 -0.1062 -1.7273  0.5028
  740SOL     OW 2218   1.501   0.315   0.914 -0.0035  0.3893 -0.3399
  740SOL    HW1 2219   1.488   0.219   0.877 -1.7654  0.5509 -0.0815
  740SOL    HW2 2220   1.596   0.345   0.899 -0.7382  0.0275 -0.4481
  741SOL     OW 2221   2.540   0.670   0.699 -0.1214  0.3463  0.2998
  741SOL    HW1 2222   2.472   0.645   0.766  2.0259 -0.2007 -0.6586
  741SOL    HW2 2223   2.515   0.633   0.606  1.0291 -2.0465  2.1597
  742SOL     OW 2224   1.040   2.137   2.149 -0.4945 -0.1283 -0.1851
  742SOL    HW1 2225   0.988   2.163   2.231 -1.3110 -0.9853  0.0903
  742SOL    HW2 2226   0.985   2.164   2.068  0.4733 -0.4137  0.0867
  743SOL     OW 2227   1.992   0.461   1.892 -0.1227  0.2403  0.2232
  743SOL    HW1 2228   2.020   0.470   1.795 -1.5396  0.3181 -1.1438
  743SOL    HW2 2229   1.972   0.365   1.921 -0.6690 -0.2275  0.9318
  744SOL     OW 2230   2.136   0.586   1.017 -0.6262 -0.1938 -0.3419
  744SOL    HW1 2231   2.066   0.520   0.988  1.8299  2.9115 -0.5595
  744SOL    HW2 2232   2.133   0.593   1.119 -2.5845 -0.4686  0.1062
  745SOL     OW 2233   1.864   1.154   1.526  0.4934  0.6002  0.1355
  745SOL    HW1 2234   1.871   1.079   1.458 -0.8998  0.5204  0.9181
  745SOL    HW2 2235   1.810   1.114   1.604 -0.5413  1.1756 -2.4479
  746SOL     OW 2236   1.633   1.312   0.958 -0.0569 -0.2138  0.1555
  746SOL    HW1 2237   1.606   1.321   0.858 -2.8165 -1.3285  0.0102
  746SOL    HW2 2238   1.716   1.256   0.976 -0.1315  1.8228 -0.4535
  747SOL     OW 2239   1.885   1.199   1.007 -0.0826  0.1762 -0.3207
  747SOL    HW1 2240   1.959   1.233   1.071  2.7846  0.8004  1.2256
  747SOL    HW2 2241   1.893   1.096   0.997 -1.1545  0.5543  1.2020
  748SOL     OW 2242   0.401   2.335   0.704 -0.2109 -0.3851  0.0889
  748SOL    HW1 2243   0.399   2.436   0.688 -0.7331 -1.2925  0.2870
  748SOL    HW2 2244   0.419   2.282   0.617 -0.9788  1.7115  1.4848
  749SOL     OW 2245   2.844   2.851   2.302 -0.1834  0.1374  0.0453
  749SOL    HW1 2246   2.749   2.818   2.316  0.3625  1.7527 -2.0197
  749SOL    HW2 2247   2.878   2.822   2.212  1.7693 -0.3198 -4.8297
  750SOL     OW 2248   2.620   0.381   0.902  0.1858  0.1876  0.1823
  750SOL    HW1 2249   2.671   0.425   0.824  0.1378 -0.0665 -1.6216
  750SOL    HW2 2250   2.530   0.351   0.870  1.1256  1.0986  0.1924
  751SOL     OW 2251   2.642   0.199   0.140 -0.5001  0.0573 -0.4002
  751SOL    HW1 2252   2.690   0.195   0.048  0.1241 -1.6016  1.3661
  751SOL    HW2 2253   2.543   0.222   0.131  0.1025 -0.8633  0.4515
  752SOL     OW 2254   0.238   2.934   0.752 -0.4486 -1.1157  0.0088
  752SOL    HW1 2255   0.233   2.846   0.698  0.3953  0.5597 -0.8827
  752SOL    HW2 2256   0.158   2.993   0.741 -1.0304  0.6666  0.4835
  753SOL     OW 2257   1.438   0.548   1.966 -0.3095 -0.4578 -0.3494
  753SOL    HW1 2258   1.397   0.587   1.884 -0.1119  0.4641  1.0039
  753SOL    HW2 2259   1.535   0.516   1.959  2.4530 -0.6021  1.7704
  754SOL     OW 2260   1.766   2.262   1.786 -0.2768  0.6869  0.7193
  754SOL    HW1 2261   1.781   2.359   1.813 -1.8540  1.4656  2.9088
  754SOL    HW2 2262   1.683   2.261   1.723 -3.0287  1.9583 -1.8612
  755SOL     OW 2263   2.871   0.566   0.457 -0.0202 -0.1772  0.3728
  755SOL    HW1 2264   2.862   0.664   0.490  0.1366  0.3328 -0.0526
  755SOL    HW2 2265   2.829   0.552   0.370  0.2908  3.8521  1.9578
  756SOL     OW 2266   1.490   1.588   2.758 -0.0640 -0.2273  0.0853
  756SOL    HW1 2267   1.395   1.554   2.736  0.3597 -0.5383  1.0052
  756SOL    HW2 2268   1.492   1.689   2.768  0.4882 -2.6998 -1.7367
  757SOL     OW 2269   1.528   0.051   0.824  0.4905  0.3596 -0.4396
  757SOL    HW1 2270   1.474   3.068   0.857  0.8651  0.9127 -2.3815
  757SOL    HW2 2271   1.560   0.043   0.730  1.0242  2.6742  0.9451
  758SOL     OW 2272   0.360   0.236   1.252 -0.0050  0.1277 -0.1902
  758SOL    HW1 2273   0.282   0.183   1.288 -1.4654  2.4858  0.1871
  758SOL    HW2 2274   0.336   0.334   1.246 -1.1256 -4.1214  1.4817
  759SOL     OW 2275   0.213   0.982   1.375 -0.0220  0.1993  0.0931
  759SOL    HW1 2276   0.206   0.886   1.345 -0.2898  1.7996  1.2346
  759SOL    HW2 2277   0.117   1.017   1.395 -0.4893 -1.4150 -0.5876
  760SOL     OW 2278   2.397   0.848   1.055  0.1061 -0.2752 -0.5020
  760SOL    HW1 2279   2.425   0.937   1.015 -0.7041 -0.6221 -0.0596
  760SOL    HW2 2280   2.327   0.871   1.128  0.9781 -0.0169 -0.1184
  761SOL     OW 2281   1.323   0.878   0.567 -0.5336 -0.1284 -0.9212
  761SOL    HW1 2282   1.299   0.787   0.613  1.4259  0.7151  1.8869
  761SOL    HW2 2283   1.235   0.938   0.570 -1.7132  3.4203  1.8777
  762SOL     OW 2284   2.353   2.259   1.385  0.1978  0.4324 -0.5853
  762SOL    HW1 2285   2.252   2.245   1.387 -0.4529 -2.1055 -1.7187
  762SOL    HW2 2286   2.367   2.349   1.338  1.3148 -0.0384 -0.7884
  763SOL     OW 2287   1.510   1.429   1.964 -0.3404 -0.5764 -0.3198
  763SOL    HW1 2288   1.594   1.388   1.914  2.1389  0.6438 -3.2801
  763SOL    HW2 2289   1.434   1.417   1.898 -0.4555 -1.1044  3.1852
  764SOL     OW 2290   0.148   1.728   2.575 -0.4912 -0.1380  0.4479
  764SOL    HW1 2291   0.092   1.661   2.522 -0.2436 -0.1898  2.3101
  764SOL    HW2 2292   0.086   1.768   2.647 -1.4787  1.9207 -0.0548
  765SOL     OW 2293   0.768   2.676   1.208 -0.3782 -0.1981  0.4354
  765SOL    HW1 2294   0.717   2.608   1.262  1.7632 -2.6880 -1.1883
  765SOL    HW2 2295   0.709   2.723   1.138 -2.3955 -0.4463 -2.4436
  766SOL     OW 2296   0.852   2.022   2.609  0.6742 -0.4115 -0.4683
  766SOL    HW1 2297   0.874   1.940   2.666  1.4769 -1.0292  1.3425
  766SOL    HW2 2298   0.772   2.079   2.651 -4.0664  1.7706  3.9009
  767SOL     OW 2299   1.948   0.324   2.422 -0.1865 -0.1489  0.2386
  767SOL    HW1 2300   1.998   0.402   2.386 -0.9881  1.7957  2.4391
  767SOL    HW2 2301   1.932   0.326   2.522 -0.5539  1.6042 -1.0169
  768SOL     OW 2302   0.928   2.540   2.740 -0.4745  0.4115 -0.3169
  768SOL    HW1 2303   0.982   2.599   2.677  1.4583  0.3627 -2.0279
  768SOL    HW2 2304   0.950   2.569   2.836 -1.0178  0.5096 -1.8015
  769SOL     OW 2305   0.038   2.740   0.972 -0.3130  0.4544  0.1790
  769SOL    HW1 2306   3.071   2.796   1.029  0.3361  1.5732  0.9940
  769SOL    HW2 2307   0.102   2.681   1.026 -0.8339  1.3156 -1.2051
  770SOL     OW 2308   0.792   2.809   2.942 -0.2012  0.6847  0.1146
  770SOL    HW1 2309   0.697   2.778   2.916  2.4668  1.4838  3.2955
  770SOL    HW2 2310   0.834   2.835   2.855 -0.7912 -0.8780  2.5865
  771SOL     OW 2311   1.082   2.403   2.421  0.8120  0.1766  0.2631
  771SOL    HW1 2312   1.178   2.371   2.404 -0.2858  0.5427 -0.9389
  771SOL    HW2 2313   1.013   2.332   2.389 -3.0315 -4.3624 -0.3074
  772SOL     OW 2314   2.461   3.055   1.906 -0.0613  0.1471  0.0356
  772SOL    HW1 2315   2.381   0.017   1.935  0.2307 -0.4750  0.8583
  772SOL    HW2 2316   2.435   2.976   1.845 -0.9860 -0.8530  0.2015
  773SOL     OW 2317   0.995   2.806   1.808  0.4857 -0.1351 -0.1537
  773SOL    HW1 2318   1.067   2.738   1.792 -5.7284  1.9598 -0.4876
  773SOL    HW2 2319   1.002   2.840   1.907 -0.3575  0.3380  1.8580
  774SOL     OW 2320   1.575   0.628   2.221  0.3334  0.2413 -0.2287
  774SOL    HW1 2321   1.490   0.624   2.169  2.9876 -1.5699 -1.0721
  774SOL    HW2 2322   1.606   0.538   2.257  0.1474  2.7645 -0.8928
  775SOL     OW 2323   2.083   3.013   0.261 -0.3779 -0.0851  0.1416
  775SOL    HW1 2324   2.122   2.960   0.185 -0.0688  2.4878 -1.4946
  775SOL    HW2 2325   1.983   3.018   0.250  0.3733 -2.0466  0.1889
  776SOL     OW 2326   2.270   1.035   1.970  0.2229  0.6439  0.4553
  776SOL    HW1 2327   2.204   1.004   1.897 -0.0823  0.5771 -2.2439
  776SOL    HW2 2328   2.235   1.121   2.011  0.1876  4.5764  0.1734
  777SOL     OW 2329   2.779   1.081   2.323 -0.1971 -0.3171  0.1599
  777SOL    HW1 2330   2.834   1.003   2.291 -0.7655  0.3363  0.7953
  777SOL    HW2 2331   2.695   1.097   2.265 -2.1193  0.5765 -0.0144
  778SOL     OW 2332   2.430   0.348   1.998 -0.2447 -0.1609  0.0494
  778SOL    HW1 2333   2.465   0.441   2.011 -0.9572 -1.8162  2.4625
  778SOL    HW2 2334   2.503   0.288   1.954  2.0639 -0.9668 -0.3918
  779SOL     OW 2335   3.010   3.086   2.997 -0.3418  0.4905 -0.3801
  779SOL    HW1 2336   3.066   3.068   2.915 -0.4776  0.9892  1.3815
  779SOL    HW2 2337   3.074   0.011   3.076  0.4178 -0.3050 -1.6606
  780SOL     OW 2338   1.953   0.078   2.282  0.2897  0.1781  0.1801
  780SOL    HW1 2339   2.051   0.052   2.290  0.4407 -1.4463 -0.5312
  780SOL    HW2 2340   1.938   0.155   2.348  0.3852  1.5289 -0.6663
  781SOL     OW 2341   0.100   0.733   1.760 -0.0654  0.2260 -0.0417
  781SOL    HW1 2342   0.150   0.797   1.700 -0.0433 -2.3803 -0.1066
  781SOL    HW2 2343   0.162   0.707   1.837  1.4476  0.5779 -0.7868
  782SOL     OW 2344   2.164   2.218   0.301  0.3147  0.5351  0.1322
  782SOL    HW1 2345   2.260   2.208   0.270  0.0444  0.5742  0.9245
  782SOL    HW2 2346   2.163   2.235   0.401  0.3808  0.1510  0.2042
  783SOL     OW 2347   0.563   1.791   1.275  0.1305  0.5518  0.0789
  783SOL    HW1 2348   0.506   1.840   1.207  0.2214 -1.4603 -2.7113
  783SOL    HW2 2349   0.660   1.817   1.259 -0.1497  1.2342  2.6830
  784SOL     OW 2350   2.023   0.554   2.312  0.0195 -0.4269  0.1371
  784SOL    HW1 2351   2.075   0.492   2.248  0.6977 -2.2797 -0.3276
  784SOL    HW2 2352   2.036   0.649   2.278 -0.3501 -4.6401 -0.4254
  785SOL     OW 2353   0.089   0.461   1.057  0.1151 -0.0371 -0.4709
  785SOL    HW1 2354   0.031   0.506   0.986  2.0347  0.1851  0.9391
  785SOL    HW2 2355   0.032   0.443   1.142  1.1637  1.7630  1.4555
  786SOL     OW 2356   1.816   2.999   0.342  0.0067 -0.1990 -0.5167
  786SOL    HW1 2357   1.757   3.046   0.409  0.3210 -1.6049 -1.9909
  786SOL    HW2 2358   1.874   2.920   0.384  1.9966 -3.8090  1.0063
  787SOL     OW 2359   1.125   0.075   0.627 -0.4801 -0.0264 -0.6929
  787SOL    HW1 2360   1.167   0.057   0.534 -2.7511 -0.8523 -1.0173
  787SOL    HW2 2361   1.150   0.168   0.652  2.1839 -0.5636  2.6371
  788SOL     OW 2362   0.082   1.610   1.045 -0.3951 -0.2454  0.4186
  788SOL    HW1 2363   0.035   1.666   0.972  0.5514  3.1207  0.1972
  788SOL    HW2 2364   0.174   1.580   1.011 -0.0329 -0.0349 -1.3618
  789SOL     OW 2365   2.912   0.462   2.042 -0.5753 -0.6021  0.1866
  789SOL    HW1 2366   2.884   0.377   2.090  0.0541 -0.6071  0.3244
  789SOL    HW2 2367   2.867   0.544   2.082 -2.4597 -0.1834  0.5934
  790SOL     OW 2368   0.701   0.548   3.086 -0.4907  0.1687  0.1521
  790SOL    HW1 2369   0.717   0.449   3.062 -0.9349 -1.7278  1.2874
  790SOL    HW2 2370   0.756   0.606   3.023  0.8232  0.7766  2.2049
  791SOL     OW 2371   2.386   0.137   2.945 -0.4132  0.5660  0.1510
  791SOL    HW1 2372   2.371   0.060   3.014 -0.8779 -2.5770  0.3095
  791SOL    HW2 2373   2.460   0.109   2.881 -1.9438  0.1669 -0.8294
  792SOL     OW 2374   1.077   0.922   1.382  0.6223 -0.0522 -0.1020
  792SOL    HW1 2375   1.061   0.821   1.375 -3.4752 -1.6565  0.0625
  792SOL    HW2 2376   0.982   0.970   1.394 -4.6243  1.3633 -0.1519
  793SOL     OW 2377   2.863   0.166   1.479 -0.1320 -0.2841 -0.4583
  793SOL    HW1 2378   2.926   0.245   1.479  0.3607 -0.3073 -1.1375
  793SOL    HW2 2379   2.809   0.176   1.392 -0.1458 -0.8991 -0.2649
  794SOL     OW 2380   3.064   3.056   2.018 -0.5707 -0.2678 -0.5540
  794SOL    HW1 2381   2.961   3.068   2.012 -1.7191  0.8433 -0.4202
  794SOL    HW2 2382   0.019   0.040   2.057  2.0607  0.9466  2.3507
  795SOL     OW 2383   0.628   2.104   2.713  0.1580 -0.0771 -0.2940
  795SOL    HW1 2384   0.655   2.201   2.729 -0.2259  0.0587 -1.9948
  795SOL    HW2 2385   0.548   2.070   2.773 -2.1874 -2.2857 -0.0713
  796SOL     OW 2386   2.004   0.565   2.825  0.2828 -0.2697 -0.5085
  796SOL    HW1 2387   1.969   0.593   2.733  1.8546  0.4403 -0.7722
  796SOL    HW2 2388   1.994   0.639   2.891  0.3766 -1.5458  0.0950
  797SOL     OW 2389   2.334   2.176   3.022 -0.0635  0.3826  0.3995
  797SOL    HW1 2390   2.430   2.195   2.995  3.4397  0.3941  1.6005
  797SOL    HW2 2391   2.273   2.250   2.991  1.9686  1.6501  0.8810
  798SOL     OW 2392   2.974   0.793   1.437  0.4176  0.4180  0.6112
  798SOL    HW1 2393   2.980   0.894   1.432  0.4618 -2.5446 -1.1198
  798SOL    HW2 2394   3.065   0.757   1.447 -0.6293 -0.8269  0.5588
  799SOL     OW 2395   0.274   0.249   1.779  0.5119  0.2139 -0.0524
  799SOL    HW1 2396   0.349   0.196   1.738 -0.1966 -0.3771 -0.2697
  799SOL    HW2 2397   0.288   0.257   1.880 -1.5909  1.6227  0.2376
  800SOL     OW 2398   0.070   2.158   0.151 -0.0196 -0.1698  0.2823
  800SOL    HW1 2399   0.105   2.218   0.228  1.5760  1.5154  1.5875
  800SOL    HW2 2400   0.147   2.095   0.132  0.3479  2.3498  0.0206
  801SOL     OW 2401   1.656   1.597   0.776 -0.2879 -0.0526  0.2401
  801SOL    HW1 2402   1.621   1.623   0.865  0.1240 -0.6889 -0.9317
  801SOL    HW2 2403   1.749   1.637   0.764  0.5623  0.3509 -1.7630
  802SOL     OW 2404   0.715   0.641   0.358  0.1324  0.3412  0.6424
  802SOL    HW1 2405   0.646   0.654   0.429  2.7762 -1.1708 -1.4306
  802SOL    HW2 2406   0.739   0.723   0.302 -2.2137 -1.5167 -1.6548
  803SOL     OW 2407   1.319   1.441   1.780  0.1840 -0.7840 -1.0211
  803SOL    HW1 2408   1.231   1.479   1.815 -1.5525 -0.8099  0.9351
  803SOL    HW2 2409   1.304   1.355   1.733 -0.9309  1.3782  0.9461
  804SOL     OW 2410   1.736   2.252   1.253 -0.3228 -0.3213 -0.1990
  804SOL    HW1 2411   1.692   2.260   1.159  0.6363  1.3114  0.4944
  804SOL    HW2 2412   1.837   2.249   1.235 -0.6066 -2.1770 -1.1182
  805SOL     OW 2413   0.048   2.101   2.586  0.5705  0.1984 -0.6100
  805SOL    HW1 2414   0.030   2.128   2.488 -1.5726  0.8069 -0.9935
  805SOL    HW2 2415   0.136   2.144   2.616  0.8868  2.4895 -3.4326
  806SOL     OW 2416   0.980   2.864   0.276 -0.0436  0.4891 -0.5498
  806SOL    HW1 2417   0.898   2.851   0.219 -0.7755 -1.9208  1.7335
  806SOL    HW2 2418   1.007   2.962   0.292  0.2159  1.5289 -0.3864
  807SOL     OW 2419   2.460   0.916   2.751  0.1813  0.0810 -0.2434
  807SOL    HW1 2420   2.527   0.991   2.750 -2.8387  0.7559  2.4036
  807SOL    HW2 2421   2.483   0.845   2.817 -1.7505 -0.8874  0.5644
  808SOL     OW 2422   1.456   1.998   0.822  0.1297 -0.1639  0.5024
  808SOL    HW1 2423   1.539   2.049   0.778 -1.7027  0.0019  1.1476
  808SOL    HW2 2424   1.414   1.928   0.763 -0.3472  1.4353  1.9992
  809SOL     OW 2425   0.138   0.238   0.613  0.6140  0.0279 -0.0309
  809SOL    HW1 2426   0.064   0.305   0.590  0.1645 -0.3172 -0.9909
  809SOL    HW2 2427   0.177   0.256   0.703 -1.0011  0.2234 -1.5740
  810SOL     OW 2428   1.339   1.292   0.103 -0.1186 -0.7763 -0.3234
  810SOL    HW1 2429   1.396   1.317   0.020  0.1497 -1.9416 -0.4081
  810SOL    HW2 2430   1.404   1.271   0.180  2.3498  0.1359  1.4349
  811SOL     OW 2431   1.395   2.929   1.204  0.2377 -0.2519 -0.0747
  811SOL    HW1 2432   1.428   2.850   1.261 -0.8026 -0.3276  0.9387
  811SOL    HW2 2433   1.310   2.973   1.243  0.9396 -0.5241  0.6482
  812SOL     OW 2434   1.153   0.382   0.540 -0.2730 -0.0056  0.9153
  812SOL    HW1 2435   1.220   0.396   0.464  1.1490 -0.3128  1.4940
  812SOL    HW2 2436   1.145   0.466   0.598  1.1483  1.6410  1.1379
  813SOL     OW 2437   1.212   3.045   2.269 -0.4410  0.1186  0.2646
  813SOL    HW1 2438   1.208   2.984   2.186  1.2423 -1.6775  1.7799
  813SOL    HW2 2439   1.255   0.037   2.240 -0.7343  0.4357 -1.8238
  814SOL     OW 2440   1.119   2.948   1.295  0.2779  0.1478 -0.3837
  814SOL    HW1 2441   1.139   2.855   1.329  1.6299  2.7989 -0.7598
  814SOL    HW2 2442   1.068   2.944   1.204 -1.2131  0.1506  1.5268
  815SOL     OW 2443   0.067   2.721   0.074 -0.3177 -0.1590  0.4815
  815SOL    HW1 2444   3.079   2.775   0.069  0.8406  0.1977  0.3433
  815SOL    HW2 2445   0.096   2.707   0.171  1.7022  0.8290 -0.4445
  816SOL     OW 2446   2.137   1.484   2.838  0.2752 -0.1333  0.4900
  816SOL    HW1 2447   2.148   1.551   2.759 -0.6902 -0.4748  0.9545
  816SOL    HW2 2448   2.041   1.443   2.827 -1.1534  1.0466 -3.1890
  817SOL     OW 2449   2.091   2.302   2.354 -0.2877  0.1697  0.2494
  817SOL    HW1 2450   2.038   2.309   2.442  0.6995 -0.0793  0.8412
  817SOL    HW2 2451   2.167   2.367   2.349 -1.7620 -2.6404 -0.2210
  818SOL     OW 2452   1.017   0.892   0.091 -0.3722 -0.5704  0.2872
  818SOL    HW1 2453   1.076   0.976   0.099  1.1471  2.1059 -1.5196
  818SOL    HW2 2454   1.008   0.864   3.093 -0.8119  2.5065  0.7080
  819SOL     OW 2455   1.710   1.614   0.100 -0.3386 -0.3007  0.1389
  819SOL    HW1 2456   1.811   1.592   0.101  0.3858  0.3736 -0.0142
  819SOL    HW2 2457   1.679   1.621   0.197  0.3338 -0.6916 -2.0167
  820SOL     OW 2458   0.305   0.842   0.683 -0.0387 -0.3225 -0.2082
  820SOL    HW1 2459   0.348   0.829   0.772 -2.3219 -0.2508  0.7140
  820SOL    HW2 2460   0.322   0.752   0.630  0.9530 -0.7694  1.9412
  821SOL     OW 2461   0.419   0.028   1.476  0.5010 -0.2354 -0.1922
  821SOL    HW1 2462   0.378   0.096   1.416 -1.3875 -0.6172 -1.8429
  821SOL    HW2 2463   0.434   3.034   1.431  0.3794  0.1993  1.3129
  822SOL     OW 2464   2.053   2.196   2.794  0.7803 -0.3460  0.1451
  822SOL    HW1 2465   2.115   2.275   2.824  1.2351  0.3481 -0.1410
  822SOL    HW2 2466   2.001   2.216   2.706  1.0213  0.1451 -0.5953
  823SOL     OW 2467   0.727   0.555   1.960  0.0630  0.1914  0.0517
  823SOL    HW1 2468   0.813   0.613   1.948  0.8172  0.2334 -0.5927
  823SOL    HW2 2469   0.738   0.501   2.045 -0.4717 -0.3098  2.2580
  824SOL     OW 2470   2.437   0.067   1.473  0.1332 -0.1379  0.0294
  824SOL    HW1 2471   2.439   0.163   1.447  2.3836 -2.1044  0.1123
  824SOL    HW2 2472   2.350   0.047   1.515 -2.2674  1.5590 -0.1016
  825SOL     OW 2473   0.599   1.157   2.517 -0.0355  0.2178  0.0201
  825SOL    HW1 2474   0.553   1.145   2.420 -1.6430 -0.3967 -2.1688
  825SOL    HW2 2475   0.580   1.077   2.577 -0.4624 -1.8089  1.3794
  826SOL     OW 2476   1.679   0.611   2.879  0.2216  0.0935 -0.1548
  826SOL    HW1 2477   1.641   0.631   2.788  1.9824  1.2154  2.4976
  826SOL    HW2 2478   1.717   0.514   2.879 -1.7343 -1.7173  2.6768
  827SOL     OW 2479   0.649   2.333   2.294  0.1875  0.2346  0.5615
  827SOL    HW1 2480   0.572   2.264   2.287  2.6185 -2.6486 -1.6748
  827SOL    HW2 2481   0.622   2.429   2.327 -2.0571  2.6577 -0.7846
  828SOL     OW 2482   3.045   3.074   1.530 -0.6663 -0.6621 -0.2605
  828SOL    HW1 2483   3.073   0.009   1.620 -0.8074 -0.8023 -0.4624
  828SOL    HW2 2484   2.965   0.033   1.497  1.2792 -1.6049 -2.7939
  829SOL     OW 2485   1.404   1.670   1.676 -0.0193  0.0334 -0.2288
  829SOL    HW1 2486   1.382   1.583   1.719 -0.7027  1.5155 -0.6569
  829SOL    HW2 2487   1.493   1.662   1.627  1.4070  0.3376  0.3127
  830SOL     OW 2488   0.878   0.995   1.680  0.1219  0.2429 -0.1463
  830SOL    HW1 2489   0.831   0.938   1.613  1.4319  1.0214 -0.9264
  830SOL    HW2 2490   0.819   1.079   1.694  0.7238  2.1636  1.9921
  831SOL     OW 2491   2.943   1.669   0.385  0.5656 -0.1556 -0.0740
  831SOL    HW1 2492   2.899   1.659   0.290  0.0167 -1.1843  1.4921
  831SOL    HW2 2493   2.937   1.766   0.420 -0.3476  1.5898  0.7147
  832SOL     OW 2494   1.218   2.702   0.258  0.3496 -0.1074 -0.5600
  832SOL    HW1 2495   1.140   2.764   0.271  4.0222 -1.1697 -1.9556
  832SOL    HW2 2496   1.177   2.611   0.254  2.1954  3.1507 -0.8725
  833SOL     OW 2497   0.008   0.347   1.500 -0.6696 -0.0853 -0.0177
  833SOL    HW1 2498   0.110   0.340   1.496 -3.3021 -0.5760 -0.3507
  833SOL    HW2 2499   3.061   0.434   1.541 -0.4368 -0.5719  1.3204
  834SOL     OW 2500   3.034   0.880   1.023  0.2533 -0.3221  0.2758
  834SOL    HW1 2501   0.041   0.902   1.028  3.4468 -0.1308  1.8761
  834SOL    HW2 2502   3.008   0.861   0.927  3.0426  1.6916 -2.2943
  835SOL     OW 2503   2.696   3.084   0.553  0.4655  0.2607 -0.0923
  835SOL    HW1 2504   2.775   0.046   0.542 -0.5145 -0.6367  0.7522
  835SOL    HW2 2505   2.721   2.994   0.590 -3.0134  1.3453  0.5489
  836SOL     OW 2506   1.129   2.024   2.863 -0.3243  0.2700 -0.1618
  836SOL    HW1 2507   1.041   2.003   2.914 -1.0039 -1.3641 -0.1856
  836SOL    HW2 2508   1.120   2.002   2.767  2.2067  0.1914 -1.2279
  837SOL     OW 2509   1.610   1.878   0.004 -0.1592 -0.9649 -0.2778
  837SOL    HW1 2510   1.642   1.781   0.022 -0.2980 -0.6538  0.5821
  837SOL    HW2 2511   1.517   1.888   3.055 -2.0058  1.1139 -2.7372
  838SOL     OW 2512   2.532   0.579   2.292 -0.0499 -1.0133 -0.0203
  838SOL    HW1 2513   2.618   0.633   2.319  2.0795  0.0642 -0.4871
  838SOL    HW2 2514   2.495   0.615   2.204 -1.2085  2.5025 -0.9459
  839SOL     OW 2515   0.793   0.823   2.417  0.2204  0.1843  0.9076
  839SOL    HW1 2516   0.847   0.907   2.407 -0.6348 -0.6969  2.4666
  839SOL    HW2 2517   0.748   0.815   2.510 -0.9631 -1.3697 -0.0032
  840SOL     OW 2518   0.828   0.742   2.921  0.3972  0.2778 -0.6545
  840SOL    HW1 2519   0.827   0.842   2.925  3.5846 -2.5148 -0.0390
  840SOL    HW2 2520   0.921   0.712   2.916 -4.6984  0.2501 -1.1702
  841SOL     OW 2521   0.889   2.662   0.913  0.1731 -0.2017  0.2823
  841SOL    HW1 2522   0.892   2.717   0.828  1.4245  0.2978  2.4758
  841SOL    HW2 2523   0.870   2.564   0.893 -0.2102  2.2947 -0.6975
  842SOL     OW 2524   0.468   0.781   0.897  0.2140  0.4623 -0.2145
  842SOL    HW1 2525   0.516   0.849   0.962  1.7695  0.9986  1.4697
  842SOL    HW2 2526   0.517   0.690   0.892  0.2578 -0.9367 -0.0569
  843SOL     OW 2527   0.552   1.110   1.500  0.2701  0.0803 -0.6632
  843SOL    HW1 2528   0.521   1.018   1.468  0.8619 -0.4449  0.8528
  843SOL    HW2 2529   0.573   1.112   1.601  0.6427 -0.2336  1.4430
  844SOL     OW 2530   2.205   2.635   2.638  0.0758 -0.6784 -0.2979
  844SOL    HW1 2531   2.245   2.703   2.568 -2.1116  2.5352 -0.2984
  844SOL    HW2 2532   2.270   2.566   2.672 -0.2333  1.0553 -1.8577
  845SOL     OW 2533   2.182   3.074   1.516 -0.3901  0.2280  0.1268
  845SOL    HW1 2534   2.148   3.061   1.419  1.1166 -0.2743 -0.6187
  845SOL    HW2 2535   2.190   2.984   1.565  0.5090  1.9523 -0.7237
  846SOL     OW 2536   1.981   0.886   2.588 -0.5744  0.1232 -0.4838
  846SOL    HW1 2537   2.071   0.904   2.539 -1.9493  1.8264  3.3012
  846SOL    HW2 2538   1.987   0.924   2.686 -2.3114 -1.6927  3.4311
  847SOL     OW 2539   2.150   2.909   1.787 -0.1107  0.6431 -0.5251
  847SOL    HW1 2540   2.076   2.844   1.763 -0.2610  2.1566 -0.4051
  847SOL    HW2 2541   2.240   2.854   1.783  2.9671 -1.1253  0.0093
  848SOL     OW 2542   2.799   2.846   0.238 -0.1836  0.4094 -0.0356
  848SOL    HW1 2543   2.849   2.871   0.324 -0.2694  0.7892 -0.7645
  848SOL    HW2 2544   2.862   2.844   0.156 -0.8175 -0.6531 -2.1857
  849SOL     OW 2545   0.253   0.022   1.051 -0.1719  0.3552 -0.3172
  849SOL    HW1 2546   0.307   3.031   1.056 -0.3439 -1.8399  2.3348
  849SOL    HW2 2547   0.292   0.094   1.119  3.6856 -0.5725  2.6764
  850SOL     OW 2548   0.395   2.122   0.494  0.1338 -0.3209  0.0324
  850SOL    HW1 2549   0.406   2.210   0.440  1.2135 -2.0096 -0.4486
  850SOL    HW2 2550   0.435   2.043   0.446  1.8577  1.2910 -2.0813
  851SOL     OW 2551   2.090   0.738   3.048  0.7611  0.4054  0.1239
  851SOL    HW1 2552   2.179   0.698   3.070 -0.6437  1.4756  0.3328
  851SOL    HW2 2553   2.034   0.751   0.034 -0.0624 -0.9797  0.6142
  852SOL     OW 2554   1.898   2.201   2.587 -0.1850 -0.2995 -0.2669
  852SOL    HW1 2555   1.878   2.149   2.502  1.6267 -1.9597  0.8520
  852SOL    HW2 2556   1.877   2.298   2.572  0.4321  0.7793  1.3721
  853SOL     OW 2557   0.125   1.883   0.326  0.6080  0.3209  0.0807
  853SOL    HW1 2558   0.061   1.841   0.259  0.7962 -4.3276  0.7877
  853SOL    HW2 2559   0.188   1.951   0.283  0.1677 -1.4885  2.3342
  854SOL     OW 2560   1.815   0.760   2.090  0.1006 -0.0515  0.6277
  854SOL    HW1 2561   1.762   0.702   2.148  0.1172  1.4413 -0.9710
  854SOL    HW2 2562   1.911   0.761   2.124  1.1910 -2.0740 -0.4254
  855SOL     OW 2563   0.502   2.553   0.023  0.3703  0.2249  0.7548
  855SOL    HW1 2564   0.602   2.554   0.039 -1.0742  0.7808  1.0141
  855SOL    HW2 2565   0.473   2.478   3.059 -0.7761  1.3519  0.7108
  856SOL     OW 2566   0.293   2.802   2.460  0.1747  0.1532 -0.4390
  856SOL    HW1 2567   0.237   2.842   2.384  0.5752 -3.4869 -0.5023
  856SOL    HW2 2568   0.385   2.848   2.465 -2.3129 -2.4956  4.5065
  857SOL     OW 2569   0.812   0.425   1.656  0.1485 -0.2152  0.3514
  857SOL    HW1 2570   0.847   0.521   1.637 -1.2398  1.2706  0.0351
  857SOL    HW2 2571   0.719   0.415   1.613 -0.2514  2.3419  0.3968
  858SOL     OW 2572   0.533   1.984   2.042 -0.1664 -0.5281  0.3275
  858SOL    HW1 2573   0.624   1.938   2.025 -0.6619 -0.7315 -1.3497
  858SOL    HW2 2574   0.479   1.994   1.956 -0.4322  0.7817 -0.2453
  859SOL     OW 2575   2.015   2.471   1.636 -0.3043 -1.1671  0.5239
  859SOL    HW1 2576   1.975   2.383   1.623  3.1833  2.9761 -0.7492
  859SOL    HW2 2577   2.102   2.480   1.583 -0.3314 -0.9089 -1.5754
  860SOL     OW 2578   1.628   0.589   0.540  0.0483 -0.0496 -0.1988
  860SOL    HW1 2579   1.556   0.541   0.595  0.9175  1.4305  0.4391
  860SOL    HW2 2580   1.610   0.687   0.525  0.3044 -2.6550  0.1834
  861SOL     OW 2581   3.019   0.581   0.813  0.1548 -0.0933  0.1599
  861SOL    HW1 2582   3.049   0.672   0.797 -1.9721 -0.7984  0.2525
  861SOL    HW2 2583   2.922   0.580   0.839  0.3530  1.1618  1.3245
  862SOL     OW 2584   1.922   0.895   1.426 -0.0357  0.2329  0.1007
  862SOL    HW1 2585   1.884   0.814   1.480  2.2942 -1.1560 -1.9234
  862SOL    HW2 2586   1.926   0.872   1.322  1.9445  2.9229 -2.5433
  863SOL     OW 2587   0.536   1.360   1.364  0.4614 -0.2097 -0.3312
  863SOL    HW1 2588   0.536   1.276   1.425  0.4707 -4.5705  0.1904
  863SOL    HW2 2589   0.624   1.368   1.309  3.0885 -0.5429  0.7510
  864SOL     OW 2590   2.822   2.737   2.050  0.8301 -0.1548  0.2980
  864SOL    HW1 2591   2.876   2.647   2.044  0.8917 -1.7287 -0.7204
  864SOL    HW2 2592   2.825   2.800   1.968  0.3853  1.3028 -1.6606
  865SOL     OW 2593   1.068   0.394   2.212  0.0838 -0.3002 -0.3702
  865SOL    HW1 2594   1.047   0.479   2.258  0.6724 -0.6659 -1.4954
  865SOL    HW2 2595   1.148   0.404   2.144 -0.0795  1.4086 -2.4227
  866SOL     OW 2596   2.499   2.928   0.443  0.1049  0.1421  0.1855
  866SOL    HW1 2597   2.406   2.947   0.487 -2.4375  1.9252  1.6154
  866SOL    HW2 2598   2.565   3.001   0.460  1.0586 -1.6625  0.3554
  867SOL     OW 2599   2.793   2.832   0.727  0.3810  0.1703 -0.5731
  867SOL    HW1 2600   2.766   2.739   0.761  0.4137  3.0905  1.4607
  867SOL    HW2 2601   2.897   2.852   0.731 -0.9411 -1.6077 -3.2567
  868SOL     OW 2602   1.755   1.570   2.775  0.0318  0.2242 -0.0877
  868SOL    HW1 2603   1.765   1.668   2.799 -2.9525  1.4229 -3.2812
  868SOL    HW2 2604   1.652   1.549   2.776  0.5610 -1.2490 -0.3080
  869SOL     OW 2605   2.710   2.568   0.767  0.8140  0.7226  0.2068
  869SOL    HW1 2606   2.744   2.529   0.676  1.8007  2.7221 -0.9685
  869SOL    HW2 2607   2.612   2.588   0.768  0.1311 -0.2195  1.4965
  870SOL     OW 2608   2.732   2.196   0.596 -0.4179 -0.6540 -0.0134
  870SOL    HW1 2609   2.639   2.191   0.633  3.6734  1.1158 -0.2263
  870SOL    HW2 2610   2.775   2.108   0.571 -1.1953 -0.7158 -1.4424
  871SOL     OW 2611   0.339   1.308   1.186 -0.0473 -0.3279  0.5370
  871SOL    HW1 2612   0.410   1.313   1.260 -0.2326 -0.0714  0.0073
  871SOL    HW2 2613   0.246   1.306   1.226 -0.5030 -1.2699 -0.7897
  872SOL     OW 2614   1.181   1.743   2.470 -0.3617 -0.2093 -0.6021
  872SOL    HW1 2615   1.098   1.699   2.433  1.5760 -0.4385 -2.5714
  872SOL    HW2 2616   1.257   1.723   2.401  0.2183 -0.8093 -0.4689
  873SOL     OW 2617   0.538   2.734   2.073 -0.0838  0.2315 -0.5666
  873SOL    HW1 2618   0.627   2.776   2.052  0.4348 -0.0386 -1.7450
  873SOL    HW2 2619   0.471   2.776   2.007  0.3537  2.2552  0.0728
  874SOL     OW 2620   0.761   0.237   1.383 -0.1242 -0.2280  0.4274
  874SOL    HW1 2621   0.781   0.210   1.479  1.3257 -1.3273  2.3202
  874SOL    HW2 2622   0.720   0.160   1.331  1.7766 -1.1459  0.6339
  875SOL     OW 2623   2.968   0.245   1.042  0.6027  0.3258 -0.2505
  875SOL    HW1 2624   2.976   0.321   1.111  1.6356  1.5730 -0.2440
  875SOL    HW2 2625   2.877   0.207   1.032  0.1831 -0.7087  0.7355
  876SOL     OW 2626   0.500   1.332   0.348 -0.0195 -0.1050  0.3317
  876SOL    HW1 2627   0.451   1.254   0.292  0.1788 -2.0605 -1.1180
  876SOL    HW2 2628   0.592   1.358   0.302  2.2925  0.4855 -1.4923
  877SOL     OW 2629   1.147   0.965   1.693 -0.6512  0.1628 -0.2015
  877SOL    HW1 2630   1.143   0.939   1.594 -1.4813 -2.1880  0.8551
  877SOL    HW2 2631   1.049   0.976   1.726 -0.9769  0.4054  0.1831
  878SOL     OW 2632   2.382   2.307   0.465  0.2211  0.0782 -0.2208
  878SOL    HW1 2633   2.406   2.244   0.386 -0.2952 -1.8317 -0.9732
  878SOL    HW2 2634   2.421   2.263   0.550  2.1503 -1.5231  1.5135
  879SOL     OW 2635   2.702   1.691   1.733 -0.0260 -0.3083 -0.0124
  879SOL    HW1 2636   2.750   1.782   1.736 -1.1091  0.3011 -0.3160
  879SOL    HW2 2637   2.723   1.651   1.641 -0.8447  0.5934  1.1330
  880SOL     OW 2638   1.636   2.420   0.659 -0.0362 -0.0426  0.0913
  880SOL    HW1 2639   1.609   2.432   0.760 -3.2625 -1.4460  1.5719
  880SOL    HW2 2640   1.595   2.334   0.624  0.7451 -0.0634  0.9801
  881SOL     OW 2641   0.441   2.356   0.371 -0.0554 -0.0594  0.2623
  881SOL    HW1 2642   0.489   2.318   0.290 -1.0256 -2.2905 -1.1987
  881SOL    HW2 2643   0.425   2.456   0.347 -0.6812  1.0371 -0.1184
  882SOL     OW 2644   2.054   0.740   0.634  0.7158 -0.1989  0.0929
  882SOL    HW1 2645   2.072   0.797   0.714  3.3322  0.5387  1.8528
  882SOL    HW2 2646   2.142   0.690   0.614 -0.5879 -2.4419  0.0024
  883SOL     OW 2647   1.332   1.143   1.043  0.4663 -0.4458 -0.2143
  883SOL    HW1 2648   1.260   1.069   1.047 -2.6139 -2.2676  2.1209
  883SOL    HW2 2649   1.394   1.126   0.965 -0.7111 -0.6589  2.4516
  884SOL     OW 2650   2.611   2.990   0.103 -0.0357 -0.7772  0.1023
  884SOL    HW1 2651   2.669   2.923   0.153  1.3895  0.6031  0.0241
  884SOL    HW2 2652   2.631   3.082   0.139 -0.7468 -1.4955 -2.1501
  885SOL     OW 2653   1.073   1.362   2.760  0.0390  0.7594  0.2542
  885SOL    HW1 2654   1.056   1.397   2.857 -0.5284 -0.0879  0.6055
  885SOL    HW2 2655   1.131   1.429   2.705 -1.7405  0.8091 -1.8266
  886SOL     OW 2656   1.402   2.033   2.590 -0.9054 -0.0110  0.2055
  886SOL    HW1 2657   1.305   2.004   2.579 -0.3050  0.8057 -1.8994
  886SOL    HW2 2658   1.412   2.135   2.602 -1.2861  1.0861  1.3376
  887SOL     OW 2659   1.243   0.356   1.380 -0.0595 -0.5189 -0.0566
  887SOL    HW1 2660   1.297   0.374   1.294 -0.8625 -2.5261 -1.5431
  887SOL    HW2 2661   1.199   0.444   1.415 -4.8385  0.0190 -2.6337
  888SOL     OW 2662   2.341   0.611   1.722 -0.2325  0.1194 -0.0436
  888SOL    HW1 2663   2.358   0.628   1.818 -0.2454 -0.0874 -2.7605
  888SOL    HW2 2664   2.240   0.590   1.706 -2.1012 -3.0320  2.0127
  889SOL     OW 2665   0.235   2.696   0.637 -0.5185 -0.1427 -0.3161
  889SOL    HW1 2666   0.325   2.652   0.668  0.1429  1.3178  0.5810
  889SOL    HW2 2667   0.162   2.630   0.624 -1.4731 -1.6978 -1.6190
  890SOL     OW 2668   1.853   2.082   0.491  0.2333 -0.0145 -0.1513
  890SOL    HW1 2669   1.940   2.095   0.546 -1.3159 -0.5657 -0.2067
  890SOL    HW2 2670   1.855   2.129   0.399  0.1157  0.4156 -0.1313
  891SOL     OW 2671   0.014   0.853   2.885 -0.4788 -0.1740 -0.0285
  891SOL    HW1 2672   0.112   0.884   2.896 -0.8582  0.5687 -4.1869
  891SOL    HW2 2673   3.042   0.925   2.914  0.8306  1.6419  1.6398
  892SOL     OW 2674   2.771   2.462   1.247  0.8094  0.4629  0.4645
  892SOL    HW1 2675   2.707   2.389   1.209 -0.4845  0.7064 -0.0970
  892SOL    HW2 2676   2.727   2.554   1.256  1.6243  2.2057  0.2593
  893SOL     OW 2677   1.420   0.411   1.152 -0.7267  0.0257  0.1741
  893SOL    HW1 2678   1.430   0.368   1.058  0.3866 -4.8916 -0.9553
  893SOL    HW2 2679   1.392   0.508   1.137 -1.9142  2.8890  1.9051
  894SOL     OW 2680   2.783   0.632   0.964 -0.2249  0.4966  0.1048
  894SOL    HW1 2681   2.686   0.599   0.962  0.9418  4.3131  0.3181
  894SOL    HW2 2682   2.818   0.649   1.059 -1.9502 -0.2849 -0.9369
  895SOL     OW 2683   1.657   1.360   2.439 -0.1734 -0.6160  0.2349
  895SOL    HW1 2684   1.617   1.453   2.442  1.1900 -0.8733 -0.6640
  895SOL    HW2 2685   1.625   1.309   2.357 -2.1026  1.1925 -1.4706
  896SOL     OW 2686   1.648   0.504   1.613  0.3961  0.2365  1.0125
  896SOL    HW1 2687   1.634   0.501   1.716 -0.0683 -0.0590  0.3050
  896SOL    HW2 2688   1.581   0.439   1.564 -1.7407 -0.8806  2.0932
  897SOL     OW 2689   0.483   1.584   1.700 -0.4138 -0.2713 -0.1771
  897SOL    HW1 2690   0.525   1.674   1.728 -0.6044  0.0345 -0.3724
  897SOL    HW2 2691   0.448   1.592   1.603  0.5640  1.7238 -0.0233
  898SOL     OW 2692   2.034   2.633   2.050  0.8790 -0.2702  0.1131
  898SOL    HW1 2693   2.082   2.554   2.015 -1.0119  2.4431  2.4538
  898SOL    HW2 2694   2.026   2.626   2.154 -3.3365 -1.4954  2.0844
  899SOL     OW 2695   1.294   1.643   1.052  0.1396 -0.2386  0.1809
  899SOL    HW1 2696   1.267   1.555   1.006  0.9089  0.2625  0.7922
  899SOL    HW2 2697   1.216   1.711   1.041  2.4124 -0.9462  1.2382
  900SOL     OW 2698   1.398   2.311   2.608  0.3291 -0.3189 -0.3382
  900SOL    HW1 2699   1.310   2.324   2.664  0.9790 -1.5378  1.7930
  900SOL    HW2 2700   1.382   2.324   2.505  1.0933 -2.0957  0.0301
  901SOL     OW 2701   0.993   1.645   2.326  0.0624  0.4706 -0.1292
  901SOL    HW1 2702   1.016   1.574   2.256 -1.6207 -2.2608 -4.4164
  901SOL    HW2 2703   0.927   1.708   2.276 -1.8317 -0.0591 -2.7651
  902SOL     OW 2704   2.412   1.698   0.267  0.0084 -0.1609 -0.5914
  902SOL    HW1 2705   2.404   1.640   0.185  0.4612 -0.7748  0.4876
  902SOL    HW2 2706   2.440   1.644   0.353  0.0938  1.3671  2.7888
  903SOL     OW 2707   2.140   1.745   0.320  0.3642 -0.1621 -0.3291
  903SOL    HW1 2708   2.242   1.730   0.319 -1.5586 -0.0922  0.7727
  903SOL    HW2 2709   2.122   1.819   0.257  2.1876  0.7999 -0.4743
  904SOL     OW 2710   1.007   0.671   2.332 -0.6563  0.0999 -0.1681
  904SOL    HW1 2711   0.936   0.734   2.366  1.6678 -3.2182 -2.1106
  904SOL    HW2 2712   1.080   0.721   2.282  1.7908  3.3003  2.2921
  905SOL     OW 2713   2.945   0.267   0.779 -0.0179 -0.0818  0.0714
  905SOL    HW1 2714   2.891   0.353   0.773  0.9186 -0.3834  2.0508
  905SOL    HW2 2715   2.973   0.256   0.875 -2.6044  0.4434 -0.2720
  906SOL     OW 2716   2.912   1.946   0.484 -0.2368  0.1364 -0.8976
  906SOL    HW1 2717   3.004   1.970   0.518 -1.6800  0.0798 -1.9560
  906SOL    HW2 2718   2.868   1.888   0.559  1.3658 -0.3341  1.8532
  907SOL     OW 2719   1.313   0.367   0.310  0.1307 -0.2526  0.7174
  907SOL    HW1 2720   1.407   0.403   0.311  3.0105  3.0543 -0.1585
  907SOL    HW2 2721   1.280   0.344   0.215  0.7677 -1.8877  0.7700
  908SOL     OW 2722   1.871   2.821   1.540 -0.0511 -0.1901 -0.2800
  908SOL    HW1 2723   1.965   2.800   1.509 -0.0459  0.0331  2.6129
  908SOL    HW2 2724   1.854   2.777   1.629  1.4438 -2.3505  1.1656
  909SOL     OW 2725   2.566   0.675   1.438 -0.0020  0.1133  0.5159
  909SOL    HW1 2726   2.564   0.584   1.492  0.8971  0.4691 -1.5711
  909SOL    HW2 2727   2.471   0.709   1.424  0.2981 -0.9351 -1.0813
  910SOL     OW 2728   1.224   2.987   2.529 -0.0405  0.1342  0.0921
  910SOL    HW1 2729   1.256   2.888   2.549  1.9644 -2.5389  2.2096
  910SOL    HW2 2730   1.217   3.012   2.433  0.7177 -0.7952  2.5767
  911SOL     OW 2731   2.154   1.249   2.119  0.0781 -0.0645 -0.3360
  911SOL    HW1 2732   2.197   1.281   2.204 -0.5644  1.7332  0.3246
  911SOL    HW2 2733   2.175   1.323   2.049 -0.0269  0.0863  0.2004
  912SOL     OW 2734   2.591   2.201   1.522  0.3770 -0.4630  0.5974
  912SOL    HW1 2735   2.670   2.151   1.482  0.0197  0.5645  2.1764
  912SOL    HW2 2736   2.523   2.234   1.456  1.6611 -0.5689  0.9133
  913SOL     OW 2737   2.608   2.687   1.274  0.3086  0.2008  0.1752
  913SOL    HW1 2738   2.639   2.735   1.359 -1.5032  0.5411 -1.9044
  913SOL    HW2 2739   2.626   2.745   1.195  1.6413  0.6199 -0.0242
  914SOL     OW 2740   2.391   1.822   1.247 -0.0912  0.1801 -0.6201
  914SOL    HW1 2741   2.379   1.720   1.234 -1.0258 -0.2698  0.2972
  914SOL    HW2 2742   2.338   1.859   1.325 -1.2816 -0.8313  3.0991
  915SOL     OW 2743   1.186   2.003   1.294  0.2089 -0.0393  0.2710
  915SOL    HW1 2744   1.094   2.040   1.309  1.9928 -2.0171  1.6540
  915SOL    HW2 2745   1.252   2.035   1.360 -0.3027  0.3163 -4.5248
  916SOL     OW 2746   2.983   2.873   1.173  0.3137  0.3781 -0.5365
  916SOL    HW1 2747   3.017   2.970   1.164 -0.0357 -0.9294  0.0844
  916SOL    HW2 2748   2.882   2.872   1.158 -1.4716 -0.7560  0.2260
  917SOL     OW 2749   2.510   1.210   2.539  0.0172  0.7206  0.4687
  917SOL    HW1 2750   2.547   1.166   2.621  0.2138 -0.2719  0.8154
  917SOL    HW2 2751   2.411   1.198   2.536  0.6221  0.3331  1.1277
  918SOL     OW 2752   1.792   2.154   2.339  0.1532  0.4843  0.0000
  918SOL    HW1 2753   1.714   2.181   2.279  0.2791  1.8521  1.3266
  918SOL    HW2 2754   1.810   2.051   2.328  0.9414 -0.3260  0.6418
  919SOL     OW 2755   1.676   1.961   1.659 -0.0418 -0.0955  0.3598
  919SOL    HW1 2756   1.615   1.926   1.732  5.0206  2.0654 -4.0563
  919SOL    HW2 2757   1.771   1.925   1.674 -1.9847 -0.2244  1.0578
  920SOL     OW 2758   0.342   0.013   2.907  0.0047 -0.2032 -0.3736
  920SOL    HW1 2759   0.431   3.082   2.865 -0.3268 -0.6943 -1.3072
  920SOL    HW2 2760   0.356   0.021   3.008  0.7559 -0.6102 -3.6338
  921SOL     OW 2761   2.539   0.128   2.485 -0.3368  0.0653 -0.2691
  921SOL    HW1 2762   2.610   0.068   2.444 -1.7231 -1.2836 -0.2410
  921SOL    HW2 2763   2.503   0.190   2.409 -0.1557 -1.7207  1.2957
  922SOL     OW 2764   2.299   1.575   1.684  0.3182  0.0486  0.4151
  922SOL    HW1 2765   2.331   1.665   1.718  1.0465 -0.0247 -0.4541
  922SOL    HW2 2766   2.198   1.578   1.662 -0.3156  0.1569  0.1201
  923SOL     OW 2767   0.741   1.948   0.416  0.5858 -0.5553 -0.0749
  923SOL    HW1 2768   0.787   2.012   0.351 -0.9406  1.3630  2.4604
  923SOL    HW2 2769   0.786   1.860   0.432 -1.0250  1.3914 -0.5229
  924SOL     OW 2770   1.452   0.469   2.991 -0.0037  0.3677  0.1954
  924SOL    HW1 2771   1.459   0.533   3.070 -1.8106  2.3557  0.1022
  924SOL    HW2 2772   1.535   0.483   2.931  0.8301  0.6033  0.0910
  925SOL     OW 2773   2.660   1.289   0.673  0.2327 -0.0510 -0.8204
  925SOL    HW1 2774   2.691   1.359   0.609 -1.9092 -1.4422 -1.7113
  925SOL    HW2 2775   2.557   1.271   0.657 -0.9497  0.9904 -1.6330
  926SOL     OW 2776   2.982   0.856   0.768  0.0047  0.3269 -0.6939
  926SOL    HW1 2777   3.023   0.927   0.710 -0.3639 -1.0301  1.0420
  926SOL    HW2 2778   2.882   0.856   0.754  2.8378  0.6183  0.7260
  927SOL     OW 2779   0.511   1.538   0.555  0.0166 -0.4102  0.0681
  927SOL    HW1 2780   0.496   1.475   0.478  2.3371  1.6667  1.6444
  927SOL    HW2 2781   0.613   1.559   0.560  0.9860 -0.7341 -2.6216
  928SOL     OW 2782   0.061   3.061   2.555  0.5057 -0.7816  0.1424
  928SOL    HW1 2783   0.072   3.041   2.657  2.4633  0.9222 -0.2843
  928SOL    HW2 2784   0.137   0.023   2.518  0.0848  0.1271 -2.9426
  929SOL     OW 2785   2.713   0.184   1.277 -0.2361  0.0413  0.3184
  929SOL    HW1 2786   2.641   0.240   1.322  0.7982 -0.6846  0.7089
  929SOL    HW2 2787   2.722   0.194   1.173  1.2820 -0.7333 -1.1522
  930SOL     OW 2788   1.966   2.194   1.604  0.0469 -0.1426 -0.0747
  930SOL    HW1 2789   1.889   2.212   1.670 -1.3667 -1.9744  3.9853
  930SOL    HW2 2790   1.981   2.095   1.599 -1.4439  0.8208 -3.7196
  931SOL     OW 2791   1.725   0.915   0.860  0.0807 -0.1992 -0.9793
  931SOL    HW1 2792   1.688   0.820   0.876 -0.3614  0.1851 -0.8911
  931SOL    HW2 2793   1.817   0.923   0.903 -1.6942  0.6311  0.7321
  932SOL     OW 2794   2.847   0.975   1.197 -0.3489 -0.3720 -0.2054
  932SOL    HW1 2795   2.765   0.915   1.208 -2.1983 -3.1047 -0.4886
  932SOL    HW2 2796   2.914   0.938   1.126 -0.2242 -1.9761 -1.0147
  933SOL     OW 2797   2.440   1.789   1.798  0.1848 -0.6337  0.3578
  933SOL    HW1 2798   2.456   1.867   1.733 -3.2416 -2.7944 -1.7555
  933SOL    HW2 2799   2.530   1.740   1.809  0.8561  0.1686  1.8048
  934SOL     OW 2800   1.721   0.094   1.008  0.0087 -0.7541 -0.3134
  934SOL    HW1 2801   1.640   0.082   0.948  0.6606  1.6510 -0.8038
  934SOL    HW2 2802   1.809   0.104   0.956 -1.6302  1.3210 -0.7648
  935SOL     OW 2803   2.777   1.235   1.161  0.1158  0.6902  0.0333
  935SOL    HW1 2804   2.812   1.287   1.083 -0.0416 -2.1705 -1.2629
  935SOL    HW2 2805   2.822   1.145   1.163  0.2823 -0.1911  0.4438
  936SOL     OW 2806   0.056   1.221   0.971 -0.6990  0.1518 -0.1536
  936SOL    HW1 2807   0.025   1.223   0.871  0.2004  2.5945  2.6447
  936SOL    HW2 2808   0.090   1.134   0.994 -0.9511  4.3602 -0.6593
  937SOL     OW 2809   1.512   2.703   0.825  0.3892 -0.2466  0.0825
  937SOL    HW1 2810   1.449   2.720   0.743 -1.0512 -2.1730  0.7056
  937SOL    HW2 2811   1.507   2.604   0.842 -0.1910 -0.4941  0.6114
  938SOL     OW 2812   2.950   2.528   0.907 -0.0519  0.4782 -0.3416
  938SOL    HW1 2813   2.863   2.523   0.855 -0.9340  4.0633  3.2210
  938SOL    HW2 2814   2.979   2.625   0.904 -0.6178 -0.2114  0.0532
  939SOL     OW 2815   0.881   1.978   3.014  0.1796 -0.1221 -0.0220
  939SOL    HW1 2816   0.812   1.937   3.078 -2.9559 -1.6150 -0.5005
  939SOL    HW2 2817   0.865   2.075   2.993 -0.1391 -1.3683  1.0326
  940SOL     OW 2818   2.882   2.710   2.739 -0.0444 -0.1331  0.0634
  940SOL    HW1 2819   2.960   2.771   2.701  2.4064  0.4593 -0.7921
  940SOL    HW2 2820   2.794   2.729   2.685  1.0826  0.8070 -0.6374
  941SOL     OW 2821   1.528   2.775   2.975  0.2153 -0.0486  0.2363
  941SOL    HW1 2822   1.533   2.870   3.021 -1.0532  0.5505  0.1189
  941SOL    HW2 2823   1.456   2.713   3.018 -0.9818 -1.7381  2.1367
  942SOL     OW 2824   1.851   1.779   1.441 -0.1780 -0.1842 -0.0325
  942SOL    HW1 2825   1.767   1.757   1.500 -0.0597 -0.3004  0.7266
  942SOL    HW2 2826   1.829   1.782   1.344  3.3535  2.6569  1.4315
  943SOL     OW 2827   2.248   1.224   1.488 -0.5262 -0.3522 -0.1173
  943SOL    HW1 2828   2.350   1.224   1.497  1.6822  0.8753  0.5321
  943SOL    HW2 2829   2.202   1.256   1.576 -1.2009 -2.9318  1.8972
  944SOL     OW 2830   2.081   0.937   1.785 -0.1670  0.3331  0.3640
  944SOL    HW1 2831   2.109   0.933   1.689  0.2795  2.2299 -0.5822
  944SOL    HW2 2832   2.015   0.862   1.802  1.4205  0.4299 -0.2863
  945SOL     OW 2833   0.151   0.104   1.348  0.8311  0.1587 -0.7270
  945SOL    HW1 2834   0.116   0.106   1.445 -3.6643 -1.7768  2.2828
  945SOL    HW2 2835   0.075   0.073   1.290 -0.5164  3.3310  1.3629
  946SOL     OW 2836   0.431   0.870   1.895  0.2163  0.5351  0.4939
  946SOL    HW1 2837   0.334   0.891   1.874  2.4940 -2.8583 -0.9285
  946SOL    HW2 2838   0.492   0.950   1.903 -1.7362  1.5385 -1.2730
  947SOL     OW 2839   0.479   2.596   0.677 -0.5949  0.0513 -0.2829
  947SOL    HW1 2840   0.549   2.577   0.604  0.8585  2.3001 -0.1516
  947SOL    HW2 2841   0.532   2.621   0.763 -0.9894 -0.2643 -0.6686
  948SOL     OW 2842   2.948   1.119   1.913 -0.1003 -0.3725  0.0549
  948SOL    HW1 2843   3.012   1.178   1.861 -0.9786 -0.8938 -1.7091
  948SOL    HW2 2844   2.962   1.019   1.886 -0.1164  0.7531  2.4888
  949SOL     OW 2845   0.092   0.779   2.252  0.0260 -0.8679 -0.7325
  949SOL    HW1 2846   0.186   0.778   2.290  1.4751 -1.2591  1.8740
  949SOL    HW2 2847   0.057   0.682   2.232  0.2291 -1.5230 -0.3464
  950SOL     OW 2848   0.696   0.729   1.175 -0.7755 -0.2535 -0.3510
  950SOL    HW1 2849   0.631   0.814   1.183 -0.4449  1.3116 -2.8254
  950SOL    HW2 2850   0.786   0.751   1.132 -1.3196 -2.4223  2.1460
  951SOL     OW 2851   1.151   1.876   1.912 -0.3781 -0.7109 -0.1103
  951SOL    HW1 2852   1.195   1.895   2.004  0.0979  0.5881 -1.5209
  951SOL    HW2 2853   1.121   1.776   1.904 -0.1357 -1.0466 -0.5410
  952SOL     OW 2854   0.810   1.521   2.823  0.1949 -0.0190  0.1177
  952SOL    HW1 2855   0.901   1.519   2.866  0.1246  0.1713 -1.6535
  952SOL    HW2 2856   0.813   1.492   2.724  0.5250  0.3911 -1.6738
  953SOL     OW 2857   1.571   2.913   2.203  0.3913 -0.0492 -0.2177
  953SOL    HW1 2858   1.506   2.837   2.182  0.2254  1.4859 -1.9232
  953SOL    HW2 2859   1.585   2.919   2.303  1.1988 -0.9384  0.7599
  954SOL     OW 2860   2.131   1.216   0.385 -0.7427  0.1687 -0.2724
  954SOL    HW1 2861   2.088   1.301   0.366  1.1600 -3.2126  0.5847
  954SOL    HW2 2862   2.170   1.172   0.303 -0.6357  0.1747 -1.1104
  955SOL     OW 2863   0.478   2.121   2.275 -0.0287 -0.4142 -0.0429
  955SOL    HW1 2864   0.416   2.055   2.321 -0.7208  2.4637 -3.0207
  955SOL    HW2 2865   0.519   2.086   2.191 -0.0644  3.5422  1.7918
  956SOL     OW 2866   1.285   1.141   1.414 -0.6965 -0.1263  0.0004
  956SOL    HW1 2867   1.268   1.042   1.385 -1.0048  0.3545 -0.1282
  956SOL    HW2 2868   1.370   1.180   1.370 -0.4431 -0.2111  4.1910
  957SOL     OW 2869   1.946   1.356   2.433  0.1916  0.1294 -0.2559
  957SOL    HW1 2870   1.950   1.454   2.451 -0.2602 -1.7609 -0.6369
  957SOL    HW2 2871   1.853   1.322   2.455 -0.6094 -0.3523 -1.3577
  958SOL     OW 2872   1.537   2.455   0.912  0.2798 -0.0551 -0.2735
  958SOL    HW1 2873   1.502   2.491   0.999  0.7902 -1.1897 -0.3777
  958SOL    HW2 2874   1.594   2.368   0.925  0.2631  0.3370 -1.3385
  959SOL     OW 2875   1.855   1.881   2.455 -0.4452  0.4866 -0.0981
  959SOL    HW1 2876   1.755   1.905   2.450 -0.7281 -0.1667 -3.4201
  959SOL    HW2 2877   1.883   1.871   2.553 -0.5777  0.1244  3.2429
  960SOL     OW 2878   0.269   0.535   0.081 -0.3297 -0.4175 -0.1818
  960SOL    HW1 2879   0.299   0.612   0.141  0.9902 -1.7106  0.8251
  960SOL    HW2 2880   0.350   0.477   0.055  2.2220 -0.1015  1.4930
  961SOL     OW 2881   0.443   0.443   2.019  0.7388 -0.3134 -0.2349
  961SOL    HW1 2882   0.384   0.366   2.050  1.8821 -0.4776 -2.1948
  961SOL    HW2 2883   0.533   0.410   1.971  0.8385 -3.0464  1.6963
  962SOL     OW 2884   1.083   1.390   0.109 -0.0647  0.3373  0.0231
  962SOL    HW1 2885   1.182   1.378   0.110 -0.1112  1.5925 -0.9088
  962SOL    HW2 2886   1.035   1.397   0.198 -0.2345  0.9178 -0.0435
  963SOL     OW 2887   1.727   2.019   2.887  0.1350  0.6682 -0.2283
  963SOL    HW1 2888   1.774   2.104   2.910 -0.7581 -1.0398  1.0734
  963SOL    HW2 2889   1.682   1.988   2.974 -0.3138  1.0614 -2.0430
  964SOL     OW 2890   1.156   2.947   0.795 -0.1863 -0.0922 -0.1469
  964SOL    HW1 2891   1.152   3.044   0.758 -3.7659  3.2121  0.6977
  964SOL    HW2 2892   1.248   2.926   0.831 -0.3713  0.5075 -0.2062
  965SOL     OW 2893   0.644   2.783   1.013 -0.1046  0.5340 -0.0668
  965SOL    HW1 2894   0.711   2.733   0.960 -2.6926  3.5818  0.2520
  965SOL    HW2 2895   0.579   2.838   0.957  1.4554  2.4778  1.1416
  966SOL     OW 2896   2.916   1.156   3.022 -0.1074  0.1119  0.7015
  966SOL    HW1 2897   2.994   1.167   2.954  0.6304 -0.2897 -2.0732
  966SOL    HW2 2898   2.833   1.210   3.001  1.6823 -0.6722  1.0075
  967SOL     OW 2899   1.592   2.794   1.753 -0.5507 -0.5295  0.4544
  967SOL    HW1 2900   1.582   2.753   1.660 -1.1268  1.0497 -1.9074
  967SOL    HW2 2901   1.534   2.873   1.765 -0.9306 -4.6845  1.1711
  968SOL     OW 2902   1.801   0.966   0.595 -0.2087  0.0730  0.6321
  968SOL    HW1 2903   1.729   0.921   0.535 -3.3977 -0.8384 -0.8823
  968SOL    HW2 2904   1.793   0.938   0.694 -1.1500 -0.1383  1.1757
  969SOL     OW 2905   0.378   1.767   2.109 -0.2212  0.0795 -0.4114
  969SOL    HW1 2906   0.297   1.806   2.060  1.2995 -2.2106 -1.0930
  969SOL    HW2 2907   0.458   1.834   2.103  1.3506  1.1100 -2.1740
  970SOL     OW 2908   2.733   1.566   1.507  0.4059 -0.2049 -0.0349
  970SOL    HW1 2909   2.793   1.507   1.454  0.0322  2.1012  0.4903
  970SOL    HW2 2910   2.650   1.513   1.533  0.2429 -0.4193 -2.3820
  971SOL     OW 2911   1.132   0.598   1.445 -0.0552  0.0873 -0.0432
  971SOL    HW1 2912   1.064   0.627   1.517  0.3057 -2.5411 -0.4531
  971SOL    HW2 2913   1.223   0.641   1.456  3.3401  0.8869 -0.3034
  972SOL     OW 2914   0.947   0.252   2.678 -0.0640 -0.4460  0.1438
  972SOL    HW1 2915   0.954   0.270   2.776 -1.7444  1.2110 -0.5020
  972SOL    HW2 2916   1.024   0.298   2.625  1.1369  2.1768 -2.7453
  973SOL     OW 2917   2.921   1.376   0.924 -0.0192  0.3503 -0.1988
  973SOL    HW1 2918   2.876   1.312   0.861  0.7574 -0.5726  3.8427
  973SOL    HW2 2919   3.019   1.354   0.936 -0.9355  1.8790 -1.0775
  974SOL     OW 2920   1.958   1.133   1.935  0.3433 -0.5419  0.2249
  974SOL    HW1 2921   2.007   1.151   2.026 -1.0388  0.4340 -0.3275
  974SOL    HW2 2922   2.008   1.064   1.878 -0.9875 -1.1147  1.2020
  975SOL     OW 2923   2.970   2.935   0.444 -0.0900 -0.8661 -0.3043
  975SOL    HW1 2924   2.994   2.919   0.539 -3.0716  1.2820 -0.5146
  975SOL    HW2 2925   2.965   3.038   0.442 -3.2777  3.6937  0.4037
  976SOL     OW 2926   0.011   1.590   1.658  0.1789  0.0985 -0.5099
  976SOL    HW1 2927   0.101   1.632   1.625  2.2135  1.1771 -0.8379
  976SOL    HW2 2928   3.027   1.610   1.593 -0.4776  1.7738 -1.7024
  977SOL     OW 2929   0.771   2.836   0.118 -0.0074 -0.3088 -0.3249
  977SOL    HW1 2930   0.719   2.923   0.144  1.1269 -0.4058  1.7041
  977SOL    HW2 2931   0.780   2.837   0.017 -3.2851  1.6234 -2.3422
  978SOL     OW 2932   0.702   1.906   0.091 -0.1303 -0.0724  0.5814
  978SOL    HW1 2933   0.703   1.803   0.104 -0.2122 -1.5504  1.4021
  978SOL    HW2 2934   0.723   1.954   0.181  0.2893  1.4730  2.3812
  979SOL     OW 2935   1.333   2.102   1.024  0.2474 -0.4310 -0.1511
  979SOL    HW1 2936   1.375   2.060   0.937  0.0712  1.8563  0.3909
  979SOL    HW2 2937   1.307   2.034   1.096  0.0733  1.6116  0.9654
  980SOL     OW 2938   0.511   1.106   2.264  0.5415 -0.0635 -0.3645
  980SOL    HW1 2939   0.536   1.009   2.254 -0.0378 -1.8527 -0.0537
  980SOL    HW2 2940   0.429   1.135   2.211  0.5574 -0.0145  0.6840
  981SOL     OW 2941   3.068   1.209   0.152 -0.0773 -0.0655  0.1574
  981SOL    HW1 2942   0.027   1.288   0.121  2.0833 -0.2342 -0.4212
  981SOL    HW2 2943   3.000   1.174   0.081  0.2410 -0.9010 -0.4287
  982SOL     OW 2944   2.432   2.874   2.804  0.1910 -0.1120  0.4226
  982SOL    HW1 2945   2.504   2.862   2.875 -0.9839 -0.0386  0.3909
  982SOL    HW2 2946   2.350   2.820   2.827 -1.8822 -0.6547  0.0495
  983SOL     OW 2947   2.136   0.640   1.279 -0.3496 -0.4158  0.0640
  983SOL    HW1 2948   2.209   0.674   1.344  2.2842  0.3203  0.4746
  983SOL    HW2 2949   2.076   0.569   1.320 -0.0282 -0.9397  0.6617
  984SOL     OW 2950   0.942   3.063   2.314 -0.0442  0.2856 -0.5557
  984SOL    HW1 2951   0.937   0.043   2.248  2.2520 -1.0360  0.9786
  984SOL    HW2 2952   1.040   3.045   2.335  0.4855 -0.7379 -1.0606
  985SOL     OW 2953   1.584   1.975   2.156  0.5591  0.1643 -0.1400
  985SOL    HW1 2954   1.536   1.938   2.077 -0.1289  3.4606  0.3653
  985SOL    HW2 2955   1.655   2.041   2.118  2.1744  0.5402 -0.9590
  986SOL     OW 2956   1.961   0.184   2.020  0.0571 -0.0974  0.2075
  986SOL    HW1 2957   1.974   0.167   2.120 -3.0220 -0.2185 -2.5466
  986SOL    HW2 2958   1.937   0.093   1.971  2.3230 -4.5289  0.7406
  987SOL     OW 2959   2.166   0.482   2.088 -0.8066 -0.0962  0.4581
  987SOL    HW1 2960   2.112   0.490   2.003  1.8471  0.5122 -1.3042
  987SOL    HW2 2961   2.250   0.427   2.072  0.1075  1.7077 -1.3972
  988SOL     OW 2962   2.474   0.319   2.300  0.1328 -0.0718 -0.3054
  988SOL    HW1 2963   2.486   0.422   2.313 -1.2216  0.8871  0.0488
  988SOL    HW2 2964   2.443   0.290   2.205 -1.5498 -1.5586 -0.9449
  989SOL     OW 2965   2.388   2.461   2.743  0.7345  0.5902 -0.6627
  989SOL    HW1 2966   2.469   2.516   2.777  1.4484  1.6404  2.2554
  989SOL    HW2 2967   2.424   2.391   2.679  0.0653  0.0375  0.8418
  990SOL     OW 2968   0.164   0.942   0.204 -0.0079 -0.2291  0.9144
  990SOL    HW1 2969   0.096   0.871   0.225 -0.6050  0.7931 -0.9881
  990SOL    HW2 2970   0.120   1.033   0.194  1.5467  1.0532 -1.5324
  991SOL     OW 2971   0.438   0.637   2.903  0.4177 -0.1308 -0.1592
  991SOL    HW1 2972   0.461   0.537   2.890  0.2595 -0.6452  2.1077
  991SOL    HW2 2973   0.463   0.672   2.996 -1.4025 -0.3752 -0.7069
  992SOL     OW 2974   0.108   1.607   2.168 -0.1137 -0.1042  0.0074
  992SOL    HW1 2975   0.178   1.678   2.132  2.5883 -1.5782  1.3388
  992SOL    HW2 2976   0.065   1.563   2.086 -0.1561  1.2606 -0.8695
  993SOL     OW 2977   0.750   0.137   0.854  0.3807 -0.3501  0.4705
  993SOL    HW1 2978   0.688   0.201   0.797 -1.2657  0.0515  0.6804
  993SOL    HW2 2979   0.693   0.113   0.936 -0.9626 -0.1009  0.1484
  994SOL     OW 2980   0.374   2.031   1.806 -0.3809  0.7209  0.1308
  994SOL    HW1 2981   0.302   2.100   1.781 -0.4296 -0.4741  0.9300
  994SOL    HW2 2982   0.397   1.991   1.718 -4.2212  0.1844  1.1368
  995SOL     OW 2983   2.430   1.742   2.897 -0.3346  0.0879  0.3314
  995SOL    HW1 2984   2.483   1.805   2.834  1.9403  0.3750  0.9829
  995SOL    HW2 2985   2.345   1.780   2.935  2.1787 -0.5495  1.0637
  996SOL     OW 2986   1.921   1.603   2.551  0.2002  0.7021 -0.7144
  996SOL    HW1 2987   1.992   1.668   2.597  1.2411  3.3562  0.1958
  996SOL    HW2 2988   1.854   1.576   2.622  1.5460  1.4468  0.5993
  997SOL     OW 2989   1.738   1.239   1.846  0.1901 -0.1577 -0.0297
  997SOL    HW1 2990   1.826   1.196   1.878  0.8815  1.0671 -0.1048
  997SOL    HW2 2991   1.706   1.197   1.757 -0.5588 -0.7390 -0.3414
  998SOL     OW 2992   2.432   1.973   0.834 -0.1361  0.1330 -0.3137
  998SOL    HW1 2993   2.525   1.953   0.869  1.9282  0.3095 -1.4740
  998SOL    HW2 2994   2.364   1.898   0.845 -0.1311  0.2030 -0.4570
  999SOL     OW 2995   2.439   2.700   0.277 -0.9123 -0.9347 -0.5315
  999SOL    HW1 2996   2.447   2.801   0.306  0.1181 -0.8399 -0.7566
  999SOL    HW2 2997   2.451   2.683   0.174  0.0652 -0.8930  1.1410
 1000SOL     OW 2998   0.761   3.051   2.545  0.2592  0.2255  0.2892
 1000SOL    HW1 2999   0.734   0.046   2.579 -1.5651  1.2811  1.7785
 1000SOL    HW2 3000   0.817   3.051   2.458 -0.1479 -1.7583  0.4565
   3.09729   3.09729   3.09729
