1000 SPC/Fw water molecules t= 434.00000 step= 434000
 3000
    1SOL     OW    1   0.007   0.130   1.338 -0.9332 -0.0293  0.5399
    1SOL    HW1    2   0.076   0.181   1.287 -1.9341 -3.3409 -1.3521
    1SOL    HW2    3   0.063   0.074   1.402  0.4665  3.7322  0.2412
    2SOL     OW    4   2.797   3.090   3.124  0.4231  0.3441 -0.5780
    2SOL    HW1    5   2.811   2.995   0.015 -0.3703  0.1158  3.5839
    2SOL    HW2    6   2.701   3.105   3.111 -0.5096  1.6209  0.0485
    3SOL     OW    7   1.201   2.779   3.093 -0.4450 -0.0737 -0.1891
    3SOL    HW1    8   1.218   2.691   3.040 -1.1799  1.4512 -1.3832
    3SOL    HW2    9   1.215   2.772   0.049 -1.3867  1.3406  0.1053
    4SOL     OW   10   1.375   2.875   2.482 -0.2751 -0.3451 -0.1515
    4SOL    HW1   11   1.391   2.773   2.496  0.5566 -1.6028  0.6248
    4SOL    HW2   12   1.275   2.892   2.477  2.7990 -1.4615  1.4385
    5SOL     OW   13   2.353   0.180   2.024 -0.3010  0.4433  0.0923
    5SOL    HW1   14   2.403   0.243   2.092  1.5393  2.1016  0.6875
    5SOL    HW2   15   2.255   0.181   2.039  4.1395  0.4457 -1.4400
    6SOL     OW   16   2.703   2.166   0.837  0.3516  0.2247  0.6760
    6SOL    HW1   17   2.807   2.156   0.827  2.1412  0.4098 -0.2715
    6SOL    HW2   18   2.674   2.193   0.929 -0.4451 -0.6583 -0.9516
    7SOL     OW   19   1.540   1.850   0.669  0.3335  0.6816  0.3075
    7SOL    HW1   20   1.489   1.803   0.594  0.1516 -1.4232 -0.8094
    7SOL    HW2   21   1.482   1.848   0.753 -0.7524  2.1291  1.2394
    8SOL     OW   22   0.421   1.459   1.154 -0.2214  0.0451 -0.1684
    8SOL    HW1   23   0.396   1.557   1.140  1.8766  1.8535 -0.2733
    8SOL    HW2   24   0.519   1.452   1.134 -3.1738  0.5132 -1.2709
    9SOL     OW   25   3.128   2.786   1.330 -0.0212  0.4625  0.8367
    9SOL    HW1   26   3.045   2.827   1.373 -0.6802 -0.6121 -0.0485
    9SOL    HW2   27   3.115   2.767   1.230 -0.6510  0.7825  0.0993
   10SOL     OW   28   1.125   2.433   0.504 -0.1713 -0.0802  0.1122
   10SOL    HW1   29   1.188   2.412   0.582  0.1285  1.0128  0.3829
   10SOL    HW2   30   1.073   2.525   0.523  0.5939  2.2557  0.9946
   11SOL     OW   31   1.861   1.770   1.204 -0.1012 -0.4137 -0.4523
   11SOL    HW1   32   1.790   1.788   1.134  1.4924 -1.0064  0.0262
   11SOL    HW2   33   1.821   1.720   1.281 -2.2918  2.0151  2.2461
   12SOL     OW   34   3.015   0.861   2.049  0.0886  0.1737 -0.0006
   12SOL    HW1   35   3.041   0.851   1.949  1.0975  1.1107  0.3486
   12SOL    HW2   36   3.075   0.805   2.108 -1.8068  1.7406 -4.3004
   13SOL     OW   37   2.364   3.015   0.115 -0.3686 -0.0801 -0.3322
   13SOL    HW1   38   2.369   2.933   0.049 -0.1269 -1.6796  1.1534
   13SOL    HW2   39   2.309   3.090   0.077 -3.7009  2.2096 -2.0832
   14SOL     OW   40   1.579   1.868   0.210 -1.0144  0.0481  0.6120
   14SOL    HW1   41   1.516   1.810   0.262 -0.6065 -3.2938  0.7011
   14SOL    HW2   42   1.564   1.965   0.233 -0.6753 -0.5779  0.9725
   15SOL     OW   43   0.069   2.827   1.893  0.7118  0.1192  0.1705
   15SOL    HW1   44   0.149   2.779   1.856 -0.8725  0.1992  0.2716
   15SOL    HW2   45   3.141   2.833   1.827  0.6882  0.5051  0.1937
   16SOL     OW   46   2.826   0.640   0.752  0.1077 -0.1518  0.3052
   16SOL    HW1   47   2.842   0.650   0.650 -1.7878 -1.4318 -0.1963
   16SOL    HW2   48   2.808   0.545   0.775  2.6402  2.4494  0.2784
   17SOL     OW   49   0.673   0.508   0.666 -0.4630 -0.2383  0.1917
   17SOL    HW1   50   0.762   0.551   0.706 -0.6011 -1.2954  0.7185
   17SOL    HW2   51   0.690   0.424   0.614  0.1523 -0.8402  1.4810
   18SOL     OW   52   0.965   0.191   0.803  0.6087 -0.0602 -0.0015
   18SOL    HW1   53   0.924   0.149   0.721 -0.7509 -2.4291  0.6670
   18SOL    HW2   54   1.007   0.281   0.783  1.7424  0.0322 -1.2939
   19SOL     OW   55   1.923   1.050   0.838  0.2823  0.2904  0.0608
   19SOL    HW1   56   2.001   1.114   0.849 -0.5394  1.6506 -2.4828
   19SOL    HW2   57   1.899   1.025   0.743 -1.1335  0.1296  0.7162
   20SOL     OW   58   2.322   1.791   3.048  0.1792 -0.1560  0.6496
   20SOL    HW1   59   2.245   1.802   2.981 -1.9829 -2.0274 -0.6234
   20SOL    HW2   60   2.383   1.872   3.042 -0.3757  0.4725 -0.3504
   21SOL     OW   61   1.541   3.021   0.285 -0.8291  0.6990  0.3874
   21SOL    HW1   62   1.477   3.098   0.254 -1.7610  0.2520  1.4496
   21SOL    HW2   63   1.621   3.065   0.327  0.8404  1.6437  1.1431
   22SOL     OW   64   2.955   1.022   0.603  0.4158  0.2262 -0.4067
   22SOL    HW1   65   2.894   1.076   0.666 -0.4369 -0.3832  1.2145
   22SOL    HW2   66   2.896   0.986   0.531  0.0747 -1.5733  1.9290
   23SOL     OW   67   0.742   0.116   1.795  0.1000 -0.3909 -0.7317
   23SOL    HW1   68   0.828   0.138   1.747 -1.9366 -1.5079  1.7807
   23SOL    HW2   69   0.666   0.178   1.768  1.1702  1.0128 -1.9701
   24SOL     OW   70   1.878   2.430   0.658 -0.1180  0.2275  0.2709
   24SOL    HW1   71   1.963   2.397   0.711  1.3899  1.5579  0.7686
   24SOL    HW2   72   1.825   2.352   0.625  4.9834 -1.6861 -1.3751
   25SOL     OW   73   1.777   0.134   2.364 -0.7216  0.7813  0.0612
   25SOL    HW1   74   1.797   0.129   2.463  1.7786  2.0779  0.8769
   25SOL    HW2   75   1.851   0.092   2.312 -1.0107  1.7799  0.1355
   26SOL     OW   76   1.724   2.510   2.772  0.0287  0.2071 -0.8232
   26SOL    HW1   77   1.788   2.588   2.764 -1.9518 -0.7966 -1.4084
   26SOL    HW2   78   1.633   2.539   2.778  2.3385  0.2427 -1.0326
   27SOL     OW   79   1.151   0.434   1.336 -0.7372  0.2861  0.2401
   27SOL    HW1   80   1.063   0.394   1.309  1.5405  1.2916  1.3597
   27SOL    HW2   81   1.216   0.356   1.350  1.0252  2.5322  1.8322
   28SOL     OW   82   0.789   1.530   0.858  0.6795 -0.5017  0.6994
   28SOL    HW1   83   0.784   1.512   0.757 -0.3378  1.5768 -1.5569
   28SOL    HW2   84   0.871   1.583   0.886  3.6726  1.2038 -1.6372
   29SOL     OW   85   2.418   0.518   1.493  0.5092 -0.8227 -0.0791
   29SOL    HW1   86   2.357   0.535   1.414  2.9060  0.8644  1.2462
   29SOL    HW2   87   2.437   0.423   1.519 -1.1908  1.5694 -1.4689
   30SOL     OW   88   1.628   2.370   1.420  0.1931  0.5627  0.5671
   30SOL    HW1   89   1.716   2.332   1.380  0.1709  0.3085  1.2390
   30SOL    HW2   90   1.558   2.380   1.352  1.7516 -0.7716 -1.1388
   31SOL     OW   91   1.907   2.742   1.564 -0.6306 -0.3387  0.0714
   31SOL    HW1   92   1.851   2.744   1.479  3.4187  0.9574 -1.2891
   31SOL    HW2   93   2.004   2.734   1.543  0.2810  0.3997  1.0669
   32SOL     OW   94   1.907   1.662   1.999 -1.1582  0.8640  0.1317
   32SOL    HW1   95   1.881   1.717   1.916 -0.0817  0.7129  1.4227
   32SOL    HW2   96   1.999   1.669   2.040  1.0359 -2.1940 -0.5069
   33SOL     OW   97   2.437   0.057   2.566 -0.4320 -0.5017  0.1137
   33SOL    HW1   98   2.373   0.102   2.625  0.4544  0.5978  1.9765
   33SOL    HW2   99   2.394   3.129   2.513  0.3598 -0.4396 -3.1489
   34SOL     OW  100   1.839   0.300   0.466  0.2911 -0.1207  0.1394
   34SOL    HW1  101   1.901   0.382   0.488  0.5802  2.6362  0.9191
   34SOL    HW2  102   1.754   0.302   0.519 -0.4597  1.9997 -1.5119
   35SOL     OW  103   0.321   2.022   2.095 -0.3077 -0.4814 -0.3750
   35SOL    HW1  104   0.336   2.097   2.162 -0.3280 -0.5402  1.9716
   35SOL    HW2  105   0.239   1.968   2.112  2.8482  0.9280  2.0145
   36SOL     OW  106   2.480   2.022   3.042 -0.3182  0.1670  0.1253
   36SOL    HW1  107   2.525   2.027   3.135 -2.7104  0.7650  1.1787
   36SOL    HW2  108   2.550   1.993   2.977 -2.2567  0.8677  2.2127
   37SOL     OW  109   1.518   2.996   1.626 -0.1672 -0.1084  0.5596
   37SOL    HW1  110   1.580   3.065   1.664  0.1003  0.0562 -2.0827
   37SOL    HW2  111   1.541   2.896   1.648 -2.6723  1.2073 -0.1571
   38SOL     OW  112   0.927   0.670   2.590  0.0355 -0.8859  0.3685
   38SOL    HW1  113   0.948   0.746   2.653 -3.1695 -0.9258 -0.5946
   38SOL    HW2  114   0.993   0.593   2.604 -1.1148  2.7082  0.3242
   39SOL     OW  115   1.932   0.779   1.455 -0.3864 -0.0131  0.5148
   39SOL    HW1  116   1.926   0.831   1.371  2.8009  0.3575  2.7997
   39SOL    HW2  117   1.991   0.822   1.524  1.8291 -1.6687 -0.3781
   40SOL     OW  118   0.972   2.471   0.816  0.7112  0.6836 -0.1837
   40SOL    HW1  119   0.943   2.498   0.726  1.4410  0.2914  0.6426
   40SOL    HW2  120   1.070   2.458   0.810 -1.2528 -0.3171 -2.2403
   41SOL     OW  121   2.261   2.232   1.301 -0.3502  0.0643 -0.0770
   41SOL    HW1  122   2.227   2.325   1.321  0.2046  3.0761  0.7221
   41SOL    HW2  123   2.227   2.196   1.210 -0.8244 -0.7125 -1.1376
   42SOL     OW  124   2.437   0.485   0.507 -0.5234 -0.1093 -0.2112
   42SOL    HW1  125   2.387   0.570   0.503  0.5286 -0.1934 -1.6135
   42SOL    HW2  126   2.444   0.448   0.409 -0.8139  0.0738 -2.8915
   43SOL     OW  127   0.966   1.263   2.552 -0.3776 -0.3250 -0.8824
   43SOL    HW1  128   0.895   1.206   2.604  0.1888 -1.0026 -0.1724
   43SOL    HW2  129   0.929   1.351   2.515  2.8114  1.2333  1.6928
   44SOL     OW  130   1.791   2.686   1.319 -0.6402  0.3341 -0.3920
   44SOL    HW1  131   1.706   2.671   1.259  0.9669  0.8881 -1.6305
   44SOL    HW2  132   1.866   2.618   1.295  1.0515  2.1280 -0.1872
   45SOL     OW  133   0.934   2.849   2.738  0.0847  0.1754  0.1633
   45SOL    HW1  134   0.904   2.916   2.813  0.1195  2.4801  3.4958
   45SOL    HW2  135   0.964   2.887   2.648  1.1017 -0.1117 -1.6237
   46SOL     OW  136   0.628   2.646   1.990  0.1649 -0.1515 -0.1846
   46SOL    HW1  137   0.592   2.734   1.954 -0.2062 -0.0200  0.1962
   46SOL    HW2  138   0.722   2.620   1.963  0.6002 -0.7725 -4.5851
   47SOL     OW  139   0.675   1.906   0.589 -0.2132 -0.7506 -0.0130
   47SOL    HW1  140   0.761   1.847   0.575  2.6048 -4.1585 -0.3212
   47SOL    HW2  141   0.633   1.886   0.683 -1.8214 -1.2243  1.2822
   48SOL     OW  142   0.962   2.821   1.304  0.1083 -0.0962  0.3237
   48SOL    HW1  143   0.960   2.916   1.347 -0.1581  3.3391  1.1747
   48SOL    HW2  144   0.880   2.761   1.326 -0.2382  2.2227  0.2383
   49SOL     OW  145   3.130   3.036   2.727  0.2389  0.3793 -0.0899
   49SOL    HW1  146   3.055   2.983   2.683  2.9678  0.9861 -0.6560
   49SOL    HW2  147   3.085   3.085   2.808  0.3269 -0.7731 -0.9828
   50SOL     OW  148   1.422   1.175   0.457  0.3001  0.0988 -0.4769
   50SOL    HW1  149   1.380   1.087   0.473  1.3709  2.0987 -1.5899
   50SOL    HW2  150   1.466   1.166   0.362  1.5742 -2.8675 -0.7488
   51SOL     OW  151   2.196   3.094   0.551  0.0315 -0.2363 -0.5550
   51SOL    HW1  152   2.193   3.043   0.459 -0.0582 -1.5585  3.8670
   51SOL    HW2  153   2.113   0.004   0.560  0.7725  0.5713 -0.3177
   52SOL     OW  154   0.882   1.754   0.536  0.3988 -0.2342 -0.0054
   52SOL    HW1  155   0.887   1.748   0.430  0.2781 -0.4631  0.3142
   52SOL    HW2  156   0.979   1.763   0.574  0.8470 -1.5008  0.2933
   53SOL     OW  157   0.207   1.516   2.730  0.1949  0.2732 -0.0678
   53SOL    HW1  158   0.195   1.474   2.820 -3.4586 -1.0839  0.2882
   53SOL    HW2  159   0.293   1.569   2.729 -0.8223  1.2277 -1.6002
   54SOL     OW  160   2.517   2.078   0.160  0.3178 -0.3791 -0.1683
   54SOL    HW1  161   2.594   2.083   0.227 -0.8515  2.4202  0.2120
   54SOL    HW2  162   2.434   2.022   0.199 -2.0474 -0.6400  4.1095
   55SOL     OW  163   2.527   2.344   1.393  0.3983  0.2472  0.0508
   55SOL    HW1  164   2.509   2.406   1.473 -2.1544 -0.0190  1.1694
   55SOL    HW2  165   2.435   2.326   1.345 -1.9600 -1.4403 -2.1013
   56SOL     OW  166   1.468   3.080   1.373 -0.2016  0.2769 -0.5693
   56SOL    HW1  167   1.473   3.037   1.464  2.4823  2.4505 -0.5620
   56SOL    HW2  168   1.542   3.043   1.314  0.7082 -0.5701 -0.0392
   57SOL     OW  169   1.611   1.878   1.085 -0.1412 -0.3886  0.2658
   57SOL    HW1  170   1.565   1.880   1.178  2.2136 -0.9170  0.9819
   57SOL    HW2  171   1.543   1.862   1.012 -1.6024  0.3831 -0.1435
   58SOL     OW  172   2.542   0.202   1.819  0.2242 -0.2138  0.3766
   58SOL    HW1  173   2.595   0.286   1.845  1.8183  0.4995  1.6295
   58SOL    HW2  174   2.458   0.190   1.877 -2.4276  2.4521 -1.9057
   59SOL     OW  175   1.252   2.627   2.268 -0.3064 -0.0866  0.1257
   59SOL    HW1  176   1.314   2.640   2.350  2.0876  0.7394  1.3041
   59SOL    HW2  177   1.159   2.661   2.275  1.4206 -1.3864 -0.5724
   60SOL     OW  178   0.683   0.166   2.487 -0.1358 -0.1794 -0.5438
   60SOL    HW1  179   0.688   0.237   2.412 -0.8136  1.6756  0.2484
   60SOL    HW2  180   0.709   0.212   2.572  0.6741 -3.5734 -2.2908
   61SOL     OW  181   0.753   2.172   0.649  0.0019  0.2313  0.1180
   61SOL    HW1  182   0.787   2.237   0.581 -3.6832 -0.3732  3.0228
   61SOL    HW2  183   0.742   2.076   0.614 -1.8280 -0.8067 -3.9118
   62SOL     OW  184   1.284   1.793   2.230 -0.2690  0.4197 -0.1374
   62SOL    HW1  185   1.198   1.849   2.241  0.1786  0.5290  1.5063
   62SOL    HW2  186   1.281   1.712   2.290  0.0889  0.1788 -0.9105
   63SOL     OW  187   1.003   1.685   0.899  0.2210 -0.2621 -0.2105
   63SOL    HW1  188   1.005   1.762   0.967 -2.3732 -1.8767 -2.0787
   63SOL    HW2  189   1.054   1.707   0.818 -4.0595 -2.5950  3.2240
   64SOL     OW  190   1.620   1.415   3.038  0.0254 -0.2000 -0.1580
   64SOL    HW1  191   1.592   1.486   2.970  0.5002 -2.4341 -1.0731
   64SOL    HW2  192   1.573   1.327   3.014  0.2403 -1.7714 -1.4972
   65SOL     OW  193   1.643   2.112   2.410 -0.1067 -0.1897 -0.6339
   65SOL    HW1  194   1.585   2.058   2.341 -2.7962 -1.4452 -2.7693
   65SOL    HW2  195   1.736   2.076   2.411 -1.1347  3.5514  2.2577
   66SOL     OW  196   0.023   0.923   0.977 -0.1730 -0.4987  0.5552
   66SOL    HW1  197   0.105   0.875   1.007 -1.3024  3.1707  1.7183
   66SOL    HW2  198   0.003   0.906   0.880  0.4260  0.3873 -0.8045
   67SOL     OW  199   2.132   2.637   0.316  0.4198 -0.1246 -0.2556
   67SOL    HW1  200   2.100   2.617   0.414 -0.7921 -1.6523  5.6547
   67SOL    HW2  201   2.162   2.552   0.270 -0.9027 -2.2073 -2.8012
   68SOL     OW  202   2.598   2.567   1.609  0.2951  0.2067 -0.7316
   68SOL    HW1  203   2.670   2.607   1.550 -0.7560 -2.8100 -0.4956
   68SOL    HW2  204   2.630   2.547   1.701 -0.9214  0.7252 -2.5535
   69SOL     OW  205   2.658   2.573   2.873  0.0559  0.0820  0.6755
   69SOL    HW1  206   2.728   2.555   2.802  0.3457  0.2624 -0.1370
   69SOL    HW2  207   2.622   2.667   2.858 -0.3487 -0.2508  0.3532
   70SOL     OW  208   0.504   1.373   2.671  0.2311  0.5518  0.5765
   70SOL    HW1  209   0.528   1.366   2.571  1.8326 -0.4710  1.2321
   70SOL    HW2  210   0.431   1.303   2.692 -1.8508  0.0331  1.5526
   71SOL     OW  211   0.985   1.126   1.933 -0.6658  0.4399  0.0330
   71SOL    HW1  212   0.882   1.135   1.945 -0.1532  1.1751  3.7687
   71SOL    HW2  213   1.024   1.189   1.862  0.0475 -1.2932 -1.4669
   72SOL     OW  214   2.463   1.572   2.042 -0.4512 -0.1147  0.0085
   72SOL    HW1  215   2.430   1.496   2.102 -0.8327  0.1103 -1.0883
   72SOL    HW2  216   2.563   1.581   2.035  0.6361  1.2767  1.3435
   73SOL     OW  217   0.819   1.933   2.947  0.6131  0.0596 -0.2444
   73SOL    HW1  218   0.823   1.965   2.851  1.9563  1.5579  1.1673
   73SOL    HW2  219   0.753   1.852   2.957 -5.1938  1.1642 -0.0148
   74SOL     OW  220   1.600   2.768   1.719 -0.4746 -0.5117  0.7304
   74SOL    HW1  221   1.510   2.751   1.764  1.4396  0.4174 -1.1984
   74SOL    HW2  222   1.678   2.753   1.778  0.0418 -0.1064 -0.7226
   75SOL     OW  223   1.082   2.870   0.459 -0.1899  0.4994 -0.3759
   75SOL    HW1  224   1.148   2.836   0.530 -0.6061  2.5266 -1.4756
   75SOL    HW2  225   1.038   2.955   0.489  0.4092 -1.6761  0.9881
   76SOL     OW  226   0.340   1.886   2.724  0.0613 -0.0258  0.2757
   76SOL    HW1  227   0.330   1.941   2.810 -1.0399  0.9386 -1.7590
   76SOL    HW2  228   0.392   1.799   2.741  0.2826 -1.1487 -4.0884
   77SOL     OW  229   0.358   2.584   1.227  0.1120 -0.3213  0.4109
   77SOL    HW1  230   0.428   2.646   1.184 -0.9344 -1.9640  0.4753
   77SOL    HW2  231   0.308   2.640   1.297 -0.8120  0.1520  2.3942
   78SOL     OW  232   2.547   1.141   0.345 -0.0157  0.4948 -0.1028
   78SOL    HW1  233   2.621   1.143   0.275 -1.0068 -2.5721  2.4759
   78SOL    HW2  234   2.587   1.190   0.428 -0.2871  0.9496  1.3189
   79SOL     OW  235   0.654   1.699   3.011 -0.5765  0.5455 -0.1064
   79SOL    HW1  236   0.572   1.649   3.047  0.4428  3.0848 -1.8063
   79SOL    HW2  237   0.739   1.670   3.062 -2.2954  2.5899  0.3291
   80SOL     OW  238   1.718   1.662   1.422 -0.3728 -0.2778  0.2950
   80SOL    HW1  239   1.726   1.695   1.516 -0.8279 -1.2395 -2.9925
   80SOL    HW2  240   1.699   1.560   1.422  1.1925  1.2991 -1.3093
   81SOL     OW  241   2.093   0.960   2.197 -0.0489 -0.8454 -0.2660
   81SOL    HW1  242   2.108   0.864   2.173  3.2227  3.4039  0.5528
   81SOL    HW2  243   2.005   0.962   2.248 -1.1966  1.4166  0.8603
   82SOL     OW  244   1.655   1.387   1.426  0.0729 -0.2285 -0.2614
   82SOL    HW1  245   1.554   1.417   1.412 -1.2851  5.5421 -1.8275
   82SOL    HW2  246   1.683   1.398   1.525  1.4042 -0.5134  0.8664
   83SOL     OW  247   0.051   0.394   3.115  0.1644 -0.3095 -0.6770
   83SOL    HW1  248   0.008   0.345   3.035 -0.9319 -0.9703  0.7606
   83SOL    HW2  249   0.144   0.364   3.143 -0.9989  1.9025 -2.4939
   84SOL     OW  250   0.540   1.329   0.083 -0.3960  0.1261  0.9677
   84SOL    HW1  251   0.594   1.275   0.009  3.0720 -2.6793 -2.5716
   84SOL    HW2  252   0.444   1.338   0.061  0.3105  0.8742  2.3182
   85SOL     OW  253   2.274   1.786   1.939  0.2810  0.6422  0.6337
   85SOL    HW1  254   2.304   1.726   1.866  3.1998  1.1636  0.8784
   85SOL    HW2  255   2.332   1.873   1.931  2.3351  3.1438  0.5312
   86SOL     OW  256   0.461   0.766   1.133  0.4141 -0.4844 -0.3531
   86SOL    HW1  257   0.550   0.763   1.091 -0.8767 -2.2637 -1.4709
   86SOL    HW2  258   0.451   0.687   1.197  0.0979  0.4083 -2.1059
   87SOL     OW  259   2.718   2.181   2.767 -0.0436 -0.5318 -0.2628
   87SOL    HW1  260   2.798   2.203   2.709 -0.5360 -1.2404 -2.7415
   87SOL    HW2  261   2.632   2.187   2.712 -1.7903 -2.3752 -1.8343
   88SOL     OW  262   0.258   2.847   3.040  0.0241 -0.3112 -0.6360
   88SOL    HW1  263   0.291   2.805   3.130 -1.2261  0.5195  2.9498
   88SOL    HW2  264   0.206   2.934   3.051  0.5236  0.1548 -1.4911
   89SOL     OW  265   1.364   0.514   0.233  0.1789  0.0983  0.1827
   89SOL    HW1  266   1.367   0.487   0.138 -1.7026  3.4493  0.9831
   89SOL    HW2  267   1.352   0.617   0.232  0.5024  2.0333 -3.0362
   90SOL     OW  268   3.034   1.648   2.399  0.4889  0.2476  0.1428
   90SOL    HW1  269   2.966   1.633   2.477 -2.3124 -4.3269 -2.2480
   90SOL    HW2  270   3.125   1.605   2.425  0.7816  1.7501  0.8147
   91SOL     OW  271   2.206   2.869   1.256  0.4463  0.4630  0.4517
   91SOL    HW1  272   2.256   2.959   1.253 -1.1474 -0.1743 -1.3146
   91SOL    HW2  273   2.107   2.874   1.223 -2.0680 -0.1380 -0.5464
   92SOL     OW  274   2.168   1.119   1.109  0.0911 -0.1230  0.0690
   92SOL    HW1  275   2.148   1.152   1.014 -2.6285  2.6186  0.3736
   92SOL    HW2  276   2.153   1.016   1.111 -1.3511  0.3584  0.4729
   93SOL     OW  277   0.440   1.328   0.432 -0.5562  0.2438 -0.3069
   93SOL    HW1  278   0.525   1.310   0.380 -0.4553  0.1169  1.0720
   93SOL    HW2  279   0.421   1.265   0.510  1.4369  0.2584  0.3590
   94SOL     OW  280   1.284   2.391   1.582  0.6391  0.0126  0.2887
   94SOL    HW1  281   1.277   2.330   1.664 -0.4777 -3.5945  1.8063
   94SOL    HW2  282   1.356   2.463   1.593 -1.5024 -2.9743 -1.7741
   95SOL     OW  283   0.218   0.650   0.519  0.2997  0.0414 -0.1341
   95SOL    HW1  284   0.251   0.747   0.519  0.3846  1.4035  0.0371
   95SOL    HW2  285   0.232   0.618   0.614  1.4023  0.9498 -0.3077
   96SOL     OW  286   0.050   3.110   1.564 -0.2661  0.3580  0.4023
   96SOL    HW1  287   3.139   3.039   1.610 -0.1805  2.9398  0.8506
   96SOL    HW2  288   0.116   3.060   1.504 -2.3152  0.5714  1.5656
   97SOL     OW  289   2.187   0.413   0.954 -0.3986  0.2675 -0.6155
   97SOL    HW1  290   2.121   0.434   1.031 -0.8511  2.6327 -0.8037
   97SOL    HW2  291   2.274   0.365   0.980  3.9667 -1.5489  0.4446
   98SOL     OW  292   2.868   2.310   1.647  0.2220  0.7411 -0.0230
   98SOL    HW1  293   2.853   2.384   1.716  0.7282  1.3180  1.9422
   98SOL    HW2  294   2.968   2.289   1.636  0.0828  0.9951  0.3024
   99SOL     OW  295   2.969   0.301   1.443 -0.2236 -0.2949 -0.4150
   99SOL    HW1  296   3.021   0.220   1.412  1.2018  1.1622 -0.9599
   99SOL    HW2  297   3.014   0.345   1.526  2.3723 -2.6068  0.6186
  100SOL     OW  298   2.089   0.330   2.625  0.3845  0.5994  0.6473
  100SOL    HW1  299   2.133   0.289   2.547 -0.2085  0.9308 -1.0280
  100SOL    HW2  300   2.047   0.421   2.596 -1.1023  1.9492  1.4292
  101SOL     OW  301   0.803   3.005   2.169 -0.4471  0.0652  0.2521
  101SOL    HW1  302   0.828   2.924   2.115  2.1022  1.4037  0.7780
  101SOL    HW2  303   0.835   3.009   2.265  2.2877  2.4771 -2.8841
  102SOL     OW  304   0.504   0.561   1.549 -0.3138  0.1694  0.2063
  102SOL    HW1  305   0.589   0.588   1.499  3.2683  1.3921 -1.5999
  102SOL    HW2  306   0.487   0.637   1.613  2.0254 -0.4338 -1.3333
  103SOL     OW  307   1.202   0.957   2.530 -0.1723  0.2178  0.2145
  103SOL    HW1  308   1.232   0.864   2.497  0.5604 -0.0700 -0.1310
  103SOL    HW2  309   1.162   1.022   2.460  1.0915  0.8702  0.5121
  104SOL     OW  310   0.284   0.383   1.822 -0.2961 -0.1080  0.1091
  104SOL    HW1  311   0.298   0.478   1.858 -0.9599 -0.9300  2.2398
  104SOL    HW2  312   0.299   0.316   1.896  1.6755  0.4608  2.9715
  105SOL     OW  313   2.416   2.091   1.744  0.1237  0.0268 -0.5514
  105SOL    HW1  314   2.510   2.066   1.712  1.2782  0.1753 -0.2867
  105SOL    HW2  315   2.406   2.081   1.848 -2.2758  0.0713 -0.3545
  106SOL     OW  316   1.065   0.017   0.408  0.7320 -0.3818 -0.6310
  106SOL    HW1  317   1.057   0.029   0.309  0.5465  1.1892 -0.0368
  106SOL    HW2  318   1.159   0.044   0.441 -2.0070  2.1913  1.7477
  107SOL     OW  319   2.714   1.992   1.392  0.1135 -0.8632 -0.1372
  107SOL    HW1  320   2.731   2.094   1.384  0.7510  3.6298 -0.2856
  107SOL    HW2  321   2.679   1.950   1.307  0.4984 -0.1122 -1.2503
  108SOL     OW  322   3.145   2.173   0.609 -0.4191  0.5718 -0.0992
  108SOL    HW1  323   0.067   2.116   0.566 -1.0044  2.9365  0.6495
  108SOL    HW2  324   0.042   2.239   0.676  3.2175  1.9839  2.4002
  109SOL     OW  325   1.575   3.140   0.686 -0.2153 -0.4164  0.7070
  109SOL    HW1  326   1.524   3.061   0.727 -1.3502  0.3996 -2.8053
  109SOL    HW2  327   1.639   3.104   0.615 -0.8580 -1.8420 -2.6433
  110SOL     OW  328   2.030   1.435   1.116 -0.6270  0.1926 -0.2819
  110SOL    HW1  329   2.076   1.508   1.170 -2.1840  2.0535  0.3247
  110SOL    HW2  330   2.070   1.425   1.022  2.4241 -0.0520 -0.2274
  111SOL     OW  331   1.756   2.456   1.903 -0.1241 -0.2818  0.4853
  111SOL    HW1  332   1.702   2.483   1.986 -2.0463 -0.2782 -1.4858
  111SOL    HW2  333   1.755   2.353   1.891  1.2030  0.4836 -3.2520
  112SOL     OW  334   2.021   2.165   3.073 -0.6514 -0.4383  0.1806
  112SOL    HW1  335   2.124   2.184   3.056  1.1994  0.3799  1.1927
  112SOL    HW2  336   2.011   2.114   0.012  0.3719  1.7985 -2.0028
  113SOL     OW  337   2.006   1.847   1.826  0.0614 -0.1587  0.3672
  113SOL    HW1  338   2.094   1.811   1.857  0.0436  0.3849  0.9104
  113SOL    HW2  339   2.020   1.904   1.741  1.2112  1.0079 -1.5186
  114SOL     OW  340   0.085   1.131   1.529  0.7007 -0.0632 -0.2093
  114SOL    HW1  341   3.137   1.110   1.495 -0.9151 -0.9159 -0.1475
  114SOL    HW2  342   0.095   1.234   1.549 -1.2033  0.2353  0.8555
  115SOL     OW  343   3.002   0.959   3.121 -0.5173 -0.8429 -0.6044
  115SOL    HW1  344   3.054   1.027   3.070  0.7201 -1.5978  0.0611
  115SOL    HW2  345   2.980   0.984   0.067 -1.2594 -5.7405 -1.2132
  116SOL     OW  346   2.806   0.503   2.861  0.1672 -0.0033 -0.1371
  116SOL    HW1  347   2.839   0.566   2.935 -3.0859 -0.9426  3.7714
  116SOL    HW2  348   2.815   0.524   2.763 -1.6816 -1.5666 -0.2305
  117SOL     OW  349   2.754   2.607   0.216  0.2484 -0.0985  0.1911
  117SOL    HW1  350   2.738   2.568   0.307 -2.4369  2.7027 -2.2688
  117SOL    HW2  351   2.669   2.608   0.160  0.8186  1.1171 -1.0815
  118SOL     OW  352   0.612   2.160   2.390  0.1928  0.3168  0.1667
  118SOL    HW1  353   0.565   2.130   2.477 -0.2399 -1.8840  0.3200
  118SOL    HW2  354   0.548   2.206   2.325 -0.6216  0.2173  1.0379
  119SOL     OW  355   0.719   2.807   0.345 -0.1593  0.4311  0.3669
  119SOL    HW1  356   0.700   2.711   0.378 -2.4535 -1.4262  1.8060
  119SOL    HW2  357   0.717   2.876   0.424 -0.3179  2.5963  1.9834
  120SOL     OW  358   1.380   0.839   0.271  0.1564 -0.7394 -0.3578
  120SOL    HW1  359   1.303   0.883   0.322 -0.2032  0.1431  0.9838
  120SOL    HW2  360   1.465   0.857   0.325 -0.9281  0.0409 -0.5473
  121SOL     OW  361   1.781   0.311   0.806  0.3485  0.0939 -0.5976
  121SOL    HW1  362   1.840   0.257   0.873  0.0857  2.1410  0.4948
  121SOL    HW2  363   1.739   0.260   0.731 -1.6139 -0.3862 -0.9673
  122SOL     OW  364   2.260   1.627   2.410  0.2849  0.1672 -0.2953
  122SOL    HW1  365   2.211   1.631   2.321  1.1305 -2.2181  1.5788
  122SOL    HW2  366   2.357   1.605   2.396 -1.1579 -2.5216 -0.6853
  123SOL     OW  367   1.240   1.080   1.016 -0.0853 -0.4160 -0.1567
  123SOL    HW1  368   1.311   1.056   0.944 -0.2721 -2.6397 -0.0388
  123SOL    HW2  369   1.222   0.998   1.075 -1.2489 -2.0109 -0.3125
  124SOL     OW  370   0.578   0.713   2.920 -0.0687 -0.9352 -0.2304
  124SOL    HW1  371   0.560   0.653   2.840 -0.8030  0.9470  0.8421
  124SOL    HW2  372   0.678   0.726   2.929  0.2010 -0.5764  2.1745
  125SOL     OW  373   0.686   0.374   0.090  0.4693  0.2865 -0.5611
  125SOL    HW1  374   0.752   0.425   0.151  2.4083 -1.3046 -2.0261
  125SOL    HW2  375   0.623   0.307   0.143 -0.8317  0.5666  0.7529
  126SOL     OW  376   0.294   1.673   0.576  0.1979 -0.0847 -0.3324
  126SOL    HW1  377   0.267   1.716   0.666 -0.1461 -0.4386  0.7840
  126SOL    HW2  378   0.397   1.668   0.574 -0.1725  0.4360  1.6951
  127SOL     OW  379   0.948   2.591   1.625  0.3722 -1.1213 -0.1892
  127SOL    HW1  380   0.877   2.659   1.638  1.8964 -2.1487 -0.2565
  127SOL    HW2  381   1.027   2.637   1.582 -3.1973 -0.2740  1.3536
  128SOL     OW  382   1.149   1.866   0.381  0.1372 -0.3502  0.0761
  128SOL    HW1  383   1.077   1.815   0.329 -3.1399  0.6555 -0.6371
  128SOL    HW2  384   1.123   1.966   0.395 -0.6167  2.8174 -1.4362
  129SOL     OW  385   1.699   1.452   1.674 -0.4111  0.8011  0.4076
  129SOL    HW1  386   1.719   1.547   1.698  0.8220  0.0042 -0.4187
  129SOL    HW2  387   1.780   1.395   1.703 -0.6056 -1.2202  1.6063
  130SOL     OW  388   1.998   1.988   1.600  0.5206 -0.2958 -0.0405
  130SOL    HW1  389   2.090   2.000   1.551  1.4623  1.8265  0.1447
  130SOL    HW2  390   1.928   1.980   1.525 -2.8653 -0.7874 -0.3110
  131SOL     OW  391   0.160   2.344   2.131 -0.3855 -0.0167  0.3450
  131SOL    HW1  392   0.183   2.439   2.160  1.4191  0.8564  2.0915
  131SOL    HW2  393   0.105   2.339   2.049 -0.1111  1.2002  2.4456
  132SOL     OW  394   2.640   1.922   0.763 -0.2152 -1.3441 -0.1016
  132SOL    HW1  395   2.721   1.876   0.799 -1.0814  0.5146 -0.4907
  132SOL    HW2  396   2.624   2.011   0.810  0.9186 -0.3119 -0.8824
  133SOL     OW  397   0.603   0.921   1.674  0.3861 -0.3402 -0.1112
  133SOL    HW1  398   0.665   0.994   1.630  0.9300  0.8987 -2.9425
  133SOL    HW2  399   0.620   0.897   1.771 -0.7231  1.8543  0.6167
  134SOL     OW  400   2.720   1.322   0.577  0.0764 -0.3959  0.1818
  134SOL    HW1  401   2.754   1.275   0.660 -0.1781 -0.0458  0.5900
  134SOL    HW2  402   2.784   1.402   0.561 -3.1169 -1.0476 -0.5285
  135SOL     OW  403   1.951   1.094   2.589  0.2506  0.2051 -0.1121
  135SOL    HW1  404   1.857   1.115   2.555 -0.0699 -1.3032  1.1572
  135SOL    HW2  405   1.954   1.045   2.680 -0.1166 -1.2156  1.7317
  136SOL     OW  406   2.983   1.582   1.483  0.0630  0.5521 -0.0982
  136SOL    HW1  407   3.074   1.601   1.521 -0.9605  0.3557  0.2796
  136SOL    HW2  408   2.914   1.652   1.507 -0.2231  0.9281  0.9564
  137SOL     OW  409   2.376   1.857   0.768  0.5771  0.4044 -0.5280
  137SOL    HW1  410   2.331   1.770   0.736  0.1045 -1.3337 -0.8965
  137SOL    HW2  411   2.476   1.862   0.755 -0.3404  1.8349  0.3978
  138SOL     OW  412   2.796   0.851   0.416  0.2855  0.1542 -0.2710
  138SOL    HW1  413   2.821   0.755   0.438  1.0107  1.0807 -0.4456
  138SOL    HW2  414   2.704   0.861   0.372 -0.8965 -0.1715 -1.5759
  139SOL     OW  415   2.981   0.007   2.940 -0.5780 -0.3687  0.0019
  139SOL    HW1  416   2.925   3.117   3.018 -0.7822 -0.6937  1.6826
  139SOL    HW2  417   2.915   0.056   2.878 -2.4033  0.4237 -0.3752
  140SOL     OW  418   0.825   1.156   1.674 -0.3560 -0.1666 -0.9450
  140SOL    HW1  419   0.814   1.132   1.771 -0.6444 -1.4470  1.4311
  140SOL    HW2  420   0.781   1.245   1.649 -1.6833 -1.3017 -0.2314
  141SOL     OW  421   1.407   1.528   1.016 -0.6748  0.1193  0.0338
  141SOL    HW1  422   1.340   1.457   1.052 -2.8148 -1.1337 -0.5928
  141SOL    HW2  423   1.385   1.618   1.056  0.5343 -0.3221 -2.3829
  142SOL     OW  424   1.616   0.863   1.005 -0.5430  0.3964 -0.2761
  142SOL    HW1  425   1.706   0.836   0.967  1.1204 -2.1684  2.2586
  142SOL    HW2  426   1.589   0.808   1.087 -0.5943 -0.0122 -0.6528
  143SOL     OW  427   0.809   1.116   2.718  0.0824 -0.1985 -0.4198
  143SOL    HW1  428   0.766   1.181   2.785  0.8595  0.1923  1.1723
  143SOL    HW2  429   0.742   1.058   2.665 -0.6313 -2.3687 -1.0141
  144SOL     OW  430   2.532   0.075   0.258  0.4320 -0.1489 -0.3002
  144SOL    HW1  431   2.634   0.077   0.249  2.9988  0.6781  1.4089
  144SOL    HW2  432   2.493   0.006   0.196 -1.4163  1.1753 -1.9989
  145SOL     OW  433   2.438   0.457   2.940  0.0126 -0.0928 -0.2216
  145SOL    HW1  434   2.355   0.455   2.995  2.8346  2.3273 -0.8186
  145SOL    HW2  435   2.417   0.491   2.846 -2.2910 -0.7459  0.9442
  146SOL     OW  436   3.094   3.045   0.202  0.0731 -0.1737  0.2057
  146SOL    HW1  437   3.115   3.020   0.107 -0.5403  2.6581  1.1983
  146SOL    HW2  438   3.032   3.121   0.215 -2.0445 -1.9988 -1.6393
  147SOL     OW  439   1.443   1.220   2.872 -0.2522 -0.2446  0.1894
  147SOL    HW1  440   1.433   1.143   2.808  1.5538  1.5606 -1.7751
  147SOL    HW2  441   1.391   1.298   2.845  3.1896 -3.8660 -0.3493
  148SOL     OW  442   1.385   0.055   0.150  0.3707 -0.3732  0.2027
  148SOL    HW1  443   1.336   0.140   0.177  2.2599  0.2467  0.0561
  148SOL    HW2  444   1.332   0.004   0.080 -1.3576  0.1993  0.2439
  149SOL     OW  445   1.762   0.479   1.975  0.7238 -0.3571  0.2967
  149SOL    HW1  446   1.698   0.415   2.021  1.3402 -2.5032 -0.6825
  149SOL    HW2  447   1.758   0.575   2.012  0.0258  0.9029 -0.0189
  150SOL     OW  448   1.980   2.971   2.936 -0.2323 -0.2863  0.1253
  150SOL    HW1  449   1.990   2.910   3.013  0.5429 -0.3687  1.1177
  150SOL    HW2  450   2.053   3.046   2.925 -1.4045  2.6776  0.9897
  151SOL     OW  451   0.489   1.603   0.196 -0.1166 -0.7204 -0.4304
  151SOL    HW1  452   0.391   1.620   0.207 -1.3043 -0.2759 -0.1038
  151SOL    HW2  453   0.505   1.512   0.154  0.1678  1.7685  0.8942
  152SOL     OW  454   0.396   0.557   1.314  0.3650 -0.1594  0.1659
  152SOL    HW1  455   0.294   0.563   1.304 -0.4646  1.4532  0.9019
  152SOL    HW2  456   0.425   0.561   1.413 -2.2475  1.3113 -0.3362
  153SOL     OW  457   2.652   2.823   2.402  0.2679  0.4877 -0.3700
  153SOL    HW1  458   2.659   2.923   2.415 -0.6670  0.4559 -1.6626
  153SOL    HW2  459   2.565   2.794   2.360 -1.6569 -1.8189  3.8100
  154SOL     OW  460   2.009   3.063   2.431 -0.3139 -0.2366 -0.0210
  154SOL    HW1  461   2.000   3.089   2.330 -1.7977  1.0538  0.0343
  154SOL    HW2  462   1.944   2.990   2.453 -0.4047  1.1714  0.4727
  155SOL     OW  463   0.475   1.130   0.659  0.3194  0.5820 -0.2791
  155SOL    HW1  464   0.381   1.090   0.676 -1.2533 -0.2194  0.4376
  155SOL    HW2  465   0.500   1.175   0.748 -3.1495  0.9827 -3.3273
  156SOL     OW  466   2.277   1.616   0.760 -0.5311  0.1764  0.0635
  156SOL    HW1  467   2.344   1.565   0.821  0.6015  1.5285  2.4530
  156SOL    HW2  468   2.198   1.557   0.734  1.7923 -1.8035  1.3037
  157SOL     OW  469   0.847   0.368   3.017 -0.2089 -0.4504 -0.0924
  157SOL    HW1  470   0.827   0.274   2.978  0.1547 -0.2950  1.4934
  157SOL    HW2  471   0.808   0.369   3.108  0.3739 -0.3018 -2.6290
  158SOL     OW  472   1.876   0.970   1.206 -0.4129  0.1058  0.4217
  158SOL    HW1  473   1.781   0.967   1.238 -0.5077  0.8570  0.5891
  158SOL    HW2  474   1.890   1.052   1.152  0.7352 -0.8317 -0.0506
  159SOL     OW  475   3.041   0.439   0.196  0.2399  0.2121 -0.4010
  159SOL    HW1  476   3.103   0.507   0.245  2.1425 -0.0051  0.5570
  159SOL    HW2  477   3.072   0.420   0.100  2.7146 -0.1659 -4.4842
  160SOL     OW  478   2.432   2.037   2.014 -0.2155  0.5638 -0.2040
  160SOL    HW1  479   2.438   1.957   2.083  0.6863 -0.2005 -1.9180
  160SOL    HW2  480   2.408   2.124   2.054  2.1738 -1.9939  0.9908
  161SOL     OW  481   0.411   0.924   2.859 -0.2188 -0.0741  0.3459
  161SOL    HW1  482   0.464   0.845   2.895 -0.8307 -1.0683 -0.6527
  161SOL    HW2  483   0.313   0.902   2.875 -0.3599  0.2392  0.2463
  162SOL     OW  484   0.567   0.342   1.750  0.2342 -0.9705  0.0575
  162SOL    HW1  485   0.599   0.401   1.671  0.6728  0.0953  1.0973
  162SOL    HW2  486   0.467   0.344   1.758  1.6297  0.3201 -0.5630
  163SOL     OW  487   2.579   0.224   2.416  0.4666  0.5325 -0.0066
  163SOL    HW1  488   2.532   0.153   2.476 -3.0666 -0.6825 -0.6762
  163SOL    HW2  489   2.635   0.286   2.469 -0.4062  0.5860 -1.0527
  164SOL     OW  490   2.332   1.933   0.302 -0.4434 -0.4849 -0.3566
  164SOL    HW1  491   2.278   1.847   0.288  1.4222  1.1228 -1.4363
  164SOL    HW2  492   2.420   1.907   0.343 -0.0730  1.2280 -0.8169
  165SOL     OW  493   0.302   0.090   0.985 -0.3706 -0.0813  0.0274
  165SOL    HW1  494   0.361   0.134   0.916  1.1640  0.2498 -0.7436
  165SOL    HW2  495   0.359   0.065   1.066 -0.7215 -0.9393  3.6313
  166SOL     OW  496   2.635   0.410   0.034 -0.1109  0.4381  0.4236
  166SOL    HW1  497   2.572   0.411   3.103 -0.3796  3.7222  0.5686
  166SOL    HW2  498   2.691   0.325   0.043  2.6858 -0.4238 -2.2813
  167SOL     OW  499   2.278   0.768   0.205  0.2496  0.6500  0.0953
  167SOL    HW1  500   2.225   0.855   0.190  0.7757 -3.0043  2.3026
  167SOL    HW2  501   2.237   0.696   0.141 -1.4640  0.0133  0.1924
  168SOL     OW  502   1.478   3.013   2.270 -0.1096  0.2718  0.4690
  168SOL    HW1  503   1.434   2.984   2.357 -1.6586 -0.8778 -0.0569
  168SOL    HW2  504   1.502   3.112   2.281  0.7720 -1.6207 -0.5086
  169SOL     OW  505   0.308   1.868   0.757 -0.2913 -0.2454 -0.2109
  169SOL    HW1  506   0.257   1.925   0.822 -1.2610  0.1934  2.1751
  169SOL    HW2  507   0.402   1.852   0.787 -2.3661 -1.6157 -0.0258
  170SOL     OW  508   3.046   0.586   1.243  0.8975 -0.4254  0.4961
  170SOL    HW1  509   3.067   0.515   1.176 -2.0340  4.3389  3.0442
  170SOL    HW2  510   2.960   0.559   1.295 -0.8851 -1.4448 -2.1059
  171SOL     OW  511   2.539   1.561   2.460 -0.4878 -0.8100 -0.0950
  171SOL    HW1  512   2.585   1.482   2.418 -1.4798 -0.2857 -1.1800
  171SOL    HW2  513   2.533   1.537   2.556  0.5582 -0.2019 -2.6196
  172SOL     OW  514   0.666   1.651   1.321 -0.0297 -0.0648  0.1583
  172SOL    HW1  515   0.680   1.605   1.231 -0.2616 -0.2522 -2.5035
  172SOL    HW2  516   0.748   1.632   1.379 -1.3558  0.6847 -1.9643
  173SOL     OW  517   2.021   2.016   0.160  0.0302  0.1440  0.1384
  173SOL    HW1  518   2.071   1.933   0.131 -0.0890  0.1943 -0.0777
  173SOL    HW2  519   1.973   1.997   0.246 -0.9706 -0.3124  0.0370
  174SOL     OW  520   1.841   0.711   2.945 -0.0424  0.3025  0.7792
  174SOL    HW1  521   1.799   0.622   2.917 -0.2248  0.4508  0.1422
  174SOL    HW2  522   1.807   0.745   3.035  1.6787  0.4766 -2.0781
  175SOL     OW  523   0.586   1.829   1.812 -0.0307 -0.6790 -0.1307
  175SOL    HW1  524   0.670   1.883   1.822 -1.3917 -0.5608 -0.0728
  175SOL    HW2  525   0.540   1.815   1.901  1.3481 -1.7622  0.9192
  176SOL     OW  526   0.549   0.172   0.199 -0.0787  0.2952 -0.2195
  176SOL    HW1  527   0.528   0.145   0.294  2.9017 -0.3143 -2.7212
  176SOL    HW2  528   0.482   0.143   0.132  1.2864  2.7387 -2.4213
  177SOL     OW  529   0.207   1.479   0.382 -0.0934 -0.3983 -0.1882
  177SOL    HW1  530   0.225   1.544   0.460  1.3429 -1.3949  2.1330
  177SOL    HW2  531   0.274   1.401   0.388 -0.5955 -0.1410 -1.2110
  178SOL     OW  532   2.945   2.223   2.644 -0.0865 -0.4222  0.7646
  178SOL    HW1  533   3.024   2.197   2.701 -0.6446  3.3279  0.4171
  178SOL    HW2  534   2.961   2.223   2.544 -2.3106 -1.2412 -0.8353
  179SOL     OW  535   2.548   0.055   3.051  0.2157 -0.7375  0.0074
  179SOL    HW1  536   2.623   0.125   3.042  0.6384  1.6060 -0.7077
  179SOL    HW2  537   2.458   0.101   3.079 -0.8564  2.7810 -0.0086
  180SOL     OW  538   2.445   0.345   0.740 -0.2062 -0.2073 -0.2499
  180SOL    HW1  539   2.385   0.397   0.804  0.7064  2.2799 -2.2769
  180SOL    HW2  540   2.435   0.397   0.652 -2.0319 -0.2656  0.2223
  181SOL     OW  541   2.977   0.300   2.581  0.1977  0.0002 -0.2313
  181SOL    HW1  542   3.048   0.227   2.612  1.1173 -0.7684  0.8515
  181SOL    HW2  543   2.980   0.304   2.478  2.4987  0.0804  0.6274
  182SOL     OW  544   2.509   2.305   2.620 -0.6462 -0.3486  0.1959
  182SOL    HW1  545   2.425   2.288   2.677 -1.4271 -0.8572 -3.7959
  182SOL    HW2  546   2.525   2.405   2.596  1.2594  0.0698 -2.1305
  183SOL     OW  547   2.706   1.034   1.850 -0.1324 -0.3233  0.4636
  183SOL    HW1  548   2.623   0.981   1.829  1.3748  1.3272  3.2430
  183SOL    HW2  549   2.774   1.034   1.775  1.2813 -0.0771 -0.2478
  184SOL     OW  550   2.950   1.432   0.819 -0.0675 -0.0628 -0.0169
  184SOL    HW1  551   2.913   1.499   0.887  1.9471 -0.2755 -0.8704
  184SOL    HW2  552   2.936   1.475   0.724  1.1147  0.7756 -0.7441
  185SOL     OW  553   2.996   0.344   0.551 -0.1790  0.0927 -0.6647
  185SOL    HW1  554   3.097   0.339   0.548  0.4628 -0.7240 -0.3930
  185SOL    HW2  555   2.964   0.335   0.646 -1.8860  1.1647 -0.5858
  186SOL     OW  556   2.372   2.539   2.685 -0.0368  0.2704  0.3207
  186SOL    HW1  557   2.368   2.641   2.687  0.4550  1.8089  0.3322
  186SOL    HW2  558   2.296   2.494   2.628 -3.2953 -3.5076 -3.0766
  187SOL     OW  559   0.473   1.489   0.813 -0.0736  0.4999  0.0088
  187SOL    HW1  560   0.505   1.523   0.723 -0.5300 -0.0317  2.6965
  187SOL    HW2  561   0.551   1.451   0.866 -4.8854 -3.0242  0.6247
  188SOL     OW  562   1.811   1.762   0.728  0.3771  0.1136  0.0667
  188SOL    HW1  563   1.816   1.674   0.779 -1.2287 -0.2470  0.3709
  188SOL    HW2  564   1.719   1.803   0.728  1.6279 -2.2022  2.0781
  189SOL     OW  565   3.042   1.593   2.910 -0.4286  0.0414  0.3819
  189SOL    HW1  566   3.088   1.506   2.882 -1.7281  0.1251  2.1020
  189SOL    HW2  567   2.972   1.582   2.976  1.4888  0.9956 -3.2821
  190SOL     OW  568   2.486   0.376   2.158  0.4673  0.4711 -0.4216
  190SOL    HW1  569   2.398   0.413   2.187  2.5528 -1.3858 -1.4645
  190SOL    HW2  570   2.535   0.330   2.233 -0.5177  0.1570  0.4432
  191SOL     OW  571   1.019   0.902   2.198 -0.1923 -0.0701 -0.1490
  191SOL    HW1  572   1.041   0.982   2.257  1.2824  0.7005 -1.2107
  191SOL    HW2  573   1.064   0.909   2.105  0.5084 -0.7786 -1.3335
  192SOL     OW  574   1.352   1.396   2.008 -0.0029  0.6768  0.5243
  192SOL    HW1  575   1.420   1.363   1.940 -0.3962 -0.9969 -0.2661
  192SOL    HW2  576   1.327   1.493   1.999 -0.4759 -1.4028 -1.4164
  193SOL     OW  577   1.450   2.803   1.000  0.6277 -0.3295  0.2851
  193SOL    HW1  578   1.371   2.803   1.064 -1.3626 -3.8283  0.1756
  193SOL    HW2  579   1.445   2.879   0.927 -1.0854  2.2642 -1.6504
  194SOL     OW  580   1.490   1.698   2.075  0.2360 -0.4597  0.1298
  194SOL    HW1  581   1.534   1.624   2.127 -0.9024 -0.1240  0.0594
  194SOL    HW2  582   1.411   1.732   2.129  0.0560 -0.8711  0.3116
  195SOL     OW  583   1.973   0.099   0.585  0.4428 -0.2106  0.1450
  195SOL    HW1  584   2.003   0.130   0.676 -0.2605  0.0303  2.4514
  195SOL    HW2  585   1.907   0.168   0.533 -1.6258  0.9138 -1.8115
  196SOL     OW  586   1.445   1.407   2.413  0.2352 -0.1893 -0.2190
  196SOL    HW1  587   1.374   1.367   2.472  0.8963  0.5927 -0.0779
  196SOL    HW2  588   1.505   1.471   2.465  2.7297 -2.0020  0.1597
  197SOL     OW  589   0.448   0.244   2.045 -0.2876 -0.4287  0.3490
  197SOL    HW1  590   0.535   0.296   2.076  3.4669 -0.1616 -1.1227
  197SOL    HW2  591   0.455   0.148   2.021 -2.0198  2.7492 -0.1259
  198SOL     OW  592   0.081   1.192   1.031 -0.4564  0.1897 -0.1166
  198SOL    HW1  593   0.045   1.099   1.034  1.3002  0.1208 -2.8580
  198SOL    HW2  594   0.083   1.222   0.932 -0.4028 -4.1387 -0.0952
  199SOL     OW  595   0.328   2.262   0.953  0.4232  0.1269  0.2186
  199SOL    HW1  596   0.398   2.275   0.878 -0.8809 -1.4568 -4.8295
  199SOL    HW2  597   0.366   2.291   1.041 -0.7617 -1.5442 -2.9549
  200SOL     OW  598   1.960   1.550   0.146 -0.0611 -0.0505 -0.5083
  200SOL    HW1  599   1.900   1.600   0.210 -1.7110  0.7855 -2.7518
  200SOL    HW2  600   1.920   1.458   0.123 -1.2857 -0.6191 -0.0537
  201SOL     OW  601   0.479   2.132   1.421  0.1451 -0.0478  0.4133
  201SOL    HW1  602   0.563   2.073   1.414  3.0935  3.4774  1.1516
  201SOL    HW2  603   0.393   2.081   1.443 -4.5603 -0.1448  1.9902
  202SOL     OW  604   1.115   2.466   0.083  0.1478 -0.1554  0.2762
  202SOL    HW1  605   1.025   2.499   0.105 -1.6352  0.4417  1.0080
  202SOL    HW2  606   1.136   2.482   3.129  1.5610  3.8199 -3.8796
  203SOL     OW  607   1.542   0.383   2.093 -0.3905  0.4678  0.0217
  203SOL    HW1  608   1.447   0.421   2.091 -0.1167  2.0522 -0.6170
  203SOL    HW2  609   1.540   0.305   2.156  0.3373  0.6359 -0.6842
  204SOL     OW  610   0.435   1.356   1.523 -0.6769 -0.3902 -0.1229
  204SOL    HW1  611   0.354   1.387   1.474  0.3453  1.3046  0.0531
  204SOL    HW2  612   0.500   1.315   1.456 -1.3898  3.6644 -0.4179
  205SOL     OW  613   2.334   1.296   2.482  0.2022 -0.7582 -0.1100
  205SOL    HW1  614   2.295   1.377   2.537  1.5884  1.8832  2.7165
  205SOL    HW2  615   2.275   1.217   2.499  1.1358  1.4335  1.4897
  206SOL     OW  616   0.118   2.099   2.491  0.9387 -0.0326  0.1240
  206SOL    HW1  617   0.087   2.099   2.587  2.6587 -1.5196 -1.1310
  206SOL    HW2  618   0.072   2.017   2.447 -1.7808 -1.1070 -0.1731
  207SOL     OW  619   0.787   2.994   1.810 -0.1823  0.3233  0.2154
  207SOL    HW1  620   0.883   2.982   1.784 -0.0352 -0.2622  0.0181
  207SOL    HW2  621   0.765   3.090   1.796  1.5257 -0.2929 -0.6777
  208SOL     OW  622   0.603   2.370   1.587 -0.1116  0.2630  0.1636
  208SOL    HW1  623   0.572   2.368   1.683 -1.4746  2.0932  2.4144
  208SOL    HW2  624   0.561   2.298   1.527 -1.6684  0.5946 -0.3032
  209SOL     OW  625   1.266   2.785   2.755 -0.4758 -0.0060 -0.5276
  209SOL    HW1  626   1.317   2.870   2.735 -0.4388 -1.4219 -3.1788
  209SOL    HW2  627   1.189   2.800   2.822 -1.4516 -0.1631  2.4600
  210SOL     OW  628   2.751   1.545   2.061 -0.1244  0.3431  0.3826
  210SOL    HW1  629   2.786   1.472   2.003 -1.9445  0.3518  4.6050
  210SOL    HW2  630   2.827   1.607   2.089 -0.3821  4.0081 -1.9359
  211SOL     OW  631   1.170   0.060   1.894  0.2192  0.3029  0.4578
  211SOL    HW1  632   1.176   0.148   1.948 -3.3290  0.7515  2.0622
  211SOL    HW2  633   1.245   0.070   1.817  0.4585 -1.2326  1.5617
  212SOL     OW  634   1.246   2.261   1.829 -0.1206  0.3365  0.7101
  212SOL    HW1  635   1.251   2.331   1.904 -0.9900 -1.9639 -0.1204
  212SOL    HW2  636   1.274   2.166   1.854  0.6130  0.7248 -1.8652
  213SOL     OW  637   2.456   0.886   1.795 -0.6381  0.4023  0.1365
  213SOL    HW1  638   2.404   0.964   1.830  1.0306 -1.1686 -1.1765
  213SOL    HW2  639   2.398   0.832   1.726 -1.1845 -0.0168 -3.9611
  214SOL     OW  640   0.939   1.780   1.720 -0.1603  0.0685  0.3053
  214SOL    HW1  641   1.027   1.812   1.688 -1.0652 -0.1845  2.6832
  214SOL    HW2  642   0.879   1.859   1.749 -1.2204 -0.9921  3.0719
  215SOL     OW  643   2.598   2.276   1.079 -0.1585  0.6000 -0.2085
  215SOL    HW1  644   2.501   2.294   1.050  2.2938 -1.0045 -0.3111
  215SOL    HW2  645   2.612   2.227   1.169 -0.0177  0.2017 -1.6566
  216SOL     OW  646   3.010   0.862   1.185  0.0044 -0.1826 -0.5159
  216SOL    HW1  647   3.008   0.758   1.201 -1.0087 -1.0404  1.8324
  216SOL    HW2  648   3.062   0.886   1.097 -1.4077 -1.7205 -3.7643
  217SOL     OW  649   2.169   0.157   1.471 -0.3195  0.1365 -0.2854
  217SOL    HW1  650   2.245   0.187   1.410  1.7877  0.6727  1.0935
  217SOL    HW2  651   2.106   0.091   1.428 -0.1444 -1.3133 -0.6782
  218SOL     OW  652   1.630   2.585   1.099 -0.1285  0.2528  0.1494
  218SOL    HW1  653   1.710   2.560   1.048  2.4151  0.3221  1.1477
  218SOL    HW2  654   1.577   2.658   1.056  1.2134 -3.9342  0.4455
  219SOL     OW  655   1.436   2.134   0.230  0.0047 -0.1176 -0.2545
  219SOL    HW1  656   1.485   2.206   0.173 -0.7408  2.3841  1.7978
  219SOL    HW2  657   1.341   2.168   0.247  1.1072  2.4524  0.4854
  220SOL     OW  658   1.796   2.343   2.990 -0.3107  0.3643  0.3061
  220SOL    HW1  659   1.774   2.379   2.901  3.5877  0.6892  0.9190
  220SOL    HW2  660   1.882   2.292   2.988 -2.0926  0.3453  0.7573
  221SOL     OW  661   0.077   2.439   1.150 -0.0164 -0.6675  0.4201
  221SOL    HW1  662   0.069   2.367   1.225 -0.1982  0.5107 -0.7524
  221SOL    HW2  663   0.174   2.472   1.147 -1.1807 -0.6672 -2.1651
  222SOL     OW  664   1.993   2.858   0.718  0.1270 -0.1041  0.2519
  222SOL    HW1  665   1.920   2.836   0.788  0.0278 -0.9127 -2.4701
  222SOL    HW2  666   2.073   2.912   0.754  1.1491  0.0590 -0.3407
  223SOL     OW  667   0.733   2.613   2.271 -0.0250  0.3998 -0.4235
  223SOL    HW1  668   0.749   2.522   2.307  1.1042  0.6505 -0.4242
  223SOL    HW2  669   0.695   2.597   2.180 -0.3158  0.6080 -0.8483
  224SOL     OW  670   2.991   2.544   1.082  0.1206 -0.0250 -0.1653
  224SOL    HW1  671   3.081   2.492   1.100  1.0769 -1.8707 -0.2379
  224SOL    HW2  672   3.005   2.636   1.046  0.6442 -0.1038  1.9884
  225SOL     OW  673   2.093   2.347   0.770  0.0282 -0.0074 -0.3396
  225SOL    HW1  674   2.150   2.430   0.799  0.0144 -0.1497  2.3999
  225SOL    HW2  675   2.151   2.264   0.769  0.0176  0.7699  0.0479
  226SOL     OW  676   1.180   2.759   0.226 -0.3368  0.2007 -0.0534
  226SOL    HW1  677   1.148   2.807   0.310  1.5657 -1.6415 -4.0040
  226SOL    HW2  678   1.279   2.739   0.246  1.5242  1.2062  3.1051
  227SOL     OW  679   1.870   0.792   0.940 -0.0405 -0.7988  0.1911
  227SOL    HW1  680   1.908   0.881   0.905 -0.8490  1.2187  0.3375
  227SOL    HW2  681   1.912   0.718   0.876 -1.4665  0.5428  1.0980
  228SOL     OW  682   1.245   0.624   2.167 -0.2572  0.3277 -0.3743
  228SOL    HW1  683   1.331   0.678   2.149  1.6485  1.5531  0.8378
  228SOL    HW2  684   1.161   0.682   2.164 -0.3792  1.5740 -2.4832
  229SOL     OW  685   0.006   1.111   2.965  0.1390  0.1742  0.0537
  229SOL    HW1  686   3.140   1.141   2.869 -0.7929  1.9112 -0.5355
  229SOL    HW2  687   0.030   1.193   3.023 -2.3419  0.6704  4.2007
  230SOL     OW  688   0.867   1.245   1.182 -0.0774 -0.1452  0.1951
  230SOL    HW1  689   0.870   1.144   1.201 -3.6057  0.8116 -0.3815
  230SOL    HW2  690   0.956   1.292   1.189 -1.9587 -0.0399 -0.1563
  231SOL     OW  691   2.684   3.070   2.603 -0.2134 -0.1211  0.4247
  231SOL    HW1  692   2.724   0.001   2.650 -1.2661 -1.1455 -0.7789
  231SOL    HW2  693   2.587   3.098   2.584 -0.7472 -1.8808 -0.1263
  232SOL     OW  694   0.274   2.440   0.189 -0.0181  0.5955 -0.4885
  232SOL    HW1  695   0.287   2.380   0.270 -0.5618 -2.4399  0.8631
  232SOL    HW2  696   0.214   2.396   0.122  2.9210 -1.7499  2.4941
  233SOL     OW  697   1.246   2.344   2.376  0.2126  0.8856  0.2244
  233SOL    HW1  698   1.220   2.414   2.305 -1.2597  3.1049 -0.9010
  233SOL    HW2  699   1.347   2.317   2.367  0.0070 -1.6565 -0.5457
  234SOL     OW  700   1.009   1.578   1.888 -0.1672  0.9867 -0.1508
  234SOL    HW1  701   1.045   1.494   1.840  1.8532 -2.7036  1.7782
  234SOL    HW2  702   0.980   1.655   1.829  0.2625 -1.6065 -1.0976
  235SOL     OW  703   0.808   2.000   1.823 -0.5993 -0.1149  0.0414
  235SOL    HW1  704   0.872   2.072   1.786 -0.5452 -1.3020 -1.6450
  235SOL    HW2  705   0.833   1.970   1.920  1.1959  0.4802  0.7428
  236SOL     OW  706   1.625   2.864   2.928 -0.6607  0.3086 -0.0030
  236SOL    HW1  707   1.617   2.872   3.030  1.7700 -0.9411  0.1574
  236SOL    HW2  708   1.663   2.779   2.894 -1.1497  2.3568 -1.7366
  237SOL     OW  709   1.374   0.281   1.048  0.6761  0.0742 -0.6317
  237SOL    HW1  710   1.397   0.257   1.145  2.3248 -0.2559 -1.0643
  237SOL    HW2  711   1.448   0.336   1.010 -4.2419  2.2941  0.6501
  238SOL     OW  712   1.410   0.626   2.731 -0.0353  0.1718 -0.2278
  238SOL    HW1  713   1.362   0.638   2.638  0.5818  2.3237 -2.1595
  238SOL    HW2  714   1.388   0.712   2.784 -0.8564  2.7101 -0.5414
  239SOL     OW  715   2.941   0.803   2.499 -0.3864  0.2087  0.0586
  239SOL    HW1  716   2.963   0.896   2.474 -1.1862 -2.6790  1.1304
  239SOL    HW2  717   2.842   0.793   2.525 -1.4039  2.6768  2.9585
  240SOL     OW  718   2.299   2.927   0.746  0.2406  0.2580 -0.0182
  240SOL    HW1  719   2.267   2.998   0.679  0.3238 -0.6147  1.6550
  240SOL    HW2  720   2.299   2.834   0.704  0.7982 -1.3730 -3.2550
  241SOL     OW  721   1.619   1.203   1.217  0.0469 -0.1619 -0.4029
  241SOL    HW1  722   1.681   1.192   1.136  1.7700  1.1455  1.2692
  241SOL    HW2  723   1.624   1.296   1.255 -0.4914 -0.9574 -1.2713
  242SOL     OW  724   0.652   0.863   0.824  0.0786  0.0216 -0.7599
  242SOL    HW1  725   0.619   0.957   0.805 -1.1986  1.2710 -2.6314
  242SOL    HW2  726   0.577   0.802   0.794 -1.1089  2.7360  0.0662
  243SOL     OW  727   0.215   0.744   1.045  0.2009  0.4014  0.4646
  243SOL    HW1  728   0.171   0.725   1.133  1.4509 -1.0787 -1.7131
  243SOL    HW2  729   0.315   0.766   1.056  1.7871  0.6269 -1.7441
  244SOL     OW  730   1.207   0.272   0.125  0.0497 -0.2474 -0.2605
  244SOL    HW1  731   1.122   0.224   0.106 -0.2719 -0.3346  2.2802
  244SOL    HW2  732   1.198   0.326   0.211 -1.9291 -0.6551  1.7413
  245SOL     OW  733   2.129   0.983   0.205 -0.4344 -0.7086  0.1630
  245SOL    HW1  734   2.078   1.016   0.120 -2.0120 -0.1075 -0.9899
  245SOL    HW2  735   2.185   1.061   0.245  0.3717  1.0057  0.9536
  246SOL     OW  736   3.103   0.845   1.780 -0.4437  0.6082  0.6793
  246SOL    HW1  737   0.025   0.919   1.780 -0.2148  0.5407 -0.5817
  246SOL    HW2  738   0.009   0.765   1.816  0.0255  2.6377 -3.0538
  247SOL     OW  739   0.542   2.958   1.933  0.0117  0.2028  0.7929
  247SOL    HW1  740   0.484   3.031   1.890 -0.3833  0.6256 -0.7456
  247SOL    HW2  741   0.641   2.969   1.911 -0.5704  1.0549 -2.1743
  248SOL     OW  742   0.589   1.329   2.426  0.4289 -0.4819 -0.4540
  248SOL    HW1  743   0.679   1.375   2.414 -2.9621 -1.3494 -0.2204
  248SOL    HW2  744   0.606   1.237   2.384  0.8868 -0.6479  2.5480
  249SOL     OW  745   0.556   3.082   2.814  0.4332  0.0621 -0.0900
  249SOL    HW1  746   0.537   3.007   2.885 -3.2348  1.5713 -1.9646
  249SOL    HW2  747   0.589   3.044   2.728 -0.0570  0.5703  1.0931
  250SOL     OW  748   0.261   0.288   2.494 -0.3878 -0.0934 -0.0124
  250SOL    HW1  749   0.311   0.203   2.502 -0.4958  1.6343 -2.1004
  250SOL    HW2  750   0.273   0.336   2.407 -0.8358 -1.2241  0.2919
  251SOL     OW  751   3.075   1.600   1.214 -0.2078 -0.6475 -0.1072
  251SOL    HW1  752   3.092   1.504   1.195 -2.5223  3.8736  2.0711
  251SOL    HW2  753   3.052   1.607   1.316 -2.0004 -0.0525  0.6976
  252SOL     OW  754   1.878   2.894   2.083 -0.2617  0.2997  0.1145
  252SOL    HW1  755   1.843   2.882   1.987 -2.1208  0.4248 -0.2428
  252SOL    HW2  756   1.960   2.838   2.094 -3.0524 -0.3053 -0.0600
  253SOL     OW  757   1.904   1.641   3.045  0.5260 -0.5429  0.8737
  253SOL    HW1  758   1.816   1.691   3.044  0.3215 -0.8806 -0.8191
  253SOL    HW2  759   1.930   1.626   3.140  0.3543  2.0189 -2.3823
  254SOL     OW  760   0.615   1.555   1.795  0.1593 -0.5172 -0.2011
  254SOL    HW1  761   0.637   1.656   1.778  1.3102 -0.8329  0.1358
  254SOL    HW2  762   0.643   1.524   1.894  0.7492  0.8568  2.4065
  255SOL     OW  763   0.944   3.072   1.445  0.0825  0.0699 -0.1430
  255SOL    HW1  764   1.025   3.130   1.415 -0.6512 -2.8253 -0.8387
  255SOL    HW2  765   0.960   3.025   1.531 -0.0810 -0.3694 -1.2602
  256SOL     OW  766   0.105   2.327   0.822 -0.0826 -0.4140  0.4752
  256SOL    HW1  767   0.187   2.297   0.875 -2.6489  0.3404 -0.5790
  256SOL    HW2  768   0.032   2.333   0.887  0.0970 -0.6436 -1.9903
  257SOL     OW  769   0.334   2.598   2.467 -0.3019  0.2641 -0.1576
  257SOL    HW1  770   0.244   2.626   2.512  1.7808  0.6496  2.5872
  257SOL    HW2  771   0.393   2.536   2.519  0.3090  0.9777 -0.2917
  258SOL     OW  772   1.309   2.148   2.090 -0.1323 -0.2645  0.1413
  258SOL    HW1  773   1.408   2.151   2.096 -3.2503  2.3763 -0.2517
  258SOL    HW2  774   1.262   2.239   2.098 -0.8977  1.9601 -0.6542
  259SOL     OW  775   1.203   1.668   2.480 -0.0876 -0.0716  0.7037
  259SOL    HW1  776   1.242   1.573   2.491  0.4518  0.7506  0.9727
  259SOL    HW2  777   1.131   1.677   2.549 -0.5656  2.3152  3.2657
  260SOL     OW  778   2.260   1.115   2.050 -0.1703  0.2529 -0.3187
  260SOL    HW1  779   2.193   1.043   2.086  0.1396 -2.0921 -1.9901
  260SOL    HW2  780   2.250   1.114   1.949 -1.9167 -1.0457  1.8736
  261SOL     OW  781   1.435   0.988   0.848 -0.5729  0.9870  0.4297
  261SOL    HW1  782   1.493   0.954   0.925 -2.2509  0.7603  0.8296
  261SOL    HW2  783   1.502   1.015   0.775  2.9720  1.3207  0.2439
  262SOL     OW  784   2.280   2.190   2.737  0.7556  0.4704 -0.0376
  262SOL    HW1  785   2.192   2.185   2.683 -2.3292 -1.4596  0.0764
  262SOL    HW2  786   2.260   2.199   2.838 -1.0363  0.9677 -1.4941
  263SOL     OW  787   0.839   2.246   0.906 -0.1213  0.0045 -0.5048
  263SOL    HW1  788   0.874   2.342   0.884 -0.4554  1.1394 -0.5817
  263SOL    HW2  789   0.823   2.196   0.820  2.4169  3.6041  1.7153
  264SOL     OW  790   0.249   2.272   0.431  0.0820 -0.2215  0.5105
  264SOL    HW1  791   0.242   2.332   0.514 -1.1092  2.2165  0.4488
  264SOL    HW2  792   0.255   2.174   0.457  2.6949 -0.7835 -1.0249
  265SOL     OW  793   1.201   1.349   0.227 -0.3156  0.1042  0.1061
  265SOL    HW1  794   1.256   1.264   0.216  0.7084 -0.4004 -1.4928
  265SOL    HW2  795   1.105   1.327   0.257  0.1925 -1.2776 -0.0520
  266SOL     OW  796   0.852   2.000   2.451 -0.3250 -0.8819  0.3310
  266SOL    HW1  797   0.925   2.071   2.443 -0.7857  1.8219 -0.2254
  266SOL    HW2  798   0.766   2.031   2.408  0.2819 -0.7216  0.3463
  267SOL     OW  799   1.826   0.959   2.311 -0.8310  0.5655 -0.4783
  267SOL    HW1  800   1.797   0.903   2.387 -1.2062 -0.0668 -0.1317
  267SOL    HW2  801   1.773   1.047   2.299 -0.4050 -2.1844 -1.1462
  268SOL     OW  802   0.668   1.244   0.292  0.5999 -0.2171 -0.4084
  268SOL    HW1  803   0.609   1.277   0.215  0.9486 -2.0261  1.0648
  268SOL    HW2  804   0.764   1.226   0.260  2.1705  1.2678  2.8834
  269SOL     OW  805   2.584   1.803   2.705 -0.0531  0.5305  0.0539
  269SOL    HW1  806   2.608   1.798   2.803 -2.9597  0.8058  2.1187
  269SOL    HW2  807   2.667   1.813   2.651 -0.7357  0.4887  0.4616
  270SOL     OW  808   0.992   2.124   3.036 -0.2403 -0.1283 -0.3186
  270SOL    HW1  809   0.937   2.040   3.018 -1.8520 -1.8627  1.9125
  270SOL    HW2  810   0.934   2.209   3.025  1.5584 -0.2344 -0.5150
  271SOL     OW  811   0.284   0.334   0.078 -0.3211  0.1913 -0.3197
  271SOL    HW1  812   0.360   0.381   0.024 -0.4382 -0.9665 -1.3681
  271SOL    HW2  813   0.307   0.232   0.081 -0.3837 -2.6479  0.3324
  272SOL     OW  814   2.961   0.210   0.304 -0.0209  0.2116 -0.4591
  272SOL    HW1  815   2.937   0.205   0.403  0.9361 -2.3105 -1.8121
  272SOL    HW2  816   2.982   0.303   0.267  2.3421 -2.7222  0.2423
  273SOL     OW  817   0.341   3.144   1.870  0.3057  0.0738  0.4245
  273SOL    HW1  818   0.294   0.064   1.810  2.8455 -1.6727 -0.6473
  273SOL    HW2  819   0.275   3.101   1.930 -1.8259 -0.9183 -0.4376
  274SOL     OW  820   2.803   0.480   1.334 -0.2650 -0.3956 -0.6877
  274SOL    HW1  821   2.865   0.404   1.370 -0.1752  0.2619  1.3042
  274SOL    HW2  822   2.789   0.471   1.235 -1.4061  0.3090  1.2593
  275SOL     OW  823   0.687   1.449   1.109  0.2311 -0.0460  0.4323
  275SOL    HW1  824   0.705   1.490   1.017  0.2635  0.2795 -1.0040
  275SOL    HW2  825   0.766   1.393   1.137 -1.1977 -1.3764  2.5790
  276SOL     OW  826   0.726   1.159   1.931  0.3948  0.2761 -0.3190
  276SOL    HW1  827   0.716   1.258   1.948 -1.3628  0.5973 -1.8906
  276SOL    HW2  828   0.632   1.119   1.932 -3.1254 -1.4117  0.0140
  277SOL     OW  829   1.181   2.415   2.079 -0.1048 -0.6607 -0.3068
  277SOL    HW1  830   1.204   2.512   2.095  1.1127 -2.3027 -4.4267
  277SOL    HW2  831   1.093   2.401   2.034  2.1692  1.1036  1.8005
  278SOL     OW  832   2.372   2.780   2.384 -0.1159  0.4388  0.0832
  278SOL    HW1  833   2.350   2.778   2.484  2.7116 -0.7117  0.4648
  278SOL    HW2  834   2.329   2.695   2.342 -2.0357 -0.4948 -0.3581
  279SOL     OW  835   1.276   1.880   0.096  0.2423  0.1012  0.1928
  279SOL    HW1  836   1.352   1.925   0.046  1.4183  2.5171 -2.8846
  279SOL    HW2  837   1.218   1.951   0.139  1.3419 -4.1086 -0.3225
  280SOL     OW  838   1.096   0.374   0.393  0.5720  0.0066  0.1897
  280SOL    HW1  839   1.136   0.294   0.437  1.9027  0.9915  1.4870
  280SOL    HW2  840   1.088   0.454   0.453 -2.4514 -0.7942 -1.2487
  281SOL     OW  841   0.369   0.257   1.438  0.3621 -0.0705 -0.0011
  281SOL    HW1  842   0.408   0.346   1.456  0.9909 -2.9678 -1.3113
  281SOL    HW2  843   0.347   0.199   1.520  1.3262 -0.6306 -0.4595
  282SOL     OW  844   0.236   2.446   0.632  0.4672 -0.2857  0.3849
  282SOL    HW1  845   0.212   2.390   0.712 -1.6935  0.0117  2.1935
  282SOL    HW2  846   0.160   2.507   0.610  1.8949 -1.8628 -2.2319
  283SOL     OW  847   1.598   1.835   1.853  0.0235 -0.2952 -0.1054
  283SOL    HW1  848   1.546   1.777   1.919 -2.1721  0.6962  1.4285
  283SOL    HW2  849   1.655   1.909   1.901  0.4088  1.8748 -2.6275
  284SOL     OW  850   2.909   2.877   1.486 -0.4986 -0.5192 -0.4710
  284SOL    HW1  851   2.838   2.947   1.466 -0.8076  0.1361 -2.4392
  284SOL    HW2  852   2.876   2.779   1.469 -0.5445  1.6585 -0.1462
  285SOL     OW  853   0.267   2.709   0.155  0.5671 -0.6601 -0.2497
  285SOL    HW1  854   0.164   2.729   0.148 -1.8072  2.0576  1.6137
  285SOL    HW2  855   0.289   2.613   0.182 -0.9362  2.1482  0.8921
  286SOL     OW  856   0.518   2.802   1.108 -0.3050 -0.4426  0.2546
  286SOL    HW1  857   0.547   2.896   1.132  1.6421  1.4644  2.0635
  286SOL    HW2  858   0.456   2.804   1.030 -0.1945  0.5375 -0.4175
  287SOL     OW  859   0.839   1.499   0.594  0.2435 -0.0236 -0.4916
  287SOL    HW1  860   0.923   1.439   0.600  0.0332 -2.1543 -0.1810
  287SOL    HW2  861   0.853   1.599   0.566 -0.8237 -0.4335  2.0822
  288SOL     OW  862   1.939   2.024   2.868  0.5220 -0.0902  0.2592
  288SOL    HW1  863   1.971   1.927   2.857  1.9046  2.1324  0.0963
  288SOL    HW2  864   1.987   2.064   2.946  1.2657 -3.2729 -0.6542
  289SOL     OW  865   2.655   1.690   0.481 -0.1034  0.9872 -0.0854
  289SOL    HW1  866   2.642   1.794   0.474  2.6137  4.2134  0.3396
  289SOL    HW2  867   2.570   1.634   0.467 -0.1551 -2.4565  2.4455
  290SOL     OW  868   1.407   1.440   1.359  0.3196 -0.1111 -0.3007
  290SOL    HW1  869   1.330   1.456   1.425 -0.6719  1.1803  1.9367
  290SOL    HW2  870   1.372   1.387   1.279  1.6106  3.7456 -1.3446
  291SOL     OW  871   1.384   1.168   3.146  0.1661 -0.2906 -0.3775
  291SOL    HW1  872   1.330   1.083   0.001  1.9972 -0.0047  0.3485
  291SOL    HW2  873   1.394   1.207   3.050 -1.8439 -2.0008 -0.7270
  292SOL     OW  874   1.393   1.503   0.293 -0.0840 -0.1090  0.4401
  292SOL    HW1  875   1.318   1.436   0.271  0.9931  0.9650  1.3908
  292SOL    HW2  876   1.452   1.519   0.209  3.8326  0.3408 -2.0664
  293SOL     OW  877   1.053   3.130   0.944  0.4785  0.6118 -0.0662
  293SOL    HW1  878   0.985   3.055   0.961 -2.4958  0.6805 -2.2322
  293SOL    HW2  879   1.006   0.061   0.900 -0.6849  0.3367 -0.1825
  294SOL     OW  880   2.177   1.050   2.449 -0.1466  0.1576 -0.0964
  294SOL    HW1  881   2.161   1.031   2.350 -3.0589  2.2078  0.4844
  294SOL    HW2  882   2.088   1.071   2.493  2.1064 -2.7454  0.6742
  295SOL     OW  883   1.656   1.801   3.093  0.0928  0.3251 -0.6913
  295SOL    HW1  884   1.624   1.841   0.031 -0.2657 -4.1219 -2.2673
  295SOL    HW2  885   1.690   1.876   3.032 -2.4313 -0.1823 -0.6787
  296SOL     OW  886   1.289   0.706   1.576  0.2870 -0.2508 -0.0616
  296SOL    HW1  887   1.184   0.703   1.583 -1.0318 -2.7132 -1.0621
  296SOL    HW2  888   1.308   0.701   1.477  1.5965  0.8200  2.4585
  297SOL     OW  889   0.060   0.619   1.853  0.3847 -0.2338 -0.0572
  297SOL    HW1  890   0.015   0.538   1.896 -1.9498  2.1344  0.5853
  297SOL    HW2  891   0.160   0.608   1.835 -1.9354 -0.1982 -1.7525
  298SOL     OW  892   1.467   1.751   1.345 -0.5594 -0.0196  0.5069
  298SOL    HW1  893   1.403   1.694   1.393  2.4179 -0.1580 -1.4736
  298SOL    HW2  894   1.563   1.724   1.369 -0.7848  3.3477 -0.0577
  299SOL     OW  895   1.238   0.017   2.627 -0.0695  0.2283 -0.1864
  299SOL    HW1  896   1.310   3.112   2.678 -1.8223 -1.9884 -0.8712
  299SOL    HW2  897   1.199   3.113   2.548  0.7217  0.3239  2.8273
  300SOL     OW  898   2.717   2.179   0.312 -0.6365 -0.0386  0.0399
  300SOL    HW1  899   2.802   2.132   0.346 -1.9518  0.7478  1.0629
  300SOL    HW2  900   2.726   2.275   0.343 -2.3064 -2.0459 -1.2450
  301SOL     OW  901   2.021   0.745   2.685  0.4646  0.1303 -0.1321
  301SOL    HW1  902   1.958   0.675   2.646  0.6028 -0.4646  2.2972
  301SOL    HW2  903   1.971   0.811   2.745 -1.1170  0.3093  2.7215
  302SOL     OW  904   2.506   2.321   0.067  0.0376 -0.1376 -0.3808
  302SOL    HW1  905   2.531   2.227   0.106  0.3400 -2.3527 -2.7735
  302SOL    HW2  906   2.544   2.328   3.117  0.7053  3.6090  0.8339
  303SOL     OW  907   0.066   2.308   0.088 -0.5601  0.3129 -0.0845
  303SOL    HW1  908   0.011   2.353   0.162 -2.6451  1.7194 -0.4643
  303SOL    HW2  909   0.029   2.339   0.001  0.6342 -0.8641  1.6952
  304SOL     OW  910   0.165   1.675   1.090  0.0791 -0.5509 -0.0572
  304SOL    HW1  911   0.078   1.644   1.136 -1.5190  1.5237  0.8531
  304SOL    HW2  912   0.222   1.735   1.154  0.6164  1.3024 -0.7310
  305SOL     OW  913   2.855   0.732   1.662  0.1216  0.3963 -0.6037
  305SOL    HW1  914   2.940   0.680   1.659 -3.7013  2.6543 -1.8996
  305SOL    HW2  915   2.792   0.695   1.594  1.1730  0.2470  0.7496
  306SOL     OW  916   1.666   1.500   0.932  0.6231  0.2421 -0.1558
  306SOL    HW1  917   1.564   1.518   0.945 -2.6705  0.0642 -2.5516
  306SOL    HW2  918   1.700   1.462   1.019  0.4356  0.1201  0.0427
  307SOL     OW  919   0.098   0.236   0.856  0.0887 -0.2394  0.5300
  307SOL    HW1  920   0.137   0.254   0.762  0.8564  0.3500  0.6688
  307SOL    HW2  921   0.161   0.180   0.913  0.2206  0.5048 -0.4130
  308SOL     OW  922   3.135   1.231   2.093 -0.2831  0.0593 -0.4341
  308SOL    HW1  923   3.057   1.213   2.158 -4.6314 -1.8318 -0.5777
  308SOL    HW2  924   3.116   1.190   2.002  1.9778  0.2911  1.6025
  309SOL     OW  925   2.833   1.893   2.578  0.2842  0.2839  0.1169
  309SOL    HW1  926   2.847   1.968   2.509  3.0831  0.9039  3.9258
  309SOL    HW2  927   2.901   1.889   2.652  0.7433 -1.9115 -0.6778
  310SOL     OW  928   2.677   1.041   3.037 -0.2282 -0.4190 -0.1007
  310SOL    HW1  929   2.733   0.963   2.996  3.9496  0.6682 -1.8659
  310SOL    HW2  930   2.579   1.048   3.013 -1.5687 -0.3881 -1.4016
  311SOL     OW  931   1.926   0.957   2.845  0.5585  0.0442  0.2719
  311SOL    HW1  932   2.021   0.984   2.879  2.9765  0.9792  1.7280
  311SOL    HW2  933   1.887   0.872   2.896  2.8645  0.8931 -1.9260
  312SOL     OW  934   1.355   2.350   2.827  0.0739 -0.4879  0.1715
  312SOL    HW1  935   1.436   2.323   2.771 -1.6057 -1.1499 -1.6401
  312SOL    HW2  936   1.300   2.269   2.829  2.9523  1.9331 -1.6763
  313SOL     OW  937   0.296   0.422   0.358  0.0067  0.6301 -0.3781
  313SOL    HW1  938   0.278   0.386   0.264 -0.6641 -0.5394  1.5936
  313SOL    HW2  939   0.250   0.509   0.374  0.3805  1.4360  1.7194
  314SOL     OW  940   0.699   1.950   1.365  0.0579  0.4921  0.4644
  314SOL    HW1  941   0.795   1.975   1.392  2.7563  0.1783 -0.8723
  314SOL    HW2  942   0.657   1.881   1.423  1.9616 -2.5469 -0.9985
  315SOL     OW  943   0.721   1.707   2.174  0.6423 -0.0579  0.1920
  315SOL    HW1  944   0.663   1.767   2.109  0.0455  0.5781  0.5180
  315SOL    HW2  945   0.675   1.700   2.262  0.7346  1.3574 -0.8309
  316SOL     OW  946   0.496   2.532   0.667  0.2848  0.5868 -0.6036
  316SOL    HW1  947   0.400   2.503   0.646 -1.3917 -0.0602 -1.3040
  316SOL    HW2  948   0.492   2.597   0.746 -1.3738 -0.1327 -1.9208
  317SOL     OW  949   2.397   0.138   1.285  0.1050 -0.1479 -0.6137
  317SOL    HW1  950   2.451   0.195   1.356 -1.4601  1.7214  3.2050
  317SOL    HW2  951   2.389   0.188   1.197 -0.7923  1.5768  4.8468
  318SOL     OW  952   1.893   2.811   0.329  0.7202  0.0167 -0.0828
  318SOL    HW1  953   1.891   2.884   0.401  0.7708 -0.9403  0.0912
  318SOL    HW2  954   1.984   2.773   0.321 -2.4925  2.1060 -0.1363
  319SOL     OW  955   1.659   0.526   2.791  0.4996 -0.1489  0.0871
  319SOL    HW1  956   1.569   0.574   2.759 -0.2493 -0.1428 -1.3066
  319SOL    HW2  957   1.621   0.437   2.830 -1.5352  1.3504  0.2210
  320SOL     OW  958   2.977   2.248   2.049  0.4902 -0.6013  0.0052
  320SOL    HW1  959   3.000   2.160   2.096  0.0607  1.3370  2.0254
  320SOL    HW2  960   2.954   2.317   2.122 -3.2642  1.0728  1.3898
  321SOL     OW  961   0.591   2.578   2.963  0.0258  0.7313  0.0309
  321SOL    HW1  962   0.650   2.565   3.043 -2.6330  2.1822  0.4679
  321SOL    HW2  963   0.493   2.588   2.985  1.6825 -2.1408 -1.4886
  322SOL     OW  964   2.380   0.629   2.310 -0.4148 -0.0775  0.0951
  322SOL    HW1  965   2.294   0.603   2.261  2.6070  0.2364  1.1482
  322SOL    HW2  966   2.372   0.598   2.409 -1.1148  2.2055  2.1787
  323SOL     OW  967   2.340   1.078   0.747  0.0561  0.1190 -0.0013
  323SOL    HW1  968   2.412   1.027   0.798 -0.4557  0.2402  1.0379
  323SOL    HW2  969   2.296   1.022   0.671  0.0219 -0.3186 -0.9348
  324SOL     OW  970   2.832   0.464   1.063 -0.5123 -0.0791 -0.1780
  324SOL    HW1  971   2.910   0.524   1.030 -0.4684 -1.2460  0.6378
  324SOL    HW2  972   2.758   0.452   0.995 -0.7281  0.5866 -0.3776
  325SOL     OW  973   2.733   3.088   1.550  0.3778  0.0841 -0.2905
  325SOL    HW1  974   2.744   3.113   1.647  0.6587  2.4647  0.0453
  325SOL    HW2  975   2.736   0.022   1.487 -0.6154  0.7758  1.7902
  326SOL     OW  976   1.850   2.784   0.065  0.1182 -0.2838 -0.5513
  326SOL    HW1  977   1.877   2.691   0.036  2.3421 -0.1991  0.5631
  326SOL    HW2  978   1.885   2.800   0.161  0.7381 -0.0326 -0.0278
  327SOL     OW  979   1.929   1.805   0.483 -0.5997  0.5047  0.6740
  327SOL    HW1  980   1.925   1.899   0.459  0.1747 -1.6955  2.0942
  327SOL    HW2  981   1.889   1.787   0.573  1.0469  1.0188 -0.4795
  328SOL     OW  982   3.034   2.238   2.384 -0.0812 -0.5867 -0.1551
  328SOL    HW1  983   3.035   2.319   2.324  0.6244 -2.6757 -1.8146
  328SOL    HW2  984   3.125   2.206   2.416  0.1151  0.2190 -1.3901
  329SOL     OW  985   0.098   2.270   1.370  0.2264  0.4548 -1.1389
  329SOL    HW1  986   0.146   2.197   1.319  2.8768  3.4333  0.7851
  329SOL    HW2  987   0.045   2.228   1.447 -1.6648  0.5718  1.0144
  330SOL     OW  988   2.649   0.888   2.532 -0.1048  0.1652 -0.0331
  330SOL    HW1  989   2.595   0.967   2.571  1.1939 -0.7724 -2.0698
  330SOL    HW2  990   2.646   0.900   2.432  2.1262 -1.6183 -0.8587
  331SOL     OW  991   2.358   2.310   0.984 -0.3335 -0.2864  0.3813
  331SOL    HW1  992   2.266   2.291   1.018 -0.3670  3.1772 -2.3268
  331SOL    HW2  993   2.355   2.379   0.909 -1.5712  3.3145  0.6005
  332SOL     OW  994   0.595   2.972   0.795  0.1468  0.0193  0.0070
  332SOL    HW1  995   0.629   3.063   0.824 -4.3800 -0.3512 -2.4569
  332SOL    HW2  996   0.493   2.960   0.808 -0.3100 -2.3540 -0.6839
  333SOL     OW  997   2.345   1.940   2.648  0.1509 -0.0679 -0.1199
  333SOL    HW1  998   2.337   2.026   2.700 -0.8855 -0.6685  1.1185
  333SOL    HW2  999   2.432   1.885   2.681  3.6502 -1.5992  0.7039
  334SOL     OW 1000   0.583   1.190   0.882 -0.3401  0.1617  0.0602
  334SOL    HW1 1001   0.664   1.210   0.941  0.7657 -1.5624 -0.4470
  334SOL    HW2 1002   0.502   1.203   0.934 -0.1820 -0.1326  1.3777
  335SOL     OW 1003   0.024   1.876   2.350  0.1085 -0.5300  0.4491
  335SOL    HW1 1004   3.107   1.801   2.376  0.2064 -1.8843  2.4344
  335SOL    HW2 1005   0.038   1.883   2.248 -2.3260  0.9734 -0.8699
  336SOL     OW 1006   2.295   3.041   2.415 -0.0439 -0.3957  0.2379
  336SOL    HW1 1007   2.349   2.961   2.376  3.3823  0.1887 -3.4177
  336SOL    HW2 1008   2.204   3.023   2.449  1.2568  0.7098  0.1266
  337SOL     OW 1009   0.882   0.699   0.724 -0.1123 -0.0250  0.0138
  337SOL    HW1 1010   0.803   0.759   0.749  0.2568 -0.5725 -0.1297
  337SOL    HW2 1011   0.958   0.704   0.795  1.4062  1.6130  1.6501
  338SOL     OW 1012   1.524   2.021   1.331 -0.2573 -0.2402 -0.3149
  338SOL    HW1 1013   1.519   1.944   1.394  1.9462 -0.1347 -0.1858
  338SOL    HW2 1014   1.442   2.086   1.347 -0.8541 -2.2119  0.5771
  339SOL     OW 1015   0.433   1.768   1.239 -0.0925  1.1561  0.5717
  339SOL    HW1 1016   0.516   1.729   1.289  1.5161  1.2931  1.7471
  339SOL    HW2 1017   0.460   1.839   1.176 -1.0255 -0.0514  1.0439
  340SOL     OW 1018   1.034   2.999   1.706  0.5970  0.5998  0.0900
  340SOL    HW1 1019   1.083   3.063   1.764  1.7013  1.6830  0.3750
  340SOL    HW2 1020   1.095   2.921   1.679  0.4375 -1.6901 -0.0933
  341SOL     OW 1021   2.246   1.693   1.045 -0.1770 -0.1648  0.0021
  341SOL    HW1 1022   2.343   1.675   1.021  2.5810 -3.5116 -0.7253
  341SOL    HW2 1023   2.192   1.707   0.959 -2.7551 -0.9962 -3.5244
  342SOL     OW 1024   2.483   1.368   0.716  0.7186 -0.0991  0.1258
  342SOL    HW1 1025   2.447   1.273   0.735 -0.5126  1.0506 -0.2612
  342SOL    HW2 1026   2.563   1.366   0.657 -1.7390 -0.3795  2.9093
  343SOL     OW 1027   2.107   0.186   0.809 -0.1829  0.0938 -0.4768
  343SOL    HW1 1028   2.144   0.280   0.814  0.6967 -3.3100  1.4765
  343SOL    HW2 1029   2.166   0.118   0.855 -3.4614 -1.0783 -1.1540
  344SOL     OW 1030   2.473   0.354   0.253 -0.3373  0.2630 -0.5538
  344SOL    HW1 1031   2.533   0.394   0.182 -1.7522 -2.3906  1.9666
  344SOL    HW2 1032   2.480   0.254   0.261  2.2554  1.1607  0.9624
  345SOL     OW 1033   0.947   2.611   1.917  0.1734  0.2193 -0.1884
  345SOL    HW1 1034   0.934   2.602   1.819 -0.7808  2.0563  2.2026
  345SOL    HW2 1035   0.939   2.523   1.971  0.3291  0.1727  0.4956
  346SOL     OW 1036   2.270   2.537   0.811 -0.0933  0.3381  0.4007
  346SOL    HW1 1037   2.282   2.611   0.886 -0.0916  0.8606  1.5386
  346SOL    HW2 1038   2.296   2.571   0.720  0.1813 -2.7910 -1.0700
  347SOL     OW 1039   2.427   3.018   1.268  0.0475  0.4946 -0.8025
  347SOL    HW1 1040   2.492   2.985   1.193  1.6847 -0.1442 -0.9458
  347SOL    HW2 1041   2.431   3.122   1.268 -0.4174 -0.5394  2.2471
  348SOL     OW 1042   0.738   0.666   1.439  0.3435  0.5127 -0.2671
  348SOL    HW1 1043   0.709   0.752   1.394  1.6285 -0.0706  0.7091
  348SOL    HW2 1044   0.726   0.583   1.380  0.3462 -0.2182  0.6096
  349SOL     OW 1045   2.301   0.560   2.708 -0.3549 -0.6467 -0.4681
  349SOL    HW1 1046   2.253   0.649   2.726  1.1992 -1.5941  0.1377
  349SOL    HW2 1047   2.377   0.584   2.641 -0.7902  0.5461 -2.4868
  350SOL     OW 1048   2.263   2.380   0.138 -0.5996  0.1298  0.8298
  350SOL    HW1 1049   2.212   2.297   0.169  2.7451 -0.8720 -2.0020
  350SOL    HW2 1050   2.358   2.347   0.108  1.9541  0.7569  1.5194
  351SOL     OW 1051   0.867   0.459   0.279  0.4338 -0.5544 -0.6206
  351SOL    HW1 1052   0.880   0.558   0.307  2.3490  1.5132 -0.8526
  351SOL    HW2 1053   0.960   0.421   0.291  2.6275  1.2591  0.5848
  352SOL     OW 1054   1.659   2.004   2.833 -0.1802  0.4342 -0.3888
  352SOL    HW1 1055   1.640   1.932   2.767 -1.7712  3.6023  2.6186
  352SOL    HW2 1056   1.756   2.023   2.846 -2.3406  1.9948 -0.6143
  353SOL     OW 1057   0.704   1.326   2.854  0.2980  0.3853 -0.0606
  353SOL    HW1 1058   0.647   1.345   2.773 -3.2536 -1.5451 -1.2715
  353SOL    HW2 1059   0.791   1.378   2.852 -0.5417 -0.4430 -3.5438
  354SOL     OW 1060   0.680   2.719   2.738 -0.1748  0.1107  0.1491
  354SOL    HW1 1061   0.648   2.671   2.823 -2.6578 -2.1031 -0.1105
  354SOL    HW2 1062   0.775   2.766   2.751  1.6947  0.8130  0.5194
  355SOL     OW 1063   2.406   2.765   1.651 -0.1990 -0.3371 -0.1734
  355SOL    HW1 1064   2.441   2.859   1.627  2.7868 -0.0058  3.2527
  355SOL    HW2 1065   2.488   2.706   1.668 -0.6179  0.4871  0.2720
  356SOL     OW 1066   2.744   1.112   1.045  0.1001 -0.0540  0.1062
  356SOL    HW1 1067   2.667   1.143   1.107  1.0183 -0.3889  4.7988
  356SOL    HW2 1068   2.726   1.017   1.010 -0.0264  0.4900  0.7816
  357SOL     OW 1069   2.753   0.154   1.401  0.2545  0.0384 -0.2850
  357SOL    HW1 1070   2.815   0.219   1.447 -0.0306 -0.1523 -1.9766
  357SOL    HW2 1071   2.727   0.176   1.305 -0.0158  1.3090 -0.6601
  358SOL     OW 1072   0.203   1.773   1.858  0.6192 -0.2631 -0.5698
  358SOL    HW1 1073   0.234   1.864   1.891  0.3705 -0.4078  1.4551
  358SOL    HW2 1074   0.259   1.708   1.909 -1.9662 -0.5649 -4.1089
  359SOL     OW 1075   2.941   2.920   2.561 -0.2543 -0.7311  0.4973
  359SOL    HW1 1076   2.855   2.973   2.554  4.3263 -1.2338  1.3325
  359SOL    HW2 1077   2.974   2.892   2.467  1.4724 -0.2399  1.5279
  360SOL     OW 1078   1.075   0.415   1.619 -0.2796 -0.3925  0.1968
  360SOL    HW1 1079   1.107   0.460   1.530  0.8956  1.0500 -2.9672
  360SOL    HW2 1080   1.132   0.444   1.699 -2.3801 -2.2280  0.6409
  361SOL     OW 1081   2.309   2.696   1.011  0.3465  0.1000 -0.0890
  361SOL    HW1 1082   2.274   2.770   1.070 -3.6892  1.7865  0.2464
  361SOL    HW2 1083   2.400   2.719   0.971  0.5215  1.3571  0.1925
  362SOL     OW 1084   0.864   0.045   0.576 -0.0082  0.6604  0.1322
  362SOL    HW1 1085   0.775   3.143   0.560  0.6235 -2.4600 -2.2256
  362SOL    HW2 1086   0.934   0.009   0.512 -0.5669  0.3809 -0.2904
  363SOL     OW 1087   1.345   1.520   0.729 -0.1384  0.1459 -0.5783
  363SOL    HW1 1088   1.416   1.491   0.661 -0.6509  0.9152  0.7442
  363SOL    HW2 1089   1.386   1.542   0.818 -1.0170  1.3997 -4.0053
  364SOL     OW 1090   0.349   0.833   1.649  0.2563  0.4423  0.2726
  364SOL    HW1 1091   0.438   0.885   1.632 -0.0930  2.6632 -1.6436
  364SOL    HW2 1092   0.291   0.836   1.563 -0.6587  0.8896 -2.8220
  365SOL     OW 1093   2.746   0.889   0.875 -0.3598 -0.3499  0.1743
  365SOL    HW1 1094   2.839   0.932   0.890 -0.0767  1.6998  1.8265
  365SOL    HW2 1095   2.758   0.802   0.829  0.2185  3.0031  0.6230
  366SOL     OW 1096   2.662   1.593   1.127  0.3012  0.4287 -0.3981
  366SOL    HW1 1097   2.592   1.555   1.061  0.5939  0.9128 -1.7202
  366SOL    HW2 1098   2.749   1.615   1.078  1.5408  1.4998 -0.5620
  367SOL     OW 1099   2.132   2.001   2.232 -0.3634  0.3287 -0.4583
  367SOL    HW1 1100   2.220   2.013   2.276 -0.7065 -3.1818 -1.2681
  367SOL    HW2 1101   2.052   2.014   2.298 -0.9537  1.2575 -1.0840
  368SOL     OW 1102   2.405   1.987   1.000  0.4338  0.0736  0.5900
  368SOL    HW1 1103   2.394   1.933   0.912 -2.4434 -2.7940 -3.1501
  368SOL    HW2 1104   2.392   2.087   0.983  2.7297  1.3308  0.1564
  369SOL     OW 1105   2.321   2.825   2.653  0.0006 -0.8575 -0.0588
  369SOL    HW1 1106   2.242   2.785   2.610  2.4755  2.3381 -0.8219
  369SOL    HW2 1107   2.291   2.891   2.725 -0.5289  2.0308  2.1481
  370SOL     OW 1108   0.216   0.271   1.205 -0.1489  0.4180 -0.1511
  370SOL    HW1 1109   0.276   0.287   1.281 -1.1323  2.7323 -2.7450
  370SOL    HW2 1110   0.257   0.225   1.126  0.6638 -1.9536 -0.2828
  371SOL     OW 1111   0.544   1.963   0.363  0.4053  0.1194  0.1587
  371SOL    HW1 1112   0.592   1.916   0.291 -0.2876 -1.5857  4.2376
  371SOL    HW2 1113   0.584   1.933   0.452 -0.9324  2.3303 -1.1264
  372SOL     OW 1114   0.955   1.100   3.059 -0.0745 -0.2005 -0.4797
  372SOL    HW1 1115   0.982   1.066   0.008 -0.9703 -0.4019  0.9000
  372SOL    HW2 1116   1.020   1.077   2.989 -0.6632  1.8411  2.9331
  373SOL     OW 1117   1.436   2.617   2.492 -0.0102 -0.5696 -0.1203
  373SOL    HW1 1118   1.435   2.619   2.594  0.6006  1.6925  0.2860
  373SOL    HW2 1119   1.478   2.529   2.462  0.0717  2.1886 -2.8224
  374SOL     OW 1120   0.528   2.249   0.374 -0.0043  0.4594 -0.0995
  374SOL    HW1 1121   0.432   2.252   0.408 -1.0899 -0.0332 -2.0232
  374SOL    HW2 1122   0.574   2.158   0.376 -1.9401  1.6345  1.2062
  375SOL     OW 1123   0.711   0.832   1.897  0.1725 -0.4089  0.4604
  375SOL    HW1 1124   0.661   0.805   1.983 -0.6379  1.7605  0.9810
  375SOL    HW2 1125   0.802   0.784   1.883 -1.1893  0.7822  1.0881
  376SOL     OW 1126   0.501   2.277   1.834 -0.1772 -0.1615  0.1606
  376SOL    HW1 1127   0.436   2.200   1.823  1.6624  0.9441 -1.5199
  376SOL    HW2 1128   0.463   2.359   1.878  2.3142 -0.4574  1.7148
  377SOL     OW 1129   2.887   1.501   2.625 -0.6767  0.6790 -0.8184
  377SOL    HW1 1130   2.912   1.465   2.716  0.9665 -0.8622  0.3755
  377SOL    HW2 1131   2.868   1.424   2.560 -0.5865 -1.3094  1.8595
  378SOL     OW 1132   1.604   2.900   0.041  0.2110  0.1525  0.3399
  378SOL    HW1 1133   1.694   2.862   0.063  0.8221 -0.1347 -0.8762
  378SOL    HW2 1134   1.570   2.929   0.133 -0.1258 -1.0430  1.3980
  379SOL     OW 1135   1.600   0.700   0.654  0.0086  0.3588 -0.2738
  379SOL    HW1 1136   1.551   0.678   0.744  0.6590 -2.6351  1.1982
  379SOL    HW2 1137   1.634   0.791   0.656  0.3790  0.4892 -1.4697
  380SOL     OW 1138   0.286   2.008   1.589 -0.0214  1.1699  0.0422
  380SOL    HW1 1139   0.347   1.925   1.581  1.8152 -1.6818 -1.0330
  380SOL    HW2 1140   0.268   2.034   1.688  1.6443 -1.4063  1.7476
  381SOL     OW 1141   2.448   1.570   2.732  0.6188 -0.0249  0.3663
  381SOL    HW1 1142   2.482   1.667   2.733 -1.2200  1.7918  0.4190
  381SOL    HW2 1143   2.346   1.569   2.736  1.6570 -0.9400  2.2961
  382SOL     OW 1144   0.031   0.144   2.620  0.3470  0.5078  0.7297
  382SOL    HW1 1145   0.025   0.043   2.641  0.1086 -2.3676  0.8103
  382SOL    HW2 1146   0.109   0.183   2.574  0.3124 -0.2215 -0.9428
  383SOL     OW 1147   1.875   1.348   3.135  0.0852  0.1896  0.3547
  383SOL    HW1 1148   1.958   1.362   3.078  2.1509  0.7708  1.0754
  383SOL    HW2 1149   1.791   1.383   3.088 -0.5971 -0.8960 -0.6709
  384SOL     OW 1150   1.119   2.068   1.417  0.6218 -0.3231 -0.0370
  384SOL    HW1 1151   1.043   2.111   1.373  3.2957 -3.8153  1.5228
  384SOL    HW2 1152   1.214   2.112   1.406  2.9980 -2.7604  1.9994
  385SOL     OW 1153   1.784   2.824   0.878 -0.1656  0.1469 -0.5500
  385SOL    HW1 1154   1.761   2.912   0.923 -3.5392 -2.4365 -0.0594
  385SOL    HW2 1155   1.699   2.775   0.850 -1.0680 -1.4913  0.8785
  386SOL     OW 1156   1.566   2.148   1.018 -0.3406  0.3754  0.2628
  386SOL    HW1 1157   1.580   2.067   1.076  0.0318 -0.1069 -3.6626
  386SOL    HW2 1158   1.532   2.221   1.078 -2.2651 -1.7865 -1.3618
  387SOL     OW 1159   2.792   2.255   1.401  0.6989  0.0209 -0.0970
  387SOL    HW1 1160   2.696   2.293   1.397 -0.1263  2.0609  0.4335
  387SOL    HW2 1161   2.830   2.271   1.498 -1.2371  0.4934  1.6424
  388SOL     OW 1162   2.663   0.922   1.543  0.1130 -0.3308 -0.1379
  388SOL    HW1 1163   2.630   0.830   1.515  1.0592  1.5018  0.1969
  388SOL    HW2 1164   2.761   0.917   1.576  4.2809 -1.4217 -0.8039
  389SOL     OW 1165   1.894   0.838   0.258 -0.5610  0.4725 -0.0601
  389SOL    HW1 1166   1.979   0.891   0.257 -1.7451 -1.4937  0.0399
  389SOL    HW2 1167   1.889   0.762   0.328  2.7543 -1.4509  0.6807
  390SOL     OW 1168   1.617   1.785   2.681  0.3228 -0.1782  0.1641
  390SOL    HW1 1169   1.549   1.825   2.621  3.2086 -2.4414  0.8759
  390SOL    HW2 1170   1.660   1.715   2.622 -0.0503  1.5425  2.2222
  391SOL     OW 1171   1.073   2.077   0.134  0.6361  0.2227  0.1796
  391SOL    HW1 1172   1.114   2.162   0.171 -1.8288  0.2658 -0.2770
  391SOL    HW2 1173   1.049   2.088   0.033 -0.5398  0.5518 -0.2716
  392SOL     OW 1174   0.248   2.587   1.743 -0.3534 -0.2163  0.4163
  392SOL    HW1 1175   0.313   2.646   1.684  3.0178  1.4315 -1.1627
  392SOL    HW2 1176   0.306   2.549   1.817  0.1755  0.6511 -0.4580
  393SOL     OW 1177   1.427   2.517   0.141  0.1779 -0.1080  0.6673
  393SOL    HW1 1178   1.340   2.500   0.099  2.9115 -0.6624  2.8127
  393SOL    HW2 1179   1.414   2.577   0.222 -0.0733  2.1778 -0.2255
  394SOL     OW 1180   0.410   0.721   2.231 -0.0475 -0.1855  0.0925
  394SOL    HW1 1181   0.360   0.765   2.307  0.5287  0.6796 -4.5291
  394SOL    HW2 1182   0.359   0.647   2.189 -0.1941  2.4199  0.2814
  395SOL     OW 1183   0.349   1.198   1.067  0.1048  0.6266  0.3650
  395SOL    HW1 1184   0.374   1.292   1.086 -1.7351 -2.0005 -3.6605
  395SOL    HW2 1185   0.247   1.182   1.050 -1.6497 -3.0710  1.0812
  396SOL     OW 1186   1.626   1.165   2.275  0.5538  0.0831 -0.6350
  396SOL    HW1 1187   1.631   1.260   2.247  0.3270 -3.0774  3.6759
  396SOL    HW2 1188   1.564   1.108   2.213 -1.3473 -1.2956 -0.3651
  397SOL     OW 1189   0.742   0.003   0.052 -0.0648  0.8734 -0.5637
  397SOL    HW1 1190   0.752   0.047   3.108  1.0234 -1.6219 -1.4952
  397SOL    HW2 1191   0.695   0.062   0.116  1.2598  0.7515 -0.4163
  398SOL     OW 1192   0.715   2.279   2.802 -0.0063 -0.3827 -0.1228
  398SOL    HW1 1193   0.766   2.295   2.891  1.2303 -1.1161 -2.1650
  398SOL    HW2 1194   0.721   2.178   2.775  1.6464  1.0095 -1.5383
  399SOL     OW 1195   2.190   1.500   2.643  0.0128 -0.1495 -0.4652
  399SOL    HW1 1196   2.095   1.480   2.682 -1.2646 -0.1782 -1.5586
  399SOL    HW2 1197   2.192   1.541   2.547 -3.0288 -3.2415 -1.4244
  400SOL     OW 1198   2.166   1.367   1.434 -0.5112  0.3097  0.2971
  400SOL    HW1 1199   2.089   1.311   1.407  1.3428  2.2193 -2.3981
  400SOL    HW2 1200   2.179   1.445   1.369 -0.6471 -2.3531  0.5363
  401SOL     OW 1201   1.239   1.331   1.118 -0.0158 -0.9477 -0.2333
  401SOL    HW1 1202   1.240   1.239   1.069 -1.7498 -0.6915  0.4640
  401SOL    HW2 1203   1.159   1.342   1.183 -0.7205 -1.5658  0.6663
  402SOL     OW 1204   3.127   2.518   1.716  1.0301 -0.0877 -1.0743
  402SOL    HW1 1205   3.095   2.515   1.620  0.5812 -2.9235  2.8623
  402SOL    HW2 1206   0.056   2.581   1.727 -1.1120 -0.0357 -0.1306
  403SOL     OW 1207   0.174   1.311   2.322  0.5157 -0.3330  0.3194
  403SOL    HW1 1208   0.158   1.399   2.369 -0.1859  1.1487  0.5470
  403SOL    HW2 1209   0.091   1.293   2.265 -1.1494  0.6344 -0.9014
  404SOL     OW 1210   2.376   1.813   1.396 -0.0562  0.1264 -0.1412
  404SOL    HW1 1211   2.330   1.896   1.440  0.5054  1.5059 -1.3500
  404SOL    HW2 1212   2.449   1.843   1.334  0.3387 -1.6250  1.3606
  405SOL     OW 1213   2.760   0.510   2.564 -0.3657  0.1772 -0.2853
  405SOL    HW1 1214   2.742   0.579   2.494 -0.8911 -1.5505  0.0081
  405SOL    HW2 1215   2.854   0.465   2.552  3.1408 -0.0218 -2.7045
  406SOL     OW 1216   1.150   1.350   3.030 -0.9285  0.0332  0.7923
  406SOL    HW1 1217   1.202   1.346   3.115 -1.8744 -1.2880 -3.4976
  406SOL    HW2 1218   1.067   1.296   3.037  3.6637 -1.4654  0.8386
  407SOL     OW 1219   1.923   2.535   0.033 -0.7609 -0.3220 -1.0886
  407SOL    HW1 1220   1.883   2.517   0.126  0.6300 -1.5480  0.0951
  407SOL    HW2 1221   1.899   2.463   3.113  0.6344  0.3364 -0.9290
  408SOL     OW 1222   0.338   0.073   0.061 -0.3784  0.6649  0.6076
  408SOL    HW1 1223   0.315   3.143   0.121  1.4623 -1.0197 -2.6440
  408SOL    HW2 1224   0.293   0.063   3.115 -0.1996 -2.3448 -2.5800
  409SOL     OW 1225   2.561   1.845   1.208  0.4245  0.2697  0.1237
  409SOL    HW1 1226   2.608   1.761   1.182  0.5912 -0.1741 -0.5810
  409SOL    HW2 1227   2.513   1.885   1.128 -0.7930 -1.1462  0.6745
  410SOL     OW 1228   2.269   2.188   3.024  0.1635 -0.2162 -0.2850
  410SOL    HW1 1229   2.349   2.123   3.038  2.1245 -4.4454 -0.3699
  410SOL    HW2 1230   2.302   2.282   3.006 -2.4598  0.3382  0.2088
  411SOL     OW 1231   0.191   1.086   0.644  0.0418 -0.2209 -0.1917
  411SOL    HW1 1232   0.149   0.997   0.665  1.1821  2.1927  0.5021
  411SOL    HW2 1233   0.127   1.158   0.675 -1.2488 -2.3018  0.3654
  412SOL     OW 1234   1.445   2.783   0.353  0.1828  0.2527  0.0537
  412SOL    HW1 1235   1.517   2.710   0.371 -0.0744 -0.0740 -1.7941
  412SOL    HW2 1236   1.488   2.873   0.327 -2.9295  1.6309 -1.4220
  413SOL     OW 1237   1.701   0.402   2.362  0.6480  0.1563  0.1304
  413SOL    HW1 1238   1.602   0.405   2.371 -2.8697 -1.6251  0.4032
  413SOL    HW2 1239   1.730   0.306   2.345 -0.4231 -1.2317 -1.6960
  414SOL     OW 1240   2.920   0.596   0.442  0.4025  0.0378 -0.4194
  414SOL    HW1 1241   3.008   0.635   0.403 -0.0119  0.3133 -0.7705
  414SOL    HW2 1242   2.939   0.495   0.468  0.0976 -1.0951  2.6512
  415SOL     OW 1243   0.895   1.563   1.480 -0.1291  0.4316 -0.0213
  415SOL    HW1 1244   0.931   1.634   1.545 -1.0322  0.1814  0.0870
  415SOL    HW2 1245   0.855   1.483   1.531  1.1494 -3.6680  2.3810
  416SOL     OW 1246   0.318   0.067   2.902 -0.0519  0.5737  0.1324
  416SOL    HW1 1247   0.286   0.156   2.865 -2.3592  0.6997 -0.9189
  416SOL    HW2 1248   0.415   0.048   2.883 -0.8966  0.4224 -0.0671
  417SOL     OW 1249   2.584   2.918   1.072 -0.2602  0.0339  0.1820
  417SOL    HW1 1250   2.563   2.832   1.013 -0.6156 -1.6326 -1.6724
  417SOL    HW2 1251   2.678   2.910   1.109 -2.3854  1.5690 -0.5594
  418SOL     OW 1252   0.694   0.554   2.666 -0.0706 -0.2694  0.3381
  418SOL    HW1 1253   0.623   0.564   2.595  1.4007  1.3150 -0.1081
  418SOL    HW2 1254   0.782   0.596   2.635 -2.0205 -1.0541  2.2914
  419SOL     OW 1255   0.240   1.417   1.344  0.0273 -0.0680 -0.2341
  419SOL    HW1 1256   0.302   1.423   1.266  0.9485 -2.7909  2.8461
  419SOL    HW2 1257   0.147   1.384   1.310  0.9038  1.0692  1.3080
  420SOL     OW 1258   0.809   1.912   1.113 -0.6720 -0.4901 -0.0704
  420SOL    HW1 1259   0.773   1.983   1.051  1.3769 -0.3035 -1.3420
  420SOL    HW2 1260   0.773   1.921   1.209 -1.2914  0.1951 -0.3298
  421SOL     OW 1261   2.069   2.233   2.058 -0.2635  0.0037 -0.0731
  421SOL    HW1 1262   2.053   2.200   1.963  2.0468 -2.8768  0.7772
  421SOL    HW2 1263   2.091   2.150   2.118  1.3384  0.0203 -0.1373
  422SOL     OW 1264   3.132   0.493   2.750  0.3485 -0.3872  0.3619
  422SOL    HW1 1265   3.125   0.532   2.846  2.2306  0.7885 -0.4883
  422SOL    HW2 1266   3.069   0.417   2.731  0.9828  0.0994  1.1520
  423SOL     OW 1267   1.069   2.174   1.034 -0.0772 -0.4352 -0.0465
  423SOL    HW1 1268   0.977   2.188   0.992  3.0680 -0.3930 -0.4981
  423SOL    HW2 1269   1.075   2.092   1.095  0.7635 -1.8064  2.5972
  424SOL     OW 1270   0.740   1.399   1.628  0.1187 -0.3581  0.4538
  424SOL    HW1 1271   0.675   1.379   1.551  0.0341  0.7294 -0.4317
  424SOL    HW2 1272   0.699   1.447   1.708 -1.4132 -1.7117  0.4189
  425SOL     OW 1273   3.130   2.658   2.107 -0.0472 -0.3278  0.0654
  425SOL    HW1 1274   0.072   2.642   2.149 -0.1542  2.6357 -1.1306
  425SOL    HW2 1275   3.137   2.706   2.017 -2.1236  2.4436  1.4550
  426SOL     OW 1276   1.854   2.996   0.501 -0.3144 -0.0686 -0.2697
  426SOL    HW1 1277   1.871   2.936   0.583  0.1107  2.2419  3.4444
  426SOL    HW2 1278   1.897   3.086   0.531 -0.0047  0.0626  1.6745
  427SOL     OW 1279   1.078   0.736   2.849  0.2236  0.1230 -0.1502
  427SOL    HW1 1280   0.998   0.728   2.912 -0.7275  0.3952  1.0750
  427SOL    HW2 1281   1.101   0.832   2.833  1.3055 -1.9158 -0.9979
  428SOL     OW 1282   1.895   1.164   0.391 -0.2966 -0.4743  0.0247
  428SOL    HW1 1283   1.847   1.254   0.390  1.9178  0.6393 -0.5028
  428SOL    HW2 1284   1.890   1.132   0.293  0.0347 -0.2665 -0.7966
  429SOL     OW 1285   3.066   2.886   0.433  0.1681  0.2938  0.2029
  429SOL    HW1 1286   3.124   2.922   0.509 -1.1653  1.7849  0.1091
  429SOL    HW2 1287   3.067   2.957   0.358  0.3400 -1.4478 -0.4006
  430SOL     OW 1288   0.396   2.863   2.148  0.1064 -0.0053 -0.2843
  430SOL    HW1 1289   0.451   2.844   2.231 -0.8926 -0.0298  0.1933
  430SOL    HW2 1290   0.457   2.898   2.076 -0.5566  0.9317  0.9372
  431SOL     OW 1291   2.477   0.984   1.355  0.3955  0.1148 -0.0295
  431SOL    HW1 1292   2.501   1.043   1.277 -1.1212  1.4003 -4.0101
  431SOL    HW2 1293   2.562   0.975   1.414  2.7916  0.8039  1.1187
  432SOL     OW 1294   1.960   2.489   2.162  0.7632  0.1232  0.5255
  432SOL    HW1 1295   1.999   2.567   2.102  0.9000  0.7718 -0.4324
  432SOL    HW2 1296   1.982   2.399   2.124 -0.0329 -0.2709  1.1452
  433SOL     OW 1297   1.217   2.384   0.751 -0.3339 -0.2402 -0.3379
  433SOL    HW1 1298   1.249   2.290   0.773 -0.8169  0.6348 -0.2305
  433SOL    HW2 1299   1.293   2.448   0.763 -1.2519  0.9805  0.5989
  434SOL     OW 1300   0.323   2.212   2.308  0.3205 -0.0369 -0.2763
  434SOL    HW1 1301   0.284   2.211   2.400  1.6387 -1.4091 -1.4059
  434SOL    HW2 1302   0.265   2.262   2.243  1.1810 -1.5739  1.3408
  435SOL     OW 1303   0.387   0.919   0.250 -0.0300 -0.4161  0.2802
  435SOL    HW1 1304   0.356   0.835   0.204  1.6098  0.7314  0.8450
  435SOL    HW2 1305   0.476   0.943   0.207 -0.2911 -0.6733  1.0843
  436SOL     OW 1306   0.377   2.756   1.580  0.3290 -0.7420 -0.5501
  436SOL    HW1 1307   0.456   2.714   1.533  0.4384  2.0682  0.3778
  436SOL    HW2 1308   0.398   2.855   1.593  0.9713  1.6923  1.6248
  437SOL     OW 1309   1.565   2.157   1.620 -0.1307 -0.4138  0.3609
  437SOL    HW1 1310   1.598   2.207   1.700 -0.1488  1.2720 -1.0787
  437SOL    HW2 1311   1.573   2.218   1.541 -0.7044  0.8802  0.0907
  438SOL     OW 1312   0.015   1.732   0.753  0.3486 -0.6162  0.2504
  438SOL    HW1 1313   0.097   1.682   0.785  1.6169  1.9378  1.2982
  438SOL    HW2 1314   0.008   1.726   0.654  1.3267  0.5960  0.0288
  439SOL     OW 1315   0.169   0.582   0.802 -0.0117  0.3549 -0.6416
  439SOL    HW1 1316   0.164   0.630   0.890 -3.2808 -3.4480  0.4918
  439SOL    HW2 1317   0.103   0.508   0.799 -2.9593  2.2333  1.2437
  440SOL     OW 1318   0.313   2.930   2.478  0.4279  0.2811  0.0343
  440SOL    HW1 1319   0.277   2.922   2.572  1.0771  0.7965 -1.5565
  440SOL    HW2 1320   0.379   2.855   2.453 -0.7511  0.6893 -1.5925
  441SOL     OW 1321   2.989   0.272   0.818  0.6146 -0.6001  0.0380
  441SOL    HW1 1322   3.087   0.268   0.825 -1.5082 -0.0265 -1.7015
  441SOL    HW2 1323   2.939   0.186   0.835  1.1310  0.0793  3.1093
  442SOL     OW 1324   1.554   2.216   2.671  0.0071  0.0665  0.1498
  442SOL    HW1 1325   1.594   2.156   2.740 -0.3008  0.3576 -0.3121
  442SOL    HW2 1326   1.580   2.180   2.578  0.3127 -0.9553 -3.1161
  443SOL     OW 1327   0.688   1.180   3.076  0.1808 -0.1322 -0.1065
  443SOL    HW1 1328   0.675   1.230   2.986 -0.8235  0.1261 -0.7888
  443SOL    HW2 1329   0.779   1.135   3.078 -0.7449  0.2802 -0.5913
  444SOL     OW 1330   1.569   1.421   2.178 -0.3914  0.3532 -0.3692
  444SOL    HW1 1331   1.505   1.385   2.108 -0.3660  0.7650  4.2714
  444SOL    HW2 1332   1.518   1.418   2.265  0.5594  2.3836  0.0076
  445SOL     OW 1333   0.161   3.016   0.876 -0.0840 -0.4203  0.5865
  445SOL    HW1 1334   0.209   3.099   0.896 -4.3315 -0.2136 -0.7267
  445SOL    HW2 1335   0.077   3.014   0.923 -0.2636  0.2853 -1.3537
  446SOL     OW 1336   2.203   0.561   1.332  0.0864 -0.1934  0.0772
  446SOL    HW1 1337   2.181   0.648   1.373  0.9933 -0.0792  1.3967
  446SOL    HW2 1338   2.134   0.526   1.264 -0.4533  0.3129 -2.0538
  447SOL     OW 1339   0.152   0.873   2.946 -0.0353 -0.4043 -0.3835
  447SOL    HW1 1340   0.125   0.789   3.000 -0.1633 -2.2876  0.9557
  447SOL    HW2 1341   0.086   0.949   2.953 -1.3581 -1.7286 -2.9659
  448SOL     OW 1342   1.374   2.003   1.743 -0.1062 -0.5051 -0.2219
  448SOL    HW1 1343   1.414   2.091   1.707 -0.7937  0.5583 -0.7092
  448SOL    HW2 1344   1.453   1.942   1.763 -0.0148 -0.2194 -3.3008
  449SOL     OW 1345   1.086   1.433   0.742 -0.3899  0.6089  0.1317
  449SOL    HW1 1346   1.177   1.461   0.706 -3.3964 -2.5018  0.3216
  449SOL    HW2 1347   1.079   1.473   0.835 -1.3766 -0.0796 -0.1523
  450SOL     OW 1348   2.939   1.992   2.138  0.6274  0.5009 -0.0214
  450SOL    HW1 1349   2.920   2.013   2.237  1.7191 -0.5711 -4.4211
  450SOL    HW2 1350   2.858   2.012   2.079 -0.9125  1.0501 -0.9647
  451SOL     OW 1351   2.323   1.545   3.111  0.3263 -0.2097  0.5827
  451SOL    HW1 1352   2.334   1.525   0.063 -1.5097  0.7429 -2.4134
  451SOL    HW2 1353   2.326   1.646   3.101 -0.0272 -0.9471 -0.3401
  452SOL     OW 1354   1.542   0.697   1.229 -0.0766  0.3545 -0.7335
  452SOL    HW1 1355   1.445   0.688   1.208  2.3770  1.0248 -0.2245
  452SOL    HW2 1356   1.568   0.674   1.325  0.8293 -0.6989  1.6727
  453SOL     OW 1357   2.079   0.997   1.563  0.1583 -0.0111  0.1492
  453SOL    HW1 1358   2.034   1.070   1.514  1.9385  0.6466  0.0737
  453SOL    HW2 1359   2.141   0.952   1.494  0.1068 -1.3128 -1.5185
  454SOL     OW 1360   2.962   1.009   0.251 -0.2604 -0.1208 -0.6206
  454SOL    HW1 1361   3.060   0.972   0.259 -0.7134  0.9210  0.2932
  454SOL    HW2 1362   2.904   0.936   0.294 -1.3217 -2.3446 -0.1636
  455SOL     OW 1363   2.764   1.457   1.365  0.3700 -0.3421 -0.2333
  455SOL    HW1 1364   2.731   1.528   1.298  1.7865 -0.4335  0.7701
  455SOL    HW2 1365   2.849   1.501   1.407 -1.8253 -0.4173 -0.4856
  456SOL     OW 1366   0.718   0.223   1.434 -0.5571 -0.1743  0.3729
  456SOL    HW1 1367   0.653   0.144   1.433 -3.0508 -0.1699 -0.3432
  456SOL    HW2 1368   0.793   0.220   1.503 -0.7050 -3.8322  0.4490
  457SOL     OW 1369   1.725   3.045   0.995 -0.0393  0.2433  0.0854
  457SOL    HW1 1370   1.625   3.058   1.002  0.2702 -0.7570 -2.7987
  457SOL    HW2 1371   1.786   3.128   1.006 -1.9272  0.4909  0.2906
  458SOL     OW 1372   2.679   0.224   0.534 -0.1131 -0.0709 -0.0737
  458SOL    HW1 1373   2.668   0.325   0.528 -1.6139  0.3608 -0.4982
  458SOL    HW2 1374   2.589   0.178   0.542 -0.2425 -0.3837 -1.9743
  459SOL     OW 1375   1.771   0.825   0.018 -0.2350  0.2409  0.2417
  459SOL    HW1 1376   1.840   0.839   0.096  0.6033  0.8700  0.1728
  459SOL    HW2 1377   1.675   0.843   0.047 -0.6830  2.4640 -1.4074
  460SOL     OW 1378   0.128   2.647   2.672 -0.8047 -0.5847 -0.0607
  460SOL    HW1 1379   0.026   2.657   2.674  0.4185 -0.5151  0.7460
  460SOL    HW2 1380   0.168   2.731   2.704  1.6060 -2.9415 -0.4975
  461SOL     OW 1381   0.651   1.808   0.171 -0.3553 -0.1954 -0.0121
  461SOL    HW1 1382   0.581   1.731   0.181 -4.6994 -0.3781 -0.9213
  461SOL    HW2 1383   0.673   1.819   0.071  2.5242  0.0687 -0.6446
  462SOL     OW 1384   2.031   2.655   0.562 -0.2184 -0.0073  0.3923
  462SOL    HW1 1385   1.980   2.580   0.608 -0.4342 -0.8393 -0.2525
  462SOL    HW2 1386   2.010   2.746   0.607  4.2697 -0.5103 -1.2271
  463SOL     OW 1387   0.009   0.671   0.328  0.1078 -0.0375 -0.2352
  463SOL    HW1 1388   0.078   0.674   0.405  0.5414 -0.2919  1.0566
  463SOL    HW2 1389   0.033   0.748   0.263  0.2010  1.9215  1.7988
  464SOL     OW 1390   0.689   2.547   0.497 -0.3579  0.3973 -0.1407
  464SOL    HW1 1391   0.605   2.548   0.559  1.3367  2.9953 -1.4170
  464SOL    HW2 1392   0.708   2.455   0.452  1.3104 -1.3460 -1.3702
  465SOL     OW 1393   2.245   0.682   0.477 -0.1294  0.8000  0.2061
  465SOL    HW1 1394   2.175   0.615   0.501 -0.1343  0.0547  1.4738
  465SOL    HW2 1395   2.255   0.708   0.377  1.7018  1.5030 -1.7880
  466SOL     OW 1396   2.097   0.193   0.124  0.3856 -0.2188 -0.5153
  466SOL    HW1 1397   2.139   0.262   0.187 -0.5842  1.1341 -0.0496
  466SOL    HW2 1398   2.082   0.105   0.178 -2.5967 -0.1234  0.5837
  467SOL     OW 1399   1.283   0.412   1.782  0.3924 -0.0282  0.2145
  467SOL    HW1 1400   1.246   0.362   1.864 -0.5070  0.3651 -0.7470
  467SOL    HW2 1401   1.349   0.490   1.806  0.9138  2.7363  1.1378
  468SOL     OW 1402   2.774   0.728   2.101 -0.2081  0.2996  0.7467
  468SOL    HW1 1403   2.853   0.790   2.098 -1.2904 -2.0911  0.7300
  468SOL    HW2 1404   2.699   0.753   2.038  3.8089 -0.2538  0.7828
  469SOL     OW 1405   0.995   2.727   2.321 -0.0926  0.1736 -0.1949
  469SOL    HW1 1406   0.897   2.699   2.336  1.4984  0.4049  1.2521
  469SOL    HW2 1407   0.998   2.786   2.238  0.8603  1.5544  2.8443
  470SOL     OW 1408   1.949   1.279   1.746 -0.1202  0.1172 -0.3849
  470SOL    HW1 1409   2.036   1.320   1.709 -0.3723 -2.6181 -0.3581
  470SOL    HW2 1410   1.956   1.251   1.843 -0.5503  0.9777  1.7633
  471SOL     OW 1411   2.783   1.160   0.117 -0.0367 -0.2932  0.8737
  471SOL    HW1 1412   2.752   1.113   0.032  1.5600  1.2522 -2.4916
  471SOL    HW2 1413   2.857   1.110   0.161 -0.5443 -2.5125 -0.5749
  472SOL     OW 1414   0.368   2.811   0.488  0.0470  0.7758  0.4433
  472SOL    HW1 1415   0.372   2.875   0.410  1.4919 -1.0508  0.1579
  472SOL    HW2 1416   0.445   2.744   0.490  1.3037 -1.3387 -1.6158
  473SOL     OW 1417   1.072   2.931   2.501 -0.0673 -0.0494 -0.0376
  473SOL    HW1 1418   1.050   2.840   2.461 -1.4594  0.3219  2.5488
  473SOL    HW2 1419   0.992   2.992   2.487  0.7424 -1.9015  0.0307
  474SOL     OW 1420   1.496   0.082   1.972  0.0938 -0.2925  0.3148
  474SOL    HW1 1421   1.541   0.103   2.062 -1.6982 -1.1798  1.4920
  474SOL    HW2 1422   1.422   0.016   1.988 -1.0638 -0.4267  0.8462
  475SOL     OW 1423   0.748   2.545   0.033 -0.3305  0.4577 -0.0082
  475SOL    HW1 1424   0.814   2.609   0.083  0.6262  0.5295 -1.9111
  475SOL    HW2 1425   0.692   2.497   0.103  0.3268  1.3478 -1.2685
  476SOL     OW 1426   0.435   0.507   0.892 -0.1422  0.0886 -0.1673
  476SOL    HW1 1427   0.488   0.564   0.823  0.2959  0.9966  2.1380
  476SOL    HW2 1428   0.341   0.538   0.893  3.5259 -1.2128 -1.2443
  477SOL     OW 1429   1.811   2.009   1.374  0.1093  0.6454  0.1410
  477SOL    HW1 1430   1.709   2.008   1.374 -0.5296 -1.8685  0.8384
  477SOL    HW2 1431   1.848   1.941   1.310 -0.9483  0.5016 -0.2293
  478SOL     OW 1432   0.339   1.170   2.735  0.1809 -0.0637 -0.2102
  478SOL    HW1 1433   0.387   1.089   2.780 -1.2545  2.4862  1.0700
  478SOL    HW2 1434   0.273   1.134   2.670 -0.3790 -1.2769  4.9073
  479SOL     OW 1435   0.639   0.077   0.914  0.5616  0.1046  0.1133
  479SOL    HW1 1436   0.717   0.137   0.946  2.6092  1.2268  2.3054
  479SOL    HW2 1437   0.575   0.126   0.854  0.0522 -0.8621 -0.7854
  480SOL     OW 1438   2.582   2.580   0.011 -0.5178 -0.8531  0.1070
  480SOL    HW1 1439   2.597   2.588   3.057  0.3427  0.7085  1.5597
  480SOL    HW2 1440   2.539   2.490   0.034  0.3784 -2.8578  0.0368
  481SOL     OW 1441   2.509   0.547   1.072  0.4797 -0.1616  0.0121
  481SOL    HW1 1442   2.443   0.623   1.063 -0.2114  1.0769  0.3164
  481SOL    HW2 1443   2.604   0.575   1.083  0.3717 -2.6352  2.2091
  482SOL     OW 1444   1.497   2.577   1.559  0.3195 -0.0856 -0.1174
  482SOL    HW1 1445   1.555   2.521   1.498 -1.4982 -1.7606 -0.7810
  482SOL    HW2 1446   1.547   2.636   1.622 -2.1075 -0.7599 -0.0789
  483SOL     OW 1447   0.383   1.584   3.057 -0.0979  0.0069  0.4617
  483SOL    HW1 1448   0.298   1.639   3.070  1.2772 -0.4997  0.3262
  483SOL    HW2 1449   0.353   1.501   3.007 -0.8749  2.3269  2.4214
  484SOL     OW 1450   1.390   1.869   2.507  0.1624 -0.0160  0.6363
  484SOL    HW1 1451   1.324   1.799   2.472  0.7588 -0.2223  0.4087
  484SOL    HW2 1452   1.436   1.914   2.426  0.1021 -0.3380 -0.3899
  485SOL     OW 1453   0.319   0.466   2.122 -0.2796 -0.1978 -0.3177
  485SOL    HW1 1454   0.225   0.454   2.164 -1.9496 -1.0767  1.8283
  485SOL    HW2 1455   0.352   0.375   2.091  0.8152  0.4208 -0.7066
  486SOL     OW 1456   1.261   0.154   0.548  0.5868 -0.3089 -0.1477
  486SOL    HW1 1457   1.311   0.130   0.632  0.3502 -2.7069  0.9501
  486SOL    HW2 1458   1.326   0.206   0.489 -0.2643 -1.3354  0.1869
  487SOL     OW 1459   1.384   2.979   0.786  0.1067  0.8239  0.0295
  487SOL    HW1 1460   1.330   2.920   0.720  0.1603 -0.6968  3.0876
  487SOL    HW2 1461   1.326   3.055   0.814  0.2053  1.5768 -0.7209
  488SOL     OW 1462   2.129   0.673   0.883 -0.2631 -0.0355 -0.3170
  488SOL    HW1 1463   2.215   0.685   0.832 -2.7825  0.5445  3.8246
  488SOL    HW2 1464   2.121   0.576   0.916  2.1873 -0.8670  2.2433
  489SOL     OW 1465   1.193   2.767   1.173  0.8829 -0.1255  0.6095
  489SOL    HW1 1466   1.247   2.743   1.257  1.1559 -2.8805  1.9319
  489SOL    HW2 1467   1.096   2.791   1.200 -1.0846  2.2937  1.3650
  490SOL     OW 1468   0.837   0.895   0.307  0.5291  0.0732  0.0079
  490SOL    HW1 1469   0.785   0.961   0.371 -3.1167  1.2651  1.1821
  490SOL    HW2 1470   0.879   0.821   0.363 -1.1330 -1.0118 -3.4255
  491SOL     OW 1471   0.940   2.875   3.087  0.1698  0.1982  0.0603
  491SOL    HW1 1472   0.902   2.826   0.024  0.0423  0.3748 -0.2493
  491SOL    HW2 1473   1.039   2.862   3.079 -2.3244 -0.5969  0.1332
  492SOL     OW 1474   1.189   1.216   2.117 -0.1351 -0.1541  0.2093
  492SOL    HW1 1475   1.241   1.293   2.071  3.0479  1.3361  1.5641
  492SOL    HW2 1476   1.097   1.190   2.078 -1.5031  0.8392  0.1670
  493SOL     OW 1477   3.092   1.852   0.267  0.0342 -0.2216 -0.0298
  493SOL    HW1 1478   0.045   1.854   0.248  0.9478 -0.6756  2.1839
  493SOL    HW2 1479   3.030   1.872   0.188  0.4043 -1.2291 -0.7372
  494SOL     OW 1480   2.048   1.416   0.715  0.3335 -0.0007 -0.3210
  494SOL    HW1 1481   1.951   1.442   0.721 -1.4679 -0.9494 -0.8294
  494SOL    HW2 1482   2.063   1.346   0.639  0.1704 -2.0474 -2.4662
  495SOL     OW 1483   0.162   1.091   2.541 -0.1519  0.2096 -0.8568
  495SOL    HW1 1484   0.066   1.083   2.569  3.1260  0.3330  0.4484
  495SOL    HW2 1485   0.186   1.176   2.490  1.3995 -2.4668 -0.1054
  496SOL     OW 1486   2.918   3.135   2.220 -0.8653  0.5098 -0.0668
  496SOL    HW1 1487   2.815   0.009   2.242 -1.8632 -0.0328 -0.9190
  496SOL    HW2 1488   2.925   3.036   2.218  0.9542  1.1099  0.2085
  497SOL     OW 1489   2.192   0.921   0.576  0.1086  0.7856  0.1722
  497SOL    HW1 1490   2.098   0.953   0.581  0.8106 -2.2509  0.7915
  497SOL    HW2 1491   2.203   0.829   0.539 -0.0294  1.6989  1.0854
  498SOL     OW 1492   3.104   2.411   2.997  0.0693  0.0685 -0.1977
  498SOL    HW1 1493   3.089   2.512   2.997  0.6689  2.1604  0.5905
  498SOL    HW2 1494   0.031   2.385   2.933 -0.4016  1.2753  0.2797
  499SOL     OW 1495   1.645   2.640   0.715  1.0514 -0.0289  0.7665
  499SOL    HW1 1496   1.645   2.641   0.614  0.3099 -1.8854  0.9143
  499SOL    HW2 1497   1.726   2.589   0.751  0.2438  0.9894 -3.0844
  500SOL     OW 1498   1.306   0.685   2.502  0.8555 -0.4824 -0.2569
  500SOL    HW1 1499   1.266   0.609   2.447 -0.6498  0.2970  0.7650
  500SOL    HW2 1500   1.364   0.752   2.451 -1.6228 -0.4642 -1.5416
  501SOL     OW 1501   0.962   0.242   1.266 -0.1816 -0.8672  0.5680
  501SOL    HW1 1502   1.033   0.178   1.303  2.1263  1.7928  2.5153
  501SOL    HW2 1503   0.867   0.219   1.294  3.1366  0.5962 -2.5370
  502SOL     OW 1504   3.146   0.073   2.070 -0.0034  0.1395  0.0654
  502SOL    HW1 1505   3.066   0.043   2.130 -0.9550  0.1444  1.4222
  502SOL    HW2 1506   0.042   3.139   2.027  0.0257 -0.3389 -3.7602
  503SOL     OW 1507   1.527   2.379   2.356 -0.1518  0.1090  0.3218
  503SOL    HW1 1508   1.595   2.439   2.305  2.9008  1.7442 -0.0537
  503SOL    HW2 1509   1.565   2.288   2.387  0.5463 -4.2261  0.4364
  504SOL     OW 1510   2.082   3.131   1.793  0.1240  0.2017 -0.6758
  504SOL    HW1 1511   2.176   3.123   1.752  1.4733  1.2316  1.7420
  504SOL    HW2 1512   2.003   3.098   1.733 -3.3497 -2.7046 -2.4476
  505SOL     OW 1513   2.645   1.206   1.465 -0.0439  0.5264  0.1670
  505SOL    HW1 1514   2.660   1.121   1.513 -1.7180 -0.1930  1.1411
  505SOL    HW2 1515   2.708   1.282   1.472  1.4276 -1.4767 -2.7874
  506SOL     OW 1516   0.452   1.422   2.170 -0.0034 -0.6072 -0.1279
  506SOL    HW1 1517   0.503   1.380   2.249  0.0547  1.9012 -1.0772
  506SOL    HW2 1518   0.391   1.354   2.125  0.2210 -1.1217 -0.4716
  507SOL     OW 1519   0.213   2.995   1.373  0.1938 -0.2643  0.0708
  507SOL    HW1 1520   0.313   2.981   1.393  0.3131  1.1546 -1.7956
  507SOL    HW2 1521   0.160   2.912   1.346 -1.4693  0.6435  1.8374
  508SOL     OW 1522   1.271   0.676   1.298  0.3082 -0.0701 -0.1243
  508SOL    HW1 1523   1.223   0.762   1.275 -0.3474 -2.2446  0.7474
  508SOL    HW2 1524   1.210   0.596   1.301  1.9797  0.4480  1.4090
  509SOL     OW 1525   1.349   2.225   1.376  0.3082  0.0772 -0.3298
  509SOL    HW1 1526   1.370   2.267   1.290 -0.5512 -1.4606  0.3889
  509SOL    HW2 1527   1.360   2.281   1.458  1.6113 -1.1728 -1.2317
  510SOL     OW 1528   2.860   1.578   3.106  0.3105 -0.7129 -0.1747
  510SOL    HW1 1529   2.761   1.576   3.136 -1.6568 -0.8416  2.5450
  510SOL    HW2 1530   2.906   1.501   0.009 -0.5232  0.1548  0.3441
  511SOL     OW 1531   0.649   1.226   1.388 -0.4821  0.5389  0.6792
  511SOL    HW1 1532   0.696   1.141   1.415 -2.1172 -0.7308  0.3650
  511SOL    HW2 1533   0.660   1.237   1.291 -0.9537 -0.3226  1.0602
  512SOL     OW 1534   3.084   2.406   0.459  0.1411  0.1710  0.3832
  512SOL    HW1 1535   3.099   2.312   0.492 -0.8468  1.8484 -0.5151
  512SOL    HW2 1536   3.042   2.410   0.367  0.5266  2.1764 -2.1894
  513SOL     OW 1537   0.914   1.509   2.863  0.4883 -0.0212  1.0383
  513SOL    HW1 1538   0.906   1.558   2.955  0.7250  1.5383  1.3078
  513SOL    HW2 1539   0.976   1.563   2.799  1.6993  0.2435 -1.6181
  514SOL     OW 1540   0.156   2.400   2.810 -0.5340  0.1136 -0.3575
  514SOL    HW1 1541   0.253   2.372   2.792  1.3289  4.4454  1.5816
  514SOL    HW2 1542   0.123   2.467   2.740 -0.0649 -0.3380 -0.1751
  515SOL     OW 1543   1.517   1.062   1.863 -0.2744  0.1839 -0.0163
  515SOL    HW1 1544   1.611   1.031   1.838  0.6729  1.6903 -0.2304
  515SOL    HW2 1545   1.453   1.035   1.792  2.6553  0.3667  2.0310
  516SOL     OW 1546   2.048   2.323   0.433  0.3722  0.4092  0.1655
  516SOL    HW1 1547   2.139   2.276   0.413  3.5835  0.2147  0.2817
  516SOL    HW2 1548   2.056   2.382   0.516  1.0899  1.2560 -3.0726
  517SOL     OW 1549   1.138   1.719   0.644  0.0289 -0.4655 -0.2923
  517SOL    HW1 1550   1.170   1.787   0.574 -1.3868 -0.8098  0.0087
  517SOL    HW2 1551   1.208   1.642   0.657 -0.3188  0.1549  0.9363
  518SOL     OW 1552   2.350   2.301   2.036 -0.0802 -0.0490 -0.5276
  518SOL    HW1 1553   2.378   2.388   1.992 -1.3967  1.3080 -1.3082
  518SOL    HW2 1554   2.248   2.293   2.043 -1.4553 -1.6099 -0.4698
  519SOL     OW 1555   1.830   2.494   0.970  0.2694  0.6015 -0.0064
  519SOL    HW1 1556   1.892   2.563   1.004 -0.1327  0.2055  0.0538
  519SOL    HW2 1557   1.872   2.406   0.948 -1.6841 -1.9337 -2.2374
  520SOL     OW 1558   2.819   2.510   2.649  0.0136 -0.1075  0.0024
  520SOL    HW1 1559   2.806   2.533   2.551 -2.4609 -0.5149 -0.4042
  520SOL    HW2 1560   2.842   2.413   2.672  1.3653  0.2654  0.8128
  521SOL     OW 1561   2.912   1.090   2.398 -0.7700  0.1373  0.4490
  521SOL    HW1 1562   2.923   1.189   2.365 -0.9034 -0.0746  0.3157
  521SOL    HW2 1563   2.821   1.056   2.369 -0.7970  2.3426 -0.7626
  522SOL     OW 1564   0.646   0.427   2.058  0.3608 -0.4200 -0.4788
  522SOL    HW1 1565   0.617   0.416   1.960  0.8776  0.6373  1.6291
  522SOL    HW2 1566   0.675   0.524   2.077  1.7237  2.1920 -0.7838
  523SOL     OW 1567   0.491   1.958   1.063  0.2489 -0.2765  0.1049
  523SOL    HW1 1568   0.547   2.023   1.120  0.4754 -1.3295 -1.8826
  523SOL    HW2 1569   0.399   1.998   1.051  3.0649  2.2926 -1.6652
  524SOL     OW 1570   1.680   2.648   0.415  0.6312  0.4209  0.5355
  524SOL    HW1 1571   1.749   2.724   0.391  1.6957 -0.6619 -1.3420
  524SOL    HW2 1572   1.718   2.560   0.385  0.5334  2.6197 -1.0943
  525SOL     OW 1573   2.242   0.873   1.388  0.0311 -0.2616 -0.2290
  525SOL    HW1 1574   2.190   0.884   1.299  0.5633 -1.6779 -0.4065
  525SOL    HW2 1575   2.331   0.922   1.377 -0.5751  1.5517 -0.2393
  526SOL     OW 1576   0.928   2.625   0.561 -0.2624 -0.1266  0.3020
  526SOL    HW1 1577   0.955   2.704   0.501  1.7288 -0.5569 -0.5044
  526SOL    HW2 1578   0.844   2.576   0.530  1.5657  1.8601  1.3277
  527SOL     OW 1579   2.355   2.694   0.591 -0.4212  0.1883 -0.5824
  527SOL    HW1 1580   2.453   2.688   0.602 -1.2125  1.4618  4.1096
  527SOL    HW2 1581   2.318   2.616   0.531  1.3027 -3.3201 -0.3342
  528SOL     OW 1582   1.805   0.554   0.208  0.1823  0.2833 -0.1275
  528SOL    HW1 1583   1.744   0.532   0.284  0.7352 -1.3807 -2.3563
  528SOL    HW2 1584   1.762   0.522   0.117 -0.9897 -0.7683 -1.2531
  529SOL     OW 1585   1.672   1.578   2.493 -0.4040 -0.1219 -0.6751
  529SOL    HW1 1586   1.736   1.524   2.552  2.3267  2.6716  0.8430
  529SOL    HW2 1587   1.717   1.610   2.405 -1.5425  2.3951 -0.0205
  530SOL     OW 1588   2.219   0.406   0.280  0.3183 -0.4998  0.1772
  530SOL    HW1 1589   2.204   0.460   0.193  0.2427  1.6406 -0.6966
  530SOL    HW2 1590   2.319   0.381   0.280  0.4469  0.7206  0.7542
  531SOL     OW 1591   1.632   0.891   2.759 -0.3171 -1.0073 -0.2839
  531SOL    HW1 1592   1.722   0.940   2.775  1.9202  2.4641  0.1057
  531SOL    HW2 1593   1.577   0.880   2.842  1.6852 -0.1224 -0.8218
  532SOL     OW 1594   1.595   0.574   0.421  0.4416  0.1619  0.0276
  532SOL    HW1 1595   1.503   0.547   0.383 -0.6100 -0.6924 -0.4190
  532SOL    HW2 1596   1.585   0.622   0.512  0.6190 -1.1399 -0.7504
  533SOL     OW 1597   0.681   1.129   2.261  0.0998 -0.0787 -0.1771
  533SOL    HW1 1598   0.653   1.098   2.164  0.1610 -0.4673 -3.1831
  533SOL    HW2 1599   0.743   1.070   2.316 -1.1757 -1.2123 -0.3155
  534SOL     OW 1600   1.543   0.156   2.256 -0.0553  0.3306  0.8218
  534SOL    HW1 1601   1.497   0.192   2.337  2.1353  1.2788 -0.1886
  534SOL    HW2 1602   1.642   0.159   2.277 -0.9095 -0.8294  0.4485
  535SOL     OW 1603   0.071   3.079   3.029  0.2438 -0.3161  0.1106
  535SOL    HW1 1604   3.124   3.106   3.007 -2.2551 -2.4786  0.5492
  535SOL    HW2 1605   0.139   3.128   2.968  1.1833  5.0998 -0.1569
  536SOL     OW 1606   0.428   0.223   0.788  0.4021  0.1688  0.0646
  536SOL    HW1 1607   0.415   0.235   0.686 -0.6281 -0.2256  1.6204
  536SOL    HW2 1608   0.462   0.310   0.826 -1.0702  0.2570  0.5636
  537SOL     OW 1609   1.178   0.606   0.550  0.2386 -0.5109 -1.0911
  537SOL    HW1 1610   1.267   0.550   0.554  3.4488 -1.8820  2.2766
  537SOL    HW2 1611   1.192   0.691   0.599 -3.0766 -3.6247  0.0453
  538SOL     OW 1612   2.908   2.264   3.144 -0.3192  0.9484  0.5595
  538SOL    HW1 1613   2.964   2.320   3.075 -1.6629  2.0399 -3.8493
  538SOL    HW2 1614   2.813   2.276   3.132  3.1319  0.6231  0.3794
  539SOL     OW 1615   2.153   1.644   0.473  0.7338 -0.0750 -0.2001
  539SOL    HW1 1616   2.071   1.709   0.465  0.0461  1.3669 -1.2458
  539SOL    HW2 1617   2.124   1.551   0.504 -1.0060 -0.4855 -1.2571
  540SOL     OW 1618   0.583   2.627   1.475  0.0477  0.1608  0.1939
  540SOL    HW1 1619   0.577   2.534   1.508 -1.0228  2.5301 -2.3226
  540SOL    HW2 1620   0.640   2.625   1.387  2.0070  1.0517 -0.7692
  541SOL     OW 1621   1.938   3.141   2.184  0.6118 -0.3147  0.0341
  541SOL    HW1 1622   1.910   3.055   2.141  0.5915 -0.2071  1.0715
  541SOL    HW2 1623   1.999   0.048   2.120 -0.6305  2.7806  0.9355
  542SOL     OW 1624   0.282   0.774   2.486  0.0939  0.2195  0.0469
  542SOL    HW1 1625   0.214   0.702   2.495  1.6845 -2.1750  0.2339
  542SOL    HW2 1626   0.245   0.869   2.484  1.3885  0.7257 -1.9878
  543SOL     OW 1627   0.205   0.920   1.415 -0.1650 -0.3618  0.3830
  543SOL    HW1 1628   0.265   0.959   1.338  2.3540  0.2070  0.7219
  543SOL    HW2 1629   0.171   1.006   1.465  0.8922  1.9042  1.6548
  544SOL     OW 1630   2.417   0.280   1.041  0.5157  0.5073 -0.3061
  544SOL    HW1 1631   2.456   0.378   1.064 -0.0206  2.6476 -0.1946
  544SOL    HW2 1632   2.468   0.237   0.967  3.0185 -0.8234 -0.6591
  545SOL     OW 1633   1.591   2.110   0.718 -0.4106  0.1223 -0.0765
  545SOL    HW1 1634   1.568   2.017   0.687  2.5848  0.7034  3.6216
  545SOL    HW2 1635   1.581   2.123   0.818 -1.6065 -0.3582 -0.6722
  546SOL     OW 1636   2.200   2.724   1.819 -0.3349  0.3330 -0.0170
  546SOL    HW1 1637   2.272   2.744   1.748  0.6080  0.6369  0.7706
  546SOL    HW2 1638   2.113   2.770   1.790 -0.1594  0.1231  0.1148
  547SOL     OW 1639   0.418   0.049   2.526 -0.0621  0.2654  0.6172
  547SOL    HW1 1640   0.510   0.079   2.484  0.8152 -0.5290  0.3144
  547SOL    HW2 1641   0.393   3.105   2.488 -0.4671  0.2210 -0.9192
  548SOL     OW 1642   1.890   1.106   0.121  0.1928  0.0861 -0.8566
  548SOL    HW1 1643   1.892   1.184   0.063  1.9592  0.3939 -1.0450
  548SOL    HW2 1644   1.856   1.023   0.070 -1.0009 -1.9333 -2.4528
  549SOL     OW 1645   0.056   1.099   0.413 -0.3702  0.0916  0.4240
  549SOL    HW1 1646   0.082   1.085   0.509 -0.6580 -0.1280 -1.3293
  549SOL    HW2 1647   3.103   1.117   0.407 -0.2058  1.1994 -0.7983
  550SOL     OW 1648   1.953   1.958   0.857  0.1969  0.0846  0.1594
  550SOL    HW1 1649   1.904   1.878   0.817  1.1305  0.5211  2.7051
  550SOL    HW2 1650   2.020   1.928   0.926 -1.7950 -0.3158 -0.9608
  551SOL     OW 1651   1.294   0.132   0.840 -0.2839 -0.1511 -0.0009
  551SOL    HW1 1652   1.325   0.195   0.912 -3.5891 -0.9881  0.4041
  551SOL    HW2 1653   1.202   0.094   0.859  0.6665  1.4169  2.7170
  552SOL     OW 1654   3.030   2.889   2.298 -0.1231  0.2829 -0.2671
  552SOL    HW1 1655   3.119   2.937   2.311  1.0730 -0.3429  1.6877
  552SOL    HW2 1656   3.041   2.797   2.250 -0.6805  2.7861 -0.3845
  553SOL     OW 1657   0.109   3.027   2.325  0.3178 -0.8834 -0.0342
  553SOL    HW1 1658   0.188   3.004   2.384  0.4257 -0.1767 -2.8544
  553SOL    HW2 1659   0.133   3.051   2.228  0.4765  1.2278 -0.7917
  554SOL     OW 1660   0.658   3.102   1.420  0.3645 -0.3262  0.5122
  554SOL    HW1 1661   0.621   3.072   1.332  0.9297  1.1603  0.6562
  554SOL    HW2 1662   0.760   3.112   1.416 -1.9786 -0.1515 -2.1815
  555SOL     OW 1663   2.763   2.585   2.364 -0.0723 -0.6009  0.0918
  555SOL    HW1 1664   2.727   2.680   2.367  1.2632 -1.1120 -2.8036
  555SOL    HW2 1665   2.689   2.523   2.331  2.2694  1.0079 -1.5072
  556SOL     OW 1666   1.329   0.300   2.697 -0.1074 -0.2402 -0.7417
  556SOL    HW1 1667   1.255   0.362   2.729 -0.1201 -0.4176 -0.0644
  556SOL    HW2 1668   1.295   0.225   2.636  0.7305 -0.5553  0.7641
  557SOL     OW 1669   0.546   1.675   2.395  0.5353  0.1652 -0.3977
  557SOL    HW1 1670   0.456   1.713   2.425  0.6450  1.2592  0.4656
  557SOL    HW2 1671   0.527   1.579   2.368 -0.2633 -0.0904  0.9192
  558SOL     OW 1672   2.239   0.904   2.653  0.0296 -0.2983 -0.7098
  558SOL    HW1 1673   2.161   0.839   2.654  0.5187  1.1144 -0.3153
  558SOL    HW2 1674   2.232   0.961   2.568  2.4915 -1.0765 -1.3611
  559SOL     OW 1675   2.551   2.186   2.382 -0.2358  0.0343  0.6073
  559SOL    HW1 1676   2.500   2.109   2.340  0.3309 -0.8618 -2.3581
  559SOL    HW2 1677   2.512   2.203   2.477 -0.4596  0.1537 -0.5796
  560SOL     OW 1678   2.431   0.947   2.207  0.4071 -0.0135  0.1799
  560SOL    HW1 1679   2.379   1.000   2.136 -2.1737 -1.1029 -0.5645
  560SOL    HW2 1680   2.398   0.857   2.241 -1.0852 -2.9280  2.4193
  561SOL     OW 1681   3.143   0.244   2.896 -0.0300 -0.2727  1.0210
  561SOL    HW1 1682   0.028   0.229   2.801  0.2780  1.4980  1.3775
  561SOL    HW2 1683   3.093   0.164   2.934  0.0782  0.2051  0.0678
  562SOL     OW 1684   1.059   1.013   1.625  0.2125  0.3684  0.4691
  562SOL    HW1 1685   1.046   0.916   1.597  1.5814  2.1704 -2.5404
  562SOL    HW2 1686   0.969   1.058   1.648  1.0594 -0.2749 -0.2292
  563SOL     OW 1687   1.574   0.073   3.037 -0.6870  0.1620 -0.3193
  563SOL    HW1 1688   1.577   3.125   2.999  0.8806 -1.2011 -0.3830
  563SOL    HW2 1689   1.528   0.062   3.128  0.5146 -1.6977 -0.7070
  564SOL     OW 1690   3.051   2.213   1.027 -0.0794 -0.0360  0.4694
  564SOL    HW1 1691   3.053   2.307   1.069 -2.0450  0.5286  0.1552
  564SOL    HW2 1692   3.016   2.155   1.100  0.6549 -0.8265  0.8805
  565SOL     OW 1693   0.666   2.185   2.027  0.3599 -0.3860 -0.4822
  565SOL    HW1 1694   0.604   2.224   1.955 -0.8134  1.3070  1.0467
  565SOL    HW2 1695   0.700   2.096   1.999  0.5472  1.2750 -0.0184
  566SOL     OW 1696   1.470   2.601   2.082 -0.0594 -0.0189 -0.3050
  566SOL    HW1 1697   1.412   2.634   2.159  1.2292 -0.6951 -0.1735
  566SOL    HW2 1698   1.568   2.597   2.115  3.1980  0.3041  2.5886
  567SOL     OW 1699   2.034   2.642   1.065 -0.6304  0.1874  0.4019
  567SOL    HW1 1700   2.033   2.596   1.158 -1.3071 -0.2902 -0.7204
  567SOL    HW2 1701   2.134   2.647   1.035  0.4712 -0.2478 -0.2634
  568SOL     OW 1702   1.873   0.701   0.575 -0.1984 -0.4398  0.1296
  568SOL    HW1 1703   1.788   0.658   0.619 -2.7368 -1.2853  1.0764
  568SOL    HW2 1704   1.915   0.632   0.516 -0.8375  2.3047  1.9881
  569SOL     OW 1705   2.981   1.848   2.821 -0.2004  0.0576 -0.4001
  569SOL    HW1 1706   3.055   1.910   2.860  0.2493  1.0827 -1.5018
  569SOL    HW2 1707   2.997   1.750   2.844 -0.2153  1.6892 -2.6722
  570SOL     OW 1708   2.935   0.000   1.259  0.5921 -0.2094  0.5806
  570SOL    HW1 1709   3.026   0.027   1.289 -1.2543 -2.2550  1.4535
  570SOL    HW2 1710   2.861   0.048   1.306 -1.3008 -1.0802 -1.3892
  571SOL     OW 1711   3.004   0.462   1.662 -0.5677 -0.2244 -0.4250
  571SOL    HW1 1712   3.089   0.487   1.715  1.6463  1.6003  1.5141
  571SOL    HW2 1713   2.948   0.394   1.718 -1.5244  1.6925  0.5162
  572SOL     OW 1714   0.063   2.626   0.856  0.1733  0.0710 -0.1612
  572SOL    HW1 1715   0.037   2.641   0.758 -1.7343 -0.0026 -0.0564
  572SOL    HW2 1716   0.109   2.534   0.866 -0.0995 -0.6687  0.0073
  573SOL     OW 1717   0.885   0.659   3.040 -0.0304  0.1014 -0.1222
  573SOL    HW1 1718   0.827   0.703   3.113  3.9526 -1.0759 -2.9323
  573SOL    HW2 1719   0.867   0.560   3.027 -2.1787  0.2356  0.2454
  574SOL     OW 1720   3.043   2.664   3.001 -0.3729  0.0638 -0.4338
  574SOL    HW1 1721   3.113   2.734   3.026  1.7769  0.2870 -2.0584
  574SOL    HW2 1722   3.013   2.673   2.903  1.8281 -1.9769 -1.3288
  575SOL     OW 1723   1.491   2.366   1.176 -0.6965 -0.1377 -0.0215
  575SOL    HW1 1724   1.398   2.388   1.136  0.8507  0.0922 -1.8833
  575SOL    HW2 1725   1.554   2.445   1.150 -1.2867 -0.0649 -2.0210
  576SOL     OW 1726   0.921   2.581   1.088 -0.0378  0.2060  0.2995
  576SOL    HW1 1727   0.918   2.551   0.991  0.4247 -0.4290 -1.6787
  576SOL    HW2 1728   1.020   2.595   1.109 -0.7695  0.5414 -0.0429
  577SOL     OW 1729   2.445   1.489   0.947  0.6216  0.6264 -0.4914
  577SOL    HW1 1730   2.377   1.445   1.014  0.1657  1.7180  2.4522
  577SOL    HW2 1731   2.479   1.422   0.874 -1.6985 -0.1745  0.1062
  578SOL     OW 1732   1.602   0.241   0.604 -0.2138  0.0105  0.5224
  578SOL    HW1 1733   1.589   0.256   0.503  0.2755 -0.3543  1.1857
  578SOL    HW2 1734   1.578   0.145   0.630 -0.2134  1.3931 -0.7687
  579SOL     OW 1735   2.416   0.975   2.870 -0.1743 -0.2071  0.6431
  579SOL    HW1 1736   2.484   0.898   2.855  1.3505 -0.3185  0.2658
  579SOL    HW2 1737   2.352   0.983   2.789 -0.4826  1.3061 -2.0349
  580SOL     OW 1738   1.711   0.887   1.861  0.6035 -0.1668 -0.8855
  580SOL    HW1 1739   1.800   0.935   1.845  0.1149  2.8948  1.5732
  580SOL    HW2 1740   1.711   0.841   1.948  0.1276  1.6172  0.0089
  581SOL     OW 1741   0.442   1.010   1.240 -0.4688  0.3125 -0.2179
  581SOL    HW1 1742   0.426   1.079   1.167  0.2706  1.8942  2.2460
  581SOL    HW2 1743   0.438   0.914   1.208 -1.7617  2.4616 -0.2532
  582SOL     OW 1744   2.749   0.011   1.810 -0.2864  0.2615  0.3004
  582SOL    HW1 1745   2.833   0.066   1.813 -2.0703  1.9827 -0.6638
  582SOL    HW2 1746   2.665   0.068   1.814 -1.2275  0.1727 -0.4177
  583SOL     OW 1747   3.091   0.313   1.941 -0.2331  0.1782  0.2767
  583SOL    HW1 1748   3.023   0.358   1.994  2.7939 -2.8801  1.4271
  583SOL    HW2 1749   0.008   0.260   1.998  0.4530  1.5499 -0.2038
  584SOL     OW 1750   1.438   2.082   3.019  0.1781  1.3993 -0.0918
  584SOL    HW1 1751   1.450   2.161   3.080  0.1848  2.0638  0.3046
  584SOL    HW2 1752   1.508   2.073   2.948  0.1044 -0.7448  1.2287
  585SOL     OW 1753   0.224   2.891   2.716 -0.3961  0.1163  0.0712
  585SOL    HW1 1754   0.304   2.904   2.777  1.0114  3.3556 -2.5484
  585SOL    HW2 1755   0.146   2.956   2.731  1.4262 -2.2253  0.5031
  586SOL     OW 1756   2.120   1.812   2.552 -0.1036 -0.4547  0.0610
  586SOL    HW1 1757   2.172   1.741   2.501  0.8568 -0.7913 -1.2172
  586SOL    HW2 1758   2.188   1.864   2.607 -0.1481 -1.1773 -0.8118
  587SOL     OW 1759   2.411   2.411   0.393  0.2479 -0.2368  0.0490
  587SOL    HW1 1760   2.356   2.423   0.308  2.1471  1.3107  1.0992
  587SOL    HW2 1761   2.396   2.320   0.438  4.0099 -1.1053 -1.7189
  588SOL     OW 1762   2.701   0.389   0.808  0.1429 -0.1439 -0.3983
  588SOL    HW1 1763   2.603   0.392   0.776  2.7912 -1.6044 -2.8139
  588SOL    HW2 1764   2.749   0.307   0.769  0.9067  0.4638  0.1880
  589SOL     OW 1765   0.477   0.736   0.688 -0.6025  0.2132 -0.5643
  589SOL    HW1 1766   0.500   0.665   0.617 -0.6316  0.2810 -0.4920
  589SOL    HW2 1767   0.443   0.825   0.647  0.9800  0.7181 -2.6524
  590SOL     OW 1768   2.274   2.175   0.454 -0.2966 -0.0555  0.1319
  590SOL    HW1 1769   2.230   2.130   0.534  0.8366  0.7436 -1.4053
  590SOL    HW2 1770   2.288   2.108   0.380  0.4658  0.0751 -3.1790
  591SOL     OW 1771   0.398   2.312   1.225  0.6602 -0.4315  0.0754
  591SOL    HW1 1772   0.419   2.252   1.305  1.0780 -1.1601 -2.6931
  591SOL    HW2 1773   0.385   2.410   1.254  0.5429  3.3146 -0.6770
  592SOL     OW 1774   0.694   0.443   1.281  0.2340 -0.2059  0.4167
  592SOL    HW1 1775   0.705   0.371   1.353  0.5880  3.3862 -1.9361
  592SOL    HW2 1776   0.599   0.453   1.240  0.1283 -0.8150  1.3084
  593SOL     OW 1777   1.063   1.409   1.310  0.3265 -0.4545 -0.2201
  593SOL    HW1 1778   1.097   1.339   1.378 -2.2145 -2.9553  0.9808
  593SOL    HW2 1779   1.019   1.486   1.359  1.2166  0.5951  2.1053
  594SOL     OW 1780   0.887   2.337   0.447 -0.4367 -0.4162 -0.0926
  594SOL    HW1 1781   0.904   2.251   0.408 -0.1441  2.8171  1.4231
  594SOL    HW2 1782   0.977   2.382   0.462  1.1734 -0.9749 -1.2619
  595SOL     OW 1783   1.677   0.365   1.345 -0.1425 -0.6579 -0.2454
  595SOL    HW1 1784   1.709   0.435   1.409  3.2726 -1.3156  2.5100
  595SOL    HW2 1785   1.578   0.349   1.341 -0.0540 -1.3794  1.3755
  596SOL     OW 1786   2.999   1.050   1.419 -0.2416  0.8120 -0.9017
  596SOL    HW1 1787   3.002   0.956   1.382  0.4094  0.7698 -1.7776
  596SOL    HW2 1788   2.950   1.106   1.356  3.4711 -1.9577  1.9059
  597SOL     OW 1789   0.531   2.765   2.368  0.0518  0.6223 -0.4685
  597SOL    HW1 1790   0.467   2.690   2.410 -0.0080  0.8108  1.2761
  597SOL    HW2 1791   0.615   2.718   2.329 -0.9174  2.0228 -2.0133
  598SOL     OW 1792   2.711   1.999   1.939 -0.2342 -0.0901 -0.0078
  598SOL    HW1 1793   2.704   2.004   1.840  2.3294 -1.7690  1.9247
  598SOL    HW2 1794   2.625   1.981   1.988  1.3668  0.9881  0.1641
  599SOL     OW 1795   0.806   0.125   2.904  0.4549 -0.6216 -0.1388
  599SOL    HW1 1796   0.756   0.169   2.829  0.0190  2.0718  0.0445
  599SOL    HW2 1797   0.801   0.025   2.897  0.5925 -2.0407  0.5964
  600SOL     OW 1798   0.036   2.133   2.749 -0.6085 -0.2836  0.1918
  600SOL    HW1 1799   0.089   2.215   2.780 -0.6643  0.1026 -1.0790
  600SOL    HW2 1800   0.008   2.076   2.829 -0.5057  0.4748 -0.2292
  601SOL     OW 1801   0.645   0.927   1.380  0.0944  0.8602  0.3151
  601SOL    HW1 1802   0.561   0.957   1.325 -0.5849  0.2768 -3.2087
  601SOL    HW2 1803   0.619   0.912   1.476  1.1801  1.8220  1.3729
  602SOL     OW 1804   0.895   2.924   1.022 -0.0145  0.0716 -0.7247
  602SOL    HW1 1805   0.863   2.876   0.935  0.6098  1.0803  1.0627
  602SOL    HW2 1806   0.920   2.852   1.093  0.7952 -2.1818  0.1357
  603SOL     OW 1807   0.252   0.473   2.689  0.0377  0.1060 -0.5093
  603SOL    HW1 1808   0.252   0.405   2.619 -0.3821 -0.6649  2.4777
  603SOL    HW2 1809   0.155   0.478   2.719 -3.9120 -0.1204 -2.7347
  604SOL     OW 1810   0.730   2.746   1.715  0.2618  0.1227  0.1164
  604SOL    HW1 1811   0.733   2.841   1.747 -2.5239  1.1680 -1.4209
  604SOL    HW2 1812   0.674   2.744   1.631 -1.1370  2.6383 -3.2715
  605SOL     OW 1813   1.456   0.762   2.080 -0.7642  0.3322 -0.3152
  605SOL    HW1 1814   1.420   0.754   1.989  0.5307  2.3823  0.6452
  605SOL    HW2 1815   1.446   0.858   2.111 -0.1499 -1.1262 -1.6088
  606SOL     OW 1816   2.451   2.980   2.914 -0.5777  0.4029  0.2115
  606SOL    HW1 1817   2.416   2.906   2.977  1.8763 -3.3175 -1.3411
  606SOL    HW2 1818   2.485   3.054   2.968 -3.3211 -2.7767 -0.6784
  607SOL     OW 1819   0.567   0.346   1.051 -0.2479 -0.9094  0.1623
  607SOL    HW1 1820   0.516   0.405   0.987  1.0019 -4.6552 -1.1331
  607SOL    HW2 1821   0.668   0.346   1.037  0.5356  0.2950  0.0511
  608SOL     OW 1822   0.294   1.776   2.461  0.3399  0.2053 -0.0400
  608SOL    HW1 1823   0.324   1.818   2.553 -1.5141  0.0897 -0.1047
  608SOL    HW2 1824   0.211   1.829   2.434 -0.1771  2.4461  0.7395
  609SOL     OW 1825   1.502   1.424   0.533  0.1708  0.1920  0.3773
  609SOL    HW1 1826   1.466   1.476   0.451  3.7245  1.8505  1.5884
  609SOL    HW2 1827   1.477   1.325   0.530  1.3202 -1.8403 -0.2156
  610SOL     OW 1828   3.119   0.384   1.086  0.2553  0.1972  0.6651
  610SOL    HW1 1829   3.086   0.342   1.004  0.9022 -0.5679 -0.1673
  610SOL    HW2 1830   0.010   0.314   1.154  0.0686 -1.5376  1.5066
  611SOL     OW 1831   1.600   1.059   0.650 -0.1280 -0.4553  0.0620
  611SOL    HW1 1832   1.691   1.054   0.610 -0.8798 -0.2925 -1.2014
  611SOL    HW2 1833   1.539   1.110   0.587 -0.7823  1.8228 -1.0146
  612SOL     OW 1834   1.767   1.425   0.399 -0.2759  0.2316 -0.0025
  612SOL    HW1 1835   1.797   1.512   0.358  1.9519 -0.5753  0.5096
  612SOL    HW2 1836   1.676   1.436   0.447 -0.5983  1.2197  1.9299
  613SOL     OW 1837   1.627   0.931   0.323 -0.0595 -0.2032 -0.3250
  613SOL    HW1 1838   1.725   0.904   0.307  1.1882 -0.5045  0.6476
  613SOL    HW2 1839   1.607   1.027   0.295  2.2965 -2.1256  0.6662
  614SOL     OW 1840   2.963   0.264   2.310 -0.1133 -0.0157  0.4536
  614SOL    HW1 1841   2.938   0.164   2.295 -0.0344  0.0161  0.4804
  614SOL    HW2 1842   2.939   0.318   2.226  1.8898  1.1980  1.1107
  615SOL     OW 1843   0.559   1.821   0.846 -0.0269 -0.3523  0.4403
  615SOL    HW1 1844   0.610   1.737   0.861 -0.8168 -0.4667  1.1158
  615SOL    HW2 1845   0.539   1.875   0.931  0.8141  0.2004 -0.1853
  616SOL     OW 1846   1.745   1.379   2.697  0.8427 -0.2191  0.8410
  616SOL    HW1 1847   1.729   1.293   2.643 -1.3790  2.4471 -1.6058
  616SOL    HW2 1848   1.676   1.386   2.770  0.9284 -0.1874 -0.7191
  617SOL     OW 1849   1.346   0.464   3.098 -0.6038  0.0444 -0.5905
  617SOL    HW1 1850   1.299   0.385   3.131  1.3109  0.8073  0.5731
  617SOL    HW2 1851   1.406   0.446   3.018 -0.0867  0.4395  2.4551
  618SOL     OW 1852   2.023   2.509   2.422 -0.1495  0.4011  0.5740
  618SOL    HW1 1853   2.013   2.493   2.322  1.3622  0.0033  1.1158
  618SOL    HW2 1854   1.945   2.469   2.471 -0.9754  0.4378  0.5008
  619SOL     OW 1855   2.110   2.233   1.058 -0.3173 -0.3040  0.6092
  619SOL    HW1 1856   2.036   2.275   1.007 -0.9035  0.4946 -1.4142
  619SOL    HW2 1857   2.115   2.132   1.048  0.0446  0.5672  0.9532
  620SOL     OW 1858   2.108   2.701   2.080  0.1616  0.1658  0.3066
  620SOL    HW1 1859   2.124   2.719   1.981 -1.9764 -1.1888  2.9289
  620SOL    HW2 1860   2.190   2.695   2.136 -1.1950 -1.4221 -0.2640
  621SOL     OW 1861   0.056   1.315   0.776 -0.1240 -0.1867 -0.2473
  621SOL    HW1 1862   0.120   1.388   0.785 -1.4325 -0.2020 -1.1738
  621SOL    HW2 1863   3.106   1.340   0.781  0.8613 -1.3709  1.0406
  622SOL     OW 1864   1.531   1.644   2.881  0.1599 -0.5603  0.2927
  622SOL    HW1 1865   1.564   1.710   2.809 -0.9554  3.0621  0.3728
  622SOL    HW2 1866   1.547   1.686   2.978 -2.5889 -0.1512  1.0997
  623SOL     OW 1867   2.955   2.476   2.223  0.2395 -0.4831  0.6785
  623SOL    HW1 1868   2.881   2.506   2.287  0.5725  0.0105 -1.0321
  623SOL    HW2 1869   3.014   2.551   2.187  0.1747 -0.8460  1.2732
  624SOL     OW 1870   0.549   2.458   0.213 -0.8980 -0.1704  0.1837
  624SOL    HW1 1871   0.557   2.392   0.290  0.4585  0.6657  2.8541
  624SOL    HW2 1872   0.454   2.465   0.182  1.4621 -0.2448  0.5498
  625SOL     OW 1873   0.481   1.795   2.050  0.7298 -0.4057  0.5111
  625SOL    HW1 1874   0.450   1.873   2.109 -2.4796 -1.7371 -2.0308
  625SOL    HW2 1875   0.408   1.722   2.047 -2.5064 -0.7233 -1.3238
  626SOL     OW 1876   0.802   3.023   2.919  0.5212 -0.3143 -0.0263
  626SOL    HW1 1877   0.858   2.973   2.990 -0.2215 -1.5981  0.4657
  626SOL    HW2 1878   0.701   3.002   2.932 -1.1815  0.6910 -1.3738
  627SOL     OW 1879   1.599   1.543   0.120  0.5673  0.8292  0.3036
  627SOL    HW1 1880   1.613   1.502   0.028  0.0238  1.6404  1.6518
  627SOL    HW2 1881   1.663   1.611   0.139 -1.5927 -3.5124  0.5352
  628SOL     OW 1882   1.275   2.155   0.869  0.2616  0.6505  0.3587
  628SOL    HW1 1883   1.196   2.176   0.928 -1.2791  0.8593  0.9064
  628SOL    HW2 1884   1.361   2.189   0.914  1.6407 -0.4840 -0.0856
  629SOL     OW 1885   0.246   0.169   1.680  0.2861  0.5088 -0.2702
  629SOL    HW1 1886   0.162   0.142   1.639  0.0510  0.7207  2.3464
  629SOL    HW2 1887   0.231   0.256   1.726  1.6318 -1.5034 -0.2163
  630SOL     OW 1888   2.305   0.724   1.633  0.4169 -0.0337 -0.1838
  630SOL    HW1 1889   2.271   0.798   1.570  0.9026  0.3552 -0.5748
  630SOL    HW2 1890   2.342   0.650   1.573  2.1912 -0.5181 -0.2595
  631SOL     OW 1891   1.170   0.564   0.982 -0.4603  0.2190  0.4307
  631SOL    HW1 1892   1.241   0.620   0.933 -1.2289  2.3524 -1.2802
  631SOL    HW2 1893   1.181   0.583   1.082 -0.6735  0.0584  1.6232
  632SOL     OW 1894   2.828   1.059   2.083  0.0083 -0.2963  0.1911
  632SOL    HW1 1895   2.760   1.051   2.004 -0.3969 -0.9718 -0.3322
  632SOL    HW2 1896   2.904   0.999   2.059 -1.9831  1.9272 -0.5683
  633SOL     OW 1897   1.463   0.799   2.947  0.5318 -0.2747  0.1500
  633SOL    HW1 1898   1.401   0.840   3.016 -1.1378 -0.0844 -1.8032
  633SOL    HW2 1899   1.490   0.709   2.979 -1.4623  1.6455  1.5108
  634SOL     OW 1900   0.522   2.892   3.009  0.9226 -0.1816  0.1983
  634SOL    HW1 1901   0.549   2.888   3.111 -0.1392 -0.9886  4.3973
  634SOL    HW2 1902   0.423   2.896   3.007 -0.9407 -0.9653 -0.6844
  635SOL     OW 1903   0.103   1.358   1.754 -0.3704 -0.5556 -0.4323
  635SOL    HW1 1904   0.063   1.431   1.812  0.8880 -0.6726  0.7246
  635SOL    HW2 1905   0.205   1.380   1.760  0.4619  2.3145  0.0664
  636SOL     OW 1906   0.202   1.681   0.193 -0.0640 -0.7267 -0.4336
  636SOL    HW1 1907   0.191   1.590   0.238  0.8136 -1.8589 -0.3354
  636SOL    HW2 1908   0.159   1.679   0.101  2.7455  3.2892  1.8250
  637SOL     OW 1909   0.011   2.624   0.577 -0.2809  0.6107  0.0833
  637SOL    HW1 1910   3.114   2.711   0.540 -2.1290 -1.5625  1.1387
  637SOL    HW2 1911   3.111   2.544   0.532 -1.5384 -2.6507  0.4092
  638SOL     OW 1912   3.129   2.719   0.162 -0.0721  0.2495  0.0496
  638SOL    HW1 1913   3.108   2.744   0.257 -1.3111 -2.5935  1.7918
  638SOL    HW2 1914   3.090   2.625   0.148  1.6321 -2.7452 -1.5423
  639SOL     OW 1915   1.526   0.321   2.915  0.1123  0.2127  0.5837
  639SOL    HW1 1916   1.450   0.303   2.848  0.4780 -2.2982 -0.7709
  639SOL    HW2 1917   1.564   0.236   2.958  1.3418  2.6192 -1.4667
  640SOL     OW 1918   2.250   2.048   1.503  0.1022 -0.7534 -0.1076
  640SOL    HW1 1919   2.273   2.106   1.424  2.1903  0.3546  1.6152
  640SOL    HW2 1920   2.292   2.088   1.591  3.6462  3.6373  1.3813
  641SOL     OW 1921   3.060   3.059   1.008 -0.3642  0.2060  0.0715
  641SOL    HW1 1922   3.023   3.094   1.096 -1.0354  0.6596  0.8975
  641SOL    HW2 1923   3.003   3.102   0.937  1.1852  1.6433 -2.9841
  642SOL     OW 1924   1.306   0.967   1.728  0.0232  0.2928  0.4237
  642SOL    HW1 1925   1.213   1.007   1.707  0.1989  0.3778  1.5790
  642SOL    HW2 1926   1.316   0.876   1.683  0.5370 -4.6275 -0.7187
  643SOL     OW 1927   0.791   1.722   2.479  0.3986  0.1018  0.3534
  643SOL    HW1 1928   0.691   1.708   2.474  0.4630  0.1602  0.0043
  643SOL    HW2 1929   0.813   1.821   2.473 -1.7409  1.0624 -0.3361
  644SOL     OW 1930   1.866   2.851   2.526  0.3290  0.9363 -0.0101
  644SOL    HW1 1931   1.821   2.905   2.595  1.1860 -0.0348 -0.6828
  644SOL    HW2 1932   1.803   2.831   2.443 -2.6742 -0.9154  1.0830
  645SOL     OW 1933   1.411   0.652   1.826  0.2364 -0.1148 -0.3791
  645SOL    HW1 1934   1.505   0.664   1.788  1.6834 -1.2679 -0.4608
  645SOL    HW2 1935   1.349   0.676   1.749 -0.8330 -0.8212  0.6866
  646SOL     OW 1936   1.208   2.534   2.969  0.0891  0.4460  0.4331
  646SOL    HW1 1937   1.124   2.529   2.910 -0.2526  0.1546  2.2342
  646SOL    HW2 1938   1.286   2.481   2.933 -0.5392  3.2270  1.7329
  647SOL     OW 1939   1.302   2.794   0.593  0.6413  0.4233  0.0729
  647SOL    HW1 1940   1.341   2.724   0.650 -0.1061 -0.1709 -0.5923
  647SOL    HW2 1941   1.365   2.815   0.514  2.2124  0.0345 -1.5008
  648SOL     OW 1942   2.837   2.627   1.449 -0.6766  0.4516  0.3966
  648SOL    HW1 1943   2.804   2.620   1.353  0.1832 -0.6349 -0.8107
  648SOL    HW2 1944   2.921   2.575   1.461 -1.5737  2.9422  1.2085
  649SOL     OW 1945   1.040   2.398   2.547  0.3092  0.0479 -0.4075
  649SOL    HW1 1946   1.111   2.429   2.487 -1.0430  0.0674  1.3102
  649SOL    HW2 1947   1.041   2.300   2.552  0.6093 -0.0543  0.2492
  650SOL     OW 1948   2.741   1.990   2.938 -0.5615  0.1782  0.9298
  650SOL    HW1 1949   2.835   1.951   2.922  0.1417  0.0050 -2.8004
  650SOL    HW2 1950   2.731   2.076   2.882 -0.6203 -1.3712  1.5487
  651SOL     OW 1951   2.559   2.429   2.246 -0.2703  0.4194  0.4411
  651SOL    HW1 1952   2.553   2.334   2.292 -2.4265 -0.3445 -0.2149
  651SOL    HW2 1953   2.577   2.423   2.143 -0.9873  0.8878  1.6462
  652SOL     OW 1954   2.742   2.508   1.015  0.1897  0.4356  0.4553
  652SOL    HW1 1955   2.841   2.504   1.033  2.1182 -1.5319  0.8665
  652SOL    HW2 1956   2.691   2.422   1.042  0.8827  1.1824 -1.4772
  653SOL     OW 1957   2.907   1.245   1.280  0.6579 -0.5188  0.1561
  653SOL    HW1 1958   2.846   1.326   1.305  0.5838  0.9623  1.2729
  653SOL    HW2 1959   2.874   1.205   1.192  0.4134 -2.0977  3.1419
  654SOL     OW 1960   1.099   0.465   2.781 -0.7260 -0.4004 -0.2406
  654SOL    HW1 1961   1.121   0.561   2.806 -0.0104 -0.6979 -0.5652
  654SOL    HW2 1962   1.022   0.434   2.838 -2.3163 -1.1021  0.0966
  655SOL     OW 1963   0.847   0.282   1.026  0.2409  0.0694  0.1814
  655SOL    HW1 1964   0.903   0.241   0.950 -1.0634  0.9711  0.2464
  655SOL    HW2 1965   0.887   0.268   1.116 -1.6429 -1.0253  1.7551
  656SOL     OW 1966   0.394   2.507   1.945 -0.0596 -0.3510 -0.2537
  656SOL    HW1 1967   0.344   2.489   2.032 -1.4021  1.1921  6.5584
  656SOL    HW2 1968   0.487   2.550   1.962  1.3600  1.7069  0.5045
  657SOL     OW 1969   2.547   0.879   0.293 -0.5523 -0.2621  0.3847
  657SOL    HW1 1970   2.460   0.833   0.273  2.5814 -0.9029 -0.3235
  657SOL    HW2 1971   2.530   0.974   0.330  1.4718 -0.1295  1.8585
  658SOL     OW 1972   1.854   2.277   1.253  0.1313 -0.2779  0.1208
  658SOL    HW1 1973   1.828   2.263   1.155  0.2335 -0.2234 -0.2829
  658SOL    HW2 1974   1.888   2.191   1.290 -2.5593  1.7996 -2.7050
  659SOL     OW 1975   2.636   1.704   2.968 -0.4243  0.7049 -0.6745
  659SOL    HW1 1976   2.737   1.707   2.962 -1.1792  1.4678 -0.5260
  659SOL    HW2 1977   2.603   1.611   2.951  1.9224  0.3253  0.1411
  660SOL     OW 1978   0.765   0.291   0.529 -0.0536  0.7504  0.7983
  660SOL    HW1 1979   0.811   0.203   0.553  0.8656  1.2054 -0.1228
  660SOL    HW2 1980   0.791   0.312   0.432 -1.3657  0.7589 -1.0611
  661SOL     OW 1981   1.676   0.152   0.282 -0.0247  0.3273 -0.2836
  661SOL    HW1 1982   1.750   0.206   0.333 -2.0578  3.4878 -0.0988
  661SOL    HW2 1983   1.702   0.117   0.192 -1.2279 -0.6128  1.4109
  662SOL     OW 1984   0.649   2.998   0.519 -0.1231 -0.2673  0.0656
  662SOL    HW1 1985   0.587   3.065   0.473 -0.5000  2.4542  0.8640
  662SOL    HW2 1986   0.613   2.975   0.611 -1.1529  0.7172 -0.9038
  663SOL     OW 1987   1.248   2.981   2.033 -0.1957 -0.5220  0.6841
  663SOL    HW1 1988   1.228   3.067   1.984  3.1204 -1.1061 -1.3085
  663SOL    HW2 1989   1.306   2.998   2.118 -1.2023  0.2582  0.7378
  664SOL     OW 1990   0.882   2.364   1.542  0.6058 -0.1512 -0.1085
  664SOL    HW1 1991   0.790   2.338   1.569  1.2494  1.3442 -1.7462
  664SOL    HW2 1992   0.909   2.452   1.592 -0.4911  0.4567 -1.0770
  665SOL     OW 1993   1.000   2.168   1.729 -0.8327 -0.1166 -0.0272
  665SOL    HW1 1994   1.089   2.201   1.760  0.6165 -2.7936 -0.6062
  665SOL    HW2 1995   0.989   2.185   1.631 -1.0707  0.1989 -0.1130
  666SOL     OW 1996   0.853   3.081   2.484  0.1680  0.1972  0.1079
  666SOL    HW1 1997   0.818   0.026   2.460 -3.6180  0.0839  0.7629
  666SOL    HW2 1998   0.775   3.031   2.522  1.7860 -0.7056 -0.4779
  667SOL     OW 1999   2.187   1.388   1.698  0.3541 -0.3140 -0.1367
  667SOL    HW1 2000   2.174   1.382   1.598 -0.8487  2.8028  3.5632
  667SOL    HW2 2001   2.240   1.474   1.723 -0.8125  0.4373 -0.4332
  668SOL     OW 2002   1.880   3.040   1.607 -0.0407  0.4181  0.1958
  668SOL    HW1 2003   1.863   2.942   1.574 -4.6309 -4.3006  0.2762
  668SOL    HW2 2004   1.806   3.077   1.668 -1.5110  2.1871 -0.6832
  669SOL     OW 2005   2.552   2.714   0.909 -0.1336 -0.6945 -0.3975
  669SOL    HW1 2006   2.598   2.657   0.979  1.0498 -1.1692 -1.5481
  669SOL    HW2 2007   2.564   2.675   0.816 -2.1443  0.2154  1.6184
  670SOL     OW 2008   1.454   2.598   2.754 -0.3695 -0.2661 -0.6952
  670SOL    HW1 2009   1.371   2.662   2.758  0.8048  0.5232 -1.1441
  670SOL    HW2 2010   1.424   2.500   2.769 -0.5199 -1.6838 -1.1947
  671SOL     OW 2011   0.702   1.058   0.501  0.6902  0.5395 -0.6712
  671SOL    HW1 2012   0.696   1.132   0.433 -0.6758  0.2469 -0.6618
  671SOL    HW2 2013   0.630   1.071   0.572 -0.4215  2.9564  0.6448
  672SOL     OW 2014   2.786   1.180   2.717  0.1030 -0.5954 -0.0470
  672SOL    HW1 2015   2.737   1.186   2.809 -3.4931  0.0603  1.7037
  672SOL    HW2 2016   2.724   1.192   2.635 -0.8911 -3.5887 -0.3086
  673SOL     OW 2017   3.108   2.146   1.596  0.0819  0.2945 -0.3127
  673SOL    HW1 2018   0.031   2.113   1.659  1.2283 -1.4161 -1.2132
  673SOL    HW2 2019   3.076   2.066   1.540  0.7954  2.5959  1.8892
  674SOL     OW 2020   0.827   2.359   2.344 -0.2929  0.1843  0.6689
  674SOL    HW1 2021   0.899   2.372   2.413 -0.3558  0.9833  0.9890
  674SOL    HW2 2022   0.770   2.278   2.364 -0.6242 -0.9070  1.2745
  675SOL     OW 2023   1.030   0.738   1.588 -0.2497 -0.3345 -0.6491
  675SOL    HW1 2024   0.984   0.713   1.674 -1.7353  0.5467 -0.8603
  675SOL    HW2 2025   0.971   0.719   1.509  1.2256  0.9082 -3.3121
  676SOL     OW 2026   1.988   3.125   1.371  0.5811 -0.0896  0.3263
  676SOL    HW1 2027   1.964   3.062   1.292 -0.5471  0.8458 -0.0765
  676SOL    HW2 2028   1.947   3.097   1.459 -1.4894  1.6121  0.9995
  677SOL     OW 2029   2.637   1.396   0.071 -0.3607 -0.6077 -0.0753
  677SOL    HW1 2030   2.614   1.414   3.121  1.4539 -1.1062  1.0988
  677SOL    HW2 2031   2.661   1.295   0.081 -0.0594 -0.7521 -0.8358
  678SOL     OW 2032   2.552   1.218   1.186 -0.4343 -0.4503 -0.1676
  678SOL    HW1 2033   2.569   1.230   1.286 -2.3085 -0.7293 -1.6967
  678SOL    HW2 2034   2.486   1.288   1.161  1.7234  1.3723 -1.5244
  679SOL     OW 2035   2.923   0.708   3.026 -0.8511 -0.0330  0.0408
  679SOL    HW1 2036   2.938   0.812   3.029  0.7904  2.2347 -0.6623
  679SOL    HW2 2037   2.853   0.688   3.097 -1.2265  2.5096  1.1484
  680SOL     OW 2038   0.693   1.417   2.029 -0.4617 -0.0689  0.0338
  680SOL    HW1 2039   0.762   1.474   2.081 -0.9336  0.1084  0.8818
  680SOL    HW2 2040   0.608   1.419   2.078  0.5057 -0.5508 -1.2110
  681SOL     OW 2041   2.676   2.076   1.676 -1.2813  0.3154  0.1944
  681SOL    HW1 2042   2.747   2.150   1.671  0.8066 -2.1131 -0.6190
  681SOL    HW2 2043   2.682   2.017   1.593 -1.9027 -0.1712 -3.0462
  682SOL     OW 2044   0.197   2.074   0.035  0.2551  0.6906  0.6533
  682SOL    HW1 2045   0.231   2.030   0.117 -1.9609 -1.4963  0.4298
  682SOL    HW2 2046   0.168   2.168   0.053  0.5207  0.5168 -2.9788
  683SOL     OW 2047   2.989   2.111   1.277 -0.1117  0.5827 -0.7322
  683SOL    HW1 2048   3.002   2.038   1.346 -2.3947  1.5378 -0.4371
  683SOL    HW2 2049   2.917   2.170   1.317 -2.6324  3.5239 -0.6510
  684SOL     OW 2050   2.903   1.355   2.339  0.1376  0.1825  0.3423
  684SOL    HW1 2051   2.935   1.453   2.339  1.2599 -0.0645 -2.8791
  684SOL    HW2 2052   2.799   1.343   2.321 -3.8435  1.0049 -0.7643
  685SOL     OW 2053   1.371   0.429   0.685  0.2104  0.1611  0.2913
  685SOL    HW1 2054   1.294   0.381   0.737 -4.3089 -0.2003 -0.3077
  685SOL    HW2 2055   1.448   0.363   0.666 -1.2411 -2.5922  0.2678
  686SOL     OW 2056   0.469   0.276   0.511 -0.5243 -0.1487  0.2186
  686SOL    HW1 2057   0.567   0.304   0.512 -3.5266 -0.1516 -2.1392
  686SOL    HW2 2058   0.416   0.334   0.442  0.9702  0.3332 -0.5612
  687SOL     OW 2059   0.752   2.023   2.699  0.1934  0.0556  0.5285
  687SOL    HW1 2060   0.802   2.030   2.612 -1.7985  0.9951  3.0899
  687SOL    HW2 2061   0.654   2.004   2.681 -0.1158  0.9286  2.2042
  688SOL     OW 2062   2.079   0.411   1.590  0.2323  0.6220  0.2197
  688SOL    HW1 2063   2.087   0.314   1.560 -0.6504 -0.0023 -0.3337
  688SOL    HW2 2064   2.163   0.459   1.563  0.4696  0.2936 -0.1386
  689SOL     OW 2065   1.464   0.603   0.860 -0.3033 -0.1902 -0.4265
  689SOL    HW1 2066   1.529   0.551   0.915 -1.1231  1.2035 -0.3154
  689SOL    HW2 2067   1.422   0.534   0.802  0.0094  1.6736  1.6377
  690SOL     OW 2068   0.003   1.335   1.240  0.0173 -0.8418  0.0527
  690SOL    HW1 2069   3.069   1.294   1.281 -2.3690  2.8555 -0.3226
  690SOL    HW2 2070   0.044   1.283   1.162 -0.2623  0.3360  0.3468
  691SOL     OW 2071   0.139   1.995   1.290  0.6435  0.1321  0.1812
  691SOL    HW1 2072   0.065   1.926   1.271  0.1166  1.2391 -0.7217
  691SOL    HW2 2073   0.198   1.966   1.372  0.8110  1.2332  0.2373
  692SOL     OW 2074   1.307   0.067   1.647  0.4024 -0.2567  0.1504
  692SOL    HW1 2075   1.357   3.126   1.629  1.2348 -0.8147 -1.3702
  692SOL    HW2 2076   1.376   0.144   1.624  1.9084 -1.7767 -3.5729
  693SOL     OW 2077   0.941   1.549   2.150  0.2065  0.1287 -0.3279
  693SOL    HW1 2078   0.862   1.621   2.155 -0.9863 -0.1504  0.1258
  693SOL    HW2 2079   0.972   1.538   2.052  0.0806  0.2642 -0.0777
  694SOL     OW 2080   1.783   1.486   0.708 -0.1721 -0.2234  0.2544
  694SOL    HW1 2081   1.734   1.496   0.803  0.3051  1.1458  1.4524
  694SOL    HW2 2082   1.721   1.461   0.629  1.4881 -0.0951 -1.3226
  695SOL     OW 2083   0.897   0.976   1.239 -0.2371  0.5189  0.2024
  695SOL    HW1 2084   0.869   0.919   1.160 -0.1170  2.3645  0.3071
  695SOL    HW2 2085   0.833   0.960   1.317 -0.8839 -0.4971  0.2337
  696SOL     OW 2086   0.158   0.041   0.472  0.0013  0.0880  0.5469
  696SOL    HW1 2087   0.140   0.031   0.376  2.8722 -2.0629  0.4193
  696SOL    HW2 2088   0.154   3.103   0.523  0.5063  2.1611 -0.5128
  697SOL     OW 2089   2.025   0.477   1.154 -0.1148 -0.0249  0.2275
  697SOL    HW1 2090   1.942   0.532   1.128 -1.6416  0.0002 -3.4444
  697SOL    HW2 2091   1.993   0.386   1.193 -2.4666  1.0565  2.8093
  698SOL     OW 2092   1.517   1.333   1.828  0.7256 -0.3574 -0.0608
  698SOL    HW1 2093   1.582   1.372   1.758  0.0480 -0.5082 -0.9884
  698SOL    HW2 2094   1.550   1.240   1.855 -0.5550  0.5827 -0.3255
  699SOL     OW 2095   0.102   0.439   2.276 -0.2077 -0.0191  0.8602
  699SOL    HW1 2096   0.051   0.349   2.271  0.6601  0.1469  1.4510
  699SOL    HW2 2097   0.067   0.494   2.354 -2.8228  0.8057  2.9332
  700SOL     OW 2098   1.392   2.610   0.779  0.0220  0.5996  0.6694
  700SOL    HW1 2099   1.488   2.618   0.736  1.4114  0.6064  1.6986
  700SOL    HW2 2100   1.394   2.662   0.863 -1.1469 -0.5324 -0.6554
  701SOL     OW 2101   0.130   1.555   2.464  0.1867  0.0348 -0.1288
  701SOL    HW1 2102   0.200   1.624   2.436 -2.6242  2.4102 -2.6466
  701SOL    HW2 2103   0.135   1.548   2.571 -1.3473 -1.5046  0.6210
  702SOL     OW 2104   0.469   0.018   0.424  0.0954 -0.0527  0.2336
  702SOL    HW1 2105   0.461   0.106   0.468 -0.1322 -0.5375  1.0132
  702SOL    HW2 2106   0.377   3.128   0.397  0.8254  0.8500 -1.7792
  703SOL     OW 2107   1.794   3.005   2.743  0.4802 -0.4188 -0.4982
  703SOL    HW1 2108   1.876   2.988   2.802  1.3629  1.6420 -3.7410
  703SOL    HW2 2109   1.704   2.990   2.793 -1.1481 -2.6226  2.6466
  704SOL     OW 2110   2.590   1.979   0.464  0.0153 -0.0422  0.0495
  704SOL    HW1 2111   2.630   2.068   0.437  0.7131 -1.7570 -0.8817
  704SOL    HW2 2112   2.606   1.968   0.564  3.2502 -0.5421 -2.1463
  705SOL     OW 2113   2.810   2.086   2.383  0.0279 -0.2113 -0.2859
  705SOL    HW1 2114   2.722   2.126   2.396  0.1795 -0.6052 -1.0886
  705SOL    HW2 2115   2.882   2.155   2.391  0.7315 -0.8608  0.8454
  706SOL     OW 2116   2.814   2.847   0.540 -0.0660  0.6694 -0.4096
  706SOL    HW1 2117   2.798   2.944   0.539  1.6443  0.9315  0.6209
  706SOL    HW2 2118   2.898   2.835   0.480 -2.3194 -0.7563  1.4165
  707SOL     OW 2119   1.024   0.040   0.131  0.2388 -0.2575 -0.0543
  707SOL    HW1 2120   1.086   3.137   0.069  1.1618  1.2533  1.9537
  707SOL    HW2 2121   0.928   0.025   0.102  0.5014 -0.9206  1.0671
  708SOL     OW 2122   0.267   2.112   1.852  0.0528 -1.1479 -0.2097
  708SOL    HW1 2123   0.176   2.159   1.862  1.8429  0.0274 -2.2639
  708SOL    HW2 2124   0.298   2.076   1.944  0.6630 -1.9475  0.4876
  709SOL     OW 2125   1.363   2.771   1.892  0.4582  0.4236 -0.1670
  709SOL    HW1 2126   1.408   2.710   1.960 -2.8349  0.9576  0.7739
  709SOL    HW2 2127   1.334   2.859   1.929  0.3883 -0.1433 -1.1175
  710SOL     OW 2128   1.805   2.381   2.539  0.2454  0.1241 -0.0407
  710SOL    HW1 2129   1.770   2.430   2.624 -1.3142  0.4174  1.6198
  710SOL    HW2 2130   1.739   2.308   2.519 -0.9805  0.7652 -0.0609
  711SOL     OW 2131   0.986   2.542   2.810 -0.3375 -0.0819  0.1030
  711SOL    HW1 2132   0.986   2.503   2.718  0.7188  2.6518 -1.6259
  711SOL    HW2 2133   0.958   2.640   2.805  1.1174  0.7338  2.2091
  712SOL     OW 2134   1.216   2.110   2.876  0.8193 -0.7120 -0.7056
  712SOL    HW1 2135   1.295   2.085   2.935 -1.6167 -1.0854  0.5427
  712SOL    HW2 2136   1.129   2.124   2.933 -1.0312  1.0778  0.8039
  713SOL     OW 2137   1.593   0.965   1.525  0.1002 -0.2821  0.1984
  713SOL    HW1 2138   1.608   0.872   1.556 -2.7068  1.6033 -0.6132
  713SOL    HW2 2139   1.674   1.020   1.537  0.2621 -0.5814 -1.3258
  714SOL     OW 2140   1.303   1.370   1.627  0.0114  0.4505  0.8129
  714SOL    HW1 2141   1.368   1.332   1.692 -1.8533 -0.0687 -2.2386
  714SOL    HW2 2142   1.265   1.304   1.560 -0.8295  2.7307 -2.2308
  715SOL     OW 2143   2.772   0.179   0.106  0.1934 -0.7272  0.3216
  715SOL    HW1 2144   2.841   0.198   0.181 -3.6719  2.5720  2.1668
  715SOL    HW2 2145   2.799   0.098   0.056  1.1479  4.1716  3.2393
  716SOL     OW 2146   0.713   2.628   1.244  0.2127 -0.0412 -0.3163
  716SOL    HW1 2147   0.784   2.594   1.176  0.2760 -1.7481  1.4251
  716SOL    HW2 2148   0.653   2.698   1.198  1.3451 -1.1896  1.5846
  717SOL     OW 2149   2.740   0.696   0.062 -0.2343 -0.1359 -0.3722
  717SOL    HW1 2150   2.716   0.598   0.077 -1.7626  0.1004  0.4855
  717SOL    HW2 2151   2.684   0.753   0.126 -1.4361 -1.3608  1.3103
  718SOL     OW 2152   1.763   1.427   1.173  0.0227 -0.1804  0.7886
  718SOL    HW1 2153   1.852   1.474   1.166 -2.8278 -0.2799 -2.9432
  718SOL    HW2 2154   1.744   1.408   1.270  3.4717 -0.6306 -0.1734
  719SOL     OW 2155   2.812   2.820   0.047 -0.1638 -0.3831  0.5621
  719SOL    HW1 2156   2.851   2.773   3.113  1.1507  0.4028  0.1315
  719SOL    HW2 2157   2.797   2.755   0.117  0.5798 -0.5277 -3.7096
  720SOL     OW 2158   0.895   0.567   1.073 -0.5557 -0.5627 -0.4518
  720SOL    HW1 2159   0.978   0.544   1.022 -0.4322  0.0980  0.2597
  720SOL    HW2 2160   0.842   0.481   1.084 -0.4150  1.9343 -1.7136
  721SOL     OW 2161   1.893   0.134   1.000  0.1351 -0.2392 -0.0417
  721SOL    HW1 2162   1.974   0.164   0.945  1.4792  1.0537 -0.8557
  721SOL    HW2 2163   1.879   0.182   1.088 -4.3433  1.1806  0.8321
  722SOL     OW 2164   0.888   1.897   2.055 -0.3931 -0.1641  0.1424
  722SOL    HW1 2165   0.869   1.807   2.088  1.2937 -0.7207 -0.6027
  722SOL    HW2 2166   0.966   1.943   2.103 -0.6977 -0.3723 -0.1561
  723SOL     OW 2167   1.158   0.041   1.355 -0.5253 -0.2275  0.0002
  723SOL    HW1 2168   1.182   3.122   1.277  0.2879 -2.1066  0.5936
  723SOL    HW2 2169   1.230   0.043   1.422 -0.5945  1.0553 -1.4145
  724SOL     OW 2170   1.804   1.962   2.013 -0.0667  0.0918 -0.3361
  724SOL    HW1 2171   1.901   1.943   1.979  1.9933 -0.1573 -0.2682
  724SOL    HW2 2172   1.792   1.944   2.113  1.2441 -0.8570 -1.9316
  725SOL     OW 2173   1.369   2.746   1.391  0.6817  0.0686  0.0658
  725SOL    HW1 2174   1.420   2.803   1.324 -2.6343  1.3575  3.2484
  725SOL    HW2 2175   1.428   2.679   1.434  0.5101  0.9639  1.7214
  726SOL     OW 2176   1.435   0.284   0.386  0.1266 -0.3786 -0.2426
  726SOL    HW1 2177   1.488   0.219   0.327 -1.6050  1.5665  0.7317
  726SOL    HW2 2178   1.407   0.369   0.340  1.5246 -1.3239 -0.0811
  727SOL     OW 2179   1.398   1.906   0.889  0.8315 -0.0229  0.9076
  727SOL    HW1 2180   1.333   1.867   0.959  0.9322  0.3168 -0.0186
  727SOL    HW2 2181   1.369   2.001   0.873 -0.3870 -2.8692 -1.0255
  728SOL     OW 2182   2.117   2.740   2.521  0.2980 -0.8987  1.0633
  728SOL    HW1 2183   2.047   2.813   2.492 -2.0190  1.6682 -1.4172
  728SOL    HW2 2184   2.081   2.651   2.484  2.7597  0.4955 -0.1107
  729SOL     OW 2185   2.290   2.333   1.736  0.3313 -0.9692 -0.1016
  729SOL    HW1 2186   2.334   2.414   1.780 -1.6293 -0.5702  0.1722
  729SOL    HW2 2187   2.345   2.253   1.746  0.7352 -0.5157 -0.4605
  730SOL     OW 2188   1.828   0.529   2.597 -0.0456 -0.2342 -0.1972
  730SOL    HW1 2189   1.764   0.525   2.677  0.0369  0.5693  0.1642
  730SOL    HW2 2190   1.795   0.477   2.517  0.5175  0.5810  2.1486
  731SOL     OW 2191   0.480   0.133   1.205  0.5836  0.1370 -0.2792
  731SOL    HW1 2192   0.533   0.203   1.152 -0.7712 -0.8127  0.1323
  731SOL    HW2 2193   0.429   0.178   1.278  0.4455 -0.3866 -0.4348
  732SOL     OW 2194   1.963   2.890   1.150 -0.1321  0.6536  0.2470
  732SOL    HW1 2195   1.956   2.969   1.090 -1.3227 -1.9966  2.7532
  732SOL    HW2 2196   1.971   2.800   1.101  3.2647 -2.4998  1.0038
  733SOL     OW 2197   1.171   0.921   1.237  0.4402 -0.2614 -0.3010
  733SOL    HW1 2198   1.071   0.946   1.227  0.2508 -0.2441  2.1567
  733SOL    HW2 2199   1.211   0.991   1.296  1.0585 -0.7420 -1.2504
  734SOL     OW 2200   2.677   2.444   0.432 -0.4291  0.1394 -0.9896
  734SOL    HW1 2201   2.577   2.448   0.425  3.1983  0.6810 -0.8564
  734SOL    HW2 2202   2.707   2.419   0.525  0.2707  1.6348  0.8198
  735SOL     OW 2203   0.490   0.510   3.105 -0.1301 -0.2809  0.4078
  735SOL    HW1 2204   0.523   0.595   3.059 -0.6019 -1.2577  1.8473
  735SOL    HW2 2205   0.558   0.475   0.019 -0.8354  1.0309 -2.5323
  736SOL     OW 2206   2.039   2.189   2.622  0.2450 -0.3256  0.1278
  736SOL    HW1 2207   2.003   2.278   2.588 -2.2067  0.6782  0.7172
  736SOL    HW2 2208   1.982   2.161   2.707 -2.1475  0.1212  4.1624
  737SOL     OW 2209   1.214   2.398   1.136  0.2640 -0.1016  0.0405
  737SOL    HW1 2210   1.207   2.439   1.228 -1.5608 -0.5074  0.0754
  737SOL    HW2 2211   1.133   2.337   1.113  1.1679  1.1512 -2.0316
  738SOL     OW 2212   1.709   2.843   2.293  0.0593 -0.7452 -0.2422
  738SOL    HW1 2213   1.628   2.904   2.282  1.9324 -2.1777 -0.1991
  738SOL    HW2 2214   1.767   2.844   2.208  0.0026 -1.8444 -0.6539
  739SOL     OW 2215   1.095   2.012   2.204 -0.1134 -0.4762  0.4930
  739SOL    HW1 2216   1.171   2.055   2.153  1.9913  1.7601  0.0391
  739SOL    HW2 2217   1.085   2.059   2.295  1.0210  1.2836 -2.0263
  740SOL     OW 2218   2.041   2.196   1.781 -0.0917  0.7469  0.0579
  740SOL    HW1 2219   2.036   2.126   1.702 -0.8591 -1.1094  0.1208
  740SOL    HW2 2220   2.118   2.264   1.767 -1.3922  0.4174 -1.0918
  741SOL     OW 2221   2.147   1.766   0.145  0.5236  0.5618  0.2598
  741SOL    HW1 2222   2.130   1.667   0.164  1.3919  0.0105  1.4673
  741SOL    HW2 2223   2.220   1.770   0.075 -2.5693 -2.3034  2.8852
  742SOL     OW 2224   1.067   0.990   2.775 -0.6668 -0.0876  0.0878
  742SOL    HW1 2225   0.979   1.031   2.754  1.4881  0.7014  0.3197
  742SOL    HW2 2226   1.129   0.989   2.695 -2.3570 -0.6374  0.4315
  743SOL     OW 2227   2.613   1.201   2.514 -0.7523  0.1562  0.4751
  743SOL    HW1 2228   2.621   1.154   2.422  0.3015 -2.8352 -1.8944
  743SOL    HW2 2229   2.520   1.243   2.525 -0.9784 -0.7978 -1.6644
  744SOL     OW 2230   2.403   2.515   1.897 -0.0192 -0.4789  0.0694
  744SOL    HW1 2231   2.324   2.576   1.886  3.3127  0.2805  0.5181
  744SOL    HW2 2232   2.488   2.569   1.906  2.4369 -0.7790 -1.5122
  745SOL     OW 2233   2.770   1.758   1.510 -0.2522  0.0941 -0.4183
  745SOL    HW1 2234   2.735   1.841   1.463 -0.0407  1.8336  1.7276
  745SOL    HW2 2235   2.700   1.686   1.530 -0.2252  1.0809 -0.7005
  746SOL     OW 2236   2.895   1.620   1.009 -0.3185  0.0251 -0.2080
  746SOL    HW1 2237   2.966   1.625   1.083  0.3075  0.4643  0.1282
  746SOL    HW2 2238   2.908   1.701   0.946  0.2020  0.6876  3.5427
  747SOL     OW 2239   1.822   2.427   0.294  0.4149 -0.6273  0.6680
  747SOL    HW1 2240   1.918   2.411   0.329  0.1394 -1.6047  3.8886
  747SOL    HW2 2241   1.752   2.354   0.318 -0.0419  1.9508 -0.2449
  748SOL     OW 2242   0.862   2.096   0.317  0.5147  0.3226  0.4992
  748SOL    HW1 2243   0.940   2.065   0.258 -1.6997 -1.3610  0.5718
  748SOL    HW2 2244   0.778   2.046   0.289 -1.2520 -1.2499  1.9672
  749SOL     OW 2245   2.893   0.433   2.080 -0.1543 -0.4131  0.0905
  749SOL    HW1 2246   2.876   0.527   2.117  0.8210  0.7040  3.5931
  749SOL    HW2 2247   2.812   0.397   2.026 -0.5318 -0.7758 -1.0101
  750SOL     OW 2248   1.412   0.225   1.322 -0.2749 -0.5332  0.4654
  750SOL    HW1 2249   1.418   0.242   1.423  0.0740  1.9214 -0.9841
  750SOL    HW2 2250   1.432   0.128   1.311 -2.9056  2.8783  1.2352
  751SOL     OW 2251   2.334   2.562   2.252  0.2219  0.3111 -0.6455
  751SOL    HW1 2252   2.258   2.495   2.275 -1.1259 -0.4468 -0.0791
  751SOL    HW2 2253   2.422   2.513   2.245 -0.9211  0.3840 -1.2200
  752SOL     OW 2254   2.103   1.918   1.080 -0.0843 -0.0909 -0.1679
  752SOL    HW1 2255   2.038   1.857   1.134 -1.8664 -1.2196  1.4163
  752SOL    HW2 2256   2.200   1.885   1.074 -2.5990  1.5973 -1.8683
  753SOL     OW 2257   1.495   0.873   2.408 -0.3020  0.4226 -0.0655
  753SOL    HW1 2258   1.594   0.845   2.409  3.1745  0.3875 -2.1605
  753SOL    HW2 2259   1.487   0.971   2.428  1.1553  0.3206 -2.5674
  754SOL     OW 2260   0.318   2.793   0.911 -0.8265  0.0978  0.1252
  754SOL    HW1 2261   0.270   2.881   0.919 -0.7960 -2.1940 -0.1817
  754SOL    HW2 2262   0.254   2.716   0.912  0.3426 -1.4262 -2.0075
  755SOL     OW 2263   2.319   0.025   1.668 -0.1827  0.5448  0.6562
  755SOL    HW1 2264   2.382   3.104   1.621 -1.2491 -0.5694  0.0317
  755SOL    HW2 2265   2.283   0.088   1.594  0.4238  1.1808 -1.5598
  756SOL     OW 2266   1.667   1.155   2.539 -0.3545 -0.3305  0.5193
  756SOL    HW1 2267   1.590   1.136   2.606 -1.1477  1.7940  3.2980
  756SOL    HW2 2268   1.631   1.152   2.443 -1.3706  0.7748 -1.2145
  757SOL     OW 2269   3.014   2.895   1.728  0.5340  0.6935  0.1763
  757SOL    HW1 2270   2.936   2.887   1.794  0.2302 -2.3534  0.5682
  757SOL    HW2 2271   2.981   2.906   1.630 -0.9465  0.6901 -1.9619
  758SOL     OW 2272   0.436   3.019   1.587  0.0635 -0.1674 -0.2126
  758SOL    HW1 2273   0.379   3.064   1.657  1.0982 -0.1229  2.5014
  758SOL    HW2 2274   0.520   3.070   1.568  0.3555  1.7966 -0.2489
  759SOL     OW 2275   2.129   1.198   0.852 -0.2971  0.1010 -0.1660
  759SOL    HW1 2276   2.211   1.154   0.809  2.0198  0.9908  0.7943
  759SOL    HW2 2277   2.122   1.295   0.818 -0.2295 -0.9963  0.5365
  760SOL     OW 2278   1.659   0.058   1.733 -0.3207 -0.1055 -0.3598
  760SOL    HW1 2279   1.677   0.158   1.712  0.5301  0.1917 -0.6619
  760SOL    HW2 2280   1.621   0.052   1.830  1.2294  0.5196 -0.9121
  761SOL     OW 2281   2.005   0.502   0.405  0.5354 -0.6273 -0.3463
  761SOL    HW1 2282   2.098   0.477   0.373 -0.3081  1.9674 -0.2049
  761SOL    HW2 2283   1.936   0.509   0.328 -0.6428  3.1169  0.5228
  762SOL     OW 2284   2.377   2.804   3.096  0.1457  0.5396  0.1337
  762SOL    HW1 2285   2.459   2.753   3.131  0.5049 -1.2687  0.0206
  762SOL    HW2 2286   2.293   2.755   3.131  0.7726  0.8768  1.8531
  763SOL     OW 2287   0.767   0.807   1.072 -0.8767  0.0307  0.7438
  763SOL    HW1 2288   0.802   0.711   1.079 -0.1064 -0.7820  2.1283
  763SOL    HW2 2289   0.733   0.828   0.978  2.9089  1.3558 -0.2169
  764SOL     OW 2290   2.332   2.437   2.954  0.4119 -0.3569 -0.1979
  764SOL    HW1 2291   2.265   2.491   3.008 -1.8653  2.0338 -0.1710
  764SOL    HW2 2292   2.358   2.484   2.869  1.5078 -2.6375  0.4997
  765SOL     OW 2293   0.062   0.718   2.206 -0.2164 -0.2087 -0.5815
  765SOL    HW1 2294   0.101   0.631   2.236 -1.1707  1.5646 -0.6924
  765SOL    HW2 2295   0.056   0.787   2.278 -1.0798 -0.2751  0.2531
  766SOL     OW 2296   2.542   1.448   2.956  0.1514  0.5777 -0.9348
  766SOL    HW1 2297   2.456   1.424   3.012 -0.9968  0.8296  0.3089
  766SOL    HW2 2298   2.512   1.477   2.866  2.0531 -0.0732  1.6227
  767SOL     OW 2299   0.007   1.504   2.002  0.3193  0.1479  0.3581
  767SOL    HW1 2300   3.091   1.576   2.040  0.6348  0.5556  0.7845
  767SOL    HW2 2301   3.143   1.423   2.056 -1.3405  2.6822  0.5966
  768SOL     OW 2302   1.070   1.011   0.158 -0.1958 -0.4152  0.2768
  768SOL    HW1 2303   0.988   0.961   0.197  0.4143 -0.0250  3.4600
  768SOL    HW2 2304   1.124   0.945   0.101 -0.0912 -0.8469  2.9529
  769SOL     OW 2305   1.922   2.705   2.793 -0.2263  0.2227  0.0262
  769SOL    HW1 2306   1.901   2.773   2.723 -0.3525 -1.3006  2.3455
  769SOL    HW2 2307   2.012   2.717   2.840 -1.1376  0.6829 -1.4848
  770SOL     OW 2308   0.701   0.403   2.314 -0.2254 -0.1380  0.0902
  770SOL    HW1 2309   0.635   0.440   2.382  0.1272 -0.6494 -1.3958
  770SOL    HW2 2310   0.674   0.416   2.213  0.4555  0.3920 -2.8513
  771SOL     OW 2311   0.671   2.181   1.128  0.2574  0.1223  0.5115
  771SOL    HW1 2312   0.628   2.262   1.175  3.5924 -1.6380  1.3790
  771SOL    HW2 2313   0.713   2.218   1.045 -2.5636  0.6720 -1.9136
  772SOL     OW 2314   0.305   0.695   0.118  0.0955  0.2370  0.5295
  772SOL    HW1 2315   0.211   0.677   0.086  3.4192 -1.6467  0.6384
  772SOL    HW2 2316   0.363   0.616   0.102 -4.8698  0.7174  0.1295
  773SOL     OW 2317   1.974   0.949   1.830  0.3986 -0.2937  0.1212
  773SOL    HW1 2318   2.035   0.879   1.863  0.7656  0.1300 -2.2499
  773SOL    HW2 2319   2.001   0.975   1.735 -0.2130  0.2952  1.1216
  774SOL     OW 2320   1.012   1.043   0.562 -0.2673  0.2554 -0.5632
  774SOL    HW1 2321   0.908   1.039   0.558 -1.8797 -0.6808 -0.7099
  774SOL    HW2 2322   1.046   1.111   0.629 -2.4731 -1.0131 -2.9964
  775SOL     OW 2323   1.793   0.006   0.086 -0.0023 -0.0826 -0.1938
  775SOL    HW1 2324   1.744   3.068   0.058 -0.6984  0.2384 -2.6706
  775SOL    HW2 2325   1.805   0.064   0.003 -1.2142 -2.5429  0.7541
  776SOL     OW 2326   2.192   0.169   2.420 -0.3060 -0.2764  0.8219
  776SOL    HW1 2327   2.284   0.146   2.387  2.5470 -1.7383  1.8592
  776SOL    HW2 2328   2.129   0.090   2.402  2.3115  1.6660  0.1176
  777SOL     OW 2329   0.904   1.732   0.277  0.9860 -0.0259 -0.1317
  777SOL    HW1 2330   0.976   1.677   0.234 -4.1050  1.2872 -0.5032
  777SOL    HW2 2331   0.817   1.737   0.223 -0.0770  0.4150  0.8009
  778SOL     OW 2332   0.339   2.981   0.223  0.5770 -0.0547 -0.2239
  778SOL    HW1 2333   0.298   2.890   0.203  1.4250  2.4440  1.9728
  778SOL    HW2 2334   0.438   2.975   0.192  1.6374 -0.1282 -0.9057
  779SOL     OW 2335   0.260   1.369   2.961 -0.1689  0.0091 -0.4176
  779SOL    HW1 2336   0.194   1.338   3.030  1.1552  0.0941 -2.1342
  779SOL    HW2 2337   0.299   1.289   2.914 -0.9326  0.4932  1.2864
  780SOL     OW 2338   2.195   0.406   2.278  0.0207 -0.4065 -0.4598
  780SOL    HW1 2339   2.097   0.417   2.258  0.2374 -1.3319  2.0520
  780SOL    HW2 2340   2.207   0.332   2.340 -0.5483  0.1136 -0.7633
  781SOL     OW 2341   1.639   0.711   1.649 -0.4181 -0.7570  0.0127
  781SOL    HW1 2342   1.676   0.776   1.721  2.1670 -0.4119 -0.6449
  781SOL    HW2 2343   1.718   0.645   1.620  1.5355  0.9595  0.2474
  782SOL     OW 2344   1.774   1.884   2.261 -0.3928  0.7122  0.0578
  782SOL    HW1 2345   1.836   1.916   2.339  0.8392 -2.0695 -0.8940
  782SOL    HW2 2346   1.788   1.784   2.256 -0.2379 -1.5808  1.1107
  783SOL     OW 2347   1.218   3.049   1.143 -0.5647  0.0130 -0.2798
  783SOL    HW1 2348   1.202   2.952   1.146  1.5974  1.7681 -2.7674
  783SOL    HW2 2349   1.165   3.099   1.070  0.9716  0.5235  0.9231
  784SOL     OW 2350   1.725   0.798   2.522  0.2411  0.2874  0.4746
  784SOL    HW1 2351   1.779   0.713   2.538  3.5420 -1.0022  0.1509
  784SOL    HW2 2352   1.673   0.838   2.599  0.8684 -0.2150 -0.5202
  785SOL     OW 2353   1.882   0.253   3.077  0.0304 -0.3476  0.4285
  785SOL    HW1 2354   1.963   0.242   3.138 -1.7159  0.3266 -0.9000
  785SOL    HW2 2355   1.903   0.310   2.995 -0.8060  3.9924  0.4602
  786SOL     OW 2356   2.933   1.874   0.849  0.0293 -0.1238 -0.0316
  786SOL    HW1 2357   3.017   1.824   0.825 -2.8164  0.5214 -0.3884
  786SOL    HW2 2358   2.926   1.973   0.828 -2.1646  1.9934 -1.4050
  787SOL     OW 2359   1.637   2.194   0.443  0.1131  0.9092 -0.0882
  787SOL    HW1 2360   1.617   2.186   0.543 -0.3532  0.7933 -0.8720
  787SOL    HW2 2361   1.552   2.193   0.394  3.3611  1.4391  0.4752
  788SOL     OW 2362   2.246   1.585   1.296 -0.3320  0.1859  0.1884
  788SOL    HW1 2363   2.239   1.638   1.205 -1.0201  3.0866  0.9909
  788SOL    HW2 2364   2.290   1.642   1.364 -0.5724  0.4056 -1.6955
  789SOL     OW 2365   3.129   1.342   2.749 -0.0952 -0.5648  0.5762
  789SOL    HW1 2366   0.060   1.403   2.736 -4.3097 -1.4168 -0.5539
  789SOL    HW2 2367   3.124   1.276   2.669  1.4680  0.1398 -0.0630
  790SOL     OW 2368   0.413   0.374   2.878 -0.1488 -0.0121  0.3089
  790SOL    HW1 2369   0.426   0.445   2.951 -1.6371 -1.3222 -2.4447
  790SOL    HW2 2370   0.360   0.411   2.799  0.2756  1.5926  0.6229
  791SOL     OW 2371   0.941   0.320   2.198 -0.0207 -0.1079  0.0671
  791SOL    HW1 2372   0.861   0.342   2.259 -1.2087  4.6968  0.8379
  791SOL    HW2 2373   0.921   0.241   2.143  0.4489  2.0932  1.5926
  792SOL     OW 2374   1.731   0.755   2.100  0.1824  0.6803 -0.3487
  792SOL    HW1 2375   1.766   0.804   2.183 -0.1192  2.0828  0.1148
  792SOL    HW2 2376   1.630   0.737   2.107 -1.4776  0.2483  1.0170
  793SOL     OW 2377   2.659   0.657   1.480 -0.2331  0.3025 -0.0531
  793SOL    HW1 2378   2.726   0.595   1.431  0.7304 -1.7320 -0.1527
  793SOL    HW2 2379   2.567   0.613   1.486  0.6484 -1.4174  0.5222
  794SOL     OW 2380   0.344   0.645   1.848 -0.1893 -0.4402 -0.5560
  794SOL    HW1 2381   0.350   0.721   1.775  0.0635  0.9124 -0.7466
  794SOL    HW2 2382   0.403   0.670   1.931  0.8750 -1.7804  0.8133
  795SOL     OW 2383   3.012   1.409   0.335 -0.2572  0.1575 -0.5585
  795SOL    HW1 2384   2.975   1.457   0.417  0.4127 -0.3345  1.2192
  795SOL    HW2 2385   3.108   1.377   0.351  0.9291  1.4864  0.6875
  796SOL     OW 2386   0.307   2.597   2.960 -0.0236 -0.0215 -0.3119
  796SOL    HW1 2387   0.259   2.678   2.999  2.4461  1.5583 -1.6835
  796SOL    HW2 2388   0.254   2.544   2.893  1.5249  1.7223  1.5370
  797SOL     OW 2389   2.178   2.584   3.114  0.1116 -0.5048  0.0230
  797SOL    HW1 2390   2.223   2.507   0.011 -1.2769  2.2934  0.1014
  797SOL    HW2 2391   2.074   2.589   3.129  0.0097 -0.9609 -1.4755
  798SOL     OW 2392   0.208   1.012   1.787  0.1755  0.3853 -0.0408
  798SOL    HW1 2393   0.276   0.952   1.739 -2.2209 -1.3145  1.3208
  798SOL    HW2 2394   0.172   1.075   1.716  1.7264  2.9454 -1.9727
  799SOL     OW 2395   2.664   0.642   2.347 -0.1160 -0.0976 -0.3417
  799SOL    HW1 2396   2.726   0.659   2.272 -3.3842 -0.8871  1.5136
  799SOL    HW2 2397   2.570   0.639   2.316  0.4823  1.0229  0.8176
  800SOL     OW 2398   2.955   2.136   0.794  0.3151 -0.0112  0.3568
  800SOL    HW1 2399   3.028   2.109   0.724  1.4940  0.0756 -1.6617
  800SOL    HW2 2400   3.000   2.170   0.881  0.9346  0.9731  0.4223
  801SOL     OW 2401   1.867   1.192   1.059  1.1035  0.7049  0.4568
  801SOL    HW1 2402   1.862   1.161   0.959 -0.0199  0.7741  1.2136
  801SOL    HW2 2403   1.890   1.289   1.067 -0.0780 -0.2378 -0.8988
  802SOL     OW 2404   1.178   1.884   1.613  0.7608  0.4938  0.2037
  802SOL    HW1 2405   1.236   1.932   1.681 -1.5130  1.2494 -0.7282
  802SOL    HW2 2406   1.148   1.945   1.537 -1.2748 -1.7921  2.1598
  803SOL     OW 2407   3.114   1.662   0.455 -0.2071  0.0001  0.2248
  803SOL    HW1 2408   0.044   1.601   0.432  1.5595 -0.6429  0.3578
  803SOL    HW2 2409   3.098   1.720   0.372  0.6860 -0.6962  1.8879
  804SOL     OW 2410   1.111   2.480   1.369 -0.2500 -0.0495 -0.5022
  804SOL    HW1 2411   1.177   2.438   1.436  1.0642 -0.8307  3.6440
  804SOL    HW2 2412   1.025   2.491   1.425  0.3855  1.4948  1.9838
  805SOL     OW 2413   1.531   1.198   0.223  0.1712  0.1785 -0.3405
  805SOL    HW1 2414   1.608   1.263   0.227 -0.8892 -0.0000 -0.6314
  805SOL    HW2 2415   1.484   1.205   0.132  0.2775 -1.8122  0.2811
  806SOL     OW 2416   1.449   3.130   1.028 -0.2564 -0.0871  0.1844
  806SOL    HW1 2417   1.428   0.062   0.967 -1.2518 -0.7979 -0.9146
  806SOL    HW2 2418   1.369   3.108   1.092 -0.2712 -0.9344  0.1805
  807SOL     OW 2419   2.218   3.112   2.842 -0.1811  0.6426  0.1963
  807SOL    HW1 2420   2.237   0.060   2.812 -0.4730  0.5744 -0.2388
  807SOL    HW2 2421   2.310   3.062   2.857  0.3668 -4.1783 -0.3448
  808SOL     OW 2422   0.067   1.286   0.011 -0.0918 -0.2030 -0.5325
  808SOL    HW1 2423   3.128   1.316   0.057  2.1778 -0.2197  1.1323
  808SOL    HW2 2424   0.130   1.259   0.088  0.4417 -1.0917  1.3353
  809SOL     OW 2425   2.655   1.059   2.285  0.0058 -0.1060  0.0223
  809SOL    HW1 2426   2.715   1.068   2.203 -1.6900  0.0684  0.5874
  809SOL    HW2 2427   2.566   1.014   2.258 -0.4128  0.7671 -1.6943
  810SOL     OW 2428   2.507   3.101   2.085  0.3563  0.5548 -0.1827
  810SOL    HW1 2429   2.442   0.031   2.064  0.3893  2.4328  0.2603
  810SOL    HW2 2430   2.477   3.017   2.038 -1.8779  1.5134 -0.1130
  811SOL     OW 2431   2.661   2.658   1.899  0.5421  0.0841 -0.0565
  811SOL    HW1 2432   2.701   2.750   1.923  0.7897 -0.6618  0.1130
  811SOL    HW2 2433   2.735   2.585   1.896  0.6919 -0.9940 -0.7139
  812SOL     OW 2434   1.697   0.447   3.119 -0.1820  0.1941 -0.0098
  812SOL    HW1 2435   1.608   0.422   3.072 -1.9923 -1.2494 -0.6592
  812SOL    HW2 2436   1.758   0.367   3.128 -2.0625  1.0201 -2.7821
  813SOL     OW 2437   2.077   0.172   1.994 -0.0969  0.3639 -0.4791
  813SOL    HW1 2438   2.086   0.095   1.921  0.2836  1.0660 -1.4693
  813SOL    HW2 2439   2.079   0.266   1.952 -0.3302  0.1732  4.3768
  814SOL     OW 2440   1.776   1.158   1.557 -0.0290 -0.3270  0.0040
  814SOL    HW1 2441   1.830   1.203   1.631  0.1899 -2.4721  1.2153
  814SOL    HW2 2442   1.747   1.219   1.478  1.1644  1.9262 -2.1838
  815SOL     OW 2443   0.343   0.897   0.517  0.1830  0.2342 -0.4813
  815SOL    HW1 2444   0.363   0.909   0.420 -1.8187  1.7429  1.0984
  815SOL    HW2 2445   0.302   0.983   0.556 -0.5909 -1.0840 -1.9942
  816SOL     OW 2446   2.105   1.765   2.900 -0.0901  0.0969 -0.4752
  816SOL    HW1 2447   2.081   1.728   2.807  0.4068  0.3390 -1.5480
  816SOL    HW2 2448   2.049   1.720   2.970  0.0014 -0.6732 -1.9896
  817SOL     OW 2449   0.123   2.955   0.613 -0.1534 -0.0229 -0.5878
  817SOL    HW1 2450   0.192   2.882   0.598 -1.2881 -0.5544  2.7110
  817SOL    HW2 2451   0.124   2.985   0.712 -0.6988 -1.8881  1.4815
  818SOL     OW 2452   1.830   0.111   2.630  0.3574  0.0959 -0.0626
  818SOL    HW1 2453   1.910   0.169   2.651  0.5557 -0.1639  1.1784
  818SOL    HW2 2454   1.839   0.030   2.693 -0.3587 -2.5131  2.1971
  819SOL     OW 2455   1.242   0.960   0.475  0.2477 -0.6469  0.4774
  819SOL    HW1 2456   1.262   0.919   0.569  0.1541 -0.1089 -0.3402
  819SOL    HW2 2457   1.143   0.990   0.480  0.7107 -1.5459 -0.9288
  820SOL     OW 2458   2.369   0.684   0.737 -0.0866  0.3209 -0.2173
  820SOL    HW1 2459   2.392   0.770   0.784  0.0702 -1.7898 -1.2266
  820SOL    HW2 2460   2.343   0.706   0.645 -0.4018  2.8694 -1.0638
  821SOL     OW 2461   2.418   0.108   0.529 -0.3292  0.6472 -0.0835
  821SOL    HW1 2462   2.433   0.123   0.430  1.1096  1.4029  1.4242
  821SOL    HW2 2463   2.320   0.083   0.535 -2.4866  0.6891 -1.0752
  822SOL     OW 2464   0.652   2.911   2.557  0.0694  0.3267 -0.0839
  822SOL    HW1 2465   0.661   2.848   2.637 -0.0520  1.6398 -0.3977
  822SOL    HW2 2466   0.590   2.873   2.489  1.4831 -1.3052  1.4835
  823SOL     OW 2467   0.050   2.285   1.880 -0.1687  0.4288 -0.6186
  823SOL    HW1 2468   3.113   2.288   1.936 -1.1724 -2.9661 -2.6545
  823SOL    HW2 2469   0.048   2.361   1.812  0.3682  1.4928  3.0359
  824SOL     OW 2470   1.028   2.810   2.066  0.0456  0.1036  0.1637
  824SOL    HW1 2471   1.109   2.868   2.047 -3.5717  0.1500  1.2929
  824SOL    HW2 2472   0.996   2.760   1.987 -0.7329 -0.1527  1.7511
  825SOL     OW 2473   1.384   1.721   0.452  0.3563  0.0106  0.0275
  825SOL    HW1 2474   1.380   1.629   0.408 -0.1508  2.0160 -1.5745
  825SOL    HW2 2475   1.312   1.787   0.417 -2.3505  2.4453 -1.9136
  826SOL     OW 2476   1.261   3.077   3.092  0.3643 -0.9552  0.7707
  826SOL    HW1 2477   1.216   0.002   3.031  2.3732  0.1257  0.8407
  826SOL    HW2 2478   1.244   2.984   3.064  1.2321  0.0526  1.0164
  827SOL     OW 2479   0.232   1.679   1.413 -0.0206  0.1845 -0.3540
  827SOL    HW1 2480   0.301   1.722   1.351 -0.2106  3.2277 -0.3613
  827SOL    HW2 2481   0.228   1.579   1.400  2.0415  1.5888  1.9415
  828SOL     OW 2482   2.450   1.390   1.403 -0.3612  0.1230  0.3141
  828SOL    HW1 2483   2.354   1.380   1.428  2.2777 -0.6949 -1.2985
  828SOL    HW2 2484   2.507   1.327   1.456  1.9437 -3.2604 -1.2800
  829SOL     OW 2485   2.941   2.066   0.410  0.3575 -0.2382  0.6320
  829SOL    HW1 2486   3.010   2.091   0.482  0.3878 -0.9950 -0.2256
  829SOL    HW2 2487   2.961   1.973   0.367 -1.3496  1.6695 -1.1624
  830SOL     OW 2488   0.925   0.687   0.447 -0.0417 -0.7637 -0.3053
  830SOL    HW1 2489   1.023   0.659   0.453  1.0658 -0.6618  0.2559
  830SOL    HW2 2490   0.892   0.709   0.542  1.3447 -0.6257  1.3069
  831SOL     OW 2491   2.924   1.984   0.043  0.3922 -0.2495 -0.5789
  831SOL    HW1 2492   2.838   1.936   0.026 -2.3371  0.7402  2.0600
  831SOL    HW2 2493   2.906   2.084   0.054 -0.1652 -1.4073 -1.2391
  832SOL     OW 2494   0.900   2.714   0.173  0.0302  0.0848 -0.3212
  832SOL    HW1 2495   0.839   2.767   0.234 -0.4649  0.0441 -0.4866
  832SOL    HW2 2496   0.999   2.736   0.189  0.4183  0.8243  2.7053
  833SOL     OW 2497   1.195   0.418   2.331 -0.1321 -0.3569  0.5130
  833SOL    HW1 2498   1.096   0.399   2.307 -0.5479 -0.6549  0.5674
  833SOL    HW2 2499   1.238   0.489   2.275 -2.0523  0.3166 -0.1367
  834SOL     OW 2500   0.011   0.885   0.699  0.6467 -0.2907 -0.0968
  834SOL    HW1 2501   3.074   0.934   0.667 -1.6073 -1.6652  0.0834
  834SOL    HW2 2502   0.009   0.792   0.658 -2.1593  1.2311 -1.7583
  835SOL     OW 2503   2.664   0.426   1.935  0.1422 -0.5536 -0.0218
  835SOL    HW1 2504   2.651   0.521   1.899  2.2032  1.7700  1.9513
  835SOL    HW2 2505   2.598   0.411   2.013 -0.4900  0.6439  1.5473
  836SOL     OW 2506   0.528   2.278   0.754  0.6564  0.6775  0.3271
  836SOL    HW1 2507   0.516   2.362   0.702 -2.9507  0.5912 -0.6802
  836SOL    HW2 2508   0.609   2.229   0.717 -0.7304  2.7534 -1.5147
  837SOL     OW 2509   2.338   2.001   2.383  0.0347 -0.4433 -0.3781
  837SOL    HW1 2510   2.384   1.923   2.338  0.4261  0.6086 -3.4750
  837SOL    HW2 2511   2.292   1.966   2.468  0.7207  0.4447 -0.1945
  838SOL     OW 2512   0.358   1.439   1.768  0.3589 -0.5660  0.7186
  838SOL    HW1 2513   0.390   1.392   1.680  0.9245 -0.5603 -1.6404
  838SOL    HW2 2514   0.429   1.508   1.796 -0.9173  1.6563 -1.3729
  839SOL     OW 2515   0.141   0.296   0.567 -0.1656  0.3689 -0.6136
  839SOL    HW1 2516   0.194   0.347   0.498  0.6119 -4.6637  1.0774
  839SOL    HW2 2517   0.131   0.199   0.544 -0.4707 -0.3027  2.0107
  840SOL     OW 2518   0.006   0.618   2.482  0.2438 -0.0780  0.3673
  840SOL    HW1 2519   3.073   0.686   2.482 -2.7685  0.7589 -1.9293
  840SOL    HW2 2520   0.006   0.565   2.566  2.2135  1.2271  0.9646
  841SOL     OW 2521   0.456   2.287   2.873 -0.0423  0.0366  0.3629
  841SOL    HW1 2522   0.549   2.313   2.843  1.0425  2.4324  1.9353
  841SOL    HW2 2523   0.445   2.322   2.965 -0.6985  0.8846  2.1551
  842SOL     OW 2524   0.652   3.033   1.149  0.7683  0.2771  0.3765
  842SOL    HW1 2525   0.739   2.998   1.107  0.6777  0.9505 -1.9549
  842SOL    HW2 2526   0.636   3.125   1.101  2.5765 -0.4791 -3.4318
  843SOL     OW 2527   0.499   1.657   2.784 -0.4344 -0.3537 -0.4150
  843SOL    HW1 2528   0.566   1.679   2.858 -1.1308 -1.9336  0.4310
  843SOL    HW2 2529   0.526   1.570   2.744 -0.4928  0.2981  0.6682
  844SOL     OW 2530   1.088   2.132   2.467 -0.4405 -0.4267  0.4271
  844SOL    HW1 2531   1.164   2.193   2.443  1.5675 -0.9003  1.1134
  844SOL    HW2 2532   1.116   2.065   2.543  1.4719 -1.2892  1.9342
  845SOL     OW 2533   2.636   2.817   2.771  0.7507 -0.1004  0.3438
  845SOL    HW1 2534   2.684   2.858   2.691  0.8062 -0.4889  1.4105
  845SOL    HW2 2535   2.570   2.884   2.810 -0.6849  0.2997 -1.0470
  846SOL     OW 2536   2.135   1.360   2.993  0.4275 -0.0317 -0.0935
  846SOL    HW1 2537   2.103   1.389   2.904 -0.5170  0.5493  0.4826
  846SOL    HW2 2538   2.201   1.422   3.041  1.6364 -2.6377  3.5547
  847SOL     OW 2539   2.649   0.301   2.907  0.1295 -0.0483  0.6857
  847SOL    HW1 2540   2.720   0.374   2.905 -2.4163 -1.0442  2.0570
  847SOL    HW2 2541   2.560   0.349   2.900 -0.3550  2.6384 -3.9824
  848SOL     OW 2542   0.073   0.893   0.205 -0.0857  0.2709 -0.7316
  848SOL    HW1 2543   0.116   0.965   0.261  3.7145 -2.2983 -0.3572
  848SOL    HW2 2544   0.114   0.886   0.110 -1.6073 -1.1860 -0.0710
  849SOL     OW 2545   1.413   0.311   2.436  0.1293  0.2067 -0.1583
  849SOL    HW1 2546   1.403   0.302   2.535  0.0441  1.2120 -1.3696
  849SOL    HW2 2547   1.327   0.349   2.394  0.0091  3.2480 -0.4255
  850SOL     OW 2548   0.251   1.175   0.223  0.0423 -0.1158  0.0744
  850SOL    HW1 2549   0.318   1.100   0.229  0.3529  0.0363  0.1662
  850SOL    HW2 2550   0.189   1.169   0.305 -2.0154  0.7763  1.0263
  851SOL     OW 2551   0.555   1.566   0.574 -0.2191  0.1829  0.1797
  851SOL    HW1 2552   0.653   1.543   0.553 -0.6901  1.7967 -0.3873
  851SOL    HW2 2553   0.495   1.509   0.516  3.3404 -1.5280  1.3450
  852SOL     OW 2554   1.167   1.195   1.462 -0.0097 -0.1196 -0.0910
  852SOL    HW1 2555   1.112   1.124   1.518 -1.7307 -0.3869  0.4781
  852SOL    HW2 2556   1.258   1.156   1.442  1.1166 -0.3620 -1.7505
  853SOL     OW 2557   2.414   1.554   0.501 -0.0867 -0.1586  0.2568
  853SOL    HW1 2558   2.435   1.490   0.577 -1.6548  1.2952 -1.2025
  853SOL    HW2 2559   2.329   1.606   0.511 -1.8048 -2.3718 -1.7033
  854SOL     OW 2560   1.411   1.038   2.117  0.3094  0.1658 -0.0149
  854SOL    HW1 2561   1.461   1.052   2.029  1.6852 -1.5572  0.8179
  854SOL    HW2 2562   1.337   1.104   2.125  2.2837 -1.4104  1.1562
  855SOL     OW 2563   0.547   2.492   2.618 -0.4056 -0.0580 -0.0643
  855SOL    HW1 2564   0.587   2.400   2.637 -0.3469 -0.6801  0.5874
  855SOL    HW2 2565   0.603   2.565   2.671  2.5438  2.3127 -2.7140
  856SOL     OW 2566   1.127   0.890   1.944 -0.1876  0.1432  0.7126
  856SOL    HW1 2567   1.224   0.915   1.947  0.1827 -0.3787  0.9154
  856SOL    HW2 2568   1.073   0.975   1.920 -0.0676 -1.2826 -1.1426
  857SOL     OW 2569   1.069   1.128   2.349 -0.4148 -0.2467  0.1431
  857SOL    HW1 2570   1.037   1.191   2.423 -0.9211  1.2070 -1.8280
  857SOL    HW2 2571   1.118   1.176   2.272 -1.5944 -1.1376 -1.7055
  858SOL     OW 2572   2.899   1.007   1.651 -0.5003  0.0359 -0.5663
  858SOL    HW1 2573   2.946   1.031   1.562 -1.3885 -1.9673  0.0513
  858SOL    HW2 2574   2.906   0.907   1.672  1.8464 -1.6807  1.3309
  859SOL     OW 2575   2.591   0.027   0.966  0.1033  0.0554  0.3446
  859SOL    HW1 2576   2.550   3.142   0.874  0.2600 -2.1508  0.1322
  859SOL    HW2 2577   2.597   3.095   1.037  1.3709  0.7347  2.8839
  860SOL     OW 2578   1.613   0.424   0.999  0.0578  0.2127 -0.2291
  860SOL    HW1 2579   1.669   0.369   0.934 -1.5973  2.5045  0.9175
  860SOL    HW2 2580   1.679   0.476   1.060  0.1283 -0.8992 -1.8395
  861SOL     OW 2581   1.790   0.600   1.107  0.6423  0.2188  0.6639
  861SOL    HW1 2582   1.702   0.638   1.131 -0.1176 -1.4901 -1.2235
  861SOL    HW2 2583   1.849   0.670   1.060  1.5893 -3.0205 -0.4384
  862SOL     OW 2584   1.437   3.001   2.730 -0.1944  0.6708  0.0515
  862SOL    HW1 2585   1.467   2.979   2.636 -0.0382 -0.9810  0.5590
  862SOL    HW2 2586   1.496   2.961   2.804  1.0179  0.9981 -0.8803
  863SOL     OW 2587   2.827   2.896   1.155  0.4598 -0.0809  0.0517
  863SOL    HW1 2588   2.863   2.988   1.182 -0.1544  2.2487 -0.6084
  863SOL    HW2 2589   2.892   2.852   1.085  3.1690  0.1939 -1.2307
  864SOL     OW 2590   2.666   0.017   2.280 -0.0361 -0.5070  0.0845
  864SOL    HW1 2591   2.625   0.094   2.327  1.0890  2.0621 -1.5111
  864SOL    HW2 2592   2.605   3.142   2.196 -2.6427 -1.3109  1.0012
  865SOL     OW 2593   1.225   1.352   2.557  0.3264  0.5379 -0.2247
  865SOL    HW1 2594   1.127   1.329   2.564  1.0915  0.8208 -0.4752
  865SOL    HW2 2595   1.268   1.356   2.647 -2.4776  0.6918 -1.3589
  866SOL     OW 2596   2.236   3.080   0.958  0.1326 -0.3488 -0.2001
  866SOL    HW1 2597   2.251   3.026   0.873 -0.4490 -1.4030 -0.8827
  866SOL    HW2 2598   2.309   3.065   1.030  1.6374  0.9290  1.4028
  867SOL     OW 2599   3.058   2.791   1.031 -0.1387  0.1496  0.5504
  867SOL    HW1 2600   3.075   2.889   1.021  3.0012  0.1656 -1.6877
  867SOL    HW2 2601   3.109   2.740   0.957 -0.0880  0.8155 -3.7115
  868SOL     OW 2602   0.065   1.729   1.623  0.6129  1.1841 -0.2591
  868SOL    HW1 2603   0.148   1.719   1.560  0.2747 -0.4073  2.0566
  868SOL    HW2 2604   0.101   1.734   1.718 -0.8470  1.1797 -0.5173
  869SOL     OW 2605   1.936   1.979   2.447 -0.2996 -0.1130  0.1607
  869SOL    HW1 2606   1.953   2.066   2.500 -2.1393  0.6613 -1.1253
  869SOL    HW2 2607   1.993   1.907   2.488 -0.5014  0.7601  1.3451
  870SOL     OW 2608   1.208   0.870   0.752  0.2761  0.4924 -0.4757
  870SOL    HW1 2609   1.293   0.914   0.789  0.9466  1.3649  0.3372
  870SOL    HW2 2610   1.145   0.945   0.766  1.1010  0.9781 -3.3059
  871SOL     OW 2611   2.971   1.687   2.141 -0.1967 -0.3048 -0.3893
  871SOL    HW1 2612   2.945   1.785   2.117 -0.3719  3.1462 -0.1276
  871SOL    HW2 2613   2.993   1.674   2.241  1.3391 -0.7654  1.1444
  872SOL     OW 2614   0.932   1.663   3.086 -0.0785 -0.1126  0.2607
  872SOL    HW1 2615   0.993   1.646   0.017 -0.8113  1.3807  2.6148
  872SOL    HW2 2616   0.949   1.754   3.045 -0.3345  1.0753  0.7935
  873SOL     OW 2617   1.056   1.349   1.746  0.0170  0.2918 -0.0455
  873SOL    HW1 2618   0.982   1.323   1.683  0.7154  1.1913  1.1255
  873SOL    HW2 2619   1.147   1.375   1.706 -0.7418 -0.4428  2.6147
  874SOL     OW 2620   1.397   1.096   1.348  0.3966 -0.0914 -0.2015
  874SOL    HW1 2621   1.435   1.031   1.414  2.0915  0.6774 -1.1987
  874SOL    HW2 2622   1.473   1.135   1.287  1.6450 -0.1168 -1.8488
  875SOL     OW 2623   2.818   0.127   2.726  0.0972 -0.0832  0.8885
  875SOL    HW1 2624   2.755   0.187   2.778 -0.9035 -2.6010 -0.5975
  875SOL    HW2 2625   2.878   0.184   2.666 -0.4803 -1.8628  2.2423
  876SOL     OW 2626   1.001   1.205   0.319  0.0548  0.1096 -0.4789
  876SOL    HW1 2627   1.012   1.172   0.419 -0.9333 -0.7343  2.1596
  876SOL    HW2 2628   1.028   1.133   0.253 -2.7034 -0.8706  1.9063
  877SOL     OW 2629   2.197   2.907   0.311  0.4544  0.0342 -0.8039
  877SOL    HW1 2630   2.197   2.806   0.328 -0.0116 -3.1341 -2.7145
  877SOL    HW2 2631   2.275   2.941   0.254  0.2492 -0.2374 -0.7577
  878SOL     OW 2632   1.907   2.067   0.423  0.0146  0.6058 -0.1348
  878SOL    HW1 2633   1.955   2.157   0.420 -0.4333  0.1126  1.5693
  878SOL    HW2 2634   1.804   2.081   0.411 -1.0791  0.3065  0.6997
  879SOL     OW 2635   0.065   1.913   2.078 -0.0272 -0.4767  0.3886
  879SOL    HW1 2636   0.080   1.831   2.019 -0.4943  0.4574  1.8224
  879SOL    HW2 2637   3.115   1.946   2.077 -0.2596  1.5010 -0.6404
  880SOL     OW 2638   0.233   2.022   1.028 -0.4413 -0.6911  0.7074
  880SOL    HW1 2639   0.188   2.027   1.114  3.1220  2.2329  1.7215
  880SOL    HW2 2640   0.250   2.119   0.993  0.3477  2.0468 -2.7464
  881SOL     OW 2641   1.179   0.289   2.047 -0.7008  0.6063  0.4592
  881SOL    HW1 2642   1.199   0.283   2.146 -2.1839 -1.4799 -1.5103
  881SOL    HW2 2643   1.096   0.344   2.025 -0.4329  0.3049 -0.3390
  882SOL     OW 2644   2.482   0.904   0.885  0.2952 -0.9008  0.2734
  882SOL    HW1 2645   2.583   0.904   0.866 -1.4974  0.3146  1.3193
  882SOL    HW2 2646   2.462   0.850   0.966  1.3732  2.8571 -2.1537
  883SOL     OW 2647   1.702   0.334   1.715  0.7449 -0.7141  0.0738
  883SOL    HW1 2648   1.680   0.376   1.806  0.5357  1.2019 -0.4998
  883SOL    HW2 2649   1.756   0.406   1.662  0.9788 -1.1032 -1.1674
  884SOL     OW 2650   2.970   0.123   1.758 -0.0554 -0.6525  0.6883
  884SOL    HW1 2651   3.033   0.087   1.685 -0.0548  2.3235 -1.7630
  884SOL    HW2 2652   3.024   0.172   1.832  0.3542  1.0705 -0.5142
  885SOL     OW 2653   1.962   1.469   2.811  0.4645  0.1492  0.0558
  885SOL    HW1 2654   1.939   1.511   2.897  0.6555 -2.1150 -1.9548
  885SOL    HW2 2655   1.879   1.445   2.756 -0.2693 -1.1496  2.3988
  886SOL     OW 2656   2.177   0.395   3.064  0.0695 -0.5168 -0.6470
  886SOL    HW1 2657   2.220   0.305   3.083  2.8888  3.3533 -0.2845
  886SOL    HW2 2658   2.096   0.387   3.004 -4.0076 -0.1528  1.6170
  887SOL     OW 2659   1.200   2.798   1.642 -0.5583 -0.6694 -0.2573
  887SOL    HW1 2660   1.262   2.796   1.721  0.6152 -2.3499 -0.1207
  887SOL    HW2 2661   1.240   2.762   1.556  0.2115  0.4585  1.8201
  888SOL     OW 2662   2.140   1.725   2.173 -0.3608  0.1937 -0.3583
  888SOL    HW1 2663   2.133   1.817   2.216  1.7798 -0.7862 -1.5847
  888SOL    HW2 2664   2.194   1.732   2.087 -1.9242  0.0414 -3.3542
  889SOL     OW 2665   2.006   2.505   1.296 -0.2601 -0.2344 -0.5404
  889SOL    HW1 2666   2.077   2.494   1.364 -1.7052 -0.5748 -0.9134
  889SOL    HW2 2667   1.958   2.416   1.280 -0.2532 -1.1137  1.8955
  890SOL     OW 2668   1.303   1.741   1.124 -0.1138 -0.2702  0.2285
  890SOL    HW1 2669   1.358   1.737   1.209 -1.1694  0.2883  1.3105
  890SOL    HW2 2670   1.211   1.782   1.143  0.1608  4.0381  0.3705
  891SOL     OW 2671   2.965   1.365   0.082  0.0039 -0.5012 -0.5231
  891SOL    HW1 2672   2.902   1.287   0.072 -0.9689 -0.8119  0.4323
  891SOL    HW2 2673   2.973   1.392   0.180  2.7840  0.6706 -2.0620
  892SOL     OW 2674   2.370   1.482   0.242 -0.6283  0.1283  0.6210
  892SOL    HW1 2675   2.462   1.480   0.196 -0.3797 -0.9278  0.1494
  892SOL    HW2 2676   2.381   1.513   0.340 -2.2846  0.5798 -1.0556
  893SOL     OW 2677   2.221   2.442   1.473 -0.1540 -0.6146 -0.1570
  893SOL    HW1 2678   2.221   2.540   1.514  0.5648  2.0197 -0.1473
  893SOL    HW2 2679   2.249   2.374   1.545 -1.1822 -0.2925 -1.1077
  894SOL     OW 2680   2.775   3.109   0.588  0.1768  0.1131 -0.2539
  894SOL    HW1 2681   2.760   0.060   0.562 -0.3997 -0.7170 -0.6362
  894SOL    HW2 2682   2.696   3.065   0.635  2.6081  0.4572 -0.9783
  895SOL     OW 2683   2.976   2.711   2.727  0.3233  0.3469 -0.4386
  895SOL    HW1 2684   2.954   2.800   2.680 -2.3922  1.6746 -0.3140
  895SOL    HW2 2685   2.922   2.634   2.683  0.2328 -1.6826  1.7501
  896SOL     OW 2686   2.306   0.195   2.774 -0.2243  0.3116 -0.4975
  896SOL    HW1 2687   2.260   0.243   2.699  1.3091 -2.6922  1.1041
  896SOL    HW2 2688   2.360   0.264   2.823  1.0637  0.0419  1.6242
  897SOL     OW 2689   0.290   1.600   2.038 -0.0304  0.6509 -0.0744
  897SOL    HW1 2690   0.205   1.554   1.996 -1.5858 -1.8280  2.0197
  897SOL    HW2 2691   0.334   1.542   2.109  0.2822 -0.4703  1.8211
  898SOL     OW 2692   3.040   1.911   1.500 -0.0654 -0.4299  0.2489
  898SOL    HW1 2693   3.102   1.845   1.540 -1.3456 -1.1663 -2.1569
  898SOL    HW2 2694   2.945   1.883   1.501  1.5278  0.3748 -0.2374
  899SOL     OW 2695   1.684   2.973   1.241 -0.8753  0.1068 -0.4800
  899SOL    HW1 2696   1.752   2.903   1.267  0.0427 -1.2101  3.2925
  899SOL    HW2 2697   1.699   2.995   1.143  0.5195 -0.1642  0.4454
  900SOL     OW 2698   1.311   0.883   0.024 -0.2715 -0.3162  0.0208
  900SOL    HW1 2699   1.263   0.796   0.000  0.3666  0.0313  1.6971
  900SOL    HW2 2700   1.355   0.864   0.111  1.8151  2.9097 -2.6934
  901SOL     OW 2701   1.405   1.033   2.670 -0.3631 -0.1581 -0.0856
  901SOL    HW1 2702   1.467   0.951   2.684  0.1173 -0.8260  0.8277
  901SOL    HW2 2703   1.322   1.005   2.617  0.2287  0.3268 -0.8222
  902SOL     OW 2704   2.711   2.401   0.707 -0.3675  0.1863 -0.4744
  902SOL    HW1 2705   2.742   2.457   0.782 -0.6223 -0.5715 -2.2248
  902SOL    HW2 2706   2.714   2.303   0.736 -1.6827 -0.3998 -2.0495
  903SOL     OW 2707   2.829   1.321   1.927 -0.0503  0.2094 -0.2041
  903SOL    HW1 2708   2.764   1.248   1.954  0.4546 -1.7942  0.0490
  903SOL    HW2 2709   2.920   1.278   1.899 -2.2217  0.5674  3.3216
  904SOL     OW 2710   1.896   0.965   0.580 -0.3512 -0.6302 -0.2419
  904SOL    HW1 2711   1.890   0.864   0.566 -0.3978  3.3108 -0.4650
  904SOL    HW2 2712   1.891   1.024   0.495 -0.8539  1.5625 -2.2392
  905SOL     OW 2713   2.180   2.733   1.498  0.1561  0.1428  0.4927
  905SOL    HW1 2714   2.170   2.784   1.409  1.8931  0.6197  0.2592
  905SOL    HW2 2715   2.263   2.756   1.550 -2.0007 -1.8180 -0.1584
  906SOL     OW 2716   1.546   2.290   0.022 -0.3818  0.3339  0.0018
  906SOL    HW1 2717   1.497   2.379   0.042 -0.8916 -0.0987 -0.5182
  906SOL    HW2 2718   1.645   2.303   0.008 -1.2462  0.4574 -1.3163
  907SOL     OW 2719   0.800   2.783   0.792  0.1893 -0.1533  0.0393
  907SOL    HW1 2720   0.818   2.706   0.728 -1.1047  1.9477 -2.8848
  907SOL    HW2 2721   0.722   2.842   0.767 -1.4486  0.0942  3.0215
  908SOL     OW 2722   0.846   0.110   2.066  0.0791 -0.4907  0.4312
  908SOL    HW1 2723   0.838   0.017   2.100 -1.0425 -0.8339 -0.6339
  908SOL    HW2 2724   0.798   0.113   1.977 -1.4165 -0.5749  1.0801
  909SOL     OW 2725   2.000   0.476   1.864 -0.1136  0.0468 -0.8734
  909SOL    HW1 2726   2.023   0.445   1.769 -1.8264 -0.9034 -3.1443
  909SOL    HW2 2727   1.902   0.484   1.888  1.6559  0.6256  3.0346
  910SOL     OW 2728   1.144   0.675   0.005  0.4650 -1.0036 -0.0353
  910SOL    HW1 2729   1.071   0.662   3.083  0.0114  2.7271  0.4551
  910SOL    HW2 2730   1.195   0.587   0.017 -0.9263  0.3853  0.0470
  911SOL     OW 2731   0.060   0.665   3.103 -0.3906 -0.3148 -0.2535
  911SOL    HW1 2732   3.119   0.701   3.065  0.2597  0.1456  1.4235
  911SOL    HW2 2733   0.060   0.560   3.113 -2.4108 -3.5719 -1.2496
  912SOL     OW 2734   2.986   2.463   0.182 -0.9641 -0.0146  0.4161
  912SOL    HW1 2735   2.910   2.529   0.207 -1.1297  0.6621  0.2984
  912SOL    HW2 2736   2.958   2.391   0.116  1.1986  1.4320 -0.9633
  913SOL     OW 2737   2.660   2.337   2.996 -0.0233 -0.2779  0.0061
  913SOL    HW1 2738   2.685   2.271   2.922  0.5112 -0.9151 -2.6086
  913SOL    HW2 2739   2.638   2.424   2.946 -1.3171 -1.9131 -1.6990
  914SOL     OW 2740   1.774   1.721   1.682 -0.6423 -0.7950 -0.5301
  914SOL    HW1 2741   1.695   1.763   1.728 -2.1721 -0.7702 -0.5344
  914SOL    HW2 2742   1.865   1.755   1.719  0.2416 -2.7666  1.3641
  915SOL     OW 2743   0.252   2.598   2.188 -0.2569  0.0833 -0.0989
  915SOL    HW1 2744   0.287   2.679   2.138  0.4633 -0.4767 -1.0123
  915SOL    HW2 2745   0.294   2.584   2.279 -0.8784  0.3559  0.2689
  916SOL     OW 2746   3.041   1.165   1.825 -0.3882  0.8214  0.1406
  916SOL    HW1 2747   2.979   1.097   1.785 -0.8957  0.4973 -0.2635
  916SOL    HW2 2748   3.098   1.218   1.763  1.0214  1.2193  0.9834
  917SOL     OW 2749   2.291   0.104   3.105 -0.2508 -0.4210  0.4504
  917SOL    HW1 2750   2.270   0.062   3.014 -1.2512 -3.1991  1.4803
  917SOL    HW2 2751   2.198   0.130   3.145  1.4387 -0.3175 -0.2615
  918SOL     OW 2752   1.719   2.565   2.236 -0.0053 -0.0999  0.1245
  918SOL    HW1 2753   1.810   2.523   2.220 -1.0041  0.2113  0.6904
  918SOL    HW2 2754   1.728   2.665   2.243 -1.2073  0.9363 -3.3550
  919SOL     OW 2755   1.766   2.198   1.838  0.0738 -1.0154 -0.5065
  919SOL    HW1 2756   1.846   2.203   1.777 -0.8946  2.1837 -0.9967
  919SOL    HW2 2757   1.777   2.120   1.904  0.3308 -2.2258 -2.0944
  920SOL     OW 2758   0.543   0.997   0.043  0.4801 -0.1348  0.2155
  920SOL    HW1 2759   0.609   1.067   0.010 -0.4055 -0.7219 -2.1761
  920SOL    HW2 2760   0.473   0.979   3.118  1.6906  1.1025 -2.2158
  921SOL     OW 2761   3.034   1.087   2.646  1.0155 -0.6258  0.6131
  921SOL    HW1 2762   2.944   1.092   2.699 -2.9943 -0.9618 -0.8293
  921SOL    HW2 2763   3.014   1.096   2.548  1.2197 -1.5127  0.4078
  922SOL     OW 2764   0.301   1.948   0.264  0.5171  0.0551  0.1979
  922SOL    HW1 2765   0.295   1.845   0.258  0.5162 -0.5131  1.1177
  922SOL    HW2 2766   0.393   1.969   0.305  0.6554  0.6016  2.4121
  923SOL     OW 2767   0.492   1.055   1.997  0.0312  0.4859 -0.2051
  923SOL    HW1 2768   0.430   1.136   2.002  3.3210 -0.9056 -0.5208
  923SOL    HW2 2769   0.448   0.979   1.945 -0.8096 -0.0677  0.7106
  924SOL     OW 2770   1.120   0.039   2.889  0.5426  0.4905  0.3402
  924SOL    HW1 2771   1.161   0.045   2.793 -1.7273 -0.0491 -3.2323
  924SOL    HW2 2772   1.028   0.080   2.894 -1.3429 -0.9360  0.1004
  925SOL     OW 2773   2.312   1.344   1.135 -0.2479  0.0278 -0.2146
  925SOL    HW1 2774   2.245   1.264   1.129  1.3980 -0.8194 -0.8793
  925SOL    HW2 2775   2.298   1.402   1.213 -1.2010 -1.4976 -1.8790
  926SOL     OW 2776   1.952   0.478   2.206 -0.4917  0.0177  0.0023
  926SOL    HW1 2777   1.921   0.459   2.110  0.4223  1.0983  3.0758
  926SOL    HW2 2778   1.872   0.477   2.267  2.0079  2.1892  1.2422
  927SOL     OW 2779   2.865   2.479   1.866 -0.9377  0.1012  0.3394
  927SOL    HW1 2780   2.947   2.525   1.830  1.6572  0.1249  2.0899
  927SOL    HW2 2781   2.898   2.411   1.939 -1.6141 -1.7960  1.8299
  928SOL     OW 2782   0.608   0.923   2.654  0.2071  0.2853  0.1427
  928SOL    HW1 2783   0.529   0.924   2.713 -0.4554  2.6564 -1.4555
  928SOL    HW2 2784   0.589   0.890   2.559  0.9382  0.9563  1.4935
  929SOL     OW 2785   2.854   0.022   0.845  0.0657 -0.1822 -0.0823
  929SOL    HW1 2786   2.762   0.027   0.897  1.7490 -0.3370  3.7997
  929SOL    HW2 2787   2.851   0.000   0.747 -0.4154  1.2422  1.7588
  930SOL     OW 2788   2.531   0.279   1.525 -0.1081 -0.1224  0.6604
  930SOL    HW1 2789   2.550   0.282   1.625  0.3472 -2.8141  1.7253
  930SOL    HW2 2790   2.603   0.240   1.463 -0.1414 -1.0427 -4.3915
  931SOL     OW 2791   2.297   1.219   0.284 -0.1264 -0.4388 -0.5802
  931SOL    HW1 2792   2.307   1.317   0.265 -1.6537 -0.2866  1.7337
  931SOL    HW2 2793   2.393   1.179   0.286  0.0347  0.7900 -1.6826
  932SOL     OW 2794   2.522   1.607   1.544  0.2853 -0.3028  0.5245
  932SOL    HW1 2795   2.500   1.514   1.505  2.2397  2.0259  2.3756
  932SOL    HW2 2796   2.468   1.686   1.501 -0.0721  1.1939 -1.3702
  933SOL     OW 2797   3.118   2.526   1.432 -0.4554  0.2798 -0.5430
  933SOL    HW1 2798   0.048   2.460   1.409  1.7373  1.0371  2.3808
  933SOL    HW2 2799   3.143   2.615   1.404  0.0452 -2.8338 -1.7872
  934SOL     OW 2800   0.872   2.176   1.324  0.4731 -0.4069  0.2172
  934SOL    HW1 2801   0.792   2.167   1.263 -0.0904 -0.1499  0.2045
  934SOL    HW2 2802   0.869   2.252   1.390  3.1240 -0.3526 -0.9532
  935SOL     OW 2803   2.456   1.834   2.192 -0.4163  0.3976 -0.7027
  935SOL    HW1 2804   2.443   1.745   2.147  0.5777  1.9208 -0.6371
  935SOL    HW2 2805   2.529   1.832   2.266  1.5159 -2.3702 -1.0753
  936SOL     OW 2806   2.359   1.598   1.766 -0.4889 -0.1605  0.1778
  936SOL    HW1 2807   2.438   1.585   1.701  1.4562  2.9416  1.8112
  936SOL    HW2 2808   2.394   1.589   1.862  0.8180 -1.2706 -1.3996
  937SOL     OW 2809   1.939   1.147   1.996 -0.0273  0.0877 -0.1376
  937SOL    HW1 2810   1.964   1.082   1.924  2.6108  1.1886  3.0012
  937SOL    HW2 2811   1.976   1.118   2.088  0.8865  1.8459  1.3645
  938SOL     OW 2812   0.870   2.367   3.005 -0.2357 -0.3310  0.2390
  938SOL    HW1 2813   0.821   2.429   3.071  1.6261  0.2586  0.8130
  938SOL    HW2 2814   0.915   2.412   2.924 -1.4113  0.8792 -0.4771
  939SOL     OW 2815   2.521   0.643   2.589  0.2054  0.2168 -0.0494
  939SOL    HW1 2816   2.545   0.721   2.530 -1.0437 -0.6559 -2.7569
  939SOL    HW2 2817   2.602   0.589   2.622 -1.4789  0.4696 -0.2922
  940SOL     OW 2818   1.070   1.915   1.167 -0.0717  0.1330  0.1837
  940SOL    HW1 2819   1.082   1.922   1.268 -0.1091 -1.0311 -1.3750
  940SOL    HW2 2820   0.970   1.912   1.145 -2.0103 -1.1749  2.3156
  941SOL     OW 2821   0.906   2.347   2.060  0.1405  0.5116 -0.3079
  941SOL    HW1 2822   0.897   2.350   2.162  0.2164  0.4785  2.6299
  941SOL    HW2 2823   0.840   2.280   2.030 -2.3719  1.9324  2.1773
  942SOL     OW 2824   0.326   2.058   2.945 -0.3544  0.1035 -0.4464
  942SOL    HW1 2825   0.293   2.065   3.042 -1.9521  0.9697 -0.0914
  942SOL    HW2 2826   0.359   2.149   2.910 -0.7226  0.5353  1.1709
  943SOL     OW 2827   1.843   2.717   1.818 -0.1172 -0.0249  0.1956
  943SOL    HW1 2828   1.824   2.624   1.863 -1.2552 -4.0333  2.5337
  943SOL    HW2 2829   1.866   2.711   1.720 -1.3331  2.2640  0.9277
  944SOL     OW 2830   1.132   1.646   0.156 -0.0692  0.1724 -0.1751
  944SOL    HW1 2831   1.192   1.722   0.125 -1.4203 -1.2474  1.0231
  944SOL    HW2 2832   1.194   1.578   0.196 -1.0988  3.2458 -0.6808
  945SOL     OW 2833   2.635   2.674   0.654 -0.5764  0.1925 -0.8371
  945SOL    HW1 2834   2.669   2.577   0.641  1.5429 -2.6505 -1.9027
  945SOL    HW2 2835   2.702   2.746   0.619  1.2076  0.4549 -0.8242
  946SOL     OW 2836   1.303   1.444   2.827  0.3284  0.0800  0.4997
  946SOL    HW1 2837   1.355   1.529   2.849  0.3643  1.4696  0.2472
  946SOL    HW2 2838   1.231   1.421   2.897 -0.9756 -1.2812 -1.3417
  947SOL     OW 2839   2.634   0.667   1.820  0.6789 -0.1549 -0.6143
  947SOL    HW1 2840   2.556   0.731   1.809 -0.7930 -0.9891 -0.5542
  947SOL    HW2 2841   2.713   0.685   1.763 -0.9605 -1.1352  1.2388
  948SOL     OW 2842   0.219   1.584   0.850 -0.0040  0.0082 -0.7079
  948SOL    HW1 2843   0.312   1.548   0.843 -2.2060 -1.8234 -1.8260
  948SOL    HW2 2844   0.203   1.638   0.934  1.3130  1.0383  0.5133
  949SOL     OW 2845   0.840   0.733   2.305  0.4010  0.2982 -0.0368
  949SOL    HW1 2846   0.900   0.795   2.250 -0.0803 -1.1223  0.7702
  949SOL    HW2 2847   0.876   0.714   2.396  0.3437  1.1456 -2.4340
  950SOL     OW 2848   0.140   0.674   1.305 -0.3208  0.6340 -0.1946
  950SOL    HW1 2849   0.163   0.757   1.364  1.7958 -0.0741 -0.2926
  950SOL    HW2 2850   0.037   0.656   1.303 -2.8589  1.3487  0.6684
  951SOL     OW 2851   0.880   1.471   2.407 -0.9644  0.0586  0.8697
  951SOL    HW1 2852   0.857   1.571   2.435 -0.1913  2.0393  1.4058
  951SOL    HW2 2853   0.941   1.473   2.322  0.7867 -1.5112  0.1197
  952SOL     OW 2854   1.819   2.173   0.978  0.5805  0.2294  0.2488
  952SOL    HW1 2855   1.861   2.088   0.939 -0.1255 -0.7730 -0.7140
  952SOL    HW2 2856   1.716   2.164   0.984  1.4458 -0.5371 -0.0767
  953SOL     OW 2857   0.735   0.798   0.072  0.5913 -0.4199 -0.5756
  953SOL    HW1 2858   0.778   0.822   0.160 -2.1197 -0.6741 -2.1706
  953SOL    HW2 2859   0.661   0.863   0.055  1.5490 -1.1957 -0.4450
  954SOL     OW 2860   2.104   0.867   1.086  0.9761  0.1032 -0.0424
  954SOL    HW1 2861   2.124   0.794   1.016  2.0249 -0.2200  0.2646
  954SOL    HW2 2862   2.002   0.880   1.100 -2.2647  0.5731 -0.6375
  955SOL     OW 2863   2.105   1.240   0.524  0.1732  0.2129  0.1178
  955SOL    HW1 2864   2.196   1.236   0.480  2.0683  0.1484 -1.7078
  955SOL    HW2 2865   2.029   1.219   0.459 -1.4649 -2.1251 -1.2078
  956SOL     OW 2866   0.934   0.719   1.846 -0.2047  0.2639  0.2022
  956SOL    HW1 2867   0.940   0.631   1.888  0.2393 -0.4035  0.3387
  956SOL    HW2 2868   0.997   0.781   1.899 -2.7610  0.0453 -0.6169
  957SOL     OW 2869   1.894   0.243   1.246 -0.5539 -0.1672  0.2908
  957SOL    HW1 2870   1.812   0.292   1.285 -0.5158 -1.0820 -0.5280
  957SOL    HW2 2871   1.916   0.159   1.298 -0.2434  1.2359 -1.0208
  958SOL     OW 2872   0.214   2.016   0.527 -0.0959 -0.1742 -0.1137
  958SOL    HW1 2873   0.273   2.002   0.446 -1.0049  1.6821 -0.9434
  958SOL    HW2 2874   0.243   1.959   0.610 -1.6059 -2.1701  1.0534
  959SOL     OW 2875   2.231   1.092   1.773  0.1317  0.5994  0.2094
  959SOL    HW1 2876   2.187   1.042   1.697 -0.7483  0.2682  2.0862
  959SOL    HW2 2877   2.209   1.191   1.767  1.5953  2.1252 -2.3645
  960SOL     OW 2878   3.126   2.012   2.978  0.6160  0.9241 -0.1695
  960SOL    HW1 2879   0.051   2.016   3.050 -0.7634  1.4718  0.6420
  960SOL    HW2 2880   3.039   2.044   3.023 -0.5115  0.2531  1.5804
  961SOL     OW 2881   0.451   1.802   1.598 -0.4367 -0.3173 -0.0413
  961SOL    HW1 2882   0.413   1.712   1.605  0.4995 -1.3470  3.2364
  961SOL    HW2 2883   0.513   1.811   1.679 -2.2220 -0.4669  1.8623
  962SOL     OW 2884   1.122   1.162   0.781  0.4460 -0.5020 -0.0027
  962SOL    HW1 2885   1.166   1.149   0.873 -1.5956  0.9027  0.2171
  962SOL    HW2 2886   1.105   1.263   0.768  0.8100 -0.9591  1.2028
  963SOL     OW 2887   1.167   1.958   2.670 -0.0858  0.1334  0.1260
  963SOL    HW1 2888   1.257   1.917   2.639  2.5946  0.9521 -0.5344
  963SOL    HW2 2889   1.177   2.018   2.751  1.5928 -0.4173  0.4149
  964SOL     OW 2890   0.181   3.006   2.056  0.2543  0.1871  0.6688
  964SOL    HW1 2891   0.138   2.936   1.994 -0.8017 -1.2926 -1.7850
  964SOL    HW2 2892   0.254   2.962   2.109  0.5042 -0.8498  0.5462
  965SOL     OW 2893   0.459   2.123   2.625 -0.2804 -0.0034 -0.4869
  965SOL    HW1 2894   0.411   2.036   2.638  0.6068  1.4697 -0.0708
  965SOL    HW2 2895   0.431   2.189   2.691 -2.1209 -1.7379 -2.0155
  966SOL     OW 2896   0.099   1.718   3.045  0.2237  0.0367 -0.5104
  966SOL    HW1 2897   0.025   1.670   2.987  1.3381  0.4316  2.1633
  966SOL    HW2 2898   0.121   1.803   2.996 -0.7325 -1.8111 -0.3684
  967SOL     OW 2899   2.031   3.114   0.244 -0.2169  0.4315 -0.1783
  967SOL    HW1 2900   2.059   3.029   0.295  2.7395  1.1199 -2.8279
  967SOL    HW2 2901   1.936   3.115   0.217  0.9872  1.6019  1.5882
  968SOL     OW 2902   2.519   3.089   0.720 -0.6117 -0.3785  0.0398
  968SOL    HW1 2903   2.451   3.017   0.726 -1.5102 -0.9107  1.8134
  968SOL    HW2 2904   2.485   0.010   0.645  1.4395 -1.8453  1.6054
  969SOL     OW 2905   0.307   1.292   1.988 -0.5912 -0.4564  0.0235
  969SOL    HW1 2906   0.333   1.358   1.917 -0.6463 -0.4406 -0.3294
  969SOL    HW2 2907   0.214   1.254   1.970  3.4564  2.8161  0.8129
  970SOL     OW 2908   1.780   1.691   0.295 -0.7892  0.5883  0.6574
  970SOL    HW1 2909   1.841   1.735   0.365  0.4985 -1.4556 -0.8178
  970SOL    HW2 2910   1.704   1.753   0.269 -1.0838  0.2428  1.2398
  971SOL     OW 2911   2.480   2.987   1.537 -0.0855  0.4838  0.1076
  971SOL    HW1 2912   2.577   3.018   1.541 -1.6822  0.7373 -1.6683
  971SOL    HW2 2913   2.442   2.974   1.445 -1.9356  2.4263 -3.3982
  972SOL     OW 2914   2.714   0.206   1.132 -0.1258  0.4770  0.0958
  972SOL    HW1 2915   2.663   0.145   1.067 -1.2548 -1.8687  1.8511
  972SOL    HW2 2916   2.764   0.275   1.084  0.9221 -0.2604  0.1966
  973SOL     OW 2917   0.466   0.542   2.497  0.1818  0.0922 -0.2589
  973SOL    HW1 2918   0.398   0.503   2.563 -0.1737 -0.0154 -2.1434
  973SOL    HW2 2919   0.425   0.624   2.456  1.1441 -0.4772 -1.2933
  974SOL     OW 2920   2.645   1.399   2.271  0.6701 -0.2798 -0.1623
  974SOL    HW1 2921   2.544   1.374   2.255  2.2393 -0.5768 -0.9751
  974SOL    HW2 2922   2.677   1.440   2.183 -2.6397  0.8518  0.8340
  975SOL     OW 2923   0.935   0.189   1.634 -0.4277  0.0433 -0.3856
  975SOL    HW1 2924   0.981   0.282   1.640 -0.2562  1.2761  0.5281
  975SOL    HW2 2925   1.010   0.122   1.630  2.3041  1.8021 -0.0968
  976SOL     OW 2926   1.268   1.647   1.530  0.3446 -0.5924 -0.1955
  976SOL    HW1 2927   1.243   1.745   1.564  1.3418 -1.1058  1.2720
  976SOL    HW2 2928   1.281   1.586   1.614 -0.4049 -3.4612  3.9190
  977SOL     OW 2929   0.586   2.946   0.140 -0.2610 -0.2822  0.2863
  977SOL    HW1 2930   0.623   2.891   0.213 -3.2908  0.1680 -0.5363
  977SOL    HW2 2931   0.647   3.023   0.114 -0.7841 -2.5579 -1.8503
  978SOL     OW 2932   2.393   1.332   2.222 -0.3989 -0.4783  0.0169
  978SOL    HW1 2933   2.352   1.260   2.166 -4.1018  2.2267 -0.4549
  978SOL    HW2 2934   2.367   1.316   2.323  3.7487  0.6620  1.6696
  979SOL     OW 2935   1.448   0.322   1.580 -0.3517 -0.3368  0.0050
  979SOL    HW1 2936   1.381   0.359   1.648  1.8602  2.7474 -1.2465
  979SOL    HW2 2937   1.546   0.335   1.610  1.7907  2.5578  0.3495
  980SOL     OW 2938   1.763   1.609   2.229 -0.3075  0.3496  0.1203
  980SOL    HW1 2939   1.814   1.622   2.142 -1.1524  2.0292 -0.3798
  980SOL    HW2 2940   1.703   1.527   2.216  2.9499  1.1351  0.7719
  981SOL     OW 2941   1.840   0.537   1.521 -0.5492 -0.5531  0.1910
  981SOL    HW1 2942   1.876   0.628   1.481  2.1351  0.3873  0.1087
  981SOL    HW2 2943   1.920   0.477   1.543 -1.3600 -0.3314 -1.7538
  982SOL     OW 2944   0.660   0.304   2.751 -0.1227 -0.1481 -0.3150
  982SOL    HW1 2945   0.683   0.397   2.707  1.4005  2.9951 -0.0753
  982SOL    HW2 2946   0.567   0.310   2.802 -1.3707  1.3093  0.9774
  983SOL     OW 2947   2.109   0.569   0.099  0.2349 -0.0961 -0.5823
  983SOL    HW1 2948   2.013   0.592   0.115  2.4117 -0.5480 -0.0458
  983SOL    HW2 2949   2.128   0.513   0.020 -0.1586  1.9493  0.7273
  984SOL     OW 2950   0.962   0.439   1.932 -0.1126  0.2453  0.1605
  984SOL    HW1 2951   0.907   0.402   1.852 -0.4343  1.3809  0.5345
  984SOL    HW2 2952   0.915   0.420   2.022  0.7521 -2.0448 -0.3435
  985SOL     OW 2953   1.488   1.955   2.244  0.5282 -0.0374  0.0298
  985SOL    HW1 2954   1.392   1.928   2.213  1.2400 -0.4664 -0.7720
  985SOL    HW2 2955   1.563   1.892   2.216 -1.1265 -0.1027 -0.4539
  986SOL     OW 2956   2.762   2.913   1.957  0.2939  0.9753  0.2289
  986SOL    HW1 2957   2.782   2.946   2.050 -0.6101 -1.1418 -0.6600
  986SOL    HW2 2958   2.758   2.990   1.889  2.4271 -0.2079 -3.1592
  987SOL     OW 2959   1.981   1.204   1.326  0.1039  0.0516  0.0191
  987SOL    HW1 2960   2.038   1.202   1.239 -0.5201 -0.7515 -2.1105
  987SOL    HW2 2961   1.885   1.181   1.304  2.7723 -2.4417 -0.3525
  988SOL     OW 2962   2.610   1.815   2.406 -0.2738 -0.0990  0.5065
  988SOL    HW1 2963   2.704   1.843   2.453  0.7922  0.3425 -0.0425
  988SOL    HW2 2964   2.580   1.721   2.437 -0.9348  1.9821  0.1908
  989SOL     OW 2965   1.193   2.286   0.260 -0.4407  0.2146  0.6113
  989SOL    HW1 2966   1.173   2.355   0.186  0.2933 -0.4733 -1.9772
  989SOL    HW2 2967   1.177   2.331   0.348 -0.4985  0.4560 -0.2320
  990SOL     OW 2968   1.995   0.373   2.868  0.3107 -0.3840  0.0452
  990SOL    HW1 2969   1.987   0.474   2.852  1.5342  0.2265 -0.5692
  990SOL    HW2 2970   2.037   0.329   2.788 -1.1671  0.6653 -0.6827
  991SOL     OW 2971   1.103   0.413   0.779  0.0316 -0.2642 -0.4137
  991SOL    HW1 2972   1.130   0.468   0.860 -0.7323  1.7581  1.1055
  991SOL    HW2 2973   1.057   0.476   0.716 -0.0069 -2.9245 -0.4715
  992SOL     OW 2974   2.394   0.810   1.135  0.2712  0.0125  0.3906
  992SOL    HW1 2975   2.440   0.859   1.206  1.0488  0.4718 -0.6856
  992SOL    HW2 2976   2.300   0.841   1.133 -1.6237  1.4716 -3.5331
  993SOL     OW 2977   2.134   0.701   1.864  0.0886 -0.5503  0.0881
  993SOL    HW1 2978   2.192   0.701   1.782 -0.4379  2.4215 -0.2681
  993SOL    HW2 2979   2.090   0.608   1.869 -0.7387 -1.1251 -0.0399
  994SOL     OW 2980   0.999   1.707   2.662  0.4912  0.1568 -1.0753
  994SOL    HW1 2981   1.026   1.802   2.672  1.0989 -0.5358  0.2919
  994SOL    HW2 2982   0.923   1.697   2.600  2.1023  0.5093  1.4833
  995SOL     OW 2983   2.148   1.074   2.944  0.0900 -0.2938 -0.4900
  995SOL    HW1 2984   2.156   1.168   2.982  0.6881  1.1193 -0.4393
  995SOL    HW2 2985   2.239   1.047   2.917 -0.9027  0.1453 -3.7685
  996SOL     OW 2986   2.185   2.086   0.708  0.3160  0.2094  0.1826
  996SOL    HW1 2987   2.093   2.072   0.747 -1.9209  0.6508 -0.1284
  996SOL    HW2 2988   2.246   2.002   0.714  2.6534 -1.8491  1.7420
  997SOL     OW 2989   2.128   0.701   2.163  0.0397 -0.3104 -0.2027
  997SOL    HW1 2990   2.065   0.628   2.204 -2.0829 -0.2536 -0.1433
  997SOL    HW2 2991   2.118   0.696   2.061 -0.5684 -1.1556 -1.9223
  998SOL     OW 2992   2.843   1.185   0.800 -0.0318 -0.2004 -0.0832
  998SOL    HW1 2993   2.901   1.266   0.808 -0.3740  0.3840  1.1199
  998SOL    HW2 2994   2.796   1.165   0.890 -0.3259 -0.3277 -0.2127
  999SOL     OW 2995   2.890   1.558   0.564  0.1533 -0.7539  0.1681
  999SOL    HW1 2996   2.806   1.610   0.537 -1.3667 -1.7037  2.8370
  999SOL    HW2 2997   2.974   1.610   0.545 -4.0859 -0.4585  0.7469
 1000SOL     OW 2998   0.665   0.682   2.123 -0.1498  0.2760 -0.2454
 1000SOL    HW1 2999   0.725   0.687   2.207 -3.0149 -2.0743 -2.1958
 1000SOL    HW2 3000   0.571   0.688   2.162 -2.2853 -1.2287  3.0717
   3.14690   3.14690   3.14690
