1000 SPC/Fw water molecules t=  57.00000 step= 57000
 3000
    1SOL     OW    1   2.128   2.640   0.833  0.1366  0.1216 -0.0229
    1SOL    HW1    2   2.051   2.623   0.762  0.7457 -0.1983 -1.1002
    1SOL    HW2    3   2.122   2.733   0.869 -0.1303 -0.7550  0.7211
    2SOL     OW    4   1.016   1.036   2.601 -0.3667 -0.0896 -0.4513
    2SOL    HW1    5   0.998   1.131   2.634  1.5410  2.3607 -0.3608
    2SOL    HW2    6   1.119   1.025   2.599 -0.7106 -2.9021  1.6857
    3SOL     OW    7   1.178   2.754   2.754 -1.0836 -0.2860 -0.1910
    3SOL    HW1    8   1.271   2.795   2.755  0.3933 -1.0284 -0.3624
    3SOL    HW2    9   1.188   2.658   2.717  0.2627 -0.4256  0.6113
    4SOL     OW   10   1.374   1.490   2.877 -0.0007  0.1419 -0.0004
    4SOL    HW1   11   1.425   1.407   2.912 -1.1566  3.6295  1.2006
    4SOL    HW2   12   1.443   1.560   2.841  1.8985  3.5053 -0.4248
    5SOL     OW   13   1.009   0.810   1.897 -0.3397  0.2135 -0.0594
    5SOL    HW1   14   1.037   0.714   1.909 -2.5211  1.6942  1.5366
    5SOL    HW2   15   0.908   0.819   1.897 -2.1462  2.3265 -2.2469
    6SOL     OW   16   1.963   0.673   2.397 -0.6981 -0.2788 -0.6006
    6SOL    HW1   17   2.022   0.615   2.340  0.1435  1.1599  1.1655
    6SOL    HW2   18   1.955   0.631   2.489  0.1293  2.8633 -0.8679
    7SOL     OW   19   0.330   0.704   1.778  0.0950 -0.7949  0.1974
    7SOL    HW1   20   0.310   0.630   1.715  1.2534  1.2377  1.6756
    7SOL    HW2   21   0.275   0.700   1.863  0.9549 -0.6872  0.7021
    8SOL     OW   22   1.918   3.014   2.077 -0.1278 -0.9340  0.1006
    8SOL    HW1   23   1.867   2.934   2.046  0.1902 -3.6015  1.6134
    8SOL    HW2   24   1.868   3.098   2.108  2.7487  0.2748  0.1275
    9SOL     OW   25   0.224   0.015   0.532  0.1415 -0.2413  0.6367
    9SOL    HW1   26   0.155   3.075   0.475 -1.3684 -0.5945 -1.2041
    9SOL    HW2   27   0.312   3.097   0.490 -4.2606  1.3669  1.6761
   10SOL     OW   28   0.447   2.267   2.197  0.1304  0.0817  0.5124
   10SOL    HW1   29   0.474   2.325   2.278 -0.4070 -0.0241  4.0700
   10SOL    HW2   30   0.535   2.239   2.155  2.8852 -1.2236  1.7622
   11SOL     OW   31   0.854   1.662   0.136 -0.0194 -0.4456 -0.6016
   11SOL    HW1   32   0.794   1.617   0.068  0.4459 -3.8295  1.7677
   11SOL    HW2   33   0.814   1.640   0.229 -1.0789 -1.0596  1.4990
   12SOL     OW   34   2.723   2.466   1.400  0.1540  0.3687  0.1943
   12SOL    HW1   35   2.641   2.442   1.454 -1.2707 -0.3559  2.0613
   12SOL    HW2   36   2.811   2.432   1.436 -0.4384  1.4605 -1.9484
   13SOL     OW   37   0.607   2.971   2.998 -0.5317 -0.6468  0.0857
   13SOL    HW1   38   0.640   3.067   2.981 -2.5397  1.0054 -2.5314
   13SOL    HW2   39   0.641   2.941   3.090  1.7393  1.1865  1.6477
   14SOL     OW   40   1.373   1.704   1.395 -0.1733  0.4432 -0.3485
   14SOL    HW1   41   1.332   1.771   1.459  1.3708  0.5674 -2.1998
   14SOL    HW2   42   1.465   1.688   1.436 -0.5692  0.9240  1.3344
   15SOL     OW   43   0.445   1.809   2.490 -0.0790 -0.4133  0.6780
   15SOL    HW1   44   0.541   1.785   2.470 -1.7962  1.4934  0.4017
   15SOL    HW2   45   0.417   1.894   2.442  2.2236  1.6083  1.4857
   16SOL     OW   46   1.749   0.701   2.983 -1.1459 -0.2849  0.1614
   16SOL    HW1   47   1.715   0.624   2.926  0.3242  0.2275  0.2919
   16SOL    HW2   48   1.673   0.770   2.983  1.7328  0.3521 -0.4593
   17SOL     OW   49   2.981   2.703   2.478 -0.6171 -0.4926  0.1829
   17SOL    HW1   50   2.962   2.618   2.535  1.4726  2.3411 -0.5756
   17SOL    HW2   51   2.980   2.681   2.380  1.5308 -1.7968 -3.0689
   18SOL     OW   52   1.255   1.101   0.849 -0.1796  0.0773 -0.3465
   18SOL    HW1   53   1.231   1.189   0.814  0.7920 -1.1203  3.1087
   18SOL    HW2   54   1.194   1.077   0.929 -4.1967 -0.3628  1.5220
   19SOL     OW   55   2.559   1.910   2.289  0.1055  0.1912  0.0218
   19SOL    HW1   56   2.633   1.890   2.359  1.8248 -0.1674  2.4278
   19SOL    HW2   57   2.562   2.007   2.277 -0.8665 -3.2505 -0.1806
   20SOL     OW   58   2.407   2.275   2.482  0.0232  1.1062  0.7202
   20SOL    HW1   59   2.377   2.304   2.388 -0.0086  2.2412 -1.2454
   20SOL    HW2   60   2.393   2.353   2.552 -0.8128  0.3571 -0.9744
   21SOL     OW   61   1.558   1.756   0.496  0.1401 -1.1595  0.1341
   21SOL    HW1   62   1.617   1.674   0.516 -1.3546  0.2908 -2.2274
   21SOL    HW2   63   1.607   1.842   0.529  0.3742  1.1114  3.2794
   22SOL     OW   64   2.402   2.068   1.298  0.9774 -0.1989  0.3107
   22SOL    HW1   65   2.449   1.983   1.324 -0.5817 -0.9438  0.1859
   22SOL    HW2   66   2.311   2.040   1.259  1.4444  1.2503  0.0119
   23SOL     OW   67   0.039   1.264   1.393  0.1312 -0.6158 -0.1579
   23SOL    HW1   68   0.050   1.359   1.361 -2.1405  2.3026  0.1283
   23SOL    HW2   69   3.055   1.254   1.428 -0.4278 -2.6294  3.1562
   24SOL     OW   70   2.209   1.300   1.998  0.7375 -0.2376 -0.4182
   24SOL    HW1   71   2.278   1.303   1.923  0.3517 -3.8818  0.1460
   24SOL    HW2   72   2.254   1.319   2.088 -0.2701  0.6707 -1.6854
   25SOL     OW   73   1.974   0.215   2.485  0.1860  0.3548  0.7063
   25SOL    HW1   74   1.874   0.204   2.490 -0.1841 -0.7923 -0.4465
   25SOL    HW2   75   2.013   0.129   2.442  1.9229  0.9236  0.2911
   26SOL     OW   76   0.827   0.220   0.279 -0.1973 -0.0406 -0.0508
   26SOL    HW1   77   0.737   0.184   0.265  0.4398  3.3954  1.0894
   26SOL    HW2   78   0.864   0.255   0.193 -1.1474  0.6810  3.6120
   27SOL     OW   79   0.729   1.760   0.939 -0.4223  0.1137  0.3091
   27SOL    HW1   80   0.707   1.711   0.854  0.4651  0.7758  3.6669
   27SOL    HW2   81   0.685   1.713   1.019 -1.3565  1.2830 -0.3323
   28SOL     OW   82   2.435   2.281   1.139  0.4089  0.1394  0.1040
   28SOL    HW1   83   2.438   2.198   1.196 -0.2142  0.2796 -0.3163
   28SOL    HW2   84   2.381   2.351   1.185  0.6295  0.1182 -1.9555
   29SOL     OW   85   2.056   0.072   1.889 -0.5874  0.0023 -0.0547
   29SOL    HW1   86   2.011   3.105   1.938  1.5110  0.1792 -2.5499
   29SOL    HW2   87   2.158   0.061   1.909 -0.5317 -1.6766  0.3489
   30SOL     OW   88   0.574   2.925   1.191 -0.0289 -0.8826  0.6103
   30SOL    HW1   89   0.523   2.955   1.272 -0.3935 -1.9638 -2.0041
   30SOL    HW2   90   0.627   2.999   1.135  0.3191  1.0795  1.3213
   31SOL     OW   91   0.062   1.951   2.057 -0.0002 -0.1873  0.2015
   31SOL    HW1   92   0.104   1.998   1.974  0.5632  0.8586  0.7194
   31SOL    HW2   93   0.078   1.852   2.050 -3.4552  1.4034  0.0652
   32SOL     OW   94   1.444   1.859   2.243 -0.5458  0.3543 -0.7269
   32SOL    HW1   95   1.365   1.847   2.186  0.8123  1.8429  0.4486
   32SOL    HW2   96   1.488   1.770   2.242 -4.6022  3.0344  0.5126
   33SOL     OW   97   0.321   0.186   2.988 -0.2859 -0.1302  0.0428
   33SOL    HW1   98   0.384   0.241   2.931  1.1195  0.4235  1.6835
   33SOL    HW2   99   0.316   0.091   2.948 -0.7153  0.8116 -1.8395
   34SOL     OW  100   2.454   2.975   0.416  0.1306 -0.4965 -0.5859
   34SOL    HW1  101   2.464   3.044   0.486 -2.7989 -1.3496 -1.1693
   34SOL    HW2  102   2.496   2.891   0.450 -1.5106  2.6674 -1.1161
   35SOL     OW  103   2.738   0.314   1.665  0.3460 -0.3366 -0.2226
   35SOL    HW1  104   2.734   0.379   1.745  2.4433 -0.0780  1.1182
   35SOL    HW2  105   2.832   0.304   1.623  0.9696  0.1598 -1.6112
   36SOL     OW  106   2.725   2.911   2.337  0.1641 -0.7563 -0.4522
   36SOL    HW1  107   2.677   2.865   2.413 -0.5098 -0.5246 -0.3490
   36SOL    HW2  108   2.811   2.865   2.305 -1.7940 -1.7252 -1.0339
   37SOL     OW  109   1.602   2.939   3.091  0.5047 -0.0115  0.0432
   37SOL    HW1  110   1.659   2.938   0.063  0.6734  1.6867 -0.1456
   37SOL    HW2  111   1.508   2.926   0.020  3.8122 -1.4300  0.6842
   38SOL     OW  112   0.014   0.856   3.061  0.7204  0.0081 -0.0099
   38SOL    HW1  113   3.059   0.781   3.034 -1.5032  2.1012 -0.1148
   38SOL    HW2  114   0.052   0.899   2.979 -0.3953  0.7340  1.1045
   39SOL     OW  115   1.574   1.812   1.896  0.2013  0.5647 -0.1968
   39SOL    HW1  116   1.540   1.893   1.840 -3.2882  0.1384 -2.3448
   39SOL    HW2  117   1.535   1.801   1.992  0.6831 -0.6184  1.0656
   40SOL     OW  118   0.126   0.528   2.701 -0.3400 -0.4498 -0.0114
   40SOL    HW1  119   0.038   0.477   2.712 -0.4641  0.6258  1.0257
   40SOL    HW2  120   0.188   0.495   2.630  0.1496 -0.2940  2.3872
   41SOL     OW  121   1.606   0.959   2.102 -0.0135 -0.4453 -0.2422
   41SOL    HW1  122   1.655   0.867   2.095  3.7633 -5.6458  1.6885
   41SOL    HW2  123   1.631   1.001   2.187 -1.3763 -1.4330  0.0435
   42SOL     OW  124   2.981   0.381   1.558 -0.0140  0.1319 -0.2063
   42SOL    HW1  125   2.937   0.471   1.556  1.1984  0.4649 -3.1108
   42SOL    HW2  126   3.063   0.371   1.614 -1.2319 -0.9030  0.5187
   43SOL     OW  127   1.371   1.226   1.583 -0.0657 -0.2847 -0.5114
   43SOL    HW1  128   1.384   1.324   1.606 -0.1015 -1.6249  0.1011
   43SOL    HW2  129   1.414   1.170   1.655  0.5205 -0.9508  1.9150
   44SOL     OW  130   3.070   0.352   2.793 -0.1734 -0.4736 -0.0931
   44SOL    HW1  131   0.023   0.361   2.873  0.3926  1.4689 -0.6385
   44SOL    HW2  132   2.973   0.319   2.814 -1.3577 -2.0548  0.6141
   45SOL     OW  133   0.322   2.090   1.365 -0.6516 -0.2823  0.0964
   45SOL    HW1  134   0.230   2.108   1.321  1.1608  0.0732  0.4831
   45SOL    HW2  135   0.391   2.084   1.288 -0.9019 -0.3127 -0.0257
   46SOL     OW  136   2.326   0.018   1.912  0.3969 -0.1698  0.4409
   46SOL    HW1  137   2.409   0.057   1.959 -1.3089  0.4317 -0.5786
   46SOL    HW2  138   2.352   3.075   1.828  1.2159 -2.0291 -2.2830
   47SOL     OW  139   0.313   1.909   1.056 -0.2284 -0.0310 -0.8665
   47SOL    HW1  140   0.334   1.865   0.969 -1.5759  1.5577 -0.2393
   47SOL    HW2  141   0.228   1.868   1.090 -0.2628  2.4933  0.0072
   48SOL     OW  142   0.664   2.890   0.141  0.0285  0.5702 -0.1866
   48SOL    HW1  143   0.669   2.963   0.212  2.3696 -0.3272  1.4647
   48SOL    HW2  144   0.579   2.835   0.151  2.7783  1.7558 -0.5908
   49SOL     OW  145   3.039   1.662   1.778 -0.0289 -0.2406 -0.7569
   49SOL    HW1  146   3.102   1.673   1.858 -2.0928 -1.2935 -1.9679
   49SOL    HW2  147   3.024   1.568   1.751 -1.0161  0.7863 -1.3440
   50SOL     OW  148   1.446   0.025   0.542  0.4966 -0.0228 -0.3078
   50SOL    HW1  149   1.534   0.050   0.502 -0.0526 -1.3812 -3.2232
   50SOL    HW2  150   1.387   0.108   0.560 -0.0569  1.6821 -0.7377
   51SOL     OW  151   1.239   0.215   1.191  0.8447  0.6910  0.0318
   51SOL    HW1  152   1.211   0.231   1.287 -1.1799  1.3159  0.3548
   51SOL    HW2  153   1.313   0.278   1.166 -0.9736 -1.0968  1.3576
   52SOL     OW  154   0.656   1.368   0.382  0.7810  0.4795 -0.1675
   52SOL    HW1  155   0.573   1.342   0.329  2.1075  0.1809 -1.1943
   52SOL    HW2  156   0.732   1.309   0.341  0.9067 -1.0515  0.0930
   53SOL     OW  157   1.382   2.931   2.493  0.0856  0.4464  0.1652
   53SOL    HW1  158   1.467   2.891   2.442  1.5218 -3.0974 -0.2190
   53SOL    HW2  159   1.389   2.905   2.595  1.3300  1.1048 -0.3771
   54SOL     OW  160   1.739   0.611   1.811 -0.0216 -0.5970  0.5736
   54SOL    HW1  161   1.774   0.682   1.746 -0.1507 -0.2659  0.4963
   54SOL    HW2  162   1.813   0.547   1.839 -1.7805  0.2458  1.3127
   55SOL     OW  163   3.013   2.571   0.452  0.1211  0.1716  0.2686
   55SOL    HW1  164   3.084   2.641   0.479 -0.2720 -1.3492  1.5375
   55SOL    HW2  165   3.068   2.485   0.452  0.3551 -1.3751 -0.2159
   56SOL     OW  166   0.964   2.908   1.661 -0.1820 -0.1091 -0.1262
   56SOL    HW1  167   0.914   2.953   1.590 -0.3402 -1.0025 -2.0716
   56SOL    HW2  168   1.036   2.847   1.622 -0.6858  3.1115  1.5363
   57SOL     OW  169   1.705   0.717   2.527 -0.8258  0.3167 -0.6551
   57SOL    HW1  170   1.802   0.713   2.499  0.0082  3.0981  5.8716
   57SOL    HW2  171   1.646   0.700   2.447  1.9623  1.8695  1.2045
   58SOL     OW  172   0.650   1.297   2.151 -0.3990  0.3073 -0.4017
   58SOL    HW1  173   0.658   1.361   2.076 -0.2239 -2.6900  1.3617
   58SOL    HW2  174   0.610   1.207   2.117 -0.8371  2.1685  0.6065
   59SOL     OW  175   0.670   2.497   2.101  0.2592  0.0385 -0.1756
   59SOL    HW1  176   0.652   2.402   2.071  2.9851  0.8974  0.0530
   59SOL    HW2  177   0.710   2.553   2.024 -1.1133 -1.9267 -0.2400
   60SOL     OW  178   2.578   2.497   0.291 -0.1299  0.0987 -0.1272
   60SOL    HW1  179   2.671   2.503   0.326 -1.6385  0.4829  2.5233
   60SOL    HW2  180   2.539   2.588   0.274 -0.7726 -1.3428  2.5135
   61SOL     OW  181   1.023   2.485   0.728 -0.6632 -0.3120  0.1804
   61SOL    HW1  182   1.034   2.477   0.829  0.7430 -0.1977  0.6140
   61SOL    HW2  183   1.111   2.481   0.677 -1.5825  0.5611  0.1597
   62SOL     OW  184   1.622   2.420   2.899  0.1285  0.2774 -0.7163
   62SOL    HW1  185   1.633   2.411   2.995 -0.3227  0.8009 -3.1203
   62SOL    HW2  186   1.528   2.447   2.877 -1.0244 -1.6285 -0.9483
   63SOL     OW  187   2.248   0.638   2.977 -0.9207  0.3540 -0.3381
   63SOL    HW1  188   2.248   0.730   3.018  2.3560 -1.5564  0.4707
   63SOL    HW2  189   2.322   0.574   3.012 -2.0592 -1.1843  2.0553
   64SOL     OW  190   1.183   1.237   0.249 -0.1219 -0.4406  0.1863
   64SOL    HW1  191   1.124   1.293   0.186 -1.3146  0.6294  1.1000
   64SOL    HW2  192   1.237   1.300   0.310  0.9004  2.1896  1.9255
   65SOL     OW  193   0.907   3.056   1.404  0.4876  0.0013 -0.0892
   65SOL    HW1  194   0.945   2.969   1.361 -2.0156  0.4392 -3.6057
   65SOL    HW2  195   0.896   0.013   1.331 -3.0086 -2.3205 -1.2735
   66SOL     OW  196   0.817   1.274   1.391  0.3936 -0.1520 -0.0966
   66SOL    HW1  197   0.813   1.182   1.431 -0.7112  1.2683  0.6745
   66SOL    HW2  198   0.876   1.278   1.311  0.6036 -1.4525  0.8586
   67SOL     OW  199   2.308   2.340   1.865  0.2498 -0.3420 -0.1508
   67SOL    HW1  200   2.389   2.372   1.914 -1.4793  1.8128  1.5244
   67SOL    HW2  201   2.329   2.287   1.785  1.3330  2.5821  0.6412
   68SOL     OW  202   1.092   1.320   1.818  0.1998 -0.4393 -0.5051
   68SOL    HW1  203   0.993   1.335   1.825 -0.8569  2.9205  1.9803
   68SOL    HW2  204   1.124   1.301   1.720  0.3184  0.5708 -0.4875
   69SOL     OW  205   2.843   2.747   0.083  0.1175  0.0140  0.0400
   69SOL    HW1  206   2.797   2.764   0.172  3.6151 -1.3605 -0.3905
   69SOL    HW2  207   2.821   2.818   0.011  0.7787  1.1366  0.2292
   70SOL     OW  208   2.557   0.825   2.467  0.1975 -0.2437 -0.1982
   70SOL    HW1  209   2.523   0.872   2.552 -0.4506  1.6914  2.2854
   70SOL    HW2  210   2.574   0.727   2.487 -0.0965 -1.1478  1.3139
   71SOL     OW  211   0.194   1.863   0.616 -0.4316  0.5266  0.4910
   71SOL    HW1  212   0.180   1.779   0.566  0.4611  4.4468 -0.1659
   71SOL    HW2  213   0.104   1.911   0.635  1.0022  1.3985 -1.1921
   72SOL     OW  214   2.599   1.894   0.470 -0.3452  0.0817 -0.3562
   72SOL    HW1  215   2.552   1.972   0.427 -0.6312 -1.2625  0.1454
   72SOL    HW2  216   2.562   1.804   0.447 -0.8204 -0.7821  1.3687
   73SOL     OW  217   1.067   0.324   0.679 -0.3220  0.0963  0.4027
   73SOL    HW1  218   1.048   0.415   0.638  1.5190 -0.2912  0.2453
   73SOL    HW2  219   1.030   0.309   0.769  0.6904 -1.9433 -3.4567
   74SOL     OW  220   2.534   2.427   1.991 -0.3452  0.3251  0.4606
   74SOL    HW1  221   2.635   2.425   1.982 -0.7048  0.5587 -0.9505
   74SOL    HW2  222   2.507   2.518   2.020  1.7294  0.1732 -0.1093
   75SOL     OW  223   1.740   1.657   1.746  0.3596 -0.0625 -0.2521
   75SOL    HW1  224   1.668   1.683   1.812  2.4473  1.5279 -0.4111
   75SOL    HW2  225   1.748   1.554   1.756  3.6713 -1.6794  0.8999
   76SOL     OW  226   1.066   1.906   1.157 -0.2851  0.3052  0.0685
   76SOL    HW1  227   1.162   1.890   1.136 -1.2858  1.8613  0.3546
   76SOL    HW2  228   1.027   1.814   1.186  0.8157 -0.9183  1.5470
   77SOL     OW  229   2.757   1.627   1.923 -1.3943 -0.0498  0.3796
   77SOL    HW1  230   2.776   1.653   2.023 -0.4832  2.1346  2.7187
   77SOL    HW2  231   2.847   1.629   1.873  3.7769 -0.4735  1.4546
   78SOL     OW  232   1.816   0.617   0.612 -0.3352 -0.1694 -0.1733
   78SOL    HW1  233   1.832   0.638   0.709  2.4447  1.4040  0.6654
   78SOL    HW2  234   1.775   0.696   0.564  2.3051 -1.3585  0.9312
   79SOL     OW  235   1.677   1.230   1.994  0.6964  0.1928  0.2282
   79SOL    HW1  236   1.761   1.270   2.034  1.4227  2.4493  0.8342
   79SOL    HW2  237   1.667   1.134   2.037  2.0833  0.6488 -0.3165
   80SOL     OW  238   1.046   0.564   1.668  0.0168  0.0190 -0.5048
   80SOL    HW1  239   1.119   0.624   1.628 -1.8104  1.2026 -0.0732
   80SOL    HW2  240   1.058   0.546   1.768 -0.1177 -3.9890  1.3130
   81SOL     OW  241   0.784   2.596   0.635 -0.3896  0.1679 -0.3390
   81SOL    HW1  242   0.783   2.688   0.683  1.0248  2.2597  1.1740
   81SOL    HW2  243   0.872   2.551   0.649  1.8628 -0.9170 -1.0269
   82SOL     OW  244   1.261   0.364   1.796 -0.5416 -0.1815  0.1381
   82SOL    HW1  245   1.349   0.405   1.751 -0.3581  1.7714  0.1077
   82SOL    HW2  246   1.225   0.289   1.741 -2.4923  0.9941  0.2830
   83SOL     OW  247   0.200   2.315   0.725 -0.1343  0.1866 -0.2738
   83SOL    HW1  248   0.255   2.231   0.723 -0.2645 -0.9046  0.4976
   83SOL    HW2  249   0.171   2.336   0.821  1.6444  0.3337 -1.3083
   84SOL     OW  250   2.567   1.564   2.986  0.5333  0.1067 -0.5056
   84SOL    HW1  251   2.608   1.496   2.920 -1.6678 -1.6974 -0.8874
   84SOL    HW2  252   2.624   1.648   2.988 -1.0255  0.4519 -0.2596
   85SOL     OW  253   2.615   2.240   1.754  0.5122  0.2964 -0.0384
   85SOL    HW1  254   2.522   2.208   1.734  0.9082  1.4865 -1.7129
   85SOL    HW2  255   2.643   2.205   1.849  0.5004 -0.3918  1.6809
   86SOL     OW  256   1.697   2.600   1.174  0.3312  0.1374  0.1714
   86SOL    HW1  257   1.754   2.652   1.235 -1.1167  0.4224  0.0384
   86SOL    HW2  258   1.683   2.656   1.093  1.9392  0.3155 -0.2243
   87SOL     OW  259   2.522   1.631   0.386  0.1212 -0.0895 -0.2133
   87SOL    HW1  260   2.422   1.649   0.414 -1.4510  1.2049  1.2730
   87SOL    HW2  261   2.527   1.583   0.297 -2.9910 -1.3650 -1.0186
   88SOL     OW  262   1.029   0.279   0.946 -0.2285  0.4817 -0.1326
   88SOL    HW1  263   1.006   0.186   0.982  0.9814 -0.0336 -1.2006
   88SOL    HW2  264   0.990   0.353   1.004  0.4060  1.2739  0.2282
   89SOL     OW  265   0.731   0.013   1.799 -0.0585  0.1152 -0.4751
   89SOL    HW1  266   0.788   0.095   1.782 -0.0005 -0.7951 -1.4261
   89SOL    HW2  267   0.786   3.048   1.846 -0.1356  0.8441 -0.4489
   90SOL     OW  268   2.909   1.754   0.838 -0.5059 -0.2715 -0.2360
   90SOL    HW1  269   2.833   1.790   0.778 -0.4404 -0.3618 -0.0180
   90SOL    HW2  270   2.938   1.663   0.804 -1.4101 -0.1957  2.8474
   91SOL     OW  271   0.946   1.656   1.260 -0.1096  0.3308 -0.2362
   91SOL    HW1  272   0.891   1.728   1.313 -1.3084 -0.4840  2.4055
   91SOL    HW2  273   1.015   1.616   1.318  1.2887  2.1886 -0.7142
   92SOL     OW  274   2.549   0.031   1.554  0.3340 -0.1207  0.0005
   92SOL    HW1  275   2.510   0.124   1.568  0.1557 -0.2572 -0.6413
   92SOL    HW2  276   2.645   0.014   1.586 -3.1677 -1.0662  0.0509
   93SOL     OW  277   0.367   1.113   2.839 -0.1794  0.0989 -0.4680
   93SOL    HW1  278   0.460   1.068   2.867 -0.0427 -2.9831  0.8671
   93SOL    HW2  279   0.383   1.186   2.769  0.7970  1.9559 -4.5537
   94SOL     OW  280   2.520   0.147   2.074  0.0227  0.2356  0.1620
   94SOL    HW1  281   2.514   0.226   2.141 -2.5447 -0.9953 -0.9275
   94SOL    HW2  282   2.586   0.165   1.996  1.9455  0.4062  0.3857
   95SOL     OW  283   1.576   0.650   2.313 -0.1584 -0.5760 -0.1406
   95SOL    HW1  284   1.494   0.608   2.360  0.3437 -1.3599 -0.0663
   95SOL    HW2  285   1.561   0.653   2.211 -0.1878  0.1777  4.3843
   96SOL     OW  286   2.862   0.667   1.829  0.0063 -0.5348 -0.5718
   96SOL    HW1  287   2.787   0.601   1.828  0.9916 -0.0347 -1.7238
   96SOL    HW2  288   2.841   0.763   1.859  1.5577  0.1769  0.0511
   97SOL     OW  289   2.068   2.990   1.682  0.2018 -0.3603  0.1317
   97SOL    HW1  290   2.170   2.980   1.684 -2.2683  0.0703 -1.0114
   97SOL    HW2  291   2.052   3.073   1.736  1.7085 -0.2253 -1.4247
   98SOL     OW  292   2.181   2.589   1.773 -0.1123  0.2281  0.0716
   98SOL    HW1  293   2.221   2.495   1.800  0.4356 -0.6491 -0.6398
   98SOL    HW2  294   2.128   2.636   1.848  0.6352  2.3788  0.9693
   99SOL     OW  295   2.740   0.684   1.362  0.8529  0.9154  0.6900
   99SOL    HW1  296   2.699   0.590   1.354  1.9625 -1.1202  1.1285
   99SOL    HW2  297   2.792   0.698   1.447 -0.9664  0.5173 -2.2793
  100SOL     OW  298   2.484   1.880   1.895  0.3178 -0.2814  0.1198
  100SOL    HW1  299   2.397   1.895   1.937  2.5613  1.5615 -3.0790
  100SOL    HW2  300   2.557   1.940   1.929  4.0226  0.3816  0.9856
  101SOL     OW  301   2.121   0.076   0.149  0.1374 -0.1355 -0.0532
  101SOL    HW1  302   2.153   0.000   0.090 -1.9235  0.8169 -1.3890
  101SOL    HW2  303   2.150   0.167   0.112 -0.7688  1.2890 -0.2921
  102SOL     OW  304   0.675   0.508   1.193  0.6054 -0.0479  0.1982
  102SOL    HW1  305   0.720   0.459   1.268  0.2593  1.0852 -1.5905
  102SOL    HW2  306   0.611   0.448   1.134 -0.7870 -1.4471 -1.8026
  103SOL     OW  307   2.827   0.054   2.343 -0.5440  0.2217  0.0186
  103SOL    HW1  308   2.785   3.067   2.337  2.5823 -1.3714  2.9623
  103SOL    HW2  309   2.917   0.060   2.291  2.8718  0.7617  1.2657
  104SOL     OW  310   0.200   2.663   1.482 -0.0377 -0.3269 -0.4714
  104SOL    HW1  311   0.280   2.694   1.541  0.5498  1.3927  1.9084
  104SOL    HW2  312   0.172   2.569   1.518 -1.9004  1.3878 -1.2065
  105SOL     OW  313   1.297   1.506   1.971  0.4737 -0.1065  0.6445
  105SOL    HW1  314   1.351   1.441   2.027  1.1985 -1.3998 -0.8047
  105SOL    HW2  315   1.206   1.465   1.950 -1.5703 -0.8896  0.2532
  106SOL     OW  316   1.888   0.341   0.679 -0.4638 -0.0260  0.0328
  106SOL    HW1  317   1.946   0.354   0.761 -0.8978 -1.2225 -2.7128
  106SOL    HW2  318   1.844   0.426   0.649  1.9260 -0.5665  0.1683
  107SOL     OW  319   0.682   0.925   1.364  0.3668 -0.4741  0.3860
  107SOL    HW1  320   0.657   0.830   1.394  2.1520 -1.5137 -0.5935
  107SOL    HW2  321   0.624   0.956   1.285 -1.5907  0.6882 -1.1754
  108SOL     OW  322   3.104   0.581   2.254  0.0508 -0.0674  0.4489
  108SOL    HW1  323   3.080   0.564   2.156  2.4266  1.4691 -0.3485
  108SOL    HW2  324   3.049   0.522   2.315  1.1501  4.1019 -0.0045
  109SOL     OW  325   1.801   2.964   2.671 -0.1459  0.4808 -0.1513
  109SOL    HW1  326   1.754   2.882   2.714 -1.1234 -0.8411  0.5767
  109SOL    HW2  327   1.894   2.987   2.706 -0.9192  0.9432 -0.8838
  110SOL     OW  328   0.052   1.837   2.701  0.3750  0.3070 -0.1032
  110SOL    HW1  329   3.069   1.788   2.692 -1.5053 -0.0599  0.6987
  110SOL    HW2  330   0.057   1.870   2.798 -0.3814 -4.0291 -2.1300
  111SOL     OW  331   2.685   0.665   2.244 -0.2184  0.4633  0.0054
  111SOL    HW1  332   2.632   0.682   2.330  3.3828 -0.1163  1.8105
  111SOL    HW2  333   2.716   0.569   2.238 -2.8696  2.6021 -1.3691
  112SOL     OW  334   2.772   2.708   1.259  0.1930 -0.4819  0.3338
  112SOL    HW1  335   2.743   2.611   1.278 -0.9265 -0.8185 -0.4000
  112SOL    HW2  336   2.861   2.705   1.205  0.1917 -0.7696 -0.7449
  113SOL     OW  337   2.211   2.138   2.209 -0.0862  0.0908  0.6289
  113SOL    HW1  338   2.288   2.205   2.214  0.2377  0.4004  3.0226
  113SOL    HW2  339   2.126   2.180   2.247 -1.7099  1.4944 -0.2208
  114SOL     OW  340   0.111   0.451   0.190 -0.4849  0.0442 -0.4175
  114SOL    HW1  341   0.039   0.434   0.257  1.7368  2.0467 -0.8407
  114SOL    HW2  342   0.201   0.422   0.230 -0.7947 -1.0055  0.7655
  115SOL     OW  343   2.738   1.766   2.968 -0.1951 -0.0777 -0.2693
  115SOL    HW1  344   2.822   1.710   3.004 -0.3083  0.1561  2.2333
  115SOL    HW2  345   2.760   1.802   2.871  0.7401  0.0143 -3.3714
  116SOL     OW  346   3.090   1.257   1.849  0.1961 -0.0717 -0.7381
  116SOL    HW1  347   0.072   1.284   1.839 -2.5071 -2.5472 -1.0811
  116SOL    HW2  348   3.020   1.317   1.796 -4.1141  0.0588 -1.9876
  117SOL     OW  349   2.184   0.004   1.257 -0.3959  0.2647 -0.0123
  117SOL    HW1  350   2.099   3.094   1.207 -0.1452  0.5907 -0.2803
  117SOL    HW2  351   2.173   0.071   1.331  0.4624 -0.4030 -0.5253
  118SOL     OW  352   2.790   2.430   1.993 -0.6383 -0.2918 -0.0443
  118SOL    HW1  353   2.811   2.512   1.928 -0.6219  1.5641 -0.9643
  118SOL    HW2  354   2.880   2.389   2.023  2.1736 -1.2893 -1.5238
  119SOL     OW  355   0.813   1.852   1.372  0.3941  0.5006  0.0910
  119SOL    HW1  356   0.768   1.928   1.326  0.0688 -0.7150 -1.7781
  119SOL    HW2  357   0.759   1.803   1.443  2.5602  0.1265 -0.7414
  120SOL     OW  358   0.157   1.696   1.396  0.2716 -0.1222 -0.3999
  120SOL    HW1  359   0.178   1.727   1.488  0.7432 -2.4745 -3.1586
  120SOL    HW2  360   0.088   1.760   1.358  1.7898 -0.5427  2.0096
  121SOL     OW  361   1.938   1.369   0.981  0.4687 -0.4247 -0.4932
  121SOL    HW1  362   1.842   1.377   1.015 -0.1311  0.6343 -0.7744
  121SOL    HW2  363   1.971   1.271   0.990 -1.9841 -0.1170 -1.0194
  122SOL     OW  364   1.795   1.956   2.567  0.1901 -0.0669 -0.1070
  122SOL    HW1  365   1.824   1.950   2.474 -2.0915  1.0151 -0.8004
  122SOL    HW2  366   1.871   1.991   2.627 -1.0928  0.7382  2.4413
  123SOL     OW  367   2.981   3.106   0.147 -0.4360  0.3583 -0.1430
  123SOL    HW1  368   3.076   3.080   0.138  0.8799 -2.0077 -2.0601
  123SOL    HW2  369   2.943   0.007   0.240  0.8414 -0.0790  3.2894
  124SOL     OW  370   1.005   1.154   0.569 -0.5119  0.0141 -0.0549
  124SOL    HW1  371   0.990   1.124   0.667  1.1156  0.3999 -1.1842
  124SOL    HW2  372   1.105   1.140   0.555  0.2776  0.6025 -0.5081
  125SOL     OW  373   0.236   1.256   2.033  0.0428 -0.0302 -0.2578
  125SOL    HW1  374   0.254   1.294   1.943 -0.0790 -1.0300  2.5838
  125SOL    HW2  375   0.201   1.335   2.094 -1.7176  2.7937  1.6701
  126SOL     OW  376   0.038   2.435   0.144 -0.2380  0.2479  0.1184
  126SOL    HW1  377   0.129   2.416   0.185  0.7664  0.5444  3.4978
  126SOL    HW2  378   0.023   2.540   0.147  3.0661  1.1768 -1.8227
  127SOL     OW  379   2.862   1.786   0.358  0.4014 -0.1577  0.2945
  127SOL    HW1  380   2.866   1.864   0.292  0.5877  0.8059  0.8546
  127SOL    HW2  381   2.762   1.770   0.385  1.0370 -0.8942 -1.3115
  128SOL     OW  382   1.434   0.959   0.742 -0.6117  0.5009  0.2821
  128SOL    HW1  383   1.366   1.017   0.790  0.5767  3.4142  4.5107
  128SOL    HW2  384   1.512   0.940   0.808  0.1346  1.8540  2.4171
  129SOL     OW  385   2.406   1.927   1.004 -0.0650  0.0658  0.3637
  129SOL    HW1  386   2.322   1.915   1.062 -1.0548 -1.1252  1.2494
  129SOL    HW2  387   2.436   2.023   1.013  0.0597  0.0036  0.3024
  130SOL     OW  388   2.228   0.900   0.812 -0.2039 -0.0438  0.0647
  130SOL    HW1  389   2.323   0.886   0.854  3.5802  0.5360  0.0420
  130SOL    HW2  390   2.204   0.998   0.804 -0.6509 -0.4462  1.8457
  131SOL     OW  391   2.923   1.231   2.441 -0.1699 -0.1359  0.4076
  131SOL    HW1  392   2.844   1.162   2.436  1.5920  0.8291 -4.1251
  131SOL    HW2  393   3.006   1.179   2.468 -0.5582  0.5561 -0.4406
  132SOL     OW  394   1.453   1.344   2.115  0.7708  0.5157 -0.6750
  132SOL    HW1  395   1.439   1.278   2.192 -0.1776  2.1472 -0.7412
  132SOL    HW2  396   1.534   1.314   2.063  0.4135  1.4691  2.1219
  133SOL     OW  397   0.160   1.071   0.337 -0.1939  0.0294  0.0566
  133SOL    HW1  398   0.082   1.130   0.378 -1.1228 -0.0635 -1.0655
  133SOL    HW2  399   0.213   1.113   0.259  0.5505 -0.9629  0.5375
  134SOL     OW  400   2.776   1.120   0.284 -0.2157 -0.1130 -0.2800
  134SOL    HW1  401   2.822   1.051   0.220 -2.8476 -0.1184 -0.7735
  134SOL    HW2  402   2.680   1.132   0.253  0.8039 -1.9326 -2.5740
  135SOL     OW  403   1.523   0.732   0.093 -0.0143 -0.6188 -0.1641
  135SOL    HW1  404   1.514   0.788   0.007 -2.2074  1.1072  0.2873
  135SOL    HW2  405   1.526   0.797   0.169 -0.1440 -1.5926 -1.9768
  136SOL     OW  406   1.919   1.862   1.735  0.2390 -0.3556 -0.1645
  136SOL    HW1  407   1.864   1.774   1.740  1.5633  0.4652  2.6456
  136SOL    HW2  408   1.867   1.940   1.689 -1.0785  3.5517 -2.2035
  137SOL     OW  409   2.413   2.373   0.645  0.8017  0.3576 -0.3605
  137SOL    HW1  410   2.511   2.345   0.672  0.2492  0.1983 -1.8924
  137SOL    HW2  411   2.402   2.377   0.544  1.2952  3.4190  0.8820
  138SOL     OW  412   2.566   0.480   1.272 -0.2985 -0.3302 -0.5627
  138SOL    HW1  413   2.571   0.377   1.263 -3.8212 -2.8602  0.4784
  138SOL    HW2  414   2.549   0.525   1.184  0.0741 -0.7634 -1.3555
  139SOL     OW  415   2.484   0.285   2.876  0.7840 -0.0014  0.2613
  139SOL    HW1  416   2.467   0.340   2.953 -0.3225 -1.1472 -3.7267
  139SOL    HW2  417   2.560   0.222   2.882 -2.2573 -0.1842 -0.2865
  140SOL     OW  418   1.053   2.090   2.296  0.2085 -0.2677  0.3804
  140SOL    HW1  419   1.104   2.165   2.350  0.2915  2.8877 -0.8290
  140SOL    HW2  420   1.095   2.089   2.197  2.0116 -1.7939 -0.6523
  141SOL     OW  421   0.890   0.726   2.291 -0.4713 -0.6106 -0.6674
  141SOL    HW1  422   0.887   0.719   2.391 -1.8036  1.7133 -0.9896
  141SOL    HW2  423   0.948   0.809   2.266  1.5065  4.2503 -3.9746
  142SOL     OW  424   2.583   2.778   2.765  0.0141  0.2467  0.1720
  142SOL    HW1  425   2.501   2.833   2.749  2.1245  0.4000  1.4226
  142SOL    HW2  426   2.550   2.689   2.796  0.9288  2.6049  0.0215
  143SOL     OW  427   1.048   1.872   0.485  0.1297  0.0397  0.5022
  143SOL    HW1  428   1.110   1.939   0.441  0.5898  3.1438  0.5045
  143SOL    HW2  429   0.981   1.917   0.543 -1.7460 -1.9813 -1.0744
  144SOL     OW  430   1.307   2.877   0.055 -0.0771  0.7884 -0.4174
  144SOL    HW1  431   1.282   2.783   0.036 -1.2358 -1.6331  2.1247
  144SOL    HW2  432   1.227   2.943   0.031 -2.0295  1.7085 -0.4941
  145SOL     OW  433   1.578   2.199   2.510  0.2239 -0.1078 -0.2533
  145SOL    HW1  434   1.651   2.151   2.565  1.6615  0.9439  1.0161
  145SOL    HW2  435   1.582   2.181   2.410 -0.7337 -0.5850 -0.9957
  146SOL     OW  436   2.335   3.092   2.891 -0.4000  0.1976 -0.2989
  146SOL    HW1  437   2.435   0.001   2.905 -0.5568 -1.2612  4.2446
  146SOL    HW2  438   2.278   0.057   2.847  2.3829 -0.7801 -1.0584
  147SOL     OW  439   2.878   1.041   1.169  0.1664 -0.2984 -0.0633
  147SOL    HW1  440   2.804   1.009   1.226  1.4198 -0.4451  0.0603
  147SOL    HW2  441   2.890   1.137   1.170 -0.2860 -1.5090  0.0609
  148SOL     OW  442   2.246   2.772   0.096 -0.0385 -0.1661  0.2314
  148SOL    HW1  443   2.205   2.791   0.187  0.5390  1.6346 -0.7549
  148SOL    HW2  444   2.203   2.838   0.033 -0.5708  1.5733  0.4225
  149SOL     OW  445   0.609   1.926   2.821 -0.0938 -0.3567 -0.2897
  149SOL    HW1  446   0.673   1.845   2.835  0.7916 -2.7576 -0.7986
  149SOL    HW2  447   0.577   1.924   2.725  1.2414 -0.3414  2.1322
  150SOL     OW  448   0.452   2.549   0.405 -0.1402 -0.1298 -0.5881
  150SOL    HW1  449   0.536   2.504   0.375  1.4545 -1.0220 -1.5434
  150SOL    HW2  450   0.438   2.527   0.502 -0.7822 -0.2670 -0.6630
  151SOL     OW  451   0.307   1.092   0.103 -0.2423 -0.1775 -0.1169
  151SOL    HW1  452   0.350   1.003   0.074  1.3115 -1.8460 -2.5465
  151SOL    HW2  453   0.252   1.124   0.026  1.1295  0.7775  0.9139
  152SOL     OW  454   2.844   2.119   0.693  0.6635  0.2412 -0.1394
  152SOL    HW1  455   2.821   2.151   0.791 -0.2709 -0.3755 -1.5206
  152SOL    HW2  456   2.825   2.189   0.624 -0.3944  0.3985  0.3034
  153SOL     OW  457   1.784   2.348   0.765  0.2098  0.3089  0.3303
  153SOL    HW1  458   1.775   2.295   0.853 -0.3021  0.7969  0.5660
  153SOL    HW2  459   1.712   2.421   0.760 -2.0210 -0.7466  0.1211
  154SOL     OW  460   0.728   2.718   1.299 -0.5150 -0.2161  0.0804
  154SOL    HW1  461   0.656   2.784   1.273  0.0832 -1.1813  2.8456
  154SOL    HW2  462   0.818   2.765   1.301 -0.6168  0.8018  1.7861
  155SOL     OW  463   2.697   1.885   0.722 -0.4255  0.6135  0.1632
  155SOL    HW1  464   2.741   1.970   0.750 -0.7923 -4.1865 -0.4579
  155SOL    HW2  465   2.646   1.894   0.636  1.5717 -0.4521  2.4992
  156SOL     OW  466   2.631   2.375   2.892 -0.2439 -0.2924 -0.2548
  156SOL    HW1  467   2.693   2.432   2.951 -0.8331  1.3502 -1.3019
  156SOL    HW2  468   2.619   2.280   2.926  1.1261 -3.7180 -0.2596
  157SOL     OW  469   0.428   2.254   1.568  0.1367 -0.0940 -0.0276
  157SOL    HW1  470   0.367   2.335   1.579 -0.7799 -2.6922  0.9135
  157SOL    HW2  471   0.379   2.187   1.510 -1.9772 -1.4131 -1.6054
  158SOL     OW  472   1.489   0.434   0.723  0.6154  0.2924  0.1078
  158SOL    HW1  473   1.420   0.456   0.802  1.8055  2.7719  2.4819
  158SOL    HW2  474   1.574   0.393   0.761 -0.2777  2.2829 -2.1956
  159SOL     OW  475   1.637   0.465   0.226  0.3029 -0.2486 -0.5101
  159SOL    HW1  476   1.596   0.430   0.312 -3.8823  0.2026 -1.2469
  159SOL    HW2  477   1.593   0.552   0.196  0.5576  1.2229 -0.2206
  160SOL     OW  478   0.611   1.366   0.640 -0.0044  0.4395  0.1619
  160SOL    HW1  479   0.582   1.265   0.665  0.4418 -3.8033  0.0090
  160SOL    HW2  480   0.655   1.363   0.547  0.8909 -1.8941 -0.3810
  161SOL     OW  481   2.940   2.489   2.629  0.2211  0.3077 -0.2187
  161SOL    HW1  482   2.836   2.476   2.639 -0.9578 -0.4688  1.5638
  161SOL    HW2  483   2.979   2.392   2.622 -2.8753 -1.1020 -1.8871
  162SOL     OW  484   0.102   2.151   1.238 -0.2344  0.1449 -0.0369
  162SOL    HW1  485   0.043   2.229   1.262 -0.7251 -1.7150  2.2727
  162SOL    HW2  486   0.114   2.133   1.139  2.5360 -2.9997  1.4929
  163SOL     OW  487   0.302   0.644   2.859 -0.2565 -0.1599  0.2222
  163SOL    HW1  488   0.292   0.748   2.868  0.4744  1.1816 -0.2054
  163SOL    HW2  489   0.237   0.603   2.787  1.5278 -1.6671 -0.5141
  164SOL     OW  490   0.281   2.866   2.381 -0.7075  0.0575 -0.3961
  164SOL    HW1  491   0.371   2.887   2.420  1.0525  1.3789 -1.4920
  164SOL    HW2  492   0.227   2.805   2.442 -1.4603 -0.5575 -2.5859
  165SOL     OW  493   2.505   0.982   1.742  0.5620  0.0431  0.9517
  165SOL    HW1  494   2.504   0.934   1.650 -0.5465  0.5352  0.3368
  165SOL    HW2  495   2.531   0.919   1.817  0.1813 -0.1207 -0.5647
  166SOL     OW  496   2.039   2.078   1.418  0.3838  0.4965 -0.2174
  166SOL    HW1  497   2.098   2.081   1.498 -0.6644  0.9274  0.6529
  166SOL    HW2  498   2.042   1.979   1.379  1.6502 -4.2276 -0.6344
  167SOL     OW  499   0.809   1.058   2.403 -0.2294  0.2777 -0.3681
  167SOL    HW1  500   0.853   1.113   2.327  1.9742 -0.3134 -3.4827
  167SOL    HW2  501   0.885   1.021   2.458  1.5679  0.8472 -0.7055
  168SOL     OW  502   2.131   0.218   2.165 -0.2415 -0.0323  0.2067
  168SOL    HW1  503   2.133   0.160   2.248 -0.5641 -0.4608  0.6718
  168SOL    HW2  504   2.219   0.199   2.116  2.6671  2.4984  0.9077
  169SOL     OW  505   0.447   0.835   0.033  0.4327 -0.2798  0.0585
  169SOL    HW1  506   0.511   0.835   0.110  0.3504 -1.0915  0.2831
  169SOL    HW2  507   0.362   0.782   0.060  2.1072 -3.1226  0.8748
  170SOL     OW  508   0.598   1.487   1.710 -0.0310  0.2182  0.0582
  170SOL    HW1  509   0.552   1.465   1.619 -1.6660  2.5671 -1.9118
  170SOL    HW2  510   0.670   1.417   1.737  1.6832 -1.9570  1.8145
  171SOL     OW  511   0.970   2.438   1.806 -0.0404 -0.1333  0.0943
  171SOL    HW1  512   0.964   2.438   1.706  0.6611 -0.8864 -0.7532
  171SOL    HW2  513   0.890   2.485   1.850  0.1064  2.0097  4.1943
  172SOL     OW  514   1.192   2.851   1.880 -0.3268 -0.1861  0.2549
  172SOL    HW1  515   1.161   2.867   1.978 -3.0922  2.9206  3.0103
  172SOL    HW2  516   1.189   2.753   1.853 -0.0821  2.3635 -1.0084
  173SOL     OW  517   1.455   2.341   0.720 -0.4691 -0.0830  0.3021
  173SOL    HW1  518   1.424   2.252   0.675  0.1529 -0.0022  0.4019
  173SOL    HW2  519   1.399   2.356   0.807 -0.5311  2.5427  0.1749
  174SOL     OW  520   2.177   2.872   0.340 -0.0179  0.2055  0.3132
  174SOL    HW1  521   2.267   2.915   0.360 -0.8812  0.6582  0.5383
  174SOL    HW2  522   2.113   2.904   0.413 -1.2685  2.0222 -2.5936
  175SOL     OW  523   1.169   1.363   0.768  0.6187 -0.3074  0.5124
  175SOL    HW1  524   1.211   1.400   0.683 -0.3320  2.7128  1.3585
  175SOL    HW2  525   1.092   1.427   0.791  0.2729 -2.1366  0.0327
  176SOL     OW  526   0.615   1.629   0.707 -0.3457  0.0409 -0.2674
  176SOL    HW1  527   0.621   1.678   0.618  1.0255  3.1400  0.0257
  176SOL    HW2  528   0.626   1.530   0.706  0.0782  3.4453  0.3171
  177SOL     OW  529   1.263   1.367   1.196  0.3122  0.1778 -0.0612
  177SOL    HW1  530   1.343   1.374   1.260  0.1554  1.3464 -0.1398
  177SOL    HW2  531   1.297   1.366   1.104 -0.4993  3.5808  5.0029
  178SOL     OW  532   2.383   1.969   0.088 -0.4473  0.1537  0.1607
  178SOL    HW1  533   2.297   2.022   0.100  0.9902 -0.1868  0.5126
  178SOL    HW2  534   2.369   1.869   0.089 -2.0360 -1.4946  0.4254
  179SOL     OW  535   1.194   2.639   3.046 -0.6086 -0.2519  0.3105
  179SOL    HW1  536   1.181   2.702   2.965  0.7603  2.1924 -0.8189
  179SOL    HW2  537   1.263   2.565   3.027  1.2651  0.1661  1.5790
  180SOL     OW  538   2.028   1.480   1.873 -0.2477  0.1534 -0.0809
  180SOL    HW1  539   2.107   1.420   1.872 -1.2268  1.5106  0.4859
  180SOL    HW2  540   2.057   1.566   1.916  0.3774  1.5223 -0.2623
  181SOL     OW  541   0.929   0.780   2.572  0.1454  0.1293 -0.5848
  181SOL    HW1  542   0.978   0.870   2.583  1.3568  0.7742  1.1124
  181SOL    HW2  543   0.982   0.703   2.611  1.5733  1.5114 -1.1143
  182SOL     OW  544   2.945   1.427   2.254  0.3251 -0.1414 -0.1179
  182SOL    HW1  545   2.924   1.397   2.351  1.3092 -1.1560 -1.0893
  182SOL    HW2  546   2.973   1.341   2.203  0.5246 -0.9449  1.1663
  183SOL     OW  547   1.359   0.491   2.380 -0.3804 -0.1687 -0.5966
  183SOL    HW1  548   1.352   0.423   2.455  1.0760  0.3346  1.2607
  183SOL    HW2  549   1.323   0.447   2.294 -0.8060 -0.4070  2.9796
  184SOL     OW  550   0.386   0.471   1.632  0.1969 -0.5092  0.0820
  184SOL    HW1  551   0.376   0.409   1.711  1.3993 -0.4844 -0.5701
  184SOL    HW2  552   0.357   0.421   1.550 -1.7374 -1.2187  1.3723
  185SOL     OW  553   2.286   1.685   0.472 -0.2804 -0.4903 -0.1293
  185SOL    HW1  554   2.238   1.598   0.473  0.7325  2.7363  1.2467
  185SOL    HW2  555   2.305   1.709   0.571 -1.6001  1.1504 -1.1276
  186SOL     OW  556   0.149   1.877   0.284 -0.1898 -0.2987 -0.0287
  186SOL    HW1  557   0.226   1.818   0.267 -1.2499 -0.7131  3.3691
  186SOL    HW2  558   0.082   1.840   0.350  1.0632 -0.5121 -1.2983
  187SOL     OW  559   1.956   2.378   0.026 -0.0469  0.1098  0.5007
  187SOL    HW1  560   1.949   2.350   0.123  1.0121 -0.0402  3.5353
  187SOL    HW2  561   2.046   2.348   3.096  0.2073 -0.5926 -1.5241
  188SOL     OW  562   0.878   2.096   1.077 -0.0040  0.7680  0.2563
  188SOL    HW1  563   0.818   2.117   1.156 -0.1785 -1.7690  1.6700
  188SOL    HW2  564   0.948   2.028   1.109  1.0408 -2.0369  2.2547
  189SOL     OW  565   2.148   1.335   2.628 -0.0824 -0.0341 -0.2519
  189SOL    HW1  566   2.056   1.363   2.609 -1.7079  1.4542 -1.1597
  189SOL    HW2  567   2.204   1.420   2.655 -2.7513  1.8421 -1.9956
  190SOL     OW  568   0.909   2.434   2.271 -0.1018  0.0090  0.2728
  190SOL    HW1  569   0.830   2.452   2.215  0.6535 -1.4236  0.9207
  190SOL    HW2  570   0.881   2.403   2.364  0.6644 -0.3330  0.2925
  191SOL     OW  571   2.480   0.841   1.504 -0.4266 -0.3614 -0.1888
  191SOL    HW1  572   2.392   0.841   1.450  1.2579  1.0348 -0.2693
  191SOL    HW2  573   2.559   0.811   1.451  0.7733 -1.8744  0.6404
  192SOL     OW  574   2.548   0.670   1.711 -0.0108  0.4720 -0.2194
  192SOL    HW1  575   2.504   0.723   1.637 -3.2615  0.1023  1.7302
  192SOL    HW2  576   2.506   0.700   1.804 -3.8111  0.7582  1.0372
  193SOL     OW  577   0.591   0.292   0.453  0.4517  0.1645 -0.0839
  193SOL    HW1  578   0.501   0.292   0.505 -3.2772  1.5718 -0.9928
  193SOL    HW2  579   0.612   0.380   0.410 -0.4735 -2.5204 -0.6056
  194SOL     OW  580   1.163   2.348   1.423 -0.6422  0.5698  0.0542
  194SOL    HW1  581   1.187   2.275   1.363 -0.2254  1.0728  1.7401
  194SOL    HW2  582   1.244   2.411   1.435 -0.9643 -0.9466 -2.5391
  195SOL     OW  583   2.405   1.058   0.368  0.1558  0.5452  0.2688
  195SOL    HW1  584   2.432   0.963   0.374  1.4204 -0.4962 -1.1431
  195SOL    HW2  585   2.463   1.112   0.296  1.6746  3.2647 -1.5569
  196SOL     OW  586   0.666   2.332   1.452  0.6851  0.2745 -0.1495
  196SOL    HW1  587   0.655   2.394   1.368  0.1226  0.6094 -1.6569
  196SOL    HW2  588   0.585   2.319   1.511 -0.6654 -2.1274  0.4757
  197SOL     OW  589   0.403   0.861   2.331  0.3696 -0.0157  0.1143
  197SOL    HW1  590   0.367   0.938   2.272 -0.1414  0.6185 -3.4425
  197SOL    HW2  591   0.350   0.770   2.341 -0.3191  1.4594  2.1449
  198SOL     OW  592   1.717   0.858   0.477  0.0657 -0.2671 -0.4285
  198SOL    HW1  593   1.626   0.841   0.520 -0.9055  1.0662  3.2852
  198SOL    HW2  594   1.714   0.932   0.410  2.7944 -1.5002  1.0068
  199SOL     OW  595   2.661   0.480   1.852 -0.3220  0.1967  0.6221
  199SOL    HW1  596   2.612   0.444   1.931  1.9051  2.3052 -4.2859
  199SOL    HW2  597   2.589   0.528   1.796  3.6720  0.3067 -2.6201
  200SOL     OW  598   2.148   0.129   2.708 -0.4511 -0.3616  0.3067
  200SOL    HW1  599   2.216   0.200   2.695 -2.7867 -0.9286 -0.8851
  200SOL    HW2  600   2.080   0.142   2.630  3.0515  1.1506  0.8474
  201SOL     OW  601   2.592   0.201   1.287  0.0116  0.2808 -0.8552
  201SOL    HW1  602   2.554   0.143   1.364  0.5837 -1.2469  1.4506
  201SOL    HW2  603   2.534   0.165   1.210 -2.5283  0.0808  1.8775
  202SOL     OW  604   0.015   2.702   0.137  0.1476 -0.2529  0.2199
  202SOL    HW1  605   0.038   2.757   0.219  0.6944  1.7419  1.3313
  202SOL    HW2  606   3.030   2.728   0.108  0.6337  0.1408 -1.1202
  203SOL     OW  607   1.192   1.881   2.930 -0.0363  0.1376 -0.0293
  203SOL    HW1  608   1.156   1.808   2.989 -1.4327  1.9873 -1.3193
  203SOL    HW2  609   1.205   1.841   2.837  3.0595 -0.6931 -0.9819
  204SOL     OW  610   0.556   2.083   2.577 -0.1885  0.4073 -0.2741
  204SOL    HW1  611   0.485   2.066   2.502  0.8341  0.2936 -0.1866
  204SOL    HW2  612   0.537   2.174   2.613 -1.1295 -0.6585 -0.6295
  205SOL     OW  613   1.246   0.808   1.113 -0.3068  0.3401 -0.4603
  205SOL    HW1  614   1.213   0.738   1.174 -1.1806 -0.5926 -0.4045
  205SOL    HW2  615   1.345   0.802   1.094  3.5137 -1.2046 -2.4633
  206SOL     OW  616   0.187   0.916   2.831 -0.0981  0.3174  0.4620
  206SOL    HW1  617   0.257   0.988   2.844 -0.0131 -0.3208  1.7099
  206SOL    HW2  618   0.167   0.901   2.731  0.9833  0.7786 -2.3274
  207SOL     OW  619   1.583   2.435   1.748  0.0699  0.6397  0.1362
  207SOL    HW1  620   1.676   2.442   1.791 -1.9468  1.3422 -0.6032
  207SOL    HW2  621   1.524   2.376   1.805  0.0833 -0.3866  0.2120
  208SOL     OW  622   0.307   0.014   1.007 -0.1429  0.3999  0.2195
  208SOL    HW1  623   0.249   3.055   1.063 -1.6511  0.0353  2.1986
  208SOL    HW2  624   0.309   3.104   0.908 -0.4230  0.7450  2.9109
  209SOL     OW  625   1.812   1.161   0.617  0.2153  0.1682 -0.3072
  209SOL    HW1  626   1.889   1.107   0.646 -0.4692  3.1385 -1.1310
  209SOL    HW2  627   1.784   1.149   0.519 -1.8401 -2.6426 -0.2161
  210SOL     OW  628   2.594   0.388   0.783  0.1967  0.3251 -0.2177
  210SOL    HW1  629   2.512   0.445   0.761 -0.3516 -0.0421  2.1035
  210SOL    HW2  630   2.670   0.410   0.720  1.3655  1.2748 -0.8613
  211SOL     OW  631   1.340   2.876   0.327  0.6864  0.2074  0.2777
  211SOL    HW1  632   1.317   2.875   0.227  1.5868 -3.1538 -0.1331
  211SOL    HW2  633   1.437   2.905   0.339  0.1566 -0.7158 -0.2996
  212SOL     OW  634   2.017   2.327   0.594  0.1323 -0.1916  0.0534
  212SOL    HW1  635   2.092   2.310   0.668  0.9736  0.4636  1.6254
  212SOL    HW2  636   1.928   2.351   0.642  0.2222 -0.1971 -0.0232
  213SOL     OW  637   2.106   0.739   2.660 -0.0603  0.7594 -0.0047
  213SOL    HW1  638   2.202   0.718   2.684 -0.3251 -1.5639 -0.7893
  213SOL    HW2  639   2.057   0.656   2.625 -0.8619  0.6173  2.3600
  214SOL     OW  640   1.246   1.759   2.059 -0.6037  0.7546 -0.9880
  214SOL    HW1  641   1.183   1.744   2.139 -4.2901  1.9736 -0.3501
  214SOL    HW2  642   1.249   1.673   2.000 -1.3764 -3.5934 -0.6644
  215SOL     OW  643   0.160   1.216   1.014  0.3825 -0.4060 -0.0984
  215SOL    HW1  644   0.070   1.251   1.043  0.9587 -1.1559 -1.4326
  215SOL    HW2  645   0.232   1.225   1.087 -0.0647  0.0775  1.0788
  216SOL     OW  646   0.234   2.209   2.606  0.5580  0.3178 -0.3883
  216SOL    HW1  647   0.250   2.301   2.562 -2.0870 -3.4674  1.0921
  216SOL    HW2  648   0.283   2.194   2.693  0.1253  2.1810 -1.9555
  217SOL     OW  649   2.651   1.013   1.311  0.6325  0.3296  0.1608
  217SOL    HW1  650   2.564   0.970   1.279 -1.6308 -1.3537 -2.8082
  217SOL    HW2  651   2.654   1.109   1.285  1.3788 -1.1646 -0.6092
  218SOL     OW  652   0.672   2.241   2.018 -0.3998  0.3525 -0.1680
  218SOL    HW1  653   0.637   2.233   1.923 -0.9960 -1.3637  1.9663
  218SOL    HW2  654   0.764   2.201   2.026 -1.7551 -2.0644  0.7302
  219SOL     OW  655   2.100   1.428   0.282  0.3309  0.1541 -0.0382
  219SOL    HW1  656   2.160   1.433   0.201 -0.5119 -0.2472 -1.3250
  219SOL    HW2  657   2.156   1.434   0.373  2.2575  1.6523  1.2137
  220SOL     OW  658   2.287   0.749   0.586  0.6291 -0.2577  0.1866
  220SOL    HW1  659   2.261   0.810   0.666 -1.3513  2.2178 -2.2818
  220SOL    HW2  660   2.205   0.706   0.548  0.3372 -1.0895 -0.1739
  221SOL     OW  661   2.826   0.769   0.144 -0.1736 -0.2341 -0.0448
  221SOL    HW1  662   2.864   0.860   0.125  0.4238 -2.1475  2.0466
  221SOL    HW2  663   2.900   0.698   0.128  2.1223 -0.8420 -0.8208
  222SOL     OW  664   1.603   1.304   0.703  0.3400 -0.4281  0.2695
  222SOL    HW1  665   1.672   1.241   0.667 -2.6580 -0.4723 -0.5793
  222SOL    HW2  666   1.592   1.299   0.804  0.7007 -0.7258  0.8084
  223SOL     OW  667   0.942   0.061   2.872  0.4533 -0.1586 -0.4202
  223SOL    HW1  668   0.863   0.089   2.932  0.2169 -0.3040  0.7698
  223SOL    HW2  669   0.939   0.102   2.778 -0.3456 -0.1807  2.1686
  224SOL     OW  670   1.302   3.067   1.287 -0.0124  0.1583 -0.9500
  224SOL    HW1  671   1.293   0.060   1.284 -0.4858  0.5423 -0.2108
  224SOL    HW2  672   1.294   3.041   1.387  2.0357  1.9680 -4.3781
  225SOL     OW  673   0.338   2.533   1.896 -0.4982 -0.2856 -0.2814
  225SOL    HW1  674   0.391   2.586   1.967  0.2526 -0.4148  2.0905
  225SOL    HW2  675   0.297   2.453   1.943  2.0344 -0.8097  0.7416
  226SOL     OW  676   1.413   1.299   0.471 -0.2064  0.1496 -0.0675
  226SOL    HW1  677   1.489   1.266   0.531 -1.9396 -2.8515 -2.7246
  226SOL    HW2  678   1.373   1.393   0.501 -2.1230  1.7473  1.1971
  227SOL     OW  679   0.304   1.562   0.973  0.2982 -0.1357  0.2347
  227SOL    HW1  680   0.311   1.655   0.921 -0.6689 -1.5559  0.5507
  227SOL    HW2  681   0.324   1.480   0.919  0.2807  0.3962  1.9082
  228SOL     OW  682   3.004   1.520   0.750  0.2322 -0.2544  0.2290
  228SOL    HW1  683   2.955   1.440   0.780 -0.5794 -2.2688 -0.9180
  228SOL    HW2  684   2.988   1.540   0.649 -0.5538 -2.4899 -2.8471
  229SOL     OW  685   2.424   0.473   3.093  0.9905  0.5547  0.2745
  229SOL    HW1  686   2.502   0.536   3.097 -1.9509 -2.5267 -3.0811
  229SOL    HW2  687   2.426   0.401   0.051 -0.2836  1.0238 -1.6142
  230SOL     OW  688   1.995   1.115   1.036 -0.4249  0.5901 -0.5531
  230SOL    HW1  689   2.086   1.135   0.989 -2.5343 -1.0884 -0.9978
  230SOL    HW2  690   2.009   1.071   1.129  1.1604  1.2728 -1.2093
  231SOL     OW  691   1.553   1.292   2.937  0.4027 -0.9394 -0.6458
  231SOL    HW1  692   1.592   1.269   2.848 -0.9476  1.0729  2.8475
  231SOL    HW2  693   1.624   1.312   3.009 -1.3647 -1.7085 -1.2669
  232SOL     OW  694   2.481   2.181   0.886  0.3738 -0.5492 -0.2595
  232SOL    HW1  695   2.580   2.175   0.868 -1.9424  2.2548 -0.0936
  232SOL    HW2  696   2.469   2.240   0.974  1.3587  0.0303  1.1185
  233SOL     OW  697   0.592   2.538   0.839  0.4541 -0.4156  0.0910
  233SOL    HW1  698   0.561   2.623   0.887  0.1285  1.8280  0.7997
  233SOL    HW2  699   0.653   2.556   0.759  0.1502  0.9007 -1.5465
  234SOL     OW  700   0.599   0.594   2.512  0.3965  0.1249  0.0652
  234SOL    HW1  701   0.621   0.693   2.496  1.1921  0.2962  0.8908
  234SOL    HW2  702   0.581   0.571   2.608 -1.3950  1.1441 -0.9586
  235SOL     OW  703   2.921   0.815   2.177  0.4009 -0.2777 -0.2348
  235SOL    HW1  704   2.843   0.752   2.210  0.4972  0.6116  1.9643
  235SOL    HW2  705   2.989   0.760   2.130 -2.4827  1.7804  0.5610
  236SOL     OW  706   1.489   2.856   1.496  0.0056 -0.3861 -0.4133
  236SOL    HW1  707   1.458   2.778   1.435 -0.5900  1.8397 -0.7887
  236SOL    HW2  708   1.541   2.817   1.576  2.1130  0.3067 -2.9715
  237SOL     OW  709   1.027   1.426   2.458 -0.0393  0.0343 -0.6150
  237SOL    HW1  710   0.929   1.420   2.474 -0.9787 -0.5802 -1.3950
  237SOL    HW2  711   1.083   1.431   2.542 -2.3730  1.6668 -2.5529
  238SOL     OW  712   0.931   0.339   2.301  0.4250 -0.7678  0.0091
  238SOL    HW1  713   0.901   0.384   2.214  0.7203  0.0770  1.0164
  238SOL    HW2  714   0.851   0.322   2.362 -2.1438 -1.7186  1.1255
  239SOL     OW  715   0.220   2.293   2.064  0.5495 -0.3009  0.1026
  239SOL    HW1  716   0.308   2.281   2.112 -2.1121  1.7894  0.3424
  239SOL    HW2  717   0.202   2.216   1.998  1.1958 -0.4709 -1.3988
  240SOL     OW  718   2.563   2.782   0.556  0.4269 -0.5777 -0.0270
  240SOL    HW1  719   2.644   2.776   0.615  1.5935 -1.1126 -0.6532
  240SOL    HW2  720   2.483   2.738   0.601 -2.2798 -2.2259  2.7846
  241SOL     OW  721   2.843   1.262   0.529 -0.4462  0.3979 -0.3485
  241SOL    HW1  722   2.786   1.340   0.550 -1.3982  0.2441 -1.7786
  241SOL    HW2  723   2.805   1.200   0.454  0.5768 -1.8667 -2.2625
  242SOL     OW  724   1.841   2.506   1.854  0.3163 -0.1202  0.0777
  242SOL    HW1  725   1.913   2.430   1.840 -0.8801 -3.5475  0.2686
  242SOL    HW2  726   1.875   2.593   1.820  2.0089 -1.0994 -0.4995
  243SOL     OW  727   0.472   2.717   2.048 -0.0829  0.7544  0.2829
  243SOL    HW1  728   0.479   2.820   2.049 -1.7540  0.2889  0.6062
  243SOL    HW2  729   0.549   2.678   2.102  0.6986  1.1570  0.5852
  244SOL     OW  730   2.575   0.567   2.510 -0.3955  0.3338 -0.5026
  244SOL    HW1  731   2.635   0.494   2.547 -2.8326  0.0777 -0.6065
  244SOL    HW2  732   2.499   0.522   2.452  0.5919  0.2002 -0.2502
  245SOL     OW  733   1.247   0.022   1.015  0.1347  0.3503  0.1523
  245SOL    HW1  734   1.242   0.095   1.091  0.6318  2.2290  2.2804
  245SOL    HW2  735   1.258   3.036   1.054 -0.1008 -1.4789 -0.9077
  246SOL     OW  736   1.656   2.618   0.165 -0.1879 -0.5270  0.2073
  246SOL    HW1  737   1.741   2.636   0.113  1.4174  0.3490 -0.1843
  246SOL    HW2  738   1.598   2.700   0.166 -1.7506 -0.3060  1.4108
  247SOL     OW  739   1.272   0.902   2.336 -0.0238  0.0457 -0.0229
  247SOL    HW1  740   1.174   0.903   2.316  1.1068  0.5885 -0.2873
  247SOL    HW2  741   1.302   0.837   2.412  0.4569 -2.1917  1.6056
  248SOL     OW  742   0.010   2.269   1.705  0.5881 -0.4897  0.0999
  248SOL    HW1  743   0.053   2.184   1.673  1.3404 -0.5694  1.8131
  248SOL    HW2  744   3.056   2.247   1.780 -1.3082  0.6281 -0.0435
  249SOL     OW  745   2.924   0.512   0.109  0.6267  0.0729  0.4668
  249SOL    HW1  746   2.990   0.495   0.179 -1.9749  1.6872 -0.8752
  249SOL    HW2  747   2.854   0.436   0.099 -3.2915  0.3359  1.0919
  250SOL     OW  748   2.832   0.026   2.621  0.1573  0.4706  0.0066
  250SOL    HW1  749   2.842   0.054   2.522  3.0324  1.4884  0.8003
  250SOL    HW2  750   2.814   3.032   2.624  1.2919 -3.3110 -3.0794
  251SOL     OW  751   1.315   0.557   0.095 -0.3584 -0.1071  0.5665
  251SOL    HW1  752   1.299   0.499   0.177 -1.0307 -0.3391  0.4017
  251SOL    HW2  753   1.407   0.602   0.101 -0.1087 -0.5023 -0.5750
  252SOL     OW  754   1.517   2.299   1.992 -0.2703 -0.1346  0.0583
  252SOL    HW1  755   1.454   2.290   2.069  1.4303  1.4639  0.6497
  252SOL    HW2  756   1.577   2.379   2.003  0.5890 -1.0603 -0.4125
  253SOL     OW  757   2.280   2.476   1.255  0.4006 -0.7225 -0.0958
  253SOL    HW1  758   2.325   2.563   1.292 -0.0036 -1.7802  0.2778
  253SOL    HW2  759   2.195   2.513   1.211  2.4523 -1.2711  2.9912
  254SOL     OW  760   2.425   1.267   0.583 -0.2470 -0.4379 -0.2591
  254SOL    HW1  761   2.422   1.192   0.512 -0.7793  2.9652 -0.9744
  254SOL    HW2  762   2.456   1.238   0.676  1.6766  0.4649 -2.5239
  255SOL     OW  763   0.991   2.826   1.295  0.3114  0.4887  0.1982
  255SOL    HW1  764   1.048   2.816   1.216 -1.2236  1.1509 -3.8282
  255SOL    HW2  765   1.016   2.765   1.373  0.1608 -1.1204 -1.6696
  256SOL     OW  766   1.885   2.289   1.503  0.3127 -0.0665  0.0995
  256SOL    HW1  767   1.934   2.215   1.450  2.7146 -1.3058 -3.7162
  256SOL    HW2  768   1.786   2.298   1.470 -0.0295  3.2650 -3.3941
  257SOL     OW  769   0.704   2.596   2.478 -0.0215  0.2691 -0.5665
  257SOL    HW1  770   0.643   2.678   2.475  0.9209  1.9928  0.4916
  257SOL    HW2  771   0.742   2.591   2.573 -1.2905 -0.9451  2.3871
  258SOL     OW  772   0.729   2.486   0.386  0.2997 -0.2761 -0.1732
  258SOL    HW1  773   0.799   2.522   0.322 -1.9837  0.8533 -0.2778
  258SOL    HW2  774   0.738   2.531   0.477 -1.9250 -2.0480 -0.9032
  259SOL     OW  775   1.484   0.293   2.799 -0.4654  0.1256 -0.1037
  259SOL    HW1  776   1.503   0.217   2.865  1.5397 -1.9527 -1.5749
  259SOL    HW2  777   1.422   0.364   2.846 -4.1473 -0.8552  0.3721
  260SOL     OW  778   2.752   0.748   1.094  0.5010 -0.3381  0.4624
  260SOL    HW1  779   2.843   0.712   1.060  1.6608 -0.3300 -3.0066
  260SOL    HW2  780   2.746   0.746   1.195  1.5317  1.9541 -2.5982
  261SOL     OW  781   0.752   0.335   2.524  0.0904 -0.1086  0.1228
  261SOL    HW1  782   0.765   0.436   2.536  1.2096  0.5964  0.7478
  261SOL    HW2  783   0.654   0.309   2.524 -0.8879  1.3021  0.9011
  262SOL     OW  784   1.092   2.355   2.069  0.2681  0.1264  0.2101
  262SOL    HW1  785   1.038   2.367   2.157 -1.2360  0.4272 -1.9673
  262SOL    HW2  786   1.026   2.323   1.997 -4.3193  3.1583 -0.1641
  263SOL     OW  787   0.359   1.947   3.008 -0.2780 -0.2328 -0.2851
  263SOL    HW1  788   0.392   1.936   3.101  1.2888 -1.5386  0.5819
  263SOL    HW2  789   0.440   1.950   2.951 -0.3148  1.2212  1.7104
  264SOL     OW  790   0.871   1.492   1.033 -0.4778 -0.0851  0.2756
  264SOL    HW1  791   0.912   1.530   0.946  0.9607 -0.9559 -1.3385
  264SOL    HW2  792   0.892   1.554   1.109 -0.2295 -0.3636  0.1794
  265SOL     OW  793   1.082   2.199   0.623 -0.2023 -0.8912 -0.1962
  265SOL    HW1  794   1.173   2.148   0.619 -0.1218  0.8049 -0.8049
  265SOL    HW2  795   1.082   2.275   0.555 -1.4917  0.1405  0.0321
  266SOL     OW  796   2.105   0.453   0.887 -0.2486 -0.3039  0.1030
  266SOL    HW1  797   2.143   0.424   0.979  0.5907 -0.5425  0.7760
  266SOL    HW2  798   2.023   0.514   0.888  1.4202  0.2034  0.9389
  267SOL     OW  799   3.014   1.430   2.616  1.0041  0.3707 -0.2226
  267SOL    HW1  800   3.002   1.410   2.718 -1.4560 -1.9323  0.7982
  267SOL    HW2  801   2.970   1.353   2.572  3.2718 -1.1343  2.2794
  268SOL     OW  802   1.658   2.936   0.304 -0.0563  0.1955  0.4207
  268SOL    HW1  803   1.748   2.893   0.290 -0.0841  1.2760  0.1215
  268SOL    HW2  804   1.664   3.018   0.361  0.7559 -1.6903 -0.5563
  269SOL     OW  805   2.940   0.793   2.549  0.2628 -0.7242  0.0111
  269SOL    HW1  806   2.971   0.760   2.456  0.9685  2.7431 -0.0580
  269SOL    HW2  807   3.018   0.839   2.592  1.7265 -1.8668 -2.1973
  270SOL     OW  808   3.103   1.439   3.093 -0.2508 -0.1050 -0.6920
  270SOL    HW1  809   3.067   1.411   0.079  3.1379 -0.7317  0.5921
  270SOL    HW2  810   0.081   1.390   3.077 -3.3994  3.6679 -1.5522
  271SOL     OW  811   2.590   1.448   2.546  0.9798  0.0261 -0.2318
  271SOL    HW1  812   2.520   1.515   2.519  1.3340 -0.5602 -0.0971
  271SOL    HW2  813   2.578   1.361   2.495  1.9165  1.1361 -1.0594
  272SOL     OW  814   2.414   2.637   2.067 -0.2904  0.1118  0.0782
  272SOL    HW1  815   2.357   2.697   2.125  2.3526 -0.2852  0.2545
  272SOL    HW2  816   2.431   2.682   1.977  0.0084 -0.0047 -2.4430
  273SOL     OW  817   0.451   2.719   0.107  0.1460  0.1100  0.3470
  273SOL    HW1  818   0.485   2.646   0.045  1.2493 -0.9084 -0.7156
  273SOL    HW2  819   0.367   2.756   0.067  0.6101  1.3685 -0.7309
  274SOL     OW  820   1.028   2.253   0.910  0.1943  0.4818  0.1348
  274SOL    HW1  821   1.041   2.240   0.813  1.4590  1.7152 -0.7260
  274SOL    HW2  822   0.965   2.185   0.954  2.3248  0.5858  2.4353
  275SOL     OW  823   2.292   1.715   0.085  0.6480  0.6966  0.2171
  275SOL    HW1  824   2.199   1.744   0.115  0.6193  0.8558 -1.1297
  275SOL    HW2  825   2.281   1.667   3.104  0.0767  1.9233  0.9358
  276SOL     OW  826   2.554   1.656   1.169 -0.1605  0.2255  0.0771
  276SOL    HW1  827   2.553   1.572   1.228  1.5883  1.6913 -0.5844
  276SOL    HW2  828   2.607   1.645   1.085  1.6973  0.3006 -0.9825
  277SOL     OW  829   2.468   2.984   0.958 -0.3914  0.7779  0.0145
  277SOL    HW1  830   2.389   2.915   0.972 -2.2935  0.0927  1.4438
  277SOL    HW2  831   2.540   2.961   1.025 -1.2912  0.1849 -3.1346
  278SOL     OW  832   1.597   0.227   2.411 -0.0059  0.0298 -0.4853
  278SOL    HW1  833   1.509   0.272   2.433 -0.9168  0.2559  1.1600
  278SOL    HW2  834   1.644   0.176   2.489 -0.0048 -1.4656 -0.4830
  279SOL     OW  835   1.459   2.674   1.318  0.0187  0.0437 -0.1280
  279SOL    HW1  836   1.534   2.636   1.261 -2.1023 -0.3447  0.2988
  279SOL    HW2  837   1.397   2.726   1.253 -0.3951 -0.7520 -3.9594
  280SOL     OW  838   1.233   1.029   0.513 -0.1626  0.2409  0.2429
  280SOL    HW1  839   1.316   1.010   0.573  0.0458  2.0893 -2.7449
  280SOL    HW2  840   1.266   1.097   0.443 -2.4031 -0.0650  0.9587
  281SOL     OW  841   2.242   1.576   2.666  0.4756 -0.0674 -0.2699
  281SOL    HW1  842   2.306   1.593   2.589  2.2520 -1.4079  0.9241
  281SOL    HW2  843   2.205   1.668   2.696 -2.6803  0.9717 -1.2014
  282SOL     OW  844   2.937   1.388   2.883 -0.2178  0.2215  0.1605
  282SOL    HW1  845   2.928   1.288   2.870 -2.0892 -0.8890  1.7699
  282SOL    HW2  846   2.995   1.409   2.965  0.6089  0.3353  1.1924
  283SOL     OW  847   1.748   2.669   2.746  0.6000  0.4996 -0.0263
  283SOL    HW1  848   1.719   2.648   2.651 -2.9271 -1.1233 -2.7438
  283SOL    HW2  849   1.739   2.589   2.808  1.9296  0.0368 -1.0501
  284SOL     OW  850   0.702   0.147   3.026  0.0143  0.3606  0.0150
  284SOL    HW1  851   0.671   0.172   0.010 -2.3870 -0.6139 -0.6640
  284SOL    HW2  852   0.660   0.204   2.949 -1.9407  1.1733 -1.1152
  285SOL     OW  853   2.048   1.768   2.422 -0.4691 -0.0231 -0.1628
  285SOL    HW1  854   2.139   1.802   2.384 -0.2326  0.0047 -0.4956
  285SOL    HW2  855   1.978   1.833   2.410  0.2808 -1.7599  2.9226
  286SOL     OW  856   1.222   1.952   0.820 -0.2498  0.3367 -0.7682
  286SOL    HW1  857   1.129   1.917   0.837 -0.4094  0.1023 -1.0635
  286SOL    HW2  858   1.275   1.975   0.901 -0.6814  3.2668  0.7259
  287SOL     OW  859   1.736   0.318   1.399  0.4908 -0.1349  0.0076
  287SOL    HW1  860   1.715   0.312   1.499  1.1167 -0.8338 -2.5729
  287SOL    HW2  861   1.830   0.345   1.377  0.5974  0.8147 -0.8484
  288SOL     OW  862   0.669   2.855   2.355  0.3845 -0.3490  0.6577
  288SOL    HW1  863   0.763   2.824   2.373 -1.4364 -0.8364  0.6242
  288SOL    HW2  864   0.666   2.879   2.254  1.6714 -0.8967 -3.1206
  289SOL     OW  865   0.093   1.142   0.736 -0.1922 -0.1345 -0.1978
  289SOL    HW1  866   0.095   1.180   0.828 -0.8443  0.7483  0.9697
  289SOL    HW2  867   0.024   1.067   0.721 -1.5976 -0.5687  0.9808
  290SOL     OW  868   1.211   2.132   1.276 -0.1133 -0.1215 -0.5544
  290SOL    HW1  869   1.268   2.174   1.207 -1.2909 -2.5626  2.7045
  290SOL    HW2  870   1.154   2.056   1.240  1.2612  0.8506 -0.8114
  291SOL     OW  871   1.909   2.663   0.664 -0.5767  0.0713 -0.1429
  291SOL    HW1  872   1.867   2.755   0.691  1.8868 -1.5040 -0.9350
  291SOL    HW2  873   1.835   2.602   0.624 -0.3408  0.5677 -1.5169
  292SOL     OW  874   0.452   0.056   1.771 -0.8373  0.3165 -0.4334
  292SOL    HW1  875   0.419   3.074   1.791 -0.5121  1.6857 -1.0486
  292SOL    HW2  876   0.556   0.058   1.792  0.9140 -0.0258 -1.0615
  293SOL     OW  877   2.343   1.795   0.713  0.1022  0.0562  0.0315
  293SOL    HW1  878   2.410   1.759   0.780 -1.5324  1.9265 -1.2594
  293SOL    HW2  879   2.344   1.897   0.706  0.6632  2.0842  0.2223
  294SOL     OW  880   0.914   0.147   2.076  0.3932  0.1263 -0.0585
  294SOL    HW1  881   0.995   0.163   2.132 -0.7555 -0.3955 -2.3956
  294SOL    HW2  882   0.836   0.102   2.119 -0.7952  0.4189  0.2514
  295SOL     OW  883   0.928   0.918   0.812 -0.1496 -0.2790  0.6559
  295SOL    HW1  884   0.829   0.932   0.837  0.7658 -0.3136  0.3095
  295SOL    HW2  885   0.987   0.970   0.871 -0.3817  0.9677  0.0358
  296SOL     OW  886   2.134   2.084   0.925  0.0759  0.4848 -0.3849
  296SOL    HW1  887   2.175   2.065   0.836  0.6197 -0.8820  0.1506
  296SOL    HW2  888   2.134   2.183   0.936 -0.3121 -1.5951 -1.6181
  297SOL     OW  889   1.889   0.233   2.807 -0.6008  0.1088  0.4474
  297SOL    HW1  890   1.816   0.298   2.800 -1.4104 -0.7111 -0.0531
  297SOL    HW2  891   1.982   0.279   2.812  0.7791 -0.9351 -0.7902
  298SOL     OW  892   1.254   0.058   2.526 -0.0551  0.2512 -0.5443
  298SOL    HW1  893   1.308   3.083   2.498  0.4812  0.0097 -2.5212
  298SOL    HW2  894   1.238   0.059   2.630  1.2407 -0.1676  4.1182
  299SOL     OW  895   1.089   2.921   2.124  0.1284  0.1070  0.2030
  299SOL    HW1  896   1.130   3.016   2.132  3.8706  3.9819  0.0450
  299SOL    HW2  897   1.123   2.871   2.206  1.1069  0.9587  1.2622
  300SOL     OW  898   2.452   0.310   1.558 -0.2503 -0.2026 -0.5503
  300SOL    HW1  899   2.554   0.328   1.558 -0.2169  0.7024 -0.0584
  300SOL    HW2  900   2.406   0.382   1.609  0.9770 -3.2970 -0.4743
  301SOL     OW  901   2.324   0.489   1.700  0.2882 -0.1246 -0.1329
  301SOL    HW1  902   2.348   0.490   1.798 -0.7845  1.1850  0.2665
  301SOL    HW2  903   2.308   0.583   1.668  1.7788  1.7441 -2.8094
  302SOL     OW  904   0.733   2.525   3.063 -0.4129  0.2853  0.3220
  302SOL    HW1  905   0.804   2.456   3.084 -1.3484 -0.2394  0.1909
  302SOL    HW2  906   0.642   2.481   3.084  1.3457 -1.2049 -0.4549
  303SOL     OW  907   1.656   1.955   1.381 -0.8360 -0.0822  0.2806
  303SOL    HW1  908   1.564   1.999   1.396 -1.3506  0.7233 -1.7909
  303SOL    HW2  909   1.685   1.961   1.284  0.5840 -0.7481  1.7467
  304SOL     OW  910   0.546   0.731   1.076  0.3575  0.3375  0.0796
  304SOL    HW1  911   0.618   0.673   1.109  1.0276  1.1655 -0.6310
  304SOL    HW2  912   0.454   0.701   1.114 -1.3134  0.3272 -3.6460
  305SOL     OW  913   1.067   0.691   0.930 -0.0306  0.0770 -0.3976
  305SOL    HW1  914   1.142   0.744   0.968 -1.0102 -0.1480  0.7727
  305SOL    HW2  915   1.012   0.761   0.881  1.3927 -2.3644 -1.6029
  306SOL     OW  916   0.590   1.017   2.924 -0.3712 -0.2194  0.0812
  306SOL    HW1  917   0.664   0.953   2.889 -0.6945 -1.9915  1.4054
  306SOL    HW2  918   0.547   0.970   3.000  1.0061 -0.4177 -0.8013
  307SOL     OW  919   1.011   0.300   1.630  0.5034  0.0375 -0.5708
  307SOL    HW1  920   1.009   0.402   1.612  0.4979 -1.6098 -1.7623
  307SOL    HW2  921   0.960   0.272   1.714  1.7477 -0.9050 -0.1808
  308SOL     OW  922   0.931   0.495   1.063 -0.3816 -0.6479  0.1923
  308SOL    HW1  923   0.883   0.530   1.145  0.3822  0.7829 -1.3446
  308SOL    HW2  924   0.965   0.573   1.011  1.8610 -1.6255  2.7854
  309SOL     OW  925   2.480   0.787   0.415 -0.6666 -0.3390 -0.0874
  309SOL    HW1  926   2.408   0.762   0.481  0.9382 -1.5089 -0.8342
  309SOL    HW2  927   2.573   0.748   0.438  0.3982  0.9950 -0.8273
  310SOL     OW  928   0.990   1.372   0.105 -0.6253 -0.5444  0.5122
  310SOL    HW1  929   0.984   1.472   0.093 -1.1317  0.3870  1.5633
  310SOL    HW2  930   0.996   1.317   0.014 -0.3698 -0.0657 -3.0992
  311SOL     OW  931   2.170   2.563   2.237 -0.0864  0.3995 -0.0305
  311SOL    HW1  932   2.134   2.582   2.146  1.6041 -2.6920  3.5547
  311SOL    HW2  933   2.122   2.619   2.309 -0.4479  0.3779  1.3739
  312SOL     OW  934   2.223   2.550   3.061  0.5357 -0.3539  0.0105
  312SOL    HW1  935   2.233   2.456   3.093  0.6973  1.6536 -1.4835
  312SOL    HW2  936   2.215   2.622   0.024  0.5333  0.9650 -1.6893
  313SOL     OW  937   0.353   0.146   0.142  0.4449 -0.1658  0.0257
  313SOL    HW1  938   0.340   0.236   0.192  0.4806  0.0255  1.1297
  313SOL    HW2  939   0.340   0.169   0.040 -1.6054  0.0913 -2.4761
  314SOL     OW  940   2.306   1.553   2.940 -0.0606 -0.3272  0.8461
  314SOL    HW1  941   2.406   1.561   2.958  0.9359 -1.3293  1.0500
  314SOL    HW2  942   2.298   1.545   2.842  0.9848  3.2841  0.8944
  315SOL     OW  943   1.757   0.437   2.313  0.0739 -0.2857 -0.0648
  315SOL    HW1  944   1.706   0.357   2.353 -2.8533  2.0430  0.7715
  315SOL    HW2  945   1.694   0.514   2.292  0.2036  1.2314 -0.6785
  316SOL     OW  946   3.028   0.945   0.717 -0.4612 -0.5906  0.0407
  316SOL    HW1  947   2.960   0.957   0.789  2.6552  2.4509  0.6467
  316SOL    HW2  948   2.992   0.888   0.639 -0.6647  0.0301 -1.0143
  317SOL     OW  949   0.891   2.756   0.042  0.2334  0.5589 -0.3359
  317SOL    HW1  950   0.806   2.804   0.079  0.4196  1.3717  0.4248
  317SOL    HW2  951   0.861   2.682   3.085  0.9783 -0.4179  4.4050
  318SOL     OW  952   1.907   2.741   1.686  0.0717 -0.3686 -0.3548
  318SOL    HW1  953   1.958   2.825   1.669  0.8662  1.0850 -0.6798
  318SOL    HW2  954   1.950   2.671   1.623  0.1071  2.0335 -1.5247
  319SOL     OW  955   1.150   1.614   3.045  0.3014  0.1577  0.1108
  319SOL    HW1  956   1.154   1.617   0.042  0.1135  0.5667  2.2501
  319SOL    HW2  957   1.236   1.571   3.018  2.3155  0.3927  2.5199
  320SOL     OW  958   0.377   1.783   0.825  0.1529 -0.3138 -0.1454
  320SOL    HW1  959   0.336   1.827   0.741  0.0999 -0.1688 -2.0165
  320SOL    HW2  960   0.470   1.745   0.806 -1.8203  0.3345  1.7533
  321SOL     OW  961   2.084   2.708   2.010 -0.4257 -0.4060 -0.5446
  321SOL    HW1  962   2.172   2.762   2.029 -0.5835  0.9786 -0.7290
  321SOL    HW2  963   2.001   2.762   2.005 -0.1598 -0.5903 -0.2845
  322SOL     OW  964   2.265   1.931   2.387  0.4222 -0.3531  0.1826
  322SOL    HW1  965   2.231   2.013   2.331  1.1236  0.7637 -0.1863
  322SOL    HW2  966   2.349   1.900   2.352 -1.0741  1.5526  0.4135
  323SOL     OW  967   2.640   3.088   0.771 -0.1317 -0.1956 -0.2725
  323SOL    HW1  968   2.570   3.034   0.822  0.0143 -0.5099 -0.0246
  323SOL    HW2  969   2.602   0.044   0.702  1.3879 -0.6501  2.7757
  324SOL     OW  970   2.748   2.596   2.255 -0.5945 -0.4139 -0.1323
  324SOL    HW1  971   2.844   2.620   2.229  0.1376  0.8394 -2.1174
  324SOL    HW2  972   2.699   2.546   2.183  5.2389 -0.9437 -1.3080
  325SOL     OW  973   1.096   0.632   2.742  0.0162  0.0479  0.3971
  325SOL    HW1  974   1.189   0.664   2.764  0.0451  2.0017 -0.1070
  325SOL    HW2  975   1.092   0.537   2.702  1.5567 -0.0329 -0.3133
  326SOL     OW  976   2.607   2.448   1.014 -0.8795 -0.3395 -0.2008
  326SOL    HW1  977   2.523   2.408   1.050  0.1628 -1.5639 -1.7789
  326SOL    HW2  978   2.590   2.547   0.992  1.2274 -1.6437 -0.2056
  327SOL     OW  979   2.533   3.083   0.158  0.7973  0.0585 -0.2143
  327SOL    HW1  980   2.502   3.054   0.246 -2.8100  2.4230 -1.6063
  327SOL    HW2  981   2.542   2.999   0.102 -1.1070 -0.8238 -3.3811
  328SOL     OW  982   0.578   0.676   1.473  0.7705  0.7310  0.2618
  328SOL    HW1  983   0.637   0.606   1.523  2.6197  0.4100  1.1757
  328SOL    HW2  984   0.507   0.707   1.539 -0.0052 -0.5783  1.6436
  329SOL     OW  985   2.014   0.498   1.556 -0.3501  0.0810 -0.3366
  329SOL    HW1  986   2.016   0.408   1.605 -0.1407  0.1468 -1.6986
  329SOL    HW2  987   2.073   0.565   1.605 -0.2245 -0.5638 -1.8081
  330SOL     OW  988   0.712   0.415   0.872 -0.4342 -0.4160 -0.3151
  330SOL    HW1  989   0.636   0.398   0.936  1.9864  1.6189  0.9206
  330SOL    HW2  990   0.781   0.466   0.922  0.4863  0.4196 -0.4654
  331SOL     OW  991   0.815   1.842   1.908 -0.0451 -0.5347 -0.0062
  331SOL    HW1  992   0.906   1.809   1.887 -2.1284 -0.1200  0.6347
  331SOL    HW2  993   0.764   1.857   1.821 -1.8769  2.2461 -2.0118
  332SOL     OW  994   2.578   2.514   1.679 -0.4203 -0.1899  0.4517
  332SOL    HW1  995   2.653   2.559   1.731  2.6793  0.0250 -0.2406
  332SOL    HW2  996   2.571   2.412   1.696 -0.1422 -3.3831 -0.5405
  333SOL     OW  997   3.075   3.048   0.809  0.0768  0.0616  0.3318
  333SOL    HW1  998   3.076   0.038   0.826 -0.6991  0.0917  1.8374
  333SOL    HW2  999   2.995   3.028   0.751  2.3644 -1.1384 -2.3587
  334SOL     OW 1000   3.103   1.227   0.490 -0.3761 -0.0840  0.2355
  334SOL    HW1 1001   3.007   1.238   0.516  1.2226 -2.5246 -0.0168
  334SOL    HW2 1002   0.053   1.203   0.571  2.1512  1.6236 -1.4177
  335SOL     OW 1003   0.739   2.576   2.813  0.2460  0.1179 -0.5298
  335SOL    HW1 1004   0.729   2.557   2.914 -1.2721 -2.0015  1.2074
  335SOL    HW2 1005   0.739   2.678   2.808  1.0947 -1.2757 -2.3846
  336SOL     OW 1006   2.824   2.884   1.984  0.0211  0.6871 -0.0241
  336SOL    HW1 1007   2.761   2.939   2.042  0.6497 -1.0873 -1.5067
  336SOL    HW2 1008   2.919   2.911   1.993 -2.5256 -1.8315  0.4734
  337SOL     OW 1009   1.314   1.984   1.682 -0.3918  0.1027 -0.1647
  337SOL    HW1 1010   1.226   2.032   1.710 -1.4307  1.1156 -0.9655
  337SOL    HW2 1011   1.393   2.015   1.742  1.2638  1.7424  2.4840
  338SOL     OW 1012   0.916   0.161   2.620  0.6665  0.4446 -0.1017
  338SOL    HW1 1013   0.856   0.231   2.581  1.2751 -2.0546  0.2904
  338SOL    HW2 1014   0.942   0.096   2.544  0.9703  1.4354 -3.3756
  339SOL     OW 1015   0.620   1.249   2.416 -0.5104 -0.0801 -0.3011
  339SOL    HW1 1016   0.621   1.266   2.315  0.8733  0.8430 -0.8154
  339SOL    HW2 1017   0.682   1.170   2.429  0.5293 -1.4988 -1.8917
  340SOL     OW 1018   2.247   0.368   1.096  0.3010  0.1372 -0.0956
  340SOL    HW1 1019   2.289   0.277   1.102 -1.2347  1.3333  1.4499
  340SOL    HW2 1020   2.314   0.444   1.098 -0.1221  0.0409  0.8446
  341SOL     OW 1021   2.182   1.171   0.822  0.0630 -0.1886 -0.2510
  341SOL    HW1 1022   2.130   1.204   0.739  0.1817  0.9056  0.5768
  341SOL    HW2 1023   2.263   1.233   0.841 -0.8710  1.8883  1.5545
  342SOL     OW 1024   2.172   2.680   2.853 -0.3356  0.1303  0.0368
  342SOL    HW1 1025   2.180   2.605   2.929 -1.2381 -0.4323 -0.9950
  342SOL    HW2 1026   2.102   2.753   2.880 -2.8934  2.7053  2.8614
  343SOL     OW 1027   0.089   2.568   1.248  0.2422  0.0437 -0.4806
  343SOL    HW1 1028   0.011   2.508   1.264  0.5039  1.1064 -3.4434
  343SOL    HW2 1029   0.119   2.606   1.342  2.4675 -0.0813  2.2372
  344SOL     OW 1030   2.425   2.705   1.342 -0.3329  0.1335  0.5625
  344SOL    HW1 1031   2.527   2.708   1.322  1.3397  1.5659 -0.8051
  344SOL    HW2 1032   2.394   2.715   1.439  1.3930 -1.4203 -1.5710
  345SOL     OW 1033   2.492   2.266   0.159  0.6295  0.4327  0.3206
  345SOL    HW1 1034   2.496   2.249   0.060 -0.3025  0.1850  2.3220
  345SOL    HW2 1035   2.531   2.356   0.184  2.6063 -1.1461 -0.9184
  346SOL     OW 1036   1.596   2.290   1.496 -0.2668 -0.2799  0.4682
  346SOL    HW1 1037   1.538   2.211   1.475  2.2640  0.1985  3.5583
  346SOL    HW2 1038   1.587   2.315   1.593  0.3718 -2.3555 -0.9945
  347SOL     OW 1039   0.952   2.025   1.536 -0.4088  0.4909  0.0949
  347SOL    HW1 1040   0.914   1.960   1.467 -1.8193  1.0856  0.4161
  347SOL    HW2 1041   0.942   2.119   1.508 -0.7138  3.5965  1.8028
  348SOL     OW 1042   0.224   2.093   1.883  0.4108 -0.1205 -0.4497
  348SOL    HW1 1043   0.225   2.100   1.784 -1.0618  1.3839  1.8676
  348SOL    HW2 1044   0.307   2.052   1.927 -0.0362  0.5655  0.4047
  349SOL     OW 1045   1.637   1.686   1.475 -0.4218 -0.0566 -0.6748
  349SOL    HW1 1046   1.686   1.672   1.564 -0.6368 -1.3707 -1.6880
  349SOL    HW2 1047   1.652   1.777   1.432 -2.2602 -4.0724 -1.5341
  350SOL     OW 1048   2.186   2.198   0.432  0.4860  0.1948  0.7663
  350SOL    HW1 1049   2.119   2.244   0.492  1.2362  0.4605 -1.3914
  350SOL    HW2 1050   2.254   2.271   0.394  0.1565 -1.2539 -1.3368
  351SOL     OW 1051   0.686   3.002   1.543 -0.1708  0.1334  0.4054
  351SOL    HW1 1052   0.666   3.073   1.613  0.0018 -0.9379  1.2898
  351SOL    HW2 1053   0.766   3.039   1.483 -1.2154  0.6396 -1.4050
  352SOL     OW 1054   0.618   0.836   0.808 -0.1662 -0.0611 -0.3887
  352SOL    HW1 1055   0.625   0.807   0.905  1.3111  1.1612 -1.8710
  352SOL    HW2 1056   0.664   0.772   0.741  1.7021 -0.8735 -0.7385
  353SOL     OW 1057   1.164   1.770   2.695  0.0921 -0.0561 -0.2249
  353SOL    HW1 1058   1.068   1.785   2.675  2.4294 -0.8735 -1.6488
  353SOL    HW2 1059   1.183   1.671   2.703 -1.1310  0.8515 -1.4549
  354SOL     OW 1060   1.771   2.798   1.980 -0.1972  0.7469  0.0556
  354SOL    HW1 1061   1.713   2.753   2.050 -0.9148  2.1766  2.4143
  354SOL    HW2 1062   1.709   2.848   1.918  0.1964 -1.6081 -0.9127
  355SOL     OW 1063   1.954   1.186   0.224 -0.1175 -0.1141 -0.4320
  355SOL    HW1 1064   1.999   1.277   0.220 -0.0387  0.1704 -1.0674
  355SOL    HW2 1065   1.945   1.153   0.128 -1.8031  2.5155  2.8292
  356SOL     OW 1066   2.899   1.631   1.312 -0.0521 -0.5911  0.5650
  356SOL    HW1 1067   2.897   1.720   1.258  2.0659 -1.2815  0.3058
  356SOL    HW2 1068   2.989   1.588   1.297  0.5591 -1.2456  0.2742
  357SOL     OW 1069   0.233   2.902   1.183 -0.0782 -0.4327  0.7700
  357SOL    HW1 1070   0.143   2.870   1.214  0.5618 -1.3404 -0.1714
  357SOL    HW2 1071   0.300   2.894   1.256 -2.3477  1.4803 -2.1383
  358SOL     OW 1072   2.509   1.826   1.381  0.6222  0.2211  0.5604
  358SOL    HW1 1073   2.568   1.800   1.461 -0.2181 -1.2661  0.4652
  358SOL    HW2 1074   2.535   1.768   1.296 -2.5069 -0.4551  1.3768
  359SOL     OW 1075   2.065   2.987   2.653 -0.1428  0.2449 -0.6210
  359SOL    HW1 1076   2.106   3.075   2.680  3.4021  0.3840  0.9927
  359SOL    HW2 1077   2.132   2.910   2.657  0.3935  1.4281 -1.2757
  360SOL     OW 1078   1.032   2.849   0.784 -0.0540 -0.0811  0.1354
  360SOL    HW1 1079   1.100   2.874   0.711 -1.6070 -0.9591 -2.0875
  360SOL    HW2 1080   1.072   2.795   0.858 -1.9549 -0.1747 -0.8463
  361SOL     OW 1081   2.180   0.125   0.412 -0.0141  0.1714 -0.3141
  361SOL    HW1 1082   2.165   0.106   0.314  3.3088 -1.5772  2.1623
  361SOL    HW2 1083   2.249   0.195   0.430 -1.9879 -0.7786  1.7043
  362SOL     OW 1084   1.630   0.947   0.946 -0.0169 -0.1305  0.4520
  362SOL    HW1 1085   1.722   0.947   0.908 -0.0329  0.7573  2.3310
  362SOL    HW2 1086   1.625   1.017   1.014  0.1632 -1.3194  1.7533
  363SOL     OW 1087   2.289   1.140   2.455  0.3606 -0.2164 -0.5088
  363SOL    HW1 1088   2.244   1.194   2.532 -1.2765  1.2799  0.1682
  363SOL    HW2 1089   2.241   1.050   2.447 -1.0689  0.6593  1.0718
  364SOL     OW 1090   0.349   0.668   1.311 -0.6527 -0.3488  0.6046
  364SOL    HW1 1091   0.447   0.668   1.350  1.9278  1.1020 -0.7140
  364SOL    HW2 1092   0.313   0.763   1.300  1.1454 -2.2379 -1.3029
  365SOL     OW 1093   0.454   0.137   2.564 -0.0283 -0.0719 -0.5615
  365SOL    HW1 1094   0.417   0.058   2.620  2.0246 -1.2416  1.9432
  365SOL    HW2 1095   0.423   0.134   2.468  1.0522  1.3921  0.4737
  366SOL     OW 1096   2.268   2.061   2.620 -0.2485 -0.3474  0.4210
  366SOL    HW1 1097   2.251   1.995   2.542 -1.3703 -0.9297 -1.1709
  366SOL    HW2 1098   2.285   2.153   2.580  0.9059 -0.6952 -0.6793
  367SOL     OW 1099   2.786   2.525   3.054  0.2324 -1.2153 -0.3870
  367SOL    HW1 1100   2.781   2.604   0.013 -2.1320 -0.4847 -1.1240
  367SOL    HW2 1101   2.846   2.547   2.974  1.3842  2.0718  0.8757
  368SOL     OW 1102   2.745   1.295   1.294  0.1061 -0.1010  0.3712
  368SOL    HW1 1103   2.679   1.338   1.353  1.3704  0.1866 -2.9057
  368SOL    HW2 1104   2.779   1.363   1.230 -1.3575  2.6484 -2.9292
  369SOL     OW 1105   0.941   3.038   2.437  0.4574 -0.7046 -0.4030
  369SOL    HW1 1106   1.027   3.004   2.392  1.2096  2.3130 -0.0494
  369SOL    HW2 1107   0.943   2.994   2.528  0.8114 -0.4864 -1.1503
  370SOL     OW 1108   2.840   0.228   0.437  0.0454  0.2577  0.2284
  370SOL    HW1 1109   2.917   0.293   0.415 -0.1718  1.2914 -3.3876
  370SOL    HW2 1110   2.751   0.274   0.417  1.3980 -0.6509 -0.6330
  371SOL     OW 1111   1.390   2.253   1.098 -0.1242  0.3339 -0.4369
  371SOL    HW1 1112   1.482   2.286   1.123  2.0484 -0.8021 -2.1640
  371SOL    HW2 1113   1.351   2.314   1.030  0.3035  0.6293 -0.5761
  372SOL     OW 1114   0.115   0.860   2.572 -0.8040 -0.0166  0.1903
  372SOL    HW1 1115   0.185   0.788   2.563  0.4437 -0.3888  0.4908
  372SOL    HW2 1116   0.119   0.929   2.498 -0.9201  3.1160 -2.1605
  373SOL     OW 1117   2.552   1.730   0.881  0.0645  0.2430  0.1162
  373SOL    HW1 1118   2.605   1.786   0.811  1.8969 -2.2081 -1.8115
  373SOL    HW2 1119   2.502   1.783   0.946 -0.1163 -1.4582 -2.8553
  374SOL     OW 1120   0.520   2.877   2.565 -0.0941 -0.4069  0.1551
  374SOL    HW1 1121   0.574   2.871   2.652 -1.8550 -2.4052 -1.5791
  374SOL    HW2 1122   0.576   2.872   2.480 -1.6870 -2.0986  2.5652
  375SOL     OW 1123   0.264   2.942   2.654 -0.1337  0.4799  0.3147
  375SOL    HW1 1124   0.342   2.893   2.613 -0.7889  1.6668  3.7856
  375SOL    HW2 1125   0.293   3.000   2.733 -2.4489  0.0368 -2.0264
  376SOL     OW 1126   2.957   2.180   1.907  0.7588 -0.1584  0.0863
  376SOL    HW1 1127   2.952   2.096   1.854 -0.2039  1.7284 -0.5166
  376SOL    HW2 1128   2.864   2.214   1.925  0.7001  1.1482 -1.0232
  377SOL     OW 1129   1.807   2.291   2.722 -0.2475 -0.2909  0.1185
  377SOL    HW1 1130   1.834   2.336   2.636 -0.1036 -1.1083  2.2129
  377SOL    HW2 1131   1.720   2.333   2.769  0.0187  1.9483 -0.3668
  378SOL     OW 1132   0.282   0.375   2.529 -0.3681  0.3381 -0.7406
  378SOL    HW1 1133   0.339   0.368   2.611  0.1389  3.1536 -0.2226
  378SOL    HW2 1134   0.197   0.319   2.527 -1.1730 -0.1893  0.6426
  379SOL     OW 1135   0.392   0.742   0.576 -0.2846 -0.3275  0.2301
  379SOL    HW1 1136   0.442   0.720   0.659 -0.8263 -0.0199  0.6943
  379SOL    HW2 1137   0.381   0.847   0.559  2.2793  2.0346 -0.1170
  380SOL     OW 1138   0.366   1.649   1.775 -0.5886  0.0747  0.4059
  380SOL    HW1 1139   0.455   1.607   1.742  2.7211 -1.5698 -2.7035
  380SOL    HW2 1140   0.372   1.685   1.871  1.1074 -1.0725  1.1248
  381SOL     OW 1141   0.556   1.074   2.009  0.1311 -0.5619 -0.2174
  381SOL    HW1 1142   0.479   1.045   2.067  0.5857 -1.1913  0.5269
  381SOL    HW2 1143   0.531   1.086   1.914 -1.0602 -2.0673  0.9588
  382SOL     OW 1144   2.484   2.138   0.402 -0.7238  0.2527  0.1758
  382SOL    HW1 1145   2.488   2.174   0.304  1.6145 -0.2062 -2.4675
  382SOL    HW2 1146   2.393   2.160   0.440  0.0445 -1.1871  0.8415
  383SOL     OW 1147   0.080   1.938   2.949  0.9917 -0.0432  0.5555
  383SOL    HW1 1148   0.028   1.913   3.036 -1.5398  0.5029  2.3921
  383SOL    HW2 1149   0.177   1.920   2.969  0.0229  1.7601 -0.9129
  384SOL     OW 1150   0.759   2.062   2.986  0.9079  0.1613  0.1698
  384SOL    HW1 1151   0.730   2.073   3.083 -3.0815 -0.2183 -0.7947
  384SOL    HW2 1152   0.686   2.016   2.931  2.4611 -0.8808  0.8185
  385SOL     OW 1153   2.310   2.070   0.712 -0.0133  0.3987 -0.0459
  385SOL    HW1 1154   2.381   2.084   0.781  1.4563  0.6290 -1.2003
  385SOL    HW2 1155   2.313   2.148   0.653 -1.4841  0.6224  1.2957
  386SOL     OW 1156   2.222   0.939   1.812 -0.5307  0.5895  0.2801
  386SOL    HW1 1157   2.324   0.958   1.805  1.4149 -1.6585 -1.4195
  386SOL    HW2 1158   2.182   0.998   1.889  1.1786 -0.7284  2.7832
  387SOL     OW 1159   2.853   1.675   2.172  1.0062 -0.4206 -0.7706
  387SOL    HW1 1160   2.872   1.578   2.207 -0.4804 -2.2588  0.8950
  387SOL    HW2 1161   2.836   1.735   2.254  0.5572  0.2195  1.5533
  388SOL     OW 1162   0.368   1.751   2.026 -0.6250 -0.3277 -0.0544
  388SOL    HW1 1163   0.441   1.694   2.068  1.7341  2.0366  2.3947
  388SOL    HW2 1164   0.391   1.850   2.014  0.4647  1.2912 -0.2744
  389SOL     OW 1165   1.457   1.121   1.818  0.4304  0.3477  0.4136
  389SOL    HW1 1166   1.533   1.155   1.873 -2.3573 -0.6064 -1.4830
  389SOL    HW2 1167   1.397   1.051   1.868 -1.0088  0.4466  3.0620
  390SOL     OW 1168   1.991   3.084   0.946 -0.0840 -0.2081  0.1957
  390SOL    HW1 1169   1.948   3.081   1.041 -0.7159 -0.5536  3.0387
  390SOL    HW2 1170   1.997   0.070   0.908  0.3560  1.0228 -0.2147
  391SOL     OW 1171   1.881   1.764   1.201  0.4852 -0.0049 -0.6709
  391SOL    HW1 1172   1.938   1.691   1.157 -2.1860 -0.9280  1.3108
  391SOL    HW2 1173   1.903   1.764   1.301  0.6760  2.9995 -1.5536
  392SOL     OW 1174   2.762   2.718   0.364 -0.0772 -1.0372  0.2651
  392SOL    HW1 1175   2.698   2.741   0.445 -1.5503 -1.0645 -0.1422
  392SOL    HW2 1176   2.848   2.673   0.401  0.7718 -1.5695  2.0280
  393SOL     OW 1177   2.016   2.049   2.703  0.3559  0.0500  0.0599
  393SOL    HW1 1178   2.109   2.040   2.658  1.3333  0.4402  0.2915
  393SOL    HW2 1179   1.984   2.138   2.712 -0.3961 -0.9235 -0.7894
  394SOL     OW 1180   0.148   2.677   2.517  0.3390 -0.0619 -0.5936
  394SOL    HW1 1181   0.157   2.668   2.620  2.3997  2.0093  0.1400
  394SOL    HW2 1182   0.048   2.684   2.494  2.3399  0.1815  2.1575
  395SOL     OW 1183   0.739   0.218   0.658  0.3997 -0.2762  0.3371
  395SOL    HW1 1184   0.700   0.247   0.570 -0.9648 -2.0892  0.6823
  395SOL    HW2 1185   0.770   0.299   0.712 -1.2199  0.2713  1.5441
  396SOL     OW 1186   1.962   0.913   0.615  0.1520 -0.3198 -0.7789
  396SOL    HW1 1187   1.872   0.875   0.582 -0.0448 -0.0814 -2.3469
  396SOL    HW2 1188   2.010   0.965   0.539  0.1751  1.3838 -0.5180
  397SOL     OW 1189   0.611   0.736   2.175  0.0954 -0.6821  0.5173
  397SOL    HW1 1190   0.705   0.733   2.201 -3.6889  0.1335 -2.2506
  397SOL    HW2 1191   0.554   0.784   2.238 -0.2546 -1.0349 -0.8026
  398SOL     OW 1192   0.930   2.838   0.449  0.2194 -0.5482 -0.1511
  398SOL    HW1 1193   0.900   2.931   0.433  1.0602  2.2679 -1.2520
  398SOL    HW2 1194   0.907   2.812   0.545 -1.1622  1.8913 -0.4570
  399SOL     OW 1195   2.365   2.982   1.683  0.1220  0.2523  0.8282
  399SOL    HW1 1196   2.374   2.887   1.650 -0.5381  1.3250 -1.6366
  399SOL    HW2 1197   2.427   3.046   1.628  1.4012 -0.5276  0.1138
  400SOL     OW 1198   0.977   1.848   2.372  0.8143 -0.6853  0.0659
  400SOL    HW1 1199   1.001   1.940   2.334  0.7672  0.6715  0.7587
  400SOL    HW2 1200   0.950   1.853   2.471  1.1989 -1.0803  0.8139
  401SOL     OW 1201   0.777   1.203   2.774 -0.6411 -0.5197  0.4776
  401SOL    HW1 1202   0.706   1.275   2.768  2.5112  1.3158  1.7981
  401SOL    HW2 1203   0.744   1.113   2.808  1.2678  0.6220  1.0867
  402SOL     OW 1204   3.072   1.977   0.766  0.0892 -0.4212  0.3010
  402SOL    HW1 1205   2.996   2.041   0.737 -0.3096  0.2369 -0.1080
  402SOL    HW2 1206   3.031   1.889   0.798  1.2951  0.8819 -0.3840
  403SOL     OW 1207   0.104   1.041   2.314  0.6410  0.3655  0.3531
  403SOL    HW1 1208   0.029   1.075   2.255  0.1111  1.0375 -0.8038
  403SOL    HW2 1209   0.190   1.035   2.259 -1.4773 -0.2426 -0.1384
  404SOL     OW 1210   3.015   2.647   2.199  0.2278 -0.1914 -0.1712
  404SOL    HW1 1211   2.990   2.548   2.181 -1.2077 -1.2980 -2.3024
  404SOL    HW2 1212   3.093   2.680   2.143 -1.9170 -1.3875  1.6754
  405SOL     OW 1213   0.077   0.382   1.797  0.0133  0.6301 -0.4950
  405SOL    HW1 1214   0.164   0.343   1.818  2.3400 -1.2571 -2.1104
  405SOL    HW2 1215   0.034   0.419   1.880 -0.5252  0.3261  1.4697
  406SOL     OW 1216   1.521   1.540   2.561  0.1726 -0.0424  0.0644
  406SOL    HW1 1217   1.500   1.605   2.636  1.9759 -2.6936 -0.6481
  406SOL    HW2 1218   1.511   1.569   2.466  1.6272 -3.5435  1.2404
  407SOL     OW 1219   1.601   0.889   2.724  0.1438  0.0320 -0.1995
  407SOL    HW1 1220   1.655   0.973   2.724 -1.9991  0.1941  0.2863
  407SOL    HW2 1221   1.629   0.820   2.655  2.3066 -1.3643 -1.1829
  408SOL     OW 1222   0.735   0.062   2.290  0.2222  0.2376 -0.1800
  408SOL    HW1 1223   0.810   0.023   2.351  1.9837  0.5671 -0.7063
  408SOL    HW2 1224   0.697   3.092   2.237 -0.8404 -0.8379  0.1573
  409SOL     OW 1225   0.141   2.100   0.980 -0.6086  0.3036 -0.3720
  409SOL    HW1 1226   0.069   2.065   0.915  0.5424 -0.4182 -0.1805
  409SOL    HW2 1227   0.213   2.029   0.988  3.4555  1.0117  2.3502
  410SOL     OW 1228   2.527   1.499   0.133  0.1030 -0.1155  0.3887
  410SOL    HW1 1229   2.437   1.544   0.150 -0.5944  0.0150  1.8893
  410SOL    HW2 1230   2.557   1.517   0.036  0.2173 -2.4134 -3.0066
  411SOL     OW 1231   0.099   0.171   1.101 -0.4069 -0.6361  0.0777
  411SOL    HW1 1232   0.070   0.107   1.174  2.1929  1.9539 -1.3288
  411SOL    HW2 1233   0.174   0.125   1.050 -0.1900  1.1927 -1.5972
  412SOL     OW 1234   1.863   0.764   1.595 -0.3709  0.4031  0.1502
  412SOL    HW1 1235   1.925   0.687   1.566  4.0747  1.6933 -3.1558
  412SOL    HW2 1236   1.793   0.785   1.520 -1.1196 -3.3190 -1.6281
  413SOL     OW 1237   0.875   0.240   1.842  0.0233  0.4941 -0.1211
  413SOL    HW1 1238   0.907   0.218   1.938 -1.1768 -0.0699  1.2871
  413SOL    HW2 1239   0.791   0.298   1.841 -2.0989  0.1832  0.1714
  414SOL     OW 1240   2.812   1.617   2.591  0.0943  0.3194  0.0901
  414SOL    HW1 1241   2.888   1.554   2.618  2.5016 -2.9359  1.8288
  414SOL    HW2 1242   2.732   1.557   2.568  3.4372  2.7198  0.6323
  415SOL     OW 1243   0.742   2.180   0.132 -0.3314  0.0462 -0.2771
  415SOL    HW1 1244   0.824   2.244   0.104  0.5758  1.8399  0.2278
  415SOL    HW2 1245   0.724   2.198   0.231 -0.6810  1.6038  2.4670
  416SOL     OW 1246   1.888   3.074   2.981 -0.4187 -0.1540  0.6846
  416SOL    HW1 1247   1.896   3.093   3.083  0.1950  0.7881 -0.7392
  416SOL    HW2 1248   1.901   0.051   2.933  0.0523  1.2612 -1.0952
  417SOL     OW 1249   0.327   0.381   0.541  0.1676  0.0311 -0.3860
  417SOL    HW1 1250   0.376   0.424   0.621 -2.0224 -1.5525 -1.0062
  417SOL    HW2 1251   0.240   0.336   0.573 -1.1130  1.3650 -2.2713
  418SOL     OW 1252   2.662   2.903   1.124  0.3640  0.4065 -0.1472
  418SOL    HW1 1253   2.694   2.822   1.179 -0.0676 -0.1210 -0.0167
  418SOL    HW2 1254   2.716   2.985   1.162  2.3130  2.6432  2.7462
  419SOL     OW 1255   0.096   2.740   0.567 -0.1410 -0.0475  0.4520
  419SOL    HW1 1256   0.132   2.750   0.661 -0.9460 -0.9230  0.2174
  419SOL    HW2 1257   0.171   2.753   0.498 -2.6495  1.8708  0.2567
  420SOL     OW 1258   0.253   1.366   1.800  0.0674 -0.3640  0.2868
  420SOL    HW1 1259   0.275   1.464   1.791  0.8261 -0.5365  0.5668
  420SOL    HW2 1260   0.249   1.316   1.709  1.0517 -1.8160 -1.5775
  421SOL     OW 1261   1.476   2.773   0.728 -0.0139  1.0226 -0.3261
  421SOL    HW1 1262   1.380   2.800   0.699 -0.5376  0.6310 -1.0820
  421SOL    HW2 1263   1.528   2.857   0.730 -0.2098 -0.5489 -0.4987
  422SOL     OW 1264   0.769   0.365   1.421  0.3681 -0.3075  0.0130
  422SOL    HW1 1265   0.793   0.426   1.500  2.6799  0.5527  2.1049
  422SOL    HW2 1266   0.683   0.312   1.434 -0.4468  0.3105  2.4626
  423SOL     OW 1267   0.795   1.307   1.729  0.1805 -0.2553  0.0980
  423SOL    HW1 1268   0.839   1.377   1.669  1.8383 -1.0456 -0.6337
  423SOL    HW2 1269   0.778   1.216   1.683 -1.5873 -1.3779  1.0755
  424SOL     OW 1270   1.776   2.056   0.115 -0.2470 -0.5975  0.4130
  424SOL    HW1 1271   1.752   2.117   0.197 -1.1153 -0.6090  0.5777
  424SOL    HW2 1272   1.805   2.110   0.032 -0.2593  0.1073  0.2818
  425SOL     OW 1273   2.878   0.289   2.081 -0.0328 -0.0015 -0.1084
  425SOL    HW1 1274   2.934   0.235   2.144  0.1138  0.0108 -0.4659
  425SOL    HW2 1275   2.847   0.238   1.999 -0.5308  3.1776  1.0833
  426SOL     OW 1276   0.145   2.668   2.819 -0.8992 -0.0398 -0.1932
  426SOL    HW1 1277   0.166   2.763   2.848  0.5823 -1.5245 -2.9282
  426SOL    HW2 1278   0.174   2.596   2.884 -1.6726  0.0451 -0.9612
  427SOL     OW 1279   1.285   0.453   2.932  0.3009 -0.0189  0.2644
  427SOL    HW1 1280   1.293   0.473   3.035 -0.3162  3.3404  4.8381
  427SOL    HW2 1281   1.185   0.441   2.915 -2.0700  0.4942  2.4613
  428SOL     OW 1282   2.822   0.939   1.827 -0.3297  0.3951  0.2838
  428SOL    HW1 1283   2.807   0.973   1.919  0.6310  0.0654 -0.8552
  428SOL    HW2 1284   2.776   0.986   1.747 -0.8921  2.8551 -1.3459
  429SOL     OW 1285   1.925   2.964   1.443  0.0996 -0.3914  0.3563
  429SOL    HW1 1286   1.971   2.981   1.533  1.0786  0.1131 -1.3430
  429SOL    HW2 1287   1.956   2.876   1.413 -1.1963 -1.2672  2.7079
  430SOL     OW 1288   1.141   1.470   2.716  0.5215  0.7146  0.4207
  430SOL    HW1 1289   1.059   1.492   2.777 -1.1681 -1.4738  1.5665
  430SOL    HW2 1290   1.223   1.453   2.772 -1.2671  3.0765  0.5642
  431SOL     OW 1291   2.738   1.586   1.533  0.2022  0.6396 -0.0366
  431SOL    HW1 1292   2.695   1.659   1.592  0.0291  2.5876 -1.0132
  431SOL    HW2 1293   2.816   1.616   1.475  0.3774  0.2187 -0.2470
  432SOL     OW 1294   1.156   2.556   2.353 -0.2177 -0.1827  0.4671
  432SOL    HW1 1295   1.172   2.467   2.397  0.4928  1.1510 -1.5528
  432SOL    HW2 1296   1.058   2.560   2.326 -3.3342  0.1341  0.6447
  433SOL     OW 1297   1.885   0.315   2.110 -0.5194  0.0464 -0.1684
  433SOL    HW1 1298   1.979   0.281   2.135  0.2248  1.7804  1.9399
  433SOL    HW2 1299   1.848   0.364   2.191 -1.0849 -0.3483 -1.3910
  434SOL     OW 1300   0.576   2.358   2.415  0.8044  0.0331 -0.2251
  434SOL    HW1 1301   0.647   2.432   2.432  1.7342  0.8874 -0.0741
  434SOL    HW2 1302   0.618   2.265   2.410  0.3176 -1.9452  1.7934
  435SOL     OW 1303   0.160   3.055   0.161 -0.1070 -0.3456  0.0969
  435SOL    HW1 1304   0.231   0.016   0.145 -0.3601  0.9927  0.7564
  435SOL    HW2 1305   0.154   3.023   0.256  0.9282 -0.5068 -1.4411
  436SOL     OW 1306   0.716   0.845   1.940  0.3046  0.2541 -0.1768
  436SOL    HW1 1307   0.681   0.942   1.937  1.7265 -0.5952  0.6559
  436SOL    HW2 1308   0.672   0.802   2.022 -0.3134  0.5628  0.6516
  437SOL     OW 1309   0.527   2.293   2.754  0.2039 -0.1862  0.0853
  437SOL    HW1 1310   0.558   2.392   2.750 -0.8393  3.8750  0.6353
  437SOL    HW2 1311   0.442   2.279   2.806 -1.0809 -0.0312 -1.4060
  438SOL     OW 1312   0.980   1.275   1.183 -0.1570  0.1162 -0.3605
  438SOL    HW1 1313   0.944   1.337   1.114  0.0978  0.0600  0.5430
  438SOL    HW2 1314   1.081   1.289   1.189  0.5820  0.5489 -0.7057
  439SOL     OW 1315   2.554   1.215   2.402  0.2292 -0.5370 -0.1473
  439SOL    HW1 1316   2.626   1.145   2.391 -2.2728  1.5702  0.9949
  439SOL    HW2 1317   2.459   1.185   2.431 -1.9249  1.9219  1.6157
  440SOL     OW 1318   0.203   0.720   0.101 -0.2111  0.1759 -0.3259
  440SOL    HW1 1319   0.185   0.622   0.083  0.6757  3.7548  1.6372
  440SOL    HW2 1320   0.136   0.781   0.048  0.7933 -0.1015  1.1630
  441SOL     OW 1321   1.088   2.109   1.747 -0.3066 -0.5679  0.2874
  441SOL    HW1 1322   1.058   2.202   1.770  1.9387  1.6885 -2.0847
  441SOL    HW2 1323   1.039   2.069   1.677  1.3164  1.5098  3.9617
  442SOL     OW 1324   2.010   1.717   0.826 -0.4716  0.7516 -0.1218
  442SOL    HW1 1325   2.031   1.696   0.926 -0.7798 -3.3445  2.2995
  442SOL    HW2 1326   2.082   1.784   0.793 -0.9217  1.0370 -0.3199
  443SOL     OW 1327   2.465   1.869   2.649 -0.2550 -0.5802 -0.4804
  443SOL    HW1 1328   2.550   1.855   2.707  0.3555  0.3862 -1.3670
  443SOL    HW2 1329   2.398   1.919   2.701 -1.4846 -1.5766 -0.2774
  444SOL     OW 1330   1.925   1.579   2.850  0.4482 -0.3589  0.2870
  444SOL    HW1 1331   1.857   1.648   2.872  0.8298 -2.0999 -1.2362
  444SOL    HW2 1332   2.017   1.623   2.832  2.5220  1.6207  3.9463
  445SOL     OW 1333   2.479   2.852   1.911 -0.4149  0.3450 -0.3167
  445SOL    HW1 1334   2.532   2.916   1.970 -1.3686 -0.0282 -1.5026
  445SOL    HW2 1335   2.434   2.902   1.838  0.7134 -0.5695  3.0950
  446SOL     OW 1336   1.017   0.964   1.671 -0.0569 -0.0453  0.1787
  446SOL    HW1 1337   1.063   0.929   1.586 -0.0825  1.9637 -0.6953
  446SOL    HW2 1338   1.042   0.906   1.753 -1.2612 -0.0692 -3.0600
  447SOL     OW 1339   1.072   1.004   1.042 -0.1105  0.0843 -0.9465
  447SOL    HW1 1340   1.140   0.946   1.093  1.4656 -3.3026  0.5311
  447SOL    HW2 1341   1.023   1.069   1.098  0.5828  0.2758  0.6999
  448SOL     OW 1342   1.255   1.325   2.341  0.4380  0.5942 -0.1615
  448SOL    HW1 1343   1.154   1.332   2.373 -1.8012  0.1113  1.7667
  448SOL    HW2 1344   1.265   1.379   2.251 -2.6113  1.1225 -1.4084
  449SOL     OW 1345   3.095   2.100   2.263 -0.2741 -0.2759 -0.1324
  449SOL    HW1 1346   0.037   2.067   2.342 -0.4382  1.7747 -2.8137
  449SOL    HW2 1347   0.015   2.053   2.178  0.0191  1.1351  1.3721
  450SOL     OW 1348   2.084   1.750   1.949  0.1581 -0.0214 -0.1793
  450SOL    HW1 1349   2.087   1.707   2.042 -1.2773  0.8260 -1.4532
  450SOL    HW2 1350   1.994   1.788   1.923  1.4045  0.6336  0.8027
  451SOL     OW 1351   2.545   1.422   1.431 -0.0242  0.2987  0.3200
  451SOL    HW1 1352   2.616   1.483   1.469  1.9294 -1.4264  1.2697
  451SOL    HW2 1353   2.454   1.442   1.475 -2.8145  0.0198  2.3254
  452SOL     OW 1354   0.473   1.408   1.506 -0.4121 -0.1894  0.0020
  452SOL    HW1 1355   0.398   1.346   1.536 -0.5814  1.3495 -1.2346
  452SOL    HW2 1356   0.487   1.407   1.404 -0.2757 -0.4888 -2.3956
  453SOL     OW 1357   0.525   1.120   0.749 -0.0790 -0.3225  0.4595
  453SOL    HW1 1358   0.452   1.091   0.683 -2.8180 -2.3661 -0.2428
  453SOL    HW2 1359   0.569   1.041   0.800 -1.8288 -0.5342 -2.0632
  454SOL     OW 1360   0.767   1.600   0.396  0.2446  0.1547  0.2214
  454SOL    HW1 1361   0.718   1.510   0.414 -2.2206 -1.4756  3.3888
  454SOL    HW2 1362   0.704   1.682   0.407 -1.0460  0.3390  1.6918
  455SOL     OW 1363   1.938   0.671   1.207 -0.2481  0.2576 -0.7547
  455SOL    HW1 1364   1.862   0.714   1.262 -1.6772  1.3912  1.0068
  455SOL    HW2 1365   1.961   0.572   1.231  1.5745 -1.3211 -3.0263
  456SOL     OW 1366   1.621   2.766   0.974 -0.0751 -0.0915  0.3307
  456SOL    HW1 1367   1.557   2.737   0.903 -0.2641  0.5426  1.4730
  456SOL    HW2 1368   1.719   2.773   0.943  1.8160  0.2346 -1.4047
  457SOL     OW 1369   1.984   0.489   2.614  0.1273  0.0454 -0.3025
  457SOL    HW1 1370   1.908   0.459   2.679  0.9200  1.1496  1.7561
  457SOL    HW2 1371   2.009   0.418   2.551  0.4471  0.4557  4.1864
  458SOL     OW 1372   2.625   0.753   2.871  0.1272  0.5480  0.1196
  458SOL    HW1 1373   2.575   0.811   2.804  0.9795  1.3248  0.1800
  458SOL    HW2 1374   2.709   0.707   2.836 -1.2238  2.0034  0.5941
  459SOL     OW 1375   0.101   1.677   1.992  0.0142 -0.2595  0.1792
  459SOL    HW1 1376   0.202   1.707   1.994  2.1226  1.4279 -1.0310
  459SOL    HW2 1377   0.096   1.604   2.059 -0.9532  1.1292 -0.8807
  460SOL     OW 1378   0.435   0.545   3.058  0.0239 -0.4503 -0.1946
  460SOL    HW1 1379   0.371   0.587   2.995  1.8526 -2.3038  1.5331
  460SOL    HW2 1380   0.510   0.613   3.070 -1.7884 -0.9945  1.5065
  461SOL     OW 1381   0.024   2.314   0.503 -0.2993  0.3911 -0.3591
  461SOL    HW1 1382   3.060   2.244   0.498 -1.6656 -4.1385 -1.2970
  461SOL    HW2 1383   0.092   2.306   0.580  3.3521 -1.3936 -0.0731
  462SOL     OW 1384   0.066   2.905   1.530  0.0964 -0.2917  0.4610
  462SOL    HW1 1385   0.090   2.812   1.488  2.7784 -1.4976  1.7745
  462SOL    HW2 1386   0.081   2.982   1.465  3.0286 -0.7457 -1.1682
  463SOL     OW 1387   1.772   2.052   1.603  0.4779  0.7391 -0.5459
  463SOL    HW1 1388   1.734   2.016   1.516  1.5672  2.5109 -1.8778
  463SOL    HW2 1389   1.827   2.128   1.580 -3.7961 -1.8307 -0.0146
  464SOL     OW 1390   0.141   2.837   0.827  0.0432  0.2070 -0.4150
  464SOL    HW1 1391   0.054   2.898   0.821 -1.1725  1.9980 -0.1118
  464SOL    HW2 1392   0.221   2.896   0.816 -1.2429  1.9990  1.6495
  465SOL     OW 1393   0.335   0.075   1.520 -0.1775 -0.0619  0.4136
  465SOL    HW1 1394   0.366   0.041   1.614  0.8846 -0.4490 -1.2071
  465SOL    HW2 1395   0.403   0.147   1.494  0.0921 -0.2981  1.8900
  466SOL     OW 1396   1.174   2.293   2.440  0.0423 -0.6786 -0.3956
  466SOL    HW1 1397   1.242   2.290   2.515 -1.0864  1.4392  0.2917
  466SOL    HW2 1398   1.086   2.326   2.479 -1.2988 -0.4927  1.7542
  467SOL     OW 1399   2.997   1.292   1.039 -0.3391 -0.0980  1.0051
  467SOL    HW1 1400   2.936   1.371   1.067 -1.2862  1.2810  0.1674
  467SOL    HW2 1401   2.990   1.270   0.936 -0.4024 -0.0796 -3.1945
  468SOL     OW 1402   2.333   2.069   2.884 -0.3115 -0.2035 -0.8847
  468SOL    HW1 1403   2.324   2.056   2.788  0.2901  1.2393 -1.0439
  468SOL    HW2 1404   2.254   2.024   2.935 -0.7090 -0.6807 -0.9036
  469SOL     OW 1405   1.345   2.086   0.626 -0.0072 -0.0456 -0.2035
  469SOL    HW1 1406   1.325   2.053   0.532 -0.0760 -0.9214  1.2723
  469SOL    HW2 1407   1.292   2.036   0.700 -0.4716  0.8236  1.7770
  470SOL     OW 1408   1.986   1.756   1.450 -0.0540 -0.6458  0.4197
  470SOL    HW1 1409   2.075   1.716   1.456 -2.4398  1.9812  1.3809
  470SOL    HW2 1410   1.950   1.784   1.541 -0.0265  1.8046  0.5415
  471SOL     OW 1411   0.309   2.376   0.208 -0.6009  0.1916  0.3146
  471SOL    HW1 1412   0.316   2.457   0.272  0.5229  0.1224 -0.6470
  471SOL    HW2 1413   0.287   2.287   0.257  2.5465 -1.4087  0.1542
  472SOL     OW 1414   2.473   1.681   2.198 -0.2696 -0.1297  0.3303
  472SOL    HW1 1415   2.511   1.769   2.228 -1.9720 -3.3609 -0.2357
  472SOL    HW2 1416   2.515   1.643   2.115 -1.9066 -1.1518  2.6295
  473SOL     OW 1417   1.268   2.388   0.907  0.3745  0.0723 -0.6141
  473SOL    HW1 1418   1.185   2.325   0.923 -1.2959 -1.4329  0.8100
  473SOL    HW2 1419   1.242   2.487   0.924 -0.6870  0.9483  1.1827
  474SOL     OW 1420   3.008   0.192   1.360 -0.4055 -0.1627  0.0791
  474SOL    HW1 1421   2.992   0.260   1.434  0.6907 -0.9668 -0.2586
  474SOL    HW2 1422   2.968   0.231   1.273 -0.6057  0.8812 -1.6085
  475SOL     OW 1423   2.285   2.870   2.108  0.7128 -0.6107 -0.1044
  475SOL    HW1 1424   2.295   2.922   2.190 -0.7836 -1.0167 -4.0466
  475SOL    HW2 1425   2.368   2.866   2.053  0.1179  0.7966 -0.1019
  476SOL     OW 1426   0.459   0.495   0.735  0.1760 -0.1981  1.0109
  476SOL    HW1 1427   0.540   0.483   0.799  0.3294 -0.4588  1.1885
  476SOL    HW2 1428   0.380   0.522   0.791  1.4918 -1.0622 -0.5836
  477SOL     OW 1429   0.687   2.045   0.898  0.4318 -0.2512 -1.0104
  477SOL    HW1 1430   0.759   2.086   0.952 -0.5304  0.6843  1.2362
  477SOL    HW2 1431   0.671   1.951   0.940 -1.7136 -3.6207  0.8382
  478SOL     OW 1432   0.942   2.401   2.788  0.2189  0.3312 -0.3806
  478SOL    HW1 1433   0.981   2.318   2.839  0.6104 -1.1323  0.6067
  478SOL    HW2 1434   0.870   2.453   2.835 -0.4407  1.3483 -1.3795
  479SOL     OW 1435   3.029   1.183   2.129 -0.4499  0.5310  0.0871
  479SOL    HW1 1436   2.939   1.139   2.116  0.9075  0.9391 -0.4622
  479SOL    HW2 1437   3.057   1.226   2.042 -0.3351 -0.0625  1.7949
  480SOL     OW 1438   0.260   2.467   3.000  0.5409  0.0021  0.2319
  480SOL    HW1 1439   0.217   2.471   3.093  1.9962  0.1219  3.1597
  480SOL    HW2 1440   0.344   2.403   2.994  2.2363 -0.1326  1.0392
  481SOL     OW 1441   1.592   2.898   2.325 -0.4618 -0.1883 -0.0367
  481SOL    HW1 1442   1.688   2.883   2.353  0.5261  0.2013  0.9616
  481SOL    HW2 1443   1.578   2.994   2.286  0.1550  2.5577  0.1796
  482SOL     OW 1444   1.590   2.012   2.926  0.3436 -0.2770 -0.2628
  482SOL    HW1 1445   1.661   2.082   2.944  2.4330  0.4935  2.6441
  482SOL    HW2 1446   1.589   1.992   2.825  0.5455 -0.4774  1.7199
  483SOL     OW 1447   1.203   2.494   2.720 -0.1828 -0.1697  0.1045
  483SOL    HW1 1448   1.252   2.404   2.717 -0.4500  0.7514  0.7901
  483SOL    HW2 1449   1.105   2.472   2.740 -0.4458  1.6717 -0.5310
  484SOL     OW 1450   0.472   2.755   0.980 -0.1918  0.2927  0.6546
  484SOL    HW1 1451   0.384   2.786   0.945  3.8203  2.8526 -1.2560
  484SOL    HW2 1452   0.515   2.822   1.044 -0.0377  0.4707  2.0288
  485SOL     OW 1453   2.333   0.520   0.749 -0.4400 -0.0134 -0.5315
  485SOL    HW1 1454   2.334   0.618   0.717  0.7176 -2.3217 -0.6340
  485SOL    HW2 1455   2.240   0.496   0.791 -1.2536 -0.7940  2.7229
  486SOL     OW 1456   2.100   2.752   2.417 -0.1477  0.1646  0.6325
  486SOL    HW1 1457   2.085   2.701   2.504 -2.1141 -1.0130  0.2502
  486SOL    HW2 1458   2.201   2.763   2.402 -0.2958  1.8266  0.3534
  487SOL     OW 1459   0.985   1.568   0.786 -0.0885  0.4118  0.2891
  487SOL    HW1 1460   0.937   1.543   0.699 -0.1294 -0.3349 -0.8657
  487SOL    HW2 1461   0.982   1.669   0.802  0.0267 -1.7869  1.2700
  488SOL     OW 1462   2.185   0.332   0.067 -0.6512  0.0693 -0.2572
  488SOL    HW1 1463   2.196   0.394   0.150  4.1023  1.3334  0.4012
  488SOL    HW2 1464   2.134   0.374   3.097  1.5732  1.0031  1.9891
  489SOL     OW 1465   2.016   2.960   0.542 -0.2034 -0.1169  0.4006
  489SOL    HW1 1466   1.967   2.918   0.614  4.7206  1.2837 -1.9829
  489SOL    HW2 1467   1.984   3.057   0.528  0.3051  2.5790 -5.2602
  490SOL     OW 1468   1.504   0.080   2.961  0.1110 -0.1994 -0.0285
  490SOL    HW1 1469   1.459   0.073   3.053  0.0655 -3.0401 -0.0679
  490SOL    HW2 1470   1.577   0.014   2.958  0.1125 -1.0437 -0.4360
  491SOL     OW 1471   0.776   0.036   1.113  0.2320 -0.3589 -0.1567
  491SOL    HW1 1472   0.820   0.119   1.162  1.3751 -1.4076 -1.2233
  491SOL    HW2 1473   0.853   3.107   1.060  3.0055 -2.4672 -0.7105
  492SOL     OW 1474   1.926   2.867   0.222 -0.3093 -0.2285  0.2117
  492SOL    HW1 1475   2.013   2.860   0.279  1.8003  1.7493  0.6782
  492SOL    HW2 1476   1.921   2.791   0.155  0.7660 -0.9520 -2.8183
  493SOL     OW 1477   1.345   2.115   2.887  0.6386  0.0400 -0.3376
  493SOL    HW1 1478   1.282   2.033   2.880 -0.6924 -1.6133 -0.2110
  493SOL    HW2 1479   1.437   2.076   2.906  1.0103 -1.1678 -0.9788
  494SOL     OW 1480   0.376   1.235   1.172  0.1644 -0.3811  0.1183
  494SOL    HW1 1481   0.448   1.307   1.184  1.6386 -3.8947 -2.3351
  494SOL    HW2 1482   0.428   1.146   1.149  0.5793 -1.4232  0.3910
  495SOL     OW 1483   2.916   0.697   1.567  0.1202  0.1654  0.1693
  495SOL    HW1 1484   2.995   0.757   1.535 -1.5404 -1.8203 -0.8455
  495SOL    HW2 1485   2.895   0.687   1.667 -0.6825  1.0848 -0.1682
  496SOL     OW 1486   2.369   2.359   2.228 -0.3524 -0.0101 -0.7243
  496SOL    HW1 1487   2.451   2.378   2.176 -4.8637 -0.7345  1.2181
  496SOL    HW2 1488   2.299   2.431   2.209  0.9789 -2.3714  3.2390
  497SOL     OW 1489   1.613   1.180   2.698 -0.1053 -0.1969 -0.1326
  497SOL    HW1 1490   1.692   1.163   2.632  2.5481 -2.9027 -1.5130
  497SOL    HW2 1491   1.531   1.210   2.644 -3.1498 -0.1691 -2.6578
  498SOL     OW 1492   0.895   2.017   0.659  0.9440 -0.2328  0.0615
  498SOL    HW1 1493   0.963   2.094   0.658 -0.3032 -3.9810 -0.9005
  498SOL    HW2 1494   0.796   2.042   0.665 -2.3664 -0.9047  0.9151
  499SOL     OW 1495   0.044   1.580   0.957  0.0455  0.0146  0.0455
  499SOL    HW1 1496   3.091   1.544   0.883 -1.6585  0.1984  0.0290
  499SOL    HW2 1497   0.144   1.570   0.940 -2.5242  2.3647  1.2997
  500SOL     OW 1498   1.187   2.427   0.478 -0.5437  0.3644 -0.1860
  500SOL    HW1 1499   1.173   2.458   0.382  1.0598 -2.6208 -1.8425
  500SOL    HW2 1500   1.276   2.448   0.520 -2.6276 -1.0782  0.2342
  501SOL     OW 1501   2.052   2.560   1.099  0.1501 -0.5160 -0.2135
  501SOL    HW1 1502   2.038   2.456   1.095  1.4471 -1.7532 -0.5898
  501SOL    HW2 1503   2.092   2.601   1.013  2.7341  0.9107 -1.8822
  502SOL     OW 1504   0.293   0.410   1.355 -0.6760 -0.2705 -0.5507
  502SOL    HW1 1505   0.228   0.401   1.281 -1.3999  0.9720  2.5260
  502SOL    HW2 1506   0.320   0.508   1.354 -0.7040 -0.6785 -0.9541
  503SOL     OW 1507   2.029   0.234   1.653 -0.1030 -0.3754  0.4087
  503SOL    HW1 1508   1.942   0.179   1.657 -0.4302  1.8337 -0.7603
  503SOL    HW2 1509   2.082   0.214   1.740  2.8996  1.0196 -2.3115
  504SOL     OW 1510   2.009   0.748   1.920 -0.7970 -0.2594  0.3230
  504SOL    HW1 1511   2.015   0.653   1.881  0.2374  2.4854  1.4444
  504SOL    HW2 1512   2.023   0.814   1.844 -0.8552  0.8634 -0.1119
  505SOL     OW 1513   1.158   2.821   2.374 -0.3241 -0.4046  0.3753
  505SOL    HW1 1514   1.171   2.721   2.380 -0.9454  0.0254  2.4853
  505SOL    HW2 1515   1.232   2.870   2.422 -3.3881 -2.0586  0.9919
  506SOL     OW 1516   0.349   0.310   1.838 -0.4188  0.6984  0.3935
  506SOL    HW1 1517   0.374   0.351   1.930  0.4742  0.0813  0.0692
  506SOL    HW2 1518   0.384   0.219   1.816  0.2259 -0.8270  1.0365
  507SOL     OW 1519   1.422   0.094   0.096  0.1161  0.0142  0.3877
  507SOL    HW1 1520   1.336   0.108   0.150 -2.6806  1.3127 -1.2417
  507SOL    HW2 1521   1.505   0.135   0.144  0.0781  0.3202  0.2404
  508SOL     OW 1522   2.132   0.501   2.261  0.5416 -0.3465 -0.6930
  508SOL    HW1 1523   2.154   0.571   2.189  0.0143 -0.3443  2.8390
  508SOL    HW2 1524   2.143   0.409   2.221  0.6501  2.3659  1.8335
  509SOL     OW 1525   0.736   1.690   2.324 -0.4411  0.0690 -0.3443
  509SOL    HW1 1526   0.738   1.623   2.399 -0.1224  4.7555  1.0723
  509SOL    HW2 1527   0.814   1.756   2.325 -2.4014  0.8046  2.2174
  510SOL     OW 1528   2.952   0.636   0.871  0.4402  0.1234 -0.3342
  510SOL    HW1 1529   3.039   0.680   0.857 -3.2674 -2.6022 -0.5170
  510SOL    HW2 1530   2.953   0.595   0.967 -1.6601  0.4895  3.0387
  511SOL     OW 1531   1.728   1.466   1.317  0.1184  0.0871 -0.0266
  511SOL    HW1 1532   1.726   1.549   1.379 -0.5480 -0.1388 -0.9968
  511SOL    HW2 1533   1.814   1.412   1.330 -0.0367  2.8972 -0.9049
  512SOL     OW 1534   0.323   1.466   0.570 -0.0586  0.1002  0.3241
  512SOL    HW1 1535   0.417   1.495   0.542  0.8492  1.7791  0.8064
  512SOL    HW2 1536   0.326   1.401   0.648 -0.6912  0.6573 -1.8310
  513SOL     OW 1537   0.501   2.064   1.158 -0.4147 -0.0362 -0.1892
  513SOL    HW1 1538   0.444   1.992   1.117  1.8914  2.2114  1.0923
  513SOL    HW2 1539   0.525   2.132   1.085  2.3533 -1.0536  0.2335
  514SOL     OW 1540   0.195   2.155   0.341  0.2133 -0.1964  0.5348
  514SOL    HW1 1541   0.105   2.187   0.375  0.9018 -0.1689 -1.1782
  514SOL    HW2 1542   0.186   2.056   0.317  0.7920  2.3740  4.0643
  515SOL     OW 1543   2.855   0.015   3.021 -0.0755  0.7784  0.8108
  515SOL    HW1 1544   2.909   3.067   2.957  0.4659  1.6627  3.3242
  515SOL    HW2 1545   2.895   0.004   0.009 -2.3820 -0.6140 -0.3869
  516SOL     OW 1546   1.898   3.093   1.193 -0.4705 -0.4028 -0.4341
  516SOL    HW1 1547   1.805   0.024   1.192  0.2796  0.3342 -0.3733
  516SOL    HW2 1548   1.913   3.045   1.281 -2.8328 -0.4425 -0.8158
  517SOL     OW 1549   1.709   1.542   0.579 -0.3780 -0.1801  0.4943
  517SOL    HW1 1550   1.746   1.597   0.655  0.9805 -2.5213 -2.2638
  517SOL    HW2 1551   1.670   1.457   0.619 -1.1734  0.3817  1.5780
  518SOL     OW 1552   1.432   0.368   1.070  0.2350 -0.4624 -0.4408
  518SOL    HW1 1553   1.367   0.430   1.023  0.5547 -1.7371  1.1316
  518SOL    HW2 1554   1.503   0.344   1.004 -2.4790  2.1113 -0.1224
  519SOL     OW 1555   2.841   2.380   0.322 -0.9655 -0.2947 -0.1307
  519SOL    HW1 1556   2.911   2.448   0.349  1.2932 -2.6788  1.0337
  519SOL    HW2 1557   2.866   2.344   0.230  0.6797 -1.7572 -0.5167
  520SOL     OW 1558   1.878   2.083   1.893 -0.0074 -0.4405  0.0777
  520SOL    HW1 1559   1.808   2.113   1.966 -1.3521 -0.6624  1.7194
  520SOL    HW2 1560   1.880   1.989   1.857  0.5602  1.9678  0.1944
  521SOL     OW 1561   1.576   2.703   2.148 -0.1270  0.1722 -0.3687
  521SOL    HW1 1562   1.482   2.660   2.140  0.6426 -0.4375  0.8312
  521SOL    HW2 1563   1.577   2.782   2.212  1.2223 -1.0470 -0.9717
  522SOL     OW 1564   2.697   0.135   1.867  0.1663  0.0172  0.0528
  522SOL    HW1 1565   2.713   0.205   1.795 -1.0055 -1.1815 -0.5245
  522SOL    HW2 1566   2.695   0.036   1.832 -1.1604 -0.7443 -1.8530
  523SOL     OW 1567   0.914   2.465   1.534 -0.0324  0.1807  0.1363
  523SOL    HW1 1568   0.822   2.427   1.519  1.3502  1.4395  1.1123
  523SOL    HW2 1569   0.981   2.436   1.464  2.8665 -0.7507  0.6639
  524SOL     OW 1570   2.215   2.277   3.099 -0.6782  0.6431  0.4531
  524SOL    HW1 1571   2.273   2.223   3.034 -0.0693 -0.7582  1.4965
  524SOL    HW2 1572   2.200   2.219   0.076  0.1498  0.2787 -1.7826
  525SOL     OW 1573   2.950   1.009   0.081 -0.1272  0.0104 -0.1367
  525SOL    HW1 1574   3.037   0.971   0.044 -1.8759 -0.7595  0.0288
  525SOL    HW2 1575   2.887   1.025   0.000  0.6478  0.8617 -0.5791
  526SOL     OW 1576   0.763   2.849   0.738 -0.0898  0.6327  0.3265
  526SOL    HW1 1577   0.866   2.864   0.750  5.1279  1.6913 -0.7593
  526SOL    HW2 1578   0.711   2.941   0.772 -2.3684  4.2454  1.8520
  527SOL     OW 1579   2.643   1.454   0.568 -0.9661  0.7158 -0.2862
  527SOL    HW1 1580   2.549   1.410   0.568 -3.4936 -1.5782 -0.8642
  527SOL    HW2 1581   2.651   1.532   0.506  0.5029 -1.9269  2.2280
  528SOL     OW 1582   0.607   0.859   2.479  0.3121 -0.4625  0.1642
  528SOL    HW1 1583   0.683   0.923   2.447 -0.2447 -0.2425  0.8425
  528SOL    HW2 1584   0.518   0.864   2.427  0.0991  1.7625  2.1735
  529SOL     OW 1585   0.730   1.486   3.046  0.9061 -0.1602 -0.2199
  529SOL    HW1 1586   0.643   1.534   3.075 -1.8173  1.5580 -0.8089
  529SOL    HW2 1587   0.726   1.382   3.053  1.2813  1.2861  1.0436
  530SOL     OW 1588   1.328   0.943   2.069  0.1200  0.0079  0.1620
  530SOL    HW1 1589   1.427   0.921   2.087 -0.0624  1.2410  0.0442
  530SOL    HW2 1590   1.282   0.944   2.157 -0.2256  0.1695 -2.5231
  531SOL     OW 1591   1.243   2.011   0.093 -0.0439 -0.7387  0.2450
  531SOL    HW1 1592   1.278   1.972   0.004 -2.0182 -3.0738  0.1585
  531SOL    HW2 1593   1.167   1.952   0.133  1.6850 -0.8076  0.1788
  532SOL     OW 1594   2.261   0.933   2.850 -0.7124  0.4999 -0.1519
  532SOL    HW1 1595   2.268   0.906   2.948  0.4130 -1.6887 -0.1006
  532SOL    HW2 1596   2.201   1.014   2.842  1.3076 -2.0449  2.2521
  533SOL     OW 1597   2.997   0.524   1.997  0.2771  0.1102 -0.2626
  533SOL    HW1 1598   2.946   0.440   2.024 -1.0649 -0.4734  0.7688
  533SOL    HW2 1599   2.958   0.568   1.915  0.9066  0.6768  2.5403
  534SOL     OW 1600   1.864   0.006   0.140 -0.6120  0.0981  0.2878
  534SOL    HW1 1601   1.871   3.017   0.174 -1.7321 -1.7032  1.6742
  534SOL    HW2 1602   1.961   0.047   0.146  0.1496 -0.7757  0.2285
  535SOL     OW 1603   0.540   0.276   2.833 -0.0560 -0.2873  0.4755
  535SOL    HW1 1604   0.545   0.235   2.740 -0.8390  0.1189  2.6440
  535SOL    HW2 1605   0.537   0.376   2.835 -0.0517 -0.2335  2.0503
  536SOL     OW 1606   0.705   1.936   1.669 -0.3432 -0.1372 -0.3799
  536SOL    HW1 1607   0.680   1.864   1.600 -1.6725 -0.2858  0.4479
  536SOL    HW2 1608   0.794   1.976   1.648  0.7730  0.9189  1.1911
  537SOL     OW 1609   2.988   2.684   1.622 -0.1948  0.3522 -0.1497
  537SOL    HW1 1610   3.059   2.740   1.659 -5.0520 -0.9389 -1.8288
  537SOL    HW2 1611   2.921   2.734   1.567 -1.0743 -0.0728  0.7029
  538SOL     OW 1612   2.986   2.076   0.443 -0.0423  0.5461 -0.5762
  538SOL    HW1 1613   2.915   2.037   0.509 -0.7878 -0.4076 -1.2623
  538SOL    HW2 1614   2.960   2.059   0.345 -0.5486 -0.5794 -3.9852
  539SOL     OW 1615   2.507   0.944   2.717  0.1395 -0.9337  0.2248
  539SOL    HW1 1616   2.407   0.939   2.742 -2.5546  3.9132  1.9795
  539SOL    HW2 1617   2.547   1.027   2.765  0.1718 -0.1112 -1.0498
  540SOL     OW 1618   1.969   0.760   0.187 -0.2336  0.5517  0.2357
  540SOL    HW1 1619   1.930   0.849   0.162 -1.1697 -0.1073 -0.0133
  540SOL    HW2 1620   1.943   0.692   0.117  1.7205  0.2037 -1.2179
  541SOL     OW 1621   0.901   0.528   2.102 -0.4123 -0.1916  0.1271
  541SOL    HW1 1622   0.925   0.590   2.177 -0.9082 -0.3198  3.9547
  541SOL    HW2 1623   0.805   0.539   2.077 -2.5548 -3.1891 -0.1711
  542SOL     OW 1624   1.721   2.466   2.091 -0.0799 -0.2249  0.1122
  542SOL    HW1 1625   1.670   2.550   2.108  0.7651 -0.8654  2.1331
  542SOL    HW2 1626   1.799   2.491   2.028  1.0297  0.8942 -1.5123
  543SOL     OW 1627   0.941   2.612   0.283  0.0988 -0.5264  0.5586
  543SOL    HW1 1628   0.933   2.682   0.362 -1.6906  1.0013  0.9482
  543SOL    HW2 1629   0.940   2.665   0.192  0.8985 -0.5484 -0.0600
  544SOL     OW 1630   2.896   1.931   2.071  0.5799  0.6447 -0.5158
  544SOL    HW1 1631   3.000   1.931   2.070 -0.5421 -0.2308 -2.0738
  544SOL    HW2 1632   2.870   1.842   2.108 -0.8179  1.3823  1.6018
  545SOL     OW 1633   1.412   2.069   1.434 -0.5452  0.2364  0.3597
  545SOL    HW1 1634   1.362   2.029   1.513  0.2333  1.0400  2.3369
  545SOL    HW2 1635   1.350   2.104   1.363  1.1544  0.5462  1.4591
  546SOL     OW 1636   0.288   0.126   2.153 -0.5782 -0.1341 -1.3119
  546SOL    HW1 1637   0.383   0.161   2.170 -0.6161  0.6494  0.5971
  546SOL    HW2 1638   0.252   0.091   2.242  0.0134 -0.0199 -1.1564
  547SOL     OW 1639   1.069   0.287   0.391  0.2958 -0.5344 -0.0368
  547SOL    HW1 1640   0.969   0.280   0.361  0.2558 -0.2432 -0.0449
  547SOL    HW2 1641   1.066   0.268   0.490  3.4019 -1.4854 -1.9151
  548SOL     OW 1642   1.550   1.944   0.129  0.8318 -1.2195  0.4362
  548SOL    HW1 1643   1.633   1.998   0.118  0.5412  0.9275 -0.5491
  548SOL    HW2 1644   1.510   1.928   0.039  0.8414  0.1608 -1.4242
  549SOL     OW 1645   2.079   1.086   0.451 -0.1958  0.0805 -0.1689
  549SOL    HW1 1646   2.018   1.112   0.370 -1.4337  0.9126  0.2123
  549SOL    HW2 1647   2.176   1.102   0.436 -1.7008  1.5971 -0.3176
  550SOL     OW 1648   2.697   2.281   0.530  0.5433 -0.1218 -0.4357
  550SOL    HW1 1649   2.619   2.231   0.488 -0.3536  2.0742 -0.0678
  550SOL    HW2 1650   2.754   2.326   0.457  0.2714  0.2482 -0.3331
  551SOL     OW 1651   1.261   0.428   1.393  0.7878 -0.4777  0.1818
  551SOL    HW1 1652   1.353   0.406   1.364 -1.3842  2.9534  0.1812
  551SOL    HW2 1653   1.217   0.351   1.440  0.1919  1.3208 -1.8256
  552SOL     OW 1654   3.076   2.185   2.914 -0.4195  0.0173 -0.0744
  552SOL    HW1 1655   3.097   2.082   2.920 -1.2723 -3.2833  0.9695
  552SOL    HW2 1656   3.079   2.218   3.011  0.5668  2.4491 -1.9698
  553SOL     OW 1657   2.777   2.696   0.681 -0.1436  0.4872  0.3177
  553SOL    HW1 1658   2.747   2.683   0.776  2.7386 -1.1025  0.1359
  553SOL    HW2 1659   2.817   2.606   0.655 -1.3451  0.3401  1.8364
  554SOL     OW 1660   1.829   1.243   1.564 -0.6410 -0.3782  0.6409
  554SOL    HW1 1661   1.886   1.164   1.588 -1.1603  0.5046  1.3598
  554SOL    HW2 1662   1.878   1.305   1.494  3.2625  3.5535 -5.2291
  555SOL     OW 1663   1.334   2.270   2.213  0.2024  0.0340  0.0787
  555SOL    HW1 1664   1.308   2.276   2.308  1.7943 -0.0186 -1.7396
  555SOL    HW2 1665   1.258   2.308   2.152 -0.0262  3.5087  0.2774
  556SOL     OW 1666   1.400   1.462   1.707 -0.1897  0.5548  0.1618
  556SOL    HW1 1667   1.345   1.438   1.789 -2.7022 -0.4092  2.3919
  556SOL    HW2 1668   1.495   1.485   1.731 -2.0895 -0.5973 -0.8704
  557SOL     OW 1669   1.486   0.070   1.794  0.3750 -0.0737 -0.0007
  557SOL    HW1 1670   1.522   3.086   1.818 -0.2986  0.0608 -2.6452
  557SOL    HW2 1671   1.390   0.079   1.819  0.6929 -1.0650 -1.3080
  558SOL     OW 1672   0.451   3.030   2.039 -0.5388 -0.3919  0.8945
  558SOL    HW1 1673   0.388   2.985   1.966 -1.4402 -0.4692 -4.0153
  558SOL    HW2 1674   0.402   0.001   2.080 -0.3460  1.6381 -1.0997
  559SOL     OW 1675   1.633   2.428   0.374  0.1058  0.2354 -0.2203
  559SOL    HW1 1676   1.643   2.509   0.317  2.5961 -1.1613 -0.1315
  559SOL    HW2 1677   1.608   2.452   0.474  4.2612 -0.2244  0.9120
  560SOL     OW 1678   1.261   1.990   0.382  0.3523  0.4115  0.5211
  560SOL    HW1 1679   1.296   1.899   0.352 -0.8091 -0.8696  3.2255
  560SOL    HW2 1680   1.281   2.068   0.319 -0.3277 -2.1213 -0.7041
  561SOL     OW 1681   1.293   0.430   0.323  0.0492 -0.5886  0.2958
  561SOL    HW1 1682   1.366   0.374   0.364 -1.2241  2.6208  1.5533
  561SOL    HW2 1683   1.204   0.383   0.334  0.3248 -2.5568 -0.7383
  562SOL     OW 1684   0.680   1.486   1.973  0.1871  0.2232 -0.1118
  562SOL    HW1 1685   0.776   1.527   1.997  3.3113  0.5935  0.1292
  562SOL    HW2 1686   0.659   1.508   1.875  3.3027  2.0161 -0.6898
  563SOL     OW 1687   1.541   1.943   2.679  0.0612 -0.5899  0.2131
  563SOL    HW1 1688   1.459   1.947   2.610 -0.1929  0.2847 -2.5952
  563SOL    HW2 1689   1.628   1.951   2.629 -2.8078 -1.4453 -0.6686
  564SOL     OW 1690   2.815   0.996   0.888 -0.5941  0.3660  0.1331
  564SOL    HW1 1691   2.758   0.923   0.852 -1.4182  0.4721  1.6356
  564SOL    HW2 1692   2.823   0.997   0.986 -0.4869 -0.7060 -0.9254
  565SOL     OW 1693   0.681   1.214   3.082 -0.3286 -0.3384  0.7505
  565SOL    HW1 1694   0.640   1.154   3.009  0.4901 -0.5077 -1.5916
  565SOL    HW2 1695   0.745   1.154   0.027  0.5568 -1.3109  0.4772
  566SOL     OW 1696   2.330   2.872   2.725 -0.1398  0.0587 -0.3452
  566SOL    HW1 1697   2.330   2.956   2.782  0.6442  0.7165 -0.3265
  566SOL    HW2 1698   2.286   2.792   2.770 -0.2361  0.4686 -0.0711
  567SOL     OW 1699   1.471   1.346   1.348 -0.5994  0.0349 -0.2471
  567SOL    HW1 1700   1.566   1.378   1.343 -1.3668  0.8900 -0.7431
  567SOL    HW2 1701   1.450   1.308   1.442 -0.9599 -0.8882 -1.3511
  568SOL     OW 1702   1.375   1.109   3.028  0.0549  0.0583 -0.3060
  568SOL    HW1 1703   1.282   1.119   2.989  1.7977  0.6937 -0.5413
  568SOL    HW2 1704   1.436   1.185   2.998 -1.6426 -0.5986  1.0068
  569SOL     OW 1705   2.138   2.099   0.155  0.2689  0.3905  0.1739
  569SOL    HW1 1706   2.080   2.016   0.142  1.9643  0.1836 -0.0158
  569SOL    HW2 1707   2.134   2.135   0.251  0.9964 -0.1475  3.2534
  570SOL     OW 1708   2.869   2.241   2.354  0.2303 -0.7223 -0.1046
  570SOL    HW1 1709   2.882   2.340   2.374  0.9808 -0.3465  1.3260
  570SOL    HW2 1710   2.959   2.201   2.323  0.5103  0.1469 -1.3092
  571SOL     OW 1711   2.928   1.915   1.788  0.0439  0.0142 -0.0252
  571SOL    HW1 1712   2.945   1.824   1.745  4.1918  0.8509 -2.0234
  571SOL    HW2 1713   2.908   1.915   1.888  0.5189  1.1743  0.4611
  572SOL     OW 1714   1.585   2.160   0.343 -0.2229 -0.5632 -0.1942
  572SOL    HW1 1715   1.489   2.147   0.302 -0.5969 -0.8254 -1.7162
  572SOL    HW2 1716   1.614   2.257   0.359  0.6246  2.0294  1.4523
  573SOL     OW 1717   1.368   1.725   0.680 -0.0534  0.0366 -0.2868
  573SOL    HW1 1718   1.456   1.738   0.628  1.5519 -0.4227 -2.1842
  573SOL    HW2 1719   1.317   1.810   0.701  2.5710  1.2224 -1.4724
  574SOL     OW 1720   1.282   3.038   1.558  0.5069  0.1700  0.0263
  574SOL    HW1 1721   1.364   2.981   1.558 -2.6241  3.7520  2.4246
  574SOL    HW2 1722   1.252   3.061   1.654 -0.2545  0.2754  1.6455
  575SOL     OW 1723   0.872   0.669   1.341  1.3982  0.1488  0.0592
  575SOL    HW1 1724   0.874   0.768   1.318 -1.8387  0.3565 -0.6326
  575SOL    HW2 1725   0.819   0.643   1.426 -0.8596  2.3767 -1.0654
  576SOL     OW 1726   2.837   0.251   1.147  0.6442 -0.0460  0.6520
  576SOL    HW1 1727   2.832   0.230   1.046 -1.3617  0.3225  1.0492
  576SOL    HW2 1728   2.750   0.229   1.199  2.9767 -2.4201  1.6716
  577SOL     OW 1729   1.717   0.474   2.709  0.0210  0.4150  0.2157
  577SOL    HW1 1730   1.648   0.400   2.697  1.8672  0.2164 -1.3169
  577SOL    HW2 1731   1.690   0.545   2.643 -0.7744 -0.0726  2.9354
  578SOL     OW 1732   1.967   1.517   2.438  0.2553  0.2788  0.2461
  578SOL    HW1 1733   1.904   1.494   2.516  0.1601  0.2516 -0.4624
  578SOL    HW2 1734   2.014   1.605   2.451  1.0543 -3.7073  0.3801
  579SOL     OW 1735   0.375   1.589   1.241 -0.2427  0.1855  0.0185
  579SOL    HW1 1736   0.303   1.588   1.311 -0.4931  0.5524  0.9370
  579SOL    HW2 1737   0.338   1.575   1.146 -0.1702  1.8247  0.7328
  580SOL     OW 1738   1.361   2.393   3.045 -0.5403  0.0651  0.2055
  580SOL    HW1 1739   1.441   2.387   0.006 -0.1728 -0.0985 -0.2104
  580SOL    HW2 1740   1.355   2.321   2.977 -0.2712  0.5000 -0.7984
  581SOL     OW 1741   1.033   0.915   2.159 -0.1722  0.3003 -0.0996
  581SOL    HW1 1742   0.964   0.989   2.175  1.7662 -0.8057 -1.5447
  581SOL    HW2 1743   1.023   0.874   2.066  3.0001  0.0552 -3.1349
  582SOL     OW 1744   0.536   0.986   1.144  0.2485 -0.2384  0.2765
  582SOL    HW1 1745   0.543   0.885   1.112  0.2619 -2.0344 -1.1789
  582SOL    HW2 1746   0.606   1.045   1.098  0.4801  0.9246  1.3913
  583SOL     OW 1747   0.931   1.549   2.062 -0.1197 -0.4300  0.3056
  583SOL    HW1 1748   0.967   1.575   1.965  0.6598  0.2044 -0.1438
  583SOL    HW2 1749   0.997   1.586   2.133  0.2881 -0.2883 -0.9403
  584SOL     OW 1750   2.190   2.627   0.478  0.0285 -0.7085 -1.0515
  584SOL    HW1 1751   2.109   2.639   0.535 -2.6877  0.4110 -0.2796
  584SOL    HW2 1752   2.203   2.699   0.408  0.2625  0.2711  0.5202
  585SOL     OW 1753   1.870   0.529   0.045  0.2621 -0.4729  0.0494
  585SOL    HW1 1754   1.824   0.495   0.126  1.7125 -0.3892 -1.8665
  585SOL    HW2 1755   1.810   0.588   3.097  0.4968  0.7137  1.4055
  586SOL     OW 1756   0.139   1.636   0.491  0.6235 -0.1289  0.3134
  586SOL    HW1 1757   0.058   1.575   0.475 -0.3353 -0.6870  2.3658
  586SOL    HW2 1758   0.212   1.571   0.528 -1.1618 -1.3108  0.5082
  587SOL     OW 1759   1.645   1.902   0.857 -0.2677  0.7758 -0.4372
  587SOL    HW1 1760   1.653   1.948   0.769 -0.5145  0.9944  0.1261
  587SOL    HW2 1761   1.682   1.806   0.843  0.4717  0.6115  1.3929
  588SOL     OW 1762   0.475   0.414   1.035 -0.0203 -0.1250 -0.3759
  588SOL    HW1 1763   0.383   0.457   1.014 -0.1019  1.5646 -0.5799
  588SOL    HW2 1764   0.466   0.316   1.041  0.0077  0.0044  2.1852
  589SOL     OW 1765   1.273   0.480   0.874  0.1141  0.2806 -0.0419
  589SOL    HW1 1766   1.224   0.390   0.885 -0.6357 -0.3970  1.0119
  589SOL    HW2 1767   1.203   0.552   0.876 -0.0542 -1.2522 -1.3079
  590SOL     OW 1768   1.433   0.921   0.280 -0.7573 -1.2160 -0.1339
  590SOL    HW1 1769   1.335   0.933   0.263 -0.1863  0.1698  2.5883
  590SOL    HW2 1770   1.448   0.883   0.373  1.5089  3.2347 -0.6258
  591SOL     OW 1771   2.608   2.673   2.467 -0.0868 -0.2873  0.5409
  591SOL    HW1 1772   2.626   2.608   2.543  0.3532 -0.5278 -1.2587
  591SOL    HW2 1773   2.664   2.653   2.385  2.7739 -1.2167 -2.8779
  592SOL     OW 1774   1.412   1.985   1.003  0.8965 -0.7026  0.3890
  592SOL    HW1 1775   1.480   1.948   0.939  0.3871  2.0227 -3.1337
  592SOL    HW2 1776   1.435   2.081   1.040  0.7235  1.8146  2.5599
  593SOL     OW 1777   0.997   3.084   0.937  0.3178  0.5395  0.5425
  593SOL    HW1 1778   0.998   3.018   0.863  0.9516  1.3596 -0.0936
  593SOL    HW2 1779   1.092   3.094   0.962 -2.7443 -0.7889 -0.2034
  594SOL     OW 1780   0.330   1.027   2.140 -0.5143 -0.4560 -0.0460
  594SOL    HW1 1781   0.299   1.120   2.104 -0.9650  1.9835  1.3064
  594SOL    HW2 1782   0.278   0.952   2.099  4.4706 -2.3073  2.2264
  595SOL     OW 1783   0.346   2.556   1.112 -0.4623 -0.0070  1.0340
  595SOL    HW1 1784   0.280   2.568   1.187  0.2535 -1.0972 -1.2078
  595SOL    HW2 1785   0.387   2.646   1.083 -2.3808 -2.8963 -0.2107
  596SOL     OW 1786   0.212   0.971   1.654  0.2744 -0.1795 -0.0105
  596SOL    HW1 1787   0.277   0.903   1.696  0.3269  1.4894  1.7982
  596SOL    HW2 1788   0.130   0.961   1.712 -0.2394 -0.4580  0.2024
  597SOL     OW 1789   2.147   1.913   0.379 -0.1682 -0.5997  0.0454
  597SOL    HW1 1790   2.141   1.990   0.447  3.0302  3.7608 -0.1524
  597SOL    HW2 1791   2.216   1.845   0.412 -1.2792 -2.1849  1.6016
  598SOL     OW 1792   0.393   2.732   1.683 -0.5111  0.3321 -0.4931
  598SOL    HW1 1793   0.488   2.716   1.651  0.1155  1.4375  2.2841
  598SOL    HW2 1794   0.365   2.657   1.749  3.4412 -0.2991 -1.9370
  599SOL     OW 1795   2.603   2.125   3.000 -0.4481 -0.1509 -0.6437
  599SOL    HW1 1796   2.527   2.075   2.956  1.5157 -0.0101  0.2174
  599SOL    HW2 1797   2.636   2.070   3.078 -1.4893  0.6913 -2.1607
  600SOL     OW 1798   0.659   0.846   0.218 -0.5600  0.0961 -0.4831
  600SOL    HW1 1799   0.724   0.922   0.195  2.2575 -0.9579  0.7926
  600SOL    HW2 1800   0.637   0.845   0.315  0.4100  2.0819  1.1015
  601SOL     OW 1801   1.039   0.848   0.423  0.2592  0.3634 -0.0165
  601SOL    HW1 1802   1.089   0.929   0.455 -1.8899 -1.1444  0.1882
  601SOL    HW2 1803   0.940   0.870   0.408 -1.4780 -0.0300 -0.3485
  602SOL     OW 1804   1.339   2.850   1.143 -0.1434 -0.7631 -0.3336
  602SOL    HW1 1805   1.315   2.931   1.202 -0.4156 -0.3354  2.6636
  602SOL    HW2 1806   1.416   2.869   1.082  1.0862  1.4861 -3.1872
  603SOL     OW 1807   0.695   2.955   2.106  0.7201 -0.0066  0.5559
  603SOL    HW1 1808   0.605   2.986   2.076  1.4882 -0.7140 -0.0050
  603SOL    HW2 1809   0.750   2.917   2.026 -1.0967  1.1367 -1.4821
  604SOL     OW 1810   3.048   0.076   2.208  0.2623  0.4771  0.2922
  604SOL    HW1 1811   3.049   0.010   2.129 -0.6926 -1.4268 -2.1351
  604SOL    HW2 1812   0.024   0.068   2.268 -0.2007  1.0393 -1.4711
  605SOL     OW 1813   2.705   2.117   1.347  0.4751 -0.5297  0.3861
  605SOL    HW1 1814   2.607   2.118   1.352  4.4657  2.5010 -0.1303
  605SOL    HW2 1815   2.745   2.092   1.435 -2.8378  1.3656 -3.2867
  606SOL     OW 1816   0.368   1.525   2.916  0.1883  0.3900  0.3508
  606SOL    HW1 1817   0.415   1.580   2.986 -0.4028  1.8822 -1.7531
  606SOL    HW2 1818   0.341   1.584   2.839  0.3392 -0.4889  0.9681
  607SOL     OW 1819   0.854   0.386   0.047  0.4154  0.1329  0.1564
  607SOL    HW1 1820   0.873   0.479   0.087 -1.4501 -1.2703  2.8084
  607SOL    HW2 1821   0.894   0.372   3.057 -0.2465 -0.3602 -0.6476
  608SOL     OW 1822   1.691   1.100   2.309  0.0451  0.5892  0.0962
  608SOL    HW1 1823   1.589   1.114   2.311  0.8602 -1.9881 -1.0522
  608SOL    HW2 1824   1.737   1.138   2.394  0.1685  1.0132  2.8802
  609SOL     OW 1825   3.035   0.196   0.804 -0.0726  0.3752  0.4198
  609SOL    HW1 1826   3.073   0.269   0.868  2.9397  1.0110  1.9529
  609SOL    HW2 1827   2.936   0.183   0.804  3.4456  0.4223  0.7179
  610SOL     OW 1828   0.512   2.414   0.042 -0.3149  0.4520  0.7872
  610SOL    HW1 1829   0.582   2.350   0.081  0.1846  0.1855 -0.0956
  610SOL    HW2 1830   0.418   2.389   0.078  1.4848 -2.1136  0.8408
  611SOL     OW 1831   1.735   1.116   0.365 -0.4143  0.6824  0.5016
  611SOL    HW1 1832   1.818   1.136   0.310  1.3936 -1.8325 -0.0044
  611SOL    HW2 1833   1.648   1.132   0.311 -0.3220 -2.4475 -1.7644
  612SOL     OW 1834   0.913   2.328   2.539  0.2155 -0.3418  0.1443
  612SOL    HW1 1835   0.889   2.229   2.549 -0.3768 -0.4604 -0.0147
  612SOL    HW2 1836   0.931   2.376   2.633  0.2238  1.8157  2.8238
  613SOL     OW 1837   1.028   2.193   2.942 -0.1361  0.3884 -0.2157
  613SOL    HW1 1838   1.109   2.133   2.954  0.7768  2.3629  2.8232
  613SOL    HW2 1839   0.952   2.134   2.917 -0.9888 -0.9906 -0.7666
  614SOL     OW 1840   2.805   2.856   1.490  0.4297 -0.4820 -0.1324
  614SOL    HW1 1841   2.818   2.946   1.437 -0.7310 -0.4011 -1.3385
  614SOL    HW2 1842   2.774   2.789   1.422  0.7918  0.7719  0.5026
  615SOL     OW 1843   2.183   1.354   3.106  0.1542 -0.1334  0.0547
  615SOL    HW1 1844   2.089   1.351   3.062 -1.2222  2.0739 -1.6580
  615SOL    HW2 1845   2.243   1.402   3.042  0.3838 -4.2153  3.1116
  616SOL     OW 1846   1.678   0.083   0.425  0.2765  0.4479  0.3969
  616SOL    HW1 1847   1.673   0.134   0.333  1.2325 -1.0293 -1.9132
  616SOL    HW2 1848   1.775   0.099   0.463  1.5324  0.7834  0.0463
  617SOL     OW 1849   0.833   1.031   0.143  0.2723 -0.0090  0.0475
  617SOL    HW1 1850   0.924   1.005   0.103  0.7035  0.0215 -0.6719
  617SOL    HW2 1851   0.849   1.094   0.224  1.8484 -0.2030  1.9047
  618SOL     OW 1852   0.607   0.627   1.782  0.0682 -0.5328  0.2770
  618SOL    HW1 1853   0.515   0.591   1.760 -2.9317 -1.1892 -2.1239
  618SOL    HW2 1854   0.602   0.726   1.804 -2.2892 -1.3752  1.8334
  619SOL     OW 1855   0.253   1.240   1.569  0.0034 -0.6581 -0.0315
  619SOL    HW1 1856   0.173   1.262   1.508  1.5218 -0.3753 -0.3900
  619SOL    HW2 1857   0.252   1.139   1.586 -2.3553 -0.0527 -0.2522
  620SOL     OW 1858   1.936   1.053   3.101  0.0405  0.5195 -0.1248
  620SOL    HW1 1859   1.841   1.080   3.072  0.1287  2.6346  1.5009
  620SOL    HW2 1860   1.973   0.972   3.054 -0.3043 -0.1370  4.7785
  621SOL     OW 1861   2.261   2.857   1.192 -0.3380  0.0759 -0.0084
  621SOL    HW1 1862   2.242   2.941   1.246 -0.5267 -0.8126  0.2563
  621SOL    HW2 1863   2.317   2.798   1.247  0.1682 -0.4779  0.2240
  622SOL     OW 1864   1.333   0.713   2.524  0.5517  0.1780 -0.4379
  622SOL    HW1 1865   1.347   0.711   2.626  0.1938  2.3295  1.6469
  622SOL    HW2 1866   1.351   0.625   2.481  0.1070  0.2682 -0.0393
  623SOL     OW 1867   1.011   0.388   2.931 -0.1543  0.4349 -0.0198
  623SOL    HW1 1868   1.019   0.379   2.828  0.1888 -0.8296 -2.2394
  623SOL    HW2 1869   1.055   0.310   2.980  1.2973  2.5857 -0.7836
  624SOL     OW 1870   1.524   0.332   0.450 -0.0187 -0.3809  0.0670
  624SOL    HW1 1871   1.495   0.381   0.533  4.0567  2.3203 -1.7799
  624SOL    HW2 1872   1.564   0.242   0.470 -3.2227  2.0701 -0.0353
  625SOL     OW 1873   0.711   1.176   1.002 -0.0519 -0.1846  0.1454
  625SOL    HW1 1874   0.751   1.206   0.912  3.9447  3.6917 -1.1853
  625SOL    HW2 1875   0.664   1.257   1.043 -2.3731  2.3862 -1.2280
  626SOL     OW 1876   1.526   1.216   0.222  0.3948  0.2586  0.3744
  626SOL    HW1 1877   1.488   1.246   0.313  1.6672  1.5688  4.2784
  626SOL    HW2 1878   1.469   1.146   0.179  0.4637 -2.1612 -2.0289
  627SOL     OW 1879   0.885   2.918   1.914 -0.0640  0.2935 -0.4556
  627SOL    HW1 1880   0.927   2.914   1.821 -0.0632  0.9833  1.1911
  627SOL    HW2 1881   0.957   2.923   1.986 -0.5512  1.1916  0.4848
  628SOL     OW 1882   2.494   0.401   2.187 -0.0721  0.0437  0.4611
  628SOL    HW1 1883   2.585   0.410   2.233 -2.6074  0.5865  0.0746
  628SOL    HW2 1884   2.416   0.406   2.256  1.0048 -0.3110  2.9503
  629SOL     OW 1885   1.000   1.250   2.996  0.3105 -0.0680  0.2525
  629SOL    HW1 1886   1.045   1.169   2.954  0.7423  1.6700  1.7553
  629SOL    HW2 1887   0.932   1.284   2.928  0.9120 -0.2840  0.5379
  630SOL     OW 1888   1.117   0.122   2.302  0.1637  0.1646 -0.2454
  630SOL    HW1 1889   1.053   0.197   2.331 -0.1116  0.2643 -0.1005
  630SOL    HW2 1890   1.182   0.113   2.387 -1.2116  0.1691  0.7602
  631SOL     OW 1891   2.723   0.679   0.539 -0.5783 -0.5614  0.2890
  631SOL    HW1 1892   2.754   0.595   0.585 -2.5667  2.7768  1.6819
  631SOL    HW2 1893   2.801   0.725   0.487 -0.8233 -1.1950 -0.9598
  632SOL     OW 1894   2.408   0.940   1.177  0.2804  0.4030  0.5516
  632SOL    HW1 1895   2.320   0.888   1.174  0.0349 -2.2155 -0.8678
  632SOL    HW2 1896   2.451   0.917   1.087  0.8382 -0.3605  0.4075
  633SOL     OW 1897   1.902   0.651   0.915  0.7276  0.0119  0.2938
  633SOL    HW1 1898   1.886   0.752   0.908 -0.1339 -0.7659  1.6179
  633SOL    HW2 1899   1.885   0.631   1.012  0.4088  2.8998 -0.9824
  634SOL     OW 1900   1.831   2.898   0.783 -0.8173 -0.5119 -0.0152
  634SOL    HW1 1901   1.889   2.938   0.855  0.8136  0.3599 -3.6332
  634SOL    HW2 1902   1.745   2.948   0.772  2.0713  0.7816 -0.3916
  635SOL     OW 1903   1.735   0.811   1.330 -0.0977 -0.7315 -0.3112
  635SOL    HW1 1904   1.646   0.773   1.363 -1.1584  0.6528  1.8060
  635SOL    HW2 1905   1.728   0.913   1.316  1.3687 -2.3141  1.9358
  636SOL     OW 1906   0.760   0.671   0.615  0.0167 -0.8902 -0.1773
  636SOL    HW1 1907   0.690   0.607   0.574 -2.7398 -4.5857  0.9820
  636SOL    HW2 1908   0.851   0.643   0.583 -1.7415 -0.5532 -0.2533
  637SOL     OW 1909   1.901   2.288   0.308 -0.1670 -0.2350 -0.2384
  637SOL    HW1 1910   1.811   2.329   0.337  1.1762  0.4438 -1.7642
  637SOL    HW2 1911   1.970   2.290   0.381  2.3448  0.6484  1.4643
  638SOL     OW 1912   1.459   2.900   2.778  0.2665  0.1564 -0.1735
  638SOL    HW1 1913   1.488   2.996   2.788 -0.6215  0.7768  1.1843
  638SOL    HW2 1914   1.526   2.829   2.802 -1.3090  0.7596 -1.3339
  639SOL     OW 1915   0.725   2.098   1.286  0.2326  0.2158 -0.1426
  639SOL    HW1 1916   0.634   2.092   1.239 -0.6734  2.7507 -1.0765
  639SOL    HW2 1917   0.729   2.187   1.338 -0.0208  2.6766  0.0040
  640SOL     OW 1918   0.198   2.850   3.086  0.0692 -0.1776 -0.2112
  640SOL    HW1 1919   0.121   2.787   3.100 -3.8125 -0.6741 -1.7097
  640SOL    HW2 1920   0.175   2.932   0.041 -0.5619 -1.0547 -0.9401
  641SOL     OW 1921   0.117   0.377   3.016 -0.0393  0.2114 -0.3973
  641SOL    HW1 1922   0.099   0.398   0.007 -0.7578  0.1768  1.2134
  641SOL    HW2 1923   0.182   0.299   3.011 -1.5641 -0.5834 -0.6981
  642SOL     OW 1924   0.013   1.003   1.278  0.0008 -0.0724 -0.1554
  642SOL    HW1 1925   3.028   0.994   1.238  0.1620 -0.2825  1.0698
  642SOL    HW2 1926   0.033   1.103   1.291 -0.7856 -3.3559 -3.2535
  643SOL     OW 1927   0.671   1.914   2.178  0.3611  0.4066  0.3507
  643SOL    HW1 1928   0.665   1.841   2.250 -1.1887  1.8016 -0.3710
  643SOL    HW2 1929   0.723   1.888   2.092  0.2257 -1.7467  0.3616
  644SOL     OW 1930   1.573   2.538   0.612  0.0879 -0.7137  0.2170
  644SOL    HW1 1931   1.519   2.454   0.638  1.0849  3.0909  0.3883
  644SOL    HW2 1932   1.541   2.625   0.659 -0.3516  0.4586 -0.4168
  645SOL     OW 1933   1.626   2.344   1.224 -0.0589 -0.1424  0.4513
  645SOL    HW1 1934   1.618   2.329   1.322 -0.5462 -2.7944  0.9850
  645SOL    HW2 1935   1.662   2.440   1.211  0.4195  1.7161 -1.9348
  646SOL     OW 1936   1.147   2.469   0.191  0.6256 -0.0307 -0.1788
  646SOL    HW1 1937   1.187   2.518   0.111 -1.2414 -1.1540  0.6285
  646SOL    HW2 1938   1.071   2.525   0.235 -0.8353 -0.2727  1.5603
  647SOL     OW 1939   0.326   2.946   1.815 -0.0126  0.7466  0.7496
  647SOL    HW1 1940   0.236   2.977   1.776 -1.9145 -0.9977  1.1580
  647SOL    HW2 1941   0.365   2.869   1.757 -0.8797  1.0801  1.6037
  648SOL     OW 1942   2.139   0.837   1.121  0.0140 -0.4812  0.3532
  648SOL    HW1 1943   2.062   0.778   1.165 -1.7387 -2.3234  2.4170
  648SOL    HW2 1944   2.119   0.853   1.025 -0.4616  1.2386  0.6665
  649SOL     OW 1945   1.818   2.179   2.977  0.1800 -0.0238  0.3246
  649SOL    HW1 1946   1.846   2.247   3.045 -1.3738  1.2608 -0.6045
  649SOL    HW2 1947   1.814   2.217   2.879  0.2508  1.8539 -2.2081
  650SOL     OW 1948   2.588   1.854   1.633 -0.0039  0.2890  0.3353
  650SOL    HW1 1949   2.645   1.932   1.600 -1.4683 -1.8974  1.1345
  650SOL    HW2 1950   2.557   1.865   1.725  2.8230  1.7239 -0.9561
  651SOL     OW 1951   1.524   1.695   2.788 -0.3364  0.1387  0.1535
  651SOL    HW1 1952   1.590   1.704   2.862 -3.0834 -0.4972 -1.9659
  651SOL    HW2 1953   1.501   1.787   2.745 -0.7987 -2.0051  0.5601
  652SOL     OW 1954   0.960   2.917   2.708 -0.4223 -0.0919 -0.0852
  652SOL    HW1 1955   1.040   2.853   2.715  1.3519  0.3858  1.2408
  652SOL    HW2 1956   0.982   3.000   2.765 -0.1527 -0.2855  1.8489
  653SOL     OW 1957   2.031   2.290   1.134  0.0292 -0.5550 -0.4250
  653SOL    HW1 1958   1.946   2.252   1.093  1.7652 -0.2659  1.1939
  653SOL    HW2 1959   2.058   2.240   1.218 -0.6982  1.1140  2.4465
  654SOL     OW 1960   2.629   3.013   2.104  0.4595  0.4433 -0.1070
  654SOL    HW1 1961   2.636   2.975   2.197  2.9424  1.1620 -1.7258
  654SOL    HW2 1962   2.586   3.105   2.113 -0.0842 -3.9676  1.7856
  655SOL     OW 1963   2.752   2.059   1.095  0.2875  0.8355  0.1576
  655SOL    HW1 1964   2.780   2.139   1.036 -1.4520 -2.1114  1.2250
  655SOL    HW2 1965   2.741   2.087   1.192 -0.3386 -4.3980 -2.3124
  656SOL     OW 1966   3.068   2.247   2.629 -0.2080 -0.0072 -0.2140
  656SOL    HW1 1967   0.054   2.221   2.602 -2.7493  0.7916  1.6221
  656SOL    HW2 1968   3.063   2.238   2.731 -0.2607 -1.9280 -1.6849
  657SOL     OW 1969   2.940   0.845   0.431 -0.3920  0.0149  0.1485
  657SOL    HW1 1970   2.877   0.889   0.369  0.9477  0.8097  1.0088
  657SOL    HW2 1971   3.025   0.815   0.386 -1.5013 -0.2798  1.9089
  658SOL     OW 1972   1.317   1.784   1.150  0.2333 -0.2212  0.1581
  658SOL    HW1 1973   1.346   1.742   1.240 -0.1193  0.0387  2.0078
  658SOL    HW2 1974   1.373   1.861   1.117 -1.2913 -2.5650  1.9462
  659SOL     OW 1975   1.529   0.470   1.308  0.0032  0.6294  0.5949
  659SOL    HW1 1976   1.610   0.422   1.345 -1.3777  0.0272 -1.5001
  659SOL    HW2 1977   1.509   0.434   1.212  0.9050  0.9146 -1.7827
  660SOL     OW 1978   2.003   1.349   0.663 -0.2304 -0.5594 -0.5690
  660SOL    HW1 1979   1.920   1.300   0.642  2.2126  3.8589 -0.1263
  660SOL    HW2 1980   1.984   1.414   0.736 -1.1602  0.1888 -1.1294
  661SOL     OW 1981   0.389   1.492   0.286  0.2128  0.1480 -0.1428
  661SOL    HW1 1982   0.414   1.408   0.241 -1.2725  2.6773  0.6067
  661SOL    HW2 1983   0.307   1.481   0.345 -0.4939  1.1149  1.5325
  662SOL     OW 1984   2.806   1.034   2.071  0.1983 -0.3794  0.0855
  662SOL    HW1 1985   2.859   0.961   2.119 -2.1310 -0.6447  0.6127
  662SOL    HW2 1986   2.708   1.029   2.087 -1.7849 -1.8479 -0.8282
  663SOL     OW 1987   2.226   1.438   1.348  0.4107  0.6866 -0.0319
  663SOL    HW1 1988   2.272   1.520   1.303 -0.2146  2.3127 -0.7332
  663SOL    HW2 1989   2.257   1.427   1.444  0.0881  1.4102 -0.4226
  664SOL     OW 1990   0.512   0.142   1.143  0.0962 -0.2252  0.0648
  664SOL    HW1 1991   0.434   0.098   1.101  1.5027 -1.7805  2.1197
  664SOL    HW2 1992   0.603   0.092   1.121  2.5048 -2.3543  1.5969
  665SOL     OW 1993   1.249   0.046   2.793  0.0200  0.3993  0.1532
  665SOL    HW1 1994   1.279   3.070   2.842  1.9149  0.4446 -0.7762
  665SOL    HW2 1995   1.232   0.119   2.860 -2.7085  0.9455  0.0783
  666SOL     OW 1996   0.513   0.500   2.272  0.2408  0.1647 -0.1773
  666SOL    HW1 1997   0.526   0.580   2.211  0.6391 -0.5153  1.2092
  666SOL    HW2 1998   0.527   0.532   2.368 -0.2733  1.1241 -0.0306
  667SOL     OW 1999   1.910   1.353   2.076 -0.0311  0.4154 -0.7672
  667SOL    HW1 2000   1.940   1.393   1.989  0.1911 -0.3250  1.0231
  667SOL    HW2 2001   1.994   1.334   2.126 -2.9688  4.1257 -2.1284
  668SOL     OW 2002   0.207   1.400   2.547  0.1625 -0.3578  0.2821
  668SOL    HW1 2003   0.114   1.434   2.574 -0.1710  1.0123  0.4135
  668SOL    HW2 2004   0.251   1.469   2.493  1.8144 -1.5662  1.9279
  669SOL     OW 2005   2.564   0.103   2.409 -0.0167  0.2521 -0.1248
  669SOL    HW1 2006   2.555   0.173   2.477  1.7417 -2.3247 -0.0997
  669SOL    HW2 2007   2.659   0.090   2.380 -1.1790  2.0016 -0.4938
  670SOL     OW 2008   2.764   1.006   2.405 -0.4159  0.1616 -0.4960
  670SOL    HW1 2009   2.849   0.950   2.416  1.6694  0.6136  3.2615
  670SOL    HW2 2010   2.682   0.946   2.425  1.6478 -3.4804  2.0254
  671SOL     OW 2011   2.651   1.927   0.066 -0.0613  0.2552 -0.2558
  671SOL    HW1 2012   2.670   1.868   3.092 -0.2936 -0.0389  0.7981
  671SOL    HW2 2013   2.553   1.932   0.091  1.0658 -1.8692 -0.6363
  672SOL     OW 2014   2.156   1.593   2.162 -0.4134 -0.3356  0.1580
  672SOL    HW1 2015   2.128   1.505   2.201  0.4159 -0.2741  0.8805
  672SOL    HW2 2016   2.258   1.609   2.176  2.3273  1.6591  0.6707
  673SOL     OW 2017   2.833   1.482   1.080 -0.3392  0.0318 -0.3854
  673SOL    HW1 2018   2.760   1.475   1.009  0.1800 -1.1275  1.1054
  673SOL    HW2 2019   2.885   1.569   1.083  1.1392 -0.6429 -0.1911
  674SOL     OW 2020   1.153   2.010   2.001  0.3478  0.4601 -0.1157
  674SOL    HW1 2021   1.198   1.920   2.017 -1.6640  0.8553 -1.4488
  674SOL    HW2 2022   1.168   2.039   1.906  0.9136  1.0173 -1.0207
  675SOL     OW 2023   2.947   0.551   1.134 -0.0863  0.1779  0.4693
  675SOL    HW1 2024   3.005   0.570   1.217  2.9065  0.6208 -0.2738
  675SOL    HW2 2025   2.852   0.517   1.153 -0.7996 -0.7074  2.3870
  676SOL     OW 2026   2.882   1.248   0.800  0.2756 -0.1167 -0.4083
  676SOL    HW1 2027   2.860   1.243   0.699  1.3126 -1.0368 -1.4476
  676SOL    HW2 2028   2.853   1.160   0.841 -0.5325  1.7478 -0.6760
  677SOL     OW 2029   1.505   1.583   2.263  0.2491  0.0134  0.0101
  677SOL    HW1 2030   1.606   1.559   2.271  2.1597  0.9398  0.7561
  677SOL    HW2 2031   1.452   1.514   2.212 -0.0050  0.9722  1.6235
  678SOL     OW 2032   2.479   1.255   0.882  0.0675  0.8476  0.2994
  678SOL    HW1 2033   2.570   1.306   0.895  1.5803  1.0490  0.9611
  678SOL    HW2 2034   2.426   1.255   0.967  1.4534 -1.1926 -2.3523
  679SOL     OW 2035   0.392   2.499   0.662  0.1858  0.0697  0.1312
  679SOL    HW1 2036   0.441   2.505   0.749 -0.9071  1.7115  0.4483
  679SOL    HW2 2037   0.306   2.441   0.680  3.2019  2.1491 -0.4180
  680SOL     OW 2038   2.888   1.815   1.117 -0.4569  0.2825  0.1745
  680SOL    HW1 2039   2.881   1.780   1.023 -0.0278  2.7725  4.4031
  680SOL    HW2 2040   2.839   1.909   1.126  0.6988  2.6702 -0.5648
  681SOL     OW 2041   1.153   0.659   1.326  0.2040 -0.1176  0.3043
  681SOL    HW1 2042   1.055   0.635   1.317  1.3460  2.5808 -0.4105
  681SOL    HW2 2043   1.197   0.573   1.358 -2.5472  0.7581  0.8037
  682SOL     OW 2044   1.581   3.013   0.766  0.4355 -0.5571  0.4051
  682SOL    HW1 2045   1.568   3.048   0.864  1.0455 -0.2970  1.7483
  682SOL    HW2 2046   1.536   3.074   0.698 -0.8055  1.3867 -0.4451
  683SOL     OW 2047   2.327   1.444   1.607 -0.2101  0.5775  0.3434
  683SOL    HW1 2048   2.304   1.524   1.663  1.1459 -1.0770 -2.2239
  683SOL    HW2 2049   2.367   1.369   1.667 -1.2806 -1.5659  3.1491
  684SOL     OW 2050   0.177   1.799   1.666 -0.2252 -0.0590  0.3423
  684SOL    HW1 2051   0.085   1.766   1.695 -0.5579 -1.1194 -1.4850
  684SOL    HW2 2052   0.251   1.741   1.704 -3.3688  0.6076 -0.7210
  685SOL     OW 2053   2.053   1.839   0.135 -0.2473  0.5201  0.5403
  685SOL    HW1 2054   2.088   1.869   0.229 -0.1512  0.4865  2.1458
  685SOL    HW2 2055   1.951   1.840   0.140  3.3836 -1.0131  1.6224
  686SOL     OW 2056   2.758   0.188   0.871  0.2376 -0.2627 -0.4231
  686SOL    HW1 2057   2.681   0.258   0.859  1.1589  0.4634 -1.6299
  686SOL    HW2 2058   2.731   0.097   0.832  1.9879 -0.4780 -0.9187
  687SOL     OW 2059   1.741   0.103   2.594  0.4089 -0.3168  0.5103
  687SOL    HW1 2060   1.760   0.004   2.593  2.0693  2.9101 -0.6461
  687SOL    HW2 2061   1.784   0.144   2.676  2.0116 -1.0156 -0.9361
  688SOL     OW 2062   1.554   2.105   2.243 -0.6011 -0.1334 -0.1153
  688SOL    HW1 2063   1.522   2.008   2.246  0.7754 -1.3660 -1.2321
  688SOL    HW2 2064   1.471   2.162   2.227 -1.8067 -0.3727 -0.4779
  689SOL     OW 2065   2.515   1.512   1.948  0.2349 -0.0618 -0.0210
  689SOL    HW1 2066   2.460   1.568   1.886  2.2665  0.1547 -0.6869
  689SOL    HW2 2067   2.614   1.543   1.946  0.3472  0.7897 -1.8305
  690SOL     OW 2068   1.724   1.950   1.106 -0.4973  0.6995 -0.3932
  690SOL    HW1 2069   1.687   1.916   1.016  0.2471  0.0409 -0.3005
  690SOL    HW2 2070   1.778   1.876   1.157  1.0938 -3.4939  0.8235
  691SOL     OW 2071   0.330   1.317   0.807  0.0464  0.7549 -0.0699
  691SOL    HW1 2072   0.419   1.271   0.797 -1.6099 -0.0958 -0.8134
  691SOL    HW2 2073   0.268   1.268   0.867  0.8287  3.1746  0.7345
  692SOL     OW 2074   2.341   3.022   2.329 -0.0240  0.0599 -0.2009
  692SOL    HW1 2075   2.360   2.935   2.382  1.2159  0.4715  2.6424
  692SOL    HW2 2076   2.414   3.090   2.344  0.5181 -1.2529  0.4299
  693SOL     OW 2077   0.117   1.472   2.200 -0.3653  0.3363 -0.1393
  693SOL    HW1 2078   0.026   1.442   2.236  1.9951 -1.7264 -1.6780
  693SOL    HW2 2079   0.167   1.527   2.272 -0.6069  0.1208  0.2776
  694SOL     OW 2080   2.223   0.180   1.456 -0.1404 -0.1498 -0.4637
  694SOL    HW1 2081   2.144   0.219   1.512  0.4504  0.2481  1.7582
  694SOL    HW2 2082   2.309   0.226   1.477 -1.5114  0.8931  0.3825
  695SOL     OW 2083   1.158   1.058   2.884  0.4040 -0.2234 -0.3714
  695SOL    HW1 2084   1.118   0.964   2.901 -0.1858 -3.0425 -2.2116
  695SOL    HW2 2085   1.196   1.055   2.789 -1.9348 -0.8602 -0.9611
  696SOL     OW 2086   1.721   0.123   2.005 -0.0550 -0.4400 -0.3200
  696SOL    HW1 2087   1.762   0.210   2.038 -0.9674  0.9446 -1.8941
  696SOL    HW2 2088   1.705   0.132   1.902  0.1118 -0.7918 -1.8724
  697SOL     OW 2089   1.555   0.035   2.221 -0.0658  0.6032  0.1467
  697SOL    HW1 2090   1.581   0.100   2.294  0.7170 -1.1734  0.4628
  697SOL    HW2 2091   1.618   0.065   2.140  0.9466  0.8295 -0.8171
  698SOL     OW 2092   1.770   1.534   2.246  0.1518 -0.0117  0.7247
  698SOL    HW1 2093   1.853   1.557   2.305  3.8340  1.7781  1.0870
  698SOL    HW2 2094   1.779   1.440   2.200 -0.4954 -1.6242  0.3344
  699SOL     OW 2095   2.047   0.608   0.426  0.1316  0.2652  0.7475
  699SOL    HW1 2096   2.012   0.658   0.340 -1.5996  0.5100 -2.3686
  699SOL    HW2 2097   1.976   0.588   0.490  2.1502  2.8176 -4.4561
  700SOL     OW 2098   1.174   0.103   0.203 -0.3093 -0.1832 -0.2722
  700SOL    HW1 2099   1.163   0.164   0.284 -0.4918 -2.1416 -1.6718
  700SOL    HW2 2100   1.103   0.031   0.202 -2.3469 -0.5274 -0.1666
  701SOL     OW 2101   0.251   0.526   0.907 -1.1496 -0.4340  0.1670
  701SOL    HW1 2102   0.164   0.474   0.926  1.2615  1.6688 -1.8304
  701SOL    HW2 2103   0.220   0.620   0.886  0.9827 -0.6936  3.4758
  702SOL     OW 2104   1.812   0.082   1.645  0.0332 -0.5322 -0.6420
  702SOL    HW1 2105   1.749   0.158   1.678 -1.3610 -2.1491  0.5786
  702SOL    HW2 2106   1.774   0.032   1.565 -0.2724 -1.3316  0.0611
  703SOL     OW 2107   2.797   0.972   1.547  0.0355 -0.5143 -0.2218
  703SOL    HW1 2108   2.834   0.876   1.557  0.4891 -1.5509 -0.2525
  703SOL    HW2 2109   2.737   0.986   1.465 -0.0452  0.8760 -0.5359
  704SOL     OW 2110   0.765   2.475   1.215 -0.3282 -0.2323 -0.3283
  704SOL    HW1 2111   0.742   2.567   1.251  2.3068  1.3692  0.6191
  704SOL    HW2 2112   0.703   2.455   1.139 -1.4710 -1.0597  0.4472
  705SOL     OW 2113   0.314   1.603   2.363  0.0585  0.2533  0.0626
  705SOL    HW1 2114   0.370   1.578   2.283 -2.0975 -0.4845  3.4631
  705SOL    HW2 2115   0.348   1.690   2.401  1.8532 -0.6657 -1.0339
  706SOL     OW 2116   2.729   0.323   0.006  0.1548 -0.1229  0.2492
  706SOL    HW1 2117   2.646   0.280   0.041  0.6077  1.8798  0.5280
  706SOL    HW2 2118   2.790   0.247   3.079  0.3363 -1.2300  0.0418
  707SOL     OW 2119   1.678   2.627   2.448 -0.5557 -0.3491  0.2249
  707SOL    HW1 2120   1.745   2.701   2.426  3.2696  2.3213 -3.1012
  707SOL    HW2 2121   1.591   2.651   2.398 -2.3366  1.1310 -1.7764
  708SOL     OW 2122   0.207   2.427   1.643  0.6763  0.5320  0.1922
  708SOL    HW1 2123   0.253   2.432   1.731 -1.9998  1.1853 -0.5773
  708SOL    HW2 2124   0.125   2.366   1.652  0.1845  1.7360 -1.1789
  709SOL     OW 2125   0.163   0.878   1.996  0.1861  0.3193  0.3804
  709SOL    HW1 2126   0.097   0.905   1.923 -3.0868 -3.2406 -1.3039
  709SOL    HW2 2127   0.172   0.777   1.990  0.5900  0.4682 -0.2336
  710SOL     OW 2128   0.029   0.584   1.342 -0.2281 -0.0440  0.1858
  710SOL    HW1 2129   0.123   0.610   1.313  0.1858  0.2047  0.7496
  710SOL    HW2 2130   0.006   0.642   1.419 -1.3307 -0.0565  0.2689
  711SOL     OW 2131   2.993   2.681   1.104 -0.1928  0.0894 -0.1943
  711SOL    HW1 2132   3.064   2.666   1.174 -0.2023 -1.9104  0.0264
  711SOL    HW2 2133   3.032   2.671   1.011 -0.0561 -1.9392  1.6962
  712SOL     OW 2134   0.187   0.008   2.390  0.0288 -0.0275 -0.4251
  712SOL    HW1 2135   0.214   3.018   2.396 -1.9564 -0.5817 -1.1927
  712SOL    HW2 2136   0.122   0.025   2.464 -0.0903 -1.6182 -2.0649
  713SOL     OW 2137   2.569   0.136   0.556  0.0874  0.1458 -0.0212
  713SOL    HW1 2138   2.534   0.228   0.573  0.6318 -0.5438  1.5449
  713SOL    HW2 2139   2.632   0.135   0.477  1.6471  1.0020  2.0452
  714SOL     OW 2140   1.775   1.731   0.135 -0.3769 -0.2275  0.7245
  714SOL    HW1 2141   1.715   1.799   0.176  2.2770  1.2668 -0.6706
  714SOL    HW2 2142   1.779   1.640   0.187 -2.1952 -3.1245  1.8347
  715SOL     OW 2143   0.102   0.257   0.615  0.0018 -0.6202 -0.0228
  715SOL    HW1 2144   0.151   0.176   0.586 -0.9277  0.3860  0.3120
  715SOL    HW2 2145   0.025   0.231   0.678 -1.9765 -1.4950  1.0758
  716SOL     OW 2146   1.101   0.548   1.920  0.3440 -0.3286 -0.7183
  716SOL    HW1 2147   1.146   0.469   1.881 -1.5885  1.6575 -0.0429
  716SOL    HW2 2148   1.037   0.520   1.995  0.2173  0.6250 -1.0194
  717SOL     OW 2149   0.530   0.537   2.785 -0.2666  0.0952  0.2043
  717SOL    HW1 2150   0.435   0.553   2.819  0.1231 -0.0881  1.7548
  717SOL    HW2 2151   0.598   0.575   2.855  0.6007 -0.4610  1.2547
  718SOL     OW 2152   1.098   0.753   0.093 -0.4221  0.2875  0.0411
  718SOL    HW1 2153   1.134   0.839   0.132 -3.6498 -2.1980  0.3557
  718SOL    HW2 2154   1.159   0.671   0.106  2.4795 -1.5444  0.0987
  719SOL     OW 2155   2.669   2.423   2.629  0.1019 -0.1932  0.2939
  719SOL    HW1 2156   2.674   2.396   2.730 -1.3555  0.0265 -0.8951
  719SOL    HW2 2157   2.601   2.373   2.580  1.7313  2.5340  1.8100
  720SOL     OW 2158   1.531   0.697   1.434 -0.6095  0.0500  0.0866
  720SOL    HW1 2159   1.467   0.711   1.511  0.5100  0.9915 -0.9889
  720SOL    HW2 2160   1.527   0.601   1.397  2.2979  0.1017  1.6487
  721SOL     OW 2161   2.974   2.998   1.083  0.4102 -0.7543  0.2236
  721SOL    HW1 2162   3.010   3.045   1.004  1.0219  0.7588 -0.6691
  721SOL    HW2 2163   2.983   2.897   1.077 -3.0400  1.0290 -0.2524
  722SOL     OW 2164   0.950   1.551   2.896  0.1928 -0.0321 -0.7177
  722SOL    HW1 2165   0.880   1.511   2.961  2.3568 -0.8618  1.3078
  722SOL    HW2 2166   1.023   1.583   2.956 -1.3023 -2.0051 -1.7127
  723SOL     OW 2167   2.388   0.115   1.112  0.1652  0.2468 -0.0700
  723SOL    HW1 2168   2.334   0.066   1.181  0.2932 -0.1978 -2.1399
  723SOL    HW2 2169   2.418   0.047   1.039  0.3936  1.3021  1.1385
  724SOL     OW 2170   0.582   1.933   0.096 -0.1317  0.5963  0.5437
  724SOL    HW1 2171   0.598   1.857   0.159  3.8163  1.1615  1.9693
  724SOL    HW2 2172   0.643   2.014   0.112  1.6481  1.5438 -2.3410
  725SOL     OW 2173   0.269   0.888   1.223  0.0893 -0.4432  0.1337
  725SOL    HW1 2174   0.171   0.926   1.227 -1.4983  1.4964 -1.4740
  725SOL    HW2 2175   0.327   0.967   1.207 -1.2293  0.6000 -1.0369
  726SOL     OW 2176   2.390   0.724   0.174 -0.3009  0.1135 -0.3825
  726SOL    HW1 2177   2.424   0.722   0.271 -0.2154  1.6398  1.2691
  726SOL    HW2 2178   2.471   0.707   0.116 -0.4252  0.4455 -0.0916
  727SOL     OW 2179   1.818   1.186   2.531  0.6681 -0.3220  0.1003
  727SOL    HW1 2180   1.839   1.278   2.573 -1.6916  3.0890  0.1186
  727SOL    HW2 2181   1.875   1.111   2.570 -1.8058 -1.8795  2.8415
  728SOL     OW 2182   1.667   3.058   1.456  0.4571  0.1260  0.3607
  728SOL    HW1 2183   1.760   3.018   1.454 -1.3544 -0.1290  1.6070
  728SOL    HW2 2184   1.599   2.995   1.493 -0.5014 -0.5148 -1.3355
  729SOL     OW 2185   2.349   0.869   2.287  0.0365  0.1584 -0.0780
  729SOL    HW1 2186   2.417   0.838   2.357 -1.8699  1.0439  1.9532
  729SOL    HW2 2187   2.258   0.879   2.332 -0.2284 -2.0712 -1.1202
  730SOL     OW 2188   1.177   0.872   1.476 -0.2173 -0.5143 -0.2951
  730SOL    HW1 2189   1.168   0.802   1.403 -2.7240  1.7954  1.3247
  730SOL    HW2 2190   1.217   0.958   1.438  0.5153  0.0993 -2.4969
  731SOL     OW 2191   0.574   0.400   0.124 -0.7161  0.2175 -0.6329
  731SOL    HW1 2192   0.676   0.398   0.103 -1.8031  0.8783 -1.2631
  731SOL    HW2 2193   0.517   0.445   0.051 -0.4974 -0.4815 -0.4048
  732SOL     OW 2194   0.361   0.394   0.256  0.1956  0.1507 -0.0533
  732SOL    HW1 2195   0.449   0.393   0.206 -0.3843  0.8356  0.1147
  732SOL    HW2 2196   0.371   0.401   0.360  0.7128 -0.2819  1.1782
  733SOL     OW 2197   1.807   1.441   2.638  0.0462 -0.4280 -0.5595
  733SOL    HW1 2198   1.711   1.462   2.615 -0.4770  1.1278 -0.1285
  733SOL    HW2 2199   1.839   1.502   2.713  0.5628  1.8628 -0.1506
  734SOL     OW 2200   0.118   1.990   2.471  0.0563 -0.0747  0.2617
  734SOL    HW1 2201   0.094   1.920   2.537 -1.4480  1.0813 -1.7559
  734SOL    HW2 2202   0.167   2.064   2.527  0.6215 -0.7228  0.8120
  735SOL     OW 2203   2.019   0.425   1.287  0.0310  0.5251 -0.3450
  735SOL    HW1 2204   2.096   0.386   1.233  0.8059 -0.0267  0.4073
  735SOL    HW2 2205   2.046   0.460   1.382  0.5607  0.6420 -1.1651
  736SOL     OW 2206   1.749   1.764   2.981 -0.5502 -0.1779  0.5615
  736SOL    HW1 2207   1.785   1.743   3.073 -1.2156 -2.4414 -1.0611
  736SOL    HW2 2208   1.705   1.857   2.981 -1.1518  2.6214  1.0606
  737SOL     OW 2209   3.079   0.420   0.428 -0.1821  0.4135  0.1242
  737SOL    HW1 2210   3.087   0.509   0.474  1.1105 -0.0180  3.0198
  737SOL    HW2 2211   0.023   0.358   0.487  1.8129  3.0122 -1.0808
  738SOL     OW 2212   0.567   2.136   1.780 -0.1609 -0.2698 -0.3876
  738SOL    HW1 2213   0.522   2.187   1.706 -0.0204  0.4933  0.6607
  738SOL    HW2 2214   0.630   2.064   1.748 -1.2766  1.2547 -0.3776
  739SOL     OW 2215   1.328   2.585   2.086  0.2026  0.0342 -0.3018
  739SOL    HW1 2216   1.271   2.593   2.001  1.7288 -0.4013  1.8794
  739SOL    HW2 2217   1.274   2.540   2.157  0.6422 -0.8015  1.3171
  740SOL     OW 2218   2.034   2.550   1.538  0.8310 -0.3231 -0.0706
  740SOL    HW1 2219   1.976   2.462   1.538  1.2759  1.9260 -3.0896
  740SOL    HW2 2220   2.088   2.563   1.622 -1.5847 -0.2741  0.1099
  741SOL     OW 2221   2.250   0.498   0.291  0.2154  0.4680  0.3034
  741SOL    HW1 2222   2.282   0.565   0.218 -1.6782  0.9850 -2.2812
  741SOL    HW2 2223   2.166   0.532   0.343 -0.3411  2.8966  1.5591
  742SOL     OW 2224   0.940   2.354   0.055 -0.2033  0.2682  0.2262
  742SOL    HW1 2225   0.980   2.300   3.089 -2.4974  1.5411 -0.9923
  742SOL    HW2 2226   1.017   2.399   0.109  2.4106  0.3375  1.4818
  743SOL     OW 2227   2.536   1.034   2.118  0.0019  0.3960 -0.0554
  743SOL    HW1 2228   2.468   1.004   2.186  2.2322  0.6870 -0.5656
  743SOL    HW2 2229   2.526   1.137   2.110  0.4691  1.9271 -2.2880
  744SOL     OW 2230   2.834   0.473   0.670 -0.5855 -0.6212  0.5575
  744SOL    HW1 2231   2.879   0.388   0.645  1.1891 -3.8269  0.7216
  744SOL    HW2 2232   2.886   0.526   0.737  1.4381 -1.4177  0.2733
  745SOL     OW 2233   2.411   1.271   1.803  0.2164  0.1225 -0.1058
  745SOL    HW1 2234   2.443   1.175   1.792  0.3902  3.8023  1.9161
  745SOL    HW2 2235   2.492   1.326   1.835 -0.9374 -0.3931  2.1994
  746SOL     OW 2236   1.378   1.346   0.963  0.4794  0.0672 -0.3470
  746SOL    HW1 2237   1.427   1.432   0.952 -1.4349 -0.4391  1.4307
  746SOL    HW2 2238   1.298   1.336   0.897 -0.4500 -0.4716 -0.7733
  747SOL     OW 2239   1.259   1.685   1.654  0.2064  0.0036 -0.0225
  747SOL    HW1 2240   1.298   1.767   1.700 -1.4440 -0.1545 -0.7926
  747SOL    HW2 2241   1.308   1.598   1.676 -0.8259 -0.4704 -0.1016
  748SOL     OW 2242   0.340   3.030   2.909  0.2110 -0.0040 -0.4726
  748SOL    HW1 2243   0.436   3.035   2.934 -1.3003 -1.4398 -2.3022
  748SOL    HW2 2244   0.287   2.957   2.958 -1.3627 -1.0163 -1.9174
  749SOL     OW 2245   0.445   1.274   2.627 -0.3164 -0.0844 -0.0105
  749SOL    HW1 2246   0.502   1.227   2.560 -2.4488  0.3032 -0.8382
  749SOL    HW2 2247   0.370   1.321   2.581 -0.2521  0.5088 -1.7789
  750SOL     OW 2248   1.789   0.760   2.072  0.1075 -0.5814  0.1150
  750SOL    HW1 2249   1.869   0.751   2.007  0.5591 -0.4584 -2.8908
  750SOL    HW2 2250   1.715   0.696   2.052 -2.8925 -1.1583  0.6669
  751SOL     OW 2251   2.610   0.339   0.392 -0.1426  0.0144  0.1358
  751SOL    HW1 2252   2.615   0.349   0.290  0.8843 -1.3973 -1.4845
  751SOL    HW2 2253   2.518   0.370   0.428  1.8322 -2.0199 -2.2174
  752SOL     OW 2254   0.159   2.370   0.985 -0.1093 -0.4138 -0.7265
  752SOL    HW1 2255   0.179   2.274   0.975 -1.4562  0.1253 -2.3810
  752SOL    HW2 2256   0.223   2.411   1.054 -0.7479 -0.8084 -1.8112
  753SOL     OW 2257   1.004   2.474   1.085  0.6920 -0.0563 -0.6881
  753SOL    HW1 2258   0.987   2.395   1.026 -1.7145  2.9384  0.1968
  753SOL    HW2 2259   0.948   2.475   1.171 -1.5731 -2.1467  1.1154
  754SOL     OW 2260   0.081   3.054   1.753  0.4791  0.7500 -0.2687
  754SOL    HW1 2261   0.052   0.038   1.734  0.8436 -0.5078  2.8050
  754SOL    HW2 2262   0.075   2.993   1.671  1.7076  0.3257 -1.1295
  755SOL     OW 2263   2.371   0.378   0.500 -0.1803 -0.0051  0.0826
  755SOL    HW1 2264   2.313   0.425   0.425 -2.0411 -0.8839 -0.7760
  755SOL    HW2 2265   2.370   0.430   0.585  2.8735 -2.1166  1.6111
  756SOL     OW 2266   2.303   2.458   2.647  0.1577 -1.1954  0.7501
  756SOL    HW1 2267   2.336   2.528   2.711 -0.1226 -3.1142  1.5437
  756SOL    HW2 2268   2.201   2.465   2.644  0.9420  1.6340 -0.2611
  757SOL     OW 2269   1.925   0.115   0.539 -0.1278 -0.3546  0.5013
  757SOL    HW1 2270   2.002   0.113   0.474 -0.1395  1.1600  2.4389
  757SOL    HW2 2271   1.921   0.205   0.586  1.2947  0.7601 -0.5711
  758SOL     OW 2272   2.306   0.524   1.387 -0.2024  0.0970 -0.0518
  758SOL    HW1 2273   2.400   0.518   1.352 -2.0238 -1.9890 -2.3694
  758SOL    HW2 2274   2.281   0.447   1.452 -0.1397 -0.9484  1.1092
  759SOL     OW 2275   2.445   0.534   1.035 -0.0399  0.2636  0.2363
  759SOL    HW1 2276   2.460   0.630   1.003 -0.7180 -1.2500  2.4746
  759SOL    HW2 2277   2.453   0.468   0.956  0.0938 -0.6046  1.1262
  760SOL     OW 2278   2.360   1.224   1.131  0.2198  0.4702  0.1861
  760SOL    HW1 2279   2.335   1.266   1.218 -0.0156 -0.0644  1.0979
  760SOL    HW2 2280   2.395   1.128   1.144  1.1011 -0.4735  0.5573
  761SOL     OW 2281   0.556   0.581   0.394  0.5582  0.0159 -0.5107
  761SOL    HW1 2282   0.515   0.565   0.305 -0.5460  1.2443  1.4806
  761SOL    HW2 2283   0.504   0.648   0.452 -2.0389  0.4367  1.2670
  762SOL     OW 2284   0.979   1.849   0.848  0.1535  0.2950 -0.0759
  762SOL    HW1 2285   0.903   1.810   0.903 -2.0306 -1.2363 -1.5167
  762SOL    HW2 2286   0.941   1.914   0.780 -2.5987  1.7514  0.2867
  763SOL     OW 2287   1.247   1.110   1.378 -0.4027 -0.3698 -0.3717
  763SOL    HW1 2288   1.265   1.171   1.300 -0.8395  1.6934  1.9672
  763SOL    HW2 2289   1.277   1.155   1.461  0.9991 -1.0439 -0.3181
  764SOL     OW 2290   0.300   1.735   2.729  0.4184  0.0199 -0.1686
  764SOL    HW1 2291   0.362   1.750   2.649  0.4913 -1.2172 -0.3764
  764SOL    HW2 2292   0.212   1.780   2.717  2.2948 -1.2761  2.6266
  765SOL     OW 2293   0.698   2.732   1.634 -0.1532 -0.3083  0.2641
  765SOL    HW1 2294   0.729   2.664   1.570 -1.8913  1.9084  0.5012
  765SOL    HW2 2295   0.712   2.825   1.596  1.0307  1.3275 -0.8381
  766SOL     OW 2296   2.616   2.192   2.264 -0.2014 -0.0598  0.3552
  766SOL    HW1 2297   2.554   2.250   2.319 -2.8236 -1.9182  1.6818
  766SOL    HW2 2298   2.710   2.200   2.301 -0.3992 -0.6430 -0.7344
  767SOL     OW 2299   1.425   1.123   2.320  0.0384 -0.7984  0.8180
  767SOL    HW1 2300   1.392   1.030   2.350  0.4300 -0.2075  0.9215
  767SOL    HW2 2301   1.352   1.195   2.329 -2.0440  2.5379 -1.0221
  768SOL     OW 2302   1.406   1.768   0.257  0.5665  0.4810 -0.6534
  768SOL    HW1 2303   1.447   1.743   0.346 -1.1830 -2.4743 -1.9640
  768SOL    HW2 2304   1.468   1.836   0.212 -0.3273  1.5053  1.6608
  769SOL     OW 2305   0.424   1.827   1.419  0.1304 -0.3696 -0.1633
  769SOL    HW1 2306   0.378   1.916   1.406  2.0601 -0.3672  1.0618
  769SOL    HW2 2307   0.391   1.753   1.352 -2.6283 -0.9147 -1.8685
  770SOL     OW 2308   1.540   0.879   2.976 -0.0290  0.0739 -0.1471
  770SOL    HW1 2309   1.481   0.956   3.014  0.6225  0.4542  2.9995
  770SOL    HW2 2310   1.572   0.886   2.882 -1.8319 -2.0035  0.4999
  771SOL     OW 2311   3.090   2.942   1.990 -0.6060  0.2168  0.3933
  771SOL    HW1 2312   0.053   2.882   2.031 -0.6736 -1.4387 -1.5145
  771SOL    HW2 2313   0.010   2.995   1.906  0.5391  1.7077 -4.1689
  772SOL     OW 2314   2.209   1.942   1.713  0.2945  0.0705  0.1973
  772SOL    HW1 2315   2.248   1.973   1.802 -0.4581 -0.1579 -1.0848
  772SOL    HW2 2316   2.117   1.900   1.731  1.9310 -0.8808 -0.4502
  773SOL     OW 2317   0.630   1.719   1.530  0.1160 -0.3165  0.2142
  773SOL    HW1 2318   0.604   1.636   1.582  1.1164 -2.4075 -1.9216
  773SOL    HW2 2319   0.543   1.754   1.493  2.4340 -3.1744  0.0613
  774SOL     OW 2320   1.360   0.685   2.799 -0.6791  0.3367 -0.3589
  774SOL    HW1 2321   1.412   0.758   2.849  0.0250 -0.1644  0.2095
  774SOL    HW2 2322   1.341   0.605   2.857  0.4256 -2.6065 -1.8311
  775SOL     OW 2323   1.928   2.814   2.928 -0.0460  0.2349  0.0796
  775SOL    HW1 2324   1.901   2.910   2.938 -2.5736 -2.6558 -2.5786
  775SOL    HW2 2325   1.858   2.769   2.869 -0.2724  2.1827 -1.1750
  776SOL     OW 2326   0.170   0.595   1.986 -0.1748 -0.6993 -0.1466
  776SOL    HW1 2327   0.073   0.570   1.961 -1.4018  1.8287 -1.6405
  776SOL    HW2 2328   0.212   0.529   2.057  2.9270  0.1443  1.3408
  777SOL     OW 2329   2.264   2.053   1.965  0.2736  0.1231 -0.3367
  777SOL    HW1 2330   2.223   2.080   2.055  0.8125 -0.2107  2.4635
  777SOL    HW2 2331   2.340   2.117   1.943 -1.2179 -1.8980  0.7149
  778SOL     OW 2332   1.921   0.951   2.240  0.0249  0.2824 -0.0443
  778SOL    HW1 2333   1.851   1.003   2.290 -1.2449 -2.9012 -0.5587
  778SOL    HW2 2334   1.884   0.865   2.196 -1.0783 -3.8336 -0.3722
  779SOL     OW 2335   2.535   1.224   0.174 -0.0110  0.3136  0.6523
  779SOL    HW1 2336   2.523   1.323   0.173 -0.7051 -1.6190  1.0823
  779SOL    HW2 2337   2.468   1.190   0.103 -1.5656  0.0054 -1.1367
  780SOL     OW 2338   2.767   0.401   2.647  0.0525  0.3098 -0.2590
  780SOL    HW1 2339   2.787   0.480   2.708 -1.2031  2.1461 -1.4561
  780SOL    HW2 2340   2.776   0.313   2.697 -0.4758  2.5719 -2.1421
  781SOL     OW 2341   0.198   2.065   1.610  0.4303 -0.2815  0.3391
  781SOL    HW1 2342   0.241   2.068   1.521 -3.0974 -2.9396  1.4354
  781SOL    HW2 2343   0.169   1.971   1.641 -1.7032 -0.9336  0.3670
  782SOL     OW 2344   2.435   2.578   2.867 -0.7594  0.3337  0.3768
  782SOL    HW1 2345   2.360   2.581   2.940 -2.2992 -1.3547  5.0129
  782SOL    HW2 2346   2.501   2.504   2.887  0.5808  1.3222  1.4561
  783SOL     OW 2347   0.610   1.364   1.246  0.2965 -0.0997 -0.5789
  783SOL    HW1 2348   0.684   1.335   1.316  1.9099 -1.3413  2.5403
  783SOL    HW2 2349   0.636   1.455   1.204 -0.6671  3.6837 -0.3274
  784SOL     OW 2350   1.971   0.838   2.915  0.3554  0.6362  0.2820
  784SOL    HW1 2351   2.038   0.791   2.849  0.7293  2.3954 -2.4857
  784SOL    HW2 2352   1.886   0.784   2.937 -0.9307 -0.5458 -2.0110
  785SOL     OW 2353   2.388   2.642   0.712  0.0882 -0.6240 -0.2442
  785SOL    HW1 2354   2.385   2.551   0.667  0.8522  1.7244  1.1200
  785SOL    HW2 2355   2.304   2.670   0.764  1.4106  0.2503  2.5275
  786SOL     OW 2356   0.779   2.149   2.305 -0.0358  0.8827  0.4056
  786SOL    HW1 2357   0.742   2.076   2.244  1.3696 -0.6445 -1.0248
  786SOL    HW2 2358   0.880   2.154   2.297  2.9627  1.3869  0.8974
  787SOL     OW 2359   1.518   0.750   1.095 -0.8284  0.2337 -0.2291
  787SOL    HW1 2360   1.575   0.729   1.173 -1.7680  0.7747  1.3439
  787SOL    HW2 2361   1.563   0.818   1.033  2.0118  1.1669  1.2157
  788SOL     OW 2362   0.134   0.656   0.547 -0.2206  0.1878  0.0895
  788SOL    HW1 2363   0.237   0.651   0.541  3.1685 -0.6212  3.1911
  788SOL    HW2 2364   0.098   0.715   0.468 -0.2939  3.1357  0.2730
  789SOL     OW 2365   3.075   1.925   1.350 -0.0977 -0.2999 -0.5283
  789SOL    HW1 2366   2.995   1.959   1.400 -0.1229  1.0933 -1.3713
  789SOL    HW2 2367   0.015   2.008   1.317  1.1748  3.9372  0.6976
  790SOL     OW 2368   1.327   0.710   1.933  0.4582  0.3150  0.7374
  790SOL    HW1 2369   1.241   0.655   1.924 -1.2086  0.6594  1.2539
  790SOL    HW2 2370   1.310   0.798   1.980  0.1041 -2.2365  0.7968
  791SOL     OW 2371   1.301   0.572   0.552 -0.9667  0.0164  0.1143
  791SOL    HW1 2372   1.323   0.527   0.466  2.5166  0.8321  0.2545
  791SOL    HW2 2373   1.343   0.532   0.634 -0.7671  0.0463 -0.1382
  792SOL     OW 2374   1.554   2.904   1.849 -0.0394  0.3467 -0.3288
  792SOL    HW1 2375   1.482   2.866   1.902  0.9804 -0.0001 -1.5678
  792SOL    HW2 2376   1.574   2.836   1.776  1.2874  0.1600  0.6795
  793SOL     OW 2377   0.839   3.098   0.479  0.2179  0.1784  0.3208
  793SOL    HW1 2378   0.850   0.048   0.391  0.9783 -0.2374 -1.5778
  793SOL    HW2 2379   0.816   0.041   0.562  2.9764 -2.1078 -1.4340
  794SOL     OW 2380   0.920   1.177   2.196 -0.0575  0.1026 -0.2727
  794SOL    HW1 2381   0.866   1.248   2.156  0.3980 -3.5245  3.7469
  794SOL    HW2 2382   1.015   1.190   2.157  0.7514  1.8583 -0.9976
  795SOL     OW 2383   0.363   2.043   2.357  0.3577  0.2786 -0.5021
  795SOL    HW1 2384   0.403   2.107   2.290 -0.0918  1.6035  0.2307
  795SOL    HW2 2385   0.262   2.045   2.348 -0.1977  0.2279  1.9012
  796SOL     OW 2386   2.534   1.298   2.116 -0.0694 -0.3157 -0.4639
  796SOL    HW1 2387   2.517   1.326   2.208 -3.4488 -1.2670 -3.6423
  796SOL    HW2 2388   2.539   1.380   2.054 -1.7895  0.3602  0.8664
  797SOL     OW 2389   2.956   2.612   2.879 -0.1681  0.1330 -0.0490
  797SOL    HW1 2390   3.052   2.602   2.914  3.2918 -1.9334  3.9563
  797SOL    HW2 2391   2.957   2.616   2.773  1.8509  1.7277 -2.3778
  798SOL     OW 2392   3.052   2.386   2.125 -0.1159  0.2164  0.3997
  798SOL    HW1 2393   0.043   2.391   2.097  0.0829  0.1741 -1.0222
  798SOL    HW2 2394   3.032   2.290   2.137  0.7742 -0.2203 -1.8057
  799SOL     OW 2395   0.299   2.185   2.866 -0.1753 -0.1010 -0.2440
  799SOL    HW1 2396   0.208   2.230   2.874 -0.2852  0.8384 -1.1445
  799SOL    HW2 2397   0.307   2.104   2.933  3.4631  0.3782  0.1168
  800SOL     OW 2398   1.175   1.648   0.195  0.4044  0.4401  0.9641
  800SOL    HW1 2399   1.129   1.644   0.286  0.5363  1.6858  0.7237
  800SOL    HW2 2400   1.268   1.689   0.209  1.6417  0.8655 -1.0365
  801SOL     OW 2401   1.981   1.356   1.340 -0.1149 -0.2677 -0.7834
  801SOL    HW1 2402   1.989   1.252   1.341  0.6881 -0.5040  1.4719
  801SOL    HW2 2403   2.074   1.396   1.336  0.6153 -0.9017  0.6528
  802SOL     OW 2404   3.021   1.341   0.242 -0.5261  0.0453  0.8588
  802SOL    HW1 2405   3.022   1.286   0.326 -3.4076  0.9198 -1.5099
  802SOL    HW2 2406   2.944   1.309   0.188  0.1455  0.2119  2.0935
  803SOL     OW 2407   1.337   1.907   2.521 -0.3544  0.2424  0.1592
  803SOL    HW1 2408   1.334   1.878   2.427 -0.1697  0.5748  1.3264
  803SOL    HW2 2409   1.278   1.859   2.588 -0.7343 -0.1485  1.2274
  804SOL     OW 2410   1.815   1.505   0.294  0.3825  0.5382  0.4120
  804SOL    HW1 2411   1.803   1.469   0.387  2.4210  0.0195 -0.6250
  804SOL    HW2 2412   1.907   1.540   0.283 -1.5663 -2.2097 -1.8026
  805SOL     OW 2413   2.427   1.648   2.471  0.0970 -0.7831 -0.2332
  805SOL    HW1 2414   2.455   1.665   2.373  1.0390  1.3650  1.5224
  805SOL    HW2 2415   2.428   1.736   2.530  3.1177  3.3422  0.6999
  806SOL     OW 2416   0.453   3.012   0.438  0.2839 -0.8405 -0.0608
  806SOL    HW1 2417   0.505   3.080   0.387 -2.1072 -4.2879  0.4929
  806SOL    HW2 2418   0.510   2.928   0.446 -0.8874  1.5669 -0.9493
  807SOL     OW 2419   1.927   1.353   2.975 -0.0666 -0.2510 -0.5465
  807SOL    HW1 2420   1.929   1.439   2.921  0.2949  0.0238  1.5109
  807SOL    HW2 2421   1.839   1.339   3.022 -1.3723  1.2006  0.6145
  808SOL     OW 2422   2.956   1.560   0.470  0.0320 -0.2633  0.1953
  808SOL    HW1 2423   2.944   1.494   0.389 -0.5532 -0.6833  1.0015
  808SOL    HW2 2424   2.920   1.653   0.443 -0.7524 -1.3887  3.1308
  809SOL     OW 2425   2.372   1.158   3.088 -0.1193 -0.0266  0.4453
  809SOL    HW1 2426   2.345   1.060   3.102 -0.2483 -2.0515  2.9524
  809SOL    HW2 2427   2.290   1.220   3.086 -0.0202  0.3462  0.5290
  810SOL     OW 2428   0.482   1.262   0.182 -0.4455 -0.3971  0.3328
  810SOL    HW1 2429   0.562   1.263   0.113  3.4265 -0.2552 -0.1063
  810SOL    HW2 2430   0.411   1.192   0.163  0.5029 -1.7447 -1.6576
  811SOL     OW 2431   1.359   2.542   1.518  0.2277 -0.4068 -0.1364
  811SOL    HW1 2432   1.412   2.553   1.431 -0.4680 -2.2389 -3.1817
  811SOL    HW2 2433   1.413   2.504   1.592 -0.5939  1.4495  0.3509
  812SOL     OW 2434   0.775   2.635   1.894  0.3236 -0.2457  0.0142
  812SOL    HW1 2435   0.715   2.681   1.830  1.2264  0.4050  1.1853
  812SOL    HW2 2436   0.837   2.704   1.931  1.4225  0.9635  0.9263
  813SOL     OW 2437   1.275   0.044   2.105  0.2224 -0.1704  0.1529
  813SOL    HW1 2438   1.372   0.029   2.133  3.6923 -0.0216 -0.6976
  813SOL    HW2 2439   1.226   0.102   2.177 -0.4813  2.3815  0.7975
  814SOL     OW 2440   1.356   2.267   2.652  0.0452  0.3702  0.8178
  814SOL    HW1 2441   1.446   2.253   2.603 -0.5528  2.7637 -0.2593
  814SOL    HW2 2442   1.354   2.201   2.728 -1.1964  2.1689 -0.1361
  815SOL     OW 2443   0.518   0.216   2.223  0.4370  0.4722  0.4155
  815SOL    HW1 2444   0.523   0.311   2.254  1.2340 -2.6886  3.2388
  815SOL    HW2 2445   0.592   0.161   2.261  0.0667  0.2243 -2.4852
  816SOL     OW 2446   2.048   0.456   2.969 -0.2964 -0.4249 -0.5221
  816SOL    HW1 2447   2.122   0.523   2.974 -3.4287 -1.7593  0.8752
  816SOL    HW2 2448   1.978   0.480   3.039 -1.0694 -0.2636  2.0547
  817SOL     OW 2449   2.342   0.461   2.401 -0.7187 -0.4108  0.4231
  817SOL    HW1 2450   2.328   0.420   2.490  0.7022  2.3608 -0.3788
  817SOL    HW2 2451   2.253   0.493   2.369 -0.5749 -4.1175  1.7155
  818SOL     OW 2452   1.644   0.189   0.191 -0.2861  0.0549 -0.4169
  818SOL    HW1 2453   1.686   0.280   0.190  0.2604 -0.8338  1.6027
  818SOL    HW2 2454   1.705   0.126   0.137 -0.5801  1.8929  2.6646
  819SOL     OW 2455   2.119   1.783   2.788  0.4450 -0.5701 -0.6353
  819SOL    HW1 2456   2.078   1.854   2.730  0.2769 -0.3846  0.4497
  819SOL    HW2 2457   2.124   1.817   2.886 -1.1417 -1.8657 -2.1877
  820SOL     OW 2458   3.091   1.894   0.075  0.0240 -0.0890 -0.1133
  820SOL    HW1 2459   2.998   1.927   0.111 -1.1466  1.9981  3.0809
  820SOL    HW2 2460   0.059   1.896   0.146  3.1015  0.3699  1.0178
  821SOL     OW 2461   0.340   3.031   0.754  0.3738 -0.4119  0.4667
  821SOL    HW1 2462   0.437   3.034   0.725  0.5540  0.5344  2.7336
  821SOL    HW2 2463   0.279   3.060   0.674 -0.0087  1.3153 -3.2049
  822SOL     OW 2464   2.815   2.852   2.924  0.0889 -0.5541 -0.4544
  822SOL    HW1 2465   2.741   2.867   2.854  0.3471  0.3002  0.4865
  822SOL    HW2 2466   2.855   2.759   2.918 -1.9047  0.0543  2.3329
  823SOL     OW 2467   1.352   0.295   2.555  0.0023  0.7960 -0.0161
  823SOL    HW1 2468   1.331   0.200   2.527  2.1483  3.4730  2.3764
  823SOL    HW2 2469   1.405   0.307   2.640 -3.0803  2.0423  0.8318
  824SOL     OW 2470   2.682   2.094   1.986  0.1325 -0.1163  0.4965
  824SOL    HW1 2471   2.759   2.034   2.013  1.6095  1.0206 -0.4720
  824SOL    HW2 2472   2.623   2.120   2.063 -0.7502 -1.4449 -1.0480
  825SOL     OW 2473   2.868   2.078   2.577 -0.6346 -0.2808  0.1807
  825SOL    HW1 2474   2.957   2.113   2.609 -1.0398 -1.3505  0.3825
  825SOL    HW2 2475   2.839   2.133   2.495 -0.1996  2.5522 -0.3551
  826SOL     OW 2476   2.139   1.334   2.309  0.0428  0.3483  0.2072
  826SOL    HW1 2477   2.177   1.255   2.362  2.5461 -3.2340  0.4580
  826SOL    HW2 2478   2.070   1.390   2.362  0.0214 -1.1262  1.5723
  827SOL     OW 2479   2.306   2.280   1.446 -0.0087 -0.1920 -0.0612
  827SOL    HW1 2480   2.294   2.364   1.391 -1.3828 -1.3271 -1.4210
  827SOL    HW2 2481   2.328   2.204   1.377 -1.2139 -0.0403 -0.3130
  828SOL     OW 2482   0.114   0.011   1.376  0.2128  0.3827 -0.1435
  828SOL    HW1 2483   0.042   0.076   1.405 -1.2084 -1.0489  0.2738
  828SOL    HW2 2484   0.210   0.040   1.395  1.4128  1.0294 -1.9450
  829SOL     OW 2485   1.783   2.202   2.147 -0.6546  0.6686 -0.0118
  829SOL    HW1 2486   1.706   2.147   2.186 -2.1192  1.9420  1.5901
  829SOL    HW2 2487   1.758   2.299   2.134  0.0055 -0.3211  1.8233
  830SOL     OW 2488   1.040   0.606   0.536 -0.6410  0.3478  0.1977
  830SOL    HW1 2489   1.135   0.585   0.543 -3.1503 -1.0303 -0.9353
  830SOL    HW2 2490   1.027   0.695   0.489  0.6543 -1.6921 -0.0200
  831SOL     OW 2491   2.674   1.405   2.786  0.4625 -0.1979  0.0904
  831SOL    HW1 2492   2.773   1.411   2.797 -3.0116  0.4726 -1.0313
  831SOL    HW2 2493   2.645   1.406   2.686  0.7951 -1.2029  0.2691
  832SOL     OW 2494   1.574   2.086   1.840 -0.4937 -0.1104  0.1172
  832SOL    HW1 2495   1.543   2.168   1.894  2.3225 -0.1221  3.8595
  832SOL    HW2 2496   1.657   2.105   1.780  3.0292  1.8860 -2.7891
  833SOL     OW 2497   0.271   0.395   2.166  0.1943 -0.4276 -0.0039
  833SOL    HW1 2498   0.344   0.448   2.214  0.8380 -0.3489 -0.3004
  833SOL    HW2 2499   0.291   0.294   2.173 -3.1498 -0.1384  0.0852
  834SOL     OW 2500   0.783   1.071   1.608 -0.1902  0.2783  0.6377
  834SOL    HW1 2501   0.743   1.015   1.538  0.4726  3.6266  0.0208
  834SOL    HW2 2502   0.877   1.034   1.633  1.1152  0.9069 -0.1051
  835SOL     OW 2503   2.793   0.993   2.964 -0.0700  0.4241 -0.3653
  835SOL    HW1 2504   2.751   0.911   2.913 -0.6463 -1.2500 -0.8769
  835SOL    HW2 2505   2.727   1.071   2.973 -0.9047  1.3412  0.7520
  836SOL     OW 2506   1.253   1.516   0.554 -0.2356  0.4363  0.3735
  836SOL    HW1 2507   1.162   1.545   0.510  0.9766  2.8002 -0.7853
  836SOL    HW2 2508   1.292   1.591   0.615 -1.2860 -1.5107  2.1974
  837SOL     OW 2509   1.674   1.449   1.050  0.1912 -0.1859  0.1833
  837SOL    HW1 2510   1.696   1.443   1.150  0.1231 -2.3330  0.3528
  837SOL    HW2 2511   1.604   1.512   1.024 -0.0401 -3.3349  0.5702
  838SOL     OW 2512   1.113   1.634   2.247  0.4547 -0.2463  0.3067
  838SOL    HW1 2513   1.094   1.552   2.306  1.0662 -1.1741 -0.1147
  838SOL    HW2 2514   1.096   1.718   2.302 -0.4620 -2.0117 -0.7265
  839SOL     OW 2515   0.809   2.101   2.691  0.1712  0.3492  0.0494
  839SOL    HW1 2516   0.781   2.111   2.788 -0.7672  1.4330 -0.1561
  839SOL    HW2 2517   0.726   2.118   2.636  0.7719 -4.4753  2.2437
  840SOL     OW 2518   0.735   2.181   0.412 -0.5926 -0.2336  0.5316
  840SOL    HW1 2519   0.714   2.282   0.423  1.3416  1.1451  1.4028
  840SOL    HW2 2520   0.706   2.138   0.500  1.2569 -0.6587 -0.6342
  841SOL     OW 2521   1.905   2.669   0.051  0.7773 -0.5717 -0.1185
  841SOL    HW1 2522   1.927   2.568   0.047  0.8939 -0.4907  0.3953
  841SOL    HW2 2523   1.904   2.716   3.066 -0.6583  0.5317 -1.3581
  842SOL     OW 2524   0.713   0.655   2.947 -0.6188  0.1284 -0.6832
  842SOL    HW1 2525   0.726   0.739   2.888 -1.0442  1.2573 -0.3379
  842SOL    HW2 2526   0.770   0.661   3.029 -1.2737  0.4554 -0.1463
  843SOL     OW 2527   1.278   0.172   0.754 -0.1334 -0.0106 -0.5246
  843SOL    HW1 2528   1.263   0.128   0.847  0.5806  1.9455 -0.6046
  843SOL    HW2 2529   1.203   0.237   0.731  2.3544  0.1055  1.8580
  844SOL     OW 2530   2.807   2.851   2.626 -0.4551 -0.1958 -0.5712
  844SOL    HW1 2531   2.882   2.780   2.593  2.6721 -2.1706  1.4202
  844SOL    HW2 2532   2.713   2.819   2.644  0.1597 -1.2520 -1.0181
  845SOL     OW 2533   2.767   2.285   0.886  0.0575 -0.0407 -0.2644
  845SOL    HW1 2534   2.832   2.349   0.838  0.1182 -0.3174  2.3161
  845SOL    HW2 2535   2.706   2.337   0.952  1.4104 -0.1639 -0.1310
  846SOL     OW 2536   2.824   1.829   2.393 -0.1112  0.4190 -0.1529
  846SOL    HW1 2537   2.806   1.754   2.459 -2.1338 -1.2405 -1.0697
  846SOL    HW2 2538   2.841   1.917   2.438 -0.5225 -0.0808 -1.5964
  847SOL     OW 2539   1.309   0.700   1.650  0.1916 -0.4745  0.1921
  847SOL    HW1 2540   1.264   0.778   1.602 -2.1896  0.6696 -0.7480
  847SOL    HW2 2541   1.353   0.732   1.736  1.6373  1.0585 -0.2143
  848SOL     OW 2542   2.583   0.031   2.978  0.3032  0.1736  0.3381
  848SOL    HW1 2543   2.569   0.005   3.075 -2.1111  2.8282 -2.6606
  848SOL    HW2 2544   2.679   0.033   2.949  1.1486  1.1429 -0.0050
  849SOL     OW 2545   0.713   2.834   2.785 -0.1297  0.2014  0.3295
  849SOL    HW1 2546   0.686   2.873   2.874  0.1863  1.9505  0.2192
  849SOL    HW2 2547   0.793   2.879   2.735 -2.4721  0.3583 -2.0673
  850SOL     OW 2548   1.169   2.656   0.987 -0.4084  0.5753 -0.4157
  850SOL    HW1 2549   1.108   2.593   1.040 -2.0090 -0.5389 -1.0113
  850SOL    HW2 2550   1.228   2.711   1.047 -0.0106 -2.1825 -0.4013
  851SOL     OW 2551   2.755   0.410   2.286 -0.4831  0.1184 -0.2971
  851SOL    HW1 2552   2.826   0.413   2.363  0.3903  0.2396  2.2480
  851SOL    HW2 2553   2.799   0.357   2.210 -1.7189  1.3766  3.1682
  852SOL     OW 2554   2.138   0.913   2.425 -0.2976 -0.5989  0.1940
  852SOL    HW1 2555   2.061   0.945   2.368  0.9572 -0.1596  1.8588
  852SOL    HW2 2556   2.104   0.857   2.505  0.3524 -0.0881 -2.1732
  853SOL     OW 2557   2.907   3.071   0.423  0.3144  0.1700 -0.3302
  853SOL    HW1 2558   2.890   0.062   0.419 -1.6521 -1.3283 -1.2597
  853SOL    HW2 2559   2.870   3.032   0.513 -2.9989 -1.5816 -0.4200
  854SOL     OW 2560   2.047   1.083   1.984 -0.0369  0.6883 -0.0809
  854SOL    HW1 2561   2.016   1.053   2.079  0.3722  4.0276  2.5234
  854SOL    HW2 2562   2.101   1.166   1.994 -0.9759 -0.5912  0.0694
  855SOL     OW 2563   1.327   2.240   0.225 -0.2529  0.0215 -0.4730
  855SOL    HW1 2564   1.275   2.169   0.171 -2.1540 -1.2524  0.3638
  855SOL    HW2 2565   1.264   2.312   0.255  0.7952 -0.4568 -0.8388
  856SOL     OW 2566   0.008   0.175   2.587  0.2147  0.0315  0.0780
  856SOL    HW1 2567   0.001   0.075   2.590  2.8075 -1.3203 -1.2715
  856SOL    HW2 2568   0.002   0.220   2.680 -2.9858 -0.1679 -0.8588
  857SOL     OW 2569   1.205   0.011   1.852  0.2821  0.6644 -0.2126
  857SOL    HW1 2570   1.221   0.025   1.952  2.1117 -1.1207 -0.1550
  857SOL    HW2 2571   1.196   3.020   1.835  1.7241 -1.0741  1.9574
  858SOL     OW 2572   2.362   2.158   1.676 -0.2089  0.2400 -0.2728
  858SOL    HW1 2573   2.324   2.214   1.604 -0.2386 -0.4412  1.2634
  858SOL    HW2 2574   2.337   2.062   1.660 -0.4962 -2.8381 -1.0405
  859SOL     OW 2575   1.106   2.689   1.504 -0.6206  0.5177 -0.6048
  859SOL    HW1 2576   1.205   2.667   1.492 -0.7001 -1.5396 -0.5804
  859SOL    HW2 2577   1.058   2.607   1.536  0.6721  1.0180 -0.7445
  860SOL     OW 2578   2.505   2.850   0.012 -0.2273 -0.2564 -0.1892
  860SOL    HW1 2579   2.512   2.816   3.027 -1.6368 -1.6506  2.2006
  860SOL    HW2 2580   2.421   2.804   0.049  0.4571  0.3032  0.7701
  861SOL     OW 2581   2.170   2.879   0.948  0.6589  0.3566 -0.3322
  861SOL    HW1 2582   2.109   2.963   0.934 -2.1634  0.8092 -2.6344
  861SOL    HW2 2583   2.196   2.868   1.045 -1.5275  0.4073 -0.2263
  862SOL     OW 2584   1.837   2.841   2.413 -0.4852  0.4732  0.0589
  862SOL    HW1 2585   1.935   2.812   2.404  2.4669 -1.3348 -0.1307
  862SOL    HW2 2586   1.833   2.897   2.498  1.0309 -0.4331  0.9100
  863SOL     OW 2587   0.092   0.753   0.797  0.7600  0.0693 -0.0358
  863SOL    HW1 2588   0.039   0.834   0.774 -0.0381  1.4576  1.1122
  863SOL    HW2 2589   0.136   0.709   0.715  2.5378  0.9868 -2.1581
  864SOL     OW 2590   0.190   2.793   2.109  0.3644  0.2616 -0.0494
  864SOL    HW1 2591   0.277   2.744   2.081  0.8660 -0.5547  2.8395
  864SOL    HW2 2592   0.192   2.825   2.208 -0.8216  0.0066  1.6053
  865SOL     OW 2593   0.580   1.451   2.765  0.2394 -0.1925 -0.3817
  865SOL    HW1 2594   0.525   1.487   2.845  0.3531 -1.1191 -1.3351
  865SOL    HW2 2595   0.523   1.386   2.706 -2.2176  2.1370 -1.4436
  866SOL     OW 2596   2.860   0.637   2.757  0.0579 -0.4803  0.7167
  866SOL    HW1 2597   2.887   0.686   2.672 -0.2135 -1.1872 -0.3827
  866SOL    HW2 2598   2.924   0.652   2.836  2.2756 -2.0445  1.3652
  867SOL     OW 2599   0.002   3.008   2.584 -0.1589 -0.1202 -0.1510
  867SOL    HW1 2600   0.089   2.979   2.628 -0.0205 -1.8124  0.8992
  867SOL    HW2 2601   3.045   2.932   2.589 -0.0186  0.2733 -0.9669
  868SOL     OW 2602   1.275   2.909   0.624 -0.3077  0.6974  0.4898
  868SOL    HW1 2603   1.325   2.999   0.619 -1.6715  1.4938  1.9928
  868SOL    HW2 2604   1.268   2.870   0.525 -0.9431  0.9331 -0.1058
  869SOL     OW 2605   1.459   1.611   0.936 -0.3006  0.4527  0.4120
  869SOL    HW1 2606   1.463   1.660   0.850 -0.0434  2.0162  0.2012
  869SOL    HW2 2607   1.409   1.663   1.004  1.1198 -1.6908 -1.6436
  870SOL     OW 2608   2.155   1.941   1.149  0.2507  0.3465  0.3547
  870SOL    HW1 2609   2.130   2.000   1.068  1.5749  0.6590 -1.1165
  870SOL    HW2 2610   2.090   1.865   1.153 -0.3496 -0.7147 -1.2253
  871SOL     OW 2611   0.984   1.632   1.792  0.0208  0.2991 -0.2695
  871SOL    HW1 2612   1.073   1.672   1.759  0.7318  1.6192  1.8692
  871SOL    HW2 2613   0.952   1.559   1.722 -0.1840  0.6855  0.0691
  872SOL     OW 2614   0.943   1.446   1.570 -0.4884  0.3404 -0.4875
  872SOL    HW1 2615   1.017   1.497   1.519 -0.4722 -1.1722 -2.2361
  872SOL    HW2 2616   0.906   1.370   1.512  1.4203 -0.2787  1.5090
  873SOL     OW 2617   1.281   1.038   2.632  0.5058 -0.2745 -0.3318
  873SOL    HW1 2618   1.313   1.128   2.600 -0.1727  1.4228 -0.5241
  873SOL    HW2 2619   1.362   0.986   2.665 -0.2760  1.2578  0.6084
  874SOL     OW 2620   0.030   1.495   1.266 -0.3817 -0.1503 -0.1692
  874SOL    HW1 2621   0.059   1.502   1.168  0.5751 -1.3430  0.6387
  874SOL    HW2 2622   0.081   1.565   1.324 -1.7307 -0.4244  0.2543
  875SOL     OW 2623   2.859   2.965   0.675 -0.0853 -0.1771 -0.1904
  875SOL    HW1 2624   2.765   3.004   0.698 -0.3237  2.7170 -0.3647
  875SOL    HW2 2625   2.859   2.865   0.688  1.9668 -1.6297  1.9938
  876SOL     OW 2626   1.023   0.827   2.939  0.0286 -0.0146  0.0624
  876SOL    HW1 2627   1.053   0.760   2.862  0.1338 -2.0977 -0.3385
  876SOL    HW2 2628   1.050   0.789   3.030  1.3689 -0.5956  0.4653
  877SOL     OW 2629   0.012   0.404   1.005 -0.1365 -0.6326 -0.1452
  877SOL    HW1 2630   3.043   0.456   1.048 -1.6457  1.3468  0.9763
  877SOL    HW2 2631   0.039   0.321   1.057  0.8438  1.2896  0.5507
  878SOL     OW 2632   1.596   2.373   0.082  0.7095  0.0221 -0.1829
  878SOL    HW1 2633   1.623   2.452   0.140 -0.9832  0.9807 -1.0294
  878SOL    HW2 2634   1.552   2.298   0.132  0.7583  1.8199 -1.8088
  879SOL     OW 2635   2.265   1.815   1.479  0.4609 -0.2874  0.7440
  879SOL    HW1 2636   2.365   1.828   1.467  0.7344 -2.2684  2.2886
  879SOL    HW2 2637   2.232   1.862   1.560  0.2074 -0.9048  0.1817
  880SOL     OW 2638   0.791   0.552   1.591 -0.8140 -0.0657 -0.2525
  880SOL    HW1 2639   0.888   0.587   1.608 -0.0394  1.4021 -1.5675
  880SOL    HW2 2640   0.738   0.559   1.679  1.7855 -2.5294  1.8881
  881SOL     OW 2641   0.985   1.905   0.116 -0.1209 -0.1284 -0.0791
  881SOL    HW1 2642   0.950   1.807   0.122  0.8501 -0.0290 -2.3178
  881SOL    HW2 2643   0.922   1.957   0.055 -1.3250  1.2493  2.5933
  882SOL     OW 2644   2.159   0.726   1.666  0.0677 -0.0195  0.2034
  882SOL    HW1 2645   2.190   0.796   1.736 -4.5349 -1.1839  0.5392
  882SOL    HW2 2646   2.193   0.753   1.571 -3.9863 -0.3051 -2.8411
  883SOL     OW 2647   1.350   0.334   2.100 -0.3424  0.4998 -0.2775
  883SOL    HW1 2648   1.450   0.352   2.088  2.9108 -3.1031 -0.0240
  883SOL    HW2 2649   1.294   0.336   2.017  1.5125 -0.2428  0.2752
  884SOL     OW 2650   2.461   0.232   0.103  0.0661 -1.0420  0.0264
  884SOL    HW1 2651   2.362   0.251   0.071 -0.6274  1.2272  1.0576
  884SOL    HW2 2652   2.476   0.128   0.113 -0.0037 -0.1896  1.6158
  885SOL     OW 2653   0.347   2.080   0.589 -0.1458 -0.3253  0.2091
  885SOL    HW1 2654   0.324   2.119   0.501  0.7274 -2.1760  2.2999
  885SOL    HW2 2655   0.288   1.997   0.609 -2.3551  1.0948 -0.5493
  886SOL     OW 2656   1.727   1.305   0.049  0.0102  0.4962 -0.1232
  886SOL    HW1 2657   1.650   1.269   0.104  1.3689 -1.2726  0.8765
  886SOL    HW2 2658   1.776   1.381   0.101  1.0593  2.0599 -1.1888
  887SOL     OW 2659   1.494   0.499   1.691  0.3174 -0.1447  0.3883
  887SOL    HW1 2660   1.581   0.544   1.723 -0.9375 -0.0728  1.6591
  887SOL    HW2 2661   1.423   0.566   1.693  1.3403 -2.5591 -1.9274
  888SOL     OW 2662   2.890   1.218   1.510 -0.0942 -0.5078  0.5728
  888SOL    HW1 2663   2.864   1.125   1.535 -1.7490  0.8137  0.7583
  888SOL    HW2 2664   2.846   1.235   1.418 -2.8976  0.7580 -1.5120
  889SOL     OW 2665   0.018   2.583   0.877  0.3118 -0.4130  0.0640
  889SOL    HW1 2666   0.087   2.660   0.852  1.3105  2.1400 -2.0196
  889SOL    HW2 2667   0.066   2.498   0.918 -1.5993  1.7897  0.1993
  890SOL     OW 2668   0.349   2.432   2.514 -0.2666 -0.6556  0.0096
  890SOL    HW1 2669   0.443   2.411   2.472  3.2970  0.4800 -1.8413
  890SOL    HW2 2670   0.324   2.524   2.475  0.0244  0.5599 -1.5488
  891SOL     OW 2671   0.399   1.756   0.295 -0.1505 -0.5258 -0.6074
  891SOL    HW1 2672   0.443   1.799   0.372  0.7254  1.2907 -0.0000
  891SOL    HW2 2673   0.415   1.655   0.305 -0.1225  0.3776  2.0957
  892SOL     OW 2674   3.003   2.331   1.301 -0.0425  0.3217  0.5592
  892SOL    HW1 2675   2.982   2.353   1.397  1.1211  0.3943 -2.9317
  892SOL    HW2 2676   2.919   2.309   1.246 -0.9242  1.0329 -2.3461
  893SOL     OW 2677   0.444   2.952   1.425  0.7405  0.2446 -0.3296
  893SOL    HW1 2678   0.531   2.936   1.472 -0.6715  3.3835  1.3060
  893SOL    HW2 2679   0.385   3.016   1.479 -2.2895 -1.3159  1.5036
  894SOL     OW 2680   2.654   1.492   0.864 -0.4183  0.1696  0.1403
  894SOL    HW1 2681   2.594   1.571   0.883 -1.8906  1.2894  2.9755
  894SOL    HW2 2682   2.697   1.509   0.771 -0.8455  2.6265 -3.8774
  895SOL     OW 2683   2.380   2.705   1.604 -0.0832 -0.1342  0.1187
  895SOL    HW1 2684   2.297   2.651   1.630  0.6435 -2.0381 -1.0499
  895SOL    HW2 2685   2.461   2.654   1.636  1.4637 -1.6703 -2.0487
  896SOL     OW 2686   0.910   0.222   1.242 -0.4696  0.0622  0.5905
  896SOL    HW1 2687   0.863   0.280   1.313 -0.0634 -1.3038 -0.0890
  896SOL    HW2 2688   1.001   0.267   1.230 -0.1645  0.6619 -0.5764
  897SOL     OW 2689   0.631   1.663   1.181 -0.0807  0.0363  0.1366
  897SOL    HW1 2690   0.529   1.641   1.186  0.2151 -0.3776  0.9804
  897SOL    HW2 2691   0.664   1.698   1.270 -2.7725 -1.2195  0.8646
  898SOL     OW 2692   1.652   2.704   1.683  0.7085  0.1406  0.0890
  898SOL    HW1 2693   1.641   2.607   1.708  0.3734  1.0402 -0.1593
  898SOL    HW2 2694   1.749   2.734   1.682 -1.4457 -0.3521 -0.1572
  899SOL     OW 2695   1.088   0.370   2.650  0.4625  0.1604  0.1120
  899SOL    HW1 2696   1.179   0.338   2.618  0.0164  0.7148  2.9463
  899SOL    HW2 2697   1.019   0.297   2.625 -0.2084 -0.3137 -2.8964
  900SOL     OW 2698   1.186   2.591   1.840 -0.3070 -0.2367  0.5054
  900SOL    HW1 2699   1.123   2.517   1.877 -0.8488 -2.3978  1.1641
  900SOL    HW2 2700   1.206   2.580   1.741 -0.1079  1.6356 -1.0958
  901SOL     OW 2701   0.800   1.934   0.320  0.1671 -0.0465 -0.4467
  901SOL    HW1 2702   0.757   2.025   0.339 -1.3386 -1.0022  0.9806
  901SOL    HW2 2703   0.901   1.943   0.305  0.7453 -0.9003 -1.5203
  902SOL     OW 2704   1.571   1.177   1.079 -0.0326  0.6808  0.2611
  902SOL    HW1 2705   1.605   1.275   1.068 -0.2394  2.1969 -0.5160
  902SOL    HW2 2706   1.481   1.173   1.034  0.7086  0.2737 -1.5393
  903SOL     OW 2707   2.590   1.158   2.885  0.8718 -0.8071 -0.1003
  903SOL    HW1 2708   2.619   1.248   2.837  1.1576  0.5780 -4.3545
  903SOL    HW2 2709   2.520   1.174   2.960 -0.5882  2.2158  1.1096
  904SOL     OW 2710   0.883   1.200   0.342  0.1716 -0.0348  0.7521
  904SOL    HW1 2711   0.930   1.255   0.272 -0.0392  1.8073  1.8571
  904SOL    HW2 2712   0.942   1.175   0.416 -1.1978  0.2730 -1.6412
  905SOL     OW 2713   1.645   0.090   1.228 -0.4722  0.2076 -0.0544
  905SOL    HW1 2714   1.662   0.184   1.267 -2.1656  0.9243  0.3681
  905SOL    HW2 2715   1.634   0.026   1.309  0.4606  2.6962 -0.4751
  906SOL     OW 2716   2.584   2.693   0.912 -1.3446  0.0984 -0.2656
  906SOL    HW1 2717   2.564   2.782   0.958 -0.7430 -1.0238 -2.5197
  906SOL    HW2 2718   2.517   2.670   0.844  1.7116 -1.1518  2.9632
  907SOL     OW 2719   1.457   0.811   0.533 -0.4944  0.6146 -0.5855
  907SOL    HW1 2720   1.428   0.714   0.538 -1.0560 -3.4078  0.4170
  907SOL    HW2 2721   1.450   0.857   0.628 -1.4687 -0.1408  3.3124
  908SOL     OW 2722   1.520   0.017   1.000 -0.6679 -0.3812  0.1427
  908SOL    HW1 2723   1.424   0.037   1.011  2.3782  1.1201  0.2723
  908SOL    HW2 2724   1.570   0.044   1.085 -1.0049 -2.6473 -2.9057
  909SOL     OW 2725   2.232   0.788   1.401 -0.1126 -0.0122 -0.4079
  909SOL    HW1 2726   2.224   0.823   1.310  1.3113 -1.3101  1.0408
  909SOL    HW2 2727   2.251   0.688   1.395 -2.9279  0.8310  0.4752
  910SOL     OW 2728   2.236   0.688   2.093  0.0844 -0.0973 -0.3811
  910SOL    HW1 2729   2.176   0.731   2.018  0.5550  0.8693 -3.6924
  910SOL    HW2 2730   2.295   0.760   2.141 -1.5387 -0.0610  0.1263
  911SOL     OW 2731   2.357   0.629   2.718  0.2675 -0.5564  0.4568
  911SOL    HW1 2732   2.447   0.607   2.685 -2.5476  0.6567  0.3526
  911SOL    HW2 2733   2.345   0.623   2.818 -1.5142  0.8999 -1.3247
  912SOL     OW 2734   0.536   1.049   1.730  0.2691 -0.0225  0.0863
  912SOL    HW1 2735   0.627   1.051   1.680  0.6412 -0.2077  0.2070
  912SOL    HW2 2736   0.473   1.114   1.685  3.2440  0.0123  2.1410
  913SOL     OW 2737   2.959   2.424   1.550  0.1953  0.3029 -0.1315
  913SOL    HW1 2738   3.022   2.367   1.608  0.9711  1.0571  0.4306
  913SOL    HW2 2739   2.956   2.521   1.580  1.0922  0.9946  1.7561
  914SOL     OW 2740   1.562   0.610   2.026  0.7254  0.1357 -0.1240
  914SOL    HW1 2741   1.477   0.648   1.993  3.2502 -2.2006  0.1175
  914SOL    HW2 2742   1.627   0.588   1.955  0.1687 -0.5143  1.9364
  915SOL     OW 2743   2.484   0.895   0.941  0.5209  0.3233  0.2109
  915SOL    HW1 2744   2.556   0.835   0.902 -2.9616 -2.6535  0.6889
  915SOL    HW2 2745   2.493   0.991   0.905  0.6398 -2.5051 -2.0399
  916SOL     OW 2746   1.787   2.223   1.021  0.1318  0.0209  0.2521
  916SOL    HW1 2747   1.723   2.255   1.091  2.7779  2.0749  0.1127
  916SOL    HW2 2748   1.792   2.121   1.036 -1.0018 -1.6939 -1.2277
  917SOL     OW 2749   2.003   2.318   2.277 -0.3682  0.1704 -0.2369
  917SOL    HW1 2750   1.937   2.283   2.208  0.1212  0.9430 -0.2594
  917SOL    HW2 2751   2.051   2.406   2.251  0.2371  1.4608 -0.5868
  918SOL     OW 2752   1.852   2.433   2.501 -0.1898  0.1596 -0.6595
  918SOL    HW1 2753   1.788   2.504   2.468  0.1467 -2.5658 -0.2471
  918SOL    HW2 2754   1.892   2.384   2.420  1.6127  1.7281 -1.9961
  919SOL     OW 2755   1.166   0.176   1.444  0.7640  0.1081  0.1388
  919SOL    HW1 2756   1.197   0.088   1.492 -0.8948 -2.0673  0.6260
  919SOL    HW2 2757   1.097   0.220   1.509 -3.7382 -0.9838  1.8071
  920SOL     OW 2758   2.980   0.416   2.443  0.6264  0.1452 -0.1081
  920SOL    HW1 2759   3.037   0.333   2.464  1.5248 -1.9571 -1.7811
  920SOL    HW2 2760   2.910   0.419   2.517  0.5334  0.6414  1.6344
  921SOL     OW 2761   3.099   0.978   1.817 -0.0408  0.3846 -0.1148
  921SOL    HW1 2762   3.107   1.075   1.839 -3.0089 -3.2779 -2.7610
  921SOL    HW2 2763   3.001   0.952   1.810  1.9397  1.0054  1.9930
  922SOL     OW 2764   2.329   2.403   0.379 -0.1570  0.6297  0.4631
  922SOL    HW1 2765   2.277   2.491   0.397 -1.4114 -0.5378 -1.2550
  922SOL    HW2 2766   2.418   2.427   0.334  0.1753  2.4798  1.3488
  923SOL     OW 2767   0.615   2.064   0.627 -0.8567  0.0389 -0.0383
  923SOL    HW1 2768   0.618   2.079   0.727  0.4509 -0.4629  2.8522
  923SOL    HW2 2769   0.526   2.090   0.590  2.7325  0.5377  0.1319
  924SOL     OW 2770   1.180   0.977   0.216  0.1777  0.5242  0.4335
  924SOL    HW1 2771   1.174   1.080   0.231  0.1237 -2.0849  1.6578
  924SOL    HW2 2772   1.148   0.926   0.295 -0.8675  0.7930  0.8308
  925SOL     OW 2773   2.680   0.788   0.784 -0.2010 -0.4295 -0.2555
  925SOL    HW1 2774   2.754   0.730   0.828  1.9579  3.6505  1.3843
  925SOL    HW2 2775   2.676   0.787   0.687 -0.5718 -0.1534  1.7600
  926SOL     OW 2776   0.502   0.249   1.381 -0.2006  0.3120 -0.1455
  926SOL    HW1 2777   0.528   0.187   1.306  0.2513 -0.6218  0.2195
  926SOL    HW2 2778   0.437   0.322   1.351  0.0056 -1.8563  3.3310
  927SOL     OW 2779   0.745   1.453   2.501 -0.1393 -0.7587 -0.1330
  927SOL    HW1 2780   0.726   1.467   2.602  1.1844 -0.2351 -0.1544
  927SOL    HW2 2781   0.689   1.378   2.456 -0.8977 -1.7848 -1.6240
  928SOL     OW 2782   0.237   0.630   2.369 -0.2412  0.7817 -0.1443
  928SOL    HW1 2783   0.141   0.626   2.341 -0.2047  0.6165  0.5655
  928SOL    HW2 2784   0.272   0.536   2.376  2.5346  0.5736 -1.6110
  929SOL     OW 2785   2.885   3.064   1.325  0.3360 -0.4287  0.2859
  929SOL    HW1 2786   2.912   3.033   1.233 -1.7267 -1.7894  1.8333
  929SOL    HW2 2787   2.931   0.046   1.347 -0.9615  1.6044  1.5889
  930SOL     OW 2788   1.967   0.440   1.880 -0.8521  0.5665  0.6556
  930SOL    HW1 2789   1.937   0.390   1.797 -0.1114 -0.6382 -0.2482
  930SOL    HW2 2790   1.962   0.383   1.961 -1.0148  3.2029 -2.6684
  931SOL     OW 2791   2.278   0.893   0.017  0.0270  0.1840  0.4638
  931SOL    HW1 2792   2.202   0.940   0.070 -1.6473 -0.0499 -1.6890
  931SOL    HW2 2793   2.326   0.823   0.073  2.8595  2.6916 -1.2694
  932SOL     OW 2794   2.231   1.431   0.523  0.1198  0.6015 -0.1381
  932SOL    HW1 2795   2.306   1.363   0.538 -3.0096 -0.5889 -1.3106
  932SOL    HW2 2796   2.146   1.397   0.571 -1.0937 -1.6681  0.1252
  933SOL     OW 2797   2.044   1.604   1.082 -0.4029  0.2009  0.1076
  933SOL    HW1 2798   2.122   1.608   1.147 -0.5382 -2.4767  0.6544
  933SOL    HW2 2799   2.033   1.512   1.047  0.1503 -1.2267 -0.9267
  934SOL     OW 2800   1.948   0.994   2.670  0.6605 -0.4580  0.0216
  934SOL    HW1 2801   2.013   1.035   2.739  2.4138 -0.8883  0.0918
  934SOL    HW2 2802   1.966   0.896   2.668 -0.4745  1.1147  0.0794
  935SOL     OW 2803   0.322   1.024   0.585  0.0981 -1.0187  0.1434
  935SOL    HW1 2804   0.273   1.045   0.494  1.2294  1.6496 -1.9042
  935SOL    HW2 2805   0.253   1.029   0.658 -0.3877  1.5058 -0.0274
  936SOL     OW 2806   0.656   3.084   0.788  0.2643 -0.0154 -0.6068
  936SOL    HW1 2807   0.621   0.010   0.878  1.8234 -1.2464  1.9116
  936SOL    HW2 2808   0.712   0.044   0.737 -0.5018  0.4609  2.2712
  937SOL     OW 2809   2.726   2.990   1.739  0.3538 -0.2829  0.5952
  937SOL    HW1 2810   2.728   2.918   1.665  1.6804 -0.5458  0.0683
  937SOL    HW2 2811   2.754   2.945   1.825 -2.4818  2.7409 -4.7565
  938SOL     OW 2812   2.928   2.270   0.048 -0.0873 -0.0979 -0.0894
  938SOL    HW1 2813   2.868   2.321   3.093 -0.1447  3.2989 -1.5920
  938SOL    HW2 2814   3.003   2.336   0.072 -0.0612  1.4089 -1.9072
  939SOL     OW 2815   1.150   1.548   1.412  0.6532  0.5003  0.1570
  939SOL    HW1 2816   1.183   1.462   1.371  3.5605 -1.7748 -0.1918
  939SOL    HW2 2817   1.233   1.601   1.429  0.5772 -1.5243  1.0390
  940SOL     OW 2818   3.006   0.631   2.990  0.1980 -0.2558  0.1331
  940SOL    HW1 2819   3.072   0.584   2.930  0.7836 -0.6781 -3.2988
  940SOL    HW2 2820   2.963   0.565   3.053  1.6758  0.2314  0.3179
  941SOL     OW 2821   2.308   0.361   2.662 -0.3227  0.5555 -0.2319
  941SOL    HW1 2822   2.384   0.328   2.724  1.6190  0.2721  2.1514
  941SOL    HW2 2823   2.276   0.454   2.687 -2.5337 -1.3478  2.5062
  942SOL     OW 2824   1.621   0.248   0.865  0.1941 -0.0815 -0.8063
  942SOL    HW1 2825   1.573   0.163   0.904 -4.5356 -5.3517 -2.1507
  942SOL    HW2 2826   1.688   0.223   0.795 -1.6040 -0.4251  2.1817
  943SOL     OW 2827   1.152   1.206   2.086  0.0649  0.2660 -0.0472
  943SOL    HW1 2828   1.204   1.119   2.095 -0.0293 -1.4898 -0.9606
  943SOL    HW2 2829   1.111   1.211   1.989 -0.2503 -1.6863 -0.9311
  944SOL     OW 2830   2.011   1.005   1.604 -0.2873  0.5382 -0.2492
  944SOL    HW1 2831   1.940   0.929   1.599  0.7421  0.3972 -0.6934
  944SOL    HW2 2832   2.057   1.007   1.694 -0.2036 -0.4376 -1.1161
  945SOL     OW 2833   2.837   0.203   2.819 -0.3282  0.5218  0.0123
  945SOL    HW1 2834   2.827   0.148   2.736  1.5861  1.5705  1.2101
  945SOL    HW2 2835   2.841   0.138   2.904 -1.6570 -2.0664  2.0229
  946SOL     OW 2836   2.918   1.404   1.702 -0.5549  0.3486 -0.1463
  946SOL    HW1 2837   2.920   1.312   1.653  1.5578 -2.2331 -1.5248
  946SOL    HW2 2838   2.840   1.461   1.670 -0.1210 -0.5389  3.4645
  947SOL     OW 2839   1.022   2.975   0.170  0.7413 -0.6355 -0.2172
  947SOL    HW1 2840   0.990   2.902   0.111  0.0986 -0.4176  0.6543
  947SOL    HW2 2841   1.058   2.937   0.258 -0.8227 -0.1961  1.7404
  948SOL     OW 2842   2.277   1.673   1.229 -0.2510 -0.0342 -0.3238
  948SOL    HW1 2843   2.249   1.746   1.289  0.9548 -1.5968 -0.9888
  948SOL    HW2 2844   2.373   1.690   1.203  2.1825 -1.3067 -0.7481
  949SOL     OW 2845   0.225   1.296   3.017 -0.4507  0.7117  0.2776
  949SOL    HW1 2846   0.244   1.242   2.929 -2.0669  1.3553  0.3017
  949SOL    HW2 2847   0.259   1.393   3.016  1.4438  3.8702  0.0759
  950SOL     OW 2848   0.538   2.360   1.058  0.2823 -0.1042 -0.6594
  950SOL    HW1 2849   0.467   2.431   1.076  0.3189 -3.1364 -0.3569
  950SOL    HW2 2850   0.586   2.388   0.972 -0.7741 -0.2163  3.5095
  951SOL     OW 2851   0.758   1.666   2.740 -0.1625  0.4345  0.0956
  951SOL    HW1 2852   0.833   1.631   2.800  1.7419  0.2617  2.1801
  951SOL    HW2 2853   0.678   1.608   2.749  3.1016 -1.2131 -1.1424
  952SOL     OW 2854   0.778   0.925   0.472  0.4343 -0.5348  0.1196
  952SOL    HW1 2855   0.754   0.857   0.543 -0.6474  0.6543  0.2596
  952SOL    HW2 2856   0.822   1.009   0.510 -1.3176 -1.3143  0.0300
  953SOL     OW 2857   2.374   2.791   2.479  0.6207  0.0446 -0.0689
  953SOL    HW1 2858   2.459   2.736   2.474 -1.5392 -1.1641 -2.7295
  953SOL    HW2 2859   2.352   2.824   2.574 -0.3906 -0.6526 -1.2627
  954SOL     OW 2860   1.893   0.938   0.866 -0.0968  0.1049  0.1425
  954SOL    HW1 2861   1.916   1.030   0.908 -3.7579  0.6687 -0.4243
  954SOL    HW2 2862   1.939   0.921   0.776 -1.8971  0.5888 -0.5116
  955SOL     OW 2863   0.599   1.832   0.471 -0.0821  0.1221  0.6017
  955SOL    HW1 2864   0.683   1.840   0.410 -1.2944  1.3385 -1.1452
  955SOL    HW2 2865   0.602   1.910   0.538 -0.8682  1.2272  0.5544
  956SOL     OW 2866   2.390   0.509   1.977 -0.1696 -0.5775 -0.5503
  956SOL    HW1 2867   2.331   0.583   2.019 -0.8030  0.3743  2.5392
  956SOL    HW2 2868   2.437   0.461   2.057  0.3079 -3.7859  3.0875
  957SOL     OW 2869   1.992   2.302   1.826  0.1416  0.3999  0.5073
  957SOL    HW1 2870   2.094   2.301   1.840 -0.2795 -0.1251 -3.3951
  957SOL    HW2 2871   1.952   2.217   1.859  1.3279 -0.7211  0.0457
  958SOL     OW 2872   1.730   1.101   1.322 -0.6781  0.4031 -0.2179
  958SOL    HW1 2873   1.720   1.169   1.396  1.0483  0.1272 -2.1600
  958SOL    HW2 2874   1.670   1.135   1.245  0.4085 -1.7167 -1.7500
  959SOL     OW 2875   1.775   1.783   2.142  0.2626  0.0260  0.3027
  959SOL    HW1 2876   1.765   1.687   2.181 -1.2989 -2.1928  0.9848
  959SOL    HW2 2877   1.766   1.788   2.039 -0.2967 -0.8712  0.1978
  960SOL     OW 2878   0.793   0.880   2.817  0.4936  0.3361  0.2306
  960SOL    HW1 2879   0.804   0.873   2.713 -1.7364 -1.2538 -1.1668
  960SOL    HW2 2880   0.875   0.866   2.871  2.5712 -2.0035 -1.5369
  961SOL     OW 2881   2.959   1.138   2.775  0.2415 -0.1366  0.1075
  961SOL    HW1 2882   2.890   1.066   2.806 -0.5039 -0.6017 -0.0195
  961SOL    HW2 2883   3.021   1.106   2.697 -0.8799 -1.8165 -0.1783
  962SOL     OW 2884   0.920   1.852   2.643  0.2300 -0.0147  0.3159
  962SOL    HW1 2885   0.857   1.780   2.684 -2.1936  0.7712 -0.4842
  962SOL    HW2 2886   0.890   1.947   2.655  1.4976 -1.2668  1.2632
  963SOL     OW 2887   2.878   2.044   0.172  0.4798  0.0454  0.3559
  963SOL    HW1 2888   2.789   2.004   0.142 -1.7354 -0.8695  1.5028
  963SOL    HW2 2889   2.898   2.133   0.125 -1.0220  1.9856  1.0337
  964SOL     OW 2890   0.910   2.101   2.013  0.1646  0.5307  0.5335
  964SOL    HW1 2891   1.008   2.082   2.007 -1.1771  1.6341  0.3160
  964SOL    HW2 2892   0.863   2.017   1.988  0.5512 -0.2327 -0.5127
  965SOL     OW 2893   1.618   2.017   0.600 -0.0318  0.4627  0.2882
  965SOL    HW1 2894   1.650   2.052   0.503 -2.3591  1.0693 -4.7512
  965SOL    HW2 2895   1.526   2.061   0.622 -1.6579 -0.5616 -0.4897
  966SOL     OW 2896   2.994   1.682   3.068  0.3537 -0.2572 -0.7192
  966SOL    HW1 2897   3.035   1.761   0.012 -2.3440 -1.0745  0.9202
  966SOL    HW2 2898   3.042   1.591   3.078  0.3529 -1.0055  0.8759
  967SOL     OW 2899   2.091   0.017   2.340  0.2541 -0.4743  0.2958
  967SOL    HW1 2900   2.189   3.102   2.353 -2.2962  4.4064  0.8782
  967SOL    HW2 2901   2.041   3.057   2.284  0.1105  0.9836 -0.2361
  968SOL     OW 2902   0.827   0.645   0.087 -0.1103 -0.1332 -0.3115
  968SOL    HW1 2903   0.767   0.710   0.139 -1.7445 -0.7005  1.4402
  968SOL    HW2 2904   0.926   0.675   0.100  3.7239  0.2299  3.1684
  969SOL     OW 2905   0.549   1.610   2.170  0.0717  0.0105  0.2540
  969SOL    HW1 2906   0.619   1.644   2.233 -0.6721  1.6274 -2.3868
  969SOL    HW2 2907   0.607   1.563   2.099  0.6944 -0.4026  0.7422
  970SOL     OW 2908   1.940   2.712   1.313 -0.0451 -0.5962  0.1235
  970SOL    HW1 2909   1.983   2.667   1.232 -1.1734  1.7344  0.2138
  970SOL    HW2 2910   1.972   2.662   1.396  1.2963 -0.3185  1.7823
  971SOL     OW 2911   2.200   2.362   0.812  0.3845 -0.3300  0.1297
  971SOL    HW1 2912   2.173   2.463   0.829  2.2864  3.8865  1.3865
  971SOL    HW2 2913   2.292   2.355   0.768  0.0241  0.2831  1.4370
  972SOL     OW 2914   0.054   1.145   2.550 -0.0687  0.0292  0.3479
  972SOL    HW1 2915   0.076   1.111   2.456 -0.2796 -1.1335 -1.5298
  972SOL    HW2 2916   0.085   1.237   2.574 -1.7929 -1.4584 -0.5299
  973SOL     OW 2917   0.571   0.082   0.278 -0.3536  0.5206 -0.0907
  973SOL    HW1 2918   0.581   0.147   0.353  1.6344 -1.6542 -0.5084
  973SOL    HW2 2919   0.508   0.118   0.202 -0.0053  0.0805  1.1720
  974SOL     OW 2920   2.511   0.813   1.961  0.2109  0.3196 -0.0611
  974SOL    HW1 2921   2.514   0.726   2.016 -0.0632 -1.6262  1.6353
  974SOL    HW2 2922   2.543   0.896   2.019 -0.8098  2.1459 -0.3992
  975SOL     OW 2923   0.043   2.961   0.392  0.4046 -1.0113  0.5959
  975SOL    HW1 2924   3.059   3.002   0.402  0.0291  0.4190 -0.5234
  975SOL    HW2 2925   0.043   2.874   0.441  1.1838  3.0873 -0.0668
  976SOL     OW 2926   0.072   1.812   1.122  0.1952 -0.5769 -0.3596
  976SOL    HW1 2927   3.090   1.843   1.158 -0.3552 -2.8709 -1.3688
  976SOL    HW2 2928   0.063   1.730   1.058  1.8556 -0.3032  2.1188
  977SOL     OW 2929   1.029   1.607   0.450  0.4189  1.1189  0.0420
  977SOL    HW1 2930   0.939   1.580   0.416  0.4708 -1.3568 -0.5038
  977SOL    HW2 2931   1.033   1.709   0.473  0.7852 -0.6975 -2.3263
  978SOL     OW 2932   0.084   0.808   0.328 -0.3727 -0.4030  0.0607
  978SOL    HW1 2933   0.124   0.757   0.251  2.2130 -2.5707  2.0053
  978SOL    HW2 2934   0.117   0.906   0.330  2.3487  1.5578  1.1886
  979SOL     OW 2935   1.761   1.640   0.829  0.2100  0.3301  0.4064
  979SOL    HW1 2936   1.857   1.672   0.821 -0.5004  2.6115  0.9894
  979SOL    HW2 2937   1.751   1.577   0.907  1.3353  0.4014 -0.9213
  980SOL     OW 2938   0.458   1.999   1.998  0.3347  0.3476 -0.1332
  980SOL    HW1 2939   0.528   1.992   2.068  1.4623 -0.3763 -2.9898
  980SOL    HW2 2940   0.489   2.058   1.921  0.8391  0.5199 -0.5026
  981SOL     OW 2941   2.097   1.160   2.839 -0.9848  0.0701  0.5588
  981SOL    HW1 2942   2.047   1.208   2.908 -0.6942 -1.2691 -0.0685
  981SOL    HW2 2943   2.105   1.218   2.758 -0.8420 -1.1528  2.6085
  982SOL     OW 2944   2.802   2.649   1.832  0.0965  0.0536 -0.3990
  982SOL    HW1 2945   2.797   2.734   1.892 -1.8225  2.4043  1.7590
  982SOL    HW2 2946   2.877   2.662   1.764  1.9842 -0.3882 -1.6047
  983SOL     OW 2947   1.625   0.273   1.683 -0.5684  1.0983  0.0072
  983SOL    HW1 2948   1.569   0.358   1.683  0.2392  1.2308 -0.0229
  983SOL    HW2 2949   1.569   0.194   1.723 -0.3316 -0.1343 -0.5829
  984SOL     OW 2950   2.159   2.991   3.076  0.3348 -0.0589  0.0633
  984SOL    HW1 2951   2.221   3.016   2.999  0.0277  1.6245 -0.0515
  984SOL    HW2 2952   2.061   3.001   3.051  0.3750 -0.7844  0.0565
  985SOL     OW 2953   1.719   1.381   1.773  0.0586 -0.6320 -0.4427
  985SOL    HW1 2954   1.758   1.326   1.695 -1.2508  0.0157 -3.7298
  985SOL    HW2 2955   1.707   1.321   1.858 -3.1585  2.2716  1.4447
  986SOL     OW 2956   2.041   2.574   2.604  0.0225  0.2459 -0.0987
  986SOL    HW1 2957   2.016   2.601   2.700 -1.9882 -0.9345  0.1002
  986SOL    HW2 2958   1.968   2.514   2.561  1.1539  1.0317  0.6552
  987SOL     OW 2959   2.741   1.845   2.714  0.6389  0.8751 -0.1811
  987SOL    HW1 2960   2.754   1.765   2.651  2.0107  1.3670 -2.8981
  987SOL    HW2 2961   2.778   1.929   2.674 -1.6387 -4.8711  1.3429
  988SOL     OW 2962   0.015   0.828   1.483  0.6607 -0.0271 -0.0225
  988SOL    HW1 2963   0.085   0.874   1.542  1.6731 -2.5273 -4.0973
  988SOL    HW2 2964   0.014   0.880   1.397 -0.2080  2.0289 -2.9908
  989SOL     OW 2965   2.011   1.071   1.329 -0.3700 -0.0918  0.3739
  989SOL    HW1 2966   2.044   1.031   1.415 -2.5453  0.3534 -0.6253
  989SOL    HW2 2967   1.905   1.066   1.316 -4.4180  0.0722 -1.7317
  990SOL     OW 2968   2.611   0.668   0.019  0.0361  0.0758 -0.5853
  990SOL    HW1 2969   2.594   0.723   3.040 -1.5999  2.4743  1.2597
  990SOL    HW2 2970   2.691   0.705   0.072  1.9679  3.7853 -0.6078
  991SOL     OW 2971   0.515   1.669   0.009 -0.1891 -0.0336 -0.3398
  991SOL    HW1 2972   0.536   1.770   3.103 -3.2150  1.8823 -2.0619
  991SOL    HW2 2973   0.458   1.651   0.088 -0.3714 -0.0527 -1.3592
  992SOL     OW 2974   2.313   1.639   1.812  0.1822 -0.3095 -0.2639
  992SOL    HW1 2975   2.236   1.675   1.867  1.0113 -1.3499 -0.0466
  992SOL    HW2 2976   2.374   1.716   1.798 -0.0786 -1.0934  2.0612
  993SOL     OW 2977   0.598   2.790   0.464  0.0941 -0.0959  0.1611
  993SOL    HW1 2978   0.546   2.707   0.441 -1.2728 -0.4063 -0.0422
  993SOL    HW2 2979   0.667   2.777   0.540 -1.2927 -1.4051 -0.8097
  994SOL     OW 2980   2.756   2.060   1.617  0.0052 -0.3975 -0.1160
  994SOL    HW1 2981   2.707   2.137   1.656  1.5836 -1.1266  0.1493
  994SOL    HW2 2982   2.836   2.029   1.674 -0.3242 -0.1703 -0.3517
  995SOL     OW 2983   1.876   1.955   2.313 -0.1841 -0.0558 -0.1211
  995SOL    HW1 2984   1.877   2.051   2.275 -0.3820 -0.7516 -3.1412
  995SOL    HW2 2985   1.843   1.887   2.246  0.8679 -0.1136  0.4828
  996SOL     OW 2986   2.103   1.929   2.995 -0.4904 -0.4648  0.4224
  996SOL    HW1 2987   2.016   1.967   2.964  3.0137 -0.8607  2.1870
  996SOL    HW2 2988   2.095   1.899   3.090  2.4315 -0.5689 -3.7549
  997SOL     OW 2989   1.391   1.288   2.584 -0.1012 -0.5861 -0.0813
  997SOL    HW1 2990   1.325   1.314   2.511  1.6758  0.0257  0.8139
  997SOL    HW2 2991   1.435   1.377   2.615 -0.3665  3.7882  1.3250
  998SOL     OW 2992   2.945   2.447   0.717 -0.3912 -0.0871 -0.3963
  998SOL    HW1 2993   2.994   2.442   0.632 -0.3862 -4.0122 -2.6718
  998SOL    HW2 2994   2.996   2.503   0.785 -0.6996 -1.1714 -0.5448
  999SOL     OW 2995   0.288   2.796   0.401 -0.0642  0.2906  0.1056
  999SOL    HW1 2996   0.356   2.719   0.395 -0.1098  1.3252  1.7246
  999SOL    HW2 2997   0.338   2.884   0.377  0.0208 -1.4634 -1.7749
 1000SOL     OW 2998   1.133   0.178   3.016  0.2553  0.4481 -0.5629
 1000SOL    HW1 2999   1.135   0.156   0.009 -0.7741  0.1257  2.0399
 1000SOL    HW2 3000   1.061   0.125   2.966 -1.0956 -0.8757 -1.6781
   3.10820   3.10820   3.10820
