1000 SPC/Fw water molecules t= 421.00000 step= 421000
 3000
    1SOL     OW    1   0.175   3.017   1.158  0.1526 -0.6577  0.4158
    1SOL    HW1    2   0.229   3.082   1.216 -0.9660 -0.3723 -1.3809
    1SOL    HW2    3   0.167   2.927   1.205 -0.7251  0.7228  2.6555
    2SOL     OW    4   2.621   0.058   0.213  0.2514 -0.0056 -0.1182
    2SOL    HW1    5   2.675   3.058   0.216 -3.5944 -0.6013 -0.0186
    2SOL    HW2    6   2.663   0.129   0.151  0.5921 -0.9511  1.0324
    3SOL     OW    7   1.591   2.645   0.038 -0.3797  0.1073  0.6248
    3SOL    HW1    8   1.501   2.598   0.012 -2.1203 -1.3722  0.3605
    3SOL    HW2    9   1.591   2.748   0.019 -0.7751  0.8714  4.0727
    4SOL     OW   10   1.020   0.004   2.269 -0.0971 -0.1607 -0.0919
    4SOL    HW1   11   0.960   0.049   2.341 -1.2670  0.4186  0.9352
    4SOL    HW2   12   0.967   3.023   2.212  1.6145  2.5069  1.4146
    5SOL     OW   13   2.273   0.132   1.824  0.4902  0.3840  0.1501
    5SOL    HW1   14   2.202   0.063   1.799  0.9410 -0.4798 -0.4330
    5SOL    HW2   15   2.231   0.223   1.849  1.2001  0.3054  0.7874
    6SOL     OW   16   2.496   1.852   1.419 -0.8903 -0.7039  0.3579
    6SOL    HW1   17   2.479   1.822   1.325 -2.7857  2.2883  0.4292
    6SOL    HW2   18   2.416   1.841   1.479  0.6556 -1.0109 -2.0482
    7SOL     OW   19   1.948   1.168   0.685  0.2852  0.6020  0.7888
    7SOL    HW1   20   1.959   1.242   0.754  3.3702  0.5633 -1.3490
    7SOL    HW2   21   2.041   1.160   0.641  4.1587 -0.1222 -3.2034
    8SOL     OW   22   0.345   1.623   0.967 -0.2618 -0.2124 -0.1837
    8SOL    HW1   23   0.411   1.660   1.041  0.9648  0.6847  1.9664
    8SOL    HW2   24   0.264   1.574   1.012 -5.0022 -2.3693  1.9780
    9SOL     OW   25   2.978   2.761   1.306 -0.2813 -0.0547 -0.3650
    9SOL    HW1   26   2.951   2.750   1.401 -0.9113  1.0191 -0.2139
    9SOL    HW2   27   2.908   2.795   1.241 -1.1896  2.6285 -0.7739
   10SOL     OW   28   1.196   2.334   0.521  0.0503  0.6758 -0.3798
   10SOL    HW1   29   1.280   2.377   0.484 -1.1454  0.3854 -1.9370
   10SOL    HW2   30   1.114   2.347   0.460 -0.6897 -1.7071  2.1664
   11SOL     OW   31   1.664   1.884   1.012  0.0063  0.3326  0.1685
   11SOL    HW1   32   1.726   1.805   0.999 -1.2529 -1.4293 -0.9240
   11SOL    HW2   33   1.607   1.891   0.928  0.8574 -2.1519  1.0879
   12SOL     OW   34   3.075   0.806   2.197  0.1717 -0.7361  0.3195
   12SOL    HW1   35   0.024   0.899   2.165  1.5791  0.8416 -0.0714
   12SOL    HW2   36   0.053   0.736   2.162  1.2010  0.1247 -0.1592
   13SOL     OW   37   2.427   2.695   0.333  0.0984 -0.0396  0.0002
   13SOL    HW1   38   2.456   2.737   0.243 -0.4977  1.8852 -3.8466
   13SOL    HW2   39   2.491   2.625   0.364  2.2880 -0.7221 -2.2035
   14SOL     OW   40   1.423   1.767   0.112  0.0848  0.0530  0.4202
   14SOL    HW1   41   1.467   1.771   0.020 -1.0954  2.5094 -0.4644
   14SOL    HW2   42   1.471   1.828   0.178  1.1411 -0.5543  1.2785
   15SOL     OW   43   2.897   2.805   1.849  0.6430  0.1608 -0.5328
   15SOL    HW1   44   2.991   2.759   1.853 -0.9217  1.9151  2.0099
   15SOL    HW2   45   2.898   2.908   1.877  0.1750  3.0668  0.9943
   16SOL     OW   46   2.856   0.382   0.795  0.2389  0.1987  0.1480
   16SOL    HW1   47   2.940   0.388   0.854  3.4289 -2.0462  0.5249
   16SOL    HW2   48   2.852   0.298   0.741 -1.6542  3.5216 -1.5344
   17SOL     OW   49   1.196   0.127   0.844 -0.3468  0.1628  0.7905
   17SOL    HW1   50   1.106   0.079   0.838 -0.3087 -2.7614  1.3471
   17SOL    HW2   51   1.199   0.188   0.923  0.8414 -0.1458  1.6603
   18SOL     OW   52   1.188   0.325   1.072 -0.2547 -0.5195 -0.1348
   18SOL    HW1   53   1.289   0.334   1.065  0.6070  1.2508  0.1048
   18SOL    HW2   54   1.137   0.382   1.014 -1.1594 -2.9653 -0.9011
   19SOL     OW   55   2.218   0.920   0.481 -0.2718 -0.3541  0.6542
   19SOL    HW1   56   2.244   1.001   0.539  1.9333  1.5120  0.8636
   19SOL    HW2   57   2.203   0.947   0.382 -1.1890  1.6149  1.0560
   20SOL     OW   58   2.373   1.678   2.660 -0.2527 -0.0016  0.2092
   20SOL    HW1   59   2.396   1.616   2.584  1.3030  0.0281  0.9004
   20SOL    HW2   60   2.462   1.708   2.707 -1.6623 -3.0996  1.5986
   21SOL     OW   61   1.440   3.030   0.231  0.1639  0.2180 -0.7004
   21SOL    HW1   62   1.534   3.015   0.262 -2.0487 -0.7022 -1.2303
   21SOL    HW2   63   1.378   3.015   0.310  2.6294  0.6448 -0.7045
   22SOL     OW   64   2.779   1.187   0.910 -0.6964 -0.3147 -0.3797
   22SOL    HW1   65   2.725   1.128   0.972 -0.1816  1.2974 -3.5081
   22SOL    HW2   66   2.714   1.237   0.849  2.0286 -0.6062  1.1958
   23SOL     OW   67   0.535   0.161   2.086  0.0947 -0.0991 -0.2857
   23SOL    HW1   68   0.635   0.132   2.071  2.5664 -1.0671 -1.2655
   23SOL    HW2   69   0.481   0.149   2.001 -0.6601  1.5269 -1.1780
   24SOL     OW   70   2.316   2.116   0.782 -0.2499 -0.2534 -0.5387
   24SOL    HW1   71   2.251   2.188   0.759  0.6070 -3.4025  0.8669
   24SOL    HW2   72   2.258   2.033   0.808 -0.8614  0.4923 -0.0983
   25SOL     OW   73   1.756   3.023   2.413 -0.2664  0.0753 -0.6277
   25SOL    HW1   74   1.685   3.076   2.365  0.5756  0.2690  0.1096
   25SOL    HW2   75   1.727   2.995   2.505 -0.3685 -0.0223 -0.0682
   26SOL     OW   76   1.563   2.356   0.009  0.0209 -0.3766  0.3315
   26SOL    HW1   77   1.658   2.387   0.010  0.4364 -0.0793  0.3665
   26SOL    HW2   78   1.544   2.310   3.005 -2.1267 -0.9994  2.5404
   27SOL     OW   79   1.416   0.315   1.400 -0.0735  0.5388 -0.2645
   27SOL    HW1   80   1.352   0.237   1.390  1.7633 -1.9998 -0.8315
   27SOL    HW2   81   1.511   0.274   1.404  0.1893 -2.0133  0.4344
   28SOL     OW   82   1.032   1.460   0.577 -0.0909 -0.1958 -0.2770
   28SOL    HW1   83   0.979   1.446   0.663 -0.6111 -0.6696 -0.2994
   28SOL    HW2   84   1.118   1.507   0.604  1.0987 -0.5320 -0.5985
   29SOL     OW   85   2.477   0.324   1.595 -1.1986  0.1745 -0.1411
   29SOL    HW1   86   2.461   0.253   1.527 -1.9321 -1.3089 -0.8060
   29SOL    HW2   87   2.500   0.282   1.688  0.6246 -0.6004  0.1568
   30SOL     OW   88   1.386   2.386   1.528  0.3138 -0.2017  0.0269
   30SOL    HW1   89   1.453   2.308   1.545  2.8873 -1.3585  1.4545
   30SOL    HW2   90   1.297   2.344   1.499  1.5012 -2.4716  0.5910
   31SOL     OW   91   2.044   2.624   1.391  0.3552  0.9077  0.1820
   31SOL    HW1   92   2.061   2.708   1.448  1.2026  0.8681  2.1094
   31SOL    HW2   93   2.057   2.645   1.296  0.7577 -3.0472  2.2937
   32SOL     OW   94   2.039   1.415   2.411 -0.2708  0.4273 -0.2121
   32SOL    HW1   95   1.965   1.346   2.416 -0.2299  3.3221 -1.2153
   32SOL    HW2   96   2.126   1.387   2.454 -0.5980 -1.6096 -0.1967
   33SOL     OW   97   2.415   0.432   2.969  0.2085 -0.1027  0.0012
   33SOL    HW1   98   2.380   0.359   3.029  0.6445  0.8877  0.0973
   33SOL    HW2   99   2.343   0.495   2.936  2.5619  0.0885  1.4268
   34SOL     OW  100   1.796   0.167   0.420  0.3188  0.6783  0.4298
   34SOL    HW1  101   1.699   0.187   0.399  3.1893  1.0170 -1.5666
   34SOL    HW2  102   1.835   0.094   0.355  2.2228 -1.1440 -2.6371
   35SOL     OW  103   0.191   1.972   1.895 -0.3758 -0.0282  0.4524
   35SOL    HW1  104   0.163   2.066   1.919 -0.4256  0.5363 -1.1557
   35SOL    HW2  105   0.149   1.900   1.952 -0.7520  0.9249  0.3537
   36SOL     OW  106   2.644   1.713   2.743  0.2841 -0.7233 -0.0098
   36SOL    HW1  107   2.662   1.805   2.787  1.5847  1.1300 -0.1967
   36SOL    HW2  108   2.681   1.721   2.651 -2.3505 -0.2581  2.7954
   37SOL     OW  109   1.514   2.845   1.739 -0.1951  0.5181 -0.2318
   37SOL    HW1  110   1.586   2.778   1.755 -4.1621  0.1685  1.2266
   37SOL    HW2  111   1.454   2.848   1.825  0.1433  0.2608  2.4254
   38SOL     OW  112   0.423   0.721   2.581  0.2185  0.1250 -0.0945
   38SOL    HW1  113   0.383   0.810   2.546 -0.9271  0.6400  1.2397
   38SOL    HW2  114   0.487   0.671   2.518  1.6972  0.1471 -1.1115
   39SOL     OW  115   1.965   0.773   1.431  0.3795 -0.2072  0.0893
   39SOL    HW1  116   1.971   0.670   1.429  1.0928  0.0530 -1.7587
   39SOL    HW2  117   1.991   0.816   1.343 -2.1852  3.3586 -0.0239
   40SOL     OW  118   1.142   2.376   0.794 -0.1862 -0.1227 -0.2234
   40SOL    HW1  119   1.051   2.325   0.795  0.1964  2.2393 -0.2710
   40SOL    HW2  120   1.197   2.351   0.715 -2.3370  1.7357  1.0784
   41SOL     OW  121   2.028   2.088   0.970  0.5733 -0.3224 -0.0890
   41SOL    HW1  122   2.036   2.019   0.893  0.8839  2.1176  0.5937
   41SOL    HW2  123   2.039   2.184   0.936 -0.2885  1.2205  0.2336
   42SOL     OW  124   2.393   0.488   0.715 -0.1130  0.4351 -0.0338
   42SOL    HW1  125   2.487   0.476   0.757  1.0640  1.1580  0.3775
   42SOL    HW2  126   2.384   0.575   0.663 -1.0919 -3.2621 -1.8410
   43SOL     OW  127   0.497   1.450   2.283 -0.0120  0.1161  0.0319
   43SOL    HW1  128   0.487   1.433   2.183 -3.6371  0.2658 -0.3861
   43SOL    HW2  129   0.560   1.525   2.303 -0.6535  1.6409 -0.5459
   44SOL     OW  130   1.770   2.581   1.256  0.0468  0.0577  0.1200
   44SOL    HW1  131   1.730   2.489   1.224 -0.7528 -3.0084  1.3454
   44SOL    HW2  132   1.865   2.572   1.291 -1.9074 -3.2630 -1.0885
   45SOL     OW  133   0.879   0.115   2.501  0.4626 -0.1753 -0.0664
   45SOL    HW1  134   0.904   0.209   2.537  0.0780  1.5521 -2.4870
   45SOL    HW2  135   0.884   0.052   2.577  0.9900  0.4569 -1.4290
   46SOL     OW  136   0.643   2.659   1.898  0.0118  0.3211  0.1067
   46SOL    HW1  137   0.653   2.699   1.803 -2.5162  1.6437 -2.5303
   46SOL    HW2  138   0.604   2.716   1.973 -1.6903 -1.2175  1.7133
   47SOL     OW  139   1.111   2.003   0.921 -0.2781  0.1994 -0.3520
   47SOL    HW1  140   1.146   1.932   0.858 -0.7895  0.4344  3.4217
   47SOL    HW2  141   1.085   1.971   1.016  0.3929  1.3460  0.7803
   48SOL     OW  142   0.865   2.504   1.424 -0.2585  0.3854 -0.5875
   48SOL    HW1  143   0.915   2.523   1.338 -1.4083 -2.8360  0.1656
   48SOL    HW2  144   0.861   2.584   1.493 -1.2984  2.5568 -0.6348
   49SOL     OW  145   2.888   0.182   2.865  0.5389  0.1473 -0.2340
   49SOL    HW1  146   2.793   0.213   2.893  0.7340  1.0854 -1.9813
   49SOL    HW2  147   2.935   0.233   2.791  0.5777 -0.0633  1.7505
   50SOL     OW  148   1.589   1.063   0.381  0.0230 -0.4611 -0.0206
   50SOL    HW1  149   1.588   0.993   0.452  0.6405 -0.5165 -1.6554
   50SOL    HW2  150   1.529   1.147   0.386  0.6695  2.9614 -2.3552
   51SOL     OW  151   1.975   3.050   0.520 -0.0676 -0.2501 -0.0179
   51SOL    HW1  152   1.983   3.042   0.418  1.3226 -1.6839 -0.7478
   51SOL    HW2  153   2.063   3.074   0.567 -0.1089  0.1812  1.9256
   52SOL     OW  154   1.044   1.517   0.105 -0.4820  0.0870 -0.6984
   52SOL    HW1  155   1.047   1.454   0.027 -0.4797 -0.7796 -1.6954
   52SOL    HW2  156   0.950   1.567   0.095 -1.6728  0.9465 -0.3814
   53SOL     OW  157   0.165   1.042   2.672 -0.5356  0.4287  0.0196
   53SOL    HW1  158   0.234   1.043   2.745 -3.2827 -1.1329 -0.8378
   53SOL    HW2  159   0.156   1.132   2.631  1.1086 -2.1338  0.8388
   54SOL     OW  160   2.429   1.927   2.843  0.0994 -0.4076  0.4098
   54SOL    HW1  161   2.526   1.950   2.859 -2.1741 -0.1348  3.1362
   54SOL    HW2  162   2.387   1.856   2.900 -0.5315  0.5118 -1.4033
   55SOL     OW  163   2.278   2.139   1.341 -0.1746 -0.0610  0.0225
   55SOL    HW1  164   2.378   2.133   1.349 -1.1373 -1.6488  0.0020
   55SOL    HW2  165   2.241   2.081   1.265  1.9657  1.7121  0.4223
   56SOL     OW  166   1.801   3.032   1.293 -0.4147 -0.0488 -0.4220
   56SOL    HW1  167   1.750   2.942   1.296  3.2073 -0.4361 -0.3315
   56SOL    HW2  168   1.803   3.053   1.192 -0.6590  3.6562  0.2822
   57SOL     OW  169   1.752   1.466   0.657  0.1611  0.2479 -0.7280
   57SOL    HW1  170   1.737   1.409   0.572 -0.4738  0.0230  0.5491
   57SOL    HW2  171   1.847   1.498   0.654  0.0000  2.2791  2.6960
   58SOL     OW  172   2.473   3.047   1.668 -0.3028  0.0380  0.4222
   58SOL    HW1  173   2.428   0.031   1.609  2.2448  1.4401 -0.3528
   58SOL    HW2  174   2.573   3.044   1.638  3.2054  0.9855 -2.1744
   59SOL     OW  175   0.993   2.833   2.534  0.0156 -0.4134  0.1970
   59SOL    HW1  176   0.966   2.750   2.480 -1.0535  0.3164 -1.0823
   59SOL    HW2  177   0.920   2.892   2.570  2.5262  0.8947  0.1359
   60SOL     OW  178   0.554   0.289   2.521 -0.3309 -0.0877  0.5627
   60SOL    HW1  179   0.510   0.363   2.574  0.7280  0.2982 -0.4400
   60SOL    HW2  180   0.637   0.324   2.474  0.2102 -0.5886 -1.2037
   61SOL     OW  181   0.953   2.188   0.807 -0.2453 -0.4030  0.6297
   61SOL    HW1  182   1.012   2.115   0.855  0.1107 -3.2615  1.7398
   61SOL    HW2  183   0.910   2.153   0.720  1.2553  3.5213  1.8033
   62SOL     OW  184   1.047   2.060   2.129  0.1657  0.5163  0.7893
   62SOL    HW1  185   1.066   2.100   2.218 -1.0942 -0.0338 -3.8441
   62SOL    HW2  186   1.135   2.059   2.078  0.8635  1.1377 -0.9133
   63SOL     OW  187   1.538   1.810   0.550 -0.3829  0.2063  0.4268
   63SOL    HW1  188   1.620   1.874   0.542  2.9964  0.4517 -0.3352
   63SOL    HW2  189   1.541   1.725   0.489  0.2528  0.4032 -2.0179
   64SOL     OW  190   1.719   1.486   0.322 -0.1063  0.3247 -0.7345
   64SOL    HW1  191   1.734   1.466   0.222  0.8248 -1.8390  1.5971
   64SOL    HW2  192   1.733   1.399   0.370  1.2068  1.5808 -2.6376
   65SOL     OW  193   1.628   2.003   2.444  0.4805  0.2987 -0.1329
   65SOL    HW1  194   1.685   1.921   2.460 -0.8220  1.5559  0.8183
   65SOL    HW2  195   1.673   2.094   2.466  0.2158  0.4547 -1.0382
   66SOL     OW  196   0.255   0.869   1.262  0.1142  0.3237  0.0531
   66SOL    HW1  197   0.169   0.810   1.253 -0.1239 -1.0992 -1.8958
   66SOL    HW2  198   0.314   0.853   1.183  1.6093 -4.4101  0.1592
   67SOL     OW  199   2.022   2.636   0.459  0.2942 -0.1556 -0.3300
   67SOL    HW1  200   1.985   2.704   0.526  1.2671 -2.5143  0.4331
   67SOL    HW2  201   1.949   2.571   0.427  0.7951  0.1852  1.0650
   68SOL     OW  202   2.242   2.287   1.646 -0.0409 -0.4522 -0.1812
   68SOL    HW1  203   2.275   2.375   1.611 -1.5414  1.2286  1.9361
   68SOL    HW2  204   2.296   2.202   1.624 -0.9492 -1.9615  0.3651
   69SOL     OW  205   2.407   2.425   2.485  0.0749 -0.0432  0.4379
   69SOL    HW1  206   2.343   2.492   2.523 -1.2023  0.8738  1.8408
   69SOL    HW2  207   2.363   2.352   2.430 -2.4341  0.2416  1.1073
   70SOL     OW  208   0.146   1.298   2.544  0.4662 -0.0853 -0.4411
   70SOL    HW1  209   0.088   1.330   2.621  1.4713 -1.0453 -1.7940
   70SOL    HW2  210   0.111   1.329   2.451 -1.2259 -3.6991 -2.3788
   71SOL     OW  211   0.661   1.032   2.142 -0.0121 -0.1442  0.2690
   71SOL    HW1  212   0.745   0.987   2.177  1.6486 -1.2763 -1.6149
   71SOL    HW2  213   0.617   0.971   2.077  1.1897 -1.0965  4.8943
   72SOL     OW  214   2.296   1.356   1.879 -0.0796 -0.6222  0.2614
   72SOL    HW1  215   2.301   1.373   1.780  0.2023  1.1264  0.9363
   72SOL    HW2  216   2.389   1.339   1.914 -3.5164  1.0535 -3.8275
   73SOL     OW  217   0.847   1.868   2.870 -0.0977  0.5319 -0.0132
   73SOL    HW1  218   0.902   1.913   2.947 -0.2047  1.7799  3.4928
   73SOL    HW2  219   0.752   1.847   2.899  3.4197 -0.7387  0.8430
   74SOL     OW  220   1.716   2.829   2.023 -0.1365  0.4255 -0.3123
   74SOL    HW1  221   1.735   2.788   1.933 -1.3730  1.5772 -1.9344
   74SOL    HW2  222   1.618   2.812   2.051 -0.5745 -1.6341  2.3218
   75SOL     OW  223   1.205   2.663   0.585  0.0303 -0.2230 -0.1329
   75SOL    HW1  224   1.253   2.610   0.514  1.0741  1.5317  0.6985
   75SOL    HW2  225   1.173   2.753   0.537 -1.1386  2.9557 -1.7097
   76SOL     OW  226   3.066   2.047   2.583  0.3745 -0.1267  0.1510
   76SOL    HW1  227   0.012   1.968   2.636  2.2567  1.8834  1.4027
   76SOL    HW2  228   0.034   2.131   2.610  0.1151  1.0334  0.0485
   77SOL     OW  229   3.033   2.522   1.200 -0.4237  0.5356  0.1204
   77SOL    HW1  230   2.999   2.615   1.226 -0.4250  0.7583 -0.4284
   77SOL    HW2  231   0.030   2.489   1.253  4.8282 -2.3328 -0.6345
   78SOL     OW  232   2.588   0.972   0.231 -0.1923 -0.5770  0.7614
   78SOL    HW1  233   2.560   1.061   0.260  1.5799 -0.8890 -2.1734
   78SOL    HW2  234   2.670   0.984   0.171  1.1220 -0.9855 -0.3878
   79SOL     OW  235   0.125   1.851   2.718  0.0777 -0.3981 -0.0245
   79SOL    HW1  236   0.118   1.750   2.729 -0.5828 -1.2700  0.5311
   79SOL    HW2  237   0.151   1.891   2.806 -1.0230 -1.2104 -1.1434
   80SOL     OW  238   1.573   1.417   1.644 -0.7468 -0.7599 -0.2663
   80SOL    HW1  239   1.599   1.485   1.718 -0.1253 -1.5615  0.6175
   80SOL    HW2  240   1.486   1.432   1.596  2.5742  0.8269  0.6529
   81SOL     OW  241   2.081   1.049   2.163  0.0969 -0.7569  0.5032
   81SOL    HW1  242   1.990   1.037   2.122 -1.3798 -1.0043  2.1203
   81SOL    HW2  243   2.101   1.148   2.176 -2.2077 -0.2690  1.0692
   82SOL     OW  244   1.622   1.164   1.762  0.0481 -0.5804  0.1850
   82SOL    HW1  245   1.634   1.259   1.728 -0.4527 -1.2230 -0.5576
   82SOL    HW2  246   1.541   1.154   1.822  1.2325 -2.6685  0.1035
   83SOL     OW  247   0.102   0.349   2.986  0.1599 -0.0051 -0.2712
   83SOL    HW1  248   0.019   0.367   3.042 -1.9096  1.6314  1.2442
   83SOL    HW2  249   0.081   0.331   2.888  1.8401  0.6319  1.4690
   84SOL     OW  250   0.287   1.294   2.928 -0.2933  1.0185 -0.4015
   84SOL    HW1  251   0.310   1.201   2.894 -0.5431 -0.4993 -0.4586
   84SOL    HW2  252   0.206   1.282   2.984  1.9686 -1.6807  0.1314
   85SOL     OW  253   2.275   1.615   2.137  0.2333  0.3289  0.5309
   85SOL    HW1  254   2.352   1.586   2.077  0.2242  0.4557  0.7434
   85SOL    HW2  255   2.313   1.669   2.212 -2.4406 -0.0337 -1.0745
   86SOL     OW  256   0.457   0.846   1.063 -0.7113 -0.4677 -0.1774
   86SOL    HW1  257   0.521   0.926   1.073  0.1493 -1.0747 -0.3652
   86SOL    HW2  258   0.447   0.818   0.966 -0.8138 -2.0032  1.5279
   87SOL     OW  259   2.735   2.038   2.367 -0.0432  0.3291  0.1915
   87SOL    HW1  260   2.675   2.072   2.291  0.0571 -1.7108 -0.0326
   87SOL    HW2  261   2.834   2.069   2.348  1.6547  0.0325 -0.5776
   88SOL     OW  262   0.401   2.961   0.175  0.3469 -0.2775  0.1216
   88SOL    HW1  263   0.404   2.949   0.272 -1.7532 -0.7848  0.0885
   88SOL    HW2  264   0.338   2.896   0.129 -1.5642  0.1136  0.4801
   89SOL     OW  265   1.546   0.577   0.266  0.5369 -0.2088  0.1232
   89SOL    HW1  266   1.508   0.534   0.180  1.4237 -2.9237 -2.3439
   89SOL    HW2  267   1.569   0.676   0.251  1.0849 -0.6419  0.1417
   90SOL     OW  268   2.912   1.629   2.247 -0.0537 -0.0959  0.5496
   90SOL    HW1  269   2.849   1.587   2.312  0.5165  0.6000 -1.4107
   90SOL    HW2  270   3.006   1.636   2.293  1.7350  0.6437  1.9525
   91SOL     OW  271   2.203   2.953   1.231 -0.3465  0.3505  0.2260
   91SOL    HW1  272   2.154   2.878   1.177 -1.1617 -1.1591 -0.2699
   91SOL    HW2  273   2.141   3.011   1.286 -1.3505 -0.6332 -2.6215
   92SOL     OW  274   2.194   1.502   1.035  0.0238 -0.0135 -0.0120
   92SOL    HW1  275   2.127   1.462   0.971  2.4903  1.4358  1.3394
   92SOL    HW2  276   2.171   1.599   1.055 -0.9800  0.6583 -0.9640
   93SOL     OW  277   0.068   1.385   0.207  0.2317  0.7596 -0.1783
   93SOL    HW1  278   3.082   1.388   0.278 -1.3716  0.0911  1.5686
   93SOL    HW2  279   0.159   1.429   0.220  4.9338  1.5861 -1.1610
   94SOL     OW  280   1.117   2.787   1.775 -0.0610 -0.2849  0.7103
   94SOL    HW1  281   1.051   2.738   1.833  0.0167 -0.1917 -0.1504
   94SOL    HW2  282   1.181   2.721   1.739 -0.3890  4.9434  1.9814
   95SOL     OW  283   0.096   0.596   0.735  0.5334 -0.0292 -0.8263
   95SOL    HW1  284   0.100   0.698   0.751 -1.4130  0.4881 -0.0154
   95SOL    HW2  285   0.043   0.550   0.809 -0.5844  1.6662 -0.7925
   96SOL     OW  286   0.056   2.701   1.785 -0.2519  0.3082  0.3947
   96SOL    HW1  287   0.095   2.776   1.843  3.7940 -0.0732 -1.3692
   96SOL    HW2  288   0.127   2.637   1.745 -0.7518 -0.3314 -2.3587
   97SOL     OW  289   2.268   0.298   1.327  0.4329  0.3503 -0.2226
   97SOL    HW1  290   2.339   0.364   1.308  0.1120  1.3303 -1.2204
   97SOL    HW2  291   2.244   0.237   1.246 -3.1700 -1.0723 -1.1225
   98SOL     OW  292   2.974   2.450   1.543  0.2848 -0.3067  0.1246
   98SOL    HW1  293   2.924   2.542   1.550 -0.9067  3.8685  1.6349
   98SOL    HW2  294   3.051   2.462   1.476 -0.4687 -0.1813  0.2079
   99SOL     OW  295   0.165   0.326   1.394 -0.2676 -0.5305 -0.3443
   99SOL    HW1  296   0.081   0.264   1.392 -1.1223  0.2709  0.9609
   99SOL    HW2  297   0.154   0.399   1.463  1.6606 -0.8310 -0.7347
  100SOL     OW  298   2.299   0.281   2.568  0.1165  0.3390 -0.1234
  100SOL    HW1  299   2.217   0.285   2.504 -0.5141  1.4989 -1.2326
  100SOL    HW2  300   2.277   0.237   2.656 -0.1266  0.5794  0.8993
  101SOL     OW  301   0.394   0.255   2.269 -0.4139  0.4061  0.1274
  101SOL    HW1  302   0.448   0.232   2.186 -1.6925 -0.0603 -0.0972
  101SOL    HW2  303   0.460   0.243   2.346  1.8362 -1.4617  1.7154
  102SOL     OW  304   0.520   0.329   1.726 -0.0513 -0.1660  0.5279
  102SOL    HW1  305   0.524   0.371   1.637 -0.1827  0.0336  0.3498
  102SOL    HW2  306   0.615   0.298   1.754  0.8077  1.0656  2.0094
  103SOL     OW  307   1.164   0.856   2.394  0.1652  0.2869  0.1671
  103SOL    HW1  308   1.250   0.857   2.442  1.4967  0.6021 -2.6781
  103SOL    HW2  309   1.168   0.794   2.310  0.9153 -2.2056 -2.8596
  104SOL     OW  310   0.164   0.593   1.835  0.0727 -0.1639  0.2982
  104SOL    HW1  311   0.088   0.642   1.795 -2.1931 -2.1894  0.2553
  104SOL    HW2  312   0.173   0.614   1.932  2.5294  0.3810 -2.5552
  105SOL     OW  313   2.170   1.777   1.714  0.1989 -0.4206 -0.7688
  105SOL    HW1  314   2.100   1.840   1.680 -1.3144 -2.7034 -2.5713
  105SOL    HW2  315   2.140   1.734   1.801  4.4325 -1.8609  0.1722
  106SOL     OW  316   1.519   0.192   0.567  0.3863 -0.1499  0.1809
  106SOL    HW1  317   1.420   0.200   0.583  1.0315 -0.2506 -1.8781
  106SOL    HW2  318   1.545   0.219   0.473 -1.2934  0.7976  1.1437
  107SOL     OW  319   2.221   1.993   1.137  0.8967 -0.1605  0.4114
  107SOL    HW1  320   2.150   2.036   1.076  0.9984  0.0171 -0.0685
  107SOL    HW2  321   2.304   1.974   1.082 -0.2852  0.9420  1.9902
  108SOL     OW  322   0.280   2.290   1.109  0.3062  0.3093 -0.5094
  108SOL    HW1  323   0.337   2.354   1.057  2.7013 -2.4084 -2.7176
  108SOL    HW2  324   0.309   2.276   1.206  0.0747  0.3128  0.2034
  109SOL     OW  325   1.648   2.713   0.913  0.1511  0.2301  0.2349
  109SOL    HW1  326   1.588   2.694   0.833 -1.4075 -0.7716  1.4308
  109SOL    HW2  327   1.601   2.665   0.992  2.2579  0.7964  1.7057
  110SOL     OW  328   1.876   1.704   1.000  0.5638  0.7836  0.0241
  110SOL    HW1  329   1.969   1.728   1.029 -2.3890  0.4510 -0.9134
  110SOL    HW2  330   1.848   1.612   1.042  0.0917  0.8061  1.3779
  111SOL     OW  331   1.374   2.285   1.913  0.5202 -0.1643  0.2529
  111SOL    HW1  332   1.461   2.338   1.923  1.1210 -0.3293  0.8608
  111SOL    HW2  333   1.296   2.351   1.891 -3.1851  2.3025 -1.1018
  112SOL     OW  334   2.193   2.275   2.985  0.0465 -0.0457  0.5740
  112SOL    HW1  335   2.146   2.265   3.075  1.5736 -0.2225 -0.8929
  112SOL    HW2  336   2.267   2.208   2.986  0.3658 -0.5652 -0.0578
  113SOL     OW  337   2.079   1.656   1.942  0.2569  0.3815  0.0764
  113SOL    HW1  338   2.139   1.662   2.023  2.6210 -0.8348  0.6495
  113SOL    HW2  339   2.039   1.562   1.934  1.3212 -0.4389  1.5773
  114SOL     OW  340   3.017   1.218   1.917 -0.4820  0.0281  0.2992
  114SOL    HW1  341   2.927   1.210   1.961 -0.0884  1.3260 -0.9694
  114SOL    HW2  342   3.008   1.198   1.815  1.8481  0.2026 -1.0590
  115SOL     OW  343   2.891   1.016   0.228  0.1171 -0.1204 -0.3903
  115SOL    HW1  344   2.983   1.056   0.216  0.4800  1.1810 -0.4129
  115SOL    HW2  345   2.901   0.925   0.274 -2.2714 -0.7380  1.4759
  116SOL     OW  346   2.701   0.827   3.021 -0.2392 -1.1004 -0.3337
  116SOL    HW1  347   2.676   0.754   3.084 -1.2778  0.9922 -2.9484
  116SOL    HW2  348   2.629   0.837   2.950  1.9759  0.7270  1.6205
  117SOL     OW  349   2.962   2.333   2.953 -0.7511  0.0184 -0.2190
  117SOL    HW1  350   2.966   2.435   2.957  0.8810 -0.1550 -0.1873
  117SOL    HW2  351   2.877   2.306   2.905 -0.3493 -0.3237  0.0745
  118SOL     OW  352   0.317   2.231   2.817 -0.0642 -0.3187 -0.2455
  118SOL    HW1  353   0.399   2.294   2.806  4.0870  0.1082 -0.9238
  118SOL    HW2  354   0.298   2.201   2.915  0.4055 -1.1211  1.7312
  119SOL     OW  355   0.788   2.750   0.441  0.3759 -0.0179  0.0043
  119SOL    HW1  356   0.772   2.653   0.470 -0.0900  0.9464 -1.9146
  119SOL    HW2  357   0.782   2.814   0.520 -1.0547 -0.4932 -2.1707
  120SOL     OW  358   1.203   0.860   0.110  0.5883 -0.1103  0.0854
  120SOL    HW1  359   1.164   0.843   0.203 -0.1608 -1.4814 -2.1602
  120SOL    HW2  360   1.290   0.814   0.088 -0.4652 -0.5968  0.1566
  121SOL     OW  361   1.559   2.941   0.823 -0.1956 -0.0317 -0.0045
  121SOL    HW1  362   1.591   2.864   0.876 -2.5201  2.3928 -2.9401
  121SOL    HW2  363   1.632   2.992   0.773 -0.4616  0.3867 -1.0369
  122SOL     OW  364   2.457   1.500   2.455  0.0550 -0.0975 -0.3358
  122SOL    HW1  365   2.530   1.435   2.419 -0.0344 -2.4271 -1.3821
  122SOL    HW2  366   2.457   1.586   2.406 -0.6136 -2.7789 -0.2985
  123SOL     OW  367   1.235   1.178   1.352 -0.3859 -0.3820 -0.3681
  123SOL    HW1  368   1.136   1.187   1.382 -1.3422 -0.2150 -0.9553
  123SOL    HW2  369   1.266   1.080   1.337  0.8703  0.7368  1.8547
  124SOL     OW  370   0.532   0.552   0.089  0.0326 -0.4815 -0.0469
  124SOL    HW1  371   0.528   0.456   0.067 -2.1159  2.0291 -1.1518
  124SOL    HW2  372   0.488   0.611   0.020  3.4066 -0.4897 -0.7801
  125SOL     OW  373   0.688   0.347   0.528  0.0303  0.4437  0.2958
  125SOL    HW1  374   0.620   0.274   0.514  0.2514  1.5820 -0.4897
  125SOL    HW2  375   0.659   0.438   0.492  0.8561 -0.3325  2.1533
  126SOL     OW  376   0.229   1.641   0.456  0.5680  0.4698  0.2417
  126SOL    HW1  377   0.258   1.734   0.485 -2.7296 -1.1436  0.9441
  126SOL    HW2  378   0.156   1.614   0.526 -2.1619  2.1103  3.8611
  127SOL     OW  379   0.654   2.769   1.654  0.7456  0.2576 -0.0323
  127SOL    HW1  380   0.578   2.770   1.587  1.0903 -1.2153  2.6444
  127SOL    HW2  381   0.671   2.868   1.681 -0.1315  0.4315 -0.0714
  128SOL     OW  382   1.247   1.617   0.258 -0.1012  0.5965  0.1175
  128SOL    HW1  383   1.171   1.568   0.210  0.4009 -2.1402  0.3456
  128SOL    HW2  384   1.316   1.648   0.189 -0.0321 -0.3265  2.7437
  129SOL     OW  385   1.840   1.472   2.014 -0.3582 -0.3080 -0.2214
  129SOL    HW1  386   1.787   1.510   1.936  0.6124 -0.6301  0.1985
  129SOL    HW2  387   1.923   1.425   1.970 -0.1931 -2.6002 -2.7879
  130SOL     OW  388   1.576   2.146   1.441  0.4026 -0.1717 -0.5408
  130SOL    HW1  389   1.631   2.218   1.483 -0.8147 -1.7507 -1.6667
  130SOL    HW2  390   1.634   2.080   1.389 -0.2666 -0.6504  0.4823
  131SOL     OW  391   0.121   2.232   1.938  0.0746  0.4556 -0.6499
  131SOL    HW1  392   0.060   2.298   1.892  2.7374  2.9186  2.8730
  131SOL    HW2  393   0.209   2.283   1.936 -0.7930  0.3016 -0.9536
  132SOL     OW  394   2.801   1.851   0.777  0.6373  0.2514  0.2016
  132SOL    HW1  395   2.861   1.923   0.733  1.2318  0.8904  1.1943
  132SOL    HW2  396   2.788   1.878   0.874 -0.4748 -0.2991  0.3471
  133SOL     OW  397   0.613   0.807   1.613  0.5006 -0.3585 -0.2221
  133SOL    HW1  398   0.637   0.803   1.513 -0.8366  1.5936 -2.9679
  133SOL    HW2  399   0.658   0.729   1.664  0.0425 -0.2128 -1.7974
  134SOL     OW  400   2.433   1.596   0.122 -0.4009 -0.7970  0.5796
  134SOL    HW1  401   2.403   1.650   0.201 -0.6154  1.4240  1.2107
  134SOL    HW2  402   2.379   1.630   0.040 -0.3810  0.1317  0.3624
  135SOL     OW  403   1.687   1.074   2.577  0.1309 -0.4623 -0.4097
  135SOL    HW1  404   1.603   1.021   2.552 -2.4401  1.1709 -0.5716
  135SOL    HW2  405   1.664   1.132   2.659 -0.4281  1.0050  0.5460
  136SOL     OW  406   2.785   1.826   1.486  0.1951  0.4304  0.4415
  136SOL    HW1  407   2.819   1.734   1.514 -0.7542 -1.6979  1.1654
  136SOL    HW2  408   2.683   1.828   1.480 -0.1086 -0.5791 -1.4445
  137SOL     OW  409   2.414   1.908   0.530  0.3824  0.0683  0.2074
  137SOL    HW1  410   2.480   1.935   0.456 -0.4870  0.3405 -1.3717
  137SOL    HW2  411   2.452   1.934   0.622  1.6440  0.4258 -1.3160
  138SOL     OW  412   2.844   0.678   0.747  0.2430 -0.3140 -0.5525
  138SOL    HW1  413   2.796   0.659   0.655 -3.7640  0.4183 -0.5762
  138SOL    HW2  414   2.877   0.592   0.787 -3.2832 -0.9812 -1.1194
  139SOL     OW  415   0.075   0.063   0.009  0.3827  0.1449 -0.6939
  139SOL    HW1  416   0.124   0.127   3.035  0.7762  3.1321  0.3940
  139SOL    HW2  417   0.090   0.086   0.107 -0.4523  0.7503  1.5548
  140SOL     OW  418   0.763   1.146   1.533 -0.0228  0.6702 -0.5713
  140SOL    HW1  419   0.696   1.184   1.601 -1.9286  0.8390  1.5835
  140SOL    HW2  420   0.715   1.084   1.469 -1.2521 -3.0947  0.1598
  141SOL     OW  421   1.484   1.505   1.066 -0.3436  0.8498 -0.5933
  141SOL    HW1  422   1.421   1.430   1.087  1.5827 -1.6961  0.5707
  141SOL    HW2  423   1.435   1.594   1.052 -1.4305 -1.6458  0.2288
  142SOL     OW  424   1.278   0.714   1.101  0.4270 -0.0961  0.2623
  142SOL    HW1  425   1.235   0.730   1.008 -1.6596  2.9130  1.9211
  142SOL    HW2  426   1.253   0.619   1.131 -0.9438  1.4556 -2.1726
  143SOL     OW  427   0.401   1.083   2.259  0.6173  0.1841 -0.2044
  143SOL    HW1  428   0.499   1.073   2.237 -1.4690  0.7264 -0.0111
  143SOL    HW2  429   0.351   1.139   2.188 -0.1228 -0.1273 -0.7299
  144SOL     OW  430   2.394   0.066   0.371  0.0391  0.3560  0.3177
  144SOL    HW1  431   2.407   0.134   0.446 -0.4061  2.7465 -1.0218
  144SOL    HW2  432   2.485   0.054   0.322  2.2325 -1.5781  1.4782
  145SOL     OW  433   2.245   0.140   2.808 -0.1621  0.3243  0.3381
  145SOL    HW1  434   2.323   0.122   2.871  0.8772  0.9179  0.6877
  145SOL    HW2  435   2.194   0.220   2.840  2.4136  1.2836  0.1344
  146SOL     OW  436   3.049   2.831   0.464  0.2890 -0.2480 -0.1563
  146SOL    HW1  437   3.038   2.773   0.388  0.9518  1.3080  0.5051
  146SOL    HW2  438   2.989   2.793   0.541  0.1501  0.0152  0.9626
  147SOL     OW  439   0.812   1.112   2.507  0.1741 -0.4917 -0.2816
  147SOL    HW1  440   0.789   1.164   2.420 -1.8108 -0.2844 -0.2730
  147SOL    HW2  441   0.857   1.022   2.494  1.1128 -2.5192  0.9679
  148SOL     OW  442   1.490   0.144   0.019  0.4214 -0.0776  0.1221
  148SOL    HW1  443   1.454   0.074   0.083  2.4765  0.1593 -0.1201
  148SOL    HW2  444   1.418   0.170   3.037  1.3477 -2.0091  1.0328
  149SOL     OW  445   1.506   0.054   1.971  0.1467  0.0006  0.4730
  149SOL    HW1  446   1.603   0.057   2.006  1.3224 -1.4355  0.2352
  149SOL    HW2  447   1.470   0.145   1.979  0.1567 -0.5161 -0.7707
  150SOL     OW  448   2.098   2.791   2.993  0.5422  0.1020 -0.3403
  150SOL    HW1  449   2.150   2.707   3.007  2.0486  2.3086 -1.5415
  150SOL    HW2  450   2.015   2.781   3.053 -1.9984 -1.4365  0.0669
  151SOL     OW  451   0.595   1.561   3.053  0.3283 -0.1771  0.4294
  151SOL    HW1  452   0.495   1.589   3.066 -0.1751  1.0604  0.0047
  151SOL    HW2  453   0.608   1.485   2.986  2.0758 -1.1018  0.1992
  152SOL     OW  454   0.309   0.103   1.282  0.7131 -0.5334 -0.1297
  152SOL    HW1  455   0.413   0.107   1.298  3.8913  0.1748  0.6287
  152SOL    HW2  456   0.257   0.188   1.310  2.9890 -3.1236 -0.0083
  153SOL     OW  457   2.641   2.767   1.858  0.1893 -0.5584 -0.4527
  153SOL    HW1  458   2.741   2.771   1.844 -2.5486  2.7899 -2.7815
  153SOL    HW2  459   2.606   2.834   1.926 -2.6696  0.3246  0.5241
  154SOL     OW  460   2.502   2.718   2.491 -0.3611 -0.3237  0.5349
  154SOL    HW1  461   2.581   2.689   2.439  1.1855 -0.2420  1.2131
  154SOL    HW2  462   2.413   2.688   2.455  2.1810  0.8298  0.0309
  155SOL     OW  463   0.285   1.123   0.686  0.4262  0.0322 -0.7764
  155SOL    HW1  464   0.204   1.179   0.654 -1.4531 -1.0030 -1.8345
  155SOL    HW2  465   0.347   1.183   0.741 -2.0727 -2.0359  0.6686
  156SOL     OW  466   2.653   1.711   0.602 -0.3696 -0.0259 -0.2325
  156SOL    HW1  467   2.694   1.759   0.682  0.4427 -2.0562 -0.3287
  156SOL    HW2  468   2.714   1.739   0.519  1.7041  1.9464 -1.3637
  157SOL     OW  469   0.880   0.325   0.333  0.2955  0.3047  0.8113
  157SOL    HW1  470   0.812   0.328   0.405  0.7811 -1.1230  1.3729
  157SOL    HW2  471   0.956   0.262   0.355 -3.5219  0.5734 -4.0057
  158SOL     OW  472   1.722   0.860   0.924 -0.3546  0.0846 -0.2494
  158SOL    HW1  473   1.688   0.948   0.963  0.1766  1.8086  0.9345
  158SOL    HW2  474   1.655   0.788   0.943  2.5169 -0.9069  0.0605
  159SOL     OW  475   0.218   0.624   0.280  0.3697 -0.2169 -0.0889
  159SOL    HW1  476   0.310   0.648   0.312  1.0811 -0.1461 -0.6899
  159SOL    HW2  477   0.202   0.619   0.180 -0.5331 -1.8745  2.6840
  160SOL     OW  478   2.312   2.052   1.995  0.1039  0.3365 -0.1692
  160SOL    HW1  479   2.240   2.011   2.058 -0.0465 -1.3896 -1.4274
  160SOL    HW2  480   2.336   2.146   2.025 -0.9196  1.7234  1.5867
  161SOL     OW  481   0.354   1.034   2.867  0.2227 -0.2103  0.0923
  161SOL    HW1  482   0.421   0.996   2.798  0.3941 -0.9140 -2.6688
  161SOL    HW2  483   0.389   1.013   2.958 -0.5101 -0.0961  0.2081
  162SOL     OW  484   0.457   0.524   1.954  0.3059 -0.0912  0.3944
  162SOL    HW1  485   0.465   0.462   1.874 -1.8415 -0.0829 -0.0793
  162SOL    HW2  486   0.364   0.529   1.986  2.1584  0.7113 -0.9328
  163SOL     OW  487   2.751   3.033   2.754 -0.5688 -0.3461 -0.2850
  163SOL    HW1  488   2.805   0.003   2.822 -1.4081 -0.6507  1.6334
  163SOL    HW2  489   2.720   0.003   2.670  1.7988  3.7575  1.3322
  164SOL     OW  490   2.309   2.114   0.208  1.0672  0.1387  0.1317
  164SOL    HW1  491   2.351   2.092   0.120 -1.0270 -0.2958 -1.5824
  164SOL    HW2  492   2.377   2.112   0.282  1.2320  2.2319  0.0016
  165SOL     OW  493   0.409   0.322   1.081  0.4391  0.1489  0.1475
  165SOL    HW1  494   0.410   0.336   0.981  2.4275 -2.0862  1.3468
  165SOL    HW2  495   0.467   0.242   1.117  1.4828 -2.3390  1.1774
  166SOL     OW  496   2.467   0.369   0.304  0.4043 -0.1862 -0.2823
  166SOL    HW1  497   2.565   0.375   0.276  1.0553 -0.2292  1.6696
  166SOL    HW2  498   2.466   0.324   0.394 -0.2919  0.1092 -1.9209
  167SOL     OW  499   2.190   0.749   0.057  0.1303 -0.2750 -0.5251
  167SOL    HW1  500   2.265   0.809   0.033  1.8064  2.3449 -2.3154
  167SOL    HW2  501   2.222   0.669   0.116 -0.4171  2.2941 -0.0305
  168SOL     OW  502   1.194   2.817   2.177 -0.3453  0.5251  0.6349
  168SOL    HW1  503   1.100   2.862   2.188 -1.5481  0.8566 -0.4270
  168SOL    HW2  504   1.259   2.834   2.254 -1.0081  1.5643  0.8059
  169SOL     OW  505   0.528   1.912   0.689 -0.1271  0.3267  0.2827
  169SOL    HW1  506   0.497   2.005   0.702  0.4540 -5.3678  2.0079
  169SOL    HW2  507   0.632   1.910   0.705 -1.2529 -0.0374 -0.8273
  170SOL     OW  508   2.742   0.820   1.276  0.0461  0.4964 -0.5666
  170SOL    HW1  509   2.702   0.826   1.366  0.0691 -0.8862 -0.8292
  170SOL    HW2  510   2.664   0.809   1.211 -2.4560  0.4153  1.8529
  171SOL     OW  511   2.753   1.381   2.341  0.2593  0.6091 -0.4146
  171SOL    HW1  512   2.788   1.284   2.342  0.0042  1.1076  0.1261
  171SOL    HW2  513   2.722   1.396   2.246 -3.0120 -1.4564 -1.0786
  172SOL     OW  514   1.028   1.869   1.149 -0.5134  0.0279  0.0065
  172SOL    HW1  515   1.104   1.919   1.189 -1.7630  0.0119  0.0750
  172SOL    HW2  516   1.023   1.774   1.194  0.7076  0.3979  2.6299
  173SOL     OW  517   1.980   1.955   0.015 -0.2762  0.0662  0.7296
  173SOL    HW1  518   1.941   2.044   0.053  1.5773  0.1994  3.7370
  173SOL    HW2  519   2.002   1.891   0.090  0.9710 -1.8200  0.7381
  174SOL     OW  520   1.712   0.731   2.701 -0.2789  0.4450 -0.3178
  174SOL    HW1  521   1.770   0.730   2.616 -0.0406 -1.5626  0.6086
  174SOL    HW2  522   1.774   0.701   2.778  0.9203 -2.8796  1.0010
  175SOL     OW  523   0.928   1.624   1.247  0.3118  0.2508 -0.1856
  175SOL    HW1  524   0.931   1.522   1.225  2.0850  0.9925  0.0009
  175SOL    HW2  525   0.862   1.651   1.319 -0.3875 -0.1693  1.3929
  176SOL     OW  526   1.051   3.041   0.416 -0.0470  0.3706  0.0582
  176SOL    HW1  527   0.981   3.061   0.486  3.3805  1.2620  0.6372
  176SOL    HW2  528   1.079   0.043   0.366  0.5801 -0.2228  1.8701
  177SOL     OW  529   0.303   1.492   0.239  0.3050 -0.2459  1.0579
  177SOL    HW1  530   0.306   1.556   0.321 -1.1386 -3.6073 -0.5801
  177SOL    HW2  531   0.364   1.410   0.244 -0.7793  0.1971  1.1299
  178SOL     OW  532   3.046   2.507   2.548  0.1251  0.3889  0.0576
  178SOL    HW1  533   3.048   2.595   2.593  0.4818  0.7031  0.7462
  178SOL    HW2  534   0.004   2.438   2.615 -0.7596 -5.4444  0.5082
  179SOL     OW  535   2.820   2.821   2.604 -0.3800  0.0899  0.1523
  179SOL    HW1  536   2.767   2.829   2.520 -0.1848 -0.2200 -1.8024
  179SOL    HW2  537   2.807   2.897   2.671  3.2113  2.4863  0.1240
  180SOL     OW  538   2.211   0.339   0.842 -0.5043  0.4744 -0.2179
  180SOL    HW1  539   2.218   0.354   0.943  1.3330  1.3648  0.7318
  180SOL    HW2  540   2.256   0.409   0.788  1.4021 -2.2108  1.3709
  181SOL     OW  541   2.687   0.308   2.638  0.2760  0.5928 -0.3250
  181SOL    HW1  542   2.783   0.344   2.632 -1.1436 -1.1451  0.7268
  181SOL    HW2  543   2.666   0.219   2.584 -2.9198 -3.0678 -1.9026
  182SOL     OW  544   2.320   2.153   2.349  0.2740  0.1549 -0.8768
  182SOL    HW1  545   2.265   2.122   2.435 -0.7664 -4.1170  1.7830
  182SOL    HW2  546   2.261   2.132   2.268 -0.1930  0.1887 -0.1411
  183SOL     OW  547   2.306   0.545   1.932  0.1385  0.8273 -0.1187
  183SOL    HW1  548   2.385   0.510   1.990  0.8845 -2.3844  0.0266
  183SOL    HW2  549   2.335   0.632   1.883  2.0804  0.4405  0.8008
  184SOL     OW  550   3.021   1.607   0.548 -0.3666  0.7864 -0.3216
  184SOL    HW1  551   3.036   1.541   0.626  0.8026 -1.0066  4.3283
  184SOL    HW2  552   3.039   1.702   0.579 -1.9558 -1.7206  0.4575
  185SOL     OW  553   2.899   0.156   0.649  0.0644 -0.3950  0.4860
  185SOL    HW1  554   2.912   0.088   0.725 -0.6347  2.3277 -3.2008
  185SOL    HW2  555   2.872   0.107   0.563  0.4337  0.2761  1.2151
  186SOL     OW  556   2.414   2.455   2.803  0.4113  0.0500  0.4006
  186SOL    HW1  557   2.378   2.412   2.718 -0.2954 -0.7732  2.1056
  186SOL    HW2  558   2.423   2.558   2.785  0.8093 -0.5017 -1.2731
  187SOL     OW  559   0.449   1.615   0.706  0.1412 -0.8886  0.4996
  187SOL    HW1  560   0.400   1.616   0.794 -0.2590  0.9211 -2.6121
  187SOL    HW2  561   0.498   1.701   0.688  0.2445  0.4658  1.8346
  188SOL     OW  562   1.993   1.590   0.697  0.1590 -0.3364  0.4870
  188SOL    HW1  563   2.030   1.572   0.600 -0.3615 -1.9485 -0.2658
  188SOL    HW2  564   2.001   1.690   0.719  1.8569  0.5342 -1.2237
  189SOL     OW  565   2.884   1.397   3.028  0.2694 -0.1165  0.0742
  189SOL    HW1  566   2.948   1.315   3.024  0.6133 -1.6208  0.8447
  189SOL    HW2  567   2.801   1.396   2.964  2.4933 -0.3966 -0.3357
  190SOL     OW  568   2.465   0.281   2.345  0.6274 -0.6439  0.3463
  190SOL    HW1  569   2.432   0.261   2.440 -0.1302 -1.9469 -1.3998
  190SOL    HW2  570   2.418   0.237   2.266  1.7643  0.8142  0.2517
  191SOL     OW  571   1.039   0.351   2.306  0.0904 -0.1702  0.4027
  191SOL    HW1  572   1.130   0.310   2.338  3.2300  2.5255  1.7549
  191SOL    HW2  573   1.044   0.447   2.341 -1.2398 -0.0802  0.1421
  192SOL     OW  574   1.197   1.718   1.778  0.5825 -0.0197 -0.2110
  192SOL    HW1  575   1.137   1.684   1.705  0.9409 -0.3453 -0.3689
  192SOL    HW2  576   1.214   1.818   1.763  1.7781 -0.5458 -1.5615
  193SOL     OW  577   1.423   2.641   1.128  0.1186  0.0130  0.2022
  193SOL    HW1  578   1.417   2.648   1.227  0.7617  0.5998  1.5071
  193SOL    HW2  579   1.329   2.633   1.087 -0.9080 -2.8642  0.7486
  194SOL     OW  580   1.008   1.659   1.975  0.1048 -0.1186  0.0861
  194SOL    HW1  581   1.040   1.581   2.035  1.7624 -1.0090  2.5439
  194SOL    HW2  582   1.082   1.685   1.909  0.5950 -0.2377  0.7376
  195SOL     OW  583   2.029   0.284   0.547 -0.1648 -0.2025 -0.2624
  195SOL    HW1  584   2.048   0.218   0.617  0.9882  0.1308 -2.7154
  195SOL    HW2  585   1.949   0.257   0.493  2.3851 -0.7190  0.2400
  196SOL     OW  586   1.361   1.518   2.135 -0.2698  0.3014 -0.0468
  196SOL    HW1  587   1.405   1.583   2.203 -0.8429  3.3194 -1.2385
  196SOL    HW2  588   1.257   1.511   2.138  1.2168  0.3484 -3.1413
  197SOL     OW  589   0.062   0.280   1.931 -0.2704 -0.1230 -0.7717
  197SOL    HW1  590   0.030   0.209   1.995  1.7949  2.5202 -0.0305
  197SOL    HW2  591   0.161   0.271   1.911  0.0876  1.7354  2.4325
  198SOL     OW  592   0.176   1.181   1.070 -0.1446 -0.2075 -0.0404
  198SOL    HW1  593   0.163   1.082   1.063 -0.0094  0.7724 -1.5557
  198SOL    HW2  594   0.086   1.227   1.067  0.1931 -0.1238  3.3787
  199SOL     OW  595   0.406   2.486   0.975  0.7338 -0.4230  0.5773
  199SOL    HW1  596   0.371   2.525   0.889  0.0555 -0.0985 -1.5260
  199SOL    HW2  597   0.413   2.560   1.042 -4.1934  1.8166 -1.7955
  200SOL     OW  598   1.817   1.607   2.978  0.7835 -0.1856  0.5981
  200SOL    HW1  599   1.842   1.695   2.927 -0.5027  2.2927  1.5869
  200SOL    HW2  600   1.824   1.527   2.908 -0.6299 -0.1301 -0.8764
  201SOL     OW  601   0.479   2.290   1.781 -0.1263  0.2914  0.0548
  201SOL    HW1  602   0.572   2.277   1.742 -0.4217 -0.2580  0.5644
  201SOL    HW2  603   0.410   2.227   1.740  1.3026 -0.8626  3.5116
  202SOL     OW  604   0.980   2.720   3.013  0.1684  0.0676 -0.6080
  202SOL    HW1  605   1.066   2.666   3.011 -1.5104 -0.1765  0.8498
  202SOL    HW2  606   0.974   2.794   0.001 -1.0567 -1.5332  1.9014
  203SOL     OW  607   1.415   0.276   2.093 -0.0407 -0.1088  0.3197
  203SOL    HW1  608   1.349   0.327   2.034  2.7146 -1.7676  1.2588
  203SOL    HW2  609   1.493   0.327   2.128  0.0306 -1.2012 -1.6189
  204SOL     OW  610   0.559   1.050   1.381 -0.5334 -0.1354  1.1647
  204SOL    HW1  611   0.560   0.952   1.352 -0.1590  1.8103 -2.6107
  204SOL    HW2  612   0.466   1.095   1.375  1.6105  0.8562 -0.2482
  205SOL     OW  613   1.965   0.977   2.594 -0.0796 -0.5079  0.0703
  205SOL    HW1  614   1.869   1.002   2.574 -0.6012 -1.4021 -0.9132
  205SOL    HW2  615   2.005   0.912   2.528 -0.9580 -1.6718 -1.2431
  206SOL     OW  616   0.680   2.048   3.076 -0.0822  0.2667  0.6328
  206SOL    HW1  617   0.633   2.048   0.084  0.2595 -0.9761  0.0890
  206SOL    HW2  618   0.644   1.971   3.016  1.4292 -1.2063 -2.1602
  207SOL     OW  619   0.295   0.204   1.834  0.0864 -0.0150 -0.1547
  207SOL    HW1  620   0.363   0.267   1.803 -0.9046 -2.1015  0.2153
  207SOL    HW2  621   0.294   0.110   1.786 -0.9975 -0.7394 -0.2740
  208SOL     OW  622   0.598   2.479   1.504  0.3187  0.5372 -0.0567
  208SOL    HW1  623   0.589   2.383   1.540 -1.5991  0.2224 -0.4713
  208SOL    HW2  624   0.689   2.502   1.466 -4.7947  0.5419 -0.5603
  209SOL     OW  625   1.349   2.734   2.853  0.0472  0.0286 -0.7968
  209SOL    HW1  626   1.302   2.688   2.930  0.6279  0.4488 -1.0755
  209SOL    HW2  627   1.336   2.835   2.869 -3.0304 -0.1776  0.9326
  210SOL     OW  628   2.644   1.393   1.652  0.2676  0.2603 -0.3960
  210SOL    HW1  629   2.732   1.413   1.606 -0.6907 -2.0209  0.6504
  210SOL    HW2  630   2.607   1.473   1.702  0.0094  0.0256 -1.2795
  211SOL     OW  631   1.308   0.182   1.693 -0.8906 -0.4736  0.1727
  211SOL    HW1  632   1.354   0.273   1.683 -0.8693  0.2506  0.4442
  211SOL    HW2  633   1.366   0.105   1.654  1.3740 -2.0933  1.4147
  212SOL     OW  634   1.007   2.237   1.661 -0.2384 -0.4627 -0.2688
  212SOL    HW1  635   0.922   2.282   1.629  0.4984  1.4135  1.8840
  212SOL    HW2  636   1.003   2.230   1.764  0.8290 -0.9620 -0.2994
  213SOL     OW  637   2.549   0.443   2.057 -0.6779 -0.5595  0.6367
  213SOL    HW1  638   2.638   0.494   2.052  0.4514 -1.2999  1.3040
  213SOL    HW2  639   2.505   0.461   2.147  0.8916 -0.8355  1.3796
  214SOL     OW  640   0.768   1.902   1.629 -0.2459  0.1713  0.2512
  214SOL    HW1  641   0.838   1.926   1.561 -3.9276  2.9620  0.5531
  214SOL    HW2  642   0.786   1.957   1.714 -1.9443 -0.0084  1.2967
  215SOL     OW  643   2.726   1.953   1.024 -0.2778 -0.3416 -0.5239
  215SOL    HW1  644   2.788   1.958   1.106  0.1310 -0.4261 -1.7077
  215SOL    HW2  645   2.640   2.002   1.046  2.8909  0.1876  1.0256
  216SOL     OW  646   2.577   0.743   1.025  0.1050 -0.5867  0.2434
  216SOL    HW1  647   2.628   0.677   0.964 -0.5882  0.7199 -0.2231
  216SOL    HW2  648   2.494   0.702   1.067  0.0082 -1.9887 -0.7507
  217SOL     OW  649   2.444   0.095   1.421  0.2125 -0.2607  0.4018
  217SOL    HW1  650   2.354   0.138   1.387 -1.3692  4.4735  1.3903
  217SOL    HW2  651   2.485   0.048   1.345 -0.1750 -0.7432  1.6626
  218SOL     OW  652   1.690   2.354   1.112 -0.0193 -0.2190  0.5251
  218SOL    HW1  653   1.746   2.277   1.141  0.8727 -1.9852 -2.1070
  218SOL    HW2  654   1.675   2.344   1.012 -0.8943 -0.5287  1.3109
  219SOL     OW  655   1.682   2.236   0.267 -0.6681  0.0520  0.7703
  219SOL    HW1  656   1.757   2.302   0.266  1.6045 -0.2345  0.2203
  219SOL    HW2  657   1.625   2.245   0.183  0.3895  1.6979  0.5355
  220SOL     OW  658   1.862   2.326   3.067  0.3542  0.0795  0.0667
  220SOL    HW1  659   1.841   2.269   2.983 -4.0404 -1.6121  1.6212
  220SOL    HW2  660   1.948   2.301   0.024 -0.0149  0.6098 -0.3696
  221SOL     OW  661   0.005   2.243   0.775 -0.5648  0.2038 -0.1203
  221SOL    HW1  662   0.097   2.235   0.729  2.8754  0.5408  0.5428
  221SOL    HW2  663   0.017   2.215   0.875  1.9642  0.1655  0.9699
  222SOL     OW  664   1.694   2.345   0.839  0.5555  0.2914 -0.5982
  222SOL    HW1  665   1.736   2.424   0.790 -2.2005 -2.0907  1.9703
  222SOL    HW2  666   1.601   2.328   0.800 -0.8697  0.7680 -0.5378
  223SOL     OW  667   0.425   2.641   2.294  0.0707  0.2923 -0.3913
  223SOL    HW1  668   0.456   2.738   2.300  0.6703  1.0024 -2.6586
  223SOL    HW2  669   0.485   2.598   2.225 -1.1904  1.4523 -1.0373
  224SOL     OW  670   2.856   1.962   1.264  0.3824 -0.0008 -0.2173
  224SOL    HW1  671   2.948   1.993   1.295  0.2255  1.0366 -0.8107
  224SOL    HW2  672   2.806   1.924   1.344 -0.3540 -0.5543  1.5256
  225SOL     OW  673   2.224   1.857   0.820 -0.2602 -0.1069 -0.1009
  225SOL    HW1  674   2.261   1.775   0.770 -0.8725 -0.1530 -1.0864
  225SOL    HW2  675   2.124   1.856   0.814  1.4391  0.1739  2.7709
  226SOL     OW  676   1.354   2.547   0.373  0.5777  0.2307  0.0997
  226SOL    HW1  677   1.453   2.570   0.372 -0.9225  1.2141 -1.6235
  226SOL    HW2  678   1.313   2.521   0.283  3.2771 -0.6872 -1.4998
  227SOL     OW  679   1.938   0.692   1.054 -0.1364 -0.5229 -0.0796
  227SOL    HW1  680   1.970   0.760   1.122  1.3249 -0.4963 -2.6309
  227SOL    HW2  681   1.851   0.724   1.011  0.3543  1.4220 -1.1925
  228SOL     OW  682   1.330   0.726   1.983  0.0730  0.0351 -0.2368
  228SOL    HW1  683   1.360   0.788   2.058  0.3428  1.0433 -2.2041
  228SOL    HW2  684   1.348   0.769   1.891  2.5282 -0.8165 -0.8101
  229SOL     OW  685   2.747   1.116   2.688 -0.2833 -0.2578 -0.2686
  229SOL    HW1  686   2.789   1.203   2.664  1.9644 -0.1256  0.9524
  229SOL    HW2  687   2.815   1.059   2.747  2.5476  0.2611  2.2138
  230SOL     OW  688   0.998   1.242   0.980 -0.0918  0.6929 -0.0615
  230SOL    HW1  689   1.101   1.241   1.002  0.4673 -1.2026  0.5494
  230SOL    HW2  690   0.947   1.254   1.068  1.3836 -1.6176  1.8923
  231SOL     OW  691   2.587   2.994   2.057 -0.3209 -0.4637  0.1929
  231SOL    HW1  692   2.632   3.077   2.091  0.8980  0.0118  0.2414
  231SOL    HW2  693   2.487   3.005   2.080 -0.8220 -1.6139  0.2897
  232SOL     OW  694   0.544   2.036   0.252 -0.2274 -0.3059 -0.2387
  232SOL    HW1  695   0.469   1.993   0.305 -0.0030 -1.0609  1.6668
  232SOL    HW2  696   0.590   2.116   0.297 -1.0331 -0.2926  0.6920
  233SOL     OW  697   1.144   2.466   2.246  0.0958  0.1887  0.4768
  233SOL    HW1  698   1.191   2.523   2.319  0.7360  1.8948  0.1766
  233SOL    HW2  699   1.095   2.379   2.281  0.1646 -0.4232 -1.0422
  234SOL     OW  700   1.003   1.397   1.684 -0.5703 -0.0845  0.4501
  234SOL    HW1  701   1.093   1.363   1.724  0.7231  1.0195  0.2405
  234SOL    HW2  702   1.014   1.486   1.636  1.8436  1.1816  1.2460
  235SOL     OW  703   0.808   1.545   1.844  0.4553  0.5978  0.0377
  235SOL    HW1  704   0.828   1.472   1.772 -1.8319 -1.1204 -0.3952
  235SOL    HW2  705   0.888   1.587   1.889 -1.7476 -2.0882 -2.1101
  236SOL     OW  706   1.539   2.677   2.434  0.7445  0.0696  0.0225
  236SOL    HW1  707   1.614   2.667   2.365  1.2468  1.8784 -0.5002
  236SOL    HW2  708   1.563   2.638   2.523 -0.3629 -1.9736  1.6239
  237SOL     OW  709   1.338   3.010   0.707 -0.1392  0.5715  0.1069
  237SOL    HW1  710   1.313   0.018   0.735  2.4016 -1.6837 -1.7047
  237SOL    HW2  711   1.427   2.981   0.751  1.3054  2.8124 -2.1243
  238SOL     OW  712   1.012   0.903   2.826  0.0849  0.6576  0.6196
  238SOL    HW1  713   1.032   0.804   2.834 -1.2494  3.0080  1.1589
  238SOL    HW2  714   0.929   0.921   2.880  3.3891  0.5172 -1.4777
  239SOL     OW  715   0.190   0.646   2.105 -0.1688 -0.4285  0.5813
  239SOL    HW1  716   0.261   0.699   2.155  1.3232  1.6105  2.9277
  239SOL    HW2  717   0.179   0.559   2.160 -1.2699 -0.6566  0.3876
  240SOL     OW  718   2.259   2.528   0.569  0.1028  0.5273  0.0749
  240SOL    HW1  719   2.174   2.591   0.565 -1.0225  1.4437  0.1264
  240SOL    HW2  720   2.336   2.553   0.631 -3.0056 -1.7771 -0.9623
  241SOL     OW  721   1.628   1.112   1.302  0.2111  0.2704 -0.2968
  241SOL    HW1  722   1.527   1.109   1.306  0.3817 -0.1082  1.9241
  241SOL    HW2  723   1.668   1.042   1.368 -0.8071 -2.7105 -1.6584
  242SOL     OW  724   0.183   0.875   0.773 -0.1359 -0.8268 -0.1048
  242SOL    HW1  725   0.159   0.907   0.867  1.6593 -0.2284  1.5253
  242SOL    HW2  726   0.234   0.950   0.721  0.1482  1.4079  0.8270
  243SOL     OW  727   0.070   0.693   1.139  0.0682  0.2151 -0.1300
  243SOL    HW1  728   3.070   0.653   1.183 -1.6780 -0.8645  0.8608
  243SOL    HW2  729   0.140   0.620   1.136 -0.6012  0.0068 -0.0912
  244SOL     OW  730   0.868   0.538   3.038  0.2875 -0.4405 -0.0437
  244SOL    HW1  731   0.831   0.604   0.022 -1.1734  0.8905  1.0785
  244SOL    HW2  732   0.871   0.438   3.060  0.1010  1.6823  2.6240
  245SOL     OW  733   1.948   0.784   3.056  0.6870 -0.3233 -0.8344
  245SOL    HW1  734   2.046   0.793   0.003 -1.7324  2.4433 -1.2045
  245SOL    HW2  735   1.921   0.871   3.018 -1.3464 -0.9840  0.0096
  246SOL     OW  736   0.101   1.035   2.079  0.3897 -0.2538  0.9503
  246SOL    HW1  737   0.049   1.071   1.997 -1.4507 -0.2067 -3.7215
  246SOL    HW2  738   0.173   1.108   2.097  1.4176 -1.3307 -1.3095
  247SOL     OW  739   0.469   3.048   1.844 -1.1548 -0.0675  0.0228
  247SOL    HW1  740   0.379   3.025   1.874  1.8248 -0.1022  0.8068
  247SOL    HW2  741   0.537   2.993   1.895 -0.0163 -0.0151 -2.4034
  248SOL     OW  742   0.533   1.362   2.017  0.0680  0.2436 -0.1261
  248SOL    HW1  743   0.520   1.442   1.956  0.7112 -2.5838  0.1354
  248SOL    HW2  744   0.611   1.299   1.992  1.2522  0.9599 -0.0664
  249SOL     OW  745   0.441   0.373   2.773 -0.0710 -0.0734  0.1615
  249SOL    HW1  746   0.383   0.296   2.803 -2.2270 -0.7405 -0.9119
  249SOL    HW2  747   0.386   0.464   2.777 -2.5311  2.2658 -0.1567
  250SOL     OW  748   0.122   0.171   2.732 -0.1687 -0.3310  0.3800
  250SOL    HW1  749   0.057   0.103   2.772 -1.9968 -1.7064 -0.5765
  250SOL    HW2  750   0.124   0.162   2.633  0.5489  1.2420 -0.8918
  251SOL     OW  751   3.018   1.694   1.010 -0.0808 -0.1288 -0.1467
  251SOL    HW1  752   2.954   1.650   0.948  0.0817  3.4806  0.1465
  251SOL    HW2  753   3.045   1.787   0.981 -1.5863  1.2363 -1.7692
  252SOL     OW  754   1.597   2.477   2.140 -0.0854  0.3275 -0.0901
  252SOL    HW1  755   1.666   2.409   2.106 -0.3663 -1.9921 -2.7256
  252SOL    HW2  756   1.639   2.563   2.178  1.9692 -0.7463  0.8165
  253SOL     OW  757   1.535   1.743   2.921 -0.2120  0.7029  0.5561
  253SOL    HW1  758   1.512   1.767   2.827 -1.6731 -0.1905  1.1440
  253SOL    HW2  759   1.635   1.723   2.932 -1.4151  1.6799 -3.6561
  254SOL     OW  760   0.383   1.459   1.753  0.4283  0.3078  0.1870
  254SOL    HW1  761   0.301   1.404   1.732 -0.1012  0.6752  0.4716
  254SOL    HW2  762   0.363   1.537   1.814 -0.4512 -1.6250 -2.7878
  255SOL     OW  763   0.902   3.007   1.452  0.3205  0.2173 -0.1044
  255SOL    HW1  764   0.996   3.029   1.487 -0.2354  0.3364  0.2817
  255SOL    HW2  765   0.839   3.003   1.535 -1.8302  2.1690  3.8698
  256SOL     OW  766   3.021   2.494   0.919 -0.3772 -0.0422 -0.2151
  256SOL    HW1  767   3.033   2.490   1.017  2.9751 -1.5574 -0.2537
  256SOL    HW2  768   3.070   2.420   0.873 -0.1833  1.7147 -1.5188
  257SOL     OW  769   0.143   2.870   2.859 -0.5976 -0.5094  0.3896
  257SOL    HW1  770   0.219   2.925   2.893 -0.6610  2.5052 -0.5231
  257SOL    HW2  771   0.058   2.925   2.836  1.3170 -3.1052  1.5954
  258SOL     OW  772   1.018   2.231   1.920  0.5539  0.2348  0.0880
  258SOL    HW1  773   1.024   2.177   2.003 -1.3488  0.8555 -1.9663
  258SOL    HW2  774   1.055   2.325   1.933  0.9539 -0.5772 -1.4820
  259SOL     OW  775   1.094   1.890   2.456  0.4303  0.1258  0.1319
  259SOL    HW1  776   1.135   1.889   2.548 -2.3365 -1.9948 -0.6859
  259SOL    HW2  777   1.074   1.793   2.438 -1.1868 -0.7177 -0.7053
  260SOL     OW  778   2.282   0.666   2.401  0.4829 -0.4059 -0.3065
  260SOL    HW1  779   2.283   0.642   2.502 -0.5056 -0.4742 -0.2105
  260SOL    HW2  780   2.276   0.586   2.345  0.3841  3.1942  4.0466
  261SOL     OW  781   1.205   0.725   0.839  0.2385  0.9938  0.3168
  261SOL    HW1  782   1.222   0.624   0.829  0.2841 -0.2231 -1.6820
  261SOL    HW2  783   1.280   0.780   0.791 -0.4135 -1.2371  0.8299
  262SOL     OW  784   2.302   2.005   2.612 -0.0037  0.4953  0.3688
  262SOL    HW1  785   2.340   1.954   2.693  2.4970  3.0052 -0.7228
  262SOL    HW2  786   2.255   2.094   2.639 -0.2058  2.8073  0.7600
  263SOL     OW  787   0.608   2.367   0.845  0.2034 -0.2921  0.3813
  263SOL    HW1  788   0.538   2.423   0.897  0.6142  1.1705  1.5872
  263SOL    HW2  789   0.699   2.376   0.886  0.3222  1.1674  0.6148
  264SOL     OW  790   0.127   2.481   0.487 -0.7503 -0.1764  0.1654
  264SOL    HW1  791   0.107   2.445   0.393 -1.5856  1.1675 -0.5549
  264SOL    HW2  792   0.186   2.413   0.537  1.4082 -0.3508  1.1397
  265SOL     OW  793   0.644   1.235   0.119 -0.4495 -0.0955  0.2668
  265SOL    HW1  794   0.630   1.255   0.022 -0.5563 -0.3345  1.7376
  265SOL    HW2  795   0.742   1.217   0.144  1.6344  0.4934 -2.5157
  266SOL     OW  796   0.748   2.045   2.375  0.2402  0.2345  0.2590
  266SOL    HW1  797   0.847   2.030   2.388 -0.9458 -0.9329 -0.6136
  266SOL    HW2  798   0.686   1.978   2.425  0.9212  1.3715  1.9338
  267SOL     OW  799   1.647   0.640   2.331 -0.3854 -0.3235  0.1793
  267SOL    HW1  800   1.736   0.663   2.378 -0.8208  1.5637  0.8667
  267SOL    HW2  801   1.586   0.599   2.401 -1.2301  0.5994 -0.7725
  268SOL     OW  802   0.728   0.948   0.158  0.0152  0.4739  0.3437
  268SOL    HW1  803   0.777   1.037   0.163  1.7241  0.8879 -0.7395
  268SOL    HW2  804   0.690   0.933   0.253  4.1726 -0.7154 -0.8431
  269SOL     OW  805   2.474   1.738   2.304  0.3984  0.1738 -0.2501
  269SOL    HW1  806   2.556   1.760   2.362 -0.9571 -0.6598 -0.9792
  269SOL    HW2  807   2.483   1.798   2.220 -1.4013  0.1788 -0.2846
  270SOL     OW  808   1.197   1.967   0.080  0.0050  0.6781 -0.3395
  270SOL    HW1  809   1.130   1.890   0.079  1.4113 -0.5065 -1.1487
  270SOL    HW2  810   1.292   1.929   0.102 -1.0528  1.8680 -1.5833
  271SOL     OW  811   0.183   0.617   0.026  0.0560  0.1356  0.4513
  271SOL    HW1  812   0.260   0.678   3.078  1.2616  0.8296  1.2318
  271SOL    HW2  813   0.138   0.573   3.032 -0.1460 -0.4756  0.2966
  272SOL     OW  814   2.845   0.393   0.446  0.0768 -0.1602 -0.0626
  272SOL    HW1  815   2.849   0.325   0.520  1.1748 -0.7279 -1.2919
  272SOL    HW2  816   2.931   0.446   0.442  1.2429 -3.1515 -1.3398
  273SOL     OW  817   0.433   0.010   1.581  0.1017 -0.2067 -0.2524
  273SOL    HW1  818   0.461   0.005   1.675 -2.2110  1.4883 -2.9372
  273SOL    HW2  819   0.331   3.074   1.584 -1.9024 -1.4385 -1.3094
  274SOL     OW  820   2.726   0.337   1.429 -0.3474  0.1006 -0.2376
  274SOL    HW1  821   2.802   0.401   1.463  1.6001 -0.1395 -1.6315
  274SOL    HW2  822   2.638   0.343   1.477 -1.6642  1.4076  0.0007
  275SOL     OW  823   0.995   1.704   0.898  0.3014 -0.1153  0.3742
  275SOL    HW1  824   1.002   1.749   0.989 -1.0813 -0.2189  3.1434
  275SOL    HW2  825   0.956   1.608   0.907  0.5981  1.3255 -2.9005
  276SOL     OW  826   0.591   1.272   1.737 -0.0705  0.3146 -0.2272
  276SOL    HW1  827   0.519   1.342   1.757  0.3499  0.0512  3.1287
  276SOL    HW2  828   0.547   1.179   1.737  2.1977  0.8752  2.2382
  277SOL     OW  829   0.924   2.677   1.928  0.0315 -0.3500  0.3229
  277SOL    HW1  830   0.962   2.594   1.976  1.0695 -0.6988  1.8070
  277SOL    HW2  831   0.826   2.677   1.927  2.3274 -0.2716  1.8590
  278SOL     OW  832   2.066   2.805   2.053  0.0759  0.3093  0.0947
  278SOL    HW1  833   2.170   2.790   2.075  4.1211 -0.8984  0.2915
  278SOL    HW2  834   2.029   2.722   2.011 -0.9156  0.7542  2.1680
  279SOL     OW  835   1.744   1.422   0.077 -0.1994  0.4669 -0.3250
  279SOL    HW1  836   1.757   1.500   0.013 -0.2005  0.5125  2.6601
  279SOL    HW2  837   1.693   1.345   0.028 -1.0369 -1.7906  1.0416
  280SOL     OW  838   1.427   0.740   0.020 -0.3838  0.4218  0.0778
  280SOL    HW1  839   1.522   0.779   0.018 -1.7429 -2.4072  1.0887
  280SOL    HW2  840   1.426   0.640   0.007  1.7319  2.3385  0.6965
  281SOL     OW  841   0.458   0.440   1.482  0.3867 -0.2393 -0.1121
  281SOL    HW1  842   0.494   0.496   1.404  1.8154 -0.8979 -3.8777
  281SOL    HW2  843   0.365   0.467   1.516  0.6218 -0.2784  0.3576
  282SOL     OW  844   0.290   2.614   0.770 -0.1526  0.1789  0.4493
  282SOL    HW1  845   0.202   2.573   0.749 -0.1995  0.1749  1.1740
  282SOL    HW2  846   0.277   2.712   0.804 -2.1985  0.5099  0.6746
  283SOL     OW  847   1.279   2.057   1.994  0.1347 -0.0146 -0.5675
  283SOL    HW1  848   1.341   1.975   2.008  3.3472 -0.3742  0.3793
  283SOL    HW2  849   1.337   2.141   1.977  0.3948 -2.0334 -0.5754
  284SOL     OW  850   2.818   2.772   1.041 -0.6320  0.1536  0.1973
  284SOL    HW1  851   2.716   2.779   1.033 -0.5055  1.9164 -0.4963
  284SOL    HW2  852   2.857   2.682   1.027 -1.9859  1.4723  1.8792
  285SOL     OW  853   0.362   2.340   0.239 -0.0020  0.2642  0.2522
  285SOL    HW1  854   0.360   2.445   0.245  0.9421 -0.1677 -0.0073
  285SOL    HW2  855   0.454   2.316   0.277  1.3274  2.1269  1.6192
  286SOL     OW  856   0.463   2.989   1.076  0.6601  0.2802 -0.3566
  286SOL    HW1  857   0.523   3.072   1.092  2.9542  2.4237  1.2690
  286SOL    HW2  858   0.364   3.014   1.094 -1.0493  0.8394 -0.1373
  287SOL     OW  859   0.714   1.339   0.651 -0.4635 -0.1253 -0.1573
  287SOL    HW1  860   0.738   1.249   0.605  2.1627 -1.2940 -2.7093
  287SOL    HW2  861   0.698   1.410   0.581 -0.2618  0.7374 -0.5223
  288SOL     OW  862   1.927   1.821   2.869  0.0427 -0.4886  0.2635
  288SOL    HW1  863   1.997   1.792   2.805  0.3938  0.9787 -1.4753
  288SOL    HW2  864   1.968   1.880   2.941  1.8618 -2.7315  1.8799
  289SOL     OW  865   3.077   2.025   0.306  0.2109  0.1951  0.0339
  289SOL    HW1  866   3.048   2.048   0.215  2.0735  2.4426  0.8460
  289SOL    HW2  867   0.026   1.929   0.305  0.7937 -1.0819 -0.7385
  290SOL     OW  868   1.322   1.410   1.515 -0.1044  0.2420  0.1429
  290SOL    HW1  869   1.319   1.499   1.467 -0.9471 -2.2973 -0.1287
  290SOL    HW2  870   1.282   1.350   1.448 -1.2476  2.2791  3.9746
  291SOL     OW  871   1.011   1.398   2.935 -0.3466 -0.0795 -0.1467
  291SOL    HW1  872   1.050   1.485   2.910 -1.3300  0.0944  0.3060
  291SOL    HW2  873   0.987   1.342   2.859  3.4974  1.9579  2.9091
  292SOL     OW  874   1.083   1.338   0.337  0.2176 -0.5944  0.0834
  292SOL    HW1  875   1.070   1.353   0.439  0.6462  1.4655  3.1694
  292SOL    HW2  876   1.062   1.421   0.285 -1.6190 -1.6945  2.1055
  293SOL     OW  877   1.198   2.856   0.885  0.1989 -0.0246 -0.6832
  293SOL    HW1  878   1.096   2.861   0.868 -1.4902 -2.0951 -1.4300
  293SOL    HW2  879   1.243   2.909   0.807 -0.3711 -1.4873 -0.7224
  294SOL     OW  880   1.818   1.272   2.404  0.0508 -0.0653  0.6718
  294SOL    HW1  881   1.769   1.287   2.316  0.0105  0.2991  0.4583
  294SOL    HW2  882   1.776   1.192   2.450 -1.6634  1.9611  0.7674
  295SOL     OW  883   1.503   2.010   3.032  0.3570  0.1921  0.5137
  295SOL    HW1  884   1.525   1.924   2.983  1.2048 -0.2037  2.0451
  295SOL    HW2  885   1.504   2.095   2.977  0.7793  0.4768 -0.1161
  296SOL     OW  886   1.357   0.798   1.727 -0.0564 -0.0867  0.1753
  296SOL    HW1  887   1.315   0.722   1.680  0.3579 -1.0694  1.7458
  296SOL    HW2  888   1.313   0.890   1.702 -0.8580  0.4549  0.4849
  297SOL     OW  889   2.992   0.745   1.773  0.1931  0.7004  0.0938
  297SOL    HW1  890   2.912   0.803   1.800 -1.2177  0.8417  1.0973
  297SOL    HW2  891   3.065   0.801   1.732 -1.1687  1.4952 -1.9396
  298SOL     OW  892   1.310   1.629   1.319 -0.1349 -0.3062  0.1135
  298SOL    HW1  893   1.260   1.657   1.234  3.8907 -1.0612 -1.2617
  298SOL    HW2  894   1.356   1.711   1.361  0.9490  0.3239  1.4628
  299SOL     OW  895   1.215   3.003   2.584 -0.0815 -0.4417  0.1723
  299SOL    HW1  896   1.266   2.980   2.496  0.5239  1.4966  0.6704
  299SOL    HW2  897   1.131   2.947   2.591  1.1791 -0.9904  3.7533
  300SOL     OW  898   2.714   1.528   0.140 -0.5305  0.1210  0.2586
  300SOL    HW1  899   2.714   1.428   0.108  1.1441 -1.7382 -1.9541
  300SOL    HW2  900   2.620   1.566   0.133 -0.0179 -0.2925  0.2858
  301SOL     OW  901   1.870   0.660   2.453  0.0151  0.3143 -0.3105
  301SOL    HW1  902   1.920   0.574   2.469  1.2836  3.0602  1.0242
  301SOL    HW2  903   1.936   0.730   2.421 -0.5114 -0.8766 -1.3800
  302SOL     OW  904   2.613   2.099   2.607  0.6724 -0.0166  0.5016
  302SOL    HW1  905   2.662   2.079   2.518  0.6166  0.7101  1.2894
  302SOL    HW2  906   2.517   2.072   2.601  0.8277  1.2170  2.6335
  303SOL     OW  907   0.307   2.223   0.003 -0.3893 -0.0201  0.9070
  303SOL    HW1  908   0.353   2.239   0.096  1.4406 -2.7625  2.0251
  303SOL    HW2  909   0.236   2.297   3.078 -0.4570 -0.5716  0.1004
  304SOL     OW  910   0.383   1.827   1.210  0.4423  0.2013 -0.5264
  304SOL    HW1  911   0.324   1.808   1.289 -0.9561 -1.0166 -2.0522
  304SOL    HW2  912   0.465   1.774   1.219 -3.1269 -0.0942  0.3794
  305SOL     OW  913   2.665   0.746   1.804  0.2836  0.0769 -0.5397
  305SOL    HW1  914   2.708   0.683   1.876 -1.5285 -1.2533  0.9886
  305SOL    HW2  915   2.565   0.733   1.805  1.5746  1.7666 -0.8163
  306SOL     OW  916   1.786   1.458   1.080 -0.3204  0.0428 -0.1360
  306SOL    HW1  917   1.691   1.445   1.042 -2.2288 -0.0992  1.7930
  306SOL    HW2  918   1.782   1.448   1.182  0.7880  0.6935  1.1799
  307SOL     OW  919   3.062   0.444   0.956  0.1257 -0.2226  0.0963
  307SOL    HW1  920   0.049   0.385   0.909  3.3850 -1.8030 -1.3459
  307SOL    HW2  921   3.053   0.420   1.057 -0.0548 -2.0880  2.4159
  308SOL     OW  922   0.140   1.328   1.699 -0.0130 -0.1074  0.1186
  308SOL    HW1  923   0.104   1.302   1.610  2.8621 -1.7730 -2.5489
  308SOL    HW2  924   0.193   1.250   1.738 -2.1860 -0.4262 -2.0340
  309SOL     OW  925   2.747   2.016   2.043  0.4021 -0.9002 -0.3453
  309SOL    HW1  926   2.812   1.945   2.084  1.4486  0.0733 -0.1751
  309SOL    HW2  927   2.779   2.113   2.051  0.6730 -2.3969 -1.7014
  310SOL     OW  928   2.339   1.099   2.550  1.1409  0.5208  0.4678
  310SOL    HW1  929   2.417   1.038   2.551 -0.0901  0.3394 -1.9817
  310SOL    HW2  930   2.261   1.064   2.608 -2.1762 -0.5798  0.1756
  311SOL     OW  931   1.636   1.236   3.004 -0.3450  0.0270 -0.1225
  311SOL    HW1  932   1.541   1.246   3.034  0.2848  1.0463 -2.8192
  311SOL    HW2  933   1.661   1.138   2.998  0.6773 -2.2779 -1.4041
  312SOL     OW  934   1.411   2.234   2.657 -0.4192 -0.2516  0.0702
  312SOL    HW1  935   1.492   2.281   2.610  2.0686  0.8150 -2.3032
  312SOL    HW2  936   1.377   2.164   2.595  0.6323 -2.4052  5.2372
  313SOL     OW  937   0.350   0.447   0.775  0.6379  0.3443 -0.1990
  313SOL    HW1  938   0.403   0.437   0.683  1.3720 -0.8884 -1.6209
  313SOL    HW2  939   0.284   0.526   0.759  0.3837 -0.2263  0.3037
  314SOL     OW  940   0.817   1.995   1.227  0.2084 -0.2674  0.0717
  314SOL    HW1  941   0.834   2.089   1.260  1.4224  0.5562 -0.1794
  314SOL    HW2  942   0.900   1.949   1.191 -0.6602 -2.3722  2.2386
  315SOL     OW  943   0.637   2.284   2.308 -0.2013  0.2794 -0.0587
  315SOL    HW1  944   0.554   2.251   2.255 -3.6081 -2.4073  2.4377
  315SOL    HW2  945   0.695   2.202   2.336 -0.7805  1.0876  2.8158
  316SOL     OW  946   0.517   2.659   0.640 -0.1143 -0.4328 -0.2913
  316SOL    HW1  947   0.442   2.595   0.673 -1.9210  0.0185  0.6323
  316SOL    HW2  948   0.524   2.738   0.704 -0.2398 -0.3144 -2.2037
  317SOL     OW  949   2.583   3.056   1.213  1.0048 -0.1984  0.2656
  317SOL    HW1  950   2.553   0.027   1.129 -3.3549  1.4862 -1.4177
  317SOL    HW2  951   2.573   2.953   1.198  1.9689 -1.1291 -0.4816
  318SOL     OW  952   2.183   2.574   0.213  0.3242 -0.2480  0.3133
  318SOL    HW1  953   2.280   2.587   0.242 -1.0928  0.2569 -2.8556
  318SOL    HW2  954   2.119   2.573   0.288  2.0364  0.9922 -2.8880
  319SOL     OW  955   1.437   0.739   2.601 -0.2631 -0.1133 -0.3874
  319SOL    HW1  956   1.520   0.752   2.658  1.5035  0.6004 -1.1174
  319SOL    HW2  957   1.450   0.665   2.534 -0.9009 -1.0264  1.3793
  320SOL     OW  958   0.045   2.253   2.192  0.2676 -0.3226  0.2822
  320SOL    HW1  959   0.084   2.223   2.099  2.3455 -1.4133 -0.6724
  320SOL    HW2  960   0.030   2.353   2.193 -2.0701 -0.2111  1.2343
  321SOL     OW  961   0.630   2.545   0.235  0.3427  0.3623  0.3673
  321SOL    HW1  962   0.725   2.573   0.246 -1.9642 -1.1700  0.2202
  321SOL    HW2  963   0.596   2.561   0.139  0.8836  2.7756  0.5532
  322SOL     OW  964   2.585   0.561   2.698  0.3186 -0.4460  0.4395
  322SOL    HW1  965   2.612   0.462   2.677 -1.2710 -1.8634  1.1373
  322SOL    HW2  966   2.485   0.569   2.711 -1.6318 -1.5151 -0.3765
  323SOL     OW  967   2.405   1.035   0.860  0.0826  0.3051 -0.6706
  323SOL    HW1  968   2.480   1.048   0.927  1.5800 -0.5727 -0.6905
  323SOL    HW2  969   2.433   0.983   0.775 -0.2199 -1.7705 -2.3187
  324SOL     OW  970   2.977   0.377   1.240  0.3096  0.5475  0.0119
  324SOL    HW1  971   2.987   0.478   1.263 -1.7739  0.0190  0.0355
  324SOL    HW2  972   2.915   0.331   1.302  0.1915  1.3870 -1.3228
  325SOL     OW  973   0.086   2.999   1.783 -0.1214 -0.6954 -0.4647
  325SOL    HW1  974   3.085   3.021   1.828 -0.4896 -0.5102  0.7715
  325SOL    HW2  975   0.083   3.015   1.682 -0.9181  1.1034  1.4751
  326SOL     OW  976   1.977   2.816   0.164  0.1976 -0.2383 -0.1868
  326SOL    HW1  977   1.920   2.732   0.148  1.3404 -1.6617  0.4988
  326SOL    HW2  978   2.064   2.785   0.196 -1.0423  0.4714 -0.0002
  327SOL     OW  979   1.937   1.611   0.407  0.2159  0.7250  0.8752
  327SOL    HW1  980   1.936   1.713   0.420  1.2770 -1.1039 -0.4639
  327SOL    HW2  981   1.845   1.572   0.380 -0.7209 -0.7525 -0.8563
  328SOL     OW  982   0.038   2.292   2.739  0.0709 -0.3639  0.1865
  328SOL    HW1  983   3.047   2.295   2.808  0.2983  0.4459  0.0824
  328SOL    HW2  984   0.129   2.289   2.786 -0.1920  3.8718  0.7911
  329SOL     OW  985   0.200   2.218   1.459 -0.2358  0.3698  0.3787
  329SOL    HW1  986   0.285   2.244   1.408  1.5420 -0.4866  0.5206
  329SOL    HW2  987   0.219   2.174   1.548 -2.1643  1.6570  0.3410
  330SOL     OW  988   2.530   0.818   2.831  0.1934  0.2939  0.0375
  330SOL    HW1  989   2.567   0.741   2.779 -1.8980  0.3111  0.2624
  330SOL    HW2  990   2.474   0.875   2.761  1.2360 -1.1136 -2.4244
  331SOL     OW  991   2.481   2.291   0.950  0.3494 -0.0434 -0.3023
  331SOL    HW1  992   2.530   2.272   1.039  1.1655  0.7871  2.4928
  331SOL    HW2  993   2.427   2.214   0.925  1.3414 -0.3872  0.0632
  332SOL     OW  994   0.534   2.847   0.834  0.6289 -0.5327 -0.2922
  332SOL    HW1  995   0.619   2.861   0.783  0.5078  0.6941 -0.8424
  332SOL    HW2  996   0.527   2.891   0.926  0.0832  1.4241 -1.0707
  333SOL     OW  997   2.215   1.839   2.384  0.1968 -0.3367  0.5626
  333SOL    HW1  998   2.191   1.851   2.479 -0.5379 -1.8012 -3.4003
  333SOL    HW2  999   2.311   1.811   2.375  0.6688  2.5229 -1.9053
  334SOL     OW 1000   0.461   1.331   0.751 -0.1658 -0.0994  0.4938
  334SOL    HW1 1001   0.431   1.428   0.728 -0.5343 -0.3417 -1.6530
  334SOL    HW2 1002   0.553   1.313   0.712 -4.0233 -1.8175  0.7429
  335SOL     OW 1003   3.002   2.059   2.323 -0.0847 -0.6277 -0.0854
  335SOL    HW1 1004   3.055   2.139   2.288 -0.5647  1.3134  1.5145
  335SOL    HW2 1005   3.032   2.030   2.415 -0.0491  3.3808 -1.5911
  336SOL     OW 1006   2.324   2.711   2.054 -0.2910 -0.2397 -0.3442
  336SOL    HW1 1007   2.391   2.633   2.050 -1.6950 -0.1209 -0.0967
  336SOL    HW2 1008   2.355   2.784   1.990 -0.6158 -0.5106  0.9329
  337SOL     OW 1009   0.672   0.987   0.705 -0.0447 -0.0918 -0.1367
  337SOL    HW1 1010   0.589   0.936   0.733 -1.3212 -1.7218 -1.3048
  337SOL    HW2 1011   0.743   0.998   0.777  2.9493  0.8909  0.9431
  338SOL     OW 1012   1.438   1.940   1.184 -0.1360  0.3015 -0.7142
  338SOL    HW1 1013   1.538   1.934   1.155  1.7003 -0.8756 -2.3679
  338SOL    HW2 1014   1.406   2.029   1.149  1.3687 -0.8721 -0.8945
  339SOL     OW 1015   0.179   1.846   1.402  0.2597 -0.1804  0.1325
  339SOL    HW1 1016   0.171   1.834   1.500  1.5546  0.8580 -0.2885
  339SOL    HW2 1017   0.126   1.924   1.361 -0.0550  3.1994  1.2833
  340SOL     OW 1018   0.961   2.980   1.878 -0.4560 -0.2796 -0.0063
  340SOL    HW1 1019   0.995   3.077   1.875  0.1767  4.9450 -0.2201
  340SOL    HW2 1020   1.034   2.914   1.859  0.8243  1.4621  1.1375
  341SOL     OW 1021   1.584   1.683   1.268 -0.3023  0.6540  0.4261
  341SOL    HW1 1022   1.513   1.616   1.225 -1.6205 -2.6371  0.7191
  341SOL    HW2 1023   1.611   1.748   1.198  1.4786 -0.8619  0.4443
  342SOL     OW 1024   2.451   1.490   0.921  0.2598 -0.5471 -0.1130
  342SOL    HW1 1025   2.528   1.436   0.971  2.5733 -1.9346  2.1258
  342SOL    HW2 1026   2.359   1.474   0.971 -1.3870 -0.6431 -1.6855
  343SOL     OW 1027   2.115   0.102   0.719 -0.0312 -0.3563 -0.6313
  343SOL    HW1 1028   2.169   0.175   0.759  0.3254  1.3346 -2.3434
  343SOL    HW2 1029   2.139   0.013   0.765 -0.3486 -0.1961 -1.4108
  344SOL     OW 1030   2.136   0.126   0.290  0.4676 -0.1476  0.1321
  344SOL    HW1 1031   2.134   0.206   0.350  0.6335  1.6365 -1.8252
  344SOL    HW2 1032   2.230   0.092   0.306  1.8977  2.7967  2.1680
  345SOL     OW 1033   0.767   3.016   1.710 -0.3086 -0.2515  0.3269
  345SOL    HW1 1034   0.700   0.002   1.735  0.9215  0.0302  1.5220
  345SOL    HW2 1035   0.838   3.001   1.783  0.6229 -0.4794 -0.0796
  346SOL     OW 1036   2.581   2.047   0.728 -0.0154  0.6665 -0.0255
  346SOL    HW1 1037   2.633   1.986   0.795  2.1464 -0.9584  1.2616
  346SOL    HW2 1038   2.486   2.067   0.761  0.4962 -0.3711 -0.6229
  347SOL     OW 1039   2.405   2.815   1.377 -0.0678  0.1129  0.3989
  347SOL    HW1 1040   2.462   2.785   1.298  3.2645  1.2011  1.0289
  347SOL    HW2 1041   2.348   2.895   1.359  0.5693 -1.6213  1.2635
  348SOL     OW 1042   1.000   0.975   1.555  0.0046 -0.8223  0.1319
  348SOL    HW1 1043   0.912   1.027   1.553 -1.3852  1.3021 -1.2623
  348SOL    HW2 1044   1.019   0.920   1.473  0.7081 -0.9599  0.3280
  349SOL     OW 1045   2.291   0.560   2.654 -0.4995  0.6742  0.0909
  349SOL    HW1 1046   2.283   0.457   2.643 -0.3738 -1.0768  1.4692
  349SOL    HW2 1047   2.227   0.597   2.725 -2.0885 -1.1623  0.5413
  350SOL     OW 1048   2.072   2.250   0.152  0.5554 -0.0905  0.3170
  350SOL    HW1 1049   2.038   2.312   0.228 -0.7005  0.2207  0.7534
  350SOL    HW2 1050   2.161   2.216   0.185 -1.3210 -0.7710 -0.2640
  351SOL     OW 1051   1.229   0.445   0.246  0.2415  1.0015 -0.3448
  351SOL    HW1 1052   1.273   0.445   0.155 -0.7184 -0.0628 -0.5697
  351SOL    HW2 1053   1.271   0.517   0.305  0.3807  1.1679  1.2421
  352SOL     OW 1054   1.851   2.163   2.437 -0.3641 -0.2719  0.1071
  352SOL    HW1 1055   1.874   2.097   2.511 -0.4872 -2.9156 -1.5053
  352SOL    HW2 1056   1.866   2.259   2.467  2.7728 -1.0690  1.3185
  353SOL     OW 1057   0.413   1.303   2.524  0.2853  0.2130 -0.8750
  353SOL    HW1 1058   0.310   1.309   2.506 -2.5344 -1.3716 -1.0698
  353SOL    HW2 1059   0.467   1.333   2.443 -0.1518  1.3319 -1.2032
  354SOL     OW 1060   0.453   2.682   2.574 -0.5886 -0.0950  0.1959
  354SOL    HW1 1061   0.531   2.726   2.523  0.8288 -1.2630  2.0138
  354SOL    HW2 1062   0.483   2.595   2.626  1.8845 -3.2483 -1.9391
  355SOL     OW 1063   2.335   2.579   1.504 -0.2822  0.0775  0.5787
  355SOL    HW1 1064   2.358   2.648   1.436 -0.7563 -0.4514 -0.8450
  355SOL    HW2 1065   2.319   2.628   1.588 -0.9297 -3.8699 -1.9814
  356SOL     OW 1066   2.927   0.920   0.852 -0.1325 -0.5314 -0.0949
  356SOL    HW1 1067   2.846   0.978   0.862 -1.3517  0.7150 -1.7071
  356SOL    HW2 1068   2.894   0.836   0.804  1.0213 -0.3455 -1.7784
  357SOL     OW 1069   3.070   0.147   1.432 -0.4155  0.2536 -0.4145
  357SOL    HW1 1070   3.027   0.194   1.513 -1.0952 -1.8344  0.1471
  357SOL    HW2 1071   3.001   0.125   1.361  1.3987 -0.4491  1.2956
  358SOL     OW 1072   2.851   1.573   1.613  0.2119  0.1611  0.1620
  358SOL    HW1 1073   2.840   1.591   1.712  2.0205 -0.5364 -0.2030
  358SOL    HW2 1074   2.948   1.548   1.593  0.6283 -1.7681  1.0745
  359SOL     OW 1075   2.708   2.625   2.353 -0.2028 -0.1332 -0.0221
  359SOL    HW1 1076   2.724   2.566   2.435 -2.6391 -0.3846  1.1804
  359SOL    HW2 1077   2.721   2.579   2.263 -1.9571 -0.0965  1.7198
  360SOL     OW 1078   1.078   0.532   1.297 -0.3666 -0.2852 -1.0372
  360SOL    HW1 1079   1.057   0.440   1.261 -2.2966  0.4493 -0.5263
  360SOL    HW2 1080   1.163   0.530   1.348 -1.8353 -1.8024  0.3445
  361SOL     OW 1081   2.337   2.513   1.090 -0.1361 -0.2904 -0.1776
  361SOL    HW1 1082   2.358   2.434   1.028  1.6612 -0.5982 -0.1770
  361SOL    HW2 1083   2.294   2.486   1.180 -1.0844  0.1051 -2.0208
  362SOL     OW 1084   1.242   0.219   0.581 -0.1975 -0.4592 -0.2221
  362SOL    HW1 1085   1.198   0.314   0.577  0.6206  1.5257 -0.5625
  362SOL    HW2 1086   1.214   0.178   0.671 -1.4587  2.7002  2.6764
  363SOL     OW 1087   1.616   1.327   0.901 -0.0578  0.1211  0.0207
  363SOL    HW1 1088   1.672   1.375   0.827  2.6958  2.6070 -2.2183
  363SOL    HW2 1089   1.547   1.394   0.936  0.5883 -2.8200 -0.4536
  364SOL     OW 1090   0.305   0.810   1.518 -0.1018  0.1952 -0.1384
  364SOL    HW1 1091   0.396   0.786   1.552 -0.8669 -1.3026 -0.0183
  364SOL    HW2 1092   0.304   0.837   1.420 -2.0832  1.2034 -0.5440
  365SOL     OW 1093   2.622   0.481   0.859  0.5538 -0.0014 -0.1474
  365SOL    HW1 1094   2.720   0.453   0.842 -0.4912  0.2730 -1.0233
  365SOL    HW2 1095   2.595   0.443   0.949 -2.5211 -1.5398  4.7571
  366SOL     OW 1096   2.831   1.574   0.857 -0.0587  0.2387 -0.2338
  366SOL    HW1 1097   2.816   1.658   0.799 -0.9155  1.1627  0.2845
  366SOL    HW2 1098   2.763   1.503   0.833  2.1267 -2.1730 -1.4471
  367SOL     OW 1099   2.132   1.970   2.164  0.4495  0.5774  0.7731
  367SOL    HW1 1100   2.029   1.994   2.151 -5.8695 -1.3810 -0.2568
  367SOL    HW2 1101   2.147   1.915   2.249  2.7497 -0.5360 -2.8620
  368SOL     OW 1102   2.536   2.118   1.378 -0.1932 -0.4397  0.0826
  368SOL    HW1 1103   2.580   2.151   1.467 -0.7994  0.1555 -1.1761
  368SOL    HW2 1104   2.543   2.015   1.381  1.1772 -0.2451 -0.4998
  369SOL     OW 1105   2.431   2.725   2.750 -0.3632 -0.0675  0.0904
  369SOL    HW1 1106   2.478   2.728   2.656  2.3200  1.7195 -1.7716
  369SOL    HW2 1107   2.483   2.793   2.811  2.0199 -0.3772  2.0296
  370SOL     OW 1108   0.779   0.531   1.112 -0.3519 -0.1492  0.0473
  370SOL    HW1 1109   0.721   0.484   1.044 -1.4964  1.2163 -2.0627
  370SOL    HW2 1110   0.771   0.493   1.205 -0.6211 -1.5625 -0.9626
  371SOL     OW 1111   0.591   1.525   0.444  0.2803  0.0070  0.3019
  371SOL    HW1 1112   0.641   1.608   0.414  1.3347  0.1831 -0.3541
  371SOL    HW2 1113   0.535   1.549   0.524  0.2375 -0.2628 -0.5004
  372SOL     OW 1114   0.576   1.101   2.642  0.2710 -0.2443 -0.3651
  372SOL    HW1 1115   0.671   1.115   2.606  0.0121 -2.2837  0.5046
  372SOL    HW2 1116   0.512   1.170   2.598 -0.5231 -0.8566 -1.1569
  373SOL     OW 1117   1.140   2.640   2.710  0.2846 -0.1534  0.4145
  373SOL    HW1 1118   1.071   2.712   2.705  0.7691 -1.1892 -2.1846
  373SOL    HW2 1119   1.221   2.670   2.759 -3.7003 -2.0629 -0.2974
  374SOL     OW 1120   0.872   1.939   0.511 -0.1396  0.5021  0.4385
  374SOL    HW1 1121   0.854   1.887   0.597  1.0289 -0.9934  0.8544
  374SOL    HW2 1122   0.963   1.907   0.477  2.2057 -0.3605  2.2715
  375SOL     OW 1123   0.763   0.619   1.731  0.3568 -0.5593 -0.0258
  375SOL    HW1 1124   0.777   0.533   1.782 -0.0658  0.7401 -1.0925
  375SOL    HW2 1125   0.838   0.685   1.746 -1.2157 -0.5559  2.6075
  376SOL     OW 1126   0.132   2.482   1.403  0.1607  0.0529 -0.0483
  376SOL    HW1 1127   0.145   2.383   1.425 -0.5940 -1.8112 -1.6883
  376SOL    HW2 1128   0.223   2.517   1.371  0.2157  0.0191  3.6983
  377SOL     OW 1129   3.020   1.618   2.897  0.5217  0.0785 -0.7936
  377SOL    HW1 1130   0.032   1.606   2.891 -0.6412 -0.3421  0.0602
  377SOL    HW2 1131   2.982   1.528   2.921 -1.3224  0.6011 -3.1146
  378SOL     OW 1132   1.755   2.900   2.946  0.0378 -0.2469  0.0462
  378SOL    HW1 1133   1.683   2.916   3.017 -0.3308 -1.1829 -1.3524
  378SOL    HW2 1134   1.837   2.954   2.966 -2.8951 -3.2204 -1.0195
  379SOL     OW 1135   1.808   0.579   0.513 -0.1546  0.0502 -0.3621
  379SOL    HW1 1136   1.805   0.504   0.582  1.7934 -0.6452  1.2777
  379SOL    HW2 1137   1.881   0.652   0.540  3.2753  0.0372  1.5321
  380SOL     OW 1138   0.105   1.823   1.674 -0.2145  0.0725  0.6552
  380SOL    HW1 1139   0.030   1.891   1.664  0.1575 -0.9328 -1.5223
  380SOL    HW2 1140   0.164   1.848   1.755  3.5647 -2.3149 -0.4120
  381SOL     OW 1141   2.276   1.360   2.589  0.3853 -0.5389  0.0526
  381SOL    HW1 1142   2.338   1.424   2.539  1.0908  1.1126 -0.2043
  381SOL    HW2 1143   2.308   1.267   2.588 -1.3610  1.4777 -0.7985
  382SOL     OW 1144   3.037   3.040   2.813 -0.1583 -0.2298 -0.2755
  382SOL    HW1 1145   2.965   3.059   2.883  0.7381 -0.2854 -0.0236
  382SOL    HW2 1146   3.003   3.049   2.720  5.1834 -0.2803  2.3887
  383SOL     OW 1147   1.352   1.277   3.075  0.5350 -0.1291  0.3534
  383SOL    HW1 1148   1.320   1.364   3.028  0.5290  0.0281 -2.9384
  383SOL    HW2 1149   1.293   1.202   3.040  3.7662 -2.8667  0.8926
  384SOL     OW 1150   1.182   2.047   1.300 -0.0569  0.0736 -0.1939
  384SOL    HW1 1151   1.247   1.994   1.364  0.9738 -0.7877  0.9820
  384SOL    HW2 1152   1.197   2.145   1.324 -0.3984 -0.4436  1.3540
  385SOL     OW 1153   1.878   2.840   0.927 -0.5340 -0.0491  0.2682
  385SOL    HW1 1154   1.852   2.939   0.962  1.2459  2.1549  0.7236
  385SOL    HW2 1155   1.793   2.784   0.937 -0.4126  1.0412 -2.0103
  386SOL     OW 1156   1.594   1.659   0.781 -0.0976 -0.3626 -0.9867
  386SOL    HW1 1157   1.561   1.695   0.691 -0.2563  0.4472 -0.6033
  386SOL    HW2 1158   1.654   1.574   0.766  1.0284  0.4928 -0.6173
  387SOL     OW 1159   2.624   2.261   1.166 -0.1318  0.4795  0.1095
  387SOL    HW1 1160   2.727   2.262   1.161  1.2942  1.2130  1.7716
  387SOL    HW2 1161   2.589   2.213   1.251 -3.0240 -0.7119  0.9527
  388SOL     OW 1162   2.928   1.008   1.569 -0.3038 -0.0791  0.0243
  388SOL    HW1 1163   2.937   1.007   1.466  3.0958  4.2343 -0.5731
  388SOL    HW2 1164   3.009   0.967   1.616 -0.1566 -0.4984  1.1745
  389SOL     OW 1165   2.023   0.429   0.070  0.3480 -0.4626 -0.1318
  389SOL    HW1 1166   2.112   0.464   0.105 -1.6501  0.8904  0.0977
  389SOL    HW2 1167   1.949   0.465   0.135 -0.8443 -2.7172  0.0804
  390SOL     OW 1168   1.471   1.811   2.675 -0.2876  0.3833 -0.0190
  390SOL    HW1 1169   1.480   1.888   2.610 -1.2981  1.4272  3.8944
  390SOL    HW2 1170   1.457   1.722   2.626 -0.3947 -1.9127  1.2723
  391SOL     OW 1171   1.187   2.216   0.243 -0.0269  0.6288  0.0472
  391SOL    HW1 1172   1.241   2.181   0.322 -0.6624 -0.1367  1.1992
  391SOL    HW2 1173   1.149   2.138   0.189 -0.4499 -1.2956  0.3363
  392SOL     OW 1174   0.280   2.550   1.764 -0.4615 -0.0854  0.3804
  392SOL    HW1 1175   0.287   2.485   1.844  0.6399 -0.2285 -4.6823
  392SOL    HW2 1176   0.369   2.561   1.714 -0.3651  0.0958 -1.3719
  393SOL     OW 1177   1.318   2.410   0.137 -0.5422  0.4147 -0.0271
  393SOL    HW1 1178   1.274   2.327   0.180 -0.9036 -1.9767 -0.5845
  393SOL    HW2 1179   1.403   2.388   0.090 -1.1463  1.6601  4.2118
  394SOL     OW 1180   0.371   0.772   2.253  0.3772 -0.1402  0.3113
  394SOL    HW1 1181   0.316   0.829   2.315 -0.9945  1.4462  1.3861
  394SOL    HW2 1182   0.422   0.703   2.305  0.8431  0.2382  0.0766
  395SOL     OW 1183   0.445   1.279   1.021  0.4425 -0.6001  0.0699
  395SOL    HW1 1184   0.460   1.280   0.917 -1.2555 -1.1662  0.3226
  395SOL    HW2 1185   0.349   1.252   1.046 -0.4365 -0.3377 -0.2945
  396SOL     OW 1186   1.803   1.052   2.108 -0.0244 -0.5562  0.0574
  396SOL    HW1 1187   1.727   0.982   2.111  0.6800 -1.5538  3.0894
  396SOL    HW2 1188   1.769   1.143   2.149  0.4098  1.3414  3.6299
  397SOL     OW 1189   0.849   0.278   0.064 -0.5976  0.2533  0.4877
  397SOL    HW1 1190   0.781   0.209   0.023  1.3422 -1.4167 -3.1273
  397SOL    HW2 1191   0.841   0.280   0.167 -2.7690  0.1636  2.0889
  398SOL     OW 1192   0.732   2.413   2.778 -0.1901 -0.3863  0.2765
  398SOL    HW1 1193   0.786   2.362   2.713  3.1594  2.2476  0.2498
  398SOL    HW2 1194   0.736   2.382   2.872  1.7892  2.0467 -2.0969
  399SOL     OW 1195   1.751   1.780   2.504  0.1337 -0.3127 -0.5002
  399SOL    HW1 1196   1.707   1.696   2.546  0.6689  0.8724  3.9587
  399SOL    HW2 1197   1.834   1.756   2.451  0.8069 -0.4467  0.1576
  400SOL     OW 1198   2.136   1.578   1.375  0.5674 -0.5141 -0.2836
  400SOL    HW1 1199   2.033   1.592   1.377 -3.1169 -0.5704  0.2443
  400SOL    HW2 1200   2.160   1.490   1.328  0.5415 -1.0299  2.9937
  401SOL     OW 1201   1.316   1.292   1.104  0.3056 -0.2251  0.1797
  401SOL    HW1 1202   1.304   1.249   1.197  1.1683  2.1212 -0.3217
  401SOL    HW2 1203   1.325   1.236   1.023 -0.9697  0.0653  0.7017
  402SOL     OW 1204   3.041   2.448   1.831 -0.1912  0.8667 -0.0392
  402SOL    HW1 1205   3.027   2.436   1.731  0.9772  1.3829 -4.2743
  402SOL    HW2 1206   3.079   2.540   1.855  0.4234  0.9375 -0.5157
  403SOL     OW 1207   0.035   1.574   1.757 -0.6139 -0.1813 -0.0755
  403SOL    HW1 1208   0.067   1.666   1.722 -0.8429  0.2604 -2.3348
  403SOL    HW2 1209   0.077   1.486   1.721 -1.7236 -3.3514  0.1206
  404SOL     OW 1210   2.043   2.046   1.480 -0.0810 -0.2506 -0.3881
  404SOL    HW1 1211   2.035   2.061   1.579 -1.4003 -1.2074  0.8804
  404SOL    HW2 1212   2.135   2.076   1.449  0.9130  1.9074  0.2934
  405SOL     OW 1213   2.614   0.232   2.875 -0.7123 -0.1102  0.1791
  405SOL    HW1 1214   2.580   0.326   2.900  2.2878 -2.3754  0.3763
  405SOL    HW2 1215   2.640   0.230   2.776  0.2563  0.6260 -1.4767
  406SOL     OW 1216   1.023   1.448   2.596 -0.1888 -0.0201  0.0889
  406SOL    HW1 1217   0.970   1.448   2.510 -0.9312 -1.1699  0.5522
  406SOL    HW2 1218   0.983   1.376   2.663  1.6974 -0.1902  2.0815
  407SOL     OW 1219   1.852   2.593   0.076  0.0596  0.0979 -0.1062
  407SOL    HW1 1220   1.884   2.496   0.082  1.3668  1.0402 -2.8106
  407SOL    HW2 1221   1.752   2.596   0.055 -1.5204  1.3794 -0.7536
  408SOL     OW 1222   0.441   0.112   0.740  0.0428  0.4854 -0.0104
  408SOL    HW1 1223   0.391   0.095   0.652 -3.9724  0.5814  0.0524
  408SOL    HW2 1224   0.388   0.086   0.824  1.3386  0.8129 -0.8973
  409SOL     OW 1225   2.450   1.938   1.008  0.3124 -0.2099  0.2576
  409SOL    HW1 1226   2.389   1.919   0.928 -1.7800  0.1590 -1.2562
  409SOL    HW2 1227   2.471   1.857   1.065 -2.2527  1.0054 -2.8703
  410SOL     OW 1228   2.463   2.112   3.045 -0.4248  0.4905  0.3886
  410SOL    HW1 1229   2.435   2.047   2.976  0.2502 -1.4707 -1.2564
  410SOL    HW2 1230   2.546   2.147   3.015 -3.9056 -2.9975  0.5499
  411SOL     OW 1231   3.082   0.954   0.561  0.5712  0.5515  0.2176
  411SOL    HW1 1232   0.064   0.910   0.624  0.0401  1.3164 -1.1070
  411SOL    HW2 1233   3.075   1.054   0.572 -0.0932 -2.6855  1.1210
  412SOL     OW 1234   1.617   2.646   0.307  0.1766  0.0320 -0.6165
  412SOL    HW1 1235   1.621   2.747   0.325  3.0475  0.2717  0.0172
  412SOL    HW2 1236   1.611   2.636   0.207  0.5951  0.4220 -0.1984
  413SOL     OW 1237   2.128   0.195   2.200  0.1077 -1.0131  0.1403
  413SOL    HW1 1238   2.077   0.201   2.113 -1.2064  0.6704  1.9650
  413SOL    HW2 1239   2.079   0.146   2.276  0.0855  2.0878  0.1629
  414SOL     OW 1240   0.067   0.225   0.594 -0.8038  0.4048  0.3273
  414SOL    HW1 1241   0.060   0.321   0.549  1.4917  0.7007 -1.7633
  414SOL    HW2 1242   3.059   0.192   0.618  0.6890 -0.9723  2.5132
  415SOL     OW 1243   0.823   1.647   1.514  0.2372  0.2424 -0.1523
  415SOL    HW1 1244   0.780   1.730   1.554  0.1422  0.9381 -2.6188
  415SOL    HW2 1245   0.758   1.566   1.517  0.9508 -2.2648  2.3595
  416SOL     OW 1246   0.562   0.116   0.447  0.2344  0.9835 -0.4508
  416SOL    HW1 1247   0.525   0.134   0.356 -2.9136 -2.8008  2.2728
  416SOL    HW2 1248   0.488   0.066   0.493  1.4685  1.0454 -0.2830
  417SOL     OW 1249   2.555   2.794   1.148  0.6194 -0.3474 -0.8469
  417SOL    HW1 1250   2.572   2.692   1.139 -1.0178  1.3985 -0.8271
  417SOL    HW2 1251   2.494   2.827   1.079 -1.2183 -1.3022  0.3603
  418SOL     OW 1252   0.746   0.673   2.635 -0.0910 -0.1675  0.0689
  418SOL    HW1 1253   0.843   0.708   2.638 -2.9230 -0.9487 -0.9846
  418SOL    HW2 1254   0.729   0.585   2.685  0.0348 -3.3165 -1.9447
  419SOL     OW 1255   0.115   1.508   1.077  0.2078  0.3911  0.0019
  419SOL    HW1 1256   0.074   1.420   1.112  0.5007 -1.3456 -2.7052
  419SOL    HW2 1257   0.047   1.578   1.046 -0.3758 -0.2079  0.8120
  420SOL     OW 1258   1.511   1.994   0.814  0.1913 -0.4238 -0.0460
  420SOL    HW1 1259   1.461   2.042   0.887  0.8192  0.5336 -0.2693
  420SOL    HW2 1260   1.449   1.924   0.770 -2.2852  0.9040  0.1209
  421SOL     OW 1261   1.742   1.886   2.006 -0.3042  0.7985  0.4629
  421SOL    HW1 1262   1.748   1.876   1.905 -1.0192  2.7231 -0.7606
  421SOL    HW2 1263   1.734   1.795   2.050  0.6522  0.9581  1.7577
  422SOL     OW 1264   2.918   0.633   2.978 -0.2971  0.4177  0.1127
  422SOL    HW1 1265   2.842   0.703   2.973  1.2303 -0.1659  1.3991
  422SOL    HW2 1266   2.942   0.619   3.077 -2.7053  0.9148  0.0744
  423SOL     OW 1267   1.346   2.138   0.985  0.5140  0.1344 -0.1744
  423SOL    HW1 1268   1.246   2.122   0.966  0.6283  1.6591  0.6540
  423SOL    HW2 1269   1.359   2.234   1.022  1.7100  2.3065 -0.2675
  424SOL     OW 1270   0.667   1.424   1.508  0.3804  0.1971  0.2077
  424SOL    HW1 1271   0.572   1.449   1.480  0.3456 -1.2350 -0.5616
  424SOL    HW2 1272   0.665   1.384   1.603  1.2381  0.6554  0.0832
  425SOL     OW 1273   2.894   2.592   2.096 -0.2149 -1.0137  0.0742
  425SOL    HW1 1274   2.835   2.672   2.084 -1.0620 -1.1218 -3.0469
  425SOL    HW2 1275   2.911   2.543   2.008  1.0864  1.5188 -1.4023
  426SOL     OW 1276   1.900   2.821   0.630 -1.0294 -0.2097 -0.2537
  426SOL    HW1 1277   1.875   2.841   0.724 -2.4751  2.0486 -3.1084
  426SOL    HW2 1278   1.922   2.908   0.585 -0.7415  0.8815 -1.7658
  427SOL     OW 1279   0.577   0.895   2.791 -0.0809 -0.0194  0.5031
  427SOL    HW1 1280   0.581   0.965   2.716  1.5230 -1.5891  2.5756
  427SOL    HW2 1281   0.606   0.809   2.745 -2.0672 -0.3279  1.2828
  428SOL     OW 1282   2.124   1.219   0.248  0.1937  0.3288 -0.3743
  428SOL    HW1 1283   2.038   1.231   0.193 -1.5452  1.2772  0.3588
  428SOL    HW2 1284   2.141   1.121   0.264 -2.2947  3.2506  0.6891
  429SOL     OW 1285   0.023   0.166   0.271 -0.1816 -0.2762 -0.2712
  429SOL    HW1 1286   0.101   0.213   0.310 -1.2911 -2.6737 -2.0479
  429SOL    HW2 1287   3.064   0.112   0.343  3.6799 -0.6083  1.0250
  430SOL     OW 1288   0.489   2.906   2.292  0.0230 -0.4020  0.1679
  430SOL    HW1 1289   0.557   2.973   2.324 -0.5538 -0.2030 -1.1590
  430SOL    HW2 1290   0.395   2.928   2.326 -0.8064 -0.9575 -0.1994
  431SOL     OW 1291   2.505   1.118   1.334 -0.2904 -0.3962 -0.0687
  431SOL    HW1 1292   2.447   1.203   1.361  2.0257  2.2200  1.6986
  431SOL    HW2 1293   2.575   1.109   1.404 -3.1122 -0.3140 -0.7171
  432SOL     OW 1294   1.892   2.329   2.033 -0.4351  0.2215  0.3587
  432SOL    HW1 1295   1.985   2.322   1.984  1.0417 -0.7698 -1.1471
  432SOL    HW2 1296   1.862   2.242   2.076 -2.7356 -0.8958  1.3439
  433SOL     OW 1297   1.088   1.832   0.399  0.2049  0.4875 -0.0205
  433SOL    HW1 1298   1.118   1.736   0.382 -1.7325  1.2180 -4.1593
  433SOL    HW2 1299   1.161   1.891   0.367 -0.8307 -1.0076  0.0471
  434SOL     OW 1300   0.330   2.167   2.560  0.1112  0.6107 -0.1221
  434SOL    HW1 1301   0.333   2.189   2.661  0.9986  0.2508 -1.2945
  434SOL    HW2 1302   0.360   2.250   2.502  1.6896 -2.2041  1.4205
  435SOL     OW 1303   0.495   0.667   0.363 -0.1655 -0.0656  0.2502
  435SOL    HW1 1304   0.555   0.627   0.288  1.4476  2.6087 -0.1274
  435SOL    HW2 1305   0.528   0.761   0.383  0.8997 -1.9251 -0.1440
  436SOL     OW 1306   0.183   2.795   1.346  0.2944  0.4425  0.1403
  436SOL    HW1 1307   0.236   2.720   1.385  0.9069  0.3864  0.8626
  436SOL    HW2 1308   0.088   2.766   1.325  0.6671 -0.9955  0.0283
  437SOL     OW 1309   1.368   1.987   1.507 -0.0436 -0.4824  0.3368
  437SOL    HW1 1310   1.326   1.994   1.602  0.8470 -0.5989  0.2291
  437SOL    HW2 1311   1.428   2.068   1.488 -0.9802  2.9733  1.4941
  438SOL     OW 1312   0.068   1.844   0.655  0.3090  0.2388 -0.3579
  438SOL    HW1 1313   0.095   1.866   0.751 -0.5143 -1.7770 -0.3793
  438SOL    HW2 1314   0.149   1.869   0.602  0.4199 -1.2991 -1.9526
  439SOL     OW 1315   0.252   0.490   1.204  0.2597  0.3549  0.2085
  439SOL    HW1 1316   0.211   0.433   1.276  0.7845  3.5425 -2.9790
  439SOL    HW2 1317   0.313   0.427   1.149 -1.2004 -0.1462  0.6836
  440SOL     OW 1318   0.020   2.929   2.320  0.2727 -0.0579 -0.2241
  440SOL    HW1 1319   0.106   2.910   2.374  1.9171 -2.0735  0.1835
  440SOL    HW2 1320   0.041   2.954   2.225 -1.1202  0.9266 -0.2516
  441SOL     OW 1321   2.968   0.645   1.321  0.3501 -0.3577 -0.4059
  441SOL    HW1 1322   2.893   0.707   1.300  1.7431 -1.2048 -0.9524
  441SOL    HW2 1323   2.968   0.616   1.417  0.5655  1.1947  0.3304
  442SOL     OW 1324   1.829   2.208   2.814 -0.1748 -0.4993 -0.4704
  442SOL    HW1 1325   1.874   2.280   2.754 -1.2962 -1.1429 -1.5927
  442SOL    HW2 1326   1.840   2.116   2.771 -0.7993 -2.1648 -1.2452
  443SOL     OW 1327   0.639   1.287   2.895  0.4140  0.1281 -0.1295
  443SOL    HW1 1328   0.560   1.237   2.850 -1.8927 -0.1714 -2.6105
  443SOL    HW2 1329   0.727   1.238   2.887  3.9785  1.0665  0.9368
  444SOL     OW 1330   1.426   1.626   1.876 -0.5645  0.1894 -0.0926
  444SOL    HW1 1331   1.340   1.637   1.828  0.6708 -1.5957  1.4040
  444SOL    HW2 1332   1.411   1.584   1.968 -0.8416 -0.7231  0.6332
  445SOL     OW 1333   0.235   0.066   0.905 -0.1315  0.3337  0.1288
  445SOL    HW1 1334   0.184   0.152   0.889 -1.8137  0.7135 -0.7494
  445SOL    HW2 1335   0.204   0.014   0.992 -1.1163 -3.0003  2.3717
  446SOL     OW 1336   2.389   0.554   1.206  0.0300 -0.5133 -0.2629
  446SOL    HW1 1337   2.418   0.627   1.267 -1.5217 -2.0941  0.7815
  446SOL    HW2 1338   2.290   0.561   1.179  0.6663 -2.5420  0.5374
  447SOL     OW 1339   0.468   0.964   0.019 -0.6763 -0.0563  0.3884
  447SOL    HW1 1340   0.527   1.019   0.081 -1.6902 -1.4776  0.3466
  447SOL    HW2 1341   0.385   0.938   0.070  3.3553  1.6968 -0.8993
  448SOL     OW 1342   1.221   1.997   1.732 -0.0765  0.2142 -0.1816
  448SOL    HW1 1343   1.131   2.045   1.726 -1.2775 -0.0771 -1.7647
  448SOL    HW2 1344   1.259   2.022   1.824 -1.1381 -0.8262 -1.6084
  449SOL     OW 1345   1.281   1.206   0.619 -0.2221 -0.0268  0.2476
  449SOL    HW1 1346   1.339   1.226   0.536  0.3443  0.4675  1.4427
  449SOL    HW2 1347   1.205   1.148   0.591  2.1687 -0.2181 -0.5966
  450SOL     OW 1348   2.727   1.844   1.782  0.0149 -0.3736 -0.7964
  450SOL    HW1 1349   2.795   1.772   1.812  1.4427  1.0585  0.3597
  450SOL    HW2 1350   2.725   1.922   1.849  0.0413  0.6301 -0.7142
  451SOL     OW 1351   2.696   1.458   2.842  0.2457  0.1041 -0.0016
  451SOL    HW1 1352   2.627   1.402   2.895  0.3103 -0.5316 -0.6169
  451SOL    HW2 1353   2.678   1.559   2.837  1.6265  0.5323 -1.7724
  452SOL     OW 1354   1.745   0.516   1.222 -0.1573  0.0002  0.6403
  452SOL    HW1 1355   1.667   0.563   1.181  0.7211  0.3352 -3.2930
  452SOL    HW2 1356   1.822   0.521   1.157 -2.7305  0.0560 -0.6078
  453SOL     OW 1357   1.955   1.130   1.069 -0.4244  0.1824 -0.2852
  453SOL    HW1 1358   1.858   1.130   1.034 -1.8575  0.0944 -3.3493
  453SOL    HW2 1359   2.004   1.216   1.050 -0.1403 -1.4221 -2.4072
  454SOL     OW 1360   2.933   0.803   0.381 -0.0554  0.8820  0.5007
  454SOL    HW1 1361   2.978   0.858   0.452 -0.6184 -1.1426 -2.4201
  454SOL    HW2 1362   2.860   0.750   0.426  1.0739 -1.1562  1.9969
  455SOL     OW 1363   2.567   1.761   1.162  0.6124 -0.1610 -1.2074
  455SOL    HW1 1364   2.603   1.683   1.218  1.0794 -2.2027  2.2612
  455SOL    HW2 1365   2.644   1.815   1.118  1.7206 -0.3077 -0.4487
  456SOL     OW 1366   0.804   0.134   1.311 -0.0029  0.0358  0.0602
  456SOL    HW1 1367   0.727   0.174   1.360  2.6902 -1.8678 -5.3344
  456SOL    HW2 1368   0.851   0.059   1.367  2.2721 -0.2691 -1.1050
  457SOL     OW 1369   1.780   3.073   1.021 -0.0403  0.4207  0.1535
  457SOL    HW1 1370   1.677   0.006   1.041 -1.8095  0.8723  3.3631
  457SOL    HW2 1371   1.810   0.073   0.975  0.8463 -0.0915  1.9010
  458SOL     OW 1372   2.463   0.254   0.545 -0.1506 -0.2094  0.6308
  458SOL    HW1 1373   2.467   0.169   0.607  2.4485  1.4992  1.3482
  458SOL    HW2 1374   2.440   0.339   0.596 -1.1742 -0.0103 -1.1092
  459SOL     OW 1375   1.820   0.591   2.914 -0.0306 -0.3084  0.1336
  459SOL    HW1 1376   1.883   0.648   2.974  3.3377 -0.1709  2.3061
  459SOL    HW2 1377   1.748   0.537   2.967  0.4029  2.4685  0.5005
  460SOL     OW 1378   3.085   2.768   2.640  0.2451 -0.2307  0.3040
  460SOL    HW1 1379   0.031   2.781   2.736  0.1333  0.1658  0.0035
  460SOL    HW2 1380   2.983   2.791   2.628 -2.2138  0.8848  1.7567
  461SOL     OW 1381   0.796   1.633   0.134 -1.0139  0.0222 -0.2233
  461SOL    HW1 1382   0.756   1.711   0.187 -0.4605 -0.3230  0.0046
  461SOL    HW2 1383   0.727   1.567   0.089 -2.4515  1.5792 -1.5241
  462SOL     OW 1384   2.135   2.319   0.744  0.3832  0.0506 -0.2288
  462SOL    HW1 1385   2.199   2.375   0.684  0.8973  2.7133 -0.1819
  462SOL    HW2 1386   2.086   2.373   0.815 -1.4664 -0.1125  0.0990
  463SOL     OW 1387   0.032   0.476   0.486  0.1639 -0.1800  0.1385
  463SOL    HW1 1388   0.078   0.526   0.564  1.0906  1.0361 -0.6299
  463SOL    HW2 1389   0.086   0.484   0.399  0.3371 -0.9385  0.8127
  464SOL     OW 1390   0.761   2.497   0.571  0.0354  0.3474 -0.4644
  464SOL    HW1 1391   0.661   2.502   0.584  0.6995  0.5514 -0.4147
  464SOL    HW2 1392   0.789   2.398   0.567  0.2287 -1.2412 -0.1694
  465SOL     OW 1393   2.388   0.734   0.579  0.6635 -0.4437  0.2889
  465SOL    HW1 1394   2.303   0.787   0.560  0.3889 -1.9986 -2.4144
  465SOL    HW2 1395   2.433   0.714   0.487  2.6918  0.9242 -1.1746
  466SOL     OW 1396   2.220   3.032   3.068  0.1809  0.2800 -0.0437
  466SOL    HW1 1397   2.322   3.038   3.057  0.1807  0.4887 -1.3290
  466SOL    HW2 1398   2.185   2.953   3.012 -1.8059 -2.9282 -0.1450
  467SOL     OW 1399   1.268   0.480   1.962  0.2784 -0.1023 -0.2290
  467SOL    HW1 1400   1.268   0.448   1.866 -0.5451 -0.6060  3.3301
  467SOL    HW2 1401   1.286   0.583   1.966  0.5392 -0.9010  0.3034
  468SOL     OW 1402   2.985   0.506   1.978 -0.0718 -0.2931  0.1984
  468SOL    HW1 1403   3.034   0.420   1.947  0.6874 -2.5130 -2.0842
  468SOL    HW2 1404   3.016   0.593   1.929  1.9776 -0.4204  1.1434
  469SOL     OW 1405   0.784   2.918   2.655  0.4365 -0.2341 -0.2413
  469SOL    HW1 1406   0.775   2.825   2.698  0.2325 -1.4208  3.0992
  469SOL    HW2 1407   0.691   2.966   2.644 -2.6343  0.7454 -0.2198
  470SOL     OW 1408   1.696   1.286   2.166  0.2370 -0.3053 -0.3518
  470SOL    HW1 1409   1.595   1.284   2.157 -0.3331 -0.3487 -2.3442
  470SOL    HW2 1410   1.728   1.365   2.105 -2.0744 -0.6919  0.7204
  471SOL     OW 1411   2.727   1.100   0.001 -0.5000 -0.6852  0.5405
  471SOL    HW1 1412   2.737   1.002   3.053  2.9993 -0.0448 -0.8045
  471SOL    HW2 1413   2.782   1.125   0.081  1.5148 -0.0545 -1.7908
  472SOL     OW 1414   0.440   2.895   0.427  0.4283  0.3182 -0.2509
  472SOL    HW1 1415   0.344   2.908   0.453  0.8177 -2.3937 -0.7689
  472SOL    HW2 1416   0.479   2.819   0.479 -0.6959 -0.8529 -1.6391
  473SOL     OW 1417   0.898   0.050   2.778 -0.4078  0.3958  0.3879
  473SOL    HW1 1418   0.850   0.132   2.755  0.8189 -3.1628 -1.9794
  473SOL    HW2 1419   0.851   3.045   2.749  0.6573 -1.8129 -1.0923
  474SOL     OW 1420   1.746   0.045   2.073 -0.0312 -0.0736 -0.5200
  474SOL    HW1 1421   1.760   3.034   2.045  2.6179  2.4834 -3.7613
  474SOL    HW2 1422   1.827   0.103   2.063  0.3732 -0.0612  0.3243
  475SOL     OW 1423   0.989   2.618   0.307  0.4279  0.3903  0.1997
  475SOL    HW1 1424   1.060   2.670   0.255 -0.8521  1.0845 -0.6673
  475SOL    HW2 1425   0.921   2.679   0.355 -1.9688  1.0266  1.0699
  476SOL     OW 1426   0.452   0.810   0.799  0.0610  0.2457 -0.3716
  476SOL    HW1 1427   0.352   0.822   0.773  3.1018  0.1618  0.3797
  476SOL    HW2 1428   0.498   0.745   0.737  0.4837  1.3601  1.8779
  477SOL     OW 1429   1.859   1.921   1.338  0.0934  0.5869 -0.2541
  477SOL    HW1 1430   1.833   1.981   1.257 -1.1348 -0.1323  0.8143
  477SOL    HW2 1431   1.921   1.977   1.397  0.2024  0.3116 -0.5886
  478SOL     OW 1432   0.284   1.262   2.088  0.8340  0.2810  0.2846
  478SOL    HW1 1433   0.369   1.285   2.046 -1.2616  1.3747  3.3532
  478SOL    HW2 1434   0.213   1.339   2.067 -2.5269  0.8000  0.8811
  479SOL     OW 1435   0.671   0.122   0.863  0.4883  0.2824  0.4184
  479SOL    HW1 1436   0.751   0.088   0.812 -2.0639  1.5495 -0.2946
  479SOL    HW2 1437   0.590   0.097   0.810  1.8102 -0.3898  1.0120
  480SOL     OW 1438   2.581   2.545   3.066 -0.3679  0.4798 -0.0949
  480SOL    HW1 1439   2.522   2.598   3.001 -0.1627 -0.2397 -0.6023
  480SOL    HW2 1440   2.629   2.474   3.010 -2.1667  1.2566 -0.1044
  481SOL     OW 1441   2.561   0.368   1.095 -0.7271 -0.1299 -0.3770
  481SOL    HW1 1442   2.500   0.435   1.148 -1.1114 -0.1526  3.1757
  481SOL    HW2 1443   2.632   0.332   1.160 -0.1399  0.9066  2.6696
  482SOL     OW 1444   1.282   2.577   1.722 -0.4319  0.0767 -0.2474
  482SOL    HW1 1445   1.317   2.510   1.652 -1.4428  0.1506  1.4191
  482SOL    HW2 1446   1.349   2.597   1.791 -1.2316 -0.1995 -2.9678
  483SOL     OW 1447   0.176   1.572   2.768 -0.3230 -0.2562 -0.4980
  483SOL    HW1 1448   0.108   1.498   2.786 -0.1883  1.4102  0.7884
  483SOL    HW2 1449   0.273   1.541   2.771  1.5768  1.4615  0.8089
  484SOL     OW 1450   1.365   1.999   2.485 -0.0604  0.1228 -0.2045
  484SOL    HW1 1451   1.304   2.024   2.408  1.8922 -0.9737 -0.3780
  484SOL    HW2 1452   1.460   1.984   2.448  1.6949  0.2566 -0.3561
  485SOL     OW 1453   3.061   0.248   2.462 -0.0620  0.2880  0.0182
  485SOL    HW1 1454   3.005   0.275   2.383  0.9395  1.6624 -1.2058
  485SOL    HW2 1455   3.058   0.147   2.470 -3.1552  0.1803 -0.2887
  486SOL     OW 1456   1.714   0.016   0.661 -0.0122  0.4864  0.1165
  486SOL    HW1 1457   1.651   0.081   0.613 -0.3318  2.4294  1.8118
  486SOL    HW2 1458   1.802   0.024   0.619 -0.1398  0.4507 -0.0820
  487SOL     OW 1459   1.208   2.610   0.983  0.5756  0.3338  0.1584
  487SOL    HW1 1460   1.222   2.533   0.923 -0.9436  1.3874  0.1340
  487SOL    HW2 1461   1.188   2.697   0.928 -0.8524 -0.0421 -0.3769
  488SOL     OW 1462   1.850   0.919   0.703  0.3057 -0.3689 -0.5562
  488SOL    HW1 1463   1.810   0.895   0.794  1.1685 -1.4115  0.2663
  488SOL    HW2 1464   1.892   1.017   0.698  2.5879  2.6138 -3.0769
  489SOL     OW 1465   1.202   2.809   1.310  0.3992  0.0133  0.2591
  489SOL    HW1 1466   1.261   2.733   1.326  1.5562 -1.0354 -1.6510
  489SOL    HW2 1467   1.184   2.862   1.397  0.3454  2.3635 -1.6641
  490SOL     OW 1468   0.840   0.674   0.555 -0.5861 -0.1869 -0.6576
  490SOL    HW1 1469   0.872   0.751   0.618 -0.8133  1.4500  0.9258
  490SOL    HW2 1470   0.890   0.665   0.463  2.1221 -1.6879  0.7372
  491SOL     OW 1471   1.518   2.911   3.070  0.0472 -0.1091 -0.0230
  491SOL    HW1 1472   1.474   2.946   0.071  1.6013 -2.7517  2.1905
  491SOL    HW2 1473   1.454   2.927   2.998  0.5253  0.7789  0.5807
  492SOL     OW 1474   1.437   1.264   2.137 -0.8744  0.0133 -0.3395
  492SOL    HW1 1475   1.395   1.354   2.125  0.9219 -0.6802 -0.1739
  492SOL    HW2 1476   1.391   1.214   2.211  0.2821 -0.5035 -2.0397
  493SOL     OW 1477   0.093   1.777   0.270 -0.3222 -0.9508  0.4076
  493SOL    HW1 1478   0.016   1.720   0.230 -2.5675  2.8440  1.8515
  493SOL    HW2 1479   0.151   1.721   0.328  0.4375  1.6673  0.2807
  494SOL     OW 1480   2.158   1.467   0.411 -0.7988  0.6094 -1.0192
  494SOL    HW1 1481   2.074   1.532   0.401 -3.0000  6.3944 -0.1702
  494SOL    HW2 1482   2.153   1.390   0.349 -0.6629  1.2691  3.0958
  495SOL     OW 1483   3.053   0.860   2.637  0.4089  0.3333  0.1417
  495SOL    HW1 1484   3.022   0.860   2.540  1.1301  0.8333 -0.7724
  495SOL    HW2 1485   0.044   0.931   2.643 -0.4707 -0.3927  0.3748
  496SOL     OW 1486   2.790   0.061   2.323 -0.1102 -0.0340  0.3187
  496SOL    HW1 1487   2.748   0.136   2.264 -2.1846 -2.1945  0.3576
  496SOL    HW2 1488   2.784   3.059   2.268  0.0659 -0.6875 -2.6376
  497SOL     OW 1489   2.612   0.882   0.703 -0.6375 -0.3898  0.0970
  497SOL    HW1 1490   2.526   0.836   0.670  2.5011  1.3344  1.2905
  497SOL    HW2 1491   2.680   0.819   0.745  1.5008  0.2852 -1.1500
  498SOL     OW 1492   3.061   2.758   0.035  0.1037 -0.6528  0.5173
  498SOL    HW1 1493   3.036   2.854   3.081 -1.6407  0.3054 -0.9075
  498SOL    HW2 1494   0.073   2.746   0.045 -0.9006 -1.0805 -2.6246
  499SOL     OW 1495   1.462   2.620   0.721  0.6284 -0.0514  0.4370
  499SOL    HW1 1496   1.394   2.659   0.660 -0.4289  0.0510  0.5737
  499SOL    HW2 1497   1.468   2.519   0.720 -0.6981  1.3686  0.2200
  500SOL     OW 1498   0.980   0.372   2.626 -0.0806  0.1798 -0.2745
  500SOL    HW1 1499   0.905   0.410   2.681  0.3032  0.6952  0.7982
  500SOL    HW2 1500   1.014   0.446   2.567 -1.4125  0.3668  0.9688
  501SOL     OW 1501   1.039   0.274   1.336 -0.1730 -0.0151 -0.7958
  501SOL    HW1 1502   1.106   0.201   1.318  1.3574 -0.1903 -2.7922
  501SOL    HW2 1503   0.942   0.247   1.316  0.6679  0.0892  3.4767
  502SOL     OW 1504   3.027   0.121   2.127  0.2600 -0.4943 -0.0766
  502SOL    HW1 1505   0.034   0.112   2.173 -0.1111  2.3517 -0.7560
  502SOL    HW2 1506   2.982   0.198   2.172  0.9460  0.8111 -0.0090
  503SOL     OW 1507   1.537   2.060   2.210 -0.4740  0.1494 -0.2509
  503SOL    HW1 1508   1.521   2.162   2.211  0.0358  3.3843  2.4164
  503SOL    HW2 1509   1.577   2.026   2.294  0.0070 -0.2801 -0.8796
  504SOL     OW 1510   2.222   2.715   1.714  0.2569 -0.1109  0.1069
  504SOL    HW1 1511   2.257   2.783   1.785  2.8423  1.4855 -1.2174
  504SOL    HW2 1512   2.174   2.766   1.640  0.6368 -1.5941  0.6550
  505SOL     OW 1513   2.705   1.144   1.515  0.1994  0.4490 -0.2585
  505SOL    HW1 1514   2.799   1.106   1.543 -0.0754 -0.6344  1.3137
  505SOL    HW2 1515   2.670   1.227   1.559  0.9303 -1.1152  3.2443
  506SOL     OW 1516   0.231   1.492   2.340  0.5209  0.2272 -0.1860
  506SOL    HW1 1517   0.166   1.420   2.319  2.2926  0.0072  0.2906
  506SOL    HW2 1518   0.329   1.471   2.324 -2.4464  0.9307  0.6801
  507SOL     OW 1519   0.140   3.018   1.505  0.1265 -0.2671 -0.3500
  507SOL    HW1 1520   0.093   0.010   1.456 -1.4968  1.1949  0.4845
  507SOL    HW2 1521   0.155   2.940   1.444 -1.8796  0.9791  3.9424
  508SOL     OW 1522   1.313   0.560   1.444  0.2978 -0.2321 -0.2096
  508SOL    HW1 1523   1.393   0.619   1.423 -0.3290 -1.6166  0.6446
  508SOL    HW2 1524   1.333   0.463   1.428  2.6535 -0.0255 -1.2091
  509SOL     OW 1525   1.154   2.325   1.403 -0.3838  0.1111  0.1402
  509SOL    HW1 1526   1.109   2.351   1.318  1.5748  1.1283  0.1621
  509SOL    HW2 1527   1.106   2.355   1.486  1.3446 -1.3290 -1.1488
  510SOL     OW 1528   2.569   1.292   3.026  0.0602  0.0630  0.0508
  510SOL    HW1 1529   2.488   1.293   0.005  3.7425  3.1163 -1.1521
  510SOL    HW2 1530   2.638   1.216   3.047  0.8544 -1.9595  0.3219
  511SOL     OW 1531   0.624   1.353   1.200 -0.1865 -0.0746  0.1082
  511SOL    HW1 1532   0.577   1.366   1.293 -2.0913 -0.0574  2.1778
  511SOL    HW2 1533   0.555   1.320   1.127 -0.5444 -3.0528 -0.7442
  512SOL     OW 1534   2.847   2.434   0.216  0.1613  0.1900  0.1790
  512SOL    HW1 1535   2.845   2.364   0.293 -0.3623  0.2452 -1.0052
  512SOL    HW2 1536   2.790   2.407   0.138 -0.9959 -0.8806 -2.3478
  513SOL     OW 1537   0.415   1.461   2.759  0.0155 -0.0030  0.2335
  513SOL    HW1 1538   0.382   1.390   2.828 -1.3132 -2.5557  1.0785
  513SOL    HW2 1539   0.430   1.415   2.668 -0.4383  1.1139  0.2486
  514SOL     OW 1540   0.145   2.474   3.058  0.3543  0.7927 -0.1757
  514SOL    HW1 1541   0.221   2.522   3.015 -3.1017  1.1401 -1.6629
  514SOL    HW2 1542   0.063   2.514   3.015  3.6034 -1.2825 -0.2490
  515SOL     OW 1543   1.333   0.950   2.168 -0.4896 -0.2013  0.4168
  515SOL    HW1 1544   1.248   0.952   2.107 -2.8299 -0.0860 -3.3841
  515SOL    HW2 1545   1.325   1.010   2.243  0.1548 -0.7052 -3.3984
  516SOL     OW 1546   2.005   2.196   0.500 -0.1109 -0.0554  0.3029
  516SOL    HW1 1547   2.086   2.137   0.477 -0.9619 -0.0125  2.5523
  516SOL    HW2 1548   2.002   2.204   0.600 -1.6588 -0.6086 -0.8164
  517SOL     OW 1549   1.300   1.554   0.634  0.1522  0.0283  0.6435
  517SOL    HW1 1550   1.305   1.450   0.633  0.7964 -1.4266 -0.6940
  517SOL    HW2 1551   1.384   1.597   0.600  3.6748 -1.2410  0.2726
  518SOL     OW 1552   2.073   2.421   2.235  0.5015  0.0469 -0.5721
  518SOL    HW1 1553   2.004   2.417   2.158 -1.5076  1.9878  1.7232
  518SOL    HW2 1554   2.033   2.460   2.318  0.1494  0.8234 -0.7132
  519SOL     OW 1555   1.799   2.059   1.137 -0.0846 -0.2641  0.2494
  519SOL    HW1 1556   1.871   2.100   1.073  2.0906 -0.1758 -0.5014
  519SOL    HW2 1557   1.738   1.995   1.086  2.0001 -1.3168 -1.1730
  520SOL     OW 1558   2.673   2.446   2.586 -0.2909  0.7089  0.7167
  520SOL    HW1 1559   2.727   2.362   2.565  0.1225  0.1805  2.3771
  520SOL    HW2 1560   2.575   2.443   2.556  2.1945  0.0573  0.7171
  521SOL     OW 1561   0.080   1.458   2.025  0.2436  0.2277 -0.1821
  521SOL    HW1 1562   0.025   1.396   1.963 -1.5223  0.3531 -2.6765
  521SOL    HW2 1563   0.091   1.552   1.989 -1.3787 -1.8446 -1.8724
  522SOL     OW 1564   0.662   0.486   2.154 -0.1469 -0.2667  0.0701
  522SOL    HW1 1565   0.595   0.496   2.076 -0.6175 -0.2119 -2.3130
  522SOL    HW2 1566   0.750   0.533   2.129  1.2434  1.0831 -3.9443
  523SOL     OW 1567   0.680   1.900   1.031 -0.3152 -0.0557  0.4393
  523SOL    HW1 1568   0.734   1.946   1.102  4.0915  1.9782 -2.3670
  523SOL    HW2 1569   0.587   1.942   1.019  1.3796  2.0588  1.7650
  524SOL     OW 1570   1.662   2.928   0.377 -0.0831 -0.1472 -0.0395
  524SOL    HW1 1571   1.738   2.935   0.313 -2.2579 -1.3276  0.1009
  524SOL    HW2 1572   1.703   2.896   0.464  0.3394  0.1567 -1.0951
  525SOL     OW 1573   2.346   0.556   1.595  0.5623 -0.5357 -0.4801
  525SOL    HW1 1574   2.391   0.604   1.521 -0.7879  1.4919 -0.4116
  525SOL    HW2 1575   2.389   0.462   1.609 -0.7942  0.2783  1.1378
  526SOL     OW 1576   0.950   2.604   0.722 -0.3902 -0.1047  0.5653
  526SOL    HW1 1577   1.045   2.593   0.688 -2.9257  0.5332  0.0661
  526SOL    HW2 1578   0.881   2.570   0.654  2.2163  2.4959 -2.5591
  527SOL     OW 1579   2.672   2.549   0.416  0.2168 -0.1990  0.1126
  527SOL    HW1 1580   2.674   2.469   0.478 -0.0453 -2.5720 -1.5317
  527SOL    HW2 1581   2.751   2.545   0.353  1.0850  1.8199  1.4595
  528SOL     OW 1582   2.311   0.231   0.092  0.1375 -0.0477 -0.5492
  528SOL    HW1 1583   2.369   0.249   0.174 -0.5255  0.1295 -1.9656
  528SOL    HW2 1584   2.238   0.166   0.112  1.5101 -2.0045  1.4184
  529SOL     OW 1585   1.462   1.595   2.519 -0.0734 -0.5037  0.2698
  529SOL    HW1 1586   1.560   1.557   2.526  1.6173 -0.1331 -0.6107
  529SOL    HW2 1587   1.463   1.650   2.432  1.6076 -1.3465  0.9868
  530SOL     OW 1588   2.238   0.542   0.213 -0.6813  0.2946  0.2773
  530SOL    HW1 1589   2.155   0.534   0.277 -0.3851 -0.8704  0.1207
  530SOL    HW2 1590   2.303   0.464   0.226  1.5094  1.4971 -1.5631
  531SOL     OW 1591   1.637   0.942   2.844 -0.2787  0.4110 -0.1507
  531SOL    HW1 1592   1.668   0.873   2.771  0.8884 -0.6317 -0.4346
  531SOL    HW2 1593   1.537   0.963   2.844  1.5825  1.2397  1.4287
  532SOL     OW 1594   1.540   0.611   0.526  0.1710 -0.1165 -0.8189
  532SOL    HW1 1595   1.638   0.584   0.543 -0.8461  0.2915 -0.1036
  532SOL    HW2 1596   1.530   0.596   0.426  0.3981  0.7399  1.1034
  533SOL     OW 1597   0.902   0.675   2.083  0.1936  0.2526 -0.2690
  533SOL    HW1 1598   0.860   0.736   2.156  1.0297 -1.1818 -1.1227
  533SOL    HW2 1599   0.885   0.717   1.993  0.7626 -0.7167 -1.1763
  534SOL     OW 1600   1.440   0.240   2.542  0.3108 -0.1913  0.2775
  534SOL    HW1 1601   1.511   0.198   2.608  1.6260  0.5650 -1.2387
  534SOL    HW2 1602   1.340   0.232   2.570  1.2224 -2.4638  0.3542
  535SOL     OW 1603   0.237   0.305   0.335  0.0374 -0.4822  0.1096
  535SOL    HW1 1604   0.277   0.213   0.363 -0.8157  0.3380 -1.2980
  535SOL    HW2 1605   0.289   0.344   0.253  1.5582  1.4953 -2.2947
  536SOL     OW 1606   0.890   0.261   0.698 -0.1726 -0.2011 -0.1419
  536SOL    HW1 1607   0.816   0.295   0.637 -0.8235 -1.6286  1.0128
  536SOL    HW2 1608   0.950   0.336   0.710 -2.0496 -1.7249  0.7227
  537SOL     OW 1609   1.610   0.867   0.573  0.3376 -0.1120  0.0634
  537SOL    HW1 1610   1.713   0.871   0.589  0.2154 -0.4150  0.7713
  537SOL    HW2 1611   1.576   0.768   0.572 -1.0917 -2.0869 -0.0590
  538SOL     OW 1612   2.973   2.100   3.083  0.2420 -0.2738  0.0463
  538SOL    HW1 1613   2.991   2.184   3.029 -0.2004 -0.1205  1.2933
  538SOL    HW2 1614   3.022   2.016   3.047  2.1349 -0.0410 -0.4501
  539SOL     OW 1615   2.130   1.733   0.173 -0.8687 -0.7857 -0.3384
  539SOL    HW1 1616   2.219   1.723   0.221  2.0393  1.6308  2.8420
  539SOL    HW2 1617   2.120   1.658   0.110  4.4779 -1.3738  1.1797
  540SOL     OW 1618   0.365   2.602   1.339  0.2592 -0.5685  0.2673
  540SOL    HW1 1619   0.446   2.576   1.398 -0.8470  0.1550 -0.4461
  540SOL    HW2 1620   0.402   2.651   1.251  0.0223 -1.7720  2.4365
  541SOL     OW 1621   1.966   2.846   2.322 -0.2198 -0.2958 -0.3210
  541SOL    HW1 1622   1.898   2.920   2.348 -1.4506  1.9815 -0.3299
  541SOL    HW2 1623   1.978   2.846   2.221 -1.1842  0.0837  1.4073
  542SOL     OW 1624   0.003   0.604   2.767 -0.4645  0.3352  0.7359
  542SOL    HW1 1625   3.024   0.625   2.844 -0.0686 -1.5838  0.1644
  542SOL    HW2 1626   0.005   0.680   2.699  0.8817 -0.5029 -1.2205
  543SOL     OW 1627   2.995   1.299   1.050  0.5108 -0.3836  0.0741
  543SOL    HW1 1628   2.937   1.359   1.108  0.8667 -1.0618 -0.3571
  543SOL    HW2 1629   2.940   1.239   0.985 -0.2820 -0.2832 -1.2758
  544SOL     OW 1630   2.473   0.102   0.984 -0.3213  0.5402  0.6481
  544SOL    HW1 1631   2.525   0.182   0.956 -1.8353 -1.2409  1.2328
  544SOL    HW2 1632   2.449   0.054   0.895 -1.7237 -3.3664 -1.5516
  545SOL     OW 1633   1.669   2.461   0.488 -0.2524  0.0733 -0.4446
  545SOL    HW1 1634   1.641   2.541   0.432  3.8985  0.4439 -2.6736
  545SOL    HW2 1635   1.601   2.383   0.493  1.1507 -2.0892 -0.5218
  546SOL     OW 1636   1.999   2.621   1.861 -0.3719  0.2753 -0.2972
  546SOL    HW1 1637   2.015   2.521   1.870 -0.8063  0.2590  0.8879
  546SOL    HW2 1638   2.079   2.667   1.816  0.6298  3.0904 -1.4164
  547SOL     OW 1639   0.198   0.081   2.202  0.4295 -0.4295  0.5140
  547SOL    HW1 1640   0.270   0.151   2.223  0.8051  1.6978 -0.7070
  547SOL    HW2 1641   0.222   0.028   2.114 -1.9530 -1.4358 -3.7738
  548SOL     OW 1642   1.830   1.392   2.806 -0.0385  0.3657 -0.5899
  548SOL    HW1 1643   1.751   1.354   2.856 -0.5606 -0.2787 -2.0717
  548SOL    HW2 1644   1.889   1.308   2.789 -0.6928 -0.7241 -0.0081
  549SOL     OW 1645   2.857   1.144   0.467 -0.0693 -0.2116 -0.6721
  549SOL    HW1 1646   2.766   1.148   0.518 -0.0929  0.3545  3.9589
  549SOL    HW2 1647   2.849   1.090   0.377  0.3081  1.7557 -1.7826
  550SOL     OW 1648   1.767   2.068   0.750  0.5153  0.2481 -0.9490
  550SOL    HW1 1649   1.773   2.163   0.791 -2.3872  2.5014 -0.3915
  550SOL    HW2 1650   1.675   2.022   0.761 -0.1727 -2.2042  3.4902
  551SOL     OW 1651   1.305   0.449   0.824  0.1223  0.3598 -0.3560
  551SOL    HW1 1652   1.254   0.380   0.765 -0.9079 -1.9694  0.2433
  551SOL    HW2 1653   1.405   0.429   0.835 -1.6931 -0.1540  1.3886
  552SOL     OW 1654   2.811   2.856   2.278  0.4699 -0.1016 -0.2976
  552SOL    HW1 1655   2.910   2.851   2.276 -0.5971 -2.3636 -0.9810
  552SOL    HW2 1656   2.767   2.771   2.306 -2.5878 -0.8615  0.3107
  553SOL     OW 1657   2.990   3.078   2.497  0.1694 -0.1514  0.1159
  553SOL    HW1 1658   2.896   0.022   2.459  0.9871  1.5270  2.2140
  553SOL    HW2 1659   3.040   3.011   2.440 -0.9657 -1.2892 -0.7576
  554SOL     OW 1660   0.957   2.808   1.153  0.3021  0.6691 -0.1473
  554SOL    HW1 1661   0.880   2.809   1.217 -2.6358 -1.9832 -1.6103
  554SOL    HW2 1662   1.041   2.803   1.206 -0.4169 -0.4129 -1.1321
  555SOL     OW 1663   2.498   2.506   2.082 -0.5479 -0.2677  0.3762
  555SOL    HW1 1664   2.538   2.505   1.988 -0.0280 -1.5054 -0.9522
  555SOL    HW2 1665   2.553   2.453   2.147  1.5029 -1.7443  2.9055
  556SOL     OW 1666   1.210   0.192   2.688 -0.1898 -0.1110  0.1456
  556SOL    HW1 1667   1.126   0.234   2.652 -0.5260 -1.8605 -1.4502
  556SOL    HW2 1668   1.232   0.099   2.658 -1.0773 -1.7090  1.4619
  557SOL     OW 1669   0.355   1.882   2.245  0.2193  0.2559 -0.2829
  557SOL    HW1 1670   0.335   1.908   2.344  1.7412  0.0172 -0.1751
  557SOL    HW2 1671   0.425   1.810   2.241 -0.9109  1.0965 -1.0051
  558SOL     OW 1672   2.090   0.860   2.362 -0.3437 -0.3139  0.1796
  558SOL    HW1 1673   2.179   0.810   2.365 -1.3614  0.3940  0.4926
  558SOL    HW2 1674   2.089   0.940   2.295  1.8047  1.6669 -0.3728
  559SOL     OW 1675   2.549   2.167   2.209 -0.7063  0.1681 -0.5516
  559SOL    HW1 1676   2.588   2.262   2.215 -0.1195 -0.9465 -0.7108
  559SOL    HW2 1677   2.459   2.167   2.256  0.5198  0.4801 -0.0536
  560SOL     OW 1678   2.512   0.770   2.330  0.2455  0.8413 -0.4610
  560SOL    HW1 1679   2.421   0.734   2.345  1.4398 -0.4125 -1.1663
  560SOL    HW2 1680   2.506   0.837   2.256  1.0670  3.5580  2.0992
  561SOL     OW 1681   0.373   0.339   0.033  0.4085 -0.1597  0.3060
  561SOL    HW1 1682   0.304   0.418   0.027 -2.6232  0.6099 -1.5815
  561SOL    HW2 1683   0.346   0.260   3.052 -1.0851 -1.3322  0.2409
  562SOL     OW 1684   0.991   1.285   1.444  0.1556  0.0721  0.1187
  562SOL    HW1 1685   1.023   1.331   1.529  1.9498  1.7192 -4.2088
  562SOL    HW2 1686   0.897   1.235   1.460 -0.8763 -4.1879  1.3214
  563SOL     OW 1687   1.582   2.933   2.718 -0.1719  0.0030  0.0255
  563SOL    HW1 1688   1.486   2.934   2.754  1.5083  1.4558  1.6063
  563SOL    HW2 1689   1.650   2.938   2.794  3.0629  0.6361  1.6320
  564SOL     OW 1690   0.062   2.161   1.026 -0.6136 -0.5669 -0.1327
  564SOL    HW1 1691   3.070   2.174   1.087 -1.3657 -0.8231 -2.5369
  564SOL    HW2 1692   0.146   2.210   1.059 -0.8650 -0.7081  2.1780
  565SOL     OW 1693   0.564   2.493   2.114 -0.5940 -0.1578  0.2591
  565SOL    HW1 1694   0.561   2.543   2.025 -0.8001  0.3535 -0.7913
  565SOL    HW2 1695   0.648   2.440   2.126 -0.7798  0.0258  0.6432
  566SOL     OW 1696   1.130   2.493   1.991 -0.2808  0.1491  0.5517
  566SOL    HW1 1697   1.126   2.478   2.096  1.5546 -1.5494  4.7225
  566SOL    HW2 1698   1.205   2.552   1.964 -0.5345 -0.7014  0.0830
  567SOL     OW 1699   1.974   2.368   0.985  0.1411  0.3049  0.0213
  567SOL    HW1 1700   1.967   2.343   1.083  0.5082  0.6572  0.6863
  567SOL    HW2 1701   1.887   2.408   0.960 -2.3938 -2.3396 -1.2815
  568SOL     OW 1702   2.088   0.521   0.429 -0.2515 -0.0900 -0.7940
  568SOL    HW1 1703   2.049   0.602   0.478 -0.2645 -2.5856 -0.6198
  568SOL    HW2 1704   2.068   0.435   0.482  1.0833 -0.0713  0.9383
  569SOL     OW 1705   2.909   1.708   2.614 -0.6877 -0.3843 -0.5449
  569SOL    HW1 1706   2.991   1.711   2.551 -1.3662 -0.5430  1.8047
  569SOL    HW2 1707   2.937   1.694   2.710 -0.7783  2.0136 -2.1275
  570SOL     OW 1708   3.018   0.085   1.089 -0.0331 -0.7418  0.1688
  570SOL    HW1 1709   0.023   0.040   1.106 -0.5957  1.6467  1.5574
  570SOL    HW2 1710   3.012   0.171   1.147 -2.4657  1.5814  0.0699
  571SOL     OW 1711   2.930   0.523   1.561 -0.1657 -0.2113  0.0885
  571SOL    HW1 1712   2.918   0.597   1.633 -0.3992 -1.4306  0.1459
  571SOL    HW2 1713   2.977   0.439   1.595  1.3205 -2.4603  0.6143
  572SOL     OW 1714   2.879   2.362   0.675 -0.3399  0.3115  0.4089
  572SOL    HW1 1715   2.860   2.316   0.588  1.8184  0.7741  0.6826
  572SOL    HW2 1716   2.978   2.357   0.692  1.4563  0.8843  0.6794
  573SOL     OW 1717   0.758   0.678   0.153  0.5045  0.1007  0.1293
  573SOL    HW1 1718   0.675   0.624   0.123  0.0142  0.7908  3.1251
  573SOL    HW2 1719   0.741   0.779   0.157 -0.0796 -1.4585 -0.2237
  574SOL     OW 1720   2.926   3.033   3.059 -0.0004 -0.2141  0.0672
  574SOL    HW1 1721   2.888   3.020   0.068  0.9837 -1.6229 -0.4921
  574SOL    HW2 1722   3.014   3.080   3.064 -0.2193  0.8717 -1.4263
  575SOL     OW 1723   1.399   2.369   1.089  0.4570  0.5784 -0.5264
  575SOL    HW1 1724   1.376   2.468   1.079  0.5662  5.5803 -1.0564
  575SOL    HW2 1725   1.488   2.349   1.140 -0.3054 -0.5067  1.7052
  576SOL     OW 1726   0.708   2.622   1.119  0.1988 -0.7460 -0.9763
  576SOL    HW1 1727   0.739   2.688   1.196  2.1298  3.1329  0.1742
  576SOL    HW2 1728   0.791   2.596   1.061  2.7931  0.9344 -1.0262
  577SOL     OW 1729   2.090   1.758   1.136 -0.6511 -0.4103  0.0779
  577SOL    HW1 1730   2.114   1.716   1.226  1.0875 -0.2251 -1.6147
  577SOL    HW2 1731   2.116   1.860   1.134  1.6607  1.3731 -1.8400
  578SOL     OW 1732   1.554   0.264   0.294  0.1953  0.4285  0.1395
  578SOL    HW1 1733   1.574   0.364   0.281  0.9687  0.6883 -0.0951
  578SOL    HW2 1734   1.522   0.223   0.210  1.6720  1.4651  4.8467
  579SOL     OW 1735   2.344   1.124   2.847  0.0952  0.3102 -0.2405
  579SOL    HW1 1736   2.410   1.197   2.865 -0.2121 -2.6210  1.9417
  579SOL    HW2 1737   2.370   1.043   2.911  1.6343 -2.6496 -0.6062
  580SOL     OW 1738   1.669   0.477   1.881 -0.3305 -0.4585  0.0190
  580SOL    HW1 1739   1.693   0.575   1.864 -2.0456  2.1371 -0.8929
  580SOL    HW2 1740   1.679   0.456   1.981  2.3891 -0.2375 -1.2187
  581SOL     OW 1741   0.627   1.066   1.097 -0.2291 -0.0028 -0.1139
  581SOL    HW1 1742   0.572   1.143   1.066 -0.1171 -1.3186 -1.7621
  581SOL    HW2 1743   0.623   1.064   1.197 -0.1794  1.3314 -0.4007
  582SOL     OW 1744   2.652   0.178   2.105  0.0890  0.1319  0.0116
  582SOL    HW1 1745   2.602   0.176   2.016 -1.8389 -0.3063 -0.7482
  582SOL    HW2 1746   2.639   0.263   2.160  1.2630  0.2975  1.4033
  583SOL     OW 1747   2.753   0.622   2.050  0.0552  0.0382 -0.1714
  583SOL    HW1 1748   2.837   0.568   2.031 -0.2293 -1.3167  0.8299
  583SOL    HW2 1749   2.764   0.653   2.146  2.8465  0.4926  2.0704
  584SOL     OW 1750   1.186   1.910   2.737  0.2636 -0.0906  0.2694
  584SOL    HW1 1751   1.157   1.985   2.797 -2.8927 -2.5724 -0.0044
  584SOL    HW2 1752   1.285   1.890   2.744  2.2383 -0.3842 -1.2528
  585SOL     OW 1753   0.491   0.134   0.187 -0.2677 -0.0582  0.2702
  585SOL    HW1 1754   0.449   0.044   0.166 -1.5445  0.2903 -0.4777
  585SOL    HW2 1755   0.447   0.209   0.129 -1.6681  1.2516 -3.3351
  586SOL     OW 1756   1.858   1.980   2.649  0.0263  0.1310 -0.4334
  586SOL    HW1 1757   1.869   1.925   2.732  0.0366 -1.4287  0.3641
  586SOL    HW2 1758   1.809   1.921   2.581 -2.3995 -1.0561 -3.3725
  587SOL     OW 1759   2.397   2.335   0.420 -0.7004 -0.4753 -0.1371
  587SOL    HW1 1760   2.406   2.365   0.319  1.5268  1.6673 -2.3644
  587SOL    HW2 1761   2.351   2.405   0.475 -1.7055 -1.7576 -1.0506
  588SOL     OW 1762   2.250   0.123   1.137 -0.0445 -0.1910  0.3099
  588SOL    HW1 1763   2.315   0.136   1.055  1.2368  0.5884 -1.5497
  588SOL    HW2 1764   2.247   0.024   1.160  1.5703  0.5260  0.0896
  589SOL     OW 1765   0.592   0.632   0.662 -0.6285 -0.3821  0.3509
  589SOL    HW1 1766   0.690   0.644   0.629 -2.3169 -0.8314  2.3261
  589SOL    HW2 1767   0.541   0.563   0.611  0.1410  2.1135  1.1906
  590SOL     OW 1768   2.183   2.006   0.441 -0.3958  0.4139  0.1301
  590SOL    HW1 1769   2.264   1.980   0.495 -0.9560  0.2626 -1.1038
  590SOL    HW2 1770   2.210   2.039   0.348  1.0195 -1.0143 -1.5114
  591SOL     OW 1771   0.627   2.329   1.149 -0.1033  0.0190  0.1795
  591SOL    HW1 1772   0.601   2.275   1.065 -1.5873 -0.8111 -1.9086
  591SOL    HW2 1773   0.652   2.424   1.131  2.6191  2.0771  1.0522
  592SOL     OW 1774   1.055   0.813   1.327  0.2367 -0.0985  0.0277
  592SOL    HW1 1775   1.003   0.831   1.238 -2.0750  2.0507 -1.7665
  592SOL    HW2 1776   1.075   0.714   1.331  0.2232  0.8794 -0.8020
  593SOL     OW 1777   0.888   1.319   1.205 -0.0174 -0.2004  0.6261
  593SOL    HW1 1778   0.919   1.321   1.304  0.1078  1.4667  0.1334
  593SOL    HW2 1779   0.785   1.319   1.197 -1.7957  0.4898  1.6735
  594SOL     OW 1780   0.802   2.231   0.526 -0.7189  0.0628  0.2276
  594SOL    HW1 1781   0.879   2.262   0.469  0.9679 -0.0489 -0.9627
  594SOL    HW2 1782   0.791   2.131   0.525 -2.2794 -0.8466 -2.2450
  595SOL     OW 1783   1.712   0.347   1.421  0.4428 -0.5383  0.3875
  595SOL    HW1 1784   1.710   0.426   1.355  0.9154 -1.7228  0.5106
  595SOL    HW2 1785   1.795   0.343   1.480  2.3045 -2.0731  0.8951
  596SOL     OW 1786   2.896   1.491   1.220 -0.0904  0.3044  0.0660
  596SOL    HW1 1787   2.941   1.560   1.165 -0.8539 -1.8050  0.6591
  596SOL    HW2 1788   2.797   1.502   1.239  1.7211  1.5511 -0.8852
  597SOL     OW 1789   0.210   2.815   2.476  0.3154  0.1394  0.3057
  597SOL    HW1 1790   0.277   2.743   2.494 -0.5016 -2.4288 -0.7389
  597SOL    HW2 1791   0.139   2.802   2.547  1.5716  0.0876  0.9764
  598SOL     OW 1792   2.814   2.301   1.962  0.3130  0.8008  0.6848
  598SOL    HW1 1793   2.900   2.300   1.906  1.1214 -0.3528  0.8541
  598SOL    HW2 1794   2.743   2.359   1.911 -0.4298  0.3175 -0.2493
  599SOL     OW 1795   1.036   0.113   2.986  0.4422 -0.4723 -0.1276
  599SOL    HW1 1796   0.969   0.177   3.039 -1.6085  3.0573  1.9529
  599SOL    HW2 1797   0.993   0.090   2.897  1.9476 -0.8797 -1.4391
  600SOL     OW 1798   0.521   2.570   3.067 -0.6663  0.3024  0.5837
  600SOL    HW1 1799   0.565   2.484   3.033 -1.5374  1.1164 -0.7884
  600SOL    HW2 1800   0.447   2.605   3.006  0.0250 -2.3139 -1.7406
  601SOL     OW 1801   0.645   0.793   1.328  0.1785 -0.2402  0.0717
  601SOL    HW1 1802   0.731   0.790   1.276 -0.6334  0.8304  1.4391
  601SOL    HW2 1803   0.578   0.721   1.297 -1.0027 -1.1691 -1.5531
  602SOL     OW 1804   0.896   2.810   0.892 -0.1780 -0.0848  0.3145
  602SOL    HW1 1805   0.931   2.728   0.847  2.4341 -0.4863  2.4670
  602SOL    HW2 1806   0.910   2.795   0.991  0.7539 -2.3378 -1.0505
  603SOL     OW 1807   0.601   0.646   2.411  0.2076  0.4138 -0.3056
  603SOL    HW1 1808   0.640   0.582   2.348 -0.9627  1.3454  1.8303
  603SOL    HW2 1809   0.655   0.651   2.500 -1.0305 -0.0010  0.6890
  604SOL     OW 1810   0.505   2.866   1.438 -0.0217  0.0580 -0.0933
  604SOL    HW1 1811   0.475   2.961   1.458  1.7611  0.3244 -0.6809
  604SOL    HW2 1812   0.431   2.823   1.380 -0.2666 -1.9906  0.7006
  605SOL     OW 1813   1.730   0.751   1.914  0.2337  0.1288  0.0498
  605SOL    HW1 1814   1.708   0.812   1.835  2.6351 -0.3940 -1.9851
  605SOL    HW2 1815   1.664   0.768   1.990 -1.6901 -0.6481 -1.8699
  606SOL     OW 1816   2.577   2.805   0.077 -0.1872 -0.4398 -0.0163
  606SOL    HW1 1817   2.590   2.703   0.071  0.7386 -0.1095  0.0872
  606SOL    HW2 1818   2.579   2.843   3.067 -0.2619  0.6486  2.7810
  607SOL     OW 1819   0.886   0.793   1.111  0.4250  0.1356 -0.1943
  607SOL    HW1 1820   0.840   0.704   1.089 -0.6223  1.9995  1.4471
  607SOL    HW2 1821   0.871   0.862   1.036  0.5428 -0.8312  1.1066
  608SOL     OW 1822   0.296   1.902   2.510 -0.1020 -0.3113 -0.4581
  608SOL    HW1 1823   0.328   1.999   2.518  0.8920  1.7270  4.5694
  608SOL    HW2 1824   0.213   1.891   2.567  0.1872 -0.3714 -2.1482
  609SOL     OW 1825   1.376   1.201   0.318 -0.0686  0.1976 -0.0556
  609SOL    HW1 1826   1.294   1.255   0.313  3.3772 -0.3212  0.3517
  609SOL    HW2 1827   1.395   1.147   0.232 -0.6687 -2.8605  1.3305
  610SOL     OW 1828   0.511   0.568   1.251  0.0710 -0.0144  0.4623
  610SOL    HW1 1829   0.556   0.538   1.164 -0.1061 -1.4424 -1.3003
  610SOL    HW2 1830   0.413   0.559   1.235  0.6897 -0.1669  1.1384
  611SOL     OW 1831   1.390   0.894   0.748 -0.4544 -0.0464 -0.2116
  611SOL    HW1 1832   1.374   0.983   0.798 -1.1713  0.5523 -1.1822
  611SOL    HW2 1833   1.475   0.900   0.692 -0.8033 -0.5193  0.3076
  612SOL     OW 1834   1.814   1.016   0.242 -0.1798  0.0617  0.2475
  612SOL    HW1 1835   1.724   1.042   0.287  1.8954  3.4229  0.6682
  612SOL    HW2 1836   1.854   1.100   0.200  0.6126 -1.5904  2.0923
  613SOL     OW 1837   1.835   0.534   0.236 -0.2237 -0.0866 -0.3269
  613SOL    HW1 1838   1.876   0.502   0.329 -1.5533 -2.4336 -0.1311
  613SOL    HW2 1839   1.768   0.605   0.262  1.7323  2.3285  0.2319
  614SOL     OW 1840   2.627   0.055   2.541 -0.3978  0.2684  0.3723
  614SOL    HW1 1841   2.679   0.061   2.450  1.3071 -4.0749  0.2902
  614SOL    HW2 1842   2.544   0.002   2.532 -0.4728 -0.3609  0.6764
  615SOL     OW 1843   0.790   1.873   0.767  0.3020 -0.2519 -0.1638
  615SOL    HW1 1844   0.868   1.813   0.787 -0.5090 -0.4404 -1.2670
  615SOL    HW2 1845   0.751   1.911   0.855  1.0464  0.6506  1.4644
  616SOL     OW 1846   1.401   1.074   2.814  0.9364 -0.4565  0.2686
  616SOL    HW1 1847   1.414   1.173   2.795  3.5725 -1.0469  2.3711
  616SOL    HW2 1848   1.329   1.064   2.886  1.4696  4.0416 -0.6610
  617SOL     OW 1849   1.428   0.469   0.004  0.6719 -0.0033  0.4943
  617SOL    HW1 1850   1.378   0.403   3.029  0.2756  1.6528  0.6950
  617SOL    HW2 1851   1.529   0.451   3.078  2.6814 -2.5848  3.9333
  618SOL     OW 1852   1.597   2.382   2.527  0.7056  0.6885  0.4894
  618SOL    HW1 1853   1.541   2.363   2.444  2.1464  0.3093 -0.9923
  618SOL    HW2 1854   1.568   2.464   2.573 -0.1775  0.3892  0.6807
  619SOL     OW 1855   2.361   1.652   0.709  0.2824  0.0168  0.4066
  619SOL    HW1 1856   2.445   1.685   0.658 -1.7556 -1.4137 -0.3759
  619SOL    HW2 1857   2.375   1.563   0.756 -1.7177  2.2572  2.6828
  620SOL     OW 1858   2.255   2.767   2.365 -0.6331  0.1942  0.1856
  620SOL    HW1 1859   2.301   2.763   2.272  0.5476 -0.7618 -1.5440
  620SOL    HW2 1860   2.159   2.795   2.351  0.8626 -2.0257 -0.1698
  621SOL     OW 1861   3.066   1.455   0.768 -0.2328  0.0685  0.3463
  621SOL    HW1 1862   0.015   1.396   0.841 -0.2019  2.5905 -2.8647
  621SOL    HW2 1863   2.981   1.505   0.795 -3.0515  2.2920 -2.5843
  622SOL     OW 1864   1.430   1.320   2.727  0.6211 -0.3200  0.4542
  622SOL    HW1 1865   1.413   1.397   2.800 -2.0636  1.1693  1.3002
  622SOL    HW2 1866   1.363   1.325   2.647 -1.1474 -0.1718  0.2979
  623SOL     OW 1867   0.006   2.533   2.265 -0.1541  0.4192 -0.5157
  623SOL    HW1 1868   0.005   2.542   2.367 -1.6269 -1.9785  1.8259
  623SOL    HW2 1869   3.001   2.552   2.221 -1.6305 -1.0578 -1.5976
  624SOL     OW 1870   0.670   2.899   3.035 -0.1564  0.3347  0.3806
  624SOL    HW1 1871   0.695   2.814   2.987 -3.6024 -1.6223  0.6845
  624SOL    HW2 1872   0.638   2.880   0.045 -2.0924 -0.3847  2.0185
  625SOL     OW 1873   0.401   2.158   2.168 -0.0920 -0.1535 -0.2049
  625SOL    HW1 1874   0.354   2.184   2.086 -1.7531 -1.4932  0.8410
  625SOL    HW2 1875   0.397   2.056   2.186 -0.0630 -1.9889 -0.2649
  626SOL     OW 1876   0.326   0.137   2.940 -0.2630 -0.1831  0.3218
  626SOL    HW1 1877   0.252   0.144   2.870  2.4247  3.0920 -0.9544
  626SOL    HW2 1878   0.379   0.047   2.937  0.7440  0.0969  3.9826
  627SOL     OW 1879   2.095   1.580   3.032  0.4421  0.0084 -0.9931
  627SOL    HW1 1880   2.114   1.505   2.966 -0.2090 -2.0893 -1.1840
  627SOL    HW2 1881   1.999   1.608   3.018 -1.9156  0.4218  1.0640
  628SOL     OW 1882   1.332   1.989   0.402 -0.5645 -0.1278  0.4164
  628SOL    HW1 1883   1.431   1.963   0.376 -2.4572 -0.6522 -2.7054
  628SOL    HW2 1884   1.308   1.994   0.502  0.9999  1.3552  1.1278
  629SOL     OW 1885   3.014   0.270   1.673 -0.2436  0.4325 -0.1790
  629SOL    HW1 1886   3.084   0.250   1.736 -1.7740  4.0716  0.3402
  629SOL    HW2 1887   2.924   0.239   1.705  3.1407  2.4849  1.1875
  630SOL     OW 1888   2.011   0.786   1.889 -0.4754  0.0600  0.3714
  630SOL    HW1 1889   1.924   0.806   1.941  0.2863  1.8130  1.4451
  630SOL    HW2 1890   1.989   0.771   1.787  2.3702  0.3169  0.3532
  631SOL     OW 1891   1.467   0.321   1.064  0.2068 -0.4321  0.0409
  631SOL    HW1 1892   1.549   0.371   1.076 -4.2945 -2.7448  0.4530
  631SOL    HW2 1893   1.490   0.222   1.045 -1.4379 -3.1033 -1.9099
  632SOL     OW 1894   2.634   0.989   1.935  0.1441 -0.2774  0.1682
  632SOL    HW1 1895   2.672   0.917   1.874 -0.2866 -1.5540  0.5859
  632SOL    HW2 1896   2.575   0.949   2.007 -2.2823 -2.6600 -0.1689
  633SOL     OW 1897   0.950   0.886   2.548 -0.0445  0.1973  0.1203
  633SOL    HW1 1898   1.037   0.876   2.493  1.4563  0.8501 -1.4694
  633SOL    HW2 1899   0.977   0.907   2.643  1.8307  1.7172 -0.8276
  634SOL     OW 1900   0.448   2.986   2.888 -0.0617  0.2092  0.5981
  634SOL    HW1 1901   0.463   2.966   2.786 -2.2537 -1.6981 -5.9160
  634SOL    HW2 1902   0.532   2.968   2.941 -2.7557  0.1162 -1.7517
  635SOL     OW 1903   3.079   1.454   1.431 -0.0040 -0.2431  0.2361
  635SOL    HW1 1904   3.007   1.474   1.363  2.5507 -2.0367 -0.8441
  635SOL    HW2 1905   0.079   1.510   1.414  0.9455  0.5263 -0.4854
  636SOL     OW 1906   0.345   1.649   0.041 -0.0888 -0.1540 -0.4613
  636SOL    HW1 1907   0.313   1.587   0.115 -0.2743 -0.5131  0.2366
  636SOL    HW2 1908   0.305   1.740   0.033 -0.4562 -1.7067 -0.8254
  637SOL     OW 1909   0.047   2.407   0.252 -0.0341 -0.3272 -0.1768
  637SOL    HW1 1910   0.095   2.429   0.164 -0.9014 -0.5612  1.2393
  637SOL    HW2 1911   3.033   2.406   0.234  0.7277 -0.9833  1.0530
  638SOL     OW 1912   2.940   2.684   0.255 -0.1079  0.1983  0.1603
  638SOL    HW1 1913   2.989   2.716   0.170  1.8668 -2.7557 -1.5270
  638SOL    HW2 1914   2.895   2.594   0.244  0.6531  0.8630  1.0389
  639SOL     OW 1915   1.105   0.662   2.934  0.2552  0.6675 -0.9964
  639SOL    HW1 1916   1.034   0.622   2.989  0.8709  1.9540 -1.1142
  639SOL    HW2 1917   1.180   0.690   2.994 -0.5232 -0.1700  1.6129
  640SOL     OW 1918   1.987   2.016   1.745 -0.1806  0.4042  0.0360
  640SOL    HW1 1919   1.893   1.975   1.730 -1.2873  0.9972  0.5707
  640SOL    HW2 1920   2.021   1.995   1.840  2.0361  0.8811 -0.8261
  641SOL     OW 1921   2.901   3.067   0.855  0.0156 -0.1370 -0.7052
  641SOL    HW1 1922   2.937   0.019   0.947  3.7768  2.2486  2.3703
  641SOL    HW2 1923   2.945   2.979   0.830  0.2003 -0.2309  0.2549
  642SOL     OW 1924   1.210   1.034   1.711 -0.3950 -0.0898  0.3525
  642SOL    HW1 1925   1.266   1.111   1.670 -0.3079  0.7246 -2.0571
  642SOL    HW2 1926   1.123   1.011   1.662  1.2730 -3.2631  0.7118
  643SOL     OW 1927   0.667   1.819   2.519 -0.0551 -0.3079 -0.3619
  643SOL    HW1 1928   0.759   1.807   2.563  1.9260  0.1328  0.6991
  643SOL    HW2 1929   0.593   1.788   2.584 -0.9583  0.2240 -0.9866
  644SOL     OW 1930   1.279   2.571   2.453 -0.8228 -0.2987 -0.1924
  644SOL    HW1 1931   1.375   2.604   2.441  2.1417 -1.6157  0.8113
  644SOL    HW2 1932   1.251   2.617   2.539  0.4228  0.4367 -2.3433
  645SOL     OW 1933   1.616   0.895   1.706  0.3474  0.1286  0.5003
  645SOL    HW1 1934   1.605   0.994   1.731  0.5926  0.4488  0.3553
  645SOL    HW2 1935   1.524   0.848   1.704  0.9488  0.4900  3.0803
  646SOL     OW 1936   1.168   2.355   2.757  0.8402  0.0406 -0.6045
  646SOL    HW1 1937   1.172   2.456   2.744 -0.1778 -1.4755  0.1201
  646SOL    HW2 1938   1.262   2.318   2.732  0.6777  1.1301 -1.5931
  647SOL     OW 1939   1.275   2.896   0.441  0.7692 -0.4671  0.4565
  647SOL    HW1 1940   1.325   2.921   0.525  2.1168 -2.5206 -0.5203
  647SOL    HW2 1941   1.185   2.945   0.443  1.1503 -2.5036 -0.3208
  648SOL     OW 1942   2.645   2.547   1.104  0.9055  0.0379  0.1498
  648SOL    HW1 1943   2.683   2.528   1.009 -0.7802  2.1141 -1.2171
  648SOL    HW2 1944   2.593   2.469   1.137 -0.4694  2.0180 -2.1967
  649SOL     OW 1945   0.473   2.459   2.739 -0.3663  0.2851 -0.2925
  649SOL    HW1 1946   0.445   2.431   2.645  1.8088 -0.8570 -1.2639
  649SOL    HW2 1947   0.577   2.453   2.755  0.2329 -1.9740  2.3497
  650SOL     OW 1948   2.707   1.790   2.439  0.4268  0.5454  0.4396
  650SOL    HW1 1949   2.789   1.744   2.486  1.5991 -1.8105  1.4230
  650SOL    HW2 1950   2.725   1.886   2.412  2.0445 -0.3450  0.6148
  651SOL     OW 1951   2.715   2.372   2.219 -0.1910  0.0703 -0.1427
  651SOL    HW1 1952   2.738   2.334   2.124  0.6868 -3.2936 -1.1108
  651SOL    HW2 1953   2.787   2.337   2.286  2.0759 -0.4314 -0.7903
  652SOL     OW 1954   2.638   2.229   0.529  0.0001  0.5950  0.2264
  652SOL    HW1 1955   2.637   2.166   0.610 -0.2252 -0.1696 -1.7301
  652SOL    HW2 1956   2.548   2.273   0.509  0.4403  1.0539  0.8669
  653SOL     OW 1957   2.613   1.037   1.090 -0.0553  0.3317 -0.4439
  653SOL    HW1 1958   2.631   0.938   1.091  0.0927  0.9727  1.0924
  653SOL    HW2 1959   2.581   1.063   1.183  1.9255  0.2480  0.5662
  654SOL     OW 1960   0.781   0.445   2.800 -0.8565 -0.0267  0.0863
  654SOL    HW1 1961   0.746   0.357   2.838  1.2423 -2.0501 -2.9381
  654SOL    HW2 1962   0.796   0.519   2.870  2.6788  0.3596  0.7496
  655SOL     OW 1963   0.936   0.159   1.050 -0.3143  0.5490  0.7842
  655SOL    HW1 1964   1.010   0.222   1.077 -1.4625  0.1063 -3.0148
  655SOL    HW2 1965   0.877   0.138   1.130 -1.9767 -2.1780  2.4304
  656SOL     OW 1966   0.335   2.375   1.978 -0.4490 -0.9559  0.2004
  656SOL    HW1 1967   0.411   2.345   1.920 -1.0409 -0.3449 -1.2886
  656SOL    HW2 1968   0.363   2.409   2.068 -0.2940  0.1012  0.8339
  657SOL     OW 1969   2.495   0.718   0.339  0.1637  0.2245 -0.4500
  657SOL    HW1 1970   2.451   0.650   0.276 -2.6882 -1.9975  1.3273
  657SOL    HW2 1971   2.512   0.811   0.297  0.5807 -0.3024  0.8439
  658SOL     OW 1972   1.957   1.881   0.800 -0.2958  0.4976  0.0397
  658SOL    HW1 1973   1.888   1.943   0.761  0.1266 -3.2735 -0.2878
  658SOL    HW2 1974   1.920   1.823   0.877 -1.5785  0.7658 -2.1182
  659SOL     OW 1975   2.703   1.941   2.888 -0.0124 -0.2022 -0.0266
  659SOL    HW1 1976   2.737   1.860   2.942 -0.6390 -3.3278 -2.3551
  659SOL    HW2 1977   2.777   2.012   2.873  2.1466  1.6268 -1.0270
  660SOL     OW 1978   1.121   0.217   0.353  0.5597 -0.3560 -0.3485
  660SOL    HW1 1979   1.176   0.196   0.436  1.6972  0.0009  0.1387
  660SOL    HW2 1980   1.149   0.307   0.306  1.2529 -1.5063 -2.8661
  661SOL     OW 1981   1.934   0.024   3.035 -0.5766  0.0914  0.8535
  661SOL    HW1 1982   1.917   0.024   0.048 -1.8207 -0.4127 -1.6231
  661SOL    HW2 1983   2.034   0.035   3.022  1.8869  0.2334 -1.3338
  662SOL     OW 1984   0.754   2.886   0.683  0.1231 -0.2432 -0.0069
  662SOL    HW1 1985   0.788   2.976   0.648  0.5572 -1.7015  0.5153
  662SOL    HW2 1986   0.808   2.861   0.765  0.6249 -2.0249  1.6125
  663SOL     OW 1987   1.525   0.074   2.309  0.3121 -0.0617 -0.8512
  663SOL    HW1 1988   1.511   0.106   2.219  2.8099  2.0975 -0.8912
  663SOL    HW2 1989   1.476   0.137   2.379 -4.3565 -0.4602  1.2205
  664SOL     OW 1990   0.738   2.843   1.302  0.2566 -0.4108 -0.2625
  664SOL    HW1 1991   0.645   2.846   1.345  1.3124  0.0088  1.9852
  664SOL    HW2 1992   0.802   2.904   1.359  0.5862  0.2425  2.4966
  665SOL     OW 1993   0.682   2.184   1.614  0.1567  1.0091  0.4366
  665SOL    HW1 1994   0.719   2.137   1.694 -1.0362 -0.0207 -0.0430
  665SOL    HW2 1995   0.667   2.127   1.529  1.3608 -0.6510 -3.4117
  666SOL     OW 1996   0.533   3.063   2.623 -0.5004 -0.1806  0.0071
  666SOL    HW1 1997   0.573   0.075   2.627  2.1847 -0.7646  1.0785
  666SOL    HW2 1998   0.454   3.056   2.561  2.5554 -1.4888  2.6863
  667SOL     OW 1999   1.936   1.625   1.661  0.4034  0.1609 -0.2821
  667SOL    HW1 2000   1.897   1.631   1.561 -2.1844  0.1237 -1.0861
  667SOL    HW2 2001   2.031   1.656   1.669  0.9020  1.4505  2.4291
  668SOL     OW 2002   1.815   2.902   1.648 -0.7198  0.0717  0.6047
  668SOL    HW1 2003   1.778   2.814   1.693 -0.8038 -0.4514  1.6086
  668SOL    HW2 2004   1.761   2.981   1.690 -0.9102 -0.9328  0.8421
  669SOL     OW 2005   2.676   2.440   0.849  0.4678 -0.0531  0.5222
  669SOL    HW1 2006   2.611   2.365   0.885 -1.3364 -0.3608  4.1843
  669SOL    HW2 2007   2.754   2.406   0.793  0.2379 -1.1922  3.1459
  670SOL     OW 2008   1.137   2.106   2.927 -0.6619 -0.1570 -0.3609
  670SOL    HW1 2009   1.172   2.084   3.021  1.9448  1.2980 -2.2954
  670SOL    HW2 2010   1.149   2.200   2.898 -0.7256 -0.5458 -1.1618
  671SOL     OW 2011   0.829   1.105   0.524  0.3611 -0.1083 -0.5454
  671SOL    HW1 2012   0.930   1.094   0.523  0.8488  1.3813 -0.9239
  671SOL    HW2 2013   0.779   1.055   0.597  0.3583  0.9636  2.4090
  672SOL     OW 2014   2.544   0.911   2.570  0.1958  0.3339  0.0269
  672SOL    HW1 2015   2.629   0.960   2.605  0.9609 -2.7071 -1.2980
  672SOL    HW2 2016   2.561   0.878   2.480  0.5225 -0.8499  1.9396
  673SOL     OW 2017   2.579   2.092   1.643 -0.0436  0.3921 -0.2328
  673SOL    HW1 2018   2.651   2.030   1.676 -1.1922 -1.7742  0.6697
  673SOL    HW2 2019   2.488   2.058   1.672  1.3063  1.6427  1.9781
  674SOL     OW 2020   0.455   2.414   2.472 -0.0006  0.0352  0.3441
  674SOL    HW1 2021   0.412   2.484   2.416 -0.0906 -2.8943  0.2847
  674SOL    HW2 2022   0.530   2.362   2.422  0.5254 -1.3069 -1.0946
  675SOL     OW 2023   1.130   0.547   1.661  0.0779  0.3261  0.0494
  675SOL    HW1 2024   1.039   0.504   1.653  2.5291 -0.4440  1.4752
  675SOL    HW2 2025   1.182   0.543   1.571  0.8307 -2.1122 -4.0260
  676SOL     OW 2026   2.043   0.022   1.396 -0.1530  0.1348 -0.2028
  676SOL    HW1 2027   1.956   3.075   1.356 -3.5554  3.3490  2.1581
  676SOL    HW2 2028   2.030   0.106   1.448 -1.1559 -1.6894  1.8534
  677SOL     OW 2029   2.184   1.361   2.857  0.7463 -0.8147  0.0553
  677SOL    HW1 2030   2.219   1.382   2.762 -1.6356 -2.2507 -2.0680
  677SOL    HW2 2031   2.219   1.270   2.885  1.5030  0.9689 -1.7344
  678SOL     OW 2032   2.599   1.351   1.115 -0.2156 -0.0534  0.2743
  678SOL    HW1 2033   2.588   1.254   1.132 -0.0961  0.6658 -0.5145
  678SOL    HW2 2034   2.577   1.390   1.205  0.5025 -2.0110 -1.9256
  679SOL     OW 2035   2.597   0.578   0.053 -0.1070 -0.1535 -0.1205
  679SOL    HW1 2036   2.662   0.516   0.100  0.3096 -1.3743 -2.1725
  679SOL    HW2 2037   2.534   0.523   3.078 -0.9135  0.2808  2.7331
  680SOL     OW 2038   0.364   1.678   1.908 -0.1894  0.1385 -0.0918
  680SOL    HW1 2039   0.291   1.720   1.968 -1.9515  1.3265 -0.0264
  680SOL    HW2 2040   0.461   1.681   1.945 -4.1342 -0.6683 -1.5788
  681SOL     OW 2041   2.337   1.999   1.727 -0.0876  0.1926 -0.2788
  681SOL    HW1 2042   2.325   2.033   1.828  3.2033  0.5122  3.0377
  681SOL    HW2 2043   2.286   1.910   1.713  0.9779 -1.4701  0.6471
  682SOL     OW 2044   0.246   1.903   0.054 -0.2682 -0.0096  0.0018
  682SOL    HW1 2045   0.292   1.993   0.057  0.1428  1.9721 -0.4222
  682SOL    HW2 2046   0.211   1.880   0.152 -1.4873  3.5397  2.0459
  683SOL     OW 2047   3.072   2.059   1.375 -0.2050  0.2605 -0.3933
  683SOL    HW1 2048   3.026   2.044   1.467 -2.9796  1.7426  1.3899
  683SOL    HW2 2049   0.071   2.108   1.385 -2.2502 -1.4375  0.9768
  684SOL     OW 2050   2.791   1.159   2.067 -1.1387  0.5633 -0.3233
  684SOL    HW1 2051   2.748   1.246   2.063 -2.1309 -1.1697 -0.6899
  684SOL    HW2 2052   2.737   1.095   2.012  1.9266  2.5842 -1.1173
  685SOL     OW 2053   1.256   0.590   0.495  0.2316 -0.2780 -0.3605
  685SOL    HW1 2054   1.342   0.625   0.538  1.7110 -1.5200  0.2558
  685SOL    HW2 2055   1.201   0.549   0.568  2.2850  2.9264  1.6345
  686SOL     OW 2056   0.642   0.412   0.893  0.1055 -0.1811 -0.4498
  686SOL    HW1 2057   0.586   0.458   0.826  2.4609  0.9326  2.1887
  686SOL    HW2 2058   0.635   0.314   0.870 -0.6933  0.5973  2.3472
  687SOL     OW 2059   0.821   2.078   2.680  0.1759 -0.5137  0.3739
  687SOL    HW1 2060   0.730   2.095   2.635  0.8870  3.1353 -0.3687
  687SOL    HW2 2061   0.832   1.998   2.736  1.6241  2.6947 -0.8960
  688SOL     OW 2062   2.116   0.515   1.451  0.5199 -0.0759  0.1224
  688SOL    HW1 2063   2.203   0.534   1.503  2.9179 -2.0804 -0.4519
  688SOL    HW2 2064   2.139   0.507   1.352 -0.3862  1.4474 -0.1154
  689SOL     OW 2065   1.560   0.500   0.802  0.4769 -0.1204  0.2889
  689SOL    HW1 2066   1.642   0.439   0.785  1.7550 -1.5650 -1.9151
  689SOL    HW2 2067   1.559   0.569   0.726  0.7585  1.9616 -1.4281
  690SOL     OW 2068   2.655   1.553   1.314 -0.2764  0.1010  0.2256
  690SOL    HW1 2069   2.564   1.514   1.336  0.7895 -2.9285 -3.3658
  690SOL    HW2 2070   2.711   1.566   1.398 -0.6195 -0.3866 -0.9278
  691SOL     OW 2071   0.428   2.221   1.321  0.0123  0.7930 -0.1989
  691SOL    HW1 2072   0.508   2.274   1.285  0.4914 -0.1863  1.3715
  691SOL    HW2 2073   0.459   2.129   1.346 -0.4116 -0.0192  3.4413
  692SOL     OW 2074   1.425   3.068   1.596  0.1163  0.2115 -0.6038
  692SOL    HW1 2075   1.461   2.995   1.661  2.0009  1.8277  0.6307
  692SOL    HW2 2076   1.485   3.073   1.516  0.6925  1.9225 -0.9724
  693SOL     OW 2077   0.864   1.832   2.146  0.7460 -0.2233  0.1726
  693SOL    HW1 2078   0.904   1.922   2.172  0.9852  0.1851  1.1535
  693SOL    HW2 2079   0.929   1.774   2.090  0.9806 -0.6096 -0.0239
  694SOL     OW 2080   1.985   1.384   0.866 -0.0280 -0.2875  0.0677
  694SOL    HW1 2081   2.004   1.460   0.802 -1.6243  0.3332  0.6182
  694SOL    HW2 2082   1.913   1.400   0.935  2.5393 -1.7713 -0.0379
  695SOL     OW 2083   1.302   0.896   1.303  0.0185 -0.0831 -0.5242
  695SOL    HW1 2084   1.316   0.844   1.213  2.1331 -1.0974 -2.3821
  695SOL    HW2 2085   1.203   0.887   1.330  0.3756 -2.2225 -0.1389
  696SOL     OW 2086   0.280   0.087   0.497  0.0901 -0.0853 -0.3526
  696SOL    HW1 2087   0.227   0.146   0.559  1.6661  1.6668 -0.2686
  696SOL    HW2 2088   0.242   3.078   0.491  1.6655  0.1722 -0.2530
  697SOL     OW 2089   2.137   0.505   1.137 -0.4963 -0.1295 -0.3102
  697SOL    HW1 2090   2.066   0.571   1.101 -1.8743 -0.3686 -0.2536
  697SOL    HW2 2091   2.093   0.412   1.148 -1.4658 -0.5265 -2.4228
  698SOL     OW 2092   1.397   1.131   1.913 -0.4824 -0.1873 -0.5020
  698SOL    HW1 2093   1.428   1.181   2.002 -1.9664  2.2932  1.6108
  698SOL    HW2 2094   1.313   1.081   1.934 -0.3940  0.6101  0.3969
  699SOL     OW 2095   2.941   0.354   2.243 -1.0062  0.2431  0.1873
  699SOL    HW1 2096   2.841   0.353   2.258  3.6767 -0.1753  0.3691
  699SOL    HW2 2097   2.969   0.414   2.167  2.8329 -0.1870  0.8388
  700SOL     OW 2098   1.827   2.532   0.695 -0.2201  0.2534  0.2409
  700SOL    HW1 2099   1.859   2.631   0.701  1.9360 -0.1470  1.7589
  700SOL    HW2 2100   1.748   2.530   0.629 -0.3457  1.9455  0.0943
  701SOL     OW 2101   0.066   1.719   2.396  0.2847  0.1660 -1.1548
  701SOL    HW1 2102   0.117   1.803   2.376  3.4711  1.0768  0.3201
  701SOL    HW2 2103   0.129   1.638   2.394  0.3262  1.9582  2.0378
  702SOL     OW 2104   0.811   0.016   0.544 -0.1789  0.1624  0.2065
  702SOL    HW1 2105   0.854   0.094   0.591 -1.0992 -2.4609 -0.1310
  702SOL    HW2 2106   0.722   0.031   0.497  1.5654  1.1965 -2.6212
  703SOL     OW 2107   1.916   2.754   2.582 -0.3535 -0.4472 -0.2125
  703SOL    HW1 2108   2.009   2.743   2.625  1.4447  0.1127 -0.1243
  703SOL    HW2 2109   1.922   2.812   2.496 -0.0911  0.6291 -0.4488
  704SOL     OW 2110   2.765   1.991   0.111 -0.0160  0.1461 -0.5522
  704SOL    HW1 2111   2.841   2.044   0.075 -3.5019 -0.3490 -0.0739
  704SOL    HW2 2112   2.758   1.903   0.059 -0.6974 -1.0232 -2.8355
  705SOL     OW 2113   2.912   2.327   2.402 -0.1724  0.5099  0.1795
  705SOL    HW1 2114   2.976   2.288   2.336 -1.1238 -0.1174  1.8146
  705SOL    HW2 2115   2.953   2.405   2.455 -1.8393  0.8493  2.4950
  706SOL     OW 2116   2.946   3.077   0.414 -0.1281  0.0045  0.4448
  706SOL    HW1 2117   2.887   3.084   0.333 -0.3045  1.1339 -0.1684
  706SOL    HW2 2118   2.995   2.989   0.427 -0.9825  3.8550  0.9008
  707SOL     OW 2119   1.279   0.218   2.960 -0.6366 -0.1450 -0.7021
  707SOL    HW1 2120   1.262   0.224   2.862 -2.1594  0.3900  0.8510
  707SOL    HW2 2121   1.192   0.188   3.005  2.1448 -0.6506 -1.7198
  708SOL     OW 2122   0.294   2.078   1.697 -0.3748 -0.4286 -0.2462
  708SOL    HW1 2123   0.263   2.038   1.786 -0.4937 -1.4091 -1.7681
  708SOL    HW2 2124   0.365   2.023   1.655 -3.0352  2.2942 -0.0779
  709SOL     OW 2125   1.413   2.859   1.991 -0.0466  0.3084 -0.3191
  709SOL    HW1 2126   1.429   2.956   1.982 -2.0207 -1.9561  1.3555
  709SOL    HW2 2127   1.328   2.850   2.053  0.8919  2.3654  1.1363
  710SOL     OW 2128   1.519   2.610   2.694  0.5723  0.0265 -0.4812
  710SOL    HW1 2129   1.604   2.611   2.745 -0.5814  0.3838  0.4352
  710SOL    HW2 2130   1.447   2.661   2.744  1.2121 -1.1384 -1.3827
  711SOL     OW 2131   0.796   2.699   2.810  0.0694  0.1457 -0.3837
  711SOL    HW1 2132   0.870   2.719   2.871 -2.1007 -1.3837  0.5894
  711SOL    HW2 2133   0.783   2.603   2.798  0.3030  2.5645  1.0219
  712SOL     OW 2134   0.921   1.870   0.079  0.8724 -0.4102  0.2879
  712SOL    HW1 2135   0.844   1.937   0.075 -0.4423  0.3472 -1.0797
  712SOL    HW2 2136   0.882   1.780   0.119  0.7885 -0.4216 -1.0658
  713SOL     OW 2137   1.958   1.197   1.352  0.3118 -0.4749 -0.3315
  713SOL    HW1 2138   1.949   1.124   1.282 -2.2679 -1.3576  0.3266
  713SOL    HW2 2139   1.869   1.248   1.364  0.2743  1.5687  0.1328
  714SOL     OW 2140   0.975   1.199   2.086  0.3509  0.1964  0.2719
  714SOL    HW1 2141   0.922   1.182   2.002 -1.1136 -0.1587 -0.8982
  714SOL    HW2 2142   1.048   1.133   2.093 -0.0236  0.1135 -1.7337
  715SOL     OW 2143   2.721   0.394   0.212 -0.0927  0.7124 -0.3190
  715SOL    HW1 2144   2.778   0.388   0.298  2.2268  1.0805  1.8857
  715SOL    HW2 2145   2.769   0.336   0.145 -0.9403  0.2464  1.2378
  716SOL     OW 2146   0.459   2.719   1.128  0.4509 -0.4427  0.3421
  716SOL    HW1 2147   0.562   2.702   1.122 -0.7466  1.2367 -0.8728
  716SOL    HW2 2148   0.442   2.821   1.106  0.4311  3.0538 -0.5172
  717SOL     OW 2149   2.724   0.630   0.512  0.1153  0.0114 -0.5361
  717SOL    HW1 2150   2.753   0.531   0.489  2.8979 -1.8630 -0.4767
  717SOL    HW2 2151   2.655   0.664   0.446  0.3183  1.6880  0.4581
  718SOL     OW 2152   1.732   1.356   1.368 -0.0797  0.3611  1.0310
  718SOL    HW1 2153   1.683   1.392   1.453 -2.1223  0.6886  1.6944
  718SOL    HW2 2154   1.683   1.270   1.336 -0.6006  1.5211  2.1031
  719SOL     OW 2155   2.776   2.939   0.191 -0.1093  0.2870 -0.2331
  719SOL    HW1 2156   2.699   2.885   0.148  0.0400 -0.8186  0.5068
  719SOL    HW2 2157   2.847   2.877   0.226  1.5930  2.0402 -1.1751
  720SOL     OW 2158   0.957   0.433   0.936 -0.1913 -0.5577  0.1360
  720SOL    HW1 2159   0.912   0.490   1.012 -0.7658  2.1081 -1.4425
  720SOL    HW2 2160   0.890   0.357   0.911  1.0534  1.4884 -0.3158
  721SOL     OW 2161   1.901   0.268   0.897 -0.0663 -0.1699 -0.2479
  721SOL    HW1 2162   1.971   0.243   0.824 -1.2415 -0.8077 -0.4431
  721SOL    HW2 2163   1.939   0.241   0.985 -1.9875 -1.6170  2.0329
  722SOL     OW 2164   0.486   1.868   1.660 -0.0100  0.1912  0.3762
  722SOL    HW1 2165   0.459   1.788   1.717  1.4646  1.1850  1.6937
  722SOL    HW2 2166   0.586   1.879   1.649 -1.3366  0.3998  0.8288
  723SOL     OW 2167   1.212   0.057   1.312  0.3299  0.2584 -0.3281
  723SOL    HW1 2168   1.220   0.014   1.222 -0.4493 -0.3273  0.0522
  723SOL    HW2 2169   1.215   3.077   1.386 -3.2929  0.9906 -3.5863
  724SOL     OW 2170   1.772   1.851   1.716 -0.3545  0.2764  0.2568
  724SOL    HW1 2171   1.706   1.836   1.642  0.4643  0.2378  3.1563
  724SOL    HW2 2172   1.832   1.772   1.734  1.2358 -3.6368 -4.1798
  725SOL     OW 2173   1.406   2.635   1.399  0.3217  0.3999  0.3102
  725SOL    HW1 2174   1.455   2.650   1.481 -1.4085  0.5117 -1.2205
  725SOL    HW2 2175   1.395   2.532   1.394 -0.4011 -1.4194  2.7524
  726SOL     OW 2176   1.753   0.196   2.971  0.5759 -0.7608  0.2180
  726SOL    HW1 2177   1.818   0.124   3.000  0.1043  4.1294  2.2581
  726SOL    HW2 2178   1.671   0.193   3.025  0.1003 -2.5477  0.6463
  727SOL     OW 2179   1.484   2.232   0.464  0.0039  0.1647  0.4612
  727SOL    HW1 2180   1.403   2.172   0.446 -1.7135 -0.9155  1.6045
  727SOL    HW2 2181   1.564   2.194   0.412 -1.9062  1.2976  2.4301
  728SOL     OW 2182   1.738   2.674   2.256  0.5488 -0.4996 -0.1540
  728SOL    HW1 2183   1.762   2.711   2.165 -1.0565  0.8172  1.2644
  728SOL    HW2 2184   1.803   2.709   2.329  0.3463  0.6592 -0.6533
  729SOL     OW 2185   2.131   2.338   1.882  0.4103  0.4772 -0.2892
  729SOL    HW1 2186   2.170   2.301   1.796  0.4278  0.1487  1.6458
  729SOL    HW2 2187   2.192   2.331   1.963 -0.2110  0.5912 -1.4083
  730SOL     OW 2188   1.439   0.507   2.465  0.0553 -0.1790  0.3058
  730SOL    HW1 2189   1.446   0.416   2.504  1.7849  1.4872 -0.4426
  730SOL    HW2 2190   1.363   0.507   2.398  2.6243  1.2569 -0.0169
  731SOL     OW 2191   0.607   0.116   1.116 -0.4115  0.7011 -0.4141
  731SOL    HW1 2192   0.651   0.128   1.023  0.6713  1.6626  1.9412
  731SOL    HW2 2193   0.675   0.109   1.191  2.7757  1.4380  2.2151
  732SOL     OW 2194   1.626   2.806   1.244  0.1039 -0.1773 -0.1316
  732SOL    HW1 2195   1.684   2.725   1.242  1.6397  0.6998 -1.2952
  732SOL    HW2 2196   1.539   2.786   1.201 -2.4113 -4.6290  1.9612
  733SOL     OW 2197   1.501   0.758   1.412  0.4031  0.1073 -0.2147
  733SOL    HW1 2198   1.428   0.820   1.379  0.6439 -1.5607  0.3077
  733SOL    HW2 2199   1.594   0.802   1.411  1.9501  0.3597 -0.9544
  734SOL     OW 2200   2.573   2.032   0.339  0.2029  0.5201  0.3995
  734SOL    HW1 2201   2.633   2.043   0.256  0.1148 -0.1151  1.5430
  734SOL    HW2 2202   2.611   2.096   0.409  1.4574  1.0921  0.2207
  735SOL     OW 2203   0.409   0.472   0.506 -0.1965  0.3135  0.1412
  735SOL    HW1 2204   0.429   0.553   0.451 -0.2327  0.9148  1.8110
  735SOL    HW2 2205   0.356   0.405   0.454 -0.5713  0.1117  3.1139
  736SOL     OW 2206   2.210   2.283   2.667  0.7769 -0.0457  0.0576
  736SOL    HW1 2207   2.166   2.363   2.620 -0.1008  1.1261  1.1607
  736SOL    HW2 2208   2.215   2.298   2.764  1.3708  0.9858 -1.9741
  737SOL     OW 2209   1.038   2.477   1.195 -0.2217 -1.2542 -0.3864
  737SOL    HW1 2210   1.137   2.489   1.210  1.3157  0.4834  0.8909
  737SOL    HW2 2211   1.010   2.487   1.100  0.9359  2.2627  0.9093
  738SOL     OW 2212   1.422   2.606   1.960 -0.2980  0.3364 -0.6983
  738SOL    HW1 2213   1.434   2.708   1.966  0.8557  1.3027  0.5364
  738SOL    HW2 2214   1.470   2.546   2.027 -0.0972 -3.5058  0.9356
  739SOL     OW 2215   0.797   2.082   1.829  0.7029 -0.1088 -0.4761
  739SOL    HW1 2216   0.876   2.138   1.859  0.0448  3.1360  1.2349
  739SOL    HW2 2217   0.773   2.021   1.907  0.2129 -0.8274  0.8502
  740SOL     OW 2218   1.707   2.356   1.561 -0.2933  0.6868  0.3315
  740SOL    HW1 2219   1.668   2.447   1.546 -0.8704 -3.3767  1.3838
  740SOL    HW2 2220   1.806   2.353   1.526  0.5209 -3.3024  0.4590
  741SOL     OW 2221   2.340   1.686   2.980  0.2256  0.4037  0.0847
  741SOL    HW1 2222   2.252   1.648   3.014 -0.8722  0.7578  1.5430
  741SOL    HW2 2223   2.354   1.665   2.878  0.2744  0.0674 -2.0750
  742SOL     OW 2224   0.878   1.475   2.362 -0.1393 -0.2726  0.1119
  742SOL    HW1 2225   0.795   1.533   2.359  0.1717  3.6896 -0.8256
  742SOL    HW2 2226   0.843   1.384   2.330 -0.2012  0.2728 -0.6698
  743SOL     OW 2227   2.902   1.136   2.310 -0.3871 -0.0670 -0.3156
  743SOL    HW1 2228   2.911   1.058   2.370 -1.1314  3.4380 -0.5437
  743SOL    HW2 2229   2.853   1.115   2.219 -1.3640 -2.6265 -1.0851
  744SOL     OW 2230   2.291   2.342   2.106 -0.0469 -0.3204 -0.2576
  744SOL    HW1 2231   2.218   2.362   2.173  2.1408  0.1823  0.2399
  744SOL    HW2 2232   2.361   2.413   2.105 -0.9458 -1.4501 -0.0184
  745SOL     OW 2233   2.330   1.649   1.535  0.5723 -0.1768  0.3843
  745SOL    HW1 2234   2.280   1.679   1.620  1.4379 -0.5583  3.5665
  745SOL    HW2 2235   2.263   1.621   1.466  1.6427 -2.0497  1.8198
  746SOL     OW 2236   2.642   1.364   0.763  0.0952  0.4486  0.3521
  746SOL    HW1 2237   2.639   1.292   0.692  1.2995 -0.7333 -0.8726
  746SOL    HW2 2238   2.558   1.415   0.782  3.1360 -0.7097 -0.7998
  747SOL     OW 2239   1.898   2.401   0.360 -0.5277 -0.2358 -0.1485
  747SOL    HW1 2240   1.961   2.345   0.414 -2.2425 -1.6905  0.3608
  747SOL    HW2 2241   1.811   2.407   0.412  3.2516  1.2068 -1.0529
  748SOL     OW 2242   0.985   2.347   0.363  0.4603 -0.2979 -0.7247
  748SOL    HW1 2243   0.976   2.447   0.341 -3.1848  1.2551  1.2496
  748SOL    HW2 2244   1.047   2.298   0.298 -1.6548 -0.2091  1.2259
  749SOL     OW 2245   2.701   0.393   2.319 -0.6827  0.2630 -0.3020
  749SOL    HW1 2246   2.719   0.466   2.386 -2.2524  1.0966 -2.9910
  749SOL    HW2 2247   2.613   0.350   2.342  1.9919 -1.1397 -0.3217
  750SOL     OW 2248   1.676   0.084   1.484  0.0679 -0.1406  0.2569
  750SOL    HW1 2249   1.698   0.183   1.464 -1.6061 -0.1217 -0.1576
  750SOL    HW2 2250   1.723   0.015   1.425 -0.2272  1.3263 -0.1569
  751SOL     OW 2251   1.889   2.393   2.570 -0.6297 -0.8051  0.0578
  751SOL    HW1 2252   1.793   2.421   2.570  1.0698 -0.5412 -1.0646
  751SOL    HW2 2253   1.941   2.444   2.641  1.5948  1.0479  1.8319
  752SOL     OW 2254   1.728   2.006   0.460 -0.2505  0.3239  0.1841
  752SOL    HW1 2255   1.746   2.049   0.549  0.6023 -0.5005  0.6813
  752SOL    HW2 2256   1.812   1.965   0.416 -0.8266  0.9629 -0.2210
  753SOL     OW 2257   1.572   0.863   2.150 -0.6117  0.8809 -0.1172
  753SOL    HW1 2258   1.606   0.781   2.209  2.8516 -1.6531  1.9774
  753SOL    HW2 2259   1.476   0.894   2.171  0.0744  1.6817  1.1180
  754SOL     OW 2260   0.207   2.868   0.797 -0.2719  0.1395  0.2193
  754SOL    HW1 2261   0.253   2.954   0.835 -0.9638  0.1163 -0.8240
  754SOL    HW2 2262   0.107   2.869   0.816 -1.6887  0.6971 -1.1401
  755SOL     OW 2263   2.068   2.874   1.532  0.0790 -0.2354  0.2738
  755SOL    HW1 2264   2.092   2.966   1.489  0.2236  3.1688  0.4661
  755SOL    HW2 2265   1.980   2.887   1.583 -0.4778  0.0221 -0.6013
  756SOL     OW 2266   1.413   0.994   2.535  0.0053  0.2973  0.5434
  756SOL    HW1 2267   1.405   0.895   2.567 -0.5468 -1.0202  0.2340
  756SOL    HW2 2268   1.421   1.054   2.620 -0.9105  0.4967  1.1719
  757SOL     OW 2269   2.875   2.723   1.566 -0.0604 -0.0194  0.4136
  757SOL    HW1 2270   2.902   2.760   1.655  0.8386  1.6188 -1.4342
  757SOL    HW2 2271   2.774   2.732   1.554  0.6947 -0.0041 -0.3043
  758SOL     OW 2272   0.565   0.198   1.442  0.1586 -0.2138 -0.1648
  758SOL    HW1 2273   0.517   0.135   1.513 -4.8820 -0.9065  0.3416
  758SOL    HW2 2274   0.510   0.287   1.441  0.0919 -0.3335 -0.1746
  759SOL     OW 2275   2.218   1.128   0.637 -0.3485  0.0355 -0.1778
  759SOL    HW1 2276   2.288   1.203   0.635  0.4645  2.3784 -2.0676
  759SOL    HW2 2277   2.222   1.082   0.730  0.6672 -3.0216  2.4930
  760SOL     OW 2278   1.999   0.249   1.528  0.2244  0.1574 -0.8668
  760SOL    HW1 2279   1.954   0.265   1.622 -0.4344 -2.2402  2.1917
  760SOL    HW2 2280   2.053   0.331   1.498 -0.3306 -1.9020  0.0968
  761SOL     OW 2281   1.923   3.059   0.252 -0.2420  0.3895  0.5476
  761SOL    HW1 2282   2.008   0.030   0.242  0.8519 -0.6190 -0.6629
  761SOL    HW2 2283   1.944   2.963   0.216  0.5444  2.4452  0.3475
  762SOL     OW 2284   2.447   2.376   0.142 -1.1471 -0.0324 -0.2944
  762SOL    HW1 2285   2.523   2.430   0.095  3.0847  1.3141 -0.7874
  762SOL    HW2 2286   2.410   2.290   0.104 -1.5148 -0.1199 -0.6262
  763SOL     OW 2287   0.844   1.005   0.934  0.3681 -0.7751  0.4570
  763SOL    HW1 2288   0.901   1.088   0.931  2.7464  2.6749 -0.2660
  763SOL    HW2 2289   0.763   1.027   0.990  2.0808 -4.7791 -0.6950
  764SOL     OW 2290   2.630   2.318   2.905  0.4114  0.4798  0.2166
  764SOL    HW1 2291   2.534   2.344   2.869 -2.3057  0.3202  0.0793
  764SOL    HW2 2292   2.707   2.325   2.845 -0.3160  0.4074 -1.2807
  765SOL     OW 2293   0.505   0.840   2.030  0.3307  0.1982  0.2634
  765SOL    HW1 2294   0.465   0.804   2.117 -0.1114  2.2726 -1.6985
  765SOL    HW2 2295   0.500   0.768   1.957  3.1192 -2.1279 -1.0244
  766SOL     OW 2296   2.851   1.365   2.656 -0.2703 -0.2365  0.1198
  766SOL    HW1 2297   2.775   1.404   2.720 -3.0644  0.8777  1.8249
  766SOL    HW2 2298   2.821   1.372   2.558  0.5658  0.8065 -0.3079
  767SOL     OW 2299   0.151   1.786   2.081 -0.5166 -0.3517 -0.1960
  767SOL    HW1 2300   0.055   1.795   2.111  0.4121  0.4981  1.0508
  767SOL    HW2 2301   0.218   1.842   2.140  0.5645 -0.8200  2.5373
  768SOL     OW 2302   0.886   1.188   2.752 -0.0655 -0.1283 -0.2751
  768SOL    HW1 2303   0.897   1.102   2.809  1.3872 -1.1035  2.3612
  768SOL    HW2 2304   0.863   1.166   2.658  2.3761  0.9300  4.1074
  769SOL     OW 2305   1.777   2.670   2.790 -0.0930 -0.1746  0.1512
  769SOL    HW1 2306   1.818   2.717   2.709 -2.6274  1.2448 -2.0432
  769SOL    HW2 2307   1.763   2.745   2.862 -0.7315 -1.1114 -2.2033
  770SOL     OW 2308   0.173   0.423   2.252 -0.5749 -0.2041 -0.2055
  770SOL    HW1 2309   0.106   0.391   2.325 -0.6348 -1.0577 -1.3696
  770SOL    HW2 2310   0.257   0.371   2.258  0.3650  1.2435 -0.6641
  771SOL     OW 2311   0.830   2.245   1.291 -0.2880  0.2091 -0.3554
  771SOL    HW1 2312   0.861   2.331   1.337  0.6270 -0.5310 -0.1246
  771SOL    HW2 2313   0.759   2.257   1.221  1.4424 -0.3501  0.4704
  772SOL     OW 2314   0.394   0.709   2.988 -0.3394 -0.1621  0.1761
  772SOL    HW1 2315   0.352   0.694   2.896 -1.0805  0.3899  0.9288
  772SOL    HW2 2316   0.444   0.797   2.989 -0.3475 -1.0766  2.0558
  773SOL     OW 2317   2.296   1.028   1.776 -0.2628 -0.3969 -0.5806
  773SOL    HW1 2318   2.222   1.077   1.727 -0.4231  0.4487  1.8953
  773SOL    HW2 2319   2.279   1.013   1.874 -0.5177  1.1327  0.1194
  774SOL     OW 2320   1.097   1.007   0.545  0.3525 -0.8544  0.0976
  774SOL    HW1 2321   1.096   0.949   0.627  3.8462  0.7126 -2.0423
  774SOL    HW2 2322   1.121   0.950   0.464 -2.7723  0.8894  0.5703
  775SOL     OW 2323   2.152   2.795   2.731  0.1941  0.4544  0.0528
  775SOL    HW1 2324   2.252   2.774   2.739  0.5085 -3.0910 -1.9392
  775SOL    HW2 2325   2.109   2.791   2.824  0.4161  0.2633 -2.5714
  776SOL     OW 2326   2.421   2.996   2.462 -0.0420  0.7487 -0.0655
  776SOL    HW1 2327   2.339   2.996   2.522 -0.1165  0.2700  2.0427
  776SOL    HW2 2328   2.438   2.903   2.420 -0.3689 -1.8157 -2.4846
  777SOL     OW 2329   0.572   1.833   2.937 -0.0433 -0.6300 -0.0354
  777SOL    HW1 2330   0.521   1.828   2.848  0.8127  1.0170 -0.2893
  777SOL    HW2 2331   0.576   1.738   2.980 -0.6080 -0.4301 -0.6118
  778SOL     OW 2332   0.673   2.914   0.222 -0.2480 -0.0856 -0.2431
  778SOL    HW1 2333   0.584   2.952   0.250 -0.0713  0.9074 -2.2905
  778SOL    HW2 2334   0.715   2.858   0.298  2.6870 -3.1356  0.3174
  779SOL     OW 2335   3.055   1.152   3.000 -0.5635  0.2801  0.0066
  779SOL    HW1 2336   3.085   1.131   0.008 -2.2312 -1.5572 -2.1110
  779SOL    HW2 2337   2.989   1.082   2.965  1.5844 -0.2934  0.0611
  780SOL     OW 2338   2.005   0.358   2.489  0.2043 -0.5763  0.3608
  780SOL    HW1 2339   1.910   0.375   2.525  3.2696  1.6753 -0.8418
  780SOL    HW2 2340   2.016   0.261   2.473  0.5459  0.5595  3.8207
  781SOL     OW 2341   2.239   0.906   2.000  0.3368 -0.1998 -0.1107
  781SOL    HW1 2342   2.200   0.958   2.081 -0.2579 -0.6953  3.5221
  781SOL    HW2 2343   2.167   0.850   1.951  1.0919 -2.1469 -0.9413
  782SOL     OW 2344   1.468   1.734   2.273  0.0455  0.3865  0.3151
  782SOL    HW1 2345   1.437   1.790   2.195 -3.0324 -1.1293 -2.3306
  782SOL    HW2 2346   1.572   1.743   2.273  2.6571  0.9207  2.4093
  783SOL     OW 2347   1.310   2.976   1.121  0.2052 -0.6126 -0.4268
  783SOL    HW1 2348   1.302   2.901   1.188  0.9229 -0.4016 -1.5536
  783SOL    HW2 2349   1.308   2.936   1.029 -0.4071  0.9540  0.1737
  784SOL     OW 2350   1.192   0.679   2.688  0.0596  1.2487 -0.0122
  784SOL    HW1 2351   1.277   0.734   2.695  0.6754  1.9619 -1.9940
  784SOL    HW2 2352   1.153   0.638   2.775  0.7005 -1.1463  3.2785
  785SOL     OW 2353   1.827   0.415   2.705  0.4858  0.1871 -0.1190
  785SOL    HW1 2354   1.818   0.498   2.762 -1.6111 -4.3527  1.5241
  785SOL    HW2 2355   1.764   0.346   2.739 -0.7553 -2.4494  1.1124
  786SOL     OW 2356   0.023   1.244   0.590  0.0505 -0.0001  0.3625
  786SOL    HW1 2357   3.033   1.231   0.521  0.5305 -1.9954  0.0039
  786SOL    HW2 2358   3.078   1.317   0.652 -0.0638  0.0821 -0.1202
  787SOL     OW 2359   1.556   1.959   0.234  0.1333 -0.0376  0.0065
  787SOL    HW1 2360   1.560   1.988   0.137  1.7872  0.2397 -0.8925
  787SOL    HW2 2361   1.639   1.981   0.283  1.0834 -0.7006 -0.2975
  788SOL     OW 2362   1.880   1.654   1.379 -0.1911  0.2153 -0.5024
  788SOL    HW1 2363   1.785   1.623   1.350 -0.9695  2.4134 -0.3141
  788SOL    HW2 2364   1.892   1.754   1.370 -0.7100 -0.1175  0.1085
  789SOL     OW 2365   0.022   1.320   2.285 -0.2082 -0.1562 -0.4326
  789SOL    HW1 2366   3.031   1.248   2.287 -1.8560  0.7232  3.6924
  789SOL    HW2 2367   0.037   1.352   2.189 -1.9748 -0.5105  0.9517
  790SOL     OW 2368   0.658   0.090   3.069  0.4001  0.0511  0.0722
  790SOL    HW1 2369   0.621   0.111   0.077  2.2729  1.1251 -0.5351
  790SOL    HW2 2370   0.708   0.000   3.072 -1.7948  3.2103 -0.1830
  791SOL     OW 2371   0.646   0.034   2.319 -0.7325  0.7525  0.7575
  791SOL    HW1 2372   0.640   0.099   2.243  0.2881  0.2034 -1.5850
  791SOL    HW2 2373   0.709   0.064   2.396 -0.4543 -0.3026  2.2288
  792SOL     OW 2374   1.656   0.409   2.153 -0.1216 -0.1265  0.8746
  792SOL    HW1 2375   1.627   0.483   2.220  1.0695  2.5672  3.4241
  792SOL    HW2 2376   1.754   0.378   2.165  0.2984 -0.3654 -1.4909
  793SOL     OW 2377   2.661   0.845   1.557  0.5788 -0.5007 -0.6482
  793SOL    HW1 2378   2.665   0.788   1.640 -1.7415 -2.2289 -3.9048
  793SOL    HW2 2379   2.690   0.939   1.578  2.4114 -1.6348 -2.3723
  794SOL     OW 2380   0.220   0.553   1.563  0.7969 -0.1900  0.0686
  794SOL    HW1 2381   0.255   0.644   1.536 -0.2154 -0.4222  0.3900
  794SOL    HW2 2382   0.193   0.555   1.662 -3.7517  0.6716 -0.9676
  795SOL     OW 2383   2.935   1.401   0.374 -0.7073  0.5605 -0.2734
  795SOL    HW1 2384   2.954   1.480   0.436  1.8817  2.6037  1.0774
  795SOL    HW2 2385   2.869   1.331   0.408  1.6875 -0.8730  0.9050
  796SOL     OW 2386   0.331   2.611   0.320  0.5410 -0.7120 -0.0715
  796SOL    HW1 2387   0.418   2.659   0.338 -0.1058 -2.0324  0.1633
  796SOL    HW2 2388   0.280   2.591   0.409  1.0064 -1.4110  0.2989
  797SOL     OW 2389   1.987   2.491   2.797 -0.1960  0.2149 -0.3987
  797SOL    HW1 2390   2.045   2.495   2.882 -1.7941 -1.2743 -0.1696
  797SOL    HW2 2391   1.895   2.534   2.808 -2.4326 -1.7266 -1.3499
  798SOL     OW 2392   0.055   1.192   1.458 -0.1224 -0.1208 -0.1315
  798SOL    HW1 2393   3.083   1.125   1.403  1.3523  1.1465 -0.7402
  798SOL    HW2 2394   0.018   1.287   1.446  0.6892  0.4943 -0.8321
  799SOL     OW 2395   2.910   0.941   2.845 -0.0724  0.1384  0.0834
  799SOL    HW1 2396   2.949   0.895   2.760  0.1890  0.1483 -1.9945
  799SOL    HW2 2397   2.845   0.888   2.903 -1.2148 -0.3374  1.3974
  800SOL     OW 2398   2.813   1.780   0.308 -0.2303  0.8098  0.2864
  800SOL    HW1 2399   2.801   1.867   0.257 -1.3645 -2.6210 -0.2454
  800SOL    HW2 2400   2.871   1.712   0.259 -2.0177 -1.8287 -0.7387
  801SOL     OW 2401   1.688   1.100   1.041 -0.5949 -0.1235  0.2318
  801SOL    HW1 2402   1.670   1.183   0.992  0.5689  0.7349  2.1792
  801SOL    HW2 2403   1.652   1.104   1.134 -1.5224 -1.3763 -1.5673
  802SOL     OW 2404   1.013   2.018   1.502  0.0724  0.0216  0.0225
  802SOL    HW1 2405   1.069   2.027   1.418 -1.5797 -0.5672 -0.4323
  802SOL    HW2 2406   1.006   2.101   1.557  1.4991 -1.4424  0.5388
  803SOL     OW 2407   0.305   1.870   0.532 -0.8420  0.3701  0.5113
  803SOL    HW1 2408   0.394   1.866   0.587 -2.3514  1.1352  0.4356
  803SOL    HW2 2409   0.297   1.954   0.473  0.8637 -0.3357 -0.9862
  804SOL     OW 2410   0.903   2.713   1.573 -0.0467  0.1950 -0.1572
  804SOL    HW1 2411   0.975   2.735   1.641  2.0100  1.8414  2.0232
  804SOL    HW2 2412   0.818   2.763   1.598 -1.4011 -2.5445  1.1623
  805SOL     OW 2413   1.933   1.220   0.085 -0.3955 -0.4949 -0.2733
  805SOL    HW1 2414   1.936   1.151   0.013  0.6398  0.2245  0.2511
  805SOL    HW2 2415   1.887   1.305   0.048 -0.7069 -1.3665 -2.3018
  806SOL     OW 2416   1.518   0.054   1.045  0.9475  0.5596 -0.0020
  806SOL    HW1 2417   1.526   3.070   0.968  1.4249 -1.4515 -0.4944
  806SOL    HW2 2418   1.442   0.018   1.112 -1.3491 -3.4220  1.5730
  807SOL     OW 2419   2.556   2.921   2.910  0.5052 -0.0475 -0.7211
  807SOL    HW1 2420   2.508   3.003   2.948 -0.9260 -2.0393 -2.1851
  807SOL    HW2 2421   2.639   2.955   2.857  0.9470  1.0211  1.2829
  808SOL     OW 2422   0.049   1.110   0.157 -0.4716  0.0503 -0.3436
  808SOL    HW1 2423   0.126   1.052   0.150 -1.8610  0.9204  0.2245
  808SOL    HW2 2424   0.073   1.207   0.174 -0.0534 -2.2504  1.6024
  809SOL     OW 2425   2.713   0.648   2.478 -0.5237  0.5844  0.6393
  809SOL    HW1 2426   2.677   0.632   2.571  2.6763  0.9087 -0.1154
  809SOL    HW2 2427   2.642   0.685   2.416 -0.1023 -2.4694  3.0973
  810SOL     OW 2428   2.021   3.036   1.831  0.2730 -0.7293  0.1943
  810SOL    HW1 2429   1.957   3.016   1.760  3.6423  1.5317  3.2140
  810SOL    HW2 2430   2.034   2.954   1.891 -0.6517 -0.9675 -0.7869
  811SOL     OW 2431   2.643   2.502   1.855  0.1784  0.5015 -0.2677
  811SOL    HW1 2432   2.652   2.603   1.861  0.3407 -2.3280 -0.2645
  811SOL    HW2 2433   2.606   2.468   1.768  0.3975 -0.5229  1.1303
  812SOL     OW 2434   1.658   0.161   2.711 -0.5380 -0.0376 -0.4205
  812SOL    HW1 2435   1.690   0.178   2.809  0.7377 -1.2835 -0.2776
  812SOL    HW2 2436   1.643   0.062   2.698  0.7864  1.3429  1.1889
  813SOL     OW 2437   1.981   0.193   1.969 -0.0741  0.6193 -0.2661
  813SOL    HW1 2438   1.979   0.098   1.925  1.5025 -1.7974 -1.7902
  813SOL    HW2 2439   2.036   0.254   1.913 -2.1952 -2.8746  0.2075
  814SOL     OW 2440   1.886   1.142   1.842 -0.3959  0.5484  0.4621
  814SOL    HW1 2441   1.872   1.067   1.908  0.2752 -1.3471  0.0250
  814SOL    HW2 2442   1.795   1.161   1.798  2.2200 -2.3782  2.1549
  815SOL     OW 2443   0.596   0.924   0.406  0.0494 -0.1120 -0.6485
  815SOL    HW1 2444   0.516   0.986   0.428  0.0632 -1.1707  1.1064
  815SOL    HW2 2445   0.673   0.951   0.469  0.3661 -1.3591 -1.4903
  816SOL     OW 2446   2.102   1.723   2.706  0.4623 -0.3413 -0.0179
  816SOL    HW1 2447   2.055   1.675   2.631  0.8480  0.5414  1.3462
  816SOL    HW2 2448   2.201   1.707   2.707 -0.8811  0.0866  0.9703
  817SOL     OW 2449   0.202   2.925   0.532  0.0927 -0.1786 -0.3901
  817SOL    HW1 2450   0.207   2.911   0.631 -0.4497 -1.1850 -2.1207
  817SOL    HW2 2451   0.112   2.881   0.503  0.1907 -0.3640 -0.5931
  818SOL     OW 2452   2.009   0.074   2.435  0.2596 -0.3267 -0.1123
  818SOL    HW1 2453   2.078   0.025   2.488 -1.3424  2.0011 -0.4772
  818SOL    HW2 2454   1.918   0.029   2.454 -1.8414 -2.7806 -1.1778
  819SOL     OW 2455   1.123   0.800   0.368 -0.4497 -0.2844 -0.1422
  819SOL    HW1 2456   1.171   0.721   0.412  2.6738  0.3162 -2.6540
  819SOL    HW2 2457   1.033   0.768   0.330 -1.9953 -0.3238  0.0578
  820SOL     OW 2458   2.007   0.755   0.552  0.5638 -0.7595  1.3326
  820SOL    HW1 2459   1.939   0.817   0.595 -1.7872  1.6514 -0.2657
  820SOL    HW2 2460   2.089   0.805   0.527 -2.9997 -0.9619 -0.9191
  821SOL     OW 2461   2.368   2.899   0.519  0.0024 -0.2089 -0.3824
  821SOL    HW1 2462   2.344   2.985   0.470 -0.4455  0.6945  2.3389
  821SOL    HW2 2463   2.372   2.821   0.456 -2.3385 -0.2592 -1.1265
  822SOL     OW 2464   0.319   3.065   2.448  0.6526 -0.0899  0.4082
  822SOL    HW1 2465   0.266   0.043   2.387 -1.3425  1.5260 -0.6369
  822SOL    HW2 2466   0.279   2.971   2.455 -0.2697 -0.0793 -0.3376
  823SOL     OW 2467   2.857   2.210   1.660  0.3559 -0.5282 -0.3551
  823SOL    HW1 2468   2.891   2.309   1.629  2.7174  1.2718 -2.3383
  823SOL    HW2 2469   2.756   2.200   1.684 -2.1677 -0.8186  0.5254
  824SOL     OW 2470   0.615   2.898   2.038 -0.2258  0.0035 -0.2589
  824SOL    HW1 2471   0.542   2.895   2.110  0.1968 -1.2503  2.0167
  824SOL    HW2 2472   0.705   2.903   2.083 -1.1754 -2.2408  0.0039
  825SOL     OW 2473   1.463   1.584   0.414 -0.1592  0.1833 -0.2166
  825SOL    HW1 2474   1.540   1.557   0.357  0.4773  0.5110  0.9286
  825SOL    HW2 2475   1.372   1.595   0.362 -0.8475 -0.4156 -0.0942
  826SOL     OW 2476   1.721   0.422   0.017 -0.2777 -0.0725 -0.0362
  826SOL    HW1 2477   1.748   0.331   3.068 -1.5326  0.9119 -2.5314
  826SOL    HW2 2478   1.796   0.464   0.070 -0.6643  4.6362 -0.3810
  827SOL     OW 2479   0.221   1.585   1.334  0.4493 -0.3808  0.3411
  827SOL    HW1 2480   0.180   1.681   1.350 -1.6198  1.6189  1.5584
  827SOL    HW2 2481   0.226   1.557   1.237 -1.5054 -0.2597  0.8028
  828SOL     OW 2482   2.061   1.128   1.632  0.0210  0.3515  0.0614
  828SOL    HW1 2483   2.014   1.125   1.538  1.0739  0.2687 -4.0060
  828SOL    HW2 2484   1.990   1.123   1.709 -2.8421 -1.5413  1.3347
  829SOL     OW 2485   0.269   2.095   0.350 -0.2095  0.2583 -0.0977
  829SOL    HW1 2486   0.169   2.070   0.344  0.0966  0.5109 -1.6477
  829SOL    HW2 2487   0.287   2.175   0.294 -0.7955 -0.3169  0.4134
  830SOL     OW 2488   0.962   0.839   0.728 -0.3127  0.0284  0.3001
  830SOL    HW1 2489   1.047   0.795   0.767  0.8848 -0.2150 -0.7635
  830SOL    HW2 2490   0.912   0.891   0.798  2.0864 -0.2808  0.5598
  831SOL     OW 2491   2.799   1.739   3.036 -0.5084  0.5595 -0.2488
  831SOL    HW1 2492   2.886   1.713   2.986  0.5485  2.0811 -0.4960
  831SOL    HW2 2493   2.781   1.684   0.036 -2.5517  0.4981 -0.3696
  832SOL     OW 2494   1.172   2.803   0.206  0.0631  0.1467  0.2347
  832SOL    HW1 2495   1.107   2.873   0.171  0.5861 -3.0905  3.0311
  832SOL    HW2 2496   1.223   2.835   0.288  3.3257 -0.8896 -2.4601
  833SOL     OW 2497   1.031   0.328   2.041  0.2081 -0.5719  0.2112
  833SOL    HW1 2498   1.015   0.313   2.141 -1.0288  0.3472 -3.1832
  833SOL    HW2 2499   1.114   0.382   2.027  0.0401 -2.8948 -0.9977
  834SOL     OW 2500   0.076   0.928   1.002 -0.1569 -0.3134 -0.0018
  834SOL    HW1 2501   3.078   0.929   0.944 -0.6785 -3.1537 -0.3286
  834SOL    HW2 2502   0.093   0.833   1.042  0.1514 -0.6274  1.0090
  835SOL     OW 2503   2.515   0.250   1.850 -0.6571  0.1076 -0.1099
  835SOL    HW1 2504   2.520   0.329   1.915 -1.3987  2.0647 -0.3473
  835SOL    HW2 2505   2.436   0.188   1.865 -0.1292  1.1086 -0.3378
  836SOL     OW 2506   0.426   2.157   0.763  0.4421 -0.0609  0.1275
  836SOL    HW1 2507   0.496   2.229   0.792  3.0174  1.2997  1.9166
  836SOL    HW2 2508   0.418   2.087   0.837  0.1497  2.5985  1.7578
  837SOL     OW 2509   1.978   1.677   2.397 -0.0948 -0.0313  0.0708
  837SOL    HW1 2510   2.008   1.581   2.418  0.2968 -0.7223  0.2042
  837SOL    HW2 2511   2.051   1.730   2.353 -2.7785  1.4857 -0.6996
  838SOL     OW 2512   0.315   1.164   1.363 -0.1121  0.1913  0.6313
  838SOL    HW1 2513   0.297   1.118   1.275  0.5084 -2.6121  1.5730
  838SOL    HW2 2514   0.226   1.181   1.413 -0.0491  0.9809 -0.4941
  839SOL     OW 2515   0.147   0.299   0.823 -0.4443  0.7616  0.0437
  839SOL    HW1 2516   0.114   0.266   0.730  0.3525 -0.6586 -1.0439
  839SOL    HW2 2517   0.234   0.347   0.800  0.9637 -0.8203 -0.4248
  840SOL     OW 2518   2.959   0.382   2.661  0.6717  0.6526  0.2953
  840SOL    HW1 2519   3.013   0.315   2.601  1.4309  0.9145 -0.4638
  840SOL    HW2 2520   3.014   0.468   2.673  1.2465  2.2857 -0.8279
  841SOL     OW 2521   0.251   2.744   0.090 -0.3086 -0.2260  0.2902
  841SOL    HW1 2522   0.304   2.709   0.011 -1.8068  1.6859  0.1000
  841SOL    HW2 2523   0.281   2.686   0.172  0.0416  0.1154  1.4542
  842SOL     OW 2524   0.961   3.078   0.851 -0.2593 -0.0220 -0.4017
  842SOL    HW1 2525   0.928   2.979   0.862 -2.3506 -2.3541  2.8328
  842SOL    HW2 2526   0.944   0.054   0.934 -2.8951  0.5225  1.8153
  843SOL     OW 2527   0.009   1.357   2.781 -0.3044  0.5476 -0.3979
  843SOL    HW1 2528   0.020   1.271   2.833 -2.8075 -0.2835  0.0701
  843SOL    HW2 2529   3.001   1.359   2.737 -0.2748 -0.5629  1.2329
  844SOL     OW 2530   0.849   2.435   2.374 -0.3401 -0.3155  0.1897
  844SOL    HW1 2531   0.879   2.409   2.469  0.6239  1.3014 -0.7928
  844SOL    HW2 2532   0.768   2.385   2.347 -0.5196  2.2462  0.2355
  845SOL     OW 2533   2.196   2.572   2.568  0.2220 -0.1201 -0.3105
  845SOL    HW1 2534   2.169   2.632   2.488 -0.1040 -0.1546  1.3640
  845SOL    HW2 2535   2.181   2.619   2.656 -0.6429  1.8712 -0.8398
  846SOL     OW 2536   1.712   1.489   2.565  0.2718  0.3459  0.1951
  846SOL    HW1 2537   1.733   1.471   2.664  1.1952  1.3749  2.5823
  846SOL    HW2 2538   1.752   1.412   2.513 -0.0452 -0.1601 -0.0507
  847SOL     OW 2539   2.805   0.198   0.045 -0.3207  0.2492 -0.3921
  847SOL    HW1 2540   2.895   0.244   0.047 -0.2090 -2.1303 -1.1038
  847SOL    HW2 2541   2.818   0.112   3.077  0.4282  1.9864  0.1242
  848SOL     OW 2542   0.259   0.948   0.211 -0.4862  0.0316 -0.2350
  848SOL    HW1 2543   0.236   0.871   0.277  0.9742  0.1748  1.8476
  848SOL    HW2 2544   0.300   1.024   0.263 -4.4447  0.2738  0.7170
  849SOL     OW 2545   1.251   0.155   2.317  0.6351  0.3239  0.2333
  849SOL    HW1 2546   1.176   0.088   2.307 -0.7504 -0.5376 -1.7173
  849SOL    HW2 2547   1.306   0.156   2.233 -1.8725 -0.3771  1.0941
  850SOL     OW 2548   0.382   1.086   0.437 -0.0497  0.2940  0.4831
  850SOL    HW1 2549   0.415   1.178   0.412 -1.0127 -0.3871  2.7447
  850SOL    HW2 2550   0.343   1.089   0.532  0.0779  0.5689  1.2331
  851SOL     OW 2551   0.503   1.308   0.335  0.4720  0.1060  0.3689
  851SOL    HW1 2552   0.549   1.391   0.369 -0.9038 -0.7570  0.8227
  851SOL    HW2 2553   0.557   1.267   0.261  2.2735  0.9629  1.5037
  852SOL     OW 2554   1.242   1.337   1.761 -0.2551  0.2298 -0.4298
  852SOL    HW1 2555   1.305   1.284   1.821  0.3133 -1.4153 -1.0625
  852SOL    HW2 2556   1.286   1.353   1.672  0.5595 -1.3336 -1.1848
  853SOL     OW 2557   2.603   1.476   0.435 -0.9339 -0.0036 -0.4901
  853SOL    HW1 2558   2.617   1.532   0.520  0.5541  0.5872 -0.3198
  853SOL    HW2 2559   2.638   1.523   0.349  0.8878  0.5371 -3.3723
  854SOL     OW 2560   1.292   1.169   2.355 -0.4965 -0.6325 -0.2065
  854SOL    HW1 2561   1.330   1.100   2.424 -0.0298 -2.5557 -0.7628
  854SOL    HW2 2562   1.292   1.268   2.393  1.3374 -1.0567  0.2262
  855SOL     OW 2563   0.324   2.661   2.898 -0.5561 -0.3674  0.5571
  855SOL    HW1 2564   0.341   2.612   2.811 -0.8194  1.1810 -1.6828
  855SOL    HW2 2565   0.253   2.732   2.884  0.9577 -1.3168  0.2397
  856SOL     OW 2566   1.135   0.996   1.976 -0.5470  0.1902 -0.1905
  856SOL    HW1 2567   1.162   1.035   1.886  1.7206  1.9571 -0.7489
  856SOL    HW2 2568   1.069   0.919   1.958  1.1504 -2.3326 -1.0268
  857SOL     OW 2569   1.135   0.668   2.194 -0.7243  0.1282 -0.0596
  857SOL    HW1 2570   1.201   0.634   2.124 -1.6602  1.0748  0.0320
  857SOL    HW2 2571   1.043   0.656   2.155  1.8575 -2.7396 -0.0119
  858SOL     OW 2572   0.076   0.887   1.639  0.2660 -0.4836 -0.6847
  858SOL    HW1 2573   0.099   0.973   1.693 -1.7687  0.3802  0.8902
  858SOL    HW2 2574   0.159   0.848   1.594 -0.4979 -1.4656 -1.8958
  859SOL     OW 2575   2.641   2.953   0.833 -0.2056  0.3166 -0.0977
  859SOL    HW1 2576   2.733   2.989   0.809 -0.8074 -1.0669  0.2505
  859SOL    HW2 2577   2.635   2.849   0.813 -0.2420 -1.6604  0.7181
  860SOL     OW 2578   1.752   0.357   0.674 -0.1259 -0.0226 -0.2383
  860SOL    HW1 2579   1.713   0.284   0.612 -0.7596 -2.3897  0.0692
  860SOL    HW2 2580   1.798   0.315   0.755  0.7052 -0.1048 -0.1442
  861SOL     OW 2581   1.536   0.670   1.042  0.1569  0.3827 -0.1548
  861SOL    HW1 2582   1.440   0.692   1.060  0.6331  0.0271 -0.7731
  861SOL    HW2 2583   1.547   0.606   0.966  1.7030  0.2894 -2.8363
  862SOL     OW 2584   1.378   2.900   2.377 -0.3047  0.1690  0.0354
  862SOL    HW1 2585   1.437   2.821   2.405  0.5215 -1.0644  0.1929
  862SOL    HW2 2586   1.437   2.977   2.357 -0.0208 -2.1707  2.8352
  863SOL     OW 2587   3.035   2.826   0.854 -0.2455 -0.5867 -0.7702
  863SOL    HW1 2588   2.986   2.807   0.940  2.8121  0.1327 -1.7713
  863SOL    HW2 2589   3.026   2.748   0.789  1.0055 -1.9981 -0.8069
  864SOL     OW 2590   2.346   0.001   2.215 -0.1738  0.2311  0.7864
  864SOL    HW1 2591   2.359   3.050   2.305 -4.0518  0.2629 -2.1411
  864SOL    HW2 2592   2.259   0.059   2.209  1.4352  1.4040  0.1702
  865SOL     OW 2593   1.085   1.461   2.171 -0.1907 -0.0657  0.4484
  865SOL    HW1 2594   1.046   1.378   2.121  0.0617  1.5944 -2.4909
  865SOL    HW2 2595   1.058   1.463   2.266  1.6549 -1.1127 -2.0485
  866SOL     OW 2596   2.063   2.706   1.149 -0.8016 -0.3820  0.2583
  866SOL    HW1 2597   1.986   2.719   1.079  0.3207  1.1720 -0.2377
  866SOL    HW2 2598   2.138   2.654   1.106  0.0115  2.1191  0.4179
  867SOL     OW 2599   2.359   2.751   0.949 -0.1323  0.6568 -0.3517
  867SOL    HW1 2600   2.403   2.723   0.862  0.7451 -0.1192  1.2212
  867SOL    HW2 2601   2.349   2.667   1.007  0.4770 -2.2463  0.0767
  868SOL     OW 2602   2.962   1.973   1.625  0.7139  0.3242  0.4345
  868SOL    HW1 2603   2.898   1.912   1.578  1.0039 -1.6132  0.2659
  868SOL    HW2 2604   2.918   2.065   1.646 -0.0302  3.4090 -0.5494
  869SOL     OW 2605   1.878   2.079   2.164  0.2346  0.3957 -0.0344
  869SOL    HW1 2606   1.856   2.104   2.260 -0.1302  3.1978 -2.0054
  869SOL    HW2 2607   1.798   2.030   2.118  0.7631 -1.6597  1.6023
  870SOL     OW 2608   1.398   1.154   0.851 -0.5628 -0.2814  0.3571
  870SOL    HW1 2609   1.357   1.184   0.760  0.5460 -1.7066  1.3219
  870SOL    HW2 2610   1.491   1.198   0.861 -2.0169  3.0038  0.9501
  871SOL     OW 2611   2.945   1.869   2.158 -0.8545  0.2559  0.1969
  871SOL    HW1 2612   2.961   1.939   2.227  0.6210 -2.5439 -1.0817
  871SOL    HW2 2613   2.934   1.778   2.206 -2.8187 -0.5961 -2.6218
  872SOL     OW 2614   1.275   1.400   2.511  0.0322  0.0574  0.1197
  872SOL    HW1 2615   1.186   1.433   2.548  1.0921 -1.7860  0.6182
  872SOL    HW2 2616   1.342   1.474   2.504 -0.0776  0.2360  0.2187
  873SOL     OW 2617   0.872   1.168   1.835  0.0225  0.6116 -0.0048
  873SOL    HW1 2618   0.783   1.197   1.789  0.2002  0.5287 -1.2527
  873SOL    HW2 2619   0.956   1.205   1.795  2.5052 -3.2464  2.7107
  874SOL     OW 2620   1.741   0.930   1.449 -0.6747  0.7824  0.3299
  874SOL    HW1 2621   1.831   0.878   1.434 -0.7368 -3.3611  0.1023
  874SOL    HW2 2622   1.701   0.919   1.542 -0.8239 -1.3173 -0.8207
  875SOL     OW 2623   3.004   0.356   0.091  0.1536 -0.2433  0.7056
  875SOL    HW1 2624   3.073   0.303   0.143  0.6510  1.3668 -1.4381
  875SOL    HW2 2625   3.010   0.454   0.125  1.5086  0.8012  2.1721
  876SOL     OW 2626   0.897   1.165   0.194  0.0879  0.0960 -0.5258
  876SOL    HW1 2627   0.935   1.154   0.291  0.6176 -0.5685  0.3832
  876SOL    HW2 2628   0.962   1.213   0.138 -4.5655 -0.7312 -0.6578
  877SOL     OW 2629   2.454   2.580   0.753  0.3789  0.4539 -0.5957
  877SOL    HW1 2630   2.504   2.504   0.800 -1.0004  0.8302 -1.0637
  877SOL    HW2 2631   2.518   2.639   0.701  1.0768  2.0423  0.6077
  878SOL     OW 2632   1.959   1.881   0.361  0.2341  0.2051  0.1469
  878SOL    HW1 2633   2.033   1.940   0.392 -0.3755  3.1671 -0.2405
  878SOL    HW2 2634   1.996   1.808   0.296 -1.0433  0.3722 -1.5371
  879SOL     OW 2635   2.891   1.655   1.893  0.3488  0.2052  0.4850
  879SOL    HW1 2636   2.986   1.630   1.865  0.7303  1.0204  0.7645
  879SOL    HW2 2637   2.886   1.654   1.992  1.8894 -0.2922 -3.1458
  880SOL     OW 2638   0.424   2.039   1.042 -0.2996 -0.6304  0.0295
  880SOL    HW1 2639   0.365   2.113   1.081  1.3614  0.5518  1.7611
  880SOL    HW2 2640   0.406   1.952   1.097 -0.6450 -2.7645  3.4239
  881SOL     OW 2641   1.063   0.129   1.827  0.0577  0.4800 -0.0138
  881SOL    HW1 2642   1.146   0.153   1.771 -2.4066 -0.6032 -3.2076
  881SOL    HW2 2643   1.052   0.199   1.900  0.8082 -0.2002 -1.2982
  882SOL     OW 2644   2.313   0.943   1.141  0.0282 -0.0223  0.6266
  882SOL    HW1 2645   2.325   0.982   1.046  0.7828 -0.2529 -3.6521
  882SOL    HW2 2646   2.377   0.994   1.203  1.2374  1.8729 -3.5191
  883SOL     OW 2647   1.687   0.038   1.753  0.5177  0.2428 -0.2420
  883SOL    HW1 2648   1.650   0.071   1.668  1.7730 -0.1746  2.4837
  883SOL    HW2 2649   1.616   0.041   1.826  0.8978 -0.6274 -0.4976
  884SOL     OW 2650   2.933   3.068   1.889 -0.0581  0.1168 -0.7396
  884SOL    HW1 2651   2.965   0.007   1.982 -0.7754 -0.6101  0.7433
  884SOL    HW2 2652   2.865   0.051   1.857  0.1688 -0.3705  0.2432
  885SOL     OW 2653   1.332   1.517   2.915 -0.6356  0.0405 -0.4503
  885SOL    HW1 2654   1.413   1.573   2.945 -0.9625  0.8069 -0.5228
  885SOL    HW2 2655   1.246   1.567   2.927  1.7853 -2.7013  3.9407
  886SOL     OW 2656   2.037   0.377   2.885  0.0065 -0.0541  0.0503
  886SOL    HW1 2657   2.011   0.370   2.984 -1.4696  1.6025  1.0117
  886SOL    HW2 2658   1.960   0.362   2.825  0.7402  1.3248  3.3294
  887SOL     OW 2659   1.164   2.973   1.544 -0.1771  0.1655 -0.1424
  887SOL    HW1 2660   1.241   3.026   1.585  2.2022 -0.2850  1.3172
  887SOL    HW2 2661   1.152   2.887   1.595 -1.7586  1.1501  3.6655
  888SOL     OW 2662   1.781   1.647   2.206 -0.5108 -0.2046 -0.1453
  888SOL    HW1 2663   1.814   1.575   2.145  2.2382  5.0584  0.4800
  888SOL    HW2 2664   1.855   1.668   2.272  0.6395 -2.3292 -0.3881
  889SOL     OW 2665   1.980   2.312   1.237  0.0480  0.3861  0.2752
  889SOL    HW1 2666   1.950   2.269   1.325  0.4589  0.4397  2.3649
  889SOL    HW2 2667   2.065   2.366   1.256 -0.1948  0.5719  0.2909
  890SOL     OW 2668   1.325   1.732   1.039 -0.4114  0.9033 -0.0771
  890SOL    HW1 2669   1.365   1.802   1.102  0.0375  0.0748 -0.2916
  890SOL    HW2 2670   1.313   1.771   0.944 -1.0354  1.0143  0.6831
  891SOL     OW 2671   2.526   1.240   0.321  0.0209 -0.1181 -0.4544
  891SOL    HW1 2672   2.491   1.256   0.227 -0.7270  1.8366  3.6883
  891SOL    HW2 2673   2.559   1.325   0.376  1.3585 -0.0506 -0.0156
  892SOL     OW 2674   2.352   1.315   0.119  0.3420  0.4657  0.4085
  892SOL    HW1 2675   2.270   1.267   0.153 -1.3888 -1.5498 -1.5201
  892SOL    HW2 2676   2.364   1.413   0.143  1.2435  1.1293  1.4038
  893SOL     OW 2677   1.983   2.362   1.514  0.6201  0.0177  0.0122
  893SOL    HW1 2678   2.033   2.448   1.500 -0.1135 -4.6324  0.0491
  893SOL    HW2 2679   2.044   2.300   1.563  1.2983  1.1965 -2.3527
  894SOL     OW 2680   2.595   2.757   0.601 -0.4055 -0.3549 -0.2587
  894SOL    HW1 2681   2.529   2.824   0.560 -0.8491  0.6383 -0.8549
  894SOL    HW2 2682   2.617   2.683   0.532 -1.0887 -2.3386 -1.7814
  895SOL     OW 2683   2.802   2.614   2.750 -0.0211  0.3319 -0.2859
  895SOL    HW1 2684   2.803   2.698   2.693 -2.8596  0.7800 -1.1094
  895SOL    HW2 2685   2.737   2.541   2.719 -1.9283 -2.2950  0.3388
  896SOL     OW 2686   2.193   3.026   2.604 -0.2727 -0.2016  0.0842
  896SOL    HW1 2687   2.196   0.020   2.670 -1.5967  0.4236 -1.2607
  896SOL    HW2 2688   2.165   2.936   2.658 -2.0378  0.2416  2.2800
  897SOL     OW 2689   0.623   1.684   1.971 -0.4459  0.9026 -0.2391
  897SOL    HW1 2690   0.681   1.626   1.910 -1.9128 -0.4549  0.0162
  897SOL    HW2 2691   0.681   1.729   2.043 -0.9810  1.9500  0.7965
  898SOL     OW 2692   2.549   1.646   1.691  0.3334  0.0320 -0.2734
  898SOL    HW1 2693   2.593   1.733   1.712 -1.0245 -1.1275 -1.4530
  898SOL    HW2 2694   2.479   1.654   1.617  1.8213 -1.1195  0.1531
  899SOL     OW 2695   1.651   2.625   1.513  0.2721 -0.1944  0.0327
  899SOL    HW1 2696   1.672   2.714   1.555  2.7131 -0.0283 -0.8462
  899SOL    HW2 2697   1.696   2.605   1.425  0.5700 -0.1609  1.8757
  900SOL     OW 2698   1.200   1.049   2.980 -0.0085  0.0471  0.7668
  900SOL    HW1 2699   1.135   1.006   2.918 -3.2099  1.4008  0.3208
  900SOL    HW2 2700   1.195   1.002   3.072  0.0636  0.9953  1.1079
  901SOL     OW 2701   0.765   1.265   2.261  0.5152  0.0607 -0.3419
  901SOL    HW1 2702   0.700   1.197   2.222  1.8397  1.4838  0.4356
  901SOL    HW2 2703   0.850   1.267   2.205 -0.0950 -1.6456 -0.3388
  902SOL     OW 2704   2.880   2.227   0.387  0.2316 -0.7992 -0.1974
  902SOL    HW1 2705   2.804   2.185   0.441  0.5903  1.4855 -0.1498
  902SOL    HW2 2706   2.954   2.156   0.375 -0.3614 -0.1410 -2.6640
  903SOL     OW 2707   2.562   1.267   1.901  0.0928  0.1627  0.3452
  903SOL    HW1 2708   2.601   1.291   1.807  1.5832  0.4178 -2.3478
  903SOL    HW2 2709   2.527   1.173   1.899  0.4764  1.5909  0.1689
  904SOL     OW 2710   1.707   0.778   0.134 -0.1009  0.0128 -0.1439
  904SOL    HW1 2711   1.769   0.739   0.060  1.1928 -0.3091 -1.6113
  904SOL    HW2 2712   1.740   0.865   0.171 -2.8488  1.2017 -0.8162
  905SOL     OW 2713   2.219   2.414   1.320  0.0808 -0.0873 -0.1728
  905SOL    HW1 2714   2.248   2.462   1.409  0.5744  0.7694  3.6514
  905SOL    HW2 2715   2.245   2.317   1.325 -0.6001  0.7102  0.8633
  906SOL     OW 2716   1.573   2.218   2.868  0.3920 -0.7959  0.4347
  906SOL    HW1 2717   1.514   2.232   2.786  0.6591 -1.4556  0.8132
  906SOL    HW2 2718   1.674   2.219   2.846 -1.0540  1.1479  4.2551
  907SOL     OW 2719   0.857   2.454   0.941 -0.4906 -0.2077  0.1831
  907SOL    HW1 2720   0.884   2.360   0.907 -0.6119 -1.4027  0.2362
  907SOL    HW2 2721   0.884   2.525   0.873 -1.3130  1.9625  2.5608
  908SOL     OW 2722   0.888   2.894   2.144  0.5819  0.0250 -0.0570
  908SOL    HW1 2723   0.910   2.823   2.219 -0.1728  0.6649  0.5774
  908SOL    HW2 2724   0.888   2.856   2.054  1.1876 -1.6344 -0.7755
  909SOL     OW 2725   1.813   0.281   1.742 -0.3963 -0.0717  0.0538
  909SOL    HW1 2726   1.779   0.190   1.770 -0.9196 -0.7178  0.4689
  909SOL    HW2 2727   1.765   0.352   1.800  1.5536 -0.1575  0.1869
  910SOL     OW 2728   1.144   0.562   2.449  0.2024 -0.5062 -0.3449
  910SOL    HW1 2729   1.183   0.619   2.522  2.0131  1.9003 -0.9698
  910SOL    HW2 2730   1.136   0.620   2.362 -1.6170 -0.8137 -3.3095
  911SOL     OW 2731   3.022   0.636   0.175 -0.0403  0.2606  0.0720
  911SOL    HW1 2732   2.982   0.697   0.245 -0.8582  0.2321 -0.3229
  911SOL    HW2 2733   0.034   0.657   0.164  0.4208  2.1640 -1.5752
  912SOL     OW 2734   3.010   2.587   2.935  0.0279 -0.4936 -0.0178
  912SOL    HW1 2735   2.938   2.594   2.861 -0.6883  0.1978  1.6807
  912SOL    HW2 2736   3.022   2.675   2.985 -0.7779  0.3279 -0.0575
  913SOL     OW 2737   2.825   2.177   2.753 -0.3242  0.7227 -0.0277
  913SOL    HW1 2738   2.735   2.164   2.700  0.9070 -0.4873  2.9134
  913SOL    HW2 2739   2.905   2.141   2.698  0.1650 -0.5010 -0.5986
  914SOL     OW 2740   1.578   1.777   1.524 -0.3947  0.3622  0.5118
  914SOL    HW1 2741   1.526   1.858   1.511 -2.2114 -0.0587  0.1830
  914SOL    HW2 2742   1.608   1.736   1.431 -1.3018  1.7054  1.5782
  915SOL     OW 2743   0.196   2.727   2.127  0.0480  0.1061 -0.0831
  915SOL    HW1 2744   0.122   2.680   2.174  3.2808  0.2511 -1.2294
  915SOL    HW2 2745   0.278   2.699   2.176 -0.3079  2.2658  1.0333
  916SOL     OW 2746   0.430   1.436   1.395  0.4574  0.2410  0.4460
  916SOL    HW1 2747   0.360   1.509   1.387  0.4235  0.1531 -0.5620
  916SOL    HW2 2748   0.390   1.348   1.414 -1.4603  3.4022 -1.5404
  917SOL     OW 2749   2.450   0.078   3.015 -0.6084 -0.1500 -0.1414
  917SOL    HW1 2750   2.384   0.135   3.070 -1.4183  0.3516 -0.6818
  917SOL    HW2 2751   2.529   0.136   2.977 -0.0184 -0.4427 -1.0206
  918SOL     OW 2752   1.455   2.316   2.287  0.5789 -0.2079  0.1343
  918SOL    HW1 2753   1.353   2.324   2.289 -2.7862 -2.9788  0.2727
  918SOL    HW2 2754   1.490   2.391   2.226  0.4163  0.2823  0.7886
  919SOL     OW 2755   1.691   2.403   1.823 -0.4319  0.0882 -0.2622
  919SOL    HW1 2756   1.685   2.386   1.723 -0.4437  0.3370  1.6713
  919SOL    HW2 2757   1.764   2.350   1.866  1.1500  0.2838  0.2652
  920SOL     OW 2758   0.785   0.979   2.939  0.3620 -0.4208  0.3057
  920SOL    HW1 2759   0.711   0.970   2.870 -1.5562  1.6095 -4.5038
  920SOL    HW2 2760   0.747   0.945   3.027 -1.6242  1.1729 -2.7228
  921SOL     OW 2761   2.906   0.860   2.393 -0.9194 -0.4845 -0.3261
  921SOL    HW1 2762   2.841   0.793   2.414  1.0434  1.9212 -0.5810
  921SOL    HW2 2763   2.964   0.828   2.315 -1.2245 -0.4323  0.2196
  922SOL     OW 2764   0.678   1.818   0.310 -1.3959 -0.3375 -0.5233
  922SOL    HW1 2765   0.762   1.839   0.360  2.5579 -1.6268 -2.4170
  922SOL    HW2 2766   0.635   1.904   0.281 -0.0941 -2.1226 -3.0121
  923SOL     OW 2767   0.482   1.040   1.684  0.1728 -0.6415 -0.5814
  923SOL    HW1 2768   0.543   0.966   1.710 -0.5344  1.6952 -0.0071
  923SOL    HW2 2769   0.487   1.054   1.584 -2.2609  0.9129 -0.8295
  924SOL     OW 2770   1.294   2.992   2.839  0.2261  0.1271  0.1752
  924SOL    HW1 2771   1.275   2.993   2.736 -3.1647  0.5895 -0.1956
  924SOL    HW2 2772   1.253   3.077   2.882 -1.3417  2.6667 -0.3145
  925SOL     OW 2773   2.442   1.399   1.379 -0.2521 -0.0686 -0.0432
  925SOL    HW1 2774   2.348   1.384   1.331 -1.7007 -0.0673  1.6370
  925SOL    HW2 2775   2.429   1.391   1.481  1.5163 -0.9983 -0.3253
  926SOL     OW 2776   2.117   0.370   1.841 -0.1986  0.1088  0.7976
  926SOL    HW1 2777   2.183   0.440   1.876 -0.7336 -2.5781  0.4013
  926SOL    HW2 2778   2.102   0.377   1.740  0.5871  2.0781 -1.1372
  927SOL     OW 2779   2.566   2.437   1.583  0.0528  0.0768  0.3243
  927SOL    HW1 2780   2.621   2.408   1.503  2.6415 -0.7514 -2.7933
  927SOL    HW2 2781   2.480   2.483   1.548 -1.3095  1.4792 -0.6299
  928SOL     OW 2782   0.286   0.932   2.460 -0.3490 -0.0475  0.4606
  928SOL    HW1 2783   0.238   0.992   2.523 -0.8806  0.9735  1.3326
  928SOL    HW2 2784   0.338   0.986   2.392 -1.1172 -1.0892  3.1090
  929SOL     OW 2785   2.463   0.018   0.706  0.0698  0.1953  0.2973
  929SOL    HW1 2786   2.522   3.056   0.776 -0.7993 -0.5936 -0.3819
  929SOL    HW2 2787   2.398   3.042   0.659 -0.7836  1.7639 -0.1875
  930SOL     OW 2788   2.743   3.006   1.605 -0.1218 -0.2454 -0.6270
  930SOL    HW1 2789   2.710   2.913   1.601  1.4045  0.5427  1.6419
  930SOL    HW2 2790   2.782   3.042   1.512  0.4106  0.4452  0.1832
  931SOL     OW 2791   2.058   0.940   0.264 -0.1972  0.1564 -0.0199
  931SOL    HW1 2792   1.960   0.950   0.272  5.0290 -0.9167  0.1507
  931SOL    HW2 2793   2.088   0.864   0.202 -0.5147  0.9808  0.0860
  932SOL     OW 2794   2.303   1.379   1.610 -0.0263  0.0093 -0.0777
  932SOL    HW1 2795   2.209   1.334   1.616 -2.9097 -0.0230 -0.2553
  932SOL    HW2 2796   2.293   1.473   1.575  1.1081 -1.3916 -1.5485
  933SOL     OW 2797   2.930   2.276   1.176  0.4326 -0.9503 -0.3904
  933SOL    HW1 2798   2.972   2.366   1.190  1.1184 -1.7030  1.8285
  933SOL    HW2 2799   2.944   2.221   1.259 -0.9214  1.0320 -3.0230
  934SOL     OW 2800   0.583   2.014   1.381  0.2121 -0.4520 -0.1354
  934SOL    HW1 2801   0.657   1.998   1.313  0.3634 -1.2025  0.8597
  934SOL    HW2 2802   0.547   1.931   1.417  0.7179  1.0632 -0.9931
  935SOL     OW 2803   2.635   1.401   2.107  0.0144  0.5750  0.1032
  935SOL    HW1 2804   2.599   1.344   2.032  0.3439 -0.6295  3.3844
  935SOL    HW2 2805   2.594   1.492   2.094 -1.5070 -0.6274  0.8968
  936SOL     OW 2806   2.500   1.611   1.995 -0.2969 -0.7868 -0.4618
  936SOL    HW1 2807   2.524   1.704   2.026  2.1024 -2.8733  0.1826
  936SOL    HW2 2808   2.518   1.604   1.898  0.1286  1.3273  3.3686
  937SOL     OW 2809   2.175   1.336   2.167  0.3610  0.1961 -0.1755
  937SOL    HW1 2810   2.105   1.364   2.238 -0.0764  0.0977  0.1708
  937SOL    HW2 2811   2.201   1.412   2.110  0.6964 -1.2222 -1.1918
  938SOL     OW 2812   0.951   2.291   2.624  0.0474 -0.1805  1.1832
  938SOL    HW1 2813   0.934   2.194   2.648  1.9446 -1.5521  0.7699
  938SOL    HW2 2814   1.023   2.325   2.685 -1.5855 -2.1525 -1.9012
  939SOL     OW 2815   2.388   0.933   3.070  0.1169  0.1825  0.1608
  939SOL    HW1 2816   2.451   0.882   3.005 -0.4641 -0.3781 -1.1331
  939SOL    HW2 2817   2.435   0.968   0.065  1.7841  0.4280 -0.6082
  940SOL     OW 2818   1.233   1.774   0.789 -0.2720 -0.4100 -0.0236
  940SOL    HW1 2819   1.281   1.708   0.729 -0.6275 -0.7774  0.8794
  940SOL    HW2 2820   1.143   1.730   0.819 -2.1437  0.9676  1.2713
  941SOL     OW 2821   0.959   2.672   2.292 -0.6557  0.1080 -0.3126
  941SOL    HW1 2822   1.064   2.667   2.282  0.9908  0.5976  0.4929
  941SOL    HW2 2823   0.923   2.583   2.310  1.6251  4.0575 -1.0400
  942SOL     OW 2824   0.613   2.293   0.324 -0.4570 -0.1979 -0.2405
  942SOL    HW1 2825   0.629   2.386   0.283 -0.1360 -0.1809  1.5285
  942SOL    HW2 2826   0.669   2.285   0.406 -2.4394  1.9545 -2.3301
  943SOL     OW 2827   1.728   2.666   1.805 -0.1286 -0.2458  0.0755
  943SOL    HW1 2828   1.695   2.567   1.812  1.3887 -2.0923  2.2409
  943SOL    HW2 2829   1.829   2.664   1.811 -1.7005 -3.8885  1.0296
  944SOL     OW 2830   1.105   1.679   2.879  0.2753  0.1840  0.1257
  944SOL    HW1 2831   1.148   1.753   2.823 -0.1059  0.4459 -0.4677
  944SOL    HW2 2832   1.024   1.711   2.928  1.1583 -3.8744  1.4731
  945SOL     OW 2833   3.009   2.608   0.647  0.0695  0.3628 -0.0676
  945SOL    HW1 2834   2.958   2.532   0.691  0.5043 -0.1874  3.5030
  945SOL    HW2 2835   3.076   2.574   0.575  4.1857 -0.3688 -0.8429
  946SOL     OW 2836   0.901   1.737   2.650 -0.2516 -0.1775  0.5386
  946SOL    HW1 2837   0.887   1.783   2.736  0.6617  1.7207 -2.4606
  946SOL    HW2 2838   0.980   1.675   2.650  1.6126 -1.6328  0.3330
  947SOL     OW 2839   2.768   0.153   1.745 -0.5628 -0.7297  0.5109
  947SOL    HW1 2840   2.766   0.066   1.695  1.8180  2.1826 -0.2262
  947SOL    HW2 2841   2.675   0.199   1.760  0.1644  1.6636 -1.0048
  948SOL     OW 2842   0.108   1.919   0.905 -0.1368  0.5310  0.1077
  948SOL    HW1 2843   0.096   2.009   0.951 -0.5958  0.5276  0.1637
  948SOL    HW2 2844   0.198   1.873   0.936  1.6860  2.2240  2.2430
  949SOL     OW 2845   0.976   0.792   1.767 -0.1204 -0.3307 -0.9347
  949SOL    HW1 2846   1.050   0.739   1.716 -0.3763 -0.8156 -1.3596
  949SOL    HW2 2847   0.939   0.870   1.712 -1.6987  0.9402  0.2325
  950SOL     OW 2848   2.995   0.994   1.297 -0.1306  0.1372 -0.5215
  950SOL    HW1 2849   3.062   1.002   1.218  0.4552  0.3593 -1.5009
  950SOL    HW2 2850   2.913   0.936   1.273  0.3307  1.4654  2.1399
  951SOL     OW 2851   0.696   1.669   2.305  0.2775 -0.1394 -0.4691
  951SOL    HW1 2852   0.670   1.730   2.382 -0.2141 -1.6983 -3.5693
  951SOL    HW2 2853   0.771   1.709   2.247 -0.4289 -0.7948 -0.3122
  952SOL     OW 2854   1.455   2.346   0.727  0.3702 -0.1845  0.4129
  952SOL    HW1 2855   1.464   2.302   0.633  0.8187  1.3708 -2.5923
  952SOL    HW2 2856   1.388   2.299   0.790 -1.7827 -4.0918  0.0442
  953SOL     OW 2857   0.952   0.603   0.306  0.1981 -0.3000 -0.5505
  953SOL    HW1 2858   0.962   0.504   0.298  1.2998  0.7379 -3.0267
  953SOL    HW2 2859   0.879   0.639   0.245 -2.8060 -0.1802  0.7127
  954SOL     OW 2860   2.043   0.912   1.217  0.2248  0.6851 -0.5458
  954SOL    HW1 2861   2.142   0.919   1.220  0.6180  1.6554 -1.5837
  954SOL    HW2 2862   2.004   0.970   1.139  1.1245 -1.2985 -3.8373
  955SOL     OW 2863   2.336   1.385   0.580 -0.9723  0.2687  0.2182
  955SOL    HW1 2864   2.250   1.414   0.529 -0.5874  1.6474  2.2007
  955SOL    HW2 2865   2.412   1.428   0.529 -3.4623  1.7744  0.8952
  956SOL     OW 2866   0.783   0.320   1.813 -0.3765 -0.0495 -0.0011
  956SOL    HW1 2867   0.847   0.320   1.892 -1.0280  0.9819  2.6240
  956SOL    HW2 2868   0.833   0.320   1.727 -0.3169  0.4842 -0.2076
  957SOL     OW 2869   1.976   0.217   1.157 -0.1249 -0.1348 -0.4883
  957SOL    HW1 2870   1.917   0.230   1.239  1.3594 -0.7367 -0.7216
  957SOL    HW2 2871   2.046   0.146   1.183  1.8078 -1.6165 -1.1885
  958SOL     OW 2872   0.226   2.254   0.609 -0.3886 -0.2452 -0.3601
  958SOL    HW1 2873   0.233   2.207   0.519  1.1966 -1.3505 -3.0801
  958SOL    HW2 2874   0.295   2.220   0.679  1.8552 -2.7076  1.6105
  959SOL     OW 2875   2.025   1.382   1.857  0.4892  0.0551 -0.0274
  959SOL    HW1 2876   2.123   1.373   1.890 -0.6639  0.7590  0.2623
  959SOL    HW2 2877   1.985   1.294   1.821  0.4791  0.1428  1.6322
  960SOL     OW 2878   0.020   1.876   3.013 -0.0678  0.5296  0.1250
  960SOL    HW1 2879   0.106   1.877   3.070  2.1654 -1.1552  2.8827
  960SOL    HW2 2880   0.013   1.784   2.971  1.6582 -1.1865  0.5067
  961SOL     OW 2881   0.583   1.662   1.158 -0.3647  0.0716  0.5035
  961SOL    HW1 2882   0.597   1.564   1.156 -0.5155  1.7605  1.8901
  961SOL    HW2 2883   0.652   1.709   1.107 -0.0584 -0.9071  1.3579
  962SOL     OW 2884   0.869   1.444   0.846 -0.3652  0.3463 -0.0685
  962SOL    HW1 2885   0.802   1.413   0.776  1.9815 -0.4091  1.7575
  962SOL    HW2 2886   0.917   1.365   0.890  1.1265  2.0007 -2.0690
  963SOL     OW 2887   1.110   2.185   2.379  0.1105  0.6422 -0.1692
  963SOL    HW1 2888   1.105   2.082   2.403  0.0777 -1.9095  1.8861
  963SOL    HW2 2889   1.045   2.230   2.440  1.0693 -3.6452 -1.0919
  964SOL     OW 2890   0.255   2.974   2.004 -0.3785 -0.1000 -0.1934
  964SOL    HW1 2891   0.203   2.972   1.917  0.7116  0.6947  0.1434
  964SOL    HW2 2892   0.255   2.885   2.056  1.2803 -0.1865  3.1309
  965SOL     OW 2893   0.732   2.321   3.031  0.0914  0.6167 -0.0422
  965SOL    HW1 2894   0.822   2.339   3.074 -0.3300 -1.4246  1.7096
  965SOL    HW2 2895   0.704   2.232   3.067 -1.0269  2.3903  1.9745
  966SOL     OW 2896   2.970   1.612   0.165  0.1658  0.2388 -0.2934
  966SOL    HW1 2897   2.878   1.567   0.159  0.8608  1.5761 -0.5490
  966SOL    HW2 2898   3.044   1.541   0.166  1.7793 -2.2508 -0.1506
  967SOL     OW 2899   2.192   2.544   3.007 -0.2242  0.1940 -0.3323
  967SOL    HW1 2900   2.222   2.447   2.992 -2.2911  0.5168 -0.0023
  967SOL    HW2 2901   2.171   2.555   0.021 -0.6161  2.1141 -0.4016
  968SOL     OW 2902   2.166   2.947   0.833 -0.0578 -0.9068 -0.2259
  968SOL    HW1 2903   2.075   2.899   0.830  1.7106  2.7595  0.7340
  968SOL    HW2 2904   2.238   2.899   0.889  0.5500 -0.0719 -1.6528
  969SOL     OW 2905   0.221   1.075   1.811  0.0685 -0.0954 -0.0218
  969SOL    HW1 2906   0.210   1.042   1.910  1.8687 -0.4995  4.0996
  969SOL    HW2 2907   0.319   1.067   1.787 -2.7457  1.6681 -0.0696
  970SOL     OW 2908   1.738   1.268   0.491 -0.0798  0.9124  0.4442
  970SOL    HW1 2909   1.802   1.235   0.567 -0.9335 -0.5456  1.2559
  970SOL    HW2 2910   1.705   1.193   0.422 -2.9323 -0.6143  0.4009
  971SOL     OW 2911   2.598   2.747   1.588 -0.2878  0.5759  0.0727
  971SOL    HW1 2912   2.575   2.750   1.689  0.8507 -0.7700  1.9913
  971SOL    HW2 2913   2.515   2.764   1.531  0.1218  1.6479  0.1111
  972SOL     OW 2914   2.800   0.093   1.331  0.2995 -0.7765  0.4294
  972SOL    HW1 2915   2.724   0.041   1.280 -0.4738  0.8287 -2.9051
  972SOL    HW2 2916   2.757   0.174   1.366 -0.1470 -0.7345 -3.3229
  973SOL     OW 2917   0.274   0.573   2.756 -0.1383 -0.1068 -0.0744
  973SOL    HW1 2918   0.318   0.628   2.681 -1.4265 -1.2086 -0.1281
  973SOL    HW2 2919   0.171   0.585   2.769 -1.2353 -1.3342  1.6523
  974SOL     OW 2920   2.448   0.954   2.134 -0.2893 -0.0203  0.1913
  974SOL    HW1 2921   2.381   0.937   2.059  0.7552 -1.5067 -0.2197
  974SOL    HW2 2922   2.421   1.033   2.190  0.5047  0.8126 -1.5619
  975SOL     OW 2923   0.974   0.281   1.607  0.3312  0.0545  0.2631
  975SOL    HW1 2924   1.026   0.311   1.525  1.7466 -1.5157  3.3257
  975SOL    HW2 2925   1.013   0.209   1.662  0.2527 -0.3693  0.0979
  976SOL     OW 2926   1.080   1.613   1.530 -0.1628  0.3667 -0.4230
  976SOL    HW1 2927   1.137   1.592   1.449  0.4238 -0.4177  0.5724
  976SOL    HW2 2928   0.986   1.637   1.499  1.3870 -1.2064  1.7084
  977SOL     OW 2929   0.960   2.970   0.078 -0.5646 -0.6010  0.5800
  977SOL    HW1 2930   0.981   3.038   0.003 -2.3689  1.2402 -2.6163
  977SOL    HW2 2931   0.882   2.993   0.142 -5.2047  0.8192  3.1681
  978SOL     OW 2932   2.351   1.160   2.275 -0.5648  0.0862 -0.0987
  978SOL    HW1 2933   2.331   1.158   2.381 -3.0525  0.5171  3.0930
  978SOL    HW2 2934   2.300   1.234   2.224 -0.2970  1.0706 -2.7061
  979SOL     OW 2935   1.472   0.401   1.691  0.3812 -0.0573 -0.0978
  979SOL    HW1 2936   1.557   0.429   1.743 -1.4758 -0.1929  1.8257
  979SOL    HW2 2937   1.458   0.455   1.604  0.4123  1.0596 -0.3696
  980SOL     OW 2938   1.679   1.579   1.820 -0.0531  0.6153 -0.2326
  980SOL    HW1 2939   1.707   1.632   1.735 -1.7064  1.3534 -2.2587
  980SOL    HW2 2940   1.601   1.619   1.863  0.5866 -0.6815 -3.1473
  981SOL     OW 2941   2.254   0.856   1.516 -0.2926 -0.4534 -0.1264
  981SOL    HW1 2942   2.149   0.842   1.504 -0.2583  2.4531 -0.1102
  981SOL    HW2 2943   2.280   0.928   1.578  0.2992 -0.5401 -1.6373
  982SOL     OW 2944   0.670   0.200   2.822  0.5285 -0.1320  0.1271
  982SOL    HW1 2945   0.596   0.241   2.764  0.3122  1.0940 -2.9064
  982SOL    HW2 2946   0.634   0.158   2.908 -0.5539 -0.6454  2.1735
  983SOL     OW 2947   2.185   0.600   2.890  0.1257 -0.5230  0.1308
  983SOL    HW1 2948   2.112   0.526   2.899 -3.2026  0.1897  2.4638
  983SOL    HW2 2949   2.185   0.654   2.978 -0.4764 -0.2813  0.0917
  984SOL     OW 2950   0.798   0.090   2.073  0.4414  0.2431  0.1435
  984SOL    HW1 2951   0.865   0.160   2.090 -1.4685  1.8538 -1.9058
  984SOL    HW2 2952   0.845   3.081   2.067  1.1894 -3.1903  0.9482
  985SOL     OW 2953   1.448   1.853   2.011 -0.2848 -0.5627 -0.1962
  985SOL    HW1 2954   1.541   1.895   2.028  2.0289  0.3066 -0.5726
  985SOL    HW2 2955   1.449   1.783   1.935 -1.7801  0.6344 -2.0012
  986SOL     OW 2956   2.321   2.922   1.859  0.3495 -0.4433  0.1428
  986SOL    HW1 2957   2.385   2.938   1.786 -2.4163  0.1693  4.0407
  986SOL    HW2 2958   2.308   3.011   1.908 -0.5966  3.5339 -2.7078
  987SOL     OW 2959   2.200   1.325   1.276  0.1385  0.0365 -0.0436
  987SOL    HW1 2960   2.184   1.352   1.179  1.7626  0.6318 -3.6847
  987SOL    HW2 2961   2.118   1.282   1.318  0.6595  0.3250  0.2973
  988SOL     OW 2962   2.501   1.881   2.072 -0.0797 -0.6370  0.2618
  988SOL    HW1 2963   2.584   1.940   2.076  0.4246  0.9933  2.0629
  988SOL    HW2 2964   2.425   1.941   2.037 -1.8367  1.8770  1.0685
  989SOL     OW 2965   1.214   2.620   3.076 -1.0017 -0.1114 -0.0481
  989SOL    HW1 2966   1.204   2.690   0.068  0.7996 -0.9140  3.1746
  989SOL    HW2 2967   1.225   2.527   0.021  0.2052  2.0652  0.3316
  990SOL     OW 2968   1.841   1.034   2.970 -0.4821  0.1124 -0.6489
  990SOL    HW1 2969   1.896   1.081   2.901  2.9392  0.5097  1.9231
  990SOL    HW2 2970   1.768   0.975   2.922 -1.2041 -0.5470 -1.6624
  991SOL     OW 2971   1.051   0.494   0.675 -0.0134  0.4966  0.1687
  991SOL    HW1 2972   1.001   0.564   0.619 -1.7909  1.1183  1.0104
  991SOL    HW2 2973   1.018   0.510   0.768  0.5009 -1.3443 -1.7071
  992SOL     OW 2974   2.453   0.712   1.415  0.0630 -0.1306 -0.4737
  992SOL    HW1 2975   2.521   0.766   1.472  1.0808  0.8180  0.6650
  992SOL    HW2 2976   2.369   0.766   1.423  1.7974  0.4668 -1.7523
  993SOL     OW 2977   2.400   0.762   1.802  0.5608 -0.5291 -0.0391
  993SOL    HW1 2978   2.350   0.729   1.722  1.6959  2.6989  0.7590
  993SOL    HW2 2979   2.379   0.861   1.819 -1.3314  2.4650 -1.3474
  994SOL     OW 2980   0.467   1.746   2.669  0.1193 -0.6075 -0.1711
  994SOL    HW1 2981   0.389   1.798   2.619 -1.3132 -0.7005  0.3672
  994SOL    HW2 2982   0.435   1.650   2.689 -2.0505 -0.0405  0.7634
  995SOL     OW 2983   1.996   1.178   2.779 -0.1679  0.1298  0.5626
  995SOL    HW1 2984   2.090   1.204   2.808  0.3390 -0.2803  0.1473
  995SOL    HW2 2985   1.995   1.123   2.691  0.1629 -1.0262  1.5176
  996SOL     OW 2986   2.361   1.701   0.355 -0.1294  0.0693 -0.2104
  996SOL    HW1 2987   2.303   1.627   0.402 -0.3987  0.1007  1.1969
  996SOL    HW2 2988   2.390   1.771   0.421  0.5388 -0.2256 -2.1658
  997SOL     OW 2989   2.233   0.454   2.216  0.2030  0.9060  1.0072
  997SOL    HW1 2990   2.177   0.518   2.159  3.8715 -0.6252 -0.1905
  997SOL    HW2 2991   2.194   0.355   2.215 -1.5703 -2.4735 -1.0092
  998SOL     OW 2992   2.616   1.147   0.583  0.1925 -0.3945 -0.2789
  998SOL    HW1 2993   2.573   1.154   0.491  0.1978 -1.3179  0.3515
  998SOL    HW2 2994   2.610   1.047   0.610 -2.6145  3.1021 -2.2468
  999SOL     OW 2995   2.955   2.031   0.664  0.0329 -0.3325 -0.2959
  999SOL    HW1 2996   2.991   2.113   0.711 -0.0043  1.2554  0.8369
  999SOL    HW2 2997   3.023   1.958   0.637  1.3039 -1.8287 -0.2786
 1000SOL     OW 2998   0.812   0.826   2.287  0.1322  0.2037 -0.5327
 1000SOL    HW1 2999   0.879   0.817   2.365 -2.0378 -0.8008 -1.1619
 1000SOL    HW2 3000   0.723   0.804   2.324  1.7790 -0.5287 -1.7557
   3.08505   3.08505   3.08505
