1000 SPC/Fw water molecules t= 219.00000 step= 219000
 3000
    1SOL     OW    1   0.059   2.819   0.727  0.2952 -0.6454  0.0699
    1SOL    HW1    2   0.026   2.758   0.805  1.1916  1.0505  0.4181
    1SOL    HW2    3   0.067   2.914   0.757  0.1749 -0.4952  0.6598
    2SOL     OW    4   2.000   1.599   1.885  0.1177  0.0941  0.0231
    2SOL    HW1    5   2.009   1.699   1.913  1.6546  0.0201 -0.3944
    2SOL    HW2    6   2.035   1.527   1.950  2.3427 -3.8979 -1.8013
    3SOL     OW    7   1.627   2.233   2.244  0.3951  0.1884  0.2970
    3SOL    HW1    8   1.579   2.308   2.294 -1.1264 -2.6107 -0.0726
    3SOL    HW2    9   1.664   2.165   2.310  1.8816  0.3303  1.3669
    4SOL     OW   10   2.112   2.105   2.348 -0.2918  0.2596 -0.1578
    4SOL    HW1   11   2.080   2.201   2.358 -0.1068  2.1269 -1.7329
    4SOL    HW2   12   2.054   2.051   2.414  1.5895  1.3720  0.5262
    5SOL     OW   13   1.346   0.607   1.550 -0.0068 -0.0163 -0.2851
    5SOL    HW1   14   1.387   0.698   1.518 -3.8201 -2.4269  4.1936
    5SOL    HW2   15   1.330   0.612   1.651  1.5960  2.1058 -0.6505
    6SOL     OW   16   2.606   0.462   3.048  0.2305  0.1398  0.1388
    6SOL    HW1   17   2.616   0.376   0.002  0.9232  1.5809  1.4344
    6SOL    HW2   18   2.663   0.456   2.962 -0.3637 -1.3807 -0.7319
    7SOL     OW   19   0.457   1.607   1.367 -0.0288  0.0820  0.4119
    7SOL    HW1   20   0.481   1.508   1.351 -1.2740  0.0627  2.8501
    7SOL    HW2   21   0.526   1.670   1.328  0.3759  0.0174  0.9492
    8SOL     OW   22   1.044   0.582   0.932  0.3893 -0.5754 -0.0909
    8SOL    HW1   23   1.097   0.498   0.960 -1.3150 -2.5601  0.2587
    8SOL    HW2   24   1.042   0.649   1.007  1.0291  0.0691 -2.4989
    9SOL     OW   25   1.306   0.424   2.542  0.8132  0.2840 -0.1177
    9SOL    HW1   26   1.353   0.380   2.625  1.7489 -2.1119  0.1556
    9SOL    HW2   27   1.366   0.402   2.466 -0.6770 -0.4200  1.4332
   10SOL     OW   28   0.777   2.618   0.018  0.1726 -0.0613  0.0491
   10SOL    HW1   29   0.861   2.562   0.004  0.7051  1.6288  0.3547
   10SOL    HW2   30   0.791   2.721   0.034 -0.8901  3.4487  0.0893
   11SOL     OW   31   0.707   1.219   0.014  0.3042  0.1839 -0.1344
   11SOL    HW1   32   0.795   1.208   3.063  0.1501  0.5469  0.8813
   11SOL    HW2   33   0.636   1.158   3.073  1.5634  1.8723 -0.7133
   12SOL     OW   34   0.247   0.260   1.571  0.1999  0.1838 -0.3468
   12SOL    HW1   35   0.292   0.350   1.593 -0.4803  0.5018 -0.2118
   12SOL    HW2   36   0.276   0.193   1.640  0.5792 -1.3835 -1.1126
   13SOL     OW   37   1.081   0.022   0.322  0.4794  0.6650  0.2571
   13SOL    HW1   38   1.062   0.062   0.231  2.1697  0.0593 -3.6109
   13SOL    HW2   39   1.169   0.047   0.362  0.7140 -1.9746 -0.7427
   14SOL     OW   40   1.103   2.414   1.243 -0.6224 -0.0955  0.1756
   14SOL    HW1   41   1.011   2.404   1.197 -1.3334 -0.3162 -1.6981
   14SOL    HW2   42   1.181   2.386   1.188 -0.3978 -0.7424  1.7665
   15SOL     OW   43   2.686   1.181   1.829  0.2659 -0.2469 -0.2857
   15SOL    HW1   44   2.690   1.147   1.734 -1.9186 -0.4245 -0.9422
   15SOL    HW2   45   2.768   1.152   1.880 -2.7456 -1.0085  0.6002
   16SOL     OW   46   1.596   3.046   3.022 -0.0405  0.3965 -0.5545
   16SOL    HW1   47   1.558   0.033   3.070  0.1946  2.6471  0.9244
   16SOL    HW2   48   1.681   3.062   2.977 -3.2580 -2.1756  2.3194
   17SOL     OW   49   0.951   0.104   1.190  0.1663 -0.2405  0.3564
   17SOL    HW1   50   0.901   0.044   1.250  2.7317 -0.8645  0.0182
   17SOL    HW2   51   0.982   0.050   1.109  2.4917 -0.6378  0.6098
   18SOL     OW   52   1.158   0.608   0.213  0.1379  0.2016  0.3145
   18SOL    HW1   53   1.223   0.533   0.221 -0.2404  2.3151  2.8089
   18SOL    HW2   54   1.189   0.695   0.269 -1.9967 -1.0683  0.7624
   19SOL     OW   55   2.150   2.034   0.020 -0.5410  0.2533  0.0084
   19SOL    HW1   56   2.225   2.105   3.093 -0.8544  0.9291  0.6763
   19SOL    HW2   57   2.139   2.017   0.118 -1.1514  1.5023 -0.0515
   20SOL     OW   58   2.032   1.616   1.600  0.7437 -0.0280 -0.2078
   20SOL    HW1   59   1.982   1.695   1.565  0.3236 -2.5623 -0.2631
   20SOL    HW2   60   2.038   1.607   1.700 -0.2646  1.1387 -1.5720
   21SOL     OW   61   0.917   1.109   2.909 -0.3079  0.3895  0.4761
   21SOL    HW1   62   0.876   1.129   2.818 -2.6112  1.6550 -0.2111
   21SOL    HW2   63   1.012   1.145   2.926  0.0110 -0.5369 -2.2801
   22SOL     OW   64   2.050   3.081   1.204 -0.0662 -0.1985  0.3423
   22SOL    HW1   65   1.959   0.030   1.225 -1.7951 -1.1808 -0.5429
   22SOL    HW2   66   2.020   2.994   1.164 -3.5812 -2.1435  1.8810
   23SOL     OW   67   3.012   0.619   1.659 -0.0720  0.0344 -0.5889
   23SOL    HW1   68   3.089   0.661   1.711  2.9196  0.1800  1.5379
   23SOL    HW2   69   3.002   0.660   1.565 -0.2991 -2.2254 -3.0988
   24SOL     OW   70   2.374   2.469   1.188  0.4097  0.2535  0.5317
   24SOL    HW1   71   2.342   2.450   1.094  1.4111  1.2289  0.8800
   24SOL    HW2   72   2.447   2.543   1.186 -0.4430 -0.8658 -2.1707
   25SOL     OW   73   1.858   2.846   2.589 -0.2941 -0.3461  0.2420
   25SOL    HW1   74   1.852   2.755   2.630 -0.6836  1.7141 -0.4364
   25SOL    HW2   75   1.882   2.839   2.490  0.8735 -1.2905  2.1550
   26SOL     OW   76   1.462   2.792   0.305  0.7641 -0.2834  0.3858
   26SOL    HW1   77   1.492   2.726   0.373 -0.5090  1.1639 -1.7116
   26SOL    HW2   78   1.402   2.737   0.250  0.6098 -1.8024 -1.2097
   27SOL     OW   79   0.360   1.652   2.638  0.3355 -0.6857  0.0049
   27SOL    HW1   80   0.261   1.676   2.645 -0.4301 -0.4359 -1.4273
   27SOL    HW2   81   0.416   1.737   2.634 -0.3657 -1.8677  1.5643
   28SOL     OW   82   2.977   1.167   1.519 -0.2506  0.6932 -0.5415
   28SOL    HW1   83   2.973   1.244   1.455  0.9633 -0.8906  1.9869
   28SOL    HW2   84   3.016   1.187   1.612 -0.4573  0.0551  0.8660
   29SOL     OW   85   2.675   2.445   2.047  0.5809 -0.1006 -0.7832
   29SOL    HW1   86   2.762   2.421   2.090 -0.1044  0.9997  0.1973
   29SOL    HW2   87   2.677   2.525   1.981 -2.8799  1.1694  0.4375
   30SOL     OW   88   1.515   0.159   0.080  0.1195 -0.7469  0.4623
   30SOL    HW1   89   1.437   0.209   0.040  0.9935 -0.6126  1.3119
   30SOL    HW2   90   1.577   0.231   0.121  0.1083  2.5676  1.7240
   31SOL     OW   91   2.748   2.654   1.868  0.8895  0.1163 -0.4280
   31SOL    HW1   92   2.839   2.700   1.883  3.0454  0.7659 -0.7229
   31SOL    HW2   93   2.686   2.707   1.806 -3.8546  1.2630  1.7874
   32SOL     OW   94   1.136   1.484   1.429 -0.5025 -0.1745 -0.4348
   32SOL    HW1   95   1.114   1.578   1.464 -1.6370 -2.4233  0.5291
   32SOL    HW2   96   1.226   1.479   1.380 -2.5161 -2.4184  0.9964
   33SOL     OW   97   0.162   2.754   2.860 -0.3437 -0.1929  0.4429
   33SOL    HW1   98   0.204   2.667   2.824 -0.7022 -1.6907 -1.0331
   33SOL    HW2   99   0.063   2.739   2.851 -0.6978 -0.0102 -3.4589
   34SOL     OW  100   1.822   0.008   0.833  0.0536 -0.2592  0.2797
   34SOL    HW1  101   1.824   3.007   0.794  0.3851 -1.8529 -3.9759
   34SOL    HW2  102   1.912   0.033   0.874 -1.2303 -0.2555 -3.2040
   35SOL     OW  103   2.083   0.121   0.872 -0.1270 -0.2022 -0.5596
   35SOL    HW1  104   2.058   0.101   0.777 -0.8339  1.9996  2.0749
   35SOL    HW2  105   2.172   0.077   0.900  0.9343  0.9601  1.8584
   36SOL     OW  106   1.862   2.800   2.312  0.3473  0.3733 -0.0840
   36SOL    HW1  107   1.928   2.737   2.270 -0.4293  0.4728 -1.2983
   36SOL    HW2  108   1.820   2.865   2.246 -0.7030 -2.6879  3.5221
   37SOL     OW  109   1.105   2.584   2.158 -0.0008  0.4726 -0.1848
   37SOL    HW1  110   1.085   2.547   2.066  1.5326  0.5771  1.5930
   37SOL    HW2  111   1.038   2.554   2.227  2.8904  0.4104  0.0686
   38SOL     OW  112   2.823   2.931   2.747 -0.1083  0.2609 -0.2663
   38SOL    HW1  113   2.769   2.856   2.707  0.6254  2.7918  1.3990
   38SOL    HW2  114   2.776   2.978   2.822  0.8312 -2.7256 -0.3126
   39SOL     OW  115   2.275   1.295   1.903 -0.2666 -0.4549  0.5676
   39SOL    HW1  116   2.245   1.275   1.808 -0.0012  2.1487  0.3725
   39SOL    HW2  117   2.206   1.262   1.967 -0.2448 -0.3263 -1.1161
   40SOL     OW  118   0.151   3.012   2.756 -0.6104 -0.1550 -0.1629
   40SOL    HW1  119   0.199   3.068   2.829  1.5037  2.1032  2.3857
   40SOL    HW2  120   0.161   2.916   2.782 -0.3192  3.4069  0.9239
   41SOL     OW  121   1.659   0.599   0.819  0.1904  0.4681 -0.0864
   41SOL    HW1  122   1.604   0.682   0.800  0.1582 -0.0104  1.5930
   41SOL    HW2  123   1.623   0.522   0.762 -0.6180 -3.1655  1.4882
   42SOL     OW  124   0.435   0.901   1.429  0.3648  0.1425  0.5176
   42SOL    HW1  125   0.503   0.950   1.368  0.7100  0.0056 -0.0282
   42SOL    HW2  126   0.348   0.892   1.380  0.7193  1.7321  1.8411
   43SOL     OW  127   2.662   1.429   2.507  0.0106  0.6485  0.2317
   43SOL    HW1  128   2.582   1.365   2.499  0.1771 -1.4994  1.2580
   43SOL    HW2  129   2.649   1.475   2.596 -3.2087  0.2617 -2.7767
   44SOL     OW  130   3.071   2.810   0.466  0.6395 -0.3081 -0.3394
   44SOL    HW1  131   0.001   2.911   0.459  0.2838  1.2424  0.7396
   44SOL    HW2  132   3.085   2.782   0.561  1.0614  0.1400  2.6365
   45SOL     OW  133   0.447   2.592   1.921  0.4075  0.2231 -0.0036
   45SOL    HW1  134   0.344   2.596   1.914 -0.6107 -3.1554  1.8849
   45SOL    HW2  135   0.499   2.682   1.916 -0.4913 -2.4962 -0.3045
   46SOL     OW  136   2.403   2.429   2.411  0.1254 -0.1955  0.1262
   46SOL    HW1  137   2.444   2.364   2.482  0.2841 -0.1126  2.0471
   46SOL    HW2  138   2.453   2.417   2.326  1.0192  1.0163  1.6367
   47SOL     OW  139   2.286   1.942   1.496  0.3317  0.8582  0.0160
   47SOL    HW1  140   2.344   1.969   1.575 -3.0272 -2.3421  1.7636
   47SOL    HW2  141   2.193   1.951   1.520  5.5045  0.6316 -1.5073
   48SOL     OW  142   0.652   1.628   0.115  0.2296  0.7559  0.2443
   48SOL    HW1  143   0.633   1.567   0.036  1.3036  1.2538  2.3955
   48SOL    HW2  144   0.743   1.598   0.155  2.9060  0.1858 -2.0033
   49SOL     OW  145   2.759   0.456   2.813  0.2799 -0.5735  0.1205
   49SOL    HW1  146   2.819   0.389   2.764  0.5009  1.8012 -0.8503
   49SOL    HW2  147   2.677   0.477   2.755  2.7399  0.1483 -1.9958
   50SOL     OW  148   2.222   0.934   0.321  0.1088  0.0827  0.4258
   50SOL    HW1  149   2.131   0.970   0.350  0.9292  1.1461 -0.3469
   50SOL    HW2  150   2.229   0.834   0.321  0.6638 -0.8799  0.1284
   51SOL     OW  151   1.872   0.666   1.173  0.6812  0.2920 -0.6052
   51SOL    HW1  152   1.862   0.615   1.086  2.9642 -0.5620  1.0894
   51SOL    HW2  153   1.960   0.635   1.219 -0.2432 -0.8365  2.1194
   52SOL     OW  154   1.143   1.229   2.990 -0.0404  0.0019 -0.2917
   52SOL    HW1  155   1.153   1.296   3.068  0.2031  2.1358  0.3547
   52SOL    HW2  156   1.231   1.192   2.960 -2.2537 -1.1617  1.5363
   53SOL     OW  157   1.047   1.589   1.902  0.0163  0.3173 -0.2566
   53SOL    HW1  158   0.970   1.571   1.967 -1.8173 -1.4811 -0.9147
   53SOL    HW2  159   1.027   1.560   1.808  0.7104 -1.5752  3.7938
   54SOL     OW  160   2.066   0.400   0.877  0.1595 -0.2608  0.1971
   54SOL    HW1  161   2.083   0.304   0.897 -1.2762  3.8190 -0.6714
   54SOL    HW2  162   2.053   0.419   0.779 -0.2798  1.6696  1.4603
   55SOL     OW  163   2.584   2.292   1.026 -0.4099  0.1921  0.0280
   55SOL    HW1  164   2.517   2.314   0.949  0.2405 -0.2420 -1.4105
   55SOL    HW2  165   2.532   2.260   1.107  0.4500  0.6693 -0.4175
   56SOL     OW  166   0.915   2.700   1.559  0.5765 -0.0000  0.3373
   56SOL    HW1  167   0.976   2.705   1.476  1.1506 -0.6162 -1.8968
   56SOL    HW2  168   0.959   2.743   1.638  1.8746  1.0904 -1.6853
   57SOL     OW  169   1.669   1.499   0.269  0.3773 -0.3032 -0.3014
   57SOL    HW1  170   1.716   1.413   0.294 -2.1440  0.6630 -0.2221
   57SOL    HW2  171   1.702   1.573   0.330 -2.3211 -2.6129 -1.6110
   58SOL     OW  172   2.908   0.484   2.461  0.0940 -0.5693 -0.3345
   58SOL    HW1  173   2.984   0.550   2.437  3.6234 -3.6261 -1.1279
   58SOL    HW2  174   2.846   0.473   2.384 -1.3023  0.5972 -0.7972
   59SOL     OW  175   1.101   2.615   2.520 -0.0193 -0.4148 -0.2403
   59SOL    HW1  176   1.206   2.619   2.519  0.8221 -0.9804 -1.1041
   59SOL    HW2  177   1.067   2.533   2.474  2.1164  2.5396  4.4596
   60SOL     OW  178   2.420   2.609   0.692  0.3144  0.4617  0.1887
   60SOL    HW1  179   2.371   2.576   0.607 -1.5440 -1.2040 -2.7398
   60SOL    HW2  180   2.360   2.684   0.727  0.5784 -1.9775 -1.2961
   61SOL     OW  181   1.147   2.294   0.888 -0.1105 -0.3060 -0.4084
   61SOL    HW1  182   1.165   2.389   0.854  1.2382 -0.6770 -2.0779
   61SOL    HW2  183   1.197   2.261   0.966  1.1000  0.9419  0.2191
   62SOL     OW  184   2.371   2.059   2.615 -0.0955  1.2878  0.4537
   62SOL    HW1  185   2.306   2.007   2.669  0.8215  0.5249  1.1667
   62SOL    HW2  186   2.372   2.018   2.521  2.1485 -2.6952  0.3370
   63SOL     OW  187   2.350   0.406   0.003  0.7559  0.0628  0.1970
   63SOL    HW1  188   2.443   0.441   3.072  1.0313 -0.4513  0.9533
   63SOL    HW2  189   2.346   0.305   0.005  2.8496  1.2011 -3.3426
   64SOL     OW  190   1.135   0.797   2.663  1.1131 -0.1753  0.5489
   64SOL    HW1  191   1.092   0.835   2.578 -1.3864  1.2196 -1.1127
   64SOL    HW2  192   1.070   0.801   2.742 -0.7721  1.1925  0.3662
   65SOL     OW  193   1.364   2.070   0.381  0.1386 -0.1034  0.0647
   65SOL    HW1  194   1.307   2.047   0.463  0.0226  0.0659  0.6308
   65SOL    HW2  195   1.356   2.169   0.358 -1.0494 -0.3981  0.9954
   66SOL     OW  196   0.277   1.188   1.775  0.0890  0.3868 -0.2033
   66SOL    HW1  197   0.277   1.254   1.849  0.7717 -2.6477 -1.8654
   66SOL    HW2  198   0.340   1.215   1.703  0.1965  3.4667 -0.1993
   67SOL     OW  199   2.380   0.062   2.569  0.2554  1.0038  0.4627
   67SOL    HW1  200   2.482   0.068   2.571  1.8664  1.6042 -0.8358
   67SOL    HW2  201   2.343   0.112   2.489 -1.9203  0.4352  1.0308
   68SOL     OW  202   0.353   2.334   1.171  0.1989 -0.1077  0.0133
   68SOL    HW1  203   0.421   2.388   1.226  0.6444 -0.0013  1.2012
   68SOL    HW2  204   0.314   2.253   1.218 -0.9794 -1.5586 -0.6946
   69SOL     OW  205   0.844   2.681   0.445 -0.5704 -0.3704  0.0958
   69SOL    HW1  206   0.874   2.733   0.365 -0.1143  2.6462  1.1645
   69SOL    HW2  207   0.858   2.737   0.531  0.9363 -0.5035  1.8068
   70SOL     OW  208   2.847   0.952   2.843 -0.2097  0.2519  0.0154
   70SOL    HW1  209   2.922   1.020   2.846 -2.0720 -0.7547 -0.2425
   70SOL    HW2  210   2.857   0.892   2.762 -0.2975 -0.5820 -1.7029
   71SOL     OW  211   0.068   1.306   2.563  0.1000 -0.1759 -0.4022
   71SOL    HW1  212   0.160   1.351   2.574 -0.4286  0.1678  0.6191
   71SOL    HW2  213   3.085   1.366   2.572  0.7327  0.7509 -0.8310
   72SOL     OW  214   2.976   2.306   0.393  0.4669 -0.0765 -0.0020
   72SOL    HW1  215   2.952   2.366   0.313 -1.1711  0.7487 -0.1446
   72SOL    HW2  216   2.902   2.233   0.412  1.9475 -0.2427 -0.5640
   73SOL     OW  217   0.772   1.375   0.230  0.2037  0.1078 -0.5845
   73SOL    HW1  218   0.858   1.387   0.284 -1.8238  0.9373  0.1869
   73SOL    HW2  219   0.775   1.311   0.147  0.3708 -0.5085  0.5108
   74SOL     OW  220   3.003   0.417   0.346 -0.0366 -0.5625  0.0107
   74SOL    HW1  221   2.943   0.443   0.264 -1.2392  2.1645 -2.7444
   74SOL    HW2  222   3.085   0.364   0.313  1.3039 -0.7078  0.1021
   75SOL     OW  223   2.383   1.464   2.300  0.2004 -0.6290  0.2061
   75SOL    HW1  224   2.435   1.441   2.214 -0.0160  0.2176  0.1389
   75SOL    HW2  225   2.303   1.525   2.285 -0.2138 -3.3353  1.4477
   76SOL     OW  226   2.201   2.708   1.433 -0.3949 -0.1016  0.4432
   76SOL    HW1  227   2.298   2.718   1.473 -0.0124 -1.5615  3.1160
   76SOL    HW2  228   2.203   2.718   1.330 -0.2322  1.3198 -2.2004
   77SOL     OW  229   2.536   0.445   1.080 -0.3901 -0.1261 -0.0290
   77SOL    HW1  230   2.610   0.480   1.018 -1.4424 -1.9698  1.4241
   77SOL    HW2  231   2.509   0.507   1.151  1.3454 -0.6696 -1.9040
   78SOL     OW  232   1.700   1.160   0.044  0.2442  0.1610 -0.0162
   78SOL    HW1  233   1.648   1.226   3.082  1.9504 -1.2048 -2.4371
   78SOL    HW2  234   1.796   1.181   0.060 -1.0778 -0.5400 -0.7331
   79SOL     OW  235   0.762   1.780   2.069 -0.3017 -0.2067  0.1639
   79SOL    HW1  236   0.797   1.848   1.995  2.0911  2.0521 -0.8149
   79SOL    HW2  237   0.783   1.681   2.058  0.0457 -0.9615 -2.4795
   80SOL     OW  238   1.461   1.020   0.852 -0.0707 -0.2575 -0.1837
   80SOL    HW1  239   1.465   1.093   0.775 -1.4105  3.6748 -3.5558
   80SOL    HW2  240   1.551   0.987   0.887  1.5338 -0.9667 -0.7589
   81SOL     OW  241   0.370   0.384   1.175  0.4708 -0.4664  0.0073
   81SOL    HW1  242   0.287   0.408   1.120 -1.4931 -0.8643 -1.5554
   81SOL    HW2  243   0.449   0.351   1.119  0.4441  0.8922 -2.4445
   82SOL     OW  244   1.495   2.340   1.704  0.0717 -0.5478  0.7821
   82SOL    HW1  245   1.490   2.310   1.802  1.9009 -0.3414  0.1882
   82SOL    HW2  246   1.508   2.258   1.639  1.8603  0.9163  0.1970
   83SOL     OW  247   0.491   2.840   1.299 -0.6129  0.3428 -0.9066
   83SOL    HW1  248   0.486   2.839   1.198  0.4858 -1.7553 -4.0156
   83SOL    HW2  249   0.471   2.748   1.335 -0.5980  3.7913 -0.8101
   84SOL     OW  250   0.319   0.926   2.795 -0.0708 -0.2907  0.1707
   84SOL    HW1  251   0.271   0.931   2.706 -3.3467  0.4665 -0.0353
   84SOL    HW2  252   0.354   0.834   2.819  1.9887 -1.2824  0.9031
   85SOL     OW  253   2.968   2.465   1.623  0.4278 -0.1243 -0.1703
   85SOL    HW1  254   2.956   2.477   1.521 -1.4893  0.8289  1.9573
   85SOL    HW2  255   2.876   2.446   1.661  1.1347 -1.2359 -2.8782
   86SOL     OW  256   0.002   2.702   1.733 -0.0449  0.2015  0.5415
   86SOL    HW1  257   3.059   2.615   1.691  1.7201 -2.5387 -0.9955
   86SOL    HW2  258   0.076   2.743   1.670 -1.1846 -0.0683 -1.3696
   87SOL     OW  259   2.998   2.674   2.813 -0.3508 -0.2731  0.3193
   87SOL    HW1  260   2.924   2.658   2.743  0.4887 -1.3860 -0.4881
   87SOL    HW2  261   2.997   2.593   2.875 -0.9667 -1.0987 -0.9851
   88SOL     OW  262   0.357   1.924   1.364 -0.2584  0.5474  0.0910
   88SOL    HW1  263   0.282   1.989   1.339  0.1738 -3.6767  1.6843
   88SOL    HW2  264   0.390   1.878   1.275 -2.3692 -0.6966 -1.7174
   89SOL     OW  265   1.121   0.387   1.773  0.3357 -0.3584 -0.4372
   89SOL    HW1  266   1.034   0.428   1.745 -0.8500  0.9618  0.5912
   89SOL    HW2  267   1.106   0.288   1.805  0.3289 -2.9192  2.0768
   90SOL     OW  268   0.004   1.455   1.928 -0.0984  0.0742  0.3279
   90SOL    HW1  269   3.084   1.523   2.001 -1.4025 -2.3802 -2.8690
   90SOL    HW2  270   0.001   1.506   1.838 -2.7744 -0.0924 -0.7509
   91SOL     OW  271   1.128   1.720   0.549  0.6934 -0.6863  0.4683
   91SOL    HW1  272   1.114   1.710   0.648  0.1352  0.5067 -2.1604
   91SOL    HW2  273   1.205   1.660   0.517  1.3115 -0.8228 -2.6840
   92SOL     OW  274   2.332   0.288   0.971  0.1128  0.5692 -0.2066
   92SOL    HW1  275   2.416   0.344   0.981 -3.0038 -0.3357 -0.0541
   92SOL    HW2  276   2.287   0.277   1.060  1.8987 -0.3778 -0.9723
   93SOL     OW  277   2.420   1.540   2.877 -0.5325 -0.5946  0.2883
   93SOL    HW1  278   2.325   1.521   2.846 -0.7142 -2.4892  0.6975
   93SOL    HW2  279   2.435   1.625   2.928  1.6135 -1.6332  1.0348
   94SOL     OW  280   2.506   2.291   2.651  0.2340  0.7192  0.2327
   94SOL    HW1  281   2.451   2.207   2.631  1.1794 -2.8318 -1.4971
   94SOL    HW2  282   2.600   2.286   2.614  1.0336 -0.2946  0.3714
   95SOL     OW  283   1.818   0.470   0.972  0.0310 -0.5843 -0.3819
   95SOL    HW1  284   1.751   0.520   0.906 -1.7534  0.0767 -1.2642
   95SOL    HW2  285   1.906   0.444   0.925 -2.1490 -0.0078 -0.7682
   96SOL     OW  286   2.699   2.904   1.769 -0.0589  0.3241  0.3110
   96SOL    HW1  287   2.778   2.892   1.836  2.7147 -1.2621  1.0003
   96SOL    HW2  288   2.687   3.001   1.737  1.7961 -0.4659  1.2072
   97SOL     OW  289   2.216   0.197   1.206 -0.0625 -0.3830 -0.4448
   97SOL    HW1  290   2.159   0.115   1.187 -2.2796  4.5056  0.9921
   97SOL    HW2  291   2.297   0.176   1.265 -0.6628 -1.1939  2.7525
   98SOL     OW  292   1.577   2.144   1.520 -0.2616  0.3378  0.6105
   98SOL    HW1  293   1.612   2.152   1.429 -2.0303 -0.3671  0.3644
   98SOL    HW2  294   1.644   2.102   1.580  0.5836  2.8731 -1.8278
   99SOL     OW  295   2.931   2.828   1.927  0.3319 -0.0450 -0.3142
   99SOL    HW1  296   2.996   2.800   1.853  0.3753 -1.9763  0.9325
   99SOL    HW2  297   2.969   2.898   1.992 -0.0056  0.4206  0.8007
  100SOL     OW  298   0.200   0.916   2.544  0.3883 -0.0690 -0.5418
  100SOL    HW1  299   0.104   0.950   2.529  2.2344 -0.1657  0.3066
  100SOL    HW2  300   0.195   0.818   2.512 -1.9267 -1.7860 -2.2548
  101SOL     OW  301   1.632   0.904   0.100 -0.2642 -0.1712 -0.5220
  101SOL    HW1  302   1.715   0.876   0.151 -0.6461 -0.8614 -1.3598
  101SOL    HW2  303   1.642   1.002   0.076  2.7207  0.0335  1.3503
  102SOL     OW  304   0.164   0.557   1.365  0.4112 -0.5253  0.2171
  102SOL    HW1  305   0.203   0.471   1.400 -0.8034  0.0132  2.6972
  102SOL    HW2  306   0.232   0.611   1.312  2.5047  0.0052 -1.1520
  103SOL     OW  307   2.622   0.738   1.921 -0.5385  0.0061  0.7384
  103SOL    HW1  308   2.709   0.712   1.968  0.5588  1.1693  1.8899
  103SOL    HW2  309   2.594   0.832   1.953 -2.1195  0.8741  0.5063
  104SOL     OW  310   0.274   0.242   2.724 -0.1596  0.1876  0.2692
  104SOL    HW1  311   0.288   0.230   2.625  1.6049 -0.5631  3.3617
  104SOL    HW2  312   0.289   0.156   2.771  0.9688  3.6354 -1.3249
  105SOL     OW  313   2.087   1.335   1.665  0.5106  0.2785 -0.1613
  105SOL    HW1  314   2.041   1.424   1.649  1.4246 -3.1105 -0.7774
  105SOL    HW2  315   2.035   1.285   1.739 -2.0448 -0.2950 -0.0587
  106SOL     OW  316   1.363   0.113   0.371  0.1572  0.4013  0.2115
  106SOL    HW1  317   1.422   0.079   0.297 -1.2747  1.4613  2.1485
  106SOL    HW2  318   1.322   0.201   0.338  0.6730  0.5001 -0.1829
  107SOL     OW  319   0.215   1.683   1.419  0.0874  0.2994  0.7618
  107SOL    HW1  320   0.300   1.638   1.392 -1.5088 -0.2129 -0.7841
  107SOL    HW2  321   0.231   1.784   1.416 -2.6952  2.0731 -0.4194
  108SOL     OW  322   0.096   2.553   2.453 -0.3105  0.4803 -0.5951
  108SOL    HW1  323   0.133   2.543   2.550  1.8579 -0.5060  3.1798
  108SOL    HW2  324   0.086   2.651   2.427  2.4298 -1.6916  1.3035
  109SOL     OW  325   1.689   0.348   0.199  0.0795  0.0093 -0.4139
  109SOL    HW1  326   1.622   0.418   0.235 -2.3879 -1.7735 -1.5980
  109SOL    HW2  327   1.754   0.381   0.129  2.9766 -0.3092 -0.7187
  110SOL     OW  328   0.297   2.286   2.720  0.2364 -0.1604 -0.0785
  110SOL    HW1  329   0.347   2.312   2.630  2.3182  3.2494 -4.4533
  110SOL    HW2  330   0.340   2.216   2.784 -0.2721 -0.4242 -0.5817
  111SOL     OW  331   1.468   2.541   2.040 -0.2944 -0.2747 -0.0062
  111SOL    HW1  332   1.561   2.532   2.009 -0.4617  0.8610  0.7432
  111SOL    HW2  333   1.403   2.583   1.973 -2.3789 -0.0230 -3.9843
  112SOL     OW  334   1.870   2.586   2.677 -0.1459  0.1147  0.2798
  112SOL    HW1  335   1.829   2.541   2.759  0.4165 -0.2480 -1.3074
  112SOL    HW2  336   1.970   2.592   2.696 -1.0246 -0.6752  1.0439
  113SOL     OW  337   1.884   2.560   1.782 -0.3211 -0.2010 -0.0351
  113SOL    HW1  338   1.859   2.656   1.761 -1.3009 -0.5140  1.1876
  113SOL    HW2  339   1.964   2.529   1.727  2.3998 -0.0017 -0.3954
  114SOL     OW  340   2.933   0.806   0.432  0.0748 -0.3814  0.2494
  114SOL    HW1  341   2.850   0.784   0.376 -3.1166  2.6803 -4.7109
  114SOL    HW2  342   2.928   0.907   0.458  1.4582  1.0337 -2.6560
  115SOL     OW  343   0.224   1.178   2.837  0.3943  0.0280  0.3386
  115SOL    HW1  344   0.226   1.237   2.755  1.4798 -0.5125  2.0156
  115SOL    HW2  345   0.291   1.104   2.819 -4.4737 -0.6611  0.3353
  116SOL     OW  346   0.256   1.184   2.133 -0.1330 -0.3902 -0.3603
  116SOL    HW1  347   0.283   1.246   2.057 -0.3975  2.2695 -0.3247
  116SOL    HW2  348   0.192   1.236   2.197 -1.9391  1.4472  1.5812
  117SOL     OW  349   2.533   3.090   0.642 -0.2782 -0.0517  0.0442
  117SOL    HW1  350   2.619   3.083   0.589  1.4647 -1.7942  2.0509
  117SOL    HW2  351   2.464   0.055   0.599 -2.0252  2.2052 -0.4229
  118SOL     OW  352   1.294   1.844   1.684  0.9364 -0.1497  0.3047
  118SOL    HW1  353   1.364   1.773   1.670 -0.8180 -0.3027 -2.4157
  118SOL    HW2  354   1.255   1.842   1.783  0.5797 -1.5157  1.0067
  119SOL     OW  355   1.133   2.256   0.117  0.6847  0.0883  0.1758
  119SOL    HW1  356   1.059   2.193   0.142 -0.3021 -0.4406  0.1887
  119SOL    HW2  357   1.196   2.272   0.195  0.6685  0.1412 -0.8337
  120SOL     OW  358   0.667   0.996   2.752  0.0553  0.3414 -0.3630
  120SOL    HW1  359   0.693   0.897   2.734  0.6705  2.0454  2.1724
  120SOL    HW2  360   0.637   0.994   2.847  1.1981 -0.4071 -0.1696
  121SOL     OW  361   2.182   2.761   1.150  0.0192  0.3563 -0.3586
  121SOL    HW1  362   2.103   2.806   1.113  0.3445 -1.1544  1.9011
  121SOL    HW2  363   2.270   2.799   1.118 -0.2269 -2.2642  0.6267
  122SOL     OW  364   2.457   2.156   1.937 -0.1697  0.1728 -0.2430
  122SOL    HW1  365   2.437   2.103   2.022  0.4761 -0.2133 -0.9763
  122SOL    HW2  366   2.421   2.251   1.936  1.0875 -0.2405 -0.2431
  123SOL     OW  367   0.326   3.071   0.517  0.0041  0.0058 -0.7317
  123SOL    HW1  368   0.345   0.068   0.557 -2.8343  2.0887  0.3118
  123SOL    HW2  369   0.232   3.071   0.488 -0.7937  1.9270  1.3894
  124SOL     OW  370   2.011   0.641   2.452  0.2083  0.0057  0.2006
  124SOL    HW1  371   2.015   0.741   2.433 -1.6575  0.7594  1.3845
  124SOL    HW2  372   2.050   0.593   2.372 -0.3094  1.3239 -1.5513
  125SOL     OW  373   0.290   1.493   0.682 -0.2682  0.5825 -0.0226
  125SOL    HW1  374   0.361   1.441   0.628  0.3406 -2.8216 -0.9501
  125SOL    HW2  375   0.227   1.556   0.635 -0.9516  0.4068  2.2878
  126SOL     OW  376   2.382   1.680   0.826  0.1587  0.6642  0.4509
  126SOL    HW1  377   2.433   1.721   0.901  4.7284 -3.0435 -2.1077
  126SOL    HW2  378   2.324   1.743   0.773 -0.8638 -0.2191 -0.9463
  127SOL     OW  379   0.172   2.249   1.807 -0.0066  0.2484  0.4959
  127SOL    HW1  380   0.139   2.246   1.710 -1.9354 -0.0653 -0.5561
  127SOL    HW2  381   0.176   2.343   1.848  1.7063 -1.2847 -0.1811
  128SOL     OW  382   0.834   0.570   2.461  0.4898  0.0460 -0.3205
  128SOL    HW1  383   0.845   0.631   2.379  1.7875  1.2051 -1.0815
  128SOL    HW2  384   0.925   0.531   2.480 -2.0662  2.9175 -0.8764
  129SOL     OW  385   2.503   1.211   0.965 -0.2356  0.0934 -0.1634
  129SOL    HW1  386   2.606   1.200   0.976  2.8006  1.6784  0.7988
  129SOL    HW2  387   2.477   1.284   0.900 -0.6699  1.3436  2.0700
  130SOL     OW  388   2.563   1.506   1.500  0.0536 -0.3645  0.0243
  130SOL    HW1  389   2.540   1.406   1.493 -0.3549 -2.2493  0.3285
  130SOL    HW2  390   2.484   1.557   1.533  1.2545 -1.2482 -2.9930
  131SOL     OW  391   2.557   0.734   3.066  0.6168 -0.0468 -0.2714
  131SOL    HW1  392   2.643   0.783   3.087 -2.6878  1.0934 -2.2570
  131SOL    HW2  393   2.572   0.635   3.048 -1.7817 -0.0483  0.3274
  132SOL     OW  394   2.745   2.184   1.917  0.0456  0.5262 -0.0297
  132SOL    HW1  395   2.645   2.172   1.942 -1.6208  0.6466  1.0177
  132SOL    HW2  396   2.795   2.208   2.002 -2.0376 -0.6708  0.8053
  133SOL     OW  397   0.375   1.089   1.015  0.2490 -0.5949  0.3093
  133SOL    HW1  398   0.351   1.143   0.931  0.3622 -1.1264 -1.5524
  133SOL    HW2  399   0.399   1.158   1.084 -3.0405 -1.2074 -0.8122
  134SOL     OW  400   0.119   1.314   3.061  0.7655  0.2007 -0.0682
  134SOL    HW1  401   0.067   1.399   3.055  2.0074 -0.1464  2.1666
  134SOL    HW2  402   0.151   1.284   2.970 -1.9905 -0.2632 -0.0519
  135SOL     OW  403   2.138   1.532   1.370 -0.2198  0.1609  0.5123
  135SOL    HW1  404   2.203   1.456   1.392  0.4582 -1.2732  0.4872
  135SOL    HW2  405   2.080   1.559   1.447 -2.1284 -1.5783 -2.9827
  136SOL     OW  406   2.867   0.854   0.727 -0.1550 -0.0584  0.0120
  136SOL    HW1  407   2.870   0.920   0.650 -0.8224 -2.9310  2.2949
  136SOL    HW2  408   2.773   0.818   0.744  2.1889  1.5816  1.8846
  137SOL     OW  409   2.612   1.712   1.078 -0.5133 -0.2085 -0.0372
  137SOL    HW1  410   2.650   1.786   1.126  0.0255 -2.3785 -0.3126
  137SOL    HW2  411   2.609   1.629   1.135 -1.7241  1.7831  0.9131
  138SOL     OW  412   1.625   0.735   1.255  0.2499  0.7321 -0.0621
  138SOL    HW1  413   1.719   0.733   1.216  0.0574  0.2449  0.4343
  138SOL    HW2  414   1.594   0.639   1.285 -0.1874  1.1675  2.7338
  139SOL     OW  415   2.075   0.222   3.058  0.2413 -0.3445  0.6927
  139SOL    HW1  416   2.087   0.320   3.043 -2.5688 -1.0132  1.5538
  139SOL    HW2  417   2.161   0.176   3.032 -1.2847  1.5867  0.3477
  140SOL     OW  418   1.598   1.611   2.100  0.5543 -0.1553 -0.4595
  140SOL    HW1  419   1.686   1.647   2.147 -1.1847  0.4320  1.4935
  140SOL    HW2  420   1.597   1.512   2.068 -1.3169 -2.2746  1.2448
  141SOL     OW  421   1.977   1.966   1.169  0.2146 -0.3271 -0.4984
  141SOL    HW1  422   2.059   2.029   1.172 -0.3452 -1.6046  1.0219
  141SOL    HW2  423   2.007   1.869   1.154 -1.9614  0.5271 -1.7760
  142SOL     OW  424   3.046   0.775   0.049 -0.2109  0.0878 -0.2145
  142SOL    HW1  425   3.070   0.680   0.028  0.2455  4.6447  0.3437
  142SOL    HW2  426   3.041   0.794   0.149 -1.1604  1.2576 -0.5698
  143SOL     OW  427   0.243   2.104   2.976 -0.0086  0.1898 -0.2228
  143SOL    HW1  428   0.287   2.013   2.958 -0.0576 -1.2594 -2.7390
  143SOL    HW2  429   0.141   2.098   2.976 -0.7553 -0.8591  2.7403
  144SOL     OW  430   0.897   2.989   1.733  0.1421  0.1670 -0.5310
  144SOL    HW1  431   0.910   3.030   1.639  0.5266  0.0268 -0.4451
  144SOL    HW2  432   0.976   2.922   1.744  1.7236 -3.1128  1.9923
  145SOL     OW  433   2.348   1.387   0.479 -0.8738  0.3129  0.3005
  145SOL    HW1  434   2.263   1.337   0.492  3.9968  0.4573 -0.9055
  145SOL    HW2  435   2.351   1.419   0.384  1.8582 -0.6908 -1.1204
  146SOL     OW  436   2.485   2.478   0.096 -0.8021  0.6413  0.2950
  146SOL    HW1  437   2.398   2.430   0.068  0.0596  0.6382 -0.4312
  146SOL    HW2  438   2.551   2.479   0.015 -1.4923  0.6633  0.1978
  147SOL     OW  439   2.681   2.884   1.072 -0.2525 -0.3843  0.1891
  147SOL    HW1  440   2.680   2.957   1.145 -0.7621  2.1051 -0.6978
  147SOL    HW2  441   2.673   2.930   0.980 -0.5656  1.8978 -2.0099
  148SOL     OW  442   1.652   2.996   2.456  0.0352  0.1601 -0.4661
  148SOL    HW1  443   1.617   3.042   2.542 -0.2569 -0.9202  1.3719
  148SOL    HW2  444   1.731   2.930   2.474  1.4298  1.7278 -0.3330
  149SOL     OW  445   1.062   0.406   2.434  0.4067 -0.3587 -0.2484
  149SOL    HW1  446   1.151   0.429   2.477 -1.8542  0.7942 -1.1084
  149SOL    HW2  447   1.063   0.412   2.335 -0.4612  1.6474  0.4060
  150SOL     OW  448   0.900   2.822   0.685 -0.2479 -0.1926  0.0077
  150SOL    HW1  449   0.836   2.894   0.661 -1.5252  2.0699  1.2494
  150SOL    HW2  450   0.991   2.859   0.706 -1.0003 -0.6430  1.6950
  151SOL     OW  451   3.075   1.650   0.115 -0.2918 -0.1967  0.3803
  151SOL    HW1  452   3.040   1.745   0.114  1.4413 -2.7197 -2.3574
  151SOL    HW2  453   3.045   1.607   0.027  1.1253  0.3598 -0.2480
  152SOL     OW  454   0.125   1.005   0.519  0.5872 -0.3420 -0.4840
  152SOL    HW1  455   0.139   1.093   0.462  0.5062  2.1686 -1.0766
  152SOL    HW2  456   0.173   0.924   0.486  1.3376  0.1088 -2.5624
  153SOL     OW  457   2.270   2.991   0.537  0.1721  0.1449 -0.0394
  153SOL    HW1  458   2.298   3.085   0.522  1.3721 -3.2730 -0.4566
  153SOL    HW2  459   2.205   2.963   0.457 -4.0245 -0.0739 -1.2222
  154SOL     OW  460   0.919   0.577   1.721 -0.5286 -0.0482 -0.4383
  154SOL    HW1  461   0.889   0.603   1.629 -0.5015  0.5870  0.5987
  154SOL    HW2  462   0.915   0.655   1.786  2.6922  1.0615  2.5355
  155SOL     OW  463   3.012   1.793   0.827 -0.0439 -0.2685 -0.1801
  155SOL    HW1  464   2.924   1.739   0.821 -1.6262 -0.5503 -1.2448
  155SOL    HW2  465   2.985   1.895   0.837 -1.4824  2.8315 -0.2725
  156SOL     OW  466   2.266   2.114   0.257  0.3516  0.3098 -0.1724
  156SOL    HW1  467   2.336   2.035   0.259 -0.3963 -2.7378  1.0070
  156SOL    HW2  468   2.275   2.171   0.170 -1.1561  0.3996 -1.7076
  157SOL     OW  469   1.023   3.040   0.963  0.5522  0.2710  0.1060
  157SOL    HW1  470   0.961   2.960   0.984 -1.7236 -0.7484  1.7573
  157SOL    HW2  471   1.081   3.023   0.884 -0.0744 -0.6605 -0.2896
  158SOL     OW  472   2.567   0.463   2.624 -0.2748  0.7753 -0.2621
  158SOL    HW1  473   2.483   0.518   2.618  1.6603  2.7180 -0.0519
  158SOL    HW2  474   2.555   0.361   2.612  1.5143  0.1723  0.8065
  159SOL     OW  475   0.445   0.378   3.089  0.2709  0.0489 -0.7126
  159SOL    HW1  476   0.427   0.280   0.002 -1.3882  3.6801 -0.1720
  159SOL    HW2  477   0.452   0.405   2.992  3.4769 -0.9145  0.7557
  160SOL     OW  478   1.294   1.919   0.168 -0.6201 -0.5365  0.0240
  160SOL    HW1  479   1.320   1.955   0.077 -1.4574 -0.4209  1.9037
  160SOL    HW2  480   1.329   1.988   0.235 -0.6401  1.3054  3.1641
  161SOL     OW  481   2.755   1.842   2.731  0.0827  0.2185 -0.0442
  161SOL    HW1  482   2.842   1.889   2.756  0.5639 -0.7930 -0.2713
  161SOL    HW2  483   2.673   1.892   2.766  0.9240  2.2626  1.0443
  162SOL     OW  484   0.405   2.707   1.054  0.6388 -0.3945 -0.0398
  162SOL    HW1  485   0.328   2.642   1.065  0.2293  1.2778 -1.1491
  162SOL    HW2  486   0.450   2.697   0.962 -1.3465 -0.2100 -0.0267
  163SOL     OW  487   2.110   0.485   2.975  0.4467  0.0772  0.4528
  163SOL    HW1  488   2.202   0.460   3.009 -0.7899 -2.0299  1.7894
  163SOL    HW2  489   2.110   0.540   2.891 -1.4000 -0.0594  1.2055
  164SOL     OW  490   3.005   2.076   0.886 -0.1289  0.1988  0.4534
  164SOL    HW1  491   3.071   2.094   0.808  0.1357 -0.1365 -2.4092
  164SOL    HW2  492   2.932   2.150   0.880 -2.6464  0.3211 -0.0221
  165SOL     OW  493   2.632   0.028   1.600  0.5023 -0.0537  0.3843
  165SOL    HW1  494   2.709   0.066   1.542  0.7062 -1.5028 -0.4672
  165SOL    HW2  495   2.564   3.061   1.552 -0.8563 -2.8403 -0.3178
  166SOL     OW  496   2.304   0.349   0.704 -0.2983  0.5477  0.1925
  166SOL    HW1  497   2.269   0.442   0.696  1.4003 -1.0406  1.2380
  166SOL    HW2  498   2.299   0.318   0.802  0.8971  0.9214  1.3162
  167SOL     OW  499   0.597   0.284   1.018  0.3334 -0.3992  0.4842
  167SOL    HW1  500   0.684   0.344   1.025 -0.0145  0.7577 -0.1832
  167SOL    HW2  501   0.560   0.304   0.922  0.8398 -1.2521  0.5261
  168SOL     OW  502   1.973   2.962   1.900 -1.0330 -0.0138  0.3971
  168SOL    HW1  503   1.921   2.957   1.980  2.5699 -2.0868 -2.3299
  168SOL    HW2  504   2.051   2.893   1.904  0.4792  1.0405  0.4974
  169SOL     OW  505   0.295   1.209   0.754  0.3191 -0.7419  0.2131
  169SOL    HW1  506   0.304   1.308   0.723 -4.0696  2.2872  0.0160
  169SOL    HW2  507   0.199   1.187   0.776  1.3550 -1.9794 -2.3119
  170SOL     OW  508   2.571   0.862   1.178 -0.0761  0.2005 -0.1359
  170SOL    HW1  509   2.511   0.847   1.097 -0.7506 -0.0585 -0.7827
  170SOL    HW2  510   2.543   0.788   1.245 -2.2114  1.9965 -0.9733
  171SOL     OW  511   0.791   2.350   1.424  0.7354 -0.1091 -0.5872
  171SOL    HW1  512   0.847   2.269   1.396  2.7710 -0.1791 -0.0628
  171SOL    HW2  513   0.837   2.401   1.500 -0.8832 -0.4784  0.4840
  172SOL     OW  514   0.088   2.561   1.367 -0.0982 -0.2634  0.1265
  172SOL    HW1  515   0.142   2.545   1.452  0.7635 -1.0737  0.6239
  172SOL    HW2  516   0.036   2.645   1.367  3.2136  1.0380  2.4469
  173SOL     OW  517   1.320   0.318   3.065 -0.1190  0.2210 -0.3754
  173SOL    HW1  518   1.232   0.297   3.024  2.3607 -0.2992  0.9817
  173SOL    HW2  519   1.362   0.397   3.019 -0.9855 -2.7242 -0.8538
  174SOL     OW  520   1.447   0.228   2.736 -0.7121  0.3041 -0.3485
  174SOL    HW1  521   1.396   0.206   2.821 -0.5031  1.6976  1.6485
  174SOL    HW2  522   1.410   0.183   2.652  1.4786 -0.1148  2.6578
  175SOL     OW  523   1.884   2.604   3.000 -0.2550 -0.6887  0.1036
  175SOL    HW1  524   1.787   2.572   2.986 -0.5367 -0.9671  1.9061
  175SOL    HW2  525   1.894   2.693   3.050  1.2726  1.0613 -0.7569
  176SOL     OW  526   1.706   0.284   2.787 -0.0700 -0.1568 -0.8547
  176SOL    HW1  527   1.734   0.232   2.870 -1.5465  0.6878  0.6387
  176SOL    HW2  528   1.611   0.251   2.767 -1.3857 -0.1147 -0.8397
  177SOL     OW  529   0.794   1.539   0.539  0.4367 -0.4866 -0.1679
  177SOL    HW1  530   0.823   1.584   0.451 -1.5789  0.6210  1.5444
  177SOL    HW2  531   0.801   1.596   0.625  0.0020 -1.6948 -0.9613
  178SOL     OW  532   3.026   1.664   2.475  0.0205 -0.0414  0.3982
  178SOL    HW1  533   0.000   1.649   2.398 -1.3229  2.1315 -1.6418
  178SOL    HW2  534   2.939   1.695   2.435  4.3667 -1.6256  1.6662
  179SOL     OW  535   0.706   2.531   2.775  0.4362  0.2736 -0.4858
  179SOL    HW1  536   0.804   2.513   2.756  0.7519 -1.0425 -1.7258
  179SOL    HW2  537   0.685   2.632   2.771  1.9155  1.2495  0.5845
  180SOL     OW  538   2.031   1.949   1.597 -0.6748  0.2543 -0.4519
  180SOL    HW1  539   2.029   1.909   1.693 -0.4860  0.3516  0.1502
  180SOL    HW2  540   1.956   1.921   1.534 -1.6541  4.0024  0.2102
  181SOL     OW  541   1.281   1.070   2.333  0.8726  0.3847  0.2980
  181SOL    HW1  542   1.331   1.018   2.406  1.2121 -3.1078 -0.3707
  181SOL    HW2  543   1.242   1.161   2.367  2.0446  2.1153 -1.0217
  182SOL     OW  544   2.921   0.035   2.561  0.5340  0.4309 -0.2071
  182SOL    HW1  545   2.898   3.048   2.621 -1.7810  0.8088  0.2699
  182SOL    HW2  546   3.024   0.036   2.542 -2.0492  3.0824 -1.4682
  183SOL     OW  547   1.189   0.514   2.833  0.5348  0.8556 -0.4214
  183SOL    HW1  548   1.165   0.574   2.759 -1.1243 -0.7465  1.9349
  183SOL    HW2  549   1.281   0.529   2.873 -2.4505 -0.8194  4.1331
  184SOL     OW  550   0.606   1.060   1.257 -0.0511 -0.4746  0.2994
  184SOL    HW1  551   0.699   1.093   1.300  1.7180  0.9328  2.5575
  184SOL    HW2  552   0.609   1.049   1.153 -1.3583 -0.8544  0.4823
  185SOL     OW  553   2.475   1.110   1.221 -1.0430  0.2767 -0.0011
  185SOL    HW1  554   2.525   1.020   1.231 -0.1253  0.0576 -0.2207
  185SOL    HW2  555   2.491   1.146   1.127  0.7459  0.5390  0.4167
  186SOL     OW  556   0.734   1.573   2.528 -0.7195 -0.3420 -0.0153
  186SOL    HW1  557   0.826   1.611   2.496  0.2204 -2.7473 -0.5137
  186SOL    HW2  558   0.662   1.619   2.471  1.8484 -0.5117  2.0833
  187SOL     OW  559   2.401   1.489   0.203  0.3759 -0.4536  0.1401
  187SOL    HW1  560   2.327   1.518   0.138  0.0769  1.5809  1.5773
  187SOL    HW2  561   2.458   1.413   0.157  0.2458  0.7646  0.3461
  188SOL     OW  562   0.089   1.909   0.409 -0.1462 -0.5039 -0.3399
  188SOL    HW1  563   0.044   1.989   0.454 -0.9487 -1.6538 -0.7984
  188SOL    HW2  564   0.182   1.931   0.374  3.8627  0.1302 -3.3652
  189SOL     OW  565   2.540   0.852   0.329 -0.1611  0.5673 -0.3653
  189SOL    HW1  566   2.610   0.806   0.272  0.9121  0.9852 -0.1893
  189SOL    HW2  567   2.457   0.790   0.342 -2.4729 -4.0369  1.8552
  190SOL     OW  568   1.213   1.301   2.440  0.4147 -0.1915  0.3175
  190SOL    HW1  569   1.225   1.367   2.363 -1.4515 -1.8508  1.5473
  190SOL    HW2  570   1.156   1.354   2.509  1.8108  0.9932  2.6629
  191SOL     OW  571   2.256   0.124   1.886 -0.1316  0.4354  0.4156
  191SOL    HW1  572   2.332   0.188   1.908  0.0877 -0.8460  1.0393
  191SOL    HW2  573   2.238   0.135   1.786 -0.4872  1.4607  0.6177
  192SOL     OW  574   1.869   0.768   1.578 -0.1406  0.1605  0.3658
  192SOL    HW1  575   1.887   0.721   1.667  0.4534  0.3812  1.5199
  192SOL    HW2  576   1.786   0.824   1.587  2.5108 -1.8627  1.5309
  193SOL     OW  577   0.652   0.808   0.648 -0.8341 -0.1911  0.5398
  193SOL    HW1  578   0.616   0.902   0.653 -0.2788  0.8469  0.8621
  193SOL    HW2  579   0.738   0.805   0.598 -1.8245  0.8707  2.7679
  194SOL     OW  580   1.341   2.860   0.925  0.3946 -0.1663 -0.1181
  194SOL    HW1  581   1.400   2.814   0.854  2.0028  1.1141 -0.0970
  194SOL    HW2  582   1.372   2.848   1.020 -1.5762  1.6556  3.3677
  195SOL     OW  583   2.523   0.662   0.584  0.1255  0.1530  0.0530
  195SOL    HW1  584   2.465   0.694   0.505 -2.4388  2.3748 -2.1595
  195SOL    HW2  585   2.598   0.602   0.552  1.2156 -1.9128 -0.4060
  196SOL     OW  586   1.123   1.740   1.514  0.8778  0.2643  0.2237
  196SOL    HW1  587   1.146   1.779   1.420  3.3234 -1.7629  0.2765
  196SOL    HW2  588   1.195   1.773   1.581  0.2486  1.0015 -1.7626
  197SOL     OW  589   0.289   2.972   0.130 -0.0239 -0.1592  0.1582
  197SOL    HW1  590   0.307   2.933   0.223 -1.0739  2.2461 -1.7670
  197SOL    HW2  591   0.335   2.923   0.053  0.9829 -0.3157  0.2863
  198SOL     OW  592   0.861   1.288   0.543  0.4904 -0.3871 -0.3990
  198SOL    HW1  593   0.789   1.216   0.532  2.7365 -0.5097  3.3678
  198SOL    HW2  594   0.830   1.384   0.523  3.7260 -3.1941 -1.1662
  199SOL     OW  595   0.031   0.066   1.700  0.1341 -0.3996  0.8817
  199SOL    HW1  596   0.116   0.088   1.751  0.1719 -0.0310  0.9328
  199SOL    HW2  597   0.030   0.120   1.614  1.9631  0.1941  1.2614
  200SOL     OW  598   2.184   1.923   2.746 -0.9508  0.0490 -0.5853
  200SOL    HW1  599   2.181   1.860   2.829  1.4283 -2.8867  2.1086
  200SOL    HW2  600   2.122   2.008   2.758 -0.3118 -0.7673  2.7742
  201SOL     OW  601   2.689   3.023   0.843  0.5633 -0.0661  0.2615
  201SOL    HW1  602   2.634   3.080   0.782  2.2788 -1.5597  3.4711
  201SOL    HW2  603   2.762   2.970   0.799 -2.3763 -0.8213  0.3421
  202SOL     OW  604   2.735   0.664   0.249 -0.2846 -0.1531  0.0049
  202SOL    HW1  605   2.773   0.605   0.174  2.0406 -1.1770  1.4800
  202SOL    HW2  606   2.722   0.591   0.317 -0.3360  1.0000 -1.1053
  203SOL     OW  607   1.242   1.462   2.227 -0.6292 -0.3567  0.3725
  203SOL    HW1  608   1.317   1.412   2.186  0.6282  1.7209 -0.7701
  203SOL    HW2  609   1.258   1.563   2.205  2.3762 -1.0228 -0.2323
  204SOL     OW  610   0.986   1.552   2.191 -0.4831 -0.2315  0.2344
  204SOL    HW1  611   1.077   1.507   2.188  1.4792  0.2329  0.9397
  204SOL    HW2  612   0.910   1.500   2.149 -1.2729 -2.0412 -0.2520
  205SOL     OW  613   1.294   2.030   1.488 -0.3321 -0.0983  0.0512
  205SOL    HW1  614   1.277   1.961   1.559 -0.3987 -1.6221  1.7819
  205SOL    HW2  615   1.367   2.093   1.512  1.1014 -0.5202 -0.5216
  206SOL     OW  616   0.040   0.294   2.860  0.6821 -0.2624  0.1719
  206SOL    HW1  617   0.132   0.287   2.815 -0.6193 -0.2785 -1.1667
  206SOL    HW2  618   3.058   0.311   2.790  1.1421 -0.6428  0.8367
  207SOL     OW  619   1.820   3.001   2.125 -0.2639  0.5406  0.1556
  207SOL    HW1  620   1.719   3.002   2.143  2.3938  0.5380  0.0592
  207SOL    HW2  621   1.862   3.082   2.175 -0.0667 -1.4640  2.2004
  208SOL     OW  622   0.653   2.199   1.823  0.0202 -0.7639 -0.0990
  208SOL    HW1  623   0.561   2.156   1.832  0.5814  0.4789  0.4408
  208SOL    HW2  624   0.648   2.296   1.788 -1.9807  0.1245  3.5604
  209SOL     OW  625   1.720   1.123   2.829  0.1705  0.2907 -0.0231
  209SOL    HW1  626   1.723   1.141   2.730 -2.1700 -3.8639  0.6396
  209SOL    HW2  627   1.647   1.056   2.846  2.4872  2.5404  0.9761
  210SOL     OW  628   2.801   0.438   0.693  0.1080 -0.0208  0.5267
  210SOL    HW1  629   2.866   0.503   0.644  2.7127  0.3026  0.9414
  210SOL    HW2  630   2.771   0.487   0.780  1.7745  0.0961 -0.3517
  211SOL     OW  631   0.727   1.058   0.996 -0.7555 -0.2030 -0.0900
  211SOL    HW1  632   0.759   1.133   1.053  2.4753 -2.0863 -2.4748
  211SOL    HW2  633   0.773   1.066   0.900  0.9898  1.7202 -4.1677
  212SOL     OW  634   1.340   1.550   0.459 -0.2605  0.2848  0.1362
  212SOL    HW1  635   1.307   1.452   0.457  1.5763  0.3883  0.3451
  212SOL    HW2  636   1.381   1.575   0.369  0.5278 -2.2931 -0.2243
  213SOL     OW  637   1.486   0.049   1.728 -0.0231  0.0638 -0.0707
  213SOL    HW1  638   1.566   0.081   1.676  2.1407  1.1981  0.2525
  213SOL    HW2  639   1.399   0.062   1.674 -0.7918  2.1411 -0.4192
  214SOL     OW  640   1.647   1.638   2.455 -0.2966  0.0588 -0.2290
  214SOL    HW1  641   1.603   1.598   2.536 -0.3043 -0.6381 -1.3503
  214SOL    HW2  642   1.616   1.735   2.439 -1.5403 -1.9396 -0.7623
  215SOL     OW  643   0.389   1.827   1.113  0.4022 -0.4238  0.1729
  215SOL    HW1  644   0.348   1.739   1.083 -3.1461 -3.0123  1.5117
  215SOL    HW2  645   0.390   1.891   1.033 -0.2527  0.6331 -0.8391
  216SOL     OW  646   0.671   2.725   2.301  0.1348 -0.4395 -0.1001
  216SOL    HW1  647   0.618   2.809   2.279  1.4916 -1.7199 -1.9062
  216SOL    HW2  648   0.736   2.743   2.381  1.1506 -0.2670 -0.3193
  217SOL     OW  649   2.334   0.688   0.102 -0.4365 -0.1275  0.4100
  217SOL    HW1  650   2.275   0.623   0.049 -0.3748  0.5624 -2.1755
  217SOL    HW2  651   2.410   0.733   0.047 -0.2650  0.7100 -0.8070
  218SOL     OW  652   2.169   1.646   2.215  0.6813  0.2622 -0.2331
  218SOL    HW1  653   2.115   1.719   2.264 -0.6527 -0.0188  1.0483
  218SOL    HW2  654   2.192   1.688   2.122  1.6721  2.2907 -0.2987
  219SOL     OW  655   1.558   1.162   0.399 -0.6351 -0.3908  0.4749
  219SOL    HW1  656   1.491   1.186   0.325 -1.5523 -0.4548 -0.3419
  219SOL    HW2  657   1.651   1.200   0.371 -0.6883 -0.1684 -1.6511
  220SOL     OW  658   1.499   1.825   1.065 -0.0228 -0.3477 -0.0792
  220SOL    HW1  659   1.483   1.918   1.027 -0.8860 -2.4769 -2.8033
  220SOL    HW2  660   1.407   1.779   1.071 -1.9944 -0.5456  0.0817
  221SOL     OW  661   0.026   0.496   3.071 -0.0145  0.0315 -0.0899
  221SOL    HW1  662   0.116   0.547   3.066  0.5811  2.3767 -1.6109
  221SOL    HW2  663   0.029   0.423   3.001  0.7696  0.2403 -0.1316
  222SOL     OW  664   1.218   2.378   1.480  0.4727 -0.6042 -0.1941
  222SOL    HW1  665   1.152   2.390   1.403 -1.6759  0.0552 -1.2027
  222SOL    HW2  666   1.315   2.390   1.455 -0.5753 -0.7840  0.4105
  223SOL     OW  667   1.548   2.709   2.703 -0.1037 -0.7010 -0.2397
  223SOL    HW1  668   1.628   2.746   2.654 -0.6262  2.9759 -0.4819
  223SOL    HW2  669   1.561   2.722   2.801  0.9256 -2.8222  0.3199
  224SOL     OW  670   2.587   1.450   1.200  0.3553  0.0311  0.4217
  224SOL    HW1  671   2.589   1.440   1.300 -1.5533  1.3639 -0.2156
  224SOL    HW2  672   2.655   1.390   1.155 -1.7159 -1.4879 -1.3468
  225SOL     OW  673   0.850   1.144   1.393 -0.1125 -0.2307 -0.3037
  225SOL    HW1  674   0.830   1.104   1.484 -1.1627 -1.2098 -1.0671
  225SOL    HW2  675   0.932   1.092   1.359 -2.3699 -0.2170 -0.0463
  226SOL     OW  676   1.681   2.461   2.818  0.2951  0.6428  0.0972
  226SOL    HW1  677   1.621   2.531   2.774 -2.7895  1.6252 -1.6896
  226SOL    HW2  678   1.630   2.369   2.809 -0.7200 -1.2189 -1.1648
  227SOL     OW  679   0.828   1.984   0.937  0.7322 -0.1935  0.4537
  227SOL    HW1  680   0.751   1.974   0.872  3.9119  1.7104  1.1243
  227SOL    HW2  681   0.816   2.064   1.000  0.7860  2.8038 -0.0865
  228SOL     OW  682   0.196   2.141   1.337  0.5937  0.3888 -0.2060
  228SOL    HW1  683   0.163   2.214   1.402 -0.7442  0.3352  0.5609
  228SOL    HW2  684   0.118   2.118   1.275  1.4219  0.4640 -3.0914
  229SOL     OW  685   2.227   1.177   0.173  0.1045  0.0015 -0.2371
  229SOL    HW1  686   2.261   1.157   0.078  0.7867 -1.6638 -0.2951
  229SOL    HW2  687   2.200   1.091   0.223  1.1242  0.0380  1.0436
  230SOL     OW  688   0.966   1.031   2.188  0.2358  0.3780  0.4013
  230SOL    HW1  689   0.910   1.122   2.190  0.3045  3.8866  1.1031
  230SOL    HW2  690   1.050   1.033   2.128  1.0336 -0.3538 -2.6669
  231SOL     OW  691   1.581   1.795   1.896  0.0607 -0.1020  0.0527
  231SOL    HW1  692   1.599   1.737   1.978 -1.5964 -0.2706  4.9682
  231SOL    HW2  693   1.543   1.746   1.816  0.2690 -0.3009 -0.9379
  232SOL     OW  694   2.023   2.309   1.336  0.2714  0.6953  0.3473
  232SOL    HW1  695   1.988   2.277   1.427 -0.4212 -3.2059  2.1353
  232SOL    HW2  696   1.959   2.371   1.285  1.2726  2.5106  0.7260
  233SOL     OW  697   1.706   2.568   2.468 -0.3131 -0.3656 -0.1354
  233SOL    HW1  698   1.773   2.556   2.543  2.4188  0.9526  1.6275
  233SOL    HW2  699   1.738   2.652   2.414 -0.2622  0.0291  1.5657
  234SOL     OW  700   1.212   2.923   2.740 -0.2680 -0.5412  0.5899
  234SOL    HW1  701   1.264   2.906   2.653  1.0200 -0.6924  1.5145
  234SOL    HW2  702   1.115   2.906   2.723  2.4995 -0.7684 -1.3952
  235SOL     OW  703   2.681   2.821   3.076 -0.5553 -0.7420 -0.1169
  235SOL    HW1  704   2.692   2.751   0.053 -1.6320 -1.5726 -0.1235
  235SOL    HW2  705   2.711   2.912   0.015  0.7758  0.5567 -0.6170
  236SOL     OW  706   2.182   2.569   2.411 -0.5890 -0.2625  0.0163
  236SOL    HW1  707   2.273   2.522   2.414  2.4594  0.7394 -0.7806
  236SOL    HW2  708   2.159   2.616   2.496 -2.0810  0.8458 -2.5162
  237SOL     OW  709   1.489   1.089   1.606  0.1219 -0.4022 -0.1542
  237SOL    HW1  710   1.453   0.997   1.582 -1.6690  1.2840  1.9856
  237SOL    HW2  711   1.421   1.165   1.593  1.7094  1.4580  1.2906
  238SOL     OW  712   2.274   0.051   2.308  0.1794 -0.0561  0.4024
  238SOL    HW1  713   2.370   0.016   2.297  1.4376 -3.3780 -0.4621
  238SOL    HW2  714   2.207   3.068   2.297  1.4230 -1.3213 -0.4730
  239SOL     OW  715   0.766   1.508   2.014 -0.2056  0.7485  0.0933
  239SOL    HW1  716   0.722   1.468   1.928  0.0383  3.3271 -1.0244
  239SOL    HW2  717   0.696   1.503   2.089 -2.1309  1.0371 -0.9114
  240SOL     OW  718   0.061   2.344   0.603  0.0162 -0.5027  0.0955
  240SOL    HW1  719   0.031   2.398   0.684  2.4640 -0.5342 -1.2055
  240SOL    HW2  720   3.089   2.339   0.527  1.7035 -1.1469  0.1708
  241SOL     OW  721   1.870   2.088   0.950  0.0144 -0.2407  0.1348
  241SOL    HW1  722   1.913   2.040   1.027  0.2216  0.3851 -4.0125
  241SOL    HW2  723   1.814   2.024   0.894  0.0117 -0.0918 -1.6563
  242SOL     OW  724   1.247   1.696   2.862  0.0719 -0.2647 -0.0098
  242SOL    HW1  725   1.315   1.647   2.929 -0.1087  1.7060 -1.1817
  242SOL    HW2  726   1.289   1.787   2.839 -0.0885  1.2279  0.3857
  243SOL     OW  727   1.115   2.903   1.963 -0.2075 -0.4984 -0.4432
  243SOL    HW1  728   1.019   2.875   1.974  3.3056  1.8045  0.8028
  243SOL    HW2  729   1.158   2.929   2.051  2.0763  1.4697  1.3654
  244SOL     OW  730   1.996   3.019   2.734  0.1589 -0.1655 -0.2202
  244SOL    HW1  731   1.957   2.949   2.669  0.5006 -1.2353  0.1511
  244SOL    HW2  732   2.030   0.009   2.687 -0.5310  0.4537 -0.4421
  245SOL     OW  733   1.409   2.839   0.580 -0.4118  0.5606 -0.4928
  245SOL    HW1  734   1.440   2.873   0.490 -0.0966  1.6034  0.1699
  245SOL    HW2  735   1.309   2.849   0.589  2.5349  1.9779  1.7597
  246SOL     OW  736   1.042   3.060   3.072 -0.5728  0.2791  0.0069
  246SOL    HW1  737   1.131   3.010   3.048  0.2202 -1.1388 -2.3687
  246SOL    HW2  738   1.059   0.059   0.016  0.3007 -1.9897  0.7288
  247SOL     OW  739   0.024   0.562   2.112  0.1711 -0.0117 -0.1775
  247SOL    HW1  740   3.043   0.519   2.060  0.7876 -3.1742 -0.5668
  247SOL    HW2  741   0.105   0.586   2.050  0.7073  1.2484  1.8830
  248SOL     OW  742   0.783   0.825   2.149 -0.5299 -0.6862  1.4985
  248SOL    HW1  743   0.687   0.853   2.173  2.4662  1.3080  2.0457
  248SOL    HW2  744   0.856   0.893   2.173 -2.1375 -1.4417  0.3587
  249SOL     OW  745   2.349   0.663   0.374 -0.0579 -0.1968  0.2385
  249SOL    HW1  746   2.278   0.621   0.434 -1.1443 -0.3959 -1.4535
  249SOL    HW2  747   2.325   0.659   0.276 -2.2635  0.8464  2.0548
  250SOL     OW  748   0.679   0.282   0.448 -0.0113  0.3877  0.1871
  250SOL    HW1  749   0.693   0.215   0.373  3.3548  0.7703  0.5303
  250SOL    HW2  750   0.760   0.341   0.471  0.3240 -0.9065  1.1218
  251SOL     OW  751   1.120   0.099   2.717 -0.3539 -0.0087  0.0288
  251SOL    HW1  752   1.131   0.013   2.772  0.8320 -1.7555  2.3441
  251SOL    HW2  753   1.201   0.112   2.660  1.6816  1.1480  0.2358
  252SOL     OW  754   1.836   1.699   2.202 -0.2397 -0.0383 -0.4700
  252SOL    HW1  755   1.906   1.778   2.206 -1.2534  0.9158 -1.5536
  252SOL    HW2  756   1.850   1.627   2.274  2.4258 -0.7700  3.4656
  253SOL     OW  757   2.156   2.363   2.074  0.4388 -0.1720 -0.1700
  253SOL    HW1  758   2.252   2.385   2.103 -1.7812 -3.2289  1.0788
  253SOL    HW2  759   2.147   2.318   1.981  1.6211  2.3337 -1.4560
  254SOL     OW  760   1.018   2.166   1.618 -0.2188 -0.4976 -0.0758
  254SOL    HW1  761   0.989   2.095   1.548 -0.5556  1.0613  0.7902
  254SOL    HW2  762   1.079   2.239   1.580  0.1922 -1.0215  2.7038
  255SOL     OW  763   0.970   1.132   0.752 -0.0580 -0.3937 -0.3817
  255SOL    HW1  764   0.978   1.157   0.850  0.1604 -2.2366 -1.9602
  255SOL    HW2  765   0.921   1.201   0.700 -0.3132 -0.4632  0.1479
  256SOL     OW  766   1.994   1.932   2.145  0.0740  0.3502  0.0670
  256SOL    HW1  767   1.950   1.995   2.074  1.6712  2.9276 -1.2133
  256SOL    HW2  768   2.054   1.984   2.209  1.5815  1.7614 -1.0712
  257SOL     OW  769   0.564   2.342   2.931 -0.0545 -0.0563  0.1456
  257SOL    HW1  770   0.603   2.423   2.882  3.0624 -0.1855  1.6185
  257SOL    HW2  771   0.467   2.363   2.954 -1.1214 -1.1792 -0.4397
  258SOL     OW  772   0.671   0.277   2.135  0.5662 -0.0418  0.0850
  258SOL    HW1  773   0.771   0.279   2.133 -0.7811 -2.5699  2.7521
  258SOL    HW2  774   0.643   0.228   2.049 -1.1973 -1.2605  1.9469
  259SOL     OW  775   0.961   0.262   2.073  0.4186 -0.1667  0.2584
  259SOL    HW1  776   0.994   0.221   1.984 -3.1334 -0.2839  0.9508
  259SOL    HW2  777   1.030   0.325   2.107 -0.5217  2.5399  0.4006
  260SOL     OW  778   1.340   0.763   0.913  0.1671  0.4246 -0.3129
  260SOL    HW1  779   1.402   0.834   0.901  0.8078 -1.3957  2.3562
  260SOL    HW2  780   1.248   0.792   0.887  0.6540  0.2334 -1.2057
  261SOL     OW  781   0.636   3.059   2.775 -0.1519 -0.7208 -0.0768
  261SOL    HW1  782   0.701   0.001   2.841 -0.7298 -1.1502 -0.4905
  261SOL    HW2  783   0.666   0.003   2.686 -1.8111 -0.7274  0.2813
  262SOL     OW  784   2.319   2.884   2.499 -0.1709 -0.0092  0.4491
  262SOL    HW1  785   2.335   2.984   2.519 -0.8522 -0.7359  1.8248
  262SOL    HW2  786   2.272   2.869   2.411 -0.5588 -1.7084  1.0432
  263SOL     OW  787   0.337   1.926   2.453 -0.4648 -0.0746  0.1706
  263SOL    HW1  788   0.250   1.890   2.487  1.3469 -2.8134  2.9965
  263SOL    HW2  789   0.404   1.917   2.528  0.5261 -0.9691  0.3638
  264SOL     OW  790   0.769   1.308   1.125 -0.2315 -0.1757  0.2808
  264SOL    HW1  791   0.826   1.378   1.171 -3.2490 -2.0665 -1.0086
  264SOL    HW2  792   0.727   1.340   1.039  1.9831 -1.4428 -0.3627
  265SOL     OW  793   0.460   1.909   2.996  0.0675  0.0125  0.6221
  265SOL    HW1  794   0.444   1.811   2.970  1.1120 -0.2499 -0.2054
  265SOL    HW2  795   0.528   1.916   3.070 -3.5146  0.5897 -1.8963
  266SOL     OW  796   1.280   1.277   0.480 -0.3595 -0.2764 -0.3266
  266SOL    HW1  797   1.332   1.252   0.562  1.3751 -0.7918  0.6921
  266SOL    HW2  798   1.191   1.230   0.482 -0.6569  0.8438 -0.4007
  267SOL     OW  799   2.537   1.010   0.083 -0.5569  0.1673 -0.4763
  267SOL    HW1  800   2.633   0.987   0.055  0.8789  1.2257  0.8798
  267SOL    HW2  801   2.527   0.954   0.168 -0.2062 -0.3966 -2.4725
  268SOL     OW  802   2.563   0.101   2.864  0.3998  0.2758  0.1297
  268SOL    HW1  803   2.574   0.124   2.764  0.5932  2.3776 -1.2149
  268SOL    HW2  804   2.505   0.018   2.880 -4.0743 -0.5689  0.1423
  269SOL     OW  805   1.779   0.668   2.610  0.5172  0.0569  0.0223
  269SOL    HW1  806   1.693   0.699   2.561 -2.5537 -0.8370  0.3200
  269SOL    HW2  807   1.858   0.658   2.548 -1.8626  1.8056  2.5168
  270SOL     OW  808   0.988   1.122   2.597  0.1757  0.4523  0.2905
  270SOL    HW1  809   0.892   1.131   2.561  2.1720 -2.4572  0.6177
  270SOL    HW2  810   1.016   1.209   2.635 -0.6407  2.4961 -2.2244
  271SOL     OW  811   2.550   1.290   0.122 -0.7268 -0.2760  0.3977
  271SOL    HW1  812   2.525   1.190   0.114  1.0624 -0.6644 -1.2563
  271SOL    HW2  813   2.621   1.294   0.197  0.0345  2.5614 -0.1830
  272SOL     OW  814   2.619   1.600   2.697 -0.2458  0.0722  0.3032
  272SOL    HW1  815   2.546   1.578   2.764 -0.1239 -0.0206 -0.8262
  272SOL    HW2  816   2.672   1.686   2.722  0.8847 -1.9145 -0.5363
  273SOL     OW  817   2.051   0.611   0.266 -0.7201  0.8231 -0.3656
  273SOL    HW1  818   1.987   0.602   0.342  1.8947  1.7729 -0.0908
  273SOL    HW2  819   2.026   0.558   0.183 -0.4677 -0.3995  3.5476
  274SOL     OW  820   0.174   2.524   1.106  0.2976 -0.4281 -0.2013
  274SOL    HW1  821   0.237   2.445   1.118 -0.0185  0.9112 -0.3601
  274SOL    HW2  822   0.122   2.542   1.193 -4.1997  0.7314  0.8458
  275SOL     OW  823   2.511   1.581   0.594  0.5846 -0.0053 -0.3807
  275SOL    HW1  824   2.457   1.505   0.554 -1.3727 -3.7774 -1.0055
  275SOL    HW2  825   2.456   1.614   0.678 -1.9009  3.8350 -0.7134
  276SOL     OW  826   3.032   0.981   2.513  0.4461  0.4985  0.5861
  276SOL    HW1  827   2.986   1.053   2.567 -0.7524 -0.8849 -0.1289
  276SOL    HW2  828   3.021   1.002   2.413 -0.7267 -2.8633  0.1010
  277SOL     OW  829   1.699   2.335   1.257  0.4994  0.4645 -0.6204
  277SOL    HW1  830   1.759   2.412   1.274  0.5004 -0.8511  3.6445
  277SOL    HW2  831   1.733   2.247   1.288 -1.6320 -2.1726 -0.7550
  278SOL     OW  832   1.067   0.135   1.824 -0.4216  0.3504  0.2916
  278SOL    HW1  833   1.009   0.054   1.851  0.6784  2.5291 -0.4644
  278SOL    HW2  834   1.155   0.116   1.772  1.2842  0.3045 -2.6134
  279SOL     OW  835   1.711   1.712   0.421 -0.4482 -0.3833 -0.4621
  279SOL    HW1  836   1.623   1.700   0.479  0.8867 -1.2745 -2.1805
  279SOL    HW2  837   1.791   1.705   0.482 -0.8659  0.6369 -1.5895
  280SOL     OW  838   0.612   1.911   0.796 -0.3488  0.2232  0.1280
  280SOL    HW1  839   0.628   1.898   0.697  1.6696  0.8349  2.3975
  280SOL    HW2  840   0.517   1.944   0.816 -0.1317  0.0359 -1.8930
  281SOL     OW  841   2.925   0.289   2.665 -0.0160  0.1530 -0.1927
  281SOL    HW1  842   2.922   0.359   2.587 -2.4535  1.6285 -0.4552
  281SOL    HW2  843   2.907   0.194   2.628 -1.3083 -3.6297 -0.5671
  282SOL     OW  844   0.464   1.022   0.648  0.0535  0.0034  0.5677
  282SOL    HW1  845   0.412   0.934   0.659 -1.8301 -2.6610  0.1714
  282SOL    HW2  846   0.413   1.103   0.689 -0.2460  1.1541  1.6048
  283SOL     OW  847   2.012   1.894   0.237  0.0279 -0.5474  0.2951
  283SOL    HW1  848   2.027   1.940   0.327  1.3722  0.9161  1.9080
  283SOL    HW2  849   1.916   1.874   0.218  1.1553  3.0767 -1.5077
  284SOL     OW  850   1.291   1.129   0.238  0.3696  0.2340  0.3060
  284SOL    HW1  851   1.266   1.173   0.326 -0.4561 -2.0872 -0.7630
  284SOL    HW2  852   1.353   1.187   0.183 -0.1273 -2.6317  1.4363
  285SOL     OW  853   2.324   0.599   2.645 -0.2071 -0.4063  0.1762
  285SOL    HW1  854   2.370   0.680   2.686 -1.0928 -0.2182  1.4132
  285SOL    HW2  855   2.226   0.597   2.671  0.1891 -0.5740 -0.3181
  286SOL     OW  856   1.443   2.693   1.466 -0.1056  0.0898 -0.0763
  286SOL    HW1  857   1.448   2.722   1.563  1.0016  2.3266 -1.1307
  286SOL    HW2  858   1.494   2.610   1.443  0.5883  1.5586  0.3408
  287SOL     OW  859   1.060   1.204   1.014 -0.0038  0.3697 -0.2574
  287SOL    HW1  860   1.155   1.170   1.038 -3.0253 -2.8795 -0.9295
  287SOL    HW2  861   1.000   1.179   1.095  1.9392  2.6651  2.5587
  288SOL     OW  862   1.285   2.988   2.967  0.0516  0.4995  0.0766
  288SOL    HW1  863   1.385   2.984   2.973 -2.3377 -0.4527  1.1910
  288SOL    HW2  864   1.250   2.960   2.874  2.1937 -2.7254 -1.1649
  289SOL     OW  865   0.263   1.404   1.938  0.5016 -0.1857  0.1244
  289SOL    HW1  866   0.305   1.485   1.984  1.5322 -0.1110  0.7721
  289SOL    HW2  867   0.161   1.407   1.934 -0.1249 -0.9018  1.6423
  290SOL     OW  868   1.868   2.352   0.966 -0.0577 -0.3587 -0.1329
  290SOL    HW1  869   1.867   2.253   0.968 -1.3433  3.7947 -0.0243
  290SOL    HW2  870   1.955   2.393   1.010  2.9183  1.1900  3.3883
  291SOL     OW  871   2.190   2.364   2.898  0.3851  0.2083  0.1699
  291SOL    HW1  872   2.128   2.390   2.982 -0.9583  1.3622  0.5420
  291SOL    HW2  873   2.251   2.440   2.869  0.0380 -0.8426  2.8148
  292SOL     OW  874   0.872   0.765   1.903  0.2531  0.4843 -0.1709
  292SOL    HW1  875   0.834   0.796   1.995  1.5189 -1.3612  0.8609
  292SOL    HW2  876   0.966   0.806   1.888  1.5216 -1.8201 -0.7076
  293SOL     OW  877   2.134   2.624   0.827  0.5621  0.2099 -0.3840
  293SOL    HW1  878   2.032   2.664   0.829 -2.3991  4.2307 -1.7626
  293SOL    HW2  879   2.191   2.705   0.806  3.2300 -1.5630  0.9511
  294SOL     OW  880   0.580   0.459   2.494 -0.1144 -0.1204  0.1349
  294SOL    HW1  881   0.535   0.535   2.549 -1.1750  0.6284 -0.9896
  294SOL    HW2  882   0.678   0.476   2.480  0.2302 -0.6909  1.1053
  295SOL     OW  883   1.497   1.733   0.583 -0.2083 -0.2825 -0.0052
  295SOL    HW1  884   1.520   1.690   0.675  2.3967  1.0862 -0.4654
  295SOL    HW2  885   1.426   1.682   0.533  0.3943 -0.4812  0.2705
  296SOL     OW  886   2.490   1.957   0.219  0.2446 -0.6451 -0.0174
  296SOL    HW1  887   2.588   1.998   0.223 -0.2777  0.2562  0.2851
  296SOL    HW2  888   2.484   1.868   0.271  2.4016  1.5897 -1.3368
  297SOL     OW  889   2.127   0.149   0.220  0.0524  0.2434  0.2253
  297SOL    HW1  890   2.087   0.163   0.129 -0.2702  0.3494  1.1517
  297SOL    HW2  891   2.146   0.049   0.236 -0.1656 -0.9321 -0.3882
  298SOL     OW  892   1.288   2.302   2.294  0.5086  0.1059  0.1068
  298SOL    HW1  893   1.250   2.292   2.199 -0.3986 -0.5515  2.6328
  298SOL    HW2  894   1.356   2.378   2.301 -1.4511  0.6339 -0.6903
  299SOL     OW  895   1.366   2.655   2.505  0.2929  0.1519  0.1604
  299SOL    HW1  896   1.435   2.650   2.582  1.3643  0.6310  1.1382
  299SOL    HW2  897   1.385   2.594   2.428  2.6842 -1.3495  1.0980
  300SOL     OW  898   2.080   0.165   2.636  0.0649 -0.0220 -0.3949
  300SOL    HW1  899   2.025   0.247   2.653  1.5332 -0.3180  1.9456
  300SOL    HW2  900   2.170   0.167   2.681 -2.2700  1.1024  1.0188
  301SOL     OW  901   1.402   1.069   1.863 -0.5910  0.3438 -0.1952
  301SOL    HW1  902   1.484   1.106   1.913 -0.7592  0.3724  1.3376
  301SOL    HW2  903   1.415   1.074   1.763 -0.2641  0.1021  1.3041
  302SOL     OW  904   2.668   2.364   0.285  0.1320  0.0708  0.5564
  302SOL    HW1  905   2.745   2.374   0.212 -1.2676 -2.4004 -1.8763
  302SOL    HW2  906   2.580   2.383   0.233  0.1245  0.5570  0.4587
  303SOL     OW  907   2.768   2.333   2.552  0.2691 -0.2354 -0.4558
  303SOL    HW1  908   2.807   2.416   2.508  1.3952 -0.3619 -0.7766
  303SOL    HW2  909   2.781   2.251   2.491  0.4771 -0.1006 -0.0986
  304SOL     OW  910   2.788   0.490   1.765  0.1404 -0.2527 -0.2339
  304SOL    HW1  911   2.856   0.557   1.723  1.1241  2.6859 -1.7317
  304SOL    HW2  912   2.819   0.449   1.856 -1.6185 -0.4735  1.9967
  305SOL     OW  913   0.808   1.969   1.877 -0.1215  0.2843  0.0345
  305SOL    HW1  914   0.894   2.010   1.910  2.0826 -0.3766 -0.8423
  305SOL    HW2  915   0.750   2.047   1.851  2.4507 -2.5109  1.7358
  306SOL     OW  916   2.717   0.825   1.663  0.0574 -0.3805 -0.1444
  306SOL    HW1  917   2.719   0.740   1.608  0.8714  3.0296  1.2340
  306SOL    HW2  918   2.672   0.807   1.753 -0.7745  1.0539 -0.3625
  307SOL     OW  919   1.587   1.057   2.072 -0.0322 -0.4512  0.0407
  307SOL    HW1  920   1.601   0.957   2.085 -1.7682  1.9066  0.4662
  307SOL    HW2  921   1.674   1.108   2.080 -1.0319 -2.5809 -0.1791
  308SOL     OW  922   2.739   1.691   0.839 -0.1138  0.2104  0.0788
  308SOL    HW1  923   2.739   1.602   0.798 -0.7003  3.8279 -0.3047
  308SOL    HW2  924   2.705   1.680   0.936  0.8704 -1.3498  0.3277
  309SOL     OW  925   2.329   1.637   1.185  0.4069 -0.1983  0.1206
  309SOL    HW1  926   2.409   1.582   1.156  2.6567 -0.7547  0.2845
  309SOL    HW2  927   2.284   1.609   1.271 -2.8614  0.3858 -1.0761
  310SOL     OW  928   2.745   1.887   2.456 -0.3045  0.2336 -0.1849
  310SOL    HW1  929   2.732   1.797   2.410 -1.3779 -0.3046  0.2013
  310SOL    HW2  930   2.746   1.875   2.555  2.1599 -0.5434 -0.5242
  311SOL     OW  931   0.115   2.470   0.069 -0.5329 -0.2054  0.0949
  311SOL    HW1  932   0.132   2.548   0.132  2.3328  0.1433  0.6139
  311SOL    HW2  933   0.107   2.383   0.122  0.0899  1.3538  0.1196
  312SOL     OW  934   2.245   1.470   0.923  0.1571 -0.0363 -0.2981
  312SOL    HW1  935   2.272   1.569   0.902  1.5839  0.1119 -0.0233
  312SOL    HW2  936   2.301   1.412   0.858  0.8844  0.6688  1.3303
  313SOL     OW  937   2.675   0.168   1.011  0.2028  0.0144  0.1933
  313SOL    HW1  938   2.619   0.243   0.981 -0.4568  0.5001 -0.5461
  313SOL    HW2  939   2.649   0.077   0.968 -0.2590  1.9080 -0.1964
  314SOL     OW  940   1.371   1.676   0.207  0.0094 -0.6482  0.1594
  314SOL    HW1  941   1.406   1.645   0.116 -0.8001  1.2700 -0.1734
  314SOL    HW2  942   1.325   1.769   0.200 -0.4919  0.3565  0.2847
  315SOL     OW  943   1.226   2.285   2.035  0.2921  0.1118 -0.2643
  315SOL    HW1  944   1.321   2.281   2.009  0.0055  2.0333  0.2136
  315SOL    HW2  945   1.172   2.213   1.989  0.2718 -0.3626 -0.8882
  316SOL     OW  946   2.997   1.140   0.314  0.2230  0.3608 -0.1782
  316SOL    HW1  947   2.978   1.138   0.211 -0.6684 -1.4050  1.2725
  316SOL    HW2  948   0.000   1.166   0.327 -2.0411  1.5377  2.1062
  317SOL     OW  949   0.817   3.061   0.347  0.0406  0.0032  0.5867
  317SOL    HW1  950   0.904   0.008   0.381  2.8129  1.2623  2.2915
  317SOL    HW2  951   0.769   3.015   0.425 -1.5560 -0.4473  0.0442
  318SOL     OW  952   2.768   2.552   0.444 -0.6196  0.6730 -0.2084
  318SOL    HW1  953   2.702   2.484   0.408  1.0641 -0.1058  1.7192
  318SOL    HW2  954   2.825   2.601   0.377 -0.7949  0.2835  0.0962
  319SOL     OW  955   0.731   1.308   2.506  0.3240  0.1795  0.1923
  319SOL    HW1  956   0.653   1.259   2.544 -3.4523 -1.3897  0.5003
  319SOL    HW2  957   0.729   1.410   2.527  0.2634  2.0136  0.6744
  320SOL     OW  958   0.607   2.450   1.759  0.3509  0.0136 -0.1688
  320SOL    HW1  959   0.649   2.535   1.716  1.6106 -2.0621  1.1994
  320SOL    HW2  960   0.535   2.483   1.822 -1.7689  0.7015 -1.7499
  321SOL     OW  961   1.454   2.181   0.035  0.3161 -0.1206  0.2427
  321SOL    HW1  962   1.552   2.173   0.064  0.4917 -0.6703  1.5747
  321SOL    HW2  963   1.442   2.258   3.067  0.4956  0.2259  0.8802
  322SOL     OW  964   2.890   1.303   2.197 -0.0565  0.1757  0.4490
  322SOL    HW1  965   2.819   1.292   2.270  0.8662 -0.4312  0.9921
  322SOL    HW2  966   2.890   1.218   2.139  0.9155 -2.4622  1.6253
  323SOL     OW  967   2.349   1.056   0.525 -0.6816  0.0693 -0.1520
  323SOL    HW1  968   2.449   1.064   0.529 -0.3069  1.7102  1.1298
  323SOL    HW2  969   2.312   1.012   0.440 -1.5833  1.4929  0.2913
  324SOL     OW  970   0.390   2.821   3.008 -0.1696 -0.2301 -0.1748
  324SOL    HW1  971   0.414   2.732   3.058  2.5407 -0.5754 -0.3499
  324SOL    HW2  972   0.298   2.812   2.963  0.2700 -1.7594  3.6621
  325SOL     OW  973   1.455   0.270   2.361  0.1318 -0.0132 -0.5270
  325SOL    HW1  974   1.541   0.314   2.333  0.1748 -0.4563  0.8503
  325SOL    HW2  975   1.413   0.216   2.287 -1.7545 -0.5252  0.5839
  326SOL     OW  976   2.460   2.721   1.521 -0.2729  0.0064  0.1262
  326SOL    HW1  977   2.547   2.770   1.494 -2.2321  0.5700 -1.4400
  326SOL    HW2  978   2.479   2.649   1.588 -0.7829 -1.4001  0.2036
  327SOL     OW  979   1.844   0.475   3.060 -0.9921  0.5430 -0.9943
  327SOL    HW1  980   1.786   0.532   3.004  0.7393  1.3709  1.2153
  327SOL    HW2  981   1.938   0.466   3.014  1.2847 -1.1392 -1.6383
  328SOL     OW  982   2.795   0.649   2.160 -0.2441 -0.7844  0.1751
  328SOL    HW1  983   2.862   0.727   2.177 -0.0186 -0.1596  0.1569
  328SOL    HW2  984   2.715   0.659   2.219 -1.4800 -0.6530 -2.3106
  329SOL     OW  985   1.546   0.092   1.985 -0.2950  0.6252  0.3189
  329SOL    HW1  986   1.556   0.003   2.036  3.8139  1.5460 -1.2918
  329SOL    HW2  987   1.517   0.071   1.888 -3.0316 -2.5322 -2.2966
  330SOL     OW  988   2.839   1.699   1.318  0.0487 -0.3203  0.7242
  330SOL    HW1  989   2.922   1.678   1.265  0.4648  0.0538 -0.2438
  330SOL    HW2  990   2.821   1.627   1.391 -1.0177 -0.7345  2.3502
  331SOL     OW  991   0.579   1.268   2.130 -0.5132 -0.4594 -0.9853
  331SOL    HW1  992   0.550   1.206   2.206  1.2456 -1.0877  0.3164
  331SOL    HW2  993   0.556   1.367   2.145  2.3898  2.3257  0.4286
  332SOL     OW  994   0.169   2.855   1.554  0.2452 -0.2003 -0.1474
  332SOL    HW1  995   0.256   2.867   1.507 -2.8399 -0.3440  1.0367
  332SOL    HW2  996   0.090   2.834   1.494  0.3167 -0.5827  3.1525
  333SOL     OW  997   2.431   2.686   1.955 -0.3106 -0.3670 -0.0561
  333SOL    HW1  998   2.525   2.707   1.994 -1.5028  2.3854  2.1807
  333SOL    HW2  999   2.433   2.654   1.859 -0.7814 -0.4477 -1.1277
  334SOL     OW 1000   1.038   2.057   0.786 -0.3878 -0.4445 -0.0294
  334SOL    HW1 1001   0.965   2.025   0.851 -0.7085  0.9877  0.8873
  334SOL    HW2 1002   1.073   2.145   0.824  1.2950  0.0065 -0.0686
  335SOL     OW 1003   0.828   2.267   2.925  0.0493  0.2547 -0.2331
  335SOL    HW1 1004   0.737   2.307   2.911 -1.4791 -1.5703 -0.0372
  335SOL    HW2 1005   0.895   2.334   2.953 -1.1690 -1.8906  2.2439
  336SOL     OW 1006   0.216   0.151   2.071  0.1333  0.3193 -0.2014
  336SOL    HW1 1007   0.121   0.166   2.103  0.5683 -0.6378  1.7330
  336SOL    HW2 1008   0.245   0.054   2.079 -1.9625  0.8033  1.2656
  337SOL     OW 1009   2.793   2.168   0.008 -0.2839  0.0529 -0.1046
  337SOL    HW1 1010   2.752   2.143   0.097  0.8051  2.1469 -0.8205
  337SOL    HW2 1011   2.878   2.121   3.071  3.0116  0.0564 -1.9187
  338SOL     OW 1012   1.120   1.837   1.270  0.4826  0.2361  0.1365
  338SOL    HW1 1013   1.149   1.932   1.272 -3.1833 -1.3466  0.6751
  338SOL    HW2 1014   1.028   1.824   1.227  1.1400 -2.5726 -0.7101
  339SOL     OW 1015   3.035   0.188   2.078  0.3424  0.5234 -0.1517
  339SOL    HW1 1016   2.955   0.221   2.133  3.0024 -0.6769 -2.3035
  339SOL    HW2 1017   3.016   0.220   1.980 -0.5223  1.9007 -0.9760
  340SOL     OW 1018   1.599   2.565   0.466 -0.2358  0.0928 -0.4656
  340SOL    HW1 1019   1.574   2.521   0.373 -1.2418  0.7090 -0.2712
  340SOL    HW2 1020   1.567   2.515   0.548  0.9221  2.5120  1.6060
  341SOL     OW 1021   1.836   1.512   1.214  0.3277 -0.0924 -0.1028
  341SOL    HW1 1022   1.796   1.454   1.287 -0.4693  0.0887 -1.5208
  341SOL    HW2 1023   1.802   1.481   1.120  0.7169 -0.8129  0.6499
  342SOL     OW 1024   0.203   1.673   0.470 -0.0738  0.9010 -0.0372
  342SOL    HW1 1025   0.159   1.760   0.450 -1.0123 -1.7084  0.2448
  342SOL    HW2 1026   0.290   1.670   0.421 -1.3235 -0.8147 -0.3413
  343SOL     OW 1027   1.434   2.406   1.309 -0.1027  0.1615 -0.4429
  343SOL    HW1 1028   1.534   2.407   1.297 -1.9293  3.3709 -1.0156
  343SOL    HW2 1029   1.388   2.349   1.240 -0.9402  0.1434  0.1221
  344SOL     OW 1030   2.264   2.840   0.745  0.4668 -0.8753 -0.0401
  344SOL    HW1 1031   2.278   2.909   0.670 -0.3161 -0.2236  0.8211
  344SOL    HW2 1032   2.301   2.873   0.840  1.0644 -1.1520  5.8800
  345SOL     OW 1033   2.759   2.362   2.829 -0.1916 -0.1994 -0.6227
  345SOL    HW1 1034   2.760   2.375   2.728 -5.5218  0.5715  0.4025
  345SOL    HW2 1035   2.847   2.349   2.882 -2.5944  0.3419  1.4085
  346SOL     OW 1036   0.358   1.967   0.879  0.4327 -0.1207 -0.1156
  346SOL    HW1 1037   0.294   1.913   0.821  2.2731  1.1116  0.0628
  346SOL    HW2 1038   0.357   2.063   0.848 -1.4095  1.5185  1.9625
  347SOL     OW 1039   1.865   2.542   1.294 -0.0887  0.3636 -0.2294
  347SOL    HW1 1040   1.877   2.613   1.368  2.1427 -0.7422 -0.4300
  347SOL    HW2 1041   1.895   2.568   1.204 -0.0608  0.2257  1.7599
  348SOL     OW 1042   1.296   1.543   2.661 -0.2726  0.1348 -0.2646
  348SOL    HW1 1043   1.278   1.596   2.751  3.2945  0.8441  0.9076
  348SOL    HW2 1044   1.273   1.600   2.581 -0.4393  0.8551 -1.3541
  349SOL     OW 1045   2.275   0.749   2.109 -0.9403  0.1971  0.3453
  349SOL    HW1 1046   2.295   0.769   2.208  1.5222  0.0615  4.2795
  349SOL    HW2 1047   2.308   0.821   2.045  0.6690 -1.4181  0.3406
  350SOL     OW 1048   2.906   2.434   1.355  0.2078  0.4321  0.7777
  350SOL    HW1 1049   2.991   2.413   1.303  2.5117 -1.2853 -0.1871
  350SOL    HW2 1050   2.841   2.474   1.287  0.3491 -0.6118 -2.5176
  351SOL     OW 1051   0.487   0.418   2.829 -1.1003  0.1116 -0.5591
  351SOL    HW1 1052   0.414   0.394   2.763 -0.9300 -1.2074  1.4518
  351SOL    HW2 1053   0.579   0.381   2.804  0.9139 -2.2226 -1.3918
  352SOL     OW 1054   0.556   2.435   1.321 -0.1506  0.4547  0.1405
  352SOL    HW1 1055   0.644   2.392   1.354  0.4396  0.5121  1.5168
  352SOL    HW2 1056   0.512   2.490   1.395 -1.9682 -0.2391  1.0076
  353SOL     OW 1057   0.970   0.922   2.439  0.2960  0.0185  0.0068
  353SOL    HW1 1058   0.995   0.993   2.502 -0.0366  0.3403  1.9163
  353SOL    HW2 1059   0.990   0.946   2.343  0.7812  0.5066  0.9428
  354SOL     OW 1060   1.533   0.898   0.492 -0.2280  0.3890 -0.4682
  354SOL    HW1 1061   1.433   0.899   0.510  3.2744  1.2884  0.4740
  354SOL    HW2 1062   1.563   0.988   0.451 -0.2163  0.9116  1.0167
  355SOL     OW 1063   2.690   0.439   0.434 -0.3167  0.1421 -0.4529
  355SOL    HW1 1064   2.671   0.364   0.366 -2.5944 -0.0295  0.6540
  355SOL    HW2 1065   2.756   0.398   0.502 -0.7433 -0.8055  0.5349
  356SOL     OW 1066   2.669   0.842   2.520 -0.5670  0.1118  0.0200
  356SOL    HW1 1067   2.752   0.795   2.558 -0.6513 -1.2167  1.3129
  356SOL    HW2 1068   2.692   0.937   2.494 -1.5978 -0.7432  1.3877
  357SOL     OW 1069   0.647   2.702   1.660 -0.4755 -0.3087  0.6568
  357SOL    HW1 1070   0.743   2.697   1.623 -0.4026  1.0246  0.6467
  357SOL    HW2 1071   0.632   2.785   1.710 -0.6200 -3.5518  1.9275
  358SOL     OW 1072   2.252   1.262   2.435  0.6290 -0.3827  0.2765
  358SOL    HW1 1073   2.297   1.341   2.385 -0.4932 -1.1547 -0.1908
  358SOL    HW2 1074   2.158   1.290   2.466 -2.5384 -0.5464  0.9893
  359SOL     OW 1075   2.621   2.522   2.969 -0.6445 -0.2239  0.9221
  359SOL    HW1 1076   2.649   2.619   2.937 -0.1727  1.9755 -5.1010
  359SOL    HW2 1077   2.677   2.457   2.916 -0.1684 -0.1419 -1.1690
  360SOL     OW 1078   2.254   0.642   0.703  0.2681  0.8891 -0.4742
  360SOL    HW1 1079   2.240   0.650   0.806 -1.3758 -2.7972  3.2601
  360SOL    HW2 1080   2.351   0.650   0.679  2.7714 -1.7225  0.3589
  361SOL     OW 1081   1.941   2.864   1.084  0.2419 -0.0867  0.2281
  361SOL    HW1 1082   1.852   2.869   1.139 -1.1911 -0.0677 -0.8672
  361SOL    HW2 1083   1.919   2.825   0.995 -0.2923  1.5611  1.2978
  362SOL     OW 1084   1.468   1.220   0.666  0.1466  0.5401  0.0848
  362SOL    HW1 1085   1.509   1.198   0.577 -0.1458  1.9889 -0.5815
  362SOL    HW2 1086   1.534   1.276   0.719 -0.7991  2.7972 -0.5117
  363SOL     OW 1087   2.772   1.644   2.340  0.2044 -0.7560  0.0591
  363SOL    HW1 1088   2.799   1.635   2.241  0.6359 -0.8995  0.1033
  363SOL    HW2 1089   2.744   1.554   2.377  0.9377  0.1050 -1.8506
  364SOL     OW 1090   1.087   0.584   1.268 -0.4490  0.5145  0.4978
  364SOL    HW1 1091   1.063   0.485   1.286  2.4332  0.1936 -1.2709
  364SOL    HW2 1092   1.188   0.596   1.265  1.7032  0.9804 -2.7825
  365SOL     OW 1093   3.058   3.029   1.031  0.4170 -0.3517  0.2114
  365SOL    HW1 1094   0.064   3.013   1.022  0.4775 -0.9363  0.6004
  365SOL    HW2 1095   3.028   0.026   0.995  2.3460 -0.8497  1.6713
  366SOL     OW 1096   2.745   1.259   0.308 -0.0969 -0.0939  0.0144
  366SOL    HW1 1097   2.759   1.340   0.368  1.4148  3.1908 -1.8459
  366SOL    HW2 1098   2.832   1.211   0.302 -2.3283  3.8264 -2.5442
  367SOL     OW 1099   3.076   2.056   3.067 -0.3988  0.5169  0.1239
  367SOL    HW1 1100   0.021   2.108   0.050 -0.3396  0.8357 -3.3580
  367SOL    HW2 1101   3.023   1.974   0.008  0.7199 -0.1851  0.3849
  368SOL     OW 1102   2.986   2.393   1.075 -0.1555  0.6656 -0.3488
  368SOL    HW1 1103   2.944   2.451   1.145  2.3639 -1.5573 -0.2574
  368SOL    HW2 1104   3.078   2.428   1.050  1.0672  1.1689  0.3518
  369SOL     OW 1105   0.455   0.388   0.487 -0.1870  0.0510 -0.0672
  369SOL    HW1 1106   0.385   0.329   0.531  1.4840 -0.7721 -1.9181
  369SOL    HW2 1107   0.540   0.331   0.470  2.1376 -0.7100 -2.4114
  370SOL     OW 1108   0.294   0.923   1.706 -0.3351  0.0242 -0.0213
  370SOL    HW1 1109   0.233   1.002   1.718 -1.0482 -0.5638 -0.8462
  370SOL    HW2 1110   0.335   0.930   1.612  2.2824  0.3531 -2.5646
  371SOL     OW 1111   2.173   2.161   0.835  0.5233 -0.0753  0.1420
  371SOL    HW1 1112   2.133   2.156   0.927  2.4519 -1.2088  1.2886
  371SOL    HW2 1113   2.272   2.132   0.836 -0.2423  2.1339  2.1490
  372SOL     OW 1114   2.908   0.755   2.616  0.2215 -0.5376 -0.1951
  372SOL    HW1 1115   2.938   0.665   2.653 -3.4266  2.1504  2.4969
  372SOL    HW2 1116   2.982   0.818   2.595 -0.0783  0.1303 -0.5207
  373SOL     OW 1117   2.741   1.476   0.491  0.0861  0.7322 -0.0342
  373SOL    HW1 1118   2.794   1.544   0.436  2.2022 -1.9989  0.2978
  373SOL    HW2 1119   2.657   1.519   0.525  2.2638 -2.0922 -2.2411
  374SOL     OW 1120   0.730   2.368   0.125 -0.3963 -0.2494 -0.3402
  374SOL    HW1 1121   0.760   2.459   0.095  1.0866 -1.8028 -1.1858
  374SOL    HW2 1122   0.699   2.312   0.047  0.5423  0.9617  2.6443
  375SOL     OW 1123   0.707   0.303   0.107  0.0557  0.6424 -0.3884
  375SOL    HW1 1124   0.764   0.385   0.131  1.7428  1.0329  1.0827
  375SOL    HW2 1125   0.617   0.329   0.073  2.0511 -1.2341  1.9290
  376SOL     OW 1126   0.329   2.978   2.060 -0.8873  0.2774  0.9723
  376SOL    HW1 1127   0.315   2.930   1.966  1.0210 -2.9371 -2.7216
  376SOL    HW2 1128   0.315   2.915   2.139  0.5192  0.8503  0.3249
  377SOL     OW 1129   0.789   1.938   2.305 -0.2492 -0.3492 -0.2130
  377SOL    HW1 1130   0.835   2.028   2.280 -1.7785 -1.2446 -1.8126
  377SOL    HW2 1131   0.791   1.878   2.222 -0.3882 -0.4662  2.9848
  378SOL     OW 1132   1.091   1.086   0.521 -0.0750  0.0702  0.1429
  378SOL    HW1 1133   1.048   1.107   0.609  0.4392 -0.2739 -0.8126
  378SOL    HW2 1134   1.022   1.038   0.466 -0.0038  1.1942  2.3561
  379SOL     OW 1135   1.053   1.595   3.062 -0.5609  0.5951 -0.2238
  379SOL    HW1 1136   1.082   1.515   0.026  2.5453 -1.8572 -0.5274
  379SOL    HW2 1137   1.133   1.651   3.031  1.7912  0.3012  1.9924
  380SOL     OW 1138   0.034   2.021   1.875  0.9117  0.0569 -0.0029
  380SOL    HW1 1139   3.029   2.022   1.853  0.5558  0.9444  1.1879
  380SOL    HW2 1140   0.095   2.087   1.830 -1.6439 -1.1653  2.0166
  381SOL     OW 1141   2.925   0.856   1.902  0.2574 -0.4215 -0.2040
  381SOL    HW1 1142   3.015   0.829   1.940 -4.1288  2.2803  0.0121
  381SOL    HW2 1143   2.910   0.814   1.815 -1.4720  0.4007  2.4369
  382SOL     OW 1144   2.564   2.219   2.991 -0.1712  0.3967  0.0868
  382SOL    HW1 1145   2.576   2.267   2.905 -1.0941 -0.9937  1.6334
  382SOL    HW2 1146   2.653   2.202   3.044 -2.5774 -0.9061  0.3313
  383SOL     OW 1147   2.322   2.050   2.175  0.6033 -0.4039 -0.0424
  383SOL    HW1 1148   2.379   2.008   2.249  1.1563  1.0747 -2.8879
  383SOL    HW2 1149   2.232   2.075   2.218  0.3552 -0.7567  1.7788
  384SOL     OW 1150   0.814   2.326   2.004 -0.5008  0.1100  0.4968
  384SOL    HW1 1151   0.750   2.265   1.956 -3.6751 -0.8999 -2.8240
  384SOL    HW2 1152   0.767   2.404   2.050 -0.8241 -0.4220  0.1611
  385SOL     OW 1153   2.701   2.038   1.020  0.2919 -0.6584 -0.0953
  385SOL    HW1 1154   2.697   2.139   1.017 -1.4385 -0.6398  1.8751
  385SOL    HW2 1155   2.703   2.004   1.121 -1.1445 -0.0512  0.8141
  386SOL     OW 1156   1.598   0.861   2.914  0.1870 -0.3000 -0.0939
  386SOL    HW1 1157   1.607   0.878   3.016 -0.2879 -0.7548 -2.0084
  386SOL    HW2 1158   1.613   0.762   2.897  2.4560 -1.4446 -3.1374
  387SOL     OW 1159   0.262   0.577   1.975  0.2410  0.2513  0.0604
  387SOL    HW1 1160   0.319   0.660   1.967 -0.0204 -0.8350 -0.4858
  387SOL    HW2 1161   0.312   0.498   2.013 -1.0463 -2.7048  3.0322
  388SOL     OW 1162   2.713   1.087   1.563  0.1351 -0.4212  0.4611
  388SOL    HW1 1163   2.705   0.988   1.594  2.0171 -1.9446  0.4276
  388SOL    HW2 1164   2.810   1.107   1.537 -1.9262  3.1757 -0.8057
  389SOL     OW 1165   1.741   0.989   2.404  0.0440  0.0125 -0.3937
  389SOL    HW1 1166   1.828   0.950   2.447  4.9998 -0.0027  3.8314
  389SOL    HW2 1167   1.707   1.069   2.455 -1.3283  0.3551  2.0342
  390SOL     OW 1168   1.973   2.190   0.651 -0.2910  0.3411 -0.2748
  390SOL    HW1 1169   2.048   2.190   0.722 -0.1632 -0.1627  0.0751
  390SOL    HW2 1170   1.925   2.280   0.646 -1.0307 -1.5147  0.2544
  391SOL     OW 1171   1.890   2.755   0.850  0.2585 -0.6261  0.4433
  391SOL    HW1 1172   1.912   2.804   0.769 -0.7342 -1.6295  4.5636
  391SOL    HW2 1173   1.800   2.703   0.845 -1.9481  2.2108  0.1177
  392SOL     OW 1174   2.704   2.841   1.504  0.4235 -0.2335  0.2973
  392SOL    HW1 1175   2.799   2.865   1.470  2.6626  0.6126 -2.5107
  392SOL    HW2 1176   2.690   2.862   1.604 -0.7218 -0.1399 -0.1075
  393SOL     OW 1177   1.893   1.834   2.759 -0.6852 -0.0159 -0.3641
  393SOL    HW1 1178   1.831   1.896   2.812 -0.2146  1.3982  0.5332
  393SOL    HW2 1179   1.972   1.808   2.823  1.5637  0.2617  1.1787
  394SOL     OW 1180   0.624   2.789   2.836  0.0776  0.1545  0.5464
  394SOL    HW1 1181   0.621   2.882   2.787 -1.0928  1.0448 -2.0229
  394SOL    HW2 1182   0.539   2.783   2.890 -1.8543  0.6285 -0.6727
  395SOL     OW 1183   1.079   1.483   0.983  0.1815 -0.2005  0.6066
  395SOL    HW1 1184   1.004   1.518   0.924 -0.4817 -0.1080  1.3903
  395SOL    HW2 1185   1.070   1.381   0.990  0.0156 -1.3048 -0.4005
  396SOL     OW 1186   1.931   0.843   2.850  0.4348 -0.0872  0.4306
  396SOL    HW1 1187   1.847   0.899   2.836  1.4641  0.2682  1.7031
  396SOL    HW2 1188   1.930   0.799   2.936 -2.8258  0.8610 -2.8968
  397SOL     OW 1189   0.109   0.461   2.623  0.3656 -0.4988  0.0660
  397SOL    HW1 1190   0.153   0.374   2.652 -2.2279 -0.1402 -0.9048
  397SOL    HW2 1191   0.037   0.492   2.688 -0.6460  4.4707  1.3713
  398SOL     OW 1192   0.880   0.740   0.516  0.5672  0.5438 -0.2659
  398SOL    HW1 1193   0.894   0.830   0.467 -0.7712  3.2959  0.7524
  398SOL    HW2 1194   0.842   0.675   0.451  0.6963 -2.7585  0.6800
  399SOL     OW 1195   1.912   0.096   1.722 -0.5847 -0.4751  0.0879
  399SOL    HW1 1196   1.818   0.104   1.690  1.0459  1.3758 -0.1350
  399SOL    HW2 1197   1.927   0.028   1.796  0.2261 -1.9375  1.8962
  400SOL     OW 1198   0.005   2.063   2.338 -0.1550 -0.1812  0.1492
  400SOL    HW1 1199   0.041   2.114   2.257  0.2458 -1.5256 -1.1121
  400SOL    HW2 1200   3.068   1.967   2.308 -0.6020  0.7825  1.5425
  401SOL     OW 1201   0.709   0.035   0.119 -0.2983  0.2374 -0.4341
  401SOL    HW1 1202   0.724   0.138   0.123 -0.8852 -0.2673  0.8808
  401SOL    HW2 1203   0.749   3.093   0.210 -1.6885  0.0644  2.1983
  402SOL     OW 1204   0.225   2.511   1.614 -0.2729 -0.1968 -0.1829
  402SOL    HW1 1205   0.286   2.430   1.601  1.0537 -0.2888  0.6123
  402SOL    HW2 1206   0.186   2.511   1.712 -0.8619 -0.9132  2.0061
  403SOL     OW 1207   0.124   1.273   1.250 -0.2439  0.0094 -0.3820
  403SOL    HW1 1208   0.127   1.253   1.348 -1.4441  1.8059 -1.4772
  403SOL    HW2 1209   0.048   1.334   1.232  1.8235  0.4282  0.5356
  404SOL     OW 1210   0.028   2.516   2.110  0.3745 -0.5471  0.1900
  404SOL    HW1 1211   3.092   2.420   2.113 -0.8973  1.5417  1.0330
  404SOL    HW2 1212   0.067   2.541   2.200  0.4929 -0.5117  0.0907
  405SOL     OW 1213   2.758   0.221   2.152  0.5036 -0.5035 -0.2102
  405SOL    HW1 1214   2.688   0.262   2.214  0.0491  0.2974  1.3289
  405SOL    HW2 1215   2.731   0.122   2.130  2.0038 -1.3646  1.5207
  406SOL     OW 1216   2.034   2.358   0.269  0.0046 -0.4726 -0.4632
  406SOL    HW1 1217   1.994   2.264   0.287 -0.8055 -1.9621 -0.4175
  406SOL    HW2 1218   2.018   2.425   0.345 -0.0146 -2.0663 -2.1239
  407SOL     OW 1219   1.910   1.682   0.899  0.4674  0.0885  0.2215
  407SOL    HW1 1220   1.970   1.710   0.978  1.5647  1.2197  0.3095
  407SOL    HW2 1221   1.922   1.578   0.886  0.5323 -0.0266 -0.2822
  408SOL     OW 1222   0.554   0.223   2.382  0.2981 -0.3013 -0.0669
  408SOL    HW1 1223   0.548   0.316   2.417  0.6862  0.5103 -2.1277
  408SOL    HW2 1224   0.588   0.229   2.287  0.7145  2.7964 -0.2397
  409SOL     OW 1225   2.742   1.982   0.742  0.5604 -0.3708  0.1151
  409SOL    HW1 1226   2.696   1.892   0.730 -0.3028 -0.2084  0.3006
  409SOL    HW2 1227   2.751   2.002   0.842 -2.5585  3.7723  1.2304
  410SOL     OW 1228   2.147   1.370   1.150  0.0497  0.4940  0.2664
  410SOL    HW1 1229   2.176   1.415   1.063  0.6797  1.2072 -0.5797
  410SOL    HW2 1230   2.150   1.433   1.228  0.2822 -1.6896 -2.1377
  411SOL     OW 1231   0.115   0.775   0.343  0.0826  0.5460 -0.2814
  411SOL    HW1 1232   0.176   0.695   0.354  1.4194  1.4883  1.0219
  411SOL    HW2 1233   0.034   0.761   0.401 -2.5764 -0.0244  1.4051
  412SOL     OW 1234   1.521   0.540   0.256  0.4643 -0.5193 -0.3023
  412SOL    HW1 1235   1.488   0.604   0.183 -0.2317 -0.2764  1.4151
  412SOL    HW2 1236   1.542   0.594   0.341 -0.3227  1.4767  1.4779
  413SOL     OW 1237   0.641   0.793   1.579 -0.0532  0.4289  0.0916
  413SOL    HW1 1238   0.574   0.750   1.645 -1.6001 -1.2543 -0.6383
  413SOL    HW2 1239   0.590   0.815   1.494 -2.1054 -0.4236  1.2655
  414SOL     OW 1240   3.045   1.184   2.812 -0.3891 -0.2815  0.4905
  414SOL    HW1 1241   3.060   1.219   2.714 -0.6913 -1.5307 -1.2585
  414SOL    HW2 1242   0.043   1.162   2.856  0.7556  1.2484 -1.6305
  415SOL     OW 1243   0.409   1.655   2.925 -0.1171  0.5690  0.5455
  415SOL    HW1 1244   0.487   1.586   2.943  0.4896 -0.6720 -0.9224
  415SOL    HW2 1245   0.378   1.631   2.827  0.5972 -2.0150 -0.2223
  416SOL     OW 1246   1.274   0.862   0.290  0.1642  0.3416  0.1766
  416SOL    HW1 1247   1.259   0.847   0.389 -0.4858  0.9689  0.1186
  416SOL    HW2 1248   1.262   0.963   0.274 -1.8589  1.3725 -2.3127
  417SOL     OW 1249   0.145   0.715   1.054 -0.0382 -0.0669 -0.6566
  417SOL    HW1 1250   0.077   0.778   1.009 -1.1637  0.1069  3.3627
  417SOL    HW2 1251   0.158   0.633   1.003  0.7251  3.2336 -2.4270
  418SOL     OW 1252   2.188   0.908   2.768  0.6358 -0.4928  0.0285
  418SOL    HW1 1253   2.113   0.857   2.818  0.4972 -1.4065 -0.4533
  418SOL    HW2 1254   2.281   0.883   2.796  0.0289  2.5963 -1.5882
  419SOL     OW 1255   0.539   0.642   0.451  0.2119  0.4092  0.1007
  419SOL    HW1 1256   0.573   0.685   0.539 -0.6506 -1.9703  0.1379
  419SOL    HW2 1257   0.505   0.543   0.474 -0.9324 -5.1795  0.5435
  420SOL     OW 1258   0.370   1.579   0.973  0.2342  0.2072  0.1563
  420SOL    HW1 1259   0.370   1.507   1.044  0.9424  0.0827  2.0448
  420SOL    HW2 1260   0.353   1.536   0.881 -1.9252  0.8833 -0.6088
  421SOL     OW 1261   0.328   2.130   0.143 -0.1858  0.3697 -0.4496
  421SOL    HW1 1262   0.389   2.198   0.180 -2.1107 -0.6547 -2.4046
  421SOL    HW2 1263   0.335   2.121   0.040 -1.2295 -1.2643  0.4393
  422SOL     OW 1264   2.376   0.303   1.482 -0.6135  0.0979 -0.2295
  422SOL    HW1 1265   2.420   0.389   1.509 -0.8687 -3.2153 -1.7613
  422SOL    HW2 1266   2.280   0.298   1.519 -2.2523  1.9042  3.0485
  423SOL     OW 1267   1.980   1.430   0.877 -0.4630  0.6957 -0.2865
  423SOL    HW1 1268   2.076   1.459   0.890  0.1503 -1.0097 -0.4329
  423SOL    HW2 1269   1.961   1.349   0.932 -0.9721  0.2048 -1.3131
  424SOL     OW 1270   1.936   1.598   0.008  0.2568  0.2489  0.4805
  424SOL    HW1 1271   1.982   1.518   3.065 -2.6226  2.5709 -0.6975
  424SOL    HW2 1272   1.957   1.610   0.104 -3.5758  0.6127 -1.2409
  425SOL     OW 1273   0.255   2.786   2.261 -0.1797 -0.3764 -0.0578
  425SOL    HW1 1274   0.317   2.728   2.318  0.1915  0.0711  2.9571
  425SOL    HW2 1275   0.172   2.804   2.316 -1.1262 -0.3523  1.0184
  426SOL     OW 1276   2.562   2.742   2.730 -0.2932  0.7412  0.6135
  426SOL    HW1 1277   2.510   2.826   2.756  0.2475  1.2744  1.0437
  426SOL    HW2 1278   2.505   2.679   2.674  0.6383  0.1193 -0.8757
  427SOL     OW 1279   0.469   0.855   2.287  0.5598  0.1646  0.3973
  427SOL    HW1 1280   0.452   0.753   2.292  0.4982 -1.4259  1.7406
  427SOL    HW2 1281   0.550   0.879   2.342 -2.4328 -2.3704  0.7426
  428SOL     OW 1282   2.037   0.848   2.194 -0.4053 -0.0317 -0.2798
  428SOL    HW1 1283   2.117   0.808   2.137 -0.2875 -2.5061  0.6119
  428SOL    HW2 1284   2.067   0.939   2.231 -0.9077  1.1483  0.3559
  429SOL     OW 1285   2.366   0.173   0.523  0.1409 -0.0572  0.2896
  429SOL    HW1 1286   2.371   0.209   0.428  2.5089 -2.0740  1.1868
  429SOL    HW2 1287   2.345   0.247   0.585  1.0953 -2.8506 -2.8073
  430SOL     OW 1288   1.478   1.310   2.180  0.4837 -0.2750 -0.3697
  430SOL    HW1 1289   1.458   1.215   2.159  2.7819  2.4150  2.6696
  430SOL    HW2 1290   1.534   1.356   2.106 -0.3261  1.2167 -0.7677
  431SOL     OW 1291   2.880   2.052   1.530  0.0728 -0.2892  0.4948
  431SOL    HW1 1292   2.870   1.956   1.499 -0.7142 -1.7712 -1.3117
  431SOL    HW2 1293   2.815   2.113   1.484 -0.6308  1.0592  3.6649
  432SOL     OW 1294   1.165   2.552   1.685 -0.2518 -0.7791  0.0759
  432SOL    HW1 1295   1.167   2.479   1.616  0.6500 -0.5635  0.7958
  432SOL    HW2 1296   1.112   2.525   1.769 -1.0633  0.3068  1.4970
  433SOL     OW 1297   1.662   2.893   1.140  0.2142  0.4580 -0.2022
  433SOL    HW1 1298   1.635   2.964   1.069 -0.8766 -0.2642 -1.1225
  433SOL    HW2 1299   1.587   2.829   1.165  1.5053  0.4821  1.1518
  434SOL     OW 1300   0.316   2.266   2.097  0.3110 -0.5439  0.2145
  434SOL    HW1 1301   0.359   2.288   2.006  1.2499 -2.3454  0.8092
  434SOL    HW2 1302   0.332   2.168   2.125 -1.7072 -2.0660 -1.4435
  435SOL     OW 1303   0.245   1.699   0.057 -0.3220 -0.2812 -0.3843
  435SOL    HW1 1304   0.150   1.670   0.065  4.2768  2.2078  0.4548
  435SOL    HW2 1305   0.278   1.672   3.060  0.4216 -2.7705  1.9530
  436SOL     OW 1306   0.670   1.176   1.848 -0.0463  0.0621  0.2275
  436SOL    HW1 1307   0.674   1.275   1.821  1.0955 -1.6697 -2.0662
  436SOL    HW2 1308   0.620   1.164   1.933  0.4694  1.3192 -2.6757
  437SOL     OW 1309   1.085   0.647   3.043 -0.4167 -0.6207 -0.0495
  437SOL    HW1 1310   1.120   0.622   0.043  0.2604 -0.2158  2.2736
  437SOL    HW2 1311   1.124   0.586   2.972  2.2807 -1.2035 -1.6573
  438SOL     OW 1312   0.493   1.984   1.620  0.3255 -0.0229  0.0624
  438SOL    HW1 1313   0.426   1.969   1.544  1.4912  2.2321  1.3902
  438SOL    HW2 1314   0.554   1.904   1.636 -0.5208 -3.2414 -0.6298
  439SOL     OW 1315   2.056   1.812   2.972  0.1774  0.6784  0.1738
  439SOL    HW1 1316   2.086   1.880   3.035 -1.8405 -2.0860 -3.9727
  439SOL    HW2 1317   2.008   1.740   3.023  2.1683  1.8891 -1.2088
  440SOL     OW 1318   1.346   0.514   0.648 -0.2202  0.2254 -0.4317
  440SOL    HW1 1319   1.370   0.464   0.734 -2.0655  1.0859 -0.5701
  440SOL    HW2 1320   1.270   0.580   0.666  1.1419 -0.1924 -1.8192
  441SOL     OW 1321   0.436   2.622   1.492  0.0754  0.8397  0.0058
  441SOL    HW1 1322   0.497   2.680   1.551  1.6808  2.3756 -3.3531
  441SOL    HW2 1323   0.356   2.589   1.551 -2.1608 -2.4649  1.4382
  442SOL     OW 1324   2.344   2.367   0.862 -0.2471 -0.0011  0.0895
  442SOL    HW1 1325   2.275   2.325   0.809  2.5061  1.4403  1.1638
  442SOL    HW2 1326   2.364   2.456   0.820  0.1810  0.2056  2.3888
  443SOL     OW 1327   2.317   0.784   2.371  0.3827 -0.2152  0.3178
  443SOL    HW1 1328   2.284   0.867   2.420 -0.2895 -0.6640  1.1241
  443SOL    HW2 1329   2.310   0.704   2.439  1.4421 -0.8335  0.4589
  444SOL     OW 1330   1.590   0.744   2.413 -0.5471 -0.3200  0.4088
  444SOL    HW1 1331   1.646   0.831   2.404  2.1803  0.9105  0.1312
  444SOL    HW2 1332   1.592   0.696   2.323  1.1923 -2.2862  0.7624
  445SOL     OW 1333   2.726   2.364   1.711  0.4587  0.6382  0.5142
  445SOL    HW1 1334   2.637   2.341   1.668 -1.2720  0.3918 -3.5752
  445SOL    HW2 1335   2.750   2.303   1.790 -2.4315  0.5750 -4.0371
  446SOL     OW 1336   0.062   1.480   0.352 -0.2326  0.3665  0.9276
  446SOL    HW1 1337   0.095   1.565   0.403 -2.1895 -2.0002  0.6066
  446SOL    HW2 1338   0.020   1.502   0.259  0.6982 -1.1451 -1.7538
  447SOL     OW 1339   0.866   2.406   1.118 -0.1776 -0.3190 -0.6731
  447SOL    HW1 1340   0.817   2.464   1.186  0.4569 -1.6757  1.5401
  447SOL    HW2 1341   0.831   2.418   1.021 -0.3562  0.8125  1.2775
  448SOL     OW 1342   1.693   1.572   1.586  0.0556 -0.8042 -0.2033
  448SOL    HW1 1343   1.742   1.514   1.653 -0.2269  0.8392 -3.1120
  448SOL    HW2 1344   1.685   1.516   1.498  0.0563  0.8851 -1.8065
  449SOL     OW 1345   0.758   1.820   2.740  0.0015  0.4838 -0.7921
  449SOL    HW1 1346   0.794   1.865   2.829  0.0493 -2.6810 -1.2082
  449SOL    HW2 1347   0.777   1.717   2.747  1.2977 -1.6699 -0.2520
  450SOL     OW 1348   3.009   1.843   2.171 -0.3468  0.0302 -0.2702
  450SOL    HW1 1349   3.079   1.776   2.194  0.5078 -1.2411  0.9638
  450SOL    HW2 1350   2.956   1.816   2.092  0.1961 -2.5424  0.1190
  451SOL     OW 1351   1.882   0.457   1.580 -0.2248 -0.8650  0.7844
  451SOL    HW1 1352   1.875   0.384   1.509  1.6421  0.4226 -1.5495
  451SOL    HW2 1353   1.877   0.548   1.538  0.9915 -0.2439  3.4661
  452SOL     OW 1354   1.000   2.660   1.292 -0.0200  0.1465  0.4470
  452SOL    HW1 1355   1.046   2.573   1.274 -1.2859 -0.0051 -1.8347
  452SOL    HW2 1356   0.896   2.654   1.282 -1.8212  0.3985  0.8928
  453SOL     OW 1357   1.105   1.794   0.806 -0.6574  0.1012 -0.5349
  453SOL    HW1 1358   1.186   1.768   0.860  0.0844 -0.5823  1.7175
  453SOL    HW2 1359   1.088   1.894   0.810 -1.6029  0.3005  1.6614
  454SOL     OW 1360   0.014   1.149   0.747 -0.1331  0.0792 -0.4753
  454SOL    HW1 1361   0.051   1.075   0.685  0.1657 -1.5588 -0.6083
  454SOL    HW2 1362   3.071   1.228   0.691  2.5506 -1.0492 -0.5325
  455SOL     OW 1363   0.655   1.116   0.459  0.3267 -0.1330  0.4031
  455SOL    HW1 1364   0.626   1.196   0.409 -2.4843  1.5712  3.2621
  455SOL    HW2 1365   0.580   1.078   0.519 -0.2726 -0.9908  1.6559
  456SOL     OW 1366   2.058   2.517   1.058 -0.2570 -0.3238 -0.3924
  456SOL    HW1 1367   2.118   2.571   1.122 -0.7503 -0.7074 -1.6615
  456SOL    HW2 1368   2.094   2.526   0.966  0.0809 -1.1020  2.8952
  457SOL     OW 1369   1.362   2.574   0.006 -0.2750 -0.2437 -0.1439
  457SOL    HW1 1370   1.306   2.594   0.089  1.5820  0.8646  1.5365
  457SOL    HW2 1371   1.318   2.506   3.044 -0.7801 -0.9745 -1.5412
  458SOL     OW 1372   2.718   0.197   3.069 -0.0772 -0.1023 -0.5688
  458SOL    HW1 1373   2.663   0.150   2.996 -1.3157  0.0629 -2.3303
  458SOL    HW2 1374   2.821   0.178   3.061  2.8476 -2.6764  0.0168
  459SOL     OW 1375   2.162   0.104   1.641  0.1738  0.7715  0.3115
  459SOL    HW1 1376   2.181   0.034   1.571 -1.6757 -0.0792 -3.7127
  459SOL    HW2 1377   2.064   0.102   1.677  0.9923  0.7182  1.8463
  460SOL     OW 1378   2.874   0.477   0.114  0.0933  0.7010 -0.6667
  460SOL    HW1 1379   2.950   0.491   0.049  1.1371  1.3806  0.3246
  460SOL    HW2 1380   2.795   0.431   0.073  2.2624  0.2890  0.2873
  461SOL     OW 1381   3.085   2.138   1.153 -0.5491  0.0397  0.0632
  461SOL    HW1 1382   3.082   2.073   1.079  0.8677  0.9794  1.3831
  461SOL    HW2 1383   3.050   2.229   1.122  1.0083 -1.6097  0.6191
  462SOL     OW 1384   0.047   0.018   0.739 -0.2172 -0.5051  0.0441
  462SOL    HW1 1385   0.130   0.066   0.770  0.9003 -1.5462 -1.9949
  462SOL    HW2 1386   3.060   0.077   0.756 -1.7158 -1.2457 -1.8761
  463SOL     OW 1387   2.289   1.245   2.791 -0.7397 -0.9684 -0.2942
  463SOL    HW1 1388   2.318   1.212   2.880 -2.1886 -2.2614  0.2807
  463SOL    HW2 1389   2.370   1.258   2.731  0.5509  0.6313  0.0816
  464SOL     OW 1390   0.721   3.030   1.267  0.1790 -0.1996  0.1354
  464SOL    HW1 1391   0.630   3.011   1.298 -1.9403  2.5462 -0.2655
  464SOL    HW2 1392   0.762   2.959   1.205  1.5099 -0.6305  0.1433
  465SOL     OW 1393   0.960   0.774   1.114  0.1563  0.3242 -0.2368
  465SOL    HW1 1394   1.005   0.723   1.191 -1.7952 -2.5613  0.0811
  465SOL    HW2 1395   0.862   0.791   1.127  2.9370  1.4759  0.7169
  466SOL     OW 1396   1.482   2.281   1.981 -0.2115  0.6084  0.2509
  466SOL    HW1 1397   1.485   2.381   1.995 -0.7158 -0.6262 -1.4094
  466SOL    HW2 1398   1.526   2.235   2.059 -3.1824 -0.8403 -0.0912
  467SOL     OW 1399   0.827   2.956   1.998  0.3420  0.3354 -0.1652
  467SOL    HW1 1400   0.870   2.998   2.078 -0.9767 -1.5031  0.1871
  467SOL    HW2 1401   0.847   3.007   1.913  1.6584  1.1835  0.7789
  468SOL     OW 1402   0.081   1.325   2.290 -0.0976 -0.1839  0.3517
  468SOL    HW1 1403   3.085   1.305   2.244 -0.8809  2.3147  0.3134
  468SOL    HW2 1404   0.084   1.291   2.389 -1.4286 -0.4930  0.4437
  469SOL     OW 1405   1.215   2.447   0.606  0.1164 -0.4946  0.3247
  469SOL    HW1 1406   1.114   2.452   0.580  1.8424 -0.5998 -1.4606
  469SOL    HW2 1407   1.235   2.511   0.681 -3.1293  2.2707  0.9015
  470SOL     OW 1408   1.823   1.143   2.133 -0.2654 -0.0980 -0.6082
  470SOL    HW1 1409   1.808   1.053   2.176  1.2265 -1.3365 -1.9227
  470SOL    HW2 1410   1.871   1.208   2.202  2.7952  2.5873  1.4629
  471SOL     OW 1411   1.002   2.445   3.073 -0.5450  0.0645  0.0779
  471SOL    HW1 1412   1.055   2.372   0.033  2.1937 -2.0177  2.6550
  471SOL    HW2 1413   1.057   2.519   3.035 -0.8851 -0.4153 -0.9498
  472SOL     OW 1414   0.293   2.381   2.375  0.1440 -0.3255 -0.2669
  472SOL    HW1 1415   0.282   2.320   2.296 -0.4363  0.6217  1.5910
  472SOL    HW2 1416   0.205   2.431   2.396 -1.7451 -0.2808  0.9025
  473SOL     OW 1417   0.835   0.087   2.970  0.5188  0.3765 -0.3206
  473SOL    HW1 1418   0.911   0.019   3.003  2.2352 -3.3132  2.0906
  473SOL    HW2 1419   0.768   0.087   3.048 -3.5926 -0.3390 -0.0869
  474SOL     OW 1420   1.709   0.240   0.736 -0.1974  0.1998 -0.5185
  474SOL    HW1 1421   1.718   0.261   0.638  2.6341  0.7715  1.9331
  474SOL    HW2 1422   1.765   0.160   0.770  0.7674 -0.5594 -2.5558
  475SOL     OW 1423   1.572   0.242   1.342  0.0420  0.3933 -0.2848
  475SOL    HW1 1424   1.478   0.218   1.310 -1.0085  0.3716  2.7683
  475SOL    HW2 1425   1.633   0.251   1.256  0.8394 -0.9980  2.6202
  476SOL     OW 1426   0.095   1.064   1.040  0.3024  1.0367 -0.2057
  476SOL    HW1 1427   0.071   1.150   1.078 -0.1004 -1.5786 -1.5549
  476SOL    HW2 1428   0.194   1.047   1.027 -1.4408  1.4839 -1.6884
  477SOL     OW 1429   1.195   2.007   0.580  0.2883 -0.6977 -0.5856
  477SOL    HW1 1430   1.180   1.907   0.569  0.5548  1.7115  1.7037
  477SOL    HW2 1431   1.117   2.047   0.637 -1.9132  0.7624  2.5787
  478SOL     OW 1432   0.267   2.565   2.685 -0.1933 -0.4899  0.3811
  478SOL    HW1 1433   0.279   2.473   2.710 -2.6279  1.3955 -0.2692
  478SOL    HW2 1434   0.333   2.598   2.616  0.6971  2.3905 -2.1184
  479SOL     OW 1435   3.033   0.407   1.248 -0.1212  0.2928 -0.3851
  479SOL    HW1 1436   3.009   0.499   1.214  0.5812 -0.6221  0.9223
  479SOL    HW2 1437   3.037   0.401   1.353  1.1388 -1.4212  0.4399
  480SOL     OW 1438   2.900   2.422   0.152 -0.1977 -0.7669 -0.0943
  480SOL    HW1 1439   2.924   2.370   0.069 -1.5005  2.4005  1.8839
  480SOL    HW2 1440   2.895   2.522   0.144  0.8925  1.2260 -0.7442
  481SOL     OW 1441   2.469   2.052   1.685  0.4141  0.1827  0.0102
  481SOL    HW1 1442   2.486   2.136   1.632  1.1802 -2.7057  1.6812
  481SOL    HW2 1443   2.447   2.065   1.785 -1.0550 -3.1274 -0.7042
  482SOL     OW 1444   1.542   1.893   2.358 -0.1490 -0.3123  0.5390
  482SOL    HW1 1445   1.507   1.902   2.262 -2.4015 -0.8476 -2.9927
  482SOL    HW2 1446   1.471   1.897   2.428 -0.0582 -1.5905  1.8306
  483SOL     OW 1447   0.939   1.586   1.657  0.0077 -0.2286 -0.1980
  483SOL    HW1 1448   1.028   1.627   1.624  4.2292  0.4299 -1.2987
  483SOL    HW2 1449   0.909   1.513   1.589 -0.2941  3.0150 -0.3830
  484SOL     OW 1450   0.422   0.485   1.583  0.5226 -0.3576  0.1132
  484SOL    HW1 1451   0.468   0.519   1.500  1.2398 -0.1605  0.4680
  484SOL    HW2 1452   0.421   0.553   1.659  1.0788  1.0966  2.6244
  485SOL     OW 1453   2.308   1.089   3.015 -0.4079 -0.0244  0.2528
  485SOL    HW1 1454   2.277   1.030   2.937  0.8408 -4.0465 -1.9851
  485SOL    HW2 1455   2.383   1.049   3.073  1.4157 -0.9731  2.7732
  486SOL     OW 1456   1.262   0.097   1.595 -0.6973  0.5351 -0.2626
  486SOL    HW1 1457   1.227   0.035   1.519 -0.0750  1.5252 -3.4806
  486SOL    HW2 1458   1.255   0.192   1.561  0.7650 -1.0973  1.3827
  487SOL     OW 1459   0.418   2.327   1.608 -0.0372 -0.0102  0.2033
  487SOL    HW1 1460   0.492   2.380   1.659  2.2864  1.4847  1.1283
  487SOL    HW2 1461   0.448   2.241   1.560 -0.6970 -1.7197  1.0996
  488SOL     OW 1462   2.538   1.992   2.827 -0.0832  0.0593  0.4359
  488SOL    HW1 1463   2.495   2.023   2.742  0.8647 -1.4663  0.4018
  488SOL    HW2 1464   2.549   2.064   2.897  1.0442  0.5088  2.3734
  489SOL     OW 1465   2.030   0.019   0.618 -0.0674 -0.0316  0.2442
  489SOL    HW1 1466   1.951   3.050   0.622  0.9274  1.6051  2.7791
  489SOL    HW2 1467   2.120   3.072   0.598 -2.6878  2.8178  1.0195
  490SOL     OW 1468   1.275   2.355   2.988  0.0792 -0.5205 -0.7324
  490SOL    HW1 1469   1.247   2.312   2.901  0.5142  0.1308  2.0006
  490SOL    HW2 1470   1.233   2.311   3.068  0.0173 -0.6628 -0.3019
  491SOL     OW 1471   0.687   1.439   1.758  0.2184 -1.4001  0.1874
  491SOL    HW1 1472   0.624   1.513   1.723 -1.1688 -0.6628 -1.1331
  491SOL    HW2 1473   0.756   1.416   1.689 -2.0475 -1.6238  1.0960
  492SOL     OW 1474   1.115   0.899   1.834 -0.7894  0.0803  0.1230
  492SOL    HW1 1475   1.094   0.968   1.764  1.9767  3.9838 -1.6649
  492SOL    HW2 1476   1.190   0.939   1.887 -2.6745 -2.6558 -2.5637
  493SOL     OW 1477   2.231   1.851   0.709 -0.1365 -0.4478 -0.2498
  493SOL    HW1 1478   2.158   1.817   0.649 -0.3898  4.9199  3.4464
  493SOL    HW2 1479   2.202   1.937   0.748  3.0251  1.0712 -2.0928
  494SOL     OW 1480   0.624   1.662   0.889 -0.1535 -0.0474 -0.0616
  494SOL    HW1 1481   0.565   1.626   0.960 -0.1452  1.1746 -1.6035
  494SOL    HW2 1482   0.595   1.757   0.866 -1.2953 -1.7913 -2.7083
  495SOL     OW 1483   2.244   2.553   0.479  0.0089  0.2677  0.2003
  495SOL    HW1 1484   2.283   2.602   0.399  0.9114 -1.0841 -0.4894
  495SOL    HW2 1485   2.237   2.451   0.456 -0.8667 -4.0736 -2.6702
  496SOL     OW 1486   2.663   3.065   1.260 -0.0177 -0.6688  0.3634
  496SOL    HW1 1487   2.698   0.065   1.278  1.2632 -0.6096  0.2249
  496SOL    HW2 1488   2.560   3.057   1.284 -2.5718 -0.2799  1.5455
  497SOL     OW 1489   2.268   0.990   2.523 -0.3302 -0.4703 -0.2157
  497SOL    HW1 1490   2.260   1.093   2.511 -0.7859  0.1939 -0.7266
  497SOL    HW2 1491   2.243   0.971   2.621  0.4385  0.1506 -0.0221
  498SOL     OW 1492   0.004   2.230   1.580 -0.0652 -0.4390 -0.4925
  498SOL    HW1 1493   3.025   2.162   1.582 -0.2593  1.6552 -3.3435
  498SOL    HW2 1494   3.062   2.322   1.595 -0.6123 -0.6125 -1.9370
  499SOL     OW 1495   1.041   2.451   1.892  0.2076  0.1298 -0.3410
  499SOL    HW1 1496   0.956   2.410   1.925 -0.7994  0.4138 -1.1540
  499SOL    HW2 1497   1.115   2.385   1.912 -0.6666 -2.5294  0.3675
  500SOL     OW 1498   0.891   2.220   0.282  0.0343 -0.1388  0.3815
  500SOL    HW1 1499   0.847   2.290   0.221 -2.6154  1.1828  0.5536
  500SOL    HW2 1500   0.931   2.266   0.366  0.3648  3.3041  0.5543
  501SOL     OW 1501   1.803   2.998   1.370  0.1551 -0.1887  0.6953
  501SOL    HW1 1502   1.723   2.965   1.317  0.0722 -0.7450 -0.7044
  501SOL    HW2 1503   1.838   2.929   1.424 -0.8839 -0.2116 -0.5747
  502SOL     OW 1504   2.561   0.542   1.564  0.0897 -0.2026  0.3338
  502SOL    HW1 1505   2.483   0.548   1.634 -3.3113 -1.5796  0.4994
  502SOL    HW2 1506   2.652   0.514   1.605  0.9872  0.1397 -0.5707
  503SOL     OW 1507   2.608   1.163   2.164 -0.1149  0.0455  0.2343
  503SOL    HW1 1508   2.543   1.242   2.144  0.9889  0.0603 -0.6719
  503SOL    HW2 1509   2.574   1.086   2.105  0.2321 -0.5799  1.2409
  504SOL     OW 1510   1.437   0.844   1.466  0.1813  0.7090 -1.1071
  504SOL    HW1 1511   1.505   0.787   1.410 -0.6380 -0.1016  0.1264
  504SOL    HW2 1512   1.402   0.922   1.411  0.5178 -1.4011  1.4553
  505SOL     OW 1513   0.572   3.079   1.709  0.5959  0.4237 -0.4016
  505SOL    HW1 1514   0.666   3.055   1.689 -0.4138 -0.2767 -1.1520
  505SOL    HW2 1515   0.506   3.054   1.638  1.1268 -1.0126 -0.8040
  506SOL     OW 1516   0.138   0.339   0.203 -0.6393 -0.3964  0.0416
  506SOL    HW1 1517   0.090   0.396   0.134  3.2869  1.4400 -0.3410
  506SOL    HW2 1518   0.232   0.377   0.215  0.0345 -0.4743 -2.6529
  507SOL     OW 1519   2.437   3.062   0.134 -0.0818  0.6823 -0.2207
  507SOL    HW1 1520   2.541   3.043   0.124  6.0312 -0.1081  2.0842
  507SOL    HW2 1521   2.384   2.977   0.166 -0.3711  0.4837 -1.1972
  508SOL     OW 1522   1.317   0.377   2.018 -0.0201  0.2078 -0.2931
  508SOL    HW1 1523   1.263   0.347   1.940  2.0110 -0.6033 -2.6117
  508SOL    HW2 1524   1.380   0.449   1.987 -0.3531  1.5406  1.7965
  509SOL     OW 1525   1.740   1.763   1.204 -0.1429  0.1840  0.1945
  509SOL    HW1 1526   1.660   1.777   1.138 -1.7938  0.0547 -2.9052
  509SOL    HW2 1527   1.783   1.668   1.195  0.1034 -0.2799 -1.8896
  510SOL     OW 1528   2.545   1.248   1.458  0.2068 -0.2093 -0.8484
  510SOL    HW1 1529   2.600   1.189   1.521 -0.9063  0.5985  0.9726
  510SOL    HW2 1530   2.527   1.201   1.373  2.1645 -1.2034  1.2410
  511SOL     OW 1531   1.476   1.768   1.385 -0.7853  0.3028 -0.2234
  511SOL    HW1 1532   1.560   1.784   1.331 -1.9450 -0.3902  1.5099
  511SOL    HW2 1533   1.431   1.848   1.416  1.5897 -3.4270  0.0804
  512SOL     OW 1534   2.984   1.368   0.571  0.4222 -0.3706 -0.3027
  512SOL    HW1 1535   3.053   1.432   0.526 -0.2776 -0.0521  2.3903
  512SOL    HW2 1536   2.889   1.388   0.533  1.0926 -1.0128 -0.7381
  513SOL     OW 1537   3.009   1.522   2.990 -0.1730 -0.5745 -0.1107
  513SOL    HW1 1538   3.017   1.544   2.890  1.3696  2.6721 -6.3030
  513SOL    HW2 1539   2.953   1.442   3.014  1.3666  1.3312  4.1072
  514SOL     OW 1540   2.844   2.122   2.376 -0.4086 -0.3958  0.1779
  514SOL    HW1 1541   2.944   2.098   2.354  0.1634  2.4545 -1.2519
  514SOL    HW2 1542   2.799   2.035   2.412  1.3038 -0.4959  1.6970
  515SOL     OW 1543   2.134   1.076   0.693 -0.3335  0.2119  0.5334
  515SOL    HW1 1544   2.156   1.083   0.792 -0.6147  0.3510  0.7797
  515SOL    HW2 1545   2.221   1.055   0.641 -2.5138  0.9405 -0.6685
  516SOL     OW 1546   2.258   2.836   0.102  0.5328 -0.4367  0.1622
  516SOL    HW1 1547   2.284   2.750   0.146  1.7553  1.9247 -2.0141
  516SOL    HW2 1548   2.189   2.813   0.031  1.4799 -0.5116  1.8657
  517SOL     OW 1549   1.037   1.990   2.586 -0.0522  0.1486  0.0497
  517SOL    HW1 1550   0.939   2.008   2.592 -1.4815  0.7045 -2.4390
  517SOL    HW2 1551   1.060   1.941   2.501 -0.6950 -1.6783 -0.8460
  518SOL     OW 1552   0.260   0.197   2.458 -0.1290  0.4145 -0.2096
  518SOL    HW1 1553   0.353   0.213   2.414 -0.3653 -0.8450  1.4670
  518SOL    HW2 1554   0.188   0.259   2.418  1.6645  0.2567 -1.9240
  519SOL     OW 1555   0.600   1.479   2.979  0.5606  0.5186  0.4069
  519SOL    HW1 1556   0.689   1.501   2.936 -2.0909 -1.2958 -3.0188
  519SOL    HW2 1557   0.610   1.382   3.009  2.6311  0.5047 -0.2563
  520SOL     OW 1558   2.890   2.249   2.152  0.0166 -0.3010 -0.2767
  520SOL    HW1 1559   2.865   2.225   2.248 -0.2762  1.7019  1.7811
  520SOL    HW2 1560   2.978   2.206   2.132 -0.8391 -1.3986  0.8706
  521SOL     OW 1561   0.809   2.238   2.393 -0.1932 -0.3923  0.1856
  521SOL    HW1 1562   0.801   2.183   2.480 -2.2495  1.3015  0.9617
  521SOL    HW2 1563   0.716   2.276   2.363 -1.6703 -0.1749 -0.6423
  522SOL     OW 1564   1.826   2.812   1.735 -0.7923 -0.0170 -0.6432
  522SOL    HW1 1565   1.890   2.861   1.800  1.5898 -0.6439 -0.5531
  522SOL    HW2 1566   1.737   2.858   1.736  0.5018 -2.3151 -1.4845
  523SOL     OW 1567   2.014   1.873   1.854 -0.4037  0.2957 -0.0917
  523SOL    HW1 1568   2.091   1.864   1.922  0.3829 -2.4284  0.9155
  523SOL    HW2 1569   1.939   1.931   1.898 -0.8297  0.6225  2.6508
  524SOL     OW 1570   0.582   2.611   0.546 -0.9144  0.0561  0.3431
  524SOL    HW1 1571   0.530   2.586   0.465  1.5418 -1.9330  2.3802
  524SOL    HW2 1572   0.678   2.627   0.518 -1.2722 -2.3609 -2.5612
  525SOL     OW 1573   0.236   0.550   0.423 -0.1462  0.3066  0.5460
  525SOL    HW1 1574   0.300   0.470   0.413  2.1743  0.8424 -1.9280
  525SOL    HW2 1575   0.169   0.531   0.499 -0.3859  2.6878 -0.3392
  526SOL     OW 1576   0.706   2.996   0.620 -0.2528 -0.1162  0.1542
  526SOL    HW1 1577   0.613   2.984   0.656  1.8903 -0.4892 -2.8713
  526SOL    HW2 1578   0.741   3.079   0.662 -0.3259 -3.6723 -0.2441
  527SOL     OW 1579   2.049   1.726   1.126  0.1625 -0.3338 -0.3927
  527SOL    HW1 1580   1.998   1.656   1.181 -0.9279 -1.9463 -0.1126
  527SOL    HW2 1581   2.144   1.702   1.130  0.8395  0.5559 -1.1387
  528SOL     OW 1582   2.910   2.532   2.407  0.2062  0.2975  0.1317
  528SOL    HW1 1583   2.864   2.609   2.366  1.8668 -2.3397  0.7420
  528SOL    HW2 1584   3.005   2.543   2.443 -3.0328  0.9081 -0.3304
  529SOL     OW 1585   1.315   1.716   2.174 -0.0084 -0.2777 -0.2875
  529SOL    HW1 1586   1.292   1.808   2.147 -1.2925 -1.2293 -0.7402
  529SOL    HW2 1587   1.410   1.693   2.147 -1.4716 -0.6693  0.0548
  530SOL     OW 1588   1.498   1.307   2.985  0.3669 -0.3960  0.0128
  530SOL    HW1 1589   1.545   1.350   2.905  0.8518 -0.5424 -0.7052
  530SOL    HW2 1590   1.462   1.219   2.958  1.4760  1.7045 -0.6307
  531SOL     OW 1591   0.521   0.986   2.995 -0.3504 -0.0852  0.0125
  531SOL    HW1 1592   0.440   0.987   2.934 -1.3721  1.4761  2.3430
  531SOL    HW2 1593   0.542   0.892   3.027 -0.3078  0.3419 -2.2333
  532SOL     OW 1594   1.802   1.270   0.351  0.5011  0.1821  0.1820
  532SOL    HW1 1595   1.852   1.278   0.438  1.2685  0.6416 -0.1443
  532SOL    HW2 1596   1.860   1.255   0.270 -0.3735  0.6775  1.2060
  533SOL     OW 1597   0.717   0.058   2.534 -0.1658  0.6425  0.2273
  533SOL    HW1 1598   0.642   0.114   2.493 -1.3422  1.8445 -0.5007
  533SOL    HW2 1599   0.795   0.117   2.563  0.7671  1.1872 -1.2632
  534SOL     OW 1600   1.105   2.686   2.989 -0.0689 -0.4483 -0.1268
  534SOL    HW1 1601   1.035   2.758   2.978  1.8322  1.3063 -0.7978
  534SOL    HW2 1602   1.189   2.729   3.024  2.4215  1.4219  1.2534
  535SOL     OW 1603   0.078   0.061   0.146 -0.3267 -0.0190  0.0432
  535SOL    HW1 1604   0.143   3.076   0.131  0.4718 -2.4559 -0.3678
  535SOL    HW2 1605   0.122   0.145   0.186 -0.7763  1.0231  0.3462
  536SOL     OW 1606   2.970   0.863   2.233 -0.0338 -0.1775  0.2662
  536SOL    HW1 1607   3.044   0.898   2.169 -2.9995 -1.8582 -1.1456
  536SOL    HW2 1608   3.006   0.792   2.298  1.6858  1.8526 -0.0266
  537SOL     OW 1609   1.184   3.088   1.370  0.4750 -0.1118 -0.1200
  537SOL    HW1 1610   1.192   3.002   1.316  1.9755  1.4924  0.0209
  537SOL    HW2 1611   1.215   0.068   1.307  0.8740 -2.0875  0.1267
  538SOL     OW 1612   0.395   1.666   0.275 -0.0542 -0.1105 -0.1589
  538SOL    HW1 1613   0.338   1.681   0.193 -0.8296 -1.4666  0.4357
  538SOL    HW2 1614   0.472   1.608   0.249 -0.4174  1.0142 -0.3857
  539SOL     OW 1615   2.523   0.995   1.976 -0.3972  0.0374 -0.3897
  539SOL    HW1 1616   2.423   0.979   1.953 -0.3528 -0.8371 -1.5420
  539SOL    HW2 1617   2.561   1.075   1.927  0.0065  0.9327  1.5901
  540SOL     OW 1618   2.063   1.428   2.104  0.0087 -0.1274  0.0975
  540SOL    HW1 1619   1.963   1.403   2.126 -0.6619  0.9606  0.6147
  540SOL    HW2 1620   2.095   1.508   2.163 -0.5510  1.5549 -1.1257
  541SOL     OW 1621   0.831   1.415   1.470 -0.0840  0.0161 -0.4117
  541SOL    HW1 1622   0.837   1.319   1.439  0.2309 -0.9160 -0.5419
  541SOL    HW2 1623   0.825   1.473   1.385  0.1805  1.7133  0.5509
  542SOL     OW 1624   1.688   0.360   2.271 -0.1257  0.0433  0.0489
  542SOL    HW1 1625   1.758   0.375   2.342 -1.8376 -1.1525 -0.5831
  542SOL    HW2 1626   1.725   0.336   2.175 -2.7174 -2.8890 -1.8175
  543SOL     OW 1627   0.913   0.439   0.512  0.1235 -0.5609 -0.6722
  543SOL    HW1 1628   0.990   0.409   0.575  0.5990  0.0104  0.0230
  543SOL    HW2 1629   0.940   0.435   0.413  3.4446  1.4730  1.4989
  544SOL     OW 1630   2.470   1.938   2.359 -0.0277  0.3275 -0.0748
  544SOL    HW1 1631   2.458   1.839   2.336  1.5612 -4.0812  0.0936
  544SOL    HW2 1632   2.570   1.952   2.376 -0.1722 -1.2717 -1.1361
  545SOL     OW 1633   1.839   2.100   1.978  0.3595  0.0637 -0.2863
  545SOL    HW1 1634   1.860   2.188   2.027  1.0345  0.5994  1.4786
  545SOL    HW2 1635   1.772   2.118   1.906  0.6293 -1.2468  3.4400
  546SOL     OW 1636   0.443   0.092   0.056 -0.3703 -0.1163  0.2300
  546SOL    HW1 1637   0.535   0.074   0.097 -1.0013  1.4337 -1.2954
  546SOL    HW2 1638   0.381   0.020   0.091 -0.0718 -0.2503  0.8732
  547SOL     OW 1639   1.880   0.861   0.217  0.1184 -0.7413  0.2903
  547SOL    HW1 1640   1.876   0.765   0.255 -0.4322  2.5328 -0.8257
  547SOL    HW2 1641   1.908   0.926   0.288 -1.1369 -0.1053 -1.8206
  548SOL     OW 1642   2.179   1.724   2.566 -0.2698  0.2080 -0.0810
  548SOL    HW1 1643   2.186   1.790   2.642 -1.1046  1.2180 -1.2671
  548SOL    HW2 1644   2.265   1.709   2.518  0.4814 -0.0893 -0.4462
  549SOL     OW 1645   2.024   0.457   0.603 -0.3108 -0.0977 -0.1659
  549SOL    HW1 1646   2.036   0.374   0.546 -0.1186 -0.1215 -0.1192
  549SOL    HW2 1647   1.950   0.522   0.574  2.5462  0.7068  0.7187
  550SOL     OW 1648   2.673   2.371   0.681  1.0822 -0.0938  0.5470
  550SOL    HW1 1649   2.574   2.383   0.704  1.5239 -0.8980  4.5166
  550SOL    HW2 1650   2.703   2.429   0.605  0.7808 -0.5999 -0.2140
  551SOL     OW 1651   0.934   0.002   1.488  0.1754 -0.0505  0.3394
  551SOL    HW1 1652   1.026   0.007   1.440  0.1501 -2.1320  0.7008
  551SOL    HW2 1653   0.857   3.062   1.422 -0.5892  1.8772  1.0362
  552SOL     OW 1654   0.007   2.290   2.760  0.4742  0.1155  0.2128
  552SOL    HW1 1655   0.109   2.291   2.752  2.1284 -0.0690 -2.6511
  552SOL    HW2 1656   3.065   2.228   2.690  1.8614  1.4782 -0.2245
  553SOL     OW 1657   0.304   2.843   0.359  0.0633 -0.6573  0.3556
  553SOL    HW1 1658   0.344   2.921   0.408 -1.6127 -3.1416 -2.6479
  553SOL    HW2 1659   0.271   2.779   0.429 -0.3521 -0.0173 -0.5995
  554SOL     OW 1660   2.250   2.328   1.810  0.2713  0.3678 -0.2449
  554SOL    HW1 1661   2.248   2.237   1.765  1.5471 -0.0963 -0.6235
  554SOL    HW2 1662   2.193   2.396   1.759  0.7238  2.9929  0.7535
  555SOL     OW 1663   1.090   2.115   1.888 -0.1284  0.3764  0.5411
  555SOL    HW1 1664   1.050   2.151   1.801  0.5072  0.6947  1.4176
  555SOL    HW2 1665   1.095   2.017   1.895  1.4591  2.5720 -0.5048
  556SOL     OW 1666   1.370   1.542   1.296  0.7092  0.2832 -0.3021
  556SOL    HW1 1667   1.320   1.584   1.216  0.2893 -1.2665  0.2141
  556SOL    HW2 1668   1.426   1.614   1.343 -2.1925 -0.9753 -0.0216
  557SOL     OW 1669   1.894   2.308   2.109  0.0721  0.4993  0.8150
  557SOL    HW1 1670   1.986   2.348   2.126  1.4755  0.9202 -0.8515
  557SOL    HW2 1671   1.832   2.301   2.190  0.5493  1.0122 -2.5908
  558SOL     OW 1672   0.566   2.962   2.217  0.0405  0.1152  0.2227
  558SOL    HW1 1673   0.482   2.976   2.160 -1.8094 -2.8627 -1.4035
  558SOL    HW2 1674   0.607   3.048   2.243  0.4775 -1.8165 -2.5949
  559SOL     OW 1675   2.391   2.905   0.998 -0.1114  0.1303  0.0074
  559SOL    HW1 1676   2.479   2.874   1.038 -0.2953  0.0238  0.8404
  559SOL    HW2 1677   2.391   3.003   0.965 -0.1347  1.2580  2.3458
  560SOL     OW 1678   0.964   2.423   0.525  0.0073 -0.4497  0.1097
  560SOL    HW1 1679   0.927   2.512   0.494  0.0017 -0.3095 -0.1478
  560SOL    HW2 1680   0.896   2.377   0.583  0.8894  0.1095  1.7189
  561SOL     OW 1681   0.936   0.472   0.231 -0.1858 -0.5598  0.1245
  561SOL    HW1 1682   1.021   0.518   0.225 -0.7276 -2.8224  1.9792
  561SOL    HW2 1683   0.858   0.542   0.237  0.9276  0.2391 -0.6561
  562SOL     OW 1684   0.733   0.317   2.805 -0.2550  0.2706  0.5842
  562SOL    HW1 1685   0.747   0.230   2.857  2.4024 -0.5062  0.7640
  562SOL    HW2 1686   0.775   0.306   2.713 -1.7229  1.3635 -0.4660
  563SOL     OW 1687   1.525   1.814   2.767  0.0668  0.4029 -0.2844
  563SOL    HW1 1688   1.585   1.871   2.828  1.3656  1.9662 -0.9833
  563SOL    HW2 1689   1.476   1.871   2.694 -2.5959  1.6795  1.2338
  564SOL     OW 1690   2.821   1.159   0.826  0.1125 -0.1731  0.2997
  564SOL    HW1 1691   2.790   1.079   0.875  0.2698  0.7416 -0.2942
  564SOL    HW2 1692   2.923   1.158   0.818  1.6356 -1.3339 -0.7859
  565SOL     OW 1693   1.088   0.291   2.934 -0.1256  0.4397  0.1310
  565SOL    HW1 1694   1.050   0.228   2.860 -2.4714 -1.3335  0.3190
  565SOL    HW2 1695   1.124   0.380   2.889  2.7889  3.2264  0.3741
  566SOL     OW 1696   1.332   0.147   2.134 -0.6820  0.1121 -0.3397
  566SOL    HW1 1697   1.287   0.239   2.124  2.2672  1.8597  0.1322
  566SOL    HW2 1698   1.415   0.148   2.073 -1.2278  2.7173 -3.0902
  567SOL     OW 1699   2.401   1.345   0.762 -0.4718  0.7938  0.8864
  567SOL    HW1 1700   2.382   1.348   0.664  0.2069  3.6577  2.3843
  567SOL    HW2 1701   2.502   1.364   0.771 -1.2128 -1.5709 -1.1144
  568SOL     OW 1702   1.983   1.765   0.546 -0.0534  0.1614 -0.4004
  568SOL    HW1 1703   2.027   1.855   0.520  1.6851  0.3895 -1.3196
  568SOL    HW2 1704   1.913   1.773   0.622 -2.8002 -2.2723 -0.1965
  569SOL     OW 1705   2.105   1.375   3.024  0.1425  0.3654  0.2578
  569SOL    HW1 1706   2.018   1.346   2.977 -0.1942 -2.0682 -1.5421
  569SOL    HW2 1707   2.188   1.351   2.969  1.1012 -0.1668  0.1228
  570SOL     OW 1708   0.263   2.855   1.836  0.2152  0.2982  0.0744
  570SOL    HW1 1709   0.169   2.820   1.824  0.4721 -0.4790  1.5337
  570SOL    HW2 1710   0.286   2.928   1.768 -1.5949  0.8025  0.7427
  571SOL     OW 1711   0.064   0.338   2.349 -0.6840  0.0842  0.1251
  571SOL    HW1 1712   0.049   0.397   2.271 -0.4033 -1.9532  0.2776
  571SOL    HW2 1713   3.082   0.339   2.419 -1.8152 -0.2809  1.1209
  572SOL     OW 1714   0.876   1.621   0.799 -0.4262 -0.0136 -0.2023
  572SOL    HW1 1715   0.788   1.638   0.848 -0.6558 -1.7098 -1.7241
  572SOL    HW2 1716   0.941   1.702   0.800  0.5757 -0.4907  2.1041
  573SOL     OW 1717   1.301   2.339   0.360  0.0220 -0.1725  0.0746
  573SOL    HW1 1718   1.384   2.374   0.317 -0.1039 -0.6503  0.4510
  573SOL    HW2 1719   1.277   2.392   0.440  0.1294 -1.6378 -2.8445
  574SOL     OW 1720   0.976   0.221   0.887 -0.0023  0.1524  0.1222
  574SOL    HW1 1721   0.925   0.244   0.972  1.4836 -4.1147  0.4982
  574SOL    HW2 1722   0.996   0.123   0.885 -1.3774  1.4215 -0.2124
  575SOL     OW 1723   3.035   0.942   1.339 -0.2053  0.1264 -0.2362
  575SOL    HW1 1724   3.012   0.970   1.243  0.2234  0.2189 -1.8610
  575SOL    HW2 1725   3.018   1.013   1.412  1.3431  1.2672  0.7646
  576SOL     OW 1726   1.696   0.089   1.530 -0.1286  0.5053  0.0860
  576SOL    HW1 1727   1.644   0.160   1.474 -0.5343  0.4815 -3.9815
  576SOL    HW2 1728   1.765   0.049   1.473 -1.3270 -0.4544 -0.5080
  577SOL     OW 1729   0.100   0.950   2.070  0.5346  0.5085  0.3884
  577SOL    HW1 1730   0.173   0.883   2.052 -2.0596 -1.9313 -0.7199
  577SOL    HW2 1731   0.142   1.042   2.084  1.2292 -0.3254 -0.1390
  578SOL     OW 1732   1.924   0.385   2.644  0.1003  0.2004  0.3387
  578SOL    HW1 1733   1.946   0.475   2.681 -0.6428  0.2672 -2.5476
  578SOL    HW2 1734   1.834   0.347   2.682 -1.5526 -0.6084  0.7717
  579SOL     OW 1735   2.248   1.840   1.994 -0.0110  0.3063  0.1526
  579SOL    HW1 1736   2.316   1.790   1.935 -0.0300 -5.5085  0.8373
  579SOL    HW2 1737   2.287   1.921   2.038  0.8102 -0.1335  2.9076
  580SOL     OW 1738   1.885   1.324   2.891  0.1239 -0.0040  0.3713
  580SOL    HW1 1739   1.850   1.410   2.854 -0.6372 -1.4133 -2.4240
  580SOL    HW2 1740   1.823   1.246   2.874  4.9576  0.3758 -0.2102
  581SOL     OW 1741   1.363   1.086   2.886  0.2572 -0.2732 -0.2209
  581SOL    HW1 1742   1.346   0.988   2.911 -1.0342  0.8402  0.5135
  581SOL    HW2 1743   1.379   1.106   2.785  1.8629 -0.3196  1.6344
  582SOL     OW 1744   0.881   1.900   1.489 -0.1003  0.2383  0.0255
  582SOL    HW1 1745   0.826   1.885   1.576  0.8396  2.2580  0.1764
  582SOL    HW2 1746   0.972   1.850   1.495 -0.2790 -1.5731 -1.3790
  583SOL     OW 1747   1.374   1.044   1.281  0.6500  0.2101 -0.2772
  583SOL    HW1 1748   1.319   1.023   1.193 -1.8135 -2.3715 -1.0965
  583SOL    HW2 1749   1.425   1.130   1.262  1.9216 -0.5636  1.6133
  584SOL     OW 1750   1.817   2.428   0.712 -0.6993  0.1382  0.0759
  584SOL    HW1 1751   1.718   2.411   0.675 -1.1962  0.2140 -3.0002
  584SOL    HW2 1752   1.826   2.411   0.811 -2.1489  1.4114 -0.9117
  585SOL     OW 1753   2.119   2.816   2.984  0.0184 -0.2837  0.1913
  585SOL    HW1 1754   2.157   2.810   2.893 -0.2678  4.4127  1.3647
  585SOL    HW2 1755   2.020   2.846   2.972 -1.0891  1.1529  0.4915
  586SOL     OW 1756   2.829   2.284   0.874 -0.1621  0.0089  0.0755
  586SOL    HW1 1757   2.763   2.328   0.807  1.1282 -0.2635 -2.5811
  586SOL    HW2 1758   2.852   2.352   0.947  0.0715  2.8711  2.1933
  587SOL     OW 1759   1.031   1.863   0.130 -1.0650  0.1156 -0.2161
  587SOL    HW1 1760   1.133   1.882   0.137 -0.5606  1.3061  0.6814
  587SOL    HW2 1761   1.006   1.832   0.032  2.3262 -0.5642 -0.3951
  588SOL     OW 1762   0.431   0.078   1.088  0.0762  0.0207 -0.3261
  588SOL    HW1 1763   0.385   0.101   1.175 -2.3822  0.3096 -2.8647
  588SOL    HW2 1764   0.507   0.141   1.067  0.5767 -3.7556  4.3859
  589SOL     OW 1765   1.104   0.669   0.688 -0.3371 -0.1928 -0.5803
  589SOL    HW1 1766   1.087   0.618   0.774 -1.3135  1.6839  2.0514
  589SOL    HW2 1767   1.026   0.678   0.622  0.3576 -0.9058 -0.2045
  590SOL     OW 1768   2.039   2.420   0.014 -0.4421  0.3625  0.3758
  590SOL    HW1 1769   2.053   2.409   0.115  0.3483 -0.6792 -0.7314
  590SOL    HW2 1770   1.976   2.498   3.088 -0.2696  1.8670 -0.8261
  591SOL     OW 1771   0.522   2.365   2.579  0.0938  0.0312  0.3469
  591SOL    HW1 1772   0.567   2.435   2.638  0.0434  0.6763  0.2234
  591SOL    HW2 1773   0.560   2.366   2.483 -0.2828 -1.4151  0.8068
  592SOL     OW 1774   2.850   1.549   2.102 -0.4909  0.4180  0.4482
  592SOL    HW1 1775   2.860   1.455   2.142 -1.4672 -1.0346  3.0006
  592SOL    HW2 1776   2.805   1.548   2.011 -0.3220 -1.4701 -0.7098
  593SOL     OW 1777   1.681   1.364   1.392 -0.1028 -0.1690  0.0404
  593SOL    HW1 1778   1.705   1.285   1.451 -2.1081  2.6846 -4.5763
  593SOL    HW2 1779   1.613   1.328   1.327 -0.3954 -1.4730  0.6945
  594SOL     OW 1780   2.605   1.091   2.797  0.3882  0.0946 -0.5480
  594SOL    HW1 1781   2.586   1.168   2.861 -1.0911  0.6156 -3.0943
  594SOL    HW2 1782   2.703   1.068   2.796 -1.7559  0.6905  0.1014
  595SOL     OW 1783   0.895   0.972   0.366 -0.4973 -0.4656 -0.5738
  595SOL    HW1 1784   0.827   1.045   0.384  1.2582  2.6883 -0.8032
  595SOL    HW2 1785   0.877   0.928   0.278  0.0759 -0.7825  2.2762
  596SOL     OW 1786   2.944   1.372   1.351  0.2203 -0.3128 -0.2199
  596SOL    HW1 1787   2.886   1.360   1.269 -2.1632 -1.2416 -1.6212
  596SOL    HW2 1788   3.020   1.440   1.330  1.0838 -1.0762  0.4761
  597SOL     OW 1789   0.886   2.113   1.324  0.0483 -0.4668 -0.1716
  597SOL    HW1 1790   0.820   2.120   1.245  1.2307 -1.9349 -1.4789
  597SOL    HW2 1791   0.870   2.034   1.392  1.2909 -0.2296 -0.1910
  598SOL     OW 1792   2.520   2.555   1.732 -0.0417 -0.2287 -0.1421
  598SOL    HW1 1793   2.472   2.465   1.725  1.3992 -2.7266  0.8900
  598SOL    HW2 1794   2.617   2.534   1.752 -3.0025 -2.1927 -1.6478
  599SOL     OW 1795   0.314   1.393   2.640 -0.1300 -0.3040 -0.0604
  599SOL    HW1 1796   0.341   1.492   2.653 -2.9061  2.5031 -1.7010
  599SOL    HW2 1797   0.390   1.327   2.645 -1.6169 -0.1140 -0.9148
  600SOL     OW 1798   0.594   0.752   3.075 -0.3934 -0.0767  0.0099
  600SOL    HW1 1799   0.670   0.680   3.074  1.8603 -4.0179 -0.2853
  600SOL    HW2 1800   0.539   0.739   0.065  0.8606 -0.6695 -2.8768
  601SOL     OW 1801   0.478   0.705   1.768  0.5618 -0.1623 -0.6568
  601SOL    HW1 1802   0.531   0.673   1.847 -4.1148 -1.0443  0.2495
  601SOL    HW2 1803   0.419   0.783   1.792 -2.8713 -0.2082  1.0129
  602SOL     OW 1804   0.452   2.576   0.315 -0.0537 -0.4712  0.6974
  602SOL    HW1 1805   0.373   2.626   0.349  2.0174 -2.0455 -0.1489
  602SOL    HW2 1806   0.487   2.614   0.230  0.4735 -0.7649  3.7735
  603SOL     OW 1807   1.328   2.773   2.157 -0.1653  0.1462 -0.4321
  603SOL    HW1 1808   1.249   2.711   2.133 -1.1955 -1.8476  2.4746
  603SOL    HW2 1809   1.401   2.705   2.141 -0.7469 -0.5685 -0.8803
  604SOL     OW 1810   0.312   2.367   3.021 -0.0312  0.3297 -0.5386
  604SOL    HW1 1811   0.294   2.269   2.989 -0.4304 -1.1259 -1.2346
  604SOL    HW2 1812   0.235   2.413   3.079 -0.2843  1.6859  0.5570
  605SOL     OW 1813   2.132   0.919   1.471 -0.5502  0.4948 -0.2510
  605SOL    HW1 1814   2.030   0.907   1.476 -0.6293  1.3402  0.7669
  605SOL    HW2 1815   2.161   0.984   1.400 -0.1288 -2.1726  0.3071
  606SOL     OW 1816   0.778   0.761   2.684 -0.0460 -0.1265  0.1599
  606SOL    HW1 1817   0.843   0.765   2.761  2.8814  1.9127  0.3087
  606SOL    HW2 1818   0.799   0.684   2.620  0.6001 -0.1905 -0.8914
  607SOL     OW 1819   0.842   0.632   1.489 -0.2425  0.3235  0.2204
  607SOL    HW1 1820   0.799   0.572   1.416  0.0057 -0.4754 -0.8446
  607SOL    HW2 1821   0.780   0.713   1.512 -2.6631  2.2477  1.5873
  608SOL     OW 1822   2.862   1.988   1.781 -0.3499 -0.0612 -0.5094
  608SOL    HW1 1823   2.800   2.055   1.835 -3.0981  1.6209  3.5479
  608SOL    HW2 1824   2.870   2.011   1.683  0.0646 -0.9885  1.2223
  609SOL     OW 1825   2.357   0.294   0.282 -0.1079  0.0756  0.3247
  609SOL    HW1 1826   2.344   0.394   0.254  1.1930  2.6620 -3.0784
  609SOL    HW2 1827   2.287   0.233   0.239 -0.1496  0.3406 -1.6875
  610SOL     OW 1828   3.026   2.807   1.388 -0.3787 -0.5256 -0.5538
  610SOL    HW1 1829   2.996   2.889   1.442  2.0950 -0.8974  0.2449
  610SOL    HW2 1830   2.996   2.814   1.293  2.2548  0.9797  0.5004
  611SOL     OW 1831   1.682   2.203   0.185  0.5963  0.2940 -0.8671
  611SOL    HW1 1832   1.687   2.121   0.238 -1.3369  2.5319  0.5699
  611SOL    HW2 1833   1.770   2.219   0.133  1.9356  1.1224  0.5601
  612SOL     OW 1834   0.604   0.179   1.890 -0.1225  0.3142 -0.1347
  612SOL    HW1 1835   0.597   0.092   1.834  0.1035 -2.3228  0.3823
  612SOL    HW2 1836   0.642   0.259   1.833 -3.6876 -0.8382  0.6677
  613SOL     OW 1837   0.035   2.069   0.614  0.2491 -0.4930  0.2383
  613SOL    HW1 1838   0.047   2.167   0.625 -2.2099 -2.7582  0.8693
  613SOL    HW2 1839   0.107   2.016   0.661 -1.0602 -0.5107 -0.9554
  614SOL     OW 1840   1.704   0.507   1.797  0.1565  0.2225  0.1404
  614SOL    HW1 1841   1.757   0.467   1.718  1.8332 -2.1499 -3.3153
  614SOL    HW2 1842   1.717   0.451   1.883 -0.2764  1.2559  0.5180
  615SOL     OW 1843   1.674   1.370   0.767 -0.4833  0.0921  0.0558
  615SOL    HW1 1844   1.755   1.321   0.725  2.3949 -0.5154 -0.8963
  615SOL    HW2 1845   1.685   1.474   0.756 -0.2796  2.4469 -0.5446
  616SOL     OW 1846   2.083   1.572   0.373 -0.6103 -0.4903 -0.1602
  616SOL    HW1 1847   2.068   1.636   0.456 -0.8006  1.3064  1.2679
  616SOL    HW2 1848   2.135   1.618   0.298  1.5804  0.8535 -1.3807
  617SOL     OW 1849   1.415   0.738   0.095  0.8813  0.4497 -0.0522
  617SOL    HW1 1850   1.364   0.782   0.174  1.3693  1.4669  2.3043
  617SOL    HW2 1851   1.498   0.794   0.073  0.2347  0.7326  3.6591
  618SOL     OW 1852   0.528   0.560   2.250 -0.3947 -0.0522  0.3233
  618SOL    HW1 1853   0.562   0.553   2.348 -2.0903 -1.3483  1.7328
  618SOL    HW2 1854   0.496   0.470   2.210 -2.8827 -1.2667 -0.3215
  619SOL     OW 1855   0.043   1.559   1.266  0.5800  0.3253 -0.4295
  619SOL    HW1 1856   0.109   1.612   1.324 -1.0665  4.0135  2.3224
  619SOL    HW2 1857   0.049   1.573   1.167  0.6383  1.6950  1.7520
  620SOL     OW 1858   2.222   2.862   2.743 -0.6709 -0.0474 -0.1545
  620SOL    HW1 1859   2.254   2.880   2.648 -1.4529 -0.7189  4.7056
  620SOL    HW2 1860   2.143   2.926   2.760  1.1804  3.6000 -0.5157
  621SOL     OW 1861   2.909   1.881   0.098  0.2005  0.4501  0.5740
  621SOL    HW1 1862   2.847   1.829   0.038 -0.2836  2.4610 -1.3708
  621SOL    HW2 1863   2.850   1.935   0.162  2.6208 -0.8600 -0.0814
  622SOL     OW 1864   1.319   0.101   2.535  0.0676  0.1347 -0.2571
  622SOL    HW1 1865   1.321   0.009   2.493 -1.3911  0.8944  1.5893
  622SOL    HW2 1866   1.362   0.174   2.475  0.3337  1.3833 -0.1015
  623SOL     OW 1867   0.744   2.175   1.110  0.0826 -0.7596  0.5607
  623SOL    HW1 1868   0.653   2.199   1.070  0.3628 -1.6630 -3.0569
  623SOL    HW2 1869   0.802   2.260   1.110 -2.0236 -0.2039  2.5007
  624SOL     OW 1870   3.043   2.928   2.983  0.6682  0.0054  0.0761
  624SOL    HW1 1871   2.987   2.865   2.925  0.0011  0.3242  2.7668
  624SOL    HW2 1872   0.022   2.965   2.927  0.7730 -0.2230  0.8305
  625SOL     OW 1873   0.767   2.244   0.672  0.0186  1.0797  0.1305
  625SOL    HW1 1874   0.822   2.166   0.706 -0.7981  2.5912  0.8338
  625SOL    HW2 1875   0.706   2.219   0.596 -2.2173  2.1629  3.5799
  626SOL     OW 1876   3.031   0.571   2.792  0.0730  0.1624  0.0478
  626SOL    HW1 1877   0.006   0.638   2.830  0.9462  0.0108  1.8259
  626SOL    HW2 1878   2.936   0.576   2.827  2.6458 -0.6877 -1.3700
  627SOL     OW 1879   1.341   1.988   2.999 -0.1727  0.5137  0.2515
  627SOL    HW1 1880   1.377   2.062   3.059 -0.9960 -3.8974  0.2927
  627SOL    HW2 1881   1.247   2.004   2.962  0.3646  0.2572 -0.9567
  628SOL     OW 1882   3.014   2.454   2.966 -0.5559  0.0088 -0.3048
  628SOL    HW1 1883   0.003   2.464   3.025 -0.3508 -1.7301  0.7969
  628SOL    HW2 1884   3.040   2.384   2.896  2.0038 -2.1914  0.9832
  629SOL     OW 1885   0.969   2.825   2.629 -0.4020  0.5266 -0.6196
  629SOL    HW1 1886   1.017   2.746   2.582 -0.4369 -1.4530 -2.3968
  629SOL    HW2 1887   0.918   2.882   2.565 -0.2322 -2.5028  0.0543
  630SOL     OW 1888   1.240   0.658   1.801 -0.1294  0.1184 -0.0647
  630SOL    HW1 1889   1.182   0.569   1.799  0.6450  0.6349 -0.5270
  630SOL    HW2 1890   1.182   0.741   1.806  1.8749  0.2296 -2.1285
  631SOL     OW 1891   1.982   1.015   0.435 -0.4870 -0.0332 -0.0843
  631SOL    HW1 1892   1.992   1.117   0.417 -1.6587 -0.2117  0.1127
  631SOL    HW2 1893   1.972   1.005   0.536  2.2332 -1.9224  2.3010
  632SOL     OW 1894   2.649   0.229   1.781  0.4211  0.3108 -0.3010
  632SOL    HW1 1895   2.717   0.302   1.762  0.1110  0.1925  0.2353
  632SOL    HW2 1896   2.649   0.158   1.709  0.6284  0.6051 -2.6617
  633SOL     OW 1897   1.029   1.407   0.336  0.1061 -0.8576 -0.3449
  633SOL    HW1 1898   1.012   1.509   0.330  1.4361  0.1082 -0.6502
  633SOL    HW2 1899   1.021   1.364   0.429  3.5460  1.0354  2.6881
  634SOL     OW 1900   2.515   2.665   2.470  0.3511 -0.5160 -0.1163
  634SOL    HW1 1901   2.466   2.581   2.441 -1.0636  0.6012 -2.0497
  634SOL    HW2 1902   2.445   2.742   2.483 -1.4666  1.5878 -0.7923
  635SOL     OW 1903   1.878   0.666   0.459  0.1981  0.1641 -0.3892
  635SOL    HW1 1904   1.786   0.676   0.498 -0.2686 -0.5134 -0.4997
  635SOL    HW2 1905   1.951   0.714   0.511  0.9559  0.9870 -1.9953
  636SOL     OW 1906   0.656   1.362   0.832  0.0505  0.1910  0.3503
  636SOL    HW1 1907   0.642   1.458   0.821  0.2274 -4.2739  0.4186
  636SOL    HW2 1908   0.621   1.306   0.756  1.1935  2.6998  0.9851
  637SOL     OW 1909   2.744   2.043   0.263 -0.6164 -0.1583  0.0273
  637SOL    HW1 1910   2.793   1.987   0.335  0.9521 -0.7384  0.5657
  637SOL    HW2 1911   2.739   2.138   0.301 -4.6738  1.6649  1.8082
  638SOL     OW 1912   1.501   2.510   2.315 -0.1405  0.0642 -0.5868
  638SOL    HW1 1913   1.496   2.527   2.212 -0.7190 -1.5786  2.5676
  638SOL    HW2 1914   1.589   2.536   2.351 -2.3912 -0.0064 -1.5609
  639SOL     OW 1915   1.585   1.992   0.544 -0.1177  0.0252  0.4031
  639SOL    HW1 1916   1.535   2.043   0.478  1.0769 -1.3790  3.4770
  639SOL    HW2 1917   1.558   1.893   0.547 -1.2905  2.9478  2.3978
  640SOL     OW 1918   2.044   0.235   0.469  0.2178  0.5949 -0.4198
  640SOL    HW1 1919   2.070   0.153   0.530  2.7512 -1.4023 -1.5497
  640SOL    HW2 1920   2.055   0.211   0.368  1.7693 -2.4819 -0.4295
  641SOL     OW 1921   2.926   0.159   0.469  0.3053  0.1767 -0.4268
  641SOL    HW1 1922   2.946   0.146   0.566 -1.3978  1.2005 -0.1988
  641SOL    HW2 1923   2.926   0.256   0.441  0.9269  0.4697 -0.6846
  642SOL     OW 1924   0.537   0.537   1.338 -0.6895 -0.2906  0.3132
  642SOL    HW1 1925   0.604   0.554   1.265  1.0976 -1.4784  1.7102
  642SOL    HW2 1926   0.455   0.491   1.301  0.0481 -1.0505  0.4662
  643SOL     OW 1927   0.820   1.248   2.222  0.0794 -0.4963 -0.1940
  643SOL    HW1 1928   0.803   1.285   2.315  1.2900  0.8758 -1.5273
  643SOL    HW2 1929   0.743   1.257   2.157  2.9248  1.6035 -0.2898
  644SOL     OW 1930   1.405   2.111   0.709  0.3740  0.4125  1.2130
  644SOL    HW1 1931   1.477   2.053   0.663 -1.9575  0.3347  3.7299
  644SOL    HW2 1932   1.311   2.090   0.676  2.3482 -2.9791 -1.7035
  645SOL     OW 1933   1.732   1.918   0.248  0.3729 -0.5839  0.7866
  645SOL    HW1 1934   1.663   1.914   0.165 -2.5450 -1.0272 -1.6821
  645SOL    HW2 1935   1.714   1.847   0.321 -0.4917 -2.6372  1.8362
  646SOL     OW 1936   2.934   1.561   2.709  0.0926 -0.2155  0.3618
  646SOL    HW1 1937   2.836   1.539   2.691 -1.3843 -1.9312 -0.6774
  646SOL    HW2 1938   2.970   1.623   2.635 -0.8502  4.2558 -2.0708
  647SOL     OW 1939   0.816   0.419   1.056 -0.0063 -0.0455 -0.1556
  647SOL    HW1 1940   0.858   0.403   1.146 -0.5932  1.1614 -1.8775
  647SOL    HW2 1941   0.885   0.460   0.994  1.6882  1.6324  0.3930
  648SOL     OW 1942   1.341   0.644   1.159  0.2831 -0.0517  0.1703
  648SOL    HW1 1943   1.314   0.690   1.075 -0.8813 -0.1922  3.7045
  648SOL    HW2 1944   1.426   0.680   1.192 -0.8159 -0.8151  0.1263
  649SOL     OW 1945   0.963   1.681   0.333 -0.0145 -0.3371 -0.6976
  649SOL    HW1 1946   0.980   1.733   0.248 -1.0065  0.6670 -0.2766
  649SOL    HW2 1947   1.014   1.719   0.413  0.9304 -0.5649 -1.6315
  650SOL     OW 1948   2.484   1.377   2.054  0.6439 -0.1019 -0.2745
  650SOL    HW1 1949   2.408   1.343   1.995  0.7257 -0.9602  2.1992
  650SOL    HW2 1950   2.560   1.405   1.993  0.4357 -0.4934  0.0346
  651SOL     OW 1951   1.541   2.218   2.764  0.2347 -0.1585 -0.2545
  651SOL    HW1 1952   1.582   2.130   2.777 -0.6119  0.7560  0.4450
  651SOL    HW2 1953   1.476   2.216   2.683 -0.1208 -2.3636 -2.4295
  652SOL     OW 1954   2.736   1.753   3.016  0.4788 -0.1682 -0.4976
  652SOL    HW1 1955   2.768   1.714   2.928 -2.3201  4.6430  0.9059
  652SOL    HW2 1956   2.640   1.782   3.002 -1.5893  1.2389  0.8177
  653SOL     OW 1957   0.225   0.165   0.913 -0.4204  0.3143  0.0112
  653SOL    HW1 1958   0.180   0.247   0.953 -1.0905  1.3787 -1.7005
  653SOL    HW2 1959   0.297   0.144   0.979  2.6214  0.7322  0.9824
  654SOL     OW 1960   2.522   3.053   2.290 -0.2331  0.3060  0.2138
  654SOL    HW1 1961   2.622   3.071   2.298  2.2527 -1.4058 -0.9619
  654SOL    HW2 1962   2.498   3.022   2.195  1.7876  2.4698 -0.3653
  655SOL     OW 1963   0.572   2.937   1.019 -0.0848 -0.2719  0.0435
  655SOL    HW1 1964   0.541   2.934   0.919  1.4747 -1.2928 -1.3432
  655SOL    HW2 1965   0.513   3.004   1.072  1.3445  2.5565  0.4152
  656SOL     OW 1966   0.021   2.817   2.382  0.6650 -0.5935  0.2782
  656SOL    HW1 1967   3.051   2.813   2.302  0.5294  1.3004 -3.2828
  656SOL    HW2 1968   0.026   2.911   2.422 -0.4735  2.6418 -4.0640
  657SOL     OW 1969   2.764   0.902   0.001  0.4999  0.2130  0.1716
  657SOL    HW1 1970   2.776   0.924   2.995  2.3555  1.9813 -2.1503
  657SOL    HW2 1971   2.848   0.863   0.046 -0.1373  0.6378  4.5823
  658SOL     OW 1972   2.434   2.170   1.193 -0.3682  0.6152 -0.2609
  658SOL    HW1 1973   2.411   2.231   1.271  3.2699 -0.0290  1.5385
  658SOL    HW2 1974   2.453   2.074   1.229 -0.2570 -0.6797 -1.3705
  659SOL     OW 1975   1.823   2.693   0.464  0.1354 -0.1720  0.0702
  659SOL    HW1 1976   1.882   2.612   0.467 -3.2176  3.0925  0.7656
  659SOL    HW2 1977   1.730   2.659   0.477  1.7611 -0.8182 -2.5258
  660SOL     OW 1978   1.654   1.220   2.575  0.0442 -0.4909  0.0330
  660SOL    HW1 1979   1.663   1.288   2.498 -2.3543  0.3522 -0.0233
  660SOL    HW2 1980   1.558   1.198   2.579  3.0172  2.0240 -1.7085
  661SOL     OW 1981   2.702   2.243   1.388  0.0109  0.3515  0.6563
  661SOL    HW1 1982   2.693   2.192   1.300  1.3825 -1.3331  0.8253
  661SOL    HW2 1983   2.759   2.324   1.383 -0.8613  0.2546 -0.3511
  662SOL     OW 1984   0.451   0.762   0.205  0.1454  0.5496 -0.0229
  662SOL    HW1 1985   0.388   0.841   0.201  1.6464 -0.7873  1.3838
  662SOL    HW2 1986   0.465   0.719   0.294 -1.1900  1.4053 -1.6230
  663SOL     OW 1987   2.154   2.164   1.138  0.1963  0.1868  0.1643
  663SOL    HW1 1988   2.108   2.230   1.199  0.7428  1.9976  0.7544
  663SOL    HW2 1989   2.252   2.166   1.153 -0.5757 -0.7196 -0.7404
  664SOL     OW 1990   0.951   1.504   1.229 -0.0270 -0.2105  0.2049
  664SOL    HW1 1991   1.015   1.503   1.307 -0.9022 -1.0092 -1.6577
  664SOL    HW2 1992   1.002   1.520   1.141 -0.8628 -0.3032 -1.4255
  665SOL     OW 1993   1.717   2.506   1.993  0.2777 -0.2289 -0.1195
  665SOL    HW1 1994   1.782   2.540   1.920  0.5941  0.0494  1.4472
  665SOL    HW2 1995   1.772   2.445   2.055 -1.8355 -0.4024 -2.9558
  666SOL     OW 1996   2.922   2.699   0.174  0.5322  0.3859 -0.4958
  666SOL    HW1 1997   3.019   2.666   0.176 -2.6380 -5.2906 -1.9493
  666SOL    HW2 1998   2.915   2.789   0.217 -0.5608  0.7177  0.8812
  667SOL     OW 1999   2.674   1.505   1.862 -0.2876 -0.2385 -0.3774
  667SOL    HW1 2000   2.678   1.573   1.794 -0.0009 -3.8275 -1.0595
  667SOL    HW2 2001   2.697   1.410   1.834 -0.8842 -2.6543  0.5717
  668SOL     OW 2002   0.492   0.717   2.590  0.2000  0.1051  0.4427
  668SOL    HW1 2003   0.564   0.784   2.557 -0.1178 -0.6018 -1.0700
  668SOL    HW2 2004   0.489   0.724   2.689  2.2592 -1.3384 -0.8903
  669SOL     OW 2005   1.881   2.201   3.066  0.2724  0.1526  0.6034
  669SOL    HW1 2006   1.955   2.133   3.053 -0.8673  1.9632  1.5650
  669SOL    HW2 2007   1.924   2.293   3.063 -2.3240 -0.6357  0.1634
  670SOL     OW 2008   2.440   1.655   2.485 -0.0393 -0.6070 -0.1828
  670SOL    HW1 2009   2.500   1.632   2.562 -0.9415 -0.8571 -2.3175
  670SOL    HW2 2010   2.448   1.584   2.410  0.4633 -0.9246 -0.0281
  671SOL     OW 2011   0.176   1.825   0.727  0.4047  0.3291  0.4321
  671SOL    HW1 2012   0.188   1.782   0.636  0.4579  0.5635  0.1193
  671SOL    HW2 2013   0.081   1.814   0.759 -0.1323  0.0697  1.3559
  672SOL     OW 2014   2.420   0.567   1.964  0.6667  0.2220 -0.2578
  672SOL    HW1 2015   2.341   0.613   2.016 -1.2591  2.0448  1.2657
  672SOL    HW2 2016   2.493   0.636   1.939  2.2327  0.3638  0.3690
  673SOL     OW 2017   2.418   2.470   2.123  0.2386 -0.3422  0.2075
  673SOL    HW1 2018   2.508   2.421   2.103  1.0972 -1.1675 -3.9872
  673SOL    HW2 2019   2.418   2.561   2.073 -1.5663  0.2014  1.6211
  674SOL     OW 2020   1.408   2.607   1.744 -1.2394  0.1651 -0.0388
  674SOL    HW1 2021   1.458   2.525   1.720 -3.4434 -1.3240 -1.9538
  674SOL    HW2 2022   1.315   2.593   1.712  0.9111  0.6257  0.1938
  675SOL     OW 2023   0.556   0.860   0.991 -0.4697 -0.5527 -0.1703
  675SOL    HW1 2024   0.466   0.907   1.001 -1.9186 -2.4595  2.2268
  675SOL    HW2 2025   0.626   0.933   0.987  0.2942 -0.6014 -1.2461
  676SOL     OW 2026   1.848   1.233   0.641  0.0992 -0.0813  0.3506
  676SOL    HW1 2027   1.800   1.141   0.637 -1.2012 -2.0135 -2.8783
  676SOL    HW2 2028   1.936   1.227   0.692 -0.8161  1.2539  1.7474
  677SOL     OW 2029   2.845   1.221   2.552 -0.1568  0.0086 -0.1682
  677SOL    HW1 2030   2.779   1.295   2.524 -1.3397  2.9528 -1.0014
  677SOL    HW2 2031   2.814   1.130   2.513 -1.0686  0.3828 -0.0865
  678SOL     OW 2032   2.703   1.923   1.259 -0.6270 -0.3742  0.5318
  678SOL    HW1 2033   2.770   1.852   1.291 -1.2118 -0.6158 -0.4399
  678SOL    HW2 2034   2.608   1.897   1.285 -0.9516 -0.0127 -0.0055
  679SOL     OW 2035   1.977   2.481   0.512 -0.1141 -0.2436  0.5803
  679SOL    HW1 2036   2.070   2.521   0.517 -0.3619 -0.9974  1.9872
  679SOL    HW2 2037   1.936   2.472   0.603  1.0484  2.0716 -0.4256
  680SOL     OW 2038   0.062   2.201   2.112  0.1247  0.2994  0.5339
  680SOL    HW1 2039   0.049   2.133   2.040  1.6052 -2.2672  1.7359
  680SOL    HW2 2040   0.153   2.237   2.103 -0.3499  0.0911  1.7036
  681SOL     OW 2041   0.001   1.236   1.773 -0.3701  0.1323 -0.5345
  681SOL    HW1 2042   0.098   1.224   1.744 -0.3339  0.6885 -1.5446
  681SOL    HW2 2043   3.078   1.315   1.842 -0.5760 -0.7695  4.3181
  682SOL     OW 2044   1.187   2.574   0.849 -0.2376 -0.0777 -0.2612
  682SOL    HW1 2045   1.106   2.600   0.914 -2.7088 -1.3242  0.7437
  682SOL    HW2 2046   1.278   2.587   0.894  1.5457  3.7605  1.6462
  683SOL     OW 2047   2.205   1.117   1.260 -0.7394 -0.0647  0.3355
  683SOL    HW1 2048   2.177   1.213   1.240 -2.2763  0.9406 -2.7380
  683SOL    HW2 2049   2.303   1.107   1.261  0.1608  0.2440 -0.3919
  684SOL     OW 2050   0.508   1.876   2.666  0.7555  0.5412 -0.1561
  684SOL    HW1 2051   0.581   1.813   2.691 -0.7748  0.4230 -2.7683
  684SOL    HW2 2052   0.517   1.969   2.702  0.0332 -2.7083  0.6629
  685SOL     OW 2053   1.425   1.571   3.022 -0.0623 -0.2271  0.2730
  685SOL    HW1 2054   1.424   1.466   3.016  0.0011 -2.0651 -1.0320
  685SOL    HW2 2055   1.519   1.609   3.017  2.4777 -1.0502 -0.6941
  686SOL     OW 2056   2.954   0.642   1.136  0.0427 -0.0049 -0.8144
  686SOL    HW1 2057   2.937   0.659   1.237  0.0887  3.3366 -0.7057
  686SOL    HW2 2058   3.015   0.709   1.093 -1.5148 -2.2325 -0.3507
  687SOL     OW 2059   1.152   2.282   2.736  0.7864  0.8102  0.4974
  687SOL    HW1 2060   1.093   2.361   2.712  2.8920  0.0186  0.6845
  687SOL    HW2 2061   1.091   2.194   2.744 -3.6082 -0.7570  0.8648
  688SOL     OW 2062   0.090   1.756   1.871  0.0496  0.3735 -0.4239
  688SOL    HW1 2063   0.062   1.855   1.873  0.6194  1.0440  1.0706
  688SOL    HW2 2064   0.059   1.718   1.781  0.9977 -2.8182 -1.2614
  689SOL     OW 2065   1.907   0.732   1.844 -0.0185 -0.0530  0.0748
  689SOL    HW1 2066   1.865   0.774   1.932 -1.4551  2.3566  3.4558
  689SOL    HW2 2067   1.945   0.635   1.862 -0.5653 -2.4477  0.4826
  690SOL     OW 2068   2.379   0.831   0.978 -0.6248  0.2965  0.0022
  690SOL    HW1 2069   2.310   0.756   0.978  1.2197 -0.4679 -1.3084
  690SOL    HW2 2070   2.331   0.920   0.976 -0.2123  2.4488  0.8249
  691SOL     OW 2071   0.738   1.783   1.676  0.4727  0.0567  0.0066
  691SOL    HW1 2072   0.795   1.702   1.656  1.0141  0.9677 -0.9488
  691SOL    HW2 2073   0.769   1.832   1.759 -2.2225  0.0125 -1.5521
  692SOL     OW 2074   1.961   0.337   1.272  0.3640  0.5803 -0.6282
  692SOL    HW1 2075   1.878   0.337   1.213 -1.4345 -0.9041  2.2976
  692SOL    HW2 2076   2.038   0.281   1.248 -1.0414 -1.2123  1.8133
  693SOL     OW 2077   0.222   0.663   2.500 -0.7668  0.3413  0.0650
  693SOL    HW1 2078   0.187   0.580   2.556  1.3352 -2.5708  2.4414
  693SOL    HW2 2079   0.317   0.684   2.528 -4.0557 -2.0507 -2.2550
  694SOL     OW 2080   1.711   0.267   1.128 -0.0987 -0.2070  0.1174
  694SOL    HW1 2081   1.746   0.338   1.066 -0.5595 -2.8303  1.7842
  694SOL    HW2 2082   1.645   0.204   1.084 -1.3212 -0.1536  0.5133
  695SOL     OW 2083   1.257   1.267   1.595  0.1308  0.7690 -0.4889
  695SOL    HW1 2084   1.244   1.299   1.504 -1.5476  0.1317  3.7448
  695SOL    HW2 2085   1.190   1.193   1.622 -1.3675 -0.0921 -0.4770
  696SOL     OW 2086   1.582   3.035   0.263  0.1792 -0.2844 -0.2306
  696SOL    HW1 2087   1.553   2.936   0.278 -0.9301  2.2194 -0.8518
  696SOL    HW2 2088   1.557   3.073   0.170 -1.1802 -1.3566 -1.6428
  697SOL     OW 2089   0.751   0.535   0.702  0.1240 -0.0835 -0.4027
  697SOL    HW1 2090   0.719   0.631   0.686 -2.0920  0.5952 -1.0399
  697SOL    HW2 2091   0.831   0.505   0.648 -1.9409 -1.2191  2.5551
  698SOL     OW 2092   1.390   1.126   2.622 -0.3508 -0.7243 -0.1512
  698SOL    HW1 2093   1.316   1.176   2.568  0.9755 -0.2864  1.5434
  698SOL    HW2 2094   1.390   1.024   2.608 -0.7473 -3.3883 -1.1589
  699SOL     OW 2095   1.464   1.298   1.196  0.0070 -0.9016  0.2815
  699SOL    HW1 2096   1.421   1.385   1.222 -1.2149 -2.2710  1.2997
  699SOL    HW2 2097   1.538   1.317   1.126 -1.5060  0.3768  1.2414
  700SOL     OW 2098   1.706   3.088   0.498  0.8334  0.1494 -0.7929
  700SOL    HW1 2099   1.624   3.086   0.435  1.1344  0.4735 -0.7854
  700SOL    HW2 2100   1.761   0.086   0.498 -0.1049  0.5868 -1.9091
  701SOL     OW 2101   2.785   3.021   2.330 -0.1298  0.2621 -0.3313
  701SOL    HW1 2102   2.754   2.933   2.357  1.0967  1.5878 -0.2050
  701SOL    HW2 2103   2.843   3.062   2.407  3.0174  1.1854 -0.0770
  702SOL     OW 2104   1.024   0.196   0.116 -0.0755 -0.0288 -0.8421
  702SOL    HW1 2105   0.992   0.259   0.191 -0.5251  0.9423 -0.3777
  702SOL    HW2 2106   1.023   0.233   0.021 -3.4446  0.3270  0.1791
  703SOL     OW 2107   2.216   2.884   2.254 -0.4080  0.2861 -0.3183
  703SOL    HW1 2108   2.139   2.819   2.252 -0.0195 -0.2805  0.9504
  703SOL    HW2 2109   2.265   2.897   2.167  0.1001 -2.3345  1.0708
  704SOL     OW 2110   0.470   2.382   0.909 -0.2251  0.5104  0.3388
  704SOL    HW1 2111   0.425   2.329   0.834 -0.9629  1.7993  0.7591
  704SOL    HW2 2112   0.426   2.364   0.999 -0.3152  2.0437 -0.3156
  705SOL     OW 2113   2.639   3.078   2.005 -0.1479 -0.8184 -0.6381
  705SOL    HW1 2114   2.697   0.034   1.938 -0.8313 -1.3080 -0.8665
  705SOL    HW2 2115   2.545   3.070   1.970 -1.0913 -0.1711  0.6802
  706SOL     OW 2116   1.764   0.268   0.461  0.1662 -0.9193 -0.5365
  706SOL    HW1 2117   1.865   0.273   0.461 -3.0541  0.4831  2.0654
  706SOL    HW2 2118   1.735   0.310   0.368 -0.0379  1.7646 -1.9528
  707SOL     OW 2119   1.237   1.980   2.157  0.1020  0.5607  0.2224
  707SOL    HW1 2120   1.318   2.037   2.140 -1.6755  0.5127 -0.0617
  707SOL    HW2 2121   1.147   2.028   2.176 -0.5060  0.9381  0.2981
  708SOL     OW 2122   0.158   2.521   1.870 -0.4321 -0.1820  0.0853
  708SOL    HW1 2123   0.137   2.509   1.973 -0.0613 -0.5100  0.8992
  708SOL    HW2 2124   0.090   2.587   1.836 -1.6186  0.2255  4.0112
  709SOL     OW 2125   1.728   0.314   1.999 -0.6656 -0.5004  0.4502
  709SOL    HW1 2126   1.824   0.285   1.989  0.7904 -0.8689 -0.2375
  709SOL    HW2 2127   1.673   0.228   2.001  1.3379 -1.7292 -1.5485
  710SOL     OW 2128   2.115   0.375   1.688 -0.6417 -0.0056  0.2175
  710SOL    HW1 2129   2.035   0.409   1.643  0.5095 -1.1421  3.3399
  710SOL    HW2 2130   2.119   0.273   1.675  0.2809 -2.2875 -1.1104
  711SOL     OW 2131   0.635   1.846   0.524 -0.3318  0.5596 -0.2964
  711SOL    HW1 2132   0.562   1.778   0.493  1.7846  0.5548  0.5289
  711SOL    HW2 2133   0.694   1.867   0.443  2.3682 -0.1479  3.5616
  712SOL     OW 2134   0.640   2.511   2.122 -0.2594  0.1030 -0.0670
  712SOL    HW1 2135   0.576   2.531   2.045  1.2146 -0.1660  1.3012
  712SOL    HW2 2136   0.658   2.596   2.177  0.8244 -0.4662 -0.2016
  713SOL     OW 2137   1.965   1.255   0.131 -0.3558  0.3447  0.5500
  713SOL    HW1 2138   1.990   1.331   0.072 -1.8010 -0.2582  1.1714
  713SOL    HW2 2139   2.053   1.207   0.154  1.5474 -0.4467  1.1093
  714SOL     OW 2140   0.893   1.802   1.129 -0.5020 -0.2232  0.1608
  714SOL    HW1 2141   0.796   1.785   1.163 -0.8517  0.3734  0.1905
  714SOL    HW2 2142   0.903   1.862   1.048 -2.0304  0.6003  1.6521
  715SOL     OW 2143   1.858   0.025   2.942 -0.0697 -0.3805 -0.1339
  715SOL    HW1 2144   1.903   0.099   2.996 -1.8837 -3.2881  0.6131
  715SOL    HW2 2145   1.918   3.085   2.867 -1.3862 -1.7079  0.7095
  716SOL     OW 2146   2.890   0.013   1.819  0.3803 -0.7237  0.1588
  716SOL    HW1 2147   2.985   0.025   1.783  0.4408  0.6094 -1.4909
  716SOL    HW2 2148   2.892   3.075   1.917  0.3071  1.4239  2.1031
  717SOL     OW 2149   0.319   1.216   0.136 -0.1092 -0.0002  0.3069
  717SOL    HW1 2150   0.331   1.117   0.143  1.9741  2.5171 -2.4357
  717SOL    HW2 2151   0.233   1.244   0.089  1.1906 -0.8142 -1.3090
  718SOL     OW 2152   1.380   0.884   2.537 -0.4634  0.0923 -1.1870
  718SOL    HW1 2153   1.298   0.834   2.570  0.7641 -0.9391 -1.3866
  718SOL    HW2 2154   1.433   0.827   2.472 -0.9643  2.9179  2.0339
  719SOL     OW 2155   2.578   1.304   2.947 -0.2699  0.4257 -0.3346
  719SOL    HW1 2156   2.563   1.299   3.045 -0.3865  1.0721 -2.8013
  719SOL    HW2 2157   2.522   1.381   2.911  1.5664  0.0868  1.7819
  720SOL     OW 2158   1.099   0.887   0.910  0.2562  0.4433  0.1252
  720SOL    HW1 2159   1.025   0.846   0.967 -0.9655  0.2732  0.8660
  720SOL    HW2 2160   1.064   0.940   0.832  0.4151  1.2927  1.5802
  721SOL     OW 2161   2.615   1.077   0.448 -0.3558 -0.1775 -0.0995
  721SOL    HW1 2162   2.611   0.988   0.400  2.1475  0.4384 -0.7588
  721SOL    HW2 2163   2.637   1.157   0.390 -0.0022 -1.4651  2.8087
  722SOL     OW 2164   1.290   0.842   2.937 -0.0847  0.2173 -0.0953
  722SOL    HW1 2165   1.230   0.808   3.010  0.0516 -0.2186 -0.4071
  722SOL    HW2 2166   1.285   0.796   2.847  0.1854  2.3756  1.3751
  723SOL     OW 2167   0.176   1.226   0.365  0.0352 -0.4656 -0.0540
  723SOL    HW1 2168   0.147   1.325   0.372 -0.6372  2.2540  0.0374
  723SOL    HW2 2169   0.241   1.206   0.290 -0.1052  1.4620 -0.8831
  724SOL     OW 2170   0.542   1.533   2.183 -0.3225  0.8085 -0.2438
  724SOL    HW1 2171   0.461   1.548   2.126 -0.0697 -1.4009 -2.0677
  724SOL    HW2 2172   0.549   1.604   2.260  0.1715  0.1382  0.6328
  725SOL     OW 2173   2.289   0.667   1.459  0.7514  0.0918 -0.1315
  725SOL    HW1 2174   2.237   0.754   1.460 -1.7652  1.6639  2.1050
  725SOL    HW2 2175   2.300   0.634   1.552  0.1871 -1.4530 -0.1766
  726SOL     OW 2176   1.852   2.912   0.633  0.2434  0.0303  0.3891
  726SOL    HW1 2177   1.840   2.822   0.589 -0.0275  1.8616 -0.2474
  726SOL    HW2 2178   1.782   2.978   0.598 -3.7524  1.6435 -0.2047
  727SOL     OW 2179   1.228   0.997   2.067 -0.2256  0.2611  0.3511
  727SOL    HW1 2180   1.252   1.029   2.162  2.3383 -0.3324  0.8895
  727SOL    HW2 2181   1.303   1.019   2.003 -0.2586  1.0178  0.8732
  728SOL     OW 2182   1.361   2.545   1.042  0.3992 -0.0713 -0.3995
  728SOL    HW1 2183   1.373   2.612   1.122 -1.3769 -1.9427  0.9458
  728SOL    HW2 2184   1.334   2.448   1.069 -0.3006 -3.2311  0.8957
  729SOL     OW 2185   1.974   0.950   1.038  0.3236  0.0084  0.1400
  729SOL    HW1 2186   2.026   0.991   0.958  0.7564  0.1721  0.9821
  729SOL    HW2 2187   2.017   0.865   1.074 -0.8705 -0.5529 -2.3636
  730SOL     OW 2188   0.564   1.746   2.361 -0.7496 -0.5627 -0.4791
  730SOL    HW1 2189   0.616   1.831   2.340  2.0911 -1.9348  0.5751
  730SOL    HW2 2190   0.468   1.776   2.377  2.6134  2.4113 -1.3229
  731SOL     OW 2191   0.560   0.363   0.765 -0.3903 -0.2427 -0.1620
  731SOL    HW1 2192   0.506   0.323   0.698 -2.3109  2.3092  2.5166
  731SOL    HW2 2193   0.649   0.410   0.734  2.7641  1.6405 -0.7758
  732SOL     OW 2194   0.806   0.881   0.133  1.0305 -0.2130  0.5645
  732SOL    HW1 2195   0.726   0.891   0.069 -1.3015  0.2988 -1.4526
  732SOL    HW2 2196   0.885   0.923   0.088 -0.2854 -0.9524 -0.2258
  733SOL     OW 2197   0.733   2.403   0.883  0.1355 -0.4409  0.0540
  733SOL    HW1 2198   0.732   2.342   0.799 -2.2169 -0.7310 -0.7279
  733SOL    HW2 2199   0.634   2.428   0.904 -3.2182 -0.3809  1.5921
  734SOL     OW 2200   2.966   2.002   2.788  0.0095 -0.2193  0.1775
  734SOL    HW1 2201   3.017   2.015   2.704  1.2187  0.5930  3.3567
  734SOL    HW2 2202   3.009   2.055   2.867 -1.7984  0.0662 -0.9782
  735SOL     OW 2203   0.943   0.337   1.305 -0.4011 -0.4696  0.8238
  735SOL    HW1 2204   0.936   0.338   1.407  0.0959  0.2132 -1.7494
  735SOL    HW2 2205   0.949   0.243   1.262 -0.4967  1.0708  0.9281
  736SOL     OW 2206   1.861   2.865   0.003 -0.3398 -0.1831  0.2719
  736SOL    HW1 2207   1.844   2.878   0.104 -0.2977 -1.3828 -1.4191
  736SOL    HW2 2208   1.843   2.943   3.041 -0.2589 -3.7735 -0.4058
  737SOL     OW 2209   0.097   0.435   0.636  0.3060  0.7688 -0.5809
  737SOL    HW1 2210   0.007   0.471   0.604 -0.0084  1.0982  0.7378
  737SOL    HW2 2211   0.105   0.482   0.726 -0.7640  1.3612  1.5228
  738SOL     OW 2212   2.382   0.055   0.858 -0.8506  0.4884  0.3421
  738SOL    HW1 2213   2.394   0.149   0.891 -1.4192  0.2251 -1.8103
  738SOL    HW2 2214   2.430   0.027   0.772 -0.8352 -0.2797 -0.7262
  739SOL     OW 2215   1.546   2.452   0.221 -0.2546  0.2492 -0.1440
  739SOL    HW1 2216   1.596   2.368   0.202 -0.5333  0.5508  4.0084
  739SOL    HW2 2217   1.528   2.516   0.141 -0.2053  0.5341 -1.0767
  740SOL     OW 2218   1.447   0.295   0.812 -0.0182 -0.0385 -0.0799
  740SOL    HW1 2219   1.413   0.200   0.819  1.0902  0.1105 -0.9737
  740SOL    HW2 2220   1.544   0.291   0.784  0.0604  0.8008  1.1504
  741SOL     OW 2221   2.618   0.760   0.814 -0.1801  0.2149 -0.4097
  741SOL    HW1 2222   2.536   0.808   0.858 -1.7293  2.0437 -0.1606
  741SOL    HW2 2223   2.584   0.707   0.731 -1.1266 -0.8637 -0.2011
  742SOL     OW 2224   0.973   2.120   2.180  0.3489  0.2466 -0.2325
  742SOL    HW1 2225   0.940   2.173   2.261 -0.9629  1.0260  1.7641
  742SOL    HW2 2226   0.950   2.173   2.100 -2.2777  0.2519  0.8627
  743SOL     OW 2227   2.069   0.528   1.922  0.3688 -0.3480 -0.0575
  743SOL    HW1 2228   2.093   0.471   1.842 -1.2496  1.3527  0.7718
  743SOL    HW2 2229   2.059   0.472   2.007  0.2841  1.0828  3.4919
  744SOL     OW 2230   2.195   0.635   0.993  0.3446 -0.2243 -0.0225
  744SOL    HW1 2231   2.164   0.546   0.944 -2.1264 -2.0980 -2.1428
  744SOL    HW2 2232   2.169   0.630   1.092  0.0167  1.1904  0.0607
  745SOL     OW 2233   1.757   1.140   1.536 -0.0691  0.2980 -0.2352
  745SOL    HW1 2234   1.803   1.075   1.474  3.3342 -2.5219 -1.0856
  745SOL    HW2 2235   1.664   1.115   1.569  0.4047  0.1530  2.4871
  746SOL     OW 2236   1.680   1.368   1.039  0.4966 -0.2500  0.3987
  746SOL    HW1 2237   1.663   1.367   0.940  1.0879  2.5248  0.5752
  746SOL    HW2 2238   1.749   1.294   1.052 -0.9115 -1.2002  0.3770
  747SOL     OW 2239   1.909   1.232   1.104 -0.3566 -0.0011  0.6393
  747SOL    HW1 2240   1.981   1.285   1.152 -3.6131 -1.6468 -2.4619
  747SOL    HW2 2241   1.940   1.135   1.092  0.6456  0.5065 -1.7266
  748SOL     OW 2242   0.354   2.221   0.706 -0.5251  0.0046  0.1616
  748SOL    HW1 2243   0.274   2.278   0.683 -1.2099  1.4265 -0.8019
  748SOL    HW2 2244   0.416   2.212   0.625  0.6459  0.0966  0.4021
  749SOL     OW 2245   2.725   2.754   2.346 -0.8003 -0.0893  0.4977
  749SOL    HW1 2246   2.645   2.742   2.411  0.7408  0.3788 -2.0395
  749SOL    HW2 2247   2.698   2.751   2.252  1.2153 -0.0961  1.4054
  750SOL     OW 2248   2.557   0.294   0.771 -0.0499  0.4972 -0.0095
  750SOL    HW1 2249   2.640   0.311   0.709 -0.5503  3.2550 -3.1563
  750SOL    HW2 2250   2.472   0.329   0.733 -1.5286 -2.7505 -0.0569
  751SOL     OW 2251   2.653   0.266   0.235  0.5609  0.3196  0.2970
  751SOL    HW1 2252   2.690   0.214   0.157 -1.8782  0.0843 -0.7383
  751SOL    HW2 2253   2.552   0.279   0.227  0.7120 -2.7642  2.5764
  752SOL     OW 2254   0.475   2.942   0.726  0.0186  0.2588 -0.2383
  752SOL    HW1 2255   0.450   2.848   0.743 -0.7768  1.6541 -3.1784
  752SOL    HW2 2256   0.410   2.974   0.652 -0.4473  0.8400 -0.7854
  753SOL     OW 2257   1.472   0.595   1.943  0.1340  0.4014 -0.1173
  753SOL    HW1 2258   1.390   0.635   1.896  1.4517 -0.8844 -0.2244
  753SOL    HW2 2259   1.559   0.609   1.900 -1.0942  0.9776 -0.8243
  754SOL     OW 2260   1.759   2.288   1.746 -0.1482 -0.1737 -0.2960
  754SOL    HW1 2261   1.794   2.377   1.776 -1.3779 -0.2333  0.0996
  754SOL    HW2 2262   1.670   2.303   1.695  0.1234 -0.2975  2.7898
  755SOL     OW 2263   2.975   0.568   0.550  0.0929  0.1747  0.6488
  755SOL    HW1 2264   2.978   0.671   0.534  2.3133 -1.2907  2.0698
  755SOL    HW2 2265   2.971   0.527   0.452 -1.3950  0.4209 -3.0901
  756SOL     OW 2266   1.561   1.564   2.706  0.2950 -0.0555  0.1011
  756SOL    HW1 2267   1.474   1.516   2.683  0.2640  0.8857  1.0527
  756SOL    HW2 2268   1.550   1.667   2.727  0.4206  2.2352 -1.0985
  757SOL     OW 2269   1.404   0.011   0.813  0.0185  1.0028  0.0414
  757SOL    HW1 2270   1.384   3.012   0.844 -2.1667 -1.8934 -0.7468
  757SOL    HW2 2271   1.346   0.029   0.731  1.2658  0.9107  0.2265
  758SOL     OW 2272   0.283   0.122   1.342 -0.0647 -0.0479  0.4755
  758SOL    HW1 2273   0.182   0.120   1.307 -2.3251 -1.3763 -3.0093
  758SOL    HW2 2274   0.282   0.169   1.434  1.4824 -3.4521 -2.1377
  759SOL     OW 2275   0.231   0.867   1.257 -0.0811 -0.0085  0.4385
  759SOL    HW1 2276   0.215   0.809   1.174 -2.6476  1.9059  2.0994
  759SOL    HW2 2277   0.145   0.910   1.283  2.5243 -0.0226 -1.5845
  760SOL     OW 2278   2.232   1.078   0.987  0.1170  0.0802 -0.1653
  760SOL    HW1 2279   2.289   1.157   0.959  1.9468  0.2290 -0.2147
  760SOL    HW2 2280   2.212   1.075   1.089 -1.3200 -0.8608  1.1422
  761SOL     OW 2281   1.257   0.850   0.561  0.1415  0.4418 -0.0952
  761SOL    HW1 2282   1.206   0.779   0.618  0.3686  0.0994  0.0503
  761SOL    HW2 2283   1.211   0.940   0.561  0.4961  0.6899 -0.3901
  762SOL     OW 2284   2.279   2.319   1.386 -0.3427  0.0153 -0.4935
  762SOL    HW1 2285   2.177   2.309   1.377 -2.2544  0.9960  0.5339
  762SOL    HW2 2286   2.313   2.385   1.317 -0.3018 -2.4366 -1.8004
  763SOL     OW 2287   1.589   1.384   1.955 -0.4287  0.2879  0.1821
  763SOL    HW1 2288   1.662   1.356   1.883  1.0587 -0.8779 -3.6047
  763SOL    HW2 2289   1.494   1.376   1.919  0.7451 -0.2688 -0.7630
  764SOL     OW 2290   0.089   1.769   2.686  0.1172 -0.2780  0.3783
  764SOL    HW1 2291   0.008   1.746   2.629 -0.3406 -3.7962 -1.1382
  764SOL    HW2 2292   0.062   1.835   2.761  2.0318  1.4903 -0.9951
  765SOL     OW 2293   0.731   2.630   1.242  0.3520 -0.0834  0.0052
  765SOL    HW1 2294   0.661   2.580   1.297  0.4574  0.3550 -0.4332
  765SOL    HW2 2295   0.691   2.697   1.175  0.1721  0.9364  2.1543
  766SOL     OW 2296   0.761   2.059   2.609 -0.1599  0.0682  0.1634
  766SOL    HW1 2297   0.754   1.961   2.639  1.2273  1.0441 -1.2388
  766SOL    HW2 2298   0.687   2.114   2.645 -1.1329  1.0886  0.2850
  767SOL     OW 2299   1.953   0.378   2.359  0.4838  0.0798  0.8347
  767SOL    HW1 2300   2.032   0.417   2.306  0.0837 -0.6685 -0.5581
  767SOL    HW2 2301   1.965   0.396   2.459  0.0596  1.5629 -1.3659
  768SOL     OW 2302   1.026   2.531   2.766 -0.1576 -0.4633  0.0371
  768SOL    HW1 2303   1.049   2.576   2.671  2.3503  1.1584 -3.7373
  768SOL    HW2 2304   1.061   2.586   2.847 -0.0899  0.5417 -3.1889
  769SOL     OW 2305   0.023   2.691   0.943 -0.1850  0.1578 -0.2706
  769SOL    HW1 2306   3.052   2.749   0.997 -0.7053 -1.8578  2.4569
  769SOL    HW2 2307   0.089   2.649   1.004 -1.5841  3.6126  1.5539
  770SOL     OW 2308   0.881   2.821   2.877 -0.1483 -0.6756  0.2744
  770SOL    HW1 2309   0.778   2.798   2.878 -2.1929  0.3840 -0.7568
  770SOL    HW2 2310   0.916   2.835   2.782 -1.0424  1.5657  3.0639
  771SOL     OW 2311   1.021   2.400   2.380 -0.0795 -0.3041  0.8721
  771SOL    HW1 2312   1.100   2.359   2.326  1.4025 -0.0622  0.7190
  771SOL    HW2 2313   0.944   2.339   2.395  0.1257 -2.3818  0.4370
  772SOL     OW 2314   2.361   3.007   2.022 -0.4649 -0.4081  0.4249
  772SOL    HW1 2315   2.311   3.089   1.985  0.4442 -0.4673 -1.9310
  772SOL    HW2 2316   2.327   2.925   1.973 -2.4051  0.6301 -1.5018
  773SOL     OW 2317   1.130   2.806   1.721  0.1947  0.1257  0.2278
  773SOL    HW1 2318   1.157   2.706   1.715  0.5338  0.7081 -0.1905
  773SOL    HW2 2319   1.162   2.836   1.810 -1.9082 -0.9311 -2.5110
  774SOL     OW 2320   1.616   0.621   2.171  0.1967 -0.5361 -0.6071
  774SOL    HW1 2321   1.555   0.617   2.090 -0.9580  0.0674 -0.3909
  774SOL    HW2 2322   1.662   0.533   2.185 -0.7265 -0.5659 -2.2784
  775SOL     OW 2323   2.124   2.964   0.319 -0.0150 -0.1069 -0.4411
  775SOL    HW1 2324   2.175   2.913   0.249  0.0525  0.7037  1.5470
  775SOL    HW2 2325   2.023   2.940   0.315 -2.2250 -0.7093  1.4433
  776SOL     OW 2326   2.249   0.989   1.955  0.4377  1.0548  0.0419
  776SOL    HW1 2327   2.174   0.978   1.886 -1.6363  1.1924  0.4049
  776SOL    HW2 2328   2.217   1.049   2.032  0.7982 -2.7686  0.0383
  777SOL     OW 2329   2.765   1.033   2.350  0.5079 -0.0763 -0.2675
  777SOL    HW1 2330   2.825   0.963   2.301 -1.1009  1.7250  2.6826
  777SOL    HW2 2331   2.717   1.092   2.282 -1.8418  1.3999  0.2125
  778SOL     OW 2332   2.455   0.300   1.953 -0.3178 -0.1394  0.3647
  778SOL    HW1 2333   2.440   0.401   1.954 -1.2828  1.2623  0.3065
  778SOL    HW2 2334   2.519   0.269   1.878  1.7571 -1.2330 -2.4561
  779SOL     OW 2335   3.007   0.176   3.065  0.2299  0.2623 -0.0711
  779SOL    HW1 2336   3.053   0.221   2.985  2.4463  0.4056 -0.2089
  779SOL    HW2 2337   3.074   0.119   0.022  0.8470 -1.3063  0.8600
  780SOL     OW 2338   2.009   0.124   2.277  0.3174  0.2115  0.1562
  780SOL    HW1 2339   2.098   0.104   2.327  1.7160  0.5783  3.2443
  780SOL    HW2 2340   1.971   0.214   2.302  0.6228  3.2576  0.3270
  781SOL     OW 2341   0.138   0.723   1.786 -0.2157  0.6000  0.1539
  781SOL    HW1 2342   0.203   0.791   1.741  1.4373 -0.7560  0.5926
  781SOL    HW2 2343   0.190   0.669   1.855  1.5966 -0.1887 -0.7865
  782SOL     OW 2344   2.081   2.007   0.456 -0.4529 -0.3516  0.3327
  782SOL    HW1 2345   2.160   2.052   0.408  0.6204  0.2394  0.4294
  782SOL    HW2 2346   2.050   2.064   0.536 -0.5262  0.1571  2.5822
  783SOL     OW 2347   0.635   1.784   1.244  0.9135 -0.3040 -0.2972
  783SOL    HW1 2348   0.576   1.804   1.160  0.0144 -0.4792 -3.3640
  783SOL    HW2 2349   0.642   1.869   1.298 -0.8786  3.2417 -1.3799
  784SOL     OW 2350   2.155   0.506   2.241 -0.4421  0.4416  0.2108
  784SOL    HW1 2351   2.222   0.430   2.247  1.0366 -1.7068 -0.8816
  784SOL    HW2 2352   2.187   0.587   2.187  0.2591 -0.7968  1.2938
  785SOL     OW 2353   0.113   0.395   1.009 -0.3476 -0.0358  0.5591
  785SOL    HW1 2354   0.048   0.441   0.944 -0.7390 -0.6981  1.0457
  785SOL    HW2 2355   0.068   0.382   1.100 -2.4027 -0.1891 -2.2308
  786SOL     OW 2356   1.844   2.935   0.286  0.3810  0.3437  0.2723
  786SOL    HW1 2357   1.782   3.014   0.297 -1.5538  0.5953 -1.3809
  786SOL    HW2 2358   1.835   2.869   0.363 -2.2071  0.3565 -0.0142
  787SOL     OW 2359   1.228   0.058   0.610  0.2225  0.0980 -0.4680
  787SOL    HW1 2360   1.266   0.081   0.520 -1.0183  1.2462  2.1609
  787SOL    HW2 2361   1.188   0.142   0.653 -1.2588 -1.9672  1.8567
  788SOL     OW 2362   0.060   1.612   1.007 -0.0670 -0.1276 -0.1979
  788SOL    HW1 2363   0.016   1.695   0.961 -0.9239 -0.5630  0.5082
  788SOL    HW2 2364   0.162   1.608   0.991  1.6066 -2.6492  0.2997
  789SOL     OW 2365   2.882   0.440   2.015 -0.0808 -0.0622 -0.4174
  789SOL    HW1 2366   2.826   0.363   2.049  2.7948  3.3029 -3.8677
  789SOL    HW2 2367   2.848   0.525   2.053  0.5791 -4.2597 -0.3675
  790SOL     OW 2368   0.784   0.561   3.021  0.4014  0.0835 -0.1737
  790SOL    HW1 2369   0.764   0.493   2.947  3.1702 -1.0783 -0.7784
  790SOL    HW2 2370   0.884   0.557   3.039 -0.4341  0.6746 -2.9198
  791SOL     OW 2371   2.335   0.145   3.042 -0.5686  0.1839  0.2790
  791SOL    HW1 2372   2.352   0.081   0.023  0.1388  1.1613  0.1822
  791SOL    HW2 2373   2.399   0.145   2.965 -2.4005 -0.1269  0.4122
  792SOL     OW 2374   1.066   0.800   1.475 -0.2743  0.0373 -0.5489
  792SOL    HW1 2375   1.148   0.747   1.493 -1.7674 -0.3907 -0.7454
  792SOL    HW2 2376   0.987   0.736   1.473  0.1154  1.5239  0.5763
  793SOL     OW 2377   2.866   0.161   1.474  0.1414  0.1003  0.9383
  793SOL    HW1 2378   2.928   0.233   1.502 -3.7573 -2.7993 -1.9232
  793SOL    HW2 2379   2.799   0.202   1.404 -1.2059 -1.0908  0.2635
  794SOL     OW 2380   2.948   3.035   2.096 -0.0557 -0.4596 -0.2387
  794SOL    HW1 2381   2.889   3.037   2.179  2.4562  0.2713 -1.5735
  794SOL    HW2 2382   2.999   0.028   2.087  0.1346 -2.1864  0.0106
  795SOL     OW 2383   0.500   2.104   2.795 -0.5107 -0.2160  0.5701
  795SOL    HW1 2384   0.530   2.192   2.838 -0.6489 -2.2871  0.5934
  795SOL    HW2 2385   0.496   2.025   2.862 -0.6355  0.9806 -1.3776
  796SOL     OW 2386   2.046   0.643   2.727 -0.1368 -0.6209 -0.3071
  796SOL    HW1 2387   2.033   0.657   2.624  1.3439 -0.4565 -1.8262
  796SOL    HW2 2388   1.997   0.716   2.780 -0.3240  0.0114  0.3037
  797SOL     OW 2389   2.319   2.255   0.012 -0.1445 -0.0066  0.1971
  797SOL    HW1 2390   2.413   2.235   3.074 -2.0185  0.9013 -1.2298
  797SOL    HW2 2391   2.263   2.285   3.025 -0.0431 -0.7634  0.0569
  798SOL     OW 2392   3.019   0.687   1.402  0.6629  0.0468  0.0573
  798SOL    HW1 2393   3.012   0.791   1.388 -0.0923  0.5643 -0.9174
  798SOL    HW2 2394   0.019   0.656   1.391 -2.0885 -3.2518 -0.9827
  799SOL     OW 2395   0.322   0.132   1.804 -0.7821  0.2793 -0.1206
  799SOL    HW1 2396   0.420   0.142   1.815 -0.2323  1.3654  0.6777
  799SOL    HW2 2397   0.283   0.163   1.895  0.9685  0.1514  0.1341
  800SOL     OW 2398   0.052   2.223   0.192  0.5592 -0.2000 -0.4564
  800SOL    HW1 2399   0.009   2.250   0.280  2.9007  0.8788  1.4657
  800SOL    HW2 2400   0.148   2.190   0.199  3.0844  3.0264 -4.6884
  801SOL     OW 2401   1.623   1.671   0.834 -0.1650 -0.6161  0.2094
  801SOL    HW1 2402   1.572   1.718   0.910  0.3917 -1.3868 -1.4427
  801SOL    HW2 2403   1.724   1.683   0.851 -0.0402 -1.2884  2.3118
  802SOL     OW 2404   0.751   0.648   0.253  0.1336 -0.9025 -0.4826
  802SOL    HW1 2405   0.660   0.639   0.294  3.0051 -1.8894 -0.4417
  802SOL    HW2 2406   0.762   0.728   0.192  1.2961  1.3632 -1.6821
  803SOL     OW 2407   1.315   1.433   1.818 -0.2690  0.3526 -0.6812
  803SOL    HW1 2408   1.234   1.481   1.862 -0.7296  2.1552  1.3313
  803SOL    HW2 2409   1.290   1.372   1.744 -2.2096  0.6238  0.7603
  804SOL     OW 2410   1.732   2.053   1.280  0.3501 -0.1105 -0.3635
  804SOL    HW1 2411   1.662   2.056   1.209  0.2011 -2.5857  2.0350
  804SOL    HW2 2412   1.811   1.992   1.252  0.9236 -0.0396 -2.8347
  805SOL     OW 2413   0.050   2.088   2.598  0.6348  0.0511  0.3584
  805SOL    HW1 2414   0.024   2.081   2.499 -1.8074 -2.0931  1.5483
  805SOL    HW2 2415   0.147   2.119   2.613  1.5722 -0.6641 -0.0609
  806SOL     OW 2416   1.013   2.827   0.229  0.2077  0.1363 -0.0750
  806SOL    HW1 2417   0.938   2.831   0.157 -0.2675 -1.6893 -3.5617
  806SOL    HW2 2418   1.038   2.923   0.251  0.6417  2.2503 -1.8323
  807SOL     OW 2419   2.445   0.840   2.817  0.0560 -0.1614  0.4239
  807SOL    HW1 2420   2.505   0.921   2.787  1.1362  2.3080 -2.6514
  807SOL    HW2 2421   2.478   0.802   2.907 -0.0577 -1.1560 -0.6948
  808SOL     OW 2422   1.491   2.087   0.977  0.5528  0.6757  0.1418
  808SOL    HW1 2423   1.593   2.094   0.965 -1.8014 -0.7854  0.6006
  808SOL    HW2 2424   1.442   2.088   0.890  2.1819 -0.5227  0.4335
  809SOL     OW 2425   0.289   0.232   0.639 -0.0882  0.0022  0.3740
  809SOL    HW1 2426   0.213   0.299   0.619 -0.1750 -0.9397  1.3989
  809SOL    HW2 2427   0.292   0.217   0.740  1.7722 -0.1793 -0.9321
  810SOL     OW 2428   1.460   1.331   0.166 -0.1729 -0.2398 -0.2302
  810SOL    HW1 2429   1.480   1.323   0.064 -0.4284 -0.9255 -0.5905
  810SOL    HW2 2430   1.519   1.405   0.212  3.4274  3.0961  4.8360
  811SOL     OW 2431   1.402   2.776   1.213  0.0495 -0.8531 -0.3370
  811SOL    HW1 2432   1.420   2.755   1.311 -0.0298  0.2040  2.0230
  811SOL    HW2 2433   1.324   2.841   1.212 -1.4320  0.1488 -0.3869
  812SOL     OW 2434   1.135   0.317   0.676 -0.2702  0.4354  0.0849
  812SOL    HW1 2435   1.213   0.376   0.692  0.0693  1.3476 -0.2086
  812SOL    HW2 2436   1.095   0.295   0.765  2.2854  0.9345 -3.1844
  813SOL     OW 2437   1.222   3.003   2.223 -0.2956 -0.4100  0.6065
  813SOL    HW1 2438   1.258   2.910   2.222 -2.6759  1.4910  0.5086
  813SOL    HW2 2439   1.290   3.077   2.190 -0.1835 -0.4897  1.2391
  814SOL     OW 2440   1.142   2.867   1.220  0.3182  0.6373  0.3047
  814SOL    HW1 2441   1.110   2.778   1.254  2.0291  2.5622 -1.1760
  814SOL    HW2 2442   1.077   2.908   1.155 -0.2979  1.1576  0.3860
  815SOL     OW 2443   0.096   2.681   0.238  0.6386 -0.2884 -0.0034
  815SOL    HW1 2444   0.155   2.760   0.220 -1.3775 -1.6402  4.6800
  815SOL    HW2 2445   0.062   2.703   0.329 -0.1658  0.0017 -0.0184
  816SOL     OW 2446   2.044   1.257   2.653 -0.5684 -0.8583  0.1465
  816SOL    HW1 2447   2.130   1.248   2.708 -1.5300  1.5143  0.1872
  816SOL    HW2 2448   1.970   1.288   2.712  1.3873  1.0381  3.0638
  817SOL     OW 2449   2.027   2.344   2.432  0.1978 -0.1446  0.0164
  817SOL    HW1 2450   1.973   2.329   2.518 -0.7524  1.6698  2.1536
  817SOL    HW2 2451   2.086   2.427   2.449 -1.9844 -0.3971  3.1095
  818SOL     OW 2452   1.055   1.047   0.084 -0.1079  0.6668 -0.7074
  818SOL    HW1 2453   1.050   1.112   0.007  2.8070  0.1806  2.8899
  818SOL    HW2 2454   1.136   1.061   0.136 -0.4122  0.2931 -2.6533
  819SOL     OW 2455   1.673   1.618   0.022  0.3814 -0.7859  0.1932
  819SOL    HW1 2456   1.767   1.605   3.082 -0.6044  0.3803  0.6660
  819SOL    HW2 2457   1.659   1.570   0.112 -0.3755 -0.2387 -2.2032
  820SOL     OW 2458   0.324   0.773   0.605  0.7723  0.1989 -0.2216
  820SOL    HW1 2459   0.339   0.734   0.698  1.1886  1.0554 -0.2378
  820SOL    HW2 2460   0.370   0.706   0.537  0.8226 -1.9912 -0.1999
  821SOL     OW 2461   0.441   3.030   1.489  0.8124  0.7030 -0.1872
  821SOL    HW1 2462   0.378   0.006   1.449 -1.9729  1.2971  0.3101
  821SOL    HW2 2463   0.478   2.972   1.416 -2.6369  1.2243 -0.1725
  822SOL     OW 2464   2.035   2.131   2.797  0.3539 -0.4324 -0.7488
  822SOL    HW1 2465   2.100   2.196   2.833  0.2895 -0.2241 -1.4104
  822SOL    HW2 2466   1.958   2.182   2.754 -0.2072 -0.2595  0.5925
  823SOL     OW 2467   0.625   0.619   1.974 -0.8089  0.1978  0.1279
  823SOL    HW1 2468   0.718   0.662   1.961  0.8768  1.5418 -3.1321
  823SOL    HW2 2469   0.607   0.611   2.073  0.3875  0.2053  1.1086
  824SOL     OW 2470   2.427   0.019   1.390 -0.0856  0.4532  0.1484
  824SOL    HW1 2471   2.413   0.111   1.425 -1.0949 -1.1159 -3.1338
  824SOL    HW2 2472   2.335   3.066   1.396  0.4300 -0.5859  0.0385
  825SOL     OW 2473   0.506   1.196   2.623  0.1924  0.0762 -0.3896
  825SOL    HW1 2474   0.468   1.175   2.529 -2.6378 -0.2339  2.9118
  825SOL    HW2 2475   0.527   1.112   2.676 -1.0835  0.7356 -0.0448
  826SOL     OW 2476   1.674   0.563   2.843 -0.6986  0.3136 -0.3256
  826SOL    HW1 2477   1.705   0.617   2.762 -1.0050  3.3280 -0.9378
  826SOL    HW2 2478   1.676   0.463   2.822 -0.3588 -2.0392 -1.4721
  827SOL     OW 2479   0.581   2.348   2.315 -0.6882 -0.4904 -0.8328
  827SOL    HW1 2480   0.485   2.316   2.308 -1.4315  0.0946 -0.8821
  827SOL    HW2 2481   0.601   2.415   2.241 -2.7110 -1.7737  1.7589
  828SOL     OW 2482   2.945   3.012   1.520 -0.1171  0.2110 -0.5946
  828SOL    HW1 2483   2.925   2.995   1.619  0.6596 -1.7896  3.7720
  828SOL    HW2 2484   2.925   0.015   1.488  0.7301 -1.7353 -2.0911
  829SOL     OW 2485   1.456   1.636   1.705 -0.2302  0.0253  0.1574
  829SOL    HW1 2486   1.425   1.546   1.744  2.7200  0.3581 -0.5426
  829SOL    HW2 2487   1.535   1.622   1.644 -3.4028  0.1606  0.6622
  830SOL     OW 2488   0.795   1.028   1.640  0.3324  0.1658 -0.2026
  830SOL    HW1 2489   0.749   0.941   1.616 -2.4191  0.5554  1.8937
  830SOL    HW2 2490   0.756   1.069   1.730  0.7858  1.4533  0.8365
  831SOL     OW 2491   2.866   1.655   0.337  0.0505 -0.0991 -0.0225
  831SOL    HW1 2492   2.924   1.650   0.255 -3.7389  3.2407 -1.3134
  831SOL    HW2 2493   2.856   1.751   0.376  1.4271 -0.9456 -0.4955
  832SOL     OW 2494   1.203   2.629   0.211  0.4658 -1.1575 -0.6909
  832SOL    HW1 2495   1.137   2.703   0.181  3.1265 -1.3719 -0.2150
  832SOL    HW2 2496   1.159   2.568   0.282 -2.4015 -0.5357  0.0930
  833SOL     OW 2497   3.070   0.359   1.529  0.2167 -0.4106  0.2463
  833SOL    HW1 2498   0.071   0.338   1.529  0.4491  2.3138 -1.0327
  833SOL    HW2 2499   3.064   0.446   1.581  1.0427 -0.7080  0.4990
  834SOL     OW 2500   3.006   0.879   0.982 -0.3259  0.0862  0.0534
  834SOL    HW1 2501   3.070   0.960   1.001 -0.6303  0.1143  2.3502
  834SOL    HW2 2502   2.971   0.881   0.889  1.8179  0.1959 -0.4651
  835SOL     OW 2503   2.748   3.045   0.512 -0.1091  0.4312 -0.3278
  835SOL    HW1 2504   2.820   0.023   0.476  0.2892  3.1988 -2.0517
  835SOL    HW2 2505   2.786   2.961   0.551 -0.4218  1.9785  0.1678
  836SOL     OW 2506   1.098   1.982   2.851 -0.2763 -0.1937  0.3240
  836SOL    HW1 2507   1.013   1.969   2.906  1.6690  0.2842  0.7137
  836SOL    HW2 2508   1.076   1.983   2.750  0.6768 -0.4034 -0.7374
  837SOL     OW 2509   1.576   1.889   0.003 -0.3721  0.1399 -0.0656
  837SOL    HW1 2510   1.587   1.792   0.039  0.2554  0.4601  1.8280
  837SOL    HW2 2511   1.494   1.902   3.042 -0.6159  0.6336  0.2907
  838SOL     OW 2512   2.591   0.669   2.334  0.4202  0.3795 -0.2512
  838SOL    HW1 2513   2.628   0.721   2.415  1.2856  1.2620  1.3514
  838SOL    HW2 2514   2.488   0.682   2.333 -5.3015 -1.1263  0.8241
  839SOL     OW 2515   0.671   0.936   2.453  0.0953 -0.0402 -0.5590
  839SOL    HW1 2516   0.758   0.888   2.442  0.3920  1.5426 -0.4668
  839SOL    HW2 2517   0.677   0.986   2.544 -0.9923  1.7547  3.3550
  840SOL     OW 2518   0.971   0.831   2.874  0.1418  0.3688  0.0749
  840SOL    HW1 2519   0.938   0.919   2.918 -1.0048  1.6472  4.4203
  840SOL    HW2 2520   1.012   0.770   2.949  2.3823 -0.0894  0.0087
  841SOL     OW 2521   0.854   2.666   0.911  0.1781 -0.4644  0.4143
  841SOL    HW1 2522   0.872   2.726   0.827  2.2753  0.6054  0.3814
  841SOL    HW2 2523   0.824   2.570   0.885  0.1803  1.3819 -1.0644
  842SOL     OW 2524   0.424   0.677   0.836  0.3574  0.3620 -0.2052
  842SOL    HW1 2525   0.484   0.754   0.874  0.4035  0.2417  0.0359
  842SOL    HW2 2526   0.478   0.589   0.838  1.7887  1.8702 -1.7618
  843SOL     OW 2527   0.485   1.164   1.567 -0.3580  0.1545 -0.6319
  843SOL    HW1 2528   0.471   1.070   1.528  1.4372 -2.4337 -2.4047
  843SOL    HW2 2529   0.566   1.158   1.628 -0.4517  1.6848 -0.5370
  844SOL     OW 2530   2.146   2.609   2.664  0.6948 -0.1213 -0.4725
  844SOL    HW1 2531   2.200   2.695   2.675  1.4185  1.1026 -0.4176
  844SOL    HW2 2532   2.195   2.524   2.702 -0.8790 -0.8090  2.2732
  845SOL     OW 2533   2.177   3.003   1.441 -0.0016 -0.6521 -0.7614
  845SOL    HW1 2534   2.120   3.035   1.361  0.9470 -2.1133 -0.8190
  845SOL    HW2 2535   2.187   2.904   1.441 -1.8955  1.9978 -1.9734
  846SOL     OW 2536   1.959   0.906   2.542  0.1715  0.1060  0.2311
  846SOL    HW1 2537   2.030   0.980   2.514  0.3920  1.0035  1.3339
  846SOL    HW2 2538   1.961   0.883   2.639 -0.2268  0.5105  2.2273
  847SOL     OW 2539   2.174   2.778   1.987 -0.4634 -0.0736  0.2938
  847SOL    HW1 2540   2.122   2.713   2.049  1.2402 -1.1549  1.9859
  847SOL    HW2 2541   2.262   2.729   1.964  2.3588 -0.5789  0.1094
  848SOL     OW 2542   2.973   2.968   0.141  0.2223  0.1555  0.2556
  848SOL    HW1 2543   3.031   3.049   0.161  1.7441 -1.1070 -3.1868
  848SOL    HW2 2544   2.990   2.938   0.045 -0.2392 -0.2179 -1.9322
  849SOL     OW 2545   0.247   2.939   1.049 -0.5225 -0.0488  0.4057
  849SOL    HW1 2546   0.302   2.858   1.086  0.3557 -1.6112  0.0025
  849SOL    HW2 2547   0.303   3.025   1.049 -1.4129 -3.1425  0.8157
  850SOL     OW 2548   0.492   2.134   0.479 -0.1390  0.2206 -0.0017
  850SOL    HW1 2549   0.501   2.203   0.399 -0.0858  3.0963 -2.4878
  850SOL    HW2 2550   0.464   2.040   0.447 -1.0841 -1.0669 -1.2489
  851SOL     OW 2551   2.007   0.757   0.004 -0.0537 -0.3784 -0.0537
  851SOL    HW1 2552   2.098   0.753   0.050  0.5348  1.0787 -0.7322
  851SOL    HW2 2553   1.940   0.803   0.065  0.2738  1.3480  0.9715
  852SOL     OW 2554   1.844   2.265   2.657  0.1808  0.3215  0.0864
  852SOL    HW1 2555   1.794   2.193   2.602  0.0191 -2.8385 -2.0838
  852SOL    HW2 2556   1.778   2.335   2.683  1.9553  0.5498 -2.2113
  853SOL     OW 2557   0.343   1.920   0.317 -0.0328  0.3215  0.2851
  853SOL    HW1 2558   0.345   1.964   0.229 -0.6799 -0.4728  0.5499
  853SOL    HW2 2559   0.383   1.828   0.300 -2.4923  1.6981 -0.6414
  854SOL     OW 2560   1.792   0.829   2.075  0.0962 -0.3492 -0.1733
  854SOL    HW1 2561   1.749   0.739   2.097 -1.5314  4.3179 -1.1845
  854SOL    HW2 2562   1.872   0.837   2.139 -0.0414 -3.2206  1.9403
  855SOL     OW 2563   0.494   2.604   0.029 -0.6609 -0.0063 -0.5787
  855SOL    HW1 2564   0.591   2.614   0.013 -3.6121 -1.4409 -2.3150
  855SOL    HW2 2565   0.462   2.510   0.006 -1.2340 -0.0446 -0.2406
  856SOL     OW 2566   0.414   2.629   2.414  0.0834 -0.3402  0.1669
  856SOL    HW1 2567   0.422   2.532   2.383 -0.1242 -0.6299 -0.9178
  856SOL    HW2 2568   0.499   2.681   2.381  0.7239  2.5339 -0.1458
  857SOL     OW 2569   0.642   0.392   1.722 -0.7983  0.2069 -0.4223
  857SOL    HW1 2570   0.691   0.471   1.765 -0.0619 -0.0646 -0.4715
  857SOL    HW2 2571   0.564   0.420   1.663  0.3109  0.3521  1.2313
  858SOL     OW 2572   0.494   1.874   2.034 -0.4510  0.0795 -0.4715
  858SOL    HW1 2573   0.592   1.844   2.040  3.7960 -0.2544  0.6476
  858SOL    HW2 2574   0.489   1.948   1.969 -0.6698  0.9049  0.2647
  859SOL     OW 2575   2.109   2.494   1.636  0.1930  0.2185 -0.2319
  859SOL    HW1 2576   2.061   2.404   1.605 -1.7459 -2.4307 -1.3019
  859SOL    HW2 2577   2.145   2.548   1.561 -0.2698  0.6583 -0.6555
  860SOL     OW 2578   1.575   0.632   0.512  0.0155  0.8034  0.2841
  860SOL    HW1 2579   1.488   0.603   0.560 -1.9650 -0.1648  1.4010
  860SOL    HW2 2580   1.573   0.733   0.495 -0.4684  0.9334 -0.5127
  861SOL     OW 2581   3.043   0.551   0.871 -0.1681 -0.0525 -0.3428
  861SOL    HW1 2582   3.056   0.629   0.809  2.4531  2.0904  2.5859
  861SOL    HW2 2583   2.948   0.551   0.903  1.2433  3.2081 -1.9011
  862SOL     OW 2584   1.867   0.927   1.343 -0.1618 -0.3072 -0.0196
  862SOL    HW1 2585   1.856   0.828   1.363 -0.5061 -0.7826 -2.8780
  862SOL    HW2 2586   1.882   0.935   1.238  4.5384 -2.0119  0.0831
  863SOL     OW 2587   0.566   1.350   1.329 -0.1719  0.0664 -0.4817
  863SOL    HW1 2588   0.525   1.273   1.377 -0.9034 -1.0245 -0.9285
  863SOL    HW2 2589   0.658   1.327   1.293  1.6720  1.1071  2.2375
  864SOL     OW 2590   2.682   2.814   2.102  0.1126 -0.1962 -0.0785
  864SOL    HW1 2591   2.755   2.770   2.042 -0.1650 -3.2545 -0.4120
  864SOL    HW2 2592   2.679   2.913   2.075  1.3637 -1.5818  1.4483
  865SOL     OW 2593   1.105   0.477   2.149  0.5601  0.4618 -0.0291
  865SOL    HW1 2594   1.098   0.571   2.178  1.9409 -2.2534 -0.6165
  865SOL    HW2 2595   1.203   0.451   2.136 -1.8482  1.5459  2.2869
  866SOL     OW 2596   2.505   2.839   0.418 -0.1437  0.2166 -0.3176
  866SOL    HW1 2597   2.467   2.894   0.498 -1.7929  0.9293  2.0730
  866SOL    HW2 2598   2.594   2.873   0.387  0.0046  1.0240 -0.6378
  867SOL     OW 2599   2.860   2.885   0.708 -0.0107  0.0697  0.7029
  867SOL    HW1 2600   2.794   2.806   0.698 -0.8999 -0.9592 -3.1110
  867SOL    HW2 2601   2.958   2.862   0.690  0.5271 -0.7172 -0.3074
  868SOL     OW 2602   1.819   1.576   2.768  0.0980  0.4647 -0.0570
  868SOL    HW1 2603   1.864   1.660   2.739  0.0966 -1.0979 -2.0736
  868SOL    HW2 2604   1.713   1.578   2.770 -3.0979 -0.0696  0.3221
  869SOL     OW 2605   2.704   2.681   0.653  0.3947  0.2005  0.1214
  869SOL    HW1 2606   2.732   2.631   0.568 -0.1171  0.7268  1.7185
  869SOL    HW2 2607   2.609   2.689   0.671  3.7523  0.3649 -1.9976
  870SOL     OW 2608   2.791   2.169   0.553  0.1056  0.4153 -0.2585
  870SOL    HW1 2609   2.761   2.252   0.590  0.0142 -1.8705 -2.0029
  870SOL    HW2 2610   2.790   2.096   0.627 -0.3120 -0.0647  3.9100
  871SOL     OW 2611   0.376   1.332   1.144 -0.3277 -0.0056 -0.2680
  871SOL    HW1 2612   0.450   1.340   1.216 -1.7691  0.7523 -2.2937
  871SOL    HW2 2613   0.279   1.338   1.182 -3.4994 -1.0704 -0.6717
  872SOL     OW 2614   1.218   1.694   2.432 -0.0355 -0.3856  0.0404
  872SOL    HW1 2615   1.116   1.696   2.423  0.0742 -1.9006  0.9761
  872SOL    HW2 2616   1.256   1.700   2.335 -3.0191 -1.4302 -1.1159
  873SOL     OW 2617   0.579   2.841   1.905  0.1757  0.4294  0.0467
  873SOL    HW1 2618   0.668   2.863   1.953  1.8212 -0.9738 -0.6586
  873SOL    HW2 2619   0.544   2.926   1.869 -1.8351 -0.5972  0.5089
  874SOL     OW 2620   0.911   0.314   1.571  0.4635 -0.7156  0.1354
  874SOL    HW1 2621   0.847   0.369   1.622  3.3796 -0.6939 -1.3522
  874SOL    HW2 2622   0.893   0.216   1.572  0.7715  1.6526  2.1756
  875SOL     OW 2623   2.936   0.230   1.037 -0.1111 -0.1116 -0.1266
  875SOL    HW1 2624   2.960   0.309   1.097  0.6843 -1.7191  1.6562
  875SOL    HW2 2625   2.835   0.217   1.038  0.0347  0.8097 -0.3524
  876SOL     OW 2626   0.489   1.327   0.300 -0.3998 -0.2869  0.3587
  876SOL    HW1 2627   0.416   1.282   0.247  2.3096  0.3511  1.1112
  876SOL    HW2 2628   0.566   1.350   0.233  1.7808  0.7335 -2.9058
  877SOL     OW 2629   1.062   1.030   1.614 -0.0535  0.4111 -0.4318
  877SOL    HW1 2630   1.077   0.939   1.564 -0.2993 -0.4858  0.9861
  877SOL    HW2 2631   0.966   1.026   1.646  2.3746 -1.6155 -0.3985
  878SOL     OW 2632   2.328   2.322   0.416  0.5683  0.3959  0.3405
  878SOL    HW1 2633   2.314   2.254   0.341 -3.4081  1.5792 -1.2530
  878SOL    HW2 2634   2.384   2.284   0.491  1.1327 -3.7139  0.7714
  879SOL     OW 2635   2.636   1.809   1.741 -0.7648 -0.2552 -0.2218
  879SOL    HW1 2636   2.727   1.842   1.769 -1.2657  0.7592 -0.4246
  879SOL    HW2 2637   2.576   1.883   1.714  1.0359 -2.3726  0.2709
  880SOL     OW 2638   1.541   2.374   0.697 -0.2264 -0.0123 -0.5018
  880SOL    HW1 2639   1.562   2.361   0.796 -0.0236  3.3745 -0.4237
  880SOL    HW2 2640   1.463   2.312   0.676 -0.1545 -0.2451 -2.7032
  881SOL     OW 2641   0.515   2.314   0.281  0.2435  0.1003  0.9178
  881SOL    HW1 2642   0.608   2.323   0.235 -1.5136 -0.0197  0.9099
  881SOL    HW2 2643   0.487   2.405   0.310 -1.5574 -0.6518  1.2995
  882SOL     OW 2644   2.058   0.795   0.634 -0.4664  0.6534 -0.2097
  882SOL    HW1 2645   2.105   0.884   0.650 -2.1701  0.1011  0.7161
  882SOL    HW2 2646   2.125   0.717   0.654  0.9756  2.1953 -0.1507
  883SOL     OW 2647   1.277   1.042   1.034  0.2245  0.3104  0.8671
  883SOL    HW1 2648   1.202   0.982   1.001  0.0517  2.0899  1.0670
  883SOL    HW2 2649   1.358   1.039   0.965  2.3445 -1.6173 -1.0563
  884SOL     OW 2650   2.705   3.031   0.181  0.6948  0.5116  0.1742
  884SOL    HW1 2651   2.803   3.016   0.161 -1.8758 -0.0918  0.8114
  884SOL    HW2 2652   2.686   3.054   0.275 -2.4211 -2.6964 -0.9648
  885SOL     OW 2653   1.083   1.347   2.720  0.1789 -0.2403  0.2920
  885SOL    HW1 2654   1.094   1.304   2.810 -3.0547 -1.6428 -1.4666
  885SOL    HW2 2655   1.164   1.405   2.701 -1.6240  2.1072  0.4347
  886SOL     OW 2656   1.378   1.916   2.558 -0.0223 -0.1592 -0.2716
  886SOL    HW1 2657   1.307   1.848   2.531  0.6447 -2.0615  0.0430
  886SOL    HW2 2658   1.354   2.008   2.522  0.8442 -1.5601  0.6924
  887SOL     OW 2659   1.319   0.233   1.231 -0.1081 -0.2302  0.3114
  887SOL    HW1 2660   1.290   0.280   1.144 -3.0645  0.2957  1.6085
  887SOL    HW2 2661   1.279   0.282   1.314 -1.1459  1.5704  1.6186
  888SOL     OW 2662   2.335   0.516   1.703  0.2465  0.6449  0.0829
  888SOL    HW1 2663   2.359   0.515   1.803  0.8432 -2.4653 -3.3556
  888SOL    HW2 2664   2.245   0.471   1.681 -1.0517 -2.7336 -0.1988
  889SOL     OW 2665   0.257   2.625   0.542  0.1301 -0.4260 -0.4353
  889SOL    HW1 2666   0.298   2.671   0.624  0.9010  0.9702 -3.0198
  889SOL    HW2 2667   0.184   2.560   0.565  0.7616  1.5296 -1.1388
  890SOL     OW 2668   1.808   1.954   0.688 -0.3501 -0.0126  0.7229
  890SOL    HW1 2669   1.859   2.039   0.667 -0.2649  1.3366 -0.6253
  890SOL    HW2 2670   1.721   1.952   0.636 -1.8173  1.0816 -0.2079
  891SOL     OW 2671   0.051   0.823   2.824  0.1864 -0.4181  0.0594
  891SOL    HW1 2672   0.149   0.846   2.841  0.5171 -1.3729  2.1662
  891SOL    HW2 2673   3.089   0.874   2.892 -2.0782 -0.3329  0.6374
  892SOL     OW 2674   2.728   2.494   1.161 -0.3267  0.8757  0.6911
  892SOL    HW1 2675   2.671   2.434   1.107 -0.4911 -1.1519 -1.3838
  892SOL    HW2 2676   2.670   2.575   1.181  0.4240 -0.1800 -0.3111
  893SOL     OW 2677   1.244   0.404   0.976 -0.0589 -0.0951 -0.0444
  893SOL    HW1 2678   1.306   0.337   0.933  0.9148  1.1429 -0.9576
  893SOL    HW2 2679   1.291   0.475   1.029  0.2302  1.5700 -3.1177
  894SOL     OW 2680   2.760   0.563   0.930 -0.2154 -0.1742 -0.5936
  894SOL    HW1 2681   2.708   0.629   0.873  0.6192  1.0011 -2.8042
  894SOL    HW2 2682   2.823   0.601   1.003  3.7666  0.0892  0.0350
  895SOL     OW 2683   1.686   1.384   2.360  0.0058 -0.3924 -0.2616
  895SOL    HW1 2684   1.679   1.479   2.403  0.0252 -0.3684 -0.3396
  895SOL    HW2 2685   1.605   1.366   2.301  2.2611  2.9652 -1.9496
  896SOL     OW 2686   1.546   0.507   1.392  0.1793 -0.4123  0.1099
  896SOL    HW1 2687   1.495   0.546   1.476 -2.4742  3.1942  4.9886
  896SOL    HW2 2688   1.564   0.410   1.394 -2.1595 -0.5311 -0.4830
  897SOL     OW 2689   0.513   1.630   1.661  0.6877 -0.0413 -0.2611
  897SOL    HW1 2690   0.586   1.697   1.653 -0.6386 -1.4279  0.4555
  897SOL    HW2 2691   0.480   1.605   1.567  2.3776  0.3692  1.2299
  898SOL     OW 2692   2.039   2.613   2.158 -0.2594 -0.0342  0.0370
  898SOL    HW1 2693   2.046   2.542   2.091 -3.3453  3.1126  0.9071
  898SOL    HW2 2694   2.091   2.592   2.245  1.2636  0.7812  0.5290
  899SOL     OW 2695   1.235   1.687   1.087 -0.0956  0.4098 -0.6486
  899SOL    HW1 2696   1.196   1.598   1.059 -1.1242 -0.1256  1.4121
  899SOL    HW2 2697   1.184   1.730   1.165 -1.5908  0.4088  1.9318
  900SOL     OW 2698   1.360   2.201   2.553  0.1882  0.5664  0.0603
  900SOL    HW1 2699   1.282   2.205   2.626 -1.7704 -1.1023 -1.5728
  900SOL    HW2 2700   1.322   2.224   2.459  1.3787 -0.7850  0.2159
  901SOL     OW 2701   0.943   1.708   2.405 -0.1056  0.8480  0.3624
  901SOL    HW1 2702   0.949   1.654   2.316 -1.8180  0.7678 -0.5800
  901SOL    HW2 2703   0.896   1.796   2.391  0.4663 -3.0861  1.7911
  902SOL     OW 2704   2.438   1.705   0.347 -0.2731 -0.5948 -0.0987
  902SOL    HW1 2705   2.442   1.619   0.290 -0.6111 -3.3459 -1.1255
  902SOL    HW2 2706   2.458   1.685   0.445 -2.4115  2.0756  3.2820
  903SOL     OW 2707   2.218   1.713   0.163  0.0467 -0.4490  0.1277
  903SOL    HW1 2708   2.300   1.727   0.217 -0.2265  0.3999 -2.9681
  903SOL    HW2 2709   2.135   1.769   0.182 -0.4467 -1.8048 -1.7146
  904SOL     OW 2710   1.198   0.749   2.193 -0.2405  0.3629 -0.1254
  904SOL    HW1 2711   1.209   0.821   2.124 -0.4700 -0.8211 -2.2225
  904SOL    HW2 2712   1.214   0.784   2.290  1.9743  1.6909 -1.9987
  905SOL     OW 2713   2.938   0.219   0.774  0.1879  0.0162  0.6759
  905SOL    HW1 2714   2.896   0.300   0.730  0.3636 -2.2875  2.0185
  905SOL    HW2 2715   2.938   0.226   0.874  1.9011  3.2001 -3.4611
  906SOL     OW 2716   2.897   1.902   0.435  0.4882  0.3567 -0.3122
  906SOL    HW1 2717   2.996   1.912   0.415 -1.2823 -0.2188  2.7346
  906SOL    HW2 2718   2.874   1.929   0.533 -1.0961  0.5318  2.1385
  907SOL     OW 2719   1.310   0.356   0.245  0.1118 -0.3623 -0.0252
  907SOL    HW1 2720   1.393   0.412   0.253  1.1775  0.6216  1.5422
  907SOL    HW2 2721   1.303   0.315   0.152  0.5946 -0.6874  1.6614
  908SOL     OW 2722   1.927   2.737   1.482  1.2672 -0.4826 -0.5715
  908SOL    HW1 2723   2.029   2.742   1.480 -1.6474  0.3474  0.5767
  908SOL    HW2 2724   1.888   2.754   1.580 -2.7490 -0.1677  2.8499
  909SOL     OW 2725   2.507   0.629   1.309 -0.3622 -0.0743  0.2876
  909SOL    HW1 2726   2.554   0.607   1.398 -1.0628  1.3784  1.1361
  909SOL    HW2 2727   2.408   0.645   1.323  3.0476 -2.2519  0.3300
  910SOL     OW 2728   1.303   2.932   2.468  0.0551  0.0367 -0.1756
  910SOL    HW1 2729   1.353   2.844   2.464 -1.2555  2.3298 -1.7904
  910SOL    HW2 2730   1.239   2.934   2.388 -0.0498  0.9793 -1.7564
  911SOL     OW 2731   2.167   1.151   2.179  0.1802  0.1254 -0.3202
  911SOL    HW1 2732   2.191   1.165   2.276  2.0684 -0.0828  0.0075
  911SOL    HW2 2733   2.079   1.192   2.158  0.9111 -0.4683  0.6468
  912SOL     OW 2734   2.502   2.297   1.559 -0.2528 -0.5403 -0.6547
  912SOL    HW1 2735   2.576   2.273   1.494 -2.9727 -0.2161  1.3843
  912SOL    HW2 2736   2.412   2.318   1.513 -5.1335  1.8321 -2.0153
  913SOL     OW 2737   2.543   2.679   1.198 -0.4322 -0.2330 -0.5256
  913SOL    HW1 2738   2.528   2.719   1.289  0.9579 -0.3189  1.4443
  913SOL    HW2 2739   2.594   2.744   1.137  0.8007  0.8516  0.9918
  914SOL     OW 2740   2.439   1.890   1.302 -0.9159  0.8662  0.5429
  914SOL    HW1 2741   2.396   1.814   1.244 -1.2099 -0.7416  3.3057
  914SOL    HW2 2742   2.381   1.901   1.387 -1.3855  0.7460 -3.0963
  915SOL     OW 2743   1.181   2.118   1.265 -0.0619  0.1684 -0.0394
  915SOL    HW1 2744   1.080   2.134   1.282  1.1432  0.9238  2.9750
  915SOL    HW2 2745   1.227   2.087   1.351 -1.4911  1.5306 -2.0495
  916SOL     OW 2746   2.968   2.810   1.122 -0.2828  0.3278 -0.3051
  916SOL    HW1 2747   3.004   2.901   1.093 -0.9042 -2.8753  1.4402
  916SOL    HW2 2748   2.862   2.811   1.118  0.5810  2.4245  1.2106
  917SOL     OW 2749   2.496   1.230   2.571 -0.0336 -0.4723  0.2248
  917SOL    HW1 2750   2.512   1.145   2.622 -2.2258 -2.6680 -0.2422
  917SOL    HW2 2751   2.413   1.225   2.506 -0.9816  0.3222  0.7347
  918SOL     OW 2752   1.744   2.052   2.445  0.6119 -0.8735  0.1469
  918SOL    HW1 2753   1.670   1.989   2.415 -1.8937 -0.3987 -2.7657
  918SOL    HW2 2754   1.835   2.007   2.456  0.0593 -1.2664  1.2731
  919SOL     OW 2755   1.723   1.953   1.669  0.3553 -0.4295 -0.1015
  919SOL    HW1 2756   1.674   1.894   1.739  0.3265 -3.4829  1.7855
  919SOL    HW2 2757   1.797   1.895   1.628  0.8278  1.6630  1.0745
  920SOL     OW 2758   0.358   0.051   2.885 -0.2055 -0.0572  0.5406
  920SOL    HW1 2759   0.436   3.090   2.851 -0.4877 -0.6538 -0.3689
  920SOL    HW2 2760   0.372   0.055   2.986  0.4912 -1.7573  0.1599
  921SOL     OW 2761   2.633   0.180   2.576  0.3568  0.2642 -0.1247
  921SOL    HW1 2762   2.718   0.134   2.597  0.5334  1.9233  2.0567
  921SOL    HW2 2763   2.633   0.214   2.480  1.5097 -0.2726 -2.0046
  922SOL     OW 2764   2.341   1.644   1.616  0.2699 -0.4736  0.1741
  922SOL    HW1 2765   2.355   1.678   1.711  0.6095  1.0723 -0.9535
  922SOL    HW2 2766   2.247   1.662   1.582 -0.5671  1.1994  0.9539
  923SOL     OW 2767   0.805   1.953   0.302 -0.0409 -0.5138 -0.1277
  923SOL    HW1 2768   0.836   2.054   0.303  2.2703  0.7746  0.5407
  923SOL    HW2 2769   0.888   1.894   0.285  0.1570  0.0203  1.2447
  924SOL     OW 2770   1.408   0.562   2.974  0.4326  0.5518 -0.4830
  924SOL    HW1 2771   1.397   0.637   3.037  1.9848 -0.1490 -2.3750
  924SOL    HW2 2772   1.509   0.549   2.952 -0.2144  1.0756 -0.1092
  925SOL     OW 2773   2.871   1.065   0.531  0.0618  0.1181 -0.2413
  925SOL    HW1 2774   2.931   1.116   0.466 -1.5047 -0.3661  2.1057
  925SOL    HW2 2775   2.773   1.090   0.516  2.7973 -0.7162 -2.9546
  926SOL     OW 2776   0.020   0.771   0.725 -0.2065 -0.8418  0.1389
  926SOL    HW1 2777   0.116   0.792   0.688 -0.1468  0.2924 -0.1329
  926SOL    HW2 2778   3.040   0.835   0.694 -0.6517  0.4674 -3.2071
  927SOL     OW 2779   0.524   1.426   0.567  0.0991 -0.2653 -0.3527
  927SOL    HW1 2780   0.501   1.411   0.467  1.5026 -1.3694  1.9014
  927SOL    HW2 2781   0.623   1.460   0.568  1.2096 -2.5781 -1.0384
  928SOL     OW 2782   0.108   3.067   2.497 -0.5226 -0.0411 -0.4599
  928SOL    HW1 2783   0.124   3.054   2.596 -0.5058 -0.2635  0.5801
  928SOL    HW2 2784   0.165   0.050   2.469 -1.4456  0.5533 -0.5795
  929SOL     OW 2785   2.676   0.277   1.292  0.5378 -0.1304 -0.4367
  929SOL    HW1 2786   2.645   0.266   1.198  0.2956  1.1720  2.2651
  929SOL    HW2 2787   2.640   0.366   1.333 -2.0058 -1.9636  0.4019
  930SOL     OW 2788   1.980   2.230   1.593 -0.9084 -1.0387 -0.2682
  930SOL    HW1 2789   1.887   2.222   1.632  1.9038  0.8456 -3.0965
  930SOL    HW2 2790   2.036   2.145   1.608 -2.4037 -0.7638 -1.8967
  931SOL     OW 2791   1.702   0.907   0.990  0.3115  0.3234  0.6211
  931SOL    HW1 2792   1.652   0.930   1.078  0.0486  1.0904  3.1809
  931SOL    HW2 2793   1.802   0.907   1.012  0.3804 -1.8710 -0.8601
  932SOL     OW 2794   2.772   1.002   1.057 -0.1670 -0.4242  0.3704
  932SOL    HW1 2795   2.702   0.935   1.090  1.0295 -0.9959 -0.5480
  932SOL    HW2 2796   2.857   0.953   1.027  0.1359  0.3860 -0.5842
  933SOL     OW 2797   2.443   1.699   1.890 -0.6036  0.2060 -0.4102
  933SOL    HW1 2798   2.521   1.722   1.829  0.6868  0.5804  0.8519
  933SOL    HW2 2799   2.452   1.602   1.932  0.1147 -2.6887 -1.6586
  934SOL     OW 2800   1.600   0.032   1.007  0.4200  0.5549  0.3101
  934SOL    HW1 2801   1.526   0.028   0.932 -0.6186 -0.1368  0.1096
  934SOL    HW2 2802   1.693   0.043   0.962  2.4817  1.7383  1.8873
  935SOL     OW 2803   2.814   1.294   1.131 -0.3315 -0.1228  0.2819
  935SOL    HW1 2804   2.794   1.195   1.113 -1.8283 -0.6574 -1.4071
  935SOL    HW2 2805   2.880   1.327   1.058 -1.2349 -0.8657  0.2868
  936SOL     OW 2806   3.008   1.379   0.965 -0.3040  0.6016 -0.0472
  936SOL    HW1 2807   3.053   1.476   0.959 -1.4629  4.0272 -0.4633
  936SOL    HW2 2808   3.012   1.330   0.879 -2.0669  1.0813  1.6149
  937SOL     OW 2809   1.520   2.705   0.769  0.1743  0.6852 -0.4608
  937SOL    HW1 2810   1.491   2.756   0.687  0.0653 -0.6660  2.9379
  937SOL    HW2 2811   1.497   2.606   0.756 -1.1980  0.9988 -2.2495
  938SOL     OW 2812   3.031   2.521   0.767  0.1653 -0.3384  0.4547
  938SOL    HW1 2813   2.930   2.512   0.764  0.7665  0.7316  0.8588
  938SOL    HW2 2814   3.052   2.602   0.831  0.4482  2.4680  1.7112
  939SOL     OW 2815   0.817   2.004   2.924 -0.3456  0.2213  0.5191
  939SOL    HW1 2816   0.797   1.978   3.018  4.1510  0.0233 -0.9792
  939SOL    HW2 2817   0.812   2.104   2.915 -0.2465 -3.8776  1.4080
  940SOL     OW 2818   2.785   2.631   2.663 -0.0871  0.3515  0.1385
  940SOL    HW1 2819   2.776   2.609   2.566 -0.1359 -2.9976  0.9995
  940SOL    HW2 2820   2.701   2.660   2.703  1.4114  0.0883 -0.8040
  941SOL     OW 2821   1.578   2.702   2.981 -1.0165 -0.3880 -0.2230
  941SOL    HW1 2822   1.597   2.801   3.005  0.3098  2.2711 -0.4916
  941SOL    HW2 2823   1.507   2.653   3.040  0.0060 -0.1727 -0.2850
  942SOL     OW 2824   1.842   1.790   1.480  0.1747 -0.4526  0.3734
  942SOL    HW1 2825   1.772   1.740   1.534 -1.6389  3.7924  0.2109
  942SOL    HW2 2826   1.811   1.800   1.386  2.4345  0.3773 -0.5635
  943SOL     OW 2827   2.278   1.323   1.455  0.2588 -0.4421  0.5256
  943SOL    HW1 2828   2.376   1.296   1.445 -0.3721 -0.2756 -0.0602
  943SOL    HW2 2829   2.241   1.294   1.542 -0.3690  2.4928  0.1634
  944SOL     OW 2830   2.044   0.971   1.760  0.1256  0.1785 -0.0042
  944SOL    HW1 2831   2.076   0.996   1.667  0.1666 -0.8147 -0.1739
  944SOL    HW2 2832   2.022   0.874   1.771 -3.0097 -0.7388  2.6898
  945SOL     OW 2833   0.038   0.133   1.264  0.4860  0.3842  0.1151
  945SOL    HW1 2834   3.089   0.224   1.245 -1.5643  1.2937  1.4900
  945SOL    HW2 2835   0.004   0.057   1.207 -1.1729  1.0092 -1.8348
  946SOL     OW 2836   0.356   0.838   2.026  0.4254  0.3350 -0.5295
  946SOL    HW1 2837   0.416   0.911   1.988  0.9173  2.5312  0.1367
  946SOL    HW2 2838   0.364   0.827   2.129  1.4819  1.1188 -1.3231
  947SOL     OW 2839   0.444   2.671   0.767 -0.2682 -0.1724 -0.3282
  947SOL    HW1 2840   0.521   2.671   0.699  0.0149  1.3136 -0.8495
  947SOL    HW2 2841   0.431   2.574   0.796  3.4877  2.3454 -0.1359
  948SOL     OW 2842   2.914   1.116   1.966 -0.6255  0.2212 -0.3338
  948SOL    HW1 2843   2.970   1.149   1.892 -0.5923  2.7120 -0.0465
  948SOL    HW2 2844   2.909   1.015   1.960  1.4747  0.4611 -0.5868
  949SOL     OW 2845   0.001   0.667   2.365 -0.2006 -0.5104 -0.1579
  949SOL    HW1 2846   0.066   0.629   2.434 -0.1842  0.5102 -3.1022
  949SOL    HW2 2847   0.018   0.619   2.274 -0.6500  1.5022 -1.0915
  950SOL     OW 2848   0.680   0.644   1.135 -0.2350 -0.1861  0.1262
  950SOL    HW1 2849   0.633   0.712   1.076 -0.4786  1.0666  0.1522
  950SOL    HW2 2850   0.709   0.563   1.079 -1.1837 -0.8113 -2.5181
  951SOL     OW 2851   1.145   1.851   1.923  0.0263  0.3844 -0.4171
  951SOL    HW1 2852   1.166   1.876   2.016  0.2091 -3.4654 -2.6581
  951SOL    HW2 2853   1.086   1.761   1.922 -0.8720  0.9154  1.6561
  952SOL     OW 2854   0.851   1.537   2.874  0.1459 -1.0768  0.7648
  952SOL    HW1 2855   0.918   1.571   2.942  0.2150  1.8993 -1.7730
  952SOL    HW2 2856   0.901   1.495   2.791  1.9927 -0.9828 -0.2742
  953SOL     OW 2857   1.539   2.986   2.201  0.2282  0.0089 -0.0665
  953SOL    HW1 2858   1.472   2.913   2.182  1.7402  2.1370 -1.1833
  953SOL    HW2 2859   1.558   3.008   2.299  0.9088 -1.6272 -1.4535
  954SOL     OW 2860   2.113   1.272   0.389 -0.0109 -0.1674  0.1540
  954SOL    HW1 2861   2.072   1.368   0.386  2.5402 -0.4260 -0.8660
  954SOL    HW2 2862   2.178   1.257   0.312  0.2132 -0.7418 -0.9061
  955SOL     OW 2863   0.312   2.029   2.206  0.0255  0.2780 -0.0601
  955SOL    HW1 2864   0.329   2.008   2.306 -1.3705 -1.5147 -0.4433
  955SOL    HW2 2865   0.344   1.953   2.143  2.2179  1.7065 -0.6414
  956SOL     OW 2866   1.060   1.017   1.305 -0.0082 -0.1540  0.3349
  956SOL    HW1 2867   1.057   0.922   1.340  0.6248  1.1500  1.2864
  956SOL    HW2 2868   1.157   1.044   1.292 -0.1248  0.8311 -0.7022
  957SOL     OW 2869   1.971   1.281   2.381  0.2988  0.1104  0.2905
  957SOL    HW1 2870   1.967   1.382   2.365  0.9392  0.4085  0.2730
  957SOL    HW2 2871   1.954   1.261   2.480 -0.0756 -1.1256  1.0980
  958SOL     OW 2872   1.578   2.361   0.964 -0.3837  0.6092 -0.3269
  958SOL    HW1 2873   1.543   2.444   1.010  4.0563  2.7963 -1.4633
  958SOL    HW2 2874   1.678   2.347   0.974  0.4441 -0.4591 -0.8480
  959SOL     OW 2875   1.981   1.910   2.508 -0.5103  0.5039 -0.8486
  959SOL    HW1 2876   2.062   1.848   2.495 -2.0687  1.2300  2.0085
  959SOL    HW2 2877   1.938   1.894   2.598  1.0948  0.4149 -0.5936
  960SOL     OW 2878   0.301   0.605   0.057  0.1348  0.4865 -0.1068
  960SOL    HW1 2879   0.346   0.661   0.124 -1.3011 -2.3848 -3.3386
  960SOL    HW2 2880   0.369   0.532   0.025  0.5616  2.4129 -1.5893
  961SOL     OW 2881   0.397   0.369   2.112 -0.5678  0.1397 -0.4579
  961SOL    HW1 2882   0.315   0.314   2.137  1.6335 -3.2472  0.0842
  961SOL    HW2 2883   0.477   0.313   2.088 -2.7140 -0.1155 -1.5416
  962SOL     OW 2884   1.171   1.384   0.118 -0.4613  0.0383  0.7363
  962SOL    HW1 2885   1.267   1.377   0.146 -1.5203  2.9023  0.4280
  962SOL    HW2 2886   1.108   1.386   0.200  1.9516 -2.1833  1.6874
  963SOL     OW 2887   1.722   2.019   2.906  0.8831  0.1192 -0.0708
  963SOL    HW1 2888   1.773   2.104   2.917  0.8686 -2.5133 -0.0925
  963SOL    HW2 2889   1.689   1.979   2.993  0.2689 -0.0017 -2.7354
  964SOL     OW 2890   1.152   2.932   0.738 -0.6539 -0.0617 -0.2810
  964SOL    HW1 2891   1.168   3.002   0.667  1.9667  2.0483 -0.5069
  964SOL    HW2 2892   1.234   2.888   0.783  1.4688 -2.3767  0.7208
  965SOL     OW 2893   0.834   2.876   1.063  0.2904 -0.5578 -0.6971
  965SOL    HW1 2894   0.865   2.792   1.013  1.0226 -1.1497 -2.3687
  965SOL    HW2 2895   0.743   2.905   1.026 -0.6905  0.6247 -0.3186
  966SOL     OW 2896   2.847   1.302   2.957  0.0248 -0.0919 -0.1458
  966SOL    HW1 2897   2.909   1.263   2.880  2.2406  1.4156 -1.5811
  966SOL    HW2 2898   2.750   1.331   2.932 -1.2959  3.1557 -0.6925
  967SOL     OW 2899   1.537   2.861   1.751 -0.9273  0.4842 -0.2474
  967SOL    HW1 2900   1.485   2.772   1.768  0.0312 -0.7641  0.4215
  967SOL    HW2 2901   1.476   2.942   1.734 -0.6607 -0.3829  0.8985
  968SOL     OW 2902   1.748   0.985   0.689 -0.2734  0.2815  0.0602
  968SOL    HW1 2903   1.679   0.949   0.623  2.1155  0.8520  0.8677
  968SOL    HW2 2904   1.739   0.936   0.777  4.1369  2.5915  0.2614
  969SOL     OW 2905   0.262   1.678   2.067  0.2695 -0.2422  0.2967
  969SOL    HW1 2906   0.183   1.706   2.004 -2.8700 -1.1122 -1.7210
  969SOL    HW2 2907   0.330   1.750   2.055  4.4123  0.9035 -1.8578
  970SOL     OW 2908   2.823   1.523   1.557  0.3085 -0.4449 -0.0401
  970SOL    HW1 2909   2.856   1.454   1.492  1.4342  1.4341  0.8661
  970SOL    HW2 2910   2.722   1.512   1.552  0.8981 -2.9497  1.2791
  971SOL     OW 2911   1.216   0.354   1.493 -0.2181 -0.2310 -0.3534
  971SOL    HW1 2912   1.125   0.351   1.532  1.4744  0.5787 -0.5939
  971SOL    HW2 2913   1.272   0.432   1.530 -0.9630  1.0479 -0.0465
  972SOL     OW 2914   0.918   0.227   2.606 -0.3157  0.0457 -0.5044
  972SOL    HW1 2915   0.978   0.170   2.665 -0.2576 -0.0695  0.3358
  972SOL    HW2 2916   0.973   0.286   2.543  1.1277  0.7110  1.8969
  973SOL     OW 2917   2.671   1.369   0.766  0.0552  0.5812  0.7346
  973SOL    HW1 2918   2.682   1.403   0.670 -1.4680  1.0969 -1.0742
  973SOL    HW2 2919   2.719   1.278   0.782 -2.8121  1.4496  0.5875
  974SOL     OW 2920   1.951   1.166   1.911  0.5339  0.3513  0.3829
  974SOL    HW1 2921   1.882   1.154   1.985 -1.4621  1.1587 -0.3473
  974SOL    HW2 2922   1.967   1.080   1.860 -0.1834  0.4330  0.2572
  975SOL     OW 2923   0.058   3.087   0.467 -0.0825  0.6022 -0.4567
  975SOL    HW1 2924   0.056   0.001   0.568 -0.1413  0.3672 -1.1198
  975SOL    HW2 2925   3.089   0.066   0.434 -0.1914 -1.5380  0.3803
  976SOL     OW 2926   3.071   1.577   1.675  0.1761  0.7843  0.4375
  976SOL    HW1 2927   0.030   1.572   1.586  3.0689  2.9118 -1.0030
  976SOL    HW2 2928   2.975   1.565   1.657  1.3521  0.0854 -0.8402
  977SOL     OW 2929   0.816   2.872   0.056  1.1350 -0.0661  0.5270
  977SOL    HW1 2930   0.764   2.953   0.088 -0.5060 -1.4551  0.2359
  977SOL    HW2 2931   0.833   2.880   3.044  2.9681  2.9064 -2.5663
  978SOL     OW 2932   0.697   1.896   0.053  0.3394 -0.9619 -0.2967
  978SOL    HW1 2933   0.673   1.802   0.075  1.7449  0.4615 -0.2239
  978SOL    HW2 2934   0.733   1.945   0.134 -3.3457  1.0726 -0.1802
  979SOL     OW 2935   1.321   2.268   1.103  0.6677  0.6575  0.2672
  979SOL    HW1 2936   1.405   2.233   1.065 -1.9208  1.4876  0.7037
  979SOL    HW2 2937   1.266   2.196   1.154 -1.4352 -0.4401  0.9668
  980SOL     OW 2938   0.432   1.124   2.330 -0.2047  0.4046  0.5265
  980SOL    HW1 2939   0.433   1.022   2.315 -0.3810 -0.4723  1.6016
  980SOL    HW2 2940   0.355   1.165   2.278 -0.5927 -1.2293  3.1102
  981SOL     OW 2941   2.990   1.159   0.038 -0.3427  0.0788 -0.7320
  981SOL    HW1 2942   3.077   1.207   0.015  1.8667 -0.1321  1.3592
  981SOL    HW2 2943   2.916   1.179   3.066  0.5931  0.7079 -1.6923
  982SOL     OW 2944   2.489   2.942   2.931  0.6427  0.2310  0.1156
  982SOL    HW1 2945   2.559   2.895   2.986 -0.0436 -0.5767  1.1177
  982SOL    HW2 2946   2.394   2.918   2.954  1.0178  2.3492  0.4664
  983SOL     OW 2947   2.107   0.571   1.272 -0.4593  0.0470 -0.2645
  983SOL    HW1 2948   2.163   0.599   1.351  1.0149 -0.6243  1.1240
  983SOL    HW2 2949   2.080   0.474   1.280  1.4386 -0.8982  1.2784
  984SOL     OW 2950   0.967   0.008   2.205  0.5399 -0.2188  0.4647
  984SOL    HW1 2951   0.973   0.110   2.199 -0.5632  0.0307  0.7190
  984SOL    HW2 2952   1.055   3.060   2.216 -2.8655 -1.7054 -2.8190
  985SOL     OW 2953   1.534   1.975   2.095  0.0728 -0.2319  0.2102
  985SOL    HW1 2954   1.553   1.909   2.016  0.8803  0.4070  1.0174
  985SOL    HW2 2955   1.624   2.000   2.137 -1.4668  0.4936 -1.4003
  986SOL     OW 2956   2.010   0.276   2.025  0.0814  0.1910 -0.0878
  986SOL    HW1 2957   2.007   0.216   2.112  0.2373 -3.2490 -0.2323
  986SOL    HW2 2958   2.087   0.249   1.966  0.5263  0.8698  0.5192
  987SOL     OW 2959   2.321   0.294   2.210  0.3734  0.4713  0.0402
  987SOL    HW1 2960   2.296   0.202   2.247  0.6796  0.0160 -0.2248
  987SOL    HW2 2961   2.378   0.290   2.126  0.4229 -1.1762 -0.2829
  988SOL     OW 2962   2.594   0.327   2.319 -0.3969 -0.0120  0.3306
  988SOL    HW1 2963   2.618   0.415   2.361  0.8012  1.4733 -2.1353
  988SOL    HW2 2964   2.493   0.318   2.296 -2.2721  0.1319  1.9768
  989SOL     OW 2965   2.412   2.508   2.786 -0.1894 -0.8105  0.3879
  989SOL    HW1 2966   2.467   2.497   2.868 -3.3507 -4.6571  1.5756
  989SOL    HW2 2967   2.449   2.445   2.714  3.5957  4.1401  2.2499
  990SOL     OW 2968   0.254   0.935   0.159  0.6906  0.0834 -0.0402
  990SOL    HW1 2969   0.189   0.914   0.234 -1.1744  0.5245 -0.9811
  990SOL    HW2 2970   0.209   0.934   0.070 -0.1865 -0.9638  2.0963
  991SOL     OW 2971   0.436   0.697   2.860  0.4350  0.0663 -0.4608
  991SOL    HW1 2972   0.462   0.599   2.851  2.0213  2.9527  0.2908
  991SOL    HW2 2973   0.451   0.728   2.957 -0.5763  1.6856  2.9287
  992SOL     OW 2974   0.089   1.602   2.256  0.2328 -0.2287 -0.1452
  992SOL    HW1 2975   0.162   1.628   2.192 -1.1798 -1.3891  1.2739
  992SOL    HW2 2976   0.080   1.499   2.268 -2.3887 -1.8106 -4.0397
  993SOL     OW 2977   0.748   0.118   0.753 -0.4795  0.2652 -0.1866
  993SOL    HW1 2978   0.663   0.175   0.754 -1.4434  0.2499 -0.5334
  993SOL    HW2 2979   0.818   0.165   0.809  0.3118  0.3874 -0.8169
  994SOL     OW 2980   0.391   2.089   1.854  0.1346  0.3325  0.2374
  994SOL    HW1 2981   0.304   2.146   1.842 -2.2996  0.0729  0.5850
  994SOL    HW2 2982   0.398   2.036   1.767  0.5174 -1.1529  0.1916
  995SOL     OW 2983   2.482   1.797   2.964  0.1580 -0.6155  0.5796
  995SOL    HW1 2984   2.514   1.874   2.901 -0.1599  0.2093  0.8984
  995SOL    HW2 2985   2.401   1.834   3.010  0.4670  2.2309 -0.6688
  996SOL     OW 2986   1.985   1.551   2.437 -0.0933  0.0265  0.2556
  996SOL    HW1 2987   2.054   1.597   2.498 -0.5553  1.4069  3.3672
  996SOL    HW2 2988   1.890   1.565   2.461  0.4992 -0.1185 -1.8974
  997SOL     OW 2989   1.763   1.318   1.735 -0.0631  0.1060 -0.6066
  997SOL    HW1 2990   1.843   1.292   1.800  0.4720 -2.0097  1.6755
  997SOL    HW2 2991   1.769   1.266   1.649  0.2978  2.6137  2.4772
  998SOL     OW 2992   2.416   2.066   0.885 -0.2016  0.2987  0.0183
  998SOL    HW1 2993   2.417   2.078   0.988  0.0896 -2.2013 -0.5265
  998SOL    HW2 2994   2.505   2.073   0.838  1.5953  0.0636  0.1439
  999SOL     OW 2995   2.369   2.669   0.270  0.7216  0.5811 -0.0249
  999SOL    HW1 2996   2.412   2.736   0.336 -0.8210 -1.6981  2.9570
  999SOL    HW2 2997   2.437   2.610   0.225 -1.0920  2.6422 -1.8099
 1000SOL     OW 2998   0.836   2.940   2.414  0.7675 -0.5910 -0.2030
 1000SOL    HW1 2999   0.778   3.018   2.448  0.5674  0.3583 -0.9681
 1000SOL    HW2 3000   0.889   2.966   2.330  1.1382 -1.5041 -2.6067
   3.09458   3.09458   3.09458
