1000 SPC/Fw water molecules t=  19.00000 step= 19000
 3000
    1SOL     OW    1   1.841   2.640   0.204  0.2440 -0.0702  0.4815
    1SOL    HW1    2   1.920   2.591   0.242 -2.2963  1.1469  1.1513
    1SOL    HW2    3   1.764   2.578   0.207  1.7752 -0.7924  0.6811
    2SOL     OW    4   1.161   0.676   2.036 -0.3642  0.1166  0.9460
    2SOL    HW1    5   1.262   0.672   2.056  1.8638  1.0163  0.1996
    2SOL    HW2    6   1.108   0.640   2.114  1.6387  1.3093 -2.3997
    3SOL     OW    7   0.821   3.036   2.786  0.2975 -0.2752 -0.0023
    3SOL    HW1    8   0.832   3.015   2.690 -1.4469  0.8135  4.4536
    3SOL    HW2    9   0.834   0.069   2.803 -0.1260  1.8998 -0.7098
    4SOL     OW   10   1.549   1.646   2.880  0.0901  0.2647 -0.0108
    4SOL    HW1   11   1.519   1.556   2.841  1.1785 -2.9876 -0.5899
    4SOL    HW2   12   1.488   1.719   2.839 -1.8234 -1.3144 -0.0911
    5SOL     OW   13   0.793   0.920   2.225 -0.5992 -0.1799  0.0353
    5SOL    HW1   14   0.891   0.908   2.255  1.8301  1.2266  1.4050
    5SOL    HW2   15   0.731   0.936   2.302  0.8906 -1.7458 -2.5303
    6SOL     OW   16   1.965   0.897   2.676  0.0035 -0.3378 -0.1208
    6SOL    HW1   17   1.994   0.810   2.639  0.0955  1.5998 -0.0388
    6SOL    HW2   18   2.002   0.979   2.633 -3.1384 -3.9802  3.8290
    7SOL     OW   19   0.519   0.977   1.205 -0.3411  0.7778  0.0848
    7SOL    HW1   20   0.560   0.921   1.129  0.6698 -0.6361  1.3212
    7SOL    HW2   21   0.447   1.037   1.172  2.7803 -3.4969 -1.3914
    8SOL     OW   22   1.959   2.939   2.006 -0.5911  0.0981  0.0043
    8SOL    HW1   23   1.897   2.924   1.929  3.9598 -1.9571  0.1835
    8SOL    HW2   24   2.031   3.008   1.996 -0.3628  2.1573  1.8163
    9SOL     OW   25   0.024   2.454   0.794  0.2208  0.0191  0.3489
    9SOL    HW1   26   0.008   2.398   0.709  0.4606 -1.0188 -0.8109
    9SOL    HW2   27   0.055   2.548   0.775 -0.4311  2.4120  1.4516
   10SOL     OW   28   3.020   2.247   2.472 -0.2221 -0.0044  0.1283
   10SOL    HW1   29   3.029   2.299   2.385 -0.3935  0.7859  0.6425
   10SOL    HW2   30   3.040   2.149   2.456  0.7587  0.0880  0.4984
   11SOL     OW   31   0.433   1.564   0.058 -0.6763 -0.2326  0.1111
   11SOL    HW1   32   0.443   1.509   0.141  1.1357 -1.7890 -1.7311
   11SOL    HW2   33   0.465   1.663   0.075  0.0247  0.5085 -0.0925
   12SOL     OW   34   2.094   2.770   0.934 -0.0900  0.0336  0.5737
   12SOL    HW1   35   2.100   2.786   1.034 -1.8544 -1.3147 -0.0136
   12SOL    HW2   36   2.000   2.756   0.899  0.6334  1.0061 -1.1917
   13SOL     OW   37   0.196   0.373   2.644  0.5506  0.0686 -0.2007
   13SOL    HW1   38   0.160   0.327   2.729  2.6367 -1.3928 -2.1506
   13SOL    HW2   39   0.169   0.470   2.640 -1.3315  2.8106  0.4483
   14SOL     OW   40   1.246   1.064   1.721  0.2932 -0.0151  0.1417
   14SOL    HW1   41   1.174   1.005   1.766 -0.2853 -2.0635  0.3708
   14SOL    HW2   42   1.252   1.152   1.768  1.0227 -4.4360 -1.4713
   15SOL     OW   43   0.594   1.459   2.021 -0.5518  0.6627  0.2627
   15SOL    HW1   44   0.553   1.507   1.940 -1.1379  0.0403  1.9866
   15SOL    HW2   45   0.558   1.371   2.039  2.8438  1.3718  3.2979
   16SOL     OW   46   1.614   0.973   2.627 -0.0110 -0.2170  0.3041
   16SOL    HW1   47   1.621   1.060   2.576 -0.3567 -0.0625  0.4347
   16SOL    HW2   48   1.668   0.970   2.710 -0.3900 -0.4848 -2.0323
   17SOL     OW   49   0.005   2.401   2.232 -0.1649  0.2882 -0.0736
   17SOL    HW1   50   3.036   2.492   2.195 -0.4964  1.7618  0.1301
   17SOL    HW2   51   0.022   2.337   2.152 -0.6082 -1.4398 -0.0354
   18SOL     OW   52   1.479   1.278   0.647  0.0025  0.2557  0.5632
   18SOL    HW1   53   1.467   1.180   0.672  0.6381 -0.5741 -0.5786
   18SOL    HW2   54   1.387   1.326   0.646 -1.6852  0.0790  0.4558
   19SOL     OW   55   0.326   1.269   1.858  0.3829 -0.1231 -0.7982
   19SOL    HW1   56   0.369   1.249   1.950 -0.8989  0.9683 -2.2862
   19SOL    HW2   57   0.296   1.190   1.806  2.5660  0.9114  2.6156
   20SOL     OW   58   2.007   2.291   2.848 -0.0790 -0.2838 -0.4258
   20SOL    HW1   59   1.998   2.336   2.937 -0.6811  2.0953 -5.2770
   20SOL    HW2   60   1.996   2.361   2.775  1.3326 -1.4087 -0.4404
   21SOL     OW   61   1.843   1.706   1.020 -0.5088  0.1152 -0.3072
   21SOL    HW1   62   1.829   1.768   1.101 -0.9726 -1.5817  0.4990
   21SOL    HW2   63   1.927   1.728   0.962 -1.9555  2.4030 -0.5886
   22SOL     OW   64   2.023   2.198   1.338  0.2318  0.0648  0.2701
   22SOL    HW1   65   1.963   2.144   1.397  0.5559  2.6477 -0.6314
   22SOL    HW2   66   1.991   2.182   1.241  0.3726  0.0834  1.7561
   23SOL     OW   67   0.020   1.184   1.509  0.2969 -0.1984  0.8950
   23SOL    HW1   68   0.107   1.213   1.459 -0.0297 -1.2834 -2.7917
   23SOL    HW2   69   3.034   1.126   1.445  3.5653  2.2465  2.0337
   24SOL     OW   70   1.624   1.261   1.790  0.2708 -0.1236 -0.1089
   24SOL    HW1   71   1.568   1.206   1.724 -0.1225 -1.2601 -0.2469
   24SOL    HW2   72   1.686   1.329   1.747  0.1353 -3.2563  0.6297
   25SOL     OW   73   1.881   0.124   2.230  0.1794 -0.2925 -0.1031
   25SOL    HW1   74   1.935   0.040   2.241 -1.2834 -1.5425 -0.5542
   25SOL    HW2   75   1.840   0.149   2.325 -1.3992  0.5651  0.8305
   26SOL     OW   76   0.604   2.952   0.639  0.2958  0.5061 -0.3408
   26SOL    HW1   77   0.631   2.993   0.731 -0.6335 -2.7334 -0.3255
   26SOL    HW2   78   0.606   2.852   0.646 -3.9706 -0.8261  0.8544
   27SOL     OW   79   1.474   1.169   1.087  0.1309 -0.6055  0.3002
   27SOL    HW1   80   1.573   1.171   1.059 -0.2934 -0.7946  0.7796
   27SOL    HW2   81   1.425   1.254   1.058  1.5189 -1.3342 -0.6897
   28SOL     OW   82   2.232   2.248   0.915  0.2284 -0.4655 -0.3344
   28SOL    HW1   83   2.295   2.266   0.836  1.8951  1.7706 -2.1655
   28SOL    HW2   84   2.200   2.339   0.953 -0.2338  0.6171  0.6459
   29SOL     OW   85   2.021   2.962   2.276 -0.6541  0.8968 -0.1639
   29SOL    HW1   86   2.018   2.932   2.176  2.5561  0.3204 -0.5275
   29SOL    HW2   87   2.117   2.950   2.309 -1.6011  2.2360  2.0958
   30SOL     OW   88   0.088   2.667   1.900  0.0246  0.3044  0.0974
   30SOL    HW1   89   0.033   2.696   1.818 -1.4436 -0.3595  2.0933
   30SOL    HW2   90   0.163   2.730   1.921 -0.0569 -2.6228  3.9252
   31SOL     OW   91   3.048   1.894   1.981  0.2837  0.2402 -0.2348
   31SOL    HW1   92   0.039   1.817   1.997 -1.8417  0.2181  1.2288
   31SOL    HW2   93   2.979   1.879   1.904  1.0825  0.0890  1.4065
   32SOL     OW   94   1.197   2.097   2.146 -0.2122 -0.2203 -0.2235
   32SOL    HW1   95   1.243   2.068   2.061  1.7416 -2.8851  2.0919
   32SOL    HW2   96   1.271   2.111   2.217 -3.4219  1.3659 -0.7031
   33SOL     OW   97   0.111   0.352   2.900  0.2047  0.1098 -0.6141
   33SOL    HW1   98   0.151   0.264   2.939  2.2012  1.6777  0.0764
   33SOL    HW2   99   0.163   0.433   2.937  0.7010 -0.3189  0.1519
   34SOL     OW  100   2.788   2.996   0.259 -0.4597  0.0264  0.2473
   34SOL    HW1  101   2.881   2.971   0.280 -1.9203  0.2405  1.3979
   34SOL    HW2  102   2.770   3.003   0.160  0.2494 -1.5834  1.4541
   35SOL     OW  103   2.841   2.619   1.547  0.2385 -0.5007  0.0561
   35SOL    HW1  104   2.759   2.591   1.600  1.2986  2.5622  1.2388
   35SOL    HW2  105   2.817   2.663   1.461  3.4497 -0.6439  0.6117
   36SOL     OW  106   2.286   2.940   2.361 -0.4188  0.0750 -0.1009
   36SOL    HW1  107   2.303   2.911   2.458 -1.9170 -1.5809 -2.5072
   36SOL    HW2  108   2.335   3.025   2.341 -2.4161 -3.2698  0.2489
   37SOL     OW  109   1.496   3.032   3.006  0.3005 -0.5105  0.4460
   37SOL    HW1  110   1.491   2.991   0.031 -1.0224  1.7739 -0.3274
   37SOL    HW2  111   1.478   2.971   2.931 -1.6741  2.3796 -0.8756
   38SOL     OW  112   0.472   0.649   0.301  0.1122 -1.0187 -0.1436
   38SOL    HW1  113   0.427   0.607   0.381  1.6426  3.0158 -0.7586
   38SOL    HW2  114   0.465   0.750   0.321  0.5649  1.8402  1.8364
   39SOL     OW  115   1.019   1.864   1.938 -0.1179  0.0475 -0.4422
   39SOL    HW1  116   1.057   1.789   1.999 -0.8555  3.4654 -4.0716
   39SOL    HW2  117   1.007   1.952   1.986 -4.5845 -0.9349  1.2639
   40SOL     OW  118   2.974   0.645   2.940  0.2776 -0.5680 -0.1004
   40SOL    HW1  119   2.991   0.586   2.860  0.1303  2.2133  2.2069
   40SOL    HW2  120   3.032   0.621   3.016 -1.3967 -2.9619 -1.1290
   41SOL     OW  121   1.201   0.665   1.767 -0.2649  0.6726  0.4584
   41SOL    HW1  122   1.281   0.714   1.735 -2.5590 -0.4043 -1.4470
   41SOL    HW2  123   1.181   0.676   1.864 -1.7453 -0.7935 -1.2013
   42SOL     OW  124   2.490   0.141   1.152 -0.0662 -0.5133 -0.0758
   42SOL    HW1  125   2.456   0.196   1.071 -1.2116 -0.2606 -2.3643
   42SOL    HW2  126   2.460   0.188   1.236  0.6544 -0.4705  0.4601
   43SOL     OW  127   1.456   0.737   1.715 -0.6483  0.0144  0.0772
   43SOL    HW1  128   1.524   0.798   1.668 -1.2506  0.4659 -0.6213
   43SOL    HW2  129   1.477   0.639   1.713 -0.0982 -1.4923 -0.2416
   44SOL     OW  130   0.249   0.546   3.004  0.3652  0.1449 -0.2601
   44SOL    HW1  131   0.332   0.521   3.062  0.5678 -2.2210  0.5459
   44SOL    HW2  132   0.233   0.642   3.028 -0.1909  3.0993  1.1469
   45SOL     OW  133   0.274   1.656   1.762 -0.2328  0.1117 -0.2853
   45SOL    HW1  134   0.248   1.656   1.663 -2.8289 -0.8332  1.8758
   45SOL    HW2  135   0.343   1.583   1.774  2.9024  1.7289  2.1193
   46SOL     OW  136   2.295   2.804   1.693  0.5210  0.1342 -0.6567
   46SOL    HW1  137   2.290   2.751   1.783 -0.9760 -1.5536 -2.5693
   46SOL    HW2  138   2.213   2.789   1.634  0.2031 -0.3775 -1.0275
   47SOL     OW  139   0.113   1.832   1.414 -0.1858  0.0982  0.2285
   47SOL    HW1  140   0.130   1.733   1.430  0.5723 -0.9650  3.6417
   47SOL    HW2  141   0.171   1.896   1.470  4.0778  2.5074 -0.0664
   48SOL     OW  142   1.060   2.495   2.798  0.0461 -0.0741  0.3331
   48SOL    HW1  143   1.002   2.419   2.759 -0.8649 -1.4377 -2.9164
   48SOL    HW2  144   1.057   2.505   2.898  0.3249 -1.0450 -2.3855
   49SOL     OW  145   2.506   1.352   1.631  0.1093  0.1142  0.1549
   49SOL    HW1  146   2.553   1.443   1.613 -0.6579  2.5982  0.1455
   49SOL    HW2  147   2.488   1.352   1.731 -0.3996  2.4424 -0.4361
   50SOL     OW  148   1.190   2.820   0.484  0.1764  0.0394 -0.8688
   50SOL    HW1  149   1.270   2.832   0.545  0.7471 -1.1848 -2.0551
   50SOL    HW2  150   1.130   2.905   0.483 -2.4133  3.1730 -1.6052
   51SOL     OW  151   1.156   0.304   1.113 -0.5168 -0.1216  0.2791
   51SOL    HW1  152   1.093   0.333   1.181 -0.0693 -1.7540 -1.3796
   51SOL    HW2  153   1.251   0.287   1.145  0.3610  0.7946 -1.2857
   52SOL     OW  154   0.680   1.070   0.399  0.5407  0.5338  0.3274
   52SOL    HW1  155   0.734   1.083   0.312  1.7512 -1.0861 -1.4419
   52SOL    HW2  156   0.686   1.147   0.461  0.0517  0.0749 -0.5454
   53SOL     OW  157   1.244   0.022   2.727  0.0524  0.2266 -0.0881
   53SOL    HW1  158   1.186   3.031   2.793  1.2717 -0.5057 -0.4785
   53SOL    HW2  159   1.204   0.039   2.633 -0.6188  0.6258 -3.0980
   54SOL     OW  160   2.108   0.284   2.169  1.1175  0.3362 -0.4018
   54SOL    HW1  161   2.022   0.226   2.187  0.5834 -0.8016  0.9652
   54SOL    HW2  162   2.085   0.381   2.152  1.3505  1.3662  1.7871
   55SOL     OW  163   2.966   2.441   0.102 -0.3595  0.1741  0.0621
   55SOL    HW1  164   0.000   2.416   0.086  2.4184  0.9857  1.1837
   55SOL    HW2  165   2.971   2.529   0.152  1.8487  0.8940 -0.5823
   56SOL     OW  166   0.800   0.196   1.805  0.1176 -0.2371 -0.0619
   56SOL    HW1  167   0.718   0.144   1.845 -1.8673 -0.8986 -0.4693
   56SOL    HW2  168   0.879   0.201   1.868  0.6802  2.6781  0.0890
   57SOL     OW  169   1.679   1.028   2.295  0.1139  0.2057 -0.0325
   57SOL    HW1  170   1.619   1.067   2.362  3.2817 -0.6732  0.2870
   57SOL    HW2  171   1.660   1.065   2.206  0.0019  0.6778  3.1471
   58SOL     OW  172   2.754   0.897   2.105 -0.4696  0.5005  0.3637
   58SOL    HW1  173   2.766   0.991   2.069 -1.8939 -2.8738 -0.9643
   58SOL    HW2  174   2.847   0.850   2.108  1.3068 -2.0588  1.0227
   59SOL     OW  175   0.766   2.579   1.637  0.2825  0.7088  0.0681
   59SOL    HW1  176   0.709   2.664   1.628  0.5924  1.5085 -0.8491
   59SOL    HW2  177   0.789   2.550   1.542  0.1121 -3.2706  0.2798
   60SOL     OW  178   2.079   2.527   0.344  0.8245  0.2570  0.3247
   60SOL    HW1  179   2.062   2.452   0.410  1.4944  2.2793 -2.1169
   60SOL    HW2  180   2.179   2.555   0.343 -2.1545  1.8415  0.0517
   61SOL     OW  181   1.572   2.520   0.414 -0.2041 -0.4781  0.0309
   61SOL    HW1  182   1.642   2.459   0.458  0.3456  1.5441 -0.4110
   61SOL    HW2  183   1.566   2.503   0.314 -1.1019 -2.1010  0.6562
   62SOL     OW  184   1.794   2.854   2.846 -0.3223  0.5175 -0.3866
   62SOL    HW1  185   1.734   2.878   2.771 -0.9798  1.0030 -1.1940
   62SOL    HW2  186   1.756   2.782   2.899 -2.2269  1.8224 -0.4316
   63SOL     OW  187   2.108   0.585   0.331 -0.4810 -0.0431  0.5849
   63SOL    HW1  188   2.119   0.670   0.277 -0.3847 -1.5267  2.4632
   63SOL    HW2  189   2.021   0.593   0.377  1.6192  1.3864 -1.7360
   64SOL     OW  190   1.390   1.100   3.016  0.3798 -0.2143  0.0081
   64SOL    HW1  191   1.373   1.002   2.997  0.0493  0.6599  0.7186
   64SOL    HW2  192   1.309   1.150   3.037  0.4052 -1.3647 -1.1263
   65SOL     OW  193   0.488   2.289   1.437  0.5625  0.9002  0.2057
   65SOL    HW1  194   0.401   2.246   1.406  0.6663  0.1581  1.2295
   65SOL    HW2  195   0.498   2.379   1.388  0.8450  3.2429  1.5342
   66SOL     OW  196   0.942   1.231   1.484  0.4194  0.3898  0.0861
   66SOL    HW1  197   1.016   1.166   1.467  0.2130  0.4422 -0.0771
   66SOL    HW2  198   0.925   1.236   1.581  0.1017 -1.0367 -0.2147
   67SOL     OW  199   2.463   1.945   1.679 -0.0203 -0.4289 -0.2528
   67SOL    HW1  200   2.484   2.033   1.625  1.8549  3.0777 -2.8309
   67SOL    HW2  201   2.424   1.876   1.623  1.5608  0.8455  1.7124
   68SOL     OW  202   0.867   1.547   1.692  0.0829 -0.3206 -0.1930
   68SOL    HW1  203   0.795   1.472   1.668 -1.7178 -0.0484  0.2930
   68SOL    HW2  204   0.821   1.625   1.741  1.1539 -1.8914  1.9470
   69SOL     OW  205   0.112   2.837   0.126 -0.2486  0.0574 -0.3398
   69SOL    HW1  206   0.207   2.858   0.138 -2.3570  0.8814 -0.4164
   69SOL    HW2  207   0.061   2.927   0.121 -0.5544 -0.4285 -2.4349
   70SOL     OW  208   2.091   1.092   2.516  0.0443 -0.4284 -0.0724
   70SOL    HW1  209   2.023   1.122   2.448  1.8028  0.3846 -0.9599
   70SOL    HW2  210   2.175   1.060   2.469  1.6760 -2.5535  2.7269
   71SOL     OW  211   0.868   1.982   1.040  0.0027 -0.1656 -0.1144
   71SOL    HW1  212   0.882   2.085   1.027  0.9558  1.7469 -0.5646
   71SOL    HW2  213   0.782   1.957   0.990  1.0898 -0.2519  2.0888
   72SOL     OW  214   2.700   2.128   0.392  0.1677  0.0858  0.1705
   72SOL    HW1  215   2.667   2.156   0.295 -2.1430  2.9172 -1.8572
   72SOL    HW2  216   2.729   2.213   0.435  0.2250 -2.2736  0.2367
   73SOL     OW  217   1.655   0.595   0.862 -0.6016 -0.2845 -0.0667
   73SOL    HW1  218   1.633   0.694   0.901  0.2698 -1.4617  0.5346
   73SOL    HW2  219   1.571   0.545   0.844  0.8880  1.1107  0.1023
   74SOL     OW  220   2.676   2.035   2.109 -0.0865 -0.0791  0.3637
   74SOL    HW1  221   2.756   2.084   2.071 -2.2659 -1.3317  1.5144
   74SOL    HW2  222   2.639   2.093   2.182 -1.2293  2.5952  0.2472
   75SOL     OW  223   1.592   1.871   1.729 -0.0529  0.2200 -0.1172
   75SOL    HW1  224   1.526   1.798   1.747  0.6495  2.6626 -1.3027
   75SOL    HW2  225   1.669   1.834   1.666  1.8177  1.6744 -1.0758
   76SOL     OW  226   1.423   1.473   1.215 -0.4785  0.1287 -0.6001
   76SOL    HW1  227   1.350   1.530   1.171 -2.1673  2.0415 -2.0859
   76SOL    HW2  228   1.506   1.488   1.160 -1.8812 -1.1096  0.7291
   77SOL     OW  229   2.489   1.061   1.641 -0.1261  0.0147 -0.4919
   77SOL    HW1  230   2.459   1.143   1.589 -1.7940  0.7141 -3.1326
   77SOL    HW2  231   2.476   0.973   1.590 -0.5947 -1.1402  1.2367
   78SOL     OW  232   1.595   0.801   0.304 -0.7770  0.1008 -0.0676
   78SOL    HW1  233   1.579   0.774   0.208  0.0335 -0.7972  0.8519
   78SOL    HW2  234   1.566   0.727   0.369  0.7786  0.9793  2.7292
   79SOL     OW  235   1.198   1.443   2.060 -0.3503 -0.1642 -0.0157
   79SOL    HW1  236   1.290   1.444   2.015 -0.6653 -1.0311 -0.5253
   79SOL    HW2  237   1.168   1.351   2.080 -0.0243 -1.7901 -3.3615
   80SOL     OW  238   1.112   0.233   1.494 -0.8054 -0.3243  0.2108
   80SOL    HW1  239   1.136   0.321   1.533  1.6042 -2.9585  0.4629
   80SOL    HW2  240   1.120   0.155   1.560  1.3449 -2.8425 -1.1284
   81SOL     OW  241   0.397   2.379   0.179 -0.1092 -0.0443 -0.6769
   81SOL    HW1  242   0.391   2.438   0.096 -2.6867  1.6352  1.2386
   81SOL    HW2  243   0.485   2.324   0.182 -1.3535  1.1798 -0.7318
   82SOL     OW  244   1.183   0.058   1.719 -0.7711 -0.2618  1.2307
   82SOL    HW1  245   1.142   0.059   1.812 -0.4397  1.1683 -5.8922
   82SOL    HW2  246   1.252   3.055   1.699  1.6138 -1.2370 -0.1871
   83SOL     OW  247   0.373   2.084   1.049  0.0103 -0.1640 -0.4874
   83SOL    HW1  248   0.273   2.105   1.042  3.0991  0.7280  0.5755
   83SOL    HW2  249   0.419   2.099   0.958  1.6921  3.2780  0.2394
   84SOL     OW  250   2.808   1.559   0.845  0.1055  0.7767  0.1190
   84SOL    HW1  251   2.801   1.455   0.818 -0.7931 -3.2870  1.3078
   84SOL    HW2  252   2.903   1.595   0.821 -0.2332  0.9020  0.4674
   85SOL     OW  253   2.161   1.950   1.316 -0.4352  0.5609  0.2958
   85SOL    HW1  254   2.114   2.003   1.386 -0.6979 -0.4638  1.7501
   85SOL    HW2  255   2.136   1.850   1.312  0.9774  0.2621 -1.1050
   86SOL     OW  256   1.520   2.322   2.114 -0.0581  0.6662  0.0052
   86SOL    HW1  257   1.420   2.340   2.135 -3.1190 -0.9412  0.0528
   86SOL    HW2  258   1.543   2.225   2.136 -4.2171 -1.4178 -1.4070
   87SOL     OW  259   2.224   1.714   0.649 -0.1619  0.0437  0.0369
   87SOL    HW1  260   2.200   1.701   0.552  0.4214 -0.6570 -0.3945
   87SOL    HW2  261   2.294   1.791   0.652  1.0277 -0.3730 -2.2295
   88SOL     OW  262   0.338   3.042   0.831  0.2831  0.2843 -0.3854
   88SOL    HW1  263   0.373   2.967   0.772  0.6502 -1.5863 -0.2443
   88SOL    HW2  264   0.408   0.045   0.865  2.6935  0.8046  0.7366
   89SOL     OW  265   0.366   0.781   1.933 -0.1648 -0.3813  0.2242
   89SOL    HW1  266   0.356   0.858   2.003 -0.6729  2.4067  1.1937
   89SOL    HW2  267   0.462   0.769   1.908 -2.0173  0.1611  1.6034
   90SOL     OW  268   2.929   1.996   0.359  0.1944 -0.7443 -0.0540
   90SOL    HW1  269   2.977   1.940   0.430  2.7448 -1.9552 -0.3228
   90SOL    HW2  270   2.838   2.034   0.389 -1.3083  2.0994 -1.2155
   91SOL     OW  271   1.150   1.504   1.088  0.1602  0.4185 -0.1282
   91SOL    HW1  272   1.102   1.479   1.178 -0.6529 -0.0693 -0.0539
   91SOL    HW2  273   1.206   1.429   1.045 -0.5902  0.1417  1.9774
   92SOL     OW  274   2.328   3.066   1.730 -0.0615 -0.3232 -0.4667
   92SOL    HW1  275   2.413   0.049   1.762 -3.6689  1.7463  1.0312
   92SOL    HW2  276   2.328   2.967   1.741 -2.2466  0.7510 -1.8419
   93SOL     OW  277   0.442   1.390   2.896  0.2971  0.4318 -0.2795
   93SOL    HW1  278   0.456   1.455   2.974  0.2164  0.6426  0.2493
   93SOL    HW2  279   0.491   1.426   2.818  0.0811 -1.5701  3.4860
   94SOL     OW  280   2.585   0.114   1.794 -0.3340  0.2120  0.3823
   94SOL    HW1  281   2.567   0.202   1.841 -0.4184 -0.4787 -1.0239
   94SOL    HW2  282   2.615   0.035   1.846 -3.9602  0.5576 -3.3448
   95SOL     OW  283   1.807   0.358   1.987 -0.3913 -0.1513  0.1748
   95SOL    HW1  284   1.760   0.274   2.023  0.9306 -0.0887 -0.9833
   95SOL    HW2  285   1.880   0.326   1.923  1.4411  0.5471 -1.4319
   96SOL     OW  286   0.352   0.420   1.751  0.0222  0.3704  0.1485
   96SOL    HW1  287   0.296   0.368   1.681  1.1886 -1.2673 -2.3419
   96SOL    HW2  288   0.392   0.500   1.710 -2.0446 -1.1447  1.9134
   97SOL     OW  289   1.805   0.258   1.632 -0.3029  0.0857  0.9339
   97SOL    HW1  290   1.779   0.323   1.556 -0.1536 -2.9409 -3.2081
   97SOL    HW2  291   1.719   0.231   1.678  2.2301  2.0882 -0.4997
   98SOL     OW  292   1.997   2.367   1.769  0.4466  0.9883  0.0338
   98SOL    HW1  293   2.080   2.346   1.708  1.1324 -0.7793  0.3482
   98SOL    HW2  294   2.024   2.393   1.860 -3.2742 -1.4812 -3.0664
   99SOL     OW  295   0.646   0.898   0.916 -0.2551  0.6776 -0.7690
   99SOL    HW1  296   0.695   0.847   0.842  2.3636 -0.2342  0.7682
   99SOL    HW2  297   0.545   0.901   0.891 -0.8098  1.3811  0.6318
  100SOL     OW  298   2.802   1.762   2.161 -0.0749  0.2658  0.6143
  100SOL    HW1  299   2.773   1.859   2.140 -0.9028 -3.1763 -0.3762
  100SOL    HW2  300   2.900   1.752   2.146 -0.2314  1.7365  0.7033
  101SOL     OW  301   1.623   0.220   0.103 -0.3143  0.1627  0.3099
  101SOL    HW1  302   1.661   0.298   0.047  2.2515  2.3454 -2.9685
  101SOL    HW2  303   1.632   0.136   0.049  0.5776  0.9143 -1.6466
  102SOL     OW  304   0.014   0.013   1.189  0.1894 -0.2866  0.4690
  102SOL    HW1  305   3.006   3.063   1.121  0.4946  1.4007 -0.4260
  102SOL    HW2  306   0.107   3.045   1.162  2.5082 -1.6591  0.6717
  103SOL     OW  307   0.215   2.885   2.334  0.1467  0.5809  0.6089
  103SOL    HW1  308   0.125   2.861   2.300 -0.1767 -2.5579  0.7029
  103SOL    HW2  309   0.281   2.808   2.335  0.7660  1.0755 -0.4464
  104SOL     OW  310   0.275   2.024   1.596 -0.2899 -0.3117  0.4722
  104SOL    HW1  311   0.192   2.064   1.645 -0.5293 -2.0193  0.9961
  104SOL    HW2  312   0.292   2.067   1.505  1.9641 -1.2874 -0.5774
  105SOL     OW  313   0.588   1.910   1.995 -0.0344 -0.5279 -0.3755
  105SOL    HW1  314   0.636   2.002   1.984  0.6550 -0.9578 -0.1993
  105SOL    HW2  315   0.508   1.906   1.929 -0.8254 -0.4490 -1.0478
  106SOL     OW  316   2.272   2.900   0.563 -0.2596 -0.1048  0.0906
  106SOL    HW1  317   2.302   2.990   0.605 -1.7283  3.9072 -2.9622
  106SOL    HW2  318   2.311   2.894   0.467 -1.7398 -1.6672 -0.1156
  107SOL     OW  319   0.573   1.182   0.937 -0.3829  0.4660 -0.2502
  107SOL    HW1  320   0.501   1.162   1.004 -0.8667  0.0015  0.3993
  107SOL    HW2  321   0.623   1.093   0.915  0.6512 -0.4823  1.6334
  108SOL     OW  322   2.713   1.175   2.076  0.3445 -0.1690  0.6540
  108SOL    HW1  323   2.618   1.158   2.042  1.2568 -1.8681  1.7112
  108SOL    HW2  324   2.753   1.248   2.024 -1.2019 -0.0376  0.8540
  109SOL     OW  325   1.982   2.971   3.017  0.0764 -0.0375 -0.1584
  109SOL    HW1  326   1.984   0.006   3.027 -0.5196 -1.9635  0.7272
  109SOL    HW2  327   1.910   2.948   2.951 -1.0037 -1.9818 -2.2153
  110SOL     OW  328   0.269   1.988   2.910 -0.3827 -0.5156  0.2747
  110SOL    HW1  329   0.167   1.993   2.912 -0.6535 -1.1912  0.5995
  110SOL    HW2  330   0.306   1.891   2.920 -0.5984  0.4230  0.8281
  111SOL     OW  331   2.542   0.961   2.266  0.0140 -0.0839  0.0681
  111SOL    HW1  332   2.599   0.948   2.181  3.3192  1.4093 -1.7454
  111SOL    HW2  333   2.602   0.991   2.341  1.4385 -1.0183  0.9458
  112SOL     OW  334   2.205   2.639   1.367  0.1887  0.1403  0.0111
  112SOL    HW1  335   2.132   2.684   1.419  3.5356 -0.0322 -0.5704
  112SOL    HW2  336   2.267   2.586   1.430 -1.6764  0.3275  0.8065
  113SOL     OW  337   2.112   2.150   2.640 -0.1684  0.0380  0.2973
  113SOL    HW1  338   2.212   2.131   2.655  0.0751 -2.0017  0.6441
  113SOL    HW2  339   2.077   2.195   2.725 -0.5053  3.2621 -2.2811
  114SOL     OW  340   0.550   0.370   0.476 -0.2387 -0.2117 -0.9523
  114SOL    HW1  341   0.610   0.340   0.400  0.2672 -1.3975 -0.6964
  114SOL    HW2  342   0.609   0.413   0.548  0.2017 -2.0978 -0.6264
  115SOL     OW  343   0.087   1.622   0.035  0.1469 -0.3545  0.4047
  115SOL    HW1  344   0.111   1.528   0.008  3.0358  2.9167 -0.7671
  115SOL    HW2  345   0.135   1.681   3.029  0.5013  3.2343 -1.4392
  116SOL     OW  346   2.907   1.252   1.847  0.5165  0.3201 -0.3429
  116SOL    HW1  347   2.875   1.345   1.835 -2.4387 -2.4066  1.2249
  116SOL    HW2  348   2.858   1.192   1.782 -0.1907 -1.5536  2.0458
  117SOL     OW  349   2.015   0.231   1.379 -0.0271  0.2118  0.2642
  117SOL    HW1  350   2.095   0.281   1.341  0.0662 -1.2267 -2.2397
  117SOL    HW2  351   1.941   0.290   1.422 -0.2439  0.8934 -0.0762
  118SOL     OW  352   2.744   2.722   2.068 -0.3615  0.0047  0.1184
  118SOL    HW1  353   2.720   2.676   1.977 -0.1029  1.0288  0.6005
  118SOL    HW2  354   2.834   2.700   2.104 -3.7648 -0.4931 -1.4205
  119SOL     OW  355   0.399   1.457   1.343 -0.0683 -0.7511  0.3508
  119SOL    HW1  356   0.483   1.405   1.321  0.2689  2.3912  2.4221
  119SOL    HW2  357   0.430   1.548   1.384 -0.5714 -3.5258  1.6194
  120SOL     OW  358   0.488   1.478   1.771 -0.5855 -0.0384 -0.2031
  120SOL    HW1  359   0.547   1.429   1.706  1.1400 -0.3240 -0.8247
  120SOL    HW2  360   0.425   1.411   1.808  1.2535 -0.6229  0.1654
  121SOL     OW  361   1.452   1.029   0.759 -0.1840  0.3134  0.0887
  121SOL    HW1  362   1.538   0.986   0.725  2.8024 -1.7339  2.1926
  121SOL    HW2  363   1.423   0.995   0.851  0.0925  0.3790 -1.5329
  122SOL     OW  364   2.452   2.488   2.597  0.0364 -0.3180 -0.1804
  122SOL    HW1  365   2.386   2.545   2.653 -1.8888  1.5061  1.8220
  122SOL    HW2  366   2.403   2.447   2.514 -0.4480 -0.4762  0.7347
  123SOL     OW  367   0.004   2.981   0.355 -0.0555 -0.6722 -0.3398
  123SOL    HW1  368   0.053   3.049   0.413  1.3462  0.1889 -1.3698
  123SOL    HW2  369   0.044   2.890   0.377  1.0837 -1.1132 -3.4303
  124SOL     OW  370   1.699   1.285   0.134 -0.3135  0.0347  0.1012
  124SOL    HW1  371   1.635   1.305   0.209  0.0912 -2.2942  0.1979
  124SOL    HW2  372   1.765   1.360   0.128 -0.2011  1.9377 -1.1159
  125SOL     OW  373   0.170   1.037   2.198  0.0437  0.4068  0.0437
  125SOL    HW1  374   0.119   0.967   2.252 -0.6697 -1.2369 -0.9125
  125SOL    HW2  375   0.269   1.014   2.185 -1.2572  0.3507  0.8136
  126SOL     OW  376   0.142   2.605   3.056 -0.0546  0.0703 -0.0199
  126SOL    HW1  377   0.064   2.592   2.996  0.8561 -0.3651  2.1394
  126SOL    HW2  378   0.128   2.692   0.042 -1.0226  0.7934 -0.4206
  127SOL     OW  379   2.920   1.926   0.085  0.1958 -0.3572 -0.6616
  127SOL    HW1  380   2.916   1.946   0.184 -2.3775 -3.2366  2.2963
  127SOL    HW2  381   2.851   1.982   0.033 -1.1337  1.6479 -0.2366
  128SOL     OW  382   1.083   0.877   0.943  0.0113  0.0381 -0.4282
  128SOL    HW1  383   1.024   0.959   0.970  0.8776  1.8198  0.6810
  128SOL    HW2  384   1.145   0.846   1.019  1.6730 -1.6378  2.0609
  129SOL     OW  385   2.312   2.083   1.129  0.2119  0.1608 -0.2040
  129SOL    HW1  386   2.232   2.050   1.188  0.0321 -0.8433  1.3854
  129SOL    HW2  387   2.279   2.133   1.050 -3.2370 -0.0913  2.4296
  130SOL     OW  388   1.944   0.892   0.361  0.7071  0.5048 -0.5693
  130SOL    HW1  389   2.036   0.920   0.338  0.9289  1.5976  0.3370
  130SOL    HW2  390   1.877   0.968   0.360 -1.0149 -1.6790 -3.7146
  131SOL     OW  391   2.898   1.425   2.622  0.2026 -0.4058 -0.5455
  131SOL    HW1  392   2.900   1.483   2.540 -1.1908 -1.7776 -2.9135
  131SOL    HW2  393   2.971   1.456   2.692  2.4600  0.4143  1.3884
  132SOL     OW  394   1.074   1.161   2.044 -0.1190  0.5537 -0.2835
  132SOL    HW1  395   0.996   1.222   2.055  0.1865 -2.2780 -1.8966
  132SOL    HW2  396   1.052   1.096   1.975  1.3187  6.1536  2.8940
  133SOL     OW  397   0.423   1.321   0.608 -0.3900 -0.3764 -0.1402
  133SOL    HW1  398   0.509   1.275   0.586 -0.8929  3.4417  0.7534
  133SOL    HW2  399   0.438   1.411   0.648 -0.8676 -2.8635 -2.2701
  134SOL     OW  400   2.916   1.409   3.058 -0.0089 -0.2533  0.3314
  134SOL    HW1  401   2.927   1.320   3.008 -0.8569 -0.9531 -0.6533
  134SOL    HW2  402   2.817   1.420   0.012 -2.7104 -1.3572 -0.0490
  135SOL     OW  403   1.503   0.740   0.048  0.1823 -0.3411 -0.0516
  135SOL    HW1  404   1.416   0.781   0.008 -0.9602  0.5278 -1.8466
  135SOL    HW2  405   1.579   0.742   3.044  1.1461 -0.4011  3.8336
  136SOL     OW  406   2.069   1.676   1.286  0.0828 -0.0528  0.1158
  136SOL    HW1  407   2.144   1.641   1.236 -3.7240  5.3329  4.5940
  136SOL    HW2  408   1.982   1.641   1.256  0.5269  0.3105  2.5772
  137SOL     OW  409   2.270   2.641   0.616 -0.3382 -0.2588  0.1486
  137SOL    HW1  410   2.279   2.741   0.637 -0.2152  0.9506 -2.2568
  137SOL    HW2  411   2.219   2.599   0.695  1.9464  0.3081 -1.5618
  138SOL     OW  412   2.213   0.472   1.895  0.2018  0.1709 -0.2458
  138SOL    HW1  413   2.157   0.486   1.980  1.3438 -2.1306  0.0542
  138SOL    HW2  414   2.162   0.413   1.830 -0.0567 -2.2455  2.3635
  139SOL     OW  415   2.675   2.607   2.878  0.1538  0.9086  0.0162
  139SOL    HW1  416   2.738   2.669   2.933 -0.6322  1.3257  1.4537
  139SOL    HW2  417   2.706   2.599   2.782  0.9763  1.3489 -0.0802
  140SOL     OW  418   1.621   1.953   2.234 -0.3651  0.5569  0.2568
  140SOL    HW1  419   1.695   1.989   2.171 -0.2769 -0.6665  1.1007
  140SOL    HW2  420   1.607   1.851   2.233  1.1143 -0.4551  1.0092
  141SOL     OW  421   0.867   1.073   2.490 -0.1752 -0.3235  0.3442
  141SOL    HW1  422   0.887   1.127   2.402 -1.9275 -0.1343 -3.0175
  141SOL    HW2  423   0.907   1.110   2.576  0.5242  0.8101 -1.0642
  142SOL     OW  424   2.252   2.699   1.934  0.0523 -0.0286  0.3352
  142SOL    HW1  425   2.293   2.788   1.957 -1.1191  2.0911  0.4319
  142SOL    HW2  426   2.170   2.690   1.996  0.0789  0.1270  1.0576
  143SOL     OW  427   1.331   2.377   0.401  0.2431  0.4118  0.3111
  143SOL    HW1  428   1.413   2.441   0.396 -1.2604  1.0009 -1.6853
  143SOL    HW2  429   1.248   2.431   0.433 -1.3589  1.7054  2.1530
  144SOL     OW  430   1.149   2.558   0.532  0.4942  0.1462  0.3111
  144SOL    HW1  431   1.181   2.657   0.529 -0.3898  0.3549 -1.7342
  144SOL    HW2  432   1.053   2.550   0.496  1.0787  1.0047  2.0113
  145SOL     OW  433   1.654   2.640   2.485 -0.1713  0.1128 -0.1689
  145SOL    HW1  434   1.571   2.618   2.427  0.4476 -1.5109 -2.2270
  145SOL    HW2  435   1.708   2.723   2.451  1.6131  1.9431  1.4198
  146SOL     OW  436   2.061   2.797   0.145  0.7281 -0.3465  0.2141
  146SOL    HW1  437   2.013   2.869   0.086 -0.3422  1.3501 -0.8840
  146SOL    HW2  438   1.997   2.738   0.194  1.8364  1.3841  0.5075
  147SOL     OW  439   0.157   1.587   1.477 -0.3273  0.0755  0.3521
  147SOL    HW1  440   0.200   1.556   1.394 -1.3788 -0.2555  2.1503
  147SOL    HW2  441   0.134   1.510   1.544  0.1428  0.0359  1.6884
  148SOL     OW  442   1.782   2.895   0.302  0.2573  0.0392  0.3588
  148SOL    HW1  443   1.849   2.971   0.300 -1.5062  0.3401 -1.5270
  148SOL    HW2  444   1.824   2.813   0.258  0.7542 -0.4540  0.1546
  149SOL     OW  445   0.589   1.943   2.924  0.2877  0.2624  0.2327
  149SOL    HW1  446   0.661   1.995   2.966 -4.0591 -1.5627  0.1607
  149SOL    HW2  447   0.509   2.001   2.895  2.3612  0.5916  0.4040
  150SOL     OW  448   0.175   2.535   1.089  0.2704 -0.6369 -0.0209
  150SOL    HW1  449   0.221   2.617   1.131 -0.6812 -0.2057 -2.9008
  150SOL    HW2  450   0.075   2.557   1.083  0.8430 -1.6529  1.6308
  151SOL     OW  451   0.446   1.144   2.996 -0.1493 -0.9642 -0.3527
  151SOL    HW1  452   0.432   1.230   2.937  2.4602 -2.1247 -2.0169
  151SOL    HW2  453   0.469   1.171   0.027  2.2681  0.5108  1.2225
  152SOL     OW  454   3.009   2.087   0.822 -0.2340 -0.0015 -0.3479
  152SOL    HW1  455   2.927   2.036   0.835  2.3308  3.4433 -1.6636
  152SOL    HW2  456   3.000   2.186   0.851  2.4241 -0.0773  0.4988
  153SOL     OW  457   1.705   2.325   0.579  0.1717 -0.2834 -0.1991
  153SOL    HW1  458   1.786   2.277   0.534  1.9975 -1.1976 -1.3043
  153SOL    HW2  459   1.634   2.266   0.617  1.8411  1.2163 -2.3234
  154SOL     OW  460   0.597   2.994   1.435 -0.3101 -0.1785 -0.1972
  154SOL    HW1  461   0.509   3.044   1.417  0.2922  1.1462  2.9048
  154SOL    HW2  462   0.672   3.059   1.452  1.1619  1.4425  1.4542
  155SOL     OW  463   2.826   2.380   0.358  0.1848  0.3275 -0.0416
  155SOL    HW1  464   2.732   2.402   0.329  0.7141  2.8932  0.1868
  155SOL    HW2  465   2.888   2.371   0.277 -1.0892 -1.9486 -0.6544
  156SOL     OW  466   2.614   1.961   0.045  0.3853  0.3538  0.2738
  156SOL    HW1  467   2.652   1.994   3.025  0.0067 -1.7307  2.3791
  156SOL    HW2  468   2.565   2.035   0.093 -0.7443 -2.3406  2.4016
  157SOL     OW  469   0.631   2.880   1.892 -0.4401 -0.0184 -0.5027
  157SOL    HW1  470   0.592   2.975   1.887  1.2774 -1.1888  0.7390
  157SOL    HW2  471   0.572   2.823   1.956 -0.5509 -2.3431  2.1804
  158SOL     OW  472   1.227   0.725   1.130 -0.0563 -0.2013  0.4075
  158SOL    HW1  473   1.285   0.798   1.082  1.5808 -0.2071  0.8687
  158SOL    HW2  474   1.274   0.694   1.211  1.5579  1.0285 -1.7621
  159SOL     OW  475   1.830   1.062   0.040 -0.0481 -0.2211 -0.3720
  159SOL    HW1  476   1.771   1.147   0.051 -1.4390  1.4210  0.4054
  159SOL    HW2  477   1.817   1.022   3.017 -0.6926  3.0975 -1.6262
  160SOL     OW  478   1.204   1.923   0.489  0.5820 -0.1457 -0.1970
  160SOL    HW1  479   1.258   1.991   0.429 -1.0112 -0.8753 -0.9766
  160SOL    HW2  480   1.160   1.987   0.560 -1.9369 -0.9955  0.7151
  161SOL     OW  481   2.368   2.070   2.631 -0.3401  0.1263  0.0733
  161SOL    HW1  482   2.447   2.129   2.643 -1.5753  1.1367 -0.4728
  161SOL    HW2  483   2.391   1.971   2.657 -0.4387  0.0543 -2.8380
  162SOL     OW  484   0.130   2.395   1.547 -0.2542 -0.4766 -0.2860
  162SOL    HW1  485   0.117   2.300   1.541  0.0328  2.3438  2.2476
  162SOL    HW2  486   0.156   2.431   1.458 -0.1036 -0.8547  1.3197
  163SOL     OW  487   0.118   0.681   2.632  0.6214  0.5763 -0.0906
  163SOL    HW1  488   0.191   0.679   2.696 -1.3657  3.4868 -3.6062
  163SOL    HW2  489   0.054   0.755   2.642  1.0061 -0.2151  1.1013
  164SOL     OW  490   0.260   2.702   2.798  0.5341  0.5450 -0.3800
  164SOL    HW1  491   0.218   2.796   2.793  0.1835  3.0777  0.7099
  164SOL    HW2  492   0.226   2.650   2.880 -0.2833  2.2149  0.7975
  165SOL     OW  493   2.610   0.722   1.680 -0.1492 -0.3937  0.1040
  165SOL    HW1  494   2.560   0.730   1.593  0.9133 -0.4178  0.6975
  165SOL    HW2  495   2.699   0.773   1.673  0.2075  1.1079 -1.2208
  166SOL     OW  496   2.113   1.382   1.118  0.5866  0.7205  0.1090
  166SOL    HW1  497   2.033   1.323   1.143 -1.3811  1.0948 -0.1007
  166SOL    HW2  498   2.133   1.373   1.016  2.8557  0.6606 -1.4657
  167SOL     OW  499   0.110   0.859   2.407 -0.9867 -0.1057  0.0267
  167SOL    HW1  500   0.114   0.766   2.362  2.7036 -0.4464  2.0540
  167SOL    HW2  501   0.031   0.861   2.470 -1.0181  0.4466 -1.6184
  168SOL     OW  502   2.253   0.326   2.525 -0.2393 -0.4515  0.2485
  168SOL    HW1  503   2.164   0.280   2.543  1.6560  0.8231  3.8327
  168SOL    HW2  504   2.242   0.404   2.461  2.2809 -0.1180 -2.8152
  169SOL     OW  505   0.607   0.922   3.065 -0.2671 -0.2314  0.1403
  169SOL    HW1  506   0.560   0.892   0.081  3.9911  2.6457 -0.6858
  169SOL    HW2  507   0.557   1.000   3.025 -2.0300  1.2190 -2.4384
  170SOL     OW  508   0.975   1.312   1.786 -0.3347  0.0928  0.7775
  170SOL    HW1  509   0.965   1.409   1.761  1.4693  1.5980 -1.6201
  170SOL    HW2  510   1.073   1.289   1.790  0.1113  0.9094  0.7826
  171SOL     OW  511   1.189   2.621   1.207 -0.1017 -0.1567 -0.0943
  171SOL    HW1  512   1.108   2.671   1.245 -0.0795  0.2917  1.4867
  171SOL    HW2  513   1.257   2.617   1.286  0.3244  2.2303  2.7804
  172SOL     OW  514   0.898   2.929   1.795  0.4012 -0.3228  0.2836
  172SOL    HW1  515   0.805   2.940   1.824  1.2267 -2.5146  1.6379
  172SOL    HW2  516   0.926   2.836   1.781  0.8568  2.2755 -0.2011
  173SOL     OW  517   0.723   2.671   0.627 -1.2178 -0.0489  0.4110
  173SOL    HW1  518   0.810   2.639   0.594 -0.6795  1.3680  0.1227
  173SOL    HW2  519   0.717   2.675   0.729 -1.8119 -1.6797  1.5171
  174SOL     OW  520   1.997   0.154   0.467 -0.3545  0.0600 -0.0694
  174SOL    HW1  521   1.904   0.164   0.501  3.6088 -0.8051 -1.6259
  174SOL    HW2  522   1.996   0.098   0.383 -1.8424 -2.6567 -1.0075
  175SOL     OW  523   1.327   1.340   0.940 -0.3152 -0.5101  0.4870
  175SOL    HW1  524   1.351   1.424   0.883 -0.7428  3.2430 -0.4162
  175SOL    HW2  525   1.292   1.266   0.882  1.9247  2.9388 -0.3826
  176SOL     OW  526   1.146   1.664   0.859 -0.2664  0.4035 -0.3576
  176SOL    HW1  527   1.101   1.752   0.869  1.3001 -2.8108  1.2985
  176SOL    HW2  528   1.144   1.616   0.948 -1.2506 -0.5925 -3.2153
  177SOL     OW  529   1.715   1.144   0.958  0.5121  0.1383  0.0739
  177SOL    HW1  530   1.727   1.066   0.895 -1.3958 -0.3027  2.1174
  177SOL    HW2  531   1.684   1.216   0.900  0.1042 -3.7850  1.1034
  178SOL     OW  532   2.196   1.643   0.392  0.1375 -0.1648  0.1261
  178SOL    HW1  533   2.293   1.659   0.370 -1.2251 -0.3441  0.4808
  178SOL    HW2  534   2.167   1.548   0.363 -1.5984 -0.8761 -2.1283
  179SOL     OW  535   1.228   3.051   0.071  0.2245  0.6370 -0.4530
  179SOL    HW1  536   1.243   2.971   0.133  1.2970 -0.8529 -1.3427
  179SOL    HW2  537   1.316   0.011   0.030  0.7187  0.3881  2.5263
  180SOL     OW  538   1.805   1.149   1.385 -0.4051 -0.3166 -0.0825
  180SOL    HW1  539   1.781   1.232   1.442 -0.2576 -1.3224  0.5795
  180SOL    HW2  540   1.846   1.178   1.292 -0.6073  1.6495 -0.5115
  181SOL     OW  541   0.736   0.868   1.800 -0.0380  0.0406 -0.2209
  181SOL    HW1  542   0.821   0.864   1.739  3.4993  0.8839 -4.4868
  181SOL    HW2  543   0.698   0.777   1.828  0.6007 -3.2931  0.5350
  182SOL     OW  544   3.002   0.898   2.621  0.1290  0.4455 -0.0922
  182SOL    HW1  545   2.918   0.845   2.638  0.6586 -1.0843  0.7388
  182SOL    HW2  546   2.981   0.998   2.603  0.3877  0.0854  1.5105
  183SOL     OW  547   1.502   0.403   2.219 -0.0257  0.3891  0.3881
  183SOL    HW1  548   1.605   0.419   2.242 -0.9095 -1.5261  0.3978
  183SOL    HW2  549   1.453   0.334   2.272 -2.2581 -2.0698  1.2288
  184SOL     OW  550   0.643   0.558   1.236  0.2415  0.2866  0.2223
  184SOL    HW1  551   0.683   0.558   1.141 -0.3675  2.6538 -0.4479
  184SOL    HW2  552   0.658   0.474   1.287  0.3065  1.9460 -1.1994
  185SOL     OW  553   2.258   1.184   0.424 -0.8243  0.0559 -0.5173
  185SOL    HW1  554   2.348   1.199   0.388 -1.5669  3.7668  3.0536
  185SOL    HW2  555   2.202   1.268   0.402  1.5928  1.1898  0.1927
  186SOL     OW  556   0.368   2.063   0.209  0.1923  0.5409  0.1214
  186SOL    HW1  557   0.274   2.017   0.202 -0.5416 -2.7471 -2.4526
  186SOL    HW2  558   0.398   2.108   0.125  0.8281 -2.0743  1.2817
  187SOL     OW  559   1.822   2.120   2.926  0.3268  0.2343 -0.3998
  187SOL    HW1  560   1.833   2.019   2.917  0.3727 -1.2122 -2.9417
  187SOL    HW2  561   1.897   2.169   2.879 -1.3313  0.8802  1.7310
  188SOL     OW  562   1.318   2.202   1.488 -0.1307  0.3012 -0.6557
  188SOL    HW1  563   1.371   2.289   1.499  0.7771 -0.0966  0.9569
  188SOL    HW2  564   1.347   2.151   1.406  0.3292 -0.3342  3.1149
  189SOL     OW  565   2.433   1.253   2.671  0.1567 -0.3749  0.0058
  189SOL    HW1  566   2.347   1.289   2.629 -0.3955  0.0968  0.5762
  189SOL    HW2  567   2.485   1.195   2.604 -0.4378 -0.7060 -2.8418
  190SOL     OW  568   0.788   2.654   2.239 -0.0608 -0.1511  0.0175
  190SOL    HW1  569   0.754   2.574   2.184  0.4071  1.8434 -0.4317
  190SOL    HW2  570   0.715   2.723   2.246 -0.9907  0.5078 -1.5862
  191SOL     OW  571   2.613   1.104   1.258 -0.0535 -0.9127  0.0539
  191SOL    HW1  572   2.645   1.164   1.334 -0.8934  1.8040  0.1635
  191SOL    HW2  573   2.551   1.160   1.196 -0.2054 -0.9122 -1.7953
  192SOL     OW  574   2.044   0.545   1.105  0.2212  0.0488 -0.0466
  192SOL    HW1  575   2.104   0.518   1.181  1.4528 -1.8119 -2.4597
  192SOL    HW2  576   2.005   0.462   1.062 -2.9595 -2.8473 -1.6981
  193SOL     OW  577   0.924   0.122   0.313  0.2289  0.4208  0.4634
  193SOL    HW1  578   1.005   0.189   0.303  1.2615 -1.4845  2.2144
  193SOL    HW2  579   0.838   0.167   0.296  0.7063 -0.0926  1.5141
  194SOL     OW  580   1.442   2.312   0.997  0.0352  0.3318  0.1977
  194SOL    HW1  581   1.462   2.407   0.966  0.6726  1.9939  1.1590
  194SOL    HW2  582   1.519   2.242   0.992 -0.4587 -1.7682  0.1643
  195SOL     OW  583   2.675   1.045   0.484  0.1665  0.4268 -0.5280
  195SOL    HW1  584   2.682   1.079   0.578 -1.2883 -1.6629 -1.0870
  195SOL    HW2  585   2.651   0.942   0.483  0.6439  0.5763  1.8988
  196SOL     OW  586   0.434   2.349   1.696  0.3721  0.0921  0.0194
  196SOL    HW1  587   0.337   2.339   1.730 -1.5077  0.3730 -2.0754
  196SOL    HW2  588   0.444   2.297   1.608 -2.0891  0.0448  0.3876
  197SOL     OW  589   0.063   0.399   2.324  0.1343 -0.0644  0.2697
  197SOL    HW1  590   0.072   0.320   2.259 -0.5306 -2.8001 -1.3824
  197SOL    HW2  591   3.064   0.373   2.394 -0.9853  1.2429  0.5661
  198SOL     OW  592   2.114   1.386   0.325  0.8053  0.0057  0.0991
  198SOL    HW1  593   2.090   1.374   0.225 -0.1852 -1.9217  0.4419
  198SOL    HW2  594   2.022   1.380   0.372 -1.2095  0.0829 -1.1953
  199SOL     OW  595   2.487   0.358   1.899  0.3898 -0.2391 -0.0740
  199SOL    HW1  596   2.396   0.404   1.913 -0.5551 -1.3828  4.4281
  199SOL    HW2  597   2.557   0.419   1.853 -2.9372 -1.7980 -0.5274
  200SOL     OW  598   1.948   0.159   3.049  0.5877 -0.3333 -0.0492
  200SOL    HW1  599   1.972   0.244   3.003 -2.0770 -1.8878  1.8414
  200SOL    HW2  600   1.871   0.119   2.999  3.0414  1.3642  2.4944
  201SOL     OW  601   2.747   0.214   1.089 -0.9108  0.0004  0.5137
  201SOL    HW1  602   2.667   0.181   1.140 -2.6887 -0.1431  3.2052
  201SOL    HW2  603   2.744   0.316   1.057  1.9838 -0.0597  0.8148
  202SOL     OW  604   2.966   2.696   0.220 -0.4832 -0.0011 -0.7050
  202SOL    HW1  605   3.044   2.754   0.196  0.6527 -1.4071  0.8127
  202SOL    HW2  606   2.933   2.726   0.308  0.4518 -1.6417 -0.4445
  203SOL     OW  607   1.814   1.714   0.585  0.1885  0.6796 -0.7248
  203SOL    HW1  608   1.735   1.760   0.630 -0.0569  0.1908  0.6509
  203SOL    HW2  609   1.869   1.792   0.563 -1.4443 -0.8408  0.9282
  204SOL     OW  610   0.104   1.650   2.025 -0.3741  0.2497  0.2597
  204SOL    HW1  611   0.143   1.633   1.935 -0.7399  0.6764 -0.5257
  204SOL    HW2  612   0.031   1.578   2.042 -2.5193 -2.5821  0.7058
  205SOL     OW  613   0.659   0.377   0.853  0.4754 -0.5451  0.2154
  205SOL    HW1  614   0.700   0.432   0.783 -0.0468 -1.7016  1.1411
  205SOL    HW2  615   0.703   0.406   0.939 -2.0840 -0.3470 -1.0431
  206SOL     OW  616   0.340   0.683   2.788 -0.0896  0.2616  0.2598
  206SOL    HW1  617   0.328   0.624   2.868 -1.2153  2.1223 -0.1310
  206SOL    HW2  618   0.346   0.780   2.812 -2.1051 -2.8984  1.0947
  207SOL     OW  619   1.087   2.424   1.893 -0.1041  0.7861 -0.0974
  207SOL    HW1  620   1.057   2.407   1.989  0.9867 -1.4241 -2.8211
  207SOL    HW2  621   1.069   2.339   1.840  2.1106 -2.9402 -1.3257
  208SOL     OW  622   2.607   0.207   1.544 -0.0065  0.1683  0.2302
  208SOL    HW1  623   2.703   0.197   1.510  1.5343  1.6494  0.7322
  208SOL    HW2  624   2.596   0.181   1.642 -1.5941 -1.4287 -0.4499
  209SOL     OW  625   1.889   0.596   0.693  0.3571 -0.0623  0.0175
  209SOL    HW1  626   1.978   0.619   0.741  0.5481 -0.8302 -1.5543
  209SOL    HW2  627   1.809   0.623   0.758 -2.3992  0.1937  1.1957
  210SOL     OW  628   2.498   1.226   0.324 -0.1582  0.2629  0.5235
  210SOL    HW1  629   2.568   1.176   0.380  0.4720  0.1624  0.8447
  210SOL    HW2  630   2.489   1.316   0.370 -0.5769 -1.9467 -0.3584
  211SOL     OW  631   0.997   0.104   0.025  0.2662  0.5172 -0.3591
  211SOL    HW1  632   0.966   0.182   0.074  2.3685 -1.1931 -2.1569
  211SOL    HW2  633   1.088   0.065   0.046 -1.5357 -0.8797  0.9623
  212SOL     OW  634   1.989   1.917   0.499 -0.1307 -0.4998  0.3493
  212SOL    HW1  635   2.046   1.945   0.576 -0.3026  0.4095  2.4818
  212SOL    HW2  636   2.039   1.908   0.411 -1.2162  2.2181 -1.3118
  213SOL     OW  637   2.350   3.054   0.124 -0.1824 -0.0060 -0.2816
  213SOL    HW1  638   2.308   3.036   0.028  2.0751 -0.2875 -1.9415
  213SOL    HW2  639   2.379   0.083   0.136 -1.7230 -1.2840  0.8636
  214SOL     OW  640   1.018   2.311   2.126  0.5105  0.2372  0.3329
  214SOL    HW1  641   0.951   2.324   2.203 -1.1880 -1.5853 -1.2601
  214SOL    HW2  642   1.081   2.230   2.140  2.2165 -1.7074 -0.0205
  215SOL     OW  643   0.260   1.200   0.844  0.0720 -0.8100  0.0883
  215SOL    HW1  644   0.174   1.234   0.795 -1.4709 -1.2486  1.1806
  215SOL    HW2  645   0.343   1.219   0.780  0.6154  0.8954 -5.0611
  216SOL     OW  646   0.473   2.657   2.626 -0.1405  0.1148 -0.0710
  216SOL    HW1  647   0.553   2.658   2.689 -1.6517  0.7722  0.3367
  216SOL    HW2  648   0.384   2.665   2.678 -5.7774 -1.5404  1.8182
  217SOL     OW  649   2.724   1.255   1.454  0.5602  0.1701 -0.7220
  217SOL    HW1  650   2.807   1.311   1.435 -0.9461 -0.4081 -0.6004
  217SOL    HW2  651   2.728   1.212   1.547  1.0438  1.2443 -3.3035
  218SOL     OW  652   0.920   2.242   1.759  0.5625 -0.2456 -0.2427
  218SOL    HW1  653   0.829   2.281   1.796  0.5398  1.0595 -3.2210
  218SOL    HW2  654   0.919   2.140   1.744 -0.5495  0.8277 -0.6353
  219SOL     OW  655   1.846   1.543   0.093 -0.3026 -0.2285 -0.1275
  219SOL    HW1  656   1.758   1.592   0.079 -0.5162 -2.0193 -3.7900
  219SOL    HW2  657   1.884   1.555   0.189 -0.5436  0.7228 -0.7044
  220SOL     OW  658   2.011   0.471   3.022 -0.1048  0.4783  0.1587
  220SOL    HW1  659   2.030   0.460   0.052 -0.8818 -0.8777 -2.7169
  220SOL    HW2  660   2.037   0.561   2.988 -0.0606 -0.8222 -0.3051
  221SOL     OW  661   3.004   0.734   0.186 -0.7331 -0.4115 -0.2671
  221SOL    HW1  662   3.060   0.673   0.248  0.0684 -2.1252 -1.2784
  221SOL    HW2  663   3.063   0.792   0.129 -0.6875  1.3209  3.3749
  222SOL     OW  664   1.650   1.384   0.833 -0.3162 -0.0376  0.1224
  222SOL    HW1  665   1.593   1.354   0.750 -1.4815 -0.1062  1.7571
  222SOL    HW2  666   1.734   1.428   0.801  2.9401 -1.0196  1.1419
  223SOL     OW  667   1.118   0.413   2.875 -1.1490  0.0518 -0.2585
  223SOL    HW1  668   1.211   0.362   2.885 -0.4473 -0.2408  0.5776
  223SOL    HW2  669   1.049   0.346   2.854  0.7108 -0.7381 -0.9563
  224SOL     OW  670   0.857   2.850   1.049 -0.1909 -0.0633  0.3978
  224SOL    HW1  671   0.865   2.913   1.126 -1.8788  1.2535 -2.5682
  224SOL    HW2  672   0.951   2.814   1.023 -1.2530 -0.9126 -1.3482
  225SOL     OW  673   0.796   3.015   2.091 -0.0639  0.2218  0.2116
  225SOL    HW1  674   0.749   2.949   2.033  0.8705  1.2457  0.9908
  225SOL    HW2  675   0.744   3.043   2.177  0.6808 -1.1830  0.5447
  226SOL     OW  676   1.480   1.609   0.540  0.0732 -0.0667  0.9013
  226SOL    HW1  677   1.549   1.679   0.567  0.2036  0.7152 -1.0310
  226SOL    HW2  678   1.428   1.579   0.621  1.4282  0.2095 -2.1479
  227SOL     OW  679   0.494   1.891   1.242  0.6766  0.3148  0.4379
  227SOL    HW1  680   0.434   1.946   1.182  1.4405  0.1572  1.8063
  227SOL    HW2  681   0.551   1.822   1.189  0.5513 -0.4969 -0.0208
  228SOL     OW  682   0.054   1.864   0.504 -0.3113 -0.1430 -0.4421
  228SOL    HW1  683   0.116   1.839   0.425  2.4068 -0.1030  1.8603
  228SOL    HW2  684   0.101   1.918   0.575 -0.0458 -0.8897 -0.2907
  229SOL     OW  685   2.687   0.300   2.816 -0.3631 -0.1324 -0.4373
  229SOL    HW1  686   2.629   0.214   2.814 -1.2002  0.1140 -0.2912
  229SOL    HW2  687   2.783   0.270   2.787 -0.6750  1.1925 -1.6266
  230SOL     OW  688   2.401   0.740   0.470 -0.1352 -0.3514 -0.3370
  230SOL    HW1  689   2.353   0.690   0.539  1.8113 -0.1688 -0.9280
  230SOL    HW2  690   2.341   0.783   0.401 -0.2059  1.6080  1.0521
  231SOL     OW  691   1.995   1.474   2.932 -0.2612  0.2069 -0.1127
  231SOL    HW1  692   1.938   1.456   2.850 -1.5190  1.8596  0.9898
  231SOL    HW2  693   1.941   1.531   2.995 -0.7112 -2.2378 -1.4718
  232SOL     OW  694   1.938   1.986   0.918  0.4637 -0.2045 -0.0365
  232SOL    HW1  695   1.975   1.893   0.914  0.6616 -0.1060  1.2419
  232SOL    HW2  696   1.968   2.047   0.842 -2.9294 -0.4489 -0.1754
  233SOL     OW  697   0.192   2.695   1.494  0.4302  0.2353  0.2726
  233SOL    HW1  698   0.277   2.667   1.543  2.7441  1.0614  0.7958
  233SOL    HW2  699   0.108   2.655   1.543 -0.8107  1.4086  0.9506
  234SOL     OW  700   0.739   0.196   2.494 -0.0149  0.3545 -0.3449
  234SOL    HW1  701   0.831   0.226   2.508 -1.5185  0.1422  0.1459
  234SOL    HW2  702   0.681   0.278   2.504  0.0805 -1.6569  1.6571
  235SOL     OW  703   2.482   1.042   1.910 -0.1542 -0.4512  0.1521
  235SOL    HW1  704   2.530   0.956   1.935  0.8082 -2.1431 -0.8153
  235SOL    HW2  705   2.468   1.056   1.810  0.0074 -1.3888 -3.3031
  236SOL     OW  706   1.224   2.687   1.632  0.3280  0.1525  0.1668
  236SOL    HW1  707   1.140   2.652   1.676  0.1460 -0.6370  2.1959
  236SOL    HW2  708   1.276   2.616   1.585 -0.2992  3.2318  0.4913
  237SOL     OW  709   0.552   1.520   2.684  0.5667 -0.5876  0.2929
  237SOL    HW1  710   0.610   1.461   2.621  1.2553 -1.4108 -0.3055
  237SOL    HW2  711   0.573   1.621   2.674 -1.6954  3.9379 -0.0996
  238SOL     OW  712   1.009   0.616   2.255  0.0741 -0.2630  0.4702
  238SOL    HW1  713   1.003   0.704   2.308  0.4893 -0.2383  1.1889
  238SOL    HW2  714   0.926   0.555   2.266 -0.0814  0.9236  0.7338
  239SOL     OW  715   0.542   1.942   2.280  0.1496  0.7285 -0.0492
  239SOL    HW1  716   0.570   1.931   2.184  2.3220  1.2177  0.7103
  239SOL    HW2  717   0.556   2.036   2.305  2.0577 -0.5769 -2.1727
  240SOL     OW  718   2.302   2.828   0.247 -0.0614 -0.3627 -0.0568
  240SOL    HW1  719   2.205   2.803   0.221  0.2079  0.5848 -0.4125
  240SOL    HW2  720   2.336   2.917   0.202  0.6839  1.8040 -0.6131
  241SOL     OW  721   0.209   1.010   0.184 -0.1442 -0.0855  0.2291
  241SOL    HW1  722   0.170   1.020   0.276 -0.9640  0.7040  0.5856
  241SOL    HW2  723   0.164   1.074   0.123 -1.4992 -0.5003 -0.3640
  242SOL     OW  724   1.388   2.499   1.526 -0.3658  0.0247 -0.5874
  242SOL    HW1  725   1.473   2.477   1.584  0.9944 -1.0742  1.5750
  242SOL    HW2  726   1.409   2.528   1.431  1.7497  0.2779  0.2947
  243SOL     OW  727   0.710   2.418   1.842  0.2120  0.2416  0.2537
  243SOL    HW1  728   0.766   2.491   1.798 -0.9330 -0.9173 -1.9419
  243SOL    HW2  729   0.621   2.401   1.794  3.2000 -0.2894 -1.6002
  244SOL     OW  730   2.456   0.595   2.531  0.1985  0.2464  0.5282
  244SOL    HW1  731   2.376   0.532   2.525  1.1779 -0.6051 -0.2412
  244SOL    HW2  732   2.429   0.691   2.558 -0.2615  0.5281  1.2625
  245SOL     OW  733   1.490   2.536   1.267  0.2234 -0.1442 -0.4263
  245SOL    HW1  734   1.531   2.447   1.231 -0.0102 -1.0091 -1.8406
  245SOL    HW2  735   1.554   2.610   1.269 -2.3346 -1.7697  2.6388
  246SOL     OW  736   1.407   0.011   0.410 -0.1817  0.2198  0.3362
  246SOL    HW1  737   1.465   3.024   0.474  0.8482  0.8268 -0.2296
  246SOL    HW2  738   1.337   0.070   0.454  1.6111 -0.9565 -0.6527
  247SOL     OW  739   1.657   0.544   1.862  0.0120 -0.0228 -0.0522
  247SOL    HW1  740   1.600   0.487   1.805  1.3212 -0.4490 -0.9382
  247SOL    HW2  741   1.723   0.487   1.914  0.5656 -0.3417  1.7697
  248SOL     OW  742   0.204   2.046   1.992  0.3749 -0.6566 -0.0819
  248SOL    HW1  743   0.275   2.013   1.925  0.9829 -0.6606 -3.9035
  248SOL    HW2  744   0.112   2.001   1.984 -1.7256  2.3660  0.4634
  249SOL     OW  745   0.222   0.247   0.212  0.0026 -0.5110  0.1157
  249SOL    HW1  746   0.150   0.289   0.157  2.1251  0.2868 -1.1188
  249SOL    HW2  747   0.200   0.239   0.309 -0.8200  1.0796 -4.0195
  250SOL     OW  748   2.648   0.077   2.490 -0.0193  0.1252  0.0539
  250SOL    HW1  749   2.617   0.097   2.587 -0.0829  0.1239 -2.9506
  250SOL    HW2  750   2.570   0.070   2.426  0.4016  0.3399  0.0695
  251SOL     OW  751   1.451   0.530   0.219 -0.3177  0.9315  0.6458
  251SOL    HW1  752   1.403   0.450   0.186 -0.0059  2.5072  2.5766
  251SOL    HW2  753   1.438   0.603   0.150 -2.4487 -0.0347 -0.7232
  252SOL     OW  754   1.064   2.620   2.273  0.3631 -0.3424  0.0849
  252SOL    HW1  755   0.964   2.623   2.258  0.1972  0.1834  1.6327
  252SOL    HW2  756   1.114   2.554   2.214 -0.9560  1.6123  2.9341
  253SOL     OW  757   2.538   2.564   0.664  0.1760 -0.0369  0.6921
  253SOL    HW1  758   2.468   2.620   0.622  1.7099 -1.7653  2.3770
  253SOL    HW2  759   2.625   2.582   0.612  3.2366  0.8817  0.6954
  254SOL     OW  760   2.169   1.088   1.054  0.5687 -0.3650  0.1835
  254SOL    HW1  761   2.170   1.016   1.126 -1.6057  0.4998 -2.2103
  254SOL    HW2  762   2.222   1.169   1.077 -2.0757 -2.1690  2.5089
  255SOL     OW  763   0.517   2.558   1.294 -0.6273  0.2968 -0.7706
  255SOL    HW1  764   0.541   2.659   1.304 -0.5809 -0.0088 -0.8306
  255SOL    HW2  765   0.508   2.528   1.198  1.9680 -1.5002 -0.7724
  256SOL     OW  766   2.050   1.675   1.576 -0.7195  0.0131 -0.3728
  256SOL    HW1  767   2.023   1.678   1.481  1.6471 -1.1825  0.2921
  256SOL    HW2  768   2.110   1.591   1.593  3.6022  0.6380 -1.3229
  257SOL     OW  769   0.300   2.368   2.633 -0.1585 -0.4585 -0.3846
  257SOL    HW1  770   0.282   2.304   2.710 -0.0081 -1.9236  0.1367
  257SOL    HW2  771   0.390   2.420   2.642  0.9126 -0.0105  1.7024
  258SOL     OW  772   0.719   2.680   0.892 -0.2815 -0.0694 -0.6115
  258SOL    HW1  773   0.761   2.754   0.947 -1.8383 -2.0479  0.6898
  258SOL    HW2  774   0.681   2.614   0.959 -1.3282  3.2401  0.3134
  259SOL     OW  775   1.415   0.630   2.800 -0.6100 -0.2905  0.2038
  259SOL    HW1  776   1.402   0.702   2.868  0.5761 -2.5227  2.5991
  259SOL    HW2  777   1.336   0.627   2.737 -0.3503  0.5668 -0.2442
  260SOL     OW  778   0.134   0.417   1.096  0.4516 -0.8884 -0.1981
  260SOL    HW1  779   0.061   0.411   1.029  2.0869  0.7716  0.7375
  260SOL    HW2  780   0.224   0.392   1.061 -1.7590 -0.3278  0.0810
  261SOL     OW  781   0.661   0.026   2.309  0.0884 -0.2804 -0.6213
  261SOL    HW1  782   0.644   2.996   2.338 -0.8879 -0.3984 -1.6127
  261SOL    HW2  783   0.682   0.081   2.395 -1.2004  0.5185  3.4628
  262SOL     OW  784   0.977   2.667   1.778  0.2509 -0.4681  0.2500
  262SOL    HW1  785   0.901   2.633   1.715  1.9407 -0.5561 -0.2522
  262SOL    HW2  786   1.011   2.592   1.838 -2.4428 -0.4420  0.3990
  263SOL     OW  787   0.804   2.070   3.023 -0.5016 -0.2240  0.1558
  263SOL    HW1  788   0.855   2.099   2.939  1.0500  2.1966  1.0792
  263SOL    HW2  789   0.856   2.084   0.043  0.7849  1.4958  0.2912
  264SOL     OW  790   1.666   1.500   1.087 -0.1008 -0.3089 -0.1476
  264SOL    HW1  791   1.748   1.558   1.065  1.2049 -1.6074  1.5255
  264SOL    HW2  792   1.643   1.446   1.004 -0.3286 -0.7203  3.4188
  265SOL     OW  793   0.851   2.325   0.375 -0.1508  0.0121 -0.7305
  265SOL    HW1  794   0.873   2.317   0.474  0.5688 -2.2758  3.2146
  265SOL    HW2  795   0.887   2.412   0.333  1.9049  1.6583 -0.5795
  266SOL     OW  796   2.770   0.871   0.831 -0.2010  0.3344 -0.5890
  266SOL    HW1  797   2.785   0.786   0.771  1.5281 -0.9589  1.3223
  266SOL    HW2  798   2.855   0.906   0.873 -2.1318  0.4623  1.2466
  267SOL     OW  799   0.209   1.386   0.093 -0.8855  0.2232  0.3044
  267SOL    HW1  800   0.208   1.361   0.193  2.5407 -1.1975  0.1861
  267SOL    HW2  801   0.283   1.454   0.069 -0.9338 -0.0277 -1.2533
  268SOL     OW  802   1.408   0.412   0.543  0.4334 -0.0428  0.2540
  268SOL    HW1  803   1.461   0.358   0.468  2.3104 -0.0932 -0.9703
  268SOL    HW2  804   1.383   0.354   0.624  0.1810 -0.1701 -2.3908
  269SOL     OW  805   2.987   0.711   2.154  0.2803 -0.3720  0.2503
  269SOL    HW1  806   2.972   0.643   2.083 -2.0931 -1.5757  0.6282
  269SOL    HW2  807   0.006   0.691   2.204 -0.1085  0.8475 -1.9048
  270SOL     OW  808   2.877   1.130   0.326 -0.2537 -0.3025  0.1909
  270SOL    HW1  809   2.808   1.092   0.392 -2.2389 -2.4185 -1.3787
  270SOL    HW2  810   2.870   1.086   0.235 -0.4327 -2.0256 -2.3431
  271SOL     OW  811   2.674   1.457   1.965 -0.3999  0.3097  0.0602
  271SOL    HW1  812   2.659   1.534   2.028 -0.5831 -1.1943 -2.1086
  271SOL    HW2  813   2.741   1.482   1.894  1.4639  1.0230  1.8795
  272SOL     OW  814   2.510   2.395   1.732 -0.6386  0.5845 -0.6103
  272SOL    HW1  815   2.588   2.334   1.746  1.3198 -0.2881 -2.1748
  272SOL    HW2  816   2.459   2.408   1.821 -1.3696  1.8542 -1.5828
  273SOL     OW  817   0.126   2.451   0.319  0.1914  0.2073  0.2325
  273SOL    HW1  818   0.178   2.483   0.234  0.8210  1.2042  0.8327
  273SOL    HW2  819   0.118   2.350   0.310  1.2734  0.6790  0.5474
  274SOL     OW  820   0.900   2.266   0.650 -0.6353  0.0054 -0.4440
  274SOL    HW1  821   0.821   2.199   0.654 -0.9823  1.2651  0.7478
  274SOL    HW2  822   0.917   2.320   0.733  0.2095 -1.9354 -0.7640
  275SOL     OW  823   1.594   2.027   2.691  0.7916 -0.0170 -0.2051
  275SOL    HW1  824   1.660   2.055   2.761 -2.2298 -1.7504 -2.0940
  275SOL    HW2  825   1.642   2.012   2.598 -1.5218  0.1513 -1.4329
  276SOL     OW  826   2.367   1.510   2.049  0.1322 -0.3284 -0.6035
  276SOL    HW1  827   2.411   1.459   1.974 -0.6008  1.9208  4.0589
  276SOL    HW2  828   2.442   1.563   2.097 -1.4878 -0.4884  3.3217
  277SOL     OW  829   2.202   0.229   0.855 -0.1018  0.1935  0.0217
  277SOL    HW1  830   2.165   0.275   0.770 -0.4013  1.2304 -0.4172
  277SOL    HW2  831   2.128   0.222   0.922  0.5991  1.5438 -1.4026
  278SOL     OW  832   1.589   0.702   2.562 -0.0058 -0.3676  0.2369
  278SOL    HW1  833   1.496   0.705   2.609 -2.6481  0.3484 -1.6400
  278SOL    HW2  834   1.623   0.797   2.548 -2.2734  1.0420 -1.2376
  279SOL     OW  835   1.086   2.704   0.962  0.2052  0.1478  0.2334
  279SOL    HW1  836   1.121   2.659   1.044 -0.9969 -0.5713 -1.9120
  279SOL    HW2  837   1.135   2.674   0.879 -0.2963  0.6935  2.5310
  280SOL     OW  838   1.172   1.149   0.815 -0.0958 -0.0363 -0.3267
  280SOL    HW1  839   1.148   1.105   0.724  0.1859  2.4507 -2.0623
  280SOL    HW2  840   1.091   1.176   0.871 -0.6658 -0.3299  0.3839
  281SOL     OW  841   2.122   1.869   0.245 -0.0783 -0.1771  1.0464
  281SOL    HW1  842   2.184   1.897   0.172 -1.7080 -1.6958  1.7708
  281SOL    HW2  843   2.157   1.785   0.289 -0.4228  0.6715 -3.8001
  282SOL     OW  844   2.856   1.374   0.450  0.1765  1.2803  0.2357
  282SOL    HW1  845   2.853   1.277   0.400  0.2589 -2.8434  1.1657
  282SOL    HW2  846   2.893   1.441   0.387 -2.1435 -2.3403  1.6892
  283SOL     OW  847   1.649   2.971   2.626 -0.1874 -0.4296  0.2836
  283SOL    HW1  848   1.700   2.923   2.550 -1.0734  0.1458 -2.9690
  283SOL    HW2  849   1.574   3.029   2.582 -0.5975 -0.9465 -2.0701
  284SOL     OW  850   0.559   0.193   2.772  0.6624  0.2345 -0.5454
  284SOL    HW1  851   0.625   0.267   2.753 -1.7838 -2.1491  0.1861
  284SOL    HW2  852   0.559   0.177   2.874 -2.4484 -0.9995 -0.9658
  285SOL     OW  853   1.803   1.807   2.991  0.2407  0.2995  0.1661
  285SOL    HW1  854   1.756   1.767   2.908 -2.7559 -2.0392 -0.0462
  285SOL    HW2  855   1.900   1.816   2.980 -0.6266  1.4792 -2.4143
  286SOL     OW  856   1.927   2.006   1.508  0.1563 -0.0768  0.1149
  286SOL    HW1  857   1.956   1.927   1.567  0.4467 -1.1891  0.9562
  286SOL    HW2  858   1.859   2.066   1.553  1.7682 -3.5667 -0.8772
  287SOL     OW  859   1.562   0.194   1.767  0.2207  0.3219 -0.3239
  287SOL    HW1  860   1.595   0.172   1.860  0.8928  1.1950 -2.5048
  287SOL    HW2  861   1.470   0.252   1.766 -1.3965  1.0503 -0.3142
  288SOL     OW  862   0.471   2.748   2.055  0.0671 -0.0936 -0.3090
  288SOL    HW1  863   0.425   2.663   2.018 -0.1428  1.8424 -1.5405
  288SOL    HW2  864   0.472   2.744   2.154 -1.1000  1.4479  0.9932
  289SOL     OW  865   0.315   1.785   0.765  0.3057  0.0207 -0.0650
  289SOL    HW1  866   0.266   1.742   0.840  0.0903 -0.3378  0.5225
  289SOL    HW2  867   0.275   1.873   0.743  1.3775  0.2788  1.6516
  290SOL     OW  868   0.964   1.984   1.690  0.2762 -0.0562  0.0127
  290SOL    HW1  869   0.969   1.919   1.774 -0.5071  0.2933  1.3729
  290SOL    HW2  870   1.058   1.993   1.649 -0.7984  0.9777  0.4483
  291SOL     OW  871   1.546   0.243   0.383 -0.1536 -0.4291  0.4618
  291SOL    HW1  872   1.474   0.180   0.360  1.6745  2.5053 -1.9981
  291SOL    HW2  873   1.587   0.275   0.292  0.0243  1.6238 -1.6914
  292SOL     OW  874   0.411   0.332   1.316  0.3908 -0.0514  0.0337
  292SOL    HW1  875   0.372   0.424   1.345  0.7698  1.8715  3.2223
  292SOL    HW2  876   0.396   0.310   1.217 -1.3045  0.1311  0.7108
  293SOL     OW  877   2.496   1.486   0.932  0.2421 -0.4231 -0.2614
  293SOL    HW1  878   2.597   1.495   0.924 -1.5031  0.7207 -0.8299
  293SOL    HW2  879   2.450   1.485   0.840 -1.4197 -1.6416 -0.3181
  294SOL     OW  880   0.366   0.052   2.236 -0.4886 -0.2724  0.2804
  294SOL    HW1  881   0.328   3.035   2.272 -2.8191  0.4804 -0.9053
  294SOL    HW2  882   0.458   0.077   2.265 -3.6406  2.2507 -1.1636
  295SOL     OW  883   0.838   1.481   0.522  0.4385 -0.0393  0.0062
  295SOL    HW1  884   0.924   1.485   0.579 -0.4899 -2.2416 -1.4384
  295SOL    HW2  885   0.862   1.463   0.424 -0.0513  0.9366  1.2725
  296SOL     OW  886   2.189   1.376   0.831 -0.3687  0.2569  0.5583
  296SOL    HW1  887   2.176   1.299   0.764 -2.7640  0.0706 -3.6322
  296SOL    HW2  888   2.265   1.439   0.799  1.1283 -1.3801 -1.8334
  297SOL     OW  889   1.767   0.580   2.744 -0.3188 -0.1026 -1.1294
  297SOL    HW1  890   1.744   0.630   2.832 -1.1141 -0.6001 -0.5508
  297SOL    HW2  891   1.722   0.630   2.667 -0.0637 -0.1023 -1.8489
  298SOL     OW  892   0.989   0.274   2.556  0.2716  1.1030  0.4003
  298SOL    HW1  893   0.967   0.258   2.658 -1.3733  1.4008 -0.3890
  298SOL    HW2  894   1.038   0.362   2.531 -0.3228 -2.1972 -0.2175
  299SOL     OW  895   1.014   0.417   1.855  0.2208 -0.0573  0.6560
  299SOL    HW1  896   1.094   0.474   1.874 -1.4891  1.2030 -2.6037
  299SOL    HW2  897   0.959   0.460   1.783  1.1531 -0.9888 -0.6676
  300SOL     OW  898   2.883   0.295   1.685 -0.6935  0.1337 -0.0711
  300SOL    HW1  899   2.886   0.271   1.587  0.8259  1.3499 -0.6489
  300SOL    HW2  900   2.947   0.235   1.736  1.5805 -0.1184 -0.8939
  301SOL     OW  901   1.830   0.729   1.763  0.3198  1.0294  0.3015
  301SOL    HW1  902   1.774   0.797   1.705 -0.9794  0.7605 -1.8709
  301SOL    HW2  903   1.779   0.651   1.795  0.2404  2.7080 -2.5292
  302SOL     OW  904   0.723   2.851   2.960  0.6354  0.0166 -0.5216
  302SOL    HW1  905   0.771   2.873   3.044  1.8536 -3.0202 -3.1065
  302SOL    HW2  906   0.740   2.931   2.899  2.6593  1.3749 -1.2311
  303SOL     OW  907   2.063   1.881   1.749  0.6422  0.4390 -0.1925
  303SOL    HW1  908   2.141   1.949   1.738 -0.3491 -0.0202 -2.6126
  303SOL    HW2  909   2.067   1.807   1.680  1.5200  0.7880  0.6411
  304SOL     OW  910   0.418   0.023   0.525 -0.2230 -0.1175  0.8115
  304SOL    HW1  911   0.472   0.092   0.476 -2.4056  0.1405  1.6349
  304SOL    HW2  912   0.477   3.033   0.589 -1.5911 -2.8038 -0.1905
  305SOL     OW  913   1.136   0.838   0.467 -0.4272  0.4276 -0.1877
  305SOL    HW1  914   1.175   0.891   0.389 -1.4242  0.6263 -2.0188
  305SOL    HW2  915   1.183   0.856   0.557 -0.9621 -2.9841 -1.5919
  306SOL     OW  916   0.559   1.249   0.142  0.2687  0.2673  0.6604
  306SOL    HW1  917   0.641   1.293   0.105  1.8423  0.8843  3.5793
  306SOL    HW2  918   0.512   1.302   0.218 -2.4631  0.0328 -3.6007
  307SOL     OW  919   0.631   0.638   1.878 -0.5608 -0.7110  0.2856
  307SOL    HW1  920   0.611   0.640   1.979 -0.2742 -0.8950 -4.0069
  307SOL    HW2  921   0.647   0.547   1.839  1.7972  0.5062 -0.1359
  308SOL     OW  922   0.392   0.296   1.056  0.6119  0.2279  0.6898
  308SOL    HW1  923   0.407   0.381   0.995  0.3381  1.1648 -2.1999
  308SOL    HW2  924   0.427   0.218   1.003  0.3870  1.6498 -0.0200
  309SOL     OW  925   2.275   1.080   0.046  0.2050 -0.0969  0.1303
  309SOL    HW1  926   2.376   1.067   0.044 -2.7795  1.1069  1.2436
  309SOL    HW2  927   2.255   1.175   0.008  2.1355  3.6083  0.7577
  310SOL     OW  928   1.176   1.516   2.923  0.1315  0.2588 -0.1463
  310SOL    HW1  929   1.181   1.588   2.850  1.8440  1.0395  0.2692
  310SOL    HW2  930   1.163   1.549   3.023  1.9976 -2.3372  1.2466
  311SOL     OW  931   1.965   2.430   2.059 -0.2463  0.1221 -0.4472
  311SOL    HW1  932   1.981   2.332   2.056 -3.0136  0.0612 -0.7995
  311SOL    HW2  933   1.874   2.451   2.023 -0.7689  2.9783  2.9782
  312SOL     OW  934   2.241   2.933   2.956 -0.1830  0.2583 -0.0564
  312SOL    HW1  935   2.242   2.993   2.878  2.1020 -0.4200 -1.3738
  312SOL    HW2  936   2.149   2.936   3.003  1.4404 -1.1381  0.3639
  313SOL     OW  937   0.753   0.630   0.313 -0.2691 -0.3792 -0.1343
  313SOL    HW1  938   0.650   0.636   0.317 -2.9254 -3.6833  0.6746
  313SOL    HW2  939   0.786   0.551   0.369 -1.6791  0.4954 -1.9748
  314SOL     OW  940   2.687   1.544   2.961  0.0650 -0.2483  0.6531
  314SOL    HW1  941   2.660   1.553   2.866 -0.1072  3.9237  2.4063
  314SOL    HW2  942   2.780   1.589   2.979 -0.4878  1.2566  4.4849
  315SOL     OW  943   1.622   0.755   2.066  0.1208  0.5229 -0.0997
  315SOL    HW1  944   1.659   0.701   1.988  0.7955 -1.6113  2.2803
  315SOL    HW2  945   1.691   0.780   2.133 -1.2024  0.9238 -1.1124
  316SOL     OW  946   0.117   0.807   0.491 -0.0985  0.2200 -0.2227
  316SOL    HW1  947   0.217   0.821   0.507 -0.9744 -1.1309  0.8024
  316SOL    HW2  948   0.063   0.892   0.489 -0.0481 -0.2913  0.5656
  317SOL     OW  949   0.687   0.278   0.256 -0.2327 -0.1722  0.1121
  317SOL    HW1  950   0.713   0.345   0.186 -1.6706 -1.6569  2.6481
  317SOL    HW2  951   0.618   0.209   0.221  2.5613 -1.7389 -1.5405
  318SOL     OW  952   2.275   2.533   0.999  0.4178  0.2612  0.1953
  318SOL    HW1  953   2.216   2.512   1.079  0.7484 -0.3334 -0.2300
  318SOL    HW2  954   2.229   2.563   0.920  1.0219 -1.8190  1.7039
  319SOL     OW  955   1.053   1.486   0.664 -0.1176 -0.1941 -0.4168
  319SOL    HW1  956   1.100   1.448   0.583 -3.1456  2.5121  1.2175
  319SOL    HW2  957   1.110   1.561   0.706 -0.9345  1.8037 -0.9178
  320SOL     OW  958   0.595   2.245   1.120 -0.4360 -0.5904 -0.5768
  320SOL    HW1  959   0.530   2.170   1.103 -1.2494 -2.5883 -0.0121
  320SOL    HW2  960   0.645   2.226   1.202 -2.0304  2.8088 -3.2054
  321SOL     OW  961   2.388   2.424   1.979  0.4664 -0.6169  0.6056
  321SOL    HW1  962   2.344   2.355   2.038  1.8651  0.7041 -0.6910
  321SOL    HW2  963   2.334   2.513   1.967 -0.8153  3.2640 -1.3945
  322SOL     OW  964   2.829   2.303   2.670 -0.6021  0.0356 -0.2095
  322SOL    HW1  965   2.895   2.268   2.599  1.3306 -0.7935 -0.8374
  322SOL    HW2  966   2.805   2.401   2.651 -0.8424  0.7669 -1.0144
  323SOL     OW  967   2.773   0.649   0.679  0.1723 -0.2831  0.1889
  323SOL    HW1  968   2.768   0.698   0.590 -0.8842 -0.0146  0.2390
  323SOL    HW2  969   2.678   0.617   0.703 -0.9487 -3.1503  1.9101
  324SOL     OW  970   2.343   2.193   2.368  0.6468 -0.3629  0.2715
  324SOL    HW1  971   2.313   2.285   2.377 -0.9037 -5.2645  0.6952
  324SOL    HW2  972   2.317   2.133   2.450  1.6912  1.3707  0.5010
  325SOL     OW  973   1.147   0.478   2.462 -0.3714 -0.9415  0.3254
  325SOL    HW1  974   1.112   0.527   2.378  0.3656 -0.4502 -2.2208
  325SOL    HW2  975   1.163   0.550   2.533  2.7690  0.2358  3.3888
  326SOL     OW  976   2.772   2.337   0.704 -0.1750  0.7290  0.2252
  326SOL    HW1  977   2.767   2.414   0.773 -1.0295  4.0646 -0.7018
  326SOL    HW2  978   2.865   2.308   0.668  0.2702 -2.1526  0.2593
  327SOL     OW  979   2.703   2.979   3.061  0.7899 -0.1173  0.5077
  327SOL    HW1  980   2.624   2.937   3.022  2.3304  2.0673  3.3943
  327SOL    HW2  981   2.783   2.998   3.000  0.1194  2.1645  0.5138
  328SOL     OW  982   0.956   0.651   0.830  0.2145 -0.5542  0.0912
  328SOL    HW1  983   1.042   0.610   0.793 -0.7174 -0.4670 -0.0257
  328SOL    HW2  984   0.970   0.753   0.846 -2.5674 -1.1881 -0.2921
  329SOL     OW  985   2.230   0.649   1.510  0.3236 -0.1091  0.3332
  329SOL    HW1  986   2.231   0.736   1.453  1.0515  0.5417  0.9222
  329SOL    HW2  987   2.241   0.670   1.608  0.4262 -1.0822 -1.0032
  330SOL     OW  988   1.122   0.367   0.716 -0.9843 -0.0871 -0.0299
  330SOL    HW1  989   1.105   0.425   0.636 -1.7263 -0.2237 -0.2838
  330SOL    HW2  990   1.154   0.423   0.794  1.7779  1.2488 -3.7343
  331SOL     OW  991   0.645   1.758   1.630  0.4749 -0.1882 -0.3670
  331SOL    HW1  992   0.718   1.735   1.558  2.7100 -0.7017 -4.1113
  331SOL    HW2  993   0.686   1.776   1.724 -1.0946  0.5226  3.0628
  332SOL     OW  994   2.226   2.100   1.781  0.5287 -0.1420  0.4669
  332SOL    HW1  995   2.159   2.124   1.849  0.7875 -1.3811 -0.3449
  332SOL    HW2  996   2.320   2.120   1.809 -1.9084 -0.1282  1.1195
  333SOL     OW  997   2.946   0.016   0.754 -0.2215  0.1994  0.4661
  333SOL    HW1  998   2.926   3.044   0.843 -2.0569  1.5207  0.5525
  333SOL    HW2  999   2.886   3.050   0.677  1.3172 -0.5416 -4.4941
  334SOL     OW 1000   3.032   1.648   0.770 -0.3760 -0.0129  0.3780
  334SOL    HW1 1001   0.046   1.638   0.832 -3.9642  0.1439 -2.0512
  334SOL    HW2 1002   3.049   1.707   0.688  1.8517  2.0463 -1.7612
  335SOL     OW 1003   0.689   2.650   2.802 -0.2321  0.2232  0.3294
  335SOL    HW1 1004   0.731   2.568   2.849  0.5638  1.3682  0.3094
  335SOL    HW2 1005   0.712   2.734   2.859  0.8304 -0.2907  2.4502
  336SOL     OW 1006   0.172   2.421   1.805  0.4890  0.2288 -0.3871
  336SOL    HW1 1007   0.155   2.410   1.703 -1.0896  0.3120 -2.4857
  336SOL    HW2 1008   0.162   2.521   1.838 -0.4949  1.3484  2.7000
  337SOL     OW 1009   0.946   2.009   2.175  0.2259  0.5182  0.4518
  337SOL    HW1 1010   0.956   1.916   2.206 -1.0242  3.7311 -0.8416
  337SOL    HW2 1011   1.040   2.050   2.170 -0.4243  1.0428  0.4040
  338SOL     OW 1012   1.107   0.051   2.499  0.1563  0.1549 -0.0052
  338SOL    HW1 1013   1.161   0.040   2.416 -0.7348 -3.0945  1.4416
  338SOL    HW2 1014   1.058   0.143   2.499  1.3501 -3.4977 -1.9155
  339SOL     OW 1015   0.075   1.246   2.782 -0.1245 -0.3058 -0.3109
  339SOL    HW1 1016   0.019   1.173   2.750  1.7473  1.5455 -0.1993
  339SOL    HW2 1017   0.015   1.330   2.794 -1.7259 -1.9047  2.0738
  340SOL     OW 1018   2.221   0.465   1.314 -0.3867  0.3333 -0.1130
  340SOL    HW1 1019   2.219   0.531   1.391  0.4476 -0.5127 -2.5177
  340SOL    HW2 1020   2.309   0.413   1.319  0.9534  1.7975  1.0468
  341SOL     OW 1021   1.798   0.920   0.821  0.8462 -0.3664 -0.3034
  341SOL    HW1 1022   1.770   0.910   0.723  0.8595 -1.3482  1.8298
  341SOL    HW2 1023   1.898   0.940   0.834 -1.0913  0.0929  2.5714
  342SOL     OW 1024   2.257   2.649   2.719  0.2413 -0.6612 -0.1469
  342SOL    HW1 1025   2.223   2.645   2.815 -1.5208 -1.3160  2.1596
  342SOL    HW2 1026   2.173   2.661   2.659 -2.6272  1.5238  1.0368
  343SOL     OW 1027   2.793   2.558   0.923  0.4196 -0.5985  0.6607
  343SOL    HW1 1028   2.847   2.552   1.008 -0.2307  2.0410  0.8016
  343SOL    HW2 1029   2.693   2.575   0.942 -0.6096  4.6501  0.3118
  344SOL     OW 1030   2.334   2.852   0.862  0.0999 -0.0717 -0.4027
  344SOL    HW1 1031   2.330   2.913   0.779 -2.9554  0.7085 -1.5848
  344SOL    HW2 1032   2.244   2.809   0.881  1.3394  0.8445 -2.1464
  345SOL     OW 1033   2.620   2.218   0.153  0.4269 -0.1246 -0.0137
  345SOL    HW1 1034   2.653   2.237   0.065 -2.6705 -3.4603  0.6868
  345SOL    HW2 1035   2.588   2.308   0.180 -0.3936  1.1812  1.1155
  346SOL     OW 1036   1.244   1.989   1.648 -0.8705 -0.0299  0.2964
  346SOL    HW1 1037   1.287   2.078   1.620  1.7073  1.1950 -1.8850
  346SOL    HW2 1038   1.252   1.919   1.572 -2.6864  0.1041  0.0919
  347SOL     OW 1039   1.318   2.036   1.918  0.4719  0.0915 -0.2710
  347SOL    HW1 1040   1.383   1.960   1.934  0.9157  0.2106  2.4144
  347SOL    HW2 1041   1.278   2.028   1.825  2.2690 -3.3289 -2.0184
  348SOL     OW 1042   0.782   1.630   1.291 -0.2920  0.3210 -0.9619
  348SOL    HW1 1043   0.713   1.664   1.225  2.2280 -3.1832 -0.4438
  348SOL    HW2 1044   0.830   1.707   1.332 -1.8116  0.2259 -0.7882
  349SOL     OW 1045   1.768   1.383   1.532 -0.4868  0.0796 -0.3997
  349SOL    HW1 1046   1.804   1.395   1.631  0.3031  0.5692  3.5845
  349SOL    HW2 1047   1.670   1.410   1.529  0.4145  2.0246 -0.7407
  350SOL     OW 1048   2.401   2.326   0.728  0.6584 -0.3287 -0.2077
  350SOL    HW1 1049   2.349   2.324   0.644  0.1464 -0.4968  1.0878
  350SOL    HW2 1050   2.474   2.397   0.718 -1.2700 -1.8519 -0.7589
  351SOL     OW 1051   0.345   3.046   1.750  1.1379 -0.0124 -0.4774
  351SOL    HW1 1052   0.318   3.022   1.654  1.7421 -3.1547 -3.6955
  351SOL    HW2 1053   0.279   2.998   1.808 -5.9267 -0.2109  0.5715
  352SOL     OW 1054   0.821   1.015   0.134  0.6320  0.3009 -0.1950
  352SOL    HW1 1055   0.859   0.959   0.208  1.8199  0.5310 -1.6902
  352SOL    HW2 1056   0.743   0.964   0.086 -0.0755  1.8147 -3.3574
  353SOL     OW 1057   0.739   1.622   2.959  0.7663  0.2821  0.0493
  353SOL    HW1 1058   0.818   1.686   2.967 -2.3086  1.6850  2.4031
  353SOL    HW2 1059   0.695   1.628   2.869 -0.9983  2.8791  0.5940
  354SOL     OW 1060   1.831   2.578   1.708  0.0063  0.0623 -0.4821
  354SOL    HW1 1061   1.786   2.548   1.622  2.6748  1.8287  1.0937
  354SOL    HW2 1062   1.893   2.506   1.737  1.3733  0.0345 -0.9274
  355SOL     OW 1063   2.152   0.990   2.909  0.3473  0.1692  0.3668
  355SOL    HW1 1064   2.152   1.073   2.853 -1.1179 -0.7677 -0.2750
  355SOL    HW2 1065   2.171   1.018   3.008  0.8204  1.6661 -0.1810
  356SOL     OW 1066   0.277   2.133   1.353 -0.0777 -0.4761  0.2889
  356SOL    HW1 1067   0.326   2.092   1.278 -1.2882 -3.1030  3.3932
  356SOL    HW2 1068   0.179   2.148   1.332  0.5639 -0.2611  0.4183
  357SOL     OW 1069   3.040   2.748   1.677 -0.5980 -0.2786 -0.4729
  357SOL    HW1 1070   2.964   2.701   1.634 -0.7214  1.2709  3.2129
  357SOL    HW2 1071   3.041   2.838   1.629  1.5376  1.0507  0.2429
  358SOL     OW 1072   2.369   1.761   1.296  0.1634 -0.5281  0.2606
  358SOL    HW1 1073   2.323   1.852   1.311  0.7930  1.0747 -1.4677
  358SOL    HW2 1074   2.340   1.730   1.204  0.8307  0.6662  1.8479
  359SOL     OW 1075   1.935   2.371   2.387 -0.1404  0.1474  0.5921
  359SOL    HW1 1076   1.904   2.396   2.292 -1.4051  2.0993 -2.7658
  359SOL    HW2 1077   1.874   2.402   2.458  2.6721  0.0003 -0.2779
  360SOL     OW 1078   1.425   2.548   0.869  0.3297 -1.3902 -0.1964
  360SOL    HW1 1079   1.333   2.514   0.828 -3.0924 -1.4811  0.6349
  360SOL    HW2 1080   1.419   2.649   0.889 -0.8500  1.9674  1.9260
  361SOL     OW 1081   1.759   0.168   0.557 -0.3055 -0.1764 -0.1084
  361SOL    HW1 1082   1.705   0.217   0.484 -2.2373  2.2431 -0.2752
  361SOL    HW2 1083   1.705   0.103   0.611 -0.7836  2.6551 -0.2930
  362SOL     OW 1084   1.657   0.887   1.602 -0.0545  0.1038 -1.0869
  362SOL    HW1 1085   1.666   0.875   1.501 -0.2560 -0.4605 -1.0798
  362SOL    HW2 1086   1.629   0.983   1.618  0.5664  0.2074 -0.8066
  363SOL     OW 1087   1.811   1.540   2.015 -0.0306 -0.4301 -0.3058
  363SOL    HW1 1088   1.750   1.480   2.068  1.7589  0.0303  2.5661
  363SOL    HW2 1089   1.900   1.550   2.067 -0.8335  0.7659 -1.0727
  364SOL     OW 1090   0.795   0.689   1.421 -0.4072  0.1393 -0.0898
  364SOL    HW1 1091   0.732   0.644   1.351 -3.5156  0.9843  0.5303
  364SOL    HW2 1092   0.801   0.789   1.408  0.2362 -1.5950  0.6960
  365SOL     OW 1093   0.356   0.386   2.435  0.2400  0.0164  0.0927
  365SOL    HW1 1094   0.320   0.398   2.532 -0.5602  0.8237  1.0368
  365SOL    HW2 1095   0.286   0.364   2.365  1.0263 -2.4874  0.8234
  366SOL     OW 1096   2.194   1.588   2.799 -0.8801  0.5456  0.6207
  366SOL    HW1 1097   2.264   1.629   2.862 -1.5215  0.9836  2.0490
  366SOL    HW2 1098   2.115   1.548   2.848  2.8311  0.1889 -2.9114
  367SOL     OW 1099   3.026   2.638   2.855 -0.1436  0.2325  0.2113
  367SOL    HW1 1100   2.946   2.678   2.893  1.4095 -0.7222 -1.5518
  367SOL    HW2 1101   3.042   2.658   2.761 -0.4463 -2.3478  0.9729
  368SOL     OW 1102   3.006   1.205   1.071 -0.5309 -0.0192 -0.0700
  368SOL    HW1 1103   3.026   1.164   1.163 -0.6450 -2.8572 -1.1697
  368SOL    HW2 1104   3.014   1.308   1.083  1.1934  1.8337  2.0428
  369SOL     OW 1105   0.677   2.861   2.446  0.0356 -0.8661  0.0827
  369SOL    HW1 1106   0.772   2.872   2.475  1.6737 -1.3617 -0.9525
  369SOL    HW2 1107   0.614   2.913   2.507 -0.4764  0.1559 -1.2790
  370SOL     OW 1108   2.913   0.412   0.655 -0.2468  0.2209  0.7221
  370SOL    HW1 1109   2.865   0.355   0.585  0.3765 -0.3498  1.3989
  370SOL    HW2 1110   2.864   0.500   0.670 -1.5799 -0.7532 -0.9319
  371SOL     OW 1111   1.039   2.298   1.528  0.4522 -0.1209 -0.0225
  371SOL    HW1 1112   1.139   2.295   1.523  1.8866  0.6332  1.5937
  371SOL    HW2 1113   1.007   2.278   1.623  3.2365  2.1251 -0.1990
  372SOL     OW 1114   2.925   0.303   2.484  0.0778  0.2148 -0.3473
  372SOL    HW1 1115   2.928   0.260   2.574  0.6542  1.1621 -0.7265
  372SOL    HW2 1116   2.834   0.302   2.446  5.1138  3.0926  2.9356
  373SOL     OW 1117   0.182   2.025   0.697  0.0281  0.0077 -0.0887
  373SOL    HW1 1118   0.231   2.113   0.683  1.4283  0.0598  0.2702
  373SOL    HW2 1119   0.089   2.040   0.738  0.8446  0.9725 -0.5712
  374SOL     OW 1120   0.179   2.949   2.599 -0.1905 -0.2735  0.5563
  374SOL    HW1 1121   0.209   3.041   2.621  0.6628 -0.3893  0.5508
  374SOL    HW2 1122   0.182   2.944   2.492 -2.4273 -0.2281  0.8247
  375SOL     OW 1123   0.609   0.433   2.514  0.3291  0.1987  1.0156
  375SOL    HW1 1124   0.515   0.410   2.475 -2.3784 -2.0744 -1.2704
  375SOL    HW2 1125   0.608   0.511   2.580 -0.2123  1.2506 -1.7415
  376SOL     OW 1126   2.820   2.252   2.002 -0.6591 -0.3037 -0.1612
  376SOL    HW1 1127   2.772   2.323   2.056  0.5322 -0.5422 -1.5598
  376SOL    HW2 1128   2.920   2.280   2.004 -2.3645 -1.7868 -0.7834
  377SOL     OW 1129   1.314   0.236   2.876  0.0735 -0.1263 -0.4091
  377SOL    HW1 1130   1.293   0.146   2.836  3.0284 -1.6377 -1.0362
  377SOL    HW2 1131   1.401   0.275   2.844 -2.1271 -1.9921  1.0339
  378SOL     OW 1132   2.767   0.738   2.620  0.1925 -0.5413 -0.2935
  378SOL    HW1 1133   2.784   0.730   2.520 -0.5890 -1.6057  1.2104
  378SOL    HW2 1134   2.758   0.645   2.666 -0.3306 -2.6810  1.0719
  379SOL     OW 1135   1.059   0.788   0.055 -0.3002  0.0375 -0.0072
  379SOL    HW1 1136   0.998   0.822   3.049 -0.5434 -2.2386 -0.0965
  379SOL    HW2 1137   1.014   0.788   0.148 -0.6701 -1.9250  0.4922
  380SOL     OW 1138   0.000   1.676   1.769 -0.1204 -0.3829  0.3996
  380SOL    HW1 1139   3.061   1.766   1.714  1.6455  4.6507 -2.4911
  380SOL    HW2 1140   0.088   1.631   1.755  1.9136  0.2012 -1.5730
  381SOL     OW 1141   2.977   1.152   2.582 -0.0843  0.4479  0.2746
  381SOL    HW1 1142   3.045   1.151   2.505 -0.8923 -1.6757 -0.4778
  381SOL    HW2 1143   2.928   1.240   2.596 -1.6215  0.7310 -0.9384
  382SOL     OW 1144   2.290   2.161   0.486 -0.1215  0.0124 -0.1978
  382SOL    HW1 1145   2.305   2.167   0.387 -3.2475 -0.9377  1.1799
  382SOL    HW2 1146   2.330   2.081   0.534  1.4567 -2.5545 -0.8894
  383SOL     OW 1147   0.728   1.840   0.348  0.3318 -0.1665  0.0615
  383SOL    HW1 1148   0.830   1.828   0.344  2.1030  0.6943 -1.0389
  383SOL    HW2 1149   0.683   1.774   0.412  0.5784  2.6978  1.5808
  384SOL     OW 1150   0.835   2.070   2.441  0.0549 -0.1832  0.0815
  384SOL    HW1 1151   0.905   2.019   2.498  0.8619 -1.1969  0.2173
  384SOL    HW2 1152   0.827   2.025   2.349 -0.7829 -0.7620  0.4844
  385SOL     OW 1153   2.413   1.910   0.603  0.4910 -0.4803 -0.3537
  385SOL    HW1 1154   2.506   1.894   0.573 -1.2341  0.2881 -2.0648
  385SOL    HW2 1155   2.405   1.926   0.705 -1.2812 -0.6401  0.3536
  386SOL     OW 1156   2.235   0.860   1.358 -0.6822  0.6387  0.2635
  386SOL    HW1 1157   2.276   0.827   1.273 -1.9032  1.4092 -0.3634
  386SOL    HW2 1158   2.239   0.961   1.365 -0.2090  0.3793  2.1733
  387SOL     OW 1159   3.029   1.041   1.964 -0.4675  0.2332 -0.1888
  387SOL    HW1 1160   0.036   1.055   2.037  0.6234 -0.8283  0.5455
  387SOL    HW2 1161   2.989   1.126   1.931 -0.9133 -0.6996 -0.3475
  388SOL     OW 1162   0.668   1.625   2.214 -0.1496  0.2698 -0.3676
  388SOL    HW1 1163   0.632   1.718   2.234 -2.0743  0.9057 -0.4819
  388SOL    HW2 1164   0.640   1.589   2.122  0.3366  1.3784 -0.7234
  389SOL     OW 1165   0.655   1.008   2.027 -0.1233 -0.0426 -0.9148
  389SOL    HW1 1166   0.712   0.981   2.107 -2.0958  0.3010  1.3068
  389SOL    HW2 1167   0.677   0.952   1.945 -0.2480  1.4119  0.6422
  390SOL     OW 1168   2.716   2.956   0.662  0.4197  0.2274 -0.6858
  390SOL    HW1 1169   2.662   3.021   0.712 -0.9411  0.8153  1.7855
  390SOL    HW2 1170   2.666   2.894   0.600  1.1671 -2.0087  1.3176
  391SOL     OW 1171   1.767   1.576   1.322 -0.2195  0.0427  0.2555
  391SOL    HW1 1172   1.790   1.498   1.384  1.3678 -3.7937 -1.3258
  391SOL    HW2 1173   1.728   1.537   1.234 -0.6689 -1.3478  0.3591
  392SOL     OW 1174   2.840   2.733   3.054  0.3366  0.2752  0.0584
  392SOL    HW1 1175   2.883   2.824   3.039 -1.7767 -1.8011 -1.1190
  392SOL    HW2 1176   2.871   2.692   0.073 -0.1665  1.0249 -1.6742
  393SOL     OW 1177   1.686   2.439   2.649  0.5048 -0.0608  0.1937
  393SOL    HW1 1178   1.764   2.462   2.709  0.5733  1.3917 -0.5637
  393SOL    HW2 1179   1.664   2.514   2.580  0.2817  0.2172 -2.5690
  394SOL     OW 1180   0.049   2.477   2.575 -0.0573  0.2160 -0.0807
  394SOL    HW1 1181   0.146   2.451   2.595 -0.0056 -0.0987 -2.8695
  394SOL    HW2 1182   3.064   2.393   2.548  1.0382  0.3389 -1.4320
  395SOL     OW 1183   0.111   0.419   0.620  0.1169  0.4192  0.5193
  395SOL    HW1 1184   0.010   0.423   0.605  4.3134 -0.5902 -0.2028
  395SOL    HW2 1185   0.135   0.327   0.660  0.7658 -0.8312  0.8427
  396SOL     OW 1186   2.097   0.372   0.621  0.0670  0.5785  0.2000
  396SOL    HW1 1187   2.021   0.438   0.638 -1.3827  2.2169 -2.6078
  396SOL    HW2 1188   2.072   0.290   0.561 -1.5899 -3.5759 -2.6613
  397SOL     OW 1189   0.138   0.640   2.258  0.5420 -0.2725  0.1512
  397SOL    HW1 1190   0.231   0.654   2.293  1.1518 -1.6654 -1.1423
  397SOL    HW2 1191   0.099   0.546   2.289 -0.6761  0.4338  0.9302
  398SOL     OW 1192   0.853   2.946   0.113 -0.5084  0.2200  0.0225
  398SOL    HW1 1193   0.893   3.036   0.089  0.1576 -2.1545 -1.1673
  398SOL    HW2 1194   0.798   2.955   0.197  1.3977  1.1984  0.4859
  399SOL     OW 1195   2.032   0.530   2.093 -0.2284  0.4560  0.1868
  399SOL    HW1 1196   2.048   0.628   2.088 -0.3170 -0.4411 -1.9510
  399SOL    HW2 1197   1.931   0.505   2.075 -1.2174 -1.0383 -2.3744
  400SOL     OW 1198   1.021   1.959   2.582 -0.3090 -0.0327 -0.4835
  400SOL    HW1 1199   1.116   1.932   2.557  0.4573 -0.1111  1.4982
  400SOL    HW2 1200   1.019   2.027   2.656 -2.2437 -2.0604 -1.2149
  401SOL     OW 1201   0.287   1.268   2.589 -0.0102 -0.1803  0.4074
  401SOL    HW1 1202   0.218   1.274   2.666 -0.5720 -1.2856  1.3416
  401SOL    HW2 1203   0.351   1.194   2.612  1.4626  2.4880  1.4100
  402SOL     OW 1204   0.380   2.824   0.398 -0.6038  0.4316  0.3370
  402SOL    HW1 1205   0.437   2.746   0.435 -1.0574  1.3728 -0.3865
  402SOL    HW2 1206   0.369   2.903   0.463  2.2804  0.6503  0.7788
  403SOL     OW 1207   0.648   1.061   1.611 -0.2821  0.3891 -0.4493
  403SOL    HW1 1208   0.676   1.008   1.693  0.0129 -2.7172  0.6626
  403SOL    HW2 1209   0.550   1.063   1.608  4.6560 -0.0380 -0.2993
  404SOL     OW 1210   2.656   2.437   2.142 -0.0046  0.2570  0.1887
  404SOL    HW1 1211   2.668   2.525   2.191 -0.5019  1.4633  0.7873
  404SOL    HW2 1212   2.573   2.436   2.084  0.8796  1.0626  1.0289
  405SOL     OW 1213   0.023   0.167   1.786  0.5926  0.4387 -0.5021
  405SOL    HW1 1214   0.038   0.239   1.858 -3.6168  3.4860 -1.1762
  405SOL    HW2 1215   0.061   0.207   1.697  0.0905  0.4241 -0.5729
  406SOL     OW 1216   0.992   1.511   2.612 -0.6670  0.4656  0.6212
  406SOL    HW1 1217   0.915   1.576   2.608  0.1056  1.4058  0.0350
  406SOL    HW2 1218   1.070   1.572   2.644 -0.5044  3.2329 -0.6856
  407SOL     OW 1219   1.780   1.005   2.857 -0.4271  0.1706  0.4934
  407SOL    HW1 1220   1.862   0.964   2.806 -0.6536 -0.3830  0.5567
  407SOL    HW2 1221   1.768   1.098   2.825 -1.1555 -2.2842  0.1501
  408SOL     OW 1222   0.423   2.687   2.325 -0.5461 -0.1801  0.5491
  408SOL    HW1 1223   0.475   2.671   2.408  0.8300 -1.5109 -2.6971
  408SOL    HW2 1224   0.354   2.612   2.308 -1.5365  0.5295  1.6499
  409SOL     OW 1225   0.087   2.312   1.254 -0.2252 -0.0899 -0.1009
  409SOL    HW1 1226   3.056   2.306   1.274 -0.4517 -2.2596  2.1526
  409SOL    HW2 1227   0.122   2.396   1.213  1.2909 -0.3544  0.7864
  410SOL     OW 1228   2.888   1.711   0.398  0.0218 -0.0974 -0.2643
  410SOL    HW1 1229   2.938   1.783   0.349 -0.9091  1.5885 -0.5090
  410SOL    HW2 1230   2.931   1.624   0.365  0.0261 -1.7810 -0.2787
  411SOL     OW 1231   2.870   3.045   1.033 -0.1739 -0.8266  0.1316
  411SOL    HW1 1232   2.812   2.971   1.062  0.7798  2.0271 -0.3797
  411SOL    HW2 1233   2.821   0.070   1.043 -0.1907  1.1153  1.3495
  412SOL     OW 1234   2.056   0.257   1.744 -0.3254  0.9144  0.1593
  412SOL    HW1 1235   2.119   0.208   1.685  2.6923  0.3476 -0.6937
  412SOL    HW2 1236   1.964   0.257   1.701  0.0050  1.8974 -0.7589
  413SOL     OW 1237   0.074   0.403   1.981 -0.0934 -0.2038  0.1289
  413SOL    HW1 1238   0.099   0.368   2.076 -1.3730 -1.4465  1.5282
  413SOL    HW2 1239   3.047   0.441   1.984 -0.8103 -0.3030 -0.0998
  414SOL     OW 1240   2.914   1.140   2.914 -0.0270 -0.2729 -0.5671
  414SOL    HW1 1241   2.903   1.103   3.010 -1.7567 -0.6621  0.1957
  414SOL    HW2 1242   2.828   1.131   2.859 -0.2793  1.2633  0.3888
  415SOL     OW 1243   0.982   2.507   3.054  0.1153 -0.9411  0.3739
  415SOL    HW1 1244   1.047   2.447   0.038  2.2592  1.9992  0.1474
  415SOL    HW2 1245   0.984   2.601   0.031 -0.5282 -0.8040  1.9668
  416SOL     OW 1246   1.366   2.906   2.395 -0.0848 -0.0898  0.2622
  416SOL    HW1 1247   1.314   2.822   2.404 -0.7599  2.6703  2.5321
  416SOL    HW2 1248   1.428   2.907   2.310  1.3451  0.2813 -1.2665
  417SOL     OW 1249   0.192   0.778   1.018 -0.3648 -0.1256 -0.1817
  417SOL    HW1 1250   0.264   0.726   1.067 -2.2445  3.5017  1.5646
  417SOL    HW2 1251   0.158   0.719   0.943  2.7767  1.4926 -0.7910
  418SOL     OW 1252   2.598   0.109   0.798 -0.5004  0.4308  0.3720
  418SOL    HW1 1253   2.612   0.142   0.898  1.9268 -0.1139  0.3192
  418SOL    HW2 1254   2.622   0.175   0.721 -0.2429 -0.1725 -1.2352
  419SOL     OW 1255   0.405   2.910   0.136  0.1643 -0.0532  0.1994
  419SOL    HW1 1256   0.452   2.838   0.081 -0.6316 -1.7438 -0.7479
  419SOL    HW2 1257   0.403   2.875   0.234  1.3094  0.2243 -1.7625
  420SOL     OW 1258   0.380   1.036   1.572  0.0550  0.1083 -0.7351
  420SOL    HW1 1259   0.388   0.960   1.509  0.6390  0.8829 -0.5882
  420SOL    HW2 1260   0.300   1.027   1.636 -0.8974  1.0017  1.2590
  421SOL     OW 1261   1.876   2.382   0.907  0.3092 -0.3944  0.2130
  421SOL    HW1 1262   1.886   2.438   0.991 -0.8039 -3.8851 -0.5843
  421SOL    HW2 1263   1.785   2.403   0.865  3.1344  0.3479 -1.8454
  422SOL     OW 1264   0.244   0.568   1.339  0.7725  0.3113 -0.4485
  422SOL    HW1 1265   0.181   0.536   1.265 -0.0304  1.9537  0.2851
  422SOL    HW2 1266   0.304   0.646   1.305  0.0171  0.8099 -2.2289
  423SOL     OW 1267   0.873   1.373   2.028 -0.0852  0.0813 -0.0892
  423SOL    HW1 1268   0.894   1.366   1.926  0.1694 -1.0003 -1.8925
  423SOL    HW2 1269   0.777   1.414   2.037  1.5784 -0.4134 -1.5520
  424SOL     OW 1270   1.873   2.164   0.430  0.0429  0.1738  0.2203
  424SOL    HW1 1271   1.878   2.177   0.328  1.0022  0.3025  1.3094
  424SOL    HW2 1272   1.917   2.078   0.463  2.4936 -0.6255  0.0709
  425SOL     OW 1273   2.642   2.985   1.978 -0.0899  0.3027  0.7692
  425SOL    HW1 1274   2.705   3.043   2.034  2.2422  1.4794  1.2136
  425SOL    HW2 1275   2.647   2.889   2.015  2.4305 -1.0749  1.0162
  426SOL     OW 1276   3.048   2.741   2.601 -0.4758  0.5942 -0.3223
  426SOL    HW1 1277   0.064   2.798   2.619  1.5913  0.3746  1.5715
  426SOL    HW2 1278   0.011   2.644   2.584 -0.7123 -1.5005  2.4176
  427SOL     OW 1279   1.016   3.030   0.516  0.1975 -0.8672 -0.5864
  427SOL    HW1 1280   0.969   0.009   0.438 -0.2082 -0.7526 -1.7409
  427SOL    HW2 1281   0.946   3.018   0.589 -3.6626 -1.0120  2.0572
  428SOL     OW 1282   2.750   0.499   1.483  0.5972 -0.4643 -0.1860
  428SOL    HW1 1283   2.804   0.412   1.470 -1.5375 -0.0857 -0.9543
  428SOL    HW2 1284   2.690   0.514   1.402  1.3960 -0.3200  2.0652
  429SOL     OW 1285   1.810   2.861   1.112 -0.1752  0.7266  0.1815
  429SOL    HW1 1286   1.803   2.809   1.020 -0.2570 -0.1104 -0.4135
  429SOL    HW2 1287   1.906   2.862   1.152  0.1889  1.8260  2.2501
  430SOL     OW 1288   0.942   1.720   2.293  0.7320 -0.0319  0.4102
  430SOL    HW1 1289   0.900   1.711   2.382 -1.4314 -2.7539 -1.8622
  430SOL    HW2 1290   0.894   1.658   2.231 -0.7159 -0.5498  1.6021
  431SOL     OW 1291   0.193   1.834   1.137 -0.3036 -0.4092 -0.0478
  431SOL    HW1 1292   0.165   1.816   1.231  0.4833 -0.1316 -0.7548
  431SOL    HW2 1293   0.162   1.928   1.104 -1.3368  1.6976  0.1957
  432SOL     OW 1294   1.429   2.563   2.343  0.0228 -0.1710 -0.1711
  432SOL    HW1 1295   1.420   2.596   2.248  1.9110 -0.3658  3.6245
  432SOL    HW2 1296   1.371   2.616   2.414  1.0695  1.3890  2.5994
  433SOL     OW 1297   1.323   0.254   2.350  0.3900 -0.4195  0.0991
  433SOL    HW1 1298   1.266   0.176   2.316 -0.4518  0.7006  0.9321
  433SOL    HW2 1299   1.263   0.314   2.401  1.1505 -1.6332 -3.9155
  434SOL     OW 1300   0.617   2.469   2.100 -0.0928  0.0931  0.3066
  434SOL    HW1 1301   0.671   2.440   2.016 -0.9558 -0.2541 -0.9296
  434SOL    HW2 1302   0.518   2.473   2.079  0.6020  1.1048 -0.0561
  435SOL     OW 1303   0.465   0.100   0.228 -0.4172  0.2993  0.5419
  435SOL    HW1 1304   0.447   3.067   0.228 -0.8983  2.0472 -0.3429
  435SOL    HW2 1305   0.373   0.149   0.225 -1.2232  0.8496  2.2268
  436SOL     OW 1306   0.436   1.213   2.347 -0.5039  0.5860  0.0671
  436SOL    HW1 1307   0.394   1.271   2.418  1.7553 -0.6045  0.1756
  436SOL    HW2 1308   0.490   1.139   2.389  1.0163 -0.9585  1.4140
  437SOL     OW 1309   0.866   2.329   2.695  0.3073  0.1306  0.1622
  437SOL    HW1 1310   0.870   2.410   2.628 -3.1860 -0.4999 -0.9542
  437SOL    HW2 1311   0.776   2.290   2.680  0.4255  0.7508 -1.0453
  438SOL     OW 1312   0.859   1.088   0.697 -0.1074  0.1158  0.1794
  438SOL    HW1 1313   0.885   1.120   0.790 -0.2832 -0.4901 -1.5872
  438SOL    HW2 1314   0.948   1.088   0.644  0.1691 -4.1492  1.5889
  439SOL     OW 1315   2.686   1.272   2.345 -0.3535 -0.1270  0.4391
  439SOL    HW1 1316   2.715   1.216   2.267 -0.4065  2.3133  2.7532
  439SOL    HW2 1317   2.737   1.359   2.341  1.9166  0.2614  0.2240
  440SOL     OW 1318   2.718   0.708   2.997  0.3668  0.5587 -0.4482
  440SOL    HW1 1319   2.661   0.647   2.934 -0.1784 -0.4446 -1.2554
  440SOL    HW2 1320   2.817   0.696   2.977 -0.5393 -0.3291 -0.1310
  441SOL     OW 1321   0.849   1.865   1.433  0.0252  0.5881 -0.9579
  441SOL    HW1 1322   0.777   1.920   1.397  0.8853  0.0167  1.1253
  441SOL    HW2 1323   0.866   1.896   1.527 -0.1740  0.2655 -0.3591
  442SOL     OW 1324   1.936   1.283   0.587  0.1696 -0.1331  0.7120
  442SOL    HW1 1325   1.862   1.284   0.518  3.1470 -1.6672  0.6931
  442SOL    HW2 1326   1.925   1.362   0.643 -2.0282 -3.4957 -3.2180
  443SOL     OW 1327   2.388   2.133   2.974 -0.4594 -0.2061  0.0327
  443SOL    HW1 1328   2.435   2.141   2.879 -0.1207  1.2942 -2.6390
  443SOL    HW2 1329   2.350   2.223   2.999 -1.3162  1.8496 -1.0178
  444SOL     OW 1330   1.836   1.558   2.686 -0.3509  0.1339  0.1731
  444SOL    HW1 1331   1.895   1.522   2.606  1.1698 -0.7650  1.6921
  444SOL    HW2 1332   1.839   1.661   2.699 -0.2510  1.1903 -0.9028
  445SOL     OW 1333   0.349   2.229   2.394  0.0643  0.2749 -0.3952
  445SOL    HW1 1334   0.344   2.275   2.486  1.4381  2.4127  0.3130
  445SOL    HW2 1335   0.437   2.252   2.353 -1.5182  1.1516  1.2439
  446SOL     OW 1336   0.983   0.844   1.651 -0.3855 -0.5263  0.0776
  446SOL    HW1 1337   1.024   0.750   1.664 -0.3538 -0.6528 -1.7469
  446SOL    HW2 1338   1.001   0.884   1.557 -1.2289  1.1742  0.6326
  447SOL     OW 1339   1.071   1.107   0.547 -0.0896 -0.1663 -0.0586
  447SOL    HW1 1340   1.101   1.175   0.479 -1.2745 -0.9666  0.0106
  447SOL    HW2 1341   1.094   1.013   0.515 -2.4935  0.6208 -0.9551
  448SOL     OW 1342   0.962   1.316   2.266  0.0136  0.5390  0.1761
  448SOL    HW1 1343   0.927   1.309   2.168  0.5588  0.4967  1.1544
  448SOL    HW2 1344   0.913   1.390   2.318 -0.6334  2.0302 -2.6541
  449SOL     OW 1345   0.182   1.665   2.467 -0.1094 -0.0444 -0.3662
  449SOL    HW1 1346   0.231   1.666   2.377  1.4209 -1.9548  1.2526
  449SOL    HW2 1347   0.085   1.686   2.453  1.3378  0.2695 -1.9107
  450SOL     OW 1348   2.093   1.482   2.108 -0.2572 -0.7917  0.0874
  450SOL    HW1 1349   2.086   1.533   2.200 -2.6621  1.2308 -0.5131
  450SOL    HW2 1350   2.186   1.487   2.077 -0.8390  0.6824  0.2035
  451SOL     OW 1351   2.417   1.263   1.110  0.4366 -0.6579 -0.4337
  451SOL    HW1 1352   2.428   1.346   1.052 -0.5871 -2.5739 -0.8176
  451SOL    HW2 1353   2.418   1.296   1.213  0.1921 -0.1152  2.3407
  452SOL     OW 1354   0.842   1.170   1.212 -0.0903  0.1687 -0.0845
  452SOL    HW1 1355   0.815   1.075   1.197 -0.7828 -1.6696  0.3249
  452SOL    HW2 1356   0.878   1.176   1.309 -0.3273 -0.9687  0.9747
  453SOL     OW 1357   0.645   1.900   0.865  0.1634 -0.2799  0.4712
  453SOL    HW1 1358   0.571   1.966   0.847 -0.8161  2.0492  1.1840
  453SOL    HW2 1359   0.705   1.887   0.783 -2.5254  1.2036 -0.5104
  454SOL     OW 1360   1.155   1.586   0.136  0.0931  0.4397  0.1966
  454SOL    HW1 1361   1.201   1.599   0.226  0.9156  0.3655 -3.4907
  454SOL    HW2 1362   1.069   1.532   0.149  1.6214 -1.6488  1.9173
  455SOL     OW 1363   1.667   0.492   1.120  0.1903  0.6760 -0.1792
  455SOL    HW1 1364   1.760   0.491   1.158 -0.2854 -0.4692  1.1962
  455SOL    HW2 1365   1.671   0.526   1.023 -1.5050  0.6895 -0.6490
  456SOL     OW 1366   1.805   2.899   0.662 -0.1931  0.5979 -0.3213
  456SOL    HW1 1367   1.740   2.837   0.612 -3.9940 -0.6886 -0.1255
  456SOL    HW2 1368   1.895   2.907   0.619 -0.9690  2.0068  0.8611
  457SOL     OW 1369   2.006   0.619   2.598  0.3250  0.1041  0.0804
  457SOL    HW1 1370   1.914   0.591   2.636 -1.6681  2.0247 -0.9956
  457SOL    HW2 1371   2.081   0.604   2.670  2.3069 -0.9104 -1.3085
  458SOL     OW 1372   2.586   0.572   2.793  0.1770  0.1821  0.1235
  458SOL    HW1 1373   2.542   0.608   2.706  0.6849  1.5361  2.4400
  458SOL    HW2 1374   2.641   0.493   2.764 -0.3148  1.1257 -1.0886
  459SOL     OW 1375   2.422   1.316   2.330 -0.0747  0.5562  0.2516
  459SOL    HW1 1376   2.401   1.406   2.289 -0.3069 -1.7186 -0.2858
  459SOL    HW2 1377   2.523   1.301   2.321 -2.4861  1.3029  0.5697
  460SOL     OW 1378   0.704   0.869   2.818 -0.6374  0.1222 -0.0161
  460SOL    HW1 1379   0.670   0.889   2.915  0.5290  0.4667  1.8816
  460SOL    HW2 1380   0.680   0.950   2.758  0.4099  1.8863  0.1344
  461SOL     OW 1381   0.434   2.168   3.041 -0.8868  0.0229  0.2375
  461SOL    HW1 1382   0.477   2.242   2.985  1.5999 -1.5437  0.1010
  461SOL    HW2 1383   0.362   2.112   2.996 -0.2010 -0.6780  1.7220
  462SOL     OW 1384   1.058   2.916   2.176  0.5259 -0.3407  0.0440
  462SOL    HW1 1385   1.075   2.819   2.217  1.9529 -1.9860 -1.0415
  462SOL    HW2 1386   0.964   2.927   2.142  1.8134  0.6586 -0.5776
  463SOL     OW 1387   2.027   2.179   2.030  0.6642 -0.1865 -0.4512
  463SOL    HW1 1388   1.975   2.118   2.096  0.0844  0.4921 -0.0913
  463SOL    HW2 1389   2.129   2.173   2.051  3.0589 -1.7288  1.9260
  464SOL     OW 1390   2.536   2.529   0.955  0.0753 -0.4246  0.6203
  464SOL    HW1 1391   2.460   2.563   1.018  0.5237 -0.6345  0.4287
  464SOL    HW2 1392   2.504   2.556   0.862 -0.2233 -0.4311 -0.5665
  465SOL     OW 1393   0.030   0.266   1.304  0.4676 -0.0272  0.3618
  465SOL    HW1 1394   0.036   0.174   1.258 -0.3901  0.5388 -0.0668
  465SOL    HW2 1395   0.068   0.339   1.245 -1.1113 -1.2927  2.1764
  466SOL     OW 1396   1.220   2.693   2.495  0.2492 -0.0214  0.7318
  466SOL    HW1 1397   1.168   2.729   2.572  2.3355  1.6959  0.9222
  466SOL    HW2 1398   1.168   2.659   2.417  2.2165 -0.3510 -1.0428
  467SOL     OW 1399   0.094   2.194   0.316 -0.4179  0.0906 -0.3676
  467SOL    HW1 1400   0.070   2.107   0.365 -0.7059 -0.8779 -1.5632
  467SOL    HW2 1401   0.091   2.177   0.217  2.1298  1.0142 -0.1933
  468SOL     OW 1402   2.026   1.916   2.925  0.3726  0.2295  0.3439
  468SOL    HW1 1403   2.070   1.894   2.835  1.1181  2.1572 -1.9509
  468SOL    HW2 1404   2.089   1.939   3.000  0.6788 -0.7467 -0.4774
  469SOL     OW 1405   1.117   2.110   0.648 -0.0460 -0.3902  0.5306
  469SOL    HW1 1406   1.198   2.163   0.677  0.7851 -0.7217  1.2542
  469SOL    HW2 1407   1.033   2.171   0.644  0.2935  0.4424 -1.2571
  470SOL     OW 1408   2.082   0.657   0.856 -0.0296  0.2277  0.4229
  470SOL    HW1 1409   2.088   0.623   0.948  1.3615 -1.7833 -0.7934
  470SOL    HW2 1410   2.065   0.758   0.857 -3.3624 -0.2103  2.6650
  471SOL     OW 1411   0.550   2.029   0.401  0.0848 -0.7954 -0.5036
  471SOL    HW1 1412   0.617   1.960   0.379  2.3829 -0.2292 -2.3491
  471SOL    HW2 1413   0.483   2.047   0.322 -1.8634 -1.2740  0.9175
  472SOL     OW 1414   2.477   1.608   2.514  0.0099  0.0587 -0.0998
  472SOL    HW1 1415   2.543   1.557   2.572  1.3766 -1.4690 -2.3168
  472SOL    HW2 1416   2.399   1.549   2.494  0.5749  0.1664  4.6058
  473SOL     OW 1417   1.629   1.887   0.666 -0.1401 -0.3319 -0.3900
  473SOL    HW1 1418   1.588   1.976   0.629 -0.5260 -2.0574 -1.7767
  473SOL    HW2 1419   1.593   1.878   0.760 -0.6962 -0.6501 -0.4545
  474SOL     OW 1420   2.724   0.487   1.000  0.0717 -0.0803 -0.2775
  474SOL    HW1 1421   2.664   0.491   0.918 -2.6980  1.2690  0.3788
  474SOL    HW2 1422   2.813   0.542   0.993 -0.5819  2.2957 -1.3212
  475SOL     OW 1423   2.520   2.789   1.277 -0.2746 -0.3838  0.3781
  475SOL    HW1 1424   2.472   2.841   1.352 -1.0534  3.2463  1.1868
  475SOL    HW2 1425   2.530   2.852   1.196  0.0756  2.3931 -4.0309
  476SOL     OW 1426   0.411   0.501   0.869  0.1466 -0.1700  0.3758
  476SOL    HW1 1427   0.365   0.527   0.782  0.3681  0.9879 -0.9249
  476SOL    HW2 1428   0.499   0.451   0.852 -0.5951 -2.1748  0.2509
  477SOL     OW 1429   1.198   2.323   1.163 -0.0276  0.5759 -0.0777
  477SOL    HW1 1430   1.287   2.301   1.115  2.1929  0.5069 -1.1476
  477SOL    HW2 1431   1.192   2.425   1.173  1.2662  0.2772 -0.1464
  478SOL     OW 1432   1.325   2.639   2.859  0.0025 -0.0800  0.3583
  478SOL    HW1 1433   1.248   2.607   2.798 -1.3141 -1.5990 -2.1286
  478SOL    HW2 1434   1.372   2.723   2.825  2.4024  0.3367 -0.8142
  479SOL     OW 1435   2.544   0.785   1.949 -0.0073 -0.0688  0.2642
  479SOL    HW1 1436   2.625   0.796   2.007  0.2771  0.3909 -0.9692
  479SOL    HW2 1437   2.566   0.740   1.860  0.2167 -0.1902 -1.1354
  480SOL     OW 1438   2.758   1.949   2.668 -0.3500 -0.2128  0.6326
  480SOL    HW1 1439   2.767   1.981   2.570 -0.1780  0.1876  1.5639
  480SOL    HW2 1440   2.832   1.881   2.689 -1.0840 -1.1384 -0.2565
  481SOL     OW 1441   1.673   0.136   2.054 -0.3661  0.2440  0.5074
  481SOL    HW1 1442   1.737   0.119   2.132 -0.0277  4.2878 -1.9296
  481SOL    HW2 1443   1.577   0.112   2.078  0.8138 -1.7779 -0.0098
  482SOL     OW 1444   1.482   2.315   2.473  0.3353  0.6960 -0.0527
  482SOL    HW1 1445   1.453   2.405   2.438  0.5735 -0.0822 -0.4680
  482SOL    HW2 1446   1.557   2.322   2.543  1.7819  2.4906  0.8954
  483SOL     OW 1447   1.073   2.746   2.718  0.0280 -0.4588 -0.0113
  483SOL    HW1 1448   1.059   2.647   2.744  1.1117  0.7153 -0.3997
  483SOL    HW2 1449   1.081   2.809   2.795 -1.4798  0.6362  3.4415
  484SOL     OW 1450   2.316   0.009   1.458 -0.1462 -0.7805  0.0075
  484SOL    HW1 1451   2.284   3.063   1.551  0.1819  0.6902 -0.8918
  484SOL    HW2 1452   2.409   0.048   1.464  1.2723  4.6397  0.4925
  485SOL     OW 1453   1.856   0.655   0.423 -0.6631 -0.0947  0.0611
  485SOL    HW1 1454   1.829   0.632   0.519  0.5897  0.4242 -1.5974
  485SOL    HW2 1455   1.870   0.755   0.412  0.7265  0.1410 -0.2247
  486SOL     OW 1456   2.274   2.680   2.272 -0.1938  0.7595 -0.3226
  486SOL    HW1 1457   2.288   2.780   2.281 -2.3537 -0.8275 -0.9300
  486SOL    HW2 1458   2.181   2.661   2.238  0.2045 -0.5749 -0.6168
  487SOL     OW 1459   1.488   0.681   0.524  0.3360 -0.2827 -0.1066
  487SOL    HW1 1460   1.403   0.734   0.539 -1.9821  1.4509 -0.0325
  487SOL    HW2 1461   1.473   0.585   0.535  0.8475  1.1894 -4.0489
  488SOL     OW 1462   2.599   2.788   2.532 -0.2364 -0.4620  0.3048
  488SOL    HW1 1463   2.583   2.738   2.441  1.4355 -0.7763 -0.0941
  488SOL    HW2 1464   2.513   2.820   2.570  0.1705 -2.9357 -4.0091
  489SOL     OW 1465   1.518   2.927   0.223  0.5073 -0.5897 -0.5039
  489SOL    HW1 1466   1.479   2.985   0.296  1.5324 -1.5730 -2.7246
  489SOL    HW2 1467   1.613   2.909   0.251  0.3336 -0.3757  0.5318
  490SOL     OW 1468   1.735   0.437   3.042 -0.3050  0.2999  0.0810
  490SOL    HW1 1469   1.724   0.468   0.072  2.2244  3.0409  2.2979
  490SOL    HW2 1470   1.833   0.437   3.020  1.1738  1.1618 -1.0752
  491SOL     OW 1471   0.551   2.828   1.203 -0.1738  0.0058 -0.4990
  491SOL    HW1 1472   0.586   2.882   1.281 -3.1592  1.2008  0.1307
  491SOL    HW2 1473   0.609   2.843   1.118  0.5706 -1.3982 -0.8612
  492SOL     OW 1474   1.642   2.773   0.494 -0.2792  0.9443  0.6362
  492SOL    HW1 1475   1.631   2.671   0.483  0.2196 -1.2700 -2.1936
  492SOL    HW2 1476   1.699   2.814   0.416  2.2588  0.3215 -3.3218
  493SOL     OW 1477   1.216   2.224   2.923 -0.5497 -0.0622  0.6201
  493SOL    HW1 1478   1.285   2.231   2.850  0.8625  1.0604 -0.2907
  493SOL    HW2 1479   1.218   2.297   2.994 -1.8227 -1.9647  2.2007
  494SOL     OW 1480   0.922   0.820   0.293  0.7626 -0.3582  0.1466
  494SOL    HW1 1481   0.862   0.741   0.294 -0.3988  2.4747  2.2420
  494SOL    HW2 1482   0.994   0.813   0.363  1.0384  0.3671 -1.3048
  495SOL     OW 1483   2.698   0.457   1.783 -0.0991 -0.1231 -0.1417
  495SOL    HW1 1484   2.770   0.394   1.742  1.6808 -1.4723  0.0422
  495SOL    HW2 1485   2.657   0.519   1.711  2.5267  1.3249 -0.3841
  496SOL     OW 1486   2.247   2.438   2.408  0.4492 -0.1865 -0.1967
  496SOL    HW1 1487   2.269   2.530   2.365 -0.7626  1.7967  0.8008
  496SOL    HW2 1488   2.149   2.421   2.416  2.4977  2.2593  0.0717
  497SOL     OW 1489   1.585   1.468   2.586  0.0041 -0.0232  0.1997
  497SOL    HW1 1490   1.670   1.521   2.619  2.7813  1.3744  2.3921
  497SOL    HW2 1491   1.506   1.477   2.650  1.5992  0.3951 -1.1099
  498SOL     OW 1492   0.916   2.459   0.890  0.1562  0.9502  0.1476
  498SOL    HW1 1493   0.859   2.544   0.891  0.3744 -0.5362  1.8644
  498SOL    HW2 1494   0.903   2.403   0.968  1.7497  2.8176 -4.0726
  499SOL     OW 1495   0.118   2.092   1.053 -0.3186  0.2826 -0.3146
  499SOL    HW1 1496   0.065   2.091   0.967 -1.8370  0.7996 -1.8085
  499SOL    HW2 1497   0.081   2.171   1.108  0.6588 -0.0009  2.1402
  500SOL     OW 1498   0.997   2.731   0.130  0.4380 -0.3912  0.1489
  500SOL    HW1 1499   0.922   2.802   0.126 -1.5137  2.0269  2.0565
  500SOL    HW2 1500   1.084   2.783   0.145 -2.3079 -1.9080  3.6235
  501SOL     OW 1501   2.019   2.816   0.484 -0.2677 -0.4208 -0.4869
  501SOL    HW1 1502   2.110   2.860   0.510  0.5178  0.1349 -0.3616
  501SOL    HW2 1503   2.033   2.729   0.440 -0.4545  3.6386  1.6875
  502SOL     OW 1504   3.025   0.364   0.896 -0.3128  0.1869  0.2169
  502SOL    HW1 1505   2.957   0.374   0.822 -0.9745  0.7178  2.4839
  502SOL    HW2 1506   0.017   0.284   0.867 -0.1358  0.1728 -0.0949
  503SOL     OW 1507   2.152   0.092   1.978 -0.7223 -0.4779 -0.3506
  503SOL    HW1 1508   2.162   0.168   2.047  0.1634 -0.2256 -0.2939
  503SOL    HW2 1509   2.086   0.119   1.903  1.3820 -1.6181 -0.6952
  504SOL     OW 1510   2.035   1.046   1.936 -0.4010 -0.2718  0.5215
  504SOL    HW1 1511   2.056   1.011   1.843 -0.2909  0.4444  0.6866
  504SOL    HW2 1512   2.121   1.075   1.985  0.6203 -0.3518 -1.7972
  505SOL     OW 1513   1.780   2.871   2.401  0.1031  0.1078  0.6630
  505SOL    HW1 1514   1.866   2.913   2.370  1.7325 -0.2392  0.6591
  505SOL    HW2 1515   1.708   2.885   2.329  1.0599  3.3549 -1.6564
  506SOL     OW 1516   0.165   0.631   1.826  0.8490  0.7203 -0.1395
  506SOL    HW1 1517   0.166   0.544   1.886  0.6136 -0.7463  2.0016
  506SOL    HW2 1518   0.233   0.706   1.850 -1.1730 -0.4754 -2.7735
  507SOL     OW 1519   1.713   0.524   0.243  0.2546  0.2424 -0.3584
  507SOL    HW1 1520   1.612   0.527   0.268  0.8746  0.2425  2.2186
  507SOL    HW2 1521   1.767   0.560   0.318 -4.1584  1.6334  2.0322
  508SOL     OW 1522   2.060   0.798   2.102  0.0291  0.2467  0.2644
  508SOL    HW1 1523   2.053   0.895   2.066 -0.8897 -0.2419  0.1215
  508SOL    HW2 1524   2.154   0.777   2.123 -2.4642  0.1063 -0.7013
  509SOL     OW 1525   0.609   1.794   2.707  0.3207 -0.3367 -0.6508
  509SOL    HW1 1526   0.596   1.849   2.792 -0.1596  0.9834  0.6522
  509SOL    HW2 1527   0.557   1.829   2.625 -1.0329 -2.5989 -2.2850
  510SOL     OW 1528   2.987   0.988   0.921  0.3440  0.0272  0.4008
  510SOL    HW1 1529   3.063   0.929   0.943 -0.6122  0.4849 -0.5497
  510SOL    HW2 1530   2.988   1.079   0.972  1.1734 -0.4602 -1.5384
  511SOL     OW 1531   1.488   1.095   1.605 -0.1107 -1.3341 -0.3040
  511SOL    HW1 1532   1.401   1.062   1.646  1.2302  0.3209  0.8144
  511SOL    HW2 1533   1.488   1.094   1.505  0.1037 -1.3470  0.7166
  512SOL     OW 1534   0.482   2.125   0.810 -0.2491  0.3699 -0.5187
  512SOL    HW1 1535   0.574   2.137   0.762  2.0510  1.8218  0.9350
  512SOL    HW2 1536   0.422   2.195   0.774  1.4189 -0.5248 -1.0539
  513SOL     OW 1537   0.330   2.516   0.843  0.3583 -0.0934 -0.0243
  513SOL    HW1 1538   0.342   2.607   0.806  4.0792 -2.9150  2.3528
  513SOL    HW2 1539   0.266   2.510   0.923  0.3437  1.0243 -1.7951
  514SOL     OW 1540   0.701   2.101   0.617  0.3471 -0.1542  0.0486
  514SOL    HW1 1541   0.757   2.015   0.607  1.4099 -2.9662  3.1089
  514SOL    HW2 1542   0.633   2.109   0.540  1.9333  2.9143 -0.0910
  515SOL     OW 1543   0.239   0.141   2.983 -0.1313 -0.0022 -0.4934
  515SOL    HW1 1544   0.308   0.081   2.935 -0.4350 -2.5894  0.1482
  515SOL    HW2 1545   0.220   0.105   0.010 -0.4803 -0.3301  3.0620
  516SOL     OW 1546   1.985   2.997   1.371 -0.0794  0.9452  0.1554
  516SOL    HW1 1547   2.016   0.021   1.406  2.7427 -0.2121  0.9528
  516SOL    HW2 1548   2.040   2.980   1.288  0.4240  0.2438 -0.7010
  517SOL     OW 1549   1.870   1.502   0.738  0.0714 -0.2029 -0.4407
  517SOL    HW1 1550   1.845   1.566   0.665  0.9488  0.1491  0.3958
  517SOL    HW2 1551   1.942   1.545   0.790 -4.2622 -1.8738  3.9499
  518SOL     OW 1552   1.815   2.745   0.880  0.3309  0.5065  0.0721
  518SOL    HW1 1553   1.762   2.667   0.852 -0.2480  0.6346  0.0069
  518SOL    HW2 1554   1.817   2.821   0.814  1.9873 -2.2303  0.8866
  519SOL     OW 1555   0.137   2.300   0.063  0.4792 -0.3300  0.4480
  519SOL    HW1 1556   0.165   2.291   3.030  1.9851  2.6732 -0.4636
  519SOL    HW2 1557   0.216   2.299   0.122 -0.1479  1.2210 -1.2354
  520SOL     OW 1558   2.056   1.887   2.222 -0.0216 -0.1901 -0.1493
  520SOL    HW1 1559   2.052   1.977   2.268 -2.5248  0.7031  3.1556
  520SOL    HW2 1560   1.989   1.874   2.145  0.7505 -0.0328 -3.1183
  521SOL     OW 1561   1.309   2.920   1.916  0.0105  0.5395  0.0452
  521SOL    HW1 1562   1.325   2.916   1.817 -1.6668  1.1943 -3.0461
  521SOL    HW2 1563   1.217   2.964   1.932  2.4523  0.9133  1.6910
  522SOL     OW 1564   0.355   2.515   1.996  0.4137  0.2732 -0.5597
  522SOL    HW1 1565   0.304   2.469   1.919 -1.7268  0.4929 -2.3274
  522SOL    HW2 1566   0.300   2.509   2.086 -2.2050  0.4185  3.7522
  523SOL     OW 1567   0.763   2.132   2.005  0.6008 -0.4975  0.1722
  523SOL    HW1 1568   0.782   2.223   1.953 -0.7097  1.5715  0.4691
  523SOL    HW2 1569   0.840   2.107   2.071  2.8280  1.4299 -0.5466
  524SOL     OW 1570   2.354   2.154   0.206  0.1546  0.4290 -0.0252
  524SOL    HW1 1571   2.451   2.162   0.178  1.5089 -0.1680  1.2397
  524SOL    HW2 1572   2.315   2.071   0.168  1.6848  0.6746 -1.2786
  525SOL     OW 1573   2.696   0.988   2.733 -0.7370 -0.1026  0.2825
  525SOL    HW1 1574   2.606   1.010   2.777  0.9147 -0.7419 -0.0169
  525SOL    HW2 1575   2.711   0.890   2.705  1.5581 -1.8797 -0.7817
  526SOL     OW 1576   0.349   2.752   0.719  0.0191  0.5462 -0.5487
  526SOL    HW1 1577   0.396   2.699   0.645  0.6353 -0.0722 -0.6540
  526SOL    HW2 1578   0.250   2.743   0.718  1.2434  2.3930  1.3659
  527SOL     OW 1579   3.062   1.144   0.693 -0.0115 -0.6410  0.7363
  527SOL    HW1 1580   0.009   1.075   0.767  0.1488  0.1790 -0.7691
  527SOL    HW2 1581   2.980   1.201   0.711  2.8147 -2.7080 -1.7241
  528SOL     OW 1582   0.631   0.981   2.427  0.0317 -0.2511 -0.5604
  528SOL    HW1 1583   0.563   0.963   2.498 -3.1185 -0.1882  0.1927
  528SOL    HW2 1584   0.722   1.025   2.457 -1.4451  0.5938 -0.3029
  529SOL     OW 1585   0.906   1.444   0.256  0.1252 -0.7202  0.1428
  529SOL    HW1 1586   0.901   1.354   0.208 -1.3029  0.7921  2.8858
  529SOL    HW2 1587   0.847   1.511   0.204 -0.4792  2.4407  1.9383
  530SOL     OW 1588   1.042   0.962   1.886  0.4175  0.1699  0.8635
  530SOL    HW1 1589   0.994   0.914   1.809  2.6167  0.4821  0.7291
  530SOL    HW2 1590   1.085   0.900   1.956  2.9723  0.1271 -0.6834
  531SOL     OW 1591   1.195   2.400   0.105 -0.4399 -0.9235 -0.4451
  531SOL    HW1 1592   1.216   2.365   0.202 -0.7304 -0.9299  2.7021
  531SOL    HW2 1593   1.257   2.478   0.085 -0.6667 -0.6255  0.8659
  532SOL     OW 1594   2.575   0.684   2.309  0.1618  0.1277 -0.8019
  532SOL    HW1 1595   2.572   0.784   2.276 -0.9386  0.1327 -2.3345
  532SOL    HW2 1596   2.531   0.670   2.395 -0.9132  0.1765 -3.6550
  533SOL     OW 1597   0.021   3.052   2.005  0.1513  0.3032 -0.4143
  533SOL    HW1 1598   2.990   3.041   2.026 -0.8718  0.1016 -0.5554
  533SOL    HW2 1599   0.035   0.029   1.912 -0.7961 -2.6782 -2.4338
  534SOL     OW 1600   2.538   3.035   0.370 -0.3831  0.5191  0.0103
  534SOL    HW1 1601   2.637   3.024   0.331 -0.7162 -0.5431  0.6590
  534SOL    HW2 1602   2.496   0.054   0.346 -0.9103 -0.3257  1.8779
  535SOL     OW 1603   0.739   0.460   0.049 -0.2994  0.8408  0.3572
  535SOL    HW1 1604   0.789   0.526   0.104 -2.4752 -2.2460 -3.1417
  535SOL    HW2 1605   0.638   0.474   0.055 -0.6857 -0.1998  0.0789
  536SOL     OW 1606   1.261   2.053   1.214  0.3123 -0.0665  0.0120
  536SOL    HW1 1607   1.175   1.995   1.212 -1.7983 -1.2958  0.2607
  536SOL    HW2 1608   1.242   2.154   1.214 -1.4046  0.2703  1.6924
  537SOL     OW 1609   2.885   2.346   1.535 -0.0131  0.2660 -0.7411
  537SOL    HW1 1610   2.877   2.448   1.519  0.1801  0.1916 -0.1053
  537SOL    HW2 1611   2.828   2.313   1.617  1.6950 -1.6380  0.3267
  538SOL     OW 1612   0.666   2.291   0.127  0.2933 -0.2551 -0.5154
  538SOL    HW1 1613   0.709   2.263   0.218 -3.4246 -0.9126  1.1656
  538SOL    HW2 1614   0.687   2.228   0.055 -1.9613 -1.0556  2.9588
  539SOL     OW 1615   1.878   1.187   2.361  0.0806 -0.2535 -0.1358
  539SOL    HW1 1616   1.780   1.154   2.373 -0.1111 -2.4986  1.9911
  539SOL    HW2 1617   1.893   1.201   2.260 -0.2802  0.1435  2.0685
  540SOL     OW 1618   1.701   0.767   2.941  0.0399  0.4596  0.0753
  540SOL    HW1 1619   1.759   0.737   3.019 -0.6468  1.2462 -1.5190
  540SOL    HW2 1620   1.733   0.855   2.902  2.0703  0.2282 -0.9325
  541SOL     OW 1621   0.364   0.917   2.469 -0.3342 -0.5789  0.1687
  541SOL    HW1 1622   0.407   0.825   2.459  0.2703 -2.3504 -0.7196
  541SOL    HW2 1623   0.264   0.915   2.454  2.0789  1.1705 -2.2189
  542SOL     OW 1624   1.356   2.475   1.881  0.5930  0.2652  0.3518
  542SOL    HW1 1625   1.258   2.461   1.866  0.3010  2.3398 -0.8874
  542SOL    HW2 1626   1.407   2.449   1.800  0.6769 -1.1116 -2.6745
  543SOL     OW 1627   0.639   2.628   0.263  0.0749 -0.7283  0.7003
  543SOL    HW1 1628   0.615   2.664   0.170 -0.9343 -0.1205 -1.9265
  543SOL    HW2 1629   0.593   2.540   0.280 -1.9843 -0.0585 -0.8181
  544SOL     OW 1630   2.764   2.005   2.414  0.2323  0.1436 -0.0786
  544SOL    HW1 1631   2.719   2.074   2.362  0.5499 -0.1021  1.1748
  544SOL    HW2 1632   2.863   2.000   2.387  0.0138 -1.4703 -1.5766
  545SOL     OW 1633   1.391   1.682   1.739  0.1835 -0.1283  0.0812
  545SOL    HW1 1634   1.385   1.701   1.838 -1.6486 -2.2896  0.5404
  545SOL    HW2 1635   1.303   1.631   1.706 -1.9832 -1.7796 -3.3640
  546SOL     OW 1636   2.970   0.532   2.681 -0.1549  0.0822  0.1109
  546SOL    HW1 1637   2.941   0.452   2.627  1.9644  0.3431 -0.2102
  546SOL    HW2 1638   3.061   0.563   2.646 -0.4099  2.1092  0.2339
  547SOL     OW 1639   1.420   2.924   1.288  0.2898  0.1798  0.2102
  547SOL    HW1 1640   1.410   3.021   1.319 -0.6543 -0.1687  1.4482
  547SOL    HW2 1641   1.502   2.876   1.330  0.9139  0.9265 -0.0339
  548SOL     OW 1642   1.334   2.010   3.035 -0.3391 -0.1830  0.1936
  548SOL    HW1 1643   1.407   2.037   0.037  0.6748 -0.5501 -1.8420
  548SOL    HW2 1644   1.287   2.088   2.992 -0.0797 -2.8787  0.4534
  549SOL     OW 1645   2.081   0.738   2.989 -0.2292  0.0362  0.2239
  549SOL    HW1 1646   2.009   0.740   3.061  0.0423 -2.7658 -0.8818
  549SOL    HW2 1647   2.092   0.837   2.964 -1.3923  1.9936  1.5508
  550SOL     OW 1648   2.782   1.967   0.838  0.2900 -0.1777  0.2583
  550SOL    HW1 1649   2.710   2.043   0.842  1.0114 -1.4527 -1.7403
  550SOL    HW2 1650   2.735   1.887   0.805  2.2664  0.9290  1.9285
  551SOL     OW 1651   0.947   0.355   1.293  0.6886  0.0353  0.3734
  551SOL    HW1 1652   0.848   0.362   1.316  0.7866  0.1670  0.3459
  551SOL    HW2 1653   0.996   0.298   1.358 -2.8498  1.9915 -1.0066
  552SOL     OW 1654   3.061   1.499   2.826  0.0303  0.0128 -0.1931
  552SOL    HW1 1655   0.093   1.493   2.820 -1.5492 -2.0617  2.2732
  552SOL    HW2 1656   3.029   1.505   2.926  0.1392 -1.1312  2.9292
  553SOL     OW 1657   2.581   2.464   0.244  0.4355  0.1770 -0.1278
  553SOL    HW1 1658   2.584   2.551   0.195 -1.8047 -1.0810 -0.8134
  553SOL    HW2 1659   2.505   2.468   0.310 -0.0340 -0.5957 -3.8754
  554SOL     OW 1660   2.050   1.101   1.573 -0.8056 -0.1611  0.0564
  554SOL    HW1 1661   1.969   1.123   1.520  1.5791 -0.9284 -1.1312
  554SOL    HW2 1662   2.046   1.007   1.612  0.2476  1.2057 -0.9513
  555SOL     OW 1663   0.865   2.325   2.350  0.6589 -0.4947  0.4302
  555SOL    HW1 1664   0.854   2.404   2.416 -1.7395  0.8147  0.8990
  555SOL    HW2 1665   0.866   2.230   2.387 -5.5203 -0.9255 -2.2191
  556SOL     OW 1666   1.251   1.309   1.807  0.0989 -0.2406  0.3532
  556SOL    HW1 1667   1.320   1.322   1.883  0.4174 -0.1664 -0.4379
  556SOL    HW2 1668   1.232   1.396   1.757 -1.5988 -0.6590 -1.4582
  557SOL     OW 1669   1.339   0.135   1.376  0.0525  0.2770  0.2342
  557SOL    HW1 1670   1.365   0.184   1.293  1.0822 -2.5178 -0.0067
  557SOL    HW2 1671   1.253   0.166   1.420  0.3987  0.2122 -0.1819
  558SOL     OW 1672   0.412   0.648   2.333  0.4948 -0.0228  0.0024
  558SOL    HW1 1673   0.417   0.555   2.364  0.1670  3.7649  2.2907
  558SOL    HW2 1674   0.474   0.664   2.248  1.8594  2.0538 -2.5704
  559SOL     OW 1675   1.268   2.826   0.208 -0.0343  0.0570  0.0321
  559SOL    HW1 1676   1.236   2.825   0.305  0.0990  1.8869 -0.2920
  559SOL    HW2 1677   1.365   2.865   0.203  0.7303  0.8799 -0.1247
  560SOL     OW 1678   1.509   2.127   0.119  0.1044 -0.2456  0.1213
  560SOL    HW1 1679   1.536   2.039   0.161 -3.4200  1.0969 -1.0960
  560SOL    HW2 1680   1.579   2.203   0.128 -0.2221  1.3496 -0.6491
  561SOL     OW 1681   1.357   2.845   0.884 -0.1735 -0.3768  0.7162
  561SOL    HW1 1682   1.404   2.933   0.904 -0.9760 -2.8631 -0.2316
  561SOL    HW2 1683   1.266   2.843   0.931 -0.0308 -0.5275  0.4902
  562SOL     OW 1684   0.409   0.924   2.179  0.3974 -0.1095  0.0670
  562SOL    HW1 1685   0.486   0.983   2.151 -0.6466 -0.6013 -1.0190
  562SOL    HW2 1686   0.404   0.914   2.283  1.2438 -0.0417  1.7381
  563SOL     OW 1687   1.346   2.162   2.670  0.2729  0.1403 -0.9091
  563SOL    HW1 1688   1.338   2.197   2.577  0.4029  1.1540 -0.3764
  563SOL    HW2 1689   1.443   2.142   2.694  1.6638 -1.9532  3.8448
  564SOL     OW 1690   2.607   0.847   1.204  0.7157  0.0886  0.2762
  564SOL    HW1 1691   2.610   0.943   1.236  0.6242  0.3656  1.1112
  564SOL    HW2 1692   2.571   0.840   1.110  0.6127 -0.2631 -2.2734
  565SOL     OW 1693   1.320   1.256   0.230 -0.5430  0.3693 -0.1872
  565SOL    HW1 1694   1.276   1.264   0.142 -0.1059  0.4593  3.3288
  565SOL    HW2 1695   1.394   1.319   0.243 -3.9392 -0.0440  0.0344
  566SOL     OW 1696   2.112   2.677   2.958 -0.1366 -0.5046  0.5121
  566SOL    HW1 1697   2.062   2.754   2.919 -1.6877 -0.6547  3.1103
  566SOL    HW2 1698   2.131   2.686   3.060  2.3434 -1.5858  2.1999
  567SOL     OW 1699   1.629   0.826   1.002 -0.5007  0.0557 -0.0612
  567SOL    HW1 1700   1.687   0.847   0.924  1.1357  2.3972 -0.0165
  567SOL    HW2 1701   1.675   0.834   1.093 -1.8922  0.4334 -0.9812
  568SOL     OW 1702   1.305   1.685   2.358  0.0567 -0.6339 -0.2351
  568SOL    HW1 1703   1.276   1.592   2.367 -0.3283  3.0785  0.3087
  568SOL    HW2 1704   1.274   1.741   2.439 -2.2773  1.3943  1.5788
  569SOL     OW 1705   2.090   1.758   0.885  0.5496  0.0309  0.2542
  569SOL    HW1 1706   2.137   1.753   0.794  1.2729  3.3340  2.7509
  569SOL    HW2 1707   2.144   1.709   0.956 -1.4372 -1.7127 -1.0347
  570SOL     OW 1708   2.612   2.216   2.303  0.0999 -0.0226 -0.2452
  570SOL    HW1 1709   2.639   2.295   2.248 -0.3113  0.5684  2.8978
  570SOL    HW2 1710   2.518   2.215   2.331  3.0163 -2.2145  1.9842
  571SOL     OW 1711   2.590   1.738   1.857 -0.6754 -0.1929  0.3887
  571SOL    HW1 1712   2.545   1.721   1.947  1.3134 -2.1645 -1.8903
  571SOL    HW2 1713   2.523   1.769   1.788  1.2328 -0.1589  0.6497
  572SOL     OW 1714   1.456   2.409   2.846  0.0549 -0.2948 -0.6740
  572SOL    HW1 1715   1.397   2.492   2.858  1.6310  0.0701  0.9725
  572SOL    HW2 1716   1.500   2.415   2.756 -0.9841  1.3901  0.7457
  573SOL     OW 1717   1.629   2.085   0.967  0.3456  0.4034 -0.1740
  573SOL    HW1 1718   1.563   2.011   0.995 -5.0785  0.6427  2.2976
  573SOL    HW2 1719   1.726   2.057   0.963 -0.1372  0.7701 -0.1553
  574SOL     OW 1720   0.998   2.745   1.321  0.2252  0.0449 -0.0760
  574SOL    HW1 1721   0.917   2.684   1.315 -3.0148 -1.6081 -1.2605
  574SOL    HW2 1722   0.988   2.813   1.395  0.4782 -0.0746  1.3444
  575SOL     OW 1723   0.783   0.546   1.013  0.5809  0.1591 -0.0496
  575SOL    HW1 1724   0.811   0.590   0.928 -1.6652  3.5975  0.4477
  575SOL    HW2 1725   0.851   0.580   1.082 -1.2973 -0.6837  1.0753
  576SOL     OW 1726   2.449   0.331   1.339  0.9464 -0.2164 -0.1448
  576SOL    HW1 1727   2.494   0.415   1.311 -1.1615 -0.2766 -1.9779
  576SOL    HW2 1728   2.491   0.292   1.421  0.1712  1.6574 -0.7701
  577SOL     OW 1729   2.315   0.258   2.784 -0.2889 -0.5091 -0.2277
  577SOL    HW1 1730   2.355   0.325   2.855 -1.2087  0.9680  3.2710
  577SOL    HW2 1731   2.297   0.307   2.695  0.1962 -1.9323  2.3254
  578SOL     OW 1732   1.924   1.818   1.979 -0.0619 -0.3546 -0.1033
  578SOL    HW1 1733   1.843   1.753   1.971 -2.9896  0.0456  0.4928
  578SOL    HW2 1734   1.996   1.802   1.909 -0.7457  0.0030  0.2933
  579SOL     OW 1735   0.645   1.717   1.063 -0.0746 -0.6309 -0.5236
  579SOL    HW1 1736   0.618   1.785   0.993 -0.8933  0.2626  2.5921
  579SOL    HW2 1737   0.645   1.622   1.027  0.1531 -2.0702  0.1449
  580SOL     OW 1738   1.448   2.901   2.771 -0.7598  0.4004  0.4273
  580SOL    HW1 1739   1.380   2.957   2.727 -1.2506 -0.3320 -0.3022
  580SOL    HW2 1740   1.538   2.915   2.725  1.0865  1.7265 -0.8409
  581SOL     OW 1741   0.661   0.655   2.152  0.2718  0.1320 -0.3179
  581SOL    HW1 1742   0.697   0.588   2.220  1.3430 -0.9917  2.9631
  581SOL    HW2 1743   0.697   0.749   2.173  1.9614  1.1386  2.2888
  582SOL     OW 1744   0.369   0.810   0.615  0.4020 -0.4549 -0.2318
  582SOL    HW1 1745   0.391   0.851   0.709  0.4917  0.1731 -0.3473
  582SOL    HW2 1746   0.370   0.710   0.633  1.6205  1.9134 -2.7014
  583SOL     OW 1747   0.772   1.769   1.870  0.1952 -0.0597 -0.2376
  583SOL    HW1 1748   0.699   1.825   1.907  3.1545  0.7411 -0.9167
  583SOL    HW2 1749   0.860   1.792   1.912 -0.0614 -0.3039  3.3062
  584SOL     OW 1750   2.341   2.576   0.365  0.2238 -0.0578  0.0608
  584SOL    HW1 1751   2.322   2.576   0.469 -1.6469  0.9144  5.8589
  584SOL    HW2 1752   2.369   2.670   0.340 -0.3425  0.0907 -2.5563
  585SOL     OW 1753   2.185   0.579   2.789 -0.1004  0.0794 -0.4923
  585SOL    HW1 1754   2.166   0.670   2.836 -0.4602  1.1028  1.0564
  585SOL    HW2 1755   2.237   0.521   2.858 -0.9654  0.1077  1.3741
  586SOL     OW 1756   0.490   1.457   0.323  0.1082  0.3562  0.3341
  586SOL    HW1 1757   0.582   1.489   0.344 -3.2215 -0.8964 -2.5805
  586SOL    HW2 1758   0.426   1.503   0.385  0.3528  0.1605 -1.1641
  587SOL     OW 1759   1.581   1.729   0.897  0.3915  0.6436  0.5139
  587SOL    HW1 1760   1.683   1.735   0.921  1.8142  3.6275  0.9968
  587SOL    HW2 1761   1.518   1.755   0.973  0.4474 -1.0850  2.5328
  588SOL     OW 1762   0.437   0.678   1.089 -0.1327 -0.4406  0.1479
  588SOL    HW1 1763   0.508   0.652   1.153  1.0083 -1.0193  0.3789
  588SOL    HW2 1764   0.439   0.614   1.011 -1.6743  0.1453  2.9347
  589SOL     OW 1765   1.647   2.796   1.331  0.2293 -0.2160  0.0967
  589SOL    HW1 1766   1.730   2.814   1.269  2.0689 -1.7727  0.8163
  589SOL    HW2 1767   1.668   2.827   1.426 -1.3352  1.2640  2.4923
  590SOL     OW 1768   1.332   1.015   0.354 -0.3157  0.1062  0.0945
  590SOL    HW1 1769   1.426   0.997   0.330 -3.0953  3.0879 -0.2914
  590SOL    HW2 1770   1.308   1.107   0.325 -0.0141 -0.8466 -0.8155
  591SOL     OW 1771   2.281   2.162   2.088  0.4108  0.1081  0.1659
  591SOL    HW1 1772   2.325   2.164   2.181  1.0299 -0.6383 -3.1939
  591SOL    HW2 1773   2.336   2.096   2.025 -0.7828 -0.0460  1.5107
  592SOL     OW 1774   1.453   1.896   1.094 -0.4662 -0.0311  0.0028
  592SOL    HW1 1775   1.499   1.855   1.174  1.1561 -1.3387  0.3963
  592SOL    HW2 1776   1.379   1.961   1.118  1.5960  1.7899 -0.4829
  593SOL     OW 1777   0.545   0.129   0.909  0.0240 -0.2716 -0.2401
  593SOL    HW1 1778   0.615   0.057   0.920 -0.6468  1.0031 -0.4138
  593SOL    HW2 1779   0.596   0.210   0.876  0.9167  0.8321  0.6546
  594SOL     OW 1780   3.019   0.792   1.871 -0.3105  0.1999 -0.0559
  594SOL    HW1 1781   3.033   0.862   1.941 -0.1157  0.7875 -1.1674
  594SOL    HW2 1782   0.034   0.732   1.860 -2.5913 -1.9212  0.2967
  595SOL     OW 1783   0.075   2.729   0.684 -0.7571 -0.2312 -0.3028
  595SOL    HW1 1784   0.099   2.737   0.585  1.0414  2.0868  0.3789
  595SOL    HW2 1785   3.045   2.759   0.706  0.5741  0.5298  1.4746
  596SOL     OW 1786   0.126   0.312   1.590 -0.1325 -0.3804  0.0721
  596SOL    HW1 1787   0.099   0.412   1.586  1.2452  2.9511  0.6862
  596SOL    HW2 1788   0.138   0.265   1.500 -0.0132 -0.2690 -0.6383
  597SOL     OW 1789   2.212   0.931   0.307 -0.0542  0.2162 -0.1180
  597SOL    HW1 1790   2.251   0.942   0.215 -0.3449  1.0983  1.6126
  597SOL    HW2 1791   2.240   1.014   0.359  3.0136  1.3959  2.8702
  598SOL     OW 1792   0.561   0.077   1.865 -0.3488  0.4356  0.0636
  598SOL    HW1 1793   0.480   0.053   1.802 -1.7359  0.4323  0.1793
  598SOL    HW2 1794   0.529   0.142   1.936  1.7544 -0.0804 -0.1039
  599SOL     OW 1795   2.549   1.689   0.075  0.1231 -0.2724 -0.1501
  599SOL    HW1 1796   2.571   1.787   0.062  0.8465 -0.7614  0.8442
  599SOL    HW2 1797   2.602   1.634   0.015  0.5784  2.7972  3.7306
  600SOL     OW 1798   0.924   1.242   0.063  0.2946  0.4447 -0.2954
  600SOL    HW1 1799   0.854   1.277   3.065 -2.0395 -1.9775  0.9491
  600SOL    HW2 1800   0.894   1.148   0.091  0.3608  0.2682  3.4399
  601SOL     OW 1801   1.186   1.271   3.060  0.9183  0.5079 -0.0338
  601SOL    HW1 1802   1.191   1.351   2.995  2.9226  1.8563 -2.8271
  601SOL    HW2 1803   1.087   1.246   0.018 -1.5315 -0.4233 -0.9302
  602SOL     OW 1804   0.991   3.009   1.506 -0.2041 -0.6655  0.3012
  602SOL    HW1 1805   0.974   2.992   1.604  0.0648 -0.8120 -2.8302
  602SOL    HW2 1806   1.093   2.995   1.492 -0.9107  1.8131 -0.3394
  603SOL     OW 1807   0.917   2.920   2.564  0.3838  0.0018 -0.6027
  603SOL    HW1 1808   0.976   2.850   2.602  0.2773  1.3960 -1.2222
  603SOL    HW2 1809   0.969   3.001   2.539  0.5232 -1.2424  1.5981
  604SOL     OW 1810   2.825   0.060   2.115  0.1202 -0.0933 -0.1437
  604SOL    HW1 1811   2.807   0.160   2.106 -0.6302  1.5259 -0.5051
  604SOL    HW2 1812   2.827   0.029   2.213 -0.8264  0.4962 -1.1178
  605SOL     OW 1813   2.569   2.523   1.312 -0.5924  1.1172 -0.0669
  605SOL    HW1 1814   2.503   2.508   1.391 -1.3342  2.3241  1.8779
  605SOL    HW2 1815   2.552   2.621   1.284 -2.0901 -1.4873 -2.2979
  606SOL     OW 1816   2.952   1.796   2.791 -0.2073 -0.1306  0.1561
  606SOL    HW1 1817   3.002   1.880   2.816  2.1432 -2.3570  0.6658
  606SOL    HW2 1818   2.927   1.744   2.873 -1.9486 -1.6646 -0.8532
  607SOL     OW 1819   0.952   0.152   0.806  0.4228  0.4967 -0.0835
  607SOL    HW1 1820   0.982   0.236   0.759  0.3097  0.4656 -0.9230
  607SOL    HW2 1821   1.007   0.126   0.883 -1.3956  3.3245 -0.4087
  608SOL     OW 1822   1.525   1.693   2.189 -0.2567  0.2105 -0.0805
  608SOL    HW1 1823   1.456   1.687   2.264 -0.9284 -1.3907 -4.2628
  608SOL    HW2 1824   1.594   1.621   2.200  1.2241  1.3814  0.8350
  609SOL     OW 1825   2.944   0.687   1.000 -0.0876  0.1075  0.2649
  609SOL    HW1 1826   3.035   0.697   0.963 -2.3334  1.1688  1.4879
  609SOL    HW2 1827   2.919   0.751   1.073 -2.8787  0.7232 -1.1211
  610SOL     OW 1828   0.743   2.439   2.976 -0.1809 -0.3067 -0.2861
  610SOL    HW1 1829   0.846   2.453   2.973  1.4359  0.5844  0.8428
  610SOL    HW2 1830   0.716   2.399   0.004 -0.7581  1.2033  4.9492
  611SOL     OW 1831   1.710   1.280   0.472  0.4649  0.1051  0.3634
  611SOL    HW1 1832   1.703   1.209   0.404 -0.7666 -1.3363 -0.0464
  611SOL    HW2 1833   1.619   1.292   0.513 -2.0329  1.2762  0.8136
  612SOL     OW 1834   0.839   2.548   2.508  0.0004 -0.2741 -0.2886
  612SOL    HW1 1835   0.788   2.579   2.593  0.1896 -2.2024  1.7904
  612SOL    HW2 1836   0.807   2.593   2.426  1.0602  0.4391  0.5929
  613SOL     OW 1837   1.278   1.676   0.370 -0.2626 -0.5879  0.1343
  613SOL    HW1 1838   1.355   1.649   0.431  1.7197 -0.0926  2.3914
  613SOL    HW2 1839   1.234   1.753   0.420  3.1649  0.3996  0.8084
  614SOL     OW 1840   2.741   2.230   1.744 -0.3945 -0.1666 -0.5146
  614SOL    HW1 1841   2.741   2.139   1.698  1.1331  3.4481 -2.3353
  614SOL    HW2 1842   2.779   2.222   1.843  2.7759 -2.3099  2.4040
  615SOL     OW 1843   2.529   1.312   2.997  0.0838  0.3244 -0.0343
  615SOL    HW1 1844   2.581   1.402   2.994  0.0868 -1.3471  0.3302
  615SOL    HW2 1845   2.437   1.320   2.959  1.5794 -3.5213  1.2318
  616SOL     OW 1846   1.532   3.045   0.972  0.5870  0.6778 -0.2018
  616SOL    HW1 1847   1.525   2.978   1.047  1.4168 -2.8058 -0.1994
  616SOL    HW2 1848   1.559   0.072   1.003  1.4150 -0.0217  2.7989
  617SOL     OW 1849   0.696   1.157   2.779 -0.0734 -0.2693  0.0295
  617SOL    HW1 1850   0.717   1.191   2.686  1.5070  1.6392 -1.5118
  617SOL    HW2 1851   0.599   1.135   2.789  0.6731 -2.3835  0.0543
  618SOL     OW 1852   0.468   0.668   1.593  0.3358  0.1862 -0.4738
  618SOL    HW1 1853   0.440   0.724   1.514  0.3470 -0.4263  2.9208
  618SOL    HW2 1854   0.569   0.672   1.608 -1.6119 -1.5972 -0.1033
  619SOL     OW 1855   2.853   0.823   1.675  0.2685  0.5038  0.1130
  619SOL    HW1 1856   2.895   0.788   1.590  0.6481  0.2781  2.8794
  619SOL    HW2 1857   2.917   0.808   1.748 -2.2329 -0.3987 -2.1454
  620SOL     OW 1858   2.039   1.290   0.084 -0.1901 -0.0791  0.5169
  620SOL    HW1 1859   1.990   1.202   0.088  1.2439 -0.1224  1.4283
  620SOL    HW2 1860   2.012   1.352   0.008  2.5765 -0.0747 -2.4272
  621SOL     OW 1861   2.232   3.037   1.208 -0.4009  0.0849  0.4867
  621SOL    HW1 1862   2.273   0.028   1.134  0.1798  1.7423 -3.4035
  621SOL    HW2 1863   2.266   0.002   1.300  0.5190  1.0439 -1.0987
  622SOL     OW 1864   1.409   0.662   2.214  0.7101 -0.2337 -0.0359
  622SOL    HW1 1865   1.480   0.712   2.162  0.0334  1.1686 -1.6629
  622SOL    HW2 1866   1.447   0.571   2.238 -1.1878 -1.2365 -0.2361
  623SOL     OW 1867   0.960   0.817   2.825 -0.2950 -0.3724 -0.6373
  623SOL    HW1 1868   0.863   0.841   2.831  3.6323 -0.7486  0.6382
  623SOL    HW2 1869   1.015   0.896   2.796 -2.2772 -0.4224 -2.3109
  624SOL     OW 1870   1.807   0.318   0.807  0.2747 -0.7620  0.7205
  624SOL    HW1 1871   1.788   0.422   0.788  3.4136  1.9755 -2.9565
  624SOL    HW2 1872   1.807   0.262   0.717  2.5689 -0.1935 -1.5747
  625SOL     OW 1873   0.628   1.644   0.504 -0.5035  0.2746 -0.3536
  625SOL    HW1 1874   0.698   1.567   0.503  0.7193  0.4886 -1.3571
  625SOL    HW2 1875   0.583   1.630   0.597  0.5105 -1.2733  3.5858
  626SOL     OW 1876   1.600   1.196   2.476  0.3401  0.1280 -0.1128
  626SOL    HW1 1877   1.526   1.195   2.404  0.4415 -0.8270 -0.3819
  626SOL    HW2 1878   1.596   1.286   2.522 -1.3436 -0.1548 -0.9816
  627SOL     OW 1879   0.643   0.396   1.734 -0.2739  0.1020 -0.2143
  627SOL    HW1 1880   0.709   0.326   1.773  1.0036  0.5915 -0.0159
  627SOL    HW2 1881   0.542   0.373   1.758 -0.7642 -3.2567 -0.9091
  628SOL     OW 1882   2.182   0.573   2.379 -0.6057  0.1597  0.0997
  628SOL    HW1 1883   2.117   0.603   2.449  0.8248  1.0000  0.9880
  628SOL    HW2 1884   2.139   0.597   2.290 -0.2711  1.7950  0.7640
  629SOL     OW 1885   0.704   1.613   0.151  0.2378  0.7994 -0.5082
  629SOL    HW1 1886   0.724   1.609   0.052  2.6243 -4.2388  2.1692
  629SOL    HW2 1887   0.668   1.699   0.186 -0.1906  1.2394 -2.6720
  630SOL     OW 1888   1.036   0.270   2.084  0.2635 -0.1386  0.0856
  630SOL    HW1 1889   1.024   0.320   1.994 -1.4117 -0.1643 -1.2193
  630SOL    HW2 1890   0.944   0.253   2.123 -0.4301  1.2670 -0.3999
  631SOL     OW 1891   2.379   1.090   0.846  0.8282 -0.0469 -0.2796
  631SOL    HW1 1892   2.367   1.127   0.937 -2.9264 -1.1566  0.7785
  631SOL    HW2 1893   2.308   1.121   0.781 -0.7620 -0.6960  0.2964
  632SOL     OW 1894   2.393   1.509   0.691 -0.5045  0.0057 -0.2544
  632SOL    HW1 1895   2.464   1.478   0.621 -0.4979 -1.9480 -1.2085
  632SOL    HW2 1896   2.337   1.581   0.653  4.1503 -2.4017  0.9919
  633SOL     OW 1897   0.926   1.193   0.931 -0.0169 -0.1581  0.5093
  633SOL    HW1 1898   0.906   1.176   1.027 -1.8443 -0.9264 -3.0769
  633SOL    HW2 1899   0.912   1.293   0.907 -0.4107  1.3423 -2.8483
  634SOL     OW 1900   1.615   0.013   0.693 -0.0197  0.7991  0.4207
  634SOL    HW1 1901   1.556   0.015   0.775  0.2107  0.6318 -0.4079
  634SOL    HW2 1902   1.682   3.004   0.698 -1.6732  0.1645 -0.1193
  635SOL     OW 1903   1.929   0.658   1.509 -0.2604 -0.7186 -0.4816
  635SOL    HW1 1904   2.031   0.646   1.509 -0.3481 -1.0037  0.6139
  635SOL    HW2 1905   1.902   0.673   1.605 -2.9190  0.3866 -0.0328
  636SOL     OW 1906   1.222   0.886   0.706 -0.4831  0.2732  0.2325
  636SOL    HW1 1907   1.171   0.887   0.792  0.1740  1.7046  2.2301
  636SOL    HW2 1908   1.305   0.946   0.717  2.8994  0.4308 -0.2722
  637SOL     OW 1909   1.673   2.338   2.990 -0.4981 -0.5928  0.5915
  637SOL    HW1 1910   1.592   2.360   2.933  2.7174  1.5870  3.0057
  637SOL    HW2 1911   1.721   2.259   2.956  0.8566  0.8035  1.1986
  638SOL     OW 1912   1.109   2.943   2.901 -0.6434 -0.3072  0.3740
  638SOL    HW1 1913   1.144   2.949   2.996  0.0630 -1.9594  0.4321
  638SOL    HW2 1914   1.009   2.977   2.901 -1.8895  0.7184  0.6077
  639SOL     OW 1915   1.238   1.836   1.431  0.4716 -0.1434 -0.3929
  639SOL    HW1 1916   1.315   1.782   1.388 -0.1331 -0.1585 -0.1801
  639SOL    HW2 1917   1.189   1.899   1.368  1.5461 -1.3748  1.6707
  640SOL     OW 1918   0.511   0.083   3.037 -0.0178 -0.2262  0.1057
  640SOL    HW1 1919   0.486   3.060   2.992 -1.3738  0.3143 -2.2554
  640SOL    HW2 1920   0.500   0.079   0.068  0.8040  0.8927 -1.4550
  641SOL     OW 1921   0.436   0.459   0.100  0.4548  0.1017 -0.1339
  641SOL    HW1 1922   0.381   0.377   0.118 -1.4433  1.4270  0.8128
  641SOL    HW2 1923   0.451   0.527   0.177  1.3992  1.7761  0.9529
  642SOL     OW 1924   0.401   1.509   1.062 -0.1707  0.4841 -0.6535
  642SOL    HW1 1925   0.372   1.505   1.160  3.2021 -2.1239 -1.0726
  642SOL    HW2 1926   0.481   1.452   1.045 -0.7106  1.1593  1.1938
  643SOL     OW 1927   0.406   1.832   2.493  0.2765  0.2160  0.1631
  643SOL    HW1 1928   0.447   1.844   2.398  2.3431  2.9219 -1.8644
  643SOL    HW2 1929   0.328   1.763   2.489  1.2645 -1.9910 -1.1265
  644SOL     OW 1930   1.595   2.481   0.142 -0.3191  0.0648 -0.5395
  644SOL    HW1 1931   1.642   2.426   0.071  0.4349 -0.5150 -1.7239
  644SOL    HW2 1932   1.500   2.505   0.119  0.4561 -0.6520  2.6746
  645SOL     OW 1933   1.806   2.199   1.654  0.5298  0.0756  0.1220
  645SOL    HW1 1934   1.734   2.183   1.720 -1.9338 -2.5041 -2.4046
  645SOL    HW2 1935   1.882   2.245   1.706 -0.8168 -0.3303  0.1631
  646SOL     OW 1936   0.893   2.611   0.349  0.1336  0.2858  0.1410
  646SOL    HW1 1937   0.947   2.667   0.281  0.6896  0.4634 -1.3935
  646SOL    HW2 1938   0.792   2.623   0.327 -2.6133 -0.6922 -0.2334
  647SOL     OW 1939   0.246   2.896   1.966  0.1080  0.1035 -0.6647
  647SOL    HW1 1940   0.181   2.958   2.011  3.0194  0.8571  1.7795
  647SOL    HW2 1941   0.326   2.874   2.031  2.1369 -0.8358  3.7636
  648SOL     OW 1942   2.653   1.095   0.749 -0.1903 -0.1729  0.1250
  648SOL    HW1 1943   2.702   1.015   0.791  2.1406  2.2186 -0.3213
  648SOL    HW2 1944   2.556   1.095   0.778  0.0514  2.6764 -1.4659
  649SOL     OW 1945   2.008   2.724   2.560  0.2605 -0.5960  0.2495
  649SOL    HW1 1946   1.992   2.719   2.463  1.9941 -2.1608  1.0283
  649SOL    HW2 1947   1.997   2.815   2.601  1.4163 -1.7824 -0.2006
  650SOL     OW 1948   2.211   1.479   1.556 -0.2964  0.4377 -0.2217
  650SOL    HW1 1949   2.202   1.405   1.625 -0.1194  0.5659  0.3413
  650SOL    HW2 1950   2.274   1.458   1.476  0.5560  1.8059 -3.4983
  651SOL     OW 1951   1.163   1.739   2.781  0.1255 -0.0277  0.0006
  651SOL    HW1 1952   1.081   1.789   2.810  2.7335  0.7593 -0.7467
  651SOL    HW2 1953   1.249   1.786   2.788 -3.2233  1.9679  0.6733
  652SOL     OW 1954   0.540   3.039   2.603 -0.2163 -0.0020  0.0250
  652SOL    HW1 1955   0.591   0.053   2.633 -0.3118 -2.0082  0.7343
  652SOL    HW2 1956   0.444   3.066   2.579  0.7856 -0.9219  0.6098
  653SOL     OW 1957   2.383   1.991   0.844  0.3635  0.1040 -0.4778
  653SOL    HW1 1958   2.364   1.965   0.941 -0.0934  0.2570  0.3936
  653SOL    HW2 1959   2.470   2.045   0.836 -0.5133  0.9364 -1.5353
  654SOL     OW 1960   2.342   2.948   2.004  0.0688  0.0657 -0.3045
  654SOL    HW1 1961   2.276   3.026   1.986  1.9899 -1.6064 -0.8112
  654SOL    HW2 1962   2.442   2.975   2.012  0.8205  0.1224 -0.0546
  655SOL     OW 1963   2.579   2.080   1.229  0.3113 -0.1260 -0.1625
  655SOL    HW1 1964   2.605   2.167   1.187 -1.9871  0.5590 -1.5713
  655SOL    HW2 1965   2.484   2.060   1.200  0.3713 -0.4571  1.0910
  656SOL     OW 1966   2.525   1.828   2.722 -0.4898  0.0828 -0.3542
  656SOL    HW1 1967   2.609   1.884   2.722  2.1417 -1.2808  2.8434
  656SOL    HW2 1968   2.525   1.761   2.644  1.1423 -1.0480  0.2486
  657SOL     OW 1969   0.062   1.071   0.439  0.0576  0.4273  0.4968
  657SOL    HW1 1970   3.037   1.087   0.397  0.1836 -1.2078 -1.0827
  657SOL    HW2 1971   0.059   1.099   0.538 -0.2288 -0.0496 -0.6641
  658SOL     OW 1972   1.535   1.486   1.558  0.4908 -0.1649  0.1556
  658SOL    HW1 1973   1.474   1.459   1.484 -1.9385 -0.3663  0.8048
  658SOL    HW2 1974   1.487   1.554   1.617  0.2092 -0.6934 -1.5657
  659SOL     OW 1975   0.912   3.021   1.240 -0.1590  0.3369 -0.0362
  659SOL    HW1 1976   0.941   0.019   1.163 -0.4355 -0.6191  2.3774
  659SOL    HW2 1977   0.965   3.036   1.328  0.6174  1.2389  0.9736
  660SOL     OW 1978   2.328   0.724   1.127 -0.4761 -0.6794  0.5388
  660SOL    HW1 1979   2.409   0.740   1.061  1.4876  1.1508  0.0517
  660SOL    HW2 1980   2.284   0.634   1.121 -0.1563  3.9588  1.5628
  661SOL     OW 1981   0.512   1.832   0.097  0.1827 -0.1831 -0.0314
  661SOL    HW1 1982   0.478   1.923   0.123 -1.9169 -0.4293  1.2320
  661SOL    HW2 1983   0.577   1.842   0.019  0.1114 -1.5387 -1.0087
  662SOL     OW 1984   2.320   0.695   2.119 -0.0400 -0.3426 -0.1609
  662SOL    HW1 1985   2.360   0.621   2.179 -0.3491 -1.3694  2.2655
  662SOL    HW2 1986   2.386   0.732   2.055  0.0196  1.2546 -1.5536
  663SOL     OW 1987   1.908   1.176   1.132 -0.1396  0.0777 -0.1266
  663SOL    HW1 1988   1.831   1.167   1.068  0.2349  0.3725 -1.6136
  663SOL    HW2 1989   1.996   1.143   1.090 -1.7303 -0.2171 -1.4328
  664SOL     OW 1990   0.259   2.994   1.094 -0.3122  0.2899 -0.0234
  664SOL    HW1 1991   0.279   3.020   0.997 -0.1598 -0.8439  1.2972
  664SOL    HW2 1992   0.246   2.891   1.102  4.3217 -1.7286  0.2139
  665SOL     OW 1993   1.548   0.386   2.845  0.0365 -0.1020 -0.0392
  665SOL    HW1 1994   1.632   0.380   2.901  2.1289  0.7367  1.3740
  665SOL    HW2 1995   1.509   0.480   2.832 -2.0191  1.8052  2.0491
  666SOL     OW 1996   0.485   0.249   2.045  0.4900 -0.1488  0.2416
  666SOL    HW1 1997   0.436   0.186   2.108 -1.7297 -0.0666 -3.1614
  666SOL    HW2 1998   0.443   0.345   2.047 -2.3610  0.2642 -0.8485
  667SOL     OW 1999   1.775   1.723   1.627  0.7745 -0.5530  0.0189
  667SOL    HW1 2000   1.866   1.702   1.601 -1.5309 -1.0542 -0.6490
  667SOL    HW2 2001   1.706   1.649   1.612 -2.0871 -2.0830  0.9762
  668SOL     OW 2002   3.056   1.435   2.190 -0.8106 -0.3065 -0.1069
  668SOL    HW1 2003   0.010   1.366   2.267 -0.7272 -0.9778 -0.0622
  668SOL    HW2 2004   0.015   1.399   2.101  0.2890 -1.1222  1.4895
  669SOL     OW 2005   2.466   2.543   3.052 -0.1295 -0.1600 -0.0407
  669SOL    HW1 2006   2.512   2.557   2.961 -1.8487 -2.1462  1.2833
  669SOL    HW2 2007   2.474   2.627   0.038 -0.3651  2.2923 -2.3327
  670SOL     OW 2008   2.460   1.307   1.886  0.1048  0.4799 -0.2407
  670SOL    HW1 2009   2.451   1.207   1.904 -1.9247 -0.7881 -1.2092
  670SOL    HW2 2010   2.544   1.353   1.924  1.5019  0.5218 -0.2425
  671SOL     OW 2011   2.647   1.833   0.471 -0.2718  0.4373  0.2770
  671SOL    HW1 2012   2.735   1.784   0.472 -2.8799  2.1447  1.6668
  671SOL    HW2 2013   2.666   1.917   0.409  1.8569  0.0348 -2.9131
  672SOL     OW 2014   1.321   1.073   2.127 -0.0569 -0.0652  0.5598
  672SOL    HW1 2015   1.371   1.017   2.058  2.3562 -0.8142 -0.3119
  672SOL    HW2 2016   1.227   1.103   2.096 -0.4884 -0.3182  0.3659
  673SOL     OW 2017   2.770   2.016   1.579  0.0059 -0.3404  0.2089
  673SOL    HW1 2018   2.691   2.080   1.560  0.2108 -0.1694  0.9579
  673SOL    HW2 2019   2.825   1.995   1.493  0.7376 -1.0280  1.4233
  674SOL     OW 2020   1.170   1.538   1.668  0.0016 -0.5209 -0.2854
  674SOL    HW1 2021   1.214   1.524   1.577  0.7174  1.0844  0.5625
  674SOL    HW2 2022   1.074   1.574   1.654 -3.2618  3.0655  0.0060
  675SOL     OW 2023   0.100   0.859   1.398  0.4274 -0.6884 -0.1280
  675SOL    HW1 2024   0.047   0.940   1.363  0.1612  0.1770 -2.2152
  675SOL    HW2 2025   0.040   0.775   1.419 -1.7707  0.4268  1.9087
  676SOL     OW 2026   2.947   1.050   1.334  0.3329  1.4629  0.1867
  676SOL    HW1 2027   2.916   0.964   1.290  0.5403 -0.7263 -3.3804
  676SOL    HW2 2028   2.872   1.115   1.354  2.1657  1.7854  1.9805
  677SOL     OW 2029   1.976   1.425   2.477  0.0128 -0.0344 -0.1197
  677SOL    HW1 2030   1.930   1.336   2.455 -0.5168 -0.7856  2.0497
  677SOL    HW2 2031   2.008   1.475   2.395 -0.0241 -0.8693  0.2456
  678SOL     OW 2032   2.766   1.636   1.104  0.1070  0.0815 -0.3580
  678SOL    HW1 2033   2.783   1.606   1.008 -1.4468 -0.5857  3.8195
  678SOL    HW2 2034   2.770   1.735   1.118 -1.3660  1.1598  2.2438
  679SOL     OW 2035   0.492   2.578   0.519 -0.7732  0.0498  1.2263
  679SOL    HW1 2036   0.587   2.585   0.552  1.6107 -0.2168 -1.1799
  679SOL    HW2 2037   0.484   2.486   0.483  0.3974 -1.3945  2.4216
  680SOL     OW 2038   0.181   1.636   0.956  0.0671 -0.9449 -0.1194
  680SOL    HW1 2039   0.176   1.716   1.022  2.0774  0.0456 -0.0876
  680SOL    HW2 2040   0.259   1.577   0.986  0.4608 -2.7010 -0.7792
  681SOL     OW 2041   1.053   0.062   1.040  0.2115 -0.1141 -0.1103
  681SOL    HW1 2042   1.079   0.152   1.073 -0.3909 -2.4457 -0.9409
  681SOL    HW2 2043   1.120   3.054   1.062  1.2055  0.4932  0.1367
  682SOL     OW 2044   1.788   2.842   1.792  0.2222  0.1874  0.1503
  682SOL    HW1 2045   1.797   2.743   1.775  2.2705 -1.5961 -1.7137
  682SOL    HW2 2046   1.754   2.889   1.705 -1.3091  2.6684 -2.3051
  683SOL     OW 2047   2.399   1.413   1.378  0.0861  0.2003 -0.6018
  683SOL    HW1 2048   2.466   1.475   1.328  1.0035  1.5273  0.1330
  683SOL    HW2 2049   2.438   1.384   1.469 -1.2628 -3.7100  2.5990
  684SOL     OW 2050   2.836   1.522   1.767  0.1313  0.6070 -0.2550
  684SOL    HW1 2051   2.759   1.563   1.707 -3.0163 -0.4174 -1.1498
  684SOL    HW2 2052   2.911   1.588   1.780 -2.7257 -1.7986  0.7677
  685SOL     OW 2053   1.575   1.630   0.086  0.0386  0.2145 -0.2281
  685SOL    HW1 2054   1.583   1.725   0.119 -1.9548 -0.3602  2.3723
  685SOL    HW2 2055   1.554   1.624   3.053  1.4642  2.0489 -0.5359
  686SOL     OW 2056   2.963   0.664   1.444 -0.7712 -0.0172  0.2153
  686SOL    HW1 2057   3.037   0.628   1.506  1.5064  0.7040 -1.0860
  686SOL    HW2 2058   2.873   0.618   1.465  0.6007  3.2443 -0.9928
  687SOL     OW 2059   1.731   0.086   2.915 -0.1956  0.3049 -0.2915
  687SOL    HW1 2060   1.656   0.023   2.947 -1.0499 -0.6265 -0.9455
  687SOL    HW2 2061   1.720   0.118   2.818  1.3297  0.3480 -0.2560
  688SOL     OW 2062   1.292   1.940   2.510 -0.4254 -0.0503 -0.1147
  688SOL    HW1 2063   1.309   1.999   2.591 -0.4468 -0.1400 -1.9778
  688SOL    HW2 2064   1.328   1.981   2.428 -0.5643  0.7579  2.1959
  689SOL     OW 2065   2.140   1.319   1.758 -0.0769 -0.3833 -0.0965
  689SOL    HW1 2066   2.192   1.306   1.848 -2.4175 -0.8118  2.5640
  689SOL    HW2 2067   2.088   1.236   1.724  0.5193  2.7477 -0.6819
  690SOL     OW 2068   2.222   2.242   1.519 -0.4924 -0.0168 -0.1967
  690SOL    HW1 2069   2.255   2.165   1.578  1.0652 -0.8239  1.4656
  690SOL    HW2 2070   2.150   2.217   1.450 -0.1397 -2.9156 -2.4261
  691SOL     OW 2071   0.348   1.738   0.466 -0.5044 -0.5021 -0.4601
  691SOL    HW1 2072   0.322   1.745   0.564  0.7853 -1.0091  0.3550
  691SOL    HW2 2073   0.449   1.752   0.450  0.7443  0.8301  0.5958
  692SOL     OW 2074   2.815   2.853   2.687 -0.6865 -0.0915  0.2241
  692SOL    HW1 2075   2.729   2.845   2.636 -1.7927  1.7968 -0.7553
  692SOL    HW2 2076   2.893   2.792   2.652 -2.3856 -0.8160 -2.0360
  693SOL     OW 2077   0.069   1.373   1.946  0.6186  0.4893  0.7621
  693SOL    HW1 2078   0.007   1.311   1.892  0.9513  2.0874  0.0308
  693SOL    HW2 2079   0.164   1.352   1.918 -2.0550  0.1111  2.4674
  694SOL     OW 2080   2.373   0.277   2.134  0.5183 -0.0541  0.1910
  694SOL    HW1 2081   2.410   0.273   2.039  0.0690 -1.0406  0.4363
  694SOL    HW2 2082   2.273   0.284   2.139 -0.7361 -3.2701  1.0957
  695SOL     OW 2083   1.014   0.854   2.390  0.2968  0.4343 -0.4590
  695SOL    HW1 2084   1.116   0.861   2.381  0.0281 -0.8904  0.4185
  695SOL    HW2 2085   0.972   0.930   2.440  0.8579 -1.9414 -0.5550
  696SOL     OW 2086   2.047   2.767   1.568 -0.0866 -0.8647  0.5336
  696SOL    HW1 2087   1.980   2.708   1.612  1.1158  1.4900 -2.9902
  696SOL    HW2 2088   2.003   2.852   1.526  0.4448  1.0284 -0.4572
  697SOL     OW 2089   1.187   0.068   2.217  0.1167 -0.3012 -0.2216
  697SOL    HW1 2090   1.139   3.046   2.202 -0.8164  1.7180 -0.1836
  697SOL    HW2 2091   1.139   0.143   2.163 -1.0355 -0.5330 -1.2039
  698SOL     OW 2092   2.335   1.834   2.450 -0.1175 -0.1161 -0.8301
  698SOL    HW1 2093   2.325   1.838   2.351 -0.1472 -0.9608  2.0990
  698SOL    HW2 2094   2.398   1.761   2.471 -0.0043  2.0810 -2.2729
  699SOL     OW 2095   1.864   0.721   0.100 -0.3645  0.0106  0.2943
  699SOL    HW1 2096   1.900   0.801   0.151  0.5305  0.5701  4.3915
  699SOL    HW2 2097   1.825   0.657   0.164  2.5097  1.3951  1.5159
  700SOL     OW 2098   1.200   2.923   1.124  0.0617 -0.5271 -0.0242
  700SOL    HW1 2099   1.288   2.911   1.171  1.5181 -0.7360  0.8457
  700SOL    HW2 2100   1.125   2.894   1.181 -0.8016  2.2687 -2.7271
  701SOL     OW 2101   0.106   0.575   0.371 -0.3654 -0.1431  0.2175
  701SOL    HW1 2102   0.129   0.505   0.444  3.9669 -2.3017 -0.7549
  701SOL    HW2 2103   0.111   0.669   0.405 -2.8547 -0.3271 -1.8061
  702SOL     OW 2104   1.541   0.039   1.535 -0.5628 -0.2484 -0.1175
  702SOL    HW1 2105   1.467   0.080   1.477 -0.0968  1.5698  1.1205
  702SOL    HW2 2106   1.536   0.081   1.631  2.0475  1.4016  1.1699
  703SOL     OW 2107   2.860   0.807   1.226  0.5580 -0.0917  0.0937
  703SOL    HW1 2108   2.763   0.798   1.198  2.3901  1.8493 -2.0953
  703SOL    HW2 2109   2.893   0.740   1.295  0.0193 -0.4457 -4.9505
  704SOL     OW 2110   0.795   2.536   1.354 -0.0174 -0.0859 -0.5513
  704SOL    HW1 2111   0.835   2.443   1.359  1.0558  0.6694  0.7877
  704SOL    HW2 2112   0.703   2.527   1.317 -0.7382  1.4376 -2.6046
  705SOL     OW 2113   0.298   1.728   2.941  0.1349 -0.1435  0.1745
  705SOL    HW1 2114   0.282   1.674   2.854  1.3014  2.3922 -0.9153
  705SOL    HW2 2115   0.346   1.673   3.011 -2.7278  0.1473  2.1337
  706SOL     OW 2116   3.062   0.020   0.125 -0.5080  0.5445 -0.2837
  706SOL    HW1 2117   3.021   0.112   0.116  1.3455 -0.3594 -1.5515
  706SOL    HW2 2118   3.051   3.054   0.218 -2.0009 -2.6383  0.0595
  707SOL     OW 2119   1.587   2.898   2.223  0.2145  0.3904  0.2237
  707SOL    HW1 2120   1.561   2.976   2.160  2.2195  0.8025  2.1557
  707SOL    HW2 2121   1.603   2.814   2.166  2.8370  0.5891 -3.3593
  708SOL     OW 2122   0.234   2.970   1.517  0.0240 -0.2623 -0.9129
  708SOL    HW1 2123   0.282   3.019   1.438 -0.5193  0.2285  0.3998
  708SOL    HW2 2124   0.220   2.875   1.498  0.7509  2.3441 -0.8437
  709SOL     OW 2125   0.106   0.589   1.576 -0.0602  0.6889 -0.0375
  709SOL    HW1 2126   0.185   0.602   1.512 -0.0983 -0.1286  1.6341
  709SOL    HW2 2127   0.131   0.592   1.672 -1.2320 -2.0720 -1.6174
  710SOL     OW 2128   0.380   0.952   0.876 -0.5768 -0.1699  0.1318
  710SOL    HW1 2129   0.330   1.034   0.849  0.7040  1.9525 -1.9343
  710SOL    HW2 2130   0.332   0.897   0.948 -0.3396 -0.5699  1.0499
  711SOL     OW 2131   2.575   2.849   1.710 -0.3457  0.0477  0.1299
  711SOL    HW1 2132   2.486   2.833   1.663  1.2027 -0.8323 -1.3607
  711SOL    HW2 2133   2.580   2.927   1.775  1.8872  1.5367  4.7823
  712SOL     OW 2134   0.262   2.489   2.251  0.4344 -0.0063  0.0144
  712SOL    HW1 2135   0.163   2.460   2.251 -2.9972 -0.8702  0.7737
  712SOL    HW2 2136   0.318   2.405   2.267  1.5027 -0.3798  0.1824
  713SOL     OW 2137   2.615   0.319   0.605 -0.3097  0.0433 -0.0254
  713SOL    HW1 2138   2.528   0.296   0.561 -2.0474 -1.2028 -1.4566
  713SOL    HW2 2139   2.692   0.291   0.547 -1.9949 -0.0355 -1.3559
  714SOL     OW 2140   1.751   1.984   2.469  0.1249  0.2112 -0.1653
  714SOL    HW1 2141   1.689   1.960   2.393 -1.7813 -0.7359 -3.2015
  714SOL    HW2 2142   1.840   2.025   2.432 -0.5218  3.5273 -1.5824
  715SOL     OW 2143   0.079   0.643   0.827  0.4451  0.3485  0.6117
  715SOL    HW1 2144   0.064   0.543   0.835 -2.4567  1.0617  0.6041
  715SOL    HW2 2145   0.043   0.673   0.737 -0.6457 -0.6115  1.6992
  716SOL     OW 2146   0.854   0.507   1.636  0.0280 -0.2706 -0.2098
  716SOL    HW1 2147   0.833   0.573   1.565 -1.0417 -1.1861  0.7585
  716SOL    HW2 2148   0.766   0.463   1.659  3.1139  0.3724 -4.0752
  717SOL     OW 2149   0.778   0.480   2.323  0.2313 -0.6063 -0.1581
  717SOL    HW1 2150   0.785   0.385   2.283 -0.9235 -0.2938 -0.1625
  717SOL    HW2 2151   0.722   0.472   2.410 -1.0420  2.1053  4.0868
  718SOL     OW 2152   1.214   0.129   0.579 -0.1284  0.6433  0.2278
  718SOL    HW1 2153   1.155   0.208   0.607  0.4549  0.4838 -1.2499
  718SOL    HW2 2154   1.154   0.046   0.568 -0.6284  1.3844 -0.3644
  719SOL     OW 2155   3.017   2.354   2.851  0.1282  0.2690 -0.1013
  719SOL    HW1 2156   2.936   2.331   2.797  1.3792 -0.7905 -0.4042
  719SOL    HW2 2157   3.029   2.455   2.859 -1.4031 -1.2742  0.5552
  720SOL     OW 2158   1.143   0.531   1.539  0.4336  0.1398 -0.2770
  720SOL    HW1 2159   1.163   0.536   1.639 -3.0824 -2.0665 -2.1891
  720SOL    HW2 2160   1.044   0.522   1.528  3.3699 -3.1929  0.7998
  721SOL     OW 2161   2.876   2.758   0.745  0.1525  0.3856  0.1745
  721SOL    HW1 2162   2.857   2.675   0.804  2.3207  3.3448 -0.0497
  721SOL    HW2 2163   2.798   2.823   0.744  0.3543 -0.4382  0.0240
  722SOL     OW 2164   0.716   1.363   3.022  0.1074  0.2420 -0.2685
  722SOL    HW1 2165   0.726   1.463   3.007  1.7166  0.4509  0.2264
  722SOL    HW2 2166   0.665   1.308   2.955  0.8641 -1.0233  0.4645
  723SOL     OW 2167   2.495   0.866   1.465 -0.0364  0.5079 -0.0079
  723SOL    HW1 2168   2.547   0.898   1.388 -3.5967 -4.4588  1.2848
  723SOL    HW2 2169   2.402   0.828   1.432 -2.2514 -1.1132  0.9372
  724SOL     OW 2170   0.988   1.888   0.281  0.0279 -0.0980 -0.1083
  724SOL    HW1 2171   1.031   1.866   0.191 -0.5113  0.3832 -0.6398
  724SOL    HW2 2172   1.057   1.891   0.353 -0.8337 -1.2099 -1.7305
  725SOL     OW 2173   0.373   0.812   1.392 -0.3553  0.2710  0.0360
  725SOL    HW1 2174   0.425   0.839   1.309  0.2658  2.5542  0.0498
  725SOL    HW2 2175   0.272   0.844   1.387  2.3032  0.3641  3.6699
  726SOL     OW 2176   2.431   1.013   2.806 -0.1046  0.0541 -0.3621
  726SOL    HW1 2177   2.366   1.029   2.880 -0.4479  2.4425  2.4471
  726SOL    HW2 2178   2.435   1.097   2.746  0.7946  0.8267 -1.4277
  727SOL     OW 2179   1.808   1.277   2.769 -0.2268  0.2511  0.0926
  727SOL    HW1 2180   1.740   1.309   2.841  0.3710  1.2353 -2.0739
  727SOL    HW2 2181   1.792   1.322   2.678 -2.2302 -0.6386 -0.6196
  728SOL     OW 2182   1.736   2.353   1.250  0.0094 -0.1619  0.6452
  728SOL    HW1 2183   1.794   2.427   1.206  0.3020 -0.8529 -2.3963
  728SOL    HW2 2184   1.770   2.263   1.214 -1.2028  0.6691 -1.9576
  729SOL     OW 2185   1.828   0.779   2.218 -0.0119 -0.0241 -0.2157
  729SOL    HW1 2186   1.922   0.794   2.177  3.5626 -1.6368 -2.4702
  729SOL    HW2 2187   1.784   0.864   2.259 -0.9470  2.6283  2.1146
  730SOL     OW 2188   1.186   0.508   0.945 -0.1150 -0.6748  0.1223
  730SOL    HW1 2189   1.216   0.587   1.005  0.4169 -0.9100 -0.7012
  730SOL    HW2 2190   1.148   0.433   1.003 -2.8495  1.9161  1.8198
  731SOL     OW 2191   0.602   0.623   2.702  0.5805 -0.1127 -0.4667
  731SOL    HW1 2192   0.654   0.710   2.714 -1.3114 -0.5443  0.1969
  731SOL    HW2 2193   0.506   0.641   2.722  1.8082  0.7196 -1.0516
  732SOL     OW 2194   0.697   0.850   0.631 -0.0178  0.7694 -0.0268
  732SOL    HW1 2195   0.763   0.926   0.624 -0.8353  0.9265 -2.6085
  732SOL    HW2 2196   0.620   0.863   0.572  3.4742 -1.1485  3.1559
  733SOL     OW 2197   1.388   1.772   1.975 -0.4085  0.0311 -0.3922
  733SOL    HW1 2198   1.291   1.750   2.004  2.4447  1.5623 -0.0327
  733SOL    HW2 2199   1.452   1.728   2.038 -0.7803 -0.0102 -0.5975
  734SOL     OW 2200   0.200   2.267   2.867 -0.0037 -0.3040  0.1268
  734SOL    HW1 2201   0.108   2.315   2.859  1.0348 -0.5888  2.2254
  734SOL    HW2 2202   0.193   2.165   2.855 -2.3227 -1.9289  1.0952
  735SOL     OW 2203   2.548   0.505   0.792  0.4662 -0.2012 -0.1458
  735SOL    HW1 2204   2.462   0.564   0.778 -0.3863  0.1362  0.5704
  735SOL    HW2 2205   2.556   0.432   0.723 -0.0625  0.7341  1.9723
  736SOL     OW 2206   2.120   1.633   2.323 -0.1744  0.1250 -0.3659
  736SOL    HW1 2207   2.177   1.630   2.407  0.9365 -0.9557 -0.0851
  736SOL    HW2 2208   2.083   1.726   2.315  0.2091  0.5167 -0.9994
  737SOL     OW 2209   2.938   0.437   0.319  0.2718  0.3102  0.1150
  737SOL    HW1 2210   2.863   0.495   0.288  1.5794 -1.6285 -1.3090
  737SOL    HW2 2211   3.028   0.479   0.332  2.6076  1.9927  0.0829
  738SOL     OW 2212   0.652   2.071   1.354  0.0635 -0.7528  0.0965
  738SOL    HW1 2213   0.611   2.142   1.419  0.2883 -1.7428  2.0560
  738SOL    HW2 2214   0.588   2.002   1.320  1.7647  4.1783  0.7781
  739SOL     OW 2215   1.351   2.671   2.087  0.1978  1.1038 -0.7550
  739SOL    HW1 2216   1.347   2.593   2.020  0.4229 -0.3261 -1.7532
  739SOL    HW2 2217   1.308   2.751   2.046 -0.9173 -2.1811 -0.9200
  740SOL     OW 2218   2.107   2.427   1.203 -0.0925 -0.3903  0.2396
  740SOL    HW1 2219   2.100   2.341   1.252  0.2814  3.2930  0.2245
  740SOL    HW2 2220   2.158   2.496   1.253 -2.2143 -3.0928 -2.4023
  741SOL     OW 2221   2.194   0.316   0.308  0.6666 -0.0228  0.1222
  741SOL    HW1 2222   2.158   0.410   0.314 -1.9479  0.3823 -0.2207
  741SOL    HW2 2223   2.119   0.248   0.308  1.9714  1.7912  1.0775
  742SOL     OW 2224   1.370   2.582   0.051 -0.2905  0.1899 -0.2362
  742SOL    HW1 2225   1.337   2.669   0.096 -1.6442  0.6741 -1.1897
  742SOL    HW2 2226   1.370   2.596   3.019 -1.3449 -1.3137  1.4300
  743SOL     OW 2227   2.268   1.137   2.046  0.2457  0.0946  0.1763
  743SOL    HW1 2228   2.346   1.081   2.012  0.2735  0.1443 -1.1080
  743SOL    HW2 2229   2.261   1.135   2.148 -0.5932  0.3670  0.1198
  744SOL     OW 2230   2.831   0.240   0.466  0.0403 -0.1975  0.4239
  744SOL    HW1 2231   2.845   0.141   0.433  0.2706 -1.2535  0.4744
  744SOL    HW2 2232   2.866   0.307   0.397  0.1883 -0.5460 -1.0775
  745SOL     OW 2233   2.247   1.124   1.385 -0.4116  0.5998  0.4082
  745SOL    HW1 2234   2.187   1.120   1.467  1.6428 -0.1316  2.7309
  745SOL    HW2 2235   2.216   1.198   1.324 -0.7025 -1.5310  0.0682
  746SOL     OW 2236   0.901   1.450   0.902 -0.2362 -0.8449 -0.5674
  746SOL    HW1 2237   0.966   1.502   0.964  1.5828 -0.0291  0.0067
  746SOL    HW2 2238   0.924   1.472   0.807  2.8592 -0.1006  0.7234
  747SOL     OW 2239   0.998   1.461   1.323 -0.2730 -0.1282  0.5216
  747SOL    HW1 2240   0.931   1.540   1.313  0.6253 -0.5149 -2.8233
  747SOL    HW2 2241   0.972   1.387   1.387 -0.8606  2.0874  0.1490
  748SOL     OW 2242   0.440   2.937   2.858  0.3518  0.6309  0.1803
  748SOL    HW1 2243   0.471   2.981   2.775 -0.9706  3.7951 -1.2472
  748SOL    HW2 2244   0.431   2.834   2.843 -0.0467 -0.0613 -1.1481
  749SOL     OW 2245   0.040   0.945   2.853  0.1826  0.2836 -0.2885
  749SOL    HW1 2246   3.043   1.005   2.902 -1.5122  1.3548 -2.2090
  749SOL    HW2 2247   3.066   0.914   2.762  2.3738  1.2409 -0.9177
  750SOL     OW 2248   1.444   0.914   1.941  0.4978 -0.3389 -0.1506
  750SOL    HW1 2249   1.430   0.865   1.853  0.3391 -1.4875  0.4758
  750SOL    HW2 2250   1.522   0.876   1.993 -1.7978  0.3527 -1.5851
  751SOL     OW 2251   2.663   0.778   0.445  0.2067 -1.1051  0.3030
  751SOL    HW1 2252   2.705   0.737   0.359 -1.8400 -2.6676 -1.5187
  751SOL    HW2 2253   2.569   0.736   0.460 -1.6073 -0.7801 -0.8591
  752SOL     OW 2254   2.515   2.935   1.038  0.4521  0.1785  0.0688
  752SOL    HW1 2255   2.509   3.034   1.047  0.8051  2.4686 -1.9626
  752SOL    HW2 2256   2.450   2.902   0.962 -2.1681 -1.1628  0.8344
  753SOL     OW 2257   0.841   2.268   1.356  0.1261  0.6646 -0.0546
  753SOL    HW1 2258   0.921   2.252   1.418 -0.7708  1.7639  1.6947
  753SOL    HW2 2259   0.775   2.190   1.354  0.8392  1.8368 -1.2346
  754SOL     OW 2260   3.000   2.637   2.120 -0.1366 -0.3580 -0.0758
  754SOL    HW1 2261   3.032   2.694   2.200  1.6284 -2.2753  1.9905
  754SOL    HW2 2262   3.052   2.640   2.025  2.8402  2.5508 -3.6305
  755SOL     OW 2263   2.377   0.563   0.154 -0.2306  0.1320  0.0009
  755SOL    HW1 2264   2.434   0.646   0.143 -2.7032 -1.4977  0.1574
  755SOL    HW2 2265   2.328   0.557   0.244  0.2597 -1.3090  2.1133
  756SOL     OW 2266   2.015   2.439   0.002  0.0625  0.1146 -0.2426
  756SOL    HW1 2267   2.032   2.529   3.021 -2.2118 -2.5422  0.2974
  756SOL    HW2 2268   2.100   2.392   0.032 -0.3534 -1.0310 -1.7559
  757SOL     OW 2269   2.383   0.227   0.484  0.4327 -0.0542  0.3299
  757SOL    HW1 2270   2.307   0.269   0.432 -1.7676 -1.2472  1.7317
  757SOL    HW2 2271   2.349   0.151   0.550 -0.7807 -3.5507  1.8607
  758SOL     OW 2272   2.063   0.862   1.743 -0.4076  0.2936  0.1187
  758SOL    HW1 2273   1.982   0.806   1.763  0.8896  2.7156 -3.8969
  758SOL    HW2 2274   2.146   0.810   1.758 -2.2052  0.9726 -0.8457
  759SOL     OW 2275   2.620   0.563   1.247 -0.4739 -0.0572  0.0808
  759SOL    HW1 2276   2.603   0.664   1.245 -2.7377 -1.8240  0.5471
  759SOL    HW2 2277   2.649   0.533   1.157 -0.6283  2.2169  0.9985
  760SOL     OW 2278   0.246   1.249   1.404  0.3365  0.2958  0.0783
  760SOL    HW1 2279   0.297   1.183   1.464 -0.2113 -1.7756 -1.1850
  760SOL    HW2 2280   0.304   1.326   1.366  1.2343 -1.2772 -0.9219
  761SOL     OW 2281   1.058   0.523   0.051  0.3116 -0.2709 -0.3234
  761SOL    HW1 2282   1.073   0.491   3.020  0.7249  1.4300 -1.8912
  761SOL    HW2 2283   1.090   0.621   0.064  1.2517  1.3255  0.4334
  762SOL     OW 2284   1.042   1.903   1.236  0.6881  0.1132  0.1113
  762SOL    HW1 2285   0.975   1.928   1.163  0.3240 -2.0428  0.8966
  762SOL    HW2 2286   0.988   1.863   1.315 -0.4792  2.1067 -0.3018
  763SOL     OW 2287   1.325   0.677   1.398  0.1789 -0.4952  0.3539
  763SOL    HW1 2288   1.339   0.758   1.456  1.7740  3.1146  0.9050
  763SOL    HW2 2289   1.245   0.621   1.434 -2.5625 -0.2889  0.1150
  764SOL     OW 2290   0.370   2.487   3.002  0.3093 -0.0740  0.1822
  764SOL    HW1 2291   0.407   2.451   2.914 -1.8742  0.6228  0.4390
  764SOL    HW2 2292   0.272   2.460   3.004  0.2959 -0.8513 -0.7195
  765SOL     OW 2293   0.607   2.796   1.620  0.3686  0.1089 -0.1161
  765SOL    HW1 2294   0.610   2.837   1.715  1.7913  2.2214 -1.7964
  765SOL    HW2 2295   0.613   2.863   1.545  2.1373 -0.6103  0.5280
  766SOL     OW 2296   2.558   1.675   2.139 -0.1205  0.4600 -0.1850
  766SOL    HW1 2297   2.503   1.751   2.175  1.4307  0.3489 -0.3747
  766SOL    HW2 2298   2.660   1.701   2.135  3.2081  0.5511  0.0046
  767SOL     OW 2299   1.401   1.253   2.302 -0.3056  0.1349 -0.0421
  767SOL    HW1 2300   1.316   1.292   2.349 -1.9775  1.5298  1.5860
  767SOL    HW2 2301   1.372   1.201   2.218  0.0076  1.1926 -4.4517
  768SOL     OW 2302   1.560   1.902   0.271 -0.0668 -0.2102 -0.0153
  768SOL    HW1 2303   1.533   1.879   0.365  3.6076 -2.3555 -1.8739
  768SOL    HW2 2304   1.658   1.882   0.242  0.9519 -0.2837 -1.9366
  769SOL     OW 2305   0.505   1.582   0.737  0.1704 -0.6491 -0.4146
  769SOL    HW1 2306   0.438   1.660   0.734  2.2561  1.6574  0.4680
  769SOL    HW2 2307   0.507   1.539   0.830  0.8804 -0.2397 -0.9930
  770SOL     OW 2308   1.263   0.869   2.339  0.2670  0.4960 -0.6650
  770SOL    HW1 2309   1.294   0.779   2.302 -1.9743 -3.0662 -2.8956
  770SOL    HW2 2310   1.296   0.941   2.274  0.6040  0.5701 -0.9866
  771SOL     OW 2311   2.871   3.041   2.358 -0.5014  0.0188  0.1413
  771SOL    HW1 2312   2.781   0.005   2.391 -0.3802  3.8504  0.6433
  771SOL    HW2 2313   2.943   0.006   2.422  0.0094  1.0204 -0.6949
  772SOL     OW 2314   2.317   1.817   2.169 -0.2428 -0.0431 -0.1138
  772SOL    HW1 2315   2.219   1.830   2.195  0.2998 -1.3210 -1.9112
  772SOL    HW2 2316   2.334   1.846   2.076 -2.3533  2.6986 -0.3370
  773SOL     OW 2317   0.700   1.361   1.590  0.1038 -0.2577  0.3812
  773SOL    HW1 2318   0.701   1.259   1.585  0.7152  1.5441  1.7160
  773SOL    HW2 2319   0.686   1.399   1.497 -2.0596  0.0978 -1.5864
  774SOL     OW 2320   1.284   0.857   2.964  0.7539 -0.4773  0.3364
  774SOL    HW1 2321   1.247   0.903   2.880 -1.1901  1.1690 -0.0124
  774SOL    HW2 2322   1.203   0.839   3.021  1.1238 -0.4229 -0.7688
  775SOL     OW 2323   1.785   2.594   2.977 -0.6220 -0.1813 -0.1044
  775SOL    HW1 2324   1.830   2.615   3.064  0.8528 -0.4989 -3.0338
  775SOL    HW2 2325   1.749   2.497   2.972 -1.2352 -1.7233 -1.4130
  776SOL     OW 2326   0.169   1.063   1.737  0.2393 -0.9965 -0.6391
  776SOL    HW1 2327   0.107   1.010   1.803 -0.0787  1.2058  0.6532
  776SOL    HW2 2328   0.117   1.096   1.657 -0.3540 -0.7551  1.2444
  777SOL     OW 2329   2.443   2.012   1.948 -0.0895  0.3053 -0.3937
  777SOL    HW1 2330   2.533   2.013   1.999  0.4739  1.9730  0.9664
  777SOL    HW2 2331   2.457   1.970   1.853  0.1303 -0.1311 -2.2163
  778SOL     OW 2332   1.649   1.168   2.063  0.1174  0.0878  0.2278
  778SOL    HW1 2333   1.602   1.162   1.972  0.0915  1.3851  0.2497
  778SOL    HW2 2334   1.749   1.187   2.045  1.6550 -1.0267  1.1193
  779SOL     OW 2335   2.868   0.982   0.082 -0.0878 -0.6507  0.7534
  779SOL    HW1 2336   2.909   0.893   0.110 -1.0529 -1.2661  0.4987
  779SOL    HW2 2337   2.771   0.982   0.094  2.3710 -0.6015 -1.2229
  780SOL     OW 2338   2.177   0.014   2.750 -0.1172  0.2904 -0.1082
  780SOL    HW1 2339   2.092   0.034   2.705  1.6218  2.4370  0.6055
  780SOL    HW2 2340   2.227   0.104   2.760 -0.0171 -1.1144 -1.9073
  781SOL     OW 2341   2.917   1.453   1.409  0.4782 -0.2707  0.5860
  781SOL    HW1 2342   2.944   1.502   1.325  1.2622  2.5141 -2.5565
  781SOL    HW2 2343   2.982   1.475   1.481  0.8287 -0.8671 -1.8476
  782SOL     OW 2344   2.775   2.082   2.923  0.0437  0.2674 -0.5454
  782SOL    HW1 2345   2.772   2.178   2.941 -2.4894 -1.8250 -0.4928
  782SOL    HW2 2346   2.754   2.069   2.823 -0.8996 -2.1628  1.7585
  783SOL     OW 2347   0.638   1.445   0.971 -0.0673 -0.5998  0.2236
  783SOL    HW1 2348   0.629   1.344   0.964 -1.0841  0.6876  1.3551
  783SOL    HW2 2349   0.734   1.469   0.942 -1.8211  1.8614 -0.2205
  784SOL     OW 2350   2.539   1.089   0.087  0.4526 -0.1289 -0.3004
  784SOL    HW1 2351   2.564   1.151   0.006  0.2879  2.5303 -0.0558
  784SOL    HW2 2352   2.526   1.143   0.177 -3.0513 -1.2032  1.1017
  785SOL     OW 2353   2.098   2.480   0.749  0.4539  0.0363  0.5623
  785SOL    HW1 2354   2.006   2.455   0.795 -1.9360 -1.4083 -2.0138
  785SOL    HW2 2355   2.097   2.432   0.656  0.9920  0.0365 -1.1511
  786SOL     OW 2356   0.643   2.175   2.625  0.0463  0.0783  0.4767
  786SOL    HW1 2357   0.691   2.126   2.550  2.6400 -1.8333  2.0166
  786SOL    HW2 2358   0.572   2.119   2.671 -4.2315  0.2175  2.1963
  787SOL     OW 2359   1.534   0.493   1.346  0.8137  0.1138  0.2004
  787SOL    HW1 2360   1.462   0.562   1.373 -0.5764  3.5966  1.0363
  787SOL    HW2 2361   1.571   0.515   1.259 -0.0885 -0.2335  1.1219
  788SOL     OW 2362   0.474   0.935   0.267  0.1549 -0.1212  0.0823
  788SOL    HW1 2363   0.532   1.008   0.318  0.2824  1.0888  2.7265
  788SOL    HW2 2364   0.388   0.973   0.233  2.3027 -0.1783 -0.8284
  789SOL     OW 2365   2.922   1.961   1.370 -0.1966 -0.2115  0.2794
  789SOL    HW1 2366   3.006   1.901   1.371  0.9687  1.4633  1.8758
  789SOL    HW2 2367   2.861   1.939   1.289 -1.2041 -1.0223  2.8084
  790SOL     OW 2368   1.293   0.371   2.034 -0.2712 -0.3038 -0.6760
  790SOL    HW1 2369   1.362   0.378   2.113  1.2687 -1.4061 -2.5775
  790SOL    HW2 2370   1.216   0.310   2.060 -0.7995  2.0020  0.7312
  791SOL     OW 2371   1.148   0.523   0.498  0.1651 -0.0314 -0.5926
  791SOL    HW1 2372   1.231   0.470   0.473  4.8315  2.0180  0.7609
  791SOL    HW2 2373   1.161   0.620   0.476  3.0496  1.1338 -3.3353
  792SOL     OW 2374   1.327   2.926   1.642  0.1793  0.1998  0.0227
  792SOL    HW1 2375   1.278   2.835   1.623 -0.9696 -1.5275 -1.0612
  792SOL    HW2 2376   1.412   2.936   1.586  0.5015  1.5384  0.3903
  793SOL     OW 2377   0.763   3.030   0.873  0.2428  0.3913  0.1562
  793SOL    HW1 2378   0.823   0.041   0.846 -0.6911  1.8755  2.2289
  793SOL    HW2 2379   0.811   2.967   0.938  0.7476  0.0550 -0.5086
  794SOL     OW 2380   0.470   1.216   2.075  0.5690 -0.3647 -0.0195
  794SOL    HW1 2381   0.524   1.131   2.058 -0.4046  0.9084 -1.8249
  794SOL    HW2 2382   0.446   1.223   2.177 -1.4512  3.3026 -1.9180
  795SOL     OW 2383   2.836   1.519   2.329 -0.2036 -0.5229  0.1108
  795SOL    HW1 2384   2.820   1.620   2.351 -0.7722  3.8602  1.0684
  795SOL    HW2 2385   2.915   1.509   2.267  2.5378  0.1107  0.6764
  796SOL     OW 2386   1.916   1.244   2.084 -0.7817 -0.5743  0.2059
  796SOL    HW1 2387   1.956   1.169   2.031 -1.2036  1.3178  0.8078
  796SOL    HW2 2388   1.982   1.322   2.074  1.8954  1.5463  0.4183
  797SOL     OW 2389   3.013   3.032   2.746  0.0107  0.5656  0.3230
  797SOL    HW1 2390   0.023   2.983   2.704 -3.7023  0.8819 -0.6346
  797SOL    HW2 2391   2.926   2.980   2.718 -2.2821 -1.9685 -2.5028
  798SOL     OW 2392   0.224   2.020   2.263 -0.5267 -0.2703 -0.0803
  798SOL    HW1 2393   0.216   2.026   2.161  1.2316 -4.8774 -0.1610
  798SOL    HW2 2394   0.273   2.100   2.301  3.4058  0.3783 -1.2727
  799SOL     OW 2395   2.736   2.343   3.009 -1.1202  0.1677  0.3226
  799SOL    HW1 2396   2.815   2.365   0.007  0.3405 -1.9695 -0.2095
  799SOL    HW2 2397   2.694   2.425   2.966  0.4439  1.0473 -1.1147
  800SOL     OW 2398   1.374   1.558   0.795  0.1367 -0.7894 -0.6533
  800SOL    HW1 2399   1.285   1.610   0.797 -0.1712 -0.1684  0.6696
  800SOL    HW2 2400   1.442   1.604   0.853 -0.7862 -1.3443  2.0580
  801SOL     OW 2401   2.281   0.574   0.688 -0.6862  0.4071  0.2966
  801SOL    HW1 2402   2.251   0.491   0.640  2.0790  2.2372  2.5174
  801SOL    HW2 2403   2.209   0.610   0.747  1.9478 -1.3285 -0.3116
  802SOL     OW 2404   2.441   1.668   0.318 -0.6706  0.1780 -0.6101
  802SOL    HW1 2405   2.461   1.655   0.221  1.9917 -1.9143  2.0680
  802SOL    HW2 2406   2.504   1.737   0.357  1.9348 -0.2327 -1.8575
  803SOL     OW 2407   1.401   1.859   2.818  0.2536  0.2294 -0.4943
  803SOL    HW1 2408   1.462   1.913   2.758 -0.4574 -1.7259  5.1001
  803SOL    HW2 2409   1.387   1.913   2.902  2.2912  0.7254 -1.8663
  804SOL     OW 2410   1.807   1.862   0.186  0.0813  0.3574 -0.5451
  804SOL    HW1 2411   1.901   1.841   0.216 -1.7702 -0.3324 -0.9469
  804SOL    HW2 2412   1.799   1.860   0.082 -0.9563 -0.0367  0.4282
  805SOL     OW 2413   2.361   1.708   2.946 -0.5481 -0.1336 -0.2437
  805SOL    HW1 2414   2.416   1.773   2.888  1.9909  0.3408 -1.9335
  805SOL    HW2 2415   2.419   1.671   3.023  0.4931 -2.8761  0.6852
  806SOL     OW 2416   0.758   0.549   0.655 -0.4878  0.0349 -0.5504
  806SOL    HW1 2417   0.831   0.513   0.597 -0.8601 -0.0333  2.2651
  806SOL    HW2 2418   0.757   0.656   0.649  2.9934  3.2404 -0.0297
  807SOL     OW 2419   2.218   1.471   2.563  0.2267 -0.0223  0.2275
  807SOL    HW1 2420   2.225   1.501   2.660 -1.2089 -0.6599 -3.1123
  807SOL    HW2 2421   2.121   1.437   2.536 -1.3805  0.9670  1.4454
  808SOL     OW 2422   0.162   1.553   0.353 -0.7497  0.1235  0.2548
  808SOL    HW1 2423   0.171   1.466   0.400  0.8129  2.3986 -1.8076
  808SOL    HW2 2424   0.192   1.629   0.408  0.0061  0.6991 -1.7518
  809SOL     OW 2425   2.441   0.850   2.601  0.1553  0.1510 -0.6153
  809SOL    HW1 2426   2.427   0.899   2.692  0.3089 -0.1831  1.1095
  809SOL    HW2 2427   2.501   0.907   2.544 -0.9412 -0.9302  2.8012
  810SOL     OW 2428   1.135   1.370   0.410 -0.0432 -0.7762 -0.7245
  810SOL    HW1 2429   1.218   1.366   0.351  0.7567  1.5497  0.7717
  810SOL    HW2 2430   1.058   1.406   0.360  0.7237 -0.0884 -0.6824
  811SOL     OW 2431   1.677   2.534   0.786 -0.5988 -0.1498  0.3038
  811SOL    HW1 2432   1.578   2.520   0.812  1.2336 -0.5402 -0.2890
  811SOL    HW2 2433   1.697   2.491   0.698  0.6634  0.1431 -1.1560
  812SOL     OW 2434   0.417   2.621   1.618 -0.0907 -0.7315  0.0986
  812SOL    HW1 2435   0.430   2.522   1.631 -2.4095  2.9676  1.1265
  812SOL    HW2 2436   0.507   2.669   1.623 -0.8724 -4.1264  0.0697
  813SOL     OW 2437   1.065   3.060   1.954 -0.1061  0.0781 -0.2312
  813SOL    HW1 2438   0.990   3.015   1.904  2.8800 -0.2015  2.4480
  813SOL    HW2 2439   1.032   0.018   2.046 -1.3751  2.5512  0.8438
  814SOL     OW 2440   1.462   0.062   2.501 -0.1660 -0.2372 -0.0830
  814SOL    HW1 2441   1.436   3.038   2.457 -1.3761 -0.5446 -0.3316
  814SOL    HW2 2442   1.426   0.138   2.443  1.1282  0.8364 -0.5880
  815SOL     OW 2443   0.370   0.506   2.003  0.2587  0.7608  0.3554
  815SOL    HW1 2444   0.363   0.497   1.900  0.6505 -1.2380 -0.1716
  815SOL    HW2 2445   0.371   0.608   2.027 -1.4424 -0.4347  0.6969
  816SOL     OW 2446   2.388   0.259   0.083  0.1181 -0.2129 -0.0271
  816SOL    HW1 2447   2.381   0.310   3.065  1.0835  1.4977 -0.8740
  816SOL    HW2 2448   2.346   0.314   0.156  0.0908 -0.4922 -1.7002
  817SOL     OW 2449   1.973   0.180   2.599 -0.0023  0.3909 -0.3312
  817SOL    HW1 2450   1.931   0.208   2.513  2.3500  1.0952  2.3705
  817SOL    HW2 2451   1.950   0.245   2.672 -1.3527  1.2034 -0.8558
  818SOL     OW 2452   2.001   0.043   0.227  0.0704 -0.5488  0.0770
  818SOL    HW1 2453   1.982   0.084   0.133  1.8903  2.2325  1.4661
  818SOL    HW2 2454   2.084   3.055   0.233 -2.8319  1.3557 -0.3049
  819SOL     OW 2455   2.269   1.932   0.034  0.4112  0.0305  0.6874
  819SOL    HW1 2456   2.280   1.846   3.052  0.7875  1.8906  1.2633
  819SOL    HW2 2457   2.293   2.016   3.051 -0.4265  0.1986  0.1916
  820SOL     OW 2458   0.183   1.866   0.257  0.4085  0.2267 -0.1229
  820SOL    HW1 2459   0.271   1.839   0.297 -0.0662 -0.5668  0.6435
  820SOL    HW2 2460   0.150   1.799   0.189 -0.9859 -0.6750  1.2047
  821SOL     OW 2461   2.987   2.586   1.172 -0.2312 -0.1016 -0.0129
  821SOL    HW1 2462   2.962   2.496   1.214  2.5670  0.3711  1.0939
  821SOL    HW2 2463   2.931   2.658   1.222 -2.5089  0.6056  2.1009
  822SOL     OW 2464   2.714   2.540   2.589 -0.6688  0.0750  0.2351
  822SOL    HW1 2465   2.617   2.505   2.584 -2.1049 -1.0022 -1.8464
  822SOL    HW2 2466   2.713   2.636   2.555  2.7910 -1.4507  2.0831
  823SOL     OW 2467   1.631   0.192   2.675  0.1181  0.4773  0.2730
  823SOL    HW1 2468   1.609   0.273   2.734  1.9987 -0.0224  2.2531
  823SOL    HW2 2469   1.548   0.152   2.630 -3.1741  0.4758  0.8591
  824SOL     OW 2470   2.553   1.571   1.244  0.4921  0.1739  0.3979
  824SOL    HW1 2471   2.506   1.657   1.268 -1.0393  0.7910 -1.8386
  824SOL    HW2 2472   2.645   1.581   1.200  1.4754  1.3079  0.4617
  825SOL     OW 2473   2.726   1.738   2.439 -0.3954 -0.4376  0.1868
  825SOL    HW1 2474   2.643   1.682   2.448  1.3533 -1.0875  0.3368
  825SOL    HW2 2475   2.707   1.838   2.436 -0.4385 -0.3771 -0.3082
  826SOL     OW 2476   2.302   1.073   2.336 -0.2388 -0.2380 -0.3289
  826SOL    HW1 2477   2.388   1.031   2.295  2.9427 -1.4955 -0.3491
  826SOL    HW2 2478   2.319   1.173   2.346 -1.0040  0.2775 -0.8585
  827SOL     OW 2479   2.368   2.478   1.513 -0.1213 -1.0707  0.4654
  827SOL    HW1 2480   2.412   2.478   1.608  0.5451 -1.3047 -0.4039
  827SOL    HW2 2481   2.306   2.398   1.491 -0.7804  0.9296 -0.4352
  828SOL     OW 2482   2.785   2.757   1.326 -0.1593 -0.4023  0.1844
  828SOL    HW1 2483   2.820   2.855   1.329  3.6222  0.5051  0.7687
  828SOL    HW2 2484   2.682   2.752   1.335  0.0014  0.9783 -0.5404
  829SOL     OW 2485   1.416   2.107   2.313 -0.4602 -0.3544  0.0266
  829SOL    HW1 2486   1.449   2.184   2.372 -0.5509  0.1631 -1.3499
  829SOL    HW2 2487   1.489   2.043   2.281 -0.4259  1.0373 -2.2898
  830SOL     OW 2488   1.428   0.195   0.732 -1.0581 -0.3139  0.7044
  830SOL    HW1 2489   1.339   0.151   0.720  1.9360  0.1558  0.8156
  830SOL    HW2 2490   1.501   0.132   0.704  0.3269 -0.4076 -0.6219
  831SOL     OW 2491   2.574   1.477   0.464 -0.4066  0.2357  0.0664
  831SOL    HW1 2492   2.678   1.476   0.467 -0.1711  1.0601 -1.2206
  831SOL    HW2 2493   2.544   1.553   0.404  1.6030 -1.7986  1.8496
  832SOL     OW 2494   1.562   2.420   1.708  0.1418 -0.2533 -0.1778
  832SOL    HW1 2495   1.553   2.323   1.727 -2.7165  1.6858 -0.2813
  832SOL    HW2 2496   1.645   2.464   1.741 -2.2222  0.0225 -0.3213
  833SOL     OW 2497   2.998   2.798   2.331 -0.2541 -0.4676  0.1882
  833SOL    HW1 2498   2.987   2.767   2.428 -1.0588  0.4533 -1.7112
  833SOL    HW2 2499   2.954   2.889   2.316 -0.5431  0.3347 -0.3551
  834SOL     OW 2500   1.008   0.893   1.349 -0.3875  0.1287 -0.0210
  834SOL    HW1 2501   0.950   0.937   1.279 -1.9553  0.6516  0.9611
  834SOL    HW2 2502   1.094   0.946   1.368  3.8058 -0.6022  1.3376
  835SOL     OW 2503   2.838   0.738   2.364  0.2344 -0.1582  0.3973
  835SOL    HW1 2504   2.907   0.739   2.287 -0.2666  0.8226 -2.7793
  835SOL    HW2 2505   2.755   0.689   2.335 -1.3221  1.2657 -0.6017
  836SOL     OW 2506   0.950   2.254   1.099  0.3436  0.5042  0.2635
  836SOL    HW1 2507   0.901   2.249   1.186 -0.4822 -1.2500 -1.8657
  836SOL    HW2 2508   1.050   2.281   1.111  2.1093 -2.2483 -0.6376
  837SOL     OW 2509   2.083   0.936   0.853  0.3362  0.2339  0.2253
  837SOL    HW1 2510   2.108   0.987   0.769 -0.4068  0.5337 -1.0453
  837SOL    HW2 2511   2.128   0.982   0.929  1.6243 -1.8997 -1.8847
  838SOL     OW 2512   1.154   1.438   2.405  0.6642 -0.5849 -0.0151
  838SOL    HW1 2513   1.102   1.373   2.352 -0.5981 -0.5638  1.7780
  838SOL    HW2 2514   1.090   1.473   2.481 -0.6631 -0.0032  1.8472
  839SOL     OW 2515   0.532   2.361   2.836 -0.3650  0.1366  0.0025
  839SOL    HW1 2516   0.569   2.315   2.749 -0.5161 -0.6865 -0.4946
  839SOL    HW2 2517   0.610   2.399   2.886 -1.9111 -0.2092 -1.6704
  840SOL     OW 2518   0.524   2.703   0.007 -0.2422  0.3750 -0.3464
  840SOL    HW1 2519   0.472   2.628   3.029  0.3704 -1.5006 -1.4296
  840SOL    HW2 2520   0.598   2.739   3.011 -0.2025  0.1297 -1.7402
  841SOL     OW 2521   1.865   2.208   0.163 -0.6928  0.1972  0.0669
  841SOL    HW1 2522   1.878   2.115   0.123 -0.3199  0.2159 -1.6012
  841SOL    HW2 2523   1.913   2.284   0.114  1.5674  2.6113  0.2821
  842SOL     OW 2524   1.139   1.009   2.757  0.2983  0.2691  0.0674
  842SOL    HW1 2525   1.121   1.106   2.767 -0.5161  1.2516 -1.2577
  842SOL    HW2 2526   1.213   0.991   2.690  0.0546 -1.0226 -1.2548
  843SOL     OW 2527   1.415   2.863   0.609  0.1897  0.1400 -0.5729
  843SOL    HW1 2528   1.503   2.825   0.578 -2.8916  1.3397 -1.9413
  843SOL    HW2 2529   1.413   2.873   0.711  0.2665 -0.2765 -0.8967
  844SOL     OW 2530   2.335   2.892   2.620 -0.4241 -0.0263 -0.1291
  844SOL    HW1 2531   2.279   2.961   2.667  2.8104 -0.3438 -1.3961
  844SOL    HW2 2532   2.304   2.802   2.655 -0.8027  1.4301  0.9047
  845SOL     OW 2533   2.646   2.331   1.133 -0.1533 -0.4945 -0.0299
  845SOL    HW1 2534   2.609   2.399   1.206 -0.6875  1.1517  2.1598
  845SOL    HW2 2535   2.604   2.355   1.043  0.2752 -2.7308  0.3533
  846SOL     OW 2536   3.060   1.993   2.392  0.5391  0.0955 -0.3646
  846SOL    HW1 2537   0.086   2.013   2.352 -0.1825 -1.0453 -0.7845
  846SOL    HW2 2538   3.059   1.900   2.439 -0.7559  2.2975 -1.2904
  847SOL     OW 2539   1.506   0.463   1.660  0.0462 -0.1007 -0.1629
  847SOL    HW1 2540   1.516   0.459   1.559 -2.5809  0.2002  2.0165
  847SOL    HW2 2541   1.426   0.408   1.688  3.0717 -0.4757  0.7683
  848SOL     OW 2542   2.982   0.273   0.109 -0.2238 -0.7783  0.0238
  848SOL    HW1 2543   2.896   0.296   0.057 -1.5866 -1.8393 -1.1304
  848SOL    HW2 2544   2.980   0.327   0.197 -2.2416  1.2077  1.4687
  849SOL     OW 2545   0.752   0.403   2.836 -0.5708 -0.2996  0.7487
  849SOL    HW1 2546   0.757   0.485   2.777  1.0493 -1.9994 -0.7525
  849SOL    HW2 2547   0.761   0.426   2.936  1.0678 -0.1898  1.2513
  850SOL     OW 2548   0.567   2.501   1.034  0.4313 -0.2302  0.2207
  850SOL    HW1 2549   0.579   2.408   1.072 -0.4545  3.5697 -0.4952
  850SOL    HW2 2550   0.486   2.505   0.974 -0.8348 -1.0358 -0.3334
  851SOL     OW 2551   2.409   0.127   2.351 -0.1346 -0.1785 -0.0017
  851SOL    HW1 2552   2.403   0.167   2.260  0.0756 -0.9788  0.5839
  851SOL    HW2 2553   2.352   0.189   2.414 -2.3095 -1.5546 -0.9937
  852SOL     OW 2554   1.634   1.404   2.208  0.1701  0.3010  0.1661
  852SOL    HW1 2555   1.559   1.401   2.272 -0.5354 -0.3053 -2.1897
  852SOL    HW2 2556   1.635   1.317   2.153 -1.3662  2.1854 -2.8050
  853SOL     OW 2557   2.792   2.615   0.498  0.0757 -0.0092  0.4245
  853SOL    HW1 2558   2.839   2.649   0.575  0.8320 -1.3857 -0.3021
  853SOL    HW2 2559   2.836   2.534   0.453  1.4467 -3.6514 -0.8017
  854SOL     OW 2560   2.420   0.333   0.978 -0.0390 -0.8336  0.5068
  854SOL    HW1 2561   2.328   0.311   0.945  1.0467  1.7048 -2.1986
  854SOL    HW2 2562   2.464   0.397   0.912 -0.5391 -2.2566  2.8442
  855SOL     OW 2563   1.507   2.132   0.621  0.2042  0.0842 -0.2075
  855SOL    HW1 2564   1.464   2.133   0.532 -0.2364 -0.7403  0.3705
  855SOL    HW2 2565   1.436   2.159   0.695 -2.5293 -0.7452  1.6398
  856SOL     OW 2566   2.732   0.307   0.007 -0.3981 -0.4071 -0.3672
  856SOL    HW1 2567   2.729   0.322   2.976 -0.3210 -1.5913  1.4768
  856SOL    HW2 2568   2.641   0.314   0.048  2.0254  0.8959 -1.8384
  857SOL     OW 2569   1.627   2.748   1.999  0.2337 -0.1349  0.4765
  857SOL    HW1 2570   1.530   2.710   1.985 -1.9693 -1.6694  0.2274
  857SOL    HW2 2571   1.666   2.796   1.912  0.7146 -2.5348  0.0437
  858SOL     OW 2572   2.556   2.153   1.501  0.4030  0.1302 -0.4262
  858SOL    HW1 2573   2.569   2.123   1.403 -0.8108  0.5181  0.2200
  858SOL    HW2 2574   2.493   2.234   1.522 -0.5043  1.8348 -0.8043
  859SOL     OW 2575   1.312   2.247   0.775  0.2181  0.1378 -0.1265
  859SOL    HW1 2576   1.276   2.338   0.768 -0.8464  0.0434  1.3289
  859SOL    HW2 2577   1.370   2.248   0.861  0.8292 -0.9993  0.2282
  860SOL     OW 2578   2.271   2.358   0.033  0.8488  0.0296 -0.2536
  860SOL    HW1 2579   2.346   2.428   0.019 -0.9305 -1.3793 -1.5581
  860SOL    HW2 2580   2.290   2.299   0.111 -1.0947  1.3877  0.6109
  861SOL     OW 2581   1.878   2.534   1.131 -0.8971 -0.1568 -0.2340
  861SOL    HW1 2582   1.966   2.501   1.170 -1.9211 -0.1319 -0.9765
  861SOL    HW2 2583   1.884   2.634   1.107 -0.3511 -2.1864  0.0589
  862SOL     OW 2584   1.941   2.997   2.628  0.3317  0.3191  0.3299
  862SOL    HW1 2585   1.944   0.033   2.618 -0.8503  1.9077  1.0118
  862SOL    HW2 2586   1.849   2.975   2.661 -1.8573  0.2212  0.8981
  863SOL     OW 2587   0.368   0.537   0.606  0.5416 -0.0637 -0.1579
  863SOL    HW1 2588   0.434   0.474   0.554  1.6985  0.0095  0.6198
  863SOL    HW2 2589   0.272   0.502   0.601  0.5235 -1.5644  2.2709
  864SOL     OW 2590   2.665   2.603   1.836 -0.1843 -0.5001  0.1153
  864SOL    HW1 2591   2.616   2.535   1.778 -1.1961  0.1649 -3.5074
  864SOL    HW2 2592   2.658   2.702   1.804  1.8788  3.4016  2.0486
  865SOL     OW 2593   3.064   2.020   2.925  0.4543  0.3281  0.7443
  865SOL    HW1 2594   3.017   2.001   3.012  1.2874 -1.6945  0.9141
  865SOL    HW2 2595   3.028   2.112   2.894  0.0975 -1.0974  0.9643
  866SOL     OW 2596   2.399   0.455   2.951 -0.3012 -0.2172  0.0913
  866SOL    HW1 2597   2.470   0.509   2.901  2.2415  1.0932 -2.7500
  866SOL    HW2 2598   2.390   0.484   3.047 -1.2783  2.9074 -3.0027
  867SOL     OW 2599   0.326   0.128   2.669  0.5624 -0.0926 -0.0507
  867SOL    HW1 2600   0.279   0.217   2.651 -1.3851 -3.1668 -3.6337
  867SOL    HW2 2601   0.426   0.134   2.693 -0.3308  1.6211  1.3575
  868SOL     OW 2602   1.172   2.484   0.788  0.4671 -0.2221 -0.5149
  868SOL    HW1 2603   1.083   2.484   0.835  0.0358  2.5248  2.0363
  868SOL    HW2 2604   1.163   2.521   0.692  0.0931  2.4322  0.9656
  869SOL     OW 2605   1.444   1.072   1.332  0.3050 -0.1788  0.5891
  869SOL    HW1 2606   1.449   1.139   1.256 -0.1379  0.0412  0.6786
  869SOL    HW2 2607   1.488   0.987   1.310 -2.0061  2.2235 -0.0437
  870SOL     OW 2608   1.809   1.837   1.247 -0.5038  0.6411 -0.2343
  870SOL    HW1 2609   1.854   1.908   1.312  2.8421  0.2641  1.3426
  870SOL    HW2 2610   1.794   1.753   1.298 -1.5775  1.8162 -1.6430
  871SOL     OW 2611   1.266   1.413   1.415  0.1207 -0.1960  0.1429
  871SOL    HW1 2612   1.175   1.407   1.372 -0.1653 -0.6090  1.6056
  871SOL    HW2 2613   1.341   1.423   1.346 -1.5205 -3.2759 -1.5723
  872SOL     OW 2614   1.400   0.916   1.042  0.4199  0.1170 -0.2113
  872SOL    HW1 2615   1.494   0.876   1.036 -2.2633 -1.0129 -0.6066
  872SOL    HW2 2616   1.406   1.013   1.072  1.8320 -0.5137  2.6460
  873SOL     OW 2617   1.337   0.949   2.595 -0.0239  0.2454 -0.0180
  873SOL    HW1 2618   1.433   0.974   2.594  1.0484  1.9532  1.7373
  873SOL    HW2 2619   1.313   0.924   2.498  2.5972 -2.7630  0.0638
  874SOL     OW 2620   0.344   1.178   1.102 -0.0293 -0.3808  0.6232
  874SOL    HW1 2621   0.308   1.238   1.176 -0.2057  0.0562  0.8549
  874SOL    HW2 2622   0.303   1.197   1.010  1.1864  0.5422  0.8185
  875SOL     OW 2623   2.569   2.739   0.192  0.0486  0.1714  0.0901
  875SOL    HW1 2624   2.480   2.775   0.217 -1.7450  0.6700  2.7105
  875SOL    HW2 2625   2.630   2.815   0.159  0.9989 -0.1220 -2.0833
  876SOL     OW 2626   1.158   0.624   2.726 -0.1608  0.2572  0.4447
  876SOL    HW1 2627   1.145   0.532   2.770 -0.8007  1.3501 -0.7643
  876SOL    HW2 2628   1.083   0.682   2.758  1.3537  0.1282  1.3254
  877SOL     OW 2629   2.894   3.004   1.356 -0.6456 -0.2749  0.3097
  877SOL    HW1 2630   2.936   3.005   1.447  0.1596  2.0146 -1.5971
  877SOL    HW2 2631   2.952   3.037   1.285 -1.5828 -3.9132  1.7757
  878SOL     OW 2632   1.935   2.540   2.740  0.0542 -0.4864  0.2198
  878SOL    HW1 2633   1.917   2.581   2.832  0.3678 -1.1646  2.4030
  878SOL    HW2 2634   1.954   2.618   2.676 -1.6377  1.6422 -1.6411
  879SOL     OW 2635   2.391   1.696   1.559 -0.4699 -0.6754 -0.7240
  879SOL    HW1 2636   2.390   1.713   1.458  2.1316  0.1470  3.1908
  879SOL    HW2 2637   2.313   1.641   1.586  2.7582  3.1900 -0.4742
  880SOL     OW 2638   0.843   0.893   1.101  0.2727  0.7676 -0.6330
  880SOL    HW1 2639   0.856   0.793   1.110 -1.1389  1.7376 -0.0371
  880SOL    HW2 2640   0.776   0.904   1.025  0.5736  0.6984 -1.7756
  881SOL     OW 2641   1.136   1.835   0.041  0.0782 -0.0295 -0.2909
  881SOL    HW1 2642   1.211   1.896   0.006  2.5668  1.4774  0.9382
  881SOL    HW2 2643   1.162   1.750   0.091  3.4357  0.7784 -1.8522
  882SOL     OW 2644   1.644   0.214   1.006 -0.5110 -0.0537  0.3808
  882SOL    HW1 2645   1.694   0.242   0.920 -0.0741  2.4785  0.6453
  882SOL    HW2 2646   1.707   0.201   1.083 -0.9955  0.5356  0.4595
  883SOL     OW 2647   1.716   0.512   2.347  0.4236  0.3467 -0.6170
  883SOL    HW1 2648   1.653   0.553   2.417 -3.5370  0.6247 -1.0019
  883SOL    HW2 2649   1.762   0.576   2.289 -4.7133 -1.2691  0.3915
  884SOL     OW 2650   2.771   0.618   0.215 -0.4595 -0.5370  0.0144
  884SOL    HW1 2651   2.852   0.668   0.186  1.1746  2.3385 -1.6256
  884SOL    HW2 2652   2.701   0.625   0.144 -1.6032 -0.6373  2.4846
  885SOL     OW 2653   1.049   1.918   0.840 -0.0012  0.1840  0.0588
  885SOL    HW1 2654   1.053   2.008   0.788 -1.5876  1.1053 -0.4122
  885SOL    HW2 2655   1.019   1.937   0.936  0.4739 -0.3800 -0.7822
  886SOL     OW 2656   1.400   1.436   2.791 -0.0224  0.0674  0.6499
  886SOL    HW1 2657   1.464   1.380   2.848 -0.3082 -1.5269  0.6854
  886SOL    HW2 2658   1.314   1.456   2.844  1.5000 -2.4170  0.0476
  887SOL     OW 2659   1.309   0.303   1.760 -0.3003 -0.3799  0.1553
  887SOL    HW1 2660   1.255   0.220   1.748  1.4435  0.3079 -0.6122
  887SOL    HW2 2661   1.294   0.345   1.853 -0.8829 -0.4957 -1.0113
  888SOL     OW 2662   2.657   1.579   1.584 -0.2340  0.1855 -0.1262
  888SOL    HW1 2663   2.576   1.639   1.602 -2.0755  2.0904 -2.4294
  888SOL    HW2 2664   2.695   1.611   1.501 -2.5397 -0.0794  1.1441
  889SOL     OW 2665   2.984   2.299   1.005 -0.3086  0.2081  0.2658
  889SOL    HW1 2666   3.002   2.387   0.954  0.4656 -0.6230 -2.8866
  889SOL    HW2 2667   2.922   2.316   1.083 -2.3159  1.3038  1.0588
  890SOL     OW 2668   0.302   1.733   2.227  0.1332 -0.2529  0.2947
  890SOL    HW1 2669   0.250   1.683   2.155  0.4441 -1.0309 -0.7555
  890SOL    HW2 2670   0.298   1.836   2.214 -1.5241  0.4343  0.7270
  891SOL     OW 2671   0.847   1.865   0.649  0.3154 -0.4849 -0.2571
  891SOL    HW1 2672   0.814   1.776   0.612 -1.0093 -2.3386 -0.7302
  891SOL    HW2 2673   0.938   1.852   0.693 -1.1554 -0.7477 -0.8496
  892SOL     OW 2674   0.013   2.167   1.546 -0.3240  0.3973  0.5975
  892SOL    HW1 2675   3.010   2.238   1.556 -3.0534 -0.1467  0.9946
  892SOL    HW2 2676   3.044   2.086   1.496 -0.6931 -0.5327  0.8143
  893SOL     OW 2677   3.047   3.015   1.589  0.6603 -0.0986 -0.2456
  893SOL    HW1 2678   3.043   0.004   1.675  0.4011  2.0363 -0.2555
  893SOL    HW2 2679   0.073   3.019   1.554  0.1581  0.8448  2.3535
  894SOL     OW 2680   2.658   1.758   0.734 -0.5254  0.5370 -0.8458
  894SOL    HW1 2681   2.730   1.687   0.749  0.6631 -0.3497 -0.4785
  894SOL    HW2 2682   2.625   1.766   0.640  0.2494  1.2200  4.1387
  895SOL     OW 2683   1.764   2.423   1.491  0.6268 -0.1792 -0.0987
  895SOL    HW1 2684   1.774   2.344   1.546 -0.1747  3.3634 -2.5506
  895SOL    HW2 2685   1.744   2.404   1.392 -3.6563 -0.2837  0.1321
  896SOL     OW 2686   0.391   0.034   1.322 -0.0731 -0.5269  0.1269
  896SOL    HW1 2687   0.352   3.056   1.242  0.0176 -1.6443  4.1286
  896SOL    HW2 2688   0.373   0.135   1.312 -1.8616 -0.9671 -0.3941
  897SOL     OW 2689   1.195   1.078   1.451 -0.4590  0.5538 -0.3203
  897SOL    HW1 2690   1.275   1.104   1.393 -2.8568 -0.2294  0.9323
  897SOL    HW2 2691   1.217   1.084   1.553 -0.0420 -2.0648  2.5878
  898SOL     OW 2692   0.773   0.121   1.547 -0.4225  0.0435 -0.1759
  898SOL    HW1 2693   0.785   0.149   1.645  0.6059  0.8258  2.5288
  898SOL    HW2 2694   0.845   0.058   1.515  1.6164 -1.8391 -0.2884
  899SOL     OW 2695   1.355   0.293   0.106 -0.0211  0.2799 -0.3393
  899SOL    HW1 2696   1.447   0.248   0.105 -0.3853 -0.3271  1.1629
  899SOL    HW2 2697   1.311   0.294   0.012 -0.2056 -0.5727 -2.0285
  900SOL     OW 2698   0.755   0.241   2.128 -0.2113  0.2044  0.2733
  900SOL    HW1 2699   0.730   0.148   2.166  2.3417  0.5159  2.8839
  900SOL    HW2 2700   0.687   0.275   2.061 -0.2921 -1.7145  0.6871
  901SOL     OW 2701   0.923   2.133   0.177  0.5093 -0.2176  0.0177
  901SOL    HW1 2702   0.940   2.042   0.218  0.6342  2.9022 -1.8950
  901SOL    HW2 2703   0.905   2.203   0.246 -0.8376 -1.0545  0.0777
  902SOL     OW 2704   1.982   0.290   1.019 -0.0035 -0.1507  0.0712
  902SOL    HW1 2705   1.915   0.302   0.940 -0.5880  1.3100 -0.6281
  902SOL    HW2 2706   1.938   0.242   1.099  0.4839  2.8479  2.9928
  903SOL     OW 2707   2.578   1.097   2.526  0.7977  0.1563  0.4788
  903SOL    HW1 2708   2.640   1.066   2.601 -0.9220 -0.7431 -1.7642
  903SOL    HW2 2709   2.621   1.171   2.471  2.0823  1.2527 -1.0021
  904SOL     OW 2710   1.508   1.482   0.317  0.5702 -0.2055 -0.6382
  904SOL    HW1 2711   1.535   1.546   0.240  3.5083 -0.7407  2.5438
  904SOL    HW2 2712   1.505   1.537   0.406  0.2814  0.0236  3.0195
  905SOL     OW 2713   1.758   2.956   1.530 -0.3884  0.1846 -0.1918
  905SOL    HW1 2714   1.687   3.021   1.531  0.0104 -2.4669 -2.0631
  905SOL    HW2 2715   1.825   2.974   1.455  0.8051 -1.1739  0.1919
  906SOL     OW 2716   2.109   2.808   1.183 -0.2274 -0.3851 -0.1244
  906SOL    HW1 2717   2.157   2.734   1.234  0.8003  0.1045 -0.3419
  906SOL    HW2 2718   2.167   2.891   1.192  0.1561  0.5993 -1.2154
  907SOL     OW 2719   1.694   1.041   0.311  0.5501  0.5402  0.3471
  907SOL    HW1 2720   1.677   0.942   0.311 -1.2218  2.0534  2.1059
  907SOL    HW2 2721   1.693   1.080   0.225 -0.2409 -2.7632  1.6078
  908SOL     OW 2722   1.795   0.425   1.448 -0.6605 -0.0876 -0.0773
  908SOL    HW1 2723   1.698   0.450   1.435 -0.3306  0.9980  0.1361
  908SOL    HW2 2724   1.846   0.512   1.473  0.0508  0.7461 -1.2103
  909SOL     OW 2725   2.336   0.045   0.709  0.1433 -0.2724  0.3860
  909SOL    HW1 2726   2.429   0.036   0.743 -0.6903 -0.9080 -2.8017
  909SOL    HW2 2727   2.281   0.109   0.765 -1.7122  0.8322  0.1329
  910SOL     OW 2728   2.652   0.415   2.269  0.3188  0.5998 -0.2661
  910SOL    HW1 2729   2.587   0.333   2.282 -1.8436 -2.3567 -1.8004
  910SOL    HW2 2730   2.610   0.505   2.279  0.7320 -1.3717 -0.2497
  911SOL     OW 2731   2.522   0.077   2.754  0.9405  0.0345 -0.3626
  911SOL    HW1 2732   2.444   0.141   2.772 -1.1676  1.1739  1.4741
  911SOL    HW2 2733   2.509   3.056   2.807 -0.8957 -0.8072  1.2812
  912SOL     OW 2734   0.724   0.953   1.389  0.2874 -0.0765  0.0998
  912SOL    HW1 2735   0.698   0.992   1.481 -2.4623  2.2852  0.3582
  912SOL    HW2 2736   0.636   0.950   1.334 -0.8926 -0.6380  2.1243
  913SOL     OW 2737   2.874   2.355   1.262 -0.0294 -0.0485 -0.1625
  913SOL    HW1 2738   2.871   2.333   1.362 -0.7046 -0.5317 -2.4813
  913SOL    HW2 2739   2.784   2.341   1.216  1.4177  3.0554  0.6606
  914SOL     OW 2740   1.849   0.715   1.230 -0.0180 -0.6529 -0.6201
  914SOL    HW1 2741   1.894   0.721   1.318  0.3722 -0.6001 -1.4006
  914SOL    HW2 2742   1.909   0.666   1.164 -0.4387 -2.7167  1.3754
  915SOL     OW 2743   3.008   1.500   1.132  0.7809  0.5246  0.0193
  915SOL    HW1 2744   0.002   1.564   1.074  1.0509 -1.6915 -0.2338
  915SOL    HW2 2745   2.910   1.527   1.112 -0.9375 -0.1091  1.5326
  916SOL     OW 2746   1.898   2.162   1.107 -0.3421  0.0171  0.4382
  916SOL    HW1 2747   1.906   2.244   1.045  0.2212  0.4071  1.9650
  916SOL    HW2 2748   1.921   2.079   1.049 -0.6436 -0.0209  0.1319
  917SOL     OW 2749   1.713   2.472   1.986  0.0404  0.6015 -0.5003
  917SOL    HW1 2750   1.694   2.571   1.994  1.5936 -0.1090  1.0338
  917SOL    HW2 2751   1.639   2.411   2.012 -1.8274  0.2840  1.7517
  918SOL     OW 2752   1.998   2.087   2.396  0.2881 -0.2862 -0.2785
  918SOL    HW1 2753   1.976   2.184   2.383 -0.0322 -2.4901 -0.1225
  918SOL    HW2 2754   2.036   2.083   2.495 -0.0326  1.2209  2.1743
  919SOL     OW 2755   0.679   0.336   1.403  0.1556 -0.2080 -0.3580
  919SOL    HW1 2756   0.577   0.332   1.395  3.9198 -0.3411 -0.1228
  919SOL    HW2 2757   0.708   0.248   1.446  0.6736  1.1878  2.0909
  920SOL     OW 2758   2.822   0.326   2.085  0.6584  0.2893  0.5632
  920SOL    HW1 2759   2.752   0.355   2.157 -2.1430 -0.0439 -1.1146
  920SOL    HW2 2760   2.834   0.397   2.012  2.6142 -0.7630 -1.2160
  921SOL     OW 2761   2.747   1.083   1.676 -0.0820 -0.0415  0.3384
  921SOL    HW1 2762   2.810   1.006   1.699 -2.5945  1.0472 -0.3011
  921SOL    HW2 2763   2.651   1.055   1.679 -1.1556 -1.6888  2.8970
  922SOL     OW 2764   2.586   2.160   0.810  0.2288 -0.5110 -0.3890
  922SOL    HW1 2765   2.500   2.207   0.786 -0.5717  1.2439  0.7989
  922SOL    HW2 2766   2.664   2.218   0.770 -0.4925 -0.5972 -1.4268
  923SOL     OW 2767   0.432   2.321   0.445  0.1468 -0.3199  0.0264
  923SOL    HW1 2768   0.396   2.364   0.357 -3.3377  1.0145 -6.0372
  923SOL    HW2 2769   0.446   2.222   0.443 -2.7307  0.6229 -1.1540
  924SOL     OW 2770   0.947   1.268   2.703  0.7564  0.0806 -0.0980
  924SOL    HW1 2771   0.899   1.268   2.791 -0.0616  0.8490  0.7291
  924SOL    HW2 2772   0.963   1.360   2.670  2.9296 -1.5915 -0.4039
  925SOL     OW 2773   2.810   1.306   0.719 -0.1487  0.1001  0.5153
  925SOL    HW1 2774   2.743   1.236   0.734 -0.5847  1.0334  0.7038
  925SOL    HW2 2775   2.832   1.316   0.617 -0.7634  1.1296  1.1461
  926SOL     OW 2776   0.127   0.152   0.764 -0.1616  0.0977  0.9116
  926SOL    HW1 2777   0.211   0.095   0.788 -0.2078 -0.8655 -1.7680
  926SOL    HW2 2778   0.048   0.093   0.761  2.2357 -1.1535  1.7280
  927SOL     OW 2779   0.420   2.038   2.679 -0.7900  0.4480 -0.3195
  927SOL    HW1 2780   0.341   2.037   2.745 -1.7242 -1.1546  0.8882
  927SOL    HW2 2781   0.405   1.981   2.600  0.2878  0.5169  1.8046
  928SOL     OW 2782   0.144   0.176   2.174  0.1414 -0.2680 -0.2209
  928SOL    HW1 2783   0.098   0.111   2.113  1.5681  0.5145 -0.6891
  928SOL    HW2 2784   0.236   0.147   2.201 -0.2645  0.8174  1.9573
  929SOL     OW 2785   2.807   1.912   1.110  0.4733 -0.7733 -0.1584
  929SOL    HW1 2786   2.744   1.986   1.140 -0.7427 -1.5109 -1.5561
  929SOL    HW2 2787   2.832   1.924   1.013  0.0540 -1.4990 -1.3029
  930SOL     OW 2788   1.753   0.239   2.421 -0.7313 -0.0531 -0.2054
  930SOL    HW1 2789   1.702   0.205   2.501 -0.9968 -0.7070 -0.2573
  930SOL    HW2 2790   1.718   0.333   2.400 -2.0782 -0.8118 -0.8641
  931SOL     OW 2791   2.250   1.321   2.954 -0.4545  0.5329 -0.3127
  931SOL    HW1 2792   2.225   1.407   2.998  2.4310 -0.4044 -1.1338
  931SOL    HW2 2793   2.191   1.286   2.875  0.0907 -0.0728 -1.0392
  932SOL     OW 2794   1.663   0.910   0.569 -0.1236 -0.1281 -0.1173
  932SOL    HW1 2795   1.612   0.835   0.524  0.2088 -0.5938  1.0740
  932SOL    HW2 2796   1.697   0.979   0.502  1.7587  0.3380 -0.6368
  933SOL     OW 2797   2.162   1.142   0.671  0.5966 -0.1905 -0.4095
  933SOL    HW1 2798   2.202   1.135   0.579  0.0546  4.1012  0.2231
  933SOL    HW2 2799   2.066   1.178   0.667  2.4854 -0.8802  0.9571
  934SOL     OW 2800   2.115   1.227   2.743  0.4948  0.2318  0.1778
  934SOL    HW1 2801   2.018   1.264   2.752 -3.1595 -0.2561  2.4665
  934SOL    HW2 2802   2.118   1.161   2.669 -0.2455  2.6548  0.4838
  935SOL     OW 2803   0.089   1.414   0.626 -0.4199  0.2002 -0.2406
  935SOL    HW1 2804   0.032   1.487   0.664  2.0924  0.7713 -0.7837
  935SOL    HW2 2805   0.055   1.325   0.660  0.1942 -0.6752 -0.7916
  936SOL     OW 2806   0.126   2.728   0.400 -0.2408  0.0191  0.0798
  936SOL    HW1 2807   0.225   2.742   0.391 -0.2806  0.8822 -0.1357
  936SOL    HW2 2808   0.094   2.633   0.379 -1.8288 -2.8553 -2.2641
  937SOL     OW 2809   0.081   2.271   2.006 -0.2217 -0.0373  0.2223
  937SOL    HW1 2810   0.119   2.336   1.938  0.2965 -1.2976  0.2534
  937SOL    HW2 2811   0.134   2.183   2.003  0.4645 -1.9874 -0.8874
  938SOL     OW 2812   2.557   2.259   2.744  0.2138 -0.6129 -0.1343
  938SOL    HW1 2813   2.512   2.346   2.726 -1.3401 -1.7603  0.5706
  938SOL    HW2 2814   2.657   2.270   2.733 -2.6196 -0.0108  0.0006
  939SOL     OW 2815   0.938   0.655   1.186 -0.2317  0.0593  0.2159
  939SOL    HW1 2816   0.920   0.661   1.288  0.7009  0.6047 -1.1824
  939SOL    HW2 2817   1.039   0.674   1.171  0.1743 -0.6889  0.9978
  940SOL     OW 2818   2.514   2.837   2.926 -0.1051  0.1147 -0.0595
  940SOL    HW1 2819   2.416   2.837   2.956  0.0898 -0.4301 -0.2744
  940SOL    HW2 2820   2.538   2.748   2.885  1.2645  4.4437  0.9288
  941SOL     OW 2821   2.559   2.686   2.288  0.0499  0.2751  0.3463
  941SOL    HW1 2822   2.610   2.675   2.205 -0.8415 -1.0858  0.5638
  941SOL    HW2 2823   2.460   2.668   2.277  0.4332  1.6504  0.9349
  942SOL     OW 2824   1.415   0.279   1.165  0.0106  0.4950  0.3024
  942SOL    HW1 2825   1.479   0.253   1.087  2.7577 -3.2691 -1.6872
  942SOL    HW2 2826   1.456   0.356   1.220 -1.5439 -0.2183  0.6604
  943SOL     OW 2827   0.677   1.380   2.329 -0.2259  0.1625 -0.6359
  943SOL    HW1 2828   0.685   1.457   2.265  1.1627 -1.3401 -0.0980
  943SOL    HW2 2829   0.590   1.328   2.331  0.5566  1.7181  0.8835
  944SOL     OW 2830   2.515   0.806   0.942 -0.0092 -0.5147 -0.1401
  944SOL    HW1 2831   2.616   0.813   0.922 -2.6965  0.3262  1.8693
  944SOL    HW2 2832   2.460   0.877   0.893  0.7366 -0.7461 -1.5607
  945SOL     OW 2833   2.954   0.230   2.733  0.3966  0.2309  0.3746
  945SOL    HW1 2834   2.984   0.133   2.723 -0.7763  2.2742  0.0291
  945SOL    HW2 2835   2.998   0.280   2.811 -1.2775 -0.1341 -0.1880
  946SOL     OW 2836   0.005   1.418   1.650 -0.7653 -0.1046 -0.2660
  946SOL    HW1 2837   2.990   1.459   1.703 -1.4000 -1.0913  1.8641
  946SOL    HW2 2838   0.003   1.322   1.619 -0.5301  2.1930  0.0094
  947SOL     OW 2839   0.935   0.228   2.824 -0.5237 -1.0311  0.0848
  947SOL    HW1 2840   0.860   0.298   2.840  0.1986 -2.2988  0.0539
  947SOL    HW2 2841   0.962   0.180   2.906 -1.4844  0.8308  1.1391
  948SOL     OW 2842   2.260   1.604   1.088 -0.3592  0.3799  0.2431
  948SOL    HW1 2843   2.213   1.514   1.095  0.9548 -1.5122  0.8756
  948SOL    HW2 2844   2.357   1.588   1.060  0.8153  2.8789  1.6061
  949SOL     OW 2845   0.307   0.952   2.844 -0.0209 -0.2081 -0.0920
  949SOL    HW1 2846   0.321   1.028   2.912  0.6165 -0.6162 -2.1211
  949SOL    HW2 2847   0.208   0.932   2.831  4.8444 -0.2046  0.7424
  950SOL     OW 2848   0.284   2.741   1.206  0.1635 -1.1305 -0.0723
  950SOL    HW1 2849   0.262   2.725   1.302  1.9357 -0.7517 -2.5623
  950SOL    HW2 2850   0.380   2.765   1.194 -1.5683 -2.4562  1.1325
  951SOL     OW 2851   0.844   1.736   2.572  0.5687 -0.0562  0.0855
  951SOL    HW1 2852   0.753   1.745   2.624 -1.2917  0.8011  2.1564
  951SOL    HW2 2853   0.900   1.819   2.588 -1.7496  1.6474 -2.6825
  952SOL     OW 2854   0.675   1.257   0.587 -0.1742 -0.1605 -0.0514
  952SOL    HW1 2855   0.722   1.180   0.635  1.1651  0.6931  0.5423
  952SOL    HW2 2856   0.734   1.339   0.579 -4.0374  0.1149  0.6761
  953SOL     OW 2857   2.136   1.818   2.668  0.0091 -0.1098  0.0574
  953SOL    HW1 2858   2.198   1.845   2.592  1.2414 -2.3688 -0.0728
  953SOL    HW2 2859   2.160   1.721   2.683  0.1931  0.1293 -0.4405
  954SOL     OW 2860   1.438   0.430   0.867 -0.1124  0.1582  0.4333
  954SOL    HW1 2861   1.427   0.341   0.821  1.2886  0.5262 -1.2079
  954SOL    HW2 2862   1.353   0.460   0.907 -1.1058 -0.3348  0.4389
  955SOL     OW 2863   0.920   1.827   2.950  0.1460 -0.2676 -0.2477
  955SOL    HW1 2864   0.853   1.890   2.993  0.4973 -1.4257  0.0539
  955SOL    HW2 2865   1.006   1.830   2.998 -1.8287 -1.2270  0.0074
  956SOL     OW 2866   2.899   0.555   1.946 -0.2670 -0.1283  0.2470
  956SOL    HW1 2867   2.936   0.645   1.917 -3.7307  0.1330 -2.2235
  956SOL    HW2 2868   2.826   0.523   1.883  0.6901  1.6080  3.3669
  957SOL     OW 2869   1.771   2.039   2.039 -0.1064  0.4872 -0.4042
  957SOL    HW1 2870   1.830   1.967   2.000  3.6863  0.1170  3.1952
  957SOL    HW2 2871   1.715   2.098   1.971 -0.2118  1.6984 -2.3377
  958SOL     OW 2872   1.666   0.928   1.282 -0.6750  0.2816 -0.2114
  958SOL    HW1 2873   1.720   1.009   1.314  0.6873 -0.0070 -1.5187
  958SOL    HW2 2874   1.729   0.852   1.262 -1.7794  0.3557  0.9476
  959SOL     OW 2875   1.599   2.152   1.830  0.2661 -0.1615  0.3220
  959SOL    HW1 2876   1.566   2.062   1.793 -1.4961  0.2341  0.9769
  959SOL    HW2 2877   1.534   2.192   1.900 -0.7899  0.8742 -0.4020
  960SOL     OW 2878   0.467   1.065   2.673  0.4070  0.4510  0.4945
  960SOL    HW1 2879   0.425   1.028   2.756 -2.6095  1.1603 -0.8699
  960SOL    HW2 2880   0.439   1.025   2.586 -1.3287  1.7202  2.4871
  961SOL     OW 2881   0.098   1.171   3.042 -0.2757  0.0469  0.2083
  961SOL    HW1 2882   0.087   1.190   2.941  1.2283 -1.5707 -2.4903
  961SOL    HW2 2883   0.152   1.243   0.020  0.5880 -0.2577 -1.3909
  962SOL     OW 2884   0.984   2.121   2.817  0.1873  0.3016  0.1191
  962SOL    HW1 2885   0.951   2.205   2.770  0.5391  0.4624 -1.3033
  962SOL    HW2 2886   1.060   2.151   2.877 -3.4148  0.3745 -0.8883
  963SOL     OW 2887   2.899   1.694   3.044  0.1412 -0.1819  0.3958
  963SOL    HW1 2888   2.988   1.649   0.009  0.1177  0.9857  0.7046
  963SOL    HW2 2889   2.896   1.790   0.009 -0.6323 -0.9480  0.7087
  964SOL     OW 2890   0.586   2.279   2.284  0.2220  0.6679 -0.0578
  964SOL    HW1 2891   0.612   2.346   2.212 -1.4391 -1.3777  0.4741
  964SOL    HW2 2892   0.667   2.257   2.347  0.6637  0.1262 -0.2711
  965SOL     OW 2893   1.520   1.734   1.336  0.1057  0.8562 -0.0825
  965SOL    HW1 2894   1.604   1.675   1.341  0.4465  1.0590  0.8444
  965SOL    HW2 2895   1.515   1.797   1.419 -2.3588 -0.1788 -1.9124
  966SOL     OW 2896   2.984   1.506   0.256  0.0685  0.0650 -0.2210
  966SOL    HW1 2897   0.015   1.533   0.266 -0.5218 -2.3128  0.6263
  966SOL    HW2 2898   2.977   1.440   0.179 -1.0873  2.3093  1.7949
  967SOL     OW 2899   2.037   2.684   2.139  0.1028 -0.0532 -0.1333
  967SOL    HW1 2900   2.025   2.591   2.099  2.0872 -1.0423  1.4372
  967SOL    HW2 2901   1.966   2.748   2.117  0.6764 -0.8517  0.3205
  968SOL     OW 2902   1.565   1.295   2.953  0.0941  0.0347 -0.3482
  968SOL    HW1 2903   1.596   1.290   3.050 -1.5897  0.7067  2.9835
  968SOL    HW2 2904   1.498   1.224   2.938  0.3375  2.9837  0.5294
  969SOL     OW 2905   0.066   1.238   2.366  0.0357 -0.3106  0.8119
  969SOL    HW1 2906   0.100   1.169   2.302 -0.3309 -0.6607  2.9664
  969SOL    HW2 2907   0.139   1.269   2.432  1.3204 -0.2201  1.8138
  970SOL     OW 2908   2.571   2.794   0.507  0.1315  0.1812 -0.4527
  970SOL    HW1 2909   2.646   2.749   0.454 -0.1968  2.4142  2.5425
  970SOL    HW2 2910   2.533   2.881   0.470 -2.5104 -0.6257  1.9398
  971SOL     OW 2911   2.097   2.089   0.701  0.6105 -0.0552 -0.1519
  971SOL    HW1 2912   2.192   2.057   0.717 -0.7119  0.2414  0.1156
  971SOL    HW2 2913   2.080   2.184   0.718 -2.2338 -0.6258 -2.3856
  972SOL     OW 2914   0.260   1.574   2.711  0.1509 -0.4731 -0.2159
  972SOL    HW1 2915   0.223   1.619   2.625 -2.7091 -0.6008  1.0177
  972SOL    HW2 2916   0.341   1.516   2.689 -0.3585 -1.3555 -0.1125
  973SOL     OW 2917   0.908   0.423   0.467 -1.1726  0.9875 -0.5364
  973SOL    HW1 2918   0.906   0.333   0.420 -2.8501  0.5566 -1.2264
  973SOL    HW2 2919   1.006   0.457   0.471  1.2029 -0.7342  1.8407
  974SOL     OW 2920   2.298   0.698   1.752 -0.0314 -0.2308 -0.0769
  974SOL    HW1 2921   2.266   0.615   1.805  0.9318 -1.8861  0.7677
  974SOL    HW2 2922   2.391   0.727   1.773 -3.1558 -1.0456 -1.0566
  975SOL     OW 2923   0.173   0.153   0.475  0.0881  0.3598 -0.4795
  975SOL    HW1 2924   0.265   0.106   0.463  0.7928 -1.8635  0.3058
  975SOL    HW2 2925   0.139   0.161   0.569 -0.0110  0.6138  1.1102
  976SOL     OW 2926   0.669   1.384   1.313 -0.2589  0.1612  0.3799
  976SOL    HW1 2927   0.720   1.301   1.284  3.1144  0.5892  0.9021
  976SOL    HW2 2928   0.722   1.464   1.299  0.6509 -3.4358  1.8658
  977SOL     OW 2929   1.377   2.119   0.359  0.4420  0.0685 -0.3229
  977SOL    HW1 2930   1.407   2.103   0.264  0.0456 -0.9387 -0.9666
  977SOL    HW2 2931   1.354   2.218   0.367  0.5242  0.6775  0.3508
  978SOL     OW 2932   0.157   0.801   0.008  0.0502  0.3060  0.2292
  978SOL    HW1 2933   0.107   0.854   3.004  0.2603  0.5993  1.8534
  978SOL    HW2 2934   0.211   0.870   0.067  1.6850  1.7207 -1.2256
  979SOL     OW 2935   1.822   1.506   0.370  0.1606  0.4567  0.0177
  979SOL    HW1 2936   1.761   1.433   0.394  0.0382  1.4063 -2.9830
  979SOL    HW2 2937   1.799   1.588   0.427  1.6573  3.2406 -0.7924
  980SOL     OW 2938   0.477   1.693   1.418 -0.3513 -0.6475 -0.9210
  980SOL    HW1 2939   0.534   1.715   1.502  0.3422  0.7552  1.1342
  980SOL    HW2 2940   0.462   1.782   1.369  0.2101 -1.3598 -1.5933
  981SOL     OW 2941   2.628   1.453   2.689 -0.0273  0.7003  0.8244
  981SOL    HW1 2942   2.721   1.413   2.664 -2.0413 -0.6575  0.1681
  981SOL    HW2 2943   2.556   1.379   2.685 -0.1808 -0.0222  0.2066
  982SOL     OW 2944   0.367   1.905   1.826 -0.3937 -0.5472  0.0574
  982SOL    HW1 2945   0.362   1.948   1.735 -0.6305  0.2604  0.2114
  982SOL    HW2 2946   0.336   1.806   1.821  2.5732  3.0832 -1.7690
  983SOL     OW 2947   1.419   0.031   2.072  0.4356 -0.2793 -0.3805
  983SOL    HW1 2948   1.385   3.029   2.004 -1.2796  0.7467 -1.8965
  983SOL    HW2 2949   1.341   0.067   2.125  3.0043  0.6909 -2.8079
  984SOL     OW 2950   2.957   2.943   2.999 -0.5037 -0.0984 -0.4743
  984SOL    HW1 2951   2.991   3.014   3.065  1.7585  1.4576  2.1505
  984SOL    HW2 2952   2.991   2.961   2.905 -1.1582  0.5770 -0.8079
  985SOL     OW 2953   1.448   1.375   1.977  0.4737  0.2356  0.6191
  985SOL    HW1 2954   1.506   1.412   2.051 -2.8100 -0.1157 -0.7514
  985SOL    HW2 2955   1.503   1.339   1.898  0.3869 -1.7285 -1.1926
  986SOL     OW 2956   1.906   0.360   2.783  0.3197  0.5408  0.3195
  986SOL    HW1 2957   1.997   0.393   2.816  0.6176 -2.9774 -1.5551
  986SOL    HW2 2958   1.840   0.437   2.775  0.9208 -0.8508 -2.7530
  987SOL     OW 2959   2.992   1.757   2.522 -0.1290  0.2460 -0.0393
  987SOL    HW1 2960   3.004   1.765   2.624 -0.1002  3.2773  0.9617
  987SOL    HW2 2961   2.893   1.750   2.496 -1.8784  0.4029  2.6485
  988SOL     OW 2962   2.866   0.230   1.427  0.2874 -0.0322 -0.9799
  988SOL    HW1 2963   2.941   0.270   1.375 -3.1734 -2.2734  0.8018
  988SOL    HW2 2964   2.845   0.134   1.395  0.8893  0.3207  0.5658
  989SOL     OW 2965   1.838   0.110   1.204  0.8808 -0.1150  0.2086
  989SOL    HW1 2966   1.814   0.018   1.228  0.3599  0.5056  1.3126
  989SOL    HW2 2967   1.900   0.154   1.271 -0.9063  0.6249  1.9437
  990SOL     OW 2968   2.521   0.802   0.100  0.2763 -0.0938 -0.2694
  990SOL    HW1 2969   2.597   0.778   0.041  1.5926  0.6720  3.3858
  990SOL    HW2 2970   2.512   0.903   0.107  0.9743 -2.9009  1.3326
  991SOL     OW 2971   0.229   1.294   0.380  0.2069 -0.1463  0.0801
  991SOL    HW1 2972   0.179   1.207   0.394 -0.1863  0.7768 -1.7116
  991SOL    HW2 2973   0.292   1.314   0.458  0.2557 -0.3156  1.1164
  992SOL     OW 2974   1.878   1.426   1.787  0.1964  0.2252 -0.1835
  992SOL    HW1 2975   1.859   1.467   1.882 -0.5904  0.4042 -0.0671
  992SOL    HW2 2976   1.976   1.409   1.773 -1.3237  0.7488 -0.7206
  993SOL     OW 2977   0.314   2.298   0.688  0.3647  0.6378 -0.4688
  993SOL    HW1 2978   0.316   2.374   0.759  0.5909  0.7310  0.3719
  993SOL    HW2 2979   0.345   2.337   0.600 -1.2972  2.4217  1.9877
  994SOL     OW 2980   2.845   1.885   1.816  0.2602  0.2207  0.1728
  994SOL    HW1 2981   2.754   1.842   1.836 -0.6879 -2.3637  1.0385
  994SOL    HW2 2982   2.837   1.927   1.726  0.9709 -0.2733  1.3941
  995SOL     OW 2983   1.851   1.827   2.656 -0.7095  0.2144 -0.3686
  995SOL    HW1 2984   1.814   1.888   2.581  2.2719  0.8377  0.6213
  995SOL    HW2 2985   1.953   1.841   2.670  0.6893  0.2767  1.4087
  996SOL     OW 2986   2.073   2.330   0.525  0.5647  0.2226 -0.6678
  996SOL    HW1 2987   1.986   2.281   0.497 -0.1548  0.2308 -1.7131
  996SOL    HW2 2988   2.158   2.277   0.511  0.0244  2.9074  0.2986
  997SOL     OW 2989   1.159   1.696   2.095  0.4610  0.1161  0.1037
  997SOL    HW1 2990   1.154   1.716   2.196 -0.4691 -1.0965  0.1015
  997SOL    HW2 2991   1.166   1.597   2.082 -0.1142 -0.9709 -0.9741
  998SOL     OW 2992   3.016   2.320   0.586 -0.5237  0.0145  0.2001
  998SOL    HW1 2993   2.989   2.364   0.498 -1.5093 -1.0887 -0.6319
  998SOL    HW2 2994   3.048   2.223   0.571  0.9565 -2.9985 -1.8146
  999SOL     OW 2995   0.690   2.938   0.342  0.1298 -0.4792  0.5884
  999SOL    HW1 2996   0.628   2.862   0.317  0.7118 -3.0096 -0.9818
  999SOL    HW2 2997   0.685   2.946   0.442  0.4277  0.4407 -2.5242
 1000SOL     OW 2998   1.090   0.315   0.220 -0.5597 -0.7648 -0.8214
 1000SOL    HW1 2999   1.186   0.286   0.199  1.6557 -1.8922  1.0150
 1000SOL    HW2 3000   1.069   0.404   0.169 -0.7787  0.4238  1.0180
   3.06725   3.06725   3.06725
