1000 SPC/Fw water molecules t= 192.00000 step= 192000
 3000
    1SOL     OW    1   2.826   2.967   1.064 -0.4066 -0.3437 -0.3497
    1SOL    HW1    2   2.809   2.863   1.070  0.8713 -2.0589  1.7954
    1SOL    HW2    3   2.839   2.999   0.968 -0.4233  0.5671  1.0080
    2SOL     OW    4   1.950   1.750   2.106  0.2153 -0.0187  0.1119
    2SOL    HW1    5   1.999   1.703   2.185  0.0910 -2.0907 -0.6716
    2SOL    HW2    6   1.860   1.707   2.089  1.5122  1.3639  0.8344
    3SOL     OW    7   1.834   2.419   2.058  0.1376  0.3009  0.2614
    3SOL    HW1    8   1.800   2.435   2.154 -1.2409  1.7246  1.2076
    3SOL    HW2    9   1.897   2.336   2.056 -0.0531 -2.0321 -0.1148
    4SOL     OW   10   1.768   2.004   1.912  0.0302 -0.5382  0.1422
    4SOL    HW1   11   1.848   2.057   1.941 -1.6249  0.5493 -1.1822
    4SOL    HW2   12   1.694   2.069   1.875 -3.4678  1.8079  0.7555
    5SOL     OW   13   1.115   0.552   1.779 -0.1321 -0.0989 -0.2619
    5SOL    HW1   14   1.037   0.562   1.711 -1.2459 -1.7464 -2.8534
    5SOL    HW2   15   1.190   0.623   1.757  2.7216  2.0810 -1.1444
    6SOL     OW   16   2.696   0.702   2.949 -0.4440 -0.5162  0.1317
    6SOL    HW1   17   2.718   0.626   3.017  0.8636  1.2527  0.7473
    6SOL    HW2   18   2.606   0.736   2.965  1.9774 -0.1377 -1.2341
    7SOL     OW   19   1.171   0.911   1.586  0.6984 -0.1798  0.4995
    7SOL    HW1   20   1.077   0.951   1.597 -1.6969  0.1564 -0.2390
    7SOL    HW2   21   1.213   0.949   1.501 -2.5345 -1.4472  2.3362
    8SOL     OW   22   1.185   0.347   0.969 -0.3962  0.0252 -0.5935
    8SOL    HW1   23   1.269   0.295   0.940 -1.3794 -1.4610  0.5063
    8SOL    HW2   24   1.208   0.447   0.979  0.0735  0.0950  1.0333
    9SOL     OW   25   0.961   0.891   2.887 -0.1274 -0.1029 -0.6177
    9SOL    HW1   26   0.954   0.994   2.893 -1.3329  1.9155 -0.5854
    9SOL    HW2   27   0.945   0.850   2.981 -0.3795  0.9216  1.2446
   10SOL     OW   28   0.361   2.800   0.433  0.1671  1.1195 -0.1471
   10SOL    HW1   29   0.449   2.850   0.434 -1.8307 -2.4328 -1.6078
   10SOL    HW2   30   0.318   2.810   0.343  1.6964  0.1111  1.4727
   11SOL     OW   31   0.548   1.558   3.034  0.4242 -0.3760 -0.4433
   11SOL    HW1   32   0.530   1.490   2.957 -2.8985 -0.0960  2.0700
   11SOL    HW2   33   0.462   1.608   3.048 -1.0606 -1.5644 -1.1497
   12SOL     OW   34   0.560   0.241   1.440  0.0062 -0.2620  0.4145
   12SOL    HW1   35   0.561   0.152   1.483  4.1102  1.1477  0.8024
   12SOL    HW2   36   0.504   0.309   1.494 -0.2602 -1.0218 -0.3939
   13SOL     OW   37   0.794   2.867   0.575  0.3067  0.0435  0.0080
   13SOL    HW1   38   0.887   2.875   0.533  2.1830  3.0024  1.1097
   13SOL    HW2   39   0.776   2.770   0.598  1.4923 -3.2346  2.2671
   14SOL     OW   40   1.361   2.060   1.087  0.1816 -0.0040  0.5279
   14SOL    HW1   41   1.291   2.139   1.093 -0.2287  3.2612  1.9465
   14SOL    HW2   42   1.325   1.985   1.034  0.3640 -0.8805  0.8443
   15SOL     OW   43   2.604   0.590   1.967 -0.7025  0.4091  0.0904
   15SOL    HW1   44   2.677   0.576   1.898  0.5256 -0.3018  0.7217
   15SOL    HW2   45   2.640   0.555   2.056 -2.3580  1.5079  0.0208
   16SOL     OW   46   1.181   2.822   2.756 -0.3050  0.0356 -0.1134
   16SOL    HW1   47   1.132   2.883   2.695  1.5932 -0.6510  1.4617
   16SOL    HW2   48   1.113   2.756   2.790  0.3374 -1.4710 -1.5678
   17SOL     OW   49   0.976   3.064   1.275  0.2517  0.4934 -0.1243
   17SOL    HW1   50   0.916   0.042   1.315  2.1831 -0.8675 -0.0411
   17SOL    HW2   51   1.042   0.019   1.215 -0.6910 -2.0969  1.7117
   18SOL     OW   52   1.163   0.654   0.387  0.1412 -0.2740 -0.3262
   18SOL    HW1   53   1.062   0.637   0.388  1.3695  2.2056 -3.2699
   18SOL    HW2   54   1.200   0.567   0.354 -2.4735 -0.2937  0.3986
   19SOL     OW   55   2.065   1.401   2.928 -0.6641  0.6594 -0.2650
   19SOL    HW1   56   2.107   1.482   2.977 -0.8930  0.9662 -0.5918
   19SOL    HW2   57   2.091   1.311   2.967 -0.5911  0.4944 -0.4155
   20SOL     OW   58   1.836   1.558   1.600 -0.0229  0.3813 -0.8543
   20SOL    HW1   59   1.855   1.602   1.691 -1.2858  0.4044 -0.2128
   20SOL    HW2   60   1.771   1.483   1.623 -0.0583 -1.1583 -1.7250
   21SOL     OW   61   0.679   1.245   3.080  0.4235 -0.9057  0.1140
   21SOL    HW1   62   0.783   1.256   3.072  0.7342 -1.8716  0.1395
   21SOL    HW2   63   0.631   1.280   2.990 -2.3546  1.8175 -2.5146
   22SOL     OW   64   2.166   2.978   1.307  0.0431 -0.2743  0.3384
   22SOL    HW1   65   2.110   3.066   1.317  0.2890 -0.2894  2.2209
   22SOL    HW2   66   2.152   2.912   1.382  2.1553 -0.5797  1.3837
   23SOL     OW   67   0.180   1.098   1.495  0.0001 -0.1353 -0.4138
   23SOL    HW1   68   0.237   1.011   1.499  0.6748 -1.8115 -0.0788
   23SOL    HW2   69   0.156   1.130   1.403 -0.4320  1.3588  3.3649
   24SOL     OW   70   2.352   2.389   1.309  0.1570 -0.2408  0.0371
   24SOL    HW1   71   2.428   2.381   1.243  1.7494 -1.1594 -1.4730
   24SOL    HW2   72   2.367   2.460   1.387 -1.6655 -0.5018  1.3705
   25SOL     OW   73   1.755   2.757   2.664 -0.1204 -0.5599  0.2422
   25SOL    HW1   74   1.732   2.735   2.570  2.9054  0.0276  3.2157
   25SOL    HW2   75   1.682   2.725   2.734 -1.8923 -0.5557  1.0723
   26SOL     OW   76   1.007   2.648   2.827 -0.2525  0.0745 -0.4160
   26SOL    HW1   77   1.010   2.595   2.741 -1.3433  1.9474  1.7216
   26SOL    HW2   78   0.975   2.593   2.906 -0.4446 -0.3086 -1.7681
   27SOL     OW   79   0.594   2.178   2.771  0.1462 -0.1192 -0.0292
   27SOL    HW1   80   0.617   2.082   2.747 -2.1665  0.7809  0.5194
   27SOL    HW2   81   0.531   2.222   2.706  2.0488  0.4080 -1.0271
   28SOL     OW   82   0.029   1.496   1.392  0.1515  0.0227 -0.0206
   28SOL    HW1   83   3.030   1.507   1.356  1.2485  0.6183 -0.6986
   28SOL    HW2   84   0.066   1.591   1.401 -0.9056 -0.3040  0.1722
   29SOL     OW   85   2.565   1.906   2.076 -0.0723 -0.3195 -0.0901
   29SOL    HW1   86   2.591   1.875   2.164 -3.0098 -0.3372 -5.5672
   29SOL    HW2   87   2.648   1.951   2.033  2.6680  1.3073 -1.3347
   30SOL     OW   88   1.218   2.802   0.765 -0.6742  0.4374  0.0754
   30SOL    HW1   89   1.265   2.715   0.798  1.0111  2.2554  1.8473
   30SOL    HW2   90   1.200   2.854   0.850  1.9861 -1.2002  0.0610
   31SOL     OW   91   2.787   2.290   1.903 -0.1085  0.3428 -0.7640
   31SOL    HW1   92   2.710   2.347   1.947 -0.1021 -0.2563  0.5890
   31SOL    HW2   93   2.807   2.318   1.807 -0.8190 -0.8433 -1.4145
   32SOL     OW   94   1.129   0.877   1.840  0.4304 -0.0043 -0.0700
   32SOL    HW1   95   1.167   0.889   1.745  0.4415  0.7733 -0.4273
   32SOL    HW2   96   1.173   0.943   1.906 -0.0249 -0.5067  2.5710
   33SOL     OW   97   0.314   2.686   2.366 -0.6084  0.1835  0.0528
   33SOL    HW1   98   0.252   2.609   2.402 -0.0887 -0.0229 -2.3214
   33SOL    HW2   99   0.287   2.703   2.268 -0.3437 -0.4356 -0.3285
   34SOL     OW  100   1.985   0.123   0.622 -0.2376  0.4687 -0.4359
   34SOL    HW1  101   2.031   0.117   0.532 -0.3915  0.7556 -1.9519
   34SOL    HW2  102   2.003   0.039   0.681  0.2852 -2.4419  1.8533
   35SOL     OW  103   2.383   0.500   1.203  0.1435 -0.6127 -0.3223
   35SOL    HW1  104   2.337   0.547   1.127 -1.8633  1.6044  1.5506
   35SOL    HW2  105   2.429   0.572   1.257 -4.1566 -1.7909 -0.8647
   36SOL     OW  106   2.165   2.571   2.088 -0.0054 -0.1636  0.0739
   36SOL    HW1  107   2.155   2.500   2.014 -1.8993 -0.6225 -1.1122
   36SOL    HW2  108   2.083   2.628   2.096  1.1135 -0.5081 -1.0939
   37SOL     OW  109   0.946   2.527   2.117  0.5468  0.4395  0.2681
   37SOL    HW1  110   0.945   2.486   2.020 -0.9609 -0.8478  0.9677
   37SOL    HW2  111   1.020   2.491   2.173  0.5538  0.4796 -3.6256
   38SOL     OW  112   2.574   0.392   2.875  0.1447 -0.2019 -0.1506
   38SOL    HW1  113   2.615   0.355   2.961  0.2847 -1.8597  1.1539
   38SOL    HW2  114   2.522   0.479   2.898  0.0615 -0.5043  1.0437
   39SOL     OW  115   2.074   1.676   1.874 -0.3589  0.4661 -0.1560
   39SOL    HW1  116   2.013   1.717   1.945 -1.3233 -0.4692  0.7396
   39SOL    HW2  117   2.118   1.746   1.813 -1.0579 -1.4010 -0.8319
   40SOL     OW  118   0.194   3.069   2.596  0.6783  0.2776 -0.8484
   40SOL    HW1  119   0.104   3.038   2.639 -1.6964  0.5253  0.8062
   40SOL    HW2  120   0.258   2.992   2.580  0.6463  1.1370 -0.0317
   41SOL     OW  121   1.741   0.687   1.165 -0.3226  0.1196 -0.1735
   41SOL    HW1  122   1.848   0.683   1.183  2.5243  0.7480  0.7910
   41SOL    HW2  123   1.718   0.738   1.076 -1.9224 -0.0528 -0.1233
   42SOL     OW  124   0.827   0.187   1.357  0.3680  0.6966  0.1220
   42SOL    HW1  125   0.903   0.246   1.385 -1.7497 -1.3923  1.1218
   42SOL    HW2  126   0.739   0.217   1.396 -0.7299  0.8637  2.1892
   43SOL     OW  127   2.565   1.117   2.110 -0.5544  0.8545 -0.1909
   43SOL    HW1  128   2.539   1.160   2.016 -1.2768 -0.9557 -1.2281
   43SOL    HW2  129   2.611   1.028   2.098 -0.6526  3.3038  1.3862
   44SOL     OW  130   2.895   2.902   0.434 -0.3621 -0.0264 -0.1255
   44SOL    HW1  131   2.864   2.994   0.406 -1.4353  0.7785  2.0779
   44SOL    HW2  132   2.995   2.908   0.458  1.7781 -1.8138  2.1179
   45SOL     OW  133   3.017   2.452   1.917 -0.0233  0.6109 -0.1667
   45SOL    HW1  134   2.950   2.377   1.940  0.8149  0.6236  1.4276
   45SOL    HW2  135   3.031   2.472   1.817 -0.9477  0.2789 -1.6091
   46SOL     OW  136   2.168   2.372   1.905  0.1704 -0.2513 -0.6188
   46SOL    HW1  137   2.124   2.296   1.853  1.6130 -1.2657 -2.1162
   46SOL    HW2  138   2.258   2.339   1.942  1.0696 -2.0505  0.1401
   47SOL     OW  139   1.770   2.094   1.319  0.1512 -0.3696 -0.5601
   47SOL    HW1  140   1.748   2.103   1.218 -0.3004 -0.9187 -0.2943
   47SOL    HW2  141   1.862   2.056   1.332  2.8007 -1.1772 -2.5712
   48SOL     OW  142   0.520   1.820   0.431 -0.0395 -0.3277 -0.1418
   48SOL    HW1  143   0.480   1.912   0.417 -1.1159 -2.4629 -0.3028
   48SOL    HW2  144   0.613   1.834   0.468  1.5888  0.0524 -0.7499
   49SOL     OW  145   2.833   0.333   2.599  0.2304  0.3637 -0.1112
   49SOL    HW1  146   2.860   0.301   2.695  3.6790 -0.2768 -0.9662
   49SOL    HW2  147   2.744   0.385   2.595 -1.0108  0.5984  0.0380
   50SOL     OW  148   2.160   0.861   0.563  0.1325  0.6161 -0.1586
   50SOL    HW1  149   2.185   0.825   0.658 -0.9455 -2.0078  3.1083
   50SOL    HW2  150   2.244   0.893   0.514 -1.8095  0.6984 -0.9970
   51SOL     OW  151   1.639   0.464   1.039 -0.3801  0.6463  0.3315
   51SOL    HW1  152   1.653   0.372   1.082 -0.8917 -1.1339  1.6143
   51SOL    HW2  153   1.670   0.545   1.098  0.6353  0.0718  0.2525
   52SOL     OW  154   1.237   1.280   0.063  0.5177 -0.4071 -0.0654
   52SOL    HW1  155   1.260   1.200   0.004  3.3269  0.4927 -0.1918
   52SOL    HW2  156   1.321   1.341   0.071  2.6187  1.4783  1.4093
   53SOL     OW  157   0.883   1.516   2.400 -0.5892 -0.4672 -0.0739
   53SOL    HW1  158   0.838   1.603   2.401  2.0555 -2.5972  2.0162
   53SOL    HW2  159   0.814   1.443   2.422 -1.0427 -1.8390  1.6332
   54SOL     OW  160   2.201   0.276   1.014 -0.3543 -0.8714  0.6106
   54SOL    HW1  161   2.244   0.191   0.984  2.0805 -2.0449 -1.9204
   54SOL    HW2  162   2.118   0.251   1.070  0.0837 -1.8106  0.8151
   55SOL     OW  163   2.227   2.730   0.825 -0.4851 -0.2654  0.2611
   55SOL    HW1  164   2.205   2.829   0.798  0.0025  0.9691  0.3640
   55SOL    HW2  165   2.154   2.688   0.881 -1.2177  1.4949  1.0551
   56SOL     OW  166   0.546   3.084   1.569 -0.1148  0.1454 -0.2468
   56SOL    HW1  167   0.503   0.019   1.656  2.7227 -4.1619  1.7500
   56SOL    HW2  168   0.624   3.020   1.591  0.3682 -1.2547  3.5824
   57SOL     OW  169   1.587   1.204   0.491  0.2683 -0.3705  0.2458
   57SOL    HW1  170   1.495   1.156   0.478 -2.3209  1.2883  0.3363
   57SOL    HW2  171   1.587   1.290   0.436  0.5254 -2.7679  0.9473
   58SOL     OW  172   0.114   0.907   2.217  0.4787 -0.7449  0.4897
   58SOL    HW1  173   0.097   0.973   2.294  2.0723  2.7304 -1.3247
   58SOL    HW2  174   0.030   0.876   2.167 -0.8472  1.5601 -0.0644
   59SOL     OW  175   0.898   2.677   2.477  0.1521 -0.1014  0.3655
   59SOL    HW1  176   0.949   2.604   2.527  2.7214 -1.7778 -0.5365
   59SOL    HW2  177   0.803   2.645   2.459  2.5239 -1.4642 -0.1636
   60SOL     OW  178   2.422   2.749   1.009 -0.2706  0.5349 -0.5910
   60SOL    HW1  179   2.358   2.757   0.925 -3.4083  0.9578 -0.9550
   60SOL    HW2  180   2.386   2.817   1.074 -1.9536 -0.5117  1.0969
   61SOL     OW  181   1.123   2.277   0.644 -0.5384 -0.7101  0.1413
   61SOL    HW1  182   1.095   2.341   0.567 -1.9261 -1.1033  0.3615
   61SOL    HW2  183   1.102   2.317   0.737 -0.3199  0.1637  0.2638
   62SOL     OW  184   2.033   2.321   2.633  0.1778 -0.1013  0.3519
   62SOL    HW1  185   2.105   2.311   2.700 -0.4508 -0.7943 -0.2255
   62SOL    HW2  186   2.006   2.421   2.628  2.3700 -0.7093 -0.6306
   63SOL     OW  187   2.124   0.814   2.883  0.2504  0.4426 -0.2545
   63SOL    HW1  188   2.147   0.784   2.982  1.4517  0.4102  2.4138
   63SOL    HW2  189   2.114   0.738   2.816  0.6857 -0.6589  1.2443
   64SOL     OW  190   0.975   0.552   3.080 -0.5319  0.2068  0.3080
   64SOL    HW1  191   0.945   0.643   0.026  1.7786  0.2405 -1.3950
   64SOL    HW2  192   1.071   0.550   3.056 -2.5063 -0.3394 -1.5331
   65SOL     OW  193   1.088   2.057   0.491 -0.3112 -0.4181  0.3127
   65SOL    HW1  194   1.165   2.071   0.422 -1.3511  1.5628 -3.6797
   65SOL    HW2  195   1.086   2.134   0.558  2.2014  0.0978  0.9059
   66SOL     OW  196   0.542   1.506   2.014  0.4196  0.3076 -0.0481
   66SOL    HW1  197   0.551   1.601   2.043 -0.0739 -3.2823  0.6499
   66SOL    HW2  198   0.561   1.440   2.090 -4.1035 -2.2125  1.3704
   67SOL     OW  199   2.134   2.758   2.445 -0.0934 -0.1214  0.4464
   67SOL    HW1  200   2.124   2.847   2.490 -1.4796 -0.8304  0.4788
   67SOL    HW2  201   2.089   2.760   2.352 -4.2438 -0.6713 -0.2208
   68SOL     OW  202   0.507   1.622   1.398 -0.0803 -0.7361  0.5195
   68SOL    HW1  203   0.490   1.537   1.347 -0.3819 -1.1465 -1.1753
   68SOL    HW2  204   0.609   1.637   1.417  0.6566  0.7801  0.6550
   69SOL     OW  205   1.236   2.399   0.076  0.2319 -0.2793 -0.2791
   69SOL    HW1  206   1.165   2.441   0.139 -1.0918 -0.9631 -2.3808
   69SOL    HW2  207   1.263   2.471   0.010  0.6287 -0.8479  1.1118
   70SOL     OW  208   2.882   1.044   2.863  0.4387  0.3833 -0.3869
   70SOL    HW1  209   2.963   1.027   2.915 -0.3502  1.1394 -1.4228
   70SOL    HW2  210   2.902   1.034   2.762  0.8102 -1.8950 -1.7449
   71SOL     OW  211   2.894   1.424   2.727  0.1631  0.0593  0.3275
   71SOL    HW1  212   2.993   1.455   2.727  1.3983  0.1988 -0.7252
   71SOL    HW2  213   2.840   1.478   2.659  0.9126  0.0479  2.2728
   72SOL     OW  214   2.782   2.390   0.290  0.3819  0.4160 -0.1327
   72SOL    HW1  215   2.808   2.297   0.272 -0.7489  3.6712 -0.5094
   72SOL    HW2  216   2.737   2.402   0.383  0.7881  0.1378 -0.6487
   73SOL     OW  217   0.945   1.513   0.219  0.2192  0.2681 -0.0116
   73SOL    HW1  218   0.935   1.448   0.295 -1.9230 -0.8079 -1.5429
   73SOL    HW2  219   1.033   1.565   0.222  0.0792  1.2255 -0.0129
   74SOL     OW  220   0.060   1.141   3.056  0.2285 -0.1167  0.4633
   74SOL    HW1  221   0.112   1.218   3.019 -0.3478  0.0547  0.6245
   74SOL    HW2  222   0.056   1.065   2.990  0.1343 -2.9295  0.2220
   75SOL     OW  223   1.979   1.433   1.917 -0.2181 -0.0690  0.0878
   75SOL    HW1  224   2.031   1.515   1.880 -1.5398 -0.8618  4.3182
   75SOL    HW2  225   1.918   1.472   1.989 -0.8189  1.9444 -0.5927
   76SOL     OW  226   1.982   2.433   1.583 -0.3281  0.3682  0.0751
   76SOL    HW1  227   1.968   2.365   1.657  2.0090 -1.0147  0.2712
   76SOL    HW2  228   1.940   2.389   1.497 -3.7071 -5.0314 -1.6801
   77SOL     OW  229   2.655   0.677   1.156 -0.1714 -0.5984 -0.0543
   77SOL    HW1  230   2.725   0.665   1.225 -3.0136  1.7933  0.2132
   77SOL    HW2  231   2.669   0.611   1.085 -1.9924 -0.0268  0.5273
   78SOL     OW  232   1.404   0.974   0.279 -0.1046  0.4296  0.4168
   78SOL    HW1  233   1.376   1.018   0.366  3.5562 -1.1578  2.1613
   78SOL    HW2  234   1.460   0.891   0.297 -1.9432 -1.7683  0.4093
   79SOL     OW  235   0.410   1.716   1.804  0.3382  0.0504 -0.0857
   79SOL    HW1  236   0.502   1.670   1.819  2.6154 -0.2609  0.8268
   79SOL    HW2  237   0.415   1.778   1.720 -1.1414  3.6543 -0.5510
   80SOL     OW  238   1.782   1.144   1.437 -0.5964  0.3265  0.2710
   80SOL    HW1  239   1.800   1.085   1.513  0.8155 -2.9338  0.8639
   80SOL    HW2  240   1.680   1.134   1.413  1.4467  1.4681  0.4869
   81SOL     OW  241   0.724   3.006   1.078 -0.4088 -0.2323  0.2072
   81SOL    HW1  242   0.712   3.028   0.981  1.1955 -1.1497 -0.6774
   81SOL    HW2  243   0.788   3.066   1.126 -0.4979 -0.9181 -0.9317
   82SOL     OW  244   1.789   2.667   1.647 -0.8520 -0.4389 -0.2645
   82SOL    HW1  245   1.876   2.707   1.608  0.9328 -0.0465 -1.6439
   82SOL    HW2  246   1.803   2.645   1.742  0.4698  0.2689 -2.1337
   83SOL     OW  247   0.802   2.422   1.157 -0.6129  0.3839  0.3365
   83SOL    HW1  248   0.715   2.430   1.101 -1.4646  1.2102 -0.8688
   83SOL    HW2  249   0.835   2.323   1.161 -0.8281  0.8108 -1.3702
   84SOL     OW  250   0.317   1.220   2.473  0.0729  0.5773  0.4164
   84SOL    HW1  251   0.220   1.185   2.448 -1.1110 -3.1727 -1.2125
   84SOL    HW2  252   0.393   1.157   2.449  0.3771 -1.5123  0.0655
   85SOL     OW  253   0.115   2.321   1.406 -0.1886  0.1229 -0.1160
   85SOL    HW1  254   0.138   2.321   1.503 -1.1938 -2.8721 -0.6681
   85SOL    HW2  255   0.097   2.414   1.363 -1.8049  3.9105  0.2913
   86SOL     OW  256   2.654   2.340   1.496 -0.4702  0.4418 -0.0798
   86SOL    HW1  257   2.661   2.436   1.453 -0.0509  1.7670 -0.0265
   86SOL    HW2  258   2.610   2.271   1.430 -0.7627  2.5521 -1.3330
   87SOL     OW  259   2.564   2.086   2.957 -0.1674  0.0579 -0.3217
   87SOL    HW1  260   2.539   2.187   2.968  0.8410  0.4169 -2.1154
   87SOL    HW2  261   2.566   2.034   3.049  1.4669 -1.3796  2.8539
   88SOL     OW  262   0.409   1.826   1.200  0.3834 -0.1095  0.5106
   88SOL    HW1  263   0.334   1.885   1.228  0.2816 -0.7874 -1.2262
   88SOL    HW2  264   0.436   1.759   1.268 -0.9896 -0.1746  0.4345
   89SOL     OW  265   1.191   3.091   1.780 -0.2291 -0.0149 -0.0788
   89SOL    HW1  266   1.245   3.011   1.744 -0.1036  0.1594 -1.6856
   89SOL    HW2  267   1.197   0.075   1.712  0.6048 -1.3000  1.6940
   90SOL     OW  268   3.018   1.870   1.556 -0.2401  0.3026 -0.3189
   90SOL    HW1  269   2.934   1.840   1.509 -0.0566  1.8495 -1.2754
   90SOL    HW2  270   3.008   1.965   1.593 -0.2501  0.2290 -1.1801
   91SOL     OW  271   1.049   1.799   0.550 -0.2765  0.1051  0.3155
   91SOL    HW1  272   0.948   1.796   0.541  0.9515  2.1468  0.0940
   91SOL    HW2  273   1.071   1.895   0.528 -1.2665  0.8528  4.6610
   92SOL     OW  274   2.467   3.003   1.269 -1.3970  0.1735  0.0244
   92SOL    HW1  275   2.370   3.013   1.292  0.0801 -0.2865 -0.1442
   92SOL    HW2  276   2.491   3.074   1.197 -0.2353  2.7534  2.1405
   93SOL     OW  277   2.695   1.272   2.820  0.0372 -0.2816  0.1510
   93SOL    HW1  278   2.720   1.175   2.818 -0.7067  0.7810  3.0604
   93SOL    HW2  279   2.760   1.327   2.764 -1.4948  2.2927  0.4994
   94SOL     OW  280   2.624   2.577   2.438 -0.0918  0.1026 -0.7725
   94SOL    HW1  281   2.597   2.478   2.466  0.3504 -0.6518  0.0886
   94SOL    HW2  282   2.536   2.631   2.435  1.2358 -2.2350  1.5657
   95SOL     OW  283   1.631   0.303   1.570 -0.1924 -0.0471  0.4715
   95SOL    HW1  284   1.711   0.332   1.511  0.4716  1.5738 -1.4995
   95SOL    HW2  285   1.651   0.208   1.598 -2.5816 -0.1755 -0.9896
   96SOL     OW  286   2.944   3.080   1.675  0.0071 -0.2048  0.3333
   96SOL    HW1  287   2.967   0.021   1.585 -3.0761  1.4153  1.4492
   96SOL    HW2  288   3.018   3.015   1.710  1.1321  1.5457 -2.8396
   97SOL     OW  289   2.161   0.286   1.524 -0.4691  0.4719 -0.4923
   97SOL    HW1  290   2.242   0.227   1.520 -1.4558 -0.4339  0.3452
   97SOL    HW2  291   2.144   0.315   1.620 -0.9893  3.3099 -1.3939
   98SOL     OW  292   1.358   2.077   1.377  0.1143 -0.4686  0.2317
   98SOL    HW1  293   1.435   2.138   1.403 -1.6126  0.5823 -3.3801
   98SOL    HW2  294   1.363   2.057   1.276 -1.2568  1.2579  2.7535
   99SOL     OW  295   0.082   2.893   1.774 -0.4131 -0.1920 -0.1278
   99SOL    HW1  296   0.181   2.923   1.778  0.3507  2.1328 -0.9008
   99SOL    HW2  297   0.045   2.880   1.869 -1.0905  2.8196 -0.3313
  100SOL     OW  298   3.086   1.327   2.267  0.1924 -0.7357 -0.5087
  100SOL    HW1  299   0.079   1.375   2.234 -1.7585  1.4693 -2.1319
  100SOL    HW2  300   3.031   1.391   2.329 -0.2958  1.9706 -0.1317
  101SOL     OW  301   1.949   0.719   0.522  0.3675  0.0274 -0.0112
  101SOL    HW1  302   2.036   0.779   0.530  0.7183  3.9283  0.3454
  101SOL    HW2  303   1.872   0.786   0.523  1.4590 -1.7529  1.5527
  102SOL     OW  304   0.108   0.818   1.093 -0.3791  0.1170  0.5098
  102SOL    HW1  305   0.049   0.737   1.062 -1.0957 -1.0519 -1.7164
  102SOL    HW2  306   0.061   0.884   1.156  0.6932 -0.6459 -0.2320
  103SOL     OW  307   2.660   0.765   2.626  0.3310  0.0348 -0.0807
  103SOL    HW1  308   2.750   0.793   2.660 -0.5193 -0.9243  1.1699
  103SOL    HW2  309   2.602   0.848   2.613 -0.6486 -1.5145 -1.5546
  104SOL     OW  310   0.302   0.322   2.369  0.2269  0.2115  0.3009
  104SOL    HW1  311   0.369   0.257   2.330  2.1889 -0.9300  1.8741
  104SOL    HW2  312   0.278   0.292   2.465 -1.3571  1.0798  2.2452
  105SOL     OW  313   2.170   0.923   1.660 -0.4316  0.3793  0.1608
  105SOL    HW1  314   2.147   0.838   1.610  3.5748 -1.0321  2.4321
  105SOL    HW2  315   2.162   1.002   1.597  0.7861 -0.5973 -0.2305
  106SOL     OW  316   1.075   2.902   0.558  0.1453  0.4685 -0.3057
  106SOL    HW1  317   1.072   3.003   0.582 -1.8122  1.3248  0.2486
  106SOL    HW2  318   1.115   2.854   0.641 -2.0886  0.6486 -2.1975
  107SOL     OW  319   0.349   1.790   1.504  0.5520 -0.3327  0.3015
  107SOL    HW1  320   0.255   1.773   1.478  4.0911 -0.2420  1.1589
  107SOL    HW2  321   0.411   1.716   1.478 -0.6583  1.4942 -0.5563
  108SOL     OW  322   0.351   3.041   2.285  0.2746  0.2519 -0.3391
  108SOL    HW1  323   0.342   2.985   2.372  0.0607 -3.8271  3.2999
  108SOL    HW2  324   0.403   0.032   2.311 -3.0795 -1.4730  1.1988
  109SOL     OW  325   2.156   0.088   0.399 -0.0375 -0.8092 -0.4611
  109SOL    HW1  326   2.231   0.020   0.386  2.4085 -1.0498  0.9221
  109SOL    HW2  327   2.203   0.178   0.397 -0.2039 -1.6272  1.0230
  110SOL     OW  328   0.392   2.153   2.496 -0.5045 -0.1397  0.1713
  110SOL    HW1  329   0.374   2.173   2.396  0.3606  2.5813  0.5659
  110SOL    HW2  330   0.387   2.237   2.553 -0.6370 -0.9265 -0.5730
  111SOL     OW  331   1.737   2.880   2.226 -0.1262  0.4558 -0.4517
  111SOL    HW1  332   1.676   2.884   2.146 -0.9328 -0.5194  0.3737
  111SOL    HW2  333   1.785   2.970   2.251  0.6466  3.5414 -2.2680
  112SOL     OW  334   1.745   2.246   2.686 -0.3700  0.7474 -0.1498
  112SOL    HW1  335   1.739   2.163   2.626  2.5156  1.9171  0.8985
  112SOL    HW2  336   1.825   2.304   2.659 -1.2660  0.5317  1.7051
  113SOL     OW  337   2.430   2.303   1.936 -0.4608  0.2332 -0.1422
  113SOL    HW1  338   2.494   2.384   1.964 -0.3018 -2.1600  1.1549
  113SOL    HW2  339   2.484   2.244   1.875  0.7507 -0.8545  0.3554
  114SOL     OW  340   2.399   0.955   0.932 -0.7236  0.5436 -0.2031
  114SOL    HW1  341   2.344   0.879   0.888 -0.6852  3.4515 -2.3785
  114SOL    HW2  342   2.479   0.969   0.873 -1.3507 -2.8045  0.9624
  115SOL     OW  343   0.048   1.507   2.602  0.3150  0.2474 -0.1239
  115SOL    HW1  344   0.133   1.452   2.606 -3.2221  2.0144  0.3147
  115SOL    HW2  345   0.038   1.577   2.673 -1.5514 -3.5564  0.6906
  116SOL     OW  346   0.198   1.420   2.144 -0.6414 -0.5711 -0.1462
  116SOL    HW1  347   0.193   1.505   2.088 -0.7020  0.1974  0.5749
  116SOL    HW2  348   0.212   1.345   2.079  0.6668  1.4109 -2.1189
  117SOL     OW  349   2.645   0.194   0.860 -0.3733  0.2008 -0.0191
  117SOL    HW1  350   2.749   0.198   0.858  0.5176 -0.6545 -3.0253
  117SOL    HW2  351   2.609   0.208   0.765 -2.9717  2.2785 -1.0911
  118SOL     OW  352   0.956   2.008   1.794 -0.0461 -0.2432  0.4057
  118SOL    HW1  353   0.865   1.974   1.779  4.8147  1.1182 -1.0227
  118SOL    HW2  354   0.997   2.024   1.703 -1.3237  0.8846 -0.9098
  119SOL     OW  355   1.441   2.152   0.135 -0.8364 -0.2397 -0.1967
  119SOL    HW1  356   1.510   2.124   0.063  0.8251 -0.0147 -0.0054
  119SOL    HW2  357   1.343   2.148   0.093 -1.4907  0.6519  1.6613
  120SOL     OW  358   0.523   1.551   2.335  0.7514 -1.1269  0.3929
  120SOL    HW1  359   0.441   1.595   2.381  2.1312  0.7020 -1.3630
  120SOL    HW2  360   0.498   1.465   2.292  0.1055  1.4874 -2.3535
  121SOL     OW  361   1.973   2.714   1.074 -0.4107  0.2191 -0.1336
  121SOL    HW1  362   1.984   2.665   1.166  0.1922  1.4410  0.7553
  121SOL    HW2  363   1.875   2.738   1.057 -1.9855  0.2347 -2.2255
  122SOL     OW  364   2.224   2.092   2.005  0.3942  0.4393  0.0206
  122SOL    HW1  365   2.208   2.045   2.094  0.3104 -1.1414  0.2061
  122SOL    HW2  366   2.270   2.183   2.025 -0.8689  0.1913  0.6126
  123SOL     OW  367   2.921   0.152   0.830  0.1617 -0.0198 -0.1914
  123SOL    HW1  368   2.930   0.199   0.741 -1.8227 -2.1158 -1.5146
  123SOL    HW2  369   2.910   0.051   0.816 -1.9536  0.5164 -0.6677
  124SOL     OW  370   1.803   0.508   2.607  0.0816 -0.3220  0.3965
  124SOL    HW1  371   1.843   0.575   2.537  0.3423  1.0382 -0.3483
  124SOL    HW2  372   1.722   0.452   2.570 -1.1096 -2.2176  1.4181
  125SOL     OW  373   0.429   1.578   0.380 -0.0959  0.3469  0.4492
  125SOL    HW1  374   0.464   1.674   0.399 -1.1916  1.9885  1.4534
  125SOL    HW2  375   0.495   1.510   0.337  0.9754  0.5134  0.9868
  126SOL     OW  376   2.424   1.882   0.328  0.4690  0.1796  0.0213
  126SOL    HW1  377   2.431   1.788   0.295  0.4970  1.3363  2.5498
  126SOL    HW2  378   2.463   1.880   0.426 -0.9400 -2.5233  2.0704
  127SOL     OW  379   0.095   1.758   1.392 -0.4693 -0.4531 -0.0638
  127SOL    HW1  380   0.035   1.800   1.465 -0.7212 -0.0340  3.4842
  127SOL    HW2  381   0.111   1.826   1.317 -2.1363 -2.2622  0.0589
  128SOL     OW  382   0.767   0.451   2.913  0.4358 -0.5021  0.3721
  128SOL    HW1  383   0.860   0.460   2.956 -1.4578  2.0665  3.6328
  128SOL    HW2  384   0.705   0.526   2.941 -0.0862  1.3275 -0.0408
  129SOL     OW  385   2.233   1.751   0.947  0.3468  0.1957 -0.1872
  129SOL    HW1  386   2.245   1.778   1.045 -0.3798  0.0884  1.7137
  129SOL    HW2  387   2.143   1.788   0.919 -0.6725  0.9441 -1.2696
  130SOL     OW  388   2.283   1.600   1.371  0.1832  0.0879 -0.2702
  130SOL    HW1  389   2.299   1.539   1.293 -2.0895 -0.1300 -0.5326
  130SOL    HW2  390   2.350   1.587   1.451  0.1534  1.1118  3.0017
  131SOL     OW  391   2.700   0.973   0.012  0.6890 -0.4741 -0.0004
  131SOL    HW1  392   2.628   0.902   0.014  2.2453  3.9861  1.4131
  131SOL    HW2  393   2.755   0.969   3.020 -0.0832 -0.5954  0.7390
  132SOL     OW  394   2.526   2.205   1.687 -0.1108 -0.1540 -0.5512
  132SOL    HW1  395   2.579   2.281   1.639  1.2657  0.0867  0.4213
  132SOL    HW2  396   2.573   2.117   1.674 -1.0773  3.2837  0.7651
  133SOL     OW  397   0.552   1.128   0.799 -0.1120  0.5113  0.7437
  133SOL    HW1  398   0.642   1.171   0.780 -3.3281 -2.0798 -2.0199
  133SOL    HW2  399   0.534   1.120   0.899 -0.3857  1.9690 -1.1914
  134SOL     OW  400   0.314   0.953   0.060  0.3833 -0.4386 -0.0091
  134SOL    HW1  401   0.215   0.934   0.072 -0.5836 -4.0698 -0.7676
  134SOL    HW2  402   0.328   1.005   3.061 -1.4066 -2.0742  0.3923
  135SOL     OW  403   2.139   1.384   1.157  0.4027  0.1266  0.1049
  135SOL    HW1  404   2.058   1.355   1.208 -1.0049 -0.2766  1.6869
  135SOL    HW2  405   2.151   1.335   1.072 -1.7102 -1.0576  4.5198
  136SOL     OW  406   2.117   1.215   0.936  0.0905 -0.2968  0.1865
  136SOL    HW1  407   2.116   1.138   1.004 -1.4101 -0.1078 -1.4340
  136SOL    HW2  408   2.051   1.200   0.856  3.0799  0.8942 -1.9952
  137SOL     OW  409   2.566   1.883   0.565  0.4573 -0.1595  0.2518
  137SOL    HW1  410   2.532   1.862   0.660  1.2443 -0.3805 -0.9330
  137SOL    HW2  411   2.632   1.960   0.571  0.5980 -1.7911  1.2376
  138SOL     OW  412   1.768   0.826   2.048  0.5011  0.4032  0.4851
  138SOL    HW1  413   1.727   0.731   2.061  2.0442  1.1089  0.2979
  138SOL    HW2  414   1.857   0.819   2.005 -0.7434  2.6414 -2.1217
  139SOL     OW  415   2.193   3.075   0.038  0.1461 -0.2521 -0.3228
  139SOL    HW1  416   2.267   3.074   3.060 -0.7588  0.5161  0.7131
  139SOL    HW2  417   2.147   0.073   0.031 -1.8077 -0.5233 -1.8173
  140SOL     OW  418   1.645   2.220   2.154  0.4561  0.1484  0.3379
  140SOL    HW1  419   1.656   2.293   2.223 -0.7849  1.9357 -1.2667
  140SOL    HW2  420   1.733   2.202   2.112 -1.9469  0.4206  1.6310
  141SOL     OW  421   1.817   1.605   1.343 -0.3086 -0.9507  0.1158
  141SOL    HW1  422   1.836   1.598   1.442 -2.7452  0.3020  0.2506
  141SOL    HW2  423   1.742   1.675   1.321  0.6007 -1.4632  2.4239
  142SOL     OW  424   2.794   0.232   0.025 -0.1938  0.2689 -0.0180
  142SOL    HW1  425   2.863   0.181   0.076 -0.6833  1.3936 -3.6479
  142SOL    HW2  426   2.701   0.228   0.061 -2.1630  1.4348 -0.0679
  143SOL     OW  427   0.224   2.438   2.800  0.0901  0.0296 -0.5375
  143SOL    HW1  428   0.241   2.397   2.892 -3.6875  0.1605  0.4115
  143SOL    HW2  429   0.136   2.397   2.767 -1.2165  0.6375  1.6346
  144SOL     OW  430   0.777   2.674   1.747 -0.4148 -0.4126  0.2847
  144SOL    HW1  431   0.726   2.598   1.704  1.2411  2.0284 -1.8843
  144SOL    HW2  432   0.761   2.762   1.695 -2.2879  2.8863 -1.4309
  145SOL     OW  433   2.035   1.247   0.361  0.1816  0.2158  0.1762
  145SOL    HW1  434   2.108   1.191   0.412  4.0866 -0.9272 -0.0727
  145SOL    HW2  435   2.076   1.294   0.279  0.3021 -0.1199  0.1101
  146SOL     OW  436   2.713   2.902   2.585  0.0484  0.2142 -0.1710
  146SOL    HW1  437   2.615   2.919   2.599  1.0869 -0.8802 -1.1435
  146SOL    HW2  438   2.768   2.953   2.652  0.5633 -1.2339  2.4664
  147SOL     OW  439   3.002   2.595   1.255 -0.0698  0.2572 -0.4027
  147SOL    HW1  440   2.949   2.663   1.314 -1.6390  0.7401  0.9579
  147SOL    HW2  441   2.949   2.514   1.229  0.7387  2.7478  1.3644
  148SOL     OW  442   1.782   3.078   0.041 -0.3846 -0.1630  0.1139
  148SOL    HW1  443   1.818   3.017   0.114  1.9388  1.0424 -1.0590
  148SOL    HW2  444   1.788   3.032   3.042  0.7711 -0.6595 -1.8433
  149SOL     OW  445   1.148   0.412   2.723 -0.0182 -0.1035 -0.1386
  149SOL    HW1  446   1.179   0.425   2.821 -2.1798  2.0425 -0.0512
  149SOL    HW2  447   1.051   0.445   2.704 -3.2992 -1.7045  1.7202
  150SOL     OW  448   0.866   2.459   0.416  0.2586  0.3479 -0.0361
  150SOL    HW1  449   0.781   2.434   0.364 -0.2198 -1.1603 -0.5059
  150SOL    HW2  450   0.840   2.516   0.492  1.3529  2.3709 -1.5109
  151SOL     OW  451   3.005   1.754   0.066 -0.1041  0.3002 -0.0975
  151SOL    HW1  452   3.081   1.687   0.046  0.8313  1.8941  0.0166
  151SOL    HW2  453   2.957   1.780   3.072  2.7256 -1.4430  0.6983
  152SOL     OW  454   0.195   1.403   0.804 -0.1340 -0.2286 -0.0831
  152SOL    HW1  455   0.263   1.378   0.733 -2.2445  0.6738 -1.4403
  152SOL    HW2  456   0.141   1.483   0.773 -1.6208  2.4386 -0.2800
  153SOL     OW  457   2.475   2.639   0.189 -0.2144  0.1906 -0.0443
  153SOL    HW1  458   2.487   2.593   0.278 -1.5818 -0.4540 -0.6961
  153SOL    HW2  459   2.376   2.640   0.164  0.9042  1.8143 -3.8502
  154SOL     OW  460   0.887   0.713   1.227  0.1349 -0.2896 -0.8984
  154SOL    HW1  461   0.792   0.679   1.244  1.2532 -1.6355 -2.0444
  154SOL    HW2  462   0.959   0.688   1.297 -0.1796 -0.9173 -2.1435
  155SOL     OW  463   0.150   1.964   1.229  0.3112 -0.1259  0.8752
  155SOL    HW1  464   0.138   1.932   1.130 -1.4226  1.6387 -0.5715
  155SOL    HW2  465   0.069   2.023   1.254 -0.2116  1.9828  1.3284
  156SOL     OW  466   2.095   1.999   2.824  0.3870 -0.2398  0.0182
  156SOL    HW1  467   2.180   1.944   2.819  0.4528  0.0222 -0.5298
  156SOL    HW2  468   2.115   2.099   2.832 -2.3227  1.0378  0.1408
  157SOL     OW  469   0.849   2.545   0.919  0.2169  0.0289  0.4011
  157SOL    HW1  470   0.843   2.492   1.003  0.8201 -0.3969 -1.4880
  157SOL    HW2  471   0.884   2.642   0.928  2.5753  0.5765 -2.1571
  158SOL     OW  472   2.593   0.487   2.615 -0.4544  0.1250  0.2945
  158SOL    HW1  473   2.589   0.434   2.701  1.4300  0.2019 -2.2068
  158SOL    HW2  474   2.609   0.587   2.637  1.6891  1.6511  2.9082
  159SOL     OW  475   0.684   0.227   2.767 -0.1620 -0.0837  0.0337
  159SOL    HW1  476   0.703   0.143   2.813  0.7621  0.9455 -0.4486
  159SOL    HW2  477   0.713   0.308   2.821 -2.5954 -0.4819  0.7775
  160SOL     OW  478   0.923   2.049   2.931  0.1233 -0.0568  0.1152
  160SOL    HW1  479   0.897   2.143   2.910  4.4222 -0.9783 -0.2935
  160SOL    HW2  480   0.919   1.992   2.845  1.6488  2.3162  1.0358
  161SOL     OW  481   2.960   2.282   2.900 -0.4868  0.4339  0.0601
  161SOL    HW1  482   2.977   2.251   2.994 -3.3701 -0.9677  1.8788
  161SOL    HW2  483   2.915   2.372   2.904  2.3770 -1.3953 -0.8599
  162SOL     OW  484   0.484   2.638   1.077 -0.3229 -0.1449 -0.0550
  162SOL    HW1  485   0.519   2.543   1.060 -0.6839 -2.2083  0.8569
  162SOL    HW2  486   0.383   2.636   1.087  3.2794  2.1919 -1.1292
  163SOL     OW  487   2.481   0.814   3.079  0.3929  1.1124 -0.2568
  163SOL    HW1  488   2.440   0.867   3.001 -0.4096 -0.6988  1.6005
  163SOL    HW2  489   2.409   0.761   0.032  2.3649  1.0692 -1.7443
  164SOL     OW  490   3.034   2.477   0.890  0.2593  0.4853  0.1073
  164SOL    HW1  491   2.954   2.460   0.831  2.7268  3.0167  1.4216
  164SOL    HW2  492   3.048   2.579   0.907  1.9669  1.6957  0.4411
  165SOL     OW  493   2.705   0.207   1.378  0.3608 -0.6429 -0.4633
  165SOL    HW1  494   2.694   0.195   1.477 -0.4900  0.4277 -0.9297
  165SOL    HW2  495   2.621   0.242   1.333  0.1225 -0.9422 -1.8818
  166SOL     OW  496   2.084   0.335   0.782 -0.0433 -0.1081 -0.2679
  166SOL    HW1  497   2.045   0.271   0.712  0.2512 -0.0259  0.7024
  166SOL    HW2  498   2.130   0.288   0.859  0.5998 -0.6492  0.5075
  167SOL     OW  499   0.537   0.428   1.211 -0.4633  0.1218  0.0558
  167SOL    HW1  500   0.550   0.372   1.295  0.2268  1.2493 -2.8003
  167SOL    HW2  501   0.517   0.368   1.128 -1.1606 -1.1239 -0.7337
  168SOL     OW  502   2.444   2.992   2.267 -0.1845 -0.3296 -0.3455
  168SOL    HW1  503   2.454   2.894   2.242 -2.8839 -0.2024  2.0713
  168SOL    HW2  504   2.409   3.006   2.361 -1.6106  0.5847 -0.7944
  169SOL     OW  505   0.076   1.653   0.622  0.2387 -0.2284 -0.0000
  169SOL    HW1  506   0.127   1.673   0.535 -2.2199  1.5528  0.1444
  169SOL    HW2  507   0.131   1.673   0.702  1.5941  0.4828 -2.2066
  170SOL     OW  508   2.756   0.905   1.360 -0.7839  0.1922 -0.6052
  170SOL    HW1  509   2.793   0.811   1.361 -2.1878  1.3796  0.0153
  170SOL    HW2  510   2.743   0.937   1.454  0.8385 -1.5147 -1.1148
  171SOL     OW  511   1.135   2.127   1.534 -0.4397 -0.2630 -0.1229
  171SOL    HW1  512   1.225   2.116   1.483  2.6567  0.1653  0.6467
  171SOL    HW2  513   1.108   2.227   1.528 -1.4666  0.5234 -2.1380
  172SOL     OW  514   0.449   2.535   1.474  0.5116 -0.2807  0.0758
  172SOL    HW1  515   0.497   2.457   1.436  0.0699  0.2504  1.0576
  172SOL    HW2  516   0.375   2.564   1.412  1.9560  0.2527  0.7634
  173SOL     OW  517   1.359   2.873   0.199 -0.0983 -0.2244 -0.0200
  173SOL    HW1  518   1.448   2.827   0.198  1.3774  1.2478 -1.3051
  173SOL    HW2  519   1.367   2.976   0.173 -1.3200  0.4933 -0.4627
  174SOL     OW  520   1.015   2.446   2.587 -0.0087 -0.0218  0.0938
  174SOL    HW1  521   1.064   2.387   2.650 -0.6874  0.8499 -0.4656
  174SOL    HW2  522   0.929   2.413   2.543  0.8541  0.4543 -0.4412
  175SOL     OW  523   1.693   0.378   0.198  0.1547  0.3498 -0.5704
  175SOL    HW1  524   1.784   0.362   0.243  0.9589 -1.5355  0.7884
  175SOL    HW2  525   1.630   0.422   0.260  2.0135 -0.2331  0.5686
  176SOL     OW  526   1.327   0.050   0.188 -0.0274 -0.3367 -0.6358
  176SOL    HW1  527   1.412   0.083   0.141 -0.4088 -2.4309  3.1034
  176SOL    HW2  528   1.331   0.083   0.284  0.2202 -1.1017 -3.1239
  177SOL     OW  529   1.548   1.032   0.782 -0.1819  0.0996  0.2375
  177SOL    HW1  530   1.562   1.117   0.733 -0.5684 -3.5623  0.4316
  177SOL    HW2  531   1.451   1.007   0.796  1.6824 -0.1556  0.7086
  178SOL     OW  532   2.354   1.447   2.169  0.2263  0.0889  0.2381
  178SOL    HW1  533   2.447   1.433   2.212  0.0511  1.2397  1.7489
  178SOL    HW2  534   2.324   1.362   2.120 -1.2975 -1.2441 -0.2048
  179SOL     OW  535   0.549   2.683   2.808  0.1641 -0.0623 -0.0454
  179SOL    HW1  536   0.580   2.608   2.871 -0.9943  0.6663 -0.8930
  179SOL    HW2  537   0.535   2.648   2.713 -1.1865 -1.0176 -0.5004
  180SOL     OW  538   1.634   1.886   1.639  0.4978  0.0663  0.3126
  180SOL    HW1  539   1.695   1.834   1.703  2.3290  1.7251  1.5258
  180SOL    HW2  540   1.666   1.983   1.638  1.1421  0.0527  1.5485
  181SOL     OW  541   1.360   1.232   2.561 -0.2027 -0.5448 -0.3564
  181SOL    HW1  542   1.458   1.232   2.598  0.7067 -1.9368 -5.3797
  181SOL    HW2  543   1.291   1.218   2.637  0.4519 -0.3715 -0.2622
  182SOL     OW  544   2.991   0.548   2.630  0.8026 -0.0021  0.2523
  182SOL    HW1  545   2.942   0.459   2.602 -1.2981  0.2032  3.1142
  182SOL    HW2  546   3.087   0.530   2.648 -0.4430 -1.9279  0.7380
  183SOL     OW  547   1.059   0.144   2.710  0.2657  0.1934 -0.3044
  183SOL    HW1  548   1.085   0.242   2.724  0.6602  0.9822  0.7694
  183SOL    HW2  549   1.040   0.124   2.613  1.5162 -0.9338  0.4897
  184SOL     OW  550   1.451   0.791   1.431  0.1977 -0.6552  0.4881
  184SOL    HW1  551   1.406   0.884   1.421 -0.0437 -0.2565  0.2364
  184SOL    HW2  552   1.406   0.737   1.357 -0.3288  3.4405 -0.8544
  185SOL     OW  553   0.047   1.305   1.171 -0.5690  0.1618 -0.3896
  185SOL    HW1  554   0.033   1.375   1.243  3.0062  3.6080  0.0222
  185SOL    HW2  555   0.001   1.340   1.089 -0.0635  1.6624  2.3595
  186SOL     OW  556   0.264   1.960   2.632  0.1281 -0.1255  0.0075
  186SOL    HW1  557   0.334   1.914   2.689 -1.2358  0.4791  1.6869
  186SOL    HW2  558   0.300   2.033   2.573 -2.4928 -1.5374  0.7030
  187SOL     OW  559   2.650   1.341   0.360  0.4765 -0.1314  0.0490
  187SOL    HW1  560   2.677   1.279   0.281 -0.9312 -0.9295 -0.7008
  187SOL    HW2  561   2.679   1.435   0.348  0.9185 -2.8883  1.9170
  188SOL     OW  562   0.165   2.456   0.719 -0.2641 -0.6836  0.1256
  188SOL    HW1  563   0.141   2.387   0.647 -1.6408 -0.4949 -2.4893
  188SOL    HW2  564   0.087   2.476   0.782 -2.3447 -1.3650 -0.8243
  189SOL     OW  565   2.476   1.020   0.189 -0.5169  0.0028  0.0823
  189SOL    HW1  566   2.500   0.958   0.110  3.9071 -1.4046  2.4900
  189SOL    HW2  567   2.554   1.084   0.201 -1.2468  1.8776 -2.8838
  190SOL     OW  568   1.299   1.383   2.335  0.6707  0.5105 -0.0246
  190SOL    HW1  569   1.297   1.310   2.406  1.1328  1.2677  1.1677
  190SOL    HW2  570   1.335   1.467   2.384 -2.4404  4.1710  1.2403
  191SOL     OW  571   2.609   0.246   1.651  0.3805  0.4736  0.2074
  191SOL    HW1  572   2.616   0.188   1.733 -2.2215 -0.7934 -3.4797
  191SOL    HW2  573   2.614   0.346   1.675  1.1323  1.7207  2.8393
  192SOL     OW  574   2.156   0.396   1.763  0.2561  0.1927  0.5714
  192SOL    HW1  575   2.146   0.336   1.846 -0.4192 -1.5771 -1.0331
  192SOL    HW2  576   2.220   0.471   1.768  0.5383  1.3041 -1.3251
  193SOL     OW  577   0.897   0.593   0.400  0.0907  0.5958 -0.1845
  193SOL    HW1  578   0.843   0.587   0.486 -0.1590 -3.6968  0.4627
  193SOL    HW2  579   0.841   0.601   0.316 -1.6738 -0.5384 -0.7777
  194SOL     OW  580   1.236   2.837   1.215  0.6263 -0.2401 -0.2375
  194SOL    HW1  581   1.325   2.877   1.185 -2.5137 -2.7122 -0.8834
  194SOL    HW2  582   1.186   2.784   1.146 -1.6227  1.6268  3.4832
  195SOL     OW  583   2.242   0.744   0.795 -0.4745  0.0913  0.1408
  195SOL    HW1  584   2.335   0.725   0.763  0.1217  0.1268  1.0961
  195SOL    HW2  585   2.216   0.701   0.884 -1.6232 -0.7862  1.1271
  196SOL     OW  586   1.542   1.680   1.891 -0.4194 -0.0632 -0.0179
  196SOL    HW1  587   1.490   1.672   1.802 -1.0141  0.1815 -1.8492
  196SOL    HW2  588   1.503   1.750   1.956 -0.9361 -0.6450  3.0422
  197SOL     OW  589   0.087   2.967   0.466  0.4867 -0.1272 -0.2986
  197SOL    HW1  590   0.103   3.036   0.541 -0.7721  0.1270  0.3159
  197SOL    HW2  591   0.172   2.947   0.421 -1.3002  0.1377  0.1603
  198SOL     OW  592   1.063   1.230   0.684 -0.6012 -0.1329 -0.5130
  198SOL    HW1  593   1.142   1.285   0.720  2.8439  3.5432  0.3287
  198SOL    HW2  594   1.071   1.133   0.702 -1.1105  3.3435  0.7055
  199SOL     OW  595   2.958   0.828   1.747 -0.7753  0.7089 -0.3443
  199SOL    HW1  596   2.911   0.892   1.811  1.9897 -0.8861  0.0432
  199SOL    HW2  597   2.991   0.876   1.661  2.5118  2.0796 -2.1240
  200SOL     OW  598   2.374   1.966   2.545  0.2702 -0.1586  0.3376
  200SOL    HW1  599   2.280   1.977   2.505  1.3506  0.0519  0.8372
  200SOL    HW2  600   2.386   2.010   2.639 -0.0223  0.7027  1.1190
  201SOL     OW  601   2.497   0.074   1.043 -0.3846 -0.2551  0.5701
  201SOL    HW1  602   2.563   0.115   0.973  0.0937  1.9117 -0.6904
  201SOL    HW2  603   2.411   0.057   0.998  2.2382 -1.0536 -0.4672
  202SOL     OW  604   2.530   0.636   0.382 -0.8573  0.3315  0.0966
  202SOL    HW1  605   2.565   0.547   0.421 -0.1127 -3.5813  0.6647
  202SOL    HW2  606   2.606   0.685   0.338  1.2422  1.2242  0.8834
  203SOL     OW  607   1.692   1.861   2.145 -0.0466  0.3182  0.2821
  203SOL    HW1  608   1.729   1.905   2.059  1.3610 -0.0297  0.4368
  203SOL    HW2  609   1.592   1.857   2.146  1.9851 -0.9334 -3.1551
  204SOL     OW  610   0.841   1.809   2.162 -0.1295 -0.5835  0.2357
  204SOL    HW1  611   0.898   1.889   2.121  0.5634  3.0356  0.3756
  204SOL    HW2  612   0.859   1.723   2.109  0.4367  1.0070 -0.6659
  205SOL     OW  613   1.198   1.840   1.464 -0.0319  0.2022 -0.0453
  205SOL    HW1  614   1.226   1.924   1.414  2.6590  1.0849 -1.5824
  205SOL    HW2  615   1.263   1.818   1.540 -0.0752  1.9482  0.0182
  206SOL     OW  616   3.014   0.607   0.009 -0.3011 -0.5776 -0.1128
  206SOL    HW1  617   2.925   0.571   0.045  2.9834 -0.2539 -0.8817
  206SOL    HW2  618   3.015   0.618   3.001 -1.3243  2.7558  1.3391
  207SOL     OW  619   1.696   2.685   2.395  0.1638  0.3726  0.0342
  207SOL    HW1  620   1.597   2.673   2.422 -2.2360 -0.4609 -3.6021
  207SOL    HW2  621   1.714   2.774   2.341 -0.8558 -0.5412 -1.6146
  208SOL     OW  622   0.190   2.139   1.739  0.2432  0.1490  0.0144
  208SOL    HW1  623   0.242   2.078   1.680 -0.7982 -1.2411  2.0705
  208SOL    HW2  624   0.207   2.239   1.730  0.6773  0.3651 -0.0165
  209SOL     OW  625   1.436   0.685   2.748  0.7319  0.1432 -0.3898
  209SOL    HW1  626   1.342   0.709   2.781 -1.1149  0.0863  0.4026
  209SOL    HW2  627   1.437   0.676   2.648  3.4474  0.7042  4.5912
  210SOL     OW  628   2.151   1.005   1.112  0.5029 -0.0097 -0.9008
  210SOL    HW1  629   2.169   1.020   1.214  1.8107 -0.9077  0.4105
  210SOL    HW2  630   2.228   0.960   1.068  0.2892 -1.1589  1.1921
  211SOL     OW  631   0.690   0.548   0.588 -0.2668  0.1666 -0.2095
  211SOL    HW1  632   0.709   0.641   0.624 -0.2352 -1.1010  0.4779
  211SOL    HW2  633   0.596   0.544   0.552 -1.3837 -5.0035  0.3896
  212SOL     OW  634   1.477   1.458   0.086  0.2578 -0.0381  0.0793
  212SOL    HW1  635   1.482   1.427   3.079  0.1941 -1.5181  0.8061
  212SOL    HW2  636   1.473   1.561   0.096 -0.9096  2.3220 -0.8585
  213SOL     OW  637   1.600   0.374   2.500 -0.4917 -0.3191  0.0308
  213SOL    HW1  638   1.518   0.365   2.562 -2.0849 -0.4102  2.3022
  213SOL    HW2  639   1.657   0.284   2.496  1.8492 -3.1873  0.7655
  214SOL     OW  640   1.559   1.380   2.314 -0.5153  0.1478  0.5689
  214SOL    HW1  641   1.602   1.467   2.343  1.7394  4.0848  0.6481
  214SOL    HW2  642   1.469   1.400   2.267 -1.4899 -0.1013  1.4294
  215SOL     OW  643   0.551   1.817   0.741  0.4591 -0.0378 -0.1816
  215SOL    HW1  644   0.600   1.823   0.831 -1.4360  1.7432 -0.4149
  215SOL    HW2  645   0.599   1.755   0.675  1.8328 -3.1704 -0.7544
  216SOL     OW  646   0.660   2.868   2.206  0.3935  0.0377 -0.1733
  216SOL    HW1  647   0.739   2.874   2.145 -2.3461 -1.0097  0.0744
  216SOL    HW2  648   0.661   2.929   2.283 -2.6058 -2.2726 -1.2671
  217SOL     OW  649   2.400   0.909   0.430 -0.4531  0.0387 -0.4757
  217SOL    HW1  650   2.459   0.886   0.508 -1.0782 -2.1768  2.0915
  217SOL    HW2  651   2.454   0.911   0.346  1.9000 -0.2323 -0.4392
  218SOL     OW  652   2.143   1.927   2.200 -0.3922  0.4670 -0.7347
  218SOL    HW1  653   2.076   1.870   2.150  0.8812 -0.2073  1.5269
  218SOL    HW2  654   2.228   1.868   2.200  1.3045 -3.4948 -2.3930
  219SOL     OW  655   1.851   1.515   3.076 -0.4727  0.6132 -0.0224
  219SOL    HW1  656   1.778   1.545   3.019  2.6796 -1.2477  4.0046
  219SOL    HW2  657   1.925   1.468   3.025  0.3800  0.4368  0.0011
  220SOL     OW  658   1.497   1.545   1.158  0.4640  0.0904  0.2585
  220SOL    HW1  659   1.506   1.618   1.227  0.3014  0.3227 -1.9039
  220SOL    HW2  660   1.507   1.586   1.069 -0.6814 -2.8445  5.8552
  221SOL     OW  661   0.341   0.734   2.709 -0.2330  0.1127  0.8696
  221SOL    HW1  662   0.279   0.812   2.729  0.5019 -1.4993 -0.0219
  221SOL    HW2  663   0.437   0.759   2.705  0.6692  1.7072 -1.0161
  222SOL     OW  664   0.956   1.753   1.368  0.2719  0.1974 -0.0203
  222SOL    HW1  665   0.906   1.841   1.371  2.1759  1.2315 -3.0958
  222SOL    HW2  666   1.054   1.767   1.397 -0.0962  1.9348 -1.8864
  223SOL     OW  667   1.308   0.000   2.661 -0.1119 -0.4544 -0.1084
  223SOL    HW1  668   1.346   3.050   2.745  2.1231  0.8322 -0.3620
  223SOL    HW2  669   1.211   0.031   2.673 -2.3807  4.3009 -0.7889
  224SOL     OW  670   2.984   1.058   0.909 -0.7350 -0.0439  0.0821
  224SOL    HW1  671   3.078   1.044   0.868 -0.0525 -0.8009 -0.6409
  224SOL    HW2  672   2.960   0.987   0.979 -0.5899 -1.7745 -1.3874
  225SOL     OW  673   1.348   0.676   1.668 -0.0245 -0.1336 -0.0056
  225SOL    HW1  674   1.319   0.769   1.630 -1.6857  0.9708 -1.7449
  225SOL    HW2  675   1.428   0.644   1.612 -0.9623 -1.6487 -1.8199
  226SOL     OW  676   1.469   1.986   2.588 -0.1221  0.7486  0.0042
  226SOL    HW1  677   1.402   1.911   2.594 -2.1508  1.0171 -0.2678
  226SOL    HW2  678   1.437   2.065   2.531  0.8783  0.5198 -0.3045
  227SOL     OW  679   1.241   1.739   1.021 -0.1788  0.0939  0.2786
  227SOL    HW1  680   1.335   1.708   1.034  2.5014  0.6340  0.7301
  227SOL    HW2  681   1.164   1.683   1.069 -0.0795 -2.2901  0.8703
  228SOL     OW  682   0.626   1.873   1.044 -0.1418  0.0599 -0.1636
  228SOL    HW1  683   0.544   1.853   1.099  4.6102 -1.4202 -2.1364
  228SOL    HW2  684   0.688   1.787   1.036  2.4931 -2.3068 -0.1256
  229SOL     OW  685   2.080   0.436   0.134  0.0805 -0.6278 -0.3074
  229SOL    HW1  686   2.056   0.515   0.197 -0.9226  1.0564 -1.2605
  229SOL    HW2  687   2.121   0.464   0.042 -0.9467  0.8635 -2.6701
  230SOL     OW  688   0.867   0.568   2.077  0.1249  0.0037  0.4092
  230SOL    HW1  689   0.845   0.523   1.991  0.1663  1.7009  1.7625
  230SOL    HW2  690   0.967   0.572   2.098 -2.0674  2.5188  1.2735
  231SOL     OW  691   1.252   1.769   2.254  0.2248  0.4075  0.0768
  231SOL    HW1  692   1.177   1.703   2.223  0.5279  1.8084 -0.9487
  231SOL    HW2  693   1.207   1.850   2.301 -1.2742 -1.6414 -0.8099
  232SOL     OW  694   2.176   2.128   1.052  0.5785 -0.2629  0.1877
  232SOL    HW1  695   2.144   2.066   0.974  0.6714  0.7292 -0.6932
  232SOL    HW2  696   2.099   2.185   1.095 -0.4265  0.0379  2.0132
  233SOL     OW  697   2.018   2.575   2.908 -0.4205  0.3223  0.0811
  233SOL    HW1  698   1.973   2.483   2.910  0.0343 -2.1375  0.0455
  233SOL    HW2  699   2.117   2.574   2.938 -0.4397 -0.5443  1.6266
  234SOL     OW  700   1.332   3.002   3.025 -0.6902 -0.3530 -0.1758
  234SOL    HW1  701   1.353   2.927   3.090 -1.2496 -0.0804  1.0857
  234SOL    HW2  702   1.231   3.016   3.009  1.1960 -1.3851 -1.7210
  235SOL     OW  703   2.414   3.085   0.189 -0.3971 -0.1187  0.2287
  235SOL    HW1  704   2.319   3.076   0.153 -1.6681 -2.2411  1.6333
  235SOL    HW2  705   2.463   3.004   0.146 -0.3831 -1.3264 -0.3681
  236SOL     OW  706   2.528   2.232   2.209  0.1001 -0.2751 -0.0716
  236SOL    HW1  707   2.601   2.194   2.149 -2.1323  0.6034  0.2739
  236SOL    HW2  708   2.549   2.215   2.308  0.0128 -2.0361  0.3788
  237SOL     OW  709   1.330   1.178   1.898  0.0798  0.2596  0.2501
  237SOL    HW1  710   1.428   1.192   1.881 -1.9655  0.2571 -1.3917
  237SOL    HW2  711   1.278   1.228   1.831  1.9176  0.1996  2.1293
  238SOL     OW  712   2.205   0.262   2.451 -0.3926 -0.3988  0.1878
  238SOL    HW1  713   2.222   0.331   2.379  3.7458  0.7359  2.7075
  238SOL    HW2  714   2.136   0.303   2.517  3.0693 -1.2702 -3.0133
  239SOL     OW  715   0.297   1.782   2.165  0.1380 -0.0815 -0.7175
  239SOL    HW1  716   0.387   1.750   2.192  1.6835  0.2962 -0.5017
  239SOL    HW2  717   0.243   1.714   2.110  3.6855  1.4563 -1.2818
  240SOL     OW  718   2.719   2.707   1.025 -0.0243  0.0077  0.1471
  240SOL    HW1  719   2.735   2.613   1.059 -1.4544 -1.4446  0.2999
  240SOL    HW2  720   2.617   2.729   1.031 -0.7500 -0.0739  0.1753
  241SOL     OW  721   1.963   2.175   0.714 -0.2873  0.4736  0.5181
  241SOL    HW1  722   1.976   2.099   0.784 -3.1079 -1.9168  1.6254
  241SOL    HW2  723   2.053   2.203   0.675 -1.1551  0.9112 -1.3567
  242SOL     OW  724   1.209   1.839   2.618  0.3130 -0.2491 -0.2963
  242SOL    HW1  725   1.207   1.851   2.719  1.4523 -0.1434  1.5927
  242SOL    HW2  726   1.185   1.745   2.589 -0.6430 -5.0613 -0.7229
  243SOL     OW  727   0.675   2.575   2.244  0.0287  0.0101 -0.4929
  243SOL    HW1  728   0.661   2.676   2.240  0.2817 -1.9875  1.4468
  243SOL    HW2  729   0.766   2.552   2.197  0.3350  2.9152 -1.8493
  244SOL     OW  730   2.324   3.067   2.873  0.0615  0.2433 -0.1084
  244SOL    HW1  731   2.375   0.058   2.845 -0.0310 -2.0718  1.0556
  244SOL    HW2  732   2.226   3.059   2.839 -1.3667 -3.2234  1.1996
  245SOL     OW  733   1.378   2.420   0.348  0.4008 -0.4396  0.0575
  245SOL    HW1  734   1.366   2.345   0.280  0.5143  1.1816 -1.3978
  245SOL    HW2  735   1.452   2.483   0.327  0.2268 -1.6512  0.9144
  246SOL     OW  736   0.856   2.859   0.210 -0.0641  0.3315  0.2957
  246SOL    HW1  737   0.839   2.960   0.222 -0.3464  3.8646 -2.8228
  246SOL    HW2  738   0.949   2.829   0.248  4.1359 -0.7079  2.6140
  247SOL     OW  739   0.721   0.885   1.920 -0.1279  0.3250 -0.0731
  247SOL    HW1  740   0.737   0.833   1.833  2.4327 -0.3438  0.5532
  247SOL    HW2  741   0.789   0.862   1.993  0.3612  0.7424  2.3083
  248SOL     OW  742   1.064   1.230   2.427 -0.1854 -0.6308  0.2090
  248SOL    HW1  743   1.115   1.326   2.428  1.3562  5.9600 -0.1006
  248SOL    HW2  744   1.001   1.232   2.350  0.5393 -0.9974 -0.0182
  249SOL     OW  745   2.274   0.349   0.454 -0.1914  0.5686 -0.1487
  249SOL    HW1  746   2.324   0.382   0.535 -0.7954 -0.0655  1.2575
  249SOL    HW2  747   2.176   0.385   0.453 -2.6480  0.7479 -0.5457
  250SOL     OW  748   0.692   3.026   0.792 -0.0486 -0.3919 -0.3146
  250SOL    HW1  749   0.619   2.965   0.827  0.9655 -0.9219  2.1228
  250SOL    HW2  750   0.739   2.969   0.722 -0.4380  0.6897 -0.1380
  251SOL     OW  751   1.787   2.964   2.900 -0.0144  0.1268  0.8560
  251SOL    HW1  752   1.870   2.952   2.832  1.2520 -2.3483 -3.8562
  251SOL    HW2  753   1.694   2.984   2.858 -1.1958 -0.1132 -2.7756
  252SOL     OW  754   1.768   1.331   2.152  0.0163  0.5708  0.3671
  252SOL    HW1  755   1.707   1.347   2.229 -0.1505  2.1541 -0.6276
  252SOL    HW2  756   1.860   1.302   2.177  2.1117 -0.3593  0.8002
  253SOL     OW  757   2.322   2.806   2.052 -0.5258 -0.3447  0.1434
  253SOL    HW1  758   2.419   2.789   2.090  3.9833 -1.5170  1.8560
  253SOL    HW2  759   2.264   2.725   2.075 -2.8167  0.3516  0.8632
  254SOL     OW  760   0.809   1.368   1.130  0.0878  0.3046 -0.1390
  254SOL    HW1  761   0.853   1.282   1.092  0.7841 -2.7346 -3.2988
  254SOL    HW2  762   0.852   1.406   1.213 -1.4286 -0.7229 -3.6857
  255SOL     OW  763   1.281   1.004   1.342 -0.3566  0.8405 -0.3982
  255SOL    HW1  764   1.210   1.073   1.317 -1.7966  1.4265  1.3848
  255SOL    HW2  765   1.265   0.922   1.284  0.0252  0.4289  0.7059
  256SOL     OW  766   1.919   2.632   1.890 -0.1475  0.1172 -0.0525
  256SOL    HW1  767   1.893   2.553   1.956 -2.4774 -2.5261  0.9584
  256SOL    HW2  768   1.998   2.602   1.828 -0.2250  0.8561 -0.5792
  257SOL     OW  769   0.085   2.843   3.007 -0.0593 -0.7444  0.7452
  257SOL    HW1  770   0.084   2.934   2.962 -1.9357 -0.1906  0.1532
  257SOL    HW2  771   0.159   2.783   2.969 -2.3756  1.6793  1.4973
  258SOL     OW  772   0.855   2.816   1.970  0.3471  0.0652  0.5365
  258SOL    HW1  773   0.957   2.821   1.968 -0.6154  1.0713  0.8391
  258SOL    HW2  774   0.816   2.751   1.898  2.2810  0.3939  0.1292
  259SOL     OW  775   0.960   0.008   2.179  0.3446 -0.1096  0.0290
  259SOL    HW1  776   1.058   0.023   2.148  0.1091 -0.3367  0.8263
  259SOL    HW2  777   0.954   3.013   2.234 -0.8925 -0.2572  3.8632
  260SOL     OW  778   1.678   0.596   0.803  0.1537  0.0178  0.2141
  260SOL    HW1  779   1.677   0.526   0.879 -1.5477 -2.5618  1.5418
  260SOL    HW2  780   1.772   0.602   0.757  2.3734 -0.3240  2.2951
  261SOL     OW  781   0.159   0.495   2.694 -0.2285  0.5438  0.5112
  261SOL    HW1  782   0.188   0.407   2.651  1.3957 -0.7430 -0.1557
  261SOL    HW2  783   0.232   0.567   2.682  0.4726 -2.5751  0.0418
  262SOL     OW  784   2.625   2.499   1.932 -0.3324 -0.1678 -0.0396
  262SOL    HW1  785   2.694   2.567   1.957 -0.1950 -1.0282  0.6808
  262SOL    HW2  786   2.578   2.531   1.845  0.4715  0.2152  0.4490
  263SOL     OW  787   2.741   1.773   2.280 -0.0950  0.2952  0.2223
  263SOL    HW1  788   2.839   1.773   2.249  1.8062  0.6888  0.3860
  263SOL    HW2  789   2.734   1.796   2.381  0.6770  0.1773 -0.4276
  264SOL     OW  790   0.807   1.243   0.781 -0.0436 -0.2465 -0.5943
  264SOL    HW1  791   0.826   1.329   0.828 -0.6483 -0.0617  0.5723
  264SOL    HW2  792   0.893   1.208   0.742 -0.6297  1.2448  1.4432
  265SOL     OW  793   0.562   2.086   0.076  0.2765  0.5731 -0.1371
  265SOL    HW1  794   0.636   2.019   0.046  1.9761 -0.4530 -0.2581
  265SOL    HW2  795   0.569   2.101   0.177  0.2574 -1.3541 -3.1073
  266SOL     OW  796   1.423   0.606   0.700 -0.2464  0.1557  0.2439
  266SOL    HW1  797   1.493   0.619   0.774 -2.6653  2.8873 -4.5890
  266SOL    HW2  798   1.464   0.570   0.614  1.0599 -0.3857  1.3316
  267SOL     OW  799   2.998   1.201   0.176 -0.2310 -0.2613  0.1290
  267SOL    HW1  800   3.065   1.268   0.213  1.6187 -0.4188 -2.3271
  267SOL    HW2  801   3.035   1.162   0.091 -1.5831 -0.2042  1.6299
  268SOL     OW  802   2.017   0.189   0.023  0.3486  0.2292 -0.2329
  268SOL    HW1  803   2.036   0.276   0.077 -1.5077  2.2235  1.1498
  268SOL    HW2  804   1.936   0.135   0.059  1.9066 -1.5421 -1.2649
  269SOL     OW  805   1.683   0.563   2.842  0.5099  0.2909  0.0274
  269SOL    HW1  806   1.741   0.557   2.755  0.8087  2.7644 -2.0692
  269SOL    HW2  807   1.600   0.608   2.805 -1.4121 -1.9716 -1.8684
  270SOL     OW  808   0.583   0.645   2.979  0.3148  0.2092 -0.0048
  270SOL    HW1  809   0.534   0.683   3.060  0.8236 -0.6064  0.8348
  270SOL    HW2  810   0.581   0.718   2.906 -1.1834  4.1036  0.0138
  271SOL     OW  811   3.009   0.971   0.342 -0.1029 -0.0363 -0.1052
  271SOL    HW1  812   3.056   0.926   0.264  0.7498 -0.7121 -1.3872
  271SOL    HW2  813   2.975   1.057   0.301  0.8817 -1.0530 -1.2761
  272SOL     OW  814   0.022   1.699   2.794 -0.1560  0.0174  0.0067
  272SOL    HW1  815   3.035   1.714   2.855 -0.3547  0.7051  0.6136
  272SOL    HW2  816   0.084   1.780   2.792  0.7082  1.5718  1.3556
  273SOL     OW  817   2.316   2.984   0.687 -0.5684  0.0084 -0.8194
  273SOL    HW1  818   2.416   2.968   0.689 -1.9186 -1.2193  2.3931
  273SOL    HW2  819   2.283   2.961   0.594  1.1466 -0.6073  0.8069
  274SOL     OW  820   0.579   2.399   0.998  0.1308 -0.2018 -0.0228
  274SOL    HW1  821   0.597   2.299   0.997 -0.2547  2.6220  0.6648
  274SOL    HW2  822   0.536   2.424   0.908  0.7467  1.7877  1.3273
  275SOL     OW  823   2.370   1.411   0.439 -0.2462 -0.5165 -0.4455
  275SOL    HW1  824   2.471   1.391   0.431 -1.1840 -0.5411  3.5085
  275SOL    HW2  825   2.318   1.324   0.460 -0.7839 -0.6507  0.2447
  276SOL     OW  826   3.079   1.109   2.032 -0.5911  0.2698  0.0631
  276SOL    HW1  827   0.073   1.127   1.984  1.3755  1.8381  1.9031
  276SOL    HW2  828   3.081   1.149   2.124  1.6290 -1.5094 -0.2083
  277SOL     OW  829   1.969   2.818   1.480  0.0362  0.2627  0.9281
  277SOL    HW1  830   2.021   2.740   1.437 -0.7434 -0.1368  0.4504
  277SOL    HW2  831   1.891   2.834   1.416  2.3235  3.0711  0.0412
  278SOL     OW  832   1.216   0.047   2.053  0.0581  0.8592 -0.4397
  278SOL    HW1  833   1.213   0.013   1.954  1.0573 -0.9422 -2.8252
  278SOL    HW2  834   1.258   0.140   2.054  2.7149  2.1607  0.6833
  279SOL     OW  835   1.771   1.883   0.397  0.2503 -0.6091  0.5046
  279SOL    HW1  836   1.697   1.894   0.469  0.5660 -0.2670  0.4170
  279SOL    HW2  837   1.737   1.898   0.307 -0.7644  0.7703  0.5633
  280SOL     OW  838   0.125   1.867   0.970  0.1330  0.0543  0.5719
  280SOL    HW1  839   0.183   1.796   0.927  0.7752 -1.8122 -1.6829
  280SOL    HW2  840   0.029   1.870   0.933 -1.0489 -1.2041 -1.5397
  281SOL     OW  841   3.017   0.685   2.389  0.0690  0.3291 -0.1225
  281SOL    HW1  842   3.070   0.618   2.334  0.9297 -0.7011  1.7241
  281SOL    HW2  843   3.004   0.648   2.486 -1.7974 -0.7659 -0.5289
  282SOL     OW  844   0.662   0.950   0.414 -0.0014 -0.0634 -0.1316
  282SOL    HW1  845   0.593   1.012   0.452  1.2426  0.0349 -0.9707
  282SOL    HW2  846   0.746   0.999   0.404 -3.5069 -0.3484 -0.6486
  283SOL     OW  847   1.667   2.104   3.089  0.3360  0.2046  0.5004
  283SOL    HW1  848   1.618   2.102   3.002 -0.5809  0.2358  0.6320
  283SOL    HW2  849   1.768   2.073   3.076  0.8450 -0.9051  2.5998
  284SOL     OW  850   1.260   0.420   0.277  0.1487  0.4028 -0.1815
  284SOL    HW1  851   1.305   0.457   0.192 -1.1395  0.1255 -0.6633
  284SOL    HW2  852   1.175   0.371   0.257  0.6686  2.4856  1.7509
  285SOL     OW  853   2.060   1.008   2.587  0.1967 -0.5207 -0.4573
  285SOL    HW1  854   1.967   0.963   2.583 -1.4756 -3.3548 -0.9813
  285SOL    HW2  855   2.093   1.028   2.680 -0.5591  1.6282 -0.2473
  286SOL     OW  856   1.391   2.541   1.694  0.2497  0.6317 -0.5524
  286SOL    HW1  857   1.422   2.480   1.773 -1.1288 -1.0282  1.1416
  286SOL    HW2  858   1.464   2.597   1.650 -0.5612 -0.7710 -1.5037
  287SOL     OW  859   0.997   0.983   0.757  0.1066 -0.0153  0.0202
  287SOL    HW1  860   0.911   0.941   0.796  2.4294 -0.5068 -1.1441
  287SOL    HW2  861   1.044   0.922   0.691 -1.0747 -1.1573 -1.3665
  288SOL     OW  862   1.017   2.532   0.207  0.3806 -0.0890  0.0413
  288SOL    HW1  863   1.063   2.610   0.250 -0.9210 -3.0211  0.4758
  288SOL    HW2  864   0.964   2.490   0.284  0.7043 -1.2845 -2.4317
  289SOL     OW  865   0.357   1.451   1.662 -0.2495 -0.4582  0.6820
  289SOL    HW1  866   0.358   1.550   1.685 -0.3422 -0.0494 -0.4292
  289SOL    HW2  867   0.447   1.416   1.689 -2.9718  3.4891  1.2782
  290SOL     OW  868   1.699   2.383   0.917  0.2267 -0.0341  0.2196
  290SOL    HW1  869   1.686   2.293   0.967 -1.7601 -1.7213  0.2389
  290SOL    HW2  870   1.641   2.459   0.960 -2.6331 -0.8242  1.0925
  291SOL     OW  871   1.741   2.687   2.984  0.1262 -0.3876  0.2413
  291SOL    HW1  872   1.748   2.790   2.969  0.5606  1.0153 -0.8828
  291SOL    HW2  873   1.836   2.640   2.975  1.5988 -0.3063  1.5270
  292SOL     OW  874   1.046   0.336   1.932 -0.0646  0.0134  0.1016
  292SOL    HW1  875   1.047   0.432   1.903  0.1519 -1.3684 -0.6841
  292SOL    HW2  876   0.988   0.309   2.011  1.3681  1.0831  0.2256
  293SOL     OW  877   1.824   2.437   0.679 -0.2877 -0.1235  0.1582
  293SOL    HW1  878   1.866   2.348   0.658  1.5513 -0.0304 -2.8399
  293SOL    HW2  879   1.771   2.433   0.767 -0.6569  2.1964 -0.9103
  294SOL     OW  880   0.445   0.547   2.312  0.0553 -0.5969 -0.2501
  294SOL    HW1  881   0.381   0.620   2.335  1.5615  0.7318 -0.9476
  294SOL    HW2  882   0.404   0.456   2.323 -0.3461  3.5755  1.2304
  295SOL     OW  883   1.485   1.695   0.923  0.1981 -0.3891  0.4420
  295SOL    HW1  884   1.584   1.683   0.897  3.5840  2.1067 -2.4489
  295SOL    HW2  885   1.448   1.780   0.882 -1.9382 -0.4099 -0.3820
  296SOL     OW  886   2.297   1.865   0.011  0.2959 -0.2223 -0.2704
  296SOL    HW1  887   2.395   1.854   0.039 -2.5724  0.8008 -2.3123
  296SOL    HW2  888   2.238   1.896   0.084 -0.2540 -1.9165  1.9434
  297SOL     OW  889   2.115   2.874   0.184 -0.5158 -0.2396  0.4339
  297SOL    HW1  890   2.014   2.881   0.212  0.5135  0.1193  3.3453
  297SOL    HW2  891   2.137   2.962   0.136  0.8114  0.3799  1.2276
  298SOL     OW  892   1.102   2.412   2.315  0.1189 -0.5124  0.1386
  298SOL    HW1  893   1.075   2.433   2.411  0.6289 -0.0905  0.4749
  298SOL    HW2  894   1.204   2.411   2.312 -1.6048  1.5027 -0.2387
  299SOL     OW  895   1.283   2.736   2.161  0.2932  0.5547  0.3533
  299SOL    HW1  896   1.189   2.732   2.188  1.1475  0.9203  1.1494
  299SOL    HW2  897   1.341   2.706   2.243  0.6491  1.5862  2.5293
  300SOL     OW  898   2.438   0.178   2.770 -0.4110  0.9039 -0.2901
  300SOL    HW1  899   2.466   0.272   2.798 -0.2723  0.1998 -1.1060
  300SOL    HW2  900   2.459   0.161   2.673  4.2611  2.7700  2.1478
  301SOL     OW  901   1.625   0.825   2.314 -1.1184  0.3171 -0.5631
  301SOL    HW1  902   1.617   0.928   2.298  0.3952  1.3158 -1.7593
  301SOL    HW2  903   1.630   0.768   2.231 -0.7421 -1.7142  3.0075
  302SOL     OW  904   2.425   2.450   0.406 -0.4535  0.0609 -0.4655
  302SOL    HW1  905   2.475   2.361   0.392  1.2844  1.7721 -0.0338
  302SOL    HW2  906   2.406   2.462   0.506  0.1156 -2.2207 -0.0702
  303SOL     OW  907   2.817   2.660   2.259 -0.2132 -0.3485  0.4032
  303SOL    HW1  908   2.899   2.602   2.240 -0.4297  2.7723 -0.8883
  303SOL    HW2  909   2.773   2.627   2.344 -1.0839 -1.2316 -1.9908
  304SOL     OW  910   2.796   0.612   1.647 -0.6051 -0.2746  0.0679
  304SOL    HW1  911   2.859   0.684   1.675 -1.5960  2.7331 -0.9328
  304SOL    HW2  912   2.808   0.530   1.703 -1.4621 -0.9807 -1.0011
  305SOL     OW  913   0.689   1.973   1.757  0.5464  0.0898 -0.3487
  305SOL    HW1  914   0.664   2.021   1.672  0.5594 -1.6717  0.8010
  305SOL    HW2  915   0.646   2.020   1.835 -0.0467 -0.6062 -0.2113
  306SOL     OW  916   3.017   0.964   1.503  0.8037 -0.1942 -0.2991
  306SOL    HW1  917   2.924   1.004   1.514 -1.7936 -1.1453  0.0263
  306SOL    HW2  918   0.004   1.030   1.492  1.7793  2.5511 -0.7674
  307SOL     OW  919   1.384   0.689   2.014  0.4233  0.8159 -0.3379
  307SOL    HW1  920   1.346   0.785   2.017  0.0477  2.4316 -2.4647
  307SOL    HW2  921   1.383   0.657   1.916 -0.9692  0.6044  0.3239
  308SOL     OW  922   2.960   1.347   0.932 -0.7037  0.3013 -0.1834
  308SOL    HW1  923   2.989   1.251   0.906  1.9081 -1.1867 -0.6706
  308SOL    HW2  924   2.892   1.392   0.872  0.7798 -1.7385  2.6911
  309SOL     OW  925   2.321   1.263   0.746 -0.0441  0.3999  0.2003
  309SOL    HW1  926   2.253   1.232   0.819  0.1499 -1.5778  0.8333
  309SOL    HW2  927   2.330   1.364   0.751  0.8786 -1.4596  2.4928
  310SOL     OW  928   2.887   1.784   2.910  0.3841  0.0333 -1.0500
  310SOL    HW1  929   2.863   1.884   2.896  0.8079  1.8866  0.7479
  310SOL    HW2  930   2.802   1.731   2.925  0.4460  1.9458  0.4418
  311SOL     OW  931   3.067   2.648   2.743  0.5780  0.6749  0.2826
  311SOL    HW1  932   2.968   2.629   2.717  0.2645 -1.1436 -0.0618
  311SOL    HW2  933   3.084   2.613   2.835  0.8581  0.2534 -3.3537
  312SOL     OW  934   2.108   1.833   0.608 -0.0578  0.2046  0.3272
  312SOL    HW1  935   2.057   1.886   0.535 -0.6906  0.2038  0.0037
  312SOL    HW2  936   2.155   1.756   0.560 -1.8356  1.3087 -1.9163
  313SOL     OW  937   2.837   2.990   0.766  0.6669 -0.4390 -0.4592
  313SOL    HW1  938   2.863   2.900   0.803 -0.0910  0.2177  1.4078
  313SOL    HW2  939   2.776   2.977   0.685 -0.4370  1.9263 -1.1152
  314SOL     OW  940   1.357   1.023   0.013 -0.4815  0.1342 -0.5480
  314SOL    HW1  941   1.406   0.955   3.046  2.5268 -1.4663  0.7774
  314SOL    HW2  942   1.381   1.021   0.110 -0.8944  0.2705  1.1691
  315SOL     OW  943   1.380   2.462   2.024 -0.6929 -0.1238  0.3162
  315SOL    HW1  944   1.336   2.549   2.045  1.5527  1.2275  0.0981
  315SOL    HW2  945   1.308   2.395   1.991  0.9731 -1.8923 -0.6600
  316SOL     OW  946   3.077   0.933   0.589 -0.2560  0.5559  0.0181
  316SOL    HW1  947   3.050   0.942   0.488  0.0092 -1.0597 -1.2843
  316SOL    HW2  948   0.008   1.023   0.628  1.2904  1.3024  1.2226
  317SOL     OW  949   0.358   0.047   0.489  0.3222 -0.5833 -0.3606
  317SOL    HW1  950   0.286   0.041   0.563 -0.8070  0.4936 -0.4116
  317SOL    HW2  951   0.437   3.070   0.498  1.7982  1.9238  0.1194
  318SOL     OW  952   2.177   2.342   0.412 -0.2885 -0.0001  0.2487
  318SOL    HW1  953   2.143   2.280   0.338  1.5159 -1.7671 -1.7460
  318SOL    HW2  954   2.265   2.382   0.379  1.1742 -0.6263 -2.1344
  319SOL     OW  955   1.113   1.506   2.845 -0.0551  0.3818 -0.3319
  319SOL    HW1  956   1.046   1.434   2.879 -2.1189 -2.4942  0.9740
  319SOL    HW2  957   1.112   1.595   2.903  1.8014  0.2614  0.3034
  320SOL     OW  958   0.227   2.418   1.903 -0.4540  0.3282  0.4762
  320SOL    HW1  959   0.308   2.466   1.938  0.1570  0.7830 -1.3405
  320SOL    HW2  960   0.140   2.458   1.933  0.4161 -1.3378  0.3557
  321SOL     OW  961   1.459   2.788   2.731  0.0865  0.3144 -0.0481
  321SOL    HW1  962   1.481   2.687   2.716 -2.1343 -1.1598 -2.4581
  321SOL    HW2  963   1.357   2.785   2.733 -1.9701  0.3040 -3.2904
  322SOL     OW  964   2.879   1.464   2.076  0.3383 -0.1352  0.2984
  322SOL    HW1  965   2.966   1.450   2.123 -0.2795  0.0754 -1.2938
  322SOL    HW2  966   2.878   1.448   1.974 -1.0969 -3.9090  1.5943
  323SOL     OW  967   2.263   1.161   0.493 -0.0894  0.3258  0.2518
  323SOL    HW1  968   2.270   1.167   0.595  3.4753  1.0368 -2.3587
  323SOL    HW2  969   2.312   1.077   0.456  0.1756 -0.2940 -2.2291
  324SOL     OW  970   2.843   3.029   2.810  0.7392  0.4920 -0.1886
  324SOL    HW1  971   2.837   0.038   2.810  1.1658 -2.3188 -2.0653
  324SOL    HW2  972   2.862   2.993   2.905 -1.3421  0.5471  1.5110
  325SOL     OW  973   1.349   0.286   2.557 -0.4821 -0.0481 -0.6042
  325SOL    HW1  974   1.305   0.350   2.625 -0.3307  1.5293  3.3369
  325SOL    HW2  975   1.368   0.193   2.598 -0.5888 -0.8881 -2.8468
  326SOL     OW  976   2.130   0.013   1.784  0.2986  0.2939 -0.3248
  326SOL    HW1  977   2.206   0.069   1.821 -1.3442  0.7350 -0.7805
  326SOL    HW2  978   2.168   3.011   1.773  0.3130 -0.4030 -1.3903
  327SOL     OW  979   2.065   0.223   2.852  0.3327  0.0551 -0.0543
  327SOL    HW1  980   2.078   0.142   2.790  0.1640  0.7189  1.5677
  327SOL    HW2  981   2.046   0.193   2.951  0.2282 -0.3083  1.1434
  328SOL     OW  982   0.068   1.114   2.407 -0.0044  0.4901  0.1825
  328SOL    HW1  983   0.036   1.207   2.369 -0.1551  3.1321 -1.9751
  328SOL    HW2  984   3.087   1.070   2.464  0.5307  0.6782  0.6703
  329SOL     OW  985   1.732   0.037   1.933 -0.1231  0.7030  0.4066
  329SOL    HW1  986   1.793   3.048   1.933  1.4171  0.3289  0.3143
  329SOL    HW2  987   1.785   0.111   1.969 -1.1454 -1.1662  1.7575
  330SOL     OW  988   2.985   1.601   1.037  0.1363  0.6806 -0.4893
  330SOL    HW1  989   2.971   1.507   0.997  1.4639 -2.0528  1.1763
  330SOL    HW2  990   2.962   1.600   1.138  2.0495 -0.8645 -0.3668
  331SOL     OW  991   0.586   1.741   2.158  0.3032 -0.8581 -0.3767
  331SOL    HW1  992   0.577   1.668   2.232 -2.4503 -2.9173  0.3881
  331SOL    HW2  993   0.685   1.775   2.151  3.4970  2.1213 -0.0027
  332SOL     OW  994   0.076   2.786   1.524  0.6846  0.3518 -0.2919
  332SOL    HW1  995   0.073   2.800   1.622  1.2804 -1.2968 -2.7425
  332SOL    HW2  996   0.107   2.874   1.483 -1.5533 -0.2523 -3.3268
  333SOL     OW  997   2.073   2.600   1.323  0.7407  0.0998 -0.3142
  333SOL    HW1  998   2.159   2.591   1.376 -0.0161  1.4846 -0.0412
  333SOL    HW2  999   2.028   2.509   1.322  0.5211 -1.1224 -0.0884
  334SOL     OW 1000   0.804   1.718   0.906 -0.3092  0.3169 -0.6677
  334SOL    HW1 1001   0.864   1.656   0.852 -1.3393 -0.4805  1.1843
  334SOL    HW2 1002   0.807   1.811   0.868  3.0558 -2.3648  0.4817
  335SOL     OW 1003   3.035   2.624   0.038  0.6796  0.1740  0.1194
  335SOL    HW1 1004   3.070   2.702   3.083  3.1355 -3.1942  2.0479
  335SOL    HW2 1005   2.982   2.563   3.062 -1.2469 -3.4310 -1.0775
  336SOL     OW 1006   0.444   2.939   2.043  0.0012 -0.5071  0.4687
  336SOL    HW1 1007   0.380   2.971   2.117  1.1120 -1.5123 -1.2305
  336SOL    HW2 1008   0.531   2.908   2.083  2.0676  2.4684  0.4657
  337SOL     OW 1009   2.354   1.927   2.844  0.2042  0.8240 -0.0033
  337SOL    HW1 1010   2.334   1.923   2.941 -1.3835 -0.4368 -1.0001
  337SOL    HW2 1011   2.431   1.871   2.817 -3.5878 -0.7704 -2.0873
  338SOL     OW 1012   1.238   1.463   1.229  0.8522  0.1291 -0.2865
  338SOL    HW1 1013   1.163   1.520   1.189  0.7142 -1.3851  3.1575
  338SOL    HW2 1014   1.329   1.501   1.220 -0.3363  0.2141  1.6036
  339SOL     OW 1015   0.352   0.915   1.727 -0.0466  0.0497 -0.8063
  339SOL    HW1 1016   0.330   0.893   1.823 -1.0053 -0.1772 -1.3447
  339SOL    HW2 1017   0.421   0.986   1.730 -1.1193  0.0979  0.1540
  340SOL     OW 1018   1.360   2.584   3.007  0.4871 -0.6030 -0.8002
  340SOL    HW1 1019   1.443   2.530   3.039  0.9178 -1.4661 -0.5695
  340SOL    HW2 1020   1.358   2.684   3.009  0.2352  0.3933  0.3788
  341SOL     OW 1021   1.879   1.478   1.009 -0.0583 -0.4897  0.0751
  341SOL    HW1 1022   1.973   1.473   1.047 -2.0231 -0.1416  2.2235
  341SOL    HW2 1023   1.831   1.390   0.999 -3.1433 -0.6725  0.1599
  342SOL     OW 1024   2.544   2.722   0.465  0.1711  0.4659  0.0082
  342SOL    HW1 1025   2.498   2.652   0.527 -1.0264 -0.0680 -1.3163
  342SOL    HW2 1026   2.616   2.678   0.409  2.5371 -0.2395 -0.9988
  343SOL     OW 1027   1.664   2.119   1.058 -0.1523 -0.0116 -0.5338
  343SOL    HW1 1028   1.718   2.038   1.026  2.9858  0.7864 -0.6473
  343SOL    HW2 1029   1.562   2.094   1.064 -2.5960  1.5213  1.1876
  344SOL     OW 1030   2.034   2.477   0.901  0.1772  0.2521 -0.3131
  344SOL    HW1 1031   1.959   2.429   0.843 -1.5909 -3.3992 -0.4726
  344SOL    HW2 1032   1.996   2.552   0.962  1.2216  1.2898 -3.1592
  345SOL     OW 1033   2.820   2.054   2.867  0.2943 -0.1703 -0.0515
  345SOL    HW1 1034   2.718   2.069   2.881  0.4666 -1.1331  2.1979
  345SOL    HW2 1035   2.865   2.144   2.888 -1.2512  0.4156 -0.5126
  346SOL     OW 1036   2.951   1.896   0.667  0.4881  0.2237  0.5594
  346SOL    HW1 1037   2.946   1.929   0.763 -1.4853  0.8943 -1.4032
  346SOL    HW2 1038   2.944   1.792   0.671 -3.6855 -1.3253  1.0772
  347SOL     OW 1039   2.350   2.130   1.414  0.0285  0.3806  0.6664
  347SOL    HW1 1040   2.365   2.083   1.323  2.1716 -0.7470 -0.3944
  347SOL    HW2 1041   2.359   2.228   1.396  0.0008 -1.3500  0.0811
  348SOL     OW 1042   0.665   1.805   2.817  0.0711 -0.0804 -0.0045
  348SOL    HW1 1043   0.742   1.842   2.763 -1.5020  2.2477  0.8493
  348SOL    HW2 1044   0.696   1.728   2.883  1.2547 -3.6969 -0.0591
  349SOL     OW 1045   2.292   1.299   1.757 -0.7500  0.1149  0.5643
  349SOL    HW1 1046   2.216   1.278   1.689 -0.9439  1.7851  0.3163
  349SOL    HW2 1047   2.301   1.396   1.768 -1.8793  0.6009  0.3301
  350SOL     OW 1048   0.169   2.326   1.033  0.1181  0.4933 -0.4440
  350SOL    HW1 1049   0.073   2.358   1.014 -1.8004 -0.8254  1.4508
  350SOL    HW2 1050   0.195   2.250   0.970  2.1125 -0.3115 -0.9307
  351SOL     OW 1051   0.405   0.657   2.023  0.2356 -0.0090  0.6776
  351SOL    HW1 1052   0.390   0.759   2.034 -1.4513 -0.6084  1.4007
  351SOL    HW2 1053   0.461   0.614   2.094 -0.7518 -1.1507 -0.5902
  352SOL     OW 1054   0.650   2.141   1.534 -0.4874  0.2413  0.6118
  352SOL    HW1 1055   0.640   2.193   1.447 -1.0798 -2.3805  1.0864
  352SOL    HW2 1056   0.562   2.113   1.569  0.6277 -1.7276  2.3060
  353SOL     OW 1057   1.403   1.636   2.423  0.2861  0.3349  0.0630
  353SOL    HW1 1058   1.335   1.684   2.366 -2.6924 -0.6828 -2.4714
  353SOL    HW2 1059   1.497   1.653   2.388 -0.6734 -1.2989 -1.8461
  354SOL     OW 1060   1.162   0.723   0.834  0.6325  0.8380 -0.5027
  354SOL    HW1 1061   1.158   0.727   0.732 -1.9449  2.0850 -1.2367
  354SOL    HW2 1062   1.196   0.815   0.869  1.0592  2.9000  1.8073
  355SOL     OW 1063   2.692   1.110   0.519 -0.1999 -0.1714 -0.0457
  355SOL    HW1 1064   2.695   1.029   0.456 -1.5951  2.0223 -0.2415
  355SOL    HW2 1065   2.694   1.196   0.467  0.6399  1.9239  2.9904
  356SOL     OW 1066   2.521   1.435   2.681 -0.1717 -0.3266 -0.4687
  356SOL    HW1 1067   2.561   1.356   2.731 -1.9619  2.6150 -0.7855
  356SOL    HW2 1068   2.458   1.399   2.610  0.6386 -0.9625  0.2155
  357SOL     OW 1069   0.822   2.556   1.403 -0.5563 -0.1324  0.4913
  357SOL    HW1 1070   0.814   2.503   1.313  2.5252 -1.8744  0.0871
  357SOL    HW2 1071   0.848   2.655   1.395  1.6410 -1.3270 -0.2650
  358SOL     OW 1072   2.477   1.139   1.844 -0.2878 -0.0779 -0.3498
  358SOL    HW1 1073   2.404   1.196   1.800  1.1218  1.6334  1.2852
  358SOL    HW2 1074   2.456   1.040   1.821 -0.6032 -1.2655 -0.0712
  359SOL     OW 1075   2.201   2.300   2.863 -0.0897 -0.6189  0.6421
  359SOL    HW1 1076   2.222   2.280   2.959  2.2466  0.7828 -1.6934
  359SOL    HW2 1077   2.287   2.296   2.808  2.2629  0.6700  1.8941
  360SOL     OW 1078   2.202   0.597   1.007 -0.1619  0.3715 -0.1715
  360SOL    HW1 1079   2.130   0.644   1.054 -1.9380 -0.9558  0.8468
  360SOL    HW2 1080   2.185   0.496   1.006 -0.4638  1.6674  1.9663
  361SOL     OW 1081   2.247   0.023   0.915 -0.7492 -0.3645 -0.4663
  361SOL    HW1 1082   2.210   3.039   0.964 -1.7602  1.0169 -0.3808
  361SOL    HW2 1083   2.267   3.084   0.821 -1.1310  1.3153  0.2381
  362SOL     OW 1084   1.338   1.121   0.494 -0.5300 -0.5559 -0.2822
  362SOL    HW1 1085   1.290   1.043   0.537  0.6760 -0.7179  0.3474
  362SOL    HW2 1086   1.286   1.176   0.425 -0.3576 -0.8164  0.9974
  363SOL     OW 1087   2.383   1.340   2.447  0.3310 -0.0079  0.0027
  363SOL    HW1 1088   2.465   1.295   2.410  0.1101  0.8651  0.6724
  363SOL    HW2 1089   2.300   1.284   2.427  1.1677  0.4662  0.3352
  364SOL     OW 1090   1.233   0.493   1.296 -0.0052 -0.2540  0.3532
  364SOL    HW1 1091   1.251   0.487   1.196  0.0627  0.7723  0.2138
  364SOL    HW2 1092   1.252   0.399   1.338 -2.0494 -2.4599  1.1466
  365SOL     OW 1093   0.202   2.945   0.860  0.0967  0.0274 -0.1790
  365SOL    HW1 1094   0.199   2.864   0.797  0.2963 -0.6389 -1.7111
  365SOL    HW2 1095   0.189   2.926   0.962  2.2819  0.5824 -0.2591
  366SOL     OW 1096   2.898   1.603   0.346 -0.6145 -0.3252  0.0851
  366SOL    HW1 1097   2.950   1.531   0.397 -0.0728 -0.8843  1.4517
  366SOL    HW2 1098   2.962   1.658   0.288  1.2557 -0.4515  0.0516
  367SOL     OW 1099   2.858   2.536   2.948  0.3803 -0.4181  0.1125
  367SOL    HW1 1100   2.807   2.571   2.868  0.9819  1.1113 -1.1698
  367SOL    HW2 1101   2.799   2.546   3.032 -2.3015 -1.8804  2.5606
  368SOL     OW 1102   0.180   2.096   0.832  0.8292  0.2494 -0.4950
  368SOL    HW1 1103   0.258   2.113   0.773  0.9065 -1.5993  2.0948
  368SOL    HW2 1104   0.199   2.014   0.893  0.3356 -2.1300  0.8463
  369SOL     OW 1105   0.378   0.208   0.260 -0.4388 -0.6066  0.0280
  369SOL    HW1 1106   0.368   0.138   0.335 -1.8530 -2.4082 -1.0733
  369SOL    HW2 1107   0.462   0.267   0.273  1.7126  2.4355 -1.1175
  370SOL     OW 1108   0.494   1.120   1.053  0.2001  0.0025 -0.1268
  370SOL    HW1 1109   0.414   1.183   1.042  0.4546 -2.7127 -4.2606
  370SOL    HW2 1110   0.504   1.111   1.156  2.1418 -2.3230  1.7951
  371SOL     OW 1111   2.064   2.560   0.529 -0.0459  0.0027 -0.6065
  371SOL    HW1 1112   2.115   2.485   0.485 -1.9800 -0.0597  2.3887
  371SOL    HW2 1113   1.996   2.518   0.596  0.7110 -2.1252  2.4084
  372SOL     OW 1114   0.216   0.994   2.735  0.0183 -0.1627 -0.0965
  372SOL    HW1 1115   0.215   1.068   2.669  1.4746 -1.1632  0.5224
  372SOL    HW2 1116   0.256   1.033   2.821 -1.3651 -0.5006  1.8894
  373SOL     OW 1117   2.740   1.677   0.573  0.1193  0.3308 -0.4144
  373SOL    HW1 1118   2.788   1.666   0.485 -0.1222  1.8770 -1.5010
  373SOL    HW2 1119   2.691   1.768   0.573 -0.6567  2.0094 -0.6602
  374SOL     OW 1120   0.343   2.487   0.383  0.0601 -0.3457  0.0944
  374SOL    HW1 1121   0.293   2.410   0.428 -1.1234  1.1341  1.9399
  374SOL    HW2 1122   0.290   2.525   0.306 -2.4789 -0.8924 -0.1546
  375SOL     OW 1123   0.610   0.322   0.275  0.6847 -0.0686 -0.0407
  375SOL    HW1 1124   0.696   0.290   0.314  0.5444  1.8950  0.3228
  375SOL    HW2 1125   0.627   0.421   0.252  0.6993 -0.5617  0.3724
  376SOL     OW 1126   0.353   2.924   1.806  0.4424 -0.0480 -0.0625
  376SOL    HW1 1127   0.353   3.022   1.769  1.5318  1.5150  0.4330
  376SOL    HW2 1128   0.408   2.921   1.891 -2.5662  1.0748 -0.4628
  377SOL     OW 1129   0.968   2.184   2.340  0.7072  0.1970  0.0313
  377SOL    HW1 1130   1.034   2.111   2.316 -0.9506  0.0521 -0.3285
  377SOL    HW2 1131   1.020   2.268   2.329 -0.4710 -1.1508 -0.1188
  378SOL     OW 1132   1.256   0.816   0.596  0.2487  0.0699 -0.4304
  378SOL    HW1 1133   1.227   0.773   0.505 -1.1659 -0.4475 -1.2859
  378SOL    HW2 1134   1.338   0.768   0.632  1.1667  1.4895  0.7303
  379SOL     OW 1135   1.030   1.704   3.003  0.2983  0.0734  0.7478
  379SOL    HW1 1136   0.936   1.683   3.032  1.5558  0.6835 -3.8390
  379SOL    HW2 1137   1.034   1.787   2.943 -0.7535 -1.1291  2.1697
  380SOL     OW 1138   2.696   1.983   1.652  0.1677  0.0715 -0.4002
  380SOL    HW1 1139   2.632   1.902   1.647 -1.2970 -2.0152 -1.3976
  380SOL    HW2 1140   2.727   2.002   1.746  1.2704  1.4397  1.1410
  381SOL     OW 1141   0.198   1.253   1.725  0.1711  0.6031 -0.0578
  381SOL    HW1 1142   0.255   1.335   1.710  0.0610 -1.8290 -0.9591
  381SOL    HW2 1143   0.202   1.181   1.650 -2.3190  0.7225 -1.8558
  382SOL     OW 1144   2.501   2.340   2.998  0.4486 -0.0237  0.1174
  382SOL    HW1 1145   2.425   2.319   3.062 -0.9144 -2.2013 -0.2930
  382SOL    HW2 1146   2.558   2.407   3.044  1.4543  0.1622  0.5416
  383SOL     OW 1147   2.333   1.723   2.153  0.2293  0.1948 -0.5240
  383SOL    HW1 1148   2.338   1.619   2.158 -0.9364 -0.1068  1.8442
  383SOL    HW2 1149   2.406   1.762   2.098  0.1160 -0.6109  2.0005
  384SOL     OW 1150   0.750   2.174   2.155 -0.1761 -0.6123 -0.0245
  384SOL    HW1 1151   0.808   2.202   2.232 -0.5499 -0.8577  0.2180
  384SOL    HW2 1152   0.692   2.255   2.122 -1.6110  0.9978  0.3999
  385SOL     OW 1153   2.856   2.233   1.089 -0.4254 -0.2302 -0.2920
  385SOL    HW1 1154   2.914   2.244   1.005  3.0390 -0.8162  0.8320
  385SOL    HW2 1155   2.915   2.180   1.158  2.5709 -2.8533 -1.3704
  386SOL     OW 1156   1.999   0.670   0.256  0.1379 -0.1064 -0.4179
  386SOL    HW1 1157   1.923   0.706   0.200 -1.5686 -0.2213 -0.4331
  386SOL    HW2 1158   1.978   0.687   0.356  1.8994 -0.6167  0.4888
  387SOL     OW 1159   0.554   0.681   1.517 -0.1884 -0.5228  0.3440
  387SOL    HW1 1160   0.563   0.692   1.416  1.7402 -0.0818 -0.1563
  387SOL    HW2 1161   0.521   0.589   1.536  2.1974  0.3726 -0.5499
  388SOL     OW 1162   2.859   1.001   1.943  0.5782 -0.0753  0.0084
  388SOL    HW1 1163   2.951   1.037   1.973  3.3626  3.0548  0.8068
  388SOL    HW2 1164   2.813   0.946   2.013 -0.5622 -1.2458  0.6601
  389SOL     OW 1165   1.484   0.628   2.476  0.4130 -0.7305 -0.0982
  389SOL    HW1 1166   1.534   0.705   2.432  2.2559 -0.3352  0.8901
  389SOL    HW2 1167   1.531   0.539   2.463 -0.0782  0.2685 -2.5295
  390SOL     OW 1168   1.972   2.340   0.083  0.0389  0.1892 -0.3859
  390SOL    HW1 1169   1.901   2.335   0.005 -0.9544  1.2079 -1.4561
  390SOL    HW2 1170   1.966   2.433   0.125  0.2004 -0.2455 -1.4555
  391SOL     OW 1171   1.859   2.349   1.370 -0.1746 -0.0039  0.0567
  391SOL    HW1 1172   1.800   2.266   1.351 -2.0185  0.0909 -1.7383
  391SOL    HW2 1173   1.810   2.431   1.336 -2.6286  1.1340  1.0187
  392SOL     OW 1174   2.643   2.574   1.379 -0.2202 -0.9177 -0.2987
  392SOL    HW1 1175   2.663   2.670   1.415  0.3446 -0.4931  0.5663
  392SOL    HW2 1176   2.694   2.558   1.291  0.8649  1.1733  1.3653
  393SOL     OW 1177   1.743   1.662   2.660 -0.1159  0.6555  0.2333
  393SOL    HW1 1178   1.829   1.717   2.680  1.8003 -0.0140  1.1682
  393SOL    HW2 1179   1.763   1.596   2.586  0.1856 -0.7754  1.0111
  394SOL     OW 1180   0.232   2.905   0.157  0.1792 -0.0029  0.2509
  394SOL    HW1 1181   0.177   2.849   0.092 -0.4941 -0.1723 -1.8503
  394SOL    HW2 1182   0.209   3.004   0.151 -0.4881  1.8185  0.1898
  395SOL     OW 1183   1.514   1.129   1.363  0.5632  0.2422 -0.3902
  395SOL    HW1 1184   1.538   1.174   1.273  0.1279 -3.5891 -0.0793
  395SOL    HW2 1185   1.420   1.088   1.357  0.0386 -2.8604 -3.0289
  396SOL     OW 1186   1.820   0.783   0.069  0.6554  0.5224 -0.4019
  396SOL    HW1 1187   1.754   0.707   0.038 -3.2847 -1.5031 -0.0546
  396SOL    HW2 1188   1.769   0.872   0.064  1.2142 -3.1228  0.7696
  397SOL     OW 1189   0.028   0.919   2.913 -0.5275  0.2512 -0.1856
  397SOL    HW1 1190   3.050   0.847   2.887  0.1832  0.5382  1.6959
  397SOL    HW2 1191   0.102   0.937   2.843  4.0007 -0.1667  0.0037
  398SOL     OW 1192   1.145   0.161   0.022 -0.6138  0.1381  0.0977
  398SOL    HW1 1193   1.205   0.112   0.087 -0.3952 -0.4262  0.1799
  398SOL    HW2 1194   1.118   0.092   3.045 -0.2006 -0.6670  4.1262
  399SOL     OW 1195   2.155   3.009   2.122 -0.5576 -0.3042 -0.7732
  399SOL    HW1 1196   2.085   3.030   2.053 -1.2482  1.9133  1.9458
  399SOL    HW2 1197   2.219   2.942   2.083 -0.5095  0.3692 -2.8677
  400SOL     OW 1198   2.950   1.516   2.426  0.3864 -0.0903  0.2876
  400SOL    HW1 1199   3.029   1.522   2.492  1.8388 -0.8050  0.6361
  400SOL    HW2 1200   2.855   1.535   2.469 -0.9706  1.6896 -0.6805
  401SOL     OW 1201   0.391   0.181   2.855  0.2222  0.0283 -0.0353
  401SOL    HW1 1202   0.377   0.265   2.912  0.9036  0.3799 -2.5080
  401SOL    HW2 1203   0.479   0.199   2.796  2.1703  0.1493 -0.6130
  402SOL     OW 1204   0.266   2.395   1.631  0.1093  0.0151 -0.7137
  402SOL    HW1 1205   0.316   2.455   1.569 -0.2823 -2.8692  2.2284
  402SOL    HW2 1206   0.273   2.424   1.733  1.6518 -4.2919  1.6556
  403SOL     OW 1207   0.924   1.399   1.361 -0.0474  0.6034 -0.3030
  403SOL    HW1 1208   0.977   1.308   1.343 -0.2592 -1.6461  1.7081
  403SOL    HW2 1209   0.930   1.432   1.460 -0.1687  1.7724 -1.1743
  404SOL     OW 1210   2.547   2.601   1.683  0.0188 -0.0209  0.4029
  404SOL    HW1 1211   2.519   2.688   1.648  0.2211 -2.7949  1.0879
  404SOL    HW2 1212   2.528   2.529   1.615 -1.6399 -1.6350  0.9667
  405SOL     OW 1213   2.977   0.592   2.105 -0.3853  0.5490  0.3052
  405SOL    HW1 1214   2.882   0.577   2.142 -2.3889 -0.1207  0.8332
  405SOL    HW2 1215   3.039   0.516   2.133 -0.7590  0.0205  2.7559
  406SOL     OW 1216   1.463   2.537   2.636 -0.7548 -0.1967 -0.0741
  406SOL    HW1 1217   1.421   2.484   2.707  0.5720 -2.3134 -4.1522
  406SOL    HW2 1218   1.503   2.472   2.570  0.5890  0.9275  0.4080
  407SOL     OW 1219   1.788   1.875   0.982  0.3156  0.4529 -0.3319
  407SOL    HW1 1220   1.844   1.839   1.064  2.4958  1.0551  3.0890
  407SOL    HW2 1221   1.758   1.794   0.927  1.8884  2.1408  1.0779
  408SOL     OW 1222   0.628   0.300   2.033  0.0196 -0.3846  0.2950
  408SOL    HW1 1223   0.615   0.220   1.971  1.3636  0.1803 -1.7420
  408SOL    HW2 1224   0.731   0.305   2.062  4.5686  0.5053 -0.7386
  409SOL     OW 1225   2.529   2.205   0.420 -0.1401 -0.4122 -0.5431
  409SOL    HW1 1226   2.445   2.154   0.425  1.6058  1.4595 -0.9043
  409SOL    HW2 1227   2.611   2.140   0.436  0.9871 -0.3047  0.8932
  410SOL     OW 1228   2.162   1.740   0.266  0.1106  0.4415  0.1384
  410SOL    HW1 1229   2.258   1.718   0.249  1.0444 -0.0885  1.2290
  410SOL    HW2 1230   2.135   1.692   0.351  0.3662 -1.1981  0.0767
  411SOL     OW 1231   3.046   0.667   0.685  0.0616 -0.4175 -0.3777
  411SOL    HW1 1232   0.044   0.663   0.734  0.8563  1.7630  0.7451
  411SOL    HW2 1233   3.048   0.763   0.647  0.0333  1.1786 -1.3563
  412SOL     OW 1234   2.022   0.457   0.536 -0.1141 -0.9193 -0.1918
  412SOL    HW1 1235   2.053   0.439   0.629 -1.0303  1.0268  0.4561
  412SOL    HW2 1236   1.973   0.546   0.534 -1.1642 -0.3758  1.1387
  413SOL     OW 1237   0.918   0.655   0.967  0.1654  0.2318 -0.1490
  413SOL    HW1 1238   0.907   0.664   1.070  0.3518 -0.3036  3.0454
  413SOL    HW2 1239   1.011   0.672   0.932 -1.7360 -2.0899 -0.1636
  414SOL     OW 1240   0.305   1.688   3.022  0.3108  0.3111 -0.1569
  414SOL    HW1 1241   0.225   1.625   3.020 -0.4983  0.1504  0.0359
  414SOL    HW2 1242   0.286   1.769   3.078  0.3300 -0.9019  0.3660
  415SOL     OW 1243   0.280   2.016   3.088 -0.1364 -0.6698 -0.1048
  415SOL    HW1 1244   0.377   2.044   3.075  1.1244  1.5712  0.3578
  415SOL    HW2 1245   0.220   2.015   3.002 -0.6552  0.4007 -1.7068
  416SOL     OW 1246   1.537   0.731   0.357  0.2808  0.2040  0.4850
  416SOL    HW1 1247   1.587   0.795   0.417 -1.6394 -0.6196 -0.2771
  416SOL    HW2 1248   1.525   0.639   0.399  2.5059 -1.0811 -0.4349
  417SOL     OW 1249   0.306   0.964   0.764  0.0192 -0.1664 -0.3616
  417SOL    HW1 1250   0.239   0.997   0.832  1.9382  0.6192 -0.8457
  417SOL    HW2 1251   0.392   1.021   0.772  0.8111 -2.4676 -0.7417
  418SOL     OW 1252   2.439   1.120   2.659 -0.4473  0.2931  0.0174
  418SOL    HW1 1253   2.361   1.182   2.658 -0.8169 -4.0356 -1.2362
  418SOL    HW2 1254   2.433   1.059   2.741 -0.5356 -0.8222 -1.6625
  419SOL     OW 1255   0.233   0.436   0.330  0.3922 -0.1910 -0.0388
  419SOL    HW1 1256   0.283   0.483   0.403  3.1591 -2.0972 -0.5480
  419SOL    HW2 1257   0.274   0.345   0.301  0.7138  0.5626  0.0372
  420SOL     OW 1258   0.273   1.716   0.799  0.0384  0.1278 -0.0010
  420SOL    HW1 1259   0.312   1.637   0.853  1.4908 -0.8829 -0.1345
  420SOL    HW2 1260   0.356   1.760   0.757 -0.3850 -1.8081 -1.1478
  421SOL     OW 1261   0.374   2.074   0.454  0.1195  0.5765  0.0266
  421SOL    HW1 1262   0.458   2.118   0.418  1.3556  1.1014 -0.3983
  421SOL    HW2 1263   0.383   2.054   0.554  1.3023 -0.3284 -0.9626
  422SOL     OW 1264   2.838   0.642   1.354  0.3466  0.1492 -0.0536
  422SOL    HW1 1265   2.930   0.611   1.333 -2.1348  0.3685 -1.0910
  422SOL    HW2 1266   2.821   0.621   1.453  3.2650 -0.4274 -2.1859
  423SOL     OW 1267   1.753   1.655   0.840 -0.4436  0.0052 -0.3076
  423SOL    HW1 1268   1.799   1.586   0.900 -2.0872  0.1612 -1.5262
  423SOL    HW2 1269   1.779   1.628   0.746  1.3210 -0.5332 -2.5555
  424SOL     OW 1270   1.839   1.128   0.512  1.1999 -0.1009  0.4941
  424SOL    HW1 1271   1.896   1.188   0.455  1.6659  0.4977  2.0758
  424SOL    HW2 1272   1.739   1.154   0.504  1.4449  3.4627 -3.2915
  425SOL     OW 1273   0.031   2.911   2.027  0.3361 -1.0323 -0.1679
  425SOL    HW1 1274   0.084   2.988   2.074 -0.9810  1.3981  0.8854
  425SOL    HW2 1275   3.042   2.889   2.084 -0.4873 -0.8427  0.1352
  426SOL     OW 1276   2.536   2.852   2.896  0.0698 -0.6538 -0.2212
  426SOL    HW1 1277   2.550   2.842   2.998 -1.6447 -0.6464  0.6127
  426SOL    HW2 1278   2.544   2.950   2.876  1.3279 -3.7913 -0.2512
  427SOL     OW 1279   0.937   0.894   2.490  0.3054 -0.0980  0.6919
  427SOL    HW1 1280   0.885   0.846   2.561  0.6545  1.6472 -2.1366
  427SOL    HW2 1281   1.014   0.834   2.459 -0.1680  0.0345  0.4147
  428SOL     OW 1282   2.215   0.796   2.515 -0.0044  0.1554  0.5510
  428SOL    HW1 1283   2.311   0.826   2.520 -0.9667 -2.3049  1.0289
  428SOL    HW2 1284   2.156   0.868   2.556 -2.3400  2.0123  1.5065
  429SOL     OW 1285   2.514   0.246   0.616 -0.1239 -0.3788  0.0484
  429SOL    HW1 1286   2.513   0.172   0.541  0.9031 -1.9479  1.1399
  429SOL    HW2 1287   2.416   0.275   0.631 -3.4610 -1.9797  1.1612
  430SOL     OW 1288   2.020   1.287   2.230 -0.1240  0.4608  0.0101
  430SOL    HW1 1289   2.062   1.230   2.304  0.8365 -0.5478 -0.8828
  430SOL    HW2 1290   2.071   1.276   2.141 -1.6075 -0.6749 -1.8635
  431SOL     OW 1291   3.038   2.120   1.294 -0.6341 -0.8255  0.0426
  431SOL    HW1 1292   0.002   2.195   1.341 -0.4346  5.1140 -0.3208
  431SOL    HW2 1293   2.957   2.096   1.350  0.0204 -0.5849 -0.1032
  432SOL     OW 1294   1.434   3.010   2.455 -0.3437 -0.2559 -0.3849
  432SOL    HW1 1295   1.369   3.027   2.533 -0.3062 -0.6249  1.2493
  432SOL    HW2 1296   1.403   3.027   2.358  3.1731 -1.7369  0.5787
  433SOL     OW 1297   1.538   2.723   1.554  0.3258  0.3147 -0.0054
  433SOL    HW1 1298   1.633   2.688   1.579 -0.9758  2.0928  1.0943
  433SOL    HW2 1299   1.545   2.824   1.538 -1.2778 -0.7831  0.5900
  434SOL     OW 1300   3.065   2.543   2.164  0.3978 -0.0991  0.3897
  434SOL    HW1 1301   0.043   2.615   2.172  0.8254  0.8947 -0.4295
  434SOL    HW2 1302   3.033   2.536   2.066  0.0545  1.3180 -2.6855
  435SOL     OW 1303   3.045   1.965   0.225 -0.1970 -0.5478 -0.4861
  435SOL    HW1 1304   3.018   1.891   0.162 -0.2151  3.1029 -0.7728
  435SOL    HW2 1305   0.053   1.967   0.220  0.0381 -2.0875  0.0100
  436SOL     OW 1306   0.934   1.209   1.738 -0.4177 -0.0553 -0.1940
  436SOL    HW1 1307   0.895   1.133   1.679 -0.8179 -0.5464  0.9057
  436SOL    HW2 1308   0.929   1.194   1.838 -0.3321  0.5584  0.0776
  437SOL     OW 1309   0.254   0.242   2.639 -0.8137  0.0750  0.4825
  437SOL    HW1 1310   0.304   0.236   2.724 -0.2778 -0.8761 -1.4972
  437SOL    HW2 1311   0.230   0.149   2.620  1.1398  0.2969 -1.3970
  438SOL     OW 1312   0.662   1.708   1.734  0.2424  0.2946  0.5080
  438SOL    HW1 1313   0.678   1.807   1.749  0.0640  0.9274  1.4385
  438SOL    HW2 1314   0.678   1.681   1.632 -1.9686 -0.9705 -1.8472
  439SOL     OW 1315   1.903   1.011   2.923 -0.0868 -0.6374  0.5345
  439SOL    HW1 1316   1.842   1.017   3.005  1.3644  1.0049  0.9339
  439SOL    HW2 1317   1.945   0.916   2.923  0.8412  0.4432  0.3463
  440SOL     OW 1318   0.918   0.798   0.054  0.1194  0.1623 -0.2513
  440SOL    HW1 1319   0.967   0.844   0.127  0.4697  0.5272  2.0689
  440SOL    HW2 1320   0.818   0.839   0.035 -3.4413  2.0228 -1.3352
  441SOL     OW 1321   0.389   2.663   1.720  0.0607 -0.6664  0.2529
  441SOL    HW1 1322   0.412   2.645   1.622 -2.1728 -2.1113 -0.4173
  441SOL    HW2 1323   0.369   2.760   1.739 -0.0694 -0.2118 -0.7020
  442SOL     OW 1324   2.286   2.361   0.958 -0.1244 -0.1235  0.1018
  442SOL    HW1 1325   2.267   2.262   0.962  2.9475 -0.1230 -0.2801
  442SOL    HW2 1326   2.198   2.410   0.941  2.7663 -1.0861  0.1930
  443SOL     OW 1327   2.713   1.122   2.544  0.2987  0.1080  0.3355
  443SOL    HW1 1328   2.613   1.111   2.577  1.0505  0.1491  3.0058
  443SOL    HW2 1329   2.709   1.176   2.457 -1.2027 -0.1138  0.9344
  444SOL     OW 1330   1.209   0.763   2.861 -0.0324 -0.2835  0.5016
  444SOL    HW1 1331   1.242   0.703   2.936 -1.9702  0.9650 -1.6485
  444SOL    HW2 1332   1.134   0.828   2.884 -1.0982  2.8849 -0.7603
  445SOL     OW 1333   2.192   2.844   1.799 -0.1918  0.0467  0.5596
  445SOL    HW1 1334   2.252   2.858   1.880  0.8674 -0.5822  0.5326
  445SOL    HW2 1335   2.184   2.747   1.776  0.3617 -0.6287  1.3487
  446SOL     OW 1336   2.837   2.119   0.298 -0.5424  0.0659  0.5797
  446SOL    HW1 1337   2.905   2.064   0.246  0.3617 -1.2943 -1.1239
  446SOL    HW2 1338   2.806   2.070   0.374  0.2514  1.4205 -3.7590
  447SOL     OW 1339   1.042   2.419   1.486 -0.2269 -0.3037 -0.2767
  447SOL    HW1 1340   1.073   2.482   1.561  0.1301 -0.3075  0.5298
  447SOL    HW2 1341   0.955   2.451   1.442 -1.3874  0.5912 -0.1425
  448SOL     OW 1342   1.758   1.576   2.024 -0.3518  0.2434 -0.0308
  448SOL    HW1 1343   1.665   1.585   1.979 -0.9106  0.8186 -0.2076
  448SOL    HW2 1344   1.761   1.489   2.080 -0.8246  0.5330  0.4335
  449SOL     OW 1345   0.138   1.947   2.298 -0.0977 -0.0811 -0.8513
  449SOL    HW1 1346   0.116   2.029   2.244  1.2881  1.5010  0.7906
  449SOL    HW2 1347   0.208   1.887   2.253 -3.3829 -3.0535 -0.4860
  450SOL     OW 1348   2.739   1.576   2.573  0.0227 -0.3461 -0.0653
  450SOL    HW1 1349   2.649   1.539   2.602 -2.8268  1.5660 -2.7401
  450SOL    HW2 1350   2.724   1.677   2.556 -0.4603 -0.6968  0.6717
  451SOL     OW 1351   2.127   0.483   1.346  0.1059  0.1086 -0.2667
  451SOL    HW1 1352   2.208   0.486   1.283  1.6607 -0.8017 -0.4860
  451SOL    HW2 1353   2.134   0.401   1.409 -0.5858 -4.3730  0.1411
  452SOL     OW 1354   1.040   1.621   1.144 -0.0018 -0.5251 -0.4859
  452SOL    HW1 1355   1.011   1.680   1.228  0.9928  0.0738  2.1787
  452SOL    HW2 1356   0.955   1.611   1.089 -1.1547 -1.4381 -1.8360
  453SOL     OW 1357   1.277   2.093   0.761 -0.1680 -0.3137  0.1934
  453SOL    HW1 1358   1.370   2.128   0.757 -1.2329  1.6931  4.0132
  453SOL    HW2 1359   1.223   2.162   0.710  3.7049 -0.9064  2.2945
  454SOL     OW 1360   0.216   1.071   0.456  0.2276  0.0447  0.0791
  454SOL    HW1 1361   0.175   0.983   0.473 -1.8184 -0.4113  0.0418
  454SOL    HW2 1362   0.164   1.129   0.516  0.3815 -1.7625 -2.9517
  455SOL     OW 1363   0.895   1.085   0.398  0.0479  0.0739 -0.3575
  455SOL    HW1 1364   0.972   1.021   0.372  0.5164 -2.3526  0.4404
  455SOL    HW2 1365   0.932   1.179   0.403  1.6545  0.5131 -1.4701
  456SOL     OW 1366   2.095   2.287   1.254  0.0336 -0.3905 -0.4427
  456SOL    HW1 1367   2.183   2.331   1.253 -2.6009 -2.6055  0.1757
  456SOL    HW2 1368   2.033   2.319   1.323  1.9361 -1.3179 -1.9467
  457SOL     OW 1369   1.529   3.005   2.851  0.1474 -0.4746 -0.4897
  457SOL    HW1 1370   1.505   2.918   2.801  1.9328  1.4043 -2.4860
  457SOL    HW2 1371   1.449   3.030   2.915  1.5415 -0.6222  0.7256
  458SOL     OW 1372   2.533   0.261   0.109 -0.2080 -0.4049  0.5335
  458SOL    HW1 1373   2.480   0.344   0.144  1.0154 -0.7898  1.5896
  458SOL    HW2 1374   2.481   0.170   0.134 -3.1091 -1.8016  2.5111
  459SOL     OW 1375   2.240   0.416   2.231  0.3703 -1.0223  0.2557
  459SOL    HW1 1376   2.206   0.500   2.270  0.9956 -1.4055 -1.1668
  459SOL    HW2 1377   2.338   0.431   2.223 -2.4484  1.4464 -0.5537
  460SOL     OW 1378   2.948   0.724   2.833  0.1961 -0.2699  0.4408
  460SOL    HW1 1379   2.975   0.660   2.760 -0.8453 -0.7791  3.5022
  460SOL    HW2 1380   2.851   0.707   2.863  0.2460 -0.0638  0.7236
  461SOL     OW 1381   2.992   2.159   0.845  0.1141 -0.5574 -0.3230
  461SOL    HW1 1382   3.088   2.134   0.829 -2.8529 -0.8370 -1.5643
  461SOL    HW2 1383   2.963   2.249   0.809 -0.0721 -0.4798  1.7228
  462SOL     OW 1384   3.083   0.285   1.052 -0.2548 -0.6759 -0.4337
  462SOL    HW1 1385   3.044   0.238   0.973 -1.5336  0.0399  1.1878
  462SOL    HW2 1386   3.002   0.330   1.100 -0.3364  0.7296  0.7217
  463SOL     OW 1387   2.135   1.416   0.173  0.2784  0.4012  0.0580
  463SOL    HW1 1388   2.114   1.516   0.170 -1.1316  0.4865  0.2495
  463SOL    HW2 1389   2.217   1.393   0.120 -0.3164  1.5369  1.1153
  464SOL     OW 1390   0.833   2.846   1.386  0.0668 -0.5019  0.2553
  464SOL    HW1 1391   0.896   2.913   1.338  0.5278 -0.1398 -0.3148
  464SOL    HW2 1392   0.752   2.830   1.330 -0.1036 -0.6328 -0.0759
  465SOL     OW 1393   1.372   0.288   1.487  0.3131  0.5763 -0.0361
  465SOL    HW1 1394   1.473   0.301   1.513 -0.9490 -0.1198 -0.0128
  465SOL    HW2 1395   1.310   0.281   1.566  0.9711 -0.2630 -1.1243
  466SOL     OW 1396   1.606   2.421   1.901 -0.3324 -0.2495  0.1325
  466SOL    HW1 1397   1.690   2.415   1.953 -4.7801  2.1071 -1.2505
  466SOL    HW2 1398   1.525   2.423   1.960  2.9372 -1.8568 -1.3509
  467SOL     OW 1399   0.683   2.472   1.612 -0.3013 -0.2599  0.3937
  467SOL    HW1 1400   0.591   2.491   1.581  2.7377 -2.3431 -1.5628
  467SOL    HW2 1401   0.744   2.498   1.529  1.1429 -1.0343 -1.3427
  468SOL     OW 1402   2.647   1.514   2.207  0.0845 -0.2797  0.4822
  468SOL    HW1 1403   2.736   1.480   2.163  2.2433  0.0518 -3.0653
  468SOL    HW2 1404   2.656   1.616   2.239 -0.0340  1.9236 -0.4057
  469SOL     OW 1405   0.856   1.959   0.775  0.2840 -0.6374 -0.0995
  469SOL    HW1 1406   0.837   2.059   0.764 -2.1262 -0.5135  0.4865
  469SOL    HW2 1407   0.939   1.954   0.838 -3.2816 -0.2713  1.9993
  470SOL     OW 1408   2.181   1.132   2.392 -0.0016 -0.5787  0.5888
  470SOL    HW1 1409   2.262   1.079   2.373 -0.0819 -0.3869 -0.0586
  470SOL    HW2 1410   2.129   1.100   2.477 -0.7204  0.5157  0.7078
  471SOL     OW 1411   0.162   2.521   0.162 -0.1417  0.0533  0.4801
  471SOL    HW1 1412   0.084   2.565   0.113 -1.4312  0.6630 -0.9952
  471SOL    HW2 1413   0.203   2.449   0.102  0.8552 -0.4959  0.1761
  472SOL     OW 1414   0.208   2.706   2.108 -0.3691  0.1041  0.1895
  472SOL    HW1 1415   0.143   2.773   2.063 -0.9547  0.9283  1.6651
  472SOL    HW2 1416   0.285   2.674   2.049  0.9491  0.4565 -2.3210
  473SOL     OW 1417   0.513   2.970   0.158  0.1875  0.2909  0.1157
  473SOL    HW1 1418   0.412   2.949   0.141 -1.2541 -1.0815 -1.2032
  473SOL    HW2 1419   0.536   3.054   0.110  1.7407 -0.8837 -0.8926
  474SOL     OW 1420   1.888   3.061   1.026 -0.5097 -0.6037  0.5156
  474SOL    HW1 1421   1.945   3.049   0.945 -3.0829  0.1378  0.8178
  474SOL    HW2 1422   1.916   3.011   1.108  0.6296  1.4909 -3.4073
  475SOL     OW 1423   1.593   3.001   1.470  0.0443 -0.1540  0.1591
  475SOL    HW1 1424   1.622   3.072   1.535  0.9282 -2.1357 -1.2050
  475SOL    HW2 1425   1.547   3.040   1.390 -0.8229  0.4742 -1.4402
  476SOL     OW 1426   0.516   1.465   0.790 -0.4214  0.1159  0.0213
  476SOL    HW1 1427   0.500   1.514   0.878  1.1303  2.0338  0.9954
  476SOL    HW2 1428   0.482   1.371   0.797  2.1245  0.0765  0.5509
  477SOL     OW 1429   0.502   2.082   0.688  0.2199 -0.1212 -0.2737
  477SOL    HW1 1430   0.533   1.986   0.710  1.0219  1.0353  0.9274
  477SOL    HW2 1431   0.577   2.153   0.672  1.8654  2.5118 -2.8443
  478SOL     OW 1432   0.137   2.522   2.519  0.3915  0.3676 -0.1696
  478SOL    HW1 1433   0.083   2.569   2.597 -2.9162 -1.4377  1.8368
  478SOL    HW2 1434   0.105   2.424   2.515 -1.7711 -0.6478  2.5619
  479SOL     OW 1435   3.087   0.504   1.378 -0.3943 -0.5320 -0.2255
  479SOL    HW1 1436   0.090   0.491   1.336  0.4779 -0.9444  1.8460
  479SOL    HW2 1437   3.087   0.466   1.473  1.8904  0.0296 -0.9320
  480SOL     OW 1438   2.682   2.524   0.056  0.5907 -0.3289 -0.3212
  480SOL    HW1 1439   2.732   2.476   0.136  0.8991 -1.6235  1.3714
  480SOL    HW2 1440   2.608   2.585   0.092  0.0241 -1.1618  0.6153
  481SOL     OW 1441   2.250   1.884   1.827 -0.1228 -0.4158 -0.0722
  481SOL    HW1 1442   2.249   1.928   1.923 -0.4727 -2.2251  0.7194
  481SOL    HW2 1443   2.240   1.961   1.755  0.5457  0.7458 -2.1333
  482SOL     OW 1444   1.867   1.936   2.321  0.3247  0.1802  0.5980
  482SOL    HW1 1445   1.949   1.893   2.282  1.9333  1.1457  1.6339
  482SOL    HW2 1446   1.787   1.923   2.258 -0.9588  1.1744 -4.9131
  483SOL     OW 1447   0.953   1.159   2.012 -0.1684  0.5895 -0.1129
  483SOL    HW1 1448   0.945   1.059   2.045 -0.8721  0.3761  1.4190
  483SOL    HW2 1449   1.029   1.204   2.060 -0.3879 -2.9758 -2.2374
  484SOL     OW 1450   0.258   0.565   1.293  0.0505  0.1155 -0.1109
  484SOL    HW1 1451   0.322   0.511   1.237  1.3120  0.8598  1.9575
  484SOL    HW2 1452   0.253   0.657   1.251 -0.6064 -2.8818  1.4454
  485SOL     OW 1453   2.214   1.080   0.164  0.4670 -0.3228  0.8498
  485SOL    HW1 1454   2.310   1.047   0.183  1.1424  1.5041 -0.7097
  485SOL    HW2 1455   2.159   1.085   0.243  2.7374 -1.0207 -2.3931
  486SOL     OW 1456   1.567   0.365   2.198 -0.2200  0.3775 -0.1378
  486SOL    HW1 1457   1.557   0.264   2.175 -0.5062  0.2836  2.7184
  486SOL    HW2 1458   1.584   0.369   2.299  1.2921 -3.3063 -0.3663
  487SOL     OW 1459   0.881   2.010   1.438  0.6150 -0.3741  0.2467
  487SOL    HW1 1460   0.814   2.075   1.473  0.8803 -0.0129  1.6097
  487SOL    HW2 1461   0.970   2.045   1.463 -2.6959  0.4081  0.5480
  488SOL     OW 1462   2.358   1.421   3.082  0.1113 -0.2818  0.2407
  488SOL    HW1 1463   2.455   1.401   3.044  2.4565  1.1849 -0.6384
  488SOL    HW2 1464   2.322   1.506   3.033  1.8256  0.0424 -2.4902
  489SOL     OW 1465   2.053   2.831   0.556 -0.1604 -0.2909  0.1641
  489SOL    HW1 1466   2.046   2.736   0.520 -1.6546  1.1979  1.1261
  489SOL    HW2 1467   2.128   2.883   0.504  2.4899  0.9629 -1.7828
  490SOL     OW 1468   0.889   2.507   3.039 -0.6696 -0.6648  0.4375
  490SOL    HW1 1469   0.787   2.502   3.037 -1.2744 -0.3986 -2.3427
  490SOL    HW2 1470   0.935   2.525   0.033 -0.5016 -2.4900 -3.5715
  491SOL     OW 1471   1.111   1.201   1.257 -0.1417 -0.0542 -0.3039
  491SOL    HW1 1472   1.159   1.291   1.247 -2.0908  1.4538 -0.8651
  491SOL    HW2 1473   1.055   1.184   1.176  0.5989 -0.0758  1.2295
  492SOL     OW 1474   1.204   0.249   2.325 -0.0511  0.1872  0.1440
  492SOL    HW1 1475   1.236   0.265   2.233 -0.1697  0.1062  3.7067
  492SOL    HW2 1476   1.280   0.247   2.392 -0.1192 -1.4484 -0.5727
  493SOL     OW 1477   2.020   1.989   0.424  0.0266 -0.1226  0.1594
  493SOL    HW1 1478   2.008   2.080   0.378 -1.1446  1.4272 -1.6250
  493SOL    HW2 1479   1.936   1.935   0.409 -0.2799  2.7914 -0.1627
  494SOL     OW 1480   0.733   1.547   0.647 -0.0334  0.0694 -0.6191
  494SOL    HW1 1481   0.715   1.481   0.572  3.0247 -0.8554  2.6395
  494SOL    HW2 1482   0.651   1.540   0.712 -1.1850 -0.3693 -0.5600
  495SOL     OW 1483   2.599   2.357   0.794  0.1911 -0.4097  0.4241
  495SOL    HW1 1484   2.537   2.278   0.781  1.7489  0.7895 -0.9988
  495SOL    HW2 1485   2.573   2.405   0.877  0.6558 -1.5906 -0.2761
  496SOL     OW 1486   2.427   3.051   1.760  0.3179 -0.2948  0.1400
  496SOL    HW1 1487   2.523   3.030   1.767 -0.2104  1.2604  1.6352
  496SOL    HW2 1488   2.407   0.021   1.680 -1.1272 -0.6628 -0.3995
  497SOL     OW 1489   2.452   0.918   2.483  0.1611 -0.4276  0.2254
  497SOL    HW1 1490   2.418   0.938   2.391  1.3263 -3.0839  2.6247
  497SOL    HW2 1491   2.453   1.003   2.541 -0.4479 -3.3552  0.8816
  498SOL     OW 1492   0.570   2.310   1.338 -0.4164 -0.3809  0.9457
  498SOL    HW1 1493   0.477   2.263   1.329 -0.2539  0.3176 -2.0889
  498SOL    HW2 1494   0.600   2.322   1.242 -2.0391  1.6306  0.6029
  499SOL     OW 1495   1.121   2.566   1.692 -0.0154  0.0852 -0.0479
  499SOL    HW1 1496   1.074   2.636   1.746  0.4905 -2.2539 -1.3297
  499SOL    HW2 1497   1.221   2.565   1.691 -2.7849 -1.8848 -3.4600
  500SOL     OW 1498   0.801   1.954   0.058 -0.2222 -0.0980  0.2660
  500SOL    HW1 1499   0.863   1.997   3.086  1.4759 -1.8819 -1.9244
  500SOL    HW2 1500   0.780   1.859   0.036  1.1501  1.4378  2.9663
  501SOL     OW 1501   1.968   0.204   1.125 -0.6164 -0.0868 -0.6517
  501SOL    HW1 1502   1.930   0.128   1.063 -0.0972  2.1629  2.5098
  501SOL    HW2 1503   1.975   0.168   1.222  0.7575  1.2249 -1.5409
  502SOL     OW 1504   2.789   0.411   1.850  0.5081 -0.1700  0.1063
  502SOL    HW1 1505   2.844   0.333   1.815  0.7512 -0.0781  1.3967
  502SOL    HW2 1506   2.812   0.426   1.948  0.0538 -1.6914 -0.1349
  503SOL     OW 1507   2.737   1.183   1.784  0.2302 -0.0286  0.5173
  503SOL    HW1 1508   2.638   1.197   1.809 -0.3982 -0.8757 -0.0348
  503SOL    HW2 1509   2.792   1.109   1.831 -0.5400  0.2481  0.1479
  504SOL     OW 1510   1.561   0.992   1.921  0.1165 -0.8193  0.3209
  504SOL    HW1 1511   1.633   0.945   1.979  1.9254  0.8676  0.2494
  504SOL    HW2 1512   1.464   0.971   1.948  2.5617 -1.1237 -1.6236
  505SOL     OW 1513   0.906   3.034   1.814  0.2486  0.5351 -0.5168
  505SOL    HW1 1514   0.907   2.966   1.890  1.2197 -1.3534 -1.4831
  505SOL    HW2 1515   1.000   3.071   1.806 -0.7145 -1.1657  2.7554
  506SOL     OW 1516   0.133   0.322   0.751 -0.5529 -0.0260 -0.1958
  506SOL    HW1 1517   0.211   0.316   0.685  1.1246  3.6913 -3.5123
  506SOL    HW2 1518   0.155   0.375   0.836  0.4444  2.5701 -0.0323
  507SOL     OW 1519   2.378   0.572   2.990  0.1571  0.6450  0.3215
  507SOL    HW1 1520   2.396   0.546   3.086 -1.2556  1.0697 -1.8361
  507SOL    HW2 1521   2.297   0.526   2.955 -1.9332 -0.7961  1.3998
  508SOL     OW 1522   1.872   0.459   2.086 -0.3366 -0.5547 -0.0833
  508SOL    HW1 1523   1.774   0.477   2.097  1.5237 -0.0526 -0.0185
  508SOL    HW2 1524   1.906   0.510   2.005 -0.9252  0.1341 -2.5954
  509SOL     OW 1525   1.464   1.534   1.607  0.0351  0.2428 -0.2845
  509SOL    HW1 1526   1.546   1.475   1.633  1.1903 -0.5000  2.5910
  509SOL    HW2 1527   1.398   1.477   1.551 -0.8933  0.2556 -1.8546
  510SOL     OW 1528   2.767   1.464   0.749  0.2013  0.3219 -0.5820
  510SOL    HW1 1529   2.766   1.547   0.690 -0.2044  0.5254  0.2278
  510SOL    HW2 1530   2.683   1.460   0.806 -0.8693 -2.4019 -0.6602
  511SOL     OW 1531   1.923   1.821   1.210  0.0556 -0.4924  0.1353
  511SOL    HW1 1532   1.912   1.734   1.262  1.1019 -0.3172 -0.9208
  511SOL    HW2 1533   1.967   1.896   1.263  1.6231 -1.8158 -2.2443
  512SOL     OW 1534   0.195   1.734   0.394  0.0095  0.3387 -0.2496
  512SOL    HW1 1535   0.288   1.696   0.385 -1.7712  2.1924 -2.8414
  512SOL    HW2 1536   0.184   1.818   0.336  0.7193  0.5061  0.0866
  513SOL     OW 1537   3.036   2.231   0.083 -0.1505  0.0831 -0.6089
  513SOL    HW1 1538   3.039   2.151   0.147  0.6323 -1.4752  1.3196
  513SOL    HW2 1539   3.049   2.313   0.133  2.0005 -1.5130 -0.7382
  514SOL     OW 1540   2.657   1.834   2.543 -0.3889  0.5822  0.0540
  514SOL    HW1 1541   2.706   1.915   2.570  2.3592  1.2498 -0.0905
  514SOL    HW2 1542   2.558   1.847   2.525 -0.3350 -1.2739 -0.6397
  515SOL     OW 1543   2.021   1.481   0.685  0.8236  0.1414 -0.2082
  515SOL    HW1 1544   1.922   1.482   0.651 -0.1865  1.2944 -2.9981
  515SOL    HW2 1545   2.036   1.476   0.782 -2.7697  0.2259  1.2140
  516SOL     OW 1546   1.850   2.912   0.233  0.1676  0.6813 -0.0954
  516SOL    HW1 1547   1.822   2.990   0.294  0.3512  1.3605  0.1139
  516SOL    HW2 1548   1.788   2.831   0.244 -1.3171 -0.8907  1.4159
  517SOL     OW 1549   0.766   1.782   2.441 -0.4619  0.1431 -0.4273
  517SOL    HW1 1550   0.803   1.813   2.351  0.7607  1.1523  1.1646
  517SOL    HW2 1551   0.666   1.807   2.443  0.7121 -0.1672  3.0431
  518SOL     OW 1552   0.540   0.476   1.844  0.3301  0.2172 -0.1034
  518SOL    HW1 1553   0.488   0.562   1.866 -0.2575  0.3953  1.1808
  518SOL    HW2 1554   0.565   0.425   1.931  1.9294  0.3709 -0.1025
  519SOL     OW 1555   0.310   1.173   0.211  0.3531  0.0060 -0.3229
  519SOL    HW1 1556   0.326   1.104   0.140 -1.0768 -0.9323 -0.4712
  519SOL    HW2 1557   0.274   1.134   0.300 -0.1070 -0.1102  0.6829
  520SOL     OW 1558   2.805   1.807   1.413 -0.2576  0.5549 -0.3333
  520SOL    HW1 1559   2.745   1.771   1.483  3.2571 -1.9816 -0.3772
  520SOL    HW2 1560   2.800   1.909   1.400 -0.3577 -0.4429  0.2078
  521SOL     OW 1561   0.529   2.578   2.488  0.3817 -0.6028  0.3492
  521SOL    HW1 1562   0.607   2.572   2.420  1.3432  1.1714 -3.5036
  521SOL    HW2 1563   0.448   2.613   2.437  1.9667  0.0860  0.0027
  522SOL     OW 1564   1.947   0.179   2.067 -0.4804  0.2749  0.2383
  522SOL    HW1 1565   2.042   0.187   2.033 -2.4731  0.2912  0.8170
  522SOL    HW2 1566   1.904   0.267   2.092 -0.0453 -1.3631 -0.0566
  523SOL     OW 1567   1.813   1.754   1.795 -0.0079 -0.1292 -0.1366
  523SOL    HW1 1568   1.812   1.846   1.844  3.0978 -2.1698 -1.4725
  523SOL    HW2 1569   1.781   1.683   1.854  1.1133  0.8703 -2.9791
  524SOL     OW 1570   0.560   2.964   0.442  0.9650 -0.3214  0.1074
  524SOL    HW1 1571   0.572   2.980   0.342 -0.9755  1.5978  4.1435
  524SOL    HW2 1572   0.656   2.955   0.477 -2.3821 -0.9913 -4.8478
  525SOL     OW 1573   3.080   0.552   0.424  0.4864  0.1591 -0.0767
  525SOL    HW1 1574   3.066   0.574   0.521 -3.8250  3.8777 -3.8865
  525SOL    HW2 1575   0.081   0.549   0.393 -1.0613  1.3065 -0.5986
  526SOL     OW 1576   0.777   2.596   0.668  0.4520  0.2001 -0.5047
  526SOL    HW1 1577   0.799   2.569   0.766 -0.1102 -0.8682 -0.1959
  526SOL    HW2 1578   0.683   2.625   0.657 -1.4275  0.5128 -1.4164
  527SOL     OW 1579   2.496   1.869   0.823  0.0160  0.1557 -0.1889
  527SOL    HW1 1580   2.419   1.803   0.813  0.5036  0.4614 -0.4663
  527SOL    HW2 1581   2.561   1.836   0.892 -2.7608  1.1178  0.7277
  528SOL     OW 1582   3.033   3.083   2.382  0.1640  0.0669  0.1260
  528SOL    HW1 1583   2.962   0.065   2.393 -1.6880  1.2642 -0.4033
  528SOL    HW2 1584   3.073   3.051   2.471  1.0169 -3.9310  1.4130
  529SOL     OW 1585   1.082   1.583   2.573 -0.0250  0.1419 -0.3820
  529SOL    HW1 1586   1.009   1.539   2.521  0.8504 -0.5903  2.1348
  529SOL    HW2 1587   1.089   1.549   2.670  0.1097  1.7051 -0.7406
  530SOL     OW 1588   1.753   1.131   2.725  0.4122 -0.1640 -0.0372
  530SOL    HW1 1589   1.695   1.080   2.658 -0.3463 -1.0025 -0.0224
  530SOL    HW2 1590   1.794   1.060   2.783 -0.7285 -0.9565  0.0682
  531SOL     OW 1591   0.541   1.570   2.595  0.3088  0.6912 -0.4861
  531SOL    HW1 1592   0.541   1.672   2.590 -2.3080  2.2804 -0.4287
  531SOL    HW2 1593   0.576   1.533   2.507 -1.4493 -0.6450  0.8291
  532SOL     OW 1594   1.611   1.425   0.331  0.4256 -0.3244  0.1645
  532SOL    HW1 1595   1.554   1.414   0.243 -2.5795  0.6567 -1.1885
  532SOL    HW2 1596   1.705   1.451   0.301  2.1532 -2.0239  0.7382
  533SOL     OW 1597   0.522   0.185   2.293  0.5347  0.3692 -0.0067
  533SOL    HW1 1598   0.555   0.224   2.201  0.7236  1.6642  0.4128
  533SOL    HW2 1599   0.584   0.200   2.369 -0.5127  1.0806  1.8878
  534SOL     OW 1600   0.637   2.531   3.036 -0.0923 -0.4172 -0.1270
  534SOL    HW1 1601   0.558   2.465   3.028 -2.4753  0.0723 -0.2257
  534SOL    HW2 1602   0.617   2.605   0.014 -4.3393  2.3274 -1.4777
  535SOL     OW 1603   0.165   0.040   0.668  0.2217  0.5234  0.4637
  535SOL    HW1 1604   0.206   3.062   0.733 -1.2829 -4.1355  0.2717
  535SOL    HW2 1605   0.136   0.124   0.714  0.2041  1.6885  2.5045
  536SOL     OW 1606   0.254   1.202   1.976 -0.2431 -0.3069  0.0361
  536SOL    HW1 1607   0.224   1.228   1.880 -1.4935  0.1109 -1.7210
  536SOL    HW2 1608   0.320   1.121   1.974 -1.2057 -1.5465 -0.2999
  537SOL     OW 1609   1.154   2.923   1.443  0.5632 -0.0142 -0.1332
  537SOL    HW1 1610   1.072   2.982   1.415 -0.6233  1.0181  0.4295
  537SOL    HW2 1611   1.192   2.878   1.362 -3.0831 -2.6095  0.6371
  538SOL     OW 1612   0.009   2.022   0.500 -0.5692 -0.1132  0.5058
  538SOL    HW1 1613   3.092   1.978   0.404  2.1827  0.8489 -2.6944
  538SOL    HW2 1614   3.065   1.963   0.571  0.5934  1.2164  0.1615
  539SOL     OW 1615   2.701   0.879   2.132 -0.6504  0.2389  0.2152
  539SOL    HW1 1616   2.726   0.861   2.230 -4.2531  0.6090  3.5886
  539SOL    HW2 1617   2.629   0.812   2.101 -4.1984 -3.2833  2.1633
  540SOL     OW 1618   1.549   1.099   2.317 -0.1024  0.2001  0.6042
  540SOL    HW1 1619   1.599   1.186   2.331  1.7805  1.0015  1.1777
  540SOL    HW2 1620   1.457   1.111   2.276  2.7626  1.5292  1.9058
  541SOL     OW 1621   0.770   0.762   1.668  0.3284 -0.0460 -0.0230
  541SOL    HW1 1622   0.802   0.673   1.710  0.1711  0.8345  0.6993
  541SOL    HW2 1623   0.680   0.746   1.625  2.3506  1.3986 -2.2476
  542SOL     OW 1624   2.100   3.080   2.667  0.4891 -0.1297  0.5351
  542SOL    HW1 1625   2.029   3.018   2.696  2.7060  2.7389 -1.3191
  542SOL    HW2 1626   2.116   3.079   2.564  3.8427  0.1818 -2.1246
  543SOL     OW 1627   0.826   0.059   0.164  0.3711 -0.3036  0.1452
  543SOL    HW1 1628   0.847   0.134   0.227 -0.9924 -1.0825 -0.1819
  543SOL    HW2 1629   0.886   0.053   0.086 -0.0767  0.0341  2.0803
  544SOL     OW 1630   2.706   1.640   1.649  0.0261 -0.3244 -0.5328
  544SOL    HW1 1631   2.773   1.568   1.677 -0.8826 -1.3878  2.1842
  544SOL    HW2 1632   2.659   1.688   1.732 -0.0840  1.0002  1.0689
  545SOL     OW 1633   2.020   2.190   1.714 -0.0802 -0.1379  0.3648
  545SOL    HW1 1634   2.111   2.148   1.707  0.8948  1.4924 -1.1577
  545SOL    HW2 1635   1.953   2.142   1.661  0.2849  1.3425  0.0410
  546SOL     OW 1636   0.167   0.046   2.911  0.0169  0.1663  0.5635
  546SOL    HW1 1637   0.262   0.068   2.887 -1.3730  0.0761  0.2438
  546SOL    HW2 1638   0.102   0.105   2.855 -1.8386  3.7163 -1.4301
  547SOL     OW 1639   1.674   0.886   0.543 -0.0365  0.0749 -0.3943
  547SOL    HW1 1640   1.732   0.965   0.526 -1.6643 -2.3430  1.3264
  547SOL    HW2 1641   1.608   0.904   0.625 -2.5029 -0.1133  1.8895
  548SOL     OW 1642   2.056   1.572   2.293 -0.4044  0.4474  0.2905
  548SOL    HW1 1643   2.033   1.476   2.275 -0.6620  3.4993 -1.4713
  548SOL    HW2 1644   2.149   1.589   2.333  0.0073 -0.2859 -1.6729
  549SOL     OW 1645   1.913   0.305   0.335 -0.0613 -0.0951  0.3244
  549SOL    HW1 1646   1.935   0.332   0.434 -0.3563  0.0010  1.2996
  549SOL    HW2 1647   1.990   0.326   0.274  1.1347  0.9416 -0.1696
  550SOL     OW 1648   2.038   1.958   0.859  0.0891 -0.1301  0.1677
  550SOL    HW1 1649   1.951   1.932   0.903 -0.6387 -1.0485  0.5058
  550SOL    HW2 1650   2.049   1.918   0.763  1.7886 -0.7990 -0.2569
  551SOL     OW 1651   0.759   2.917   1.631 -0.5164  0.6090 -0.0139
  551SOL    HW1 1652   0.802   2.903   1.534  0.6360  0.3323 -1.6480
  551SOL    HW2 1653   0.818   2.975   1.700 -1.1957  0.1598 -1.6214
  552SOL     OW 1654   2.792   2.091   2.578 -0.1595  0.4208  0.2323
  552SOL    HW1 1655   2.807   2.079   2.678  0.4984  2.5458  1.1970
  552SOL    HW2 1656   2.883   2.099   2.531  2.0479 -2.0832 -1.0591
  553SOL     OW 1657   0.359   0.030   1.129 -0.3032  0.9558  0.3021
  553SOL    HW1 1658   0.403   3.075   1.213 -0.7597  2.0962  2.4564
  553SOL    HW2 1659   0.291   3.053   1.089 -0.7638 -1.8617 -1.2251
  554SOL     OW 1660   2.270   2.114   1.669  0.5006  0.1805 -0.2846
  554SOL    HW1 1661   2.295   2.115   1.571  0.0580 -0.2496  2.8746
  554SOL    HW2 1662   2.339   2.171   1.721 -1.8158 -0.5054 -0.3896
  555SOL     OW 1663   1.230   2.258   1.930 -0.2260  0.4969  0.5899
  555SOL    HW1 1664   1.245   2.183   1.869  2.0575  1.5112  1.1645
  555SOL    HW2 1665   1.144   2.309   1.909  1.0084 -1.6388  2.8786
  556SOL     OW 1666   1.127   1.789   1.820 -0.9260 -0.3915  0.0356
  556SOL    HW1 1667   1.045   1.846   1.810 -1.2997 -3.0479  0.9500
  556SOL    HW2 1668   1.214   1.839   1.805  0.9006 -0.0976 -0.1703
  557SOL     OW 1669   1.961   2.177   2.098 -0.3232  0.3403 -0.2527
  557SOL    HW1 1670   2.046   2.144   2.047  0.3665 -0.4863 -0.7391
  557SOL    HW2 1671   1.958   2.145   2.196 -2.1738 -1.1904  1.4621
  558SOL     OW 1672   0.443   2.568   1.959 -0.2228  0.5045  0.3552
  558SOL    HW1 1673   0.423   2.599   1.864  1.6670 -0.5841  1.4925
  558SOL    HW2 1674   0.538   2.590   1.996 -2.1252 -1.1494  1.1819
  559SOL     OW 1675   2.151   2.919   1.055  0.1043  0.0156  0.0348
  559SOL    HW1 1676   2.172   2.946   1.151 -2.6478 -1.5464 -1.1192
  559SOL    HW2 1677   2.102   2.831   1.057 -1.5619  0.3740 -1.6951
  560SOL     OW 1678   1.669   2.482   0.232 -0.4283 -0.4419 -0.0170
  560SOL    HW1 1679   1.659   2.392   0.279  1.2529  1.1656 -0.1586
  560SOL    HW2 1680   1.766   2.509   0.235  1.9336 -1.6550 -0.8579
  561SOL     OW 1681   1.011   0.361   0.167  0.0546  0.3867 -0.2746
  561SOL    HW1 1682   1.065   0.279   0.122  1.9954 -0.2322 -2.6508
  561SOL    HW2 1683   0.977   0.435   0.102  0.8886  0.7146 -1.8852
  562SOL     OW 1684   0.708   0.244   2.486 -0.3769 -0.2280 -0.3275
  562SOL    HW1 1685   0.703   0.230   2.584  0.2250  1.3421 -0.9605
  562SOL    HW2 1686   0.774   0.316   2.456 -1.6904 -2.6876 -1.6335
  563SOL     OW 1687   1.488   1.903   2.931 -0.3348  0.0511  0.0753
  563SOL    HW1 1688   1.501   2.002   2.911 -0.8591  0.5003 -0.9840
  563SOL    HW2 1689   1.513   1.850   2.847 -1.5536  1.4752 -2.1940
  564SOL     OW 1690   2.416   1.114   1.188  0.4586  0.0749  0.0621
  564SOL    HW1 1691   2.500   1.100   1.250  0.4107  0.5616  2.5022
  564SOL    HW2 1692   2.425   1.077   1.095  2.8174 -0.2231 -0.1178
  565SOL     OW 1693   1.067   0.000   2.939  0.2090 -0.1724 -0.5222
  565SOL    HW1 1694   1.001   3.017   2.936  0.9606  1.4139  1.6843
  565SOL    HW2 1695   1.068   0.048   2.848  0.3384  1.2502  0.4986
  566SOL     OW 1696   1.682   0.112   2.482 -0.6495 -0.3791 -0.0476
  566SOL    HW1 1697   1.737   0.066   2.415 -2.9375  1.3041  1.0257
  566SOL    HW2 1698   1.617   0.047   2.527  0.8932 -0.9847  3.1241
  567SOL     OW 1699   2.188   1.605   0.505  0.2301  0.8248  0.0724
  567SOL    HW1 1700   2.113   1.542   0.541 -0.1579 -0.3926 -1.4764
  567SOL    HW2 1701   2.274   1.555   0.477 -0.4776  0.7629  1.8458
  568SOL     OW 1702   1.877   1.977   3.000  0.1213  0.1181 -0.2068
  568SOL    HW1 1703   1.905   1.896   3.054 -1.3869  0.3815  0.1137
  568SOL    HW2 1704   1.932   1.980   2.913  0.2138  1.1874  1.6966
  569SOL     OW 1705   2.132   1.138   2.990 -0.0471 -0.0174  0.3743
  569SOL    HW1 1706   2.041   1.101   2.969 -2.0506 -1.4567 -0.7720
  569SOL    HW2 1707   2.147   1.115   3.090  1.3814 -1.2962  1.0937
  570SOL     OW 1708   0.030   2.534   1.640 -0.0937  0.2322  0.1117
  570SOL    HW1 1709   0.045   2.612   1.571  3.4645  1.2599 -1.2194
  570SOL    HW2 1710   0.117   2.481   1.641  0.3898 -0.8041  1.0161
  571SOL     OW 1711   0.572   1.074   1.763 -0.3523 -0.4436  0.3579
  571SOL    HW1 1712   0.629   1.020   1.828 -2.4686 -1.9872 -0.3680
  571SOL    HW2 1713   0.588   1.175   1.769 -1.3826 -0.5707 -1.0112
  572SOL     OW 1714   0.989   1.584   0.743  0.0072  0.8669  0.1163
  572SOL    HW1 1715   0.911   1.546   0.692 -2.1229  1.1340  0.0534
  572SOL    HW2 1716   1.023   1.672   0.701  1.4066 -2.8318 -1.3962
  573SOL     OW 1717   1.205   1.926   2.893  0.1689 -0.0402 -0.0076
  573SOL    HW1 1718   1.171   1.984   2.968  0.9630 -1.3970 -0.9556
  573SOL    HW2 1719   1.305   1.920   2.903 -0.2598  1.9250 -0.5813
  574SOL     OW 1720   0.944   0.025   0.849 -0.4070 -0.1435 -0.3489
  574SOL    HW1 1721   0.847   0.005   0.829  0.6094  4.0115  0.7303
  574SOL    HW2 1722   0.944   0.096   0.921 -2.3031 -0.1013  1.1282
  575SOL     OW 1723   0.588   1.020   1.484 -0.1722  0.2869 -1.1988
  575SOL    HW1 1724   0.509   0.969   1.449 -0.5093 -0.4430  0.0684
  575SOL    HW2 1725   0.601   1.025   1.588  0.4056  1.4991  1.2118
  576SOL     OW 1726   1.929   3.076   1.591  0.2094  0.8969 -0.1838
  576SOL    HW1 1727   1.992   0.025   1.659 -0.8097 -1.2282  1.8933
  576SOL    HW2 1728   1.949   2.979   1.580  1.9230  1.3173  1.5812
  577SOL     OW 1729   0.975   0.868   2.050  0.0354  0.2757 -0.0599
  577SOL    HW1 1730   1.022   0.839   1.963  0.4001 -0.7128 -1.8467
  577SOL    HW2 1731   0.966   0.795   2.120  2.5102 -2.4280  0.1640
  578SOL     OW 1732   2.155   0.619   2.718  0.4006  0.3695 -0.2715
  578SOL    HW1 1733   2.110   0.533   2.689 -0.8949  2.0983  0.2166
  578SOL    HW2 1734   2.196   0.675   2.640 -0.0487 -0.6783 -0.8931
  579SOL     OW 1735   2.135   2.574   1.720 -0.2745 -0.3473  0.2397
  579SOL    HW1 1736   2.175   2.504   1.784  1.0002  1.0302  3.3318
  579SOL    HW2 1737   2.069   2.529   1.656 -0.8130 -0.7768  1.2265
  580SOL     OW 1738   2.210   1.264   2.715  0.5040 -0.1024  0.5851
  580SOL    HW1 1739   2.121   1.283   2.670  0.1660 -0.6165 -1.6828
  580SOL    HW2 1740   2.190   1.280   2.817  2.3194  1.1244  0.2649
  581SOL     OW 1741   1.363   1.077   2.777 -0.3550  0.5474 -0.0131
  581SOL    HW1 1742   1.403   1.149   2.831  0.8909  1.0054 -0.3041
  581SOL    HW2 1743   1.260   1.081   2.765 -1.9851  0.7912 -0.6320
  582SOL     OW 1744   1.079   1.528   1.844  0.1308 -0.5874 -0.4176
  582SOL    HW1 1745   1.143   1.458   1.801  0.4826 -1.2001  1.5741
  582SOL    HW2 1746   1.111   1.624   1.845 -0.4352 -1.5033  0.8713
  583SOL     OW 1747   1.937   1.360   1.341 -0.0044 -0.2102  0.6090
  583SOL    HW1 1748   1.887   1.283   1.383 -0.9416 -1.3716 -3.3477
  583SOL    HW2 1749   1.882   1.449   1.340 -0.0239  2.0005 -0.2296
  584SOL     OW 1750   1.637   2.607   0.639  0.4943 -0.3834  0.0381
  584SOL    HW1 1751   1.560   2.541   0.614 -0.7765 -1.2106 -2.7687
  584SOL    HW2 1752   1.724   2.558   0.662  1.0871  1.3434 -0.2011
  585SOL     OW 1753   1.988   2.834   2.768  0.2784 -0.1670  0.0951
  585SOL    HW1 1754   1.900   2.806   2.726  1.6329 -0.9726  0.9951
  585SOL    HW2 1755   2.025   2.757   2.815 -1.9431  4.7342  0.4510
  586SOL     OW 1756   2.750   2.463   1.143 -0.4658  0.0849  0.4072
  586SOL    HW1 1757   2.654   2.444   1.124 -2.0170  2.5109  1.6127
  586SOL    HW2 1758   2.801   2.377   1.116  0.4214 -0.2090 -2.4641
  587SOL     OW 1759   1.185   1.701   0.122 -0.9436 -0.6864  0.3451
  587SOL    HW1 1760   1.116   1.712   0.049  0.9623  0.3489  1.3317
  587SOL    HW2 1761   1.271   1.675   0.076 -0.2380  1.1438 -0.2665
  588SOL     OW 1762   0.477   0.252   1.014  0.0955 -0.4425  0.4065
  588SOL    HW1 1763   0.543   0.233   0.937 -0.1185  1.3650 -0.5740
  588SOL    HW2 1764   0.437   0.161   1.051 -1.3035 -1.2379 -0.2439
  589SOL     OW 1765   0.859   0.252   0.391  0.2133 -0.1497  0.5989
  589SOL    HW1 1766   0.861   0.288   0.488  0.0012 -2.3318 -0.2837
  589SOL    HW2 1767   0.910   0.318   0.326 -0.1963  0.9091 -2.1276
  590SOL     OW 1768   1.539   0.182   2.787  0.3013  0.1896  0.7868
  590SOL    HW1 1769   1.626   0.231   2.803 -2.4596 -0.6919 -0.7130
  590SOL    HW2 1770   1.549   0.080   2.778 -1.6538 -0.0169 -0.1195
  591SOL     OW 1771   0.003   2.293   2.273  0.0184  0.0138  0.0482
  591SOL    HW1 1772   0.016   2.229   2.191  0.1457 -3.8056 -2.3118
  591SOL    HW2 1773   3.071   2.384   2.232 -0.1441 -0.5745 -1.2014
  592SOL     OW 1774   2.570   1.488   1.922 -0.4526  0.1865 -0.2411
  592SOL    HW1 1775   2.662   1.475   1.881 -1.3965  0.9505 -0.0338
  592SOL    HW2 1776   2.578   1.501   2.022  1.3416 -1.5299  0.0590
  593SOL     OW 1777   1.685   1.346   1.655  0.1349  0.0360  1.4354
  593SOL    HW1 1778   1.700   1.272   1.583  2.0423 -3.9806 -1.7151
  593SOL    HW2 1779   1.689   1.306   1.752 -2.2644  0.9784  0.6002
  594SOL     OW 1780   2.737   1.202   0.148  0.4623 -0.7715 -0.1909
  594SOL    HW1 1781   2.841   1.211   0.152  0.7654  0.0515  2.9454
  594SOL    HW2 1782   2.711   1.122   0.090  2.4666 -0.5728  0.8589
  595SOL     OW 1783   0.526   0.719   0.371  0.3500 -0.5081 -0.1911
  595SOL    HW1 1784   0.489   0.683   0.458  2.0390 -0.7397 -0.5732
  595SOL    HW2 1785   0.572   0.808   0.387  0.5352  0.5173  0.6790
  596SOL     OW 1786   0.477   1.193   1.316 -0.2241  0.2395 -0.0402
  596SOL    HW1 1787   0.419   1.268   1.352 -2.1908  4.6535 -2.1791
  596SOL    HW2 1788   0.517   1.135   1.392  2.3547  2.6549 -3.2661
  597SOL     OW 1789   1.084   1.907   0.900  0.0543  0.2554  0.0072
  597SOL    HW1 1790   1.130   1.827   0.945 -0.6592 -0.7925  1.3406
  597SOL    HW2 1791   1.154   1.972   0.862 -1.1237  2.3231  0.2414
  598SOL     OW 1792   2.983   0.233   1.826 -0.2136  0.1235  0.5977
  598SOL    HW1 1793   2.998   0.236   1.926  1.6123  3.3857 -3.2052
  598SOL    HW2 1794   2.978   0.140   1.795 -1.7255  0.8780  0.9439
  599SOL     OW 1795   0.294   1.423   2.663 -0.5088 -0.5796  0.3562
  599SOL    HW1 1796   0.321   1.354   2.597  1.8117  1.2246  1.0716
  599SOL    HW2 1797   0.363   1.502   2.657  2.8666  1.3295 -1.1326
  600SOL     OW 1798   0.596   0.822   2.701  1.0505  0.0352 -0.1252
  600SOL    HW1 1799   0.612   0.922   2.701  2.3588 -0.1721 -2.5353
  600SOL    HW2 1800   0.682   0.768   2.698 -0.4961  1.8403 -1.1093
  601SOL     OW 1801   0.830   0.992   1.313 -0.0255  0.0319  0.8163
  601SOL    HW1 1802   0.845   0.898   1.287 -1.4576  4.1357 -0.4703
  601SOL    HW2 1803   0.735   1.001   1.342  0.6678 -2.5991 -1.9093
  602SOL     OW 1804   0.560   0.128   0.037 -0.3664  0.2655  0.1580
  602SOL    HW1 1805   0.616   0.146   0.116  0.5286  0.9120 -1.3092
  602SOL    HW2 1806   0.484   0.194   0.033 -3.1576  1.0361 -1.4196
  603SOL     OW 1807   1.404   2.745   2.415  0.2588  0.2993 -0.2436
  603SOL    HW1 1808   1.365   2.725   2.508 -1.7907 -0.1859  3.1097
  603SOL    HW2 1809   1.432   2.842   2.426  0.1470 -0.5382  0.2309
  604SOL     OW 1810   0.266   2.675   2.920 -0.0811 -0.3985  0.2452
  604SOL    HW1 1811   0.237   2.593   2.871 -1.2755  1.4031  0.9819
  604SOL    HW2 1812   0.360   2.699   2.891 -0.5226  0.8312 -0.0016
  605SOL     OW 1813   2.426   1.267   1.497 -0.4746 -0.1072  0.0738
  605SOL    HW1 1814   2.443   1.368   1.492  1.9838 -0.0907  1.6888
  605SOL    HW2 1815   2.355   1.239   1.563 -0.2316 -1.2615  2.7234
  606SOL     OW 1816   0.893   1.148   2.844 -0.4270 -0.1221  0.2815
  606SOL    HW1 1817   0.881   1.249   2.871  1.7882 -0.7514  0.8313
  606SOL    HW2 1818   0.840   1.140   2.759 -3.4637  2.5369  1.0772
  607SOL     OW 1819   0.859   0.337   0.654  0.4064 -0.6560 -0.2306
  607SOL    HW1 1820   0.798   0.419   0.644 -0.4844 -1.1100 -0.5854
  607SOL    HW2 1821   0.924   0.359   0.732  1.1589  1.2596  2.1864
  608SOL     OW 1822   2.885   1.571   1.295 -0.3543  0.6297 -0.1924
  608SOL    HW1 1823   2.855   1.655   1.342  0.5220 -0.7468 -1.2506
  608SOL    HW2 1824   2.807   1.511   1.277  1.7107  1.7094 -0.4405
  609SOL     OW 1825   2.335   0.472   0.662 -0.5900  0.1225 -0.7389
  609SOL    HW1 1826   2.249   0.494   0.704  3.6953  0.5977 -1.8905
  609SOL    HW2 1827   2.391   0.562   0.655 -0.7348  0.8997 -1.2831
  610SOL     OW 1828   0.212   2.599   1.371  0.4126  0.1617 -0.2968
  610SOL    HW1 1829   0.179   2.687   1.415  0.6548  2.6260  2.0850
  610SOL    HW2 1830   0.195   2.596   1.269 -2.1854 -0.6652 -1.7586
  611SOL     OW 1831   1.691   1.869   0.140 -0.7423 -0.0491 -0.0970
  611SOL    HW1 1832   1.680   1.946   0.076 -1.1000 -2.9461  2.9314
  611SOL    HW2 1833   1.779   1.819   0.122  0.4093 -1.2996 -1.0837
  612SOL     OW 1834   0.552   0.064   1.884  0.1188 -0.0962 -0.2393
  612SOL    HW1 1835   0.544   3.067   1.937 -0.4230 -0.8876  0.2311
  612SOL    HW2 1836   0.464   0.113   1.867  0.3733  0.6696  0.5104
  613SOL     OW 1837   0.641   2.306   0.629  0.0332 -0.1004  0.5994
  613SOL    HW1 1838   0.573   2.372   0.667  0.6349  0.0256 -0.0284
  613SOL    HW2 1839   0.653   2.319   0.528 -2.2833 -1.4906 -4.5471
  614SOL     OW 1840   2.193   0.256   2.003 -0.4658 -0.2302 -0.3182
  614SOL    HW1 1841   2.201   0.323   2.084 -0.2352  0.5709  2.7504
  614SOL    HW2 1842   2.267   0.187   2.007 -0.4780  0.9100 -2.0996
  615SOL     OW 1843   1.498   1.655   0.445 -0.4374  0.0401  0.0241
  615SOL    HW1 1844   1.532   1.587   0.377 -1.7915  1.9716  2.9346
  615SOL    HW2 1845   1.409   1.696   0.406 -2.9424  1.7593 -1.1558
  616SOL     OW 1846   1.771   1.571   0.572 -0.2509 -0.1730 -0.2114
  616SOL    HW1 1847   1.706   1.515   0.520  3.4576  0.2376  0.3419
  616SOL    HW2 1848   1.813   1.647   0.516 -1.6277  1.7828 -1.3314
  617SOL     OW 1849   1.428   0.615   0.141  0.7915 -0.1286 -0.5411
  617SOL    HW1 1850   1.512   0.598   0.084 -0.7702 -1.2093 -0.7199
  617SOL    HW2 1851   1.448   0.657   0.231 -0.9698  2.3901  0.3137
  618SOL     OW 1852   0.791   0.484   1.818  0.0761 -0.4200  0.8754
  618SOL    HW1 1853   0.689   0.478   1.806 -1.9990  0.5214 -1.7543
  618SOL    HW2 1854   0.839   0.397   1.820  2.2818  1.2388  1.6051
  619SOL     OW 1855   0.301   1.385   1.400 -0.7184 -0.1900  0.0241
  619SOL    HW1 1856   0.224   1.447   1.386 -0.8498  0.6568 -2.9669
  619SOL    HW2 1857   0.333   1.391   1.496 -1.8630 -3.2516  0.3061
  620SOL     OW 1858   2.424   2.977   2.617  0.8844  0.5024  0.3184
  620SOL    HW1 1859   2.417   3.061   2.560 -0.0955 -1.6554  0.5053
  620SOL    HW2 1860   2.372   2.994   2.706 -0.7762 -0.8594  2.6628
  621SOL     OW 1861   2.462   1.688   2.748  0.9194 -0.0908 -0.1067
  621SOL    HW1 1862   2.490   1.593   2.717  1.4442 -1.3877  0.2175
  621SOL    HW2 1863   2.365   1.704   2.725 -0.4367 -1.0238 -0.5521
  622SOL     OW 1864   1.265   0.553   3.042  0.0277 -0.3351  0.4339
  622SOL    HW1 1865   1.307   0.472   3.000  0.6049  1.5438 -0.1186
  622SOL    HW2 1866   1.328   0.591   0.020  0.5964 -0.4029 -1.4143
  623SOL     OW 1867   0.879   1.449   1.653 -0.1123 -0.6562 -0.0121
  623SOL    HW1 1868   0.881   1.351   1.681 -0.1287 -1.7835 -0.7603
  623SOL    HW2 1869   0.963   1.494   1.691 -3.4822 -0.6793 -1.3430
  624SOL     OW 1870   2.831   0.083   0.431 -0.2987  0.2493  0.0581
  624SOL    HW1 1871   2.870   0.085   0.336 -1.1154 -0.5889  1.0569
  624SOL    HW2 1872   2.879   0.147   0.496 -1.4133  0.3134 -0.8092
  625SOL     OW 1873   0.847   2.230   0.796  0.4072 -0.0132  0.0106
  625SOL    HW1 1874   0.804   2.286   0.724 -0.8530  3.0033  0.5231
  625SOL    HW2 1875   0.945   2.260   0.812  2.4215 -1.3696 -2.1560
  626SOL     OW 1876   2.778   0.818   2.369  0.1185  0.2787 -0.2587
  626SOL    HW1 1877   2.868   0.768   2.357 -0.7117 -3.2558  0.8449
  626SOL    HW2 1878   2.720   0.773   2.440 -0.4755  1.2101 -0.9574
  627SOL     OW 1879   0.858   1.934   2.656 -0.5243 -0.3634 -0.4546
  627SOL    HW1 1880   0.812   1.864   2.595  2.4521  0.8420 -0.9564
  627SOL    HW2 1881   0.919   1.992   2.600  0.8346 -2.4966 -3.4943
  628SOL     OW 1882   2.802   2.639   2.669  0.0626  0.0505 -0.1071
  628SOL    HW1 1883   2.766   2.584   2.589 -1.4027 -0.8401 -0.1003
  628SOL    HW2 1884   2.786   2.735   2.641  2.3151 -2.7218 -1.4765
  629SOL     OW 1885   1.010   2.942   2.583 -0.0778  0.1436  0.1982
  629SOL    HW1 1886   0.951   2.862   2.554 -2.3756 -1.6643 -1.2970
  629SOL    HW2 1887   0.977   3.029   2.536 -0.3583 -0.2551 -0.5931
  630SOL     OW 1888   0.881   0.254   2.154 -0.4977  0.3741  0.2932
  630SOL    HW1 1889   0.910   0.307   2.232  1.2116 -1.1322 -0.8820
  630SOL    HW2 1890   0.909   0.155   2.156 -1.9243 -2.6288 -0.9357
  631SOL     OW 1891   1.943   1.131   0.757 -0.6281  0.2589 -0.1195
  631SOL    HW1 1892   2.003   1.049   0.767  2.5810 -2.4339  1.9074
  631SOL    HW2 1893   1.884   1.123   0.670 -1.1364  0.4397 -1.9216
  632SOL     OW 1894   2.702   3.071   1.774  0.9417  0.0113  0.9627
  632SOL    HW1 1895   2.711   3.032   1.866 -1.3655 -0.3685 -2.1218
  632SOL    HW2 1896   2.790   3.081   1.725  0.4690  0.5598 -0.8788
  633SOL     OW 1897   1.218   1.271   0.334 -0.2815  0.4240  0.3587
  633SOL    HW1 1898   1.192   1.267   0.240  1.2334  0.3168  2.8162
  633SOL    HW2 1899   1.140   1.307   0.389 -0.3963  2.1523  2.3379
  634SOL     OW 1900   2.572   2.710   2.124  0.4317  0.0477  0.0532
  634SOL    HW1 1901   2.569   2.633   2.061 -1.1062  2.9792 -0.3035
  634SOL    HW2 1902   2.633   2.682   2.196 -1.7068  0.4027 -3.1711
  635SOL     OW 1903   1.496   0.260   0.601  0.2913  0.0663 -0.0380
  635SOL    HW1 1904   1.458   0.184   0.545 -0.0295  0.2069  1.3291
  635SOL    HW2 1905   1.579   0.232   0.648  0.7735 -0.9284 -1.4446
  636SOL     OW 1906   0.666   1.353   0.469 -0.3747 -0.2862 -0.2739
  636SOL    HW1 1907   0.620   1.337   0.382  1.9280 -1.2066  2.8158
  636SOL    HW2 1908   0.638   1.275   0.529  1.2011  1.3868 -2.4661
  637SOL     OW 1909   2.553   1.908   0.087  0.5208  0.1910 -0.8308
  637SOL    HW1 1910   2.600   1.822   0.077 -1.6915  1.4867 -0.3614
  637SOL    HW2 1911   2.542   1.932   0.186  2.3698 -0.0419 -2.1600
  638SOL     OW 1912   1.378   2.423   2.305 -0.0934 -0.4204 -0.0376
  638SOL    HW1 1913   1.419   2.442   2.212  1.3287  1.4326  0.8981
  638SOL    HW2 1914   1.460   2.415   2.367  0.7007 -0.0044 -3.1592
  639SOL     OW 1915   1.356   1.841   0.708  0.3890  0.1598  0.0017
  639SOL    HW1 1916   1.315   1.932   0.731  0.3654 -1.3894 -2.5892
  639SOL    HW2 1917   1.321   1.809   0.624 -1.0459  1.1650  2.4870
  640SOL     OW 1918   2.306   2.905   0.418  0.4006 -0.0501  0.4136
  640SOL    HW1 1919   2.391   2.849   0.427  1.3701  2.0652  0.1052
  640SOL    HW2 1920   2.262   2.886   0.327 -3.4011 -1.0282 -2.2568
  641SOL     OW 1921   2.775   0.517   0.058  0.0305 -0.8335 -0.0884
  641SOL    HW1 1922   2.790   0.521   0.158  0.9778  0.9815  1.4782
  641SOL    HW2 1923   2.801   0.428   0.030  0.0914  1.7876  0.8772
  642SOL     OW 1924   0.315   0.660   1.012  0.0704  0.4607 -0.5139
  642SOL    HW1 1925   0.251   0.738   1.029  0.9560 -0.0161 -0.3110
  642SOL    HW2 1926   0.266   0.570   1.016 -0.4973 -1.7759  0.3780
  643SOL     OW 1927   0.730   1.310   2.371  0.1928 -0.2301  0.2366
  643SOL    HW1 1928   0.781   1.341   2.292 -0.3690 -1.1255  2.3320
  643SOL    HW2 1929   0.633   1.311   2.340 -0.6898 -2.1887  0.2372
  644SOL     OW 1930   1.709   2.111   0.596  0.2451 -0.0876 -0.7611
  644SOL    HW1 1931   1.709   2.010   0.603  0.5126 -1.6353  1.3879
  644SOL    HW2 1932   1.798   2.150   0.594 -0.0023 -0.2800 -0.9956
  645SOL     OW 1933   1.632   2.238   0.349 -0.2812  0.0060 -0.1110
  645SOL    HW1 1934   1.571   2.201   0.278  0.2174  0.2497  2.0116
  645SOL    HW2 1935   1.622   2.186   0.437  0.0795  0.6401  1.5613
  646SOL     OW 1936   0.140   2.073   2.870  0.1077 -0.1591 -0.4196
  646SOL    HW1 1937   0.190   2.025   2.794 -1.3672 -0.4908  0.2392
  646SOL    HW2 1938   0.054   2.094   2.833  3.9098 -2.4171 -1.0603
  647SOL     OW 1939   1.191   0.079   1.095  0.2369  0.2151 -0.1130
  647SOL    HW1 1940   1.265   0.096   1.159  0.1793 -2.5033 -2.6250
  647SOL    HW2 1941   1.179   0.150   1.020  1.4135  3.8855  0.4523
  648SOL     OW 1942   1.400   0.201   0.857 -0.1754 -0.2627 -0.6986
  648SOL    HW1 1943   1.363   0.109   0.837 -2.4811 -0.4131 -1.8400
  648SOL    HW2 1944   1.446   0.242   0.776 -0.2102  1.1205 -0.3791
  649SOL     OW 1945   1.277   1.779   0.356  0.1095  0.5086 -0.0035
  649SOL    HW1 1946   1.253   1.749   0.261  2.5788 -1.3162 -1.8161
  649SOL    HW2 1947   1.194   1.783   0.418 -1.1564  0.8795 -0.2909
  650SOL     OW 1948   2.350   1.576   1.811  0.5022  0.0475  0.3977
  650SOL    HW1 1949   2.438   1.552   1.858  0.0712 -2.0034  0.5619
  650SOL    HW2 1950   2.284   1.622   1.880 -1.0756  0.8363  1.0819
  651SOL     OW 1951   1.524   2.173   2.873 -0.1410 -0.2585 -0.0225
  651SOL    HW1 1952   1.440   2.227   2.850  0.9170 -1.5958 -0.1450
  651SOL    HW2 1953   1.596   2.190   2.800  0.2635 -0.9511 -3.3088
  652SOL     OW 1954   2.418   1.635   0.222 -0.4100  0.0146 -0.4072
  652SOL    HW1 1955   2.507   1.636   0.177  0.4445 -0.9445  0.3594
  652SOL    HW2 1956   2.392   1.544   0.258  0.1627 -1.2103 -0.0582
  653SOL     OW 1957   0.235   0.399   1.008  0.6453 -0.2122  0.4369
  653SOL    HW1 1958   0.318   0.345   1.014 -0.2730  2.5051 -0.7190
  653SOL    HW2 1959   0.147   0.354   1.042  1.1676  0.7458 -0.0978
  654SOL     OW 1960   2.993   0.242   2.116 -0.1642 -0.3417  0.1907
  654SOL    HW1 1961   2.933   0.228   2.200  0.5408  0.6624 -2.0194
  654SOL    HW2 1962   3.091   0.228   2.144  0.3069 -1.7603 -2.2042
  655SOL     OW 1963   0.444   2.438   0.770  0.4174 -0.2240  0.5315
  655SOL    HW1 1964   0.463   2.522   0.713 -0.2457  0.4866 -3.3819
  655SOL    HW2 1965   0.342   2.422   0.758 -2.1900 -1.3624 -2.3669
  656SOL     OW 1966   3.051   2.948   2.646 -0.0958 -0.0405 -0.0276
  656SOL    HW1 1967   3.061   2.843   2.660  3.4262 -1.8634 -1.0664
  656SOL    HW2 1968   2.979   2.979   2.706 -0.1033 -1.0810 -0.2490
  657SOL     OW 1969   0.213   1.340   2.903 -0.2557 -0.4366  0.0677
  657SOL    HW1 1970   0.161   1.417   2.940 -0.2933  0.9321  0.3971
  657SOL    HW2 1971   0.255   1.371   2.811  0.3084  2.8310 -0.8919
  658SOL     OW 1972   2.659   1.772   1.021 -0.2344  0.8821  1.1867
  658SOL    HW1 1973   2.697   1.792   1.111 -0.6896 -1.0553  0.9867
  658SOL    HW2 1974   2.647   1.676   1.015 -0.2839  0.4152  1.4344
  659SOL     OW 1975   1.624   2.754   0.195  0.1236  0.1033  0.3488
  659SOL    HW1 1976   1.607   2.653   0.212 -1.7094 -0.3240 -4.6649
  659SOL    HW2 1977   1.680   2.763   0.106  2.0195  2.0228  0.5659
  660SOL     OW 1978   1.523   0.885   2.899  0.9254  0.0383  0.1030
  660SOL    HW1 1979   1.523   0.809   2.832  1.4138 -0.0554  1.5943
  660SOL    HW2 1980   1.455   0.955   2.870  1.5778 -0.9089 -0.6261
  661SOL     OW 1981   0.332   2.192   1.303 -0.6830 -0.5248  0.2940
  661SOL    HW1 1982   0.320   2.126   1.228 -0.5409  1.2755  2.8095
  661SOL    HW2 1983   0.249   2.254   1.317  1.5073  2.2022 -0.4131
  662SOL     OW 1984   0.128   0.450   0.080  0.1989 -0.3090  0.4967
  662SOL    HW1 1985   0.054   0.522   0.064  1.3224 -0.5122 -0.5503
  662SOL    HW2 1986   0.151   0.438   0.177  1.3731 -1.0578 -2.9291
  663SOL     OW 1987   2.249   1.808   1.217 -0.2286  0.1100  0.3081
  663SOL    HW1 1988   2.170   1.864   1.249  2.9163 -0.5412 -1.9378
  663SOL    HW2 1989   2.263   1.718   1.274  2.5901 -2.8508  0.7637
  664SOL     OW 1990   1.315   1.215   0.978 -0.0249  0.1808 -0.3605
  664SOL    HW1 1991   1.404   1.232   1.024  0.5256  2.6905 -2.5597
  664SOL    HW2 1992   1.296   1.302   0.930  0.6187 -1.0306 -0.0931
  665SOL     OW 1993   1.995   2.778   2.191  0.0023  0.0990  0.1619
  665SOL    HW1 1994   1.890   2.782   2.183 -2.6449  2.4482 -0.5547
  665SOL    HW2 1995   2.035   2.864   2.165  2.0270 -2.2846 -0.9353
  666SOL     OW 1996   2.808   2.793   0.192  0.1421  0.0980  0.3372
  666SOL    HW1 1997   2.837   2.701   0.169  0.8447  1.2054  2.4331
  666SOL    HW2 1998   2.843   2.819   0.282  0.9646  0.6763 -2.4967
  667SOL     OW 1999   2.811   1.147   1.530 -0.0190  0.1939 -0.5897
  667SOL    HW1 2000   2.747   1.195   1.476  0.0616  0.9421 -0.3149
  667SOL    HW2 2001   2.779   1.152   1.628 -1.1105  0.2047 -2.2263
  668SOL     OW 2002   0.321   0.775   2.411  0.2835  0.5594 -0.0334
  668SOL    HW1 2003   0.287   0.764   2.505  0.0005  3.1229  1.7567
  668SOL    HW2 2004   0.243   0.816   2.360 -1.5102 -1.2832  2.4475
  669SOL     OW 2005   2.120   2.010   2.449 -0.1299  0.1385  0.2001
  669SOL    HW1 2006   2.122   1.965   2.355 -0.6420 -0.6429 -1.2594
  669SOL    HW2 2007   2.101   2.108   2.444  0.6409  2.9688  1.6076
  670SOL     OW 2008   2.856   1.435   1.753  0.1741  0.0667 -0.1658
  670SOL    HW1 2009   2.796   1.353   1.743  1.2721 -0.3512  0.6521
  670SOL    HW2 2010   2.954   1.423   1.733 -1.3932  2.7654 -0.2890
  671SOL     OW 2011   3.058   1.440   0.481  0.1776  0.4513 -0.1158
  671SOL    HW1 2012   3.088   1.519   0.540 -2.0492  1.2477  1.5734
  671SOL    HW2 2013   3.002   1.377   0.537 -0.1931  2.7661  3.0171
  672SOL     OW 2014   2.470   0.695   2.299 -0.1178  0.0172  0.4388
  672SOL    HW1 2015   2.400   0.730   2.234  0.4531 -1.2449 -0.4146
  672SOL    HW2 2016   2.495   0.764   2.366 -2.0921 -0.9175 -2.1181
  673SOL     OW 2017   2.594   0.149   2.267 -0.2334 -0.0464 -0.6911
  673SOL    HW1 2018   2.570   0.197   2.179  0.8300  1.0088 -1.9196
  673SOL    HW2 2019   2.559   0.053   2.260 -3.6314  0.4782  1.4238
  674SOL     OW 2020   1.576   2.264   1.424  0.0571 -0.2722 -0.2518
  674SOL    HW1 2021   1.616   2.322   1.497 -1.0797 -1.4461 -2.0860
  674SOL    HW2 2022   1.640   2.187   1.406 -2.0084  1.5332 -1.7381
  675SOL     OW 2023   0.718   0.812   0.658  0.2292  0.2816 -0.0658
  675SOL    HW1 2024   0.713   0.851   0.750 -1.7488  0.9649  0.2122
  675SOL    HW2 2025   0.695   0.886   0.590 -0.4775 -0.1146 -0.3790
  676SOL     OW 2026   1.664   0.840   0.946 -0.0105 -0.0299 -0.1576
  676SOL    HW1 2027   1.622   0.926   0.905  1.1633 -0.1082  2.2582
  676SOL    HW2 2028   1.660   0.761   0.881  1.2790 -0.7457  0.6168
  677SOL     OW 2029   2.621   1.272   2.325 -0.6162 -0.4223  0.7994
  677SOL    HW1 2030   2.621   1.196   2.259  0.7433 -0.0224  1.0417
  677SOL    HW2 2031   2.633   1.357   2.270 -0.6765 -2.2217 -0.5994
  678SOL     OW 2032   2.929   1.831   0.935 -0.2923 -0.3623  0.1643
  678SOL    HW1 2033   2.964   1.742   0.964 -1.7929  2.0110 -1.1365
  678SOL    HW2 2034   2.829   1.845   0.948 -1.3467 -0.5750 -1.8417
  679SOL     OW 2035   2.198   2.629   0.116  0.2213 -0.7198 -0.1760
  679SOL    HW1 2036   2.159   2.715   0.160 -0.9122  0.9398 -3.2260
  679SOL    HW2 2037   2.217   2.639   0.016 -0.3177  1.4323  0.7390
  680SOL     OW 2038   0.042   2.137   2.062 -0.1667  0.3072  0.5159
  680SOL    HW1 2039   0.138   2.136   2.031 -1.3061  1.1881  1.8951
  680SOL    HW2 2040   3.089   2.046   2.040  1.3751 -0.4441  0.3726
  681SOL     OW 2041   0.609   1.359   1.789  0.1260 -0.1614 -0.4384
  681SOL    HW1 2042   0.682   1.418   1.743 -0.9510  0.4181 -0.2366
  681SOL    HW2 2043   0.585   1.402   1.879  2.2327  0.8403  1.5745
  682SOL     OW 2044   1.303   2.538   0.820  0.4068 -0.2466  0.0819
  682SOL    HW1 2045   1.349   2.514   0.732  1.7364 -0.1861  0.3776
  682SOL    HW2 2046   1.222   2.481   0.840  0.6858  0.5218 -1.5453
  683SOL     OW 2047   2.306   1.551   0.784  0.5146  0.3455  0.5674
  683SOL    HW1 2048   2.264   1.629   0.826  0.9072  0.0747  0.5165
  683SOL    HW2 2049   2.262   1.544   0.688 -2.7511 -0.2212 -0.7548
  684SOL     OW 2050   0.287   2.123   1.998 -0.3145 -0.1865 -0.4397
  684SOL    HW1 2051   0.358   2.049   2.010  2.8947  0.8562  3.5033
  684SOL    HW2 2052   0.248   2.125   1.902 -0.6667  2.3457  1.7519
  685SOL     OW 2053   1.642   1.525   2.892  0.2011 -0.1659 -0.3315
  685SOL    HW1 2054   1.538   1.527   2.874 -0.1187  0.5159  0.0118
  685SOL    HW2 2055   1.685   1.582   2.817  0.8224  2.7391 -1.3425
  686SOL     OW 2056   3.086   1.030   1.230  0.0065 -0.1040 -0.0736
  686SOL    HW1 2057   3.084   1.126   1.204  0.7732 -1.7981  0.0285
  686SOL    HW2 2058   3.045   1.012   1.323 -3.4134  1.5578  2.4297
  687SOL     OW 2059   0.827   2.295   2.868  0.5510 -0.3427  0.4727
  687SOL    HW1 2060   0.801   2.383   2.918 -1.2434  1.8546 -1.8463
  687SOL    HW2 2061   0.737   2.257   2.828  1.2884  0.3822 -2.2160
  688SOL     OW 2062   2.539   1.813   1.795 -0.1259 -0.4190  0.3347
  688SOL    HW1 2063   2.551   1.842   1.894 -1.1853  2.0413  3.1427
  688SOL    HW2 2064   2.443   1.819   1.763  0.5202 -0.1698 -0.0523
  689SOL     OW 2065   2.289   0.727   2.068  0.8232 -0.6830  0.0965
  689SOL    HW1 2066   2.306   0.704   1.971 -1.0930  3.6203 -1.9226
  689SOL    HW2 2067   2.231   0.811   2.067 -0.6874 -1.1864  1.4973
  690SOL     OW 2068   2.251   1.029   1.387  0.3384  0.2639 -0.0003
  690SOL    HW1 2069   2.321   0.962   1.355 -0.4786 -0.1892 -0.4908
  690SOL    HW2 2070   2.288   1.121   1.363 -1.8613  1.3356 -0.8834
  691SOL     OW 2071   0.820   1.583   1.950 -0.0317 -0.6319  0.3503
  691SOL    HW1 2072   0.760   1.627   1.879 -0.0441  2.3693  0.1624
  691SOL    HW2 2073   0.915   1.568   1.915 -0.8509 -3.2040 -3.4028
  692SOL     OW 2074   2.005   0.126   1.372  0.6514 -0.1281 -0.2930
  692SOL    HW1 2075   2.055   0.192   1.431  0.0054  1.2264 -0.4836
  692SOL    HW2 2076   1.949   0.073   1.435 -0.4364  0.1756  0.7606
  693SOL     OW 2077   0.610   1.044   2.128 -0.0528  0.0338 -0.2018
  693SOL    HW1 2078   0.669   1.014   2.209  2.5391  1.2446 -1.7231
  693SOL    HW2 2079   0.649   1.003   2.043  1.1671 -1.2056  0.1454
  694SOL     OW 2080   1.703   2.553   1.272  0.1776  0.4542 -0.2746
  694SOL    HW1 2081   1.600   2.525   1.288 -1.5424  0.8075 -1.8525
  694SOL    HW2 2082   1.720   2.649   1.297  4.1941  0.9658  0.7097
  695SOL     OW 2083   1.304   0.960   2.053  0.4565 -0.0538  0.0865
  695SOL    HW1 2084   1.268   0.958   2.149 -1.2346  1.0122  3.9778
  695SOL    HW2 2085   1.290   1.045   2.001 -2.2017  1.4024 -1.1315
  696SOL     OW 2086   1.370   3.039   0.735  0.1757 -0.3467 -0.0610
  696SOL    HW1 2087   1.313   2.956   0.722 -0.4582 -0.2244 -3.9092
  696SOL    HW2 2088   1.443   3.036   0.665 -0.7370 -1.2080  2.7665
  697SOL     OW 2089   1.081   0.070   0.628 -0.1180  0.1153  0.3352
  697SOL    HW1 2090   1.033   0.056   0.721  1.0249  1.0908  1.4492
  697SOL    HW2 2091   1.056   0.162   0.598  2.3626 -2.2276  0.4502
  698SOL     OW 2092   1.558   0.984   2.600 -0.0461 -0.7142 -0.2675
  698SOL    HW1 2093   1.541   1.011   2.505 -0.2261 -1.9373  0.4537
  698SOL    HW2 2094   1.481   1.011   2.661 -0.9825  0.1353  1.8089
  699SOL     OW 2095   1.557   1.266   1.133  0.0556 -0.2556 -0.5254
  699SOL    HW1 2096   1.536   1.366   1.133  0.3496 -0.9013 -1.2764
  699SOL    HW2 2097   1.635   1.243   1.073 -2.4973  1.7895  0.8661
  700SOL     OW 2098   1.308   0.068   0.441  0.6930  0.1224 -0.4949
  700SOL    HW1 2099   1.240   0.046   0.516 -0.9223 -1.5625  0.6722
  700SOL    HW2 2100   1.345   3.077   0.402  0.8160  2.5624 -4.3925
  701SOL     OW 2101   0.256   0.193   1.968 -0.0641  0.7273  0.3880
  701SOL    HW1 2102   0.224   0.284   1.946 -0.0559 -1.5161 -0.1670
  701SOL    HW2 2103   0.201   0.154   2.047 -0.9229  0.1672 -0.2025
  702SOL     OW 2104   1.118   2.780   0.307  0.1737  0.0205 -0.1870
  702SOL    HW1 2105   1.195   2.814   0.252 -1.5092 -0.5128  1.2992
  702SOL    HW2 2106   1.107   2.840   0.396  0.3059  2.0502  3.5314
  703SOL     OW 2107   2.394   2.725   2.511  0.3645 -0.2145  0.0492
  703SOL    HW1 2108   2.296   2.722   2.486 -0.8858  1.6226  0.4265
  703SOL    HW2 2109   2.422   2.815   2.547 -0.2077 -1.1333  1.5964
  704SOL     OW 2110   0.708   2.140   1.025  0.3320 -0.0455  0.1090
  704SOL    HW1 2111   0.757   2.158   0.933  0.6514  0.9531 -2.4835
  704SOL    HW2 2112   0.676   2.044   1.031  2.0811 -0.3897  0.5464
  705SOL     OW 2113   3.066   0.610   1.841  0.4589 -0.1909 -0.0387
  705SOL    HW1 2114   3.035   0.611   1.939  1.8271 -0.8831 -1.9216
  705SOL    HW2 2115   3.046   0.699   1.790  0.9276  2.6243 -2.4026
  706SOL     OW 2116   1.589   3.022   0.554 -0.1907  0.5600  0.6860
  706SOL    HW1 2117   1.561   2.935   0.503 -3.2497  0.3336  0.8782
  706SOL    HW2 2118   1.651   3.078   0.496 -3.7458  3.0961 -1.1441
  707SOL     OW 2119   1.441   1.862   2.059  0.0378  0.0936 -0.3012
  707SOL    HW1 2120   1.365   1.810   2.108 -1.5557 -3.4322  2.8447
  707SOL    HW2 2121   1.422   1.961   2.075 -0.6243  0.1793  1.1543
  708SOL     OW 2122   2.915   2.356   1.676 -0.0778  0.4665  0.9865
  708SOL    HW1 2123   2.838   2.363   1.604 -2.1598  0.3181  1.3216
  708SOL    HW2 2124   2.977   2.438   1.662  1.8367  0.0677 -0.1011
  709SOL     OW 2125   1.931   0.598   1.812 -0.1283 -0.3915  0.4542
  709SOL    HW1 2126   1.990   0.514   1.821 -0.8098 -2.1264  0.1959
  709SOL    HW2 2127   1.837   0.561   1.812 -0.3997  1.6033  1.2049
  710SOL     OW 2128   2.389   0.134   1.514 -0.3028 -0.1860 -0.4499
  710SOL    HW1 2129   2.454   0.188   1.569 -2.0329  1.4301  0.5228
  710SOL    HW2 2130   2.413   0.155   1.417  1.0259  1.8965 -0.1320
  711SOL     OW 2131   0.165   2.266   0.521  0.0042  0.2622  0.2972
  711SOL    HW1 2132   0.257   2.219   0.495  1.7304 -1.0099 -1.5632
  711SOL    HW2 2133   0.097   2.193   0.540 -0.1780  1.6814  1.3452
  712SOL     OW 2134   0.563   2.331   2.312 -0.0275 -0.2637  0.1531
  712SOL    HW1 2135   0.480   2.291   2.267 -0.4974 -0.1942 -1.3525
  712SOL    HW2 2136   0.593   2.420   2.271  1.2716  1.2505  0.6737
  713SOL     OW 2137   2.163   0.774   0.060  0.2219  0.5186  0.2552
  713SOL    HW1 2138   2.187   0.872   0.076 -1.2377  3.4170  1.7819
  713SOL    HW2 2139   2.124   0.731   0.147 -1.4889 -1.0050  1.2445
  714SOL     OW 2140   0.764   1.887   0.513  0.2054 -0.1102  0.2657
  714SOL    HW1 2141   0.782   1.919   0.608  0.9595  3.0100  0.7362
  714SOL    HW2 2142   0.801   1.946   0.436  1.2292 -1.0563 -4.4294
  715SOL     OW 2143   1.761   0.050   0.357  0.5029  0.2334 -0.3096
  715SOL    HW1 2144   1.837   0.121   0.345  0.6125  1.5748  0.9959
  715SOL    HW2 2145   1.682   0.076   0.303  5.4615 -1.1427 -2.2278
  716SOL     OW 2146   0.445   0.434   1.602  0.4677 -0.4010 -0.9362
  716SOL    HW1 2147   0.467   0.451   1.699 -1.3029 -0.1661  1.4555
  716SOL    HW2 2148   0.350   0.398   1.595 -2.0754 -0.4550 -0.3266
  717SOL     OW 2149   0.017   0.849   0.114 -0.0556  0.0541  0.7449
  717SOL    HW1 2150   0.027   0.889   0.020  3.2583  1.5584 -0.9254
  717SOL    HW2 2151   3.068   0.757   0.110 -1.0596 -1.2043  3.2361
  718SOL     OW 2152   1.067   0.906   0.283 -0.1025  0.0514 -0.7800
  718SOL    HW1 2153   1.143   0.970   0.243  3.6820  1.5910 -0.5717
  718SOL    HW2 2154   1.098   0.818   0.324 -0.7968  0.6649  2.1599
  719SOL     OW 2155   2.964   1.384   2.983  0.3360  0.1419 -0.7150
  719SOL    HW1 2156   2.911   1.324   3.046  2.2351 -0.7290  0.3159
  719SOL    HW2 2157   2.921   1.392   2.887 -1.4303  0.7104  0.0369
  720SOL     OW 2158   1.298   0.817   1.153 -0.3041  0.0428 -0.4867
  720SOL    HW1 2159   1.277   0.877   1.077 -2.6035  2.1210  2.5138
  720SOL    HW2 2160   1.298   0.716   1.128 -2.6220 -4.9373 -2.2555
  721SOL     OW 2161   2.725   0.842   0.374  0.3749 -0.3376 -0.5627
  721SOL    HW1 2162   2.815   0.826   0.327  2.3124 -1.7572 -0.6306
  721SOL    HW2 2163   2.722   0.810   0.472 -0.3413  0.1130  0.5443
  722SOL     OW 2164   0.563   1.384   2.820 -0.1822 -0.7773  0.5663
  722SOL    HW1 2165   0.563   1.447   2.739  1.6927  1.8443  0.0337
  722SOL    HW2 2166   0.536   1.291   2.790  1.8670  1.5736 -0.5410
  723SOL     OW 2167   0.483   1.112   0.514 -0.3043 -0.3706  0.3032
  723SOL    HW1 2168   0.487   1.161   0.605 -0.0628  1.9509  0.9148
  723SOL    HW2 2169   0.393   1.079   0.493  2.3164 -0.1830  2.9681
  724SOL     OW 2170   1.004   2.365   1.851 -0.1003 -0.2788 -0.1962
  724SOL    HW1 2171   0.909   2.326   1.830 -3.3331 -0.7880  0.3482
  724SOL    HW2 2172   1.025   2.437   1.778  1.7435  1.6850 -1.5555
  725SOL     OW 2173   2.514   1.000   1.537 -0.2835 -0.3438  0.1369
  725SOL    HW1 2174   2.483   1.101   1.528  2.3418  3.9668  3.0069
  725SOL    HW2 2175   2.496   0.971   1.632  0.2269  1.0418  0.7418
  726SOL     OW 2176   1.578   2.779   0.465  0.3298  0.2809 -0.2977
  726SOL    HW1 2177   1.606   2.709   0.540  0.7054 -1.4559 -0.8750
  726SOL    HW2 2178   1.612   2.766   0.371  0.8347 -0.6399 -0.6163
  727SOL     OW 2179   1.164   0.763   2.444  0.1208 -0.5188 -0.2748
  727SOL    HW1 2180   1.198   0.786   2.536  0.4051 -0.8754 -1.3939
  727SOL    HW2 2181   1.198   0.670   2.423 -1.2378  1.7803 -1.0160
  728SOL     OW 2182   1.443   2.549   1.290  0.0514  0.2346  0.4550
  728SOL    HW1 2183   1.369   2.480   1.292 -2.2030  0.0547  1.2625
  728SOL    HW2 2184   1.435   2.614   1.367 -1.3673 -1.2551  1.8524
  729SOL     OW 2185   1.682   0.641   1.437  0.4065  0.5690  0.1367
  729SOL    HW1 2186   1.704   0.656   1.338 -1.8331  0.2163  0.5562
  729SOL    HW2 2187   1.603   0.702   1.456 -1.8679  1.4566  0.9727
  730SOL     OW 2188   0.569   2.008   2.045  0.4761  0.3052  0.6708
  730SOL    HW1 2189   0.639   2.048   2.106 -0.9610 -2.5284  1.5522
  730SOL    HW2 2190   0.549   1.916   2.078 -0.1777  1.8429 -1.3013
  731SOL     OW 2191   0.382   0.292   0.615  0.0028  0.0192  0.7009
  731SOL    HW1 2192   0.466   0.280   0.668  0.1611 -0.4221 -2.3812
  731SOL    HW2 2193   0.375   0.204   0.560 -1.9084 -1.0345 -0.2057
  732SOL     OW 2194   0.373   0.433   2.991 -0.3916 -0.1676 -0.1065
  732SOL    HW1 2195   0.465   0.485   2.995  1.7705  1.8723 -2.7950
  732SOL    HW2 2196   0.300   0.483   3.041 -0.6098 -0.0227 -1.6143
  733SOL     OW 2197   1.182   2.256   1.118  0.7273 -0.0222  0.5826
  733SOL    HW1 2198   1.091   2.209   1.126  0.4808  2.1425 -0.1986
  733SOL    HW2 2199   1.183   2.347   1.166 -2.1981 -0.0413 -1.1506
  734SOL     OW 2200   0.022   2.292   2.668 -0.5903 -0.0478  0.9649
  734SOL    HW1 2201   0.011   2.212   2.602 -0.5312 -3.6549  0.7423
  734SOL    HW2 2202   3.036   2.292   2.735 -0.3733  0.3944  1.7751
  735SOL     OW 2203   0.895   2.798   1.043  0.2036  0.0481  0.6958
  735SOL    HW1 2204   0.827   2.873   1.064 -0.1270  0.5221  0.2531
  735SOL    HW2 2205   0.984   2.844   1.022 -0.5359  1.1141  2.3868
  736SOL     OW 2206   1.668   0.563   0.013 -0.0457 -0.1167  0.2931
  736SOL    HW1 2207   1.671   0.560   2.997  2.0682  1.1583 -4.8344
  736SOL    HW2 2208   1.714   0.483   0.060 -0.7656 -0.9934 -0.9934
  737SOL     OW 2209   3.004   0.315   0.570 -0.5195  0.2803 -0.2198
  737SOL    HW1 2210   0.004   0.321   0.611 -0.5959  2.4353  1.3906
  737SOL    HW2 2211   3.006   0.371   0.486 -0.2698  1.8623 -0.5869
  738SOL     OW 2212   2.645   2.850   1.424 -0.3165  0.3627 -0.2556
  738SOL    HW1 2213   2.596   2.914   1.359 -1.3391 -2.7179  0.6337
  738SOL    HW2 2214   2.745   2.835   1.405 -1.5240 -1.5965 -1.0926
  739SOL     OW 2215   1.570   2.434   3.081  0.4181 -0.3616 -0.0930
  739SOL    HW1 2216   1.621   2.457   0.075  2.1553  0.2085  0.0245
  739SOL    HW2 2217   1.551   2.336   3.071 -1.4400 -1.2319  0.3172
  740SOL     OW 2218   1.743   2.834   1.312 -0.3643  0.2639 -0.0936
  740SOL    HW1 2219   1.686   2.895   1.367  0.6523 -1.4352 -2.7304
  740SOL    HW2 2220   1.714   2.825   1.211 -0.9276  1.9239 -0.5523
  741SOL     OW 2221   1.932   0.621   0.793  0.3643  0.0802 -0.0098
  741SOL    HW1 2222   1.939   0.648   0.691  2.7332 -1.3876  0.8079
  741SOL    HW2 2223   1.948   0.704   0.845  3.7881  1.3102 -2.0945
  742SOL     OW 2224   1.389   2.120   2.132  0.6310 -0.1589 -0.0873
  742SOL    HW1 2225   1.473   2.180   2.146  1.1585  2.5416 -0.3497
  742SOL    HW2 2226   1.337   2.162   2.053  0.5176 -0.7093  3.0017
  743SOL     OW 2227   2.354   0.579   1.845 -0.3870  0.0056  0.2096
  743SOL    HW1 2228   2.408   0.576   1.755  0.0042  0.8608  0.3766
  743SOL    HW2 2229   2.415   0.552   1.920 -1.5257 -1.1076 -2.7058
  744SOL     OW 2230   2.475   0.247   1.240 -0.3065 -1.1304 -0.0933
  744SOL    HW1 2231   2.434   0.338   1.226 -0.7174 -0.2636  0.2345
  744SOL    HW2 2232   2.465   0.181   1.162 -0.2358 -2.7683 -1.5901
  745SOL     OW 2233   1.966   1.195   1.777  0.2224  0.1108  0.0537
  745SOL    HW1 2234   1.884   1.131   1.770 -0.3777  0.5952  1.5929
  745SOL    HW2 2235   1.938   1.282   1.827  0.5200 -0.8263 -1.6624
  746SOL     OW 2236   1.193   1.427   0.832  0.2138 -0.1733  0.1745
  746SOL    HW1 2237   1.109   1.485   0.826 -0.3359 -0.1574  2.7179
  746SOL    HW2 2238   1.279   1.474   0.806  0.3244  0.6424  1.8073
  747SOL     OW 2239   1.750   1.219   0.933 -0.0651  0.1549 -0.3534
  747SOL    HW1 2240   1.672   1.243   0.870  1.9501  0.7923 -0.1924
  747SOL    HW2 2241   1.828   1.192   0.876 -3.0072  2.4655  1.2451
  748SOL     OW 2242   2.895   2.745   0.824 -0.9975 -0.0990 -0.0221
  748SOL    HW1 2243   2.893   2.698   0.733 -1.1770 -1.9879  0.5608
  748SOL    HW2 2244   2.813   2.726   0.873 -0.6147  0.5672  1.3252
  749SOL     OW 2245   0.119   0.052   2.182  0.0732  0.3767  0.7313
  749SOL    HW1 2246   0.044   0.038   2.247 -0.5842  0.2528 -5.1504
  749SOL    HW2 2247   0.214   0.037   2.226  4.2956 -1.8105  2.7376
  750SOL     OW 2248   1.997   0.690   1.224  0.1259 -0.7226  0.4534
  750SOL    HW1 2249   2.039   0.625   1.288  0.8675 -1.6479 -1.3660
  750SOL    HW2 2250   1.991   0.783   1.271  0.4641  0.4545  3.3275
  751SOL     OW 2251   2.820   0.538   0.736  0.1477 -0.5971 -0.6636
  751SOL    HW1 2252   2.801   0.513   0.836  2.2834  1.4523  0.8814
  751SOL    HW2 2253   2.917   0.574   0.726 -0.7932 -0.7191  0.2605
  752SOL     OW 2254   0.216   2.571   1.107  0.6240  0.1207 -0.5060
  752SOL    HW1 2255   0.140   2.625   1.072  3.2465  0.7382  2.3563
  752SOL    HW2 2256   0.205   2.469   1.088 -0.2799 -1.7470 -0.3592
  753SOL     OW 2257   1.283   0.316   2.062 -0.4858  0.1998 -0.4980
  753SOL    HW1 2258   1.206   0.343   1.998 -1.7188 -0.8581  0.9433
  753SOL    HW2 2259   1.356   0.385   2.075 -0.2072  1.6274 -0.3452
  754SOL     OW 2260   1.687   2.411   1.627 -0.0101  0.4501  0.6534
  754SOL    HW1 2261   1.759   2.482   1.617  2.0026 -0.8428 -1.8590
  754SOL    HW2 2262   1.641   2.423   1.718  0.2667  1.6470  3.2930
  755SOL     OW 2263   2.906   1.266   0.635 -0.0024  0.3182  0.3810
  755SOL    HW1 2264   2.856   1.338   0.686 -0.3713 -1.6069 -2.0760
  755SOL    HW2 2265   2.848   1.188   0.602 -2.1236  1.0297 -0.1689
  756SOL     OW 2266   1.659   1.646   2.314  0.1399 -0.7495 -0.0365
  756SOL    HW1 2267   1.670   1.724   2.250 -1.8931 -0.3628  0.9569
  756SOL    HW2 2268   1.744   1.613   2.354  0.4078 -0.7892  0.2856
  757SOL     OW 2269   1.710   2.863   0.753  0.7855 -0.0708  0.3210
  757SOL    HW1 2270   1.692   2.932   0.680 -0.9810 -2.5644 -0.8884
  757SOL    HW2 2271   1.691   2.773   0.711 -1.5731  0.9159  0.2227
  758SOL     OW 2272   0.584   2.822   1.238  0.2877  0.7497  0.5017
  758SOL    HW1 2273   0.552   2.738   1.183  0.5149 -1.1291  0.1949
  758SOL    HW2 2274   0.616   2.898   1.175 -1.6861  0.4367 -3.3498
  759SOL     OW 2275   0.192   1.077   0.971  0.3166 -0.2281  0.3291
  759SOL    HW1 2276   0.160   1.023   1.050 -0.4241  1.7370 -2.4532
  759SOL    HW2 2277   0.216   1.168   0.988 -2.5560 -3.1725  1.6759
  760SOL     OW 2278   2.412   1.396   1.176 -0.1604 -0.5532 -0.4049
  760SOL    HW1 2279   2.421   1.293   1.180 -1.9146 -1.6492 -0.0219
  760SOL    HW2 2280   2.315   1.418   1.163  2.0752 -1.6142 -0.4798
  761SOL     OW 2281   1.199   0.984   0.948 -0.0641  0.0451 -0.0782
  761SOL    HW1 2282   1.228   1.081   0.965  0.3181 -1.1839  0.0363
  761SOL    HW2 2283   1.115   0.981   0.887 -2.3268 -3.8358 -2.6671
  762SOL     OW 2284   2.396   2.039   1.170  0.3478  0.1465 -0.0344
  762SOL    HW1 2285   2.430   1.942   1.165  2.9191  1.2754 -0.9188
  762SOL    HW2 2286   2.307   2.062   1.121  2.8214  1.2948  1.0191
  763SOL     OW 2287   1.167   1.300   2.111 -0.4675  0.2180  0.4059
  763SOL    HW1 2288   1.226   1.328   2.187 -0.2380  0.3738 -0.1103
  763SOL    HW2 2289   1.215   1.243   2.044 -0.0947  2.4607  1.5902
  764SOL     OW 2290   3.014   1.736   2.268  0.2195 -0.0708 -0.2746
  764SOL    HW1 2291   3.091   1.799   2.296  1.9323  2.2896 -1.9638
  764SOL    HW2 2292   3.003   1.654   2.331  0.0216  1.0642 -1.4934
  765SOL     OW 2293   1.164   2.486   1.250 -0.4408 -0.2619 -0.0660
  765SOL    HW1 2294   1.113   2.447   1.330  0.8356 -0.1723 -1.2172
  765SOL    HW2 2295   1.174   2.586   1.252  0.3040 -2.6665 -0.3744
  766SOL     OW 2296   0.783   2.325   2.506  0.2727  0.7868  0.2230
  766SOL    HW1 2297   0.834   2.259   2.446  0.9397  3.4161 -0.3009
  766SOL    HW2 2298   0.687   2.294   2.508  0.9711  1.1013 -0.3403
  767SOL     OW 2299   1.757   0.312   2.864 -0.0914  0.4107 -0.2874
  767SOL    HW1 2300   1.818   0.264   2.932  0.0706  0.1116 -0.4050
  767SOL    HW2 2301   1.750   0.417   2.877  0.8920 -0.0777  1.4587
  768SOL     OW 2302   1.329   2.393   2.827  0.3193  0.3476  0.3203
  768SOL    HW1 2303   1.240   2.363   2.791  1.1394  0.1516  0.1133
  768SOL    HW2 2304   1.321   2.485   2.873  1.6690 -0.6513  1.4571
  769SOL     OW 2305   2.898   2.814   1.391 -0.6190 -1.1136  0.0349
  769SOL    HW1 2306   2.897   2.916   1.370  2.2942  0.3810 -0.3439
  769SOL    HW2 2307   2.986   2.801   1.447  1.4546 -0.7265 -0.8332
  770SOL     OW 2308   0.687   0.008   2.925  0.5834 -0.5204  0.0865
  770SOL    HW1 2309   0.650   0.062   2.996  0.3221 -1.3962 -1.4803
  770SOL    HW2 2310   0.762   3.037   2.952 -0.6001  0.7140  1.0477
  771SOL     OW 2311   0.663   2.903   2.699  0.4683  1.0150 -0.5996
  771SOL    HW1 2312   0.661   2.980   2.771 -1.4506  2.3486 -2.3554
  771SOL    HW2 2313   0.659   2.810   2.746 -0.9681 -1.4388  1.7598
  772SOL     OW 2314   2.413   0.083   1.988  0.0790  0.3960 -0.0137
  772SOL    HW1 2315   2.427   0.000   2.048  2.3842 -1.0406 -2.2177
  772SOL    HW2 2316   2.434   0.056   1.892  0.2457  1.4629 -1.0022
  773SOL     OW 2317   0.740   2.304   1.812 -0.3670  0.5157 -0.1556
  773SOL    HW1 2318   0.700   2.340   1.722  0.0684 -0.6442 -0.5837
  773SOL    HW2 2319   0.675   2.315   1.890 -0.9528  1.2103 -2.0065
  774SOL     OW 2320   1.608   0.611   2.117  0.0900  0.0922  0.0447
  774SOL    HW1 2321   1.590   0.521   2.160  1.2930 -0.6467 -0.7173
  774SOL    HW2 2322   1.520   0.644   2.069  0.1592 -2.7778 -0.0225
  775SOL     OW 2323   2.289   2.656   2.935  0.2367  0.2330 -0.0423
  775SOL    HW1 2324   2.316   2.609   2.852  0.6551 -1.3067 -1.3658
  775SOL    HW2 2325   2.339   2.745   2.943 -0.3757  1.2769 -0.1179
  776SOL     OW 2326   2.144   0.951   2.080 -0.0791  0.7231 -0.1396
  776SOL    HW1 2327   2.127   1.045   2.099  0.4990 -4.0611  0.7941
  776SOL    HW2 2328   2.074   0.913   2.015 -0.3606 -0.0447  0.0224
  777SOL     OW 2329   2.939   0.988   2.550  0.4046  0.2537 -0.1961
  777SOL    HW1 2330   2.927   0.902   2.499  2.1521  1.3567 -1.5036
  777SOL    HW2 2331   2.854   1.044   2.539  3.3343 -2.5861  0.4257
  778SOL     OW 2332   2.133   0.653   2.297  0.5428  0.0510  0.3417
  778SOL    HW1 2333   2.162   0.715   2.373  2.0732 -1.6978 -3.6836
  778SOL    HW2 2334   2.185   0.674   2.209  0.3037 -0.0918  0.6134
  779SOL     OW 2335   2.974   0.068   0.151 -0.1134 -0.0086  0.4148
  779SOL    HW1 2336   2.968   3.078   0.090 -0.0396  1.5797  0.6243
  779SOL    HW2 2337   3.071   0.093   0.157 -1.1840 -0.4327  0.1949
  780SOL     OW 2338   2.422   0.132   2.479  0.3318  0.2300 -0.4477
  780SOL    HW1 2339   2.330   0.175   2.458  0.3698 -1.6645 -1.4798
  780SOL    HW2 2340   2.492   0.157   2.411  2.5403 -0.2023  2.1245
  781SOL     OW 2341   0.325   0.087   1.738 -0.4344 -0.0136  0.1668
  781SOL    HW1 2342   0.297   0.146   1.656 -0.2334  0.7040 -0.3963
  781SOL    HW2 2343   0.267   0.114   1.816  0.3094  0.9294 -1.9314
  782SOL     OW 2344   1.817   2.358   2.947  0.0173 -0.2532  0.1413
  782SOL    HW1 2345   1.797   2.289   2.875 -0.5067  0.8380  1.1424
  782SOL    HW2 2346   1.743   2.426   2.953  1.4806 -0.7507 -1.5000
  783SOL     OW 2347   0.751   1.616   1.499 -0.7077  0.7669  0.2622
  783SOL    HW1 2348   0.828   1.671   1.466  2.8667 -0.9500 -0.4560
  783SOL    HW2 2349   0.786   1.543   1.561 -1.7865 -2.2850  2.3741
  784SOL     OW 2350   1.852   0.666   2.390  0.4444  1.1487  0.1872
  784SOL    HW1 2351   1.938   0.673   2.341  1.8059  2.4279  1.2076
  784SOL    HW2 2352   1.778   0.713   2.340 -3.9445  1.6895 -0.8214
  785SOL     OW 2353   3.057   0.612   1.003 -0.4216  0.0729  0.3183
  785SOL    HW1 2354   2.979   0.652   0.953 -0.9381 -1.0995  1.5228
  785SOL    HW2 2355   3.074   0.513   0.977 -1.8683 -0.6441  0.5836
  786SOL     OW 2356   1.957   2.954   0.779  0.3536 -0.2534  0.0532
  786SOL    HW1 2357   1.872   2.914   0.813 -1.4745 -1.3813 -0.5159
  786SOL    HW2 2358   1.987   2.905   0.694  0.1060 -0.7804 -0.3572
  787SOL     OW 2359   1.122   2.936   0.971  0.1213 -0.4559 -0.2132
  787SOL    HW1 2360   1.049   3.000   0.938 -3.6439 -3.7411  1.2978
  787SOL    HW2 2361   1.195   2.987   1.018 -1.1244 -0.7236 -1.5142
  788SOL     OW 2362   0.314   1.308   1.046 -0.5120  0.7264 -0.3581
  788SOL    HW1 2363   0.292   1.337   1.141 -0.5522 -0.4877  0.6267
  788SOL    HW2 2364   0.261   1.366   0.979 -0.9458 -0.6728 -2.0568
  789SOL     OW 2365   0.350   0.915   2.039 -0.1620 -0.1712  0.4214
  789SOL    HW1 2366   0.277   0.929   2.106  1.2060 -1.3328 -1.7443
  789SOL    HW2 2367   0.441   0.939   2.078 -1.4234  3.6085  0.0356
  790SOL     OW 2368   0.903   0.489   2.673  0.1052  0.0466 -0.3105
  790SOL    HW1 2369   0.855   0.430   2.743 -0.5084 -0.5283  0.2484
  790SOL    HW2 2370   0.886   0.461   2.574  1.4245 -0.5887 -0.0941
  791SOL     OW 2371   2.376   0.518   0.181  0.2746 -0.2956  0.3356
  791SOL    HW1 2372   2.279   0.526   0.214 -0.3013  1.0337  0.5241
  791SOL    HW2 2373   2.438   0.560   0.247 -0.1485 -0.2624 -0.5482
  792SOL     OW 2374   1.315   0.578   1.000  0.1407  0.1159  0.4852
  792SOL    HW1 2375   1.269   0.626   0.925  0.9427  0.4129 -0.1089
  792SOL    HW2 2376   1.412   0.557   0.981 -0.2246 -0.3338  1.5884
  793SOL     OW 2377   0.160   3.001   1.394  0.0644 -0.5453 -0.3074
  793SOL    HW1 2378   0.260   2.988   1.390  0.9434  0.7202 -0.3264
  793SOL    HW2 2379   0.128   0.005   1.416 -0.8754  3.4539  2.1983
  794SOL     OW 2380   0.219   0.482   1.949 -0.5956  0.0906 -0.4566
  794SOL    HW1 2381   0.139   0.519   1.895 -1.9128  0.6477 -1.5651
  794SOL    HW2 2382   0.279   0.559   1.987  1.9138  0.1659  1.4294
  795SOL     OW 2383   0.442   2.378   2.654 -0.5903  0.2484  0.0685
  795SOL    HW1 2384   0.476   2.450   2.589 -1.1627  1.7697 -2.0469
  795SOL    HW2 2385   0.361   2.411   2.712  0.3785  1.0282 -0.8295
  796SOL     OW 2386   2.036   0.403   2.654  0.6099  0.2240 -0.2946
  796SOL    HW1 2387   1.939   0.428   2.621 -2.2646  0.1035 -0.5873
  796SOL    HW2 2388   2.028   0.345   2.737 -0.8189  0.3461  2.2114
  797SOL     OW 2389   2.465   2.337   2.738 -0.2683 -0.5053 -0.3874
  797SOL    HW1 2390   2.473   2.439   2.734 -1.2043  0.5137 -0.3854
  797SOL    HW2 2391   2.495   2.311   2.834 -2.0103 -0.6257  0.7421
  798SOL     OW 2392   0.352   0.889   1.448  0.2264 -0.0438 -0.5550
  798SOL    HW1 2393   0.337   0.799   1.404  2.0027  1.5254  0.5033
  798SOL    HW2 2394   0.343   0.869   1.551 -3.1946  0.4018  3.7712
  799SOL     OW 2395   0.791   0.203   1.737  0.5095 -0.2338  0.4761
  799SOL    HW1 2396   0.690   0.210   1.732 -2.0617 -2.0453 -3.5252
  799SOL    HW2 2397   0.820   0.110   1.760 -1.8318 -0.5320 -2.8358
  800SOL     OW 2398   2.891   2.650   0.547  0.1003 -0.2113  0.3673
  800SOL    HW1 2399   2.953   2.585   0.498 -0.2151  3.9099 -1.7232
  800SOL    HW2 2400   2.892   2.742   0.507  0.3296 -2.3833  3.0310
  801SOL     OW 2401   1.600   1.859   0.605  0.3859 -0.6953 -0.2517
  801SOL    HW1 2402   1.515   1.874   0.662  1.1685 -2.7640 -0.2788
  801SOL    HW2 2403   1.586   1.780   0.546 -0.4817  2.5533  0.6980
  802SOL     OW 2404   0.690   0.569   0.205 -0.5371 -0.1547  0.1662
  802SOL    HW1 2405   0.614   0.632   0.228 -0.4471 -1.2294 -0.8141
  802SOL    HW2 2406   0.684   0.536   0.109  0.5236 -1.7042 -0.7409
  803SOL     OW 2407   1.228   0.994   2.314 -0.0460  0.2283 -0.3491
  803SOL    HW1 2408   1.194   0.902   2.356 -0.0034  0.4990  1.1420
  803SOL    HW2 2409   1.208   1.071   2.373  0.0793 -2.3076 -1.1786
  804SOL     OW 2410   2.032   2.024   1.344 -0.1838  0.4012 -0.3232
  804SOL    HW1 2411   2.065   2.008   1.435  0.9549  3.2216  0.4282
  804SOL    HW2 2412   2.107   2.064   1.289 -0.5914  2.6017 -0.5093
  805SOL     OW 2413   3.054   2.113   2.479 -0.6494  0.1675 -0.2843
  805SOL    HW1 2414   0.006   2.027   2.453 -2.1860 -0.5207 -1.3821
  805SOL    HW2 2415   3.065   2.178   2.400  2.2866 -0.1162 -2.0233
  806SOL     OW 2416   0.621   2.466   0.295 -0.1980 -0.0966  0.0625
  806SOL    HW1 2417   0.653   2.554   0.256  0.8796  1.4997  0.4187
  806SOL    HW2 2418   0.523   2.473   0.319  1.3975 -1.3858 -1.9888
  807SOL     OW 2419   2.347   0.977   2.883 -0.2925  0.4052 -0.3958
  807SOL    HW1 2420   2.291   1.057   2.913  0.6692 -2.2434 -2.5635
  807SOL    HW2 2421   2.281   0.896   2.878  0.2556  1.1899  0.2269
  808SOL     OW 2422   1.539   2.217   0.757  0.2102  0.1052  0.0657
  808SOL    HW1 2423   1.608   2.168   0.697 -0.8699  1.9910 -0.5503
  808SOL    HW2 2424   1.592   2.293   0.806  2.9521  0.1061  1.6370
  809SOL     OW 2425   0.244   0.701   0.746  0.4339  0.1071  0.3546
  809SOL    HW1 2426   0.279   0.797   0.731  0.5108  2.2226 -0.4709
  809SOL    HW2 2427   0.269   0.673   0.842 -2.0334  1.3111  2.3603
  810SOL     OW 2428   1.484   1.723   0.050  0.1040 -0.2470 -0.4449
  810SOL    HW1 2429   1.480   1.746   3.043 -0.6550 -0.8028  2.2293
  810SOL    HW2 2430   1.561   1.767   0.098  0.1953 -1.4799 -2.5677
  811SOL     OW 2431   1.272   2.841   1.667  0.0533 -0.1556  0.4628
  811SOL    HW1 2432   1.340   2.768   1.671  0.2931  1.2987  2.1097
  811SOL    HW2 2433   1.235   2.864   1.576  2.4875 -0.3279 -0.2875
  812SOL     OW 2434   1.623   3.089   0.957 -0.1017 -0.0486  0.4635
  812SOL    HW1 2435   1.617   0.008   0.859  0.4167 -0.2871 -0.7636
  812SOL    HW2 2436   1.715   3.057   0.983 -0.9315 -0.6699 -1.1167
  813SOL     OW 2437   1.391   2.983   2.182  0.0111 -0.2136  0.3475
  813SOL    HW1 2438   1.360   2.884   2.169  0.8677  1.3576  0.2022
  813SOL    HW2 2439   1.319   3.040   2.137 -0.4709  0.6209  0.1685
  814SOL     OW 2440   1.126   2.803   1.914 -0.0442 -0.3934 -0.5344
  814SOL    HW1 2441   1.185   2.822   2.001  1.6433  0.1902  1.7170
  814SOL    HW2 2442   1.178   2.828   1.831 -3.2447  0.7088  2.5820
  815SOL     OW 2443   0.182   0.078   0.117 -0.1639 -0.1984  0.4472
  815SOL    HW1 2444   0.256   0.142   0.145 -1.2433 -1.1540 -0.5532
  815SOL    HW2 2445   0.167   0.076   0.014 -1.9151 -1.1415  0.0099
  816SOL     OW 2446   2.613   1.396   3.048 -0.1592 -0.2653 -0.7152
  816SOL    HW1 2447   2.641   1.351   2.963 -1.6785  2.6424  1.0017
  816SOL    HW2 2448   2.642   1.333   0.027  2.5850 -2.6465  0.5564
  817SOL     OW 2449   2.602   2.268   2.490  0.4585  0.3249  0.3320
  817SOL    HW1 2450   2.530   2.265   2.560 -0.3038 -0.7346 -1.4072
  817SOL    HW2 2451   2.680   2.210   2.510 -1.6679  2.5480 -3.3182
  818SOL     OW 2452   0.937   1.337   0.456  0.6847 -0.0080 -0.6307
  818SOL    HW1 2453   0.966   1.309   0.549 -0.9151 -1.9633 -0.8994
  818SOL    HW2 2454   0.837   1.351   0.462 -1.7219 -4.8474  0.8583
  819SOL     OW 2455   1.572   1.260   2.880 -0.1404 -0.4062  0.2272
  819SOL    HW1 2456   1.646   1.210   2.829 -2.0323  1.4446  0.1280
  819SOL    HW2 2457   1.609   1.357   2.892  1.5257  0.3502 -2.3487
  820SOL     OW 2458   0.361   1.400   0.594 -0.1188  0.1029  0.4330
  820SOL    HW1 2459   0.440   1.456   0.634 -1.7988 -0.4279 -0.8972
  820SOL    HW2 2460   0.336   1.440   0.505  0.1546 -0.0511  0.1902
  821SOL     OW 2461   0.421   2.985   1.362 -0.2412  0.2224 -0.0334
  821SOL    HW1 2462   0.465   2.912   1.307  0.9535  1.7238 -3.5432
  821SOL    HW2 2463   0.486   3.013   1.443  2.4618  1.1229  3.1264
  822SOL     OW 2464   1.967   1.830   2.639 -0.1229  0.2673 -0.0282
  822SOL    HW1 2465   1.995   1.908   2.702  0.6233 -1.4602 -0.8418
  822SOL    HW2 2466   1.957   1.863   2.541 -0.5962 -0.8090  0.9893
  823SOL     OW 2467   0.713   0.652   2.288 -0.3424 -0.1387 -0.2942
  823SOL    HW1 2468   0.742   0.616   2.197  1.5708 -0.5864  0.0283
  823SOL    HW2 2469   0.627   0.609   2.319  1.2774  1.1913  0.5980
  824SOL     OW 2470   2.407   2.824   1.599  0.1932  0.0357 -0.1879
  824SOL    HW1 2471   2.383   2.889   1.672 -2.3283 -0.8920  2.3047
  824SOL    HW2 2472   2.478   2.859   1.539 -3.6435 -0.8927 -1.4955
  825SOL     OW 2473   0.293   1.678   2.430 -0.0554  0.1623  0.4034
  825SOL    HW1 2474   0.250   1.647   2.343  2.1123 -1.5124  2.8769
  825SOL    HW2 2475   0.230   1.743   2.480  1.2129  1.3831  0.0732
  826SOL     OW 2476   1.569   0.131   0.136 -0.0839  0.3229  0.1163
  826SOL    HW1 2477   1.588   0.226   0.145  0.4247  0.8597  1.9399
  826SOL    HW2 2478   1.648   0.083   0.085  2.1562  1.1814 -0.8491
  827SOL     OW 2479   3.017   1.887   2.018  0.4958  0.5744  0.0085
  827SOL    HW1 2480   3.038   1.842   1.926 -1.4227  1.0123 -2.0972
  827SOL    HW2 2481   2.978   1.822   2.087 -0.3925 -0.7152  0.4568
  828SOL     OW 2482   0.178   0.221   1.276  0.4793 -0.2205  0.2090
  828SOL    HW1 2483   0.250   0.164   1.230 -1.2491  0.8124 -1.1309
  828SOL    HW2 2484   0.106   0.235   1.210  2.1116 -0.9257  3.2796
  829SOL     OW 2485   1.063   1.588   2.152  0.3784  0.1647 -0.2829
  829SOL    HW1 2486   1.007   1.561   2.231 -0.0776  0.9735 -2.3268
  829SOL    HW2 2487   1.087   1.512   2.090 -1.0351 -2.2887 -0.0804
  830SOL     OW 2488   0.907   0.988   1.575  0.5177  0.6531 -0.0597
  830SOL    HW1 2489   0.883   1.014   1.477 -2.0287 -0.3583 -0.9550
  830SOL    HW2 2490   0.850   0.917   1.607 -1.7846  0.0093  0.5962
  831SOL     OW 2491   2.685   1.641   0.147  0.2080  0.1237 -0.3106
  831SOL    HW1 2492   2.687   1.620   0.050  0.2239  1.1829  0.4460
  831SOL    HW2 2493   2.781   1.669   0.174 -0.2564  2.6888  0.3558
  832SOL     OW 2494   1.097   2.274   2.785 -0.3056 -0.2918 -0.2078
  832SOL    HW1 2495   1.004   2.310   2.811  0.4952  0.3950 -2.1184
  832SOL    HW2 2496   1.086   2.200   2.718 -1.7635  0.1027 -1.5808
  833SOL     OW 2497   0.211   0.259   1.562 -0.1035 -0.3902 -0.1589
  833SOL    HW1 2498   0.140   0.314   1.606  2.3148  0.9479  0.3892
  833SOL    HW2 2499   0.205   0.250   1.459  0.3026 -3.2226 -0.7368
  834SOL     OW 2500   2.853   0.911   1.096 -0.5443  0.0637 -0.2335
  834SOL    HW1 2501   2.898   0.934   1.183  1.8142  0.7035 -1.1990
  834SOL    HW2 2502   2.761   0.872   1.116  0.1363  0.7498 -0.9649
  835SOL     OW 2503   2.649   0.441   0.495 -0.2622  0.3881  0.2769
  835SOL    HW1 2504   2.702   0.461   0.578  0.0521 -2.1957 -0.0089
  835SOL    HW2 2505   2.594   0.358   0.513  2.0479  0.2764 -1.3788
  836SOL     OW 2506   0.480   2.267   3.006 -0.5353  0.6133  0.1425
  836SOL    HW1 2507   0.514   2.222   3.088  0.3391  0.5568 -1.1118
  836SOL    HW2 2508   0.514   2.223   2.923  0.0432  0.9001  0.9349
  837SOL     OW 2509   1.303   2.042   0.339 -0.2219  0.6592  0.3686
  837SOL    HW1 2510   1.371   2.085   0.280 -2.8980 -2.0989 -0.3523
  837SOL    HW2 2511   1.315   1.941   0.338 -0.1366 -0.0158 -1.3311
  838SOL     OW 2512   2.368   0.989   2.243  0.4122 -0.3103  0.1179
  838SOL    HW1 2513   2.428   1.054   2.196 -2.3074  1.6791 -4.9216
  838SOL    HW2 2514   2.290   0.971   2.176 -1.3624 -0.1589 -2.7175
  839SOL     OW 2515   1.109   1.114   2.715 -0.6490  0.0993  0.1438
  839SOL    HW1 2516   1.065   1.105   2.623 -0.5120 -1.4868 -0.8995
  839SOL    HW2 2517   1.032   1.122   2.784  1.2639 -0.2323  1.4364
  840SOL     OW 2518   0.666   0.931   0.009 -0.3465 -0.2896  0.0746
  840SOL    HW1 2519   0.619   0.875   0.074  0.7794  0.9893 -2.9611
  840SOL    HW2 2520   0.649   1.029   0.027 -0.8305 -1.7230 -1.9360
  841SOL     OW 2521   1.224   2.149   3.064 -0.3821  0.4284 -0.3696
  841SOL    HW1 2522   1.216   2.236   0.026  0.4507 -2.2845 -0.6915
  841SOL    HW2 2523   1.183   2.167   2.971  1.5743 -0.0573  1.6108
  842SOL     OW 2524   0.381   0.542   0.562  0.4034 -0.9415  0.0669
  842SOL    HW1 2525   0.329   0.592   0.637 -1.1011  0.8602  1.2344
  842SOL    HW2 2526   0.393   0.441   0.586  0.7070  1.3128 -2.2782
  843SOL     OW 2527   0.526   0.842   1.016  0.0982  0.0202  0.1587
  843SOL    HW1 2528   0.503   0.940   1.036 -1.8729 -0.5937 -2.3158
  843SOL    HW2 2529   0.445   0.781   0.987 -0.7614 -0.0611 -1.9064
  844SOL     OW 2530   1.979   2.587   2.582  0.6266 -0.5475 -0.2949
  844SOL    HW1 2531   2.034   2.661   2.541  1.5855  0.7443  1.4311
  844SOL    HW2 2532   1.905   2.625   2.642  1.6710 -1.5274 -0.5049
  845SOL     OW 2533   2.707   2.972   2.021 -0.5570 -0.0549 -0.2387
  845SOL    HW1 2534   2.800   2.963   2.065  1.6102 -1.8842 -0.2439
  845SOL    HW2 2535   2.661   2.889   2.040  2.9198  0.8069 -1.8065
  846SOL     OW 2536   1.830   0.885   2.550  0.1478 -0.1775 -0.4467
  846SOL    HW1 2537   1.843   0.793   2.504 -0.4205 -3.9123  0.4541
  846SOL    HW2 2538   1.733   0.910   2.560  0.0671  0.5992  0.4170
  847SOL     OW 2539   3.073   0.414   1.633 -0.0231  0.1932  0.0570
  847SOL    HW1 2540   3.082   0.491   1.695 -0.9605 -0.4994  1.5810
  847SOL    HW2 2541   3.030   0.330   1.679 -0.4546 -4.8409 -1.4850
  848SOL     OW 2542   2.540   2.863   0.066 -0.2330 -0.4999  0.0497
  848SOL    HW1 2543   2.640   2.868   0.085  0.4317  1.8196 -0.3181
  848SOL    HW2 2544   2.501   2.778   0.109 -0.1485 -0.9885  0.5269
  849SOL     OW 2545   0.492   2.862   0.886 -0.5332 -0.4029  0.3351
  849SOL    HW1 2546   0.503   2.776   0.937 -2.5451  1.2264  1.4626
  849SOL    HW2 2547   0.398   2.898   0.884  2.9766 -1.0950 -0.1922
  850SOL     OW 2548   0.606   2.202   0.335 -0.3456  0.1467  0.4923
  850SOL    HW1 2549   0.607   2.295   0.294 -0.5395  2.1163  3.1903
  850SOL    HW2 2550   0.701   2.165   0.338 -1.8565  1.0731 -1.4414
  851SOL     OW 2551   2.136   0.461   2.959 -0.0576  0.2144 -0.3986
  851SOL    HW1 2552   2.138   0.521   2.881  0.6184 -0.9343 -0.7003
  851SOL    HW2 2553   2.107   0.369   2.935  0.0677 -0.9798 -0.8496
  852SOL     OW 2554   1.582   2.345   2.471  0.1709 -0.6030  0.2186
  852SOL    HW1 2555   1.623   2.280   2.541  1.4829 -0.5439 -1.0870
  852SOL    HW2 2556   1.661   2.370   2.409 -0.8043  1.3516  1.3151
  853SOL     OW 2557   0.005   2.502   0.423 -0.9235  0.1866  0.0398
  853SOL    HW1 2558   0.039   2.557   0.344  3.2523  0.1366  0.4780
  853SOL    HW2 2559   0.067   2.428   0.454 -1.5112 -0.1023  2.0895
  854SOL     OW 2560   1.129   0.572   2.122  0.3759  0.3852 -0.2552
  854SOL    HW1 2561   1.181   0.571   2.033  1.7034 -1.5188  1.3801
  854SOL    HW2 2562   1.193   0.560   2.203  0.2134 -1.0631  0.9241
  855SOL     OW 2563   0.225   2.732   0.674  0.1034  0.4100  0.4311
  855SOL    HW1 2564   0.172   2.646   0.664 -0.1519  0.0424 -3.2832
  855SOL    HW2 2565   0.271   2.752   0.587 -0.4020 -1.0596 -0.0892
  856SOL     OW 2566   0.371   2.881   2.513  0.3595 -0.5333 -0.0127
  856SOL    HW1 2567   0.338   2.806   2.451 -1.7693  0.3953 -1.6832
  856SOL    HW2 2568   0.463   2.858   2.550 -0.0710  0.5009  0.5873
  857SOL     OW 2569   1.183   0.274   1.690 -0.3273  0.4624 -0.2453
  857SOL    HW1 2570   1.153   0.286   1.787 -0.4807 -1.1129  0.5130
  857SOL    HW2 2571   1.100   0.293   1.633 -3.9979  1.3594  0.6949
  858SOL     OW 2572   3.007   2.097   1.688 -0.2091 -0.2629 -0.0197
  858SOL    HW1 2573   2.955   2.182   1.674  0.0272  1.6239  1.4202
  858SOL    HW2 2574   0.008   2.117   1.737  3.2594  0.7536  3.4525
  859SOL     OW 2575   1.917   2.911   1.910 -0.2568 -0.3889 -0.4182
  859SOL    HW1 2576   1.965   2.920   1.823  0.6835  0.3743  1.2549
  859SOL    HW2 2577   1.896   2.809   1.926  1.0878  1.4691 -1.3223
  860SOL     OW 2578   1.741   0.222   0.710  0.0328  0.3730 -0.1276
  860SOL    HW1 2579   1.778   0.306   0.760  1.3284  1.0817  1.6078
  860SOL    HW2 2580   1.823   0.180   0.666  0.0282  2.5641  1.0980
  861SOL     OW 2581   2.747   0.778   0.632  0.7982  0.3471 -0.1424
  861SOL    HW1 2582   2.770   0.682   0.661  0.5418 -0.6013  3.1632
  861SOL    HW2 2583   2.813   0.845   0.664 -3.7652 -1.5972  0.1196
  862SOL     OW 2584   2.006   0.850   1.862  0.0094 -0.2669 -0.2295
  862SOL    HW1 2585   1.982   0.754   1.846 -1.9334  2.0455 -1.1673
  862SOL    HW2 2586   2.063   0.885   1.783  0.4855  0.3658 -0.2528
  863SOL     OW 2587   0.794   0.906   0.916  0.4060 -0.5920 -0.0622
  863SOL    HW1 2588   0.705   0.909   0.965  0.2469 -0.5577 -0.1390
  863SOL    HW2 2589   0.836   0.815   0.939  0.8879  1.7660 -0.1825
  864SOL     OW 2590   2.930   2.904   2.188 -0.0795 -0.4865  0.2064
  864SOL    HW1 2591   2.886   2.821   2.234 -2.7587 -0.5141 -1.2715
  864SOL    HW2 2592   2.950   2.974   2.258 -1.4436 -1.7863  1.4220
  865SOL     OW 2593   1.282   0.526   2.341 -0.3740  0.2497  0.7515
  865SOL    HW1 2594   1.277   0.425   2.364 -1.2321 -2.7319 -0.4470
  865SOL    HW2 2595   1.344   0.574   2.410 -1.0082 -0.8546  0.7787
  866SOL     OW 2596   2.412   2.554   0.646  0.5282 -0.3666 -0.0670
  866SOL    HW1 2597   2.335   2.606   0.696 -0.6332  1.0536  0.1283
  866SOL    HW2 2598   2.483   2.509   0.702 -2.5114  1.1024  0.9714
  867SOL     OW 2599   2.591   2.950   0.614 -0.3334  0.0732  0.8698
  867SOL    HW1 2600   2.572   2.854   0.587 -1.3079  1.0010  1.6240
  867SOL    HW2 2601   2.562   3.018   0.541 -1.1181  1.2652 -2.6264
  868SOL     OW 2602   1.676   0.997   3.088  0.8096 -0.3698 -0.4976
  868SOL    HW1 2603   1.621   0.961   3.010 -0.8506  1.6337 -2.8039
  868SOL    HW2 2604   1.627   1.078   0.038  0.1745 -0.7690  0.7235
  869SOL     OW 2605   2.847   2.398   0.699  0.0726 -0.3461 -0.2360
  869SOL    HW1 2606   2.842   2.458   0.617 -2.2336 -1.3680 -2.1683
  869SOL    HW2 2607   2.751   2.386   0.732 -1.1526  1.8759 -0.1063
  870SOL     OW 2608   2.226   2.066   0.248 -0.1952  0.2197 -0.3072
  870SOL    HW1 2609   2.145   2.006   0.262  0.2027  2.3933 -1.6295
  870SOL    HW2 2610   2.306   2.009   0.272  1.8138  0.3411  0.2159
  871SOL     OW 2611   0.908   1.124   1.093 -0.1635 -0.5064  0.4806
  871SOL    HW1 2612   0.861   1.070   1.016 -1.7857  1.9482  1.1768
  871SOL    HW2 2613   0.893   1.074   1.182 -1.2137  1.2843 -2.7423
  872SOL     OW 2614   1.155   2.035   2.255 -0.5867 -0.0037  0.0948
  872SOL    HW1 2615   1.255   2.046   2.234 -0.4288 -0.2959  0.5563
  872SOL    HW2 2616   1.103   2.040   2.167  1.4303  0.0020  0.7254
  873SOL     OW 2617   0.537   2.301   2.010  0.1612 -0.2712  0.2833
  873SOL    HW1 2618   0.481   2.388   1.999  0.1991  3.0911  1.0700
  873SOL    HW2 2619   0.478   2.219   2.020  0.6618 -1.4726  0.6371
  874SOL     OW 2620   0.856   0.176   1.065  0.3532 -0.1080  0.4466
  874SOL    HW1 2621   0.867   0.265   1.017 -0.2490  2.9220  2.5888
  874SOL    HW2 2622   0.863   0.190   1.169  1.5925  0.2855  0.1491
  875SOL     OW 2623   2.887   0.361   1.217  0.2000 -0.5399 -0.1526
  875SOL    HW1 2624   2.947   0.427   1.280  2.2525  0.6430  4.5967
  875SOL    HW2 2625   2.828   0.306   1.283 -0.9230 -2.4795 -0.8447
  876SOL     OW 2626   0.465   0.737   0.094  0.5474  0.0931 -0.2888
  876SOL    HW1 2627   0.454   0.736   0.199 -0.0980  1.5771  1.6637
  876SOL    HW2 2628   0.403   0.812   0.063 -2.1750  1.5256  0.9875
  877SOL     OW 2629   1.045   0.630   1.437  0.3254 -0.0718  0.0750
  877SOL    HW1 2630   1.117   0.570   1.397 -0.2761  1.2222  0.6983
  877SOL    HW2 2631   1.084   0.693   1.509  0.4886  1.4091 -0.8829
  878SOL     OW 2632   1.956   2.572   0.235  0.3363  0.5765 -0.2512
  878SOL    HW1 2633   2.044   2.588   0.190 -1.1606 -0.1652  4.4626
  878SOL    HW2 2634   1.962   2.608   0.330  0.1753 -3.2304 -1.9149
  879SOL     OW 2635   2.672   1.411   1.283 -0.2830 -0.0553 -0.4936
  879SOL    HW1 2636   2.693   1.313   1.257  1.0528  0.5340 -0.8669
  879SOL    HW2 2637   2.570   1.427   1.288 -0.1008 -0.0273 -0.3163
  880SOL     OW 2638   1.430   2.443   0.607 -0.0242  0.5627 -0.2143
  880SOL    HW1 2639   1.489   2.362   0.626 -1.4807 -1.3401 -0.6242
  880SOL    HW2 2640   1.381   2.435   0.514 -3.3571 -1.8775  2.1696
  881SOL     OW 2641   0.858   2.059   0.326  0.2334  0.1984  0.9484
  881SOL    HW1 2642   0.952   2.087   0.354  0.2093  1.0336  0.1197
  881SOL    HW2 2643   0.850   2.013   0.235 -0.7274  0.5488  0.4127
  882SOL     OW 2644   1.985   0.909   1.365 -0.1524 -0.5341 -0.7866
  882SOL    HW1 2645   2.072   0.957   1.389 -0.9949 -1.7629 -0.1865
  882SOL    HW2 2646   1.902   0.958   1.399  0.4300 -1.8989  0.2135
  883SOL     OW 2647   1.738   1.015   1.707 -0.5618  0.3990  0.0966
  883SOL    HW1 2648   1.770   0.923   1.684 -1.8913  0.1365 -1.0472
  883SOL    HW2 2649   1.684   1.006   1.794 -0.5678  0.9265  0.0654
  884SOL     OW 2650   2.847   0.491   0.313  0.3478 -0.1727 -0.4883
  884SOL    HW1 2651   2.780   0.453   0.381  0.1673 -1.0587 -1.5491
  884SOL    HW2 2652   2.933   0.525   0.355 -1.2415  0.0294  0.7378
  885SOL     OW 2653   1.376   1.547   2.880 -0.3928  0.7879  0.4251
  885SOL    HW1 2654   1.416   1.604   2.806  0.7057 -0.5319  0.0112
  885SOL    HW2 2655   1.281   1.515   2.848 -0.7003 -0.1297 -1.8659
  886SOL     OW 2656   1.484   1.705   2.672  0.3313 -0.4150 -0.5672
  886SOL    HW1 2657   1.443   1.688   2.581  1.6196  1.3638  1.2751
  886SOL    HW2 2658   1.583   1.710   2.671  0.0487 -0.6582  0.3370
  887SOL     OW 2659   1.423   0.118   1.258  0.4448 -0.6669  0.2988
  887SOL    HW1 2660   1.515   0.159   1.219  1.3239  2.1259 -1.9721
  887SOL    HW2 2661   1.399   0.177   1.337 -0.7661  0.4990  0.7554
  888SOL     OW 2662   2.536   0.604   1.616  0.3534  0.5294 -0.4308
  888SOL    HW1 2663   2.640   0.605   1.611 -0.7758 -4.2725  2.7731
  888SOL    HW2 2664   2.502   0.640   1.525 -0.8521 -1.0239  4.6165
  889SOL     OW 2665   3.085   2.732   1.017 -0.2775 -0.0232  0.3200
  889SOL    HW1 2666   3.021   2.765   0.947 -0.9219 -0.1956  0.1844
  889SOL    HW2 2667   3.034   2.703   1.101 -1.0838  0.4916  1.8379
  890SOL     OW 2668   1.917   2.201   0.294  0.3184  0.2665 -0.7797
  890SOL    HW1 2669   1.821   2.218   0.326  0.9852 -0.8241 -0.7221
  890SOL    HW2 2670   1.928   2.257   0.207 -4.0347  3.0470  0.9254
  891SOL     OW 2671   0.548   1.117   2.702  0.0618  0.2603  0.0618
  891SOL    HW1 2672   0.484   1.077   2.638  2.0221 -1.7565  0.3754
  891SOL    HW2 2673   0.639   1.130   2.658 -2.1529 -1.0955  3.2963
  892SOL     OW 2674   3.046   0.090   1.430  0.4942  0.1013  0.0293
  892SOL    HW1 2675   3.018   0.187   1.411 -0.9650  0.9820 -2.2012
  892SOL    HW2 2676   2.979   0.024   1.386 -4.0357  0.4735 -0.2897
  893SOL     OW 2677   1.437   2.973   1.116 -0.3835  0.1892  0.4145
  893SOL    HW1 2678   1.425   3.061   1.165 -0.2541  1.5827 -1.1839
  893SOL    HW2 2679   1.498   2.994   1.036  2.9950  2.0614  0.2717
  894SOL     OW 2680   2.480   0.716   0.632 -0.6595  0.0340  0.1519
  894SOL    HW1 2681   2.582   0.726   0.657  1.7949 -0.1094  1.2288
  894SOL    HW2 2682   2.467   0.681   0.537 -2.3584  0.6296 -0.0800
  895SOL     OW 2683   1.866   1.510   2.496  0.3708  0.3477 -0.7563
  895SOL    HW1 2684   1.903   1.447   2.567 -1.2161 -0.1466 -0.7692
  895SOL    HW2 2685   1.937   1.543   2.429  0.9200  1.7391  0.8375
  896SOL     OW 2686   1.676   0.430   1.829 -0.1599  0.2053 -0.0406
  896SOL    HW1 2687   1.640   0.360   1.896  1.1579 -1.9331  1.6366
  896SOL    HW2 2688   1.644   0.406   1.732 -1.7064  0.0131 -3.1823
  897SOL     OW 2689   0.815   1.373   2.119  0.6121 -0.0618  0.0458
  897SOL    HW1 2690   0.870   1.295   2.081 -1.4226 -1.9337 -3.9842
  897SOL    HW2 2691   0.810   1.454   2.054  0.3439  0.4107  1.8949
  898SOL     OW 2692   2.254   2.346   2.227 -0.0093  0.1254  0.2999
  898SOL    HW1 2693   2.253   2.450   2.208  4.2194  1.1193 -1.0273
  898SOL    HW2 2694   2.350   2.318   2.237 -0.2442  1.9703  1.7961
  899SOL     OW 2695   1.183   1.318   1.710  0.4663  0.6213  0.3376
  899SOL    HW1 2696   1.090   1.274   1.705 -3.7634 -0.4931  2.0523
  899SOL    HW2 2697   1.227   1.327   1.616  0.5758  2.0091 -0.0820
  900SOL     OW 2698   1.089   2.086   2.593  0.2606 -0.3239 -0.1561
  900SOL    HW1 2699   1.137   1.995   2.605  1.1187 -3.0493  1.2694
  900SOL    HW2 2700   1.131   2.125   2.508  0.6223 -0.3343  0.8750
  901SOL     OW 2701   0.505   1.874   2.473  0.1726 -0.5882  0.0328
  901SOL    HW1 2702   0.436   1.810   2.437  1.1388  1.6238 -1.4183
  901SOL    HW2 2703   0.459   1.967   2.483 -0.9896 -0.0494  0.4071
  902SOL     OW 2704   1.943   1.768   0.071 -0.4624  0.1566  0.3984
  902SOL    HW1 2705   1.905   1.674   0.059  1.2032 -1.0676  1.3276
  902SOL    HW2 2706   2.030   1.759   0.120 -1.6910 -0.3281  2.3705
  903SOL     OW 2707   1.857   1.491   0.257  0.0555 -0.3093 -0.2290
  903SOL    HW1 2708   1.834   1.486   0.158  1.8052  2.7040  0.4283
  903SOL    HW2 2709   1.947   1.456   0.284 -2.0403 -1.3478  2.5874
  904SOL     OW 2710   0.837   0.744   2.706 -0.3291  0.2295 -0.5175
  904SOL    HW1 2711   0.847   0.640   2.685  0.6876 -2.6773 -1.4612
  904SOL    HW2 2712   0.898   0.777   2.783  1.1109  0.6629 -1.1610
  905SOL     OW 2713   2.720   0.447   1.006  0.6272 -0.0096 -0.2408
  905SOL    HW1 2714   2.650   0.383   0.965 -0.6129  1.2398 -1.2961
  905SOL    HW2 2715   2.768   0.402   1.082 -1.5493  1.6336 -0.3743
  906SOL     OW 2716   2.782   2.090   0.559 -0.0801  0.1649  0.3384
  906SOL    HW1 2717   2.852   2.027   0.597 -1.2128  1.3616  0.1132
  906SOL    HW2 2718   2.803   2.187   0.591  0.1805  2.8888  0.4925
  907SOL     OW 2719   1.494   0.455   0.420  0.0722  0.1338  0.0340
  907SOL    HW1 2720   1.513   0.395   0.504 -0.2839  1.6828  0.3461
  907SOL    HW2 2721   1.401   0.433   0.377 -1.1178 -1.0645  0.8946
  908SOL     OW 2722   1.699   0.071   1.671  0.2965  0.3362 -0.2920
  908SOL    HW1 2723   1.789   0.033   1.635  0.3273 -1.0952  0.7722
  908SOL    HW2 2724   1.703   0.060   1.772 -0.2699  0.2222  3.3693
  909SOL     OW 2725   2.465   0.745   1.374 -0.3090  0.4786 -0.1873
  909SOL    HW1 2726   2.534   0.744   1.298  1.8264  1.8253 -1.4246
  909SOL    HW2 2727   2.471   0.832   1.416 -1.2732 -3.1063 -2.0433
  910SOL     OW 2728   1.018   2.772   2.245 -0.3173  0.1303  0.1150
  910SOL    HW1 2729   1.010   2.753   2.340  1.2170 -0.3151 -1.2902
  910SOL    HW2 2730   0.971   2.697   2.190 -1.8637 -1.0178 -0.6807
  911SOL     OW 2731   2.414   0.883   1.781 -0.2025  0.9143  0.0464
  911SOL    HW1 2732   2.454   0.795   1.811  2.2358  1.5524 -0.3863
  911SOL    HW2 2733   2.317   0.870   1.753 -0.0937 -3.2798 -0.2146
  912SOL     OW 2734   2.803   2.080   1.425 -0.4110  0.4164  0.1757
  912SOL    HW1 2735   2.730   2.134   1.381  0.2148 -0.8375  0.5372
  912SOL    HW2 2736   2.782   2.058   1.525 -0.9424 -0.2003  3.4041
  913SOL     OW 2737   2.617   2.178   1.245 -0.6798 -0.1468 -0.2297
  913SOL    HW1 2738   2.521   2.144   1.240 -1.1746 -3.0049  2.7154
  913SOL    HW2 2739   2.650   2.215   1.156  1.5430  1.1953  0.1473
  914SOL     OW 2740   2.070   1.691   1.515  0.2377  0.6958 -0.3333
  914SOL    HW1 2741   2.147   1.662   1.453  1.5099  0.2183 -1.0591
  914SOL    HW2 2742   2.010   1.609   1.532 -2.5359  1.2375 -0.4491
  915SOL     OW 2743   1.342   1.330   1.477 -0.4359  0.0568  0.1660
  915SOL    HW1 2744   1.317   1.377   1.393  2.1330 -1.4103 -1.4088
  915SOL    HW2 2745   1.416   1.259   1.457  0.4135  0.3327 -2.2168
  916SOL     OW 2746   2.294   2.581   1.509 -0.6029  0.3503 -0.4030
  916SOL    HW1 2747   2.335   2.675   1.514  2.0476 -1.6895  0.2921
  916SOL    HW2 2748   2.241   2.562   1.593  3.3142 -1.1299 -0.8759
  917SOL     OW 2749   2.649   1.645   2.955  0.1912  0.2574  0.2453
  917SOL    HW1 2750   2.602   1.668   2.865  2.1280  0.4946 -1.2921
  917SOL    HW2 2751   2.621   1.550   2.981 -1.7400  1.4031 -0.8507
  918SOL     OW 2752   1.781   2.432   2.317 -0.2535  0.2813 -0.8378
  918SOL    HW1 2753   1.784   2.524   2.357  1.5906 -2.0163 -1.0595
  918SOL    HW2 2754   1.869   2.384   2.342 -0.3942  0.2781  0.1964
  919SOL     OW 2755   1.306   2.061   1.751  0.2374  0.2791 -0.0244
  919SOL    HW1 2756   1.243   2.101   1.684  1.7861 -0.6896 -0.2836
  919SOL    HW2 2757   1.341   1.971   1.723  0.5969  2.3735 -1.5640
  920SOL     OW 2758   2.915   0.235   2.863 -0.5693  0.3139 -0.3030
  920SOL    HW1 2759   3.003   0.297   2.859  0.8167  3.3054  0.8082
  920SOL    HW2 2760   2.870   0.246   2.956 -0.9265 -0.7956  0.5253
  921SOL     OW 2761   2.840   0.232   2.341 -0.7695  0.5290  0.4692
  921SOL    HW1 2762   2.866   0.262   2.434 -0.8161  1.6451  2.9858
  921SOL    HW2 2763   2.743   0.213   2.336 -1.8431  0.1069  0.6213
  922SOL     OW 2764   2.217   2.147   0.584 -0.0139 -0.3154  0.2397
  922SOL    HW1 2765   2.196   2.221   0.514 -2.6388  4.2827 -1.4925
  922SOL    HW2 2766   2.165   2.062   0.557 -0.8867 -2.9092 -2.2379
  923SOL     OW 2767   0.222   1.973   0.263 -0.3499 -0.2297 -0.5675
  923SOL    HW1 2768   0.269   1.998   0.179 -0.9006 -1.6540  1.8680
  923SOL    HW2 2769   0.273   2.016   0.339  1.5589  0.7755 -1.0499
  924SOL     OW 2770   1.357   0.323   2.934  0.5688 -0.2492  0.5405
  924SOL    HW1 2771   1.298   0.261   2.981  1.6843  1.5413 -2.4153
  924SOL    HW2 2772   1.429   0.268   2.885  1.3363 -1.3353  0.3818
  925SOL     OW 2773   2.556   1.119   0.745  0.1220 -0.3266  0.5319
  925SOL    HW1 2774   2.476   1.179   0.744  0.6171 -1.6410 -1.1838
  925SOL    HW2 2775   2.602   1.113   0.655 -0.0395  2.2717 -1.1984
  926SOL     OW 2776   2.708   1.149   0.975  0.2429 -0.3583  0.2603
  926SOL    HW1 2777   2.656   1.130   0.892  1.3174  0.7306  0.2163
  926SOL    HW2 2778   2.806   1.136   0.949  0.2990 -2.3258  0.8216
  927SOL     OW 2779   0.545   1.345   0.209  0.2100  0.2852  0.4514
  927SOL    HW1 2780   0.455   1.297   0.226  0.4174  2.6507 -0.0932
  927SOL    HW2 2781   0.590   1.319   0.122 -0.7745 -1.3740 -3.1968
  928SOL     OW 2782   0.104   0.446   2.212  0.4064  0.0241  0.0914
  928SOL    HW1 2783   0.158   0.468   2.126 -0.0618  2.4332 -2.0995
  928SOL    HW2 2784   0.164   0.399   2.280  1.7987 -0.5577  0.0602
  929SOL     OW 2785   2.845   3.066   1.301 -0.0830 -0.5960  0.0740
  929SOL    HW1 2786   2.824   3.017   1.212 -0.2729 -0.0356  2.0880
  929SOL    HW2 2787   2.770   0.045   1.313 -0.4863 -1.6646 -0.7794
  930SOL     OW 2788   1.959   1.911   1.617 -0.2146  0.0069 -0.0405
  930SOL    HW1 2789   2.027   1.841   1.582 -2.0247  0.1628 -1.1216
  930SOL    HW2 2790   1.903   1.866   1.689 -2.4467  1.6023 -0.1486
  931SOL     OW 2791   1.433   1.530   0.705  0.1516 -0.0546 -0.4810
  931SOL    HW1 2792   1.441   1.597   0.777 -0.7512 -0.5244 -1.4390
  931SOL    HW2 2793   1.458   1.576   0.619 -1.5259 -0.0681  0.0575
  932SOL     OW 2794   2.680   1.133   1.242 -0.9631  0.2315  0.0344
  932SOL    HW1 2795   2.714   1.048   1.285 -1.2221  0.1916  0.1090
  932SOL    HW2 2796   2.696   1.126   1.141 -2.1882  0.6032  0.2310
  933SOL     OW 2797   2.456   1.543   1.551  0.1072  0.2880  0.3628
  933SOL    HW1 2798   2.408   1.575   1.635  0.4459  0.5909  0.1870
  933SOL    HW2 2799   2.556   1.562   1.565  0.9418 -0.9211 -0.1460
  934SOL     OW 2800   1.672   0.189   1.158 -0.0289 -0.2486  0.1346
  934SOL    HW1 2801   1.661   0.140   1.070  2.2569 -2.8142 -3.4981
  934SOL    HW2 2802   1.768   0.224   1.181  0.6689  1.8350 -3.8386
  935SOL     OW 2803   0.418   1.605   1.012 -0.0156  0.3679 -0.0888
  935SOL    HW1 2804   0.460   1.526   1.068  0.6226  0.2449 -0.7172
  935SOL    HW2 2805   0.396   1.681   1.077 -1.0230  1.0487  0.1705
  936SOL     OW 2806   0.082   1.183   0.656 -0.5214  0.0807 -0.5644
  936SOL    HW1 2807   3.085   1.234   0.648  1.2309  0.2580  1.0888
  936SOL    HW2 2808   0.147   1.229   0.721 -0.9852  1.5946  1.4612
  937SOL     OW 2809   1.699   2.797   1.052  0.2278  0.0738  0.2925
  937SOL    HW1 2810   1.647   2.715   1.064  3.4031  1.9390 -0.4922
  937SOL    HW2 2811   1.677   2.842   0.959 -1.8377  1.5256 -1.1730
  938SOL     OW 2812   2.499   2.487   1.032  0.0932  0.1398  0.0962
  938SOL    HW1 2813   2.465   2.584   1.020 -0.3512  1.3799 -1.2508
  938SOL    HW2 2814   2.423   2.418   1.017  0.7294 -1.5245  0.1067
  939SOL     OW 2815   0.227   2.328   3.048  0.2074  0.0499 -0.1612
  939SOL    HW1 2816   0.324   2.301   3.032 -0.2299 -2.1479 -0.0068
  939SOL    HW2 2817   0.177   2.266   0.017 -0.3966 -1.0482  0.0178
  940SOL     OW 2818   2.911   2.931   3.057  0.1741  0.7652  0.1214
  940SOL    HW1 2819   2.871   2.887   0.053  1.1213 -0.5660  1.6927
  940SOL    HW2 2820   2.986   2.878   3.016  0.2093 -1.9765  1.4664
  941SOL     OW 2821   0.857   2.897   2.996 -0.0971  0.2075 -0.1238
  941SOL    HW1 2822   0.855   2.809   2.945 -0.6844 -1.3204  1.7525
  941SOL    HW2 2823   0.842   2.878   0.000  1.3851 -2.2077 -4.2898
  942SOL     OW 2824   1.393   1.797   1.652  0.4859 -0.2195 -0.1233
  942SOL    HW1 2825   1.483   1.839   1.643 -1.2137  0.4608 -2.6874
  942SOL    HW2 2826   1.392   1.702   1.607  2.6252  0.5752 -1.5042
  943SOL     OW 2827   2.114   1.251   1.561  0.4410  0.5598  0.3737
  943SOL    HW1 2828   2.069   1.296   1.482 -0.3784  1.2110 -0.2361
  943SOL    HW2 2829   2.050   1.252   1.641  0.5391  1.3655 -2.4586
  944SOL     OW 2830   2.129   0.718   1.511 -0.3332  0.2600 -0.1033
  944SOL    HW1 2831   2.059   0.744   1.440  1.7978  1.0408 -1.4546
  944SOL    HW2 2832   2.154   0.620   1.489 -1.5879  0.4715  3.4592
  945SOL     OW 2833   0.185   2.900   1.126  0.0081  0.0324 -0.1983
  945SOL    HW1 2834   0.118   2.827   1.109  0.6203  1.9464  2.0201
  945SOL    HW2 2835   0.184   2.931   1.225  0.4664  0.4856  0.3599
  946SOL     OW 2836   0.610   0.680   1.236 -0.1659 -0.1514  0.0895
  946SOL    HW1 2837   0.568   0.586   1.235 -2.9321 -1.7702  0.3953
  946SOL    HW2 2838   0.576   0.732   1.155 -1.0779  0.6297 -2.6213
  947SOL     OW 2839   0.515   2.667   0.633  0.4411 -0.0150  0.2848
  947SOL    HW1 2840   0.465   2.681   0.544 -0.2228 -1.7060 -2.6012
  947SOL    HW2 2841   0.481   2.737   0.704 -1.6577 -0.2253 -0.3651
  948SOL     OW 2842   0.015   1.441   1.673 -0.3623 -0.4307  0.6385
  948SOL    HW1 2843   0.007   1.427   1.574 -0.6876  2.7709  2.3485
  948SOL    HW2 2844   0.085   1.379   1.719 -1.4719 -0.0972 -1.4683
  949SOL     OW 2845   0.475   1.006   2.426 -0.4050 -0.4039 -0.9001
  949SOL    HW1 2846   0.568   0.989   2.387 -1.0085 -1.3510 -0.2988
  949SOL    HW2 2847   0.431   0.918   2.440 -0.0271 -2.9274 -1.3362
  950SOL     OW 2848   0.918   0.386   0.933  0.2191  0.1531 -0.2315
  950SOL    HW1 2849   0.900   0.488   0.924  1.1892  2.7574 -2.2518
  950SOL    HW2 2850   1.015   0.365   0.945 -2.5578 -2.7334 -0.0415
  951SOL     OW 2851   0.984   2.040   2.068 -0.4915  0.0746  0.0153
  951SOL    HW1 2852   0.999   2.031   1.966 -1.1150 -1.0986 -0.2898
  951SOL    HW2 2853   0.899   2.090   2.089 -1.5136  0.4976 -0.2762
  952SOL     OW 2854   0.408   1.841   2.830 -0.1047 -0.2174  0.0173
  952SOL    HW1 2855   0.512   1.846   2.813 -0.5270  1.2150 -1.3151
  952SOL    HW2 2856   0.382   1.771   2.895  3.4184 -1.4042 -1.2980
  953SOL     OW 2857   1.873   0.005   2.283  0.5846  0.0646 -0.6405
  953SOL    HW1 2858   1.965   3.088   2.331  2.0569  0.5734 -0.0580
  953SOL    HW2 2859   1.882   0.045   2.190  0.3542  0.9002  1.4801
  954SOL     OW 2860   1.588   1.311   0.753 -0.2805 -0.1235  0.7383
  954SOL    HW1 2861   1.601   1.280   0.650  0.5510 -0.4752 -1.3053
  954SOL    HW2 2862   1.537   1.401   0.751 -1.5635  0.6194  1.4571
  955SOL     OW 2863   0.311   2.251   2.252  0.0694  0.0384  0.3948
  955SOL    HW1 2864   0.299   2.201   2.162 -0.8845  1.3143 -0.5534
  955SOL    HW2 2865   0.222   2.293   2.283 -1.6452 -1.4406 -1.0233
  956SOL     OW 2866   1.839   0.768   1.598 -0.3699 -0.4454 -0.4332
  956SOL    HW1 2867   1.766   0.724   1.544  1.3260 -2.6974  0.6570
  956SOL    HW2 2868   1.889   0.696   1.650  0.8597 -3.6328 -0.9934
  957SOL     OW 2869   2.201   1.646   2.718 -0.6801 -0.1337 -0.1710
  957SOL    HW1 2870   2.233   1.581   2.646 -0.9234 -0.3612 -0.5843
  957SOL    HW2 2871   2.147   1.715   2.677  2.2839  1.1548  0.2935
  958SOL     OW 2872   1.081   2.385   0.880 -0.9024  0.4108 -0.2696
  958SOL    HW1 2873   1.004   2.452   0.893 -1.1786 -3.8904  1.6052
  958SOL    HW2 2874   1.125   2.354   0.968 -1.2624  2.5376 -0.3053
  959SOL     OW 2875   1.737   2.037   2.539  0.1706  0.1309  0.3166
  959SOL    HW1 2876   1.654   1.982   2.561 -2.4911 -3.6895 -0.0057
  959SOL    HW2 2877   1.785   1.997   2.459  0.1131  0.3207 -0.1381
  960SOL     OW 2878   0.055   0.364   2.899  0.2249 -0.2165  0.1416
  960SOL    HW1 2879   0.108   0.411   2.824 -0.0863  2.3663 -3.0650
  960SOL    HW2 2880   0.102   0.373   2.990 -1.1891 -2.3980  0.7791
  961SOL     OW 2881   0.739   0.920   2.329  0.3933 -0.0039 -0.2058
  961SOL    HW1 2882   0.832   0.942   2.375 -0.1312  0.1071  3.2069
  961SOL    HW2 2883   0.731   0.815   2.318 -0.2686 -1.0832 -1.6981
  962SOL     OW 2884   0.960   1.335   3.060  0.6577  0.0615  0.5066
  962SOL    HW1 2885   1.056   1.312   3.063 -0.9717  3.5136 -0.4405
  962SOL    HW2 2886   0.933   1.378   0.058 -0.4557  2.2457  0.6971
  963SOL     OW 2887   2.212   1.641   2.986  0.6013 -0.2944  0.2996
  963SOL    HW1 2888   2.201   1.640   2.885  1.3826  0.8455  2.0919
  963SOL    HW2 2889   2.232   1.738   3.017  1.2492  1.8267  1.6787
  964SOL     OW 2890   1.517   2.562   1.018 -0.5479  0.5647  0.5012
  964SOL    HW1 2891   1.429   2.552   0.962 -1.3867 -0.3340  1.1358
  964SOL    HW2 2892   1.493   2.541   1.115  0.1060 -1.9556  1.6924
  965SOL     OW 2893   0.901   2.179   1.191 -0.0012 -0.3239  0.4891
  965SOL    HW1 2894   0.908   2.122   1.274  1.5716  0.8511  0.7178
  965SOL    HW2 2895   0.833   2.133   1.130 -1.9420  0.3888 -1.0283
  966SOL     OW 2896   0.086   1.515   3.089  0.0154 -0.3743 -0.0006
  966SOL    HW1 2897   3.087   1.479   3.053 -0.6514  0.9159 -1.0446
  966SOL    HW2 2898   0.119   1.463   0.078  0.5189 -2.0185 -0.9584
  967SOL     OW 2899   1.537   0.114   2.119 -0.0510  0.0477  0.1123
  967SOL    HW1 2900   1.488   0.036   2.165 -0.6208 -2.9769  1.1220
  967SOL    HW2 2901   1.590   0.070   2.043  0.3440 -0.9951 -4.3413
  968SOL     OW 2902   1.960   0.875   0.952 -0.6477 -0.2881  0.1410
  968SOL    HW1 2903   2.018   0.880   1.039  0.7435  3.9325  0.0376
  968SOL    HW2 2904   1.866   0.924   0.964 -3.9146 -1.2330  0.9561
  969SOL     OW 2905   0.178   1.648   1.959 -0.2205 -0.1795 -0.0433
  969SOL    HW1 2906   0.273   1.666   1.918 -0.7072  3.3433  1.1795
  969SOL    HW2 2907   0.112   1.670   1.883  1.0958  0.4361  0.7913
  970SOL     OW 2908   2.536   1.503   0.907 -0.5724 -0.0695  0.7067
  970SOL    HW1 2909   2.506   1.440   0.980 -1.0834 -2.3499 -2.7581
  970SOL    HW2 2910   2.457   1.520   0.846  2.3109 -1.7926  2.2796
  971SOL     OW 2911   0.963   0.346   1.564 -0.4272 -0.0964 -0.0540
  971SOL    HW1 2912   0.945   0.445   1.543 -1.5074 -1.0285  1.9903
  971SOL    HW2 2913   0.895   0.293   1.620  0.4313  0.9235  0.9595
  972SOL     OW 2914   0.881   0.446   2.400  0.2044 -0.1397  0.3609
  972SOL    HW1 2915   0.979   0.445   2.383 -4.0388 -0.2469  2.1178
  972SOL    HW2 2916   0.843   0.539   2.377 -1.1786  0.7735  2.1883
  973SOL     OW 2917   0.543   1.429   1.172 -0.6508  0.0346  0.3965
  973SOL    HW1 2918   0.513   1.332   1.195  1.1671 -0.3847  2.5681
  973SOL    HW2 2919   0.642   1.423   1.158 -3.0574 -1.3142  0.9272
  974SOL     OW 2920   2.157   1.247   2.003  0.6497 -0.2589 -0.2467
  974SOL    HW1 2921   2.098   1.318   1.964  1.4346 -1.0487  0.9441
  974SOL    HW2 2922   2.198   1.200   1.926 -3.0403  0.4664  4.1039
  975SOL     OW 2923   2.545   0.071   0.424 -0.3598  0.1052  0.0587
  975SOL    HW1 2924   2.531   0.044   0.326  1.2354  0.2326  0.9926
  975SOL    HW2 2925   2.646   0.087   0.435  1.0946  0.9617  0.7862
  976SOL     OW 2926   0.010   1.700   1.745  0.5345  0.1397  0.1614
  976SOL    HW1 2927   3.087   1.600   1.709 -0.8818 -5.6516  0.2040
  976SOL    HW2 2928   0.000   1.773   1.681 -1.5308  1.1760  1.4146
  977SOL     OW 2929   0.646   2.715   0.164  1.0237 -0.1741  0.3275
  977SOL    HW1 2930   0.585   2.797   0.163  0.6822 -0.8568  1.2154
  977SOL    HW2 2931   0.742   2.746   0.191  1.3022  1.5667 -0.2441
  978SOL     OW 2932   0.803   1.630   3.091  0.2764  0.1969  0.2163
  978SOL    HW1 2933   0.701   1.610   3.082  0.0322 -0.8726  1.1906
  978SOL    HW2 2934   0.834   1.589   0.084  1.1396 -0.7285 -3.3156
  979SOL     OW 2935   1.560   1.779   1.308 -0.0152 -0.1279 -0.6107
  979SOL    HW1 2936   1.638   1.840   1.283  0.9827 -1.6896  0.4121
  979SOL    HW2 2937   1.481   1.826   1.352  1.3814  2.5721 -1.3342
  980SOL     OW 2938   0.479   1.299   2.211  0.3142 -0.0944 -0.3697
  980SOL    HW1 2939   0.513   1.203   2.208  0.4267  1.9328 -3.9657
  980SOL    HW2 2940   0.387   1.318   2.170 -0.3334 -0.5713 -1.3590
  981SOL     OW 2941   0.133   1.390   0.221 -0.4262  0.3080 -0.5118
  981SOL    HW1 2942   0.098   1.426   0.309  1.6622 -0.3601  0.0292
  981SOL    HW2 2943   0.209   1.317   0.231  1.0256 -1.0992  2.9847
  982SOL     OW 2944   2.496   2.614   2.748  0.0110 -0.0144  0.0246
  982SOL    HW1 2945   2.474   2.651   2.658  0.6553  1.7116  0.8260
  982SOL    HW2 2946   2.531   2.689   2.802 -1.6121 -2.4128 -0.4504
  983SOL     OW 2947   1.816   0.374   1.383 -0.7758  0.6556 -0.2272
  983SOL    HW1 2948   1.785   0.468   1.407  1.4658 -2.9181  1.3793
  983SOL    HW2 2949   1.912   0.360   1.352 -1.0719 -0.5678 -2.7046
  984SOL     OW 2950   1.005   0.104   2.444 -0.2071  0.0905 -0.6955
  984SOL    HW1 2951   0.927   0.081   2.380 -0.9992 -2.1345 -1.5436
  984SOL    HW2 2952   1.083   0.145   2.391  1.0806 -0.7394  1.1140
  985SOL     OW 2953   1.591   2.161   1.781 -0.0737 -0.0139 -0.7232
  985SOL    HW1 2954   1.616   2.251   1.823 -4.1674 -1.1829  0.1667
  985SOL    HW2 2955   1.491   2.152   1.779  1.6987  0.9725 -0.9558
  986SOL     OW 2956   2.146   3.076   2.401 -0.1242  0.2549 -0.3807
  986SOL    HW1 2957   2.182   3.050   2.312 -1.4089 -1.2188 -0.6075
  986SOL    HW2 2958   2.163   0.081   2.424 -0.1809  0.8420  3.3318
  987SOL     OW 2959   2.725   0.431   2.178  0.1958  0.1216 -0.1169
  987SOL    HW1 2960   2.783   0.366   2.232  0.9073  3.3228  1.4699
  987SOL    HW2 2961   2.632   0.432   2.218  1.1263  3.3979  1.2024
  988SOL     OW 2962   2.493   0.434   2.345  0.7986  0.2255 -0.1118
  988SOL    HW1 2963   2.507   0.407   2.443  0.3546 -0.8811 -1.1699
  988SOL    HW2 2964   2.488   0.535   2.334 -2.7077  0.3008  1.5329
  989SOL     OW 2965   2.029   2.291   2.382 -0.2863  0.3705  0.1688
  989SOL    HW1 2966   2.120   2.305   2.338  0.5087 -0.2657  1.2898
  989SOL    HW2 2967   2.035   2.292   2.478 -2.0859  2.3518 -0.5133
  990SOL     OW 2968   0.351   1.101   2.943  0.3238 -0.0489 -0.4086
  990SOL    HW1 2969   0.325   1.196   2.972  1.5794 -0.7486  1.2631
  990SOL    HW2 2970   0.441   1.099   2.896  1.5823 -0.8829  3.0154
  991SOL     OW 2971   0.806   1.149   2.580  0.4075 -0.0946  0.1548
  991SOL    HW1 2972   0.858   1.083   2.526  1.4293 -0.3528  1.7487
  991SOL    HW2 2973   0.772   1.222   2.514  3.9694  2.7241  0.9199
  992SOL     OW 2974   2.781   2.017   1.931  0.3450  0.0035 -0.5549
  992SOL    HW1 2975   2.796   2.119   1.929 -1.6686  0.7290  0.2291
  992SOL    HW2 2976   2.871   1.962   1.932  2.2334 -1.8693  2.2649
  993SOL     OW 2977   0.613   0.206   0.774  0.1466  0.3443 -0.3756
  993SOL    HW1 2978   0.691   0.263   0.739 -0.0589  1.1767  1.1144
  993SOL    HW2 2979   0.638   0.109   0.782 -1.6160 -1.5154 -1.5625
  994SOL     OW 2980   0.385   2.051   1.532 -0.6718 -0.4016 -0.1653
  994SOL    HW1 2981   0.375   1.949   1.518 -1.1819  0.0075  0.0134
  994SOL    HW2 2982   0.348   2.103   1.451  0.0975 -2.3463  2.3173
  995SOL     OW 2983   2.293   1.603   2.440 -0.3499 -0.1084  0.2253
  995SOL    HW1 2984   2.311   1.502   2.435  2.8588  0.2710 -0.1089
  995SOL    HW2 2985   2.335   1.651   2.361  1.6868 -0.9507  1.7422
  996SOL     OW 2986   1.940   1.331   2.672 -0.6269  0.5142  0.5651
  996SOL    HW1 2987   1.960   1.366   2.767  0.5998 -0.1128  1.3989
  996SOL    HW2 2988   1.862   1.266   2.678  1.5172  1.1242  0.7168
  997SOL     OW 2989   1.662   1.250   1.912 -0.1897 -0.0800 -0.0255
  997SOL    HW1 2990   1.632   1.154   1.915 -1.3207  1.9730  1.2220
  997SOL    HW2 2991   1.703   1.280   2.001  1.3797  0.4499  1.1556
  998SOL     OW 2992   2.459   2.126   0.767 -0.6028 -0.0865 -0.0241
  998SOL    HW1 2993   2.369   2.145   0.733  1.0796 -0.3305  0.8322
  998SOL    HW2 2994   2.464   2.028   0.791  0.4206 -0.1186 -1.1896
  999SOL     OW 2995   2.262   2.271   0.062 -0.3943 -0.1638  0.5098
  999SOL    HW1 2996   2.162   2.297   0.061 -2.8845 -1.0248  1.9928
  999SOL    HW2 2997   2.264   2.190   0.119  0.5656 -1.5591 -0.7784
 1000SOL     OW 2998   0.693   3.013   2.450 -0.0206 -0.8262  0.3701
 1000SOL    HW1 2999   0.673   0.021   2.452  0.0359 -0.7015 -0.3710
 1000SOL    HW2 3000   0.669   2.965   2.537 -2.7363 -1.2205  0.4620
   3.09216   3.09216   3.09216
