1000 SPC/Fw water molecules t= 270.00000 step= 270000
 3000
    1SOL     OW    1   2.777   2.490   1.062  0.2720  0.2009 -0.4066
    1SOL    HW1    2   2.873   2.510   1.090 -0.1186  1.6371 -0.3449
    1SOL    HW2    3   2.728   2.575   1.058  1.9498 -0.7029 -0.2979
    2SOL     OW    4   1.904   1.982   1.070 -0.0287  0.5361 -0.0498
    2SOL    HW1    5   1.979   2.009   1.005 -2.6463  1.3242 -0.4972
    2SOL    HW2    6   1.946   1.952   1.160  2.1812 -0.4931  3.8954
    3SOL     OW    7   1.136   2.835   0.026  0.6501  0.1426  0.1858
    3SOL    HW1    8   1.088   2.905   3.073  1.2309  0.4777 -2.7317
    3SOL    HW2    9   1.146   2.748   3.085  0.4623 -0.7408  3.2860
    4SOL     OW   10   1.988   1.899   1.315 -0.2709 -0.7948 -0.2212
    4SOL    HW1   11   1.891   1.902   1.341  2.1306 -0.4576 -2.2100
    4SOL    HW2   12   2.040   1.947   1.390 -1.1233 -1.5575 -0.5283
    5SOL     OW   13   1.238   1.046   1.478  0.3141  0.5491  0.8040
    5SOL    HW1   14   1.198   1.003   1.392 -3.2667  0.5231 -2.4925
    5SOL    HW2   15   1.299   1.126   1.453 -0.1764  0.0564 -0.2040
    6SOL     OW   16   2.744   0.078   3.057 -0.4088  0.2447  1.1483
    6SOL    HW1   17   2.666   0.075   2.988 -0.3689  1.1217 -0.3689
    6SOL    HW2   18   2.796   0.163   3.044 -3.5047 -2.5588 -0.1793
    7SOL     OW   19   2.867   1.252   1.267 -0.1640 -0.6878 -0.3322
    7SOL    HW1   20   2.767   1.266   1.261  2.8506  0.4026 -2.6403
    7SOL    HW2   21   2.900   1.310   1.191 -1.0711 -1.4551  0.5654
    8SOL     OW   22   1.321   2.921   1.031  0.2617  0.3826  0.4806
    8SOL    HW1   23   1.358   2.991   0.966 -0.4530 -3.5404  0.3980
    8SOL    HW2   24   1.315   2.959   1.125  3.1570 -0.7449 -2.6215
    9SOL     OW   25   1.809   0.049   2.149 -0.1756 -0.8437 -0.3917
    9SOL    HW1   26   1.749   3.096   2.087  2.4628 -1.3200  0.7341
    9SOL    HW2   27   1.781   0.148   2.137 -1.2654 -3.6280 -2.2627
   10SOL     OW   28   0.850   2.331   0.877  0.1087 -0.0455 -0.2350
   10SOL    HW1   29   0.754   2.333   0.841 -0.4487 -1.8821 -0.6207
   10SOL    HW2   30   0.864   2.412   0.939 -0.5334  0.5609 -0.5987
   11SOL     OW   31   1.484   1.548   0.295  0.0106  0.3469  0.2791
   11SOL    HW1   32   1.397   1.501   0.322 -2.6145 -1.8585 -0.0641
   11SOL    HW2   33   1.470   1.650   0.301  1.1473 -0.9366  2.6128
   12SOL     OW   34   2.799   2.644   1.852 -0.1018 -0.5360 -0.1487
   12SOL    HW1   35   2.847   2.558   1.821  2.5679  0.1417 -1.1724
   12SOL    HW2   36   2.837   2.717   1.791 -0.6570  0.6922 -2.6600
   13SOL     OW   37   1.873   0.043   0.561 -0.0961  0.4308  0.5052
   13SOL    HW1   38   1.823   0.134   0.568  4.6516  1.4764 -2.0405
   13SOL    HW2   39   1.968   0.059   0.580 -2.9467 -3.1396 -1.6973
   14SOL     OW   40   1.314   2.653   1.120  0.4060 -0.0296  0.2333
   14SOL    HW1   41   1.270   2.572   1.074  0.9205  2.9888 -0.9300
   14SOL    HW2   42   1.296   2.736   1.063  0.3766 -0.2817 -1.6511
   15SOL     OW   43   3.016   1.685   1.612  0.5024  0.9135 -0.3204
   15SOL    HW1   44   3.088   1.728   1.667  1.0633  1.6835  1.4469
   15SOL    HW2   45   3.040   1.676   1.513  1.9533 -0.0735 -1.8349
   16SOL     OW   46   1.943   2.304   0.421 -0.3930 -0.4194 -0.2438
   16SOL    HW1   47   1.891   2.269   0.504  0.9609 -1.2110 -1.4719
   16SOL    HW2   48   2.036   2.265   0.433 -2.9041  0.4579 -1.8234
   17SOL     OW   49   0.904   2.997   1.635  0.1894 -0.2393  0.0065
   17SOL    HW1   50   0.897   3.068   1.708  1.9089  2.0625 -1.9601
   17SOL    HW2   51   0.963   3.034   1.556  1.4447  1.4089 -0.1475
   18SOL     OW   52   1.374   0.921   0.001 -0.5110 -0.2424  0.0493
   18SOL    HW1   53   1.353   0.999   0.065 -2.3239  1.5439  1.1007
   18SOL    HW2   54   1.440   0.948   3.036 -2.7897  1.1288  0.6416
   19SOL     OW   55   1.746   1.994   2.724 -0.0951  0.5104  0.4118
   19SOL    HW1   56   1.821   1.930   2.728 -2.0415  5.0486 -2.3454
   19SOL    HW2   57   1.771   2.084   2.769  1.3766 -0.3207 -0.8679
   20SOL     OW   58   2.158   1.735   1.944  0.6226  0.3099  0.0727
   20SOL    HW1   59   2.187   1.819   1.891 -0.2750  0.5292 -2.0867
   20SOL    HW2   60   2.186   1.651   1.891 -0.5764 -1.0382  1.0960
   21SOL     OW   61   0.782   1.525   0.442 -0.6561 -0.1537 -0.1587
   21SOL    HW1   62   0.817   1.483   0.359  0.4093 -1.7572 -2.1896
   21SOL    HW2   63   0.760   1.624   0.430 -1.9411  1.1346 -0.5756
   22SOL     OW   64   2.003   0.048   1.323 -0.2734 -0.1370 -0.1932
   22SOL    HW1   65   1.954   0.039   1.238  1.6283  0.1089  0.1886
   22SOL    HW2   66   2.089   3.104   1.317  0.6412  2.2215 -0.2878
   23SOL     OW   67   2.921   0.780   1.913 -0.6763 -0.7176 -0.6889
   23SOL    HW1   68   2.898   0.833   1.828 -1.4556  0.9650 -1.9886
   23SOL    HW2   69   2.874   0.824   1.995 -0.8165  2.0020  0.4970
   24SOL     OW   70   2.334   2.572   0.240 -0.2184 -0.0503 -0.2657
   24SOL    HW1   71   2.423   2.542   0.196  1.2821 -1.1129  0.1676
   24SOL    HW2   72   2.259   2.548   0.176 -2.2059  0.0549 -5.0803
   25SOL     OW   73   1.440   3.103   2.544 -0.6318 -0.0197 -1.0258
   25SOL    HW1   74   1.368   0.022   2.482  3.2490 -0.8959  1.0050
   25SOL    HW2   75   1.530   0.012   2.504  0.8379  0.4400  1.5041
   26SOL     OW   76   1.609   2.499   0.134  0.8261 -0.2996 -0.2315
   26SOL    HW1   77   1.564   2.517   0.045  1.3438  1.3947  3.2820
   26SOL    HW2   78   1.624   2.587   0.188 -1.6904 -0.4525 -0.5906
   27SOL     OW   79   2.744   1.987   0.014  0.3461  0.1530  0.0849
   27SOL    HW1   80   2.720   1.899   3.069  0.7340  0.9654  0.1808
   27SOL    HW2   81   2.798   2.053   3.065  2.0700  1.8792  0.6849
   28SOL     OW   82   0.241   0.951   1.840  0.8322  0.1571 -0.0259
   28SOL    HW1   83   0.220   0.868   1.782  0.7196 -2.2610  0.1280
   28SOL    HW2   84   0.192   0.950   1.935  0.5783 -1.5618  3.2570
   29SOL     OW   85   2.494   2.239   1.415  0.2552 -0.0656  0.0780
   29SOL    HW1   86   2.432   2.291   1.476 -0.6326  0.0389 -0.5117
   29SOL    HW2   87   2.571   2.292   1.382 -2.4749 -0.8319  2.0391
   30SOL     OW   88   1.666   0.412   0.396 -0.1398  0.0221 -0.0763
   30SOL    HW1   89   1.620   0.491   0.352 -0.4752 -1.0436 -1.1394
   30SOL    HW2   90   1.734   0.375   0.329  3.7604 -0.9729  1.1950
   31SOL     OW   91   2.424   2.524   1.760  0.0227 -0.4399  0.4241
   31SOL    HW1   92   2.416   2.546   1.858  0.8795  0.5522 -1.6434
   31SOL    HW2   93   2.439   2.609   1.705  0.6434 -0.0651  2.3701
   32SOL     OW   94   0.817   1.824   1.110 -0.2276 -0.6448 -0.1457
   32SOL    HW1   95   0.842   1.902   1.048 -1.0356  2.1950 -3.6299
   32SOL    HW2   96   0.745   1.851   1.176 -2.6058  1.3812 -0.6588
   33SOL     OW   97   0.614   3.018   2.655 -0.9851 -0.4375 -0.2590
   33SOL    HW1   98   0.599   2.948   2.578 -0.7580 -0.1753 -3.2517
   33SOL    HW2   99   0.596   2.978   2.748  1.4014  1.6478 -0.1234
   34SOL     OW  100   1.352   2.907   0.660 -0.3570  0.2123  0.0771
   34SOL    HW1  101   1.377   2.969   0.735  0.8863 -1.3262  0.7747
   34SOL    HW2  102   1.423   2.912   0.589 -1.4749 -0.4470  0.8408
   35SOL     OW  103   2.016   2.922   1.076  0.0993 -0.2487 -0.9904
   35SOL    HW1  104   2.068   2.947   0.994  0.9204  0.5752 -1.4343
   35SOL    HW2  105   1.930   2.983   1.078 -2.0897  2.0746  0.9584
   36SOL     OW  106   2.072   2.558   2.494 -0.5008 -0.7096 -0.0578
   36SOL    HW1  107   2.052   2.547   2.591 -0.3532 -2.9754  0.5061
   36SOL    HW2  108   1.990   2.548   2.435  0.5132  1.7849  0.3210
   37SOL     OW  109   0.939   0.062   2.321 -0.5635 -0.1350  0.2103
   37SOL    HW1  110   0.894   0.056   2.229 -1.4201 -0.5592 -2.5985
   37SOL    HW2  111   0.911   0.140   2.375 -0.2920  0.3100  0.4977
   38SOL     OW  112   0.138   2.547   2.617  0.5476 -0.1931  0.4670
   38SOL    HW1  113   0.109   2.637   2.580 -2.4136  0.7923 -2.0478
   38SOL    HW2  114   0.214   2.507   2.568 -0.1652  0.6118 -1.7987
   39SOL     OW  115   2.209   1.125   1.670  0.2723  0.3482  0.0083
   39SOL    HW1  116   2.145   1.129   1.590 -1.8491  0.6134 -0.4546
   39SOL    HW2  117   2.170   1.173   1.749 -2.1076 -2.3972 -1.5461
   40SOL     OW  118   0.757   2.992   0.219  0.1418 -0.2784 -0.3340
   40SOL    HW1  119   0.669   2.943   0.217  0.0647  2.2138  0.0764
   40SOL    HW2  120   0.759   3.054   0.304 -4.5786  4.0010  1.1900
   41SOL     OW  121   2.245   1.243   1.262  0.8710 -0.3116 -0.1574
   41SOL    HW1  122   2.317   1.206   1.207 -2.8565  3.6150  2.0311
   41SOL    HW2  123   2.156   1.192   1.256  1.1572  0.1574 -1.1000
   42SOL     OW  124   0.406   0.561   1.028  0.3355  0.2444  0.4827
   42SOL    HW1  125   0.440   0.645   1.074  3.9212 -2.6534  1.5562
   42SOL    HW2  126   0.328   0.522   1.082 -1.5488 -2.0335  0.7951
   43SOL     OW  127   2.378   1.586   2.691  0.5525  0.5170 -0.1826
   43SOL    HW1  128   2.374   1.499   2.748  0.1954 -0.3567  0.3930
   43SOL    HW2  129   2.285   1.626   2.678  1.3392  0.7357 -0.5685
   44SOL     OW  130   2.691   3.071   1.303 -0.3497  0.0365 -0.0418
   44SOL    HW1  131   2.770   3.020   1.347  0.6048 -0.6449 -1.3252
   44SOL    HW2  132   2.716   0.064   1.284  3.8867  0.3038 -0.8381
   45SOL     OW  133   0.490   2.696   1.688  0.2363  0.2190 -0.2879
   45SOL    HW1  134   0.431   2.776   1.666 -3.7055 -1.2544  1.6454
   45SOL    HW2  135   0.585   2.721   1.654  0.6934  2.2192 -0.4202
   46SOL     OW  136   2.068   0.130   2.444 -0.0618 -0.2340 -0.0354
   46SOL    HW1  137   2.140   0.081   2.393  1.5860  3.4200  1.7204
   46SOL    HW2  138   2.106   0.161   2.533  2.1468  0.2174 -0.6203
   47SOL     OW  139   2.134   1.863   0.590  0.3880 -0.1785  0.4820
   47SOL    HW1  140   2.126   1.814   0.677  2.0417  0.1711 -1.7343
   47SOL    HW2  141   2.053   1.848   0.529  0.9616 -1.3769 -0.8386
   48SOL     OW  142   0.701   2.103   0.487 -0.5434 -0.3830 -0.1245
   48SOL    HW1  143   0.624   2.169   0.457 -1.7722  0.0889 -1.2886
   48SOL    HW2  144   0.761   2.089   0.407  0.5615  1.2772 -3.0522
   49SOL     OW  145   2.599   0.241   2.363  0.2444  0.1560 -0.0556
   49SOL    HW1  146   2.655   0.182   2.302  0.9647 -0.9909  1.2234
   49SOL    HW2  147   2.531   0.186   2.423 -0.5456 -2.5612  0.1046
   50SOL     OW  148   1.877   0.830   0.209 -0.0416  0.3742  0.0431
   50SOL    HW1  149   1.887   0.910   0.271 -0.3121  0.1484  0.2519
   50SOL    HW2  150   1.778   0.824   0.188 -1.8069 -0.6489 -2.6961
   51SOL     OW  151   2.001   1.040   0.873  0.6509  0.1502  0.2100
   51SOL    HW1  152   1.975   0.957   0.930 -3.7666 -1.7528 -0.2773
   51SOL    HW2  153   1.979   1.021   0.771  0.3881  0.8565 -2.6081
   52SOL     OW  154   1.293   1.751   1.666  0.6863 -0.4351  0.1869
   52SOL    HW1  155   1.302   1.755   1.563 -0.5319 -0.3771 -2.3378
   52SOL    HW2  156   1.321   1.842   1.703  0.1330 -0.5420  0.2562
   53SOL     OW  157   0.793   1.772   2.271 -0.2594 -0.0031 -0.1262
   53SOL    HW1  158   0.860   1.740   2.200 -1.1776 -3.3795 -3.5425
   53SOL    HW2  159   0.751   1.856   2.229 -1.2515  1.2626 -1.2503
   54SOL     OW  160   2.153   0.430   1.161 -0.0668 -0.3482  0.9894
   54SOL    HW1  161   2.173   0.524   1.128  0.3060 -0.3335 -1.5239
   54SOL    HW2  162   2.230   0.366   1.157  1.1666 -1.7499  2.6825
   55SOL     OW  163   2.399   2.015   0.815 -0.0792  0.0197 -0.1368
   55SOL    HW1  164   2.495   2.026   0.847  0.3553  0.0484  0.3231
   55SOL    HW2  165   2.402   1.976   0.722  0.1664 -0.5496 -0.9851
   56SOL     OW  166   1.156   0.076   1.940  0.1565 -0.0656 -0.1904
   56SOL    HW1  167   1.213   0.029   2.010 -0.6045  0.0390  0.0428
   56SOL    HW2  168   1.187   0.173   1.932 -0.3290 -0.0801 -0.6868
   57SOL     OW  169   1.455   1.593   0.037 -0.5839  0.0072  0.6456
   57SOL    HW1  170   1.478   1.588   0.136  1.3215  1.2301  1.1766
   57SOL    HW2  171   1.437   1.500   3.104 -1.2181 -2.2751  0.9090
   58SOL     OW  172   0.354   0.711   2.200  0.9882  0.3359  0.0482
   58SOL    HW1  173   0.425   0.779   2.172 -2.0018  2.7332 -2.1737
   58SOL    HW2  174   0.311   0.745   2.287  0.9242 -0.1468 -0.2159
   59SOL     OW  175   1.274   0.197   2.701 -0.3214  0.2275  0.3748
   59SOL    HW1  176   1.181   0.237   2.721  0.0480 -0.5208  0.4175
   59SOL    HW2  177   1.300   0.128   2.774  0.2740 -0.7690  1.5401
   60SOL     OW  178   3.028   2.057   0.191 -0.1760  0.2250  0.0455
   60SOL    HW1  179   3.051   1.958   0.203  0.1989 -1.2419 -0.0995
   60SOL    HW2  180   2.981   2.105   0.267  0.9334 -0.6242 -0.6096
   61SOL     OW  181   1.008   2.367   0.450 -0.4845 -0.7286  0.2104
   61SOL    HW1  182   0.986   2.301   0.526 -1.3477 -0.5156  1.8813
   61SOL    HW2  183   0.931   2.435   0.441 -0.9578 -0.0547 -0.2889
   62SOL     OW  184   2.125   2.163   2.542  0.8710 -0.0009  0.2042
   62SOL    HW1  185   2.123   2.125   2.638  0.4569  0.8584 -2.3371
   62SOL    HW2  186   2.028   2.197   2.516  2.3373  1.8400 -1.5847
   63SOL     OW  187   2.231   2.184   0.295 -0.1229 -0.0570 -0.0261
   63SOL    HW1  188   2.277   2.115   0.232  2.1937 -0.1356  1.8720
   63SOL    HW2  189   2.294   2.260   0.323 -0.3850 -1.1453  2.1720
   64SOL     OW  190   1.487   1.301   2.531  0.2891 -0.1831  0.2577
   64SOL    HW1  191   1.519   1.209   2.491 -1.6609 -2.2586 -0.1410
   64SOL    HW2  192   1.408   1.285   2.591  2.2355 -0.7315 -0.3057
   65SOL     OW  193   1.384   2.228   2.872 -0.3960  0.0659  0.0032
   65SOL    HW1  194   1.410   2.127   2.858 -1.3283 -1.1829  1.5583
   65SOL    HW2  195   1.285   2.236   2.903  1.4014 -1.0789  1.5314
   66SOL     OW  196   0.376   1.607   2.075 -0.5339  0.5371 -1.0380
   66SOL    HW1  197   0.459   1.602   2.140  2.0742  1.4167  2.9454
   66SOL    HW2  198   0.348   1.513   2.049 -1.5287  0.5076 -3.3489
   67SOL     OW  199   2.805   2.750   2.818 -0.0890 -0.1644 -0.1870
   67SOL    HW1  200   2.857   2.822   2.870  1.8712 -0.2353 -0.5148
   67SOL    HW2  201   2.723   2.794   2.768 -0.4816 -0.3225 -0.4936
   68SOL     OW  202   0.747   2.218   1.271  0.0236 -0.0813  0.0343
   68SOL    HW1  203   0.692   2.288   1.221  0.3382 -0.8386 -1.2143
   68SOL    HW2  204   0.844   2.227   1.260 -0.2533 -2.5200 -0.7596
   69SOL     OW  205   0.649   2.614   0.758  0.0111  0.2053  0.3809
   69SOL    HW1  206   0.619   2.517   0.759  0.4597 -0.6135  1.8636
   69SOL    HW2  207   0.743   2.627   0.717  3.2718 -1.4592 -1.6825
   70SOL     OW  208   2.655   0.737   2.762  0.0533 -0.0440 -0.3087
   70SOL    HW1  209   2.639   0.737   2.663 -1.4908 -1.2346 -3.4681
   70SOL    HW2  210   2.662   0.644   2.800  0.9198  1.6574 -0.0840
   71SOL     OW  211   0.564   1.193   2.559 -0.0556  0.2307  0.2491
   71SOL    HW1  212   0.580   1.258   2.482  2.1451  1.5689  0.2297
   71SOL    HW2  213   0.531   1.244   2.643 -0.6123  2.1138  2.8172
   72SOL     OW  214   0.267   1.615   0.387 -0.0790 -0.0972 -0.0106
   72SOL    HW1  215   0.338   1.643   0.317 -1.4354  1.6776  0.5431
   72SOL    HW2  216   0.298   1.660   0.479  1.5440 -0.6223  1.7536
   73SOL     OW  217   0.744   1.374   0.688 -0.6857  0.5147 -0.4736
   73SOL    HW1  218   0.744   1.452   0.624 -0.0641 -2.5203  1.8241
   73SOL    HW2  219   0.653   1.335   0.685  3.8787 -0.2799 -1.1151
   74SOL     OW  220   2.534   2.859   0.027  0.1324  0.6534  0.0513
   74SOL    HW1  221   2.615   2.898   0.073 -0.2156 -2.9409 -0.5581
   74SOL    HW2  222   2.451   2.887   0.074  0.3578 -1.3727 -0.8085
   75SOL     OW  223   2.211   1.524   1.797  0.3500  0.4270  0.4907
   75SOL    HW1  224   2.174   1.438   1.839  1.3924 -0.5347 -1.2337
   75SOL    HW2  225   2.247   1.509   1.696  1.1691 -0.3659 -1.3674
   76SOL     OW  226   1.984   2.499   1.702  0.4980 -0.3281 -0.6888
   76SOL    HW1  227   2.026   2.588   1.696  0.8165 -2.8930 -1.3071
   76SOL    HW2  228   1.955   2.485   1.799 -1.0450 -1.2153 -0.0633
   77SOL     OW  229   2.264   0.398   1.943 -1.1775  0.3318  1.1950
   77SOL    HW1  230   2.309   0.341   2.017  0.8678 -2.7508 -2.1031
   77SOL    HW2  231   2.317   0.384   1.855  1.0809 -0.3601  0.7652
   78SOL     OW  232   1.584   0.964   2.885  0.4129  0.8850 -0.6357
   78SOL    HW1  233   1.644   0.886   2.920  2.1667  0.4185 -0.3105
   78SOL    HW2  234   1.531   0.938   2.796  0.0173 -1.1666  0.7921
   79SOL     OW  235   2.575   1.642   2.039 -0.4402 -0.7414 -0.0674
   79SOL    HW1  236   2.552   1.608   1.946 -2.6297  1.3821  1.8266
   79SOL    HW2  237   2.662   1.601   2.075  0.3237  1.5071  1.5198
   80SOL     OW  238   1.954   1.490   1.250 -0.3599 -0.0110  0.3832
   80SOL    HW1  239   1.910   1.439   1.325 -0.0820 -2.1385 -0.8520
   80SOL    HW2  240   2.049   1.518   1.276 -0.7996 -0.8999  1.7648
   81SOL     OW  241   1.438   0.698   1.733 -0.1215  0.1311  0.8006
   81SOL    HW1  242   1.406   0.656   1.817  1.1128 -2.3572 -0.6322
   81SOL    HW2  243   1.498   0.780   1.747 -1.3896  1.9924  2.9398
   82SOL     OW  244   1.228   2.601   1.377 -0.4711  0.1961 -0.7823
   82SOL    HW1  245   1.232   2.651   1.288  0.8079  1.1728  2.3240
   82SOL    HW2  246   1.242   2.669   1.454 -2.1721  0.2044 -0.8518
   83SOL     OW  247   0.153   0.205   0.454  0.4030  0.4654 -0.1328
   83SOL    HW1  248   0.106   0.130   0.402 -1.6171 -1.3447 -1.2652
   83SOL    HW2  249   0.156   0.289   0.394 -1.2099 -0.4646 -1.4484
   84SOL     OW  250   0.286   1.032   2.904 -0.1052  0.0988 -0.4853
   84SOL    HW1  251   0.183   1.017   2.883 -2.3842 -1.1242  1.8625
   84SOL    HW2  252   0.329   0.941   2.919 -0.1953  0.6817 -1.3908
   85SOL     OW  253   2.556   1.920   2.099  0.0431  0.9475 -0.1696
   85SOL    HW1  254   2.567   1.821   2.079  1.7555  0.6897  0.4544
   85SOL    HW2  255   2.570   1.977   2.015  2.8577  0.6994  0.7727
   86SOL     OW  256   2.969   2.111   1.750  0.6840  0.3503  0.2757
   86SOL    HW1  257   2.962   2.008   1.748  3.4175 -0.0211 -0.4315
   86SOL    HW2  258   2.960   2.147   1.849 -0.6710 -0.1816  2.7192
   87SOL     OW  259   0.739   0.202   2.695  0.2044  0.2294  0.4291
   87SOL    HW1  260   0.735   0.101   2.672 -1.0010 -2.7570  0.6242
   87SOL    HW2  261   0.707   0.222   2.789 -2.0832 -1.0412 -0.5460
   88SOL     OW  262   0.257   2.204   1.112  0.0667 -0.1291 -0.3009
   88SOL    HW1  263   0.283   2.155   1.028 -1.2816  0.6702 -0.3688
   88SOL    HW2  264   0.279   2.146   1.195  0.2286 -1.3892 -2.3507
   89SOL     OW  265   1.026   0.657   1.626  0.0003 -0.5198 -0.6919
   89SOL    HW1  266   1.110   0.644   1.570  0.2684  2.4532  0.8687
   89SOL    HW2  267   1.025   0.591   1.704  2.2447  2.7391  1.5589
   90SOL     OW  268   2.779   1.543   1.643 -0.8407 -0.0343  0.3556
   90SOL    HW1  269   2.857   1.597   1.603 -0.7564  0.1078  0.4802
   90SOL    HW2  270   2.810   1.480   1.718  1.7420  0.2989  0.8376
   91SOL     OW  271   1.204   1.423   0.682  0.2852 -0.4668 -0.1853
   91SOL    HW1  272   1.138   1.490   0.643  0.2159  0.9354  2.4794
   91SOL    HW2  273   1.152   1.339   0.715  0.5671 -1.9797  3.4771
   92SOL     OW  274   2.140   0.570   0.843  0.3438 -0.3899  0.3934
   92SOL    HW1  275   2.143   0.625   0.759 -0.3552 -1.1481  2.5594
   92SOL    HW2  276   2.120   0.630   0.921 -2.7805 -1.5497 -2.0665
   93SOL     OW  277   1.873   1.072   2.870  0.2337 -0.5096  0.1650
   93SOL    HW1  278   1.801   1.073   2.942  1.5187  0.6750 -1.2548
   93SOL    HW2  279   1.864   1.145   2.797  0.9961  1.6998  0.0345
   94SOL     OW  280   2.268   1.931   2.563  0.2381  0.2756 -0.1312
   94SOL    HW1  281   2.239   2.028   2.563  0.5675 -2.4939 -1.9441
   94SOL    HW2  282   2.303   1.905   2.468 -1.3117  0.2967 -0.8162
   95SOL     OW  283   1.982   0.331   0.782  0.1453  0.0226  0.0635
   95SOL    HW1  284   2.028   0.426   0.777 -0.2086  0.9219 -2.3653
   95SOL    HW2  285   2.055   0.259   0.785 -2.2795  0.3063  4.3760
   96SOL     OW  286   2.580   0.118   2.112 -0.0435 -0.1087  0.0250
   96SOL    HW1  287   2.537   0.086   2.025 -3.7961 -2.0137 -0.2281
   96SOL    HW2  288   2.528   0.201   2.138 -1.4035 -4.0646  0.3027
   97SOL     OW  289   2.386   0.267   1.111  0.4534  0.2247 -0.1943
   97SOL    HW1  290   2.373   0.319   1.024 -1.0884  0.4688  0.5925
   97SOL    HW2  291   2.373   0.166   1.101 -0.7078  0.5797  1.8778
   98SOL     OW  292   1.612   2.348   1.534  0.8045 -0.0832 -0.2092
   98SOL    HW1  293   1.578   2.371   1.440 -1.7465 -0.2605  0.7879
   98SOL    HW2  294   1.659   2.261   1.535 -0.5225 -0.0414 -0.3773
   99SOL     OW  295   2.237   2.171   1.790 -0.5018  0.0550 -0.0426
   99SOL    HW1  296   2.235   2.245   1.867 -1.0072 -1.5357  0.7424
   99SOL    HW2  297   2.270   2.212   1.701  2.8092 -1.7741 -1.5104
  100SOL     OW  298   0.512   0.627   2.915 -0.2304  0.0187  1.0700
  100SOL    HW1  299   0.590   0.673   2.870  1.2699  0.8240 -1.5058
  100SOL    HW2  300   0.433   0.683   2.946  2.2975 -1.1374  2.4701
  101SOL     OW  301   2.010   0.465   3.019  0.3604 -0.1113  0.7303
  101SOL    HW1  302   1.960   0.377   3.032 -2.3745  1.2848 -0.1183
  101SOL    HW2  303   2.089   0.471   3.086  0.4710 -0.1411  1.0997
  102SOL     OW  304   0.161   0.730   1.640  0.4838 -0.2025  0.6482
  102SOL    HW1  305   0.091   0.710   1.570 -0.8152 -1.0123  1.4554
  102SOL    HW2  306   0.245   0.771   1.602 -2.9011 -0.9209  2.3549
  103SOL     OW  307   2.978   1.013   2.589 -0.0486 -0.0261 -0.6689
  103SOL    HW1  308   3.032   1.100   2.583  0.2272 -0.3076 -1.3687
  103SOL    HW2  309   2.981   0.959   2.502  0.4469 -0.6307  0.8231
  104SOL     OW  310   0.597   0.322   2.506  0.4353  0.1688 -0.0580
  104SOL    HW1  311   0.667   0.289   2.574  1.0222 -2.1447  1.7544
  104SOL    HW2  312   0.640   0.357   2.422 -1.1594 -1.8983 -0.6413
  105SOL     OW  313   2.384   1.724   1.621 -0.5963 -0.3401 -0.2645
  105SOL    HW1  314   2.309   1.779   1.657  1.2295 -2.7889 -2.1963
  105SOL    HW2  315   2.356   1.640   1.572  3.0822  1.1964  1.7800
  106SOL     OW  316   2.094   0.290   0.483  0.4181 -0.1732 -0.2257
  106SOL    HW1  317   2.096   0.252   0.389 -1.7459  1.1307  2.3598
  106SOL    HW2  318   2.131   0.236   0.559 -0.6696  0.7050  1.5654
  107SOL     OW  319   0.059   1.516   1.050  0.1701 -0.2448 -0.7935
  107SOL    HW1  320   0.074   1.473   1.141 -0.8545 -1.0594 -0.4939
  107SOL    HW2  321   0.110   1.603   1.032 -0.2914 -1.6036 -0.6572
  108SOL     OW  322   2.824   2.416   1.702  0.2708 -0.0662 -0.3504
  108SOL    HW1  323   2.906   2.361   1.694 -2.1885  1.7939 -1.4401
  108SOL    HW2  324   2.753   2.374   1.762  0.9710 -0.3160 -0.4072
  109SOL     OW  325   2.139   0.119   0.700 -0.0786 -0.7469  0.7707
  109SOL    HW1  326   2.239   0.104   0.721 -0.6966 -1.0662  1.7614
  109SOL    HW2  327   2.086   0.036   0.725 -0.8510 -0.1617  0.3864
  110SOL     OW  328   0.542   2.064   2.633 -0.1560  0.5143 -0.0541
  110SOL    HW1  329   0.557   2.088   2.536 -3.2975  0.8007  1.2871
  110SOL    HW2  330   0.610   1.993   2.657  3.0389 -0.2823 -0.0606
  111SOL     OW  331   1.588   2.632   1.609  0.0838  0.5964 -0.2994
  111SOL    HW1  332   1.587   2.535   1.562 -4.0742 -3.3026 -1.3894
  111SOL    HW2  333   1.551   2.712   1.554 -0.6597 -1.0736 -0.6737
  112SOL     OW  334   1.875   2.783   3.028 -0.1290 -0.5052 -0.1231
  112SOL    HW1  335   1.779   2.759   3.006 -2.0897 -1.3229  0.0150
  112SOL    HW2  336   1.882   2.845   0.004 -1.6950  0.0646 -0.8931
  113SOL     OW  337   1.867   2.491   1.371  0.4295  0.0057 -0.0208
  113SOL    HW1  338   1.864   2.440   1.456  2.0261 -0.9073 -2.2855
  113SOL    HW2  339   1.883   2.432   1.294  0.5658 -0.1903  1.2447
  114SOL     OW  340   2.833   0.834   0.770  0.1442  0.4370 -0.5603
  114SOL    HW1  341   2.746   0.793   0.808  0.5207  1.5225  0.2614
  114SOL    HW2  342   2.851   0.812   0.673  0.2734  0.3430  2.0991
  115SOL     OW  343   0.760   1.086   0.053  0.2169  0.3248  0.0289
  115SOL    HW1  344   0.664   1.129   0.072 -0.1546  2.2363 -0.9342
  115SOL    HW2  345   0.741   0.987   0.073  0.3102 -0.9900 -2.5222
  116SOL     OW  346   2.746   1.878   2.329  0.1662 -0.5415  0.2959
  116SOL    HW1  347   2.716   1.904   2.418  1.7073 -2.3919 -3.2544
  116SOL    HW2  348   2.687   1.921   2.257  0.5621  0.2571  0.1910
  117SOL     OW  349   2.909   2.303   0.611 -0.5199 -0.1556 -0.0469
  117SOL    HW1  350   2.967   2.306   0.698  1.4401 -1.0649 -0.9532
  117SOL    HW2  351   2.810   2.307   0.629  4.1331 -1.8384  0.4432
  118SOL     OW  352   1.253   2.256   1.800  0.3064  0.2714 -0.5231
  118SOL    HW1  353   1.338   2.308   1.788 -0.5039  0.3636 -0.0714
  118SOL    HW2  354   1.170   2.320   1.792 -0.0643  1.9422 -1.5001
  119SOL     OW  355   0.150   1.920   2.753  0.6803  0.1467 -0.3778
  119SOL    HW1  356   0.082   1.978   2.803  3.4551 -2.4946 -1.0667
  119SOL    HW2  357   0.183   1.843   2.814  1.8920 -0.1327  0.2316
  120SOL     OW  358   1.222   0.832   2.881 -0.4181 -0.4601 -0.2261
  120SOL    HW1  359   1.280   0.752   2.863 -0.4051 -0.2421  1.6025
  120SOL    HW2  360   1.258   0.889   2.958  0.9950  2.3253 -3.6970
  121SOL     OW  361   1.672   2.779   0.947  0.0154  1.1899  0.3403
  121SOL    HW1  362   1.660   2.728   1.038  0.6679 -0.7764  0.6284
  121SOL    HW2  363   1.737   2.731   0.886  2.6304 -0.9515  2.4491
  122SOL     OW  364   2.300   2.354   1.592 -0.0860  1.1325 -0.4227
  122SOL    HW1  365   2.238   2.403   1.534  0.9026  2.2528 -2.8234
  122SOL    HW2  366   2.346   2.410   1.663 -1.8608 -0.5915 -1.3128
  123SOL     OW  367   0.352   2.638   0.837  0.0408 -0.3438 -0.0057
  123SOL    HW1  368   0.398   2.623   0.749  2.4585  0.3425  3.5884
  123SOL    HW2  369   0.399   2.720   0.877 -0.0042  0.5038  1.2068
  124SOL     OW  370   2.243   1.142   2.607 -0.0365 -0.5063  0.3000
  124SOL    HW1  371   2.330   1.195   2.595 -0.9812 -0.1426  0.0569
  124SOL    HW2  372   2.255   1.046   2.580  0.0454  2.4884  0.0958
  125SOL     OW  373   0.641   0.752   0.308  0.6903 -0.3461  0.6264
  125SOL    HW1  374   0.601   0.685   0.376 -0.7807 -1.4426 -0.7435
  125SOL    HW2  375   0.663   0.838   0.354  1.2368 -1.2149 -3.6414
  126SOL     OW  376   3.043   1.261   0.731  0.7870  0.2937  0.5083
  126SOL    HW1  377   2.972   1.245   0.664 -0.2923  0.4098 -0.9439
  126SOL    HW2  378   3.049   1.360   0.765  1.8515  1.0773  1.8084
  127SOL     OW  379   0.303   1.825   1.945 -0.1624  0.2556 -0.0660
  127SOL    HW1  380   0.340   1.736   1.984  0.9108  0.3536 -0.5398
  127SOL    HW2  381   0.376   1.903   1.963  1.2351  3.4907  3.2065
  128SOL     OW  382   0.993   1.226   0.115  0.1657 -0.2795 -0.5164
  128SOL    HW1  383   1.055   1.220   0.039 -0.8828  0.9135  1.8398
  128SOL    HW2  384   0.907   1.176   0.103  3.5948 -2.6996 -0.5550
  129SOL     OW  385   2.649   1.250   0.721 -0.2069 -0.0406  0.3391
  129SOL    HW1  386   2.557   1.255   0.766  0.0915 -2.2762  0.0107
  129SOL    HW2  387   2.713   1.194   0.779  0.4399  0.2374 -0.2881
  130SOL     OW  388   2.305   0.929   1.318 -1.0015 -0.1177 -0.2910
  130SOL    HW1  389   2.372   0.867   1.361 -1.0568  1.7134 -1.2998
  130SOL    HW2  390   2.350   0.971   1.237 -2.2130 -1.5687  0.4787
  131SOL     OW  391   2.967   0.052   2.737 -0.2197  0.1126 -0.3099
  131SOL    HW1  392   2.988   3.076   2.681 -1.9377 -0.5151  2.2909
  131SOL    HW2  393   3.001   0.042   2.830 -1.2867  1.2331 -3.6200
  132SOL     OW  394   0.123   1.422   1.305  0.3231  0.4412  0.1149
  132SOL    HW1  395   0.075   1.509   1.336 -0.1499  2.1185 -0.5759
  132SOL    HW2  396   0.220   1.420   1.336  2.7630  2.0934 -1.8848
  133SOL     OW  397   1.195   0.451   1.442 -0.5681 -0.0437  0.1826
  133SOL    HW1  398   1.179   0.431   1.539 -1.7013  0.6882 -1.9263
  133SOL    HW2  399   1.247   0.539   1.431 -0.0472  1.0005  1.8141
  134SOL     OW  400   3.030   1.496   0.116 -0.0406  0.3681 -0.2201
  134SOL    HW1  401   3.058   1.398   0.116  1.8206  0.2343 -1.0955
  134SOL    HW2  402   2.963   1.521   0.044 -0.8125 -1.8437  0.5099
  135SOL     OW  403   2.054   1.076   1.455  0.7616  0.1627  0.5896
  135SOL    HW1  404   1.982   0.998   1.457 -3.6921 -1.1735  0.2724
  135SOL    HW2  405   2.150   1.045   1.430  1.8761 -1.2244  0.6180
  136SOL     OW  406   0.271   0.913   0.462  0.2505  0.2880  0.3840
  136SOL    HW1  407   0.189   0.913   0.401 -0.4228  0.8526 -2.3338
  136SOL    HW2  408   0.287   1.007   0.504  0.3334 -0.0231  2.1969
  137SOL     OW  409   2.835   1.108   0.877  0.2710 -0.1497 -0.5771
  137SOL    HW1  410   2.861   1.014   0.838  1.9569 -1.1360 -0.7381
  137SOL    HW2  411   2.903   1.133   0.946  0.1933 -0.7179  0.1392
  138SOL     OW  412   1.578   0.983   0.979 -0.4916 -0.2215  0.4074
  138SOL    HW1  413   1.482   0.975   1.021 -3.2364 -2.0523  1.4671
  138SOL    HW2  414   1.631   1.052   1.036 -0.4979 -0.9182 -1.2768
  139SOL     OW  415   1.956   3.068   2.845 -0.2569  0.2857 -0.0552
  139SOL    HW1  416   2.012   2.984   2.866 -1.3290 -1.6512 -0.5958
  139SOL    HW2  417   1.870   3.076   2.897 -1.1473 -0.7885  1.3935
  140SOL     OW  418   1.327   1.744   1.407 -0.1339 -0.6636  0.3868
  140SOL    HW1  419   1.416   1.710   1.365 -0.0126 -2.0792  1.4753
  140SOL    HW2  420   1.335   1.845   1.427 -0.0870 -1.0861  1.8212
  141SOL     OW  421   1.684   2.067   0.409 -0.3814  0.1299  0.7986
  141SOL    HW1  422   1.688   2.166   0.379 -0.2834  3.2425 -0.6762
  141SOL    HW2  423   1.668   2.060   0.508 -1.6465  0.3999 -1.4622
  142SOL     OW  424   0.871   0.715   3.038  0.3129 -0.4807  0.0143
  142SOL    HW1  425   0.788   0.671   3.080 -0.0692 -0.8098  0.2206
  142SOL    HW2  426   0.935   0.758   0.004  2.1594 -0.2082  0.1499
  143SOL     OW  427   0.273   2.147   0.208  0.5468 -0.3465  0.2669
  143SOL    HW1  428   0.201   2.187   0.149  4.8161 -0.2767  2.2355
  143SOL    HW2  429   0.235   2.117   0.295 -0.6987  2.0511  0.6071
  144SOL     OW  430   1.618   0.028   1.178  0.0953  0.1234  0.0981
  144SOL    HW1  431   1.601   0.103   1.246  2.5883  0.4491 -1.4956
  144SOL    HW2  432   1.575   3.044   1.194  2.2173  0.8753 -0.3828
  145SOL     OW  433   2.148   1.307   0.314  0.1961  0.2757 -0.4901
  145SOL    HW1  434   2.216   1.232   0.331 -0.2647 -0.4167 -2.2324
  145SOL    HW2  435   2.081   1.268   0.250  0.1120  3.2065  2.1362
  146SOL     OW  436   2.955   1.859   0.520 -1.1388  0.0888 -0.2600
  146SOL    HW1  437   2.860   1.861   0.481 -0.6788 -0.8195 -0.2154
  146SOL    HW2  438   3.006   1.796   0.463  0.7273  1.6309 -0.7897
  147SOL     OW  439   2.235   3.036   1.567 -0.0671 -0.0082 -0.2355
  147SOL    HW1  440   2.178   3.017   1.481 -0.3804  1.7130 -0.3786
  147SOL    HW2  441   2.294   2.955   1.595  0.4795 -1.1697 -0.0821
  148SOL     OW  442   1.623   2.989   2.037  0.6475  0.5133 -0.0406
  148SOL    HW1  443   1.624   2.938   1.949  0.9207  1.5527  1.6892
  148SOL    HW2  444   1.574   2.936   2.109 -0.3883  2.7695 -3.3555
  149SOL     OW  445   1.782   0.647   2.159  0.1172  0.0663  0.2328
  149SOL    HW1  446   1.839   0.606   2.237 -0.0728 -0.9200  2.1064
  149SOL    HW2  447   1.845   0.676   2.081 -0.9758 -0.7669 -2.0856
  150SOL     OW  448   0.210   2.943   0.449 -0.2241 -0.4311 -0.1832
  150SOL    HW1  449   0.193   2.967   0.544  0.6454 -1.8131 -2.1242
  150SOL    HW2  450   0.272   3.017   0.411 -1.8620  0.0684 -2.1287
  151SOL     OW  451   0.107   1.941   0.555  0.2096  0.3588  0.1516
  151SOL    HW1  452   0.014   1.902   0.539  0.5033  0.3721 -0.1591
  151SOL    HW2  453   0.113   2.030   0.504  0.1046 -2.3351  1.3764
  152SOL     OW  454   2.904   3.035   0.764 -0.3923 -0.2358 -0.1204
  152SOL    HW1  455   2.990   2.996   0.802 -0.1066  0.6154  1.0614
  152SOL    HW2  456   2.833   2.965   0.770  0.4668 -1.4570 -1.2781
  153SOL     OW  457   2.340   3.084   1.069  0.2611  0.0562  0.1291
  153SOL    HW1  458   2.358   3.032   1.156 -2.0449 -2.3864  2.7376
  153SOL    HW2  459   2.305   3.023   0.995  0.8354  0.5632  1.5735
  154SOL     OW  460   1.148   0.402   1.728  0.1040  0.3681 -0.0367
  154SOL    HW1  461   1.221   0.346   1.778 -1.0730 -1.8439  2.5508
  154SOL    HW2  462   1.083   0.454   1.794 -1.9087  0.6620  1.8673
  155SOL     OW  463   2.958   1.030   1.159  0.9744  0.3464  0.2312
  155SOL    HW1  464   3.029   1.044   1.084 -0.2731 -2.1369  0.1256
  155SOL    HW2  465   2.922   1.120   1.198 -0.3036  1.1146 -3.1132
  156SOL     OW  466   0.013   2.074   2.901 -0.1377 -0.3211  0.1669
  156SOL    HW1  467   0.056   2.130   2.973  0.2848 -1.1206 -0.6045
  156SOL    HW2  468   3.028   2.114   2.878  1.6731 -0.8594  1.3402
  157SOL     OW  469   0.994   0.525   0.194 -0.0668 -0.4754 -0.2434
  157SOL    HW1  470   1.054   0.488   0.266  2.2162 -1.9730 -0.9346
  157SOL    HW2  471   1.002   0.628   0.180 -1.0944  3.0758  1.0631
  158SOL     OW  472   2.649   3.052   2.508 -0.4234 -0.6889  0.7755
  158SOL    HW1  473   2.707   0.007   2.565 -2.7351  0.9893 -1.0406
  158SOL    HW2  474   2.561   3.090   2.501  3.5843 -1.1421  1.1255
  159SOL     OW  475   0.640   0.059   0.475 -0.6862  0.8638  0.5311
  159SOL    HW1  476   0.707   0.114   0.526 -0.0191  0.2881  0.7423
  159SOL    HW2  477   0.589   0.114   0.408  0.6046  1.2973  2.4075
  160SOL     OW  478   1.179   2.253   3.064  0.0323  0.7977 -0.5357
  160SOL    HW1  479   1.108   2.317   3.104 -1.6511  2.9974 -1.3867
  160SOL    HW2  480   1.232   2.199   0.026  1.4931 -0.5311 -0.5006
  161SOL     OW  481   3.080   1.562   2.308 -0.4541  0.2518 -0.2972
  161SOL    HW1  482   0.035   1.622   2.253  1.5305  0.0453  1.9754
  161SOL    HW2  483   2.981   1.592   2.301  0.4106 -0.3402 -1.7324
  162SOL     OW  484   0.437   2.457   1.549  0.2370 -0.1626 -0.4346
  162SOL    HW1  485   0.446   2.535   1.618  0.0463  1.2623  0.6861
  162SOL    HW2  486   0.445   2.501   1.458  0.9195  0.9801  1.7126
  163SOL     OW  487   2.208   0.417   2.483  0.1795  0.3289  0.0116
  163SOL    HW1  488   2.227   0.339   2.544 -0.7756  1.3247 -0.9199
  163SOL    HW2  489   2.125   0.468   2.518 -0.4215 -1.3586 -1.8125
  164SOL     OW  490   2.855   1.232   0.517  0.2601  0.1488 -0.5540
  164SOL    HW1  491   2.865   1.323   0.474 -1.0724  0.6299 -0.1567
  164SOL    HW2  492   2.764   1.237   0.561  3.5920 -3.4100 -4.6384
  165SOL     OW  493   0.337   0.119   1.596 -0.3739 -0.0558  0.4628
  165SOL    HW1  494   0.368   0.095   1.499 -0.6613 -0.2968  1.8539
  165SOL    HW2  495   0.371   0.216   1.621  1.6877 -1.5681  1.0031
  166SOL     OW  496   2.092   0.751   0.610  0.1320  0.2559  0.9547
  166SOL    HW1  497   2.023   0.828   0.629 -0.2853  2.1533  1.7675
  166SOL    HW2  498   2.058   0.674   0.550 -0.5529  0.3728 -2.6925
  167SOL     OW  499   0.380   0.505   0.188  0.1579  0.2122  0.1760
  167SOL    HW1  500   0.455   0.461   0.136 -0.7001 -1.0137  0.5134
  167SOL    HW2  501   0.355   0.602   0.167 -0.4346 -1.0152 -1.5940
  168SOL     OW  502   1.963   2.926   1.796 -0.1221  0.2645 -0.4247
  168SOL    HW1  503   2.040   2.963   1.853 -2.1129  2.0953 -0.6631
  168SOL    HW2  504   1.949   2.983   1.711  3.0858 -0.0938  0.4756
  169SOL     OW  505   0.846   1.034   0.854  0.3867  0.1876 -0.3750
  169SOL    HW1  506   0.898   0.948   0.829 -1.2882 -1.5864 -0.1589
  169SOL    HW2  507   0.852   1.060   0.952  1.2622 -2.4468  1.2141
  170SOL     OW  508   2.977   0.261   1.428 -0.0766  0.6135 -0.2793
  170SOL    HW1  509   3.075   0.262   1.400 -1.5213  3.0218  3.2331
  170SOL    HW2  510   2.959   0.195   1.501  1.3976  1.9797 -1.4397
  171SOL     OW  511   1.251   2.809   2.626 -0.3638 -0.1804  0.3164
  171SOL    HW1  512   1.195   2.737   2.672 -2.1106  2.3847 -1.8765
  171SOL    HW2  513   1.212   2.902   2.637 -1.0714 -0.4054  0.3063
  172SOL     OW  514   0.449   2.601   1.296  0.0621 -0.0946 -0.1894
  172SOL    HW1  515   0.515   2.548   1.239  0.3552 -2.3713  1.5958
  172SOL    HW2  516   0.440   2.695   1.259 -0.9015 -0.9006 -2.1437
  173SOL     OW  517   1.450   0.877   2.678 -0.3514  0.0004  0.1314
  173SOL    HW1  518   1.351   0.863   2.657 -2.4596 -2.8148  1.3244
  173SOL    HW2  519   1.513   0.835   2.612  1.7532  0.2434  0.5618
  174SOL     OW  520   1.843   3.089   2.576  0.2522 -0.2396 -0.0676
  174SOL    HW1  521   1.857   3.094   2.674 -0.6563 -1.3386 -1.2411
  174SOL    HW2  522   1.904   0.049   2.528  0.3994  1.1667  0.7479
  175SOL     OW  523   1.991   2.538   0.312  0.1368 -0.4325 -0.3126
  175SOL    HW1  524   2.050   2.539   0.226  2.5122  2.4918  0.4211
  175SOL    HW2  525   1.970   2.447   0.346 -0.9687  1.0248 -1.0214
  176SOL     OW  526   2.151   0.189   2.964  0.4218 -0.5369 -0.2120
  176SOL    HW1  527   2.191   0.114   3.022 -0.5587 -1.9291 -0.4177
  176SOL    HW2  528   2.073   0.156   2.907 -0.6688 -1.1754  0.4923
  177SOL     OW  529   1.008   1.622   0.616 -0.1540  0.2000 -0.0143
  177SOL    HW1  530   1.039   1.708   0.575 -0.3160 -1.5372  0.3283
  177SOL    HW2  531   0.929   1.594   0.559  1.1310  1.3730  3.0452
  178SOL     OW  532   2.852   2.153   2.946  0.1537 -0.0432 -0.6656
  178SOL    HW1  533   2.825   2.249   2.969  0.9370  2.8917 -1.0902
  178SOL    HW2  534   2.843   2.126   2.849 -0.3074  0.5838  0.2417
  179SOL     OW  535   0.585   2.893   2.880  0.4092  0.1143  0.0877
  179SOL    HW1  536   0.650   2.814   2.901  1.3276 -0.1847  0.2281
  179SOL    HW2  537   0.492   2.858   2.901 -0.7494  0.2916  0.5284
  180SOL     OW  538   1.408   1.537   0.823  0.2865  0.3062  0.2206
  180SOL    HW1  539   1.352   1.581   0.894 -2.0631 -3.6002 -0.5228
  180SOL    HW2  540   1.345   1.483   0.762 -0.1485 -1.7124 -3.0764
  181SOL     OW  541   2.137   0.777   2.204  0.6499  0.3089  0.2679
  181SOL    HW1  542   2.050   0.831   2.201 -0.9402  2.0740  1.0751
  181SOL    HW2  543   2.134   0.691   2.255  2.1157 -2.1113 -3.2504
  182SOL     OW  544   0.163   2.886   2.247  0.3753  0.1775  0.2716
  182SOL    HW1  545   0.091   2.943   2.287  0.9131  1.2276 -0.5924
  182SOL    HW2  546   0.199   2.931   2.162  1.9389 -1.1020  1.5464
  183SOL     OW  547   1.348   0.826   2.327 -0.0794  0.5130 -0.3981
  183SOL    HW1  548   1.444   0.831   2.301 -0.4099  0.5210  2.7135
  183SOL    HW2  549   1.287   0.800   2.251  0.7379  1.0012  1.7626
  184SOL     OW  550   0.537   0.753   1.708 -0.0562 -0.6021  0.2847
  184SOL    HW1  551   0.638   0.744   1.688 -0.0166 -0.5628 -0.1539
  184SOL    HW2  552   0.511   0.831   1.769  0.1895  0.8696 -2.8445
  185SOL     OW  553   1.964   1.052   0.355 -0.2694  0.4883  0.2316
  185SOL    HW1  554   1.924   1.130   0.300 -0.5451 -0.2346 -0.3759
  185SOL    HW2  555   2.070   1.048   0.342  3.3727 -1.2466 -1.5969
  186SOL     OW  556   0.215   2.349   2.955 -0.0024  0.0015  0.0194
  186SOL    HW1  557   0.281   2.271   2.946  0.7481  0.7392  0.4936
  186SOL    HW2  558   0.158   2.346   3.034  2.9665  0.6540 -1.2043
  187SOL     OW  559   2.513   1.199   0.078 -1.0884 -0.2075  0.3543
  187SOL    HW1  560   2.421   1.186   0.033  2.2666 -1.8549  2.3145
  187SOL    HW2  561   2.513   1.171   0.176  1.4504 -1.7148  0.9747
  188SOL     OW  562   3.095   1.519   0.788 -0.1945  0.6747 -0.2754
  188SOL    HW1  563   0.012   1.517   0.889 -0.3766 -0.5219  0.5261
  188SOL    HW2  564   3.045   1.602   0.765 -1.3087 -2.0628 -0.7614
  189SOL     OW  565   2.418   0.193   0.204  0.6747 -0.1665 -0.5554
  189SOL    HW1  566   2.494   0.147   0.154 -1.0844  1.7029 -0.2756
  189SOL    HW2  567   2.426   0.172   0.301 -2.0970 -0.5294 -1.6431
  190SOL     OW  568   1.281   1.610   2.088 -0.2500 -0.5013 -0.2345
  190SOL    HW1  569   1.227   1.569   2.170  0.7145  1.6976  1.8768
  190SOL    HW2  570   1.313   1.533   2.030  2.0583  0.6335  0.3674
  191SOL     OW  571   2.716   0.426   1.666  0.2005  0.3695 -0.4358
  191SOL    HW1  572   2.783   0.427   1.594 -1.1920  2.4744  1.3544
  191SOL    HW2  573   2.673   0.335   1.671  1.3334 -1.7703 -0.8840
  192SOL     OW  574   1.797   1.507   1.021  0.1003  0.2100  0.9011
  192SOL    HW1  575   1.848   1.484   1.107 -1.8469 -2.1223 -1.2998
  192SOL    HW2  576   1.811   1.607   1.001  0.3463  1.0533  1.6353
  193SOL     OW  577   0.987   0.764   0.763 -0.2350 -0.4623 -0.7796
  193SOL    HW1  578   0.961   0.748   0.668 -4.1408 -1.0346  0.1073
  193SOL    HW2  579   0.914   0.718   0.824 -1.4021 -1.8408 -0.5104
  194SOL     OW  580   1.084   2.402   1.480  0.0340 -0.2415 -0.5411
  194SOL    HW1  581   1.151   2.474   1.459  1.7171 -1.5715  1.2046
  194SOL    HW2  582   1.039   2.412   1.570  1.3962 -1.1368  2.3186
  195SOL     OW  583   2.417   0.343   2.914  0.3052  0.2143 -0.3339
  195SOL    HW1  584   2.454   0.245   2.911 -0.6461  1.5056  2.6713
  195SOL    HW2  585   2.316   0.339   2.928  2.4122 -0.2888  0.6773
  196SOL     OW  586   1.072   2.458   1.768  0.4008  0.4015 -0.1321
  196SOL    HW1  587   1.076   2.460   1.872  1.1922  0.7122  2.7362
  196SOL    HW2  588   1.053   2.552   1.738  2.5357 -2.9979  1.9942
  197SOL     OW  589   0.824   2.776   1.064 -0.0892  0.2258 -0.0365
  197SOL    HW1  590   0.762   2.843   1.102 -0.6448 -3.3788 -1.3583
  197SOL    HW2  591   0.919   2.816   1.057 -0.1318  1.0133  0.3809
  198SOL     OW  592   0.945   0.724   0.497  0.6605 -0.4301  0.3141
  198SOL    HW1  593   0.917   0.622   0.494 -0.0169 -4.9699 -0.1530
  198SOL    HW2  594   0.857   0.778   0.491  0.2492  1.0748  0.9048
  199SOL     OW  595   0.284   2.749   1.950  0.3047  0.0967  0.1956
  199SOL    HW1  596   0.214   2.680   1.968 -0.3297  0.6258 -2.6223
  199SOL    HW2  597   0.374   2.700   1.932 -1.1364  0.2632  1.8164
  200SOL     OW  598   2.113   2.024   2.294 -0.3371  0.1017 -0.0514
  200SOL    HW1  599   2.105   1.930   2.336  0.3883 -1.4371  0.8099
  200SOL    HW2  600   2.099   2.098   2.357  0.7663 -1.2145 -1.1688
  201SOL     OW  601   2.991   2.190   1.501  0.2466  0.4995  0.0250
  201SOL    HW1  602   2.914   2.136   1.463  0.4228  2.2679  2.2520
  201SOL    HW2  603   2.989   2.183   1.603  0.1467  0.1767  1.1113
  202SOL     OW  604   2.664   3.028   0.375  0.1282 -0.1495 -0.6400
  202SOL    HW1  605   2.747   3.057   0.428  2.1724 -1.4597 -3.2311
  202SOL    HW2  606   2.692   2.992   0.282  2.0336  1.5371 -1.4719
  203SOL     OW  607   1.282   2.065   2.158  0.1512  0.4483 -0.2137
  203SOL    HW1  608   1.198   2.067   2.102 -0.9302  0.4722 -1.7898
  203SOL    HW2  609   1.328   1.975   2.154  1.8518  3.0987 -1.5160
  204SOL     OW  610   1.429   2.149   1.238  0.1892 -0.0163  0.3510
  204SOL    HW1  611   1.457   2.232   1.297  0.7285  1.7518  3.9521
  204SOL    HW2  612   1.410   2.069   1.301 -1.4290 -0.9829  1.4019
  205SOL     OW  613   1.146   1.828   1.973 -0.9051 -0.0296 -0.3647
  205SOL    HW1  614   1.213   1.757   1.998  2.8100 -1.6341 -0.0947
  205SOL    HW2  615   1.060   1.786   1.950 -0.3727  1.4339  1.2001
  206SOL     OW  616   0.306   0.487   2.762  0.1095  0.1695 -0.2390
  206SOL    HW1  617   0.383   0.543   2.793  2.5871 -0.6960 -0.4823
  206SOL    HW2  618   0.307   0.473   2.661 -1.0110  0.1690  1.5460
  207SOL     OW  619   0.917   0.067   1.815 -0.2426  0.1138 -0.1182
  207SOL    HW1  620   0.898   0.154   1.764 -0.6598  1.2474 -0.9394
  207SOL    HW2  621   1.007   0.060   1.857  3.6465  0.8587 -0.0182
  208SOL     OW  622   0.724   2.383   1.922 -0.6868 -0.0254 -0.2689
  208SOL    HW1  623   0.800   2.437   1.960 -0.8564 -1.9684 -0.3521
  208SOL    HW2  624   0.760   2.324   1.847 -0.2791 -0.4317 -1.0818
  209SOL     OW  625   1.729   0.739   2.932 -0.8242 -0.1635  0.2183
  209SOL    HW1  626   1.663   0.662   2.911  1.1852 -1.7671  1.3145
  209SOL    HW2  627   1.825   0.703   2.945 -0.5968 -1.0606  0.7623
  210SOL     OW  628   3.091   0.443   0.799  0.1093 -0.6567  0.2001
  210SOL    HW1  629   3.046   0.513   0.863 -0.9189  0.3898 -0.0361
  210SOL    HW2  630   3.075   0.349   0.834 -0.4008  0.0184  2.4852
  211SOL     OW  631   0.674   0.594   1.331 -0.1611 -0.1940  0.1110
  211SOL    HW1  632   0.759   0.550   1.353 -3.0762  1.8131 -0.8792
  211SOL    HW2  633   0.603   0.524   1.340  1.5362  0.8642 -1.0823
  212SOL     OW  634   1.279   1.649   1.059 -0.1836 -0.5002  0.1035
  212SOL    HW1  635   1.247   1.730   1.012  0.5269 -2.0941  2.4811
  212SOL    HW2  636   1.351   1.679   1.126  0.2453 -0.2605 -0.7199
  213SOL     OW  637   1.889   0.230   1.663 -0.3714 -0.9798  0.1513
  213SOL    HW1  638   1.897   0.138   1.625 -4.0954  1.6595 -0.9270
  213SOL    HW2  639   1.928   0.287   1.586 -2.1885 -2.5178  0.9711
  214SOL     OW  640   1.110   2.606   2.739 -0.0337  0.3807 -0.0969
  214SOL    HW1  641   1.127   2.592   2.838 -1.7766 -1.9710 -2.6944
  214SOL    HW2  642   1.164   2.538   2.683 -0.3526 -1.6520 -0.7408
  215SOL     OW  643   2.852   1.662   1.207 -0.7186  0.3682 -0.2015
  215SOL    HW1  644   2.765   1.707   1.180 -0.2956  0.9552  2.3348
  215SOL    HW2  645   2.858   1.571   1.155  0.0008  0.1303  1.1997
  216SOL     OW  646   0.269   0.539   1.989 -0.9665  0.4702  0.5941
  216SOL    HW1  647   0.176   0.575   1.966 -0.6008  0.9479 -0.1538
  216SOL    HW2  648   0.309   0.594   2.064 -0.4778 -0.7009  0.4933
  217SOL     OW  649   3.019   0.096   0.317 -0.3624 -0.0742  0.0072
  217SOL    HW1  650   3.002   0.190   0.350  1.1753 -1.0294 -0.2892
  217SOL    HW2  651   2.968   0.025   0.374 -0.9191 -1.0462  0.5763
  218SOL     OW  652   1.722   1.908   1.388 -0.4745 -0.5674  0.4201
  218SOL    HW1  653   1.700   1.841   1.460 -2.9214  1.7459 -3.2756
  218SOL    HW2  654   1.684   1.875   1.299 -1.2531 -1.5078  0.7836
  219SOL     OW  655   1.615   0.835   0.156 -0.4168  1.0305  0.1874
  219SOL    HW1  656   1.542   0.765   0.163 -0.4242 -0.6501 -0.4172
  219SOL    HW2  657   1.585   0.924   0.189  0.1529 -1.1241  1.3611
  220SOL     OW  658   1.649   1.989   0.688 -0.1841 -0.1601  0.0344
  220SOL    HW1  659   1.553   2.014   0.683 -0.1780 -1.8505 -0.4971
  220SOL    HW2  660   1.676   1.891   0.682  0.9012 -1.3759  1.3623
  221SOL     OW  661   0.006   0.403   0.002  0.0486  0.2547 -0.0529
  221SOL    HW1  662   0.003   0.430   3.009 -3.0560 -0.6570  1.8805
  221SOL    HW2  663   0.083   0.452   0.044 -1.6200  0.4816 -1.9186
  222SOL     OW  664   0.962   2.738   1.705 -0.3752 -0.2033  0.2810
  222SOL    HW1  665   0.940   2.834   1.686  1.0726 -2.4499  1.2818
  222SOL    HW2  666   0.937   2.676   1.630  0.3298  1.7882 -1.8321
  223SOL     OW  667   1.587   0.517   2.820 -0.2898 -0.2388  0.1907
  223SOL    HW1  668   1.564   0.453   2.896 -2.8577  0.7968 -1.0468
  223SOL    HW2  669   1.491   0.550   2.792 -1.8531 -1.9083  0.3893
  224SOL     OW  670   2.683   0.633   1.203  0.4148  0.7546 -0.4442
  224SOL    HW1  671   2.743   0.587   1.270  1.0141 -1.4846 -0.3681
  224SOL    HW2  672   2.656   0.567   1.129 -1.5823  0.9069 -0.8349
  225SOL     OW  673   0.765   1.387   1.733 -0.1838 -0.6244  0.1966
  225SOL    HW1  674   0.722   1.481   1.743 -2.5519  2.1066 -1.2492
  225SOL    HW2  675   0.705   1.335   1.672 -1.3393 -1.4343 -0.5510
  226SOL     OW  676   0.849   0.153   0.727 -0.5560  0.0431 -0.3987
  226SOL    HW1  677   0.761   0.121   0.769 -1.2198 -2.0983 -0.9251
  226SOL    HW2  678   0.920   0.166   0.801  1.6333  0.3328  1.4331
  227SOL     OW  679   0.800   1.973   1.574  0.4008  0.1153 -0.0306
  227SOL    HW1  680   0.771   1.977   1.477  0.1584  1.1315  4.8886
  227SOL    HW2  681   0.882   1.922   1.592 -0.3663  2.5930  0.0259
  228SOL     OW  682   0.572   3.076   1.752 -0.3049  0.2887  0.2642
  228SOL    HW1  683   0.628   3.052   1.832 -0.1098  1.0731 -0.1807
  228SOL    HW2  684   0.498   3.005   1.729 -1.6089 -1.5588 -0.7540
  229SOL     OW  685   2.491   0.785   0.542  0.1104 -0.2474  0.1644
  229SOL    HW1  686   2.450   0.702   0.493 -0.9918  0.9764  0.2502
  229SOL    HW2  687   2.535   0.850   0.478 -1.6729  0.2897  0.1327
  230SOL     OW  688   0.382   1.186   2.140 -0.1185 -0.5877 -0.4479
  230SOL    HW1  689   0.375   1.111   2.212  0.1895  0.4290 -0.1801
  230SOL    HW2  690   0.485   1.200   2.115  4.6559  0.4470 -2.1790
  231SOL     OW  691   1.262   2.997   1.285  0.5701 -0.1772 -0.0043
  231SOL    HW1  692   1.210   2.956   1.355  1.0768  0.8478 -2.2843
  231SOL    HW2  693   1.272   3.094   1.303 -0.4879  3.2298 -2.5142
  232SOL     OW  694   2.608   2.349   0.205 -0.5048 -0.2105 -0.3723
  232SOL    HW1  695   2.554   2.371   0.119  2.8627  0.7446  0.6051
  232SOL    HW2  696   2.607   2.250   0.230  0.2498  0.0624 -0.4591
  233SOL     OW  697   0.994   2.856   0.268 -0.2848 -0.4778 -0.5242
  233SOL    HW1  698   0.901   2.896   0.243 -0.1525 -0.9473 -3.3397
  233SOL    HW2  699   1.047   2.850   0.185 -1.1537 -0.1710  0.0674
  234SOL     OW  700   0.903   0.754   2.047 -0.3422  0.1777 -0.2305
  234SOL    HW1  701   0.905   0.853   2.018 -3.6112  1.9907 -0.1117
  234SOL    HW2  702   0.808   0.732   2.081 -0.3818  0.7498  1.4501
  235SOL     OW  703   0.094   2.178   0.435  0.0357  0.4167 -0.7053
  235SOL    HW1  704   0.140   2.255   0.483 -0.6811 -3.9192 -0.8360
  235SOL    HW2  705   3.105   2.200   0.418  3.8656  1.5275  0.9819
  236SOL     OW  706   2.261   2.784   2.484  0.6491 -0.5868 -0.2148
  236SOL    HW1  707   2.286   2.790   2.386  0.0896 -0.1770 -2.3593
  236SOL    HW2  708   2.208   2.701   2.496  0.5564  0.6213 -0.4803
  237SOL     OW  709   1.879   1.272   1.428 -0.3224  1.1478  0.1498
  237SOL    HW1  710   1.955   1.203   1.425 -0.2456  1.3048  1.7391
  237SOL    HW2  711   1.784   1.227   1.409 -2.1511  0.2653  1.8178
  238SOL     OW  712   1.663   0.026   2.385 -0.4577 -0.5399  0.3454
  238SOL    HW1  713   1.717   3.101   2.467  0.0549 -2.1020 -0.1882
  238SOL    HW2  714   1.698   3.075   2.308 -2.5260 -0.3377  2.0292
  239SOL     OW  715   0.810   2.239   1.723 -0.1863 -0.2169 -0.2371
  239SOL    HW1  716   0.792   2.271   1.627  2.6575 -0.4286 -1.2587
  239SOL    HW2  717   0.873   2.161   1.716  0.9595 -1.2812  1.9593
  240SOL     OW  718   2.826   2.621   0.759 -0.1833  0.6304 -0.6793
  240SOL    HW1  719   2.903   2.618   0.688  0.4600 -1.4241 -0.8677
  240SOL    HW2  720   2.833   2.542   0.823 -0.9797 -0.0493  1.2798
  241SOL     OW  721   1.482   1.946   0.260  0.0907 -0.4193 -0.1118
  241SOL    HW1  722   1.430   1.875   0.315 -1.1741 -2.4383  2.9890
  241SOL    HW2  723   1.558   1.993   0.307 -1.1311 -0.3667  0.3491
  242SOL     OW  724   2.269   1.143   3.088  0.6942  0.1598 -0.2618
  242SOL    HW1  725   2.297   1.054   0.019  2.8283  2.0331 -2.7057
  242SOL    HW2  726   2.224   1.138   2.996 -0.6120 -0.2441  1.3980
  243SOL     OW  727   0.759   0.374   1.837 -0.0883  0.2273  0.1464
  243SOL    HW1  728   0.764   0.319   1.753  0.1233 -0.0802 -2.4964
  243SOL    HW2  729   0.676   0.434   1.832 -1.5098 -2.7217 -0.6749
  244SOL     OW  730   1.671   2.833   2.808 -0.2310 -0.2823  0.5774
  244SOL    HW1  731   1.618   2.916   2.791  1.8217 -0.4865 -0.4810
  244SOL    HW2  732   1.727   2.808   2.729  0.7364  1.6303 -0.2360
  245SOL     OW  733   1.700   0.034   2.973  0.3597 -0.7839  0.1376
  245SOL    HW1  734   1.680   0.136   2.973  2.4290  1.3836  0.6268
  245SOL    HW2  735   1.635   3.099   2.905  0.9827 -0.6354 -0.1172
  246SOL     OW  736   1.223   1.229   2.317  0.2089 -0.6321 -0.0321
  246SOL    HW1  737   1.290   1.290   2.266  1.4458  2.4702  0.4922
  246SOL    HW2  738   1.186   1.285   2.395 -0.9992  0.9418 -0.5157
  247SOL     OW  739   2.714   0.598   2.153  0.3530 -0.1463 -0.2387
  247SOL    HW1  740   2.753   0.555   2.071 -0.5246 -0.8188 -1.2893
  247SOL    HW2  741   2.657   0.685   2.139 -0.2912  2.4411  0.2043
  248SOL     OW  742   0.526   0.990   1.845 -0.0484 -0.1419 -0.0634
  248SOL    HW1  743   0.579   1.068   1.809  1.6708 -2.3642 -1.3706
  248SOL    HW2  744   0.424   1.006   1.830 -2.7587  0.7488  2.6603
  249SOL     OW  745   2.488   0.500   0.153  0.1893  0.0107 -0.2569
  249SOL    HW1  746   2.458   0.541   0.241 -0.0200  2.9835 -1.8520
  249SOL    HW2  747   2.491   0.398   0.158  0.0829  2.5954  1.6565
  250SOL     OW  748   2.982   0.203   0.816 -0.1720 -0.0867 -0.2269
  250SOL    HW1  749   2.933   0.248   0.744  2.4061 -0.7902 -0.1482
  250SOL    HW2  750   2.964   0.106   0.812  3.0750  0.3760  0.3464
  251SOL     OW  751   0.829   1.036   2.238 -0.0977  0.3467 -0.3198
  251SOL    HW1  752   0.809   0.982   2.320  0.4301 -0.2758 -1.0854
  251SOL    HW2  753   0.925   1.028   2.216  0.3798 -1.9017  0.0864
  252SOL     OW  754   1.317   1.982   1.799 -0.1187 -0.1659  0.0214
  252SOL    HW1  755   1.300   2.082   1.805  0.9384 -0.5974  1.5363
  252SOL    HW2  756   1.263   1.923   1.861  2.6247  0.9465 -2.3149
  253SOL     OW  757   1.636   2.549   1.868 -0.7580 -0.2744 -0.2625
  253SOL    HW1  758   1.732   2.527   1.890 -0.9825  0.1660 -1.4020
  253SOL    HW2  759   1.633   2.584   1.772  1.5311 -1.0249 -0.9378
  254SOL     OW  760   0.933   2.040   2.275  0.1304 -0.1110  0.5783
  254SOL    HW1  761   0.974   1.946   2.286 -0.6538  1.8333  1.5801
  254SOL    HW2  762   0.956   2.088   2.188  0.3080  2.7756  1.4247
  255SOL     OW  763   1.332   0.607   0.566  0.4123 -0.8260 -0.9418
  255SOL    HW1  764   1.397   0.549   0.625 -0.3647  0.8674  0.1270
  255SOL    HW2  765   1.253   0.548   0.537 -0.9992 -1.6838 -0.6696
  256SOL     OW  766   1.773   2.234   1.118  0.2229 -0.0776  0.0234
  256SOL    HW1  767   1.864   2.279   1.132 -0.5355 -1.0287 -0.8274
  256SOL    HW2  768   1.784   2.133   1.100  0.4392 -0.5598 -2.0796
  257SOL     OW  769   0.276   2.041   2.547 -0.0612  0.5831  0.2253
  257SOL    HW1  770   0.377   2.058   2.565  1.2325  1.2591  1.2831
  257SOL    HW2  771   0.240   1.996   2.631 -0.2472 -0.2161 -0.8991
  258SOL     OW  772   0.474   1.004   2.344 -0.0861  0.2368 -0.3599
  258SOL    HW1  773   0.515   1.066   2.415 -1.6173  0.5979 -0.3026
  258SOL    HW2  774   0.391   0.959   2.391  1.5014 -2.9790  1.3809
  259SOL     OW  775   1.236   1.035   2.511  0.3251  0.0497  1.2906
  259SOL    HW1  776   1.227   1.119   2.457 -0.2435  0.6189 -1.1423
  259SOL    HW2  777   1.297   0.969   2.461  0.7501 -2.0249 -1.4221
  260SOL     OW  778   1.976   0.541   0.502  0.5944 -0.0386 -0.1111
  260SOL    HW1  779   1.907   0.549   0.579 -1.4279 -1.0802  4.2580
  260SOL    HW2  780   2.005   0.441   0.482 -2.5470 -0.1953  2.7758
  261SOL     OW  781   1.116   0.524   2.917 -0.4574 -0.5392 -0.0837
  261SOL    HW1  782   1.029   0.575   2.939  0.2932  0.3132  2.7318
  261SOL    HW2  783   1.095   0.428   2.888 -3.2110  0.1536  0.5504
  262SOL     OW  784   2.313   2.766   2.745  0.5465 -0.2526 -0.2521
  262SOL    HW1  785   2.350   2.672   2.723  1.3473 -0.0778 -2.8837
  262SOL    HW2  786   2.285   2.807   2.657  0.1008  0.6819  1.8193
  263SOL     OW  787   0.770   2.138   0.180  0.5238  0.2491  0.0449
  263SOL    HW1  788   0.860   2.108   0.213  1.6299 -1.5805  0.2071
  263SOL    HW2  789   0.783   2.172   0.087  0.0322  1.2897  0.8301
  264SOL     OW  790   0.306   1.677   1.579  0.5333 -0.2984  0.3820
  264SOL    HW1  791   0.353   1.627   1.652  0.5356 -0.4062 -1.0349
  264SOL    HW2  792   0.228   1.734   1.613  0.6650  1.2434  0.3119
  265SOL     OW  793   0.750   0.957   0.453 -0.3531 -0.0595  0.2301
  265SOL    HW1  794   0.702   0.981   0.538 -0.7282  1.7853 -0.0631
  265SOL    HW2  795   0.790   1.037   0.412 -0.8758 -1.1766  2.0359
  266SOL     OW  796   1.808   1.695   0.004 -0.1049  0.4492 -0.7582
  266SOL    HW1  797   1.875   1.724   0.073 -1.8855 -1.4319  0.0311
  266SOL    HW2  798   1.733   1.762   0.009  0.7587  0.4513  0.6084
  267SOL     OW  799   2.834   0.347   3.105  0.6619  0.3123  0.4954
  267SOL    HW1  800   2.937   0.348   0.006  0.6953  0.1237 -1.3473
  267SOL    HW2  801   2.804   0.392   3.020  1.3913  0.7896 -0.1753
  268SOL     OW  802   0.385   0.210   2.864  0.1033 -0.3751  0.4353
  268SOL    HW1  803   0.485   0.209   2.852 -1.5146 -0.2788 -2.6291
  268SOL    HW2  804   0.341   0.290   2.819  0.8337  1.2539  1.8178
  269SOL     OW  805   1.741   0.399   2.637 -0.1216 -0.5007  0.4877
  269SOL    HW1  806   1.687   0.356   2.557  0.8344 -1.5608 -1.3476
  269SOL    HW2  807   1.676   0.438   2.708  0.9940  0.9109  0.6458
  270SOL     OW  808   1.075   0.851   2.640 -0.0546 -0.1581  0.0685
  270SOL    HW1  809   1.129   0.921   2.590  0.3465  2.5538 -1.0056
  270SOL    HW2  810   1.109   0.842   2.737  1.6617 -3.4252  2.6979
  271SOL     OW  811   2.623   0.874   0.101 -0.2135  0.4528 -0.0637
  271SOL    HW1  812   2.676   0.953   0.065 -3.4117 -3.0735 -1.4645
  271SOL    HW2  813   2.628   0.792   0.040  1.8295  0.5362  2.0803
  272SOL     OW  814   2.563   1.954   2.805  0.5036 -0.0082  0.2857
  272SOL    HW1  815   2.547   2.051   2.781  2.1687  0.7313 -0.3402
  272SOL    HW2  816   2.471   1.909   2.808 -0.9264  0.1569  0.5412
  273SOL     OW  817   2.658   0.485   2.872 -0.1651  0.1051  0.4320
  273SOL    HW1  818   2.582   0.424   2.893  0.9589 -1.4704  1.4691
  273SOL    HW2  819   2.697   0.468   2.781 -2.4243 -0.0462  1.3462
  274SOL     OW  820   0.080   3.011   1.581 -0.3833 -0.5430  0.0744
  274SOL    HW1  821   0.046   3.104   1.586 -0.1232 -4.7850 -2.1582
  274SOL    HW2  822   0.076   2.963   1.672  0.1227  0.8921  1.9289
  275SOL     OW  823   2.188   1.496   0.653  0.2872 -0.3280 -0.3323
  275SOL    HW1  824   2.233   1.413   0.624  0.9499  0.8003  2.7573
  275SOL    HW2  825   2.087   1.485   0.645 -2.1789  0.3412 -0.9777
  276SOL     OW  826   0.235   1.372   2.684 -0.9032 -0.0374  0.2102
  276SOL    HW1  827   0.325   1.333   2.715 -1.6097 -1.0528 -0.2261
  276SOL    HW2  828   0.238   1.416   2.588  3.9159  0.4445 -2.4436
  277SOL     OW  829   1.895   2.470   1.958  0.3406 -0.1381  0.2821
  277SOL    HW1  830   1.882   2.564   1.995 -2.2895 -0.9014  2.7938
  277SOL    HW2  831   1.938   2.405   2.021  1.3965  0.6862  0.3814
  278SOL     OW  832   1.994   0.341   1.429  0.0172 -0.0208 -0.0689
  278SOL    HW1  833   2.049   0.258   1.398  0.2215  1.3385 -0.2817
  278SOL    HW2  834   1.913   0.359   1.370 -2.3074  0.1654 -2.1616
  279SOL     OW  835   1.552   1.342   2.862  0.0302 -0.6137  0.1550
  279SOL    HW1  836   1.606   1.260   2.849  0.3465  0.1968  0.4770
  279SOL    HW2  837   1.619   1.419   2.870  1.2973  0.1370  1.4297
  280SOL     OW  838   0.821   1.569   1.071 -0.4630 -0.4286  0.0091
  280SOL    HW1  839   0.737   1.543   1.019 -0.1375  1.2250 -1.3931
  280SOL    HW2  840   0.828   1.672   1.094  0.1008 -0.0603 -0.8896
  281SOL     OW  841   3.095   0.024   2.433 -0.4725 -0.5179 -0.0474
  281SOL    HW1  842   3.009   0.068   2.397  1.4841 -5.6188  1.6633
  281SOL    HW2  843   3.070   3.059   2.499  0.7208  1.3440 -0.1135
  282SOL     OW  844   0.185   1.026   1.396 -0.0855 -0.1940  0.0842
  282SOL    HW1  845   0.133   1.082   1.464  1.4524  0.5480 -1.7106
  282SOL    HW2  846   0.128   0.949   1.369  1.6747  2.6976  2.2254
  283SOL     OW  847   1.731   2.457   2.622 -0.1086 -0.0051  0.1546
  283SOL    HW1  848   1.689   2.538   2.578 -0.6361 -1.5862  0.5967
  283SOL    HW2  849   1.658   2.383   2.628 -1.2958 -1.9327  2.4122
  284SOL     OW  850   1.906   1.238   0.181 -0.4061 -0.0502 -0.3492
  284SOL    HW1  851   1.866   1.328   0.211 -0.3436  1.2006  0.2573
  284SOL    HW2  852   1.884   1.220   0.085  1.7896  1.3757 -1.3790
  285SOL     OW  853   3.103   0.018   2.955 -0.0146 -0.3550 -0.2274
  285SOL    HW1  854   0.013   0.075   3.042 -1.4154  1.3193  1.4848
  285SOL    HW2  855   0.084   0.002   2.907 -2.2858  1.1587  0.5305
  286SOL     OW  856   1.932   3.080   1.574 -0.3023 -0.6094 -0.0286
  286SOL    HW1  857   1.876   2.999   1.550 -0.0607 -1.7017 -0.8283
  286SOL    HW2  858   1.956   0.006   1.484 -4.5320 -1.2950 -0.1385
  287SOL     OW  859   0.761   0.840   1.324  0.0845 -0.4744  0.4286
  287SOL    HW1  860   0.740   0.739   1.336  0.0459 -0.0630  1.1884
  287SOL    HW2  861   0.750   0.895   1.410 -1.7570  0.8290  1.1789
  288SOL     OW  862   1.408   2.828   0.114 -0.7474 -0.1268  0.4363
  288SOL    HW1  863   1.481   2.792   0.054  0.8762  0.4757  1.5716
  288SOL    HW2  864   1.315   2.818   0.078 -1.1623 -1.0714  0.2363
  289SOL     OW  865   3.083   1.807   3.099  0.2285 -0.0364 -0.0729
  289SOL    HW1  866   0.021   1.883   3.044  1.0789 -1.1717  0.0161
  289SOL    HW2  867   3.062   1.729   3.037  1.3639 -0.2315  0.9621
  290SOL     OW  868   0.930   2.642   0.663 -0.0097  0.5561  0.0781
  290SOL    HW1  869   1.004   2.598   0.715 -0.0124  2.2551  2.3724
  290SOL    HW2  870   0.953   2.739   0.674 -1.8245  2.8610 -1.1848
  291SOL     OW  871   2.010   2.254   0.074 -0.6410 -0.3892 -0.3376
  291SOL    HW1  872   2.061   2.245   0.162  0.5201 -0.3125  0.4318
  291SOL    HW2  873   1.918   2.220   0.073  0.2476  0.6661 -1.2356
  292SOL     OW  874   0.898   1.230   1.955  0.0378  0.0106  0.2086
  292SOL    HW1  875   0.921   1.132   1.941 -0.0540  0.3943  0.4424
  292SOL    HW2  876   0.868   1.274   1.869  0.6215  0.7602  0.5432
  293SOL     OW  877   2.387   2.652   1.011  0.0420  0.0518 -0.0840
  293SOL    HW1  878   2.374   2.572   0.948 -0.1178  2.1251  2.1203
  293SOL    HW2  879   2.487   2.672   1.021  0.3593  0.5317 -1.0310
  294SOL     OW  880   2.992   0.381   2.397  0.1729  0.0635 -0.4149
  294SOL    HW1  881   2.946   0.469   2.415  0.0563  0.5710  2.2363
  294SOL    HW2  882   3.090   0.399   2.372  0.1284 -0.5708  1.3474
  295SOL     OW  883   1.020   2.045   0.220 -0.7604  0.5693 -0.0626
  295SOL    HW1  884   1.010   2.007   0.130  0.4735  1.0951  2.7510
  295SOL    HW2  885   1.117   2.066   0.232 -0.3669 -3.8457  0.5516
  296SOL     OW  886   2.113   2.078   2.811  0.2940 -0.3275 -0.1414
  296SOL    HW1  887   2.026   2.072   2.862  1.1402  0.0913  3.2140
  296SOL    HW2  888   2.174   1.997   2.833  0.0810 -4.7032 -0.0219
  297SOL     OW  889   2.669   0.636   3.084  0.7059  0.0832 -0.0928
  297SOL    HW1  890   2.681   0.597   2.988  1.0394  1.4694 -1.9331
  297SOL    HW2  891   2.609   0.574   0.036  0.4909  1.2366  1.6199
  298SOL     OW  892   0.815   2.199   3.038  0.0875  0.0251  0.2486
  298SOL    HW1  893   0.841   2.144   2.960 -0.1440  2.9449  1.6732
  298SOL    HW2  894   0.725   2.243   3.014 -1.4399  2.7444  0.9841
  299SOL     OW  895   1.437   2.837   2.453 -0.0127  0.0735 -0.1484
  299SOL    HW1  896   1.469   2.932   2.472  0.5588 -3.6850 -1.7999
  299SOL    HW2  897   1.366   2.807   2.520  1.2483 -3.0188 -0.1685
  300SOL     OW  898   2.846   0.415   0.274 -0.8331  0.7512  0.0852
  300SOL    HW1  899   2.760   0.417   0.321  3.2055 -2.8548 -0.2512
  300SOL    HW2  900   2.830   0.383   0.176  1.3309 -0.3833 -2.0616
  301SOL     OW  901   0.927   0.966   1.866 -0.3484  0.2179 -0.1124
  301SOL    HW1  902   1.003   0.980   1.804 -2.1364  1.4210 -1.0933
  301SOL    HW2  903   0.884   0.878   1.844  2.6187  2.8187  0.1740
  302SOL     OW  904   0.049   2.242   0.046 -0.2067  0.1587 -0.0746
  302SOL    HW1  905   0.013   2.161   0.095 -0.9912 -0.5994 -1.0894
  302SOL    HW2  906   3.088   2.320   0.051  1.8768 -2.6794  1.4421
  303SOL     OW  907   3.000   2.919   2.579  0.4186  0.0610  0.7455
  303SOL    HW1  908   3.092   2.873   2.571  0.7369 -0.6166  0.5950
  303SOL    HW2  909   2.927   2.848   2.555 -0.9293  2.3426 -0.6706
  304SOL     OW  910   2.589   0.826   2.090 -0.0527  0.0700 -0.0860
  304SOL    HW1  911   2.652   0.902   2.073 -0.2346 -0.3597 -0.5437
  304SOL    HW2  912   2.530   0.818   2.009  0.3674 -0.3361 -1.6825
  305SOL     OW  913   0.892   2.500   2.209  0.2534  0.4858 -0.1083
  305SOL    HW1  914   0.891   2.543   2.118 -2.5680  0.7334  1.7552
  305SOL    HW2  915   0.876   2.567   2.282  1.6270 -0.6527 -1.8885
  306SOL     OW  916   2.588   1.104   1.584 -0.2507 -0.3697 -0.3664
  306SOL    HW1  917   2.550   1.022   1.534 -0.5532 -1.0888  1.7126
  306SOL    HW2  918   2.554   1.107   1.683  0.2824  1.3224 -0.2155
  307SOL     OW  919   1.541   0.676   1.354  0.5372  0.3983 -0.1789
  307SOL    HW1  920   1.592   0.592   1.391  0.6639 -1.2876  0.1314
  307SOL    HW2  921   1.486   0.649   1.270  0.1159 -0.3968 -1.4733
  308SOL     OW  922   2.612   1.794   1.140  0.0821  0.2723  0.6055
  308SOL    HW1  923   2.544   1.796   1.210  2.2949  0.9922 -4.3602
  308SOL    HW2  924   2.593   1.866   1.066  0.0599  0.9442 -1.8160
  309SOL     OW  925   2.268   1.477   1.537 -0.1951 -0.1418 -0.0620
  309SOL    HW1  926   2.203   1.470   1.463  0.6860 -2.1532  1.2213
  309SOL    HW2  927   2.363   1.465   1.499 -0.2797  0.5574 -1.5468
  310SOL     OW  928   2.874   1.584   3.033 -0.2688 -0.2752 -0.4854
  310SOL    HW1  929   2.858   1.524   2.955 -1.0810  0.6590  1.2067
  310SOL    HW2  930   2.817   1.669   3.026 -1.6036  1.7505  2.6923
  311SOL     OW  931   2.319   2.173   2.988 -0.1000 -0.2143 -0.1402
  311SOL    HW1  932   2.217   2.186   2.976 -0.5792  0.8264  0.7294
  311SOL    HW2  933   2.371   2.176   2.898  2.8128 -0.2324 -0.0570
  312SOL     OW  934   2.319   1.815   1.228 -0.0473  0.4926  0.1136
  312SOL    HW1  935   2.232   1.790   1.275 -2.0954  1.5366 -0.0667
  312SOL    HW2  936   2.353   1.893   1.280 -1.8724 -1.0670  0.9712
  313SOL     OW  937   2.264   2.302   1.127  0.1117  0.2676  0.3553
  313SOL    HW1  938   2.316   2.349   1.055 -1.4197 -0.6135  1.0619
  313SOL    HW2  939   2.324   2.266   1.200  0.3628 -1.8177  0.1100
  314SOL     OW  940   0.929   2.186   0.630 -0.2283  0.2236 -0.1040
  314SOL    HW1  941   0.906   2.229   0.720  2.3662 -1.1700  0.3903
  314SOL    HW2  942   0.848   2.132   0.598 -0.9178 -1.0785 -0.5258
  315SOL     OW  943   0.771   2.686   2.924 -0.4309 -0.1619  0.1934
  315SOL    HW1  944   0.758   2.597   2.879  1.2208  1.7575 -1.1929
  315SOL    HW2  945   0.839   2.733   2.865  2.1438 -2.1992 -1.9798
  316SOL     OW  946   0.151   0.432   0.323  0.3173  0.1555 -0.3390
  316SOL    HW1  947   0.071   0.491   0.323  1.1341 -2.5210 -0.4392
  316SOL    HW2  948   0.219   0.474   0.260 -0.5621  0.9724  0.5998
  317SOL     OW  949   1.536   0.495   0.741  0.0657 -0.3380 -0.0760
  317SOL    HW1  950   1.481   0.427   0.788 -0.8292 -1.4635  0.3150
  317SOL    HW2  951   1.522   0.584   0.784  3.1952  1.6473  1.7587
  318SOL     OW  952   3.060   2.552   0.595  0.1574  0.2986  0.7331
  318SOL    HW1  953   3.071   2.621   0.520  1.1492  0.4543 -0.6617
  318SOL    HW2  954   3.014   2.465   0.563  0.5846 -0.1632 -0.4213
  319SOL     OW  955   0.561   1.641   2.886 -0.1236  0.1568 -0.2548
  319SOL    HW1  956   0.532   1.724   2.936 -3.5453 -1.1172 -0.3342
  319SOL    HW2  957   0.514   1.558   2.936 -1.2666  1.7823 -0.2676
  320SOL     OW  958   0.877   2.660   2.450  0.0109  0.3810  0.2379
  320SOL    HW1  959   0.967   2.699   2.426 -2.7521  1.9206  0.8285
  320SOL    HW2  960   0.900   2.582   2.513  0.1860  0.0280  1.2702
  321SOL     OW  961   1.256   3.025   0.227 -0.0557  0.5540  0.0090
  321SOL    HW1  962   1.305   2.952   0.177 -0.3879  1.0104  0.0046
  321SOL    HW2  963   1.170   3.050   0.183  0.6025  1.8638 -1.1001
  322SOL     OW  964   2.468   1.317   1.960 -1.1629 -0.0551 -0.1111
  322SOL    HW1  965   2.424   1.335   2.047  0.5940 -1.9155 -0.4981
  322SOL    HW2  966   2.485   1.400   1.909 -2.1439 -1.0303 -0.4650
  323SOL     OW  967   2.350   0.571   0.402 -0.0902  0.4554 -0.2414
  323SOL    HW1  968   2.263   0.601   0.363  1.5895 -1.0537  1.1423
  323SOL    HW2  969   2.343   0.486   0.456 -0.8626  0.4831 -2.9519
  324SOL     OW  970   0.311   2.856   2.941  0.0569 -0.0192 -0.5054
  324SOL    HW1  971   0.287   2.947   2.897  2.0571  0.5875 -2.0333
  324SOL    HW2  972   0.265   2.780   2.885 -0.5973 -0.0903  0.9118
  325SOL     OW  973   1.583   0.282   2.385 -0.6134 -0.2873  0.4060
  325SOL    HW1  974   1.614   0.186   2.363  1.0253 -1.5318 -1.1859
  325SOL    HW2  975   1.500   0.286   2.438  0.8139  0.1216 -1.2318
  326SOL     OW  976   2.346   2.552   1.293 -0.7396  0.1491  0.0982
  326SOL    HW1  977   2.249   2.565   1.321  0.7221 -0.1873 -0.9173
  326SOL    HW2  978   2.361   2.560   1.191 -1.0006  0.1765 -1.7788
  327SOL     OW  979   1.595   0.333   3.010  0.4280  0.8959  0.0347
  327SOL    HW1  980   1.528   0.278   3.064  0.9257 -1.5693  0.0735
  327SOL    HW2  981   1.648   0.390   3.072 -0.3387 -1.8232 -0.2305
  328SOL     OW  982   2.780   1.379   2.596  0.2122  0.4860 -0.1583
  328SOL    HW1  983   2.697   1.429   2.560  2.1532 -1.1092 -0.8222
  328SOL    HW2  984   2.865   1.436   2.597 -1.1576 -0.0072 -2.4819
  329SOL     OW  985   1.695   2.843   1.798  0.0671 -0.2440  0.8209
  329SOL    HW1  986   1.781   2.889   1.774 -2.4040  4.1175  2.2018
  329SOL    HW2  987   1.669   2.767   1.733  2.5746 -1.9902  3.1656
  330SOL     OW  988   2.578   1.396   1.522 -0.4544  0.1653  0.3064
  330SOL    HW1  989   2.583   1.305   1.566  0.5448  0.9542 -1.7414
  330SOL    HW2  990   2.645   1.465   1.565  0.2171  1.7346 -1.1721
  331SOL     OW  991   0.358   1.336   1.414  0.1369  0.3406  0.0570
  331SOL    HW1  992   0.448   1.356   1.374 -0.0395  0.3840 -0.4261
  331SOL    HW2  993   0.363   1.314   1.512  0.6795  1.6475  0.0108
  332SOL     OW  994   0.824   0.211   1.369  0.0862 -0.6429  0.7318
  332SOL    HW1  995   0.805   0.218   1.269 -1.7571 -1.2587 -0.8409
  332SOL    HW2  996   0.741   0.207   1.427  0.0133  1.1355  2.1215
  333SOL     OW  997   2.128   2.740   1.692 -0.8040 -0.4247  0.0954
  333SOL    HW1  998   2.218   2.787   1.680  2.9748  0.7415  1.8596
  333SOL    HW2  999   2.069   2.801   1.747  0.8745 -0.9678 -2.0985
  334SOL     OW 1000   1.010   1.201   1.502  1.0191 -0.0982 -0.0426
  334SOL    HW1 1001   0.990   1.211   1.401  0.4793 -0.7971 -2.5317
  334SOL    HW2 1002   1.092   1.140   1.511 -0.2597 -3.0186 -0.8155
  335SOL     OW 1003   1.065   3.075   2.976 -0.2573  0.6936  0.2046
  335SOL    HW1 1004   0.988   0.013   3.032 -0.4068  1.6657  0.2207
  335SOL    HW2 1005   1.033   3.032   2.888  0.3660 -0.6245 -2.9581
  336SOL     OW 1006   3.053   2.478   2.212 -0.4927  0.5273  0.1206
  336SOL    HW1 1007   0.031   2.501   2.268  1.7794 -0.7751  3.2896
  336SOL    HW2 1008   3.086   2.437   2.124  0.3220 -0.5147 -0.3380
  337SOL     OW 1009   2.475   1.490   0.374  0.3461 -0.1868  0.5990
  337SOL    HW1 1010   2.401   1.548   0.408  0.7035 -2.3827 -0.6366
  337SOL    HW2 1011   2.560   1.541   0.351  0.9799 -1.2179 -1.4546
  338SOL     OW 1012   1.007   2.005   1.299 -0.4296 -0.7100  0.1318
  338SOL    HW1 1013   1.076   2.028   1.224  1.9365 -0.8797  0.3375
  338SOL    HW2 1014   0.974   1.912   1.285  0.8118 -0.6391  0.8564
  339SOL     OW 1015   2.958   0.883   2.368 -0.2214  0.3858 -0.0773
  339SOL    HW1 1016   2.950   0.789   2.348  0.8874  3.2578  5.2371
  339SOL    HW2 1017   2.971   0.942   2.286 -0.7445 -0.3380 -1.0625
  340SOL     OW 1018   1.549   2.857   1.224  0.1704 -0.6260  0.2466
  340SOL    HW1 1019   1.637   2.813   1.225 -0.3178 -0.1693 -1.3818
  340SOL    HW2 1020   1.479   2.793   1.181  0.1417 -0.3600 -1.9230
  341SOL     OW 1021   1.719   1.740   0.681 -0.2785 -0.3065 -0.4490
  341SOL    HW1 1022   1.765   1.682   0.610 -0.1749  0.7027  0.3309
  341SOL    HW2 1023   1.771   1.745   0.768  0.3827 -1.3543  0.6107
  342SOL     OW 1024   0.430   1.276   1.060  0.9668 -0.4765 -0.2331
  342SOL    HW1 1025   0.458   1.297   0.964 -0.4160  0.1177 -1.1351
  342SOL    HW2 1026   0.329   1.257   1.064 -0.4858  1.7153 -2.0908
  343SOL     OW 1027   2.430   0.524   1.491  0.0413 -0.2624 -0.2696
  343SOL    HW1 1028   2.499   0.577   1.545 -0.3294  2.1918 -2.4502
  343SOL    HW2 1029   2.339   0.568   1.497  0.0094 -0.3177 -1.1282
  344SOL     OW 1030   2.069   2.573   0.579 -0.6532  0.3718  0.1833
  344SOL    HW1 1031   2.031   2.574   0.487 -0.0900  1.9988 -1.5229
  344SOL    HW2 1032   2.118   2.486   0.596  1.8694  0.0631  0.0675
  345SOL     OW 1033   3.005   2.370   2.627 -0.4037  0.3098 -0.0563
  345SOL    HW1 1034   2.958   2.418   2.552 -0.8958  0.2927 -1.5189
  345SOL    HW2 1035   3.092   2.416   2.646 -0.4029 -3.0660 -0.4555
  346SOL     OW 1036   2.940   0.757   0.502 -0.3319 -0.0550 -0.1436
  346SOL    HW1 1037   3.031   0.778   0.552 -0.5171  2.4793  2.6938
  346SOL    HW2 1038   2.899   0.843   0.460 -0.4233  0.1138  2.0795
  347SOL     OW 1039   1.779   2.722   1.256  0.0462  0.0947  0.2548
  347SOL    HW1 1040   1.797   2.640   1.310 -0.4789  0.4083 -0.2066
  347SOL    HW2 1041   1.861   2.761   1.213 -1.2749  2.1474 -1.7118
  348SOL     OW 1042   1.483   1.682   2.350  0.2476  0.4407  0.2135
  348SOL    HW1 1043   1.476   1.581   2.355 -2.0214 -1.8194  0.0093
  348SOL    HW2 1044   1.439   1.719   2.269 -1.1135  1.5778 -0.6019
  349SOL     OW 1045   2.208   1.277   2.139  0.3672 -0.1036  0.2011
  349SOL    HW1 1046   2.230   1.189   2.185 -0.8242 -0.6347  0.0347
  349SOL    HW2 1047   2.253   1.361   2.185  0.2359 -1.5287  2.2477
  350SOL     OW 1048   0.179   1.756   1.012  0.1562  0.5797 -0.0884
  350SOL    HW1 1049   0.248   1.793   1.081 -0.3569  2.1385  3.0196
  350SOL    HW2 1050   0.119   1.826   0.979  2.3043 -2.3994 -0.2224
  351SOL     OW 1051   0.946   0.345   2.367  0.0254  0.1154  0.1894
  351SOL    HW1 1052   0.949   0.405   2.450  1.7866  0.2753  1.6644
  351SOL    HW2 1053   0.858   0.360   2.314 -0.8051 -0.3328  1.3334
  352SOL     OW 1054   0.861   2.666   1.968  0.6253 -0.2150 -0.0850
  352SOL    HW1 1055   0.907   2.734   2.027 -0.6175  1.5563 -1.2435
  352SOL    HW2 1056   0.873   2.698   1.874 -1.5736 -2.4404  0.6093
  353SOL     OW 1057   0.674   1.373   2.363 -0.5345  0.1522  0.3037
  353SOL    HW1 1058   0.687   1.328   2.273 -3.0888 -1.3875  0.9307
  353SOL    HW2 1059   0.630   1.465   2.340 -1.2356  1.1885 -0.3588
  354SOL     OW 1060   1.935   1.352   0.577 -0.4340 -0.6250 -0.1457
  354SOL    HW1 1061   1.847   1.316   0.615 -0.4304  1.1243 -0.5507
  354SOL    HW2 1062   1.962   1.296   0.497  1.5388 -0.2594 -1.1078
  355SOL     OW 1063   2.409   0.032   0.723 -0.0856 -0.8730 -0.9489
  355SOL    HW1 1064   2.445   3.044   0.704 -1.1108  1.7280  1.2677
  355SOL    HW2 1065   2.481   0.090   0.767 -1.1304  1.7621  0.7429
  356SOL     OW 1066   3.099   1.253   2.587  0.1707 -1.0804 -0.1388
  356SOL    HW1 1067   3.059   1.349   2.572 -1.6244  2.3126 -2.0611
  356SOL    HW2 1068   0.097   1.253   2.594  0.8755 -0.1635 -3.4623
  357SOL     OW 1069   2.948   2.804   1.687 -0.0761 -0.3079 -0.2120
  357SOL    HW1 1070   2.988   2.862   1.762  2.4700  0.5653 -0.3521
  357SOL    HW2 1071   3.018   2.746   1.641 -0.8945  1.9802 -2.0360
  358SOL     OW 1072   3.009   1.518   2.577  0.0041 -0.7985 -0.4898
  358SOL    HW1 1073   3.052   1.552   2.663  0.6498  2.3288  0.2400
  358SOL    HW2 1074   3.049   1.567   2.501 -0.6743  0.1044  0.6944
  359SOL     OW 1075   2.620   2.431   2.865  0.4486  0.1181  0.2222
  359SOL    HW1 1076   2.721   2.441   2.881 -0.9178  0.2075 -0.2218
  359SOL    HW2 1077   2.572   2.460   2.952  0.8265  1.5666  1.6892
  360SOL     OW 1078   1.414   1.281   1.115 -0.3604  0.3123 -0.0503
  360SOL    HW1 1079   1.394   1.192   1.065  0.4879 -1.1263 -0.8286
  360SOL    HW2 1080   1.498   1.320   1.082  0.2716 -0.6391  3.3000
  361SOL     OW 1081   2.020   2.388   1.147  0.2184  0.0918 -0.3351
  361SOL    HW1 1082   2.117   2.362   1.153 -1.0937 -0.0003  1.4266
  361SOL    HW2 1083   2.009   2.481   1.107  0.2008  1.3864  0.4804
  362SOL     OW 1084   1.608   1.385   0.891 -0.0806  0.0725 -0.4302
  362SOL    HW1 1085   1.694   1.430   0.922 -1.2209 -0.2694  1.0849
  362SOL    HW2 1086   1.532   1.450   0.878 -0.6645 -2.3506  0.3461
  363SOL     OW 1087   2.623   2.080   0.245 -0.1268 -0.3111 -0.7162
  363SOL    HW1 1088   2.669   2.060   0.159  1.5989 -0.6857  3.0931
  363SOL    HW2 1089   2.660   2.023   0.321 -1.5714  0.7909  2.1603
  364SOL     OW 1090   2.301   0.338   1.691  0.3768  0.0528  0.0303
  364SOL    HW1 1091   2.378   0.290   1.635  2.7751  0.3407 -0.6709
  364SOL    HW2 1092   2.254   0.403   1.635  1.5365 -1.1355  1.8513
  365SOL     OW 1093   2.771   2.554   1.490  0.2734  0.2476 -0.3897
  365SOL    HW1 1094   2.759   2.521   1.585 -0.6046 -0.8636 -0.4309
  365SOL    HW2 1095   2.862   2.518   1.459  4.1067  1.0498  0.9077
  366SOL     OW 1096   0.005   1.238   0.030 -0.4140  0.2349  0.0297
  366SOL    HW1 1097   3.092   1.233   3.033  0.4699  0.6753 -2.5936
  366SOL    HW2 1098   3.044   1.185   0.080  2.5435  1.4898 -0.5390
  367SOL     OW 1099   2.415   2.654   3.002  0.0255  0.5908 -0.3569
  367SOL    HW1 1100   2.379   2.708   2.922 -1.2040  1.7445 -3.0685
  367SOL    HW2 1101   2.478   2.715   3.055 -0.2681 -0.4890 -3.6054
  368SOL     OW 1102   3.089   1.676   1.342  0.0817  0.0389  0.1449
  368SOL    HW1 1103   0.058   1.734   1.301 -0.4181 -1.4807 -0.9211
  368SOL    HW2 1104   3.007   1.662   1.285 -0.6572  0.0763  0.5144
  369SOL     OW 1105   0.528   0.268   0.743  0.0174 -0.1680  0.2701
  369SOL    HW1 1106   0.449   0.312   0.781  3.3693 -1.4147 -4.1655
  369SOL    HW2 1107   0.507   0.274   0.644 -0.4127  1.2828  0.2843
  370SOL     OW 1108   0.639   0.429   0.961 -0.4008 -0.2992  0.1455
  370SOL    HW1 1109   0.556   0.482   0.994 -3.4917  1.5970 -0.3057
  370SOL    HW2 1110   0.607   0.363   0.890 -1.6459 -1.4912 -0.2091
  371SOL     OW 1111   2.302   1.554   0.122  0.4055  0.8145 -0.1580
  371SOL    HW1 1112   2.279   1.578   0.215  2.0789  0.1273 -0.5381
  371SOL    HW2 1113   2.390   1.506   0.121 -0.8080 -0.5443  3.9687
  372SOL     OW 1114   0.302   0.847   2.475 -0.4117  0.4287 -0.4216
  372SOL    HW1 1115   0.231   0.798   2.526  0.9405 -2.6185  3.6399
  372SOL    HW2 1116   0.395   0.827   2.514 -1.3759 -1.3894 -0.2372
  373SOL     OW 1117   2.939   1.066   0.172 -0.2551 -0.3213  0.0250
  373SOL    HW1 1118   2.906   1.039   0.265  0.6809 -0.5223 -0.7754
  373SOL    HW2 1119   2.864   1.070   0.105  1.5836  1.5868  1.5993
  374SOL     OW 1120   0.581   2.345   2.951  0.2030  0.3530 -0.1267
  374SOL    HW1 1121   0.561   2.411   3.031  2.7906 -2.1588  1.4746
  374SOL    HW2 1122   0.586   2.388   2.858 -1.9585 -0.8485  0.2491
  375SOL     OW 1123   1.319   0.393   0.138 -0.2261 -0.4523 -0.3850
  375SOL    HW1 1124   1.281   0.467   0.079  1.8992  0.9797 -1.0500
  375SOL    HW2 1125   1.267   0.388   0.230 -4.0227 -2.2982  1.8774
  376SOL     OW 1126   0.022   2.916   1.890 -0.1152  0.3061 -0.0356
  376SOL    HW1 1127   3.091   2.930   1.986 -1.1506 -0.0548  2.6410
  376SOL    HW2 1128   0.108   2.862   1.886  1.1516  0.8532 -1.0037
  377SOL     OW 1129   2.899   2.114   2.683  0.3048  0.1417 -0.0975
  377SOL    HW1 1130   2.956   2.201   2.670  2.2525  0.6986 -0.2864
  377SOL    HW2 1131   2.949   2.026   2.650  0.8491  1.3708  0.6769
  378SOL     OW 1132   1.660   0.811   0.592  0.1885 -0.3562  0.0257
  378SOL    HW1 1133   1.621   0.770   0.509  2.8390 -0.3839  0.3344
  378SOL    HW2 1134   1.606   0.897   0.621 -2.0413  2.2051  0.2944
  379SOL     OW 1135   1.239   1.481   0.404 -0.4600  0.2396  0.2966
  379SOL    HW1 1136   1.138   1.490   0.384  1.6874  1.6634  0.1046
  379SOL    HW2 1137   1.257   1.445   0.500  1.2399 -0.5635  5.1093
  380SOL     OW 1138   2.240   2.330   2.009  0.1275 -0.0176  0.1443
  380SOL    HW1 1139   2.307   2.364   2.077  1.0867  0.3158 -2.0941
  380SOL    HW2 1140   2.148   2.316   2.053 -0.6192  0.6274 -0.3110
  381SOL     OW 1141   2.803   1.001   2.012  0.0684  0.0861  0.2376
  381SOL    HW1 1142   2.884   1.017   2.071 -0.3980  0.2356 -1.1069
  381SOL    HW2 1143   2.824   1.050   1.925 -1.0300 -1.7423 -0.2533
  382SOL     OW 1144   3.011   2.474   0.021  0.3248 -0.2478  0.2452
  382SOL    HW1 1145   2.966   2.471   3.037  1.9726 -0.6559  0.9548
  382SOL    HW2 1146   3.064   2.562   0.021  0.0330  0.8561  1.2645
  383SOL     OW 1147   1.653   1.258   2.165  0.1460  0.0572 -0.1304
  383SOL    HW1 1148   1.656   1.208   2.077 -0.6407  0.5890 -0.8861
  383SOL    HW2 1149   1.749   1.289   2.191 -1.1515 -0.3718  2.3567
  384SOL     OW 1150   0.944   2.177   2.518 -0.1520 -0.1073  0.2548
  384SOL    HW1 1151   0.924   2.139   2.424  1.4473 -0.1475 -0.6201
  384SOL    HW2 1152   0.969   2.100   2.577  0.2931 -0.2619 -0.5843
  385SOL     OW 1153   2.694   1.881   0.444 -0.3719  0.1510 -0.1537
  385SOL    HW1 1154   2.623   1.880   0.517 -1.6930  0.5917  0.5323
  385SOL    HW2 1155   2.670   1.808   0.372  0.8853 -1.1635 -2.7878
  386SOL     OW 1156   1.286   1.131   0.152 -0.2562 -0.2906  0.2378
  386SOL    HW1 1157   1.299   1.211   0.093 -0.8090 -1.3666 -0.8128
  386SOL    HW2 1158   1.237   1.164   0.233  0.9929  0.1381  1.4959
  387SOL     OW 1159   2.856   0.490   1.393  0.2473 -0.3833  0.7203
  387SOL    HW1 1160   2.907   0.577   1.406  0.4913 -0.8540 -0.2114
  387SOL    HW2 1161   2.916   0.409   1.403 -0.5345 -0.8422 -1.0282
  388SOL     OW 1162   2.777   0.871   1.303  0.2210 -0.0052 -0.2502
  388SOL    HW1 1163   2.837   0.917   1.238  0.4225  0.6152  0.5226
  388SOL    HW2 1164   2.719   0.803   1.253  1.4483 -2.1440  1.1389
  389SOL     OW 1165   1.690   1.479   2.576  0.2233 -0.3157 -0.6144
  389SOL    HW1 1166   1.614   1.412   2.565  0.9191 -1.7738 -0.8166
  389SOL    HW2 1167   1.665   1.558   2.630 -2.7318 -1.7262 -0.1237
  390SOL     OW 1168   1.691   2.324   0.336 -0.0319 -0.4606  0.1775
  390SOL    HW1 1169   1.788   2.335   0.360 -1.3292 -0.2316  1.4367
  390SOL    HW2 1170   1.665   2.370   0.248 -0.2416 -1.0780 -1.6922
  391SOL     OW 1171   1.173   2.425   1.033 -0.5262 -0.3160  0.0515
  391SOL    HW1 1172   1.243   2.349   1.033 -1.7246 -0.3246 -1.5739
  391SOL    HW2 1173   1.147   2.441   0.934  1.6310 -2.3219 -1.5824
  392SOL     OW 1174   2.503   2.676   1.485 -0.1957 -0.6140 -0.3458
  392SOL    HW1 1175   2.452   2.631   1.408 -0.2511  1.6198 -1.4947
  392SOL    HW2 1176   2.584   2.621   1.518 -1.0738  0.9472 -0.1883
  393SOL     OW 1177   1.893   2.549   2.274 -0.4529 -0.1856  0.5495
  393SOL    HW1 1178   1.914   2.597   2.183  0.5535 -0.4169 -0.0353
  393SOL    HW2 1179   1.799   2.574   2.302  2.1703 -0.6141 -0.1164
  394SOL     OW 1180   0.494   2.876   2.368  0.3137 -0.0919  0.3554
  394SOL    HW1 1181   0.536   2.936   2.299  0.7976 -0.5723 -0.1187
  394SOL    HW2 1182   0.401   2.910   2.386  1.8659 -1.4147  2.3856
  395SOL     OW 1183   0.456   1.042   1.430  0.0380  0.3995 -0.1077
  395SOL    HW1 1184   0.352   1.054   1.418  0.6413  0.1300 -0.6636
  395SOL    HW2 1185   0.494   1.044   1.332 -0.2994  1.3788 -1.5269
  396SOL     OW 1186   2.061   1.200   2.389 -0.2443  0.3563 -0.4035
  396SOL    HW1 1187   1.979   1.153   2.422  1.4789  0.7471  0.3062
  396SOL    HW2 1188   2.134   1.217   2.457  0.2995  0.1578  1.1608
  397SOL     OW 1189   2.817   0.432   2.643  0.5442  1.1142  0.7535
  397SOL    HW1 1190   2.912   0.407   2.659 -4.2894  2.5913 -0.9522
  397SOL    HW2 1191   2.785   0.440   2.547 -1.1016 -1.2691  0.3498
  398SOL     OW 1192   1.874   2.935   0.383 -0.0677  0.3733  0.2221
  398SOL    HW1 1193   1.950   2.870   0.372 -2.4146 -1.7135  1.2929
  398SOL    HW2 1194   1.890   3.010   0.448  1.6842 -1.8677 -0.3381
  399SOL     OW 1195   2.449   2.566   2.042 -0.1516 -0.2664 -0.1553
  399SOL    HW1 1196   2.397   2.536   2.131 -3.3767 -0.5795  3.1580
  399SOL    HW2 1197   2.491   2.655   2.062 -2.1563  0.2780 -2.1760
  400SOL     OW 1198   0.292   2.168   2.232 -0.3082 -0.2393 -0.1249
  400SOL    HW1 1199   0.227   2.131   2.158 -0.0270 -0.9471 -1.7863
  400SOL    HW2 1200   0.320   2.259   2.202 -2.5062 -1.2969  1.8568
  401SOL     OW 1201   0.568   0.559   0.492  0.3153 -0.0072 -0.1095
  401SOL    HW1 1202   0.526   0.471   0.463  1.9253  0.0170 -0.3785
  401SOL    HW2 1203   0.497   0.618   0.544 -1.0983  3.0240  2.4358
  402SOL     OW 1204   0.992   2.864   2.107  0.2278  0.1903 -0.1042
  402SOL    HW1 1205   1.036   2.838   2.192 -1.9854  1.4652 -2.4335
  402SOL    HW2 1206   1.052   2.930   2.056 -0.2334 -1.4879 -2.4442
  403SOL     OW 1207   0.174   1.362   2.090 -0.0188 -0.0173  0.0231
  403SOL    HW1 1208   0.246   1.298   2.127  1.5351 -2.0363  0.2661
  403SOL    HW2 1209   0.094   1.369   2.146  3.3450 -0.3334 -1.1732
  404SOL     OW 1210   2.755   2.184   2.356  0.0369  0.4994 -0.1617
  404SOL    HW1 1211   2.856   2.164   2.355 -1.7903  1.7145 -0.2542
  404SOL    HW2 1212   2.706   2.134   2.432 -1.3020 -0.8240 -0.6913
  405SOL     OW 1213   2.425   0.112   2.501 -0.5779  0.3635  0.2677
  405SOL    HW1 1214   2.384   0.160   2.584 -1.0574  0.9104 -0.4851
  405SOL    HW2 1215   2.353   0.073   2.440  1.1341 -0.1867 -0.3870
  406SOL     OW 1216   1.499   2.376   0.553 -0.3698 -0.1250 -0.1177
  406SOL    HW1 1217   1.416   2.417   0.522 -0.1376 -2.1411 -1.2843
  406SOL    HW2 1218   1.568   2.363   0.480 -0.9494 -1.5900  0.9355
  407SOL     OW 1219   1.754   1.489   0.190 -0.4022 -0.1065 -0.2296
  407SOL    HW1 1220   1.772   1.546   0.103 -0.4271  1.1562 -0.7042
  407SOL    HW2 1221   1.656   1.452   0.189 -1.8223  0.7871  1.3226
  408SOL     OW 1222   0.130   0.843   2.079  0.4166  0.4640  0.0781
  408SOL    HW1 1223   0.088   0.768   2.018 -0.8322 -2.9324 -1.3376
  408SOL    HW2 1224   0.208   0.808   2.140  3.1240 -1.0406  1.4182
  409SOL     OW 1225   2.769   1.308   2.872 -0.0744 -0.2911  0.0245
  409SOL    HW1 1226   2.863   1.273   2.899 -0.4122  1.1313  0.1692
  409SOL    HW2 1227   2.749   1.310   2.769 -2.5902  1.2667 -0.5355
  410SOL     OW 1228   2.916   1.426   1.060  0.1816  0.8198 -0.3021
  410SOL    HW1 1229   2.857   1.455   0.979  0.5562 -1.0727 -2.0349
  410SOL    HW2 1230   3.012   1.459   1.041  0.0314  2.6824 -0.9197
  411SOL     OW 1231   3.034   0.607   0.285  0.4824  0.0210  0.6511
  411SOL    HW1 1232   2.967   0.530   0.286 -3.0574 -0.3087  1.6808
  411SOL    HW2 1233   2.994   0.686   0.338  1.2626  0.1933  1.6676
  412SOL     OW 1234   1.734   0.077   0.285  0.1770  0.4179  0.3335
  412SOL    HW1 1235   1.789   0.054   0.365  0.5435  0.2941 -0.6923
  412SOL    HW2 1236   1.636   0.085   0.298  2.3639 -2.7820  1.5077
  413SOL     OW 1237   1.276   0.299   1.965 -0.3106  0.1700  0.4021
  413SOL    HW1 1238   1.221   0.302   2.055  0.6949  0.7675  0.2088
  413SOL    HW2 1239   1.362   0.239   1.971  1.5588  0.5592 -0.9836
  414SOL     OW 1240   0.363   0.779   0.195  0.1220  0.0077 -0.2080
  414SOL    HW1 1241   0.317   0.836   0.264  0.2615 -0.2861 -1.4111
  414SOL    HW2 1242   0.461   0.774   0.222 -0.1092 -1.4998  0.9773
  415SOL     OW 1243   2.824   0.980   0.435  0.1457  0.5706 -0.3936
  415SOL    HW1 1244   2.731   0.984   0.403  0.1071  0.4263  0.3952
  415SOL    HW2 1245   2.858   1.068   0.475  1.7265  0.8497  0.7122
  416SOL     OW 1246   2.332   0.893   0.077  0.2913  0.3546  0.1063
  416SOL    HW1 1247   2.284   0.821   0.030 -2.0441  2.2064  1.4721
  416SOL    HW2 1248   2.421   0.867   0.114 -0.3891  0.1185  0.9320
  417SOL     OW 1249   2.953   2.750   0.203 -0.1346  0.3269  0.3672
  417SOL    HW1 1250   3.030   2.722   0.139  3.0649 -1.3436  0.8213
  417SOL    HW2 1251   2.882   2.675   0.211 -1.7800 -1.8931 -0.0219
  418SOL     OW 1252   2.923   0.667   0.034 -0.2532 -0.2015 -0.3145
  418SOL    HW1 1253   2.928   0.613   0.118 -0.0041 -1.9597 -3.1549
  418SOL    HW2 1254   2.822   0.672   0.012  2.5898  1.2497 -3.4065
  419SOL     OW 1255   0.839   0.479   0.482  0.2451  0.6047  0.2662
  419SOL    HW1 1256   0.751   0.526   0.480  0.5069 -3.2627 -1.1385
  419SOL    HW2 1257   0.824   0.393   0.535  0.1243 -0.5793  0.4649
  420SOL     OW 1258   0.439   0.876   0.863  0.0932 -0.1332  0.1054
  420SOL    HW1 1259   0.346   0.882   0.893  0.9039  1.8085 -1.3065
  420SOL    HW2 1260   0.502   0.844   0.937  0.2175 -3.3533 -0.6811
  421SOL     OW 1261   0.324   1.783   0.603 -0.7277 -0.0048  0.0084
  421SOL    HW1 1262   0.417   1.827   0.601 -3.8946 -0.1268 -1.9749
  421SOL    HW2 1263   0.251   1.843   0.563  0.3116 -1.4587 -0.4141
  422SOL     OW 1264   2.616   0.170   1.689 -0.1000 -0.2154  0.1325
  422SOL    HW1 1265   2.578   0.092   1.749 -0.8505  1.2906  1.3690
  422SOL    HW2 1266   2.548   0.184   1.612  2.8730 -1.7835  0.8836
  423SOL     OW 1267   1.961   1.876   0.173  0.0172 -0.4681 -0.3500
  423SOL    HW1 1268   1.943   1.860   0.271 -2.5803  0.0108  0.0386
  423SOL    HW2 1269   2.054   1.851   0.145 -0.0491  1.7095  0.6905
  424SOL     OW 1270   1.629   1.726   2.723  0.1217 -0.4320  0.1256
  424SOL    HW1 1271   1.666   1.823   2.720 -0.9311 -1.5935 -1.5221
  424SOL    HW2 1272   1.689   1.668   2.784  1.3218  0.8526  0.4943
  425SOL     OW 1273   0.302   3.009   2.021  0.0437  0.2222  0.2312
  425SOL    HW1 1274   0.296   2.920   1.962  0.5537 -3.3428 -1.7518
  425SOL    HW2 1275   0.271   3.091   1.966  1.9133 -1.8295 -0.2676
  426SOL     OW 1276   2.233   3.029   3.074 -0.1394  0.0342  0.0908
  426SOL    HW1 1277   2.224   3.028   0.070 -0.9570 -1.6235  1.5477
  426SOL    HW2 1278   2.170   2.959   3.036  2.0375  0.4667  1.2793
  427SOL     OW 1279   0.571   1.617   2.280 -0.5207 -0.3356 -0.2491
  427SOL    HW1 1280   0.658   1.667   2.256  3.8355  0.5303 -0.2782
  427SOL    HW2 1281   0.513   1.666   2.352 -2.5445  1.2713  1.4583
  428SOL     OW 1282   2.122   1.411   2.623  0.1064 -0.2870 -0.1105
  428SOL    HW1 1283   2.046   1.440   2.560  1.0564 -1.4344 -2.0599
  428SOL    HW2 1284   2.210   1.384   2.571  3.5701  1.5246 -0.8413
  429SOL     OW 1285   2.543   2.918   0.596  0.3190  0.3369  0.2452
  429SOL    HW1 1286   2.590   2.919   0.507 -1.6596  0.7955  1.7480
  429SOL    HW2 1287   2.476   2.843   0.599 -3.2907  0.9407  1.7475
  430SOL     OW 1288   1.725   1.837   2.055 -0.4612  0.3444  0.1580
  430SOL    HW1 1289   1.770   1.814   1.969 -2.7637 -1.2689  1.8993
  430SOL    HW2 1290   1.787   1.908   2.101  1.1266  2.8027  0.6140
  431SOL     OW 1291   3.076   1.771   1.974  0.3911  0.4806  0.0834
  431SOL    HW1 1292   3.036   1.802   2.065 -3.3498  1.1685 -0.2618
  431SOL    HW2 1293   3.015   1.790   1.891  1.1708  1.7212 -2.1218
  432SOL     OW 1294   1.175   2.240   2.364  0.2551  0.0130  0.1919
  432SOL    HW1 1295   1.088   2.202   2.403  2.2126 -0.1062 -0.3981
  432SOL    HW2 1296   1.207   2.181   2.287  4.1411 -3.7605  3.9393
  433SOL     OW 1297   1.058   2.913   0.996 -0.0214 -0.0586 -0.6633
  433SOL    HW1 1298   1.036   2.905   0.894 -0.7901 -0.2292 -1.8493
  433SOL    HW2 1299   1.160   2.912   1.009  0.8676 -2.2612  1.2687
  434SOL     OW 1300   0.487   2.241   2.409  0.4790  0.5422  0.4134
  434SOL    HW1 1301   0.409   2.193   2.360 -1.4487  1.8865  0.6895
  434SOL    HW2 1302   0.553   2.279   2.344 -3.0613 -0.5509 -2.2963
  435SOL     OW 1303   0.387   1.365   0.405 -0.4029 -0.1403 -0.2234
  435SOL    HW1 1304   0.300   1.419   0.416  0.0089  2.4397  0.8431
  435SOL    HW2 1305   0.455   1.391   0.333  4.1342 -1.2417 -1.3153
  436SOL     OW 1306   0.486   2.017   1.947 -0.2161 -0.4071 -0.2834
  436SOL    HW1 1307   0.513   1.963   1.865 -0.6978  5.3058 -0.4905
  436SOL    HW2 1308   0.447   2.110   1.929 -1.5947  2.4887  1.6882
  437SOL     OW 1309   1.181   0.379   0.365 -0.1698  0.0160 -0.7421
  437SOL    HW1 1310   1.266   0.340   0.412  2.3455  1.4310 -0.8973
  437SOL    HW2 1311   1.096   0.334   0.405 -0.2856 -1.2292  0.1514
  438SOL     OW 1312   0.677   1.789   0.866 -0.3231  0.8444  0.2166
  438SOL    HW1 1313   0.630   1.700   0.875  0.1652  1.4316  2.5570
  438SOL    HW2 1314   0.743   1.804   0.940  1.4182 -0.8286  3.1563
  439SOL     OW 1315   1.517   2.306   1.879 -0.0192  0.5937  0.2718
  439SOL    HW1 1316   1.560   2.398   1.861  0.4500 -1.1137 -1.1151
  439SOL    HW2 1317   1.588   2.235   1.893  0.1702 -0.7003  0.4904
  440SOL     OW 1318   1.587   0.213   1.373  0.0232 -0.0969  0.6165
  440SOL    HW1 1319   1.598   0.191   1.470 -0.0946  0.5024 -0.0585
  440SOL    HW2 1320   1.662   0.280   1.346  2.8660  0.2209  0.4072
  441SOL     OW 1321   0.619   3.041   1.413 -0.5080  0.5438 -0.0610
  441SOL    HW1 1322   0.606   0.012   1.477 -1.9377 -2.0312 -0.4536
  441SOL    HW2 1323   0.655   2.960   1.466 -0.8651  0.9561 -2.1867
  442SOL     OW 1324   2.385   1.977   0.507 -0.2715 -0.1495 -0.8564
  442SOL    HW1 1325   2.282   1.964   0.497 -0.1134  2.8935  2.5692
  442SOL    HW2 1326   2.405   2.078   0.491  3.3480  2.4662  0.7447
  443SOL     OW 1327   2.505   0.420   2.208 -0.1757 -0.2765 -0.0989
  443SOL    HW1 1328   2.544   0.366   2.280  1.8449  1.0286  2.2957
  443SOL    HW2 1329   2.566   0.503   2.199 -0.1609  1.1152  2.3847
  444SOL     OW 1330   1.913   1.521   2.447  0.4612  0.0255  0.3723
  444SOL    HW1 1331   1.826   1.531   2.494  1.0524 -1.2627  1.9263
  444SOL    HW2 1332   1.906   1.449   2.369  0.5292 -2.4620 -1.2443
  445SOL     OW 1333   2.599   1.928   1.641 -0.4185 -0.4596 -0.0667
  445SOL    HW1 1334   2.571   1.993   1.714  0.7323 -2.7822  1.0174
  445SOL    HW2 1335   2.551   1.839   1.648  1.3899  0.3781 -2.4393
  446SOL     OW 1336   0.100   0.795   0.625  0.2197 -0.5792 -0.3883
  446SOL    HW1 1337   0.151   0.709   0.646 -1.5346 -0.5767  2.0561
  446SOL    HW2 1338   0.145   0.860   0.557 -0.1484  1.2145 -1.3569
  447SOL     OW 1339   0.575   1.529   0.899 -0.1123  0.4436 -0.2688
  447SOL    HW1 1340   0.592   1.442   0.847 -1.3162  0.5799  1.6907
  447SOL    HW2 1341   0.472   1.543   0.904 -2.7809 -0.3678  0.3703
  448SOL     OW 1342   1.293   1.350   1.952 -0.0174 -0.0810  0.0169
  448SOL    HW1 1343   1.293   1.396   1.861  1.2257  0.0916  1.4665
  448SOL    HW2 1344   1.263   1.252   1.947  1.2332  1.3910  0.9850
  449SOL     OW 1345   0.184   1.555   0.025 -1.2154  0.3129  0.2002
  449SOL    HW1 1346   0.212   1.465   3.087 -0.0400 -0.0689 -2.7880
  449SOL    HW2 1347   0.096   1.556   0.070  0.4411  1.8567 -1.1465
  450SOL     OW 1348   2.612   2.337   1.855 -0.2673 -0.2063  0.5839
  450SOL    HW1 1349   2.553   2.409   1.808  0.0483 -1.2525  0.0578
  450SOL    HW2 1350   2.621   2.345   1.956  0.7140 -0.7945  0.9832
  451SOL     OW 1351   1.972   0.292   2.223 -0.5186  0.2264  0.3272
  451SOL    HW1 1352   1.984   0.218   2.295 -4.7346 -0.6747  0.9763
  451SOL    HW2 1353   1.922   0.257   2.138 -0.0091  0.3429 -0.9896
  452SOL     OW 1354   0.907   3.049   1.180  0.1490 -0.3675 -0.0124
  452SOL    HW1 1355   0.975   2.989   1.130  2.2681 -1.9269  1.0214
  452SOL    HW2 1356   0.941   3.062   1.275  0.3413  2.8678 -0.1874
  453SOL     OW 1357   0.981   1.231   1.220 -1.0512  0.0139  0.7670
  453SOL    HW1 1358   1.056   1.272   1.163 -3.4624 -3.2214  0.4595
  453SOL    HW2 1359   0.925   1.306   1.253  2.3164 -0.7656  0.9285
  454SOL     OW 1360   0.029   1.112   0.954 -0.2893  0.9545 -0.7287
  454SOL    HW1 1361   0.094   1.158   1.020  0.6685 -1.9736  1.1378
  454SOL    HW2 1362   0.007   1.164   0.867 -0.2017 -0.0741 -2.1692
  455SOL     OW 1363   3.046   2.780   0.461  0.3760 -0.4261  0.1587
  455SOL    HW1 1364   3.009   2.754   0.370  0.8336 -0.0733 -1.4089
  455SOL    HW2 1365   0.022   2.838   0.442  1.8831 -1.2848  0.6399
  456SOL     OW 1366   2.264   2.328   0.656 -0.4001 -0.4596 -0.5116
  456SOL    HW1 1367   2.194   2.257   0.640  2.3545 -0.4070 -0.2360
  456SOL    HW2 1368   2.339   2.319   0.591 -1.5214 -1.5587  1.2895
  457SOL     OW 1369   1.431   0.168   0.034  0.2733 -0.4226 -0.2730
  457SOL    HW1 1370   1.445   0.111   0.121  1.5256 -2.5479  4.0920
  457SOL    HW2 1371   1.382   0.255   0.062  1.0015  1.6230  0.5356
  458SOL     OW 1372   2.746   2.638   0.451 -0.1824  0.2478  0.0163
  458SOL    HW1 1373   2.833   2.661   0.498 -0.8359  0.5070  0.2468
  458SOL    HW2 1374   2.761   2.586   0.365 -1.2091  0.1202 -0.3787
  459SOL     OW 1375   2.215   0.194   2.682  0.6582  0.5784  0.4146
  459SOL    HW1 1376   2.132   0.255   2.704 -2.5936  1.8032  1.7434
  459SOL    HW2 1377   2.247   0.159   2.771 -0.0033  0.7411  0.3558
  460SOL     OW 1378   0.085   0.167   0.108  0.8651  0.4476 -0.7779
  460SOL    HW1 1379   0.050   0.262   0.103 -0.6761  0.0068  1.3962
  460SOL    HW2 1380   0.031   0.114   0.177  0.9984  0.2611 -1.1968
  461SOL     OW 1381   0.444   1.671   1.348  0.3980 -0.2238  0.1492
  461SOL    HW1 1382   0.399   1.666   1.437  1.7669  2.1764 -0.5586
  461SOL    HW2 1383   0.466   1.577   1.319  0.1651 -1.4613  3.0077
  462SOL     OW 1384   2.904   2.950   1.445  0.0731 -0.4534 -0.0219
  462SOL    HW1 1385   2.921   2.861   1.491  0.5253 -0.0873 -0.1840
  462SOL    HW2 1386   2.911   3.030   1.510 -0.9520  0.3867  3.9290
  463SOL     OW 1387   2.750   1.060   3.089 -0.4691  0.3444 -0.0500
  463SOL    HW1 1388   2.668   1.119   3.084 -1.3398  0.0441 -3.3154
  463SOL    HW2 1389   2.788   1.044   2.995 -1.1413  0.9983 -0.0038
  464SOL     OW 1390   0.167   2.424   1.257  0.2688 -0.2997 -0.6221
  464SOL    HW1 1391   0.178   2.342   1.199  1.1226 -1.4587  1.5633
  464SOL    HW2 1392   0.250   2.483   1.267 -3.6165  0.8900 -0.6208
  465SOL     OW 1393   0.423   0.751   0.604 -0.5064  0.3365 -0.9615
  465SOL    HW1 1394   0.362   0.808   0.551  0.7382 -1.6149  1.8644
  465SOL    HW2 1395   0.442   0.779   0.698 -0.7289 -1.9110  0.8556
  466SOL     OW 1396   1.261   3.053   2.152  0.3065 -0.4309  0.0673
  466SOL    HW1 1397   1.320   2.981   2.188 -0.6347  2.7298 -0.6458
  466SOL    HW2 1398   1.247   0.026   2.219 -0.4463  0.4922  1.4795
  467SOL     OW 1399   0.688   0.418   2.278  0.1451  0.3761 -0.0712
  467SOL    HW1 1400   0.665   0.374   2.187 -1.7601 -0.3752 -1.8580
  467SOL    HW2 1401   0.677   0.520   2.277 -0.3845  0.6996  2.2024
  468SOL     OW 1402   3.023   1.009   2.143  0.1022 -0.2949  0.2953
  468SOL    HW1 1403   3.051   1.104   2.165 -0.5426 -0.5438  4.2320
  468SOL    HW2 1404   3.096   0.947   2.109 -1.2107 -1.2131  1.0331
  469SOL     OW 1405   0.310   1.596   0.806  0.3611 -0.4411  0.3450
  469SOL    HW1 1406   0.279   1.656   0.731  1.0534 -0.9674  1.2246
  469SOL    HW2 1407   0.271   1.634   0.892  0.1176 -1.1443 -3.0282
  470SOL     OW 1408   2.761   1.618   2.296  0.2530  0.3263  0.0635
  470SOL    HW1 1409   2.707   1.591   2.377  0.3510 -0.6383  2.4991
  470SOL    HW2 1410   2.759   1.722   2.290  1.4460  0.4899 -0.1960
  471SOL     OW 1411   1.622   0.844   2.303  0.3678 -0.1037 -0.3253
  471SOL    HW1 1412   1.684   0.798   2.233 -1.6275 -0.2703 -2.1901
  471SOL    HW2 1413   1.635   0.792   2.390  0.4074  0.3437 -0.1291
  472SOL     OW 1414   0.863   2.592   1.500  0.8959  0.3429 -0.1065
  472SOL    HW1 1415   0.804   2.509   1.507  1.2655 -0.4595  2.6960
  472SOL    HW2 1416   0.928   2.574   1.424 -0.6232 -0.5326  2.1515
  473SOL     OW 1417   0.423   0.093   2.397  0.2677 -0.3842  0.2791
  473SOL    HW1 1418   0.502   0.151   2.423  3.0960 -0.9129 -3.2477
  473SOL    HW2 1419   0.440   0.040   2.312 -0.2359 -1.3042 -3.0985
  474SOL     OW 1420   1.859   0.037   1.091 -0.2255  0.4937 -0.5562
  474SOL    HW1 1421   1.871   0.135   1.061  0.6056 -1.9063 -0.8904
  474SOL    HW2 1422   1.760   0.033   1.119  1.4721  0.7840 -1.4431
  475SOL     OW 1423   1.847   0.808   0.962  0.2626 -0.1222  0.4001
  475SOL    HW1 1424   1.855   0.740   0.878  0.9442 -1.5762 -3.4150
  475SOL    HW2 1425   1.762   0.864   0.965  0.3887  0.5766  2.6164
  476SOL     OW 1426   0.525   0.771   1.136  0.1038  0.7996 -0.0474
  476SOL    HW1 1427   0.495   0.864   1.163  0.6306 -1.5697 -0.4072
  476SOL    HW2 1428   0.591   0.746   1.208  1.4906  1.9307 -0.1368
  477SOL     OW 1429   1.193   2.736   0.445  0.1502  0.2897  0.4451
  477SOL    HW1 1430   1.116   2.761   0.384  1.0229  1.9433 -2.3370
  477SOL    HW2 1431   1.275   2.791   0.427  1.7853  1.0866  0.1928
  478SOL     OW 1432   0.378   2.494   2.480  0.5768  0.5986 -0.5413
  478SOL    HW1 1433   0.446   2.563   2.506 -3.0857 -2.7456 -0.8114
  478SOL    HW2 1434   0.417   2.398   2.474  2.0491  1.8181 -1.5074
  479SOL     OW 1435   2.533   0.322   1.335 -0.2000  0.1620 -0.0805
  479SOL    HW1 1436   2.512   0.389   1.407  1.2275  0.4253 -1.7685
  479SOL    HW2 1437   2.466   0.320   1.259  3.0882  1.5335  0.0198
  480SOL     OW 1438   0.357   2.167   0.633  0.0795 -0.2338 -0.2276
  480SOL    HW1 1439   0.400   2.146   0.543  0.7436 -2.1095  2.1873
  480SOL    HW2 1440   0.302   2.251   0.620 -0.6168 -2.7817 -1.0070
  481SOL     OW 1441   2.143   2.034   1.506  0.1338  0.4335 -0.6833
  481SOL    HW1 1442   2.084   2.116   1.516 -1.1980 -4.7518  0.6442
  481SOL    HW2 1443   2.240   2.051   1.478  1.7491  0.4325  1.8494
  482SOL     OW 1444   1.165   2.582   3.017 -0.4230 -0.1229 -0.4635
  482SOL    HW1 1445   1.262   2.544   3.028  0.6690 -0.7191  0.0748
  482SOL    HW2 1446   1.089   2.518   3.039 -0.9746  0.2228 -0.3579
  483SOL     OW 1447   1.028   2.161   2.054 -0.5184  0.1045  0.0624
  483SOL    HW1 1448   1.040   2.259   2.035 -1.0630  0.9511  1.6990
  483SOL    HW2 1449   1.011   2.105   1.968  0.5940  1.4040 -2.0067
  484SOL     OW 1450   1.306   0.700   1.491  0.0032  0.6931  0.1039
  484SOL    HW1 1451   1.387   0.713   1.433  1.1371  1.5294  0.2660
  484SOL    HW2 1452   1.338   0.693   1.586 -0.3533  1.1565 -0.2613
  485SOL     OW 1453   1.669   0.735   2.553  0.7231 -0.5422 -0.4410
  485SOL    HW1 1454   1.735   0.794   2.607  0.3815 -0.0017 -0.6782
  485SOL    HW2 1455   1.682   0.636   2.573 -2.6597  1.5790  0.9344
  486SOL     OW 1456   2.196   2.959   1.301 -0.5243 -0.4866  0.3635
  486SOL    HW1 1457   2.159   2.921   1.214 -0.6458 -1.2380  1.2659
  486SOL    HW2 1458   2.293   2.933   1.310  1.0657 -0.6770 -0.8505
  487SOL     OW 1459   0.660   1.972   1.301  0.0303  0.5229 -0.4040
  487SOL    HW1 1460   0.698   2.065   1.295 -0.9741 -0.8354  2.2485
  487SOL    HW2 1461   0.558   1.988   1.304 -1.2307  1.4251  2.7141
  488SOL     OW 1462   2.357   2.024   0.117  0.0407  0.3159  0.1377
  488SOL    HW1 1463   2.457   2.015   0.129  0.0921  0.6951 -0.1326
  488SOL    HW2 1464   2.339   2.084   0.037 -1.1113 -0.9568  0.1040
  489SOL     OW 1465   2.059   2.959   0.760  0.0048 -0.0909 -0.3930
  489SOL    HW1 1466   2.100   2.906   0.684 -2.4884  0.5430  2.1474
  489SOL    HW2 1467   1.959   2.953   0.752  3.7203  0.3251 -1.0842
  490SOL     OW 1468   0.884   1.659   0.201 -0.1908 -0.3901  0.2515
  490SOL    HW1 1469   0.918   1.728   0.133 -1.7054  0.6268  1.4864
  490SOL    HW2 1470   0.823   1.705   0.267  0.0075 -1.7235 -1.1482
  491SOL     OW 1471   0.134   2.049   1.551 -0.1399  0.3236 -0.3006
  491SOL    HW1 1472   0.037   2.068   1.520 -3.4011  1.3594  1.5084
  491SOL    HW2 1473   0.177   2.134   1.583  1.6588  0.8341  0.1225
  492SOL     OW 1474   0.670   1.636   1.794  0.3809  0.2297 -0.0049
  492SOL    HW1 1475   0.660   1.682   1.705 -3.5046 -0.2989  0.7507
  492SOL    HW2 1476   0.666   1.703   1.869 -2.8515 -0.0230  3.2706
  493SOL     OW 1477   2.665   1.962   0.927  0.1123 -0.1517 -0.6622
  493SOL    HW1 1478   2.668   1.898   0.846  0.4793  0.7295  1.3270
  493SOL    HW2 1479   2.757   1.975   0.965  1.9569  3.1754  0.6953
  494SOL     OW 1480   2.585   1.802   0.713 -0.0847  0.7132  0.2281
  494SOL    HW1 1481   2.485   1.765   0.704 -1.2142 -2.9255 -0.5396
  494SOL    HW2 1482   2.651   1.727   0.687 -0.5989 -0.6252  1.1541
  495SOL     OW 1483   2.754   2.978   0.125 -0.2542  0.2178 -0.7374
  495SOL    HW1 1484   2.844   2.935   0.119 -4.1840 -0.6496 -1.5726
  495SOL    HW2 1485   2.758   3.059   0.063 -2.0618 -1.0992  0.7295
  496SOL     OW 1486   2.468   2.948   1.306 -0.0945  0.7378 -0.6985
  496SOL    HW1 1487   2.503   2.866   1.359 -1.9494  2.8362 -1.8019
  496SOL    HW2 1488   2.548   3.012   1.288 -0.6847  1.0533  0.5951
  497SOL     OW 1489   2.509   1.132   2.815 -0.1522 -0.2305 -0.4797
  497SOL    HW1 1490   2.462   1.041   2.811 -1.5760 -0.2926 -0.4040
  497SOL    HW2 1491   2.608   1.120   2.805 -2.8649  0.0390 -0.1284
  498SOL     OW 1492   2.906   1.932   1.188 -0.0908  0.7796 -0.1696
  498SOL    HW1 1493   2.855   1.988   1.258  1.7133 -0.4518  0.9928
  498SOL    HW2 1494   2.883   1.834   1.193  1.1172  1.1837  0.0773
  499SOL     OW 1495   0.903   2.432   2.588 -0.2105 -0.4355 -0.5169
  499SOL    HW1 1496   0.892   2.343   2.547 -1.1000  2.4287 -0.2654
  499SOL    HW2 1497   0.993   2.447   2.628  0.5426 -1.3421 -2.0573
  500SOL     OW 1498   1.635   1.331   0.406 -0.0785  0.3221 -0.2185
  500SOL    HW1 1499   1.606   1.427   0.389  1.4338 -0.2688  2.2582
  500SOL    HW2 1500   1.643   1.320   0.510 -0.5133 -0.0959  0.3293
  501SOL     OW 1501   1.585   0.224   1.759  0.1052  0.3054  0.1711
  501SOL    HW1 1502   1.559   0.195   1.851 -2.0416  0.5812  0.6942
  501SOL    HW2 1503   1.683   0.244   1.744 -1.6033  0.5996 -0.1688
  502SOL     OW 1504   2.596   0.675   1.658  0.0534 -1.1756  0.6313
  502SOL    HW1 1505   2.664   0.611   1.687 -3.9863  3.7108 -1.9468
  502SOL    HW2 1506   2.558   0.721   1.742  0.1453  0.4051  0.5327
  503SOL     OW 1507   2.418   1.470   2.242  0.0587 -0.3304  0.7999
  503SOL    HW1 1508   2.366   1.556   2.261  0.4228 -0.2760 -3.5887
  503SOL    HW2 1509   2.500   1.491   2.182  1.0630 -0.0132 -1.1995
  504SOL     OW 1510   1.331   1.486   1.709  0.2149 -0.2602 -0.0122
  504SOL    HW1 1511   1.251   1.436   1.671  3.6038 -1.2370  1.3492
  504SOL    HW2 1512   1.329   1.584   1.691 -0.5958 -1.8705 -2.1860
  505SOL     OW 1513   0.455   0.372   1.641  0.4915  0.1162  0.2978
  505SOL    HW1 1514   0.447   0.418   1.552  0.8632  1.2743  0.8077
  505SOL    HW2 1515   0.468   0.440   1.716 -1.4506 -2.2201  0.2021
  506SOL     OW 1516   0.380   0.143   0.042 -0.0114  0.5033  0.0601
  506SOL    HW1 1517   0.284   0.163   0.074  0.0460  0.7607  1.2682
  506SOL    HW2 1518   0.384   0.155   3.050 -0.5874 -2.4550  0.5262
  507SOL     OW 1519   0.518   2.827   0.268 -0.3550 -0.0163  0.0992
  507SOL    HW1 1520   0.451   2.834   0.346 -0.2925  0.8301  1.9128
  507SOL    HW2 1521   0.468   2.843   0.177 -3.1021 -1.7536  3.7235
  508SOL     OW 1522   0.961   0.561   1.862  0.0130  0.2554 -0.4350
  508SOL    HW1 1523   0.877   0.497   1.865 -1.0905  2.4387  0.7242
  508SOL    HW2 1524   0.958   0.619   1.949  0.2539  0.4168  4.5893
  509SOL     OW 1525   1.400   2.283   0.982  0.4982  0.1007  0.3624
  509SOL    HW1 1526   1.423   2.234   1.069 -0.2622 -0.1716 -1.7721
  509SOL    HW2 1527   1.491   2.328   0.957  0.8806 -1.7077 -2.2126
  510SOL     OW 1528   2.836   1.178   1.532 -0.6393 -0.3962  0.8216
  510SOL    HW1 1529   2.742   1.145   1.550 -0.4299 -1.7795  2.2498
  510SOL    HW2 1530   2.843   1.216   1.438  1.2740 -0.8165 -1.6216
  511SOL     OW 1531   1.179   2.064   1.109 -0.5090  0.3453  0.1443
  511SOL    HW1 1532   1.266   2.120   1.117 -0.7183  1.9714 -0.2343
  511SOL    HW2 1533   1.196   2.000   1.030  1.9419  1.3208  1.4629
  512SOL     OW 1534   2.871   1.476   0.399  0.3081 -0.0923  0.3343
  512SOL    HW1 1535   2.816   1.520   0.328  1.2590  1.8002  0.7141
  512SOL    HW2 1536   2.966   1.494   0.368 -0.5884 -0.4811 -1.3313
  513SOL     OW 1537   0.073   1.594   2.762 -0.0674  0.3233 -0.0332
  513SOL    HW1 1538   0.133   1.518   2.721  1.5524 -1.6999 -1.1593
  513SOL    HW2 1539   0.127   1.648   2.830  2.1428  0.6694 -0.0247
  514SOL     OW 1540   2.379   2.254   2.511  0.5186  0.0380  0.4212
  514SOL    HW1 1541   2.282   2.237   2.543 -0.8361 -1.2160  0.0698
  514SOL    HW2 1542   2.387   2.219   2.412  0.6652 -0.9407 -4.2240
  515SOL     OW 1543   2.280   0.956   0.567  0.6315  0.1726 -0.7268
  515SOL    HW1 1544   2.197   0.897   0.568  3.6875  0.6394  1.4047
  515SOL    HW2 1545   2.366   0.905   0.573 -1.1451 -2.0436  0.2228
  516SOL     OW 1546   2.824   2.498   0.228  0.2940 -0.1607 -0.4959
  516SOL    HW1 1547   2.735   2.450   0.229  1.1386  0.0296  0.0551
  516SOL    HW2 1548   2.888   2.472   0.153 -1.0100  2.6245 -0.3074
  517SOL     OW 1549   0.483   1.402   3.007 -0.2659  0.2714 -0.1169
  517SOL    HW1 1550   0.573   1.393   3.053 -1.6729 -1.3799  0.1340
  517SOL    HW2 1551   0.409   1.348   3.053 -0.7883 -0.2364  0.5665
  518SOL     OW 1552   2.805   0.261   2.023 -0.2524 -0.0433 -0.2532
  518SOL    HW1 1553   2.715   0.217   2.030  1.8913  0.4270  2.8427
  518SOL    HW2 1554   2.798   0.350   1.969 -0.9718 -1.1754 -3.7158
  519SOL     OW 1555   1.735   1.062   0.003 -0.2990  0.2887  0.6757
  519SOL    HW1 1556   1.722   0.974   0.048 -0.5818 -0.9361  0.1435
  519SOL    HW2 1557   1.663   1.130   0.031 -1.9803  0.7024  1.1943
  520SOL     OW 1558   2.959   2.826   2.246 -0.2339 -0.1301  0.5180
  520SOL    HW1 1559   2.872   2.866   2.278 -1.5117  0.7536 -0.3892
  520SOL    HW2 1560   2.981   2.733   2.277  0.6441 -0.5371 -1.8576
  521SOL     OW 1561   0.442   1.920   2.308  0.4514  0.2464 -0.5860
  521SOL    HW1 1562   0.521   1.937   2.250 -1.6054 -0.8829  2.2710
  521SOL    HW2 1563   0.376   2.001   2.302  4.0023  1.6424 -1.0461
  522SOL     OW 1564   1.242   2.980   1.770  0.1514 -0.2636  0.2484
  522SOL    HW1 1565   1.179   3.046   1.810  0.3629 -2.7095  0.5018
  522SOL    HW2 1566   1.244   2.890   1.821 -0.2424 -2.2273  0.0718
  523SOL     OW 1567   2.126   2.104   0.947 -0.2418  0.1537  0.2120
  523SOL    HW1 1568   2.218   2.072   0.918  2.8901 -0.0828  1.3846
  523SOL    HW2 1569   2.131   2.183   1.011 -0.8093 -0.2756 -0.5975
  524SOL     OW 1570   1.180   2.008   0.654 -0.5925  0.8940  0.0804
  524SOL    HW1 1571   1.269   2.056   0.683  0.4269 -1.2186  1.2043
  524SOL    HW2 1572   1.105   2.073   0.624  0.6861 -1.3394 -1.3966
  525SOL     OW 1573   2.633   0.450   0.652 -0.4678  0.1459 -0.1108
  525SOL    HW1 1574   2.627   0.452   0.759 -1.6018  2.0443  1.8531
  525SOL    HW2 1575   2.720   0.488   0.620 -3.0130 -1.3948  2.6372
  526SOL     OW 1576   1.453   2.837   0.393 -0.4099 -0.1233  0.7098
  526SOL    HW1 1577   1.556   2.808   0.402  4.9707 -1.2266 -0.4203
  526SOL    HW2 1578   1.427   2.837   0.292 -0.8823 -1.4120 -0.4082
  527SOL     OW 1579   1.848   1.742   0.909  0.3226  0.2022  0.0463
  527SOL    HW1 1580   1.872   1.819   0.972 -0.5571 -2.8519 -1.7363
  527SOL    HW2 1581   1.933   1.696   0.888  1.2459  0.1867  1.7430
  528SOL     OW 1582   2.839   2.686   2.529 -0.0177  0.4346  0.1292
  528SOL    HW1 1583   2.834   2.589   2.503  0.3462 -0.0409  0.1517
  528SOL    HW2 1584   2.745   2.710   2.565 -1.3195  0.5891 -1.8625
  529SOL     OW 1585   1.178   1.359   2.562  0.3064  0.2565  0.1362
  529SOL    HW1 1586   1.204   1.424   2.637  0.0068 -0.0137  1.9974
  529SOL    HW2 1587   1.075   1.349   2.569  0.9652 -1.4760 -0.4920
  530SOL     OW 1588   1.869   1.019   2.437  0.1598 -0.5016  0.2840
  530SOL    HW1 1589   1.776   1.062   2.428 -0.3231  0.9391 -1.0503
  530SOL    HW2 1590   1.868   0.980   2.529  0.0798  0.9158 -0.6734
  531SOL     OW 1591   0.290   0.766   3.024  0.4697  0.5221 -0.4895
  531SOL    HW1 1592   0.297   0.745   0.017 -0.1552 -0.0496  1.3281
  531SOL    HW2 1593   0.192   0.780   2.998  0.3910 -4.5190  0.4622
  532SOL     OW 1594   1.680   1.244   0.660  0.0284 -0.6546 -0.1337
  532SOL    HW1 1595   1.647   1.149   0.672  0.0129  0.9036 -0.6760
  532SOL    HW2 1596   1.640   1.309   0.729  0.7329  1.3067  3.7623
  533SOL     OW 1597   0.140   0.436   2.321 -0.0132  0.4566 -0.7197
  533SOL    HW1 1598   0.165   0.352   2.273 -1.0801  0.1784  0.1225
  533SOL    HW2 1599   0.227   0.468   2.364  1.0146 -1.6921 -2.2939
  534SOL     OW 1600   1.004   0.609   2.532 -0.0901 -0.2312 -0.1488
  534SOL    HW1 1601   0.947   0.556   2.596  1.4962 -1.2707  0.2903
  534SOL    HW2 1602   1.036   0.700   2.575 -2.0508 -0.3098 -0.0791
  535SOL     OW 1603   0.568   0.430   3.082 -0.4315 -0.0937  0.2434
  535SOL    HW1 1604   0.642   0.480   0.031 -0.9522  1.7549  3.1604
  535SOL    HW2 1605   0.529   0.489   3.009  2.1178  3.6577 -0.0202
  536SOL     OW 1606   0.735   0.743   2.802 -0.1557  0.3489 -0.1818
  536SOL    HW1 1607   0.710   0.837   2.774 -1.9875 -1.2105  1.7373
  536SOL    HW2 1608   0.805   0.744   2.871 -0.9460 -0.3622 -2.7002
  537SOL     OW 1609   1.441   0.066   1.604  0.2400  0.0524 -0.6426
  537SOL    HW1 1610   1.383   0.010   1.669 -1.1689 -0.3427  0.7234
  537SOL    HW2 1611   1.491   0.140   1.654 -1.0168  0.0507 -0.5759
  538SOL     OW 1612   0.563   2.543   0.069  0.7635  0.4171  0.1290
  538SOL    HW1 1613   0.489   2.611   0.062  2.2939 -1.3920  1.7277
  538SOL    HW2 1614   0.655   2.591   0.073  0.7992  2.9324  0.3599
  539SOL     OW 1615   2.912   1.422   1.837  0.3060 -0.3366  0.3072
  539SOL    HW1 1616   2.874   1.418   1.933  0.4675  1.4342 -2.7422
  539SOL    HW2 1617   3.002   1.470   1.841  1.6977  0.2929  2.4588
  540SOL     OW 1618   1.694   1.569   1.336  0.4443  0.3894  0.4819
  540SOL    HW1 1619   1.685   1.532   1.431 -0.3684  1.1578  1.3425
  540SOL    HW2 1620   1.795   1.579   1.305  1.9864 -1.0688  0.1110
  541SOL     OW 1621   0.551   1.908   1.712 -0.0566  0.0221 -0.0909
  541SOL    HW1 1622   0.642   1.945   1.675 -0.1755  1.9805 -1.3809
  541SOL    HW2 1623   0.508   1.843   1.651  1.2666  1.5371 -0.4267
  542SOL     OW 1624   1.818   1.293   1.943 -0.1798  0.0253 -0.5263
  542SOL    HW1 1625   1.736   1.326   1.888 -2.0145 -1.5018 -2.1802
  542SOL    HW2 1626   1.829   1.192   1.947 -0.6755  0.6270  2.3841
  543SOL     OW 1627   1.067   0.507   0.811 -0.2046  0.0370 -0.0171
  543SOL    HW1 1628   1.074   0.522   0.909  0.4414 -1.3629 -3.3892
  543SOL    HW2 1629   1.054   0.596   0.764  2.2727  0.9583  1.8181
  544SOL     OW 1630   1.893   1.742   1.847  0.3791 -0.0412 -0.4274
  544SOL    HW1 1631   1.989   1.744   1.884  3.2193  0.5404 -0.0725
  544SOL    HW2 1632   1.892   1.665   1.780 -0.3274  0.0306 -0.9761
  545SOL     OW 1633   1.510   1.721   1.189 -0.1530  0.4845  0.5411
  545SOL    HW1 1634   1.540   1.810   1.147 -2.7930 -0.8160 -1.6929
  545SOL    HW2 1635   1.592   1.665   1.221  3.5880 -1.7844  1.5794
  546SOL     OW 1636   0.242   0.004   2.837 -0.3225 -0.3450 -0.0216
  546SOL    HW1 1637   0.249   3.102   2.738  3.1890 -0.8425  0.5369
  546SOL    HW2 1638   0.301   0.091   2.862  4.0079  0.7937  1.3869
  547SOL     OW 1639   2.220   0.718   2.983 -0.9880  0.4500 -0.3480
  547SOL    HW1 1640   2.134   0.752   3.021  0.7117 -1.8198  0.6127
  547SOL    HW2 1641   2.235   0.617   3.003 -0.8234 -3.1145 -0.0120
  548SOL     OW 1642   2.392   1.863   2.303  0.2724 -0.0733 -0.4436
  548SOL    HW1 1643   2.454   1.881   2.230  0.3866  2.6316  2.2725
  548SOL    HW2 1644   2.360   1.768   2.289 -0.0181 -0.1697  0.7208
  549SOL     OW 1645   2.335   2.891   0.880 -0.0516 -0.5078  0.5054
  549SOL    HW1 1646   2.375   2.807   0.926  1.0253  1.5997 -1.1554
  549SOL    HW2 1647   2.262   2.867   0.812 -2.0100  0.5900 -3.7897
  550SOL     OW 1648   2.125   1.365   0.002 -0.5274  0.1646 -0.3433
  550SOL    HW1 1649   2.182   1.283   0.004  0.1913  0.0552 -0.8157
  550SOL    HW2 1650   2.167   1.437   0.065  0.2431  1.3519 -0.9171
  551SOL     OW 1651   1.499   0.141   2.006  0.4526  0.0058  0.4133
  551SOL    HW1 1652   1.562   0.188   2.071 -0.3538  1.6994  2.0720
  551SOL    HW2 1653   1.504   0.037   2.012 -0.2773  0.3361  0.0901
  552SOL     OW 1654   2.887   2.499   2.875  0.3319  0.6879 -0.8841
  552SOL    HW1 1655   2.911   2.450   2.787 -0.9512  0.3278 -1.2968
  552SOL    HW2 1656   2.854   2.593   2.857  1.4057 -3.7099  0.1331
  553SOL     OW 1657   0.631   0.059   0.844 -0.1941 -0.4320 -0.0184
  553SOL    HW1 1658   0.611   0.047   0.943  1.6696  0.5003 -0.8896
  553SOL    HW2 1659   0.585   0.142   0.800  1.6046  1.8706 -3.8269
  554SOL     OW 1660   1.964   2.253   1.569 -0.0065  0.6228  0.2678
  554SOL    HW1 1661   1.884   2.194   1.599  0.0159 -2.2631 -0.2507
  554SOL    HW2 1662   1.966   2.345   1.619 -1.1358  0.8268  1.2264
  555SOL     OW 1663   1.345   1.985   1.514  0.1915  0.2617 -0.1176
  555SOL    HW1 1664   1.428   2.018   1.558 -5.3450  1.8196 -0.4694
  555SOL    HW2 1665   1.267   2.044   1.539 -1.6082  3.2469 -1.3282
  556SOL     OW 1666   1.853   1.565   0.456 -0.0214 -0.1945  0.2308
  556SOL    HW1 1667   1.898   1.500   0.523 -0.3110 -0.7714  0.1581
  556SOL    HW2 1668   1.810   1.518   0.373  0.8732 -2.6196  0.7360
  557SOL     OW 1669   1.382   2.303   2.100 -0.3257 -0.2413 -0.3666
  557SOL    HW1 1670   1.433   2.292   2.012  0.0185 -4.4768  2.9363
  557SOL    HW2 1671   1.315   2.227   2.098  2.7793  2.3817  0.4633
  558SOL     OW 1672   2.823   0.516   1.905 -0.3029  0.1759  0.8508
  558SOL    HW1 1673   2.865   0.606   1.902  2.4145 -0.3981 -3.7712
  558SOL    HW2 1674   2.791   0.483   1.814 -0.3281  0.8235  1.2565
  559SOL     OW 1675   2.421   2.858   1.661  0.0115 -0.7413 -0.1612
  559SOL    HW1 1676   2.455   2.803   1.585  0.5650 -0.4822  1.4801
  559SOL    HW2 1677   2.480   2.851   1.742  0.2384  0.8599 -1.8848
  560SOL     OW 1678   0.683   3.089   3.057  0.0615 -0.3641  0.0445
  560SOL    HW1 1679   0.637   3.037   2.979 -0.9320  0.6622 -2.7783
  560SOL    HW2 1680   0.688   3.031   0.034 -5.8558 -1.3079 -1.3436
  561SOL     OW 1681   1.361   0.955   0.441 -0.3189 -0.4554  0.1118
  561SOL    HW1 1682   1.263   0.930   0.418 -1.0900 -1.7393 -0.7098
  561SOL    HW2 1683   1.422   0.875   0.431  1.9532 -1.1966  1.4225
  562SOL     OW 1684   0.822   0.887   2.498 -0.3818 -0.5387 -0.2129
  562SOL    HW1 1685   0.752   0.918   2.565  0.3235  2.1582  1.9381
  562SOL    HW2 1686   0.917   0.886   2.535 -1.6507 -0.4480 -1.5227
  563SOL     OW 1687   1.953   2.566   2.736 -0.0511 -0.1961  0.0077
  563SOL    HW1 1688   1.864   2.521   2.706 -1.1386 -0.5740  2.1611
  563SOL    HW2 1689   1.931   2.665   2.750 -1.9912 -1.3094  0.1218
  564SOL     OW 1690   3.095   1.706   0.368  0.4842 -0.0730 -0.1340
  564SOL    HW1 1691   0.084   1.674   0.353 -2.3240  1.5343  1.0086
  564SOL    HW2 1692   3.043   1.707   0.282 -0.3594  1.5747  0.7061
  565SOL     OW 1693   1.504   3.044   2.800 -0.1736 -0.4088 -0.6832
  565SOL    HW1 1694   1.467   3.052   2.708  2.6021 -0.6486  1.0801
  565SOL    HW2 1695   1.439   3.082   2.869  0.1012 -0.9379 -0.6028
  566SOL     OW 1696   2.023   2.913   2.423  0.0740 -0.4340 -0.1840
  566SOL    HW1 1697   2.113   2.878   2.459 -2.1935  1.6691  0.7769
  566SOL    HW2 1698   1.980   2.979   2.489 -2.6810  1.7879  1.8613
  567SOL     OW 1699   2.425   1.239   0.888  0.6230 -0.1950 -0.2053
  567SOL    HW1 1700   2.382   1.174   0.957  0.3031 -0.8873 -1.9949
  567SOL    HW2 1701   2.390   1.334   0.909 -1.0261 -0.3984  1.1412
  568SOL     OW 1702   1.988   1.409   2.865 -0.0881  0.2324  0.0883
  568SOL    HW1 1703   2.051   1.398   2.789 -1.4202 -0.5792 -0.4487
  568SOL    HW2 1704   2.031   1.394   2.956 -1.3823  0.7583  0.2325
  569SOL     OW 1705   2.299   1.856   2.817  0.2810  0.1587 -0.1222
  569SOL    HW1 1706   2.295   1.889   2.721 -0.4863  2.4047  1.5344
  569SOL    HW2 1707   2.287   1.755   2.828 -0.7849 -2.7225  0.6832
  570SOL     OW 1708   3.106   2.373   1.977 -0.2628 -0.2000 -0.1196
  570SOL    HW1 1709   3.062   2.280   1.979 -2.7372 -1.4132 -0.1590
  570SOL    HW2 1710   0.010   2.403   1.879 -0.1176  1.0705 -0.7162
  571SOL     OW 1711   0.250   0.202   2.226 -0.0278 -0.8015 -0.2958
  571SOL    HW1 1712   0.297   0.175   2.315 -0.1276 -1.6294  2.2267
  571SOL    HW2 1713   0.314   0.201   2.147  1.6099 -1.1806 -0.2119
  572SOL     OW 1714   1.006   1.676   0.903 -0.1951 -0.2023  0.3593
  572SOL    HW1 1715   0.934   1.622   0.956 -5.3759 -0.3919  0.3408
  572SOL    HW2 1716   1.017   1.642   0.808 -1.3572 -3.3906 -1.6519
  573SOL     OW 1717   0.846   0.263   0.229 -0.1419 -0.1824 -0.0804
  573SOL    HW1 1718   0.889   0.350   0.197  1.4558  0.4188  2.3120
  573SOL    HW2 1719   0.875   0.239   0.327 -0.4834 -0.9577  3.4824
  574SOL     OW 1720   0.467   3.028   0.654  0.3317  0.5063  0.5129
  574SOL    HW1 1721   0.503   3.067   0.563 -0.8812 -0.5398 -1.7869
  574SOL    HW2 1722   0.529   3.058   0.726 -1.9882  2.2120  2.0468
  575SOL     OW 1723   0.135   1.382   1.660 -0.0205  0.1502  0.1812
  575SOL    HW1 1724   0.142   1.447   1.736  0.1160 -2.5423  2.2886
  575SOL    HW2 1725   0.135   1.422   1.569  2.6398  0.4864  1.7936
  576SOL     OW 1726   2.048   0.593   1.799  0.4147 -0.6234 -0.3334
  576SOL    HW1 1727   2.077   0.560   1.707 -2.1823 -0.3987  1.5246
  576SOL    HW2 1728   2.120   0.582   1.870 -2.5197 -0.2218 -2.3277
  577SOL     OW 1729   2.800   1.461   2.092  0.0578  0.5177 -0.0653
  577SOL    HW1 1730   2.761   1.374   2.132 -0.4957  1.1595 -0.4158
  577SOL    HW2 1731   2.817   1.524   2.169  0.9448 -0.4646 -0.6765
  578SOL     OW 1732   1.503   2.803   2.204  0.2081  0.1062  0.1012
  578SOL    HW1 1733   1.473   2.718   2.153 -1.2985  0.5234 -2.1206
  578SOL    HW2 1734   1.496   2.784   2.305  1.6328  0.0424  2.4660
  579SOL     OW 1735   1.909   2.018   2.123  0.0551  0.3802 -1.0131
  579SOL    HW1 1736   1.921   2.068   2.034  0.9650 -0.4687 -0.6216
  579SOL    HW2 1737   1.995   2.011   2.178 -2.8673 -0.2704 -1.3906
  580SOL     OW 1738   1.888   1.344   2.251  0.6671 -0.6066 -0.5444
  580SOL    HW1 1739   1.901   1.380   2.154  0.5595  1.2555 -3.9369
  580SOL    HW2 1740   1.966   1.279   2.277  1.6197  0.4796 -0.7994
  581SOL     OW 1741   1.446   1.411   2.273  0.2626  0.0324 -0.1482
  581SOL    HW1 1742   1.524   1.380   2.213  0.7239 -0.7227  1.3836
  581SOL    HW2 1743   1.464   1.368   2.360 -0.6907 -0.1966 -0.9135
  582SOL     OW 1744   0.134   2.059   2.039 -0.4508  0.2485 -0.4176
  582SOL    HW1 1745   0.158   1.961   2.015  3.3435 -1.4234 -1.6334
  582SOL    HW2 1746   0.032   2.067   2.043 -1.3496  1.6206  0.9027
  583SOL     OW 1747   1.546   1.030   0.709  0.6400 -0.5152  0.3521
  583SOL    HW1 1748   1.443   1.034   0.710 -2.8218  2.0018 -0.0795
  583SOL    HW2 1749   1.585   1.020   0.805 -0.9267  0.2066  3.6843
  584SOL     OW 1750   0.850   2.609   0.398  0.0428  0.0754 -0.0630
  584SOL    HW1 1751   0.921   2.677   0.365  2.2294 -1.6093  1.6551
  584SOL    HW2 1752   0.870   2.589   0.494 -0.8249 -2.7986 -0.9984
  585SOL     OW 1753   0.069   2.689   0.016  0.1330  0.9456  0.0364
  585SOL    HW1 1754   0.121   2.714   0.098 -3.1612 -3.0035 -3.7751
  585SOL    HW2 1755   0.129   2.657   3.044  0.4399  0.3009 -0.4300
  586SOL     OW 1756   2.288   1.232   0.615 -0.0164  0.3265  0.4706
  586SOL    HW1 1757   2.279   1.127   0.627  2.2299 -2.6148 -0.2161
  586SOL    HW2 1758   2.362   1.259   0.682  1.8950 -0.1707  2.3751
  587SOL     OW 1759   0.763   1.492   3.105 -0.0345  0.0373 -0.3195
  587SOL    HW1 1760   0.832   1.483   3.031 -0.6307  1.7718  1.1189
  587SOL    HW2 1761   0.794   1.567   0.064 -0.8117 -0.3595  2.4035
  588SOL     OW 1762   0.181   0.209   0.748  0.0535  0.3530  0.9689
  588SOL    HW1 1763   0.165   0.218   0.646  0.8124  4.0567 -0.6822
  588SOL    HW2 1764   0.250   0.284   0.771  1.4070  0.6247 -1.6388
  589SOL     OW 1765   1.419   3.100   0.836 -0.0232  0.1438 -0.0212
  589SOL    HW1 1766   1.508   3.060   0.864 -0.9852 -0.2179  3.4693
  589SOL    HW2 1767   1.415   0.094   0.825  0.2152  0.8150 -0.2888
  590SOL     OW 1768   2.478   2.271   0.462  0.1537  0.5712  0.3004
  590SOL    HW1 1769   2.547   2.251   0.529 -3.7854 -0.5390  0.3301
  590SOL    HW2 1770   2.523   2.322   0.391  1.2839  2.0266  1.1141
  591SOL     OW 1771   0.325   2.429   2.112  0.0853  0.2707  0.1201
  591SOL    HW1 1772   0.273   2.481   2.178  1.1684  0.4955  0.7356
  591SOL    HW2 1773   0.390   2.484   2.056  2.6213  0.7700 -0.4775
  592SOL     OW 1774   0.099   1.935   2.366 -0.3218  0.3516 -0.1256
  592SOL    HW1 1775   0.144   1.865   2.307 -0.4753 -4.4753 -0.1286
  592SOL    HW2 1776   0.163   1.972   2.438  1.3568 -1.4338 -3.3012
  593SOL     OW 1777   1.396   1.227   1.385  0.4772  0.1083  0.6304
  593SOL    HW1 1778   1.413   1.300   1.455 -0.5024  0.4879 -0.1169
  593SOL    HW2 1779   1.383   1.266   1.290 -0.9072  2.1748 -0.5030
  594SOL     OW 1780   0.458   1.256   2.797 -0.0231 -0.0819 -0.2788
  594SOL    HW1 1781   0.405   1.174   2.825 -0.4787 -2.4731 -1.0927
  594SOL    HW2 1782   0.466   1.324   2.876 -1.5289 -0.4967  2.4784
  595SOL     OW 1783   1.502   0.734   0.853 -0.2818  0.0561 -0.3545
  595SOL    HW1 1784   1.549   0.813   0.880 -1.3020 -1.4889  1.3820
  595SOL    HW2 1785   1.411   0.753   0.815 -1.3864 -2.5756 -0.9812
  596SOL     OW 1786   0.544   1.049   1.172  0.0379  0.0092 -0.0833
  596SOL    HW1 1787   0.636   1.031   1.130  0.6248  0.5434  2.6742
  596SOL    HW2 1788   0.500   1.138   1.145 -2.8562  0.9525 -0.0277
  597SOL     OW 1789   0.704   2.296   2.183 -0.7771 -0.2427  0.6397
  597SOL    HW1 1790   0.774   2.364   2.223  0.9404  0.0258 -0.3375
  597SOL    HW2 1791   0.685   2.305   2.084  3.1769 -1.4092  1.2656
  598SOL     OW 1792   2.324   2.471   2.266  0.2320  0.1103 -0.0315
  598SOL    HW1 1793   2.242   2.490   2.325 -2.2539  0.1404  2.0133
  598SOL    HW2 1794   2.346   2.375   2.269  0.6277  2.3190  0.1534
  599SOL     OW 1795   0.906   1.180   0.435 -0.2896 -0.0385  0.0559
  599SOL    HW1 1796   0.880   1.204   0.528  0.4243 -1.1083 -3.3625
  599SOL    HW2 1797   0.929   1.269   0.387 -2.3478 -2.7339 -0.8096
  600SOL     OW 1798   1.513   0.570   0.198  0.1471 -0.5491  0.0025
  600SOL    HW1 1799   1.436   0.505   0.185 -0.6992 -2.4113  3.4104
  600SOL    HW2 1800   1.588   0.541   0.133 -2.3059  0.0543 -1.1804
  601SOL     OW 1801   0.634   0.178   1.584  0.1359 -0.9560 -0.1693
  601SOL    HW1 1802   0.602   0.099   1.644 -0.4780 -1.7679  2.6631
  601SOL    HW2 1803   0.580   0.264   1.606  0.9176  2.2055  0.5894
  602SOL     OW 1804   0.356   2.081   0.905  0.4223  0.4441 -0.3008
  602SOL    HW1 1805   0.444   2.050   0.951 -0.8552 -0.4986 -0.9513
  602SOL    HW2 1806   0.373   2.088   0.804  0.5284 -0.6706 -0.0818
  603SOL     OW 1807   0.936   2.850   2.785  0.4944 -0.4968  0.1252
  603SOL    HW1 1808   1.020   2.798   2.763 -0.4319  1.4255  3.0188
  603SOL    HW2 1809   0.925   2.918   2.710  1.1312 -0.0911 -0.2131
  604SOL     OW 1810   0.479   2.240   0.389  0.8166  0.3247  0.2069
  604SOL    HW1 1811   0.414   2.203   0.315 -1.0416 -0.7752  1.4911
  604SOL    HW2 1812   0.535   2.320   0.358 -0.5750  1.4475  0.5504
  605SOL     OW 1813   1.741   1.459   1.591 -0.1752  0.3314  0.1847
  605SOL    HW1 1814   1.801   1.399   1.539 -2.5412 -0.2010 -1.1996
  605SOL    HW2 1815   1.695   1.409   1.667  1.0290 -0.0408 -1.8039
  606SOL     OW 1816   0.810   1.203   2.870  0.5584  0.4690  0.2273
  606SOL    HW1 1817   0.792   1.206   2.973 -2.3581  0.7920  2.0612
  606SOL    HW2 1818   0.774   1.287   2.825  0.8383  1.0757 -1.1971
  607SOL     OW 1819   1.134   0.932   1.234  0.5605 -0.0039 -0.8499
  607SOL    HW1 1820   1.098   0.843   1.204 -1.2830 -1.4376  2.0555
  607SOL    HW2 1821   1.054   0.999   1.224 -0.9226  2.4316  1.1470
  608SOL     OW 1822   2.939   2.124   2.053  0.2564  0.1610  0.2913
  608SOL    HW1 1823   2.927   2.027   2.086 -1.9593 -0.4551  0.1605
  608SOL    HW2 1824   2.887   2.193   2.106  1.9739 -4.1481 -0.6344
  609SOL     OW 1825   2.123   0.186   0.245  0.3792 -0.3801 -0.5306
  609SOL    HW1 1826   2.197   0.233   0.190 -0.7581  2.5359  1.2497
  609SOL    HW2 1827   2.121   0.088   0.229  0.0942  2.9062 -0.0648
  610SOL     OW 1828   0.032   2.644   1.558 -0.4046 -0.1641 -0.3502
  610SOL    HW1 1829   0.128   2.653   1.525 -1.2121 -0.3378  0.5914
  610SOL    HW2 1830   3.099   2.569   1.505  0.8226  2.2829  0.4592
  611SOL     OW 1831   1.450   1.759   0.648  0.4642  0.4813 -0.2637
  611SOL    HW1 1832   1.414   1.688   0.717 -2.8425 -0.6563 -0.9495
  611SOL    HW2 1833   1.548   1.758   0.651  0.3259  1.0279 -0.6108
  612SOL     OW 1834   0.640   0.237   2.044 -0.3653 -0.0429 -0.2288
  612SOL    HW1 1835   0.691   0.293   1.971 -0.2024 -0.3343 -0.7080
  612SOL    HW2 1836   0.544   0.233   2.018  2.2642  1.5598  2.2983
  613SOL     OW 1837   2.456   1.214   0.384  0.2468 -0.5357  0.0452
  613SOL    HW1 1838   2.376   1.196   0.443 -1.0364  1.8759 -1.7341
  613SOL    HW2 1839   2.467   1.314   0.368 -0.3797  0.2785  1.5328
  614SOL     OW 1840   1.950   0.336   1.936 -0.3989  0.2483 -0.2029
  614SOL    HW1 1841   2.051   0.323   1.963 -0.1884 -0.2506 -0.1587
  614SOL    HW2 1842   1.933   0.340   1.838  1.7996  0.1177  0.6590
  615SOL     OW 1843   0.807   1.420   1.296  0.1014 -0.2879 -0.0992
  615SOL    HW1 1844   0.821   1.464   1.391  1.2132  2.1367  2.8161
  615SOL    HW2 1845   0.828   1.489   1.225  1.4533  0.9489  1.8747
  616SOL     OW 1846   1.491   1.966   2.840  0.3216 -0.3512  0.2349
  616SOL    HW1 1847   1.509   1.907   2.920  1.7267  0.8518  1.6725
  616SOL    HW2 1848   1.578   1.979   2.787  0.7062 -1.5221  0.3025
  617SOL     OW 1849   2.083   3.025   0.209 -0.2347 -0.1171  0.2353
  617SOL    HW1 1850   1.992   3.024   0.158 -0.2362 -2.4649 -1.0239
  617SOL    HW2 1851   2.103   2.939   0.257  3.3148  0.3474 -1.4607
  618SOL     OW 1852   0.526   0.744   2.566 -0.4222  0.1456 -0.5224
  618SOL    HW1 1853   0.593   0.728   2.489 -3.4823  0.2524 -1.9966
  618SOL    HW2 1854   0.565   0.722   2.656 -1.5515  1.4372  0.2245
  619SOL     OW 1855   2.753   1.483   0.868  0.2261  0.5812 -0.2587
  619SOL    HW1 1856   2.736   1.405   0.803  0.0496  2.0768  1.0058
  619SOL    HW2 1857   2.763   1.565   0.814 -3.9721  0.5728 -0.6819
  620SOL     OW 1858   2.340   3.051   2.824 -0.7574 -0.7956  0.2045
  620SOL    HW1 1859   2.327   3.057   2.926 -1.9538  1.8705  0.5691
  620SOL    HW2 1860   2.300   2.966   2.779 -2.4638  0.1909 -0.5203
  621SOL     OW 1861   2.356   1.352   2.842 -0.1231  0.7149  0.2168
  621SOL    HW1 1862   2.277   1.332   2.904  1.5534  0.0408  0.7530
  621SOL    HW2 1863   2.402   1.264   2.816  0.3668 -1.6749 -3.1926
  622SOL     OW 1864   1.874   2.728   2.009  0.3715 -0.3066  0.0124
  622SOL    HW1 1865   1.822   2.763   1.931 -0.9854  1.7166 -3.1912
  622SOL    HW2 1866   1.906   2.803   2.071 -2.0604  0.1644  1.4688
  623SOL     OW 1867   1.044   1.851   0.454 -0.6192 -0.3076  0.1511
  623SOL    HW1 1868   1.123   1.887   0.503  0.9789 -0.7957  2.9605
  623SOL    HW2 1869   1.011   1.919   0.383 -1.4989  2.2891  0.1520
  624SOL     OW 1870   0.394   2.965   0.046 -0.5351  0.2860 -0.0235
  624SOL    HW1 1871   0.376   2.918   3.059 -0.3145  1.5618  0.2799
  624SOL    HW2 1872   0.407   3.066   0.032 -0.9888 -0.9066 -0.4960
  625SOL     OW 1873   0.695   1.797   0.361  0.2816  0.2068 -0.4144
  625SOL    HW1 1874   0.640   1.824   0.441  0.8688 -0.7953  0.3287
  625SOL    HW2 1875   0.648   1.845   0.289 -1.6670 -1.0584  1.7759
  626SOL     OW 1876   2.993   2.895   3.049 -0.0421 -0.2151 -0.2401
  626SOL    HW1 1877   3.060   2.819   3.054  0.2872 -4.7878  0.5289
  626SOL    HW2 1878   3.043   2.975   3.015  0.3452 -2.6791 -1.4206
  627SOL     OW 1879   1.023   1.936   2.675  0.5043 -0.0338 -0.6915
  627SOL    HW1 1880   0.990   1.854   2.615  0.2174 -2.5571 -1.1268
  627SOL    HW2 1881   1.115   1.904   2.718  2.9213 -0.3506  1.7870
  628SOL     OW 1882   0.240   3.080   2.567 -0.2782 -0.4151 -0.2532
  628SOL    HW1 1883   0.315   0.015   2.508 -0.7162 -1.4199  3.6575
  628SOL    HW2 1884   0.153   3.099   2.523  3.6474 -1.2345 -0.4562
  629SOL     OW 1885   0.546   3.057   2.192 -0.2799 -0.4753 -0.9207
  629SOL    HW1 1886   0.643   3.071   2.163  0.1210  0.1367  3.1959
  629SOL    HW2 1887   0.485   3.040   2.115 -0.7799 -1.1041 -0.0970
  630SOL     OW 1888   1.545   1.096   1.929 -0.4586  0.3272 -0.0338
  630SOL    HW1 1889   1.577   1.007   1.885 -0.4555 -0.6791  1.3404
  630SOL    HW2 1890   1.444   1.092   1.946  0.1397 -2.7840 -0.1438
  631SOL     OW 1891   2.241   1.048   0.310  0.3239 -0.0276 -0.2293
  631SOL    HW1 1892   2.278   0.991   0.236  1.6594  2.4251  0.1123
  631SOL    HW2 1893   2.260   1.006   0.403  0.1886  1.4088  4.3597
  632SOL     OW 1894   2.263   0.658   1.996 -0.1209  0.4790 -0.1270
  632SOL    HW1 1895   2.243   0.691   2.092  1.6349 -2.2876 -0.3579
  632SOL    HW2 1896   2.276   0.555   1.996 -0.6579 -1.7718  2.7523
  633SOL     OW 1897   0.601   2.464   0.330 -0.2405  0.2990  0.2549
  633SOL    HW1 1898   0.601   2.469   0.231  1.4174  1.0179  2.1141
  633SOL    HW2 1899   0.676   2.528   0.363 -0.1900  1.3945 -2.8042
  634SOL     OW 1900   1.615   2.614   2.442 -0.3399 -0.1374 -0.4473
  634SOL    HW1 1901   1.564   2.531   2.414 -0.9134  3.6942 -2.0628
  634SOL    HW2 1902   1.552   2.686   2.474 -0.1980 -1.2935  1.6661
  635SOL     OW 1903   2.236   0.533   0.063  0.4866  0.2014  0.4416
  635SOL    HW1 1904   2.331   0.510   0.088  0.0916 -0.0109  2.4545
  635SOL    HW2 1905   2.196   0.573   0.147  1.6472 -1.5548 -0.3835
  636SOL     OW 1906   0.605   1.038   0.738 -0.3498 -0.0933  0.5091
  636SOL    HW1 1907   0.542   0.969   0.785 -0.9756 -1.2512  0.7014
  636SOL    HW2 1908   0.692   1.047   0.789 -2.3252 -0.1246  3.3373
  637SOL     OW 1909   2.970   1.771   0.776 -0.0006 -0.0517 -0.0006
  637SOL    HW1 1910   3.017   1.808   0.858 -0.0362 -3.7185 -1.7700
  637SOL    HW2 1911   2.985   1.829   0.694  0.3831 -3.6826 -0.0543
  638SOL     OW 1912   0.895   0.124   3.095  0.0990 -0.2795 -0.3437
  638SOL    HW1 1913   0.804   0.088   3.062 -1.0067  0.6273 -3.1542
  638SOL    HW2 1914   0.890   0.172   0.078  0.5188  0.0776  1.6566
  639SOL     OW 1915   1.533   1.840   3.068  0.8024 -0.5377  1.1673
  639SOL    HW1 1916   1.495   1.752   3.100 -1.1075  0.8711  1.1505
  639SOL    HW2 1917   1.505   1.906   0.025 -0.3222 -1.9670 -1.6411
  640SOL     OW 1918   1.810   2.865   0.645 -0.0794 -0.1554  0.5976
  640SOL    HW1 1919   1.795   2.780   0.695  0.2197 -1.0433  1.9378
  640SOL    HW2 1920   1.818   2.866   0.542 -0.1637  0.0559  1.3040
  641SOL     OW 1921   0.078   2.621   0.837  0.0423  0.0905 -0.4680
  641SOL    HW1 1922   0.031   2.594   0.751  2.5239  0.7578  0.2693
  641SOL    HW2 1923   0.175   2.613   0.821 -1.0056 -0.3902 -1.8405
  642SOL     OW 1924   0.924   0.272   1.619  0.1466 -0.3826 -0.2500
  642SOL    HW1 1925   0.915   0.266   1.519 -2.3348  2.1618  0.0981
  642SOL    HW2 1926   1.003   0.330   1.653 -1.1606 -0.2627  0.4800
  643SOL     OW 1927   0.662   1.971   2.146 -0.0288 -0.4939 -0.5371
  643SOL    HW1 1928   0.718   2.048   2.181  2.8264  0.8019 -1.5945
  643SOL    HW2 1929   0.610   2.003   2.061  0.4072  0.3392 -1.5274
  644SOL     OW 1930   0.471   2.752   0.594 -0.6115 -0.4004  0.0806
  644SOL    HW1 1931   0.459   2.851   0.610  0.5873  0.6888  1.9316
  644SOL    HW2 1932   0.547   2.719   0.655  1.9732 -0.0438  2.8916
  645SOL     OW 1933   1.297   2.116   0.188  0.1498  0.5984  0.2201
  645SOL    HW1 1934   1.325   2.211   0.206  2.5911  0.5129 -0.7076
  645SOL    HW2 1935   1.375   2.054   0.212 -1.2495 -0.3064  1.1633
  646SOL     OW 1936   0.524   1.204   0.144 -0.0049  0.2963 -0.2955
  646SOL    HW1 1937   0.430   1.197   0.104 -2.1304 -2.7690 -3.3835
  646SOL    HW2 1938   0.534   1.266   0.226  0.5176  2.7726  0.1682
  647SOL     OW 1939   1.016   0.147   0.952 -0.1590  0.1261  0.4124
  647SOL    HW1 1940   1.080   0.199   1.008 -1.6605 -1.4751 -2.1469
  647SOL    HW2 1941   0.990   0.064   1.005 -0.6876  1.8116  0.2740
  648SOL     OW 1942   2.408   0.138   1.512  0.7061 -0.0125  0.1539
  648SOL    HW1 1943   2.433   0.159   1.415 -0.1470 -3.9276 -0.1014
  648SOL    HW2 1944   2.346   0.059   1.524 -0.2647 -0.7335 -0.8512
  649SOL     OW 1945   0.869   1.955   2.895  0.3065 -0.3234  0.1102
  649SOL    HW1 1946   0.943   1.959   2.828 -1.8299 -0.1844 -2.6113
  649SOL    HW2 1947   0.791   1.903   2.850 -0.0310 -2.4106 -0.0122
  650SOL     OW 1948   2.881   1.845   1.783 -0.1380 -0.1464 -0.0310
  650SOL    HW1 1949   2.780   1.839   1.815 -0.4467  1.4680  0.0071
  650SOL    HW2 1950   2.905   1.781   1.704 -1.2387  0.5611  1.2782
  651SOL     OW 1951   1.208   0.000   0.499  0.1960  0.0892 -0.1737
  651SOL    HW1 1952   1.238   3.073   0.409  1.9233 -0.1857 -1.2315
  651SOL    HW2 1953   1.245   3.046   0.572  0.3900 -0.1147 -1.4283
  652SOL     OW 1954   2.877   1.790   0.180  0.7533  0.3359 -0.1196
  652SOL    HW1 1955   2.950   1.765   0.110 -0.4340 -0.5449  4.7743
  652SOL    HW2 1956   2.817   1.864   0.148  2.5310 -1.4865  1.3290
  653SOL     OW 1957   0.082   0.148   1.057  0.3589  0.1422  0.4441
  653SOL    HW1 1958   0.056   0.049   1.078 -3.2870 -1.1873  1.9638
  653SOL    HW2 1959   0.069   0.173   0.957 -1.9737 -1.7417 -0.4927
  654SOL     OW 1960   2.004   0.332   2.742 -0.0379 -0.2457  0.0947
  654SOL    HW1 1961   2.034   0.383   2.823  2.1346 -0.3783 -1.3124
  654SOL    HW2 1962   1.916   0.361   2.703 -0.5159  2.1030  2.9490
  655SOL     OW 1963   0.419   2.405   0.985 -0.3892 -0.1766  0.2404
  655SOL    HW1 1964   0.389   2.487   0.930  0.8981 -1.5492 -0.3209
  655SOL    HW2 1965   0.339   2.344   1.009  1.7740  0.0578  1.5542
  656SOL     OW 1966   0.210   0.097   1.850  0.7117 -1.0351 -0.4731
  656SOL    HW1 1967   0.115   0.068   1.836 -3.4259 -2.3291  1.3584
  656SOL    HW2 1968   0.264   0.086   1.765  0.8412 -0.0363  1.2492
  657SOL     OW 1969   2.338   0.622   2.377 -0.3292  0.3886 -0.3899
  657SOL    HW1 1970   2.392   0.586   2.301  1.5277 -0.3219 -1.8540
  657SOL    HW2 1971   2.288   0.548   2.425 -1.9901  1.2842  0.2712
  658SOL     OW 1972   2.257   1.675   1.015 -0.2868 -0.3404 -0.3192
  658SOL    HW1 1973   2.296   1.742   1.084 -0.6979 -0.8290  2.4010
  658SOL    HW2 1974   2.334   1.615   0.972  0.7772 -0.0597 -1.8918
  659SOL     OW 1975   2.552   0.100   2.872 -0.3999  0.3448 -0.2444
  659SOL    HW1 1976   2.608   0.109   2.785 -2.1932  1.1536 -1.3366
  659SOL    HW2 1977   2.470   0.046   2.854  3.6881 -0.3225  1.2146
  660SOL     OW 1978   1.293   1.480   2.803  0.0979  0.3520 -0.0565
  660SOL    HW1 1979   1.318   1.530   2.716  0.0705 -2.7449 -1.1580
  660SOL    HW2 1980   1.364   1.418   2.838 -0.7479 -0.1282  1.0207
  661SOL     OW 1981   2.621   2.290   0.969 -0.4489  0.4384  0.0110
  661SOL    HW1 1982   2.661   2.194   0.983  2.3640 -3.7321  1.1800
  661SOL    HW2 1983   2.671   2.365   1.020  0.6851 -0.6888  0.2380
  662SOL     OW 1984   0.729   0.573   0.129 -0.2089  0.3045 -0.1213
  662SOL    HW1 1985   0.825   0.556   0.158  1.2078 -3.9807  0.6504
  662SOL    HW2 1986   0.690   0.643   0.190  1.9498  1.9523  1.1824
  663SOL     OW 1987   1.779   2.100   0.074 -0.4140  0.9386  0.2081
  663SOL    HW1 1988   1.686   2.085   0.108  0.4377 -0.6925  0.5771
  663SOL    HW2 1989   1.837   2.022   0.103 -0.4643 -0.8701  0.3962
  664SOL     OW 1990   0.716   2.359   1.502  0.8763 -0.2736 -0.8281
  664SOL    HW1 1991   0.731   2.284   1.435 -1.4081  0.8890 -0.5198
  664SOL    HW2 1992   0.616   2.370   1.532 -0.5489  1.0738  0.7346
  665SOL     OW 1993   1.933   2.157   1.892 -0.3902  0.7263  0.3586
  665SOL    HW1 1994   1.861   2.207   1.842 -0.2076  0.6839  1.8622
  665SOL    HW2 1995   2.011   2.124   1.834  0.3685 -0.4418  2.3762
  666SOL     OW 1996   0.346   2.567   0.420  0.3624 -0.1908 -0.1585
  666SOL    HW1 1997   0.387   2.633   0.487  0.1302  1.0262 -0.0048
  666SOL    HW2 1998   0.418   2.512   0.369  0.8654 -0.3299  0.3037
  667SOL     OW 1999   2.095   1.260   1.867 -0.2681 -0.0149 -0.5197
  667SOL    HW1 2000   1.993   1.278   1.861 -2.0697 -1.0163 -1.3498
  667SOL    HW2 2001   2.126   1.251   1.965  0.9807  0.1949 -1.1909
  668SOL     OW 2002   0.391   0.485   2.486  0.4867  0.2421  0.0166
  668SOL    HW1 2003   0.423   0.580   2.509  0.3390  1.0836  3.0364
  668SOL    HW2 2004   0.472   0.424   2.480  1.9624  0.8868  0.0577
  669SOL     OW 2005   1.880   2.235   2.501 -0.0810 -0.0594  0.1442
  669SOL    HW1 2006   1.835   2.318   2.546  0.6736  3.0158  0.3241
  669SOL    HW2 2007   1.802   2.175   2.470  0.0659  0.4583 -1.2297
  670SOL     OW 2008   2.450   2.409   0.009 -0.0136 -0.4681 -0.0344
  670SOL    HW1 2009   2.429   2.499   3.075 -1.5885 -0.6479 -1.0621
  670SOL    HW2 2010   2.397   2.334   3.070  2.4688 -1.7157 -4.3846
  671SOL     OW 2011   0.835   1.003   1.115  0.2264  0.0768  0.0874
  671SOL    HW1 2012   0.872   1.085   1.166 -1.3995  2.6378 -0.2642
  671SOL    HW2 2013   0.790   0.945   1.191 -1.3189  2.4089  1.9427
  672SOL     OW 2014   2.507   1.016   2.466 -0.1146 -0.5020 -0.4891
  672SOL    HW1 2015   2.418   1.042   2.420 -0.2244 -1.3792  1.4718
  672SOL    HW2 2016   2.585   1.082   2.456  2.1224 -0.8670  2.0391
  673SOL     OW 2017   2.663   2.333   2.129 -0.0767  0.3889 -0.1941
  673SOL    HW1 2018   2.647   2.264   2.209  0.3279 -0.9275  3.8032
  673SOL    HW2 2019   2.698   2.418   2.168 -2.5884 -0.0275  0.2701
  674SOL     OW 2020   1.253   2.501   2.364  0.7162  0.5722  0.0537
  674SOL    HW1 2021   1.211   2.410   2.368 -0.5982 -1.8590  1.2268
  674SOL    HW2 2022   1.351   2.488   2.369  0.9602  2.2948 -0.2197
  675SOL     OW 2023   0.801   0.809   1.678 -0.3774  0.4812  0.0182
  675SOL    HW1 2024   0.883   0.752   1.644  0.7334  0.0440  1.3153
  675SOL    HW2 2025   0.800   0.904   1.649  1.5990 -3.6779  4.0098
  676SOL     OW 2026   1.919   0.954   0.613 -0.7247  0.0117  0.2945
  676SOL    HW1 2027   1.821   0.923   0.607 -0.9524 -0.8771  2.8662
  676SOL    HW2 2028   1.947   0.993   0.522 -2.9185  1.5222 -1.9914
  677SOL     OW 2029   2.815   1.703   2.676  0.0963 -0.6314 -0.4018
  677SOL    HW1 2030   2.766   1.739   2.756 -0.6455  1.8648  0.7841
  677SOL    HW2 2031   2.898   1.753   2.650 -0.4773 -2.1223  0.9834
  678SOL     OW 2032   2.780   2.047   1.396 -0.0987 -0.3990 -0.2463
  678SOL    HW1 2033   2.718   2.130   1.373 -1.2849  3.2621 -2.4227
  678SOL    HW2 2034   2.746   1.990   1.475 -0.3765  1.0999 -0.0455
  679SOL     OW 2035   1.831   2.626   0.781  0.0544 -0.7620 -0.7908
  679SOL    HW1 2036   1.892   2.600   0.704  1.0227  2.7746  0.1478
  679SOL    HW2 2037   1.758   2.556   0.808 -0.9465 -1.7706  1.3372
  680SOL     OW 2038   0.610   2.695   2.548  0.2856  0.2790 -0.1799
  680SOL    HW1 2039   0.564   2.754   2.480  1.5635  0.6589  0.3412
  680SOL    HW2 2040   0.695   2.652   2.506  1.6998 -0.4365 -0.7035
  681SOL     OW 2041   0.000   1.145   1.572 -0.7987 -0.4017  0.3461
  681SOL    HW1 2042   0.026   1.236   1.618  0.9229  0.0037  2.1896
  681SOL    HW2 2043   3.004   1.146   1.555 -1.0444  0.9483  0.6869
  682SOL     OW 2044   0.326   2.053   1.338 -0.9131  0.1765 -0.2124
  682SOL    HW1 2045   0.277   2.042   1.431  1.4566  2.2580  2.8778
  682SOL    HW2 2046   0.316   1.970   1.283  0.6822  3.4749  1.8076
  683SOL     OW 2047   2.601   1.316   1.253 -0.2868  0.0646  0.5174
  683SOL    HW1 2048   2.587   1.394   1.192  0.0111 -0.7428  1.1073
  683SOL    HW2 2049   2.583   1.340   1.350 -1.3248  3.2055  1.5045
  684SOL     OW 2050   2.575   1.499   2.918  0.4191  0.3462  0.0391
  684SOL    HW1 2051   2.651   1.432   2.899  1.8898  0.5861  0.0330
  684SOL    HW2 2052   2.480   1.459   2.910  0.0638  1.8063  2.4922
  685SOL     OW 2053   1.371   1.331   3.064 -0.2991  0.5073  0.3808
  685SOL    HW1 2054   1.285   1.318   3.010  1.5659 -0.2376  1.2145
  685SOL    HW2 2055   1.455   1.339   3.003  0.4188 -1.7269  1.9374
  686SOL     OW 2056   0.136   0.230   1.320  0.0430 -0.4917 -0.0369
  686SOL    HW1 2057   0.224   0.194   1.353 -0.4849 -1.1079  0.5296
  686SOL    HW2 2058   0.117   0.191   1.226  0.5141 -4.4837 -1.0732
  687SOL     OW 2059   0.880   1.712   2.532  0.3451 -0.3953  0.2233
  687SOL    HW1 2060   0.859   1.614   2.552 -2.6078 -1.5472 -0.2953
  687SOL    HW2 2061   0.853   1.733   2.435 -1.1934 -1.1038  0.9288
  688SOL     OW 2062   0.401   1.849   1.152 -0.2632  0.8190 -0.6961
  688SOL    HW1 2063   0.438   1.784   1.220 -1.8346 -3.4091  1.1296
  688SOL    HW2 2064   0.481   1.893   1.105 -0.3280  0.9416  2.9325
  689SOL     OW 2065   1.622   0.931   1.466 -0.0028 -0.7102  0.5008
  689SOL    HW1 2066   1.631   1.014   1.412 -1.4512 -1.2502  0.9617
  689SOL    HW2 2067   1.589   0.853   1.409  1.5171  0.3084  0.1942
  690SOL     OW 2068   2.624   0.988   0.993  0.2141  0.4140 -0.2109
  690SOL    HW1 2069   2.592   0.927   0.917  0.5645  2.1844  1.1967
  690SOL    HW2 2070   2.705   1.039   0.961  0.1646  0.6924 -0.1565
  691SOL     OW 2071   0.336   2.218   1.919  0.5919 -0.0830 -0.4910
  691SOL    HW1 2072   0.329   2.299   1.983  0.1446  0.6450 -1.0308
  691SOL    HW2 2073   0.270   2.149   1.955  1.6871 -0.7497 -0.9109
  692SOL     OW 2074   1.672   3.015   0.832  0.1103 -0.3805  0.0114
  692SOL    HW1 2075   1.732   2.993   0.751 -0.4853 -0.4335  2.7526
  692SOL    HW2 2076   1.672   2.932   0.892 -1.0867  1.6473 -1.8867
  693SOL     OW 2077   0.198   1.515   2.451 -0.0028  0.1320  0.0187
  693SOL    HW1 2078   0.253   1.594   2.468 -2.5126 -1.9013 -1.1909
  693SOL    HW2 2079   0.114   1.537   2.400 -2.9151 -0.2385 -0.1030
  694SOL     OW 2080   2.199   0.684   1.097  0.5462 -0.1013 -0.2208
  694SOL    HW1 2081   2.291   0.720   1.080 -4.0457 -1.2359 -0.0788
  694SOL    HW2 2082   2.175   0.713   1.189 -1.2274 -0.0625 -2.7368
  695SOL     OW 2083   0.772   1.038   1.541 -0.0700 -0.5657 -0.5061
  695SOL    HW1 2084   0.686   1.084   1.551  3.3886 -1.9963 -2.2753
  695SOL    HW2 2085   0.844   1.112   1.541  1.4533 -1.5679  0.7267
  696SOL     OW 2086   1.457   0.090   0.317  0.2111  0.2815  0.3189
  696SOL    HW1 2087   1.386   0.023   0.281  1.1412 -1.4035  0.6552
  696SOL    HW2 2088   1.426   0.135   0.406  0.8938  1.3480  1.0965
  697SOL     OW 2089   0.882   0.364   1.066  0.3532 -0.3119  0.1986
  697SOL    HW1 2090   0.785   0.380   1.048 -0.5925 -1.6531  1.6139
  697SOL    HW2 2091   0.929   0.301   0.997 -0.0077 -1.3369 -0.3224
  698SOL     OW 2092   1.380   1.654   2.620  0.5660 -0.1009 -0.4168
  698SOL    HW1 2093   1.398   1.629   2.525 -1.7050  2.2833 -0.4121
  698SOL    HW2 2094   1.457   1.689   2.673 -0.4599  0.5026  0.5803
  699SOL     OW 2095   1.316   0.998   1.066  0.5421 -0.4871  0.2692
  699SOL    HW1 2096   1.259   0.968   1.147 -2.0430 -0.5931 -2.3708
  699SOL    HW2 2097   1.278   0.943   0.985 -3.3306 -0.3540  0.8538
  700SOL     OW 2098   1.059   2.881   0.728 -0.5602  0.3909  0.2372
  700SOL    HW1 2099   1.010   2.934   0.656  3.1551  0.7047 -1.5357
  700SOL    HW2 2100   1.160   2.878   0.711  2.0844 -0.0684 -0.7071
  701SOL     OW 2101   2.612   2.820   2.632  0.5000 -0.6763  0.7023
  701SOL    HW1 2102   2.530   2.805   2.687  1.3149  1.1146  2.8455
  701SOL    HW2 2103   2.610   2.918   2.590  1.1951  1.3309 -2.7485
  702SOL     OW 2104   0.990   0.187   0.461  0.4182  0.0153 -0.2547
  702SOL    HW1 2105   1.067   0.123   0.458  0.1872  5.0347 -2.7225
  702SOL    HW2 2106   0.950   0.194   0.554  0.3303 -1.3317 -0.6158
  703SOL     OW 2107   2.317   0.245   2.190  0.3112 -0.1418  0.3895
  703SOL    HW1 2108   2.218   0.264   2.194 -0.8430  1.8988  1.3724
  703SOL    HW2 2109   2.369   0.328   2.204 -4.2890 -1.0004 -2.3075
  704SOL     OW 2110   2.778   1.635   0.647  0.0996  0.1099  0.0633
  704SOL    HW1 2111   2.796   1.588   0.560 -1.3409 -0.2641 -1.5898
  704SOL    HW2 2112   2.863   1.685   0.671  3.2996  0.8745 -3.6444
  705SOL     OW 2113   3.039   3.051   2.117  0.0029  0.2065  0.5777
  705SOL    HW1 2114   3.002   0.019   2.171  0.3100 -2.3696  0.5554
  705SOL    HW2 2115   3.016   2.962   2.163 -2.1248 -0.7487  0.8431
  706SOL     OW 2116   2.395   2.402   0.898 -0.2200 -0.1927 -0.5331
  706SOL    HW1 2117   2.476   2.345   0.924  1.9060  1.9985  2.0691
  706SOL    HW2 2118   2.339   2.364   0.824 -0.2326 -0.2941  2.2480
  707SOL     OW 2119   1.104   2.115   1.523 -0.1473 -0.4479 -0.0858
  707SOL    HW1 2120   1.084   2.214   1.540  0.1115 -0.4042 -1.2322
  707SOL    HW2 2121   1.073   2.091   1.430 -0.2773 -0.0319 -1.1341
  708SOL     OW 2122   0.040   2.404   1.707 -0.3392 -0.3699 -0.3468
  708SOL    HW1 2123   0.029   2.479   1.638  0.7001  1.9268  0.0358
  708SOL    HW2 2124   0.116   2.343   1.683 -0.7700  0.6115 -1.5126
  709SOL     OW 2125   2.164   2.966   1.985  0.4058 -0.3373  0.2531
  709SOL    HW1 2126   2.091   2.955   2.057  1.0856 -1.5642 -1.1974
  709SOL    HW2 2127   2.162   3.061   1.958  1.7981 -1.4705  2.0947
  710SOL     OW 2128   1.853   0.880   2.664  0.3025 -0.0421  0.0101
  710SOL    HW1 2129   1.917   0.805   2.680  0.4974  3.0261  0.3492
  710SOL    HW2 2130   1.874   0.949   2.732 -0.0797 -1.8589 -3.4060
  711SOL     OW 2131   0.953   2.433   3.082  0.8699  0.2755  0.1445
  711SOL    HW1 2132   0.891   2.499   0.021 -0.7568  1.2095  0.7738
  711SOL    HW2 2133   0.905   2.341   3.078 -1.4663 -0.8254  1.9528
  712SOL     OW 2134   0.661   2.483   2.717  0.3581 -0.2236  0.6482
  712SOL    HW1 2135   0.740   2.433   2.673 -2.5871  2.3884 -1.4673
  712SOL    HW2 2136   0.634   2.566   2.660  1.6020  0.8693 -0.0647
  713SOL     OW 2137   1.756   1.547   2.881  0.0891 -0.3627  0.1551
  713SOL    HW1 2138   1.851   1.507   2.877  1.5025 -0.8490  1.4544
  713SOL    HW2 2139   1.749   1.614   2.957  1.9564 -0.7589 -1.1832
  714SOL     OW 2140   0.942   1.626   1.463 -0.4610 -0.2059 -0.1648
  714SOL    HW1 2141   1.017   1.567   1.425 -0.2957 -0.6045  0.3219
  714SOL    HW2 2142   0.974   1.714   1.508 -0.9847  1.9114  2.6634
  715SOL     OW 2143   1.742   0.480   0.066  0.1644 -0.4740  0.4891
  715SOL    HW1 2144   1.805   0.534   0.005  1.7184  0.8442  0.1454
  715SOL    HW2 2145   1.804   0.426   0.134  2.6992  0.1519 -1.1035
  716SOL     OW 2146   0.197   2.617   2.286  0.2306 -0.2946  0.0531
  716SOL    HW1 2147   0.269   2.601   2.357  1.9863  1.4484  1.1505
  716SOL    HW2 2148   0.202   2.711   2.248  0.3773 -0.4814 -0.6783
  717SOL     OW 2149   2.922   0.634   0.934 -0.1157 -0.1379  0.3770
  717SOL    HW1 2150   2.903   0.713   0.868  0.2426  1.8813 -3.2416
  717SOL    HW2 2151   2.857   0.643   1.014  1.9952  0.5982 -1.8698
  718SOL     OW 2152   0.898   1.430   2.556  0.4498 -0.0407  0.5272
  718SOL    HW1 2153   0.880   1.452   2.654  0.4204  1.8057  0.6565
  718SOL    HW2 2154   0.819   1.387   2.508  1.1466 -1.3655  0.8092
  719SOL     OW 2155   2.139   1.131   2.862  0.3407  0.1810 -0.1464
  719SOL    HW1 2156   2.046   1.090   2.876  0.1366  1.9989  0.3224
  719SOL    HW2 2157   2.157   1.151   2.769 -0.6093 -0.7856 -0.1488
  720SOL     OW 2158   0.790   0.664   0.917 -0.1998 -0.4172  0.0532
  720SOL    HW1 2159   0.790   0.691   1.017  1.7702 -1.5116  3.3136
  720SOL    HW2 2160   0.740   0.576   0.908 -1.7274  0.2963 -1.7945
  721SOL     OW 2161   2.457   0.089   0.453  0.0760 -0.0221 -0.0167
  721SOL    HW1 2162   2.429   0.063   0.551 -3.0848 -1.0002  0.2855
  721SOL    HW2 2163   2.529   0.025   0.425  1.3367  1.4155 -2.0466
  722SOL     OW 2164   2.083   0.743   2.744 -0.0095  0.0230  0.0126
  722SOL    HW1 2165   2.137   0.805   2.684  1.2999  0.5348 -0.0132
  722SOL    HW2 2166   2.138   0.727   2.827 -1.2998  3.0865 -4.1716
  723SOL     OW 2167   2.416   0.343   0.556 -0.2021 -0.4425  0.6046
  723SOL    HW1 2168   2.496   0.384   0.602 -2.2700  1.7967 -0.4541
  723SOL    HW2 2169   2.432   0.249   0.526  0.8528  2.7886  0.7173
  724SOL     OW 2170   0.925   1.673   2.001 -0.4321 -0.2736  0.4887
  724SOL    HW1 2171   0.981   1.591   2.013 -3.7435 -1.3485 -2.7579
  724SOL    HW2 2172   0.843   1.653   1.942  0.2680  0.5328 -0.3301
  725SOL     OW 2173   1.781   0.379   1.266 -0.7430  0.3396 -0.2664
  725SOL    HW1 2174   1.772   0.481   1.259  0.5668  0.7520  0.2816
  725SOL    HW2 2175   1.828   0.343   1.186 -3.1941  0.3444 -2.6653
  726SOL     OW 2176   2.127   2.810   0.363  0.3224  0.3183 -0.2111
  726SOL    HW1 2177   2.178   2.825   0.446 -2.5778 -3.0586  0.1289
  726SOL    HW2 2178   2.158   2.721   0.327 -0.7607  0.8617 -0.9682
  727SOL     OW 2179   1.701   1.741   1.604 -0.0183 -0.1324  0.0300
  727SOL    HW1 2180   1.738   1.783   1.690  1.6780  0.1336 -0.7064
  727SOL    HW2 2181   1.724   1.642   1.606 -0.3484  0.6517  0.1881
  728SOL     OW 2182   2.104   2.609   1.455 -0.0922  0.5247  0.1210
  728SOL    HW1 2183   2.007   2.596   1.435 -0.7825  1.2104  2.1119
  728SOL    HW2 2184   2.110   2.668   1.537  0.9304 -1.5392 -0.9781
  729SOL     OW 2185   2.466   1.524   0.829 -0.6889  0.5831 -0.3565
  729SOL    HW1 2186   2.455   1.567   0.738  1.4691  1.5113 -0.5686
  729SOL    HW2 2187   2.564   1.487   0.830 -0.5055  2.2859  0.6111
  730SOL     OW 2188   0.702   1.016   2.716 -0.5853 -0.1305  0.0055
  730SOL    HW1 2189   0.655   1.089   2.665 -1.8991  0.6466  1.6725
  730SOL    HW2 2190   0.762   1.064   2.781  2.9732  0.5664  0.4444
  731SOL     OW 2191   0.203   3.049   0.712  0.0308 -0.3110  0.3974
  731SOL    HW1 2192   0.190   0.041   0.733 -0.3538  0.1458 -2.1226
  731SOL    HW2 2193   0.307   3.031   0.708  1.3321  1.0391  1.6509
  732SOL     OW 2194   1.493   0.733   0.416 -0.4092  0.3959  0.6269
  732SOL    HW1 2195   1.512   0.674   0.335  1.0212  0.6169  0.7475
  732SOL    HW2 2196   1.427   0.689   0.484 -2.8678  0.1287  0.3165
  733SOL     OW 2197   0.590   2.017   1.007 -0.1042  0.1470 -0.2649
  733SOL    HW1 2198   0.675   2.075   1.037  4.7961  1.1687  0.9371
  733SOL    HW2 2199   0.620   1.960   0.928  0.7278  1.5503 -0.3817
  734SOL     OW 2200   0.189   2.384   0.564 -0.1399 -0.3813  0.1928
  734SOL    HW1 2201   0.233   2.455   0.505  0.7729 -0.5417  0.0270
  734SOL    HW2 2202   0.108   2.419   0.612  3.7366 -1.7696  1.3418
  735SOL     OW 2203   1.245   0.225   1.119  0.6668  0.3255 -0.1708
  735SOL    HW1 2204   1.265   0.219   1.216  0.9183 -0.6672 -2.2057
  735SOL    HW2 2205   1.331   0.247   1.069  0.3439 -1.9750  0.2568
  736SOL     OW 2206   2.123   2.493   0.076 -0.1838 -0.1760 -0.2401
  736SOL    HW1 2207   2.059   2.415   0.073 -0.3074  2.4650  2.2503
  736SOL    HW2 2208   2.149   2.523   3.086  1.7067  1.8518 -2.6477
  737SOL     OW 2209   0.155   0.859   0.909 -0.0987 -0.4522  0.5291
  737SOL    HW1 2210   0.119   0.951   0.938  0.4680  2.2263 -4.6437
  737SOL    HW2 2211   0.137   0.843   0.811  0.3522 -0.5919  0.3706
  738SOL     OW 2212   2.595   2.863   1.868  0.1219 -0.0102  0.3246
  738SOL    HW1 2213   2.668   2.808   1.836 -2.4506  1.0109  1.3594
  738SOL    HW2 2214   2.595   2.866   1.975 -0.5479  2.9037  3.6521
  739SOL     OW 2215   1.402   2.461   3.045 -0.0645  0.4828  0.6938
  739SOL    HW1 2216   1.414   2.388   2.971  1.3964 -2.4710 -1.1061
  739SOL    HW2 2217   1.347   2.430   0.015  1.4523  2.7071  0.6868
  740SOL     OW 2218   1.510   0.323   1.061 -0.3700  0.1876 -0.1106
  740SOL    HW1 2219   1.556   0.305   1.152 -0.4496  0.4625 -0.0848
  740SOL    HW2 2220   1.578   0.311   0.982  2.3506  0.1138 -2.4774
  741SOL     OW 2221   2.904   0.505   0.607 -0.0456  0.4677 -0.6039
  741SOL    HW1 2222   2.920   0.599   0.568 -0.3759  2.4308 -1.7363
  741SOL    HW2 2223   2.961   0.489   0.689 -0.4118 -1.7656 -0.6592
  742SOL     OW 2224   0.806   1.491   2.795  0.6062 -0.4012 -0.1309
  742SOL    HW1 2225   0.878   1.533   2.847 -1.9965  0.4105  0.1419
  742SOL    HW2 2226   0.720   1.540   2.797  0.2759  1.2002  0.2084
  743SOL     OW 2227   1.198   0.741   2.121  0.1650  0.2975  0.4196
  743SOL    HW1 2228   1.246   0.688   2.049  0.2306 -0.8508 -2.0062
  743SOL    HW2 2229   1.099   0.721   2.119 -2.6799 -1.1727  0.2981
  744SOL     OW 2230   2.108   0.744   1.362 -0.1549 -0.3863  0.1855
  744SOL    HW1 2231   2.167   0.825   1.330  2.0961  1.5228 -3.1787
  744SOL    HW2 2232   2.026   0.776   1.412  0.6565  2.7585  1.0280
  745SOL     OW 2233   1.049   1.382   1.711 -0.0470 -0.3484 -0.0562
  745SOL    HW1 2234   0.958   1.425   1.733  0.8136 -0.0460  0.8446
  745SOL    HW2 2235   1.052   1.327   1.627  2.9470 -0.2978  0.0112
  746SOL     OW 2236   2.079   1.653   0.817 -0.1471 -0.0766 -0.9902
  746SOL    HW1 2237   2.132   1.661   0.905 -3.4068 -0.4050  1.5351
  746SOL    HW2 2238   2.131   1.588   0.756  0.1872 -0.4584 -1.0765
  747SOL     OW 2239   2.514   1.526   1.096  0.5577  0.1000  0.2631
  747SOL    HW1 2240   2.487   1.498   1.005  1.5751  0.2245 -0.9402
  747SOL    HW2 2241   2.553   1.621   1.092  1.5499  1.4353  0.5504
  748SOL     OW 2242   0.874   2.081   0.985 -0.1567  0.4321 -0.1223
  748SOL    HW1 2243   0.858   2.174   0.945 -1.8169 -0.6486  3.0728
  748SOL    HW2 2244   0.968   2.080   1.026  0.3775 -0.0068 -0.7872
  749SOL     OW 2245   2.609   2.785   2.149 -0.7157  0.3110  0.3482
  749SOL    HW1 2246   2.672   2.706   2.162  2.2409  0.4787 -1.2344
  749SOL    HW2 2247   2.642   2.866   2.201 -0.1587 -1.5902 -0.9793
  750SOL     OW 2248   2.347   0.402   0.868 -0.0246  0.1381 -0.1946
  750SOL    HW1 2249   2.355   0.364   0.776  0.0211  0.2815  0.7036
  750SOL    HW2 2250   2.276   0.475   0.872  1.9846  0.6732  1.4993
  751SOL     OW 2251   2.457   2.653   0.535 -0.0733  0.1595  0.1899
  751SOL    HW1 2252   2.559   2.645   0.534  1.0563  0.9770 -1.2575
  751SOL    HW2 2253   2.413   2.591   0.467 -0.1011 -0.8185 -1.4318
  752SOL     OW 2254   0.026   2.904   0.848  0.3082  0.0043 -0.3395
  752SOL    HW1 2255   0.045   2.807   0.867 -0.1231  1.0668  1.5239
  752SOL    HW2 2256   0.095   2.944   0.780  4.1092 -1.1309  0.6884
  753SOL     OW 2257   1.625   1.108   2.388 -0.0794  0.1324 -0.4231
  753SOL    HW1 2258   1.648   1.168   2.308 -0.8701 -0.4410 -2.6033
  753SOL    HW2 2259   1.606   1.016   2.355  0.3093  1.7948  0.5401
  754SOL     OW 2260   1.724   2.097   1.591  0.0483  0.8361 -0.4917
  754SOL    HW1 2261   1.704   2.062   1.687  2.2638 -0.5917  0.6649
  754SOL    HW2 2262   1.727   2.027   1.520  0.2372  1.1398  1.1074
  755SOL     OW 2263   2.567   0.782   0.831 -0.2172  0.1344 -0.2375
  755SOL    HW1 2264   2.556   0.691   0.881 -2.1876 -2.5519 -1.5161
  755SOL    HW2 2265   2.534   0.775   0.735 -0.2284 -1.4307 -1.7077
  756SOL     OW 2266   1.011   1.502   2.978  0.0699  0.0356  0.2712
  756SOL    HW1 2267   1.067   1.418   2.965  0.9363  2.3143  0.8891
  756SOL    HW2 2268   1.078   1.580   2.997 -1.9326 -0.3255 -0.4376
  757SOL     OW 2269   1.359   2.680   0.811 -0.3812 -0.5407  0.1476
  757SOL    HW1 2270   1.434   2.708   0.874  1.6042 -0.4438 -0.9269
  757SOL    HW2 2271   1.329   2.763   0.765  1.0652 -2.2260  3.0673
  758SOL     OW 2272   1.283   2.802   1.547  0.0581  0.4078 -0.3760
  758SOL    HW1 2273   1.260   2.832   1.642 -1.7496 -0.5997  0.0973
  758SOL    HW2 2274   1.375   2.835   1.512 -2.0603 -1.4721 -1.9799
  759SOL     OW 2275   0.160   0.519   0.596  0.3577 -0.5174  0.0660
  759SOL    HW1 2276   0.078   0.491   0.644  3.0065 -1.7356 -1.5722
  759SOL    HW2 2277   0.158   0.488   0.497  0.1202 -2.0937 -0.3067
  760SOL     OW 2278   2.458   1.115   1.162  0.1626 -0.4381 -0.3113
  760SOL    HW1 2279   2.522   1.074   1.092  1.5157 -1.4985 -0.7908
  760SOL    HW2 2280   2.504   1.198   1.198  1.6285 -2.4463  1.6542
  761SOL     OW 2281   1.785   0.284   0.614 -0.0243 -0.0885 -0.1010
  761SOL    HW1 2282   1.774   0.344   0.532 -0.9689 -0.8012  0.6499
  761SOL    HW2 2283   1.857   0.317   0.682  2.6492  1.6486  1.7440
  762SOL     OW 2284   2.210   1.799   0.048 -0.4799 -0.1072 -0.1898
  762SOL    HW1 2285   2.269   1.717   0.051  0.4146  0.7358  2.3101
  762SOL    HW2 2286   2.254   1.883   0.079 -0.6536  0.6898 -2.4739
  763SOL     OW 2287   0.669   1.669   1.518 -0.2090  0.0312  0.6889
  763SOL    HW1 2288   0.766   1.651   1.496 -0.0439 -1.2801  1.5579
  763SOL    HW2 2289   0.604   1.686   1.441 -2.5178 -1.9579  1.1542
  764SOL     OW 2290   2.682   1.995   2.554 -0.0576  0.3237  0.4300
  764SOL    HW1 2291   2.611   1.936   2.597  1.5301 -1.6062 -0.4556
  764SOL    HW2 2292   2.749   2.024   2.625 -2.5582 -2.7653 -1.0642
  765SOL     OW 2293   0.618   2.429   1.148  0.4643  0.5296  0.1063
  765SOL    HW1 2294   0.698   2.469   1.100 -0.3081  1.4113 -0.0792
  765SOL    HW2 2295   0.540   2.417   1.087  0.7373 -1.1308  1.2372
  766SOL     OW 2296   3.029   2.173   2.358  0.2296 -0.7136  0.7238
  766SOL    HW1 2297   3.077   2.082   2.360  0.6426 -1.3089 -2.4549
  766SOL    HW2 2298   3.092   2.254   2.339  3.3524  0.1005  0.8522
  767SOL     OW 2299   2.272   0.863   2.571 -0.0978 -0.1537 -0.2311
  767SOL    HW1 2300   2.307   0.832   2.482 -0.8431  0.3391  1.3566
  767SOL    HW2 2301   2.348   0.863   2.642  4.1558  0.7352 -0.0233
  768SOL     OW 2302   1.317   0.327   2.474 -0.1109 -0.1019 -0.1848
  768SOL    HW1 2303   1.291   0.430   2.486 -0.7538  3.5350  0.0129
  768SOL    HW2 2304   1.295   0.273   2.560 -2.2489 -4.6042  1.8876
  769SOL     OW 2305   3.062   2.516   1.075  0.0057 -0.3622  0.6611
  769SOL    HW1 2306   3.090   2.564   0.985  0.4463 -0.5226 -0.3250
  769SOL    HW2 2307   0.026   2.532   1.148  0.4685 -0.1311  0.7412
  770SOL     OW 2308   0.647   0.239   2.932 -0.4081  0.1854 -0.2099
  770SOL    HW1 2309   0.625   0.324   2.987 -1.4293  1.9548  1.0546
  770SOL    HW2 2310   0.642   0.157   2.990 -1.4901  1.9883  0.7315
  771SOL     OW 2311   1.243   1.903   2.481 -0.2584  0.4337  0.2006
  771SOL    HW1 2312   1.305   1.826   2.514  0.3222 -2.5475 -1.6768
  771SOL    HW2 2313   1.172   1.870   2.416 -0.8435  1.3055  1.5705
  772SOL     OW 2314   1.960   2.946   2.155 -0.2110  0.1111  0.0229
  772SOL    HW1 2315   1.995   2.924   2.252 -0.6575 -0.3474  2.8852
  772SOL    HW2 2316   1.908   3.029   2.156  0.8268 -0.5948 -1.9672
  773SOL     OW 2317   1.641   0.908   1.731  0.4142 -0.3551  0.2542
  773SOL    HW1 2318   1.633   0.962   1.647  1.4476  0.7240  1.4762
  773SOL    HW2 2319   1.708   0.827   1.723  0.0761 -0.4464  0.6021
  774SOL     OW 2320   1.131   0.609   1.069 -0.4763 -0.3345  0.0631
  774SOL    HW1 2321   1.221   0.567   1.082 -2.0631 -1.5522  0.1439
  774SOL    HW2 2322   1.066   0.592   1.146 -1.8356 -1.3007  0.0528
  775SOL     OW 2323   2.099   2.843   2.924  0.2928  0.2322  0.2137
  775SOL    HW1 2324   2.024   2.785   2.968  0.8925 -1.1125  2.9062
  775SOL    HW2 2325   2.166   2.793   2.866 -0.4212 -0.1877  0.7092
  776SOL     OW 2326   1.883   0.853   1.491  0.4192  0.7723  0.0774
  776SOL    HW1 2327   1.801   0.901   1.452 -2.9705 -0.2126  0.7678
  776SOL    HW2 2328   1.863   0.822   1.585 -0.3357  0.8676  1.5191
  777SOL     OW 2329   3.049   1.277   2.225  0.1738  0.0869  0.0806
  777SOL    HW1 2330   3.066   1.350   2.291 -2.0635 -1.1264 -0.8635
  777SOL    HW2 2331   2.948   1.257   2.216 -2.2439 -2.2415 -1.5389
  778SOL     OW 2332   2.755   1.139   2.459 -0.2811  0.1952  0.4750
  778SOL    HW1 2333   2.810   1.068   2.503  0.8938 -0.5382 -0.0622
  778SOL    HW2 2334   2.763   1.222   2.515 -2.7438 -1.7524 -1.6429
  779SOL     OW 2335   0.028   0.743   2.963  0.4481 -0.0404  0.0606
  779SOL    HW1 2336   0.047   0.646   2.930 -0.0402  1.7693 -0.2709
  779SOL    HW2 2337   3.053   0.741   3.025 -0.1126  0.3432 -0.5201
  780SOL     OW 2338   2.357   2.176   2.245 -0.0218 -0.6188 -0.1237
  780SOL    HW1 2339   2.408   2.145   2.166 -2.7544 -1.4837  0.8089
  780SOL    HW2 2340   2.284   2.108   2.265 -1.5475  0.7442 -0.6131
  781SOL     OW 2341   2.931   1.152   1.819  0.2157  0.4277 -0.2422
  781SOL    HW1 2342   2.906   1.250   1.806 -1.2629 -3.5655 -0.3582
  781SOL    HW2 2343   3.004   1.127   1.757 -1.0678 -1.7434 -1.6356
  782SOL     OW 2344   1.526   2.287   2.643  0.0412 -0.2706 -0.3873
  782SOL    HW1 2345   1.494   2.208   2.583 -0.8494 -1.1407  2.0103
  782SOL    HW2 2346   1.509   2.259   2.740  0.3220 -1.4581  1.8429
  783SOL     OW 2347   0.854   2.513   1.065  0.3795 -0.0091  0.5281
  783SOL    HW1 2348   0.892   2.460   1.142 -0.9971 -0.7068  1.5450
  783SOL    HW2 2349   0.847   2.613   1.097  1.7051  0.8242  1.3825
  784SOL     OW 2350   1.981   0.552   2.310 -0.3748 -0.6362  0.2522
  784SOL    HW1 2351   1.993   0.560   2.413  0.0323 -1.0489 -0.4143
  784SOL    HW2 2352   1.979   0.453   2.285  0.3196  0.0278  2.6220
  785SOL     OW 2353   2.879   0.082   1.607  0.0115  0.4637 -0.3359
  785SOL    HW1 2354   2.785   0.118   1.630  1.2897 -0.5362  1.7362
  785SOL    HW2 2355   2.930   0.061   1.692 -2.2197 -1.0184 -1.9571
  786SOL     OW 2356   1.369   2.367   0.223  0.1893  0.4191 -0.2627
  786SOL    HW1 2357   1.465   2.402   0.197  0.2317 -0.0228  1.1902
  786SOL    HW2 2358   1.331   2.401   0.311 -1.0987  0.8369  0.2288
  787SOL     OW 2359   1.235   0.312   0.752  0.0827  0.3356  0.2279
  787SOL    HW1 2360   1.196   0.230   0.799 -3.2353  0.1598 -0.0204
  787SOL    HW2 2361   1.173   0.391   0.771  0.7685  0.7181 -0.3585
  788SOL     OW 2362   0.180   1.169   1.168  0.2673 -0.5687 -0.3287
  788SOL    HW1 2363   0.190   1.266   1.205  2.3871 -1.0783 -0.7936
  788SOL    HW2 2364   0.181   1.109   1.253 -1.5861 -1.6193 -1.1573
  789SOL     OW 2365   2.277   1.035   2.290 -0.1989 -0.1561 -0.0332
  789SOL    HW1 2366   2.252   0.945   2.253  3.1108 -2.6500  1.9108
  789SOL    HW2 2367   2.184   1.076   2.314  0.3568  0.4895 -0.8743
  790SOL     OW 2368   1.313   0.579   2.767 -0.3287 -0.1928 -0.1957
  790SOL    HW1 2369   1.287   0.569   2.672  1.9277  0.0137  0.6090
  790SOL    HW2 2370   1.242   0.557   2.840  2.4068 -2.5346  3.2163
  791SOL     OW 2371   0.176   2.742   0.261 -0.0321  0.3185 -0.1346
  791SOL    HW1 2372   0.192   2.830   0.313  0.6207  1.6905  0.2010
  791SOL    HW2 2373   0.221   2.665   0.308 -0.2641  1.0874 -1.4646
  792SOL     OW 2374   1.266   1.057   1.953  0.4669  0.4401 -0.1295
  792SOL    HW1 2375   1.208   1.032   2.029  1.7903  1.1915 -2.8861
  792SOL    HW2 2376   1.239   1.009   1.866  0.0406 -2.3286 -1.3839
  793SOL     OW 2377   2.775   0.264   0.995 -0.2894 -0.1744  0.0672
  793SOL    HW1 2378   2.854   0.245   0.936  1.1014 -1.2247 -1.7274
  793SOL    HW2 2379   2.789   0.244   1.098 -2.4168 -2.0579  0.2470
  794SOL     OW 2380   2.913   0.158   2.226  0.2522  1.2707 -0.4265
  794SOL    HW1 2381   2.919   0.232   2.293  0.3537  1.5310 -1.1597
  794SOL    HW2 2382   2.873   0.192   2.141 -1.9584 -1.0486  0.7637
  795SOL     OW 2383   0.542   1.470   0.210  0.1766 -0.1928  0.5365
  795SOL    HW1 2384   0.615   1.467   0.138 -0.5935 -0.0882 -1.0626
  795SOL    HW2 2385   0.472   1.543   0.178 -1.2433  2.3698  1.1822
  796SOL     OW 2386   0.013   0.961   2.807  0.0607  0.8267  0.1116
  796SOL    HW1 2387   0.018   0.865   2.856 -0.3038 -2.0654 -0.0989
  796SOL    HW2 2388   3.074   0.959   2.714 -1.0621  0.9543  0.3630
  797SOL     OW 2389   2.272   3.104   2.305  0.0272 -0.3318 -0.3539
  797SOL    HW1 2390   2.294   3.009   2.279 -2.1970 -0.0780  0.3150
  797SOL    HW2 2391   2.312   0.064   2.232 -0.6219  1.4699  1.1161
  798SOL     OW 2392   0.175   2.949   1.327 -0.0381  0.2508 -0.2939
  798SOL    HW1 2393   0.121   2.977   1.245 -0.0565  2.1482  0.3203
  798SOL    HW2 2394   0.131   2.986   1.416  1.4487 -0.6578  0.4374
  799SOL     OW 2395   2.831   0.904   1.696  0.0408  0.2671 -0.6335
  799SOL    HW1 2396   2.742   0.906   1.645  2.0620  1.7245  0.7614
  799SOL    HW2 2397   2.865   1.000   1.714  0.5132  0.8971 -0.4089
  800SOL     OW 2398   0.505   1.281   0.762 -0.2584  0.1560  0.2819
  800SOL    HW1 2399   0.403   1.279   0.743 -0.2940  4.4794 -3.7234
  800SOL    HW2 2400   0.547   1.188   0.738  3.1728  0.6203  0.8766
  801SOL     OW 2401   1.891   1.850   0.439 -0.3139 -0.5334  0.0804
  801SOL    HW1 2402   1.815   1.915   0.431  1.9477  0.4070 -3.1164
  801SOL    HW2 2403   1.866   1.750   0.433  0.3660  2.5363  0.5475
  802SOL     OW 2404   1.289   1.107   2.782 -0.2391 -0.6489  0.5515
  802SOL    HW1 2405   1.223   1.106   2.708  0.4409 -0.4253  3.2511
  802SOL    HW2 2406   1.374   1.056   2.753 -0.1126  1.5794 -3.1710
  803SOL     OW 2407   1.041   1.848   1.620  0.1021  0.1795  0.3759
  803SOL    HW1 2408   1.118   1.788   1.644  1.5707 -0.8344 -0.0632
  803SOL    HW2 2409   1.073   1.943   1.603  1.6938  0.6368  0.1929
  804SOL     OW 2410   1.652   2.426   0.804 -0.0362  0.2666  0.5527
  804SOL    HW1 2411   1.718   2.349   0.782  4.5380 -2.3820 -0.0586
  804SOL    HW2 2412   1.587   2.440   0.721 -0.4914  1.1237  1.6269
  805SOL     OW 2413   2.843   2.446   2.417  0.0502  0.4298  0.3278
  805SOL    HW1 2414   2.795   2.357   2.396 -1.6684 -1.0724 -1.2294
  805SOL    HW2 2415   2.871   2.498   2.336 -1.0995  1.1507  0.7181
  806SOL     OW 2416   2.943   3.025   0.493 -0.7400  0.0140 -0.3567
  806SOL    HW1 2417   2.926   3.034   0.592  1.3286 -1.3645 -1.1787
  806SOL    HW2 2418   2.963   2.924   0.479  0.2671 -4.3911  2.2962
  807SOL     OW 2419   2.430   0.864   2.844 -0.3215  0.1069  0.6775
  807SOL    HW1 2420   2.522   0.822   2.818  0.9935  0.3131 -2.7722
  807SOL    HW2 2421   2.372   0.805   2.908 -1.2644  0.9749  0.5661
  808SOL     OW 2422   1.144   2.507   0.763  1.0406  0.2250 -0.3469
  808SOL    HW1 2423   1.223   2.560   0.789 -1.4830 -1.9498 -1.2933
  808SOL    HW2 2424   1.171   2.469   0.676 -0.0052  1.2526 -0.9704
  809SOL     OW 2425   2.735   0.168   2.672  0.0819  0.1692  0.2141
  809SOL    HW1 2426   2.825   0.125   2.680  0.5652  0.6810 -4.2802
  809SOL    HW2 2427   2.742   0.265   2.650  2.4379  0.9637  2.3126
  810SOL     OW 2428   1.273   1.078   0.652  0.0011  0.4742  1.0771
  810SOL    HW1 2429   1.273   1.181   0.657 -0.2359 -1.9686  2.8496
  810SOL    HW2 2430   1.304   1.052   0.558  1.5481  3.7307 -1.6887
  811SOL     OW 2431   1.775   2.870   1.496  0.0962 -0.3409  0.1350
  811SOL    HW1 2432   1.676   2.887   1.525  0.2352  1.7565 -0.7415
  811SOL    HW2 2433   1.780   2.823   1.407 -1.1801 -1.8990 -4.3177
  812SOL     OW 2434   1.832   3.021   0.080 -0.2252  0.4310  0.0664
  812SOL    HW1 2435   1.798   3.068   0.165  0.1180  1.9623  2.3005
  812SOL    HW2 2436   1.791   3.065   3.103 -3.9731 -0.8800 -0.1146
  813SOL     OW 2437   1.173   0.352   2.214  0.3390  0.0459 -0.3089
  813SOL    HW1 2438   1.087   0.363   2.265  2.2010 -0.4644  1.5856
  813SOL    HW2 2439   1.248   0.363   2.278 -1.1747  2.1239 -1.6598
  814SOL     OW 2440   0.377   0.041   1.330 -0.5731 -0.5310 -0.7483
  814SOL    HW1 2441   0.301   3.075   1.333 -1.2117 -2.2995  0.7182
  814SOL    HW2 2442   0.467   3.102   1.347  1.3608 -0.0370 -0.7513
  815SOL     OW 2443   0.432   2.855   1.204  0.1226 -0.3305  0.3212
  815SOL    HW1 2444   0.341   2.900   1.216  0.8229 -1.0066  0.9865
  815SOL    HW2 2445   0.466   2.862   1.105  1.0821  0.4547 -3.2706
  816SOL     OW 2446   2.597   1.613   2.543 -0.2206  0.1251  0.6524
  816SOL    HW1 2447   2.509   1.617   2.591  1.3419 -1.3318  0.6382
  816SOL    HW2 2448   2.670   1.636   2.615  1.4613  0.9469 -1.6654
  817SOL     OW 2449   1.313   0.073   2.935  0.8629  0.4685  0.0483
  817SOL    HW1 2450   1.369   0.114   3.008 -1.0735 -0.0820  0.4863
  817SOL    HW2 2451   1.220   0.057   2.976 -0.7177 -2.5954 -0.7508
  818SOL     OW 2452   1.554   1.125   0.220 -0.1830  0.0941 -0.0028
  818SOL    HW1 2453   1.582   1.173   0.308  0.0915 -1.3441 -0.1007
  818SOL    HW2 2454   1.459   1.144   0.188  1.4253  0.7058 -0.3349
  819SOL     OW 2455   1.809   2.758   2.592  0.0107  0.0545 -0.2905
  819SOL    HW1 2456   1.802   2.685   2.527 -1.9983 -0.3540  1.0112
  819SOL    HW2 2457   1.807   2.846   2.538  0.3483  4.3965 -6.7756
  820SOL     OW 2458   1.044   0.791   0.142  0.4240  0.2884  0.2002
  820SOL    HW1 2459   1.138   0.772   0.104  0.5419  1.3468  0.8709
  820SOL    HW2 2460   1.050   0.859   0.220  1.1285  2.7441 -0.4036
  821SOL     OW 2461   0.420   0.512   1.418  0.2391  0.3758 -0.2653
  821SOL    HW1 2462   0.425   0.612   1.438  2.5115 -1.1856  0.1154
  821SOL    HW2 2463   0.348   0.500   1.347 -0.9630 -0.5950 -0.3479
  822SOL     OW 2464   1.426   2.596   2.038  0.2244  0.1342  0.0315
  822SOL    HW1 2465   1.485   2.589   1.954 -0.8514  0.1311 -1.6327
  822SOL    HW2 2466   1.414   2.503   2.079 -0.7088  0.9382  0.0354
  823SOL     OW 2467   0.678   1.229   2.124  0.5554 -0.6302 -0.2227
  823SOL    HW1 2468   0.740   1.272   2.055 -2.2406  1.2904  2.6678
  823SOL    HW2 2469   0.722   1.147   2.161 -0.6249  2.3453  2.0210
  824SOL     OW 2470   2.251   0.088   1.784 -0.3372  0.1743 -0.5756
  824SOL    HW1 2471   2.222   0.037   1.701 -1.2878 -1.8887 -1.2384
  824SOL    HW2 2472   2.252   0.189   1.762 -0.4919 -0.4239 -0.1733
  825SOL     OW 2473   0.995   1.423   0.290 -0.6136  0.5691  0.3127
  825SOL    HW1 2474   0.973   1.516   0.253 -0.0982 -2.8873  1.5014
  825SOL    HW2 2475   0.996   1.353   0.214  2.4764 -0.6404 -0.8590
  826SOL     OW 2476   1.974   0.556   2.565  0.3722 -0.0961  0.2597
  826SOL    HW1 2477   1.999   0.622   2.638  1.0156 -0.4065  1.5654
  826SOL    HW2 2478   1.882   0.512   2.582 -1.2011 -0.6201 -3.8742
  827SOL     OW 2479   0.457   2.096   2.900  0.1391 -0.1153 -0.1657
  827SOL    HW1 2480   0.503   2.185   2.932  2.3086  0.7743 -3.1264
  827SOL    HW2 2481   0.488   2.085   2.803 -0.9017 -0.5735  0.3683
  828SOL     OW 2482   2.788   0.211   1.260 -0.6134  0.7422  0.2631
  828SOL    HW1 2483   2.708   0.260   1.304  0.1118  0.5371 -1.4799
  828SOL    HW2 2484   2.878   0.221   1.310 -3.8567 -0.0869 -2.0710
  829SOL     OW 2485   1.147   1.392   1.097 -0.0778 -0.2649 -0.0871
  829SOL    HW1 2486   1.159   1.494   1.070  1.7079  0.7245 -0.8857
  829SOL    HW2 2487   1.231   1.333   1.091  0.2489 -1.0000  1.0312
  830SOL     OW 2488   0.364   1.240   1.828  0.1354  0.1893  0.1422
  830SOL    HW1 2489   0.270   1.249   1.794  0.6662 -1.2838  0.1857
  830SOL    HW2 2490   0.356   1.236   1.929  0.7316  0.6278  0.8226
  831SOL     OW 2491   0.381   1.682   0.140 -0.0360  0.6161  0.4107
  831SOL    HW1 2492   0.298   1.638   0.100 -2.2603  0.1525  0.1083
  831SOL    HW2 2493   0.413   1.762   0.084 -1.8839 -0.2048 -1.1550
  832SOL     OW 2494   1.028   0.275   2.813  0.0872  0.2953 -0.4972
  832SOL    HW1 2495   1.011   0.187   2.854 -0.9577 -0.1225  1.2740
  832SOL    HW2 2496   0.945   0.318   2.786  3.0692 -1.9451 -1.5301
  833SOL     OW 2497   0.047   0.640   1.877  0.6257  0.2249 -0.5956
  833SOL    HW1 2498   0.099   0.665   1.791 -1.4371  2.1355 -0.8458
  833SOL    HW2 2499   3.058   0.668   1.869  1.5814 -0.4867  0.9680
  834SOL     OW 2500   0.048   0.669   1.070 -0.5418  0.3460 -0.2724
  834SOL    HW1 2501   0.105   0.732   1.013 -0.4215 -1.7146 -1.8364
  834SOL    HW2 2502   3.071   0.643   1.019  2.1900 -0.5697 -0.9266
  835SOL     OW 2503   2.638   2.709   1.056  0.0294 -0.0379 -0.1832
  835SOL    HW1 2504   2.650   2.788   0.996  1.6952 -0.6713  0.7988
  835SOL    HW2 2505   2.651   2.733   1.154  0.1988  0.6600  0.2229
  836SOL     OW 2506   0.453   1.876   3.035  0.3502 -0.2530  0.2482
  836SOL    HW1 2507   0.524   1.913   3.095 -0.0600 -0.0741  0.9693
  836SOL    HW2 2508   0.419   1.948   2.976 -2.1799 -2.3222  2.3696
  837SOL     OW 2509   1.814   2.215   2.886  0.1124 -0.3694 -0.2296
  837SOL    HW1 2510   1.860   2.302   2.888 -2.3371 -0.2522  0.7543
  837SOL    HW2 2511   1.786   2.190   2.980 -0.8304  0.0077  2.4729
  838SOL     OW 2512   2.777   1.209   2.177 -0.5715  0.3511  0.7790
  838SOL    HW1 2513   2.778   1.173   2.271  1.2913 -0.3162  2.9352
  838SOL    HW2 2514   2.763   1.135   2.105 -1.3452 -2.8366 -1.6926
  839SOL     OW 2515   1.097   0.931   0.403  0.2261  0.6266  0.4261
  839SOL    HW1 2516   1.075   0.847   0.455 -0.7355 -0.4242 -2.0895
  839SOL    HW2 2517   1.051   1.018   0.435 -1.9112  3.4461  1.3468
  840SOL     OW 2518   1.804   0.595   0.699  0.2647  0.0643 -0.2397
  840SOL    HW1 2519   1.759   0.683   0.666 -0.8912  3.3620 -0.5889
  840SOL    HW2 2520   1.735   0.525   0.714 -0.9313 -2.4155  0.5168
  841SOL     OW 2521   0.542   2.858   0.929 -0.8738  0.3311  0.0375
  841SOL    HW1 2522   0.585   2.934   0.982  4.6712  0.9800 -0.6489
  841SOL    HW2 2523   0.612   2.803   0.882  1.3758  2.4195  1.8202
  842SOL     OW 2524   0.579   0.234   0.254  0.0104  0.6926  0.8182
  842SOL    HW1 2525   0.529   0.222   0.167  2.1386  2.0711  3.1777
  842SOL    HW2 2526   0.679   0.254   0.236  1.8249  0.5404 -1.9740
  843SOL     OW 2527   0.504   0.541   1.847  0.1311  0.6060  0.4623
  843SOL    HW1 2528   0.518   0.638   1.817 -2.1849 -3.5150 -1.8139
  843SOL    HW2 2529   0.411   0.531   1.885  2.5389  0.9142 -1.5589
  844SOL     OW 2530   1.549   2.692   3.033 -0.5767  0.0615 -0.3579
  844SOL    HW1 2531   1.584   2.726   2.945  1.4415  0.3279 -1.0520
  844SOL    HW2 2532   1.482   2.612   3.018 -2.3952 -2.1849  0.4710
  845SOL     OW 2533   2.803   2.568   2.146 -0.4452 -0.5253 -0.0667
  845SOL    HW1 2534   2.782   2.595   2.046 -1.7039  0.0451 -1.2367
  845SOL    HW2 2535   2.906   2.537   2.151  0.4412 -0.9695 -2.4719
  846SOL     OW 2536   1.718   2.015   2.451 -0.0126 -0.1521  0.2088
  846SOL    HW1 2537   1.731   2.006   2.552  0.1671 -3.1772  1.1118
  846SOL    HW2 2538   1.735   1.927   2.405  0.9437  0.3643  1.6548
  847SOL     OW 2539   2.311   2.828   2.215 -0.5690  0.4438 -0.0674
  847SOL    HW1 2540   2.409   2.838   2.196 -3.0006  0.3126  0.7380
  847SOL    HW2 2541   2.262   2.820   2.126  0.8072 -1.0830 -0.0402
  848SOL     OW 2542   0.374   3.096   0.298  0.6617  0.5286  0.2205
  848SOL    HW1 2543   0.420   0.062   0.241  0.0975  2.3763  1.8957
  848SOL    HW2 2544   0.334   3.023   0.237 -1.6595 -2.0271 -0.8622
  849SOL     OW 2545   0.711   2.820   1.564 -0.0622 -0.0826  0.1233
  849SOL    HW1 2546   0.761   2.732   1.550 -0.0418  0.1713  0.1775
  849SOL    HW2 2547   0.775   2.894   1.590  0.6676 -0.3259 -1.1144
  850SOL     OW 2548   0.288   1.169   0.550  0.3430  0.1559 -0.2163
  850SOL    HW1 2549   0.267   1.218   0.641  1.4365 -2.6779  0.9646
  850SOL    HW2 2550   0.328   1.240   0.489  1.4865  0.4266 -1.8140
  851SOL     OW 2551   0.046   0.471   2.853 -0.4847  0.0642  0.0602
  851SOL    HW1 2552   0.146   0.477   2.850  0.0829 -2.6166  1.7981
  851SOL    HW2 2553   0.011   0.414   2.779  2.2445  2.5994  4.8148
  852SOL     OW 2554   1.619   2.019   1.837  0.0469  0.0099 -0.4030
  852SOL    HW1 2555   1.520   1.999   1.829  0.2364  0.0907  2.3473
  852SOL    HW2 2556   1.644   2.024   1.936  1.4683  0.7728  0.4058
  853SOL     OW 2557   0.574   1.883   0.608 -0.9094  0.4787 -0.3002
  853SOL    HW1 2558   0.627   1.833   0.678 -2.0415 -3.7361 -1.1295
  853SOL    HW2 2559   0.621   1.975   0.580  0.0790  4.2865  1.1170
  854SOL     OW 2560   1.659   1.162   1.323 -0.1975 -0.0724  0.0789
  854SOL    HW1 2561   1.559   1.192   1.327 -0.1697 -0.8433 -0.7629
  854SOL    HW2 2562   1.690   1.167   1.225 -2.0967 -0.9440  1.0190
  855SOL     OW 2563   0.537   2.002   0.171  0.0992 -0.0249  0.7224
  855SOL    HW1 2564   0.607   2.080   0.182 -3.4179 -0.8767 -2.8672
  855SOL    HW2 2565   0.442   2.039   0.160 -1.4714 -2.1100 -1.1721
  856SOL     OW 2566   3.033   0.062   1.818 -0.2038 -0.8056  0.0449
  856SOL    HW1 2567   3.058   3.095   1.884  0.5838  0.3372 -1.2667
  856SOL    HW2 2568   3.036   0.157   1.858  0.1935  1.3854  0.0951
  857SOL     OW 2569   0.390   0.270   1.975 -0.2052  0.4983  0.1374
  857SOL    HW1 2570   0.335   0.196   1.926  0.7107 -1.1053  0.2950
  857SOL    HW2 2571   0.343   0.358   1.970 -0.4138 -0.2664  2.4541
  858SOL     OW 2572   2.987   1.891   2.204 -0.0036 -0.5756  0.5346
  858SOL    HW1 2573   2.903   1.897   2.260  0.3041  0.8314 -0.0442
  858SOL    HW2 2574   3.071   1.910   2.261 -2.0547 -0.3639 -0.0458
  859SOL     OW 2575   2.226   2.773   0.627 -0.0248  0.4545  0.1003
  859SOL    HW1 2576   2.322   2.735   0.615 -0.4578 -1.3013  0.3494
  859SOL    HW2 2577   2.160   2.694   0.615  1.0498 -1.9192 -0.7111
  860SOL     OW 2578   1.876   0.301   0.232  0.4138 -0.2632 -0.2678
  860SOL    HW1 2579   1.977   0.282   0.234 -0.8930  1.3170  1.1035
  860SOL    HW2 2580   1.825   0.217   0.251  1.9043 -1.0272  1.1536
  861SOL     OW 2581   0.334   0.415   0.829  0.1783  0.0210  0.0148
  861SOL    HW1 2582   0.294   0.476   0.763 -0.0920 -0.1020  3.1323
  861SOL    HW2 2583   0.363   0.467   0.911 -1.5843 -0.5268 -0.7570
  862SOL     OW 2584   2.141   0.543   1.537 -0.4665 -0.3643  0.1783
  862SOL    HW1 2585   2.085   0.469   1.488 -1.4939 -3.6352 -1.0322
  862SOL    HW2 2586   2.141   0.634   1.487  1.8466  1.0860  0.9010
  863SOL     OW 2587   0.553   1.430   1.262 -0.2304  0.1698  0.3561
  863SOL    HW1 2588   0.526   1.378   1.176  1.1257 -1.9795 -1.6131
  863SOL    HW2 2589   0.653   1.417   1.281  0.6456  0.3305 -0.5942
  864SOL     OW 2590   2.505   0.025   1.877  0.0214  0.0074  0.0023
  864SOL    HW1 2591   2.408   0.042   1.842 -0.9014  0.0603  1.2844
  864SOL    HW2 2592   2.527   3.031   1.871 -1.8199  1.5577  2.0630
  865SOL     OW 2593   1.599   0.489   1.610 -0.5032 -0.1775 -0.3880
  865SOL    HW1 2594   1.580   0.415   1.684  0.7252 -1.2286 -0.1827
  865SOL    HW2 2595   1.561   0.578   1.642 -3.0836  0.3040  1.8929
  866SOL     OW 2596   2.712   2.861   0.833 -0.1142 -0.3640 -0.1088
  866SOL    HW1 2597   2.749   2.770   0.804 -1.2097  1.5818 -1.0204
  866SOL    HW2 2598   2.635   2.884   0.770 -1.8486 -0.3080  1.7693
  867SOL     OW 2599   2.652   2.342   0.697  0.6683 -0.3143 -0.1489
  867SOL    HW1 2600   2.646   2.314   0.793  3.1378  0.0490 -3.2579
  867SOL    HW2 2601   2.599   2.426   0.676  0.8036  0.0982  1.5335
  868SOL     OW 2602   1.460   2.083   2.497 -0.3826 -0.5108 -0.3658
  868SOL    HW1 2603   1.375   2.042   2.464 -0.7757  2.1258 -0.5149
  868SOL    HW2 2604   1.545   2.026   2.488  0.8553  0.6098 -1.7301
  869SOL     OW 2605   2.391   1.677   0.581  0.0135 -0.1602 -0.0916
  869SOL    HW1 2606   2.348   1.751   0.527 -0.8444 -2.5274  0.4532
  869SOL    HW2 2607   2.333   1.597   0.597 -1.4269 -1.4948  0.4928
  870SOL     OW 2608   2.681   1.628   0.266 -0.0225 -0.3783 -0.2296
  870SOL    HW1 2609   2.638   1.574   0.195 -0.4803  0.8737  3.3176
  870SOL    HW2 2610   2.769   1.674   0.239  3.0303  1.4016 -1.5729
  871SOL     OW 2611   2.971   0.723   1.486 -0.4723 -0.0901 -0.0327
  871SOL    HW1 2612   3.021   0.777   1.414 -2.1497  0.4856 -0.2666
  871SOL    HW2 2613   2.925   0.786   1.553 -0.9101 -0.2848  1.8626
  872SOL     OW 2614   0.694   1.830   2.709 -0.1121 -0.4284 -0.8576
  872SOL    HW1 2615   0.632   1.751   2.714  1.0441 -2.5327 -0.6623
  872SOL    HW2 2616   0.768   1.806   2.643  1.6166  1.3030 -0.7410
  873SOL     OW 2617   0.489   2.565   1.928  0.1372 -0.1179 -0.0676
  873SOL    HW1 2618   0.539   2.473   1.921 -0.0030 -1.9484 -1.7647
  873SOL    HW2 2619   0.509   2.619   1.847  0.7716 -1.6164 -1.4111
  874SOL     OW 2620   1.093   1.026   2.161 -0.1969 -0.2007 -0.2061
  874SOL    HW1 2621   1.142   1.102   2.209 -1.0161  1.7895  0.0620
  874SOL    HW2 2622   1.145   0.937   2.156 -1.7259 -0.3071  1.6713
  875SOL     OW 2623   2.740   2.763   1.300 -0.3768 -0.0060 -0.0532
  875SOL    HW1 2624   2.740   2.699   1.382 -1.1568 -1.3241  0.6795
  875SOL    HW2 2625   2.800   2.843   1.323 -1.1953 -1.1579 -2.4444
  876SOL     OW 2626   0.992   1.259   0.728 -0.1648  0.5898 -0.4612
  876SOL    HW1 2627   0.978   1.159   0.749 -1.5474  2.0475  1.2881
  876SOL    HW2 2628   0.899   1.297   0.711 -0.5808  1.5263  0.9486
  877SOL     OW 2629   0.971   0.518   1.283  0.6617 -0.1559  0.4594
  877SOL    HW1 2630   0.930   0.456   1.208 -1.8622  1.4413 -2.8874
  877SOL    HW2 2631   1.048   0.478   1.340 -1.0826 -0.0544 -3.1587
  878SOL     OW 2632   2.689   1.761   2.942 -0.9439 -0.5226  0.0611
  878SOL    HW1 2633   2.622   1.684   2.943 -0.4402  1.5042 -0.1832
  878SOL    HW2 2634   2.648   1.846   2.896  4.5840  2.9516  1.7563
  879SOL     OW 2635   2.221   1.907   1.750  0.2049  0.3628  0.0405
  879SOL    HW1 2636   2.226   1.998   1.794 -3.9544 -2.4247 -1.8895
  879SOL    HW2 2637   2.183   1.911   1.656  0.9756  1.9889  1.7275
  880SOL     OW 2638   0.980   2.342   1.232 -0.1894 -0.1010  0.3848
  880SOL    HW1 2639   1.029   2.366   1.323  2.9763  0.9503 -0.5617
  880SOL    HW2 2640   1.047   2.349   1.155 -0.3291  1.2913 -1.1301
  881SOL     OW 2641   1.163   1.892   0.906 -0.0045 -0.3909 -0.4353
  881SOL    HW1 2642   1.142   1.949   0.826 -0.5820 -0.2668  1.9767
  881SOL    HW2 2643   1.100   1.808   0.914 -0.2657 -2.1239  0.1088
  882SOL     OW 2644   1.945   1.820   2.749 -0.5051  0.6150  0.2108
  882SOL    HW1 2645   1.985   1.776   2.833  3.0264 -0.2880 -0.2791
  882SOL    HW2 2646   1.993   1.785   2.665 -0.3754 -0.6834 -0.6645
  883SOL     OW 2647   1.425   0.570   1.103  0.1695  0.0903 -0.3731
  883SOL    HW1 2648   1.469   0.630   1.034 -3.4188  2.0222 -2.0303
  883SOL    HW2 2649   1.438   0.471   1.078 -0.1621 -2.0679  2.3701
  884SOL     OW 2650   3.105   2.985   1.121 -0.1638 -0.6629  0.0139
  884SOL    HW1 2651   0.010   2.952   1.025 -0.8404  0.6063 -0.1418
  884SOL    HW2 2652   3.001   3.006   1.129 -0.9331  0.9421  0.6257
  885SOL     OW 2653   1.055   1.428   2.024 -0.7342 -0.1235  0.3108
  885SOL    HW1 2654   0.990   1.347   2.002 -0.6281 -0.7138 -0.5435
  885SOL    HW2 2655   1.150   1.402   1.989  0.4634 -0.0413  0.0975
  886SOL     OW 2656   1.102   1.223   2.962 -0.0243  0.3800 -0.1545
  886SOL    HW1 2657   1.016   1.168   2.967  0.6522  0.2772 -2.9598
  886SOL    HW2 2658   1.162   1.186   2.883  0.2705 -1.0198 -0.1758
  887SOL     OW 2659   1.643   0.182   0.826 -0.3802 -0.1915 -0.2433
  887SOL    HW1 2660   1.699   0.214   0.749  2.0852 -1.7861 -0.8039
  887SOL    HW2 2661   1.647   0.081   0.845 -0.0618  0.0343  0.2183
  888SOL     OW 2662   1.926   0.940   2.187  0.0377 -0.2195 -0.1954
  888SOL    HW1 2663   1.902   0.961   2.286 -1.1408  0.5909  0.0524
  888SOL    HW2 2664   1.892   1.010   2.124  0.2942 -1.9416 -0.5826
  889SOL     OW 2665   3.074   1.919   0.977 -0.2178  0.3191  0.1770
  889SOL    HW1 2666   3.096   1.996   0.915  1.4257 -1.8931  1.1257
  889SOL    HW2 2667   3.039   1.955   1.068 -1.1029  1.4205 -0.1731
  890SOL     OW 2668   1.258   2.472   0.474  0.2216  0.3575  0.3163
  890SOL    HW1 2669   1.162   2.431   0.454 -3.7456 -2.9329 -1.0504
  890SOL    HW2 2670   1.256   2.577   0.486  1.3132  0.4698 -3.6580
  891SOL     OW 2671   2.753   0.556   2.407 -0.0044  0.0413 -0.5457
  891SOL    HW1 2672   2.746   0.557   2.305 -1.6375 -1.6707  0.3214
  891SOL    HW2 2673   2.690   0.624   2.454  0.6943  0.0134 -0.3835
  892SOL     OW 2674   3.031   2.447   1.405 -0.3845  0.3634 -0.3151
  892SOL    HW1 2675   0.006   2.439   1.343  2.3781  0.9729  0.6029
  892SOL    HW2 2676   3.001   2.353   1.424 -0.3048  0.8310  3.1521
  893SOL     OW 2677   1.291   0.169   1.410 -0.0137  0.0145 -0.5876
  893SOL    HW1 2678   1.354   0.120   1.474  0.3503 -0.2258  0.2189
  893SOL    HW2 2679   1.306   0.271   1.405 -0.7925  1.6671 -1.6816
  894SOL     OW 2680   2.840   3.012   1.053  0.3153 -0.0872  0.9236
  894SOL    HW1 2681   2.816   2.974   0.959  2.6736  0.6708 -1.7346
  894SOL    HW2 2682   2.757   3.037   1.107 -0.2928 -0.0925  1.0918
  895SOL     OW 2683   1.667   2.129   2.097 -0.1100  0.4221 -0.0323
  895SOL    HW1 2684   1.767   2.140   2.117 -0.4854 -0.4183 -0.1536
  895SOL    HW2 2685   1.621   2.083   2.176  2.1784  0.8358  0.7447
  896SOL     OW 2686   1.830   0.648   1.204  0.6314  0.1645  0.0352
  896SOL    HW1 2687   1.912   0.665   1.258 -2.7359 -1.4625 -2.3831
  896SOL    HW2 2688   1.844   0.699   1.117 -0.2350 -0.1796 -0.9193
  897SOL     OW 2689   0.410   1.523   1.785  0.0401  0.0038  0.0592
  897SOL    HW1 2690   0.435   1.427   1.782  0.6219  1.2015 -0.2141
  897SOL    HW2 2691   0.491   1.578   1.815  0.9002  1.5047  1.9378
  898SOL     OW 2692   1.992   2.295   2.175  0.4091  0.2344 -0.3046
  898SOL    HW1 2693   1.954   2.221   2.234 -2.7158  1.7824 -0.1381
  898SOL    HW2 2694   1.989   2.386   2.227  0.9280  2.2783  1.4015
  899SOL     OW 2695   1.371   2.185   0.709 -0.0672 -0.4752  0.2263
  899SOL    HW1 2696   1.403   2.255   0.640 -0.3527 -0.2702 -2.3608
  899SOL    HW2 2697   1.337   2.234   0.791 -0.2397  1.4188 -2.1378
  900SOL     OW 2698   0.867   3.047   2.583 -0.4607  0.1960  0.5765
  900SOL    HW1 2699   0.773   3.038   2.617  2.6953 -0.0041 -0.0224
  900SOL    HW2 2700   0.872   3.067   2.482  0.0382  1.5418 -0.2390
  901SOL     OW 2701   1.074   1.532   2.295  0.1284  0.2541  0.4706
  901SOL    HW1 2702   1.035   1.476   2.215  0.0693 -1.5289 -1.4142
  901SOL    HW2 2703   1.061   1.483   2.381  1.0257  0.9513 -0.4102
  902SOL     OW 2704   1.987   0.839   3.050  0.5711  0.3339  0.7183
  902SOL    HW1 2705   1.927   0.898   2.997  1.3350 -1.1063  3.5637
  902SOL    HW2 2706   1.959   0.831   0.038 -1.2933  0.3370  0.4144
  903SOL     OW 2707   1.840   1.269   2.677  0.8064 -0.3132  0.0567
  903SOL    HW1 2708   1.909   1.321   2.731  3.6079  2.5337  1.4258
  903SOL    HW2 2709   1.804   1.336   2.606 -1.6393 -0.9447 -1.8591
  904SOL     OW 2710   1.574   1.343   1.798  1.0165  0.1954 -0.4858
  904SOL    HW1 2711   1.536   1.256   1.841 -1.5199 -4.3580  0.2916
  904SOL    HW2 2712   1.505   1.414   1.806 -2.7040  0.6236 -1.2331
  905SOL     OW 2713   2.601   0.469   0.938  0.2491 -0.0640  0.0792
  905SOL    HW1 2714   2.504   0.440   0.919 -2.8705 -0.6066 -2.1524
  905SOL    HW2 2715   2.661   0.390   0.951 -3.8190 -0.9538 -0.2674
  906SOL     OW 2716   0.222   1.328   0.761  0.6181  0.1651  0.4977
  906SOL    HW1 2717   0.123   1.330   0.747  1.1888 -3.7494  3.0671
  906SOL    HW2 2718   0.260   1.420   0.762 -1.5174 -3.3886 -1.7594
  907SOL     OW 2719   1.415   0.320   0.514  0.2653 -0.0778 -0.2660
  907SOL    HW1 2720   1.373   0.313   0.609 -1.2391  0.4244 -0.9711
  907SOL    HW2 2721   1.515   0.347   0.521  1.8456  1.4511  1.2495
  908SOL     OW 2722   1.260   2.784   1.941  0.4456 -0.8727 -0.1469
  908SOL    HW1 2723   1.177   2.769   1.993  4.2639  0.2194 -5.0302
  908SOL    HW2 2724   1.334   2.718   1.974  2.0626 -0.0751 -1.1141
  909SOL     OW 2725   2.456   0.819   1.835 -0.3199 -0.7788  0.4341
  909SOL    HW1 2726   2.377   0.782   1.880  2.8996 -0.9340 -0.9910
  909SOL    HW2 2727   2.452   0.925   1.821  0.6701  1.3879 -1.5157
  910SOL     OW 2728   1.223   0.086   2.396 -0.0698 -0.4286 -0.3424
  910SOL    HW1 2729   1.242   0.182   2.419  1.9454 -2.1022 -0.1126
  910SOL    HW2 2730   1.127   0.063   2.375  1.4713  2.2033  2.1933
  911SOL     OW 2731   2.407   1.342   2.502  0.7218 -0.3036  0.8062
  911SOL    HW1 2732   2.391   1.380   2.413 -0.9986 -2.0786  1.1391
  911SOL    HW2 2733   2.417   1.413   2.571 -2.1474 -2.4437 -2.0524
  912SOL     OW 2734   2.434   1.983   1.401 -0.5752 -0.4412 -0.0125
  912SOL    HW1 2735   2.499   1.936   1.465  0.8288 -2.3684  1.1370
  912SOL    HW2 2736   2.457   2.086   1.397  0.3970 -1.3046 -1.1371
  913SOL     OW 2737   2.500   2.100   1.856 -0.7224  0.1035 -0.6182
  913SOL    HW1 2738   2.552   2.185   1.826  0.5870  0.6106  1.1708
  913SOL    HW2 2739   2.401   2.113   1.851 -1.8737 -0.2322  1.8862
  914SOL     OW 2740   2.053   2.107   0.679  0.0793 -0.7602  0.1745
  914SOL    HW1 2741   2.070   2.095   0.780 -0.3909  0.7232  1.1085
  914SOL    HW2 2742   2.092   2.021   0.636 -1.0610  0.3014  1.4369
  915SOL     OW 2743   1.122   2.409   2.043  0.3931  0.1453  0.4817
  915SOL    HW1 2744   1.081   2.449   2.130 -2.9171  2.9849  3.5716
  915SOL    HW2 2745   1.219   2.378   2.052 -0.0348 -0.8610 -1.0338
  916SOL     OW 2746   0.084   2.104   0.803  0.2387  0.5662  0.0669
  916SOL    HW1 2747   0.179   2.081   0.828  1.6116  0.8663 -0.1216
  916SOL    HW2 2748   0.063   2.064   0.713  0.7359 -0.4303 -0.0448
  917SOL     OW 2749   2.799   0.981   2.829 -0.2433 -0.0126 -0.3288
  917SOL    HW1 2750   2.753   0.892   2.794 -1.8660 -2.0026 -1.5775
  917SOL    HW2 2751   2.877   1.013   2.776 -0.2498 -2.3434  2.3178
  918SOL     OW 2752   1.508   2.373   2.336 -0.3555 -0.2487 -0.1345
  918SOL    HW1 2753   1.483   2.342   2.244 -1.2076  0.5883  2.9114
  918SOL    HW2 2754   1.538   2.286   2.392 -0.7578 -4.7009  1.5707
  919SOL     OW 2755   1.813   2.220   0.657  0.4738 -0.0601 -0.3853
  919SOL    HW1 2756   1.757   2.144   0.691  2.1207 -0.3174 -2.5973
  919SOL    HW2 2757   1.908   2.182   0.656 -1.0761  1.9462 -2.4142
  920SOL     OW 2758   1.280   0.617   2.481  0.3521 -0.8476  0.1519
  920SOL    HW1 2759   1.310   0.698   2.425  1.5019  0.3337 -0.8325
  920SOL    HW2 2760   1.182   0.589   2.452 -0.9517  0.7330  1.7116
  921SOL     OW 2761   3.083   0.316   2.662 -0.0806 -0.4002  0.0387
  921SOL    HW1 2762   3.071   0.329   2.559 -0.9642 -1.2646 -3.8525
  921SOL    HW2 2763   0.007   0.224   2.692 -0.0185  0.5844  1.2980
  922SOL     OW 2764   2.519   1.558   1.798  0.1789 -0.2393  0.3988
  922SOL    HW1 2765   2.447   1.608   1.747  1.2458  2.1367  0.1942
  922SOL    HW2 2766   2.601   1.543   1.744  0.8785  0.5356  1.3367
  923SOL     OW 2767   0.405   1.717   2.495  0.2021  0.1521  0.3299
  923SOL    HW1 2768   0.434   1.786   2.424 -0.3705  0.3280  1.3798
  923SOL    HW2 2769   0.396   1.759   2.583  0.2742 -0.3192 -1.9915
  924SOL     OW 2770   1.564   0.505   2.164 -0.5622  0.3742  0.0764
  924SOL    HW1 2771   1.559   0.471   2.256  0.8770 -1.1762 -0.2913
  924SOL    HW2 2772   1.650   0.560   2.152  0.0775 -0.5099 -1.3168
  925SOL     OW 2773   0.056   0.885   0.276 -0.0118 -0.5296  0.2248
  925SOL    HW1 2774   0.036   0.793   0.229 -2.4715 -3.0377 -2.0471
  925SOL    HW2 2775   3.098   0.960   0.245  0.1899  0.8240  1.5692
  926SOL     OW 2776   2.584   0.081   0.937 -0.0138 -0.1184  0.2255
  926SOL    HW1 2777   2.652   0.154   0.965 -2.2841  0.2959 -0.0285
  926SOL    HW2 2778   2.503   0.075   0.996  1.9636  0.1542 -2.6248
  927SOL     OW 2779   1.243   0.883   0.843  0.0116  0.2402  0.4017
  927SOL    HW1 2780   1.239   0.947   0.759  0.7297 -0.5948 -1.9741
  927SOL    HW2 2781   1.166   0.815   0.838 -2.8931 -0.8879 -0.4229
  928SOL     OW 2782   3.068   0.291   1.964  0.2014 -0.1566 -1.0680
  928SOL    HW1 2783   2.970   0.287   1.980 -0.5504 -0.0155 -0.6578
  928SOL    HW2 2784   0.011   0.362   2.017 -0.1315  1.1448 -0.5450
  929SOL     OW 2785   2.541   0.839   1.462  0.8114 -0.2758  0.3821
  929SOL    HW1 2786   2.632   0.859   1.417  0.1191 -0.3153  0.7628
  929SOL    HW2 2787   2.563   0.760   1.529  3.4994 -2.3528  1.8253
  930SOL     OW 2788   2.001   2.643   1.017  0.1839 -0.5636 -0.2704
  930SOL    HW1 2789   1.956   2.637   0.931  1.6605  0.5562  2.7671
  930SOL    HW2 2790   2.006   2.735   1.060 -1.8691 -0.3193  0.1697
  931SOL     OW 2791   2.004   1.161   1.099  0.0617  0.0417  0.4577
  931SOL    HW1 2792   2.009   1.117   1.004  2.4025  1.4092  0.4009
  931SOL    HW2 2793   2.010   1.259   1.089  0.8837 -2.0858  0.0888
  932SOL     OW 2794   0.006   0.848   1.288 -0.1389 -0.6083  0.2275
  932SOL    HW1 2795   3.038   0.918   1.273 -0.7267  0.2065  0.4959
  932SOL    HW2 2796   0.047   0.805   1.206  0.4817 -0.0419  0.8862
  933SOL     OW 2797   2.196   1.651   2.232  0.0424  0.4000  0.0200
  933SOL    HW1 2798   2.121   1.671   2.296  0.0874 -0.2842 -0.4848
  933SOL    HW2 2799   2.171   1.691   2.138  0.3674 -1.0228 -0.2205
  934SOL     OW 2800   1.523   2.921   1.514 -0.5159  0.0484 -0.3361
  934SOL    HW1 2801   1.555   2.945   1.423  2.1299  0.2951  3.4451
  934SOL    HW2 2802   1.496   3.005   1.570 -0.3809  1.4339  0.5793
  935SOL     OW 2803   0.384   0.790   1.489  0.1037 -0.0121 -0.0099
  935SOL    HW1 2804   0.379   0.892   1.477 -0.0006  0.7915 -2.7595
  935SOL    HW2 2805   0.460   0.771   1.553  0.9280  1.7381  0.0749
  936SOL     OW 2806   2.459   0.764   1.099  0.1212 -0.7168  0.0035
  936SOL    HW1 2807   2.503   0.726   1.179  0.8508  0.0260 -1.3385
  936SOL    HW2 2808   2.503   0.848   1.063  0.1008 -0.5308  0.0579
  937SOL     OW 2809   1.032   0.045   1.421  0.4708  0.2421 -0.1858
  937SOL    HW1 2810   0.968   0.111   1.381 -1.0800 -1.5367  2.1151
  937SOL    HW2 2811   1.117   0.097   1.437 -1.1802 -0.5813  1.5124
  938SOL     OW 2812   3.033   2.333   0.851 -0.1604 -0.0867  0.5128
  938SOL    HW1 2813   3.043   2.392   0.932 -1.5902  0.6553  0.9556
  938SOL    HW2 2814   3.094   2.246   0.851  2.8951 -3.1360 -0.4882
  939SOL     OW 2815   3.036   1.890   2.597 -0.0169  0.4489 -0.0694
  939SOL    HW1 2816   3.072   1.888   2.502 -2.6726  2.0740  0.2103
  939SOL    HW2 2817   0.002   1.883   2.669  0.9444  2.1440  0.2840
  940SOL     OW 2818   2.141   2.518   2.931  0.4170 -0.3027 -0.2272
  940SOL    HW1 2819   2.070   2.540   2.867  2.1350  0.3321  1.1600
  940SOL    HW2 2820   2.219   2.478   2.875 -1.2663  0.0269  2.0769
  941SOL     OW 2821   1.718   2.689   0.298 -0.1206  0.9482  0.1205
  941SOL    HW1 2822   1.799   2.623   0.288 -0.7016  1.1865 -1.6595
  941SOL    HW2 2823   1.755   2.781   0.295 -1.0274  0.0506 -2.1473
  942SOL     OW 2824   1.571   1.965   1.096  0.2251  0.9034  0.5620
  942SOL    HW1 2825   1.621   1.988   1.009 -0.0180 -0.5727 -2.2934
  942SOL    HW2 2826   1.538   2.048   1.144 -0.8609 -1.5219  2.0218
  943SOL     OW 2827   1.860   1.025   1.914  0.0431  0.2586  0.2771
  943SOL    HW1 2828   1.779   0.987   1.868 -2.2626 -1.0625 -0.4552
  943SOL    HW2 2829   1.944   0.972   1.901 -3.6775  0.6685  0.4199
  944SOL     OW 2830   1.807   0.698   1.715  0.5389  0.5409 -0.8197
  944SOL    HW1 2831   1.762   0.616   1.675  0.2311  2.0130 -1.7841
  944SOL    HW2 2832   1.889   0.667   1.759 -0.3226 -0.5412 -1.6841
  945SOL     OW 2833   2.722   2.357   1.306  0.2497  0.0268  0.2105
  945SOL    HW1 2834   2.755   2.388   1.214  1.2610 -1.5201 -0.0120
  945SOL    HW2 2835   2.734   2.431   1.372  1.5512 -2.1924  1.8345
  946SOL     OW 2836   0.566   1.196   1.645  0.0922  0.3751 -0.0697
  946SOL    HW1 2837   0.538   1.171   1.550 -0.2278  0.7107 -1.4470
  946SOL    HW2 2838   0.487   1.220   1.707  0.1933 -1.1219  0.5898
  947SOL     OW 2839   0.567   2.325   0.761 -0.0637  0.4255  0.6240
  947SOL    HW1 2840   0.515   2.353   0.843  3.3827 -1.7813 -0.0306
  947SOL    HW2 2841   0.503   2.264   0.707 -0.9747 -4.8832  0.9388
  948SOL     OW 2842   0.056   1.506   1.887 -0.1426 -0.0804 -0.3223
  948SOL    HW1 2843   0.101   1.461   1.965 -1.3466 -3.0234 -0.9423
  948SOL    HW2 2844   0.057   1.606   1.911  0.3324  1.3437  1.7228
  949SOL     OW 2845   0.716   0.702   2.331  0.2858 -0.2041 -0.1996
  949SOL    HW1 2846   0.786   0.747   2.389 -3.4204 -1.0398 -1.1334
  949SOL    HW2 2847   0.669   0.757   2.257  0.2384 -2.8774  0.0328
  950SOL     OW 2848   0.213   0.491   1.212  0.2254  0.7056 -0.1105
  950SOL    HW1 2849   0.148   0.555   1.175  0.8568 -2.9284  3.3579
  950SOL    HW2 2850   0.166   0.407   1.245  2.8160  1.5845 -2.0601
  951SOL     OW 2851   1.099   1.812   2.254  0.7375 -0.1449 -0.0980
  951SOL    HW1 2852   1.079   1.713   2.251  5.1523 -0.0418 -1.1274
  951SOL    HW2 2853   1.130   1.845   2.167 -0.8198 -2.8183  2.9847
  952SOL     OW 2854   1.201   1.693   3.042  0.0465 -0.2336  0.3430
  952SOL    HW1 2855   1.227   1.745   2.961 -1.5710 -3.0206  0.8325
  952SOL    HW2 2856   1.269   1.621   3.064 -0.0530  0.8627 -1.5050
  953SOL     OW 2857   1.139   3.038   2.669 -0.3488  0.3499  0.0433
  953SOL    HW1 2858   1.054   3.050   2.613  2.1372 -1.2554  0.2350
  953SOL    HW2 2859   1.211   0.004   2.646  1.4957  2.2068  0.0320
  954SOL     OW 2860   2.152   1.598   0.340 -0.0639  0.0401  0.2755
  954SOL    HW1 2861   2.072   1.634   0.392  0.2264 -1.4612  0.5282
  954SOL    HW2 2862   2.144   1.496   0.332  1.2985  1.8467 -0.2648
  955SOL     OW 2863   0.214   2.602   2.862  0.2610 -0.3207 -0.0389
  955SOL    HW1 2864   0.182   2.589   2.764 -2.0640 -1.5496 -0.6097
  955SOL    HW2 2865   0.237   2.509   2.895 -2.7659  1.8742 -2.2129
  956SOL     OW 2866   1.179   0.908   1.714 -0.4817  0.1973  0.0966
  956SOL    HW1 2867   1.150   0.813   1.696 -1.8632  0.4953  1.2646
  956SOL    HW2 2868   1.212   0.948   1.625 -1.1558  2.9384 -1.3453
  957SOL     OW 2869   2.017   1.773   2.440  0.2403  0.1683  0.2937
  957SOL    HW1 2870   2.004   1.668   2.449  1.2959 -1.7263 -0.4707
  957SOL    HW2 2871   1.931   1.808   2.398  0.8982 -3.1919 -0.7562
  958SOL     OW 2872   1.475   2.421   1.303  0.2146 -0.1112  0.2745
  958SOL    HW1 2873   1.382   2.462   1.318  1.2581 -0.8975 -1.1319
  958SOL    HW2 2874   1.523   2.458   1.222  0.0260 -1.6215 -0.0342
  959SOL     OW 2875   1.166   1.521   1.352  0.0607 -0.8410 -0.1626
  959SOL    HW1 2876   1.173   1.478   1.260 -2.8537 -1.7336 -3.2573
  959SOL    HW2 2877   1.228   1.603   1.358 -1.4302  0.1376 -2.5272
  960SOL     OW 2878   3.042   1.208   2.866  0.5854 -0.7897 -0.5181
  960SOL    HW1 2879   3.077   1.112   2.873  0.8313  2.0624  1.3151
  960SOL    HW2 2880   3.049   1.240   2.768 -1.8669 -0.3390  0.7029
  961SOL     OW 2881   0.582   0.846   2.145 -0.8083  0.2270  0.1916
  961SOL    HW1 2882   0.580   0.929   2.202 -1.2629  0.8187  0.4365
  961SOL    HW2 2883   0.598   0.862   2.046  0.9394 -1.4100 -0.0541
  962SOL     OW 2884   1.356   1.777   0.408  0.6185 -0.4161  0.6098
  962SOL    HW1 2885   1.285   1.707   0.389 -2.9871 -0.9304  0.3299
  962SOL    HW2 2886   1.386   1.774   0.508 -0.1208 -3.2674 -2.5882
  963SOL     OW 2887   1.245   2.383   2.626 -0.0882  0.2416 -0.9846
  963SOL    HW1 2888   1.219   2.342   2.536 -1.2160  0.4611 -0.2098
  963SOL    HW2 2889   1.331   2.339   2.658 -2.0427  1.6129 -0.2275
  964SOL     OW 2890   0.913   2.991   0.528 -0.3740  0.3532  0.6028
  964SOL    HW1 2891   0.924   2.949   0.435  0.2947 -1.7476  0.8466
  964SOL    HW2 2892   0.925   3.091   0.534 -0.9327 -0.5444 -1.4886
  965SOL     OW 2893   0.662   3.050   1.108 -0.8691  0.7782 -0.4960
  965SOL    HW1 2894   0.763   3.068   1.136  1.3963  4.2028  0.1857
  965SOL    HW2 2895   0.611   3.007   1.188 -1.3471  0.4259 -1.2172
  966SOL     OW 2896   0.273   1.237   3.082 -0.3763 -0.0445  0.1557
  966SOL    HW1 2897   0.185   1.245   0.026  0.5657  0.9314 -2.0620
  966SOL    HW2 2898   0.272   1.152   3.017 -0.2100 -0.5134 -1.7118
  967SOL     OW 2899   1.121   2.753   2.354  0.4308 -0.6857 -0.0462
  967SOL    HW1 2900   1.183   2.801   2.421 -0.4943  2.8365  0.7699
  967SOL    HW2 2901   1.161   2.661   2.326  1.0185  1.0127 -1.7456
  968SOL     OW 2902   2.105   0.669   0.269 -0.6834 -0.0109  0.3809
  968SOL    HW1 2903   2.059   0.620   0.351  2.7766  0.9672  2.8203
  968SOL    HW2 2904   2.046   0.739   0.230  3.2889 -1.8860 -0.7503
  969SOL     OW 2905   0.161   1.752   2.191  0.1054  0.7395 -0.0892
  969SOL    HW1 2906   0.141   1.779   2.097 -1.4616 -0.8024 -1.8158
  969SOL    HW2 2907   0.249   1.701   2.189 -1.6398  1.6595 -1.6251
  970SOL     OW 2908   2.219   1.499   1.286 -0.0391  0.4188 -0.1545
  970SOL    HW1 2909   2.224   1.400   1.270  1.5942  3.5691  1.1293
  970SOL    HW2 2910   2.255   1.544   1.203 -0.0771 -1.9928  0.2868
  971SOL     OW 2911   1.918   0.300   1.059 -0.0492 -0.2863 -0.3592
  971SOL    HW1 2912   1.999   0.355   1.097 -1.4365  1.0296 -1.6737
  971SOL    HW2 2913   1.908   0.315   0.958  0.5228  2.0833 -0.6161
  972SOL     OW 2914   0.357   2.949   1.653  0.4443  0.0082 -0.2135
  972SOL    HW1 2915   0.346   3.048   1.629  0.6739  1.1972 -1.9831
  972SOL    HW2 2916   0.274   2.908   1.614 -0.7491  2.8599 -1.7121
  973SOL     OW 2917   2.577   0.974   0.355  0.3905 -0.6088  0.4329
  973SOL    HW1 2918   2.590   0.951   0.256 -0.6110  1.2257  3.7954
  973SOL    HW2 2919   2.545   1.073   0.370  1.6278  2.7751 -0.1502
  974SOL     OW 2920   1.775   1.777   2.310  0.0414 -0.9068  0.4601
  974SOL    HW1 2921   1.742   1.790   2.215 -0.0778 -1.6316 -1.3762
  974SOL    HW2 2922   1.716   1.708   2.352 -0.8596  0.4746 -1.2026
  975SOL     OW 2923   0.292   2.736   1.473  0.6080 -0.2080  0.0829
  975SOL    HW1 2924   0.355   2.662   1.444 -1.9548  1.7513 -0.6634
  975SOL    HW2 2925   0.273   2.801   1.395 -1.5103 -1.1233 -2.8127
  976SOL     OW 2926   0.151   1.830   1.732 -0.0210  0.4559  0.3208
  976SOL    HW1 2927   0.172   1.923   1.700  0.8619 -0.6625  1.6719
  976SOL    HW2 2928   0.200   1.811   1.818  0.6748  3.5062 -1.1214
  977SOL     OW 2929   0.808   2.659   0.072 -0.1198 -0.1566  0.0230
  977SOL    HW1 2930   0.896   2.667   0.115 -0.4506 -1.7722 -0.5401
  977SOL    HW2 2931   0.802   2.685   3.077 -0.0656 -2.1457 -1.3503
  978SOL     OW 2932   0.218   1.756   2.949 -0.4021 -0.2935 -0.0751
  978SOL    HW1 2933   0.290   1.825   2.975  0.2457  2.2248  2.2153
  978SOL    HW2 2934   0.223   1.673   3.006  2.1835  0.4639  2.1773
  979SOL     OW 2935   1.645   2.476   1.066 -0.2738  0.1867  0.2527
  979SOL    HW1 2936   1.686   2.384   1.092  0.4275 -2.6128  3.4398
  979SOL    HW2 2937   1.637   2.489   0.966 -0.6906 -1.1096 -0.2315
  980SOL     OW 2938   0.993   1.842   0.022  0.3102 -0.3192 -0.0302
  980SOL    HW1 2939   1.078   1.788   3.106  0.1217  0.3679  1.9787
  980SOL    HW2 2940   0.951   1.865   3.035  2.6966  0.4062  0.3800
  981SOL     OW 2941   2.710   3.004   2.258  0.1167 -0.1563 -0.0489
  981SOL    HW1 2942   2.718   3.102   2.220 -0.8180  1.4849  1.0775
  981SOL    HW2 2943   2.687   3.012   2.356 -0.5904 -1.3000  1.1182
  982SOL     OW 2944   0.134   2.805   2.524 -0.6908  0.1559  0.3371
  982SOL    HW1 2945   0.224   2.845   2.525 -1.0516 -0.3222 -2.6388
  982SOL    HW2 2946   0.105   2.808   2.427  0.0031  0.7617  0.3552
  983SOL     OW 2947   2.451   1.103   1.811  0.4009  0.2619 -0.6412
  983SOL    HW1 2948   2.454   1.184   1.878 -0.5552  4.2044 -0.2533
  983SOL    HW2 2949   2.370   1.117   1.747 -1.9519  0.8318  0.7009
  984SOL     OW 2950   1.375   0.565   1.955  0.1679 -0.3537  0.3915
  984SOL    HW1 2951   1.341   0.471   1.953  0.3313  1.5702  0.5805
  984SOL    HW2 2952   1.442   0.563   2.032 -1.0443  0.0621 -1.5800
  985SOL     OW 2953   1.448   1.837   2.087  0.4798  0.1900  0.8123
  985SOL    HW1 2954   1.401   1.748   2.074 -1.5289 -1.9741 -0.4525
  985SOL    HW2 2955   1.548   1.841   2.070 -2.2424 -0.1536  1.2232
  986SOL     OW 2956   1.710   0.297   2.075 -0.1380 -0.0548 -0.3882
  986SOL    HW1 2957   1.786   0.336   2.017  0.1388 -0.2042  0.1511
  986SOL    HW2 2958   1.644   0.370   2.108 -2.5826 -0.3412  0.5806
  987SOL     OW 2959   2.070   0.878   1.836  0.0827  0.2558  0.3408
  987SOL    HW1 2960   2.108   0.790   1.874  0.7600 -0.0316 -1.7850
  987SOL    HW2 2961   2.148   0.917   1.780  0.3751  0.8754  1.7105
  988SOL     OW 2962   2.571   0.752   2.494 -0.4756 -0.2377 -0.6828
  988SOL    HW1 2963   2.489   0.696   2.465 -0.3834 -2.3342 -1.6649
  988SOL    HW2 2964   2.550   0.854   2.489 -3.3321 -0.3150 -0.5105
  989SOL     OW 2965   2.404   2.520   2.703  0.2278  0.1316 -0.2128
  989SOL    HW1 2966   2.382   2.471   2.615  2.2738  0.9652  0.1077
  989SOL    HW2 2967   2.484   2.475   2.748  0.0171 -0.2254 -2.3642
  990SOL     OW 2968   0.833   0.485   2.701  0.1907  0.1333  0.1752
  990SOL    HW1 2969   0.752   0.427   2.717  1.2314 -1.4665  1.0403
  990SOL    HW2 2970   0.818   0.578   2.742  0.0183  0.0092 -0.2274
  991SOL     OW 2971   1.271   0.657   0.033  0.0482  0.2475 -1.2469
  991SOL    HW1 2972   1.192   0.654   3.074  2.4522  2.3692  2.6244
  991SOL    HW2 2973   1.325   0.743   0.024 -1.7754 -1.1648  1.0232
  992SOL     OW 2974   2.522   2.195   2.738 -0.4864 -0.0522  0.3482
  992SOL    HW1 2975   2.477   2.218   2.645 -0.9827  0.4367 -3.5965
  992SOL    HW2 2976   2.568   2.273   2.775 -1.7358 -0.1697  1.7931
  993SOL     OW 2977   0.428   0.282   0.492 -0.7740  0.5375 -1.2708
  993SOL    HW1 2978   0.451   0.295   0.396  0.4226  2.1503 -0.5311
  993SOL    HW2 2979   0.335   0.232   0.493 -1.5844  0.8448 -0.1704
  994SOL     OW 2980   0.262   2.257   1.662 -0.0755  0.9387 -0.6738
  994SOL    HW1 2981   0.288   2.245   1.761 -0.9626  1.5521  2.7460
  994SOL    HW2 2982   0.334   2.309   1.612  0.9213 -0.8125 -0.7184
  995SOL     OW 2983   2.103   1.703   2.930  0.1447  0.2041  0.4307
  995SOL    HW1 2984   2.132   1.739   3.021 -0.8731 -1.3679 -2.2339
  995SOL    HW2 2985   2.058   1.616   2.947 -0.3506 -0.4525 -0.1071
  996SOL     OW 2986   1.250   1.844   2.794  0.6798  0.1357  0.0820
  996SOL    HW1 2987   1.282   1.774   2.729 -1.2732 -0.5196 -0.5044
  996SOL    HW2 2988   1.327   1.905   2.816  0.8985 -2.3201  1.6353
  997SOL     OW 2989   1.721   1.198   1.076 -0.2402 -0.2340  0.3858
  997SOL    HW1 2990   1.712   1.247   0.988  0.3819 -0.5906  1.1561
  997SOL    HW2 2991   1.811   1.156   1.085 -0.9478 -0.3993  0.5042
  998SOL     OW 2992   2.570   1.474   0.080  0.6135 -0.4802 -0.8406
  998SOL    HW1 2993   2.565   1.371   0.088  0.1902  2.3692  1.9905
  998SOL    HW2 2994   2.579   1.496   3.088  0.1957  1.4733 -1.7609
  999SOL     OW 2995   2.939   2.247   0.357 -0.0512 -0.0538 -0.4223
  999SOL    HW1 2996   2.948   2.239   0.462  2.3238 -1.9850  0.9963
  999SOL    HW2 2997   2.896   2.329   0.318 -1.1182 -0.0490 -0.3097
 1000SOL     OW 2998   0.788   0.016   2.084 -0.5525 -0.0306  0.5319
 1000SOL    HW1 2999   0.753   0.109   2.056  2.5535 -3.4788 -1.3229
 1000SOL    HW2 3000   0.825   3.080   1.999  0.9598 -1.5945 -1.8453
   3.10595   3.10595   3.10595
