1000 SPC/Fw water molecules t= 200.00000 step= 200000
 3000
    1SOL     OW    1   2.897   3.036   0.998 -0.1196  0.4399 -0.2316
    1SOL    HW1    2   2.798   3.051   0.981 -0.0081  0.1944  0.5649
    1SOL    HW2    3   2.951   3.020   0.909  0.6704 -1.6688 -1.4511
    2SOL     OW    4   1.970   1.618   1.933  0.3195 -0.7539 -0.0704
    2SOL    HW1    5   2.019   1.617   2.021 -1.1389  1.4373 -1.4785
    2SOL    HW2    6   1.866   1.619   1.943  0.7226  1.3419 -2.2343
    3SOL     OW    7   2.151   2.417   2.216  0.3002  0.0871 -0.2067
    3SOL    HW1    8   2.109   2.484   2.154  0.5029 -1.2917  2.8967
    3SOL    HW2    9   2.073   2.365   2.256  1.8073  0.6974  3.6288
    4SOL     OW   10   1.908   1.974   2.346  0.5383 -0.3980  0.0558
    4SOL    HW1   11   1.969   1.971   2.267 -2.2130 -1.0390 -0.4679
    4SOL    HW2   12   1.898   1.882   2.387 -1.5309  0.3558 -0.7941
    5SOL     OW   13   1.403   0.558   1.637  0.4146 -0.3135 -0.1408
    5SOL    HW1   14   1.306   0.590   1.639  0.2522  0.6663  0.0964
    5SOL    HW2   15   1.415   0.474   1.580  0.2166  0.8462 -1.2439
    6SOL     OW   16   2.655   0.727   2.874  0.4587  0.2215  0.3781
    6SOL    HW1   17   2.695   0.734   2.967  1.6106  2.9910  3.7480
    6SOL    HW2   18   2.555   0.701   2.876  2.1206 -2.1462 -0.8332
    7SOL     OW   19   0.890   1.091   1.364 -0.2237  0.2921 -0.2893
    7SOL    HW1   20   0.989   1.063   1.364  1.4770  1.7310  1.7336
    7SOL    HW2   21   0.876   1.150   1.283  3.5436 -1.3203  1.1608
    8SOL     OW   22   1.274   0.745   0.932  0.2356 -0.2042  0.0912
    8SOL    HW1   23   1.202   0.787   0.984  1.8053 -2.1114  1.0813
    8SOL    HW2   24   1.333   0.815   0.890 -3.9634  2.8322  1.1388
    9SOL     OW   25   1.019   0.863   2.659 -0.7881  0.1901 -0.1196
    9SOL    HW1   26   1.122   0.861   2.685 -1.3482  0.7231  0.7331
    9SOL    HW2   27   0.994   0.771   2.633 -1.2309  1.1847  0.1362
   10SOL     OW   28   0.169   2.571   0.327 -0.2481 -0.4468  0.2210
   10SOL    HW1   29   0.235   2.502   0.291 -0.7635  2.5212  1.4418
   10SOL    HW2   30   0.161   2.651   0.264  0.3901  0.8720  2.2985
   11SOL     OW   31   0.522   1.430   3.009 -0.4144 -0.5451 -0.4117
   11SOL    HW1   32   0.571   1.400   2.921  2.6972  1.4241 -0.4171
   11SOL    HW2   33   0.420   1.430   2.991  0.2537 -0.6682  2.5787
   12SOL     OW   34   0.414   0.230   1.401 -0.1672 -0.7608 -0.2093
   12SOL    HW1   35   0.445   0.130   1.415  2.3492  0.6582 -2.1889
   12SOL    HW2   36   0.437   0.298   1.477 -1.3066  1.0004 -0.6272
   13SOL     OW   37   0.950   0.168   0.215  0.2506  0.0233  0.4161
   13SOL    HW1   38   1.016   0.215   0.276 -0.7838  0.7201 -0.5699
   13SOL    HW2   39   0.993   0.129   0.130 -1.0138  1.1325  0.4664
   14SOL     OW   40   1.224   2.279   1.229 -0.6886 -0.0059 -0.4867
   14SOL    HW1   41   1.173   2.284   1.140 -1.9013  1.9354  0.3468
   14SOL    HW2   42   1.159   2.298   1.305 -1.2871 -0.8940 -1.0001
   15SOL     OW   43   2.492   0.668   1.988  0.0012 -0.5097  0.5133
   15SOL    HW1   44   2.583   0.687   2.031 -0.7923  1.3176 -1.6652
   15SOL    HW2   45   2.500   0.603   1.909  0.7856  0.0735  0.8453
   16SOL     OW   46   1.189   2.803   2.997  0.7745 -0.4872 -0.0612
   16SOL    HW1   47   1.205   2.879   3.065 -0.2576  0.5058  1.2843
   16SOL    HW2   48   1.119   2.732   3.026 -0.5437 -1.9081 -1.5007
   17SOL     OW   49   0.908   0.124   1.382 -0.2044 -0.5187  0.1343
   17SOL    HW1   50   0.874   0.135   1.476 -0.1290 -0.1535 -1.1167
   17SOL    HW2   51   0.909   0.217   1.337  0.7233  1.1005  1.5132
   18SOL     OW   52   1.088   0.835   0.238  0.5804  0.0990  0.1434
   18SOL    HW1   53   1.015   0.900   0.271  4.1027  1.2609 -2.3775
   18SOL    HW2   54   1.166   0.886   0.189  0.9757  1.0165 -3.0238
   19SOL     OW   55   2.009   1.470   0.125  0.0201 -0.1585  0.1452
   19SOL    HW1   56   2.005   1.541   0.048 -0.5449 -0.2580  0.6232
   19SOL    HW2   57   2.008   1.373   0.090  1.6462  6.0745  1.3163
   20SOL     OW   58   1.860   1.722   1.602 -0.6371  0.0202 -0.5171
   20SOL    HW1   59   1.901   1.758   1.683 -2.2191 -1.5168  0.0506
   20SOL    HW2   60   1.854   1.622   1.603  0.9688 -0.0427 -0.8807
   21SOL     OW   61   0.652   1.305   0.124 -0.2345  0.5580  0.2958
   21SOL    HW1   62   0.713   1.386   0.133  0.5114 -2.1164 -1.2172
   21SOL    HW2   63   0.589   1.325   0.046  1.6861 -2.6875  0.0425
   22SOL     OW   64   2.388   0.071   1.340  0.1685  0.0786  0.8999
   22SOL    HW1   65   2.424   0.111   1.424 -0.0720 -2.1040  1.7065
   22SOL    HW2   66   2.298   0.032   1.358  1.8579 -0.0558 -0.5310
   23SOL     OW   67   0.044   0.903   1.564 -0.1988  0.4061 -0.1810
   23SOL    HW1   68   0.098   0.820   1.585 -3.1051  1.2457  0.3181
   23SOL    HW2   69   0.097   0.946   1.488  1.7859 -0.2794 -0.5639
   24SOL     OW   70   2.365   2.501   1.225  0.2898 -0.5877 -0.3006
   24SOL    HW1   71   2.341   2.479   1.129  2.8695 -0.1253 -1.1898
   24SOL    HW2   72   2.406   2.591   1.229 -1.8888 -0.8090 -1.0773
   25SOL     OW   73   2.066   2.543   2.594  0.4300 -0.0413  0.4975
   25SOL    HW1   74   2.159   2.525   2.558  0.9954 -0.5481 -0.7820
   25SOL    HW2   75   1.997   2.557   2.519  1.5075  1.1373 -0.0694
   26SOL     OW   76   1.020   2.607   0.020  0.7549  0.3678 -0.1393
   26SOL    HW1   77   1.044   2.513   3.064  1.0019  0.0755 -0.5057
   26SOL    HW2   78   1.014   2.604   0.122 -0.9527 -0.5978  0.3684
   27SOL     OW   79   0.358   1.846   2.548 -0.0249 -0.2326  0.0395
   27SOL    HW1   80   0.355   1.743   2.550 -0.1173 -0.8954  0.9456
   27SOL    HW2   81   0.310   1.882   2.630 -1.9326  1.3565  0.9062
   28SOL     OW   82   0.054   1.474   1.766  0.7127  0.1167  0.0205
   28SOL    HW1   83   3.060   1.486   1.691  2.3539  1.4377 -2.9271
   28SOL    HW2   84   0.081   1.560   1.813 -3.1213 -0.3248  1.7660
   29SOL     OW   85   2.699   2.075   1.955 -0.7115 -0.0243 -0.6643
   29SOL    HW1   86   2.656   2.025   2.030  2.0759 -0.6800  2.2399
   29SOL    HW2   87   2.802   2.096   1.969  1.3610 -0.9656 -1.5615
   30SOL     OW   88   1.189   2.915   0.590 -0.3569 -0.2203 -0.4148
   30SOL    HW1   89   1.227   2.857   0.663 -0.3841  3.0516 -2.0453
   30SOL    HW2   90   1.106   2.958   0.636 -4.3177 -0.1684 -0.8018
   31SOL     OW   91   2.945   2.456   1.859  0.2505  0.0138  0.0190
   31SOL    HW1   92   3.026   2.510   1.826 -0.8895  0.9918 -0.6865
   31SOL    HW2   93   2.865   2.464   1.796 -2.3494 -3.2725  3.0673
   32SOL     OW   94   1.050   1.050   1.759 -0.2410  0.7768  0.2199
   32SOL    HW1   95   1.140   1.079   1.715  4.3298 -1.0272 -0.3701
   32SOL    HW2   96   1.004   0.973   1.703 -1.4837 -0.6286 -0.0670
   33SOL     OW   97   0.317   2.696   2.423  0.2510  0.7370  0.4004
   33SOL    HW1   98   0.290   2.627   2.493  0.7451 -0.4537  0.6966
   33SOL    HW2   99   0.388   2.661   2.352  3.7493 -0.8217  0.5277
   34SOL     OW  100   1.944   0.198   0.921  0.3061  0.5839 -0.7803
   34SOL    HW1  101   2.013   0.272   0.911  0.3425 -1.0041  0.5736
   34SOL    HW2  102   1.970   0.101   0.909 -2.8691  1.7520 -2.7903
   35SOL     OW  103   2.420   0.285   0.934  0.4104  0.5742  0.4357
   35SOL    HW1  104   2.400   0.189   0.920  0.8051  2.6900 -3.3056
   35SOL    HW2  105   2.430   0.340   0.851  0.2641 -0.7502  0.8206
   36SOL     OW  106   2.114   2.736   2.343 -0.1259 -0.4347  0.1602
   36SOL    HW1  107   2.215   2.750   2.328 -0.1268  1.6525 -0.6005
   36SOL    HW2  108   2.070   2.657   2.300  0.2591 -0.9879 -0.6048
   37SOL     OW  109   1.077   2.520   2.371 -0.3320  0.3060  0.3678
   37SOL    HW1  110   1.065   2.566   2.460  1.0161 -3.1964 -2.9232
   37SOL    HW2  111   1.162   2.464   2.377  1.3446  1.3698 -1.6058
   38SOL     OW  112   2.640   0.345   2.892  0.0755 -0.2052  0.2794
   38SOL    HW1  113   2.627   0.284   2.971  0.2297  1.1587 -1.6751
   38SOL    HW2  114   2.703   0.423   2.910  3.0592 -1.3220 -0.2373
   39SOL     OW  115   2.204   1.687   1.675  0.1030  0.3855 -0.0655
   39SOL    HW1  116   2.208   1.789   1.677 -0.2521 -2.2302 -0.6959
   39SOL    HW2  117   2.184   1.658   1.582 -2.9622 -2.3606 -0.2281
   40SOL     OW  118   0.161   3.066   2.765  0.2364 -0.0943 -0.3133
   40SOL    HW1  119   0.095   0.051   2.716 -2.0377  3.9207  0.5860
   40SOL    HW2  120   0.199   2.995   2.704 -0.7972 -1.1067 -0.1366
   41SOL     OW  121   1.865   0.546   1.028 -0.0798 -0.1959  0.2542
   41SOL    HW1  122   1.904   0.595   0.945 -2.0532  3.6674  0.3627
   41SOL    HW2  123   1.906   0.452   1.022 -0.2696 -1.4700  2.4606
   42SOL     OW  124   0.592   0.350   1.230  0.3282 -0.0912 -0.9460
   42SOL    HW1  125   0.535   0.306   1.302 -2.4267  0.3008 -1.0712
   42SOL    HW2  126   0.697   0.365   1.261  3.4869  1.6463  1.1817
   43SOL     OW  127   2.408   1.156   2.207  0.2502  0.2470 -0.1163
   43SOL    HW1  128   2.319   1.181   2.164  3.2467  0.5195  2.9880
   43SOL    HW2  129   2.467   1.099   2.144 -2.5418  1.6055 -1.4171
   44SOL     OW  130   2.944   2.929   0.324 -0.0567  0.4549 -0.3515
   44SOL    HW1  131   2.939   3.021   0.290  0.2470 -3.0112  0.9645
   44SOL    HW2  132   3.017   2.912   0.398  1.5607 -0.1034  0.1144
   45SOL     OW  133   0.010   2.689   1.749  0.1254 -0.3339 -0.0377
   45SOL    HW1  134   2.991   2.716   1.773 -0.0689  0.2406  2.4625
   45SOL    HW2  135   0.017   2.692   1.649 -3.4288  1.2881  1.3291
   46SOL     OW  136   2.347   2.289   2.070  0.5732  0.6668  0.1599
   46SOL    HW1  137   2.283   2.323   2.139  2.3003 -0.9537  0.6964
   46SOL    HW2  138   2.390   2.360   2.009  2.0443  1.6317 -2.0241
   47SOL     OW  139   1.568   2.204   1.522 -0.4399 -0.4645  0.0969
   47SOL    HW1  140   1.531   2.126   1.567  0.3277  2.3182 -1.1056
   47SOL    HW2  141   1.664   2.182   1.484  1.3305 -0.1994 -2.9999
   48SOL     OW  142   0.542   1.603   0.372  0.4941  0.3110  0.0470
   48SOL    HW1  143   0.595   1.622   0.285  1.5851 -0.1573 -1.2491
   48SOL    HW2  144   0.616   1.589   0.448  3.2884  0.8346  3.4563
   49SOL     OW  145   2.654   0.339   2.618  0.1132  0.4711  0.9423
   49SOL    HW1  146   2.656   0.321   2.717 -0.9443 -1.6268 -0.6618
   49SOL    HW2  147   2.589   0.411   2.593 -0.7551  1.1501 -1.5785
   50SOL     OW  148   2.209   0.797   0.464 -0.7653 -0.0716 -0.0028
   50SOL    HW1  149   2.299   0.762   0.511  1.4633 -0.0520  1.8081
   50SOL    HW2  150   2.231   0.803   0.362  2.0085 -1.0020 -2.6152
   51SOL     OW  151   1.737   0.611   1.257  0.4013 -0.4607  0.3045
   51SOL    HW1  152   1.715   0.539   1.328  0.6699 -0.0071 -0.8433
   51SOL    HW2  153   1.798   0.588   1.178 -1.8249  0.1299  2.8122
   52SOL     OW  154   1.058   1.460   2.930  0.1129 -0.5561  0.2365
   52SOL    HW1  155   1.065   1.375   2.982  1.6538  1.5401 -3.7307
   52SOL    HW2  156   1.145   1.480   2.882  1.4802  1.0691  1.0581
   53SOL     OW  157   0.930   1.430   2.310  0.8481  0.0203 -0.0398
   53SOL    HW1  158   0.957   1.518   2.350 -0.4273 -4.9774 -0.3477
   53SOL    HW2  159   0.853   1.449   2.247  1.3906  1.4827 -2.4691
   54SOL     OW  160   2.130   0.229   1.236  0.3684 -0.0833 -0.3613
   54SOL    HW1  161   2.045   0.179   1.209 -1.9125 -0.0890  0.2944
   54SOL    HW2  162   2.210   0.175   1.213  1.0022  0.3807 -2.1554
   55SOL     OW  163   2.716   2.888   0.700  0.2886  0.2730 -0.5346
   55SOL    HW1  164   2.757   2.824   0.627  3.7348 -1.9907  0.1697
   55SOL    HW2  165   2.740   2.984   0.671 -2.0783 -0.1004 -1.6484
   56SOL     OW  166   0.857   2.750   1.474  0.1815  0.6234 -0.6959
   56SOL    HW1  167   0.796   2.809   1.421  1.0846 -0.2537 -0.7991
   56SOL    HW2  168   0.949   2.791   1.498  0.5725 -1.9389 -0.9187
   57SOL     OW  169   1.553   1.297   0.351  0.1885 -0.3485 -0.0768
   57SOL    HW1  170   1.534   1.264   0.444 -1.7049  0.2563 -2.1415
   57SOL    HW2  171   1.594   1.391   0.346  2.1828 -1.1312 -0.3721
   58SOL     OW  172   2.977   0.709   2.416  0.3389 -0.4414 -0.5371
   58SOL    HW1  173   2.949   0.782   2.481 -0.8875  0.0169 -0.6308
   58SOL    HW2  174   2.920   0.626   2.414  2.9828  1.2997 -0.0118
   59SOL     OW  175   1.004   2.757   2.507 -0.3746  0.2916  0.9190
   59SOL    HW1  176   1.071   2.760   2.584  1.0589 -3.2525 -1.2009
   59SOL    HW2  177   0.919   2.703   2.519  1.9469  1.1799 -1.2517
   60SOL     OW  178   2.336   2.788   0.855 -0.0303  0.3344  0.0483
   60SOL    HW1  179   2.343   2.868   0.795  1.0654 -2.0536  0.0884
   60SOL    HW2  180   2.432   2.758   0.872  0.0928  0.0446  1.7723
   61SOL     OW  181   1.110   2.272   0.669  0.3084 -0.3649 -0.3583
   61SOL    HW1  182   1.184   2.273   0.596 -0.3579 -0.0056  0.1765
   61SOL    HW2  183   1.087   2.363   0.704  0.5989 -3.9089 -2.1403
   62SOL     OW  184   2.288   2.216   2.557 -0.1394 -0.4825  0.1567
   62SOL    HW1  185   2.278   2.136   2.488  1.4066 -4.6613 -1.3916
   62SOL    HW2  186   2.293   2.179   2.651 -1.1386  1.2070 -0.8568
   63SOL     OW  187   2.175   0.845   2.771  0.1595 -0.5502 -0.3304
   63SOL    HW1  188   2.159   0.836   2.672 -1.0134  0.1791 -1.8962
   63SOL    HW2  189   2.084   0.845   2.815  1.6514  0.4941 -0.5146
   64SOL     OW  190   1.276   0.748   2.999 -0.0136  0.1166 -0.1869
   64SOL    HW1  191   1.205   0.676   3.004 -1.3586 -0.0812  0.3414
   64SOL    HW2  192   1.370   0.711   3.024  2.9918  0.6285  0.3402
   65SOL     OW  193   1.020   1.938   0.554 -0.1626  0.4512  0.4037
   65SOL    HW1  194   0.986   1.853   0.500  0.9469  0.4012  0.7788
   65SOL    HW2  195   1.117   1.954   0.536 -0.6214 -0.0568  0.2039
   66SOL     OW  196   0.402   1.135   1.860  0.2675 -0.5619  0.0171
   66SOL    HW1  197   0.379   1.223   1.904  0.0783  0.4419  1.0685
   66SOL    HW2  198   0.499   1.114   1.890  0.0818  0.8714 -0.7010
   67SOL     OW  199   2.297   2.876   2.603  0.1553  0.8838 -0.1854
   67SOL    HW1  200   2.264   2.971   2.613 -1.9139  0.0644  1.2178
   67SOL    HW2  201   2.225   2.814   2.574  0.7805  0.1703  1.5073
   68SOL     OW  202   0.723   1.887   1.391 -0.2110  0.2716 -0.6808
   68SOL    HW1  203   0.806   1.870   1.444  0.6466  1.4452  0.6832
   68SOL    HW2  204   0.727   1.872   1.290  1.5397  0.5131 -0.1588
   69SOL     OW  205   1.116   2.545   0.311  0.5848  0.2276  0.3530
   69SOL    HW1  206   1.019   2.540   0.348  0.3570  2.0509  1.0273
   69SOL    HW2  207   1.179   2.508   0.384 -0.3998 -1.4315 -0.9405
   70SOL     OW  208   3.023   1.090   2.780  0.4901 -0.1503 -0.1054
   70SOL    HW1  209   0.020   1.129   2.841 -0.7962 -2.7979 -1.8679
   70SOL    HW2  210   3.051   0.994   2.755 -0.6065  1.2135 -0.2792
   71SOL     OW  211   2.856   1.319   2.769  0.0008 -0.1037  0.4534
   71SOL    HW1  212   2.914   1.231   2.775  1.1673 -2.8658  0.4141
   71SOL    HW2  213   2.762   1.310   2.805 -2.0208  1.0767  0.3516
   72SOL     OW  214   2.774   2.235   0.249  0.4641  0.1562  0.0859
   72SOL    HW1  215   2.782   2.202   0.348  1.4071 -1.0552 -1.2131
   72SOL    HW2  216   2.861   2.224   0.209 -5.3725 -2.3050  0.7050
   73SOL     OW  217   0.870   1.472   0.193  0.1022 -0.4921  0.3095
   73SOL    HW1  218   0.935   1.398   0.178 -0.6306 -0.3856 -0.4594
   73SOL    HW2  219   0.908   1.568   0.172 -1.1467  3.2125  0.1005
   74SOL     OW  220   0.099   0.779   3.030  0.1476  0.6288 -0.0627
   74SOL    HW1  221   0.036   0.745   0.028 -0.9040 -0.1784 -2.0590
   74SOL    HW2  222   0.050   0.782   2.940 -1.8345 -1.3940 -0.8991
   75SOL     OW  223   2.035   1.434   1.724 -0.1838  0.1136  0.3374
   75SOL    HW1  224   2.107   1.484   1.673 -0.4704 -4.3190 -0.6356
   75SOL    HW2  225   1.998   1.478   1.809 -2.3328  0.1501  0.5049
   76SOL     OW  226   2.120   2.518   1.653 -0.3738 -0.0437  0.1578
   76SOL    HW1  227   2.148   2.446   1.723  0.6092  0.2455  3.6513
   76SOL    HW2  228   2.040   2.571   1.685  0.9200 -0.2365  3.4608
   77SOL     OW  229   2.660   0.480   1.139  0.4980  0.1447 -0.7659
   77SOL    HW1  230   2.742   0.419   1.123  3.3599  0.6002  2.3869
   77SOL    HW2  231   2.603   0.444   1.214 -1.1285 -0.1968 -0.2921
   78SOL     OW  232   1.559   1.152   0.125 -0.4837 -0.1676  0.5462
   78SOL    HW1  233   1.538   1.209   0.041  0.5235  3.7785  1.0419
   78SOL    HW2  234   1.581   1.220   0.202  0.4589  3.4613  1.2317
   79SOL     OW  235   0.519   1.976   1.817  0.5180  0.2787 -0.2679
   79SOL    HW1  236   0.485   2.065   1.786 -0.7976  2.0634  1.8900
   79SOL    HW2  237   0.515   1.911   1.738 -2.4327 -0.7164  1.4482
   80SOL     OW  238   1.553   1.111   1.302 -0.3176  0.2915  0.2895
   80SOL    HW1  239   1.502   1.049   1.369 -0.0571 -1.0598 -0.9671
   80SOL    HW2  240   1.527   1.085   1.211  1.8690  2.4175  3.1674
   81SOL     OW  241   0.596   2.967   0.979 -0.0427 -0.0052  0.0663
   81SOL    HW1  242   0.587   2.918   0.889  0.8535 -1.0181 -0.9764
   81SOL    HW2  243   0.641   3.057   0.963  0.3639 -3.3970 -2.4857
   82SOL     OW  244   1.908   2.694   1.713 -0.3798  0.4854  0.5822
   82SOL    HW1  245   1.842   2.765   1.684  0.5211  1.7068  0.1459
   82SOL    HW2  246   1.861   2.645   1.783 -0.5616 -0.0724 -1.4302
   83SOL     OW  247   0.735   2.574   1.083  0.2544 -0.0187  0.1192
   83SOL    HW1  248   0.642   2.601   1.052  0.8939 -0.0729 -1.2021
   83SOL    HW2  249   0.744   2.477   1.080  0.6622  1.7432  2.3628
   84SOL     OW  250   0.512   1.243   2.540  0.6241  0.2044 -0.1661
   84SOL    HW1  251   0.455   1.289   2.476  0.4356 -2.2602 -0.0091
   84SOL    HW2  252   0.535   1.150   2.501  1.8071  0.5291  1.4323
   85SOL     OW  253   3.022   2.389   1.215 -0.2725 -0.2578  0.0486
   85SOL    HW1  254   3.055   2.407   1.310  1.6266 -2.1221 -1.0817
   85SOL    HW2  255   0.027   2.395   1.158 -4.2622  0.6945  2.8554
   86SOL     OW  256   2.765   2.419   1.645 -0.1439  0.4856 -0.5105
   86SOL    HW1  257   2.812   2.488   1.587 -0.1575  1.3191  0.5309
   86SOL    HW2  258   2.661   2.412   1.618 -3.0441 -1.3460  3.0378
   87SOL     OW  259   2.652   2.004   2.901  0.7011  0.3134  0.0582
   87SOL    HW1  260   2.622   2.102   2.904  0.2904 -1.5484 -1.7136
   87SOL    HW2  261   2.715   1.975   2.976 -0.2844  1.4463 -2.2193
   88SOL     OW  262   0.380   1.683   1.237 -0.2882 -0.4716 -0.0742
   88SOL    HW1  263   0.287   1.715   1.265  0.7119 -1.1625 -1.0631
   88SOL    HW2  264   0.437   1.657   1.312 -4.6995 -1.3705 -2.3012
   89SOL     OW  265   0.983   3.054   1.762  0.2348 -0.0304  0.5373
   89SOL    HW1  266   1.028   0.065   1.775 -2.2294 -1.0772  1.4091
   89SOL    HW2  267   1.039   2.979   1.799  1.3049 -0.5267  1.3638
   90SOL     OW  268   0.137   1.737   1.589 -0.1382 -0.2720 -0.3647
   90SOL    HW1  269   0.058   1.679   1.589  2.0554  1.5245  2.2173
   90SOL    HW2  270   0.123   1.839   1.575  2.1742 -0.1490 -0.6891
   91SOL     OW  271   1.144   1.717   0.722  0.0504 -0.5837  0.9865
   91SOL    HW1  272   1.167   1.688   0.627  0.8925 -1.2688 -1.4435
   91SOL    HW2  273   1.057   1.768   0.724  1.2931  0.5672 -1.2191
   92SOL     OW  274   2.594   3.036   1.206 -0.1060  0.2452  0.3988
   92SOL    HW1  275   2.522   0.013   1.252 -0.0349  0.4663 -2.4580
   92SOL    HW2  276   2.610   3.064   1.109  2.9178 -2.2087 -0.4008
   93SOL     OW  277   2.543   1.491   2.912 -0.4558  0.6399  0.3934
   93SOL    HW1  278   2.552   1.402   2.869 -1.8653 -0.4856  0.6146
   93SOL    HW2  279   2.442   1.501   2.934 -3.1813 -1.8529  1.1634
   94SOL     OW  280   2.712   2.497   2.520 -0.5786  0.5280  0.1525
   94SOL    HW1  281   2.672   2.409   2.489  2.4150 -1.8341  0.5619
   94SOL    HW2  282   2.648   2.576   2.516 -1.5626 -0.0623  1.3865
   95SOL     OW  283   1.743   0.418   1.440  0.3986 -0.5157 -0.1328
   95SOL    HW1  284   1.824   0.467   1.484  1.9202  4.7855 -0.0942
   95SOL    HW2  285   1.771   0.322   1.403 -1.0856 -1.3767 -0.8914
   96SOL     OW  286   2.636   3.026   1.661 -0.5445  0.5557  0.2474
   96SOL    HW1  287   2.639   2.947   1.598 -1.7410 -0.2631  0.6473
   96SOL    HW2  288   2.690   0.029   1.625  0.9814 -0.5421  0.0380
   97SOL     OW  289   2.416   0.166   1.605  0.0222 -0.1254 -0.0568
   97SOL    HW1  290   2.416   0.098   1.684 -2.4239 -2.2182 -0.5810
   97SOL    HW2  291   2.327   0.209   1.587  0.2158 -1.0805 -0.3728
   98SOL     OW  292   1.307   2.238   1.561  0.1856 -0.1086 -0.3228
   98SOL    HW1  293   1.409   2.244   1.545 -0.0443  2.2634  1.5159
   98SOL    HW2  294   1.269   2.155   1.508  0.4038 -1.0075 -0.7928
   99SOL     OW  295   0.226   2.839   1.676  0.2482 -0.4486 -0.4146
   99SOL    HW1  296   0.322   2.805   1.680  1.8420 -1.1709 -3.6104
   99SOL    HW2  297   0.161   2.775   1.727  1.5783 -2.4475  0.5640
  100SOL     OW  298   0.098   1.160   2.405 -0.1972  0.0363  0.2107
  100SOL    HW1  299   0.087   1.129   2.305 -2.4266 -2.8244 -1.6625
  100SOL    HW2  300   0.155   1.240   2.415  1.4473 -3.4819  1.3202
  101SOL     OW  301   1.969   0.672   0.408 -0.4839 -0.0802 -0.6371
  101SOL    HW1  302   1.889   0.701   0.353 -0.2542  0.5671  0.9461
  101SOL    HW2  303   2.025   0.745   0.446  0.1572 -0.3573 -3.0036
  102SOL     OW  304   0.221   0.489   1.107  0.2446  0.6761 -0.3312
  102SOL    HW1  305   0.222   0.402   1.048 -0.1274 -2.8743 -2.9670
  102SOL    HW2  306   0.209   0.571   1.051  0.6969 -1.3706  0.4771
  103SOL     OW  307   2.425   0.800   2.532 -0.5244  0.0970 -0.0473
  103SOL    HW1  308   2.328   0.781   2.547  0.6956  0.5268 -0.3717
  103SOL    HW2  309   2.439   0.898   2.522  2.4631 -3.1164  3.6555
  104SOL     OW  310   0.392   0.282   2.545 -0.0123  0.2967 -0.4447
  104SOL    HW1  311   0.492   0.275   2.549 -0.9324  1.0455 -1.3692
  104SOL    HW2  312   0.359   0.330   2.625 -1.0356 -2.4640  1.0659
  105SOL     OW  313   2.137   1.031   1.653  0.1977 -0.4671 -0.4414
  105SOL    HW1  314   2.112   0.961   1.582 -0.7657  0.0713  1.6465
  105SOL    HW2  315   2.076   1.112   1.645 -0.7099 -0.2213 -0.1998
  106SOL     OW  316   1.158   2.870   0.296 -0.5886 -0.2825 -0.3809
  106SOL    HW1  317   1.156   2.894   0.392 -0.1314 -1.7265  0.4170
  106SOL    HW2  318   1.211   2.781   0.289  0.3321 -3.4916 -1.1098
  107SOL     OW  319   0.474   1.862   1.560 -0.2681  0.3329 -0.4814
  107SOL    HW1  320   0.439   1.762   1.583 -4.7516 -1.9000  1.7841
  107SOL    HW2  321   0.545   1.860   1.486  0.3651  0.0870 -1.4186
  108SOL     OW  322   0.227   0.092   2.449 -0.4499 -0.0326  0.5729
  108SOL    HW1  323   0.229   0.001   2.487  0.2954  0.4904 -1.1678
  108SOL    HW2  324   0.288   0.152   2.500 -1.9311 -0.8302 -0.4742
  109SOL     OW  325   2.051   0.280   0.129  0.8785 -0.4656  0.1759
  109SOL    HW1  326   1.963   0.279   0.077 -1.8835 -3.2858 -0.4163
  109SOL    HW2  327   2.130   0.232   0.088 -1.5719  3.0237  0.2216
  110SOL     OW  328   0.256   2.080   2.459 -0.0423  0.1904  0.3460
  110SOL    HW1  329   0.301   1.992   2.470 -1.3020  3.2675  1.5772
  110SOL    HW2  330   0.302   2.136   2.528 -1.5404 -0.9415 -0.4812
  111SOL     OW  331   1.732   2.703   2.215  0.2125 -0.0405  0.3372
  111SOL    HW1  332   1.647   2.757   2.200  0.3962 -0.2725  0.0026
  111SOL    HW2  333   1.810   2.751   2.179  1.4347 -1.5028  3.1918
  112SOL     OW  334   1.985   2.128   2.563 -0.5247 -0.2964  0.0613
  112SOL    HW1  335   2.036   2.071   2.636 -1.0097 -1.5094  0.7233
  112SOL    HW2  336   1.939   2.066   2.500  0.7474  0.2215 -0.1575
  113SOL     OW  337   2.472   2.472   1.944 -0.0547  0.1951 -0.2537
  113SOL    HW1  338   2.547   2.483   2.013 -1.0606 -2.0630  1.4772
  113SOL    HW2  339   2.511   2.416   1.869 -0.4012  0.0419  0.1562
  114SOL     OW  340   2.579   0.848   0.981  0.3254 -0.1368 -0.4727
  114SOL    HW1  341   2.616   0.825   0.890 -0.3786 -0.2190 -0.3338
  114SOL    HW2  342   2.630   0.931   1.014 -1.9260 -0.5909 -1.6866
  115SOL     OW  343   0.161   1.661   2.783  0.3374 -0.4132  0.1999
  115SOL    HW1  344   0.198   1.746   2.828 -0.4956  0.1937 -0.0012
  115SOL    HW2  345   0.088   1.685   2.714  1.2955 -1.3400  0.1810
  116SOL     OW  346   0.345   1.373   1.954  0.1813 -0.1096 -0.2324
  116SOL    HW1  347   0.391   1.398   1.869 -0.0739 -0.6500 -0.8043
  116SOL    HW2  348   0.286   1.449   1.990 -0.4643 -0.9205  1.6393
  117SOL     OW  349   2.774   0.063   0.623 -0.5939 -0.5704  0.2925
  117SOL    HW1  350   2.772   0.149   0.679 -0.6260 -1.2264 -1.2495
  117SOL    HW2  351   2.733   0.079   0.531 -1.6501  1.7150 -3.3757
  118SOL     OW  352   1.112   1.855   1.751  0.3915 -0.4710  0.2690
  118SOL    HW1  353   1.034   1.899   1.793  1.3830  1.1316 -2.2606
  118SOL    HW2  354   1.183   1.860   1.819 -1.3392  1.2013 -0.3267
  119SOL     OW  355   1.098   2.132   0.062  0.0836  0.0407 -0.4424
  119SOL    HW1  356   1.101   2.042   0.021  0.6016  0.4583 -0.8806
  119SOL    HW2  357   1.008   2.138   0.115 -1.6031  0.2024 -1.0206
  120SOL     OW  358   0.295   1.373   2.436 -0.4136 -0.6055  0.4825
  120SOL    HW1  359   0.238   1.456   2.446  0.4085 -0.7863  2.7727
  120SOL    HW2  360   0.351   1.374   2.350  0.5660  0.7379 -4.7676
  121SOL     OW  361   1.975   2.631   1.105  0.0788 -0.7168  0.1069
  121SOL    HW1  362   1.992   2.653   1.009  1.0744 -0.1731  0.4748
  121SOL    HW2  363   1.957   2.534   1.115  1.4505  2.0041  0.6670
  122SOL     OW  364   2.210   1.950   1.802 -0.1089  0.7333  0.6004
  122SOL    HW1  365   2.254   1.937   1.892 -0.1549  0.7200  0.4553
  122SOL    HW2  366   2.262   2.023   1.746  0.3274  2.6520 -1.8475
  123SOL     OW  367   3.008   3.037   0.748  0.0841 -0.3660 -0.1605
  123SOL    HW1  368   2.931   0.004   0.697  1.2821 -0.7079  2.4347
  123SOL    HW2  369   3.062   2.977   0.687  0.0935 -1.2625  2.3723
  124SOL     OW  370   1.887   0.598   2.353  0.0105 -0.0490  0.4881
  124SOL    HW1  371   1.794   0.559   2.348  1.3424 -2.5327 -4.1520
  124SOL    HW2  372   1.923   0.628   2.263 -0.8556  0.0476  0.6335
  125SOL     OW  373   0.504   1.293   0.547  0.5089  0.2256 -0.4117
  125SOL    HW1  374   0.470   1.316   0.454  1.6143  0.9049  1.2294
  125SOL    HW2  375   0.463   1.360   0.615  0.0102  0.7078  0.9296
  126SOL     OW  376   2.415   1.785   0.422  0.4040 -0.3774 -0.0515
  126SOL    HW1  377   2.494   1.843   0.400  1.5189 -1.2883 -0.2891
  126SOL    HW2  378   2.346   1.845   0.470  0.1282 -1.3015  0.4534
  127SOL     OW  379   0.105   1.757   1.294  0.2251  0.3115 -0.1286
  127SOL    HW1  380   0.131   1.721   1.387 -0.7025  0.1809 -2.0910
  127SOL    HW2  381   0.037   1.834   1.293 -1.4259 -1.0839 -1.2638
  128SOL     OW  382   0.847   0.580   2.824 -0.0933 -0.3242  0.6296
  128SOL    HW1  383   0.920   0.544   2.888 -1.4216 -1.6029  1.7527
  128SOL    HW2  384   0.872   0.573   2.723 -3.6120 -1.0356 -3.9551
  129SOL     OW  385   2.202   1.592   1.095  0.3501 -0.2030 -0.5377
  129SOL    HW1  386   2.243   1.652   1.167  1.5699  0.5194  2.4381
  129SOL    HW2  387   2.108   1.568   1.127 -2.7330  0.5786  3.8174
  130SOL     OW  388   2.193   1.592   1.404 -0.1095 -0.2102 -0.0537
  130SOL    HW1  389   2.123   1.528   1.373  1.3005  1.2279 -3.4272
  130SOL    HW2  390   2.278   1.534   1.420 -0.0566 -1.1611 -1.3676
  131SOL     OW  391   2.732   1.018   2.776  0.2521 -0.2253  0.3931
  131SOL    HW1  392   2.832   1.036   2.783  1.9040  1.2874  0.0284
  131SOL    HW2  393   2.710   0.933   2.727 -0.5594  0.6678 -0.4883
  132SOL     OW  394   2.596   2.277   1.804 -0.0449 -0.4088  0.2984
  132SOL    HW1  395   2.673   2.316   1.748 -0.7105  1.9732 -0.6159
  132SOL    HW2  396   2.628   2.199   1.863  0.7704 -0.3040  1.4535
  133SOL     OW  397   0.602   1.011   0.957  0.5987  0.0168 -0.1602
  133SOL    HW1  398   0.654   1.099   0.951 -0.7790  2.3411  0.2685
  133SOL    HW2  399   0.651   0.931   0.993  0.7900 -0.5482  0.3344
  134SOL     OW  400   0.098   1.064   0.360 -0.5274 -0.0291  0.3175
  134SOL    HW1  401   0.105   1.094   0.458 -0.3465 -0.3924  2.3517
  134SOL    HW2  402   0.001   1.050   0.328 -0.6500 -0.2287 -0.6554
  135SOL     OW  403   1.969   1.525   1.217  0.1045  0.4012 -0.4573
  135SOL    HW1  404   1.941   1.430   1.215  0.7397 -0.3461  1.0418
  135SOL    HW2  405   1.888   1.589   1.218 -1.0030  2.5992  1.2464
  136SOL     OW  406   2.281   1.027   0.838  0.5694  0.2932  0.2089
  136SOL    HW1  407   2.337   0.940   0.845  2.5694 -0.8589  0.7859
  136SOL    HW2  408   2.251   1.037   0.739  3.7150 -1.9558  0.0371
  137SOL     OW  409   2.623   1.731   0.659 -0.1761  0.9659  0.0118
  137SOL    HW1  410   2.642   1.821   0.616  1.9443 -0.3980  1.0769
  137SOL    HW2  411   2.633   1.731   0.760  1.1485 -0.2909  3.0766
  138SOL     OW  412   1.841   0.736   1.683 -0.0336  0.1700 -0.5918
  138SOL    HW1  413   1.743   0.701   1.704 -4.5339 -4.2844 -0.4363
  138SOL    HW2  414   1.903   0.665   1.652 -1.8074  1.2445 -0.5252
  139SOL     OW  415   2.366   2.923   2.885 -0.3132  0.0665 -0.0360
  139SOL    HW1  416   2.427   2.841   2.878 -1.3317 -2.3491 -1.2822
  139SOL    HW2  417   2.295   2.920   2.809 -0.4465 -0.1870 -0.8278
  140SOL     OW  418   1.473   1.858   2.175  0.2976 -0.5104 -0.1503
  140SOL    HW1  419   1.538   1.914   2.231  1.0345  1.5483  0.5402
  140SOL    HW2  420   1.478   1.760   2.193  2.2599 -1.2669 -1.0667
  141SOL     OW  421   1.842   1.871   1.166 -0.0669  0.6923 -0.3521
  141SOL    HW1  422   1.909   1.855   1.240  2.1395  1.9660  0.6297
  141SOL    HW2  423   1.795   1.784   1.152  1.3732 -2.1299  2.2989
  142SOL     OW  424   0.235   0.293   0.069 -0.1326  0.1421 -0.0059
  142SOL    HW1  425   0.276   0.204   0.092  0.2287 -0.1265  0.6352
  142SOL    HW2  426   0.176   0.317   0.148 -0.5696 -2.8139  1.7442
  143SOL     OW  427   0.145   2.083   2.761  0.5372  0.0863  0.3805
  143SOL    HW1  428   0.199   2.002   2.786 -1.2912  0.9434 -0.0548
  143SOL    HW2  429   0.185   2.134   2.680  0.3745  1.7243  0.8707
  144SOL     OW  430   1.175   2.847   1.839 -0.2991  0.1876 -0.0441
  144SOL    HW1  431   1.271   2.825   1.870  5.1460 -2.0227 -1.0169
  144SOL    HW2  432   1.104   2.790   1.891 -1.1282  0.2053  0.9237
  145SOL     OW  433   2.136   1.250   0.432  0.1106 -0.0830 -0.4483
  145SOL    HW1  434   2.100   1.322   0.492 -1.3232 -1.2911  3.5664
  145SOL    HW2  435   2.233   1.266   0.400 -2.0858 -1.6946  2.1690
  146SOL     OW  436   2.769   2.765   2.826  0.0276  0.5353  0.0233
  146SOL    HW1  437   2.752   2.833   2.753 -2.2950 -0.7672  3.0549
  146SOL    HW2  438   2.842   2.793   2.890 -1.1791 -0.7273 -0.8857
  147SOL     OW  439   2.912   2.302   0.932 -0.1458 -0.0751 -0.1300
  147SOL    HW1  440   2.982   2.302   1.005 -0.5513 -1.3216  0.7135
  147SOL    HW2  441   2.818   2.319   0.966  0.1584  1.1469 -2.9575
  148SOL     OW  442   2.034   2.983   2.845 -0.3398  0.3762  0.5395
  148SOL    HW1  443   2.038   2.975   2.950 -1.3973  0.3360 -0.9153
  148SOL    HW2  444   2.017   2.893   2.800  2.1466  1.0872  0.2661
  149SOL     OW  445   1.254   0.227   2.634 -0.0161  0.3605 -0.1373
  149SOL    HW1  446   1.288   0.305   2.692  2.0872  0.2671 -0.7173
  149SOL    HW2  447   1.176   0.253   2.568 -1.0109  3.0878 -1.2076
  150SOL     OW  448   0.863   2.537   0.406  0.2168  0.0084  0.1251
  150SOL    HW1  449   0.792   2.473   0.376 -0.3782 -0.8432 -0.1516
  150SOL    HW2  450   0.835   2.576   0.496 -0.1340  3.9954  1.5104
  151SOL     OW  451   2.718   1.851   0.071  0.3932  0.1554  0.3599
  151SOL    HW1  452   2.703   1.771   0.010  0.1091 -0.5609 -1.8692
  151SOL    HW2  453   2.816   1.868   0.068 -2.9947 -1.0930  2.0721
  152SOL     OW  454   0.123   1.184   0.854  0.6327  0.1314 -0.3037
  152SOL    HW1  455   0.213   1.142   0.841 -0.3663  4.0772 -1.4386
  152SOL    HW2  456   0.110   1.220   0.946 -0.8222 -1.4995 -0.0707
  153SOL     OW  457   2.261   2.785   0.518 -0.0030  0.3672  0.1574
  153SOL    HW1  458   2.324   2.791   0.596 -2.7764  0.5778  0.4784
  153SOL    HW2  459   2.181   2.850   0.531 -3.3688  0.5827 -1.3690
  154SOL     OW  460   0.785   0.501   1.539  0.0626  0.2028 -0.5863
  154SOL    HW1  461   0.797   0.519   1.643  1.2351  1.4091  3.4946
  154SOL    HW2  462   0.698   0.542   1.512 -0.1031  1.9047  0.5421
  155SOL     OW  463   2.889   1.909   1.165 -0.1199  0.0763 -0.3660
  155SOL    HW1  464   2.816   1.842   1.184 -3.3941  2.5926  1.5116
  155SOL    HW2  465   2.880   1.991   1.226  1.2709  0.9168 -1.2007
  156SOL     OW  466   1.905   2.117   0.093 -0.4493  0.1645  0.0013
  156SOL    HW1  467   1.935   2.026   0.133 -2.6044  0.8102 -1.8268
  156SOL    HW2  468   1.963   2.188   0.134 -1.8559 -0.1977 -0.3324
  157SOL     OW  469   0.889   2.685   0.881  0.1757 -0.0571 -0.2653
  157SOL    HW1  470   0.839   2.632   0.950  1.6566  3.8692 -1.9792
  157SOL    HW2  471   0.922   2.773   0.924  1.4145 -1.1667 -2.7150
  158SOL     OW  472   2.469   0.520   2.550 -0.4039 -0.2416  0.0124
  158SOL    HW1  473   2.365   0.505   2.546  0.4419 -0.9276 -0.0982
  158SOL    HW2  474   2.488   0.625   2.549  0.5125  1.7411  0.1418
  159SOL     OW  475   0.584   0.243   2.775  0.0376 -0.2502 -1.0309
  159SOL    HW1  476   0.608   0.341   2.793  0.3926 -0.5422  1.4681
  159SOL    HW2  477   0.496   0.221   2.813  1.9262  2.0999 -0.6091
  160SOL     OW  478   0.709   2.003   0.092  0.1092 -0.5057 -0.1748
  160SOL    HW1  479   0.637   2.068   0.056 -1.0948  1.4756  2.1293
  160SOL    HW2  480   0.736   1.935   0.019  1.7053 -0.3312 -1.1643
  161SOL     OW  481   3.034   2.129   2.957  0.1467 -0.4526 -0.0167
  161SOL    HW1  482   0.029   2.114   2.885 -0.4415 -0.5615  2.4637
  161SOL    HW2  483   2.975   2.211   2.935 -0.1021  1.2874 -0.3675
  162SOL     OW  484   0.475   2.657   1.053  0.3608  0.4762 -0.0392
  162SOL    HW1  485   0.408   2.650   1.131 -0.1951 -3.0074  0.6854
  162SOL    HW2  486   0.497   2.755   1.040 -2.2697 -0.8654 -1.8590
  163SOL     OW  487   2.374   0.679   2.866 -0.5702 -0.3107  0.6865
  163SOL    HW1  488   2.299   0.748   2.847  0.2984 -2.4265 -0.5792
  163SOL    HW2  489   2.345   0.593   2.820  1.3089  0.5848 -1.3373
  164SOL     OW  490   2.967   2.132   0.717 -0.1041 -0.4511 -0.5823
  164SOL    HW1  491   2.947   2.034   0.729 -0.5118 -1.8505 -0.3273
  164SOL    HW2  492   2.958   2.187   0.810  0.6946  0.3987  1.1622
  165SOL     OW  493   2.951   3.056   1.447  0.3901  0.0644  0.2356
  165SOL    HW1  494   3.035   3.062   1.504 -0.4694  0.1040 -0.3868
  165SOL    HW2  495   2.967   2.982   1.373 -1.3104 -0.5142 -1.2439
  166SOL     OW  496   2.197   0.098   0.717 -0.5323 -0.3290 -0.1165
  166SOL    HW1  497   2.150   0.186   0.733  0.0251 -0.2023 -2.2984
  166SOL    HW2  498   2.295   0.113   0.689  0.2891 -0.6104 -0.5689
  167SOL     OW  499   0.486   0.230   0.973 -0.2838  0.4562 -0.2507
  167SOL    HW1  500   0.495   0.242   1.074 -2.0094 -0.7263  0.2947
  167SOL    HW2  501   0.574   0.201   0.938 -2.5621  2.3533 -0.8409
  168SOL     OW  502   2.434   0.054   2.435 -0.9812  0.2500 -0.5239
  168SOL    HW1  503   2.524   0.053   2.482 -3.1329 -1.2898 -1.0693
  168SOL    HW2  504   2.402   3.032   2.422  0.2796  1.2189 -0.1202
  169SOL     OW  505   2.996   1.569   0.670  0.3368 -0.2734  0.9278
  169SOL    HW1  506   3.013   1.571   0.568  0.3739  2.0664 -1.9275
  169SOL    HW2  507   3.071   1.619   0.718 -1.0459  2.3068  1.3096
  170SOL     OW  508   2.720   0.965   1.335 -0.4433 -0.8091  0.0524
  170SOL    HW1  509   2.695   0.885   1.282  0.0491  2.1926  1.5745
  170SOL    HW2  510   2.653   0.963   1.420  0.3124 -0.1171  4.0144
  171SOL     OW  511   1.258   2.500   1.641 -0.2419  0.1092  0.1491
  171SOL    HW1  512   1.287   2.407   1.608 -0.6031  0.7312  1.0843
  171SOL    HW2  513   1.233   2.563   1.567  0.2829 -0.9521  0.2682
  172SOL     OW  514   0.414   2.329   1.256  0.0825  0.5089  0.0784
  172SOL    HW1  515   0.396   2.233   1.234  0.8040  1.5489 -3.2632
  172SOL    HW2  516   0.333   2.389   1.247  3.4351  0.4409 -0.5126
  173SOL     OW  517   1.427   3.030   0.038 -0.2078  0.0309  0.9989
  173SOL    HW1  518   1.472   3.006   3.026 -0.5943  1.3974 -1.1507
  173SOL    HW2  519   1.463   2.972   0.111  1.5874 -0.0823 -0.9905
  174SOL     OW  520   1.087   2.497   2.773 -0.5405 -0.2203  0.3896
  174SOL    HW1  521   0.993   2.488   2.733 -0.0374  0.6416 -1.8395
  174SOL    HW2  522   1.102   2.428   2.841 -2.3215  1.8458  0.1350
  175SOL     OW  523   1.793   2.988   0.143 -0.7316  0.3239  0.2498
  175SOL    HW1  524   1.753   3.038   0.218 -0.9392 -3.9845 -1.6546
  175SOL    HW2  525   1.733   2.910   0.114 -1.3690  0.8637 -0.5274
  176SOL     OW  526   1.606   0.187   0.159  0.1289 -0.1729 -0.1373
  176SOL    HW1  527   1.552   0.154   0.080  2.3628  0.3176  0.6772
  176SOL    HW2  528   1.576   0.149   0.246 -0.4392  2.9527  0.6996
  177SOL     OW  529   0.747   1.630   0.554 -0.0516  0.1028  0.1142
  177SOL    HW1  530   0.720   1.688   0.635  0.3706  1.8250  3.5303
  177SOL    HW2  531   0.832   1.660   0.518 -3.3544 -2.8063  3.4072
  178SOL     OW  532   2.536   1.689   2.203  0.1482 -0.1573  0.4033
  178SOL    HW1  533   2.614   1.624   2.210 -1.3050 -1.6025  0.2072
  178SOL    HW2  534   2.456   1.659   2.269 -1.3718 -0.8335  2.9801
  179SOL     OW  535   0.445   2.555   2.748  0.0588  0.5511  0.6198
  179SOL    HW1  536   0.463   2.659   2.750  3.1248  1.6206  0.1067
  179SOL    HW2  537   0.465   2.526   2.656 -1.7078 -1.7757  0.3211
  180SOL     OW  538   1.690   1.975   1.814 -0.0814  0.6810 -0.0159
  180SOL    HW1  539   1.787   1.941   1.813 -2.0698  0.3518  0.5178
  180SOL    HW2  540   1.680   2.059   1.867  0.7351  1.0009 -0.1496
  181SOL     OW  541   1.213   1.046   2.327  0.5449  0.2874  0.3469
  181SOL    HW1  542   1.231   1.080   2.424 -0.4726  2.5839  2.2012
  181SOL    HW2  543   1.159   1.116   2.271 -3.0694 -1.4574 -0.9135
  182SOL     OW  544   0.085   0.488   2.658  0.1873  0.0383 -0.3414
  182SOL    HW1  545   0.067   0.423   2.585  1.6175 -0.4265 -0.0114
  182SOL    HW2  546   0.171   0.462   2.710  1.0341  0.3265  0.2539
  183SOL     OW  547   1.149   0.305   3.021  0.1672  0.7191 -0.0847
  183SOL    HW1  548   1.084   0.229   2.994 -1.6590  0.5429 -2.6977
  183SOL    HW2  549   1.217   0.321   2.949 -2.7750 -0.7963  2.9233
  184SOL     OW  550   1.136   0.982   1.330  0.5097  0.5601  0.1561
  184SOL    HW1  551   1.201   1.061   1.339  0.9352  1.8256 -0.5975
  184SOL    HW2  552   1.180   0.893   1.357 -0.8393 -2.6978  0.8383
  185SOL     OW  553   0.028   1.226   1.339 -0.6984  0.1211  0.1523
  185SOL    HW1  554   0.078   1.223   1.430  0.2146  1.5772 -0.1012
  185SOL    HW2  555   3.014   1.277   1.342  1.8697 -2.4296 -1.4235
  186SOL     OW  556   0.620   1.682   2.576 -0.3007  0.3521 -0.3977
  186SOL    HW1  557   0.623   1.676   2.470 -2.4041 -0.1218 -3.5900
  186SOL    HW2  558   0.552   1.616   2.616 -1.3894 -0.9853  0.8989
  187SOL     OW  559   2.536   1.405   0.148 -0.1025  0.4145  0.2578
  187SOL    HW1  560   2.599   1.361   0.078 -0.0942 -2.4471 -1.6250
  187SOL    HW2  561   2.589   1.442   0.226 -2.2495  1.3343 -1.5195
  188SOL     OW  562   0.161   2.234   0.646  0.0087  0.0889  0.0337
  188SOL    HW1  563   0.178   2.258   0.548  0.2602  0.1091 -2.0124
  188SOL    HW2  564   0.063   2.212   0.663 -0.5627  1.0410  0.9221
  189SOL     OW  565   2.638   1.011   3.038 -0.3493 -0.0904  0.0202
  189SOL    HW1  566   2.698   1.007   2.954  0.8770  0.0529 -2.6132
  189SOL    HW2  567   2.655   0.927   0.020 -0.9866 -1.7882  0.2508
  190SOL     OW  568   1.075   1.245   2.207 -0.2035 -0.4531 -0.0798
  190SOL    HW1  569   1.008   1.218   2.134 -0.6038  0.3398  2.1056
  190SOL    HW2  570   1.028   1.322   2.253  1.4834 -1.2053 -0.1423
  191SOL     OW  571   2.459   0.426   1.838 -0.0299 -0.0097 -0.0170
  191SOL    HW1  572   2.536   0.391   1.779 -1.1649 -1.3087  0.8435
  191SOL    HW2  573   2.400   0.352   1.871  1.3667  2.7622 -2.1948
  192SOL     OW  574   1.982   0.141   1.632 -0.2614 -0.1314  0.3058
  192SOL    HW1  575   1.995   0.102   1.726 -1.1739 -0.2245 -2.1174
  192SOL    HW2  576   1.889   0.176   1.621 -0.1414 -1.6922 -1.6831
  193SOL     OW  577   0.975   0.483   0.563 -0.2318 -0.5172 -0.8532
  193SOL    HW1  578   1.017   0.531   0.649  3.2270  0.2604  2.8757
  193SOL    HW2  579   0.911   0.539   0.509  2.5152  0.3733  0.0550
  194SOL     OW  580   1.271   3.033   1.127 -0.1263  0.1243 -0.0938
  194SOL    HW1  581   1.331   0.027   1.086 -2.6412 -0.0798  1.0278
  194SOL    HW2  582   1.184   3.019   1.077 -1.1978 -1.0100  1.0971
  195SOL     OW  583   2.444   0.710   0.597 -0.0100  0.2978  0.4354
  195SOL    HW1  584   2.519   0.770   0.557  0.2868 -0.6311 -1.8187
  195SOL    HW2  585   2.435   0.722   0.696 -0.0083 -0.2765 -3.9549
  196SOL     OW  586   1.530   1.740   1.820 -0.0279 -0.4862  0.0313
  196SOL    HW1  587   1.592   1.819   1.805  2.4182  1.1529 -2.7212
  196SOL    HW2  588   1.439   1.771   1.859 -1.7269  1.0369 -0.3543
  197SOL     OW  589   0.085   2.910   0.511 -0.5159  0.1149  0.2638
  197SOL    HW1  590   0.143   2.992   0.523 -0.5414 -1.9189  0.9471
  197SOL    HW2  591   0.145   2.833   0.520 -0.2798  0.7543  0.6906
  198SOL     OW  592   0.930   1.321   0.486  0.1292  0.0688  0.3764
  198SOL    HW1  593   0.856   1.371   0.435 -0.9906 -0.0604 -0.1946
  198SOL    HW2  594   0.893   1.266   0.568  0.6996 -0.3626  4.0084
  199SOL     OW  595   2.732   0.738   1.775 -0.5321  0.2569  0.1248
  199SOL    HW1  596   2.741   0.749   1.878  0.5481  0.8526  0.1439
  199SOL    HW2  597   2.794   0.800   1.724  0.4159  1.7149 -2.8714
  200SOL     OW  598   2.087   1.974   2.749 -0.4526  0.1874 -0.0477
  200SOL    HW1  599   2.113   1.881   2.709  3.1012 -1.5339 -1.5969
  200SOL    HW2  600   2.168   2.023   2.786 -4.2128  1.3292 -0.9978
  201SOL     OW  601   2.374   0.008   0.928  0.2855  0.0370 -0.0297
  201SOL    HW1  602   2.300   0.026   0.864  1.3896  1.0828  2.2216
  201SOL    HW2  603   2.351   3.003   0.989 -3.3929 -0.0714 -0.4413
  202SOL     OW  604   2.652   0.778   0.086 -0.0787  0.2272  0.0621
  202SOL    HW1  605   2.573   0.717   0.070  1.1533  1.7992 -0.5294
  202SOL    HW2  606   2.711   0.749   0.161  1.5135  0.1238  0.5477
  203SOL     OW  607   1.557   1.560   2.225  0.0781 -0.2864 -0.3011
  203SOL    HW1  608   1.569   1.455   2.224 -0.1499 -0.8895 -1.8282
  203SOL    HW2  609   1.462   1.588   2.227  3.8397  1.5249 -1.8256
  204SOL     OW  610   0.853   1.797   2.240  0.4353  0.0777 -0.0548
  204SOL    HW1  611   0.891   1.879   2.194 -0.5301 -0.0114 -0.6221
  204SOL    HW2  612   0.918   1.752   2.305  1.0615  0.4107  2.9103
  205SOL     OW  613   1.235   1.927   1.531 -0.2387 -0.3172  0.0983
  205SOL    HW1  614   1.186   1.898   1.614  2.7584 -1.6728 -0.9150
  205SOL    HW2  615   1.330   1.953   1.553 -1.8493 -0.6997  0.8413
  206SOL     OW  616   0.021   0.734   2.759 -0.1017 -0.4366  0.0492
  206SOL    HW1  617   0.020   0.640   2.722 -1.5845  0.3380 -0.7630
  206SOL    HW2  618   0.073   0.801   2.699 -1.2795  1.0215  0.8682
  207SOL     OW  619   1.820   2.513   2.398 -0.1042  0.4448 -0.0278
  207SOL    HW1  620   1.743   2.498   2.462  2.6853  0.1248 -1.0181
  207SOL    HW2  621   1.805   2.581   2.332 -2.0455 -1.6768  2.6298
  208SOL     OW  622   0.417   2.214   1.693 -0.4315 -0.3861 -0.3374
  208SOL    HW1  623   0.355   2.161   1.627  0.9842 -0.9692  0.9568
  208SOL    HW2  624   0.419   2.313   1.656 -0.0878 -1.3027 -1.7552
  209SOL     OW  625   1.536   0.586   2.756  0.4339  0.1626 -0.0075
  209SOL    HW1  626   1.514   0.672   2.706 -0.7904  0.3258  2.1890
  209SOL    HW2  627   1.560   0.506   2.695 -1.6817 -1.0387 -2.2852
  210SOL     OW  628   2.369   0.737   0.852 -0.4683 -0.0321  0.8176
  210SOL    HW1  629   2.325   0.660   0.900  0.8040 -0.5741 -4.2526
  210SOL    HW2  630   2.451   0.765   0.900 -0.9780 -2.6370  1.2796
  211SOL     OW  631   1.076   0.674   0.752 -0.7590  0.1618 -0.1537
  211SOL    HW1  632   0.983   0.694   0.778  3.2515 -3.8308  1.1836
  211SOL    HW2  633   1.141   0.711   0.825  0.6333  1.6550  0.7436
  212SOL     OW  634   1.209   1.598   0.469  0.4423 -0.0895 -0.4930
  212SOL    HW1  635   1.240   1.507   0.510  0.6883 -0.3561 -1.4487
  212SOL    HW2  636   1.256   1.617   0.384 -0.6500  0.0768 -0.0044
  213SOL     OW  637   1.603   0.040   2.134  0.0076  0.2453 -0.2526
  213SOL    HW1  638   1.698   0.052   2.094  3.9310 -0.8736 -1.2953
  213SOL    HW2  639   1.535   0.102   2.088 -1.0729  3.0958 -2.2632
  214SOL     OW  640   1.537   1.070   2.579  0.1137 -0.1913 -0.1917
  214SOL    HW1  641   1.592   1.154   2.586  1.0109  1.4210 -0.9103
  214SOL    HW2  642   1.439   1.089   2.592  2.0315  0.0841  0.2146
  215SOL     OW  643   0.631   1.593   0.973  0.1147  0.0324 -0.1245
  215SOL    HW1  644   0.671   1.607   1.065 -2.8829  1.7816 -1.1173
  215SOL    HW2  645   0.540   1.546   0.988 -0.1112 -0.6914  0.2839
  216SOL     OW  646   0.692   2.792   2.232  0.3126  0.1597  0.0208
  216SOL    HW1  647   0.691   2.811   2.137  0.2746 -0.3808  0.1545
  216SOL    HW2  648   0.702   2.877   2.291  0.0283  0.6889  0.7508
  217SOL     OW  649   2.280   0.792   0.208  0.4293  0.1202  0.5883
  217SOL    HW1  650   2.333   0.718   0.163 -0.3414 -3.2713  0.4695
  217SOL    HW2  651   2.323   0.881   0.200 -0.8624 -0.1261 -0.0955
  218SOL     OW  652   2.130   1.917   2.209 -0.6419  0.6004  0.4901
  218SOL    HW1  653   2.131   1.817   2.209  0.2822 -0.5844 -1.0612
  218SOL    HW2  654   2.208   1.952   2.152  0.6573  2.2202 -1.5290
  219SOL     OW  655   1.781   1.616   0.234 -0.1439  0.1373 -0.9386
  219SOL    HW1  656   1.796   1.708   0.270 -1.1917  1.8162 -2.6494
  219SOL    HW2  657   1.871   1.572   0.207 -0.9603  1.5865 -2.7042
  220SOL     OW  658   1.421   1.778   1.100 -0.4556 -0.0803  0.2906
  220SOL    HW1  659   1.427   1.880   1.113 -2.7220 -0.0419 -3.7575
  220SOL    HW2  660   1.415   1.762   1.000  0.6547 -0.0441  1.5566
  221SOL     OW  661   0.427   0.737   2.788 -0.4477  0.0357  0.1987
  221SOL    HW1  662   0.413   0.827   2.739  0.4463  0.1854  1.1818
  221SOL    HW2  663   0.387   0.740   2.885  1.8879 -1.1294  1.0059
  222SOL     OW  664   1.072   2.324   1.473 -0.0419  0.1408  0.6690
  222SOL    HW1  665   1.017   2.381   1.539 -2.8624  1.2478  1.3620
  222SOL    HW2  666   1.174   2.317   1.486  3.9343 -2.3575 -1.2419
  223SOL     OW  667   1.284   2.584   2.590  0.2900 -0.4240  0.1540
  223SOL    HW1  668   1.236   2.647   2.655 -0.2255 -1.0027  2.0158
  223SOL    HW2  669   1.265   2.491   2.619  1.8663  0.7796  1.8137
  224SOL     OW  670   2.815   1.169   0.905 -0.0273 -0.4050  0.1916
  224SOL    HW1  671   2.832   1.264   0.873  0.1438  1.3950 -0.0522
  224SOL    HW2  672   2.739   1.135   0.850 -0.6174 -1.1050  0.9808
  225SOL     OW  673   1.302   1.103   1.646  0.3469  0.5082  0.2786
  225SOL    HW1  674   1.354   1.189   1.661 -0.9413 -2.7957 -0.4536
  225SOL    HW2  675   1.347   1.046   1.577 -1.4929  3.2552  1.8676
  226SOL     OW  676   1.242   2.219   2.658  0.0671  0.0487  0.1233
  226SOL    HW1  677   1.229   2.258   2.752 -1.3131 -0.5964  3.7483
  226SOL    HW2  678   1.277   2.127   2.667 -2.3001 -1.2209 -0.1202
  227SOL     OW  679   1.140   1.939   1.229 -0.4879 -0.1203 -0.0122
  227SOL    HW1  680   1.237   1.977   1.233 -0.6813 -0.3018  1.2381
  227SOL    HW2  681   1.075   1.997   1.281  0.6322 -1.8632  0.3153
  228SOL     OW  682   0.477   1.910   1.102  0.4080  0.2098 -0.4766
  228SOL    HW1  683   0.442   1.821   1.138 -2.5698 -0.3555 -4.4749
  228SOL    HW2  684   0.575   1.898   1.084 -2.5132  0.0274 -0.9072
  229SOL     OW  685   2.077   0.723   0.054 -0.4409 -0.0275  0.2061
  229SOL    HW1  686   2.114   0.632   0.025 -0.8753  1.6671 -0.4503
  229SOL    HW2  687   2.142   0.757   0.129 -1.7603  0.0193 -0.0246
  230SOL     OW  688   1.008   0.833   2.042  0.2428  0.1411  0.0874
  230SOL    HW1  689   1.098   0.874   2.023  0.5064  1.3689  0.1815
  230SOL    HW2  690   0.966   0.870   2.123  0.7851 -1.0774 -1.0149
  231SOL     OW  691   1.268   1.644   2.222  0.2197 -0.2741  0.3762
  231SOL    HW1  692   1.204   1.661   2.145  1.1574 -2.3537 -1.8251
  231SOL    HW2  693   1.289   1.543   2.226  1.3299  0.9660  1.2425
  232SOL     OW  694   1.984   2.126   1.028 -0.0013  0.0375  0.0653
  232SOL    HW1  695   1.910   2.063   0.991 -1.2099  2.3149 -0.7558
  232SOL    HW2  696   1.946   2.215   1.069  1.2688  1.7146 -0.6036
  233SOL     OW  697   1.839   2.329   2.679  0.1278  0.0804 -0.7433
  233SOL    HW1  698   1.897   2.257   2.628  0.0697 -0.2758 -2.2213
  233SOL    HW2  699   1.908   2.394   2.719  0.1831  3.7767  0.0116
  234SOL     OW  700   1.130   2.833   2.736  0.4177  0.6579  0.0245
  234SOL    HW1  701   1.179   2.818   2.826  1.4287 -0.6059  4.1469
  234SOL    HW2  702   1.120   2.934   2.721 -0.0738 -0.0954  0.2403
  235SOL     OW  703   2.475   0.002   0.214  0.3115 -0.5131  0.3043
  235SOL    HW1  704   2.492   2.977   0.207 -1.8162  0.7755  0.2886
  235SOL    HW2  705   2.394   0.018   0.151  0.6933  2.9223 -0.0414
  236SOL     OW  706   2.607   2.474   2.185 -0.2792 -0.6441  0.0268
  236SOL    HW1  707   2.683   2.537   2.153 -0.6750 -2.9579 -2.9311
  236SOL    HW2  708   2.643   2.391   2.236  0.3337 -0.1296  0.4462
  237SOL     OW  709   1.419   1.323   1.695 -0.4550 -1.1886  0.1247
  237SOL    HW1  710   1.505   1.328   1.741 -1.6486 -0.7384 -1.1270
  237SOL    HW2  711   1.388   1.420   1.672  0.9677 -1.8779 -0.5143
  238SOL     OW  712   2.032   0.346   2.334 -0.2068 -0.2949 -0.3526
  238SOL    HW1  713   2.063   0.361   2.238 -0.2424 -0.0614 -0.2958
  238SOL    HW2  714   2.014   0.439   2.378 -3.2723 -0.1815 -1.5432
  239SOL     OW  715   0.392   1.763   2.224 -0.8559 -0.4447  0.2773
  239SOL    HW1  716   0.489   1.740   2.244 -3.1225  3.1084 -0.8284
  239SOL    HW2  717   0.383   1.739   2.123  1.8072 -0.1733 -1.3668
  240SOL     OW  718   2.601   2.717   0.894 -0.0525 -0.2240 -0.1021
  240SOL    HW1  719   2.630   2.629   0.859  0.7035  0.9430  0.3106
  240SOL    HW2  720   2.668   2.790   0.858 -1.7475 -0.5417 -0.9911
  241SOL     OW  721   1.667   2.198   0.836 -0.2441 -0.2866  0.1351
  241SOL    HW1  722   1.662   2.109   0.885 -0.3088  1.8235 -2.2573
  241SOL    HW2  723   1.719   2.182   0.750  0.1147 -1.5108 -0.0833
  242SOL     OW  724   1.148   1.684   2.706 -0.3259  0.1864 -0.1130
  242SOL    HW1  725   1.188   1.724   2.795 -1.2597  1.8193  3.0713
  242SOL    HW2  726   1.043   1.675   2.714 -1.5160  0.4837 -0.9894
  243SOL     OW  727   0.854   2.582   2.224 -0.6804  0.2961 -0.3900
  243SOL    HW1  728   0.808   2.670   2.251 -0.7470  0.9283 -1.8213
  243SOL    HW2  729   0.934   2.560   2.281 -0.4340 -0.6975 -2.3898
  244SOL     OW  730   2.161   0.035   2.641  0.2849  0.0385 -0.0403
  244SOL    HW1  731   2.177   0.131   2.608  1.0345  1.6148  1.9704
  244SOL    HW2  732   2.105   0.032   2.727  0.2505  3.5192  2.2438
  245SOL     OW  733   1.390   2.682   0.372  0.8128 -0.2419  0.2904
  245SOL    HW1  734   1.376   2.614   0.446 -0.3340 -2.3937  1.0794
  245SOL    HW2  735   1.420   2.632   0.287  1.6597  2.0646  2.3852
  246SOL     OW  736   1.010   0.068   2.977  0.2551 -0.2035  0.7096
  246SOL    HW1  737   0.906   0.059   2.968 -0.1729  1.4836 -1.5661
  246SOL    HW2  738   1.045   0.007   3.048 -2.3950 -1.6973 -0.3731
  247SOL     OW  739   0.329   0.850   1.957  0.6576 -0.2290 -0.0804
  247SOL    HW1  740   0.409   0.911   1.952 -0.1398 -3.8823 -1.3702
  247SOL    HW2  741   0.329   0.782   1.878 -2.0937 -0.2233 -0.8263
  248SOL     OW  742   0.948   1.159   1.991  0.4154 -0.5745  0.2471
  248SOL    HW1  743   0.864   1.102   2.013 -1.1865  0.4103 -0.9278
  248SOL    HW2  744   0.994   1.123   1.907 -2.7788 -0.4756  0.1419
  249SOL     OW  745   2.128   0.437   0.344  0.7182 -0.4777 -0.0265
  249SOL    HW1  746   2.070   0.520   0.360  2.3985  0.5662 -3.5481
  249SOL    HW2  747   2.100   0.394   0.255  0.7287  0.5527  1.1248
  250SOL     OW  748   0.759   0.057   0.613 -0.0716 -0.2908  0.1094
  250SOL    HW1  749   0.684   3.074   0.649 -2.6575  0.2192  0.1745
  250SOL    HW2  750   0.786   0.030   0.517  2.1282 -1.5586  1.8380
  251SOL     OW  751   1.784   2.859   2.688  0.3388 -0.1414  0.1793
  251SOL    HW1  752   1.729   2.819   2.606 -0.6495 -0.8679 -2.7224
  251SOL    HW2  753   1.826   2.782   2.739  0.1913  0.4660 -2.7725
  252SOL     OW  754   1.604   1.310   2.259  0.0735  0.4156 -0.0980
  252SOL    HW1  755   1.601   1.288   2.359 -0.9334  0.5316 -0.2794
  252SOL    HW2  756   1.659   1.245   2.202 -1.4733  0.7413 -0.3632
  253SOL     OW  757   2.509   2.767   1.998 -0.1904  0.9941  0.1192
  253SOL    HW1  758   2.577   2.762   2.071  0.6162  0.6460 -1.2665
  253SOL    HW2  759   2.413   2.750   2.026  0.3275  0.4066 -1.8392
  254SOL     OW  760   0.740   1.625   1.204  0.9462  0.4100 -0.0937
  254SOL    HW1  761   0.826   1.577   1.227 -3.5204 -0.2362 -1.5034
  254SOL    HW2  762   0.673   1.620   1.277 -1.8095 -0.0700 -1.9195
  255SOL     OW  763   1.079   0.865   1.060 -0.2478 -0.0511  0.2418
  255SOL    HW1  764   1.009   0.922   1.017  0.5109 -1.2984  2.4502
  255SOL    HW2  765   1.108   0.903   1.152  1.2770 -3.1349 -0.2226
  256SOL     OW  766   1.962   2.160   2.072  0.2734 -0.2452  0.1673
  256SOL    HW1  767   1.956   2.206   2.166 -1.0195  1.1973  1.5735
  256SOL    HW2  768   2.028   2.085   2.058 -2.4565 -0.6819  2.2121
  257SOL     OW  769   0.122   2.907   2.981  0.1952 -0.1095 -0.4153
  257SOL    HW1  770   0.123   2.974   2.903 -1.6863 -2.4408  1.5706
  257SOL    HW2  771   0.158   2.822   2.947 -2.4483  1.5810  0.7287
  258SOL     OW  772   0.797   0.009   2.042 -0.5462  0.1968  0.1402
  258SOL    HW1  773   0.865   3.065   2.113 -0.6826  0.9792  0.1849
  258SOL    HW2  774   0.846   3.066   1.955  1.7693  0.6121 -1.3299
  259SOL     OW  775   0.998   3.075   2.226  0.5191 -0.4937  0.5943
  259SOL    HW1  776   1.083   0.002   2.171  2.1700  1.6126  1.2138
  259SOL    HW2  777   1.020   3.071   2.324  1.2098 -0.9157 -1.0914
  260SOL     OW  778   1.624   0.746   0.899 -0.4457 -0.0090 -0.1252
  260SOL    HW1  779   1.576   0.670   0.939  0.7839  1.4845 -0.8100
  260SOL    HW2  780   1.724   0.735   0.894  1.5073  1.0954 -0.9220
  261SOL     OW  781   0.339   0.449   2.752 -0.4786  0.3741  0.0089
  261SOL    HW1  782   0.358   0.363   2.801  1.8129 -0.6111 -0.2431
  261SOL    HW2  783   0.387   0.524   2.797 -0.0037 -0.5996  1.4875
  262SOL     OW  784   2.757   2.610   1.983  0.1285 -0.0934  0.1561
  262SOL    HW1  785   2.812   2.540   1.930  0.0416 -0.6040 -1.2472
  262SOL    HW2  786   2.751   2.703   1.936 -0.4724  2.7816 -0.1477
  263SOL     OW  787   2.861   1.754   2.041 -0.4868 -0.5144 -0.4890
  263SOL    HW1  788   2.822   1.830   2.097 -0.0414  2.4810  0.0605
  263SOL    HW2  789   2.906   1.680   2.096  2.4344 -2.0837 -2.4222
  264SOL     OW  790   0.810   1.203   0.954  0.5740  0.0611 -0.4117
  264SOL    HW1  791   0.802   1.285   0.889  1.0900 -1.0091  0.1574
  264SOL    HW2  792   0.823   1.228   1.050  1.5686  2.7073  1.4548
  265SOL     OW  793   0.364   1.959   0.073 -0.3271 -0.4303  0.1309
  265SOL    HW1  794   0.411   1.934   0.161 -1.7060  0.0507  2.3890
  265SOL    HW2  795   0.428   2.019   0.016  2.6265  3.6113  1.2924
  266SOL     OW  796   1.278   1.090   0.474  0.0726 -0.0123 -0.0514
  266SOL    HW1  797   1.303   1.062   0.383 -2.7422  0.8784  2.3643
  266SOL    HW2  798   1.195   1.037   0.516 -1.6742 -1.3678  1.2368
  267SOL     OW  799   2.983   1.286   0.112  0.1758  0.2873  0.4201
  267SOL    HW1  800   2.945   1.362   0.157 -0.1522 -1.4536 -0.3460
  267SOL    HW2  801   0.004   1.304   0.105 -3.9069 -3.4219 -1.2358
  268SOL     OW  802   2.258   0.223   3.015  0.4870 -0.0785  0.0523
  268SOL    HW1  803   2.295   0.253   2.929 -1.8477 -0.2654  0.7681
  268SOL    HW2  804   2.292   0.127   3.030 -0.1029  0.9947  3.8042
  269SOL     OW  805   1.564   0.402   2.567 -0.4867  0.1983 -0.1190
  269SOL    HW1  806   1.601   0.312   2.591 -0.8587 -0.2554  0.7537
  269SOL    HW2  807   1.600   0.440   2.477 -1.8115  1.6891 -0.2393
  270SOL     OW  808   0.908   1.011   2.920  0.2141  0.5701 -0.3990
  270SOL    HW1  809   0.822   0.985   2.969  0.5135  0.3289  2.9977
  270SOL    HW2  810   0.944   0.930   2.868  3.1676 -0.5033 -0.3446
  271SOL     OW  811   2.928   1.033   0.235 -0.6177 -0.5511  0.1591
  271SOL    HW1  812   2.942   0.954   0.171 -2.2661 -0.2481  0.6095
  271SOL    HW2  813   2.941   1.120   0.187 -2.3669  1.5358  1.7793
  272SOL     OW  814   2.970   1.533   2.842 -0.2223 -0.1889  0.4593
  272SOL    HW1  815   2.936   1.440   2.813 -2.4239 -1.1548 -1.3391
  272SOL    HW2  816   2.981   1.597   2.761 -1.0141  0.4775  0.2976
  273SOL     OW  817   2.445   2.964   0.669  0.3389  0.6141 -0.0281
  273SOL    HW1  818   2.430   3.062   0.641  0.5411 -0.3594 -1.1065
  273SOL    HW2  819   2.544   2.942   0.668 -2.8618 -0.1654 -0.2961
  274SOL     OW  820   0.424   2.410   0.950 -0.3771 -0.2038  0.0786
  274SOL    HW1  821   0.486   2.340   0.989 -0.5893  1.4442 -0.2217
  274SOL    HW2  822   0.452   2.501   0.987 -1.4383 -0.4028  2.5738
  275SOL     OW  823   2.397   1.301   0.376  0.4543 -0.1427  0.1058
  275SOL    HW1  824   2.430   1.329   0.280  3.0536 -0.0818 -2.1134
  275SOL    HW2  825   2.451   1.225   0.419  4.1088 -2.7697  1.0369
  276SOL     OW  826   2.912   1.268   2.393 -0.7004  0.0471  0.5107
  276SOL    HW1  827   2.988   1.234   2.448 -2.3003 -1.3909 -0.5424
  276SOL    HW2  828   2.830   1.216   2.418  2.8551  0.4564 -0.1074
  277SOL     OW  829   2.022   2.793   1.472 -0.3182  0.2686 -0.2705
  277SOL    HW1  830   2.116   2.769   1.438  2.7041 -2.2475 -0.9155
  277SOL    HW2  831   2.006   2.767   1.574 -1.6150 -3.6667 -0.5755
  278SOL     OW  832   1.274   0.029   2.180 -0.1773 -0.0148 -0.3001
  278SOL    HW1  833   1.317   0.089   2.106 -1.5496 -0.6153 -1.9200
  278SOL    HW2  834   1.294   0.060   2.272 -1.8509  2.5328  0.6084
  279SOL     OW  835   1.583   1.791   0.487 -0.2074 -0.1568  0.0311
  279SOL    HW1  836   1.591   1.818   0.584 -1.2847  0.5722 -0.3798
  279SOL    HW2  837   1.669   1.813   0.436  1.3000 -0.9290 -0.3663
  280SOL     OW  838   0.112   1.702   0.818 -0.5578  0.1557 -0.5969
  280SOL    HW1  839   0.212   1.724   0.837  1.4534 -1.1216  1.0741
  280SOL    HW2  840   0.062   1.663   0.899  1.2347 -0.1384 -0.1291
  281SOL     OW  841   2.871   0.468   2.424  0.0374  0.1081  0.3338
  281SOL    HW1  842   2.966   0.436   2.401 -0.6351  1.7352 -0.4212
  281SOL    HW2  843   2.827   0.407   2.490  1.6716  3.2550  1.2407
  282SOL     OW  844   0.643   0.808   0.593 -0.8147 -0.5919 -0.2333
  282SOL    HW1  845   0.579   0.735   0.574 -0.6154  1.6494  0.7730
  282SOL    HW2  846   0.591   0.891   0.577  1.3013 -0.8742  1.4153
  283SOL     OW  847   1.526   1.827   3.036 -0.2973 -0.1235 -0.3114
  283SOL    HW1  848   1.545   1.924   3.044 -0.9368 -0.0094 -1.0804
  283SOL    HW2  849   1.595   1.777   2.981 -3.6060  0.2027 -0.5194
  284SOL     OW  850   1.349   0.959   0.222  0.9114 -0.1592  0.1692
  284SOL    HW1  851   1.427   1.018   0.195  0.4505 -0.1751  0.3436
  284SOL    HW2  852   1.383   0.868   0.258  1.6766  0.2218  2.8412
  285SOL     OW  853   1.896   0.838   2.759  0.2351 -0.6514 -0.0327
  285SOL    HW1  854   1.856   0.842   2.666 -0.0969 -1.8691 -1.0910
  285SOL    HW2  855   1.854   0.760   2.813  2.0995 -0.7185 -1.8546
  286SOL     OW  856   1.631   2.695   1.427  0.2245 -0.4764  0.0388
  286SOL    HW1  857   1.649   2.608   1.467 -0.0197  2.8763  0.4164
  286SOL    HW2  858   1.679   2.712   1.341  0.6071  2.0822 -0.5284
  287SOL     OW  859   0.983   1.020   0.866 -0.0229 -0.2849 -0.0805
  287SOL    HW1  860   0.901   1.081   0.868  2.4386 -0.8510 -1.4307
  287SOL    HW2  861   0.997   0.982   0.770 -0.7838  0.3582 -2.6420
  288SOL     OW  862   0.900   2.790   0.321  1.0907  0.0148  0.5245
  288SOL    HW1  863   0.996   2.819   0.311  1.5407 -0.8811 -1.3510
  288SOL    HW2  864   0.887   2.695   0.342  3.1399  3.5866 -1.7344
  289SOL     OW  865   0.525   1.444   1.767 -0.1710  0.5213 -0.0745
  289SOL    HW1  866   0.592   1.489   1.830  0.5600  0.0143  0.4559
  289SOL    HW2  867   0.455   1.514   1.744  1.8757 -2.3270 -1.6345
  290SOL     OW  868   1.648   2.380   1.135  0.4059  0.1142  0.0721
  290SOL    HW1  869   1.616   2.293   1.164  0.5245  3.7611 -0.8020
  290SOL    HW2  870   1.577   2.459   1.148 -2.4325  3.0915  2.1127
  291SOL     OW  871   1.849   2.628   2.998 -0.1093 -0.3493  0.4741
  291SOL    HW1  872   1.918   2.661   2.927  2.3158 -1.8688 -1.8669
  291SOL    HW2  873   1.828   2.524   2.995 -0.8189 -3.2589  0.6994
  292SOL     OW  874   1.291   0.401   1.879 -0.7984 -0.1466  0.6253
  292SOL    HW1  875   1.352   0.438   1.805  1.3523  0.1050  1.4805
  292SOL    HW2  876   1.227   0.468   1.924 -0.8145  0.5524  3.0085
  293SOL     OW  877   1.824   2.458   0.848  0.3332  0.6489  0.0285
  293SOL    HW1  878   1.771   2.392   0.905 -0.4869  0.5395  0.5047
  293SOL    HW2  879   1.766   2.542   0.840  0.1054 -0.5696  0.5682
  294SOL     OW  880   0.403   0.798   2.475 -0.0598 -0.0082 -0.0360
  294SOL    HW1  881   0.310   0.769   2.489 -1.9203 -1.5523 -0.3162
  294SOL    HW2  882   0.470   0.718   2.477 -0.8773 -1.0307 -1.1762
  295SOL     OW  883   1.399   1.694   0.842  0.3718  0.0969  0.0851
  295SOL    HW1  884   1.433   1.601   0.824  1.9502  3.2876  1.9921
  295SOL    HW2  885   1.306   1.711   0.801  1.1017 -1.1302 -1.2158
  296SOL     OW  886   2.055   1.891   0.299  0.4662  0.5762  0.2420
  296SOL    HW1  887   2.134   1.933   0.263 -3.7187 -3.0498  0.7758
  296SOL    HW2  888   2.080   1.800   0.337 -0.3787  2.4170 -3.2913
  297SOL     OW  889   2.295   3.044   0.015  0.1676  0.2421  0.5144
  297SOL    HW1  890   2.198   3.027   0.032  1.1257  0.7885 -1.2049
  297SOL    HW2  891   2.328   2.981   3.012 -1.1004 -2.6214 -0.0676
  298SOL     OW  892   1.292   2.344   2.409  0.3109  0.3645  0.1554
  298SOL    HW1  893   1.285   2.291   2.500 -0.9532  1.1217  1.0867
  298SOL    HW2  894   1.386   2.343   2.378  1.2305 -0.4402  2.1537
  299SOL     OW  895   1.384   2.634   2.334 -0.5002  0.2577  0.6323
  299SOL    HW1  896   1.305   2.695   2.307  0.3529 -0.8915 -2.4121
  299SOL    HW2  897   1.376   2.608   2.430 -0.2469 -1.8921 -1.4919
  300SOL     OW  898   2.395   0.278   2.794 -0.0742 -0.5552 -0.1588
  300SOL    HW1  899   2.341   0.307   2.709  1.2555 -0.4185 -1.6495
  300SOL    HW2  900   2.486   0.323   2.805 -1.1706 -1.6419  0.7476
  301SOL     OW  901   1.661   0.744   2.190  0.6542  0.0770  0.2625
  301SOL    HW1  902   1.647   0.828   2.242 -0.0408 -3.3837 -0.0873
  301SOL    HW2  903   1.755   0.752   2.153 -0.5812  1.5902  0.0567
  302SOL     OW  904   2.490   2.331   0.279 -0.0101  0.5228 -0.0141
  302SOL    HW1  905   2.479   2.277   0.365 -0.1567  1.7770  0.1722
  302SOL    HW2  906   2.559   2.286   0.221 -0.9801  1.1476  1.4358
  303SOL     OW  907   2.937   2.601   2.290 -0.2028 -0.1739  0.3695
  303SOL    HW1  908   2.972   2.516   2.254  0.3226  2.8408  2.1618
  303SOL    HW2  909   2.852   2.570   2.333  0.5181 -0.8807 -1.8568
  304SOL     OW  910   2.776   0.576   1.484  0.2907  0.0155 -0.3724
  304SOL    HW1  911   2.716   0.650   1.505  0.0538 -3.2646 -3.4270
  304SOL    HW2  912   2.827   0.537   1.568  1.2905 -0.8452  1.4402
  305SOL     OW  913   0.730   2.179   1.613 -0.4049  0.0216  0.1320
  305SOL    HW1  914   0.718   2.190   1.512  1.2265  1.0342  0.6444
  305SOL    HW2  915   0.650   2.200   1.669  1.2922 -3.4291 -2.2082
  306SOL     OW  916   2.886   0.993   1.651  0.2896  0.0408 -0.2530
  306SOL    HW1  917   2.837   1.039   1.576 -2.0986 -0.3390 -0.3531
  306SOL    HW2  918   2.972   0.953   1.613  1.0925 -0.8092 -1.4555
  307SOL     OW  919   1.572   0.720   1.770  0.8830 -0.1538  0.1494
  307SOL    HW1  920   1.538   0.705   1.864  0.5810 -0.2636 -1.3847
  307SOL    HW2  921   1.517   0.665   1.701 -3.1210  0.9964 -3.5822
  308SOL     OW  922   2.712   1.372   1.119  0.0178 -0.1945  0.1099
  308SOL    HW1  923   2.765   1.364   1.028  0.0189  0.3816 -1.0998
  308SOL    HW2  924   2.627   1.427   1.109  3.4325 -0.1928 -1.8178
  309SOL     OW  925   2.439   1.388   0.796  0.2063 -0.0830 -0.0105
  309SOL    HW1  926   2.337   1.407   0.811 -0.5859  1.6315  1.7804
  309SOL    HW2  927   2.489   1.388   0.883 -0.0674 -0.5092  1.9469
  310SOL     OW  928   2.640   1.672   2.555  0.4083  0.0344 -0.4197
  310SOL    HW1  929   2.679   1.750   2.609 -1.4915  0.1657  1.4749
  310SOL    HW2  930   2.597   1.604   2.613  1.8184  0.5394  0.0604
  311SOL     OW  931   0.029   2.609   2.671  0.1974 -0.0996  0.0744
  311SOL    HW1  932   3.006   2.585   2.685 -1.9690  1.1754 -0.7272
  311SOL    HW2  933   0.079   2.622   2.760  2.5729 -0.0061  1.6455
  312SOL     OW  934   1.886   1.737   0.777  0.1168  0.0102 -0.2284
  312SOL    HW1  935   1.883   1.731   0.679  2.2902  1.6580  0.1746
  312SOL    HW2  936   1.820   1.667   0.815 -0.6201 -1.2284 -0.7017
  313SOL     OW  937   2.640   0.047   0.951 -0.1414 -0.4295 -0.2802
  313SOL    HW1  938   2.541   0.064   0.961 -2.0559  1.9563 -1.1306
  313SOL    HW2  939   2.685   0.127   0.900  3.0582  1.0173 -0.9230
  314SOL     OW  940   1.300   1.290   0.227 -0.8945 -0.0924 -0.3654
  314SOL    HW1  941   1.377   1.282   0.295 -0.6138 -0.7820  1.8781
  314SOL    HW2  942   1.313   1.234   0.140  0.5191 -1.3142  0.3856
  315SOL     OW  943   1.493   2.435   2.175 -0.1625  0.3813  0.2800
  315SOL    HW1  944   1.461   2.525   2.219 -0.3462  0.4045  0.1830
  315SOL    HW2  945   1.503   2.431   2.076  2.4334 -1.3590  0.9747
  316SOL     OW  946   2.976   0.853   0.672 -0.7428  0.0882 -0.5094
  316SOL    HW1  947   2.987   0.931   0.605  1.3871  2.6584  0.3946
  316SOL    HW2  948   3.008   0.875   0.768  1.2771 -1.9631  0.7367
  317SOL     OW  949   0.492   3.040   0.400  0.3338  0.0889 -0.1697
  317SOL    HW1  950   0.462   3.048   0.497 -1.0214 -0.0098 -3.5695
  317SOL    HW2  951   0.592   3.023   0.395 -1.1603 -0.3559  0.7110
  318SOL     OW  952   2.217   2.449   0.530  0.0405 -0.4555  0.3229
  318SOL    HW1  953   2.205   2.350   0.501  0.2872  1.0539  0.7192
  318SOL    HW2  954   2.230   2.507   0.452  0.3239 -3.6724  2.5558
  319SOL     OW  955   0.863   1.287   2.552  0.2097 -0.1143 -0.2671
  319SOL    HW1  956   0.775   1.310   2.591  2.9060 -2.0661 -2.2067
  319SOL    HW2  957   0.887   1.344   2.470  2.5595 -1.2946 -1.8235
  320SOL     OW  958   0.102   2.621   1.986  0.5875  0.3645 -0.1671
  320SOL    HW1  959   0.113   2.677   2.068  1.9887 -3.6611 -2.0900
  320SOL    HW2  960   0.065   2.666   1.905  3.2718 -0.7377  2.0876
  321SOL     OW  961   1.541   2.397   2.924  0.0570 -0.1444 -0.2867
  321SOL    HW1  962   1.635   2.366   2.950  2.4659 -2.3149  0.2421
  321SOL    HW2  963   1.498   2.333   2.859 -0.9133  0.0692 -2.2786
  322SOL     OW  964   3.064   1.373   2.194  0.1534 -0.3140 -0.2910
  322SOL    HW1  965   3.015   1.324   2.267 -0.6001 -0.6234  2.2590
  322SOL    HW2  966   3.042   1.332   2.103 -1.9671  0.7100 -0.1890
  323SOL     OW  967   2.518   1.054   0.497  0.8493 -0.4948 -0.5082
  323SOL    HW1  968   2.415   1.055   0.511 -0.1249  0.8508  0.6831
  323SOL    HW2  969   2.545   1.004   0.416 -0.5238  0.8557  0.4900
  324SOL     OW  970   2.846   0.069   2.862  0.0798  0.1342  0.5681
  324SOL    HW1  971   2.744   0.062   2.862  0.2688 -0.4568 -0.3358
  324SOL    HW2  972   2.885   3.074   2.921  0.0895 -1.7732 -0.6796
  325SOL     OW  973   1.396   0.149   2.410  0.4619 -0.1156 -0.6946
  325SOL    HW1  974   1.485   0.097   2.404  2.3315  0.0393 -0.1312
  325SOL    HW2  975   1.357   0.145   2.506 -1.5062 -0.0679 -0.1279
  326SOL     OW  976   2.382   2.808   1.558 -0.5913 -0.5407  0.1675
  326SOL    HW1  977   2.349   2.903   1.563 -0.0555  1.9533  1.7807
  326SOL    HW2  978   2.425   2.778   1.646  1.6681  0.6332  0.1851
  327SOL     OW  979   1.890   0.137   2.853 -0.3175 -0.3709  0.2147
  327SOL    HW1  980   1.944   0.051   2.863 -0.7381 -0.0965  0.4641
  327SOL    HW2  981   1.831   0.159   2.930 -0.5505  0.6012 -1.8998
  328SOL     OW  982   2.914   0.996   2.159 -0.0965  0.0377  0.3564
  328SOL    HW1  983   3.015   1.012   2.164  0.9514  0.3898  3.1818
  328SOL    HW2  984   2.862   1.024   2.243  2.4787 -1.7416 -3.2103
  329SOL     OW  985   1.717   0.075   1.787  0.0071 -0.0922  0.1986
  329SOL    HW1  986   1.691   0.172   1.793  0.4270 -4.9697  0.5497
  329SOL    HW2  987   1.761   0.054   1.880 -2.2932  2.2584  1.2947
  330SOL     OW  988   2.760   1.681   1.343 -0.2987  0.0902  0.0661
  330SOL    HW1  989   2.811   1.598   1.370  0.7591  2.4861  0.0361
  330SOL    HW2  990   2.744   1.736   1.425  0.6520 -0.3467 -0.4434
  331SOL     OW  991   0.636   1.660   2.284  0.3910  0.1644 -0.5861
  331SOL    HW1  992   0.710   1.730   2.263  4.5325  0.7457  0.6254
  331SOL    HW2  993   0.658   1.566   2.249 -0.0983  1.7049 -0.0389
  332SOL     OW  994   0.208   2.839   1.393 -0.1055  0.0005 -0.2029
  332SOL    HW1  995   0.240   2.834   1.492  0.3418  0.4115  2.4172
  332SOL    HW2  996   0.200   2.934   1.361 -1.5329  0.5124  0.8967
  333SOL     OW  997   2.235   2.727   1.343  0.4687 -0.0086  0.1969
  333SOL    HW1  998   2.297   2.760   1.420 -0.6913 -1.1970  0.0574
  333SOL    HW2  999   2.264   2.633   1.306 -1.6784 -0.1976 -1.3026
  334SOL     OW 1000   0.752   1.885   1.128  0.0204 -0.6238 -0.2351
  334SOL    HW1 1001   0.786   1.789   1.123  0.1432 -0.5274 -0.0880
  334SOL    HW2 1002   0.813   1.943   1.072  2.0941  1.8934 -2.3192
  335SOL     OW 1003   0.106   2.464   3.050 -0.5750  0.6038  0.1988
  335SOL    HW1 1004   0.118   2.426   0.066 -0.7529  1.3745 -0.9979
  335SOL    HW2 1005   0.016   2.437   3.009 -0.3790 -0.6060 -2.8329
  336SOL     OW 1006   0.218   0.057   2.156  0.3788  0.6087 -0.5221
  336SOL    HW1 1007   0.228   0.045   2.257  1.8030 -1.1360  1.5047
  336SOL    HW2 1008   0.295   0.111   2.113 -0.3227 -0.4554 -2.4113
  337SOL     OW 1009   2.439   1.849   2.833 -0.9779 -0.3585 -0.0659
  337SOL    HW1 1010   2.383   1.844   2.913  0.9945  0.9542 -2.8913
  337SOL    HW2 1011   2.527   1.900   2.863 -0.5522  0.7697  0.4644
  338SOL     OW 1012   1.075   1.676   1.211 -0.1569 -0.3236 -0.1545
  338SOL    HW1 1013   1.107   1.772   1.197  0.4469 -3.0190  0.8517
  338SOL    HW2 1014   1.048   1.643   1.117 -0.7438  1.6046  0.1381
  339SOL     OW 1015   0.027   0.604   1.816 -0.1931 -0.3831 -0.4276
  339SOL    HW1 1016   3.026   0.559   1.863 -0.9605  0.6186  0.0533
  339SOL    HW2 1017   0.083   0.654   1.890 -1.9848  3.5878 -0.9840
  340SOL     OW 1018   1.397   2.529   0.110  0.1999 -0.4175  0.1745
  340SOL    HW1 1019   1.341   2.462   0.165 -1.0190 -0.9267 -1.9086
  340SOL    HW2 1020   1.462   2.484   0.047 -1.9816  1.3590 -0.6262
  341SOL     OW 1021   1.713   1.610   1.213 -0.4127 -0.0204  0.4962
  341SOL    HW1 1022   1.700   1.632   1.314 -1.1989  0.4226  1.2306
  341SOL    HW2 1023   1.628   1.574   1.184 -0.9613 -1.7908  1.7240
  342SOL     OW 1024   2.869   2.483   0.486  0.3713 -0.2782  0.2694
  342SOL    HW1 1025   2.780   2.486   0.433 -1.0417  2.0239 -2.1813
  342SOL    HW2 1026   2.933   2.533   0.424  1.6605 -0.6680 -1.4951
  343SOL     OW 1027   1.397   2.509   1.129  0.0009 -1.0069  0.4325
  343SOL    HW1 1028   1.396   2.608   1.161  2.5153  1.2023  3.0792
  343SOL    HW2 1029   1.316   2.461   1.152  0.8496 -1.1354 -0.6235
  344SOL     OW 1030   2.078   2.668   0.841 -0.4761 -0.4578  0.1431
  344SOL    HW1 1031   2.044   2.710   0.756  0.4236 -1.0330  2.1102
  344SOL    HW2 1032   2.171   2.710   0.858  0.7979  0.1573  1.8154
  345SOL     OW 1033   2.739   1.910   2.653  0.2153 -0.3759  0.2405
  345SOL    HW1 1034   2.703   1.951   2.739 -0.6896 -0.6942  1.0009
  345SOL    HW2 1035   2.838   1.913   2.662 -0.2462 -1.7847  1.2035
  346SOL     OW 1036   2.715   1.734   0.921  0.4182  0.4551  0.1991
  346SOL    HW1 1037   2.668   1.761   1.009  0.3693 -0.5003  1.0196
  346SOL    HW2 1038   2.741   1.633   0.918  1.9888  1.3409 -2.0351
  347SOL     OW 1039   1.997   2.453   1.423 -0.5015 -0.0548  0.2872
  347SOL    HW1 1040   2.062   2.456   1.509  1.8151 -0.3039  2.2076
  347SOL    HW2 1041   1.972   2.545   1.388 -1.8157 -0.8546 -0.6952
  348SOL     OW 1042   0.881   1.644   2.656  0.3034 -0.2129 -0.9227
  348SOL    HW1 1043   0.793   1.657   2.607  0.4732  0.9444  1.7012
  348SOL    HW2 1044   0.861   1.613   2.749  0.8994 -0.0088 -1.3832
  349SOL     OW 1045   2.295   1.311   1.872 -0.2662  0.8951  0.2929
  349SOL    HW1 1046   2.221   1.277   1.811  0.1131  0.9425 -0.6066
  349SOL    HW2 1047   2.288   1.411   1.874 -1.4857 -0.8327 -0.3870
  350SOL     OW 1048   0.178   2.339   1.057 -0.1857  0.2158  0.3619
  350SOL    HW1 1049   0.271   2.371   1.019  1.9391  2.5600 -1.5789
  350SOL    HW2 1050   0.180   2.240   1.083 -1.6423 -0.0082  1.8499
  351SOL     OW 1051   0.390   0.506   2.380 -0.2853  0.5053  0.5851
  351SOL    HW1 1052   0.328   0.579   2.404 -0.6696  0.8551 -0.8457
  351SOL    HW2 1053   0.374   0.423   2.436 -1.5655  1.2777  2.1061
  352SOL     OW 1054   0.719   2.229   1.327 -0.2569  0.5822  0.3909
  352SOL    HW1 1055   0.725   2.326   1.329  1.3058 -2.0760 -2.4587
  352SOL    HW2 1056   0.627   2.199   1.283 -0.2179 -3.1952  0.4714
  353SOL     OW 1057   1.350   1.398   2.407 -0.2326  0.5775  0.5230
  353SOL    HW1 1058   1.261   1.371   2.441 -1.1681  1.1243  1.5046
  353SOL    HW2 1059   1.352   1.387   2.305 -1.0914  0.5360  1.2658
  354SOL     OW 1060   1.474   0.798   0.545 -0.4139  0.4391  0.0615
  354SOL    HW1 1061   1.548   0.728   0.558  0.9657  1.3165  0.9950
  354SOL    HW2 1062   1.395   0.754   0.512  2.8572  2.8837  0.1763
  355SOL     OW 1063   2.700   0.796   0.547  0.7307 -0.1900 -0.0039
  355SOL    HW1 1064   2.733   0.765   0.456 -1.7894 -1.0321  0.7824
  355SOL    HW2 1065   2.753   0.877   0.583 -0.4660 -1.0780  2.7061
  356SOL     OW 1066   2.553   1.227   2.784  0.0600  0.3160 -0.6478
  356SOL    HW1 1067   2.619   1.152   2.766  0.5026 -2.5870 -0.3070
  356SOL    HW2 1068   2.465   1.184   2.810  0.2314 -1.9644 -0.6012
  357SOL     OW 1069   0.746   2.505   1.347  0.0541  0.1575 -0.4964
  357SOL    HW1 1070   0.736   2.541   1.255 -1.4681  0.4826  3.1821
  357SOL    HW2 1071   0.798   2.575   1.408 -0.5642  0.4126  0.6280
  358SOL     OW 1072   2.149   1.171   2.110 -0.0613 -0.1476  0.4690
  358SOL    HW1 1073   2.093   1.222   2.044 -1.1932 -1.6507  0.1471
  358SOL    HW2 1074   2.137   1.075   2.084 -2.5141  2.9764  0.3353
  359SOL     OW 1075   2.142   2.289   3.070  0.3100 -0.0799  0.2043
  359SOL    HW1 1076   2.192   2.366   0.042  3.6519 -0.3624  1.7400
  359SOL    HW2 1077   2.136   2.310   2.970 -3.3373  1.6909  0.4682
  360SOL     OW 1078   2.132   0.366   0.830 -0.1066  1.0268  0.3221
  360SOL    HW1 1079   2.200   0.414   0.888 -0.1265 -2.3937 -0.2084
  360SOL    HW2 1080   2.087   0.429   0.761  1.8183  1.5995 -0.3629
  361SOL     OW 1081   1.945   3.008   0.951 -0.1475 -0.9766  0.0405
  361SOL    HW1 1082   2.014   2.939   0.964 -0.2355  1.3173 -0.3299
  361SOL    HW2 1083   1.857   2.966   0.922 -2.5498 -1.8137  0.1117
  362SOL     OW 1084   1.519   1.163   0.569 -0.4366 -0.2270 -0.2923
  362SOL    HW1 1085   1.430   1.132   0.527  0.7335 -0.4479  0.5285
  362SOL    HW2 1086   1.504   1.188   0.667 -0.5356  2.3662 -1.7381
  363SOL     OW 1087   2.347   1.575   2.366 -0.1937 -0.0272  0.1448
  363SOL    HW1 1088   2.357   1.472   2.369  1.3412  1.1451  2.6878
  363SOL    HW2 1089   2.367   1.628   2.450 -1.7430 -1.6437 -2.1421
  364SOL     OW 1090   1.255   0.725   1.384 -0.5748  0.2578 -0.2711
  364SOL    HW1 1091   1.327   0.712   1.310 -0.2748 -2.4626 -1.6736
  364SOL    HW2 1092   1.169   0.704   1.344  4.1286 -0.1630  1.4329
  365SOL     OW 1093   0.273   2.899   0.996 -0.6268 -0.3923 -0.2845
  365SOL    HW1 1094   0.206   2.970   1.025  1.1883 -1.1727  0.3536
  365SOL    HW2 1095   0.235   2.802   0.981 -0.4367 -1.7984 -2.3990
  366SOL     OW 1096   2.713   1.533   0.354 -0.0822  0.1023  0.2423
  366SOL    HW1 1097   2.715   1.504   0.453 -2.1907 -0.0285  1.4795
  366SOL    HW2 1098   2.689   1.634   0.347 -1.6290 -1.5127  1.1193
  367SOL     OW 1099   2.911   2.393   2.960 -0.0796 -0.1620  0.5668
  367SOL    HW1 1100   2.899   2.431   2.863  0.4793 -0.4474 -3.6278
  367SOL    HW2 1101   2.821   2.382   3.004  1.7175  2.2724 -1.4361
  368SOL     OW 1102   0.151   2.029   0.864 -0.3241 -0.2597 -0.1174
  368SOL    HW1 1103   0.171   1.945   0.808 -0.0868 -2.0039  0.6830
  368SOL    HW2 1104   0.085   2.087   0.811 -0.7011 -0.9880 -2.3387
  369SOL     OW 1105   0.477   0.180   0.205 -0.2349 -0.1657  0.5897
  369SOL    HW1 1106   0.473   0.081   0.226 -1.1263  2.2706 -1.9379
  369SOL    HW2 1107   0.571   0.211   0.186 -4.6451 -1.7387 -0.0344
  370SOL     OW 1108   0.323   0.886   1.405  0.0501 -0.0322 -0.0562
  370SOL    HW1 1109   0.352   0.791   1.432  0.0298 -0.2089  0.7035
  370SOL    HW2 1110   0.327   0.948   1.486  1.0792  0.3730  1.2853
  371SOL     OW 1111   1.942   2.417   0.577  0.1975 -0.7676 -0.3544
  371SOL    HW1 1112   2.036   2.445   0.549 -1.3960  2.0893  2.3720
  371SOL    HW2 1113   1.918   2.440   0.675 -0.0795  2.4241  0.0247
  372SOL     OW 1114   0.347   1.090   2.742 -0.1969  0.2910 -0.5774
  372SOL    HW1 1115   0.392   1.148   2.671 -1.8560 -0.9907  0.1621
  372SOL    HW2 1116   0.279   1.139   2.797  1.0170 -2.1371 -1.0489
  373SOL     OW 1117   2.613   1.465   0.605  0.7633 -0.6370 -0.0782
  373SOL    HW1 1118   2.611   1.565   0.631  0.9808 -1.6652  2.8516
  373SOL    HW2 1119   2.531   1.418   0.640  1.5382 -1.7681  0.4776
  374SOL     OW 1120   0.378   2.385   0.332 -0.7769  0.1207 -0.1009
  374SOL    HW1 1121   0.384   2.282   0.340  0.6545 -1.9995  0.1429
  374SOL    HW2 1122   0.392   2.416   0.237  1.8400  0.3906  0.4527
  375SOL     OW 1123   0.761   0.299   0.066  0.3297  0.4290  0.0242
  375SOL    HW1 1124   0.838   0.267   0.123  0.3920 -0.1807 -0.3964
  375SOL    HW2 1125   0.715   0.373   0.116 -1.6224 -1.5097 -3.0725
  376SOL     OW 1126   0.416   2.900   1.885 -0.0437 -0.1252 -0.3334
  376SOL    HW1 1127   0.443   2.990   1.928 -2.2453 -2.0759  0.2546
  376SOL    HW2 1128   0.320   2.882   1.904 -1.0580  1.1760  0.2666
  377SOL     OW 1129   0.901   2.286   2.342  0.5233 -0.1080 -0.4410
  377SOL    HW1 1130   0.973   2.217   2.335  2.3585  0.7105  0.9607
  377SOL    HW2 1131   0.940   2.380   2.333  1.6296 -0.8733 -0.0952
  378SOL     OW 1132   1.062   0.946   0.561 -0.0918 -0.3197  0.1100
  378SOL    HW1 1133   0.968   0.948   0.529 -0.1950  0.6811 -0.0831
  378SOL    HW2 1134   1.098   0.849   0.558  0.5630 -1.1168  0.8726
  379SOL     OW 1135   0.729   1.801   2.966  0.0301  0.0025 -0.1986
  379SOL    HW1 1136   0.770   1.706   2.964  1.6219 -1.8158 -0.5168
  379SOL    HW2 1137   0.776   1.862   2.894  0.4959  1.5043  2.4684
  380SOL     OW 1138   2.884   1.822   1.598 -0.2716 -0.1035  0.1111
  380SOL    HW1 1139   2.844   1.817   1.690  0.6242 -0.5650 -1.7565
  380SOL    HW2 1140   2.964   1.882   1.598 -0.0232  0.0430  0.8242
  381SOL     OW 1141   0.108   1.035   1.875  0.1164 -0.4062 -0.5304
  381SOL    HW1 1142   0.206   1.064   1.875 -2.9368  1.8011  0.4669
  381SOL    HW2 1143   0.083   0.997   1.786  1.4025  1.8551 -1.3150
  382SOL     OW 1144   2.486   2.274   2.930 -0.1530 -0.5910 -0.0451
  382SOL    HW1 1145   2.436   2.338   2.867  0.3197  1.9764 -1.6451
  382SOL    HW2 1146   2.538   2.337   2.995  0.4088  2.6177 -1.2918
  383SOL     OW 1147   2.333   2.018   2.055 -0.3522 -0.1391 -0.1995
  383SOL    HW1 1148   2.421   1.974   2.072 -0.5804  1.2481 -0.3238
  383SOL    HW2 1149   2.353   2.122   2.065  2.9200  2.0904 -0.5523
  384SOL     OW 1150   0.712   2.247   2.111 -0.0848 -0.2681  0.0938
  384SOL    HW1 1151   0.758   2.265   2.200  1.5845  0.1841 -2.7792
  384SOL    HW2 1152   0.716   2.331   2.054  1.4344  0.2662  0.9349
  385SOL     OW 1153   2.526   2.012   1.000  0.3892 -0.2791 -0.0531
  385SOL    HW1 1154   2.430   1.995   0.986  1.2794  2.5836  0.5627
  385SOL    HW2 1155   2.571   1.932   1.045 -2.0676 -0.5081  0.7012
  386SOL     OW 1156   1.818   0.565   0.033  0.1480  0.4102  0.0668
  386SOL    HW1 1157   1.916   0.594   0.028  1.1225 -1.7154 -2.2462
  386SOL    HW2 1158   1.764   0.598   0.111  1.2461 -0.0547 -2.5964
  387SOL     OW 1159   0.612   0.638   1.899 -0.0126 -0.1830  0.2336
  387SOL    HW1 1160   0.536   0.651   1.828 -0.2714  2.4092 -3.5280
  387SOL    HW2 1161   0.580   0.596   1.991  0.6164  1.8904  2.6867
  388SOL     OW 1162   2.787   1.044   1.914 -0.5550 -0.0884 -0.2279
  388SOL    HW1 1163   2.830   1.005   1.828  1.6721  1.4427 -0.7991
  388SOL    HW2 1164   2.842   1.023   1.993  1.1266  0.9985 -2.5458
  389SOL     OW 1165   1.629   0.522   2.348  0.2356 -0.6401 -0.2417
  389SOL    HW1 1166   1.624   0.609   2.291  0.3664  1.6805  0.5725
  389SOL    HW2 1167   1.587   0.446   2.302  1.4347  2.2387 -0.7301
  390SOL     OW 1168   1.744   2.371   0.227 -0.1343  0.2544  0.3701
  390SOL    HW1 1169   1.841   2.343   0.250 -4.6314 -4.6823  0.4857
  390SOL    HW2 1170   1.705   2.414   0.312  0.2655 -0.3025  3.4460
  391SOL     OW 1171   1.884   2.829   1.253  0.0039  0.2554  0.2197
  391SOL    HW1 1172   1.912   2.770   1.175  1.2927  0.8998  0.6081
  391SOL    HW2 1173   1.929   2.793   1.340  2.7257 -0.1644 -0.4502
  392SOL     OW 1174   2.658   2.475   1.257 -0.6450  0.7788  0.1365
  392SOL    HW1 1175   2.619   2.570   1.271 -0.4870 -0.0337  0.7453
  392SOL    HW2 1176   2.614   2.434   1.176  2.4270  2.6496  0.4222
  393SOL     OW 1177   1.727   1.717   2.868 -0.2163 -0.4425  0.4559
  393SOL    HW1 1178   1.798   1.794   2.869  1.7250  1.2237  0.7610
  393SOL    HW2 1179   1.782   1.632   2.865  0.7685  1.0107 -2.3436
  394SOL     OW 1180   0.170   2.751   0.135  0.2594  0.2366 -0.1053
  394SOL    HW1 1181   0.139   2.815   0.063 -1.9565  0.5415 -0.0072
  394SOL    HW2 1182   0.256   2.793   0.177  2.7188  1.7998 -0.1346
  395SOL     OW 1183   1.277   1.201   1.272  0.1990  0.0262  0.3869
  395SOL    HW1 1184   1.375   1.177   1.264 -1.9216 -1.0541  2.3764
  395SOL    HW2 1185   1.250   1.260   1.190  0.0567  0.0019 -2.8778
  396SOL     OW 1186   1.801   0.602   2.851 -0.4030  0.1582 -0.3718
  396SOL    HW1 1187   1.709   0.597   2.806  0.4022 -1.1880  0.1389
  396SOL    HW2 1188   1.791   0.593   2.952  0.7170  1.1567 -1.4746
  397SOL     OW 1189   0.129   0.960   2.619  0.0299 -0.2567  0.0295
  397SOL    HW1 1190   0.112   1.021   2.541 -0.3923 -1.7789  1.1613
  397SOL    HW2 1191   0.207   0.991   2.676  4.7273  0.4747 -0.9445
  398SOL     OW 1192   1.215   0.398   0.165 -0.4540  0.4190  0.6214
  398SOL    HW1 1193   1.316   0.403   0.159 -1.9743  2.4559 -1.5001
  398SOL    HW2 1194   1.180   0.360   0.077  3.0355  0.8593  0.3493
  399SOL     OW 1195   2.205   2.886   1.908  0.1804  0.7165 -0.0416
  399SOL    HW1 1196   2.294   2.904   1.859 -0.6509 -0.0226  0.7371
  399SOL    HW2 1197   2.177   2.791   1.889  1.4501  1.5600 -1.4594
  400SOL     OW 1198   2.994   1.628   2.273  0.0629 -0.1839  0.3839
  400SOL    HW1 1199   3.041   1.550   2.235 -0.4375  0.7674 -2.4790
  400SOL    HW2 1200   2.943   1.598   2.357 -0.9390  2.1955 -0.5715
  401SOL     OW 1201   0.734   0.102   2.957  0.6136  0.1793  0.0412
  401SOL    HW1 1202   0.746   0.187   3.013 -0.9180 -0.2346 -0.9074
  401SOL    HW2 1203   0.680   0.126   2.878  2.4679  0.5835 -0.0913
  402SOL     OW 1204   0.447   2.425   1.500 -0.1909 -0.0722  0.4196
  402SOL    HW1 1205   0.441   2.394   1.403  1.0517 -1.6991 -2.0643
  402SOL    HW2 1206   0.543   2.460   1.513  2.9356  1.4813 -3.9052
  403SOL     OW 1207   0.533   1.587   1.447 -0.1186  0.5158  0.2589
  403SOL    HW1 1208   0.577   1.495   1.445  0.9290 -1.0344 -0.1123
  403SOL    HW2 1209   0.602   1.647   1.487 -0.7704 -2.1213 -2.7574
  404SOL     OW 1210   2.809   2.776   1.751 -0.1567  0.5513  0.6983
  404SOL    HW1 1211   2.723   2.765   1.700  1.5955 -2.1311 -2.7016
  404SOL    HW2 1212   2.833   2.873   1.776 -1.1821  0.3807  0.5210
  405SOL     OW 1213   2.758   0.543   2.189 -0.0605  0.0802  0.2911
  405SOL    HW1 1214   2.669   0.508   2.219  2.8995  2.3468 -1.9852
  405SOL    HW2 1215   2.821   0.542   2.268  0.7208 -0.7734 -0.4846
  406SOL     OW 1216   1.809   2.374   3.048  0.4728 -0.3430  0.1055
  406SOL    HW1 1217   1.761   2.363   0.066  0.0185 -0.6368 -1.1463
  406SOL    HW2 1218   1.882   2.299   3.043  2.4440  1.1055 -2.8796
  407SOL     OW 1219   1.778   1.951   0.921 -0.2441  0.0757  0.4977
  407SOL    HW1 1220   1.831   1.888   0.857  0.6024 -0.1202 -1.0764
  407SOL    HW2 1221   1.792   1.924   1.019  0.3512  0.5716  0.4430
  408SOL     OW 1222   0.654   0.153   2.241  0.2486  0.6510  0.2177
  408SOL    HW1 1223   0.693   0.233   2.285 -0.7135 -2.6070  0.7540
  408SOL    HW2 1224   0.705   0.135   2.153 -0.0892 -0.5184  1.8839
  409SOL     OW 1225   2.519   2.148   0.471  0.3013  0.0042 -0.2728
  409SOL    HW1 1226   2.457   2.077   0.509  2.3275  1.3116 -0.9321
  409SOL    HW2 1227   2.616   2.141   0.497 -1.1953 -1.1807 -0.7634
  410SOL     OW 1228   2.321   1.543   0.490 -0.9856  0.0755 -0.4851
  410SOL    HW1 1229   2.380   1.465   0.448  0.0507 -1.0349  0.0197
  410SOL    HW2 1230   2.373   1.633   0.478 -2.3353 -1.6452  1.6734
  411SOL     OW 1231   0.029   0.608   0.632  0.2839 -0.2094 -0.5699
  411SOL    HW1 1232   0.127   0.599   0.660 -3.0679 -1.7443 -1.8344
  411SOL    HW2 1233   3.069   0.702   0.638  2.6851 -1.2809  0.8462
  412SOL     OW 1234   1.705   0.701   0.274  0.1023 -0.2956 -0.1706
  412SOL    HW1 1235   1.605   0.704   0.280 -1.4429 -0.6456 -1.8729
  412SOL    HW2 1236   1.732   0.802   0.254  0.5444  2.7738 -1.2525
  413SOL     OW 1237   0.742   0.855   1.325  0.3985  0.2234  0.0398
  413SOL    HW1 1238   0.664   0.820   1.379  1.6952  1.6142 -0.5417
  413SOL    HW2 1239   0.772   0.941   1.365 -1.0546 -0.6383 -0.9377
  414SOL     OW 1240   0.247   1.476   2.964  0.1167 -0.5899 -0.1609
  414SOL    HW1 1241   0.198   1.488   3.054 -0.0709 -1.4427  1.2890
  414SOL    HW2 1242   0.215   1.546   2.893 -0.5117  0.4635 -1.0671
  415SOL     OW 1243   0.132   1.813   0.114 -0.2653  0.3527  0.2407
  415SOL    HW1 1244   0.219   1.866   0.102  2.6255  0.5240 -1.3195
  415SOL    HW2 1245   0.131   1.726   0.063 -0.3544 -0.1275 -0.2203
  416SOL     OW 1246   1.781   0.974   0.247  0.2136 -0.1892 -0.0542
  416SOL    HW1 1247   1.830   1.003   0.333  2.1336 -0.2421 -0.2834
  416SOL    HW2 1248   1.692   1.024   0.232 -4.1387  0.3686 -2.1965
  417SOL     OW 1249   0.240   0.765   0.923 -0.2953 -0.7384 -0.5582
  417SOL    HW1 1250   0.198   0.804   1.009  1.6818  1.6378 -0.1419
  417SOL    HW2 1251   0.289   0.843   0.875 -1.5259 -1.6169 -0.6311
  418SOL     OW 1252   2.243   1.175   2.616 -0.2077 -0.4712 -0.1005
  418SOL    HW1 1253   2.157   1.125   2.597 -0.0917  0.1121 -1.3501
  418SOL    HW2 1254   2.281   1.155   2.712  1.5828 -1.3320  4.1077
  419SOL     OW 1255   0.354   0.393   0.315 -0.0370  0.1197 -0.1421
  419SOL    HW1 1256   0.407   0.454   0.379 -2.0117 -0.3044  1.0171
  419SOL    HW2 1257   0.399   0.305   0.286 -1.3508  3.1786 -0.4422
  420SOL     OW 1258   0.391   1.488   0.691 -0.3454 -0.6971  0.3573
  420SOL    HW1 1259   0.356   1.501   0.785  0.1236  3.8724  2.4368
  420SOL    HW2 1260   0.357   1.560   0.629 -0.4575 -0.8025 -0.3860
  421SOL     OW 1261   0.398   2.106   0.381 -0.3281  0.4665  0.2638
  421SOL    HW1 1262   0.411   2.103   0.481  0.2828  0.5518 -0.1312
  421SOL    HW2 1263   0.459   2.035   0.335  0.6365 -0.1917 -1.2730
  422SOL     OW 1264   2.593   0.374   1.406 -0.2415  0.3149  0.4718
  422SOL    HW1 1265   2.667   0.439   1.434 -0.7973 -1.0102  1.7542
  422SOL    HW2 1266   2.631   0.283   1.380 -1.1307 -1.6962  0.9056
  423SOL     OW 1267   1.710   1.581   0.921  0.6741  0.3370  0.5439
  423SOL    HW1 1268   1.680   1.604   1.013 -2.0485  0.6470  0.8194
  423SOL    HW2 1269   1.727   1.483   0.910  0.8059  0.8838  0.8330
  424SOL     OW 1270   1.854   1.120   0.479 -0.0570 -0.1156  0.0023
  424SOL    HW1 1271   1.923   1.193   0.473 -1.4206  1.5093 -0.1114
  424SOL    HW2 1272   1.767   1.158   0.500 -0.3108 -2.4078 -0.4992
  425SOL     OW 1273   0.004   2.904   2.009  0.3359  0.2986  0.0448
  425SOL    HW1 1274   0.027   2.875   2.105  2.6525  0.4965 -0.6705
  425SOL    HW2 1275   2.980   2.923   1.999 -0.6721  1.6737  2.6849
  426SOL     OW 1276   2.515   2.688   2.904 -0.6073 -0.1846 -0.4995
  426SOL    HW1 1277   2.529   2.670   3.007 -0.0912  2.6251 -0.5773
  426SOL    HW2 1278   2.603   2.690   2.855 -1.0601  1.9933  5.3008
  427SOL     OW 1279   0.797   0.615   2.355 -0.3503 -0.1025 -0.0867
  427SOL    HW1 1280   0.726   0.628   2.426 -0.4324 -0.2047  1.9716
  427SOL    HW2 1281   0.839   0.704   2.330 -0.1284  0.9393 -1.1662
  428SOL     OW 1282   2.120   0.743   2.499 -0.2269  0.8095  0.1829
  428SOL    HW1 1283   2.158   0.774   2.409 -0.5607 -0.4411  1.3630
  428SOL    HW2 1284   2.029   0.713   2.482  1.8086 -1.2912 -3.5109
  429SOL     OW 1285   2.424   0.160   0.598 -0.1349  0.1807 -0.4391
  429SOL    HW1 1286   2.507   0.110   0.566  1.2451 -0.6128  2.7141
  429SOL    HW2 1287   2.415   0.250   0.556  0.5387  1.6441  0.4050
  430SOL     OW 1288   1.793   1.133   2.134 -0.3482  0.0205 -0.3074
  430SOL    HW1 1289   1.866   1.170   2.201  0.3719  0.4569  3.8559
  430SOL    HW2 1290   1.816   1.120   2.035  0.3274  0.6153 -1.6812
  431SOL     OW 1291   2.866   2.143   1.307  0.0931  0.3722  0.3891
  431SOL    HW1 1292   2.943   2.210   1.293  0.7032  0.0278  0.6503
  431SOL    HW2 1293   2.771   2.182   1.304 -0.7293  0.9940  2.6815
  432SOL     OW 1294   1.626   2.774   2.485  0.2699  0.6860  0.2028
  432SOL    HW1 1295   1.672   2.741   2.399  1.2476 -1.3256 -0.3110
  432SOL    HW2 1296   1.541   2.721   2.502 -0.0660 -1.6947 -0.9067
  433SOL     OW 1297   1.618   2.998   1.425 -0.2235 -0.1924 -0.2345
  433SOL    HW1 1298   1.577   2.975   1.333 -1.1869  1.5259  0.2730
  433SOL    HW2 1299   1.657   2.915   1.468 -0.2957  0.7215 -0.6722
  434SOL     OW 1300   3.050   2.391   2.119  0.7275  0.1439 -0.1767
  434SOL    HW1 1301   0.001   2.454   2.040  1.5763  0.5619 -1.2895
  434SOL    HW2 1302   3.023   2.302   2.075  1.7451 -0.8105  3.1991
  435SOL     OW 1303   0.090   1.837   0.388  0.5842 -0.6150  0.1221
  435SOL    HW1 1304   0.150   1.777   0.447  1.4058 -4.4476  1.0405
  435SOL    HW2 1305   0.108   1.812   0.290  0.2316 -0.4331 -0.1134
  436SOL     OW 1306   0.835   1.193   1.610 -0.1030  0.1686  0.0845
  436SOL    HW1 1307   0.857   1.163   1.513 -0.6111 -3.1990 -2.6140
  436SOL    HW2 1308   0.893   1.155   1.682 -1.1402  0.1434 -4.2762
  437SOL     OW 1309   0.610   0.476   2.885  0.6459 -0.3726 -0.2768
  437SOL    HW1 1310   0.709   0.504   2.895 -2.6795 -2.3057 -0.8365
  437SOL    HW2 1311   0.558   0.500   2.966  2.5669  0.8848 -0.3054
  438SOL     OW 1312   0.847   1.946   1.703 -0.0786  0.1710 -0.1016
  438SOL    HW1 1313   0.808   2.043   1.686 -0.0584 -0.3687  3.2689
  438SOL    HW2 1314   0.915   1.915   1.633 -0.1248 -0.8315  0.5357
  439SOL     OW 1315   1.942   1.215   2.856 -0.0694  0.0749  0.0237
  439SOL    HW1 1316   1.964   1.237   2.949 -3.6723  0.6627 -0.0975
  439SOL    HW2 1317   1.885   1.135   2.850  0.7722  2.5126 -0.0249
  440SOL     OW 1318   1.022   0.592   0.204  0.0391 -0.7466 -0.4071
  440SOL    HW1 1319   1.053   0.688   0.221 -2.5051 -1.1007 -0.0224
  440SOL    HW2 1320   1.101   0.530   0.187 -2.0198  3.0711  0.1712
  441SOL     OW 1321   0.573   2.879   1.646  0.4986 -0.5008  0.1784
  441SOL    HW1 1322   0.641   2.806   1.635  0.0083 -1.2778  0.6743
  441SOL    HW2 1323   0.541   2.893   1.742 -1.1371  1.9268  2.5050
  442SOL     OW 1324   2.126   2.379   0.883  0.0631 -0.1659  0.7578
  442SOL    HW1 1325   2.033   2.334   0.882  0.6758 -0.7840  0.5697
  442SOL    HW2 1326   2.109   2.479   0.871  0.4600  0.3732  0.3158
  443SOL     OW 1327   2.512   1.425   2.586 -0.3720  0.2742 -0.0131
  443SOL    HW1 1328   2.532   1.347   2.647  0.6895  3.1595  0.3481
  443SOL    HW2 1329   2.544   1.407   2.485  1.5393 -0.7603  0.9822
  444SOL     OW 1330   1.292   0.524   2.524  0.3081 -0.5427 -0.0075
  444SOL    HW1 1331   1.364   0.449   2.518  0.9450 -2.0004 -0.0814
  444SOL    HW2 1332   1.312   0.600   2.587  0.2199 -1.8273  0.9725
  445SOL     OW 1333   2.539   2.683   1.749  0.2238 -0.4223  0.2804
  445SOL    HW1 1334   2.536   2.710   1.848  1.5106  0.5137  0.4246
  445SOL    HW2 1335   2.546   2.585   1.742  0.8455  5.5140  0.9097
  446SOL     OW 1336   2.679   1.826   0.346 -0.2596 -0.1332  0.4364
  446SOL    HW1 1337   2.681   1.826   0.241 -0.1542  1.5825 -1.4988
  446SOL    HW2 1338   2.773   1.838   0.386  0.6317 -0.5814  0.1486
  447SOL     OW 1339   1.201   2.665   1.363  0.9081 -0.0573 -0.3607
  447SOL    HW1 1340   1.266   2.725   1.312 -2.6639 -2.4022  1.1783
  447SOL    HW2 1341   1.164   2.729   1.433  1.1345  2.8871  0.2708
  448SOL     OW 1342   1.691   1.623   1.986  0.0462  0.0759 -0.0025
  448SOL    HW1 1343   1.623   1.663   1.922  0.9367  0.9987  1.1690
  448SOL    HW2 1344   1.646   1.589   2.072 -0.5150  1.5606  0.0048
  449SOL     OW 1345   0.204   1.955   2.153  0.1880 -0.0655  0.1107
  449SOL    HW1 1346   0.215   2.050   2.188 -1.4870 -0.0493 -1.1860
  449SOL    HW2 1347   0.278   1.902   2.195 -0.3767  2.2043 -1.2929
  450SOL     OW 1348   2.858   1.533   2.477  0.0102  0.1566 -0.4977
  450SOL    HW1 1349   2.874   1.430   2.466  0.4278 -1.0489  0.7852
  450SOL    HW2 1350   2.760   1.559   2.500 -1.8895 -3.3534 -2.0338
  451SOL     OW 1351   2.323   0.735   1.379 -0.7178 -0.2502 -0.5101
  451SOL    HW1 1352   2.337   0.646   1.428 -0.7664 -2.4821 -0.1195
  451SOL    HW2 1353   2.417   0.774   1.360 -3.1305 -1.8653  0.6020
  452SOL     OW 1354   0.957   2.093   1.379  0.2494  0.0229 -0.1766
  452SOL    HW1 1355   0.989   2.177   1.430  1.9333  0.8867 -1.6704
  452SOL    HW2 1356   0.853   2.094   1.367 -2.9189 -0.0919 -1.7607
  453SOL     OW 1357   1.284   2.192   0.866 -0.3579  0.0074 -0.0542
  453SOL    HW1 1358   1.325   2.269   0.919 -1.5591 -0.2122  0.1390
  453SOL    HW2 1359   1.222   2.227   0.792  0.8801  1.4270 -1.4827
  454SOL     OW 1360   0.075   1.204   0.586 -0.8809 -0.3295  0.0112
  454SOL    HW1 1361   0.068   1.191   0.684 -0.0269 -0.5865 -0.7529
  454SOL    HW2 1362   0.052   1.296   0.556  1.4154 -0.8036  4.1628
  455SOL     OW 1363   0.829   0.899   0.430  0.2105 -0.2063  0.4596
  455SOL    HW1 1364   0.781   0.961   0.369  1.4206  0.2497  1.1936
  455SOL    HW2 1365   0.760   0.869   0.500  0.6137 -0.8578  0.0911
  456SOL     OW 1366   1.917   2.376   1.161  0.3745  0.0202 -0.5356
  456SOL    HW1 1367   1.938   2.394   1.256 -0.5565  0.5584 -4.4550
  456SOL    HW2 1368   1.813   2.362   1.155 -4.0570  0.3122  2.7986
  457SOL     OW 1369   1.446   2.680   2.921  0.3630  0.1527  0.3613
  457SOL    HW1 1370   1.468   2.588   2.887  0.0866  0.6893  2.7306
  457SOL    HW2 1371   1.347   2.686   2.954 -0.9425 -2.1976  0.2157
  458SOL     OW 1372   2.580   0.046   2.844  0.4597 -0.0157  0.4212
  458SOL    HW1 1373   2.528   3.032   2.847  1.7353 -1.0690 -0.0723
  458SOL    HW2 1374   2.511   0.125   2.845 -2.6723  1.3700  2.4528
  459SOL     OW 1375   2.297   0.225   1.942  0.1059 -0.2787 -0.4234
  459SOL    HW1 1376   2.253   0.294   2.003  1.1352 -0.5895  1.3200
  459SOL    HW2 1377   2.335   0.148   2.004  0.3742 -2.0758 -0.7361
  460SOL     OW 1378   2.845   0.660   2.704  0.3241  0.5587  0.1668
  460SOL    HW1 1379   2.939   0.686   2.736  1.9251  1.2200  0.7416
  460SOL    HW2 1380   2.779   0.680   2.773  2.9043 -0.4656 -0.4071
  461SOL     OW 1381   2.913   1.871   0.745 -0.2600  0.4090  0.9125
  461SOL    HW1 1382   2.997   1.808   0.749  0.8594  0.1094 -0.4496
  461SOL    HW2 1383   2.855   1.838   0.821  0.0735  1.1074 -4.7716
  462SOL     OW 1384   0.058   0.214   0.844  0.1830  0.0020  0.2988
  462SOL    HW1 1385   0.001   0.136   0.809 -0.8978 -0.8361 -1.3097
  462SOL    HW2 1386   0.004   0.298   0.854  0.3104 -0.3044 -1.2008
  463SOL     OW 1387   2.293   1.281   0.038  0.3661  0.0531  0.3337
  463SOL    HW1 1388   2.389   1.289   0.055 -2.4873 -2.7492 -1.2253
  463SOL    HW2 1389   2.259   1.356   3.054 -1.1316  0.2324  1.4086
  464SOL     OW 1390   0.769   2.938   1.241  0.2723  0.6417 -0.2184
  464SOL    HW1 1391   0.790   3.024   1.285  1.7912  0.1355 -0.2326
  464SOL    HW2 1392   0.678   2.933   1.194  1.1243 -2.0767 -0.1121
  465SOL     OW 1393   1.267   0.339   1.441 -0.0256 -0.0307 -0.5650
  465SOL    HW1 1394   1.313   0.255   1.479  0.4500 -2.6718  0.8495
  465SOL    HW2 1395   1.172   0.345   1.483  2.3394 -0.4147  2.3861
  466SOL     OW 1396   1.743   2.584   1.902 -0.3272 -0.2242 -0.0458
  466SOL    HW1 1397   1.762   2.621   1.995  3.7506 -0.1017  2.4122
  466SOL    HW2 1398   1.653   2.539   1.893  2.2679 -1.0814 -0.9180
  467SOL     OW 1399   0.827   2.728   1.765  0.2614  0.2745  0.2580
  467SOL    HW1 1400   0.854   2.701   1.666 -0.5909 -1.0768 -0.6432
  467SOL    HW2 1401   0.889   2.679   1.834  1.6023 -0.9611 -1.6981
  468SOL     OW 1402   0.194   1.560   2.084 -0.3810 -0.3228  0.8340
  468SOL    HW1 1403   0.113   1.512   2.110  2.0861  1.9090 -0.4554
  468SOL    HW2 1404   0.172   1.643   2.035 -0.7791  1.2217 -0.0219
  469SOL     OW 1405   0.929   1.900   0.812  0.0477 -0.2921 -0.0714
  469SOL    HW1 1406   0.970   1.926   0.725  1.4814 -0.9106 -0.1094
  469SOL    HW2 1407   0.969   1.960   0.884 -2.0320 -1.4457 -1.2053
  470SOL     OW 1408   1.933   1.218   2.361  0.6281 -0.1209 -0.2941
  470SOL    HW1 1409   1.988   1.296   2.396  1.6231  2.9963 -2.6963
  470SOL    HW2 1410   1.944   1.134   2.419  0.8631  0.6709 -1.1477
  471SOL     OW 1411   0.383   2.510   0.082  0.1085  0.1792 -0.2358
  471SOL    HW1 1412   0.315   2.586   0.054 -0.5222  0.9432  3.9974
  471SOL    HW2 1413   0.460   2.494   0.017 -4.3354 -1.7819  1.8636
  472SOL     OW 1414   0.117   2.744   2.220  0.3763 -0.0187  0.1261
  472SOL    HW1 1415   0.207   2.747   2.270  1.7822  0.9205 -1.8517
  472SOL    HW2 1416   0.043   2.733   2.289  3.0890 -3.1972 -2.0717
  473SOL     OW 1417   0.638   2.743   2.964  0.4690 -0.3587 -0.5166
  473SOL    HW1 1418   0.579   2.786   2.900  1.2541  0.9477  3.6328
  473SOL    HW2 1419   0.723   2.709   2.921  4.6229 -2.4335  0.4341
  474SOL     OW 1420   1.664   0.169   0.785 -0.0996  0.2711  0.2365
  474SOL    HW1 1421   1.681   0.153   0.682 -2.5331 -0.2685 -2.2063
  474SOL    HW2 1422   1.740   0.231   0.814  0.3681  0.4446 -0.0068
  475SOL     OW 1423   1.409   0.093   1.473  0.5248 -0.0226 -0.1662
  475SOL    HW1 1424   1.318   0.051   1.473  0.1395 -0.5937 -1.2504
  475SOL    HW2 1425   1.488   0.029   1.465  0.2496  1.8159  1.1732
  476SOL     OW 1426   0.402   1.051   1.152 -0.5361  0.2313 -0.4698
  476SOL    HW1 1427   0.393   0.959   1.194 -0.1250 -0.2162 -0.0674
  476SOL    HW2 1428   0.484   1.064   1.093  1.5425  1.3612  0.7899
  477SOL     OW 1429   0.398   1.836   0.702  0.1427  0.2691 -0.2718
  477SOL    HW1 1430   0.488   1.801   0.734 -1.4270 -0.8579  0.6893
  477SOL    HW2 1431   0.408   1.938   0.678  2.1584 -0.0684 -0.8633
  478SOL     OW 1432   0.210   2.468   2.565 -0.0521 -0.4046  0.4191
  478SOL    HW1 1433   0.135   2.513   2.615  1.8791 -0.0264 -0.0653
  478SOL    HW2 1434   0.174   2.411   2.487  0.2328  1.8974  0.8296
  479SOL     OW 1435   0.004   0.360   1.237  0.3370  0.7220  0.2325
  479SOL    HW1 1436   3.029   0.446   1.264 -2.1971  0.9742  1.0171
  479SOL    HW2 1437   0.079   0.376   1.166 -0.8551 -1.7151 -0.9913
  480SOL     OW 1438   2.695   2.410   0.031 -0.6744 -0.0299 -0.1545
  480SOL    HW1 1439   2.710   2.351   0.113 -1.7902 -0.1664  0.0852
  480SOL    HW2 1440   2.667   2.500   0.061  1.4895 -1.1859 -2.3026
  481SOL     OW 1441   2.356   1.906   1.493  0.1805 -0.0708 -0.0143
  481SOL    HW1 1442   2.456   1.919   1.488  0.4259  1.3841  0.9355
  481SOL    HW2 1443   2.305   1.987   1.527 -1.5271  0.3146 -1.2534
  482SOL     OW 1444   1.767   1.690   2.387  0.2327  1.0753 -0.9222
  482SOL    HW1 1445   1.712   1.632   2.326 -2.6163  2.4721  1.9213
  482SOL    HW2 1446   1.713   1.704   2.473  0.1334 -0.4814  1.6000
  483SOL     OW 1447   0.971   1.426   1.901  0.2757 -0.2229 -0.5780
  483SOL    HW1 1448   1.026   1.447   1.818 -0.3502 -0.2011  1.5628
  483SOL    HW2 1449   0.972   1.326   1.918 -0.6048 -0.4457 -1.2780
  484SOL     OW 1450   0.309   0.513   1.354 -0.1867  0.3277  0.0027
  484SOL    HW1 1451   0.261   0.447   1.410 -0.3437 -0.6704  0.1028
  484SOL    HW2 1452   0.277   0.512   1.257 -0.3377  1.8771  0.0931
  485SOL     OW 1453   2.428   1.037   0.138 -0.2502 -0.2941 -0.1595
  485SOL    HW1 1454   2.500   1.050   0.063 -0.9791 -2.7684  1.6647
  485SOL    HW2 1455   2.376   1.123   0.151  3.1715 -1.2028 -1.0252
  486SOL     OW 1456   1.426   0.046   1.804 -0.1805 -0.6628  0.4227
  486SOL    HW1 1457   1.364   0.047   1.722 -2.8473 -4.4118 -3.3817
  486SOL    HW2 1458   1.526   0.029   1.778  3.3581  3.7646  0.9468
  487SOL     OW 1459   0.898   2.430   1.677  0.3255 -0.1962  0.2653
  487SOL    HW1 1460   0.836   2.351   1.674 -0.7748  1.9269  0.9557
  487SOL    HW2 1461   0.910   2.459   1.773 -1.5241 -3.7203 -1.3340
  488SOL     OW 1462   2.245   1.466   2.922 -0.0490  0.7000  0.7226
  488SOL    HW1 1463   2.252   1.450   2.821 -0.3041  0.6716  0.4166
  488SOL    HW2 1464   2.189   1.548   2.944  1.6826 -1.8517 -2.1293
  489SOL     OW 1465   1.926   2.722   0.597 -0.0324  0.1086 -0.7287
  489SOL    HW1 1466   1.892   2.684   0.506 -4.7167 -2.2643 -2.0833
  489SOL    HW2 1467   1.978   2.812   0.592 -2.9130  0.3076  0.4824
  490SOL     OW 1468   0.523   2.155   3.005 -0.1379  0.2156 -0.4285
  490SOL    HW1 1469   0.574   2.152   2.918 -0.8685 -1.1841  2.7231
  490SOL    HW2 1470   0.501   2.251   3.032 -0.3541 -0.0482 -0.6268
  491SOL     OW 1471   0.875   1.484   1.415  0.3166 -0.3313  0.0922
  491SOL    HW1 1472   0.820   1.466   1.504 -2.2613  0.5713  4.7888
  491SOL    HW2 1473   0.975   1.472   1.430  0.2691 -4.1473  0.8352
  492SOL     OW 1474   1.112   0.587   2.022 -0.6458  0.2756  0.1255
  492SOL    HW1 1475   1.158   0.584   2.114 -2.0377  0.0949  1.8747
  492SOL    HW2 1476   1.078   0.682   2.002 -1.7960 -1.5742  1.8449
  493SOL     OW 1477   2.038   1.992   0.592 -0.1108  0.0939  0.1761
  493SOL    HW1 1478   1.998   1.902   0.595  1.9572  1.1430 -0.7306
  493SOL    HW2 1479   1.962   2.058   0.614 -1.7154 -2.1246 -1.6501
  494SOL     OW 1480   0.826   1.467   0.834  0.4095  0.6259  0.0258
  494SOL    HW1 1481   0.812   1.430   0.740 -1.1745 -2.8483  0.2512
  494SOL    HW2 1482   0.747   1.515   0.877 -1.0086 -0.3394 -1.3225
  495SOL     OW 1483   2.450   2.448   0.671 -0.2850 -0.1932  0.3622
  495SOL    HW1 1484   2.357   2.457   0.635  2.0173 -0.2544 -1.0352
  495SOL    HW2 1485   2.494   2.357   0.644 -0.8728 -1.3396 -1.6033
  496SOL     OW 1486   2.752   0.152   1.320 -0.0413 -0.0125  0.5786
  496SOL    HW1 1487   2.717   0.074   1.265 -0.6688  1.3153  0.3137
  496SOL    HW2 1488   2.834   0.125   1.369 -0.0215  0.8301  0.3198
  497SOL     OW 1489   2.436   1.068   2.470  0.5592 -0.2408 -0.0416
  497SOL    HW1 1490   2.424   1.103   2.376  1.1879 -1.7828 -1.3547
  497SOL    HW2 1491   2.380   1.115   2.539 -2.4195  3.9556  2.0507
  498SOL     OW 1492   0.295   2.079   1.241  0.7534 -0.0335 -0.0099
  498SOL    HW1 1493   0.205   2.073   1.196 -0.2116 -0.3452  1.7566
  498SOL    HW2 1494   0.361   2.016   1.196 -1.5773 -1.5395 -0.0776
  499SOL     OW 1495   1.462   2.524   1.877 -0.8226  0.0991 -0.6580
  499SOL    HW1 1496   1.417   2.617   1.886 -2.0351 -1.2234  0.7266
  499SOL    HW2 1497   1.477   2.503   1.779  0.8860 -0.2063 -0.2854
  500SOL     OW 1498   0.534   1.905   0.284 -0.0393  0.1611  0.4963
  500SOL    HW1 1499   0.626   1.942   0.254  0.2459 -0.0168 -1.6363
  500SOL    HW2 1500   0.555   1.809   0.320  0.5343 -0.8729 -0.0060
  501SOL     OW 1501   1.949   0.004   1.224  0.1868 -0.3718  0.2477
  501SOL    HW1 1502   1.968   3.049   1.129  2.7213 -3.0762 -1.7772
  501SOL    HW2 1503   1.941   3.001   1.283  1.4868  2.9778  0.4405
  502SOL     OW 1504   2.894   0.388   1.674  0.1927  0.4673 -0.6540
  502SOL    HW1 1505   2.937   0.303   1.706 -0.9928 -1.9261  1.1397
  502SOL    HW2 1506   2.891   0.457   1.750 -0.3958  1.2445  1.9083
  503SOL     OW 1507   2.533   1.216   1.805 -0.2497  0.1070  0.1271
  503SOL    HW1 1508   2.449   1.266   1.831 -0.0115 -2.2732  1.0978
  503SOL    HW2 1509   2.523   1.119   1.837 -0.5262 -1.1019  0.2166
  504SOL     OW 1510   1.583   1.019   1.773  0.2189  0.2155  0.1243
  504SOL    HW1 1511   1.595   0.916   1.767  0.7675  1.2242 -0.7793
  504SOL    HW2 1512   1.495   1.052   1.816  0.4815 -0.7837 -2.6354
  505SOL     OW 1513   0.742   0.111   1.622  0.3989 -0.2373 -0.5550
  505SOL    HW1 1514   0.667   0.065   1.566 -1.4445 -0.7926 -1.4726
  505SOL    HW2 1515   0.801   0.044   1.667  0.3211  3.5401 -0.8088
  506SOL     OW 1516   0.196   0.328   0.535 -0.1149  0.2448  0.3677
  506SOL    HW1 1517   0.229   0.380   0.456 -0.7602 -2.0385  0.1260
  506SOL    HW2 1518   0.203   0.376   0.623 -0.3460 -1.4725 -2.1533
  507SOL     OW 1519   2.419   0.586   0.061  0.2225  0.1999  0.1546
  507SOL    HW1 1520   2.494   0.521   0.056  0.4443 -1.5318  2.2698
  507SOL    HW2 1521   2.362   0.586   3.052  0.5895 -0.7680  1.8414
  508SOL     OW 1522   1.733   0.353   1.802  0.2142 -0.4484 -0.3367
  508SOL    HW1 1523   1.685   0.326   1.718 -1.4650 -0.6031  0.0188
  508SOL    HW2 1524   1.703   0.445   1.830 -1.5021 -1.0697 -0.0290
  509SOL     OW 1525   1.612   1.677   1.444 -0.1497  0.4026  0.4401
  509SOL    HW1 1526   1.632   1.609   1.517  2.3356  2.1390 -2.4308
  509SOL    HW2 1527   1.510   1.683   1.429 -1.0636 -0.7205  2.9076
  510SOL     OW 1528   2.550   1.250   1.328  0.7996  0.3878  0.2154
  510SOL    HW1 1529   2.459   1.267   1.283  0.2358 -2.2606 -0.4232
  510SOL    HW2 1530   2.623   1.277   1.264 -0.3765 -4.8874 -0.4581
  511SOL     OW 1531   1.672   2.083   1.206 -0.2879 -0.2242  0.4628
  511SOL    HW1 1532   1.728   1.998   1.179 -1.7528 -1.8929  0.3958
  511SOL    HW2 1533   1.726   2.135   1.279 -1.4036  0.5526  2.2616
  512SOL     OW 1534   0.071   1.531   0.419 -0.3594 -0.0190  0.8258
  512SOL    HW1 1535   0.089   1.465   0.340 -0.1994 -2.0351  1.5606
  512SOL    HW2 1536   0.157   1.576   0.447 -2.7064  0.2329  2.3194
  513SOL     OW 1537   2.969   1.922   0.047  0.0526 -0.5845  0.1935
  513SOL    HW1 1538   2.989   2.003   3.061  0.1124  0.1756 -0.2971
  513SOL    HW2 1539   3.053   1.880   0.081 -2.0810 -0.3786 -2.9531
  514SOL     OW 1540   2.606   1.963   2.179  0.0993  0.2899 -0.0052
  514SOL    HW1 1541   2.641   2.007   2.264  2.9016  2.0138  0.9067
  514SOL    HW2 1542   2.575   1.868   2.194  0.5054 -2.1147 -1.3767
  515SOL     OW 1543   2.066   1.197   0.975 -0.1516 -0.7158 -0.1033
  515SOL    HW1 1544   1.969   1.212   0.943 -3.2524 -1.8654  1.4112
  515SOL    HW2 1545   2.115   1.126   0.920  0.2193 -1.1616 -0.9219
  516SOL     OW 1546   1.992   2.637   0.147 -0.3708 -0.5076  0.8571
  516SOL    HW1 1547   1.949   2.621   0.059 -1.5057 -3.6201  3.5544
  516SOL    HW2 1548   1.929   2.679   0.212 -1.0536 -0.6212 -1.2126
  517SOL     OW 1549   0.878   1.918   2.537 -0.2587 -0.2261  0.0681
  517SOL    HW1 1550   0.906   1.828   2.506  0.2036 -1.7228  2.1528
  517SOL    HW2 1551   0.789   1.944   2.496  1.9271 -3.5368  0.1961
  518SOL     OW 1552   0.424   0.270   2.094 -0.5317  0.6087  0.7225
  518SOL    HW1 1553   0.473   0.194   2.145  2.7958 -1.5424 -2.6729
  518SOL    HW2 1554   0.479   0.357   2.088 -0.9543  0.8818 -2.1237
  519SOL     OW 1555   0.170   1.325   0.266  0.1944 -0.0670 -0.2744
  519SOL    HW1 1556   0.137   1.239   0.318 -2.8345 -1.4947 -1.1726
  519SOL    HW2 1557   0.267   1.326   0.246 -3.6701 -0.1957 -1.1696
  520SOL     OW 1558   2.608   1.619   1.650 -0.0522 -0.2810  0.4201
  520SOL    HW1 1559   2.618   1.594   1.749  2.4782 -0.6235  0.3272
  520SOL    HW2 1560   2.580   1.718   1.644  1.6850 -0.1378 -2.7950
  521SOL     OW 1561   0.552   2.472   2.495  0.2812  0.2228  0.5044
  521SOL    HW1 1562   0.587   2.379   2.485  2.6858 -0.6842  2.7897
  521SOL    HW2 1563   0.515   2.503   2.406 -2.5708 -3.1881  0.1668
  522SOL     OW 1564   1.866   0.048   2.016 -0.6685 -0.1985 -0.3796
  522SOL    HW1 1565   1.942   0.082   1.957 -0.3690  0.7292 -0.5594
  522SOL    HW2 1566   1.898   0.077   2.111 -0.4275  1.0175  1.1568
  523SOL     OW 1567   1.937   1.876   1.835  0.6272  0.4241 -0.3847
  523SOL    HW1 1568   2.029   1.924   1.819  2.4110 -1.9282  3.1181
  523SOL    HW2 1569   1.945   1.780   1.884 -2.3764 -1.3996  2.9330
  524SOL     OW 1570   0.784   3.035   0.357 -0.0354 -0.0359 -0.7940
  524SOL    HW1 1571   0.842   2.948   0.352  0.8540  1.4845 -0.8046
  524SOL    HW2 1572   0.813   0.030   0.289 -0.8353 -1.3556  1.9403
  525SOL     OW 1573   0.108   0.520   0.274 -0.5707  0.2643 -0.6107
  525SOL    HW1 1574   0.047   0.477   0.338 -0.7642  2.4098 -2.5227
  525SOL    HW2 1575   0.208   0.498   0.290  2.4900 -2.2769 -0.0081
  526SOL     OW 1576   0.785   2.634   0.641  0.0716 -0.1615 -0.2498
  526SOL    HW1 1577   0.814   2.641   0.741  1.8958  0.1257  0.2456
  526SOL    HW2 1578   0.702   2.692   0.630  2.4484 -0.8240 -2.4423
  527SOL     OW 1579   2.122   1.781   0.912 -0.1457 -0.1910 -0.1820
  527SOL    HW1 1580   2.035   1.757   0.869  3.3401 -0.2198  1.8161
  527SOL    HW2 1581   2.152   1.705   0.973 -1.8957 -0.5699  0.0466
  528SOL     OW 1582   3.028   2.779   2.463  0.0612  0.0070 -0.0066
  528SOL    HW1 1583   2.990   2.714   2.393  0.4880  1.4105  1.0574
  528SOL    HW2 1584   3.062   2.724   2.541  1.5040  0.3335 -0.7520
  529SOL     OW 1585   1.018   1.678   2.420  0.0201  1.1013  0.6356
  529SOL    HW1 1586   1.118   1.689   2.402  0.6933 -0.4210  0.8353
  529SOL    HW2 1587   1.007   1.663   2.520 -1.0736 -0.3985  0.7823
  530SOL     OW 1588   1.309   1.370   2.835 -0.3554 -0.6521  0.4132
  530SOL    HW1 1589   1.386   1.421   2.786  2.0346  1.8793  2.5084
  530SOL    HW2 1590   1.305   1.271   2.808 -0.1976  0.9565  2.0409
  531SOL     OW 1591   0.639   1.317   2.786 -0.3543 -0.6941  0.2418
  531SOL    HW1 1592   0.592   1.283   2.700  2.1849 -1.5079 -1.8470
  531SOL    HW2 1593   0.678   1.240   2.838 -0.5272  0.0885 -0.1193
  532SOL     OW 1594   1.583   1.528   0.535 -0.4679 -0.3165 -0.2594
  532SOL    HW1 1595   1.538   1.525   0.625  0.7315 -0.0073 -1.7847
  532SOL    HW2 1596   1.576   1.626   0.508  1.8207 -2.5910  0.6140
  533SOL     OW 1597   0.676   0.378   2.504  0.3215 -0.1682  0.1022
  533SOL    HW1 1598   0.731   0.425   2.430  0.4301  2.2964 -0.5185
  533SOL    HW2 1599   0.730   0.303   2.545 -0.2803  0.6245  0.5257
  534SOL     OW 1600   0.560   2.446   2.972  0.4015 -0.4474 -0.0556
  534SOL    HW1 1601   0.529   2.491   2.886  0.2169 -1.6336 -0.4346
  534SOL    HW2 1602   0.627   2.500   3.024 -2.3747 -1.5153 -1.1324
  535SOL     OW 1603   0.216   0.048   0.597 -0.3265  0.2274  0.1881
  535SOL    HW1 1604   0.268   0.038   0.685  0.0041  0.5964  2.5811
  535SOL    HW2 1605   0.188   0.143   0.584  0.1933 -1.6325  0.6813
  536SOL     OW 1606   0.106   1.032   2.148 -0.6427 -0.1079  0.1621
  536SOL    HW1 1607   0.091   1.044   2.045  0.0938 -1.0872 -3.6409
  536SOL    HW2 1608   0.206   1.008   2.162  0.5247  2.9524  1.3441
  537SOL     OW 1609   1.164   3.058   1.397 -0.4610  0.1353  0.1228
  537SOL    HW1 1610   1.069   0.010   1.391 -0.4175 -0.3276 -0.1370
  537SOL    HW2 1611   1.209   3.046   1.307 -0.3684 -0.9097  0.2302
  538SOL     OW 1612   2.916   1.882   0.460  0.4704 -0.1064  0.3786
  538SOL    HW1 1613   3.006   1.847   0.416 -0.0701 -0.7737 -0.0060
  538SOL    HW2 1614   2.913   1.871   0.559 -1.0281 -1.1174 -2.8817
  539SOL     OW 1615   2.536   0.995   2.017  0.2091  0.6402 -0.1894
  539SOL    HW1 1616   2.641   0.995   1.994  3.9830  1.5516  0.7384
  539SOL    HW2 1617   2.498   0.907   1.978  0.6737  0.5525 -2.1540
  540SOL     OW 1618   1.668   0.968   2.352 -0.3244  0.2935 -0.8336
  540SOL    HW1 1619   1.613   1.013   2.423  2.1519  1.4023 -0.3017
  540SOL    HW2 1620   1.697   1.040   2.287 -1.3525  1.0099 -0.0079
  541SOL     OW 1621   0.775   0.837   1.875 -0.0175 -0.3732 -0.6024
  541SOL    HW1 1622   0.846   0.827   1.949  0.7385 -1.9693  2.2484
  541SOL    HW2 1623   0.700   0.765   1.893  0.3196 -2.1369  1.0470
  542SOL     OW 1624   1.947   0.104   2.258  0.1641 -0.3766 -1.0213
  542SOL    HW1 1625   1.961   0.193   2.312 -1.7385  0.7168  1.3899
  542SOL    HW2 1626   1.964   0.019   2.315 -2.9012 -1.7127 -0.8250
  543SOL     OW 1627   1.105   0.305   0.392  0.3955 -0.1260  0.4151
  543SOL    HW1 1628   1.083   0.381   0.453 -1.0003 -1.5335 -0.9612
  543SOL    HW2 1629   1.159   0.340   0.311  1.2455 -0.4304 -1.6813
  544SOL     OW 1630   2.513   1.756   1.929  0.0478  0.3009  0.2066
  544SOL    HW1 1631   2.545   1.740   2.021 -0.5320 -2.3295 -4.4002
  544SOL    HW2 1632   2.588   1.788   1.866 -0.6107 -0.1209  0.3164
  545SOL     OW 1633   2.136   2.306   1.834  0.6222 -0.2174 -0.4342
  545SOL    HW1 1634   2.198   2.293   1.917  1.0511  0.4557  2.3231
  545SOL    HW2 1635   2.041   2.333   1.862 -3.1151  0.4693  0.0991
  546SOL     OW 1636   0.332   0.213   2.888  0.0720 -0.1141 -0.0341
  546SOL    HW1 1637   0.266   0.144   2.848 -0.4403 -0.2947 -2.1632
  546SOL    HW2 1638   0.291   0.255   2.972  1.1006  1.0456  0.1099
  547SOL     OW 1639   1.762   0.884   0.592 -0.4105 -0.4134 -0.7434
  547SOL    HW1 1640   1.659   0.885   0.592 -0.9073  0.9065  1.5634
  547SOL    HW2 1641   1.806   0.962   0.541  4.2400 -0.5980 -2.4615
  548SOL     OW 1642   2.161   1.653   2.156  0.2509 -0.1964  0.0966
  548SOL    HW1 1643   2.188   1.619   2.066  0.3456  1.0146  2.4507
  548SOL    HW2 1644   2.229   1.617   2.221 -1.6103  1.8753 -2.7008
  549SOL     OW 1645   1.997   0.174   0.384 -0.5933  0.0944 -0.1013
  549SOL    HW1 1646   2.000   0.196   0.284 -0.1499  3.4006 -1.3802
  549SOL    HW2 1647   2.071   0.224   0.436  1.8451  2.8017  1.2241
  550SOL     OW 1648   2.327   2.187   0.781 -0.6491 -0.2526 -0.0208
  550SOL    HW1 1649   2.342   2.132   0.867 -2.6509  2.6972 -3.0401
  550SOL    HW2 1650   2.259   2.258   0.807  1.3796  1.1363  0.3903
  551SOL     OW 1651   1.111   2.842   1.551 -0.4555  0.3169  0.0395
  551SOL    HW1 1652   1.159   2.913   1.491 -1.1796 -0.2222 -1.8694
  551SOL    HW2 1653   1.128   2.857   1.650 -1.8577 -1.9940  2.0882
  552SOL     OW 1654   2.700   2.046   2.434 -0.7521  0.5107 -0.3583
  552SOL    HW1 1655   2.689   1.988   2.518  1.5953  0.6928  2.4234
  552SOL    HW2 1656   2.800   2.065   2.418  2.9018  0.5528 -0.6372
  553SOL     OW 1657   0.357   0.026   0.819  0.5693  0.5027 -0.4634
  553SOL    HW1 1658   0.388   0.108   0.872  1.3772  1.8001 -1.0071
  553SOL    HW2 1659   0.319   3.024   0.881 -1.6133 -2.1789 -1.6379
  554SOL     OW 1660   2.229   2.154   1.602  0.0955  0.1059  0.1330
  554SOL    HW1 1661   2.195   2.198   1.684  0.0494 -0.6772  1.0960
  554SOL    HW2 1662   2.246   2.215   1.522  0.4251  0.2579 -2.2977
  555SOL     OW 1663   1.120   2.187   2.041 -0.1128  0.1850 -0.3763
  555SOL    HW1 1664   1.188   2.157   1.971 -1.0656  1.9576  0.9364
  555SOL    HW2 1665   1.097   2.284   2.026 -0.6505  0.7660 -0.2493
  556SOL     OW 1666   1.366   1.600   1.648  0.0075 -0.0349  0.1569
  556SOL    HW1 1667   1.339   1.649   1.564 -1.5395 -1.9934 -0.8804
  556SOL    HW2 1668   1.444   1.645   1.696 -1.4293 -1.3987  1.3520
  557SOL     OW 1669   1.948   2.279   2.329  0.5907  0.3483 -0.1448
  557SOL    HW1 1670   1.997   2.224   2.398 -0.5322 -0.5601 -1.4693
  557SOL    HW2 1671   1.870   2.340   2.356 -2.1630 -0.6285  0.3633
  558SOL     OW 1672   0.649   2.774   1.953  0.4706  0.6599 -0.4952
  558SOL    HW1 1673   0.548   2.791   1.930 -2.9581  1.1439  0.6569
  558SOL    HW2 1674   0.708   2.760   1.872 -0.5915 -1.8707 -1.2416
  559SOL     OW 1675   2.210   2.918   1.111 -0.2357 -0.0738 -0.1091
  559SOL    HW1 1676   2.167   2.873   1.193  1.8614  0.7761  0.7564
  559SOL    HW2 1677   2.252   2.849   1.049  0.4898 -2.6751 -0.3264
  560SOL     OW 1678   1.295   2.269   0.457 -0.3032 -0.0128  0.3167
  560SOL    HW1 1679   1.310   2.170   0.464 -0.5909  1.8913 -2.5033
  560SOL    HW2 1680   1.299   2.283   0.354  1.1098 -2.5409 -2.6333
  561SOL     OW 1681   1.076   0.558   3.004 -0.0478  0.3817  0.6307
  561SOL    HW1 1682   1.120   0.464   3.005 -0.9750  2.5435 -1.5389
  561SOL    HW2 1683   1.021   0.580   0.012 -1.8295 -0.4758  1.5594
  562SOL     OW 1684   0.813   0.177   2.621 -0.3582 -0.3439 -0.3606
  562SOL    HW1 1685   0.738   0.194   2.690  3.0485 -1.3343  0.0341
  562SOL    HW2 1686   0.831   0.079   2.605  0.1579  1.3435 -0.2166
  563SOL     OW 1687   1.311   1.821   2.865 -0.6017 -0.5996  0.4634
  563SOL    HW1 1688   1.379   1.834   2.939 -0.6016  0.3490 -0.6454
  563SOL    HW2 1689   1.334   1.863   2.775 -3.0045 -2.2636  0.4749
  564SOL     OW 1690   2.377   1.145   1.059 -0.2225 -0.2204 -0.3533
  564SOL    HW1 1691   2.478   1.129   1.048  1.3918  1.3243  0.1910
  564SOL    HW2 1692   2.322   1.099   0.989  2.3003  0.9235  0.6006
  565SOL     OW 1693   1.111   0.012   2.736 -0.5710  0.6411 -0.3190
  565SOL    HW1 1694   1.078   0.041   2.828 -0.2189 -2.4326 -0.0030
  565SOL    HW2 1695   1.170   0.083   2.698  0.6608  0.2446 -2.5162
  566SOL     OW 1696   1.607   3.065   2.417 -0.2436  0.1780  0.6184
  566SOL    HW1 1697   1.599   2.972   2.455  1.5566  1.2002  0.5393
  566SOL    HW2 1698   1.630   3.060   2.318 -1.8678 -0.7938 -1.2184
  567SOL     OW 1699   2.070   1.472   0.597 -0.0366  0.5625  0.3900
  567SOL    HW1 1700   2.100   1.452   0.689  1.6545  1.1334 -2.4835
  567SOL    HW2 1701   2.148   1.513   0.549 -0.7077 -2.3104 -1.8471
  568SOL     OW 1702   1.770   1.895   0.331  0.1435  0.1421  0.1504
  568SOL    HW1 1703   1.872   1.900   0.315 -1.1278  2.2611 -1.8694
  568SOL    HW2 1704   1.732   1.975   0.376 -1.1951 -2.2045  3.0425
  569SOL     OW 1705   2.023   1.222   0.061 -0.1326  0.3509 -0.1657
  569SOL    HW1 1706   1.985   1.134   0.079 -0.1792  2.9521  1.1610
  569SOL    HW2 1707   2.126   1.220   0.065  3.4893  1.8410 -0.3691
  570SOL     OW 1708   0.109   2.409   1.517  0.3233 -0.5401 -0.1144
  570SOL    HW1 1709   0.062   2.499   1.516  1.5974 -1.0669 -0.0256
  570SOL    HW2 1710   0.206   2.424   1.499  1.3207  0.6145  0.7164
  571SOL     OW 1711   0.140   0.693   2.075  0.0349 -0.1943  0.5055
  571SOL    HW1 1712   0.199   0.749   2.020  0.4851 -0.2880  2.1062
  571SOL    HW2 1713   0.092   0.743   2.146 -0.1417  0.3551 -0.0394
  572SOL     OW 1714   1.038   1.559   0.966  0.1654  0.1852  0.6031
  572SOL    HW1 1715   0.953   1.518   0.928 -0.6085  0.5703  0.2741
  572SOL    HW2 1716   1.095   1.589   0.886 -0.4661  0.4938  0.0962
  573SOL     OW 1717   1.100   1.872   3.009 -0.1335  1.0023 -0.4740
  573SOL    HW1 1718   1.045   1.916   2.940  2.8729 -0.8448  0.0233
  573SOL    HW2 1719   1.195   1.858   2.973 -0.1900 -2.3583  1.2258
  574SOL     OW 1720   0.989   3.054   0.724 -0.0420 -0.7104 -0.4844
  574SOL    HW1 1721   0.901   0.014   0.696  1.5330 -1.1062 -0.1278
  574SOL    HW2 1722   1.043   0.039   0.787 -1.7329 -0.4430  0.8931
  575SOL     OW 1723   0.381   1.062   1.611  0.2554  0.0741 -0.2814
  575SOL    HW1 1724   0.344   1.147   1.579  2.3801 -1.3272  0.4541
  575SOL    HW2 1725   0.391   1.089   1.714  0.7617  1.2533  1.8903
  576SOL     OW 1726   2.163   3.039   1.442  1.2031 -0.4689  0.1264
  576SOL    HW1 1727   2.117   2.949   1.446 -0.9314  0.6782 -2.2925
  576SOL    HW2 1728   2.114   0.040   1.489  2.1389  1.8055  1.3089
  577SOL     OW 1729   0.603   1.028   1.981 -0.2074  0.0995  0.3926
  577SOL    HW1 1730   0.644   1.056   2.076 -1.1900  0.6837  3.6951
  577SOL    HW2 1731   0.667   0.974   1.927  0.6441  0.9774 -1.8220
  578SOL     OW 1732   2.200   0.522   2.652  0.0334 -0.0654  0.2036
  578SOL    HW1 1733   2.117   0.469   2.683  2.6831  2.5650 -0.0649
  578SOL    HW2 1734   2.164   0.603   2.605 -0.3394  0.1692 -0.3297
  579SOL     OW 1735   2.508   2.411   1.574  0.7519 -0.0274  0.6835
  579SOL    HW1 1736   2.473   2.335   1.630 -1.1059  0.9209  0.0011
  579SOL    HW2 1737   2.458   2.418   1.487 -0.1600  0.2463  0.7882
  580SOL     OW 1738   1.964   1.087   2.604  0.4012 -0.3450 -0.1471
  580SOL    HW1 1739   1.972   1.144   2.691  2.4033  2.6850 -2.4051
  580SOL    HW2 1740   1.921   0.995   2.615  0.7718  0.6628  3.6666
  581SOL     OW 1741   1.251   1.098   2.854 -0.0757 -0.7374 -0.1898
  581SOL    HW1 1742   1.180   1.138   2.914 -2.5237  1.2791 -1.6465
  581SOL    HW2 1743   1.251   1.001   2.852  1.2196  2.0672 -1.9266
  582SOL     OW 1744   1.101   1.487   1.667 -0.1556  0.4259 -0.4131
  582SOL    HW1 1745   1.096   1.469   1.566 -1.2190 -0.5771 -2.1833
  582SOL    HW2 1746   1.184   1.536   1.696  1.1773 -2.0794  3.2297
  583SOL     OW 1747   1.774   1.197   1.416  0.1641  0.0257 -0.0394
  583SOL    HW1 1748   1.689   1.156   1.374 -0.5178 -1.0780  0.3754
  583SOL    HW2 1749   1.838   1.216   1.342  0.7507 -1.1429  1.0877
  584SOL     OW 1750   1.694   2.500   0.451 -0.2368 -0.5789 -1.1647
  584SOL    HW1 1751   1.608   2.482   0.499  2.5190  1.2037 -1.1620
  584SOL    HW2 1752   1.772   2.462   0.504 -0.1675 -2.6555 -1.0326
  585SOL     OW 1753   2.037   2.694   2.803 -0.6106  0.4569  0.1705
  585SOL    HW1 1754   2.058   2.620   2.736  3.6724  4.2719 -0.8428
  585SOL    HW2 1755   2.103   2.704   2.876 -1.1077 -1.4810 -4.6717
  586SOL     OW 1756   2.604   2.280   0.996  0.2125 -0.5484 -0.0025
  586SOL    HW1 1757   2.525   2.338   0.982  0.7593 -5.6392  0.5031
  586SOL    HW2 1758   2.569   2.181   0.984 -1.6013 -1.0216  1.3933
  587SOL     OW 1759   1.008   1.706   0.151  0.0304 -0.0462  0.3593
  587SOL    HW1 1760   1.011   1.781   0.082 -3.2401  3.5314  0.9992
  587SOL    HW2 1761   1.097   1.656   0.159 -1.5840 -0.9109 -0.0788
  588SOL     OW 1762   0.746   0.136   0.919 -0.3517 -0.3608 -0.0944
  588SOL    HW1 1763   0.813   0.172   0.987 -0.2510 -0.4004 -0.3922
  588SOL    HW2 1764   0.769   0.181   0.831  1.3459  0.8530 -1.3236
  589SOL     OW 1765   1.248   0.662   0.460 -0.0136 -0.0474  0.2832
  589SOL    HW1 1766   1.157   0.637   0.434  3.2787 -1.0436  1.7646
  589SOL    HW2 1767   1.280   0.595   0.525 -2.1638  2.1781 -4.6219
  590SOL     OW 1768   1.524   2.940   2.862  0.5387  0.4948  0.5567
  590SOL    HW1 1769   1.612   2.946   2.806  0.6001  0.6312 -1.4579
  590SOL    HW2 1770   1.493   2.842   2.860 -1.3685 -0.6941 -0.9378
  591SOL     OW 1771   0.085   2.282   2.379  0.2964  0.1916  0.0768
  591SOL    HW1 1772   0.154   2.208   2.387 -0.8181 -0.9957 -0.4387
  591SOL    HW2 1773   0.067   2.318   2.285  2.4681 -0.2467 -1.2658
  592SOL     OW 1774   2.742   1.470   2.178 -0.2284  0.4155 -0.5134
  592SOL    HW1 1775   2.745   1.425   2.087 -0.0013  1.1205 -0.3314
  592SOL    HW2 1776   2.818   1.443   2.240 -2.1891 -1.1225  1.6828
  593SOL     OW 1777   1.720   1.464   1.582 -0.5278  0.2554 -0.4573
  593SOL    HW1 1778   1.740   1.384   1.528  0.7848  0.5263  2.5016
  593SOL    HW2 1779   1.695   1.431   1.674 -0.1784  1.2869  0.6755
  594SOL     OW 1780   2.706   1.266   3.071  0.3370  0.3065  0.2293
  594SOL    HW1 1781   2.802   1.285   0.014 -1.3708 -2.2055 -1.1160
  594SOL    HW2 1782   2.687   1.165   3.059 -0.9796  0.4846 -1.7427
  595SOL     OW 1783   0.845   0.614   0.388  0.2085 -0.4082 -0.2814
  595SOL    HW1 1784   0.847   0.718   0.406  1.5980 -0.1089  2.5728
  595SOL    HW2 1785   0.894   0.591   0.304 -3.4508 -2.9279  1.0302
  596SOL     OW 1786   0.194   1.275   1.584 -0.4214 -0.2308  0.0094
  596SOL    HW1 1787   0.149   1.302   1.670 -2.4131  3.0625 -0.4025
  596SOL    HW2 1788   0.219   1.357   1.529  5.0950 -1.3321  1.1521
  597SOL     OW 1789   1.073   2.043   1.000 -0.1984 -0.4147 -0.4125
  597SOL    HW1 1790   1.113   1.993   1.083  1.0483 -2.4022  1.1891
  597SOL    HW2 1791   1.143   2.101   0.952 -0.7135 -2.0422 -0.7901
  598SOL     OW 1792   0.092   0.017   1.593  0.2633 -0.0027  0.3029
  598SOL    HW1 1793   0.143   3.004   1.598  1.0586  2.2021  0.5477
  598SOL    HW2 1794   0.055   0.042   1.685  2.2692  0.4766 -1.1003
  599SOL     OW 1795   0.416   1.535   2.674 -0.1683 -0.1616 -0.4510
  599SOL    HW1 1796   0.347   1.569   2.743 -1.3893  0.6891  0.9568
  599SOL    HW2 1797   0.375   1.461   2.619 -0.2673 -0.5645 -1.2820
  600SOL     OW 1798   0.698   0.787   2.849  0.1914 -0.0171 -0.5874
  600SOL    HW1 1799   0.603   0.750   2.851 -0.0210  1.6762 -1.3290
  600SOL    HW2 1800   0.770   0.717   2.838 -0.0239  0.1600 -2.8751
  601SOL     OW 1801   0.664   0.980   1.587 -0.3597 -0.2071 -0.1088
  601SOL    HW1 1802   0.714   1.069   1.603 -0.5558 -1.1718  0.8486
  601SOL    HW2 1803   0.561   0.997   1.606 -3.3957 -2.0641  1.3372
  602SOL     OW 1804   0.477   3.023   2.965 -0.2128  0.2060 -0.0220
  602SOL    HW1 1805   0.564   3.066   2.992  0.0337 -0.6646 -1.0678
  602SOL    HW2 1806   0.405   3.048   3.032 -0.9943  0.8914  1.7189
  603SOL     OW 1807   1.633   2.473   2.587 -0.0914  0.3058  0.4070
  603SOL    HW1 1808   1.708   2.416   2.636 -0.6474  0.5181  1.9604
  603SOL    HW2 1809   1.555   2.503   2.644  0.0787  2.4833 -3.5252
  604SOL     OW 1810   0.221   2.639   2.890 -0.3120 -0.3569  0.2253
  604SOL    HW1 1811   0.180   2.577   2.963  0.6226 -2.1976  0.9315
  604SOL    HW2 1812   0.296   2.594   2.841 -0.4171  0.0937 -2.6610
  605SOL     OW 1813   2.382   1.213   1.577  0.4242  0.1210  0.1346
  605SOL    HW1 1814   2.403   1.310   1.552  1.3839 -2.3150 -0.8706
  605SOL    HW2 1815   2.434   1.192   1.662 -0.9886  2.2345  1.7014
  606SOL     OW 1816   0.827   1.013   2.549  0.2143 -0.3409  1.1780
  606SOL    HW1 1817   0.846   1.114   2.554 -0.1198 -1.0779 -1.1930
  606SOL    HW2 1818   0.893   0.955   2.603  1.4689 -2.4215  3.2522
  607SOL     OW 1819   0.989   0.552   1.087 -0.2660 -0.3236 -0.6208
  607SOL    HW1 1820   0.977   0.636   1.026  1.8840 -0.2681 -2.1778
  607SOL    HW2 1821   1.065   0.489   1.061 -3.0709 -0.1832  0.6199
  608SOL     OW 1822   2.980   1.544   1.561  0.2910 -0.5014  0.0028
  608SOL    HW1 1823   2.908   1.615   1.578 -1.4243 -1.3546  0.4996
  608SOL    HW2 1824   2.957   1.482   1.482 -2.1236 -0.3687 -0.1399
  609SOL     OW 1825   2.408   0.450   0.507 -0.0599 -0.3463  0.0474
  609SOL    HW1 1826   2.328   0.458   0.445 -0.2459  1.1073  0.0074
  609SOL    HW2 1827   2.426   0.541   0.545 -2.4483 -1.0444 -4.0945
  610SOL     OW 1828   0.266   2.607   1.207  0.8539  0.2624 -0.1385
  610SOL    HW1 1829   0.234   2.684   1.270 -0.0060  3.0152 -0.0065
  610SOL    HW2 1830   0.222   2.600   1.115  0.3576 -0.2694 -0.9549
  611SOL     OW 1831   1.504   2.085   0.215  0.6131  0.0077  0.7954
  611SOL    HW1 1832   1.585   2.075   0.153  1.4878 -2.7498 -0.2286
  611SOL    HW2 1833   1.454   1.997   0.216 -0.9798  0.9406 -1.4618
  612SOL     OW 1834   0.540   0.038   1.947 -0.1748  0.3827 -0.3902
  612SOL    HW1 1835   0.629   0.006   1.970 -4.9535 -0.3967 -2.5633
  612SOL    HW2 1836   0.539   0.126   1.898  0.9143 -1.6090  1.7582
  613SOL     OW 1837   0.399   2.087   0.652 -0.3543 -0.0724 -0.3591
  613SOL    HW1 1838   0.322   2.141   0.682  2.6011  1.7154  1.4788
  613SOL    HW2 1839   0.487   2.114   0.693 -3.3216  1.6825  2.0324
  614SOL     OW 1840   2.097   0.061   1.871  0.0955 -0.5141  0.1900
  614SOL    HW1 1841   2.169   0.129   1.901  4.2203  2.9290  1.1037
  614SOL    HW2 1842   2.126   3.039   1.879 -1.5868  0.2121 -0.9839
  615SOL     OW 1843   1.413   1.415   0.758  0.3517 -0.4948  0.1660
  615SOL    HW1 1844   1.450   1.355   0.830  0.8824  0.1853 -0.9794
  615SOL    HW2 1845   1.316   1.404   0.736  1.6747  2.0221  0.1793
  616SOL     OW 1846   1.799   1.419   0.673  0.1906  0.2542 -0.0981
  616SOL    HW1 1847   1.880   1.477   0.676 -1.7851 -0.9157 -0.9288
  616SOL    HW2 1848   1.725   1.448   0.615  1.1444 -0.7874  3.4748
  617SOL     OW 1849   1.533   0.636   3.021 -0.2139 -0.4617 -0.0325
  617SOL    HW1 1850   1.572   0.727   3.043  1.6597 -0.3422 -1.9661
  617SOL    HW2 1851   1.536   0.608   2.922 -2.3049 -2.0852 -0.1006
  618SOL     OW 1852   0.847   0.566   1.801  0.0194 -0.5242  0.2504
  618SOL    HW1 1853   0.929   0.596   1.852 -0.9962  1.1873  0.0667
  618SOL    HW2 1854   0.765   0.609   1.846  1.1146  1.3589 -1.0268
  619SOL     OW 1855   0.285   1.454   1.411 -0.1175 -0.0583 -0.0714
  619SOL    HW1 1856   0.257   1.447   1.312 -1.4958  0.2132 -2.0091
  619SOL    HW2 1857   0.370   1.515   1.430  2.2524  1.4351  1.3791
  620SOL     OW 1858   2.736   2.932   2.616 -0.1944 -0.0060  0.1365
  620SOL    HW1 1859   2.837   2.932   2.603 -0.6302 -1.7535 -0.8437
  620SOL    HW2 1860   2.709   3.031   2.595  0.3900  1.5137 -3.9574
  621SOL     OW 1861   2.305   1.841   3.058  0.5643  0.2191 -0.1545
  621SOL    HW1 1862   2.348   1.759   0.027  1.9483  0.4120  1.9167
  621SOL    HW2 1863   2.286   1.921   0.043  0.7866  0.6954  0.4723
  622SOL     OW 1864   1.372   0.366   2.855 -0.1696  0.7872  0.2950
  622SOL    HW1 1865   1.424   0.274   2.856  3.5599 -0.1700  0.1918
  622SOL    HW2 1866   1.431   0.446   2.843 -1.2254  1.3297 -1.2004
  623SOL     OW 1867   0.758   1.667   1.605  0.2552 -0.5473 -0.8953
  623SOL    HW1 1868   0.839   1.716   1.570 -0.2747  0.8344  0.8339
  623SOL    HW2 1869   0.751   1.669   1.706  2.7143  0.3874 -2.2596
  624SOL     OW 1870   2.906   0.144   0.226 -0.8789 -0.2095 -0.3688
  624SOL    HW1 1871   2.944   0.158   0.138  0.5157 -0.9643  2.3285
  624SOL    HW2 1872   2.945   0.211   0.293 -0.9532  0.1269 -0.5182
  625SOL     OW 1873   0.878   2.160   0.599  0.1547 -0.0162 -0.5858
  625SOL    HW1 1874   0.959   2.208   0.635  1.2776  1.0545  0.5050
  625SOL    HW2 1875   0.912   2.062   0.590  1.3609 -5.2060 -0.0243
  626SOL     OW 1876   2.688   0.826   2.542  0.3021  0.4389 -0.2567
  626SOL    HW1 1877   2.744   0.754   2.582  2.1210  1.2598  0.7910
  626SOL    HW2 1878   2.588   0.802   2.537  0.8743 -0.2050 -1.5551
  627SOL     OW 1879   0.928   1.963   2.815  0.3729  0.1566  0.1334
  627SOL    HW1 1880   0.956   2.057   2.790  1.7986 -0.6342 -1.3685
  627SOL    HW2 1881   0.905   1.914   2.727 -1.4364  0.7213  0.6261
  628SOL     OW 1882   2.855   2.509   2.743 -0.3837 -0.5731  0.8274
  628SOL    HW1 1883   2.808   2.486   2.658 -1.2447 -0.0450  0.7840
  628SOL    HW2 1884   2.821   2.598   2.783  0.8346  2.2576 -1.2234
  629SOL     OW 1885   0.705   2.866   2.622 -0.3253  0.0310 -0.3818
  629SOL    HW1 1886   0.734   2.768   2.616 -0.2033  0.4006  1.9838
  629SOL    HW2 1887   0.712   2.917   2.535 -0.0696 -1.8067  0.0294
  630SOL     OW 1888   0.863   0.345   1.969 -0.2209 -0.8262 -0.2366
  630SOL    HW1 1889   0.862   0.438   1.915 -0.6295  6.6223 -2.2675
  630SOL    HW2 1890   0.951   0.298   1.945  0.7247  1.5480 -0.8269
  631SOL     OW 1891   2.235   1.040   0.565 -0.1820  0.4363  0.3340
  631SOL    HW1 1892   2.205   0.951   0.524  1.4405  1.4108  1.7293
  631SOL    HW2 1893   2.187   1.121   0.525 -1.7509  0.5656  1.4335
  632SOL     OW 1894   2.630   0.278   1.698  0.0687  0.0472 -0.1235
  632SOL    HW1 1895   2.559   0.239   1.636 -1.1501 -0.6915 -1.7710
  632SOL    HW2 1896   2.692   0.339   1.644 -2.0358 -0.4237 -1.2509
  633SOL     OW 1897   1.202   1.348   0.568  0.6500 -0.2534 -0.6410
  633SOL    HW1 1898   1.107   1.371   0.538 -0.0743  1.6266  0.9835
  633SOL    HW2 1899   1.238   1.263   0.533 -0.9771  2.3898  1.5721
  634SOL     OW 1900   2.697   2.776   2.208 -0.5197  0.6269  0.0400
  634SOL    HW1 1901   2.800   2.758   2.213  1.4920 -1.1802  2.3111
  634SOL    HW2 1902   2.668   2.775   2.305  2.2445  0.5168 -0.0393
  635SOL     OW 1903   1.430   0.448   0.554  0.1453  0.4761  0.3943
  635SOL    HW1 1904   1.424   0.352   0.524 -0.9851  1.5769  1.2721
  635SOL    HW2 1905   1.521   0.487   0.539  0.6442 -1.1537 -0.6476
  636SOL     OW 1906   0.740   1.203   0.660  0.2658 -0.6020 -0.3321
  636SOL    HW1 1907   0.649   1.229   0.617  0.0619  0.1021 -2.7317
  636SOL    HW2 1908   0.744   1.109   0.693 -0.5500  2.2169  0.1481
  637SOL     OW 1909   2.274   2.057   0.175 -0.6730 -0.6140  0.7081
  637SOL    HW1 1910   2.377   2.037   0.181  0.6955  0.0148 -0.7914
  637SOL    HW2 1911   2.250   2.129   0.104 -2.9588  0.6353 -2.3018
  638SOL     OW 1912   1.595   2.274   2.378  0.9414  0.0489 -0.0236
  638SOL    HW1 1913   1.563   2.330   2.296  0.8468  1.4256 -3.3090
  638SOL    HW2 1914   1.616   2.326   2.463  1.6135 -1.4375  2.3754
  639SOL     OW 1915   1.438   2.065   0.674  0.2447  0.8037 -0.7864
  639SOL    HW1 1916   1.375   2.102   0.747  1.8634 -0.1440  0.1413
  639SOL    HW2 1917   1.501   1.990   0.708  0.4899 -0.1809  2.4944
  640SOL     OW 1918   2.060   2.971   0.568  0.1513  0.6873  0.0703
  640SOL    HW1 1919   2.027   3.011   0.481  0.5217 -0.3569  0.0848
  640SOL    HW2 1920   2.100   3.054   0.615  0.1838 -0.4863 -0.6347
  641SOL     OW 1921   2.874   0.500   3.046  0.2898 -0.3116 -0.2391
  641SOL    HW1 1922   2.810   0.465   0.043 -1.6370  1.0260  0.4219
  641SOL    HW2 1923   2.908   0.426   2.981  1.2375  0.5338  0.0885
  642SOL     OW 1924   0.536   0.583   1.121  0.1696  0.0004 -0.0659
  642SOL    HW1 1925   0.441   0.586   1.076 -4.4773  0.2263 -3.0449
  642SOL    HW2 1926   0.547   0.487   1.150  0.2471  1.3180 -0.1743
  643SOL     OW 1927   0.758   1.127   2.190 -0.0417 -0.1670 -0.6120
  643SOL    HW1 1928   0.750   1.100   2.287  0.0945 -0.1161 -2.3797
  643SOL    HW2 1929   0.780   1.224   2.188 -2.1426  2.1094  1.6933
  644SOL     OW 1930   1.596   2.150   0.464 -0.3150  0.3920 -0.9315
  644SOL    HW1 1931   1.556   2.141   0.373  0.7088  1.1107  2.3447
  644SOL    HW2 1932   1.520   2.145   0.532  2.1355 -1.3454 -1.2637
  645SOL     OW 1933   1.272   1.986   0.476  0.4176 -0.1368 -0.3718
  645SOL    HW1 1934   1.313   1.923   0.407  1.3458  0.7847 -0.9194
  645SOL    HW2 1935   1.335   2.016   0.550 -0.6271  0.0765  2.4392
  646SOL     OW 1936   3.029   1.678   2.614  0.3378 -0.2759  0.5199
  646SOL    HW1 1937   2.968   1.613   2.563 -1.4453 -0.5680 -2.3921
  646SOL    HW2 1938   2.998   1.776   2.606 -0.1190  2.8866 -2.0099
  647SOL     OW 1939   1.208   0.417   1.005 -0.3297 -0.8608 -0.0054
  647SOL    HW1 1940   1.272   0.398   1.081 -0.9604 -0.5905 -0.9542
  647SOL    HW2 1941   1.254   0.461   0.924  1.2364 -0.4812 -2.6567
  648SOL     OW 1942   1.595   0.489   1.046 -0.5390 -0.1028  0.0758
  648SOL    HW1 1943   1.534   0.436   1.107  3.2053 -2.1913  0.3667
  648SOL    HW2 1944   1.694   0.472   1.072  0.0677  0.7813  1.4682
  649SOL     OW 1945   0.964   1.717   0.408 -0.3989  0.1140 -0.3041
  649SOL    HW1 1946   0.960   1.722   0.308  0.4434  2.0675  2.1934
  649SOL    HW2 1947   1.047   1.663   0.439  0.9823 -2.0639  2.2273
  650SOL     OW 1948   2.298   1.590   1.908  0.6098 -1.0828 -0.3263
  650SOL    HW1 1949   2.390   1.635   1.916 -0.8569 -0.2468  2.0145
  650SOL    HW2 1950   2.239   1.630   1.836 -0.7692 -2.2304 -1.7596
  651SOL     OW 1951   1.672   2.156   2.795 -0.2718 -0.8125  0.2282
  651SOL    HW1 1952   1.743   2.234   2.770  1.6957  3.1837  0.6642
  651SOL    HW2 1953   1.679   2.076   2.729  0.8085 -1.3990 -1.6525
  652SOL     OW 1954   2.399   1.644   0.145  0.0046 -0.1454  0.1957
  652SOL    HW1 1955   2.455   1.562   0.113  0.6594 -1.7358 -0.1202
  652SOL    HW2 1956   2.414   1.672   0.240 -0.7563  0.1595  0.5533
  653SOL     OW 1957   0.268   0.340   0.887 -0.3619  0.2303  0.4018
  653SOL    HW1 1958   0.353   0.292   0.910 -2.0424  0.5150 -1.6664
  653SOL    HW2 1959   0.190   0.276   0.863  0.2044 -0.0569 -0.9373
  654SOL     OW 1960   2.827   0.125   2.249 -0.5031 -0.1670  0.0623
  654SOL    HW1 1961   2.855   0.109   2.152  0.3155  1.9779 -0.3341
  654SOL    HW2 1962   2.905   0.099   2.311 -0.7808 -1.7924 -0.6364
  655SOL     OW 1963   0.597   2.421   0.603  0.0779  0.6154  0.1268
  655SOL    HW1 1964   0.673   2.488   0.596 -1.5202  1.7468  2.7148
  655SOL    HW2 1965   0.513   2.471   0.602  2.7120 -0.6412 -0.3880
  656SOL     OW 1966   3.013   0.118   2.637 -0.7426 -0.0644 -0.3695
  656SOL    HW1 1967   2.985   0.078   2.548  2.5413 -0.9655  0.7336
  656SOL    HW2 1968   2.932   0.127   2.697  0.2475 -1.8372 -0.3434
  657SOL     OW 1969   0.173   1.198   2.916 -0.3369  0.0994  0.4155
  657SOL    HW1 1970   0.188   1.290   2.948  0.4303 -2.2801  2.4161
  657SOL    HW2 1971   0.210   1.132   2.981  0.3895 -0.8565 -0.7729
  658SOL     OW 1972   2.316   1.832   1.232  0.2159  0.3136 -0.0283
  658SOL    HW1 1973   2.236   1.885   1.201 -0.9528  1.7135 -0.1184
  658SOL    HW2 1974   2.330   1.844   1.333  0.5029  0.9677 -2.3760
  659SOL     OW 1975   1.631   2.742   0.058 -0.2814 -0.3798 -0.2286
  659SOL    HW1 1976   1.552   2.704   0.015  0.8728  0.0712 -0.4074
  659SOL    HW2 1977   1.712   2.702   0.012 -0.9412 -1.6263 -0.1544
  660SOL     OW 1978   1.477   0.795   2.599 -0.1189  0.2272 -0.0721
  660SOL    HW1 1979   1.495   0.890   2.627 -2.4286 -1.0117  0.5433
  660SOL    HW2 1980   1.471   0.783   2.498 -0.7466 -0.8981 -0.3503
  661SOL     OW 1981   0.068   2.057   1.121  0.0666  0.4366 -0.2179
  661SOL    HW1 1982   0.112   2.061   1.030  0.6726  1.3966 -2.6345
  661SOL    HW2 1983   3.058   2.006   1.116  2.4644 -0.1467  0.3227
  662SOL     OW 1984   0.364   0.740   3.063  0.6163 -0.4018 -0.5634
  662SOL    HW1 1985   0.259   0.748   3.046 -0.7299  0.3756  1.3337
  662SOL    HW2 1986   0.405   0.648   0.001  1.1893  2.3384 -0.1981
  663SOL     OW 1987   2.111   2.054   1.271  0.3079 -0.0130 -0.3816
  663SOL    HW1 1988   2.049   2.081   1.200  0.6777 -1.4377  0.7890
  663SOL    HW2 1989   2.070   1.985   1.335 -0.2051  0.5974 -1.5510
  664SOL     OW 1990   0.821   1.300   1.221  0.0837  0.2111 -0.4669
  664SOL    HW1 1991   0.725   1.278   1.248 -0.5973  0.4800 -0.5492
  664SOL    HW2 1992   0.859   1.365   1.290  0.5126 -0.7042  2.2843
  665SOL     OW 1993   2.034   2.622   2.069 -0.1536 -0.0821 -0.3224
  665SOL    HW1 1994   2.003   2.717   2.090 -1.7350  1.3688  0.8054
  665SOL    HW2 1995   2.115   2.625   2.013 -2.9130  0.9635  2.3172
  666SOL     OW 1996   2.874   2.742   0.110 -0.5663 -0.2112  0.1322
  666SOL    HW1 1997   2.930   2.659   0.125 -2.1548 -1.6835 -0.7090
  666SOL    HW2 1998   2.899   2.815   0.179  0.0080 -0.1299  0.1029
  667SOL     OW 1999   2.760   1.211   1.539 -0.0599  0.3418 -0.1692
  667SOL    HW1 2000   2.667   1.187   1.500 -1.7307 -0.9731  0.7405
  667SOL    HW2 2001   2.758   1.206   1.638  0.9602  2.1030 -1.6440
  668SOL     OW 2002   0.174   0.670   2.471 -0.1244  0.1782 -0.1087
  668SOL    HW1 2003   0.163   0.601   2.549  1.0819  2.5915  2.7756
  668SOL    HW2 2004   0.076   0.712   2.458 -2.0404 -1.1773  1.6752
  669SOL     OW 2005   2.256   2.002   2.425 -0.1752 -0.5662  0.1833
  669SOL    HW1 2006   2.313   1.926   2.461 -0.2833  0.3097 -2.0611
  669SOL    HW2 2007   2.214   1.982   2.337  1.3697  0.1230  2.1213
  670SOL     OW 2008   2.750   1.338   1.922 -0.1477  0.1916 -0.4693
  670SOL    HW1 2009   2.679   1.287   1.871 -2.7742 -1.1829  2.1316
  670SOL    HW2 2010   2.834   1.280   1.942  1.4343 -0.1885 -1.7866
  671SOL     OW 2011   2.826   1.432   0.821 -0.0251  0.2141  0.2545
  671SOL    HW1 2012   2.914   1.471   0.780  4.4927  1.1327 -2.5900
  671SOL    HW2 2013   2.758   1.442   0.750  3.2985 -1.4921 -2.6372
  672SOL     OW 2014   2.315   0.629   2.189  0.2756  0.2456 -0.3029
  672SOL    HW1 2015   2.288   0.707   2.245 -3.0319 -1.6367  1.1926
  672SOL    HW2 2016   2.371   0.654   2.110 -3.2093 -1.8126  0.8009
  673SOL     OW 2017   2.437   0.040   2.068 -0.2099 -0.0350 -0.4346
  673SOL    HW1 2018   2.494   0.117   2.106 -0.4426  1.4455 -0.0104
  673SOL    HW2 2019   2.473   3.023   2.097  0.4463 -1.7498 -1.6590
  674SOL     OW 2020   1.667   2.464   1.589 -0.2248 -0.2923 -0.3844
  674SOL    HW1 2021   1.758   2.444   1.620 -1.2064 -0.1604  0.5197
  674SOL    HW2 2022   1.625   2.377   1.570 -3.6039 -1.6139 -1.9905
  675SOL     OW 2023   0.830   0.764   0.811 -0.6225 -0.1949 -0.1838
  675SOL    HW1 2024   0.768   0.774   0.892  2.6614 -2.7695 -2.1851
  675SOL    HW2 2025   0.781   0.777   0.723  0.3020 -0.0967  0.5164
  676SOL     OW 2026   1.582   1.041   0.806  0.0772  0.3964 -0.2073
  676SOL    HW1 2027   1.677   1.067   0.771  0.3817 -0.0127  3.1611
  676SOL    HW2 2028   1.563   0.942   0.782 -2.3241 -0.9131 -2.4053
  677SOL     OW 2029   2.565   1.347   2.327 -0.0986  0.1118 -0.0255
  677SOL    HW1 2030   2.504   1.282   2.275 -3.3432  0.0598 -2.7081
  677SOL    HW2 2031   2.614   1.400   2.259 -1.1413 -0.7328  1.7621
  678SOL     OW 2032   2.570   1.772   1.165  0.6077  0.1290  0.0530
  678SOL    HW1 2033   2.618   1.742   1.251 -0.3407  1.1724 -1.5950
  678SOL    HW2 2034   2.473   1.801   1.179  1.0930 -3.3625 -1.0249
  679SOL     OW 2035   2.217   2.614   0.304  0.0149  0.3981  0.1735
  679SOL    HW1 2036   2.219   2.677   0.384  2.2092  3.2743  1.1520
  679SOL    HW2 2037   2.131   2.628   0.249  2.1640  0.4906 -3.3998
  680SOL     OW 2038   2.963   2.144   1.948  0.1251  0.7459 -0.0386
  680SOL    HW1 2039   3.031   2.078   1.916 -1.5726 -0.9471 -0.3473
  680SOL    HW2 2040   2.957   2.230   1.891  1.5240  3.0393 -0.9658
  681SOL     OW 2041   0.619   1.329   1.532  0.2809  0.4798 -0.1933
  681SOL    HW1 2042   0.689   1.268   1.564 -1.6866  1.0154 -0.1892
  681SOL    HW2 2043   0.569   1.366   1.612 -1.4196 -0.3727  2.7959
  682SOL     OW 2044   1.281   2.694   0.737  0.7565  0.3687 -0.0946
  682SOL    HW1 2045   1.370   2.655   0.692  1.1464 -1.1135 -0.2931
  682SOL    HW2 2046   1.222   2.621   0.773  0.0279  0.5293 -1.1183
  683SOL     OW 2047   2.171   1.440   0.856  0.3971  0.0764 -0.2759
  683SOL    HW1 2048   2.203   1.506   0.931 -0.1382  1.6622  1.5015
  683SOL    HW2 2049   2.152   1.353   0.902 -1.5603  2.4398  0.2562
  684SOL     OW 2050   0.296   2.213   1.939  0.2431  0.2281  0.4986
  684SOL    HW1 2051   0.365   2.181   2.005 -1.3416  0.1175  0.8656
  684SOL    HW2 2052   0.338   2.220   1.850 -3.0165 -0.8052  1.6354
  685SOL     OW 2053   1.514   1.592   0.122 -0.1686  0.5623  0.1255
  685SOL    HW1 2054   1.510   1.669   0.058  0.8443 -0.3607  2.8858
  685SOL    HW2 2055   1.609   1.579   0.156  1.1076 -0.0069 -0.7561
  686SOL     OW 2056   2.975   0.608   1.305 -0.2318  0.0486  0.2823
  686SOL    HW1 2057   2.896   0.596   1.370 -1.4671  1.3122  0.9240
  686SOL    HW2 2058   3.008   0.704   1.317 -1.8402  0.5501 -2.7552
  687SOL     OW 2059   0.826   2.377   2.766  0.1305  0.1418  0.1356
  687SOL    HW1 2060   0.730   2.350   2.748  1.5002  0.7824 -3.2522
  687SOL    HW2 2061   0.888   2.303   2.732  0.5554 -2.1012 -2.6802
  688SOL     OW 2062   2.738   1.847   1.818  0.1482 -0.3235  0.6953
  688SOL    HW1 2063   2.710   1.938   1.848 -1.9945 -0.1542 -2.9000
  688SOL    HW2 2064   2.798   1.805   1.885 -2.6285  0.2281 -3.6548
  689SOL     OW 2065   1.921   0.876   1.906  0.0094  0.7721 -0.1381
  689SOL    HW1 2066   1.896   0.823   1.827  1.8079  0.9708  3.1439
  689SOL    HW2 2067   1.865   0.962   1.893 -0.7540 -4.0325  1.4840
  690SOL     OW 2068   2.239   0.899   1.181  0.0849 -0.5347  0.5300
  690SOL    HW1 2069   2.293   0.843   1.243  0.7908 -0.2178 -0.6694
  690SOL    HW2 2070   2.287   0.982   1.146  0.5540  2.6611 -0.0715
  691SOL     OW 2071   0.795   1.785   1.915 -0.2556  0.3177  0.2432
  691SOL    HW1 2072   0.823   1.835   2.000 -1.0135 -0.5622  1.5518
  691SOL    HW2 2073   0.813   1.841   1.828  2.6239 -0.1691 -5.5086
  692SOL     OW 2074   2.163   0.314   1.521 -0.1415 -0.2238  0.7110
  692SOL    HW1 2075   2.096   0.265   1.573  1.4807  0.8350 -4.2393
  692SOL    HW2 2076   2.135   0.316   1.422  2.1175 -2.4373  0.2081
  693SOL     OW 2077   0.431   1.275   2.211  0.3441  0.2550 -0.0337
  693SOL    HW1 2078   0.400   1.176   2.220  1.5546 -0.5895 -1.5379
  693SOL    HW2 2079   0.383   1.323   2.133 -2.6236  2.3018  1.0557
  694SOL     OW 2080   1.642   2.920   1.152  0.5985 -0.2871  0.1391
  694SOL    HW1 2081   1.646   2.958   1.055 -0.6711  4.5115 -0.3696
  694SOL    HW2 2082   1.735   2.904   1.194  0.5276  0.2044 -1.5949
  695SOL     OW 2083   1.356   1.142   1.936 -0.6099 -0.8128  0.1935
  695SOL    HW1 2084   1.318   1.055   1.968  1.4522 -0.3753  0.6842
  695SOL    HW2 2085   1.340   1.170   1.839  0.3713  2.1598 -0.5199
  696SOL     OW 2086   1.268   0.063   0.428 -0.8417  0.6917 -0.7516
  696SOL    HW1 2087   1.224   0.155   0.413  0.6851  1.2455  1.4735
  696SOL    HW2 2088   1.224   3.073   0.493 -0.7389 -0.8473  1.1334
  697SOL     OW 2089   1.370   0.513   0.825  0.6513  0.3584 -0.4229
  697SOL    HW1 2090   1.348   0.606   0.863 -0.6271 -1.4473  1.0095
  697SOL    HW2 2091   1.404   0.527   0.727 -0.1241  0.5234 -1.1314
  698SOL     OW 2092   1.286   1.154   2.609  0.0185 -0.3566  0.7160
  698SOL    HW1 2093   1.245   1.247   2.592 -1.0494  1.3448  1.1047
  698SOL    HW2 2094   1.265   1.131   2.704 -2.0357  0.6209 -0.8759
  699SOL     OW 2095   1.481   1.519   1.103  0.0085  0.2049  0.0736
  699SOL    HW1 2096   1.465   1.622   1.102  1.8419 -0.0753 -2.6380
  699SOL    HW2 2097   1.390   1.474   1.079 -1.6489  1.5681  1.6661
  700SOL     OW 2098   1.508   0.173   0.409 -0.0426 -0.4835  0.1594
  700SOL    HW1 2099   1.421   0.123   0.433  2.2439  1.5849  1.4630
  700SOL    HW2 2100   1.581   0.156   0.477 -0.9696  1.1358 -0.1158
  701SOL     OW 2101   0.023   0.237   2.093  0.5284 -0.4850 -0.3713
  701SOL    HW1 2102   0.085   0.316   2.113 -0.6686  2.3678  0.5378
  701SOL    HW2 2103   0.061   0.145   2.119 -1.4982 -2.1744 -1.1007
  702SOL     OW 2104   1.163   3.031   0.079 -0.1275  0.6434  0.4421
  702SOL    HW1 2105   1.257   3.062   0.061 -1.5962  0.9485  2.7269
  702SOL    HW2 2106   1.160   2.978   0.168 -0.4883  1.1986 -0.8278
  703SOL     OW 2107   2.562   2.731   2.525 -0.7215 -0.1838 -0.7192
  703SOL    HW1 2108   2.474   2.757   2.554  3.6107  0.3791  1.3576
  703SOL    HW2 2109   2.634   2.796   2.550  2.9451  0.2864 -1.0269
  704SOL     OW 2110   0.554   2.159   1.018 -0.4529  0.5605  0.3827
  704SOL    HW1 2111   0.597   2.156   0.925  1.2406 -0.4053  0.9611
  704SOL    HW2 2112   0.515   2.069   1.041  1.7225 -0.4565 -3.2693
  705SOL     OW 2113   2.918   0.459   1.965 -0.1015  0.0498 -0.3159
  705SOL    HW1 2114   2.960   0.384   2.021  0.0843  0.4125  0.1638
  705SOL    HW2 2115   2.850   0.513   2.024 -5.3875 -0.0679  3.2461
  706SOL     OW 2116   1.753   0.134   0.528  0.2179  0.1535  0.0450
  706SOL    HW1 2117   1.754   0.034   0.513 -0.2690 -0.8246 -0.1547
  706SOL    HW2 2118   1.842   0.172   0.499 -0.6935 -0.5900  0.6493
  707SOL     OW 2119   1.313   1.896   1.952 -0.1909  0.1609 -0.3257
  707SOL    HW1 2120   1.344   1.851   2.037  1.4153  2.7970  1.2640
  707SOL    HW2 2121   1.364   1.985   1.944 -1.1053  1.7559 -0.5524
  708SOL     OW 2122   2.981   2.218   1.629 -0.0085  0.0532 -0.0447
  708SOL    HW1 2123   2.886   2.256   1.619 -3.6777  1.2024  2.1935
  708SOL    HW2 2124   3.047   2.268   1.562  2.7768  0.5985 -0.5085
  709SOL     OW 2125   1.960   0.456   1.932 -0.2431 -0.7465  0.8882
  709SOL    HW1 2126   2.038   0.478   1.865 -0.6891 -1.5749  0.3705
  709SOL    HW2 2127   1.888   0.401   1.890 -1.5797  2.4545 -0.1342
  710SOL     OW 2128   2.381   0.503   1.533  0.3323 -0.4748  0.2897
  710SOL    HW1 2129   2.303   0.441   1.539  0.3089 -0.9769 -2.1478
  710SOL    HW2 2130   2.459   0.451   1.484 -0.3381 -1.9189 -0.2019
  711SOL     OW 2131   0.110   2.124   0.357  0.0376  0.0631  1.0316
  711SOL    HW1 2132   0.211   2.129   0.342  1.0982 -0.4880 -1.5474
  711SOL    HW2 2133   0.075   2.030   0.371  1.3102  0.1959  0.0120
  712SOL     OW 2134   0.470   2.553   2.236 -0.1284 -0.3535 -0.0558
  712SOL    HW1 2135   0.430   2.521   2.145  2.0665  0.9719 -0.1203
  712SOL    HW2 2136   0.548   2.617   2.227  0.0382 -2.2570  2.0925
  713SOL     OW 2137   1.936   0.959   0.024 -0.6621  0.0507  0.4420
  713SOL    HW1 2138   1.884   0.941   0.108  0.5493 -0.1026 -2.3405
  713SOL    HW2 2139   2.003   0.883   0.008  2.6080 -0.5015 -1.0297
  714SOL     OW 2140   0.683   1.780   0.777 -0.1659  0.2662  0.7218
  714SOL    HW1 2141   0.763   1.835   0.802 -2.6063  1.9183  1.9179
  714SOL    HW2 2142   0.661   1.712   0.851  2.0457 -1.1104  0.8882
  715SOL     OW 2143   2.046   2.959   0.055 -0.1871 -0.0151  0.2934
  715SOL    HW1 2144   2.072   2.866   0.086 -0.8500  1.8847 -0.4095
  715SOL    HW2 2145   1.951   2.975   0.078  2.0796  0.4048  0.3980
  716SOL     OW 2146   0.229   0.421   1.835 -0.1230 -0.0069  0.4997
  716SOL    HW1 2147   0.137   0.461   1.821 -0.3982 -0.0758  0.3319
  716SOL    HW2 2148   0.229   0.330   1.875 -0.8877 -0.7157 -0.2713
  717SOL     OW 2149   2.994   0.655   0.150 -0.2512 -0.3045 -0.3447
  717SOL    HW1 2150   2.947   0.597   0.078 -0.5242 -0.5097 -0.2766
  717SOL    HW2 2151   3.071   0.600   0.194  2.8805  2.7674 -0.5979
  718SOL     OW 2152   1.263   0.835   2.756  0.3982  0.1557  0.5278
  718SOL    HW1 2153   1.284   0.799   2.849 -3.6458  0.6576 -3.0780
  718SOL    HW2 2154   1.335   0.813   2.687  1.3117  0.9966 -1.8749
  719SOL     OW 2155   2.745   1.628   2.998  0.0707 -0.5952  0.0036
  719SOL    HW1 2156   2.660   1.583   2.960 -0.8805  1.3010  1.1055
  719SOL    HW2 2157   2.824   1.583   2.957  0.9348  1.0928  1.3257
  720SOL     OW 2158   1.446   0.965   1.068 -0.2135  0.1442  0.6718
  720SOL    HW1 2159   1.516   0.972   0.993 -1.2936 -0.6617  0.1111
  720SOL    HW2 2160   1.448   0.874   1.112 -2.0112  1.6996  1.6036
  721SOL     OW 2161   2.779   0.695   0.311  0.6496 -0.2567  0.0876
  721SOL    HW1 2162   2.870   0.685   0.277 -2.0689 -0.2078  3.2437
  721SOL    HW2 2163   2.736   0.600   0.328 -3.0313 -5.0213 -0.2793
  722SOL     OW 2164   1.067   1.191   3.042 -0.3692 -0.0665  0.1711
  722SOL    HW1 2165   1.051   1.187   0.067  1.9526 -0.5313  2.0176
  722SOL    HW2 2166   0.990   1.146   2.989  0.9093  1.7527 -2.2399
  723SOL     OW 2167   0.470   1.026   0.532  0.0082  0.4610 -0.7774
  723SOL    HW1 2168   0.492   1.125   0.543 -0.5350  3.0741  0.1936
  723SOL    HW2 2169   0.415   1.007   0.445  0.3957 -0.7140 -0.3814
  724SOL     OW 2170   1.164   2.437   1.925 -0.4621 -0.2327 -0.4160
  724SOL    HW1 2171   1.165   2.440   1.824 -3.0249  1.0659 -3.3580
  724SOL    HW2 2172   1.255   2.468   1.963  1.9468 -0.8153 -0.0380
  725SOL     OW 2173   2.519   0.961   1.509  0.6350  0.3085  0.6830
  725SOL    HW1 2174   2.452   1.033   1.503  2.9268  1.6693  1.8902
  725SOL    HW2 2175   2.483   0.885   1.564  0.3482  3.0962 -2.1566
  726SOL     OW 2176   1.762   2.703   0.301  0.2654 -0.0496 -0.1710
  726SOL    HW1 2177   1.728   2.625   0.360 -0.8782 -0.0740  0.8761
  726SOL    HW2 2178   1.695   2.724   0.227 -1.6041  2.9750 -1.0292
  727SOL     OW 2179   1.371   0.815   2.339 -0.1529 -0.4127 -0.7047
  727SOL    HW1 2180   1.308   0.892   2.312 -0.7396 -2.6520 -1.4791
  727SOL    HW2 2181   1.353   0.729   2.289 -1.8334  0.1604 -0.8561
  728SOL     OW 2182   1.389   2.779   1.195  0.4609  0.2267 -0.0258
  728SOL    HW1 2183   1.484   2.811   1.188 -2.5839  1.2931  1.3040
  728SOL    HW2 2184   1.325   2.852   1.155 -2.3455  3.2319  0.9342
  729SOL     OW 2185   1.856   0.857   1.313 -0.4180 -0.1496 -0.1186
  729SOL    HW1 2186   1.804   0.894   1.390  1.4055 -0.9785 -0.7032
  729SOL    HW2 2187   1.815   0.765   1.281 -0.3838 -0.0478 -1.0512
  730SOL     OW 2188   0.582   1.994   2.105  0.5129 -0.4343  0.5983
  730SOL    HW1 2189   0.606   2.091   2.109  1.3787 -1.0935  0.6907
  730SOL    HW2 2190   0.592   1.963   2.008 -0.2225 -0.2643  0.8793
  731SOL     OW 2191   0.522   0.364   0.608 -0.7498 -0.1408 -0.2099
  731SOL    HW1 2192   0.606   0.343   0.661 -1.7306  0.1972  3.7896
  731SOL    HW2 2193   0.475   0.278   0.572  4.0510 -0.7704 -2.2053
  732SOL     OW 2194   0.608   0.741   0.111 -0.2389 -0.0945 -0.0564
  732SOL    HW1 2195   0.519   0.752   0.066  3.2035 -1.9002  2.1118
  732SOL    HW2 2196   0.634   0.826   0.158  0.7642  2.5486  0.4112
  733SOL     OW 2197   1.050   2.381   1.033 -0.3850 -0.2501 -0.1212
  733SOL    HW1 2198   0.956   2.343   1.056 -2.4447  0.3006 -5.0115
  733SOL    HW2 2199   1.059   2.461   1.094  0.9734 -1.7572  0.1782
  734SOL     OW 2200   2.988   1.968   2.645 -0.1911  0.1348 -0.0891
  734SOL    HW1 2201   2.967   2.024   2.564  0.3077  0.4608 -0.4974
  734SOL    HW2 2202   3.053   2.009   2.717 -1.2598 -0.1538 -0.7208
  735SOL     OW 2203   1.001   2.939   1.009  0.2795 -0.2554 -0.3662
  735SOL    HW1 2204   0.940   2.966   1.084  2.5209 -0.7252 -0.5359
  735SOL    HW2 2205   0.953   2.968   0.922  0.1076 -0.3130  1.3526
  736SOL     OW 2206   1.810   0.281   0.036  0.2618  0.4235 -0.2409
  736SOL    HW1 2207   1.744   0.245   0.105 -0.3197 -0.8857  1.4552
  736SOL    HW2 2208   1.796   0.377   0.016 -1.4079  0.1889  0.2249
  737SOL     OW 2209   3.005   0.298   0.422  0.2716  0.1463  0.1865
  737SOL    HW1 2210   0.018   0.266   0.465  0.3142 -0.6856 -0.8957
  737SOL    HW2 2211   2.948   0.360   0.477  0.5516  0.6526 -0.2315
  738SOL     OW 2212   2.537   2.751   1.171 -0.2288 -0.4194  0.0251
  738SOL    HW1 2213   2.541   2.853   1.188  1.4861  1.8860  0.9970
  738SOL    HW2 2214   2.571   2.733   1.074  2.0014 -1.3620 -4.6332
  739SOL     OW 2215   1.298   2.269   0.186 -0.5616  0.3256  0.1954
  739SOL    HW1 2216   1.384   2.215   0.180 -3.8231 -0.6564 -2.6154
  739SOL    HW2 2217   1.221   2.219   0.138 -2.9224  1.1017  1.3691
  740SOL     OW 2218   1.647   2.994   0.892  0.1839 -0.3952 -0.3374
  740SOL    HW1 2219   1.550   2.962   0.899 -4.9980 -0.1236  0.9601
  740SOL    HW2 2220   1.645   0.015   0.866  0.2393 -1.3477  0.6898
  741SOL     OW 2221   2.014   0.523   0.664  0.1153  0.5048 -0.1152
  741SOL    HW1 2222   2.013   0.559   0.570  2.4918  0.1074 -1.0564
  741SOL    HW2 2223   1.990   0.597   0.730  3.4924  0.8008 -2.5467
  742SOL     OW 2224   1.141   2.100   2.328  0.5779 -0.5040 -0.1122
  742SOL    HW1 2225   1.216   2.155   2.365 -0.5118  1.7208  1.1278
  742SOL    HW2 2226   1.132   2.099   2.229 -1.2031  2.3491  2.6240
  743SOL     OW 2227   2.166   0.530   1.766  0.5639 -0.1056  0.1046
  743SOL    HW1 2228   2.194   0.626   1.794  3.0764 -0.8914  0.3540
  743SOL    HW2 2229   2.247   0.475   1.792 -1.2658  0.0191  1.1587
  744SOL     OW 2230   2.386   0.346   1.177  0.2721 -0.0951  0.1423
  744SOL    HW1 2231   2.409   0.326   1.078 -0.3134 -0.4806 -3.6122
  744SOL    HW2 2232   2.379   0.260   1.224 -0.8285  3.4860  0.4895
  745SOL     OW 2233   1.932   1.211   1.640 -0.1209  0.1397 -0.1776
  745SOL    HW1 2234   1.958   1.307   1.666  0.6546  0.2864  2.3088
  745SOL    HW2 2235   1.866   1.211   1.562  1.5894  3.2321 -0.9366
  746SOL     OW 2236   1.225   1.375   1.064 -0.8140 -0.6426 -0.0132
  746SOL    HW1 2237   1.141   1.429   1.047  0.2583 -0.3089 -1.2110
  746SOL    HW2 2238   1.221   1.291   1.012  1.8571  1.0959 -1.8070
  747SOL     OW 2239   2.008   1.236   1.246 -0.2676 -0.1137 -0.0141
  747SOL    HW1 2240   2.093   1.206   1.300  1.2566  0.6474  2.2922
  747SOL    HW2 2241   2.013   1.208   1.149 -2.4239  0.4827  3.5510
  748SOL     OW 2242   0.258   2.448   0.761  0.2667 -0.4192 -0.1441
  748SOL    HW1 2243   0.318   2.436   0.842 -3.2835 -0.5800  0.8953
  748SOL    HW2 2244   0.222   2.358   0.725 -0.9792  0.8638  2.3620
  749SOL     OW 2245   3.045   3.058   2.393  0.2640  0.6843  0.1289
  749SOL    HW1 2246   3.046   2.953   2.385  0.0491 -1.5780 -0.8887
  749SOL    HW2 2247   0.065   0.007   2.393 -1.0312 -1.9567  0.6727
  750SOL     OW 2248   2.241   0.548   1.045 -0.1284 -0.8927 -0.0288
  750SOL    HW1 2249   2.255   0.633   1.101 -2.1583  0.9816  3.0841
  750SOL    HW2 2250   2.278   0.468   1.094 -1.4596  1.4640 -0.1452
  751SOL     OW 2251   2.870   0.439   0.606 -0.2249 -0.4213  0.4616
  751SOL    HW1 2252   2.943   0.512   0.627  0.2650  2.2106  0.3051
  751SOL    HW2 2253   2.835   0.392   0.688  2.1791 -0.3615 -0.6461
  752SOL     OW 2254   0.136   2.643   0.956 -0.1691 -0.1725 -0.4515
  752SOL    HW1 2255   0.035   2.656   0.944  0.6429  0.6565  0.9667
  752SOL    HW2 2256   0.168   2.564   0.895  2.1590 -1.6668  0.8849
  753SOL     OW 2257   1.435   0.201   2.024 -0.4656  0.3136 -0.5005
  753SOL    HW1 2258   1.391   0.290   2.001  0.3814 -2.0384 -1.2294
  753SOL    HW2 2259   1.440   0.144   1.934  0.3488 -1.9028 -0.5183
  754SOL     OW 2260   1.873   2.350   1.869  0.2358  0.1673  0.2183
  754SOL    HW1 2261   1.875   2.276   1.943  1.2669  1.0568  3.3639
  754SOL    HW2 2262   1.811   2.425   1.901  1.0287  2.8991  0.3564
  755SOL     OW 2263   2.842   1.041   0.494 -0.1132  0.1674  0.1724
  755SOL    HW1 2264   2.790   1.124   0.524 -0.7030 -0.8784 -0.2589
  755SOL    HW2 2265   2.873   1.043   0.397  2.3997 -0.4699  0.5313
  756SOL     OW 2266   1.391   1.591   2.613  0.0339  0.5450 -0.1700
  756SOL    HW1 2267   1.384   1.530   2.531  0.3756  0.9136  1.4382
  756SOL    HW2 2268   1.297   1.624   2.638 -2.5936 -2.0734  0.9425
  757SOL     OW 2269   1.465   2.946   0.290  0.0105  0.0676 -0.1253
  757SOL    HW1 2270   1.382   2.998   0.293  1.0904 -0.4177 -0.4324
  757SOL    HW2 2271   1.441   2.856   0.330 -0.9403  0.3544 -0.4465
  758SOL     OW 2272   0.475   3.008   1.207  0.3982 -0.0037  0.6150
  758SOL    HW1 2273   0.388   3.056   1.217  1.3685 -0.7799  0.1482
  758SOL    HW2 2274   0.488   2.982   1.104 -2.2815 -1.0496 -0.0546
  759SOL     OW 2275   0.135   0.849   1.160  0.5921 -0.2719  0.9385
  759SOL    HW1 2276   0.191   0.842   1.241  0.1236  1.5154 -0.2311
  759SOL    HW2 2277   0.062   0.920   1.181  1.6771  0.4890 -2.8747
  760SOL     OW 2278   2.321   1.346   1.195  0.0238 -0.1791 -0.3265
  760SOL    HW1 2279   2.222   1.365   1.197 -0.5550  2.0919  0.1601
  760SOL    HW2 2280   2.338   1.261   1.142  1.7224  1.8641 -2.3067
  761SOL     OW 2281   1.208   1.124   0.956 -0.8125  0.0310  0.0546
  761SOL    HW1 2282   1.247   1.056   1.023  0.0937 -3.6183  0.1137
  761SOL    HW2 2283   1.111   1.096   0.927 -1.8299  1.3189  2.3875
  762SOL     OW 2284   2.323   2.249   1.352  0.0695 -0.3479  0.2645
  762SOL    HW1 2285   2.260   2.188   1.304 -0.2733  0.3281  0.5020
  762SOL    HW2 2286   2.338   2.340   1.301 -0.0294  0.5643 -0.7394
  763SOL     OW 2287   1.311   1.340   2.151 -0.2929  0.4019 -0.2978
  763SOL    HW1 2288   1.214   1.307   2.163 -0.3124  0.2271  0.0677
  763SOL    HW2 2289   1.362   1.268   2.095  0.5956  0.7222  0.6914
  764SOL     OW 2290   3.040   1.889   2.239 -0.3082 -0.2560 -0.0823
  764SOL    HW1 2291   0.054   1.918   2.194  1.6147  2.3077  1.8613
  764SOL    HW2 2292   3.022   1.789   2.246 -1.6415 -1.1467  2.9031
  765SOL     OW 2293   1.029   2.598   1.167 -0.0855 -0.6626  0.2263
  765SOL    HW1 2294   1.102   2.622   1.236 -1.6153 -0.1673  0.2108
  765SOL    HW2 2295   0.974   2.681   1.149  0.3300  1.8755  0.5610
  766SOL     OW 2296   0.692   2.201   2.495  0.5782  0.4418  0.1630
  766SOL    HW1 2297   0.784   2.220   2.452 -2.3667 -1.3145  0.4231
  766SOL    HW2 2298   0.648   2.136   2.434 -0.3911 -2.0888  1.2960
  767SOL     OW 2299   1.709   0.167   2.623 -0.0892  0.5142  0.3341
  767SOL    HW1 2300   1.693   0.097   2.551 -1.0918  1.3970  2.4305
  767SOL    HW2 2301   1.787   0.143   2.677 -3.3582 -1.4124 -0.7979
  768SOL     OW 2302   1.261   2.318   2.918  0.3135  1.1263 -0.1357
  768SOL    HW1 2303   1.197   2.301   2.995 -1.7465 -0.4249  0.5881
  768SOL    HW2 2304   1.321   2.397   2.938 -0.2695 -0.3898 -0.8108
  769SOL     OW 2305   2.906   2.639   1.149 -0.3330  0.3595  0.0837
  769SOL    HW1 2306   2.936   2.549   1.182 -0.5346 -2.1374  0.6737
  769SOL    HW2 2307   2.902   2.652   1.049  0.6268  1.6694  1.1477
  770SOL     OW 2308   0.477   2.835   2.758 -0.3694 -0.1090  0.2555
  770SOL    HW1 2309   0.468   2.905   2.830  1.0346 -0.8880 -3.0421
  770SOL    HW2 2310   0.556   2.854   2.700 -5.4406 -1.4292 -1.5442
  771SOL     OW 2311   0.782   2.603   2.589 -0.4813 -0.5496 -0.1139
  771SOL    HW1 2312   0.799   2.577   2.686  0.5113 -0.4011  1.0640
  771SOL    HW2 2313   0.711   2.540   2.553 -0.3276  0.9123 -0.6608
  772SOL     OW 2314   2.724   0.164   1.921  0.4077  0.0089  0.2605
  772SOL    HW1 2315   2.677   0.201   2.008 -1.0223  3.1942  2.7526
  772SOL    HW2 2316   2.701   0.229   1.845  0.7649  1.9868 -0.3897
  773SOL     OW 2317   1.005   2.641   1.990 -0.1548 -0.2293 -0.1831
  773SOL    HW1 2318   1.044   2.552   1.968 -3.9453  1.4983 -2.1829
  773SOL    HW2 2319   0.940   2.647   2.061  1.4692 -1.2370 -4.3331
  774SOL     OW 2320   1.442   0.361   2.256 -0.0702 -0.1910  0.2531
  774SOL    HW1 2321   1.403   0.301   2.327 -1.5061  1.4923 -2.2752
  774SOL    HW2 2322   1.461   0.304   2.170 -0.0079  0.2391  0.5629
  775SOL     OW 2323   2.232   2.693   3.005 -0.3788  0.4507  0.1409
  775SOL    HW1 2324   2.259   2.622   3.074 -0.5875  0.4542 -2.4174
  775SOL    HW2 2325   2.312   2.729   2.949  3.6142  1.8737 -1.8094
  776SOL     OW 2326   2.161   0.902   2.018  0.0724  0.4439  0.1126
  776SOL    HW1 2327   2.069   0.885   1.973  1.9396 -0.5080  0.0967
  776SOL    HW2 2328   2.229   0.887   1.949 -0.5715 -0.4556  1.4426
  777SOL     OW 2329   2.742   1.039   2.372 -0.2318  0.2802  0.9174
  777SOL    HW1 2330   2.723   0.967   2.435 -0.9605 -1.1215 -2.2617
  777SOL    HW2 2331   2.653   1.063   2.330 -0.4520 -1.2362 -1.2695
  778SOL     OW 2332   2.182   0.418   2.090 -0.7504 -0.2333 -0.3967
  778SOL    HW1 2333   2.234   0.498   2.128  0.3101  0.7802  0.8675
  778SOL    HW2 2334   2.113   0.455   2.024 -0.5436  1.1295  0.9125
  779SOL     OW 2335   0.283   3.075   0.067  0.2439  0.4475  0.2036
  779SOL    HW1 2336   0.212   3.038   0.002  0.0383  1.8007  0.1946
  779SOL    HW2 2337   0.328   2.989   0.108  0.7371 -2.7801  2.2863
  780SOL     OW 2338   2.272   0.282   2.513  0.3690 -0.7948 -0.4842
  780SOL    HW1 2339   2.209   0.302   2.435 -0.0230  0.6329  2.0302
  780SOL    HW2 2340   2.333   0.209   2.475  2.0077  0.8772 -2.3103
  781SOL     OW 2341   0.437   0.386   1.611 -0.1960 -0.2744 -0.7887
  781SOL    HW1 2342   0.523   0.373   1.664 -0.8433  0.0462 -3.1211
  781SOL    HW2 2343   0.356   0.388   1.670  5.1945 -1.6204 -0.1868
  782SOL     OW 2344   1.646   2.080   3.066 -0.4084  0.0724 -0.1781
  782SOL    HW1 2345   1.742   2.089   0.028  4.3051  1.3731  3.3385
  782SOL    HW2 2346   1.648   2.097   2.963 -1.6703 -0.3241  1.4158
  783SOL     OW 2347   0.965   1.803   1.461  0.2564 -0.2473  0.2320
  783SOL    HW1 2348   1.022   1.879   1.443 -3.2056 -3.2775  1.6042
  783SOL    HW2 2349   0.976   1.732   1.392 -1.8652 -1.5578  4.3652
  784SOL     OW 2350   1.924   0.655   2.088 -0.3635  0.4991 -0.1979
  784SOL    HW1 2351   1.934   0.578   2.023 -2.3839  0.4964  0.5232
  784SOL    HW2 2352   1.971   0.736   2.052 -0.6479 -0.6521 -0.3300
  785SOL     OW 2353   3.051   0.471   0.857  0.2216  0.5492  0.3021
  785SOL    HW1 2354   3.057   0.545   0.927  0.5793  0.7212 -0.7306
  785SOL    HW2 2355   3.072   0.514   0.767 -1.3547 -0.7121  2.0216
  786SOL     OW 2356   1.715   2.938   0.470  0.0027 -0.0707  0.1479
  786SOL    HW1 2357   1.616   2.952   0.486 -1.5004  1.2774  0.2953
  786SOL    HW2 2358   1.744   2.867   0.403 -0.2426 -2.2541  1.6553
  787SOL     OW 2359   1.153   0.139   0.901  0.3208 -0.2458  0.7394
  787SOL    HW1 2360   1.238   0.156   0.849  1.5782 -1.3209  3.3645
  787SOL    HW2 2361   1.134   0.221   0.958 -0.4106 -0.5363  0.0149
  788SOL     OW 2362   0.004   1.624   1.044  1.2191 -0.1747 -1.1948
  788SOL    HW1 2363   2.991   1.577   1.070 -0.2678 -0.6925 -0.8387
  788SOL    HW2 2364   0.044   1.682   1.117 -0.1496 -4.5838 -3.2759
  789SOL     OW 2365   2.797   0.762   2.034  0.1874  0.6216  0.7251
  789SOL    HW1 2366   2.794   0.688   2.103  0.7530  3.1072  1.9234
  789SOL    HW2 2367   2.857   0.833   2.074 -1.2054 -1.4187  1.4128
  790SOL     OW 2368   0.637   0.669   2.568  0.2290 -0.0466 -0.2415
  790SOL    HW1 2369   0.645   0.715   2.656  1.3691 -0.2048 -3.0571
  790SOL    HW2 2370   0.633   0.568   2.574  1.3685  3.4079  0.2102
  791SOL     OW 2371   2.507   0.240   0.050 -0.0671  0.2749 -0.6336
  791SOL    HW1 2372   2.409   0.258   0.023 -2.6753  2.5130 -0.4423
  791SOL    HW2 2373   2.504   0.156   0.107 -0.2832  1.9779 -0.5804
  792SOL     OW 2374   1.475   0.700   1.184 -0.0125 -0.4065 -0.1619
  792SOL    HW1 2375   1.435   0.639   1.110  0.4834  1.0283  0.0820
  792SOL    HW2 2376   1.563   0.662   1.220 -1.6488  1.9835 -0.8280
  793SOL     OW 2377   0.210   0.018   1.314  0.3714  0.0920  0.7430
  793SOL    HW1 2378   0.191   0.075   1.396 -0.4353 -2.4485 -3.7274
  793SOL    HW2 2379   0.144   0.037   1.236 -0.1970 -0.8036  0.7359
  794SOL     OW 2380   0.195   0.436   2.140  0.1217 -0.1598  0.2342
  794SOL    HW1 2381   0.175   0.524   2.091  0.1519 -1.6596  0.4294
  794SOL    HW2 2382   0.288   0.395   2.125 -0.7665 -0.7152  0.1510
  795SOL     OW 2383   0.376   2.209   2.640 -0.1689  0.2497 -0.0838
  795SOL    HW1 2384   0.434   2.187   2.719  1.2128 -1.1459 -0.2427
  795SOL    HW2 2385   0.354   2.305   2.639 -2.1807 -1.8600 -0.7242
  796SOL     OW 2386   1.981   0.391   2.773  0.0733 -0.3008 -0.9128
  796SOL    HW1 2387   1.900   0.447   2.753  0.7602  0.2215 -2.3002
  796SOL    HW2 2388   1.953   0.292   2.782  0.9400  0.1744  0.3460
  797SOL     OW 2389   2.319   2.096   2.815 -0.0386 -0.2064 -0.2985
  797SOL    HW1 2390   2.373   2.008   2.808 -1.1162 -3.5707  0.0470
  797SOL    HW2 2391   2.373   2.170   2.864 -1.5327 -1.9897  0.6389
  798SOL     OW 2392   0.157   0.653   1.587 -0.1169 -0.0848  0.0111
  798SOL    HW1 2393   0.163   0.576   1.520  0.8767  0.1820 -0.7711
  798SOL    HW2 2394   0.120   0.618   1.675  0.6528 -1.5491 -0.9436
  799SOL     OW 2395   0.654   0.293   1.782  0.2611 -0.0079 -0.4780
  799SOL    HW1 2396   0.735   0.325   1.825 -0.8963  0.9846  0.3177
  799SOL    HW2 2397   0.671   0.216   1.712 -1.8990 -0.0956 -2.3900
  800SOL     OW 2398   2.998   2.525   0.224  0.3838  0.9638  0.1402
  800SOL    HW1 2399   2.987   2.442   0.168  2.6715  2.4517 -0.6205
  800SOL    HW2 2400   0.010   2.535   0.277 -0.5626  1.4046 -3.4893
  801SOL     OW 2401   1.584   1.862   0.746 -0.3421 -0.3563  0.3118
  801SOL    HW1 2402   1.635   1.910   0.815 -1.7236  0.5803 -1.6639
  801SOL    HW2 2403   1.511   1.805   0.788 -0.1820 -0.7144  1.3570
  802SOL     OW 2404   0.664   0.506   0.212  0.0268  0.3578  0.2405
  802SOL    HW1 2405   0.703   0.518   0.304  1.3771  1.0766 -0.5600
  802SOL    HW2 2406   0.653   0.595   0.158  1.3978 -0.3660 -1.6708
  803SOL     OW 2407   1.281   0.874   1.962  1.2920 -0.1392  0.7613
  803SOL    HW1 2408   1.247   0.854   1.866  2.1984 -2.0015  0.6041
  803SOL    HW2 2409   1.371   0.830   1.987  0.7813  2.5081  2.4859
  804SOL     OW 2410   1.821   2.197   1.401  0.7421 -0.0568 -0.7466
  804SOL    HW1 2411   1.863   2.130   1.468  1.4786 -0.7855  1.7014
  804SOL    HW2 2412   1.883   2.276   1.398  0.0760 -0.7130  4.7054
  805SOL     OW 2413   2.957   2.110   2.386 -0.3256 -0.1686  0.1427
  805SOL    HW1 2414   2.984   2.026   2.328  1.3270  0.3591  2.0674
  805SOL    HW2 2415   3.025   2.185   2.389 -1.9029 -1.2003 -1.5252
  806SOL     OW 2416   0.537   2.591   0.383  0.2214 -0.5516 -0.3172
  806SOL    HW1 2417   0.576   2.622   0.291 -0.1930 -0.5192  0.0488
  806SOL    HW2 2418   0.485   2.501   0.385 -0.9417 -0.0857  3.2550
  807SOL     OW 2419   2.339   1.062   2.847 -0.1028  0.5774 -0.3408
  807SOL    HW1 2420   2.331   1.077   2.948  1.3085  2.8781  0.5803
  807SOL    HW2 2421   2.301   0.974   2.814  0.0512 -0.5749 -1.7215
  808SOL     OW 2422   1.495   2.408   0.858  0.5676 -0.7905 -0.0993
  808SOL    HW1 2423   1.568   2.337   0.855  0.7266  1.4722  2.2918
  808SOL    HW2 2424   1.498   2.456   0.945  0.4981  0.0246 -1.5838
  809SOL     OW 2425   0.268   0.570   0.742 -0.3310 -0.3640  0.1723
  809SOL    HW1 2426   0.260   0.647   0.808  0.0862 -0.9406  1.8909
  809SOL    HW2 2427   0.286   0.484   0.796 -0.9739 -1.6922 -2.2915
  810SOL     OW 2428   1.237   1.565   0.186  0.0706 -0.1724  0.4315
  810SOL    HW1 2429   1.240   1.465   0.196  1.5981  0.7046  2.3055
  810SOL    HW2 2430   1.331   1.588   0.152  0.0367 -1.6257 -0.5122
  811SOL     OW 2431   1.484   2.801   1.628  0.4400 -0.6322  0.3666
  811SOL    HW1 2432   1.538   2.756   1.554  0.6930 -1.4749  0.6948
  811SOL    HW2 2433   1.403   2.735   1.652 -1.1538 -0.0690  1.1634
  812SOL     OW 2434   1.383   0.229   0.789  0.2806 -0.2010 -0.4365
  812SOL    HW1 2435   1.378   0.327   0.811 -1.3847  0.4225 -0.4698
  812SOL    HW2 2436   1.479   0.202   0.770  1.0057  0.7579  0.8186
  813SOL     OW 2437   1.508   2.854   2.180 -0.1972 -0.0833  0.1751
  813SOL    HW1 2438   1.430   2.843   2.242 -1.9209 -0.4217  0.4651
  813SOL    HW2 2439   1.511   2.949   2.135 -2.0657  2.5822 -2.1516
  814SOL     OW 2440   1.425   2.792   1.927  0.1059  0.5200  0.0938
  814SOL    HW1 2441   1.473   2.799   2.019  0.9253  1.6015  1.1054
  814SOL    HW2 2442   1.453   2.862   1.864 -2.4220  1.0141 -1.4134
  815SOL     OW 2443   0.409   2.883   0.197 -0.3288 -0.0298  0.0983
  815SOL    HW1 2444   0.429   2.926   0.287  1.2249 -0.3303  1.3378
  815SOL    HW2 2445   0.486   2.829   0.154  1.9053  1.2152 -0.6262
  816SOL     OW 2446   2.254   1.469   2.660 -0.1010  0.3276  0.5979
  816SOL    HW1 2447   2.211   1.387   2.618  1.5179  2.1401  1.1280
  816SOL    HW2 2448   2.355   1.467   2.631  1.0326  0.1843  0.1339
  817SOL     OW 2449   2.577   2.280   2.449 -0.2701 -0.6526 -0.3233
  817SOL    HW1 2450   2.483   2.282   2.484 -0.6956 -0.2714  1.1743
  817SOL    HW2 2451   2.616   2.187   2.445  1.1791 -0.9396 -0.4555
  818SOL     OW 2452   1.013   1.259   0.236 -0.0965  0.4723  0.1180
  818SOL    HW1 2453   0.975   1.267   0.328  2.7675  1.5223 -0.1794
  818SOL    HW2 2454   1.112   1.267   0.240  2.0302 -1.3401 -2.0378
  819SOL     OW 2455   1.468   1.365   3.054 -0.4332  0.1615  0.2825
  819SOL    HW1 2456   1.394   1.374   2.983  1.3915  2.8138  1.6251
  819SOL    HW2 2457   1.475   1.450   0.030 -0.7311  0.4563 -0.8856
  820SOL     OW 2458   0.353   0.998   0.795 -0.0178  0.5250  0.2029
  820SOL    HW1 2459   0.437   1.013   0.853 -0.3663 -3.5290  2.7306
  820SOL    HW2 2460   0.384   0.986   0.696 -0.0189 -0.7191 -1.8590
  821SOL     OW 2461   0.535   0.006   1.487 -0.2956  0.8196 -0.0001
  821SOL    HW1 2462   0.546   3.041   1.393  1.4664 -0.6348  0.7112
  821SOL    HW2 2463   0.524   3.004   1.552  1.9206 -2.0705 -0.9595
  822SOL     OW 2464   1.935   1.923   2.949 -0.0235 -0.1346 -0.1068
  822SOL    HW1 2465   1.915   2.000   3.017 -0.8486  0.5376  3.8114
  822SOL    HW2 2466   1.993   1.954   2.870 -0.3378  4.3145  0.4728
  823SOL     OW 2467   0.876   0.365   2.272 -0.2461  0.0432  0.6419
  823SOL    HW1 2468   0.861   0.354   2.172 -0.7055 -1.8609 -0.8997
  823SOL    HW2 2469   0.861   0.461   2.303 -0.2712 -0.2789  1.0696
  824SOL     OW 2470   2.642   2.851   1.444  0.1771 -0.6893 -0.4581
  824SOL    HW1 2471   2.544   2.832   1.475 -1.5885  0.6908  0.9720
  824SOL    HW2 2472   2.642   2.900   1.355  1.0191  0.7880  0.6352
  825SOL     OW 2473   0.191   1.616   2.403  0.4123  0.1445 -0.2092
  825SOL    HW1 2474   0.240   1.686   2.345 -0.4265  1.6788  0.9066
  825SOL    HW2 2475   0.094   1.633   2.424  1.9217 -1.1944 -0.2957
  826SOL     OW 2476   1.513   0.140   2.852 -0.4121 -0.0255 -0.1146
  826SOL    HW1 2477   1.582   0.181   2.790 -0.2502 -2.4488  1.2559
  826SOL    HW2 2478   1.495   0.041   2.839 -1.5337 -1.9828 -0.9176
  827SOL     OW 2479   0.104   2.018   1.839  0.0423  0.2475 -0.0089
  827SOL    HW1 2480   0.097   2.027   1.737 -0.2602  2.4780 -0.6488
  827SOL    HW2 2481   0.166   2.089   1.882  1.3783 -0.0439  0.8568
  828SOL     OW 2482   0.085   0.042   1.076 -0.3800 -0.0637 -0.2822
  828SOL    HW1 2483   0.093   0.119   1.011  0.2218 -2.6809  0.5658
  828SOL    HW2 2484   3.068   0.005   1.081  3.2902  0.8038  2.0952
  829SOL     OW 2485   1.040   1.639   2.059  0.5970  0.4271 -0.0097
  829SOL    HW1 2486   1.023   1.553   2.007 -0.4458 -0.8743  0.7788
  829SOL    HW2 2487   0.958   1.698   2.072 -0.9039  2.8319  2.2892
  830SOL     OW 2488   0.947   0.832   1.651  0.1558  0.2579 -0.0231
  830SOL    HW1 2489   0.896   0.795   1.569 -1.2872 -0.2741  1.4073
  830SOL    HW2 2490   0.871   0.842   1.726  0.9370  2.3791  0.6224
  831SOL     OW 2491   2.539   2.023   0.181  0.1866  0.9422  0.3290
  831SOL    HW1 2492   2.624   1.984   0.142 -1.5032  0.4694 -0.2522
  831SOL    HW2 2493   2.550   2.070   0.267 -0.6557  2.0527 -1.9747
  832SOL     OW 2494   0.976   2.347   2.999 -0.1060  0.5725 -0.2496
  832SOL    HW1 2495   0.946   2.286   3.074  0.0533 -1.2905 -1.2390
  832SOL    HW2 2496   0.904   2.367   2.927 -0.3089  1.2800 -0.6925
  833SOL     OW 2497   0.159   0.320   1.468  0.3567  0.5135 -0.2460
  833SOL    HW1 2498   0.250   0.280   1.452 -2.9427  1.3452  1.6760
  833SOL    HW2 2499   0.101   0.312   1.383 -2.1941  1.1772 -3.8068
  834SOL     OW 2500   2.987   0.679   1.026 -0.1994 -0.3964 -0.0069
  834SOL    HW1 2501   2.941   0.661   1.118  2.2050 -2.2321  0.9593
  834SOL    HW2 2502   3.028   0.773   1.026  0.5897  1.6947  0.9198
  835SOL     OW 2503   2.676   0.459   0.402 -0.2862 -0.0541 -0.0084
  835SOL    HW1 2504   2.744   0.460   0.483  1.7768  0.1063  3.4362
  835SOL    HW2 2505   2.579   0.439   0.429  1.4905  0.7776  0.1749
  836SOL     OW 2506   0.634   2.159   2.751 -0.0043  0.0390  0.0252
  836SOL    HW1 2507   0.613   2.059   2.760  2.4824  0.2768  0.5273
  836SOL    HW2 2508   0.645   2.191   2.657 -0.7330 -0.2920  1.6815
  837SOL     OW 2509   1.392   1.834   0.281 -0.0404 -0.1461 -0.0131
  837SOL    HW1 2510   1.474   1.802   0.334 -1.3524  1.6968 -1.2085
  837SOL    HW2 2511   1.359   1.772   0.213 -0.4169  0.0207  2.1448
  838SOL     OW 2512   2.212   0.859   2.274 -0.2934  0.5422  0.1761
  838SOL    HW1 2513   2.247   0.954   2.298 -1.6298  0.3342  0.5811
  838SOL    HW2 2514   2.171   0.865   2.180 -0.8368  3.3484 -2.4519
  839SOL     OW 2515   0.943   0.855   2.330  0.4870  0.2978 -0.6137
  839SOL    HW1 2516   1.045   0.853   2.338 -1.5532  1.1359  0.4629
  839SOL    HW2 2517   0.905   0.927   2.388 -0.8905 -3.2578  1.3715
  840SOL     OW 2518   0.665   1.047   0.246  0.1780 -0.1396 -0.3159
  840SOL    HW1 2519   0.571   1.065   0.284 -0.9350  0.4595  3.6535
  840SOL    HW2 2520   0.692   1.129   0.194  0.9436 -0.8420 -0.8236
  841SOL     OW 2521   0.867   2.209   0.155  0.2818 -0.8317 -0.0027
  841SOL    HW1 2522   0.808   2.236   0.233  1.6487 -0.2556 -1.3710
  841SOL    HW2 2523   0.831   2.132   0.097  0.6979 -0.3858  0.9322
  842SOL     OW 2524   0.449   0.605   0.536  0.1580 -0.1641  0.1707
  842SOL    HW1 2525   0.363   0.628   0.577  3.5218 -3.1021 -0.3479
  842SOL    HW2 2526   0.493   0.532   0.585 -0.8082 -1.0348  0.8189
  843SOL     OW 2527   0.554   0.643   1.400  0.2298 -0.2749 -0.0181
  843SOL    HW1 2528   0.479   0.572   1.409 -1.0730  0.6286 -0.6250
  843SOL    HW2 2529   0.590   0.635   1.307 -4.9029 -0.2669 -0.4635
  844SOL     OW 2530   2.101   2.339   2.802 -0.1966  0.1081  0.3968
  844SOL    HW1 2531   2.175   2.392   2.758 -2.5415 -1.4150  5.2601
  844SOL    HW2 2532   2.094   2.250   2.754  4.6482 -1.3854 -0.4599
  845SOL     OW 2533   2.407   3.045   1.807 -0.4632  0.1938 -0.2070
  845SOL    HW1 2534   2.418   0.018   1.897  1.4032 -1.5807 -1.0521
  845SOL    HW2 2535   2.496   3.048   1.753 -0.1963  1.0031 -0.6670
  846SOL     OW 2536   1.832   0.821   2.506 -0.1542  0.4588  0.0616
  846SOL    HW1 2537   1.829   0.729   2.460 -0.8098 -1.4565  1.5153
  846SOL    HW2 2538   1.776   0.883   2.447 -0.9149  1.8024 -0.0487
  847SOL     OW 2539   0.026   0.077   1.854 -0.2856  0.4023  0.0644
  847SOL    HW1 2540   0.008   0.148   1.925 -1.0011  1.0185 -1.9079
  847SOL    HW2 2541   0.028   3.060   1.899 -1.9733  3.9387  1.1022
  848SOL     OW 2542   2.592   2.677   0.086  0.7075 -0.1631 -0.3010
  848SOL    HW1 2543   2.678   2.735   0.091  1.1944  1.4410 -0.3757
  848SOL    HW2 2544   2.519   2.715   0.152 -0.6476  2.3360  0.9009
  849SOL     OW 2545   0.565   2.964   0.703 -0.1294  0.3907 -0.1873
  849SOL    HW1 2546   0.545   2.866   0.672 -1.1609  0.8419 -0.1909
  849SOL    HW2 2547   0.493   3.021   0.745  0.3966  0.2633  1.0728
  850SOL     OW 2548   0.643   2.209   0.740 -0.2453  0.1591 -0.1436
  850SOL    HW1 2549   0.601   2.293   0.699 -0.0951 -0.1949  0.6010
  850SOL    HW2 2550   0.736   2.188   0.702  0.8822  2.4960 -3.7973
  851SOL     OW 2551   2.153   0.491   2.974 -0.6143 -0.2457  0.3419
  851SOL    HW1 2552   2.084   0.456   2.904  1.6393  0.5884  3.7471
  851SOL    HW2 2553   2.186   0.411   3.032 -0.5824  0.8227  0.9610
  852SOL     OW 2554   1.651   1.973   2.594  0.1033 -0.2417  0.3389
  852SOL    HW1 2555   1.643   1.872   2.611 -1.5697  1.8842 -0.0859
  852SOL    HW2 2556   1.655   1.976   2.491  1.6207 -1.2300  0.7427
  853SOL     OW 2557   3.054   2.260   0.135 -0.1625  0.1487  0.1900
  853SOL    HW1 2558   3.063   2.210   0.044 -1.0056  0.0994 -2.1274
  853SOL    HW2 2559   0.028   2.204   0.205 -0.9281  1.3319 -1.3673
  854SOL     OW 2560   1.466   0.678   2.027  0.4074  0.4167 -0.2177
  854SOL    HW1 2561   1.406   0.616   2.088 -1.7952 -0.7290  0.2426
  854SOL    HW2 2562   1.548   0.706   2.083  1.2876  2.6738  1.9555
  855SOL     OW 2563   0.228   2.666   0.574 -0.2567  0.1088  0.3226
  855SOL    HW1 2564   0.229   2.593   0.643 -1.0938  4.4316 -2.5554
  855SOL    HW2 2565   0.207   2.627   0.482 -0.7928 -1.4783 -0.8808
  856SOL     OW 2566   0.288   2.907   2.593 -0.1993 -0.5987  0.9653
  856SOL    HW1 2567   0.281   2.841   2.520  0.0166  1.2162  1.6817
  856SOL    HW2 2568   0.360   2.875   2.656  1.5808  0.1108 -0.3101
  857SOL     OW 2569   1.082   0.231   1.826  0.3683  0.3104  0.8346
  857SOL    HW1 2570   1.167   0.251   1.876 -2.0776 -0.8679  1.6004
  857SOL    HW2 2571   1.072   0.278   1.734  0.8787 -0.5577 -0.8273
  858SOL     OW 2572   0.013   1.991   1.563 -0.3192 -0.3710 -0.5349
  858SOL    HW1 2573   3.022   2.066   1.582  0.0578 -0.4770 -1.9146
  858SOL    HW2 2574   0.092   2.039   1.522  1.0852  0.2076 -1.3342
  859SOL     OW 2575   2.248   2.613   1.889  0.2661  0.3111 -0.0274
  859SOL    HW1 2576   2.347   2.593   1.917  3.3952  0.0141 -2.3020
  859SOL    HW2 2577   2.229   2.579   1.796  1.9902  1.4627  1.0443
  860SOL     OW 2578   1.667   0.625   0.580 -0.5722 -0.4233 -0.7695
  860SOL    HW1 2579   1.724   0.623   0.666  2.1994  2.8438 -1.5111
  860SOL    HW2 2580   1.716   0.673   0.505 -1.9601  1.5606 -0.5816
  861SOL     OW 2581   2.769   0.693   0.824  0.3771 -0.3640  0.0933
  861SOL    HW1 2582   2.848   0.678   0.881 -3.1951  0.3795  1.9803
  861SOL    HW2 2583   2.791   0.719   0.729 -1.2391 -0.5233 -0.1008
  862SOL     OW 2584   1.977   0.519   1.577 -0.1701  0.3048  0.3735
  862SOL    HW1 2585   2.005   0.511   1.476  0.5241  0.6017 -2.0228
  862SOL    HW2 2586   2.056   0.507   1.638 -1.3676  1.2160  0.7056
  863SOL     OW 2587   0.709   0.779   1.072  0.0192  0.2619  0.1528
  863SOL    HW1 2588   0.647   0.697   1.069 -0.7393 -0.8933  0.2697
  863SOL    HW2 2589   0.714   0.800   1.177  0.1438 -3.1403  2.3445
  864SOL     OW 2590   2.808   2.973   1.960 -0.2657 -0.2011 -0.8371
  864SOL    HW1 2591   2.751   2.908   2.011  2.2502  0.5123  0.8287
  864SOL    HW2 2592   2.770   3.066   1.948  3.3839 -1.8846 -0.2711
  865SOL     OW 2593   1.264   0.545   2.233  0.0984  0.1816 -0.4783
  865SOL    HW1 2594   1.244   0.555   2.332 -3.2001  1.4936 -2.1338
  865SOL    HW2 2595   1.336   0.472   2.225  0.6171 -2.9892  1.0976
  866SOL     OW 2596   2.468   2.823   0.297  0.2565  0.6347  0.1324
  866SOL    HW1 2597   2.392   2.805   0.363  0.5966 -0.9754  0.5672
  866SOL    HW2 2598   2.559   2.835   0.345  1.0521 -0.3655  0.6343
  867SOL     OW 2599   2.706   2.827   0.411  0.2578 -0.0675  0.0853
  867SOL    HW1 2600   2.704   2.737   0.363 -0.3244  0.9652 -0.5027
  867SOL    HW2 2601   2.784   2.888   0.378 -0.9005  1.8336  2.0394
  868SOL     OW 2602   1.605   0.908   0.003 -0.5116 -0.1671 -0.7562
  868SOL    HW1 2603   1.697   0.908   3.033 -0.7334 -1.9569 -0.3380
  868SOL    HW2 2604   1.583   1.001   0.040 -1.1600  0.3786  0.1443
  869SOL     OW 2605   2.621   2.549   0.400 -0.1163 -0.1689  0.2027
  869SOL    HW1 2606   2.585   2.556   0.497  1.6661  2.4429 -2.7758
  869SOL    HW2 2607   2.562   2.482   0.347 -3.0744  0.7588 -3.7033
  870SOL     OW 2608   2.198   2.222   0.395 -0.1829  0.0017 -0.1363
  870SOL    HW1 2609   2.200   2.171   0.482 -0.3867  0.9510  1.3932
  870SOL    HW2 2610   2.214   2.152   0.318  1.7981 -3.2442 -2.5651
  871SOL     OW 2611   0.552   1.255   1.262 -0.1613 -1.0961 -0.2370
  871SOL    HW1 2612   0.495   1.171   1.241  1.3058 -1.4303 -0.1584
  871SOL    HW2 2613   0.551   1.270   1.362  1.1716 -0.7142  1.4386
  872SOL     OW 2614   1.248   1.846   2.419  0.0031  0.8474 -0.1103
  872SOL    HW1 2615   1.189   1.925   2.412  0.2909 -3.4641 -0.7552
  872SOL    HW2 2616   1.267   1.804   2.331  0.0461  0.0696  3.5766
  873SOL     OW 2617   0.707   2.502   2.013  0.0632  0.6582 -0.4052
  873SOL    HW1 2618   0.732   2.512   2.109 -0.3147  1.2916  2.3802
  873SOL    HW2 2619   0.695   2.589   1.967  0.0847  1.6503 -0.9342
  874SOL     OW 2620   0.849   0.406   1.301 -0.3012  0.6270  0.2831
  874SOL    HW1 2621   0.902   0.470   1.241  2.6530  0.1791 -0.9851
  874SOL    HW2 2622   0.841   0.438   1.397  0.2357 -2.6340 -2.1626
  875SOL     OW 2623   2.856   0.299   1.095 -0.4206 -0.2290  0.2259
  875SOL    HW1 2624   2.944   0.321   1.132 -1.6921  0.8231 -1.7012
  875SOL    HW2 2625   2.811   0.229   1.154 -2.9384 -1.6264 -1.5632
  876SOL     OW 2626   0.347   0.974   0.286  0.5384  0.2861 -0.5522
  876SOL    HW1 2627   0.354   0.995   0.187  2.6889  1.1625 -1.4075
  876SOL    HW2 2628   0.249   0.995   0.322 -1.3336  2.7397  0.8950
  877SOL     OW 2629   1.160   0.671   1.629  0.5987  0.1462  0.5011
  877SOL    HW1 2630   1.205   0.690   1.540  0.0922 -1.5410  2.6024
  877SOL    HW2 2631   1.092   0.740   1.647  0.0867  0.5842 -2.1611
  878SOL     OW 2632   2.001   2.336   0.260  0.3417  0.0980 -0.5463
  878SOL    HW1 2633   2.042   2.411   0.204  0.7608  1.5199 -1.3109
  878SOL    HW2 2634   2.074   2.286   0.313  2.0889  1.5411  1.6600
  879SOL     OW 2635   2.884   1.409   1.355  0.1600  0.8581  0.2255
  879SOL    HW1 2636   2.832   1.398   1.264  2.9073 -2.6238  1.3519
  879SOL    HW2 2637   2.828   1.369   1.432 -0.5079  1.6650  0.7190
  880SOL     OW 2638   1.426   2.466   0.570  0.5468 -0.2544 -0.1263
  880SOL    HW1 2639   1.448   2.432   0.662  1.5661  0.4832 -1.4356
  880SOL    HW2 2640   1.370   2.396   0.518 -1.5923 -2.2781  0.4442
  881SOL     OW 2641   0.720   2.287   0.378 -0.2323 -0.0262  0.1579
  881SOL    HW1 2642   0.783   2.241   0.445 -1.1376 -1.7618 -1.1928
  881SOL    HW2 2643   0.629   2.310   0.418 -0.5593  0.4355  0.7122
  882SOL     OW 2644   1.994   0.870   1.053 -0.0061  0.0761 -0.4212
  882SOL    HW1 2645   2.087   0.858   1.095  1.6412 -0.0010 -0.4569
  882SOL    HW2 2646   1.924   0.870   1.126  0.9484  3.4920 -0.2031
  883SOL     OW 2647   1.742   0.932   1.531 -0.3482 -0.2937 -0.0503
  883SOL    HW1 2648   1.791   0.872   1.595 -1.6339  2.4192 -2.2748
  883SOL    HW2 2649   1.772   1.030   1.528 -0.4068  1.5242 -0.6283
  884SOL     OW 2650   2.691   0.415   0.136 -0.0085 -0.1972 -0.1295
  884SOL    HW1 2651   2.693   0.414   0.238 -1.8702  2.7271 -1.1565
  884SOL    HW2 2652   2.630   0.343   0.100 -1.1631  0.0074 -2.3259
  885SOL     OW 2653   1.124   1.372   2.556 -0.6380 -0.6647 -0.1885
  885SOL    HW1 2654   1.122   1.458   2.609 -0.3075 -2.3726 -0.6021
  885SOL    HW2 2655   1.029   1.326   2.551 -0.4562 -1.5990 -0.6393
  886SOL     OW 2656   1.367   1.957   2.642  0.2816 -0.0761 -0.4976
  886SOL    HW1 2657   1.336   1.903   2.561 -0.3658 -1.2885  1.3043
  886SOL    HW2 2658   1.469   1.959   2.648 -0.2944 -1.4304 -2.2134
  887SOL     OW 2659   1.397   0.363   1.189 -0.8173 -0.2739  0.4143
  887SOL    HW1 2660   1.437   0.275   1.173 -0.5026 -0.1477  1.8333
  887SOL    HW2 2661   1.359   0.366   1.281 -2.1383  0.9487 -0.4357
  888SOL     OW 2662   2.479   0.718   1.648 -0.0313 -0.0299  0.3264
  888SOL    HW1 2663   2.576   0.739   1.678  2.7076 -1.0800  1.4542
  888SOL    HW2 2664   2.472   0.630   1.598  3.5620 -1.0131 -0.5030
  889SOL     OW 2665   2.802   2.526   0.732  0.7559  0.5032 -0.2793
  889SOL    HW1 2666   2.830   2.495   0.638 -1.1504 -2.6236  0.6658
  889SOL    HW2 2667   2.782   2.444   0.788 -0.7204  1.6108 -0.1473
  890SOL     OW 2668   1.820   2.170   0.617  0.6181 -0.1362  0.1497
  890SOL    HW1 2669   1.864   2.263   0.597  1.1332  0.0885 -2.0238
  890SOL    HW2 2670   1.735   2.155   0.559 -0.9108 -0.6793  0.5302
  891SOL     OW 2671   0.577   1.024   2.917 -0.2400 -0.4285  0.1256
  891SOL    HW1 2672   0.494   1.038   2.864  1.4037 -1.0086  2.2428
  891SOL    HW2 2673   0.628   0.942   2.886  3.0202  2.5421  1.2857
  892SOL     OW 2674   3.065   2.664   1.473 -0.0903 -0.1514 -0.0165
  892SOL    HW1 2675   0.023   2.739   1.411 -1.9620  0.2860 -0.9578
  892SOL    HW2 2676   2.965   2.655   1.459  0.9349 -3.7816 -2.0647
  893SOL     OW 2677   1.474   0.144   1.039  0.1324 -0.0790 -0.0344
  893SOL    HW1 2678   1.565   0.182   1.056 -1.4028 -0.2947  0.3593
  893SOL    HW2 2679   1.424   0.179   0.957  0.2057 -1.1892  0.4054
  894SOL     OW 2680   2.601   0.482   0.851  0.1179 -0.0587  0.0685
  894SOL    HW1 2681   2.660   0.560   0.822 -1.8739  0.5389  2.4033
  894SOL    HW2 2682   2.598   0.472   0.952 -3.0525  1.2497  1.3325
  895SOL     OW 2683   1.703   1.298   2.572 -0.9084 -0.5056  0.5535
  895SOL    HW1 2684   1.740   1.370   2.633  0.2133 -1.2541 -0.0395
  895SOL    HW2 2685   1.780   1.270   2.510  3.9176  1.7347 -2.2150
  896SOL     OW 2686   1.558   0.286   1.597 -0.0695 -0.3742  0.2023
  896SOL    HW1 2687   1.517   0.204   1.557  0.7501  2.9813 -0.3475
  896SOL    HW2 2688   1.608   0.340   1.527  2.2133  0.4602  2.1436
  897SOL     OW 2689   0.735   1.508   1.940 -0.0877  0.3271 -0.0626
  897SOL    HW1 2690   0.812   1.446   1.914 -0.8683 -0.1235 -0.7621
  897SOL    HW2 2691   0.756   1.604   1.924  2.4931  3.0437 -1.7003
  898SOL     OW 2692   2.360   2.601   2.242 -0.7487 -0.0912  0.4941
  898SOL    HW1 2693   2.279   2.538   2.229 -4.4673  0.9910 -1.1589
  898SOL    HW2 2694   2.447   2.556   2.226  0.2073  3.1885  0.6643
  899SOL     OW 2695   1.155   1.438   1.375  0.0007  0.0047 -0.4450
  899SOL    HW1 2696   1.230   1.376   1.350 -0.7840  1.7422  2.2023
  899SOL    HW2 2697   1.136   1.511   1.304  0.9118  1.3317  0.4611
  900SOL     OW 2698   0.984   2.204   2.644 -0.2695  0.0068 -0.2576
  900SOL    HW1 2699   1.087   2.200   2.645  1.1359  1.2597 -1.6118
  900SOL    HW2 2700   0.948   2.128   2.587 -1.4948  0.4265 -2.4203
  901SOL     OW 2701   0.581   1.959   2.360 -0.4651 -0.6181  0.2167
  901SOL    HW1 2702   0.572   1.953   2.256  1.0233  0.2393 -2.5611
  901SOL    HW2 2703   0.506   1.924   2.415  0.6481  0.1438 -2.5929
  902SOL     OW 2704   2.093   1.631   0.357 -0.4943 -0.6596  0.0988
  902SOL    HW1 2705   2.073   1.565   0.278  0.8522 -4.3148 -1.7294
  902SOL    HW2 2706   2.184   1.607   0.394  0.2574 -2.6320  1.7849
  903SOL     OW 2707   1.858   1.670   0.517  0.6583  0.7733  0.0902
  903SOL    HW1 2708   1.787   1.641   0.460 -0.7462  0.4867  0.0318
  903SOL    HW2 2709   1.949   1.634   0.496 -2.3159  1.0502  1.7821
  904SOL     OW 2710   0.985   0.618   2.553 -0.1289 -0.4541  0.0083
  904SOL    HW1 2711   1.060   0.556   2.528 -1.5243 -0.8373  1.0395
  904SOL    HW2 2712   0.907   0.624   2.483 -2.5325 -0.5749 -0.2660
  905SOL     OW 2713   2.767   0.256   0.820 -1.1026 -0.0960  0.0014
  905SOL    HW1 2714   2.690   0.322   0.832  2.2160 -1.5490  0.4928
  905SOL    HW2 2715   2.826   0.253   0.903  3.4791 -0.6368  0.6615
  906SOL     OW 2716   2.788   2.139   0.495 -0.3115 -0.0999 -0.3426
  906SOL    HW1 2717   2.845   2.060   0.457  0.2128 -0.7225 -3.1401
  906SOL    HW2 2718   2.829   2.185   0.579  0.9823  0.8570  0.7507
  907SOL     OW 2719   1.428   0.682   0.263 -0.5249 -0.0776 -0.2518
  907SOL    HW1 2720   1.448   0.589   0.234 -3.1533  0.6608 -0.2426
  907SOL    HW2 2721   1.367   0.685   0.345  1.5667 -2.7129  1.6323
  908SOL     OW 2722   1.789   0.150   1.387 -0.1936  0.6465 -0.4341
  908SOL    HW1 2723   1.865   0.109   1.329  0.7660  2.1916  0.5294
  908SOL    HW2 2724   1.720   0.077   1.415 -2.2875 -0.5408  0.9420
  909SOL     OW 2725   2.566   0.745   1.229  0.4988  0.0265  0.4056
  909SOL    HW1 2726   2.608   0.653   1.216 -0.8406  3.1950  0.5739
  909SOL    HW2 2727   2.566   0.792   1.142  0.2063 -0.2101  2.8870
  910SOL     OW 2728   1.215   2.824   2.325 -0.4516  0.3475 -0.2024
  910SOL    HW1 2729   1.136   2.773   2.359  1.6097  1.1379 -0.5661
  910SOL    HW2 2730   1.196   2.925   2.331 -2.1463 -0.5355  1.1164
  911SOL     OW 2731   2.261   0.790   1.780  0.2116 -0.0845  0.1354
  911SOL    HW1 2732   2.346   0.754   1.730  0.7035 -2.1265 -0.5707
  911SOL    HW2 2733   2.198   0.852   1.727 -3.6351  1.1462 -2.3233
  912SOL     OW 2734   2.615   1.950   1.487  0.7170 -0.0806 -0.0340
  912SOL    HW1 2735   2.624   2.026   1.417 -2.1821  1.1482 -1.2326
  912SOL    HW2 2736   2.708   1.916   1.516  3.3500  0.9601  2.3598
  913SOL     OW 2737   2.578   2.131   1.298 -0.5402 -0.0105 -0.3030
  913SOL    HW1 2738   2.486   2.177   1.314  1.2548  0.9091 -0.9705
  913SOL    HW2 2739   2.595   2.130   1.200 -0.4721 -1.6186 -2.1814
  914SOL     OW 2740   2.008   1.795   1.371  0.4467 -0.1901  0.2911
  914SOL    HW1 2741   2.083   1.729   1.364 -1.5351  0.9252 -1.3846
  914SOL    HW2 2742   1.939   1.761   1.434 -0.5008 -0.3564  1.1422
  915SOL     OW 2743   1.353   1.720   1.386  0.3955 -0.1975  0.1424
  915SOL    HW1 2744   1.298   1.803   1.417 -0.9536  2.1318 -0.9288
  915SOL    HW2 2745   1.365   1.724   1.284  0.5956 -0.3666 -0.9631
  916SOL     OW 2746   2.805   2.617   1.446 -0.3538 -0.4662  0.4656
  916SOL    HW1 2747   2.784   2.571   1.354  1.7676  0.3470 -1.1227
  916SOL    HW2 2748   2.768   2.713   1.448 -1.1977  2.8048 -0.2160
  917SOL     OW 2749   2.404   1.816   2.566  0.1199  0.1696 -0.2664
  917SOL    HW1 2750   2.494   1.796   2.517  0.1384 -2.0485 -0.4778
  917SOL    HW2 2751   2.414   1.808   2.671 -1.6819  1.4240  1.8273
  918SOL     OW 2752   1.634   2.031   2.323  0.1693 -0.0839  0.1828
  918SOL    HW1 2753   1.602   2.123   2.356  0.0769 -2.5123 -3.1437
  918SOL    HW2 2754   1.737   2.027   2.324  0.0347  2.7649 -1.3400
  919SOL     OW 2755   1.448   2.140   1.935  0.1589 -0.2154 -0.2879
  919SOL    HW1 2756   1.514   2.166   2.002 -2.4619  0.8446 -0.6845
  919SOL    HW2 2757   1.432   2.217   1.867 -1.7082  2.1816  0.5279
  920SOL     OW 2758   2.959   0.309   2.896  0.1192  0.1556 -0.6021
  920SOL    HW1 2759   3.018   0.335   2.820 -1.3366 -1.8703  1.8342
  920SOL    HW2 2760   2.916   0.216   2.888  0.5365  1.8683  1.0147
  921SOL     OW 2761   2.692   0.095   2.520  0.0034  0.3472 -0.6742
  921SOL    HW1 2762   2.719   0.118   2.424 -0.5125 -1.6623  0.1341
  921SOL    HW2 2763   2.679   0.179   2.576  1.7471 -0.4970  0.5136
  922SOL     OW 2764   2.307   2.001   0.578 -0.9118  0.1902  0.3170
  922SOL    HW1 2765   2.327   2.061   0.657 -1.6195  1.6781 -0.1505
  922SOL    HW2 2766   2.211   1.966   0.585 -0.0034 -0.0272  1.4155
  923SOL     OW 2767   0.294   1.688   0.517  0.0603  0.1583  0.2345
  923SOL    HW1 2768   0.371   1.670   0.447  0.8349 -0.4916 -1.7513
  923SOL    HW2 2769   0.320   1.758   0.583 -0.8023  0.1349 -0.1343
  924SOL     OW 2770   1.484   0.411   0.127 -0.4248 -0.6050 -0.8675
  924SOL    HW1 2771   1.524   0.470   0.055 -1.1355  0.3085  0.1552
  924SOL    HW2 2772   1.546   0.339   0.166  1.5512 -0.4417 -0.9244
  925SOL     OW 2773   2.582   1.121   0.764 -0.4217 -0.1203  0.2295
  925SOL    HW1 2774   2.533   1.210   0.759  1.0878 -0.6432  0.5974
  925SOL    HW2 2775   2.575   1.065   0.676 -0.2615 -0.5234  0.0271
  926SOL     OW 2776   2.644   1.083   1.086  0.2042 -0.0085 -0.2441
  926SOL    HW1 2777   2.656   1.079   1.188  0.6261 -2.3933  0.3036
  926SOL    HW2 2778   2.719   1.130   1.041 -0.9690 -2.2891  1.3782
  927SOL     OW 2779   0.457   1.361   0.300 -0.0826  0.3349 -0.2531
  927SOL    HW1 2780   0.519   1.331   0.226 -1.2424 -0.1741 -0.3555
  927SOL    HW2 2781   0.471   1.463   0.322 -0.0576  1.3907 -0.3304
  928SOL     OW 2782   0.072   0.353   2.421 -0.2054 -0.2925 -0.0549
  928SOL    HW1 2783   0.118   0.261   2.444  1.8964 -1.7801  0.2275
  928SOL    HW2 2784   0.118   0.397   2.341  0.3452  2.7778 -0.4292
  929SOL     OW 2785   2.957   2.881   1.234 -0.3374  0.5244 -0.1519
  929SOL    HW1 2786   2.908   2.935   1.166 -0.2873 -1.2534  2.8122
  929SOL    HW2 2787   2.933   2.778   1.224 -0.7827 -3.1156 -0.4730
  930SOL     OW 2788   1.949   2.027   1.548 -0.5017 -0.1438 -0.0826
  930SOL    HW1 2789   1.916   1.931   1.556  1.3001 -1.7992  2.7555
  930SOL    HW2 2790   2.039   2.041   1.598  3.2632  0.2811 -1.2725
  931SOL     OW 2791   1.568   1.273   0.963  0.0377  0.4100  0.1584
  931SOL    HW1 2792   1.537   1.339   1.040  2.7037  0.2261 -0.1164
  931SOL    HW2 2793   1.522   1.183   0.974 -1.2579  0.6552 -2.1999
  932SOL     OW 2794   2.974   0.982   1.268 -0.5523  0.1596 -0.1713
  932SOL    HW1 2795   2.877   0.974   1.296 -0.5494 -0.2872  0.2602
  932SOL    HW2 2796   3.012   1.079   1.284 -0.1186  1.8108  0.1686
  933SOL     OW 2797   2.432   1.497   1.467  0.2848 -0.4062 -0.0077
  933SOL    HW1 2798   2.488   1.548   1.535 -2.8724  1.5256 -1.7157
  933SOL    HW2 2799   2.492   1.443   1.406 -1.7793  3.0896 -0.3041
  934SOL     OW 2800   1.731   0.213   1.107 -0.6095  0.4797 -0.2808
  934SOL    HW1 2801   1.784   0.212   1.195  0.6407  0.7595 -1.8392
  934SOL    HW2 2802   1.803   0.194   1.038  2.5562 -3.2991 -0.8916
  935SOL     OW 2803   0.379   1.496   0.991 -0.2149 -0.0177  0.6701
  935SOL    HW1 2804   0.330   1.406   1.003  0.6249 -1.2204 -1.3470
  935SOL    HW2 2805   0.354   1.558   1.068 -1.1178  2.6251  0.8383
  936SOL     OW 2806   3.023   0.993   0.918 -0.4503  0.3895 -0.7199
  936SOL    HW1 2807   2.939   1.041   0.891  2.9580  0.0083  1.2973
  936SOL    HW2 2808   0.027   1.051   0.901  1.3886 -1.2527 -2.7170
  937SOL     OW 2809   1.698   2.697   0.807  0.3384  0.4262  0.2601
  937SOL    HW1 2810   1.649   2.768   0.851 -1.0322 -1.5910  0.9698
  937SOL    HW2 2811   1.756   2.732   0.733 -0.7850 -1.7647 -1.7381
  938SOL     OW 2812   2.385   2.451   0.952 -0.2435  0.2575  0.0600
  938SOL    HW1 2813   2.428   2.477   0.864  0.6150  2.4052  0.3154
  938SOL    HW2 2814   2.293   2.408   0.938  0.4341  1.5166 -2.9724
  939SOL     OW 2815   0.306   1.896   2.860  0.4022 -0.5841  0.8121
  939SOL    HW1 2816   0.409   1.913   2.839  1.7903  0.9997  0.5334
  939SOL    HW2 2817   0.300   1.909   2.964 -1.0054 -2.1533  3.6311
  940SOL     OW 2818   2.926   2.933   2.996 -0.5136  0.6731  0.4899
  940SOL    HW1 2819   2.901   2.872   3.075  1.7375 -2.1250  0.0958
  940SOL    HW2 2820   3.029   2.942   2.986  5.2894  1.3340 -0.3578
  941SOL     OW 2821   0.892   2.671   2.853 -0.0288 -0.2076 -0.3709
  941SOL    HW1 2822   0.934   2.634   2.937  0.6620  2.1478  0.1357
  941SOL    HW2 2823   0.965   2.715   2.798  0.9136 -0.4614  2.4636
  942SOL     OW 2824   1.520   1.956   1.610  0.3522  0.8964  0.0642
  942SOL    HW1 2825   1.581   1.955   1.694 -0.7783 -0.4874  1.1108
  942SOL    HW2 2826   1.538   1.875   1.551  0.2001 -2.0902 -0.7267
  943SOL     OW 2827   2.222   1.125   1.375 -0.2792  0.9942  0.0935
  943SOL    HW1 2828   2.277   1.168   1.450 -1.1806 -3.0325  1.2767
  943SOL    HW2 2829   2.199   1.033   1.399  3.4253  0.6737 -2.5784
  944SOL     OW 2830   2.092   0.837   1.470  0.1869  0.0422  0.4067
  944SOL    HW1 2831   2.008   0.813   1.424  4.2072  0.0281 -1.6617
  944SOL    HW2 2832   2.173   0.793   1.426 -0.1289 -1.8139  1.3052
  945SOL     OW 2833   2.964   2.718   0.880  0.0300 -0.2537 -0.7317
  945SOL    HW1 2834   2.919   2.651   0.821  0.9038 -1.1076  3.1860
  945SOL    HW2 2835   2.954   2.816   0.844  0.2528 -0.4062 -2.7634
  946SOL     OW 2836   0.363   0.651   1.784 -0.4759 -0.2591 -0.3364
  946SOL    HW1 2837   0.336   0.654   1.687  0.9142 -0.1649  0.6868
  946SOL    HW2 2838   0.339   0.559   1.824  0.1215  1.1719  0.5740
  947SOL     OW 2839   0.502   2.732   0.598 -0.1469 -0.4105  0.3533
  947SOL    HW1 2840   0.518   2.688   0.506 -1.4873 -1.3055 -0.4372
  947SOL    HW2 2841   0.400   2.720   0.625 -2.4507  1.5776 -0.2337
  948SOL     OW 2842   3.043   1.272   1.934 -0.5077  0.1593 -0.1121
  948SOL    HW1 2843   3.055   1.344   1.862  0.7861 -0.8660  0.8971
  948SOL    HW2 2844   0.011   1.183   1.907  0.6628  1.8749 -1.3480
  949SOL     OW 2845   0.382   0.986   2.218 -0.2357  0.0397 -0.2423
  949SOL    HW1 2846   0.379   0.954   2.316  1.8259 -1.9276  3.3204
  949SOL    HW2 2847   0.389   0.907   2.154  0.4829  1.9785  1.9780
  950SOL     OW 2848   0.979   0.702   1.323 -0.2997  0.6104  0.3514
  950SOL    HW1 2849   0.907   0.772   1.325  1.2111 -0.6259  0.5846
  950SOL    HW2 2850   0.979   0.646   1.233 -1.3458  1.1571 -2.1771
  951SOL     OW 2851   0.915   2.025   2.092 -0.1977 -0.1139  0.1307
  951SOL    HW1 2852   0.986   2.096   2.059  1.5858  0.6319 -0.3039
  951SOL    HW2 2853   0.823   2.059   2.083  2.3533  0.9540 -1.5113
  952SOL     OW 2854   0.564   1.880   2.770  0.2284 -0.5086  0.1326
  952SOL    HW1 2855   0.597   1.840   2.858 -3.6729  2.0201  3.1053
  952SOL    HW2 2856   0.576   1.817   2.695 -0.4876 -0.3623 -1.4480
  953SOL     OW 2857   1.929   2.877   2.138  0.5595  0.0070  0.1261
  953SOL    HW1 2858   1.937   2.909   2.232 -0.4532  0.5616 -2.9526
  953SOL    HW2 2859   1.923   2.950   2.070  1.3694 -1.4807 -1.9757
  954SOL     OW 2860   1.809   1.233   0.855 -0.1468 -0.3200  0.5894
  954SOL    HW1 2861   1.718   1.240   0.897 -0.5075 -2.5065 -1.1063
  954SOL    HW2 2862   1.823   1.295   0.771 -2.7719  1.5080  0.7170
  955SOL     OW 2863   0.323   2.475   2.028 -0.0251  0.0688  0.0891
  955SOL    HW1 2864   0.301   2.377   2.006  0.4482 -0.3832  0.9911
  955SOL    HW2 2865   0.236   2.530   2.023 -0.2944 -2.7916  0.1244
  956SOL     OW 2866   1.417   0.914   1.489 -0.2757 -0.2536  0.0233
  956SOL    HW1 2867   1.367   0.827   1.467 -2.0938 -1.1769 -1.4538
  956SOL    HW2 2868   1.515   0.896   1.518  2.0104  0.0631  1.3745
  957SOL     OW 2869   1.989   1.539   2.481  0.2894  0.2835 -0.3156
  957SOL    HW1 2870   2.065   1.524   2.417 -2.3908  0.7804 -1.6380
  957SOL    HW2 2871   1.913   1.588   2.439  3.6487 -1.1606 -0.4155
  958SOL     OW 2872   1.072   2.514   0.796 -0.1278 -0.0169 -0.1303
  958SOL    HW1 2873   1.001   2.588   0.801  0.0125 -0.3532 -0.6119
  958SOL    HW2 2874   1.053   2.454   0.880  2.4130  1.3369 -0.4993
  959SOL     OW 2875   1.617   1.718   2.622  0.0690 -0.1456 -0.3885
  959SOL    HW1 2876   1.528   1.661   2.632 -1.6234 -1.1584  1.1724
  959SOL    HW2 2877   1.663   1.717   2.715  3.0550  1.3018  1.1518
  960SOL     OW 2878   0.427   0.475   0.028 -0.1271 -0.1629  0.1159
  960SOL    HW1 2879   0.355   0.406   0.046  1.5372  1.6566 -1.5784
  960SOL    HW2 2880   0.479   0.487   0.114  1.1109  0.2881 -0.1821
  961SOL     OW 2881   0.578   0.522   2.171 -0.5789 -0.2806  0.2140
  961SOL    HW1 2882   0.652   0.561   2.224 -1.5991  1.3246 -1.7011
  961SOL    HW2 2883   0.491   0.534   2.220  1.0464  0.4828 -1.7368
  962SOL     OW 2884   0.811   1.561   2.905  0.1863  0.2908  0.1302
  962SOL    HW1 2885   0.901   1.527   2.942  2.2222 -0.7081  1.1616
  962SOL    HW2 2886   0.749   1.493   2.863  2.0775  0.8028 -1.2527
  963SOL     OW 2887   2.092   1.681   3.034  0.1664  0.3113 -0.0057
  963SOL    HW1 2888   2.029   1.759   3.026 -0.2897 -3.0205  0.3418
  963SOL    HW2 2889   2.181   1.723   3.058 -3.0729 -0.1960 -0.0668
  964SOL     OW 2890   1.396   2.898   0.895  0.3854  0.3047 -0.2337
  964SOL    HW1 2891   1.367   2.806   0.874  2.1447  4.8418  0.1685
  964SOL    HW2 2892   1.319   2.963   0.912  1.2735  0.1095  0.2913
  965SOL     OW 2893   0.794   2.307   1.075  0.0307 -0.2081 -0.4156
  965SOL    HW1 2894   0.822   2.262   1.162 -1.0473 -2.6525  1.4806
  965SOL    HW2 2895   0.704   2.266   1.045 -1.5503 -0.8256  2.3295
  966SOL     OW 2896   0.010   1.587   0.000 -0.4690  0.3302 -0.6906
  966SOL    HW1 2897   3.043   1.560   2.985 -2.5198 -0.6661  0.7198
  966SOL    HW2 2898   3.023   1.573   0.077  0.3223 -0.0070 -2.2760
  967SOL     OW 2899   1.722   2.893   1.706 -0.0052 -0.1968 -0.2124
  967SOL    HW1 2900   1.634   2.863   1.662  2.3229  0.9875 -0.3457
  967SOL    HW2 2901   1.718   2.992   1.732 -2.3869  0.7824 -0.1420
  968SOL     OW 2902   1.901   0.733   0.832  0.3196  0.3992 -0.0315
  968SOL    HW1 2903   1.867   0.778   0.751  0.6930 -3.1660  3.9844
  968SOL    HW2 2904   1.949   0.791   0.902  1.3855 -0.2201 -2.0814
  969SOL     OW 2905   0.347   1.815   1.961  0.0236 -0.0617  0.2614
  969SOL    HW1 2906   0.413   1.879   1.920  2.7632 -2.7917 -0.8166
  969SOL    HW2 2907   0.275   1.858   2.011  5.3823  1.3990 -0.4330
  970SOL     OW 2908   2.490   1.506   1.068 -0.2870 -0.5807  0.3466
  970SOL    HW1 2909   2.407   1.465   1.097  0.0815  1.0194  1.6218
  970SOL    HW2 2910   2.516   1.596   1.116  0.5392 -0.3277  2.2853
  971SOL     OW 2911   1.054   0.413   1.598  0.3254  0.2762  0.6466
  971SOL    HW1 2912   0.975   0.450   1.545 -0.5815  1.6427  1.5133
  971SOL    HW2 2913   1.110   0.486   1.637 -0.0024 -2.7611  1.2886
  972SOL     OW 2914   1.030   0.250   2.449 -0.0805 -0.0484 -0.4103
  972SOL    HW1 2915   0.949   0.210   2.496  2.3133 -1.1234  0.1072
  972SOL    HW2 2916   0.999   0.302   2.365  0.9135  3.0119  1.1815
  973SOL     OW 2917   0.200   1.249   1.126 -0.9759  0.0734  0.3798
  973SOL    HW1 2918   0.127   1.254   1.198 -0.2934 -1.7712 -2.0124
  973SOL    HW2 2919   0.255   1.160   1.140  0.2149  0.2112  0.5068
  974SOL     OW 2920   1.802   1.126   1.871 -0.5266 -0.2146  0.0012
  974SOL    HW1 2921   1.872   1.138   1.796 -0.8863 -0.7683  1.4400
  974SOL    HW2 2922   1.712   1.092   1.839 -1.9896  1.0420  1.8264
  975SOL     OW 2923   2.623   0.114   0.404 -0.0010  0.6093  0.3487
  975SOL    HW1 2924   2.571   0.072   0.329  0.5219  0.0032  1.0825
  975SOL    HW2 2925   2.707   0.154   0.361  1.6124 -1.4557  0.6249
  976SOL     OW 2926   0.329   1.628   1.735  0.0229  0.2843 -0.2807
  976SOL    HW1 2927   0.333   1.671   1.826  0.0314 -1.3740  0.6579
  976SOL    HW2 2928   0.250   1.661   1.681 -0.7452 -2.3355  0.1744
  977SOL     OW 2929   0.677   2.698   0.166  0.1460 -0.4302 -0.3293
  977SOL    HW1 2930   0.678   2.706   0.064  0.2573  0.0620 -0.8281
  977SOL    HW2 2931   0.753   2.750   0.209 -2.7689  0.0312  1.7614
  978SOL     OW 2932   0.622   1.626   0.111  0.0649  0.0573  0.4100
  978SOL    HW1 2933   0.584   1.558   0.042  1.7887 -0.3860 -1.3634
  978SOL    HW2 2934   0.708   1.669   0.083 -2.0604 -2.0213 -0.6546
  979SOL     OW 2935   1.389   2.074   1.204  0.5348 -0.0114  0.6377
  979SOL    HW1 2936   1.351   2.162   1.211  1.6415 -2.0767  0.7425
  979SOL    HW2 2937   1.490   2.083   1.221  1.0053 -2.5954 -0.8213
  980SOL     OW 2938   0.685   1.394   2.173  0.3340  0.4541 -0.1803
  980SOL    HW1 2939   0.697   1.428   2.079 -1.6782 -1.8563  1.4510
  980SOL    HW2 2940   0.601   1.337   2.175 -1.4092  1.1990 -1.5342
  981SOL     OW 2941   2.953   1.526   0.233  0.2908  0.8616 -0.1133
  981SOL    HW1 2942   3.008   1.544   0.316  1.9676  0.6783 -0.3342
  981SOL    HW2 2943   2.855   1.529   0.263 -0.8723 -1.7633 -1.5962
  982SOL     OW 2944   2.383   2.459   2.763  0.3052 -0.7470  0.3702
  982SOL    HW1 2945   2.345   2.490   2.673 -0.3254 -0.0198 -2.6904
  982SOL    HW2 2946   2.404   2.539   2.821  0.4777 -0.9975  0.4834
  983SOL     OW 2947   2.043   0.498   1.321  1.0518  0.2312 -0.6137
  983SOL    HW1 2948   2.028   0.575   1.257 -1.2926 -1.4487 -1.8133
  983SOL    HW2 2949   2.110   0.430   1.284  2.3016 -2.0261  2.0952
  984SOL     OW 2950   0.980   3.040   2.507  0.1228  0.1948  0.0605
  984SOL    HW1 2951   1.035   3.069   2.586  2.2702 -0.8138  0.0216
  984SOL    HW2 2952   0.998   2.937   2.512  1.6880  1.5397  2.4872
  985SOL     OW 2953   1.677   2.169   2.080  0.5869 -0.7314  0.1476
  985SOL    HW1 2954   1.636   2.126   2.159 -1.0034  0.5465 -1.8042
  985SOL    HW2 2955   1.774   2.145   2.077 -2.9251 -2.3848 -2.4955
  986SOL     OW 2956   1.975   2.937   2.431  0.4710 -0.1913 -0.1617
  986SOL    HW1 2957   1.951   2.931   2.530 -2.0657  0.4160  1.2850
  986SOL    HW2 2958   2.037   2.856   2.405  1.1618 -1.1488 -0.0356
  987SOL     OW 2959   2.590   0.236   2.155 -0.3337 -0.2138 -0.5719
  987SOL    HW1 2960   2.675   0.203   2.202 -3.1830 -1.1761  1.6411
  987SOL    HW2 2961   2.555   0.319   2.207 -0.1871 -1.5201  1.3875
  988SOL     OW 2962   2.520   0.465   2.283  0.7514 -0.3021 -0.4058
  988SOL    HW1 2963   2.496   0.465   2.383 -0.5766  1.2787  0.7326
  988SOL    HW2 2964   2.461   0.533   2.237  0.5631  0.5877  0.5049
  989SOL     OW 2965   2.309   2.514   2.509  0.2416 -0.1821  0.0614
  989SOL    HW1 2966   2.337   2.570   2.429  1.1769  0.9323 -1.0813
  989SOL    HW2 2967   2.324   2.415   2.498 -1.2704 -0.0949  0.2851
  990SOL     OW 2968   0.343   1.028   3.073 -0.2015 -0.5268  0.4210
  990SOL    HW1 2969   0.331   0.927   3.069  1.4233  0.4379 -0.0419
  990SOL    HW2 2970   0.439   1.049   3.061 -1.6123 -0.6457 -0.9317
  991SOL     OW 2971   0.566   1.000   2.458 -0.7577 -0.0452  0.1848
  991SOL    HW1 2972   0.510   0.921   2.462  0.1450  4.5112 -1.9100
  991SOL    HW2 2973   0.659   0.975   2.490 -0.4847 -0.9266 -2.8282
  992SOL     OW 2974   0.048   1.757   1.932 -0.0702 -0.2962  0.4055
  992SOL    HW1 2975   0.079   1.840   1.883 -0.1345 -0.4239 -0.5443
  992SOL    HW2 2976   3.033   1.771   1.978  2.7315 -1.1747 -0.6584
  993SOL     OW 2977   0.770   0.311   0.711  0.4408  0.3869 -0.1847
  993SOL    HW1 2978   0.847   0.363   0.679 -0.3908  1.6216 -0.5583
  993SOL    HW2 2979   0.757   0.228   0.658  2.5357  1.1509  2.0989
  994SOL     OW 2980   0.282   2.062   1.512 -0.0485  1.2136 -0.0177
  994SOL    HW1 2981   0.354   1.990   1.528  0.0142  0.1604 -0.8027
  994SOL    HW2 2982   0.275   2.069   1.406  1.6766  0.6492  0.3001
  995SOL     OW 2983   2.140   1.735   2.607  0.3579  0.3406  0.2164
  995SOL    HW1 2984   2.105   1.648   2.575 -0.2085  1.3366 -4.1499
  995SOL    HW2 2985   2.235   1.743   2.576 -0.6693  0.4836  3.7976
  996SOL     OW 2986   1.903   1.488   2.845  0.5209 -0.1284 -0.0516
  996SOL    HW1 2987   1.909   1.387   2.830 -1.5346  3.0542 -0.4584
  996SOL    HW2 2988   1.999   1.529   2.852 -0.6472  3.6896 -0.0223
  997SOL     OW 2989   1.663   1.383   1.847  0.5906 -0.1867  0.3194
  997SOL    HW1 2990   1.683   1.297   1.897  2.8608 -0.4366 -0.8385
  997SOL    HW2 2991   1.693   1.464   1.902  0.8140  0.5134  1.4323
  998SOL     OW 2992   2.252   2.004   0.972  0.4375 -0.3422  0.0376
  998SOL    HW1 2993   2.169   2.060   0.996  0.5933  0.1594 -0.5099
  998SOL    HW2 2994   2.223   1.909   0.942 -2.3993 -1.1007 -2.2356
  999SOL     OW 2995   2.304   2.462   0.110  0.5901 -0.9276  0.2733
  999SOL    HW1 2996   2.275   2.525   0.188  0.1149  0.1256  1.1138
  999SOL    HW2 2997   2.387   2.417   0.145  0.0425  3.3647  3.3512
 1000SOL     OW 2998   0.736   3.010   2.386 -0.0714  0.7207  0.1666
 1000SOL    HW1 2999   0.700   0.022   2.342 -0.7511 -1.3926 -1.3270
 1000SOL    HW2 3000   0.824   3.024   2.435  2.0991 -0.3132  0.7475
   3.07522   3.07522   3.07522
