1000 SPC/Fw water molecules t= 248.00000 step= 248000
 3000
    1SOL     OW    1   2.756   2.437   1.106  0.2278  0.1186 -0.0883
    1SOL    HW1    2   2.793   2.350   1.146  0.2742 -2.4782 -0.3849
    1SOL    HW2    3   2.722   2.415   1.011 -2.3178 -0.4522 -1.2479
    2SOL     OW    4   1.807   1.869   1.310 -0.3313  0.2876 -0.0321
    2SOL    HW1    5   1.707   1.899   1.326  0.0208  0.7237  2.2540
    2SOL    HW2    6   1.822   1.788   1.364  0.8814 -1.0884  0.6349
    3SOL     OW    7   1.294   2.534   2.973  0.7577 -0.3264  0.5733
    3SOL    HW1    8   1.353   2.606   3.004  0.3903 -3.2119  0.4355
    3SOL    HW2    9   1.249   2.559   2.880  0.2698 -1.9522 -0.3382
    4SOL     OW   10   1.794   2.046   1.895 -0.6284  0.4602 -0.2955
    4SOL    HW1   11   1.875   2.026   1.955 -0.5742 -2.0278 -1.3145
    4SOL    HW2   12   1.815   2.017   1.799 -0.3999  0.8436  1.3418
    5SOL     OW   13   1.459   1.122   1.353  0.1825  0.0646  0.3964
    5SOL    HW1   14   1.499   1.206   1.319  1.0078 -0.7891 -0.4722
    5SOL    HW2   15   1.499   1.036   1.309 -1.6131 -0.3507  0.6035
    6SOL     OW   16   2.509   3.091   0.118 -0.1435  0.5177  0.2370
    6SOL    HW1   17   2.541   0.042   0.036 -0.0192  2.9634  0.4333
    6SOL    HW2   18   2.421   3.044   0.092  0.2657  3.1295  1.3875
    7SOL     OW   19   2.702   1.644   1.619 -0.0797 -0.3950  0.2671
    7SOL    HW1   20   2.693   1.555   1.667  1.9359 -1.7592 -0.8244
    7SOL    HW2   21   2.742   1.625   1.527 -0.5311  0.0742  2.0676
    8SOL     OW   22   1.163   0.281   0.977  0.4751  0.4062 -0.5157
    8SOL    HW1   23   1.126   0.190   1.008  1.6659  1.1923 -1.0856
    8SOL    HW2   24   1.249   0.265   0.926 -2.5656  0.1647 -2.5164
    9SOL     OW   25   1.630   0.274   2.477 -0.0038 -0.0070  0.5266
    9SOL    HW1   26   1.624   0.375   2.470  0.4336 -3.3988  0.6184
    9SOL    HW2   27   1.728   0.246   2.479 -0.7932  3.1748 -1.9121
   10SOL     OW   28   0.603   2.004   0.355  0.4880 -0.0769 -0.1539
   10SOL    HW1   29   0.505   1.988   0.355 -0.8786 -0.4202  1.0874
   10SOL    HW2   30   0.645   1.917   0.396  0.7525 -0.7084  1.2573
   11SOL     OW   31   1.055   1.212   0.382  0.5327  0.5024 -0.4155
   11SOL    HW1   32   1.031   1.298   0.430  0.8113  0.8553  0.9276
   11SOL    HW2   33   1.138   1.230   0.322  2.2407 -0.1102  1.7734
   12SOL     OW   34   0.031   0.065   1.709 -0.2611 -0.2717  0.2584
   12SOL    HW1   35   3.090   0.151   1.741  1.2907  0.1253 -0.2131
   12SOL    HW2   36   0.090   0.085   1.623  1.2209 -1.4859 -1.7082
   13SOL     OW   37   1.551   0.191   0.407 -0.0438  0.3877 -1.1117
   13SOL    HW1   38   1.468   0.233   0.448 -1.0945  1.0938 -3.0517
   13SOL    HW2   39   1.631   0.224   0.464  4.3938  1.3281  1.2977
   14SOL     OW   40   0.994   2.488   1.507  0.3554  0.2032 -0.0920
   14SOL    HW1   41   1.021   2.478   1.605  3.8881  2.4589  1.4378
   14SOL    HW2   42   1.079   2.525   1.464 -0.9644 -0.5640  2.2251
   15SOL     OW   43   2.555   1.259   1.614  0.0903 -0.2575  0.2286
   15SOL    HW1   44   2.595   1.245   1.520 -1.4337 -0.3676  4.5388
   15SOL    HW2   45   2.615   1.325   1.663  0.3889  2.6119  2.3364
   16SOL     OW   46   2.160   2.696   0.392 -0.1431  0.0127  0.3359
   16SOL    HW1   47   2.144   2.797   0.396 -0.6771  0.6937  1.4082
   16SOL    HW2   48   2.086   2.635   0.417 -0.5194 -0.5208 -0.6893
   17SOL     OW   49   0.969   0.078   1.307 -0.2648 -0.4489  0.7905
   17SOL    HW1   50   0.967   0.179   1.309 -0.7425 -0.6861 -1.7982
   17SOL    HW2   51   0.877   0.043   1.324 -0.9648  0.0363 -0.3039
   18SOL     OW   52   1.536   0.680   2.678  0.0935 -0.6221  0.0267
   18SOL    HW1   53   1.511   0.648   2.773  1.4586 -2.1603  1.2802
   18SOL    HW2   54   1.611   0.750   2.681 -1.6748  0.6773 -2.4592
   19SOL     OW   55   1.920   1.945   0.180  0.0129  0.0458 -0.3371
   19SOL    HW1   56   1.991   1.879   0.136 -0.9543  0.7892  1.1487
   19SOL    HW2   57   1.948   1.973   0.272 -0.6375 -1.3600 -0.8475
   20SOL     OW   58   2.108   2.157   1.763 -0.4653  0.2201  0.3813
   20SOL    HW1   59   2.182   2.115   1.822 -1.3805 -1.5460  3.6015
   20SOL    HW2   60   2.036   2.202   1.817  0.2988  1.4751  1.4655
   21SOL     OW   61   0.832   1.611   0.004 -0.1699  0.3338 -0.2647
   21SOL    HW1   62   0.930   1.627   0.013  1.4092  0.2690  2.6389
   21SOL    HW2   63   0.788   1.694   0.041 -2.7497  0.9038 -1.2285
   22SOL     OW   64   1.854   2.929   1.286  0.7373  0.0076  0.2678
   22SOL    HW1   65   1.791   2.988   1.228 -0.7617  0.1415 -1.7013
   22SOL    HW2   66   1.815   2.906   1.378 -0.9130  3.3011  0.4383
   23SOL     OW   67   3.106   0.542   1.756  0.1367 -0.0879 -0.2227
   23SOL    HW1   68   0.084   0.524   1.701  0.4431 -0.2786  1.6269
   23SOL    HW2   69   3.025   0.532   1.699  3.1067  0.7096  1.3971
   24SOL     OW   70   2.281   2.462   0.715 -0.1266 -0.1191  0.4752
   24SOL    HW1   71   2.212   2.462   0.792  0.2847 -1.1169 -0.3423
   24SOL    HW2   72   2.374   2.436   0.751 -2.1104 -0.6727 -0.0724
   25SOL     OW   73   1.203   2.639   2.746 -0.1506  0.5340 -0.1784
   25SOL    HW1   74   1.309   2.634   2.738  1.8372  0.1868 -2.0335
   25SOL    HW2   75   1.168   2.705   2.681 -0.6055 -0.3677  2.0390
   26SOL     OW   76   2.048   2.688   3.016  0.3444 -0.7767 -0.1545
   26SOL    HW1   77   2.057   2.790   3.011  0.4471 -0.5537 -4.0134
   26SOL    HW2   78   2.035   2.657   0.005  0.4209  0.3689 -1.8530
   27SOL     OW   79   2.987   1.914   2.872  0.1762 -0.5041  0.0760
   27SOL    HW1   80   2.944   1.956   2.790 -0.8048  0.4170 -1.9018
   27SOL    HW2   81   3.000   1.815   2.865 -0.0924  2.9263  1.3436
   28SOL     OW   82   2.833   1.069   1.557  0.0456  0.1651  0.1319
   28SOL    HW1   83   2.830   1.034   1.652 -0.7824 -0.3379 -1.2425
   28SOL    HW2   84   2.853   1.171   1.565 -2.6429  2.4312 -0.7934
   29SOL     OW   85   2.385   2.503   1.323 -0.1950 -0.0133  0.4331
   29SOL    HW1   86   2.330   2.574   1.376 -0.1716  2.0892  2.1476
   29SOL    HW2   87   2.481   2.533   1.326 -0.5479 -1.5694 -2.1270
   30SOL     OW   88   1.490   0.719   0.095  0.2381  0.1840  0.1897
   30SOL    HW1   89   1.463   0.654   0.162  1.3505  2.1153 -0.3541
   30SOL    HW2   90   1.591   0.743   0.099  1.1047  0.8658  2.1378
   31SOL     OW   91   2.755   2.835   1.738 -0.2691  0.1669 -0.1455
   31SOL    HW1   92   2.753   2.929   1.694  2.1053  0.0463  0.7301
   31SOL    HW2   93   2.808   2.768   1.679 -0.0552  0.3561 -1.7666
   32SOL     OW   94   0.879   1.719   1.485  0.2501  0.0207 -0.0955
   32SOL    HW1   95   0.805   1.767   1.437 -2.1261  1.4608  1.4963
   32SOL    HW2   96   0.899   1.635   1.436 -0.0490 -1.9249  1.1711
   33SOL     OW   97   0.509   2.622   2.422 -0.2676 -0.4503  0.3086
   33SOL    HW1   98   0.611   2.627   2.433  2.5033 -0.9443  1.8780
   33SOL    HW2   99   0.473   2.717   2.426  1.0682 -0.0322  1.2928
   34SOL     OW  100   1.536   3.056   0.789  0.1032  0.3134 -0.2855
   34SOL    HW1  101   1.580   2.994   0.857 -0.4000  0.4937 -1.1374
   34SOL    HW2  102   1.547   3.025   0.694  0.4690 -0.1362  1.2564
   35SOL     OW  103   2.030   3.040   0.855 -0.0826 -0.6985  0.0346
   35SOL    HW1  104   1.985   3.034   0.763  1.8767 -1.0562 -1.2803
   35SOL    HW2  105   1.962   3.068   0.926  0.6765 -0.0244  1.4653
   36SOL     OW  106   1.926   2.652   2.459 -0.1669 -0.3169  0.3083
   36SOL    HW1  107   1.828   2.642   2.483  0.3536  1.3104  0.9612
   36SOL    HW2  108   1.983   2.677   2.543  1.7843 -0.9135  1.6182
   37SOL     OW  109   0.629   3.026   2.387 -0.5031  0.1919  0.3546
   37SOL    HW1  110   0.667   2.993   2.299  1.6070 -0.1814  1.8365
   37SOL    HW2  111   0.671   2.979   2.469  1.7572  4.2693 -1.1040
   38SOL     OW  112   0.115   2.552   2.508 -0.1495 -0.6244  0.3345
   38SOL    HW1  113   0.205   2.511   2.533 -0.0187 -1.1540 -0.5353
   38SOL    HW2  114   0.113   2.576   2.411 -0.0822  0.3009  0.2111
   39SOL     OW  115   2.534   1.266   2.115 -0.1937 -0.1739 -0.0291
   39SOL    HW1  116   2.481   1.329   2.056  1.3468 -1.6619  1.0514
   39SOL    HW2  117   2.472   1.190   2.145 -1.4183 -0.7245 -2.3947
   40SOL     OW  118   0.667   2.858   2.992 -0.4389 -0.1063  0.4496
   40SOL    HW1  119   0.766   2.846   2.971 -1.3345 -0.1866  0.5485
   40SOL    HW2  120   0.656   2.819   3.085 -0.4134  2.2532 -1.7343
   41SOL     OW  121   2.188   1.156   1.144 -0.1189  0.6418 -0.0162
   41SOL    HW1  122   2.283   1.122   1.171 -0.8477 -1.1077  2.0989
   41SOL    HW2  123   2.173   1.142   1.042 -2.9251 -1.1777 -2.2809
   42SOL     OW  124   0.543   0.485   1.112 -0.3926  0.3221 -0.4689
   42SOL    HW1  125   0.575   0.556   1.044  2.9937  2.2554 -0.6098
   42SOL    HW2  126   0.525   0.532   1.201  0.4618  1.9815 -0.7359
   43SOL     OW  127   2.334   1.153   2.571 -0.5118  0.8676 -0.6009
   43SOL    HW1  128   2.354   1.074   2.513 -0.8566  1.8314 -0.9645
   43SOL    HW2  129   2.300   1.230   2.516  0.7696  0.0297  0.9569
   44SOL     OW  130   3.004   2.979   0.730 -0.1932 -0.2669 -0.0788
   44SOL    HW1  131   2.952   3.065   0.707  2.8570  0.0251 -0.1061
   44SOL    HW2  132   3.094   3.001   0.771  2.3611  2.5448  1.3514
   45SOL     OW  133   0.059   2.697   1.069  0.0496  0.6832  0.0017
   45SOL    HW1  134   0.106   2.773   1.019 -1.4103  0.6874 -2.6011
   45SOL    HW2  135   3.075   2.690   1.025 -0.9630  0.4386  0.7810
   46SOL     OW  136   2.308   2.846   2.554 -0.6648  0.2686 -0.4414
   46SOL    HW1  137   2.308   2.770   2.486  0.2627 -1.6973  3.5549
   46SOL    HW2  138   2.396   2.898   2.559  0.1914 -2.9480 -0.1914
   47SOL     OW  139   2.059   1.929   1.214  0.3196  0.6106 -0.4891
   47SOL    HW1  140   2.065   1.912   1.117  1.0098 -1.8907  0.8034
   47SOL    HW2  141   1.966   1.906   1.257  0.9788 -0.4599 -0.1583
   48SOL     OW  142   0.692   1.625   0.277 -0.5336 -0.5927 -0.0847
   48SOL    HW1  143   0.739   1.689   0.215  0.9848  0.5085 -0.8639
   48SOL    HW2  144   0.697   1.528   0.245  1.2166 -1.4385  0.8802
   49SOL     OW  145   2.827   0.078   2.621 -0.4904  0.0388  0.2797
   49SOL    HW1  146   2.864   0.020   2.695 -2.5482 -1.7220 -0.7437
   49SOL    HW2  147   2.845   0.032   2.526 -0.5631 -2.5003 -1.1790
   50SOL     OW  148   2.090   0.795   0.278 -0.2965  0.3199 -0.8296
   50SOL    HW1  149   2.095   0.897   0.260  0.5313 -4.9419  1.3916
   50SOL    HW2  150   2.060   0.767   0.372 -2.8304 -1.8510  2.0527
   51SOL     OW  151   2.349   0.780   0.871 -0.0646 -0.0116 -0.3919
   51SOL    HW1  152   2.430   0.826   0.913 -0.0489 -0.1074 -1.1401
   51SOL    HW2  153   2.301   0.839   0.802 -1.1077 -0.0684 -2.2959
   52SOL     OW  154   1.601   1.343   2.487  0.1132 -0.3367 -0.2936
   52SOL    HW1  155   1.613   1.314   2.391 -3.3570 -3.8701  0.7453
   52SOL    HW2  156   1.686   1.315   2.539 -0.5295  1.3185  0.9349
   53SOL     OW  157   0.660   1.823   2.219 -0.1771  0.5314  0.2069
   53SOL    HW1  158   0.763   1.815   2.208  1.3476  0.0299 -0.8696
   53SOL    HW2  159   0.636   1.774   2.307 -0.5169 -0.1311  1.0339
   54SOL     OW  160   2.226   0.343   0.867 -0.4545 -0.1576  0.3774
   54SOL    HW1  161   2.287   0.290   0.928 -0.8239 -1.5590  0.3814
   54SOL    HW2  162   2.283   0.413   0.819 -0.3236  1.7159 -0.9696
   55SOL     OW  163   2.494   2.347   0.840 -0.4373  0.5365  0.4293
   55SOL    HW1  164   2.478   2.253   0.804 -0.5097  1.3690 -2.1592
   55SOL    HW2  165   2.585   2.384   0.807 -1.2559 -0.2133 -1.4932
   56SOL     OW  166   1.263   3.072   1.795  0.0641  0.4371 -0.3139
   56SOL    HW1  167   1.193   3.071   1.869  1.5414  0.7993  1.8907
   56SOL    HW2  168   1.244   0.028   1.717  0.0523 -1.1762 -0.3960
   57SOL     OW  169   1.350   1.529   0.207  0.0742  0.2777  0.1653
   57SOL    HW1  170   1.353   1.571   0.299  3.6802 -2.9192 -0.5854
   57SOL    HW2  171   1.445   1.536   0.164  0.5938 -3.0101  1.0790
   58SOL     OW  172   3.036   0.788   2.565 -0.5835 -0.1100  0.1095
   58SOL    HW1  173   3.094   0.863   2.521 -0.6402  0.6749 -1.3976
   58SOL    HW2  174   3.027   0.708   2.501  0.5660  1.5723  0.4975
   59SOL     OW  175   0.879   2.663   2.765  0.2888 -0.1900  0.2650
   59SOL    HW1  176   0.918   2.717   2.837 -1.3424  1.0577 -1.2569
   59SOL    HW2  177   0.914   2.568   2.777 -2.2859 -0.3024 -1.0742
   60SOL     OW  178   2.635   2.273   0.407 -0.2712 -0.2032 -0.6452
   60SOL    HW1  179   2.687   2.196   0.448 -1.2284 -1.5819 -3.4050
   60SOL    HW2  180   2.690   2.352   0.388 -3.4831  1.0640 -1.4888
   61SOL     OW  181   1.269   2.067   0.614 -0.2206  0.1345 -0.5404
   61SOL    HW1  182   1.247   2.022   0.703  1.8094 -0.8447  1.4754
   61SOL    HW2  183   1.198   2.135   0.589  0.5622  2.5838 -0.3692
   62SOL     OW  184   2.190   2.191   2.619 -0.4209  0.1026  0.0018
   62SOL    HW1  185   2.210   2.158   2.713  0.2135  1.7291 -4.6782
   62SOL    HW2  186   2.092   2.178   2.599  1.1848  2.4410 -0.7982
   63SOL     OW  187   2.323   2.678   2.966  0.1240 -0.0029 -0.2900
   63SOL    HW1  188   2.223   2.664   2.984 -2.6597 -1.6454 -1.3296
   63SOL    HW2  189   2.341   2.777   2.942 -1.5036  0.2481 -0.7714
   64SOL     OW  190   1.576   1.033   2.561 -0.3225  0.0699 -0.5762
   64SOL    HW1  191   1.596   1.048   2.465 -1.1923 -1.6684  2.2209
   64SOL    HW2  192   1.632   0.956   2.594 -2.4850  1.0765 -0.3867
   65SOL     OW  193   1.482   2.315   3.029 -0.5421  0.7232 -0.0166
   65SOL    HW1  194   1.420   2.238   3.009 -0.3272 -0.4545 -0.8963
   65SOL    HW2  195   1.446   2.402   2.993 -2.0968  0.6256 -1.0725
   66SOL     OW  196   0.285   1.320   1.916 -0.7971 -0.3541 -0.1033
   66SOL    HW1  197   0.382   1.327   1.951 -0.4650  0.7715  0.1987
   66SOL    HW2  198   0.266   1.225   1.890 -1.3068 -0.7699  1.3728
   67SOL     OW  199   2.844   2.728   2.789 -0.7212  0.0278 -0.0890
   67SOL    HW1  200   2.770   2.732   2.717  2.0411  1.2042 -1.5207
   67SOL    HW2  201   2.937   2.740   2.748  1.8404  1.0082  0.3167
   68SOL     OW  202   0.728   2.584   1.460  0.2629 -0.1432 -0.4728
   68SOL    HW1  203   0.817   2.543   1.472 -1.9584  0.2569  0.3747
   68SOL    HW2  204   0.742   2.673   1.418 -0.1788 -2.0926 -0.8734
   69SOL     OW  205   0.751   2.243   0.464 -0.1332 -0.1569 -0.2416
   69SOL    HW1  206   0.673   2.250   0.527 -1.2927 -0.4296 -0.7167
   69SOL    HW2  207   0.719   2.189   0.385 -1.0219 -0.3183  1.6760
   70SOL     OW  208   2.576   0.798   2.483  0.5663  0.3613 -0.6141
   70SOL    HW1  209   2.653   0.835   2.542 -0.0200  0.6784  0.6373
   70SOL    HW2  210   2.565   0.696   2.492 -1.7243  0.2300 -2.4040
   71SOL     OW  211   0.656   1.113   2.382 -0.2575 -0.0664  0.4250
   71SOL    HW1  212   0.603   1.044   2.322 -1.1758 -0.8401  0.2938
   71SOL    HW2  213   0.636   1.208   2.350  0.6598 -1.9822  1.5437
   72SOL     OW  214   0.365   1.940   0.604  0.3687  0.5072  0.0706
   72SOL    HW1  215   0.361   1.926   0.502 -2.2020  2.3138  2.5728
   72SOL    HW2  216   0.279   1.979   0.641  1.0677  0.3412 -0.1292
   73SOL     OW  217   0.993   1.701   0.333  0.6715 -0.2805 -0.0582
   73SOL    HW1  218   0.956   1.793   0.360 -0.1841  3.0397  2.3879
   73SOL    HW2  219   1.050   1.666   0.408 -1.4579  2.0439 -0.3851
   74SOL     OW  220   2.684   2.919   0.219  0.1282 -0.0270 -0.2151
   74SOL    HW1  221   2.655   2.824   0.193 -0.3184  0.1993 -0.2528
   74SOL    HW2  222   2.615   2.989   0.183 -2.2839  0.3477  0.1829
   75SOL     OW  223   2.351   1.675   2.322 -0.2678  0.2069  0.1995
   75SOL    HW1  224   2.365   1.632   2.228  0.0014  1.5683  0.6147
   75SOL    HW2  225   2.303   1.766   2.315  1.0105  3.3491 -2.5601
   76SOL     OW  226   1.917   2.566   1.644 -0.0419 -0.2617 -0.5071
   76SOL    HW1  227   1.839   2.612   1.691  0.3965 -0.8968  0.4558
   76SOL    HW2  228   1.904   2.577   1.545 -0.2056  0.4881 -2.6881
   77SOL     OW  229   2.507   0.453   1.375 -0.0870 -0.2192 -0.4060
   77SOL    HW1  230   2.457   0.406   1.448 -1.5291 -0.9130  0.2008
   77SOL    HW2  231   2.564   0.523   1.422 -0.2485  0.7697  2.0806
   78SOL     OW  232   1.966   0.957   2.711  0.8072  0.1302  0.3284
   78SOL    HW1  233   2.065   0.943   2.730  0.9883 -1.7760 -0.2787
   78SOL    HW2  234   1.921   0.973   2.802  1.2450 -1.1655  0.4903
   79SOL     OW  235   0.156   1.517   2.043  0.0444  0.0282  0.1163
   79SOL    HW1  236   0.207   1.444   1.992 -1.4825  0.7512 -1.4391
   79SOL    HW2  237   0.108   1.580   1.982  1.8821  0.6299 -0.5800
   80SOL     OW  238   1.842   1.087   1.238  0.1906 -0.2454 -0.0567
   80SOL    HW1  239   1.937   1.092   1.201  1.1990 -4.4565 -2.3698
   80SOL    HW2  240   1.788   1.160   1.195 -2.1071  0.5737 -2.7796
   81SOL     OW  241   1.322   0.407   1.358 -0.1094  0.5653 -0.0790
   81SOL    HW1  242   1.333   0.317   1.305 -1.3503 -1.3736  3.0655
   81SOL    HW2  243   1.258   0.460   1.302 -1.4725  0.2089  1.4746
   82SOL     OW  244   1.485   2.508   1.815 -0.6513  0.1000 -0.4486
   82SOL    HW1  245   1.522   2.543   1.725 -0.1518 -0.1361  1.3189
   82SOL    HW2  246   1.523   2.418   1.840 -1.7702  1.4804  2.4752
   83SOL     OW  247   0.613   0.027   0.775 -0.4408  0.7606  0.6237
   83SOL    HW1  248   0.595   3.035   0.772  0.0341 -2.2401 -1.6457
   83SOL    HW2  249   0.525   0.084   0.774 -1.4093 -0.8551 -2.2272
   84SOL     OW  250   0.158   0.928   2.914 -0.2131  0.2841  0.5109
   84SOL    HW1  251   0.216   0.930   2.830 -1.5816 -0.6133 -1.9719
   84SOL    HW2  252   0.141   1.026   2.947 -2.0819  2.8970 -0.8339
   85SOL     OW  253   2.694   2.373   1.678 -0.0932 -0.0831  0.2785
   85SOL    HW1  254   2.741   2.416   1.598 -1.3184  0.3162 -0.8407
   85SOL    HW2  255   2.606   2.418   1.699  1.6009  1.2733  1.8329
   86SOL     OW  256   2.852   2.497   1.481 -0.3918 -0.3862  0.4091
   86SOL    HW1  257   2.873   2.596   1.486 -0.5638  1.3496 -0.9133
   86SOL    HW2  258   2.920   2.447   1.423  1.8192 -1.7177 -1.4649
   87SOL     OW  259   0.620   2.801   0.151 -0.2292  0.2552 -0.1681
   87SOL    HW1  260   0.585   2.750   0.233 -1.4562  0.0378  1.0256
   87SOL    HW2  261   0.715   2.827   0.172  0.8117 -3.8471 -0.5954
   88SOL     OW  262   0.211   1.994   1.290 -0.4911  0.5030 -0.4179
   88SOL    HW1  263   0.209   2.056   1.208 -1.9764 -1.6111  1.9600
   88SOL    HW2  264   0.206   1.899   1.260  1.6026 -0.3486  1.1627
   89SOL     OW  265   1.135   0.953   1.812  0.0626  0.1466 -0.2887
   89SOL    HW1  266   1.178   0.994   1.889 -2.7461 -1.8784 -2.8122
   89SOL    HW2  267   1.187   0.869   1.791 -2.7567 -2.2548  2.1486
   90SOL     OW  268   2.666   1.543   2.022  0.4567  0.4237 -0.1705
   90SOL    HW1  269   2.658   1.526   2.127 -1.0389  1.4349  1.9182
   90SOL    HW2  270   2.589   1.602   1.984  0.7622 -0.9181 -1.2841
   91SOL     OW  271   1.430   1.907   0.898 -0.2827 -0.2331  0.2508
   91SOL    HW1  272   1.334   1.917   0.866  3.4442  3.4735 -1.1772
   91SOL    HW2  273   1.449   1.954   0.988 -2.2184  1.7194  0.6679
   92SOL     OW  274   2.167   0.741   1.079 -0.0278  0.0348  0.6140
   92SOL    HW1  275   2.228   0.710   1.149 -2.8838  0.4493 -1.9183
   92SOL    HW2  276   2.220   0.752   0.991 -3.7602  0.0485 -2.2756
   93SOL     OW  277   2.242   1.339   0.304  0.2547 -0.0619  0.2529
   93SOL    HW1  278   2.251   1.276   0.224  0.1303  0.0588 -0.4113
   93SOL    HW2  279   2.334   1.367   0.338 -0.9129 -0.7098  0.0676
   94SOL     OW  280   2.202   2.197   2.364 -0.4749 -0.2199  0.6027
   94SOL    HW1  281   2.215   2.193   2.465  1.8676  1.0792  1.0046
   94SOL    HW2  282   2.282   2.240   2.314 -0.2798  1.2109  0.3251
   95SOL     OW  283   1.875   0.611   0.981  0.2862  0.4940  1.4750
   95SOL    HW1  284   1.920   0.689   1.030  1.0845  0.4090  0.6105
   95SOL    HW2  285   1.925   0.526   0.994 -0.4332  2.4450  2.5889
   96SOL     OW  286   2.809   3.052   1.503  0.8616 -0.0747 -0.3834
   96SOL    HW1  287   2.717   3.039   1.459  0.5569  0.6961 -2.1845
   96SOL    HW2  288   2.805   0.031   1.558  2.8180  1.1136  0.3665
   97SOL     OW  289   2.083   0.263   1.231  0.4878 -0.3809  0.0158
   97SOL    HW1  290   2.034   0.303   1.152  2.6800 -0.0218  1.2246
   97SOL    HW2  291   2.186   0.257   1.227  2.9078 -1.4432 -2.8033
   98SOL     OW  292   1.637   2.322   1.533  0.1807  0.1777 -0.7161
   98SOL    HW1  293   1.630   2.413   1.488  0.4456  0.7779  1.1745
   98SOL    HW2  294   1.698   2.321   1.615  2.5213 -3.1221 -0.3204
   99SOL     OW  295   2.507   2.753   1.796 -0.2660  0.0791 -0.2047
   99SOL    HW1  296   2.492   2.817   1.873  1.3150 -0.6245  1.9245
   99SOL    HW2  297   2.608   2.765   1.779  1.1164  0.8543  2.2277
  100SOL     OW  298   0.342   0.914   2.690 -0.3761  0.1433 -0.2998
  100SOL    HW1  299   0.411   0.986   2.714 -2.2452 -2.7478 -3.0269
  100SOL    HW2  300   0.373   0.824   2.669  1.5907  2.2919 -0.8485
  101SOL     OW  301   1.834   0.736   2.947 -0.0277 -0.0896 -0.0173
  101SOL    HW1  302   1.871   0.690   2.866 -0.4617 -2.0435  0.6741
  101SOL    HW2  303   1.887   0.696   3.025 -0.3488  0.2222 -2.8106
  102SOL     OW  304   0.213   0.335   1.701  0.3763 -0.0213  0.1756
  102SOL    HW1  305   0.183   0.359   1.794 -1.0079  0.4772  2.3154
  102SOL    HW2  306   0.290   0.266   1.708 -0.0780  0.1369  1.1471
  103SOL     OW  307   2.794   1.074   2.224  0.1504  0.1456  0.0450
  103SOL    HW1  308   2.795   1.106   2.320 -1.0003 -2.0679  1.0329
  103SOL    HW2  309   2.768   1.150   2.165 -0.1852  0.2796  1.7166
  104SOL     OW  310   0.328   0.251   2.713 -0.5213  0.3458  0.2632
  104SOL    HW1  311   0.419   0.277   2.675 -1.0673 -1.0199  0.4326
  104SOL    HW2  312   0.258   0.319   2.681  0.7747  0.4203  0.6253
  105SOL     OW  313   2.029   1.706   1.512 -0.2323 -0.4055  0.2875
  105SOL    HW1  314   1.988   1.640   1.447 -1.7434  0.1195 -2.9570
  105SOL    HW2  315   2.129   1.703   1.510 -2.7333 -1.8764  3.2875
  106SOL     OW  316   1.954   0.301   0.414  0.3808  0.1147  0.4316
  106SOL    HW1  317   1.958   0.198   0.403  1.3632  1.1362 -1.4651
  106SOL    HW2  318   2.028   0.333   0.482  0.0544  0.5687  1.2843
  107SOL     OW  319   0.138   1.684   1.590 -0.0585 -0.1460 -0.0242
  107SOL    HW1  320   0.212   1.684   1.523 -1.3887 -2.7938  0.9958
  107SOL    HW2  321   0.054   1.722   1.557  2.5653 -1.7248  2.6781
  108SOL     OW  322   3.074   2.630   1.993 -0.2741  0.4966  0.0211
  108SOL    HW1  323   0.026   2.659   1.918 -0.4816 -1.1333  0.3691
  108SOL    HW2  324   3.069   2.527   2.000  0.5172  2.6343  2.3173
  109SOL     OW  325   1.730   0.356   0.585 -0.6075 -0.0170  0.2597
  109SOL    HW1  326   1.805   0.342   0.518  0.8191  0.1166 -1.3803
  109SOL    HW2  327   1.736   0.289   0.661  0.9746  0.0165  0.3887
  110SOL     OW  328   0.441   2.190   2.336  0.6378  0.3178  0.4495
  110SOL    HW1  329   0.380   2.193   2.417 -0.2284 -1.6603 -0.4323
  110SOL    HW2  330   0.427   2.104   2.286  0.2572 -0.4394 -1.5297
  111SOL     OW  331   1.666   2.484   2.210 -0.1962  0.1010 -0.0528
  111SOL    HW1  332   1.705   2.402   2.175 -1.9731  1.0067  2.4941
  111SOL    HW2  333   1.567   2.482   2.197  2.2696 -0.3989 -0.9659
  112SOL     OW  334   1.507   2.703   3.082 -0.0602  0.1012  0.2715
  112SOL    HW1  335   1.496   2.689   0.075  0.4425 -0.3104 -0.4392
  112SOL    HW2  336   1.591   2.664   3.040 -0.9429 -0.7108 -0.0126
  113SOL     OW  337   1.916   2.632   1.384 -0.0540 -0.0567  0.4007
  113SOL    HW1  338   2.002   2.683   1.349  3.8356  2.3000 -1.1393
  113SOL    HW2  339   1.887   2.554   1.328 -0.8530 -0.1985 -0.5459
  114SOL     OW  340   2.936   0.842   0.775  0.2465  0.1493 -0.7831
  114SOL    HW1  341   2.957   0.937   0.779  0.2095 -2.0394  0.7629
  114SOL    HW2  342   2.944   0.799   0.868 -1.4009  0.3424  0.0159
  115SOL     OW  343   0.523   1.095   2.824 -0.2456 -0.2735 -0.0509
  115SOL    HW1  344   0.493   1.106   2.922 -1.3457 -0.1020  1.3142
  115SOL    HW2  345   0.623   1.077   2.821 -2.4193 -1.5683 -1.8567
  116SOL     OW  346   2.996   1.354   2.321  0.6388 -0.0991 -0.8336
  116SOL    HW1  347   3.038   1.347   2.229  1.4402  0.0192  2.3680
  116SOL    HW2  348   2.982   1.450   2.352  1.3354  0.9755 -1.6780
  117SOL     OW  349   2.651   0.009   0.623 -0.2417  0.0373 -0.7602
  117SOL    HW1  350   2.724   0.080   0.620  3.1550 -2.9313  1.9032
  117SOL    HW2  351   2.683   3.032   0.584  0.9527  2.3478 -1.1947
  118SOL     OW  352   1.190   2.042   1.549  0.6493  0.0992 -0.4652
  118SOL    HW1  353   1.164   1.947   1.570  1.4116  0.5487 -0.8311
  118SOL    HW2  354   1.289   2.058   1.539  0.6725 -0.7626 -0.1937
  119SOL     OW  355   0.608   2.383   2.848  0.0976  0.0724  0.4410
  119SOL    HW1  356   0.681   2.414   2.912  0.9382  1.6730  0.2266
  119SOL    HW2  357   0.577   2.287   2.868  0.9262 -0.4756 -0.7407
  120SOL     OW  358   0.708   0.880   2.763  0.5461 -0.2938 -0.2680
  120SOL    HW1  359   0.683   0.789   2.796 -1.5756  1.2138  2.3687
  120SOL    HW2  360   0.790   0.918   2.818 -0.4474  3.6929  0.1197
  121SOL     OW  361   1.737   2.654   0.958  0.1271 -0.6981 -0.0481
  121SOL    HW1  362   1.816   2.679   1.018 -0.9352 -2.0115  0.1304
  121SOL    HW2  363   1.708   2.559   0.969 -0.1921 -0.8949  2.0514
  122SOL     OW  364   2.185   2.440   1.675  0.5933 -0.3199 -0.1126
  122SOL    HW1  365   2.100   2.490   1.660 -1.1165 -2.8861 -1.3308
  122SOL    HW2  366   2.166   2.340   1.664 -0.5522 -1.0077 -1.7675
  123SOL     OW  367   0.363   2.818   0.610 -0.4399  0.4842  0.3916
  123SOL    HW1  368   0.303   2.903   0.610  0.7349  0.8308  0.3094
  123SOL    HW2  369   0.313   2.740   0.567 -0.0890  0.3448  1.5823
  124SOL     OW  370   2.248   1.221   2.819  0.2641  0.4714 -0.3390
  124SOL    HW1  371   2.276   1.190   2.724  1.4746 -0.9795  1.5696
  124SOL    HW2  372   2.321   1.249   2.885 -2.4670 -1.2694  3.1481
  125SOL     OW  373   0.667   0.990   0.410  0.5095  0.0820  0.1745
  125SOL    HW1  374   0.695   0.995   0.507 -0.3559  0.6871 -2.3508
  125SOL    HW2  375   0.618   1.072   0.385  3.8935  0.4406  1.3185
  126SOL     OW  376   2.725   1.673   0.808  0.5558 -0.4073  0.0813
  126SOL    HW1  377   2.757   1.764   0.844 -0.2203 -0.3925  1.3013
  126SOL    HW2  378   2.802   1.638   0.753  1.1433  1.5629  0.3449
  127SOL     OW  379   0.031   2.125   1.874 -0.1261 -0.0625 -0.6020
  127SOL    HW1  380   0.101   2.105   1.809 -3.1842  1.9139  1.8305
  127SOL    HW2  381   0.044   2.068   1.957  1.7063 -0.7585  1.4936
  128SOL     OW  382   1.033   0.989   0.048 -0.1959 -0.3113  0.3713
  128SOL    HW1  383   1.110   0.936   0.088  0.0514  0.4211  0.6664
  128SOL    HW2  384   0.947   0.962   0.094  1.5417  0.6932 -1.2889
  129SOL     OW  385   2.561   1.014   0.725  0.4520 -0.1892  0.4484
  129SOL    HW1  386   2.528   1.099   0.770  2.0420 -2.8039 -0.5905
  129SOL    HW2  387   2.539   0.995   0.633 -0.5462  0.5220  4.3337
  130SOL     OW  388   2.371   0.898   1.386 -0.2405 -0.2394 -0.3264
  130SOL    HW1  389   2.430   0.902   1.472 -1.3290  1.3197 -0.0573
  130SOL    HW2  390   2.402   0.947   1.306  0.0379 -0.6863  3.5400
  131SOL     OW  391   2.853   2.718   3.053  0.7832  0.0695 -0.4568
  131SOL    HW1  392   2.842   2.709   2.950  0.1715  0.9164 -0.2513
  131SOL    HW2  393   2.763   2.719   3.106 -3.2644  1.7886  1.8359
  132SOL     OW  394   2.887   2.145   1.782 -0.3032  0.1735  0.3362
  132SOL    HW1  395   2.845   2.233   1.746 -3.2530  3.5072 -3.2577
  132SOL    HW2  396   2.980   2.145   1.826  0.2772  1.7753 -0.6963
  133SOL     OW  397   1.169   0.492   1.157 -0.2808  0.7412 -0.6789
  133SOL    HW1  398   1.161   0.423   1.084 -0.3491  0.5514  2.4689
  133SOL    HW2  399   1.105   0.563   1.139 -0.4344 -0.2611  2.0636
  134SOL     OW  400   3.068   1.288   0.330 -0.4285  0.3635 -0.0392
  134SOL    HW1  401   2.988   1.329   0.283  1.4830 -0.2581 -0.9276
  134SOL    HW2  402   0.037   1.267   0.266 -0.7825  0.2219  0.7168
  135SOL     OW  403   2.411   1.110   1.774 -0.7437 -0.0181  0.2666
  135SOL    HW1  404   2.471   1.145   1.697  0.1687 -1.3330 -0.8713
  135SOL    HW2  405   2.388   1.185   1.836 -0.2742  0.3126  2.1551
  136SOL     OW  406   0.043   0.822   0.589  0.6521  0.4709 -0.3790
  136SOL    HW1  407   3.092   0.845   0.664  1.5975  0.8668 -1.5573
  136SOL    HW2  408   0.017   0.865   0.500  0.1850  1.6134 -1.4786
  137SOL     OW  409   2.656   1.226   1.370 -0.2490  0.9407  0.2074
  137SOL    HW1  410   2.652   1.258   1.274  0.5180 -4.2691  1.4106
  137SOL    HW2  411   2.740   1.164   1.384  1.8115  1.9612 -0.1992
  138SOL     OW  412   1.807   0.991   1.504  0.0493  0.2168  0.4940
  138SOL    HW1  413   1.816   0.886   1.511  0.7374 -0.4743  1.9185
  138SOL    HW2  414   1.795   1.021   1.406 -0.5449 -2.0546 -0.7821
  139SOL     OW  415   1.989   0.024   0.020 -0.1293  0.2375 -0.4574
  139SOL    HW1  416   1.907   3.090   0.067 -0.9084 -1.9279 -0.7383
  139SOL    HW2  417   2.015   0.117   0.055 -0.2665  1.3991 -2.0670
  140SOL     OW  418   1.436   2.023   1.818 -0.0558  0.1345  0.0300
  140SOL    HW1  419   1.348   2.021   1.869  2.2308  1.2302  1.3299
  140SOL    HW2  420   1.476   1.929   1.821  1.2421  0.3182 -2.5514
  141SOL     OW  421   1.733   2.075   0.664 -0.7236  0.3137 -0.3496
  141SOL    HW1  422   1.751   1.977   0.645 -1.4953  0.9929 -1.3238
  141SOL    HW2  423   1.794   2.134   0.601 -1.0607  1.3465 -1.2133
  142SOL     OW  424   0.418   0.933   0.150  0.0365 -0.5366  0.2511
  142SOL    HW1  425   0.500   0.910   0.103 -1.0594 -0.8998 -1.1305
  142SOL    HW2  426   0.338   0.886   0.115 -0.7380 -2.1213  3.2299
  143SOL     OW  427   0.227   2.241   2.936  0.0679 -0.3362  0.0815
  143SOL    HW1  428   0.191   2.336   2.922 -0.5592 -0.3592 -2.2900
  143SOL    HW2  429   0.165   2.171   2.901 -1.1613 -1.0567  0.8757
  144SOL     OW  430   1.466   0.006   1.411 -0.3177 -0.5438 -0.1825
  144SOL    HW1  431   1.418   0.039   1.495  0.2850 -0.6165  0.9286
  144SOL    HW2  432   1.445   0.069   1.332 -0.7366 -0.1966 -0.0110
  145SOL     OW  433   2.403   1.310   0.562  0.3877  0.0507 -0.2224
  145SOL    HW1  434   2.480   1.356   0.517 -3.4317 -1.8863 -0.7510
  145SOL    HW2  435   2.403   1.307   0.665 -2.1954  2.8844 -1.0760
  146SOL     OW  436   2.390   2.226   3.055 -0.6199  0.4988  0.1507
  146SOL    HW1  437   2.450   2.192   2.975 -0.2612  1.0430 -0.7765
  146SOL    HW2  438   2.402   2.328   3.070  1.3152 -0.5436 -0.6569
  147SOL     OW  439   2.074   3.067   1.279  0.1284  0.3308  0.1506
  147SOL    HW1  440   2.053   0.057   1.291 -0.5016  1.7702 -3.4760
  147SOL    HW2  441   1.989   3.010   1.287  3.1292 -1.3445 -1.9252
  148SOL     OW  442   1.381   2.826   2.185 -0.1086  0.1022  0.0295
  148SOL    HW1  443   1.390   2.725   2.182 -0.5740 -0.1887 -0.2283
  148SOL    HW2  444   1.282   2.855   2.179 -1.9041  1.6663  1.7022
  149SOL     OW  445   1.254   0.318   2.377  0.5858 -0.4090  0.1086
  149SOL    HW1  446   1.300   0.229   2.363 -2.3329 -1.1485  0.7935
  149SOL    HW2  447   1.280   0.355   2.467 -2.6911  0.7339 -1.4489
  150SOL     OW  448   0.693   2.603   0.526  0.7271 -0.1996 -0.4345
  150SOL    HW1  449   0.681   2.704   0.525  0.4385  0.2375  1.5256
  150SOL    HW2  450   0.705   2.572   0.429  1.5387  0.7415  1.3368
  151SOL     OW  451   0.202   1.517   0.157  0.2287 -0.0038 -0.0590
  151SOL    HW1  452   0.138   1.588   0.123 -0.0030  2.0748  0.4250
  151SOL    HW2  453   0.282   1.511   0.096 -0.2305  1.6034  0.5805
  152SOL     OW  454   2.893   0.125   0.650  0.1212 -0.1369 -0.5257
  152SOL    HW1  455   2.932   0.195   0.712 -0.3403 -2.0180  0.8998
  152SOL    HW2  456   2.937   0.129   0.559  2.5791  0.7206  0.6977
  153SOL     OW  457   2.280   3.107   0.847 -0.2654  0.3699  0.1236
  153SOL    HW1  458   2.179   3.104   0.868 -4.5694  1.4814  3.8348
  153SOL    HW2  459   2.304   3.062   0.755  0.2363 -4.1625 -1.4541
  154SOL     OW  460   1.152   0.383   1.695 -0.4957  0.4779 -0.2628
  154SOL    HW1  461   1.105   0.396   1.785  1.0901 -2.7582  1.7096
  154SOL    HW2  462   1.235   0.441   1.684 -0.4400  0.7430  0.5235
  155SOL     OW  463   2.640   1.296   1.090 -0.2078 -0.4712  0.8266
  155SOL    HW1  464   2.723   1.243   1.049  1.4990  0.1798  1.9926
  155SOL    HW2  465   2.653   1.400   1.085  2.1748  3.3689 -2.9663
  156SOL     OW  466   2.607   1.963   0.027  0.1009  0.4170  0.2585
  156SOL    HW1  467   2.662   2.045   0.003  0.5011 -0.6889  0.9916
  156SOL    HW2  468   2.533   1.986   0.090 -1.2564  4.3668  1.1751
  157SOL     OW  469   1.237   0.192   0.147 -0.0514 -0.9678 -0.1557
  157SOL    HW1  470   1.263   0.095   0.151  0.7925 -1.8128 -1.3723
  157SOL    HW2  471   1.203   0.217   0.058 -1.3440 -2.0214  0.5969
  158SOL     OW  472   2.261   0.410   2.460 -0.2071  0.6186 -0.0747
  158SOL    HW1  473   2.351   0.452   2.436  1.1150 -0.5462 -0.3320
  158SOL    HW2  474   2.273   0.345   2.538 -1.5327 -1.6708  1.3921
  159SOL     OW  475   0.428   3.045   0.122 -0.0688  0.4529  0.0734
  159SOL    HW1  476   0.508   2.993   0.089 -2.2971  1.1940  1.0139
  159SOL    HW2  477   0.349   2.983   0.141  2.8831 -0.0310  1.9044
  160SOL     OW  478   1.080   1.980   0.051  0.3649  0.1018  0.0069
  160SOL    HW1  479   1.053   2.017   3.068 -2.1920 -0.0985  0.1048
  160SOL    HW2  480   1.084   1.877   0.043 -0.5663  0.2039 -0.4683
  161SOL     OW  481   2.854   1.832   2.476 -0.1658 -0.3801  0.1133
  161SOL    HW1  482   2.754   1.806   2.456  1.7296 -0.4369  0.0282
  161SOL    HW2  483   2.856   1.915   2.539  3.3390  0.8937 -0.6350
  162SOL     OW  484   0.095   2.443   1.151 -0.3301 -0.2114  0.3237
  162SOL    HW1  485   0.198   2.450   1.177  1.2819  0.6222 -0.9101
  162SOL    HW2  486   0.065   2.534   1.116 -3.8257 -0.1704  0.4626
  163SOL     OW  487   2.258   0.338   2.757 -0.0899 -0.0744 -0.0245
  163SOL    HW1  488   2.161   0.341   2.794  0.0605  1.8247 -1.2930
  163SOL    HW2  489   2.265   0.250   2.707  0.6600  0.9821  1.7195
  164SOL     OW  490   2.942   1.618   0.611  0.5402  0.2158  0.2965
  164SOL    HW1  491   2.880   1.564   0.552  1.6897  1.1369 -0.3254
  164SOL    HW2  492   3.040   1.607   0.592 -0.3634  0.2513 -0.6350
  165SOL     OW  493   0.146   3.023   2.158 -0.2121 -0.3575  0.5300
  165SOL    HW1  494   0.227   2.958   2.154  0.7248  0.4752  0.1204
  165SOL    HW2  495   0.149   3.087   2.078  1.5176 -1.1769  0.3676
  166SOL     OW  496   2.270   0.836   0.609  0.2830  0.8141 -0.3992
  166SOL    HW1  497   2.349   0.774   0.588 -0.4151 -3.8334 -0.3132
  166SOL    HW2  498   2.183   0.788   0.595 -0.7085 -1.6915 -0.6839
  167SOL     OW  499   0.440   0.386   0.492 -0.3937 -0.1815  0.2244
  167SOL    HW1  500   0.366   0.425   0.428 -2.7742 -0.1314  0.0405
  167SOL    HW2  501   0.440   0.437   0.577  0.0371 -1.6619  1.7169
  168SOL     OW  502   2.047   2.831   2.290  0.5739 -0.1145 -0.1841
  168SOL    HW1  503   1.986   2.757   2.332 -1.1942 -0.5379  2.2884
  168SOL    HW2  504   1.996   2.920   2.309 -2.3224  1.8453  0.8558
  169SOL     OW  505   1.130   1.144   0.726 -0.2649  0.3582  0.4276
  169SOL    HW1  506   1.109   1.101   0.636 -2.9364 -1.2581 -0.9860
  169SOL    HW2  507   1.047   1.131   0.787 -0.3550 -1.3401 -0.8352
  170SOL     OW  508   0.104   0.416   1.248  0.4398 -0.1624  0.0516
  170SOL    HW1  509   0.134   0.466   1.327 -1.9303 -1.0372 -1.8479
  170SOL    HW2  510   0.006   0.404   1.258  1.6329 -2.6818  0.5806
  171SOL     OW  511   0.950   2.938   1.682  0.6549 -0.1845 -0.2237
  171SOL    HW1  512   1.018   2.922   1.611  1.3235 -0.1558  0.7017
  171SOL    HW2  513   0.942   3.037   1.699 -0.8004  0.1093 -1.9568
  172SOL     OW  514   0.317   2.375   1.645 -0.2344 -0.0137  0.0655
  172SOL    HW1  515   0.283   2.281   1.664  0.6102 -0.2063  2.0199
  172SOL    HW2  516   0.398   2.373   1.584 -0.8286  1.2684 -2.9606
  173SOL     OW  517   1.256   0.749   2.632 -0.0874 -0.2083 -0.0097
  173SOL    HW1  518   1.235   0.777   2.537  0.0279 -0.5686 -0.4558
  173SOL    HW2  519   1.352   0.714   2.638  0.0139 -0.0666  3.6081
  174SOL     OW  520   1.746   3.083   2.897 -0.1647  0.2475  0.2879
  174SOL    HW1  521   1.671   3.038   2.844  0.2782  2.6243 -0.8339
  174SOL    HW2  522   1.758   0.066   2.858 -2.4667 -2.8547  0.8041
  175SOL     OW  523   1.835   2.719   0.266  0.1945 -0.1964  0.3156
  175SOL    HW1  524   1.736   2.709   0.252 -0.1016  1.0859  1.6259
  175SOL    HW2  525   1.892   2.647   0.218  1.6577  0.9262 -1.7558
  176SOL     OW  526   1.613   0.274   2.738  0.0939  0.1835 -0.0365
  176SOL    HW1  527   1.665   0.354   2.768 -0.2723  0.4339 -0.3599
  176SOL    HW2  528   1.613   0.273   2.639 -0.0306 -0.7139  1.4625
  177SOL     OW  529   1.074   1.631   0.635  0.3724 -0.2595  0.3365
  177SOL    HW1  530   1.109   1.582   0.719  0.6620  0.8302 -0.6538
  177SOL    HW2  531   1.014   1.709   0.664  0.1403 -1.1681 -3.1006
  178SOL     OW  532   2.878   2.276   2.425 -0.4572  0.2914 -0.3997
  178SOL    HW1  533   2.874   2.373   2.459  1.9551  1.0006  2.0025
  178SOL    HW2  534   2.973   2.240   2.448  2.4076 -1.5437 -0.0053
  179SOL     OW  535   0.396   2.439   2.582  0.3732  0.0192  0.7279
  179SOL    HW1  536   0.464   2.491   2.521 -1.2592  1.1784 -0.3126
  179SOL    HW2  537   0.399   2.481   2.673 -2.3435 -0.2963 -0.0210
  180SOL     OW  538   1.700   1.846   0.981 -0.3458 -0.0529 -0.1826
  180SOL    HW1  539   1.733   1.935   1.010 -0.9613 -2.8596 -1.6617
  180SOL    HW2  540   1.605   1.851   0.941  0.2189  1.6333 -2.3785
  181SOL     OW  541   2.055   1.052   2.313  0.1473 -0.0217 -0.0955
  181SOL    HW1  542   2.125   1.128   2.334  1.4307  0.2386  3.1304
  181SOL    HW2  543   2.068   1.013   2.219 -1.4382  0.0785 -0.4368
  182SOL     OW  544   2.818   2.810   2.468  0.0618  0.3255 -0.1913
  182SOL    HW1  545   2.758   2.795   2.382 -1.9378 -3.1167 -1.2974
  182SOL    HW2  546   2.916   2.826   2.444  1.5249 -2.2537 -0.6712
  183SOL     OW  547   1.204   0.554   2.222 -0.5901 -0.5064 -0.0549
  183SOL    HW1  548   1.223   0.489   2.298 -0.6164  0.9948  0.1158
  183SOL    HW2  549   1.282   0.573   2.162  2.2494  1.4188 -0.2490
  184SOL     OW  550   0.800   0.656   1.717  0.1732 -0.0070  0.4517
  184SOL    HW1  551   0.752   0.637   1.803 -1.0216 -0.4912 -0.3873
  184SOL    HW2  552   0.862   0.738   1.725  0.9652  0.8820 -0.4582
  185SOL     OW  553   1.927   1.168   0.624  0.1515  0.0615 -0.5767
  185SOL    HW1  554   1.869   1.123   0.550 -1.4368 -2.3982 -0.7438
  185SOL    HW2  555   2.022   1.148   0.608 -1.1370 -1.0214 -0.1267
  186SOL     OW  556   0.098   2.057   2.778 -0.4394 -0.3737  0.1577
  186SOL    HW1  557   0.148   1.976   2.738 -2.9864 -0.8265  0.3709
  186SOL    HW2  558   0.001   2.021   2.800 -2.2285  2.8262 -1.0159
  187SOL     OW  559   2.540   1.446   0.362  0.5609 -0.3834 -0.3008
  187SOL    HW1  560   2.505   1.524   0.308 -2.7128  3.3237 -0.5337
  187SOL    HW2  561   2.602   1.385   0.305 -0.8498 -2.4314  0.5492
  188SOL     OW  562   0.239   1.622   0.886  0.2435  0.2103  0.3394
  188SOL    HW1  563   0.256   1.564   0.806  2.1936  0.5649  5.2014
  188SOL    HW2  564   0.205   1.713   0.850 -1.3930 -0.1963 -2.0093
  189SOL     OW  565   2.512   0.614   0.136 -0.0174  0.3598  0.2481
  189SOL    HW1  566   2.504   0.638   0.038 -0.6368 -0.6375 -1.4496
  189SOL    HW2  567   2.549   0.517   0.143 -0.2591 -1.9790  0.7771
  190SOL     OW  568   1.309   1.551   2.153  0.3434 -0.0603 -0.1789
  190SOL    HW1  569   1.273   1.643   2.175 -1.5265 -2.8371  1.1430
  190SOL    HW2  570   1.250   1.485   2.194 -0.7132 -3.3482 -1.2748
  191SOL     OW  571   2.773   0.173   1.656 -0.8201  0.1412 -0.7494
  191SOL    HW1  572   2.677   0.172   1.680  1.5375  0.3216  0.5814
  191SOL    HW2  573   2.831   0.192   1.736  0.0235 -1.7360 -0.1354
  192SOL     OW  574   1.988   1.396   1.592 -0.2179 -0.6114 -0.0786
  192SOL    HW1  575   2.046   1.407   1.506  2.0883 -0.9399 -1.6365
  192SOL    HW2  576   1.974   1.478   1.656 -0.2609 -1.3635 -0.6062
  193SOL     OW  577   1.185   0.739   0.581  0.1526  0.8271  0.1407
  193SOL    HW1  578   1.115   0.806   0.546  1.6811 -1.0898 -0.9617
  193SOL    HW2  579   1.163   0.713   0.679  0.9948 -0.3503  1.0208
  194SOL     OW  580   1.267   2.789   1.202 -0.1555  0.0521  0.1918
  194SOL    HW1  581   1.304   2.850   1.130  0.3409  0.2746  1.6777
  194SOL    HW2  582   1.213   2.708   1.170 -0.1571  0.8784  0.1739
  195SOL     OW  583   2.259   0.370   0.199 -0.3010 -0.1561  0.6803
  195SOL    HW1  584   2.287   0.273   0.221  1.3351  0.5944  0.5874
  195SOL    HW2  585   2.264   0.424   0.285  0.6023 -1.1409 -2.8167
  196SOL     OW  586   0.529   2.409   1.477 -0.2771  0.1649 -0.1826
  196SOL    HW1  587   0.568   2.316   1.466 -0.6554 -1.2447 -1.4241
  196SOL    HW2  588   0.603   2.475   1.486  0.9213 -0.3263  0.4160
  197SOL     OW  589   0.510   2.368   0.606 -0.6227 -0.2238  0.1440
  197SOL    HW1  590   0.567   2.443   0.576 -1.2632  0.1413  2.2894
  197SOL    HW2  591   0.412   2.395   0.601 -0.1349  0.2112 -2.4333
  198SOL     OW  592   0.748   1.024   0.656  0.4229 -0.4829 -0.0562
  198SOL    HW1  593   0.701   0.973   0.734  0.4334  2.9621 -1.2334
  198SOL    HW2  594   0.759   1.125   0.671  1.9410 -0.4428 -0.0178
  199SOL     OW  595   3.056   3.062   1.319  0.8384  0.6086 -0.1619
  199SOL    HW1  596   2.988   3.088   1.387  1.3395 -0.1819 -1.4331
  199SOL    HW2  597   3.069   2.958   1.320 -1.0950 -3.0256 -0.0521
  200SOL     OW  598   2.181   1.573   2.674  0.2030 -0.0790 -0.1095
  200SOL    HW1  599   2.272   1.565   2.625  0.1125  0.8030  1.8966
  200SOL    HW2  600   2.189   1.633   2.753 -0.0077 -1.0641  2.1048
  201SOL     OW  601   2.814   2.203   1.246  0.2855 -0.1852 -0.1361
  201SOL    HW1  602   2.896   2.238   1.292 -1.5657 -0.5938 -1.1614
  201SOL    HW2  603   2.803   2.106   1.277 -1.1567  0.4039  1.1473
  202SOL     OW  604   2.759   0.312   0.313  0.4723 -0.4953 -0.0039
  202SOL    HW1  605   2.754   0.361   0.222 -2.0325 -1.3753 -3.1489
  202SOL    HW2  606   2.834   0.242   0.321  2.6398 -0.1768  0.6870
  203SOL     OW  607   1.241   2.086   2.256  0.1517 -0.0607  0.1245
  203SOL    HW1  608   1.171   2.162   2.258  0.1024  1.2663  1.3538
  203SOL    HW2  609   1.331   2.114   2.293 -3.2888 -1.0654  0.0359
  204SOL     OW  610   1.097   1.801   1.619 -0.3235 -0.4321  0.1977
  204SOL    HW1  611   1.013   1.757   1.583  0.3813 -1.0412 -0.7726
  204SOL    HW2  612   1.103   1.779   1.716  1.0832  0.1732 -0.7216
  205SOL     OW  613   1.088   2.167   1.770  0.0862  0.2005  0.2856
  205SOL    HW1  614   1.144   2.138   1.687  0.3481 -0.0405 -0.5019
  205SOL    HW2  615   1.025   2.089   1.785  0.4058  1.3167  1.1401
  206SOL     OW  616   0.212   0.507   2.672  0.2929 -0.2286 -0.6487
  206SOL    HW1  617   0.305   0.546   2.683 -0.8998 -2.3817  1.0003
  206SOL    HW2  618   0.143   0.557   2.725 -2.8132 -0.7874  1.1553
  207SOL     OW  619   1.569   2.940   2.049  0.1889  0.1819 -0.6080
  207SOL    HW1  620   1.550   2.987   1.962 -0.9243 -0.5816 -0.8989
  207SOL    HW2  621   1.489   2.902   2.099  0.6184 -0.6055  1.4438
  208SOL     OW  622   0.803   2.454   1.885 -0.0966 -0.1518 -0.0628
  208SOL    HW1  623   0.781   2.470   1.980  0.9699 -0.3087  0.8012
  208SOL    HW2  624   0.761   2.529   1.833 -1.6999 -1.5915 -1.2982
  209SOL     OW  625   1.861   1.005   2.951  0.2508 -0.6904 -0.1768
  209SOL    HW1  626   1.854   0.907   2.955  0.7290  6.5691  0.1714
  209SOL    HW2  627   1.761   1.039   2.943 -0.7016  1.7734  0.4342
  210SOL     OW  628   0.116   0.468   0.983 -0.1987 -0.3991 -0.1790
  210SOL    HW1  629   0.054   0.409   0.930 -1.3294 -0.2731  1.0901
  210SOL    HW2  630   0.126   0.447   1.085 -1.6318 -0.6812  1.0115
  211SOL     OW  631   0.745   0.816   1.295  0.1292  0.0308 -0.2412
  211SOL    HW1  632   0.692   0.791   1.377  0.0609 -1.5403 -2.1717
  211SOL    HW2  633   0.843   0.822   1.326  2.1799  1.3442  0.3000
  212SOL     OW  634   1.074   2.320   1.120 -0.1346  0.7399  0.0308
  212SOL    HW1  635   1.053   2.225   1.147 -2.0214  2.4439 -0.9857
  212SOL    HW2  636   1.027   2.356   1.036 -2.8064  1.0235 -0.7869
  213SOL     OW  637   2.074   0.261   1.910  0.2372  0.2693 -0.5756
  213SOL    HW1  638   1.974   0.277   1.899 -1.9485  1.3755  0.6758
  213SOL    HW2  639   2.101   0.164   1.920  0.5979  0.0060  1.0376
  214SOL     OW  640   1.326   2.379   2.668  0.2619 -0.1378 -0.5086
  214SOL    HW1  641   1.305   2.314   2.743  0.6568 -2.1313  0.0332
  214SOL    HW2  642   1.422   2.373   2.631  0.8580 -1.1702 -1.4697
  215SOL     OW  643   3.017   1.773   1.468  0.8774 -0.8874  0.0882
  215SOL    HW1  644   2.954   1.854   1.491 -1.7823 -1.0075 -0.0201
  215SOL    HW2  645   2.960   1.704   1.415  1.1863 -0.5543 -4.3656
  216SOL     OW  646   0.383   0.217   2.169  0.3161 -0.2265 -0.0560
  216SOL    HW1  647   0.436   0.191   2.252 -1.6853 -1.9169  1.9977
  216SOL    HW2  648   0.441   0.225   2.088 -0.8143  1.1579  1.4846
  217SOL     OW  649   2.858   0.227   3.037  0.1253 -0.5315 -0.0282
  217SOL    HW1  650   2.895   0.268   2.954  0.4429 -0.0529  1.8679
  217SOL    HW2  651   2.919   0.234   0.008  0.3502  0.4783 -1.4280
  218SOL     OW  652   1.617   2.023   2.256  0.0872 -0.2315 -0.3930
  218SOL    HW1  653   1.619   1.962   2.336 -0.7387 -2.7554  2.5214
  218SOL    HW2  654   1.618   1.966   2.172 -0.0702  0.8951  1.0254
  219SOL     OW  655   1.821   1.026   0.360  0.2413 -0.0489 -0.2213
  219SOL    HW1  656   1.787   1.100   0.293 -2.8989 -0.1360  0.4210
  219SOL    HW2  657   1.740   0.983   0.408 -0.5828  0.0628 -2.1015
  220SOL     OW  658   1.352   2.296   1.080  0.1969 -0.0073  0.1039
  220SOL    HW1  659   1.255   2.318   1.112 -1.3971  0.9659  0.3650
  220SOL    HW2  660   1.357   2.295   0.979  0.4726 -4.0550  1.5075
  221SOL     OW  661   0.193   0.810   0.055  0.1676  0.4243 -0.1938
  221SOL    HW1  662   0.109   0.804   0.111  2.4744  3.6317  1.3351
  221SOL    HW2  663   0.173   0.839   3.066 -1.0717  1.0812 -0.8399
  222SOL     OW  664   1.129   2.870   1.436 -0.3463  0.2366  0.2631
  222SOL    HW1  665   1.203   2.853   1.503 -1.9314  1.8040  0.1727
  222SOL    HW2  666   1.163   2.847   1.347 -0.3383 -0.9019  2.2455
  223SOL     OW  667   1.367   0.367   2.609  0.1736 -0.4062 -0.2218
  223SOL    HW1  668   1.435   0.300   2.645 -0.5626 -1.8739 -0.3202
  223SOL    HW2  669   1.380   0.456   2.650  0.2306 -0.4480  1.1716
  224SOL     OW  670   2.933   0.843   1.087 -0.0288  0.2137  0.5125
  224SOL    HW1  671   2.888   0.805   1.170 -1.9791  0.4385  2.5400
  224SOL    HW2  672   3.028   0.869   1.113  2.3518  0.2984  0.1465
  225SOL     OW  673   1.067   1.211   1.571  0.0157  0.3039 -0.3328
  225SOL    HW1  674   1.103   1.121   1.543 -2.3628  1.6523  1.1862
  225SOL    HW2  675   0.969   1.216   1.560  3.8069 -2.2603  1.0355
  226SOL     OW  676   1.286   3.020   0.188 -0.6785 -0.0140  0.0568
  226SOL    HW1  677   1.323   2.965   0.110  3.9505 -0.1074 -0.4239
  226SOL    HW2  678   1.362   3.030   0.259  1.9407 -1.6693 -0.4804
  227SOL     OW  679   0.562   1.377   1.196  0.3565 -0.1738  0.2339
  227SOL    HW1  680   0.470   1.334   1.202  0.3089  0.4705 -0.9543
  227SOL    HW2  681   0.556   1.477   1.223 -0.1311 -0.4706 -0.4467
  228SOL     OW  682   0.294   2.732   1.440 -0.4878 -0.2989  0.3645
  228SOL    HW1  683   0.330   2.828   1.434  2.8149  1.7969  0.9930
  228SOL    HW2  684   0.338   2.697   1.523 -2.7691  0.0643 -1.4634
  229SOL     OW  685   2.290   1.167   0.104 -0.4525 -0.0810  0.2561
  229SOL    HW1  686   2.199   1.132   0.067 -0.2971  0.7716  0.8618
  229SOL    HW2  687   2.357   1.089   0.104 -1.5074 -1.6425 -0.3277
  230SOL     OW  688   0.781   1.256   1.893 -0.0107 -0.2049  0.2614
  230SOL    HW1  689   0.725   1.186   1.841  1.7032 -2.3808 -0.9593
  230SOL    HW2  690   0.861   1.202   1.932 -0.2382  0.0880  0.0037
  231SOL     OW  691   1.470   2.118   1.550 -0.3182 -0.2144  0.8676
  231SOL    HW1  692   1.531   2.193   1.517  0.7495 -0.2532  0.2644
  231SOL    HW2  693   1.471   2.104   1.649 -0.3357  0.7652 -1.0078
  232SOL     OW  694   2.073   2.480   0.547  0.2484 -0.5064  0.2054
  232SOL    HW1  695   2.012   2.516   0.622 -1.6892  0.6176 -0.6619
  232SOL    HW2  696   2.149   2.427   0.587 -2.6770 -1.4767 -0.5505
  233SOL     OW  697   0.834   2.390   2.988 -0.0890  0.4129  0.3954
  233SOL    HW1  698   0.881   2.469   3.036  1.3941 -1.4360 -0.1428
  233SOL    HW2  699   0.885   2.368   2.907 -2.5912  0.0170  1.5991
  234SOL     OW  700   0.930   0.147   2.595 -0.1547 -0.1369 -0.5406
  234SOL    HW1  701   0.997   0.206   2.643  0.1598  0.2168  0.0265
  234SOL    HW2  702   0.909   0.065   2.641 -1.8022  1.0211 -4.9054
  235SOL     OW  703   3.005   2.024   0.036 -0.0551 -0.3968 -0.1959
  235SOL    HW1  704   2.956   1.955   3.097  1.8781  3.1308 -1.9397
  235SOL    HW2  705   3.104   2.001   0.050  0.5919 -1.1995  0.6311
  236SOL     OW  706   2.092   2.712   2.682 -0.0658 -0.0624  0.1811
  236SOL    HW1  707   2.107   2.621   2.726  0.8097  0.4772 -0.6345
  236SOL    HW2  708   2.175   2.747   2.640 -2.7767 -1.2474 -2.5774
  237SOL     OW  709   2.171   1.373   1.344  0.1792 -0.2952 -0.2100
  237SOL    HW1  710   2.154   1.462   1.298  0.0652  0.8747 -1.7136
  237SOL    HW2  711   2.184   1.302   1.269  2.6716 -2.4260 -0.3282
  238SOL     OW  712   2.164   0.106   2.330  0.2472 -0.1949  0.0686
  238SOL    HW1  713   2.145   0.197   2.287  0.3120 -2.0391  0.3084
  238SOL    HW2  714   2.086   0.043   2.320  2.7788  1.5442  0.9569
  239SOL     OW  715   0.509   1.736   1.615 -0.0651 -0.5215  0.3318
  239SOL    HW1  716   0.457   1.658   1.655  0.9307  0.9017 -1.6306
  239SOL    HW2  717   0.597   1.749   1.665  0.2097 -1.7669  2.5264
  240SOL     OW  718   0.157   2.156   0.689  0.2212  0.5039  0.2631
  240SOL    HW1  719   0.081   2.221   0.717  0.9818  0.1630  2.7912
  240SOL    HW2  720   0.166   2.089   0.765 -0.3106 -0.8106  1.3252
  241SOL     OW  721   1.457   2.373   0.523  0.2267  0.1081 -0.2233
  241SOL    HW1  722   1.531   2.426   0.573  3.6363 -0.3503 -0.6469
  241SOL    HW2  723   1.488   2.279   0.493 -0.0560 -1.6523 -1.4622
  242SOL     OW  724   1.604   1.330   0.382  0.0169  0.1263  0.1528
  242SOL    HW1  725   1.627   1.302   0.289  1.9492 -1.4638  2.3491
  242SOL    HW2  726   1.534   1.277   0.429  1.3769  0.7447  2.3935
  243SOL     OW  727   0.820   0.084   1.993 -0.0056  0.6489 -0.3453
  243SOL    HW1  728   0.924   0.067   1.990  0.8927 -0.5552 -1.8557
  243SOL    HW2  729   0.783   0.149   2.060  0.8095 -3.2936 -3.5675
  244SOL     OW  730   2.010   2.958   2.926 -0.2862 -0.3872  0.0697
  244SOL    HW1  731   1.942   3.033   2.897 -1.7648  1.0965 -0.3323
  244SOL    HW2  732   2.042   2.977   3.023  1.1535 -0.8870 -0.0751
  245SOL     OW  733   1.429   2.947   3.062 -0.4525  0.0015 -0.3036
  245SOL    HW1  734   1.509   3.010   3.083 -0.5826 -0.5720  2.5630
  245SOL    HW2  735   1.462   2.853   3.079 -0.7875  0.5866 -0.7063
  246SOL     OW  736   0.923   0.751   2.369  0.3282 -0.4243  0.1363
  246SOL    HW1  737   0.911   0.653   2.397  0.2588  0.1286 -2.2203
  246SOL    HW2  738   0.852   0.813   2.410  1.4333 -2.8158  0.1992
  247SOL     OW  739   0.176   0.384   1.958 -0.5635 -0.6459 -0.0800
  247SOL    HW1  740   0.244   0.460   1.954 -1.7717 -0.7513 -3.2843
  247SOL    HW2  741   0.138   0.379   2.050  1.6559 -0.7288 -0.5199
  248SOL     OW  742   0.652   0.914   2.022  0.1733 -0.3183  0.2438
  248SOL    HW1  743   0.746   0.909   2.055 -0.7245 -0.4704  0.9099
  248SOL    HW2  744   0.644   0.980   1.941  0.9766  2.2097  0.9517
  249SOL     OW  745   1.995   0.647   0.064  0.2699  0.2869  0.1152
  249SOL    HW1  746   1.935   0.587   0.113  0.1617  1.9940  1.2985
  249SOL    HW2  747   2.031   0.719   0.122  1.3447 -1.1545 -1.1620
  250SOL     OW  748   0.547   0.123   0.464 -0.1663 -0.6124 -0.7506
  250SOL    HW1  749   0.501   0.216   0.474  0.7559  0.4845 -0.9795
  250SOL    HW2  750   0.589   0.090   0.549 -1.6102  3.3372 -0.6334
  251SOL     OW  751   0.980   0.255   2.336 -0.3532  0.1095  0.1882
  251SOL    HW1  752   0.970   0.220   2.429  4.5429  0.2603 -3.5939
  251SOL    HW2  753   1.078   0.275   2.322 -1.9997 -0.3038 -0.7294
  252SOL     OW  754   1.489   1.737   1.852 -0.7839  0.9534  0.3413
  252SOL    HW1  755   1.572   1.709   1.796  1.5444 -1.0429  0.7397
  252SOL    HW2  756   1.419   1.663   1.858 -2.3667  0.1208  2.1949
  253SOL     OW  757   1.736   2.705   2.073 -0.2877  0.3514 -0.2359
  253SOL    HW1  758   1.677   2.789   2.071  3.0189 -0.7226 -0.2853
  253SOL    HW2  759   1.693   2.629   2.129 -1.7036 -1.6501  1.0099
  254SOL     OW  760   0.847   2.143   2.212 -0.3400 -0.6836 -0.2681
  254SOL    HW1  761   0.945   2.163   2.215 -0.8038  0.7955  0.2220
  254SOL    HW2  762   0.816   2.052   2.184  0.0927  2.6600  0.4879
  255SOL     OW  763   1.346   0.553   0.467 -0.2845 -0.0988  0.4023
  255SOL    HW1  764   1.272   0.617   0.497  1.2324  1.6880  1.1992
  255SOL    HW2  765   1.346   0.545   0.368 -1.0972  0.2613 -0.1567
  256SOL     OW  766   1.870   1.907   1.652  0.0175  0.3328  0.4970
  256SOL    HW1  767   1.946   1.845   1.629  0.8243  0.3941 -1.6384
  256SOL    HW2  768   1.879   1.998   1.600  0.2195  2.1969 -1.2181
  257SOL     OW  769   0.263   2.210   2.574  0.3309  0.0153 -0.4248
  257SOL    HW1  770   0.306   2.298   2.588 -2.1004 -0.4029 -1.3192
  257SOL    HW2  771   0.200   2.184   2.653 -2.8324 -1.3140  2.0096
  258SOL     OW  772   0.761   0.266   2.208  0.3063 -0.0103 -0.1427
  258SOL    HW1  773   0.858   0.275   2.251  1.3791 -0.8456  1.0295
  258SOL    HW2  774   0.699   0.223   2.276  0.9844 -1.7870  0.8162
  259SOL     OW  775   1.212   0.801   2.361 -0.0802 -0.2707 -0.1033
  259SOL    HW1  776   1.111   0.808   2.356  1.9242  0.0882 -0.3696
  259SOL    HW2  777   1.246   0.718   2.312  1.7181 -1.0089  1.4850
  260SOL     OW  778   1.635   0.838   0.836 -0.9212  0.0083 -0.1592
  260SOL    HW1  779   1.565   0.768   0.859 -0.1718  0.6078 -0.0773
  260SOL    HW2  780   1.714   0.794   0.791  0.4001  1.2181 -3.0430
  261SOL     OW  781   0.567   3.076   2.868 -0.6752 -0.4191  0.0990
  261SOL    HW1  782   0.603   3.016   2.943  2.7041 -2.8041 -0.1157
  261SOL    HW2  783   0.513   3.025   2.802  2.1135  1.8080  2.6214
  262SOL     OW  784   2.649   3.037   2.828  0.6900  0.2182 -0.0686
  262SOL    HW1  785   2.743   3.017   2.855  2.0208  2.2092  0.3916
  262SOL    HW2  786   2.612   0.011   2.882 -3.1941  1.7866 -0.0243
  263SOL     OW  787   0.086   2.062   0.298 -0.0616 -0.1178  0.0774
  263SOL    HW1  788   3.104   2.097   0.333  0.1990 -0.0689 -1.8496
  263SOL    HW2  789   0.151   2.138   0.259 -0.6190 -1.2047 -0.6890
  264SOL     OW  790   0.768   1.222   1.543 -0.5693  0.4195 -0.2195
  264SOL    HW1  791   0.723   1.172   1.624 -0.9268  0.3653  4.8445
  264SOL    HW2  792   0.738   1.318   1.550  0.0815 -1.0631  0.7089
  265SOL     OW  793   0.520   1.233   0.375  0.3627 -0.2879 -0.5205
  265SOL    HW1  794   0.420   1.229   0.350 -3.6864 -0.4921 -2.4422
  265SOL    HW2  795   0.563   1.294   0.307 -0.8263  0.1648 -0.4755
  266SOL     OW  796   1.830   1.474   0.447  0.0092 -0.1772  0.1025
  266SOL    HW1  797   1.739   1.434   0.426 -1.3869 -0.0184  0.2474
  266SOL    HW2  798   1.867   1.439   0.538  1.8573  2.9618  1.7120
  267SOL     OW  799   3.100   0.364   0.053 -0.1049  0.3791 -0.0801
  267SOL    HW1  800   0.091   0.339   0.046 -0.2684  1.0337  2.1976
  267SOL    HW2  801   3.071   0.438   3.095  2.7810  1.8947 -1.3003
  268SOL     OW  802   0.444   2.906   2.719 -0.3196  0.1613  0.1118
  268SOL    HW1  803   0.409   2.808   2.722 -1.6307 -2.5385 -0.1793
  268SOL    HW2  804   0.377   2.969   2.672 -1.5855 -0.1461 -0.8500
  269SOL     OW  805   1.994   0.124   2.752 -0.1615 -0.4639  0.5102
  269SOL    HW1  806   1.976   0.192   2.826 -2.4055 -0.9490 -2.8125
  269SOL    HW2  807   2.083   0.076   2.758  0.2162  0.6722  0.7138
  270SOL     OW  808   0.720   0.879   2.489  0.1440  0.2994 -0.1305
  270SOL    HW1  809   0.697   0.972   2.457  2.7183 -0.6908  2.1290
  270SOL    HW2  810   0.706   0.877   2.589 -1.3103 -1.5661  2.6302
  271SOL     OW  811   2.524   1.017   0.098  0.5244 -0.2253 -0.1326
  271SOL    HW1  812   2.571   0.947   0.157  1.5448 -0.0776  1.1315
  271SOL    HW2  813   2.585   1.039   0.025  0.0223 -1.7211  0.5000
  272SOL     OW  814   2.606   1.788   2.403 -0.6873 -0.5740 -0.2143
  272SOL    HW1  815   2.596   1.878   2.446 -0.0542  0.4119 -2.3059
  272SOL    HW2  816   2.516   1.758   2.369 -1.7337  1.2193 -1.2126
  273SOL     OW  817   2.451   0.355   2.944 -0.3371 -0.0588 -0.2191
  273SOL    HW1  818   2.363   0.349   2.890 -2.1723  1.3145 -1.7602
  273SOL    HW2  819   2.511   0.427   2.898  1.2474  1.8987  1.5400
  274SOL     OW  820   0.175   2.870   0.863 -0.2060 -0.0593 -0.0996
  274SOL    HW1  821   0.231   2.934   0.922 -0.6673 -0.8930 -1.5464
  274SOL    HW2  822   0.239   2.813   0.807  0.2464 -0.0981  2.2560
  275SOL     OW  823   2.045   1.446   0.787  0.2355  0.4878 -0.5312
  275SOL    HW1  824   1.954   1.407   0.779  1.5114  2.4138  2.1497
  275SOL    HW2  825   2.089   1.456   0.695  1.2228  1.3742 -1.5088
  276SOL     OW  826   0.241   1.301   2.723  0.1143  0.1281 -0.2105
  276SOL    HW1  827   0.341   1.311   2.695 -2.4451 -0.8226  0.1827
  276SOL    HW2  828   0.173   1.295   2.648 -1.1169  2.3291  1.8398
  277SOL     OW  829   1.734   2.699   1.771  0.5795  0.2119  0.3043
  277SOL    HW1  830   1.640   2.710   1.730  0.2202  1.6744 -0.5161
  277SOL    HW2  831   1.747   2.729   1.864  2.3777  1.5235 -6.0881
  278SOL     OW  832   1.435   0.560   2.040  0.2720 -0.2551  0.1854
  278SOL    HW1  833   1.462   0.489   1.970  1.9426  0.2210 -1.7117
  278SOL    HW2  834   1.477   0.648   2.014 -1.1176  1.1353  0.0007
  279SOL     OW  835   2.024   1.490   0.235  0.6999 -0.4098 -0.1031
  279SOL    HW1  836   2.103   1.431   0.251 -2.1161 -0.9978  0.0548
  279SOL    HW2  837   1.966   1.489   0.317 -1.3535 -0.6687 -1.1482
  280SOL     OW  838   0.580   1.390   0.893 -0.5268 -0.4650  0.7464
  280SOL    HW1  839   0.526   1.330   0.834 -1.1887 -0.9073 -1.5534
  280SOL    HW2  840   0.574   1.383   0.995 -0.4141  3.3967  1.0174
  281SOL     OW  841   0.289   3.095   2.609 -0.3113 -0.4297  0.0337
  281SOL    HW1  842   0.306   0.072   2.660 -3.2202 -2.0331 -0.9132
  281SOL    HW2  843   0.204   3.101   2.551 -0.0484 -0.0911  0.3343
  282SOL     OW  844   0.355   0.784   1.262 -0.2014  0.0518  0.6670
  282SOL    HW1  845   0.347   0.756   1.162 -0.4566  0.9918 -0.3671
  282SOL    HW2  846   0.266   0.789   1.310  1.7572  0.4647 -0.6278
  283SOL     OW  847   1.810   2.212   0.279  0.3831 -0.0352  0.0560
  283SOL    HW1  848   1.857   2.172   0.196  0.2337  0.8209  2.5452
  283SOL    HW2  849   1.706   2.225   0.269 -0.7692  0.1042 -0.0652
  284SOL     OW  850   1.473   1.638   0.802 -0.7975 -0.8066  0.4215
  284SOL    HW1  851   1.442   1.725   0.841  1.3453  0.0861 -2.5614
  284SOL    HW2  852   1.539   1.656   0.726  0.8126 -0.4552 -1.1317
  285SOL     OW  853   2.928   3.021   2.845 -0.2016 -0.1888  0.1599
  285SOL    HW1  854   2.980   3.010   2.927 -0.5657  0.0050 -1.1734
  285SOL    HW2  855   2.977   2.963   2.774  1.4001 -0.9877  1.5337
  286SOL     OW  856   1.678   3.079   1.595  0.4600  0.1818 -0.5549
  286SOL    HW1  857   1.747   3.006   1.576  3.4642  0.1888  0.7134
  286SOL    HW2  858   1.613   3.080   1.515  2.0729 -1.2895 -0.2336
  287SOL     OW  859   0.749   1.059   1.149  0.2243 -0.2683 -0.2295
  287SOL    HW1  860   0.755   0.988   1.224 -0.3818 -2.2873 -1.5359
  287SOL    HW2  861   0.771   1.158   1.173  0.4466 -1.0707 -1.5870
  288SOL     OW  862   1.602   0.008   0.028 -0.3615  0.1017 -0.2923
  288SOL    HW1  863   1.663   3.094   3.057  0.8800  1.3830 -2.8097
  288SOL    HW2  864   1.604   0.108   0.052  1.7090  1.0100 -1.8180
  289SOL     OW  865   0.170   1.499   2.892  0.2983  0.4714 -0.4740
  289SOL    HW1  866   0.075   1.537   2.871  0.3665 -2.3432  1.6252
  289SOL    HW2  867   0.193   1.424   2.831 -0.1558 -1.8824  1.8470
  290SOL     OW  868   1.287   2.626   0.874  0.3955  0.4703 -0.1278
  290SOL    HW1  869   1.220   2.618   0.948  3.8522  0.0066  0.6553
  290SOL    HW2  870   1.338   2.541   0.853  1.0277  0.6313 -1.4567
  291SOL     OW  871   2.185   1.961   2.784 -0.1970  0.0079  0.3820
  291SOL    HW1  872   2.135   1.955   2.692 -0.5211  1.7081  0.3589
  291SOL    HW2  873   2.193   1.869   2.825 -2.5125 -3.5072  0.0167
  292SOL     OW  874   1.249   1.086   2.019  0.1579  0.2352  0.5844
  292SOL    HW1  875   1.277   1.053   2.111  1.4051 -2.5420  0.3091
  292SOL    HW2  876   1.151   1.113   2.025 -0.7599 -0.2472  0.2947
  293SOL     OW  877   2.141   2.774   0.843  0.9618 -0.1437  0.0579
  293SOL    HW1  878   2.125   2.876   0.847  0.1630  2.4298  1.6852
  293SOL    HW2  879   2.235   2.746   0.858 -1.1618  1.1481 -0.7478
  294SOL     OW  880   0.161   0.468   2.404  0.1535 -0.4236  0.0234
  294SOL    HW1  881   0.164   0.468   2.505  1.0088 -2.2034  0.7654
  294SOL    HW2  882   0.247   0.503   2.366  1.1835 -0.5089 -0.1578
  295SOL     OW  883   1.307   1.924   0.369 -0.3829  0.5112  0.3167
  295SOL    HW1  884   1.282   1.994   0.439 -0.4308 -0.5225 -1.0609
  295SOL    HW2  885   1.307   1.827   0.409 -1.2433 -2.5457  0.2475
  296SOL     OW  886   2.070   1.729   0.116  0.0051  0.2364 -0.2233
  296SOL    HW1  887   2.072   1.718   0.015  0.0875 -0.6271  1.6475
  296SOL    HW2  888   2.043   1.640   0.161 -2.7087 -0.0274 -0.1298
  297SOL     OW  889   2.227   0.540   3.093 -0.2605 -0.2388 -0.1525
  297SOL    HW1  890   2.275   0.484   0.060  1.7796 -0.5074  2.4247
  297SOL    HW2  891   2.127   0.560   0.003 -2.6667  0.6155 -1.7098
  298SOL     OW  892   0.943   2.170   2.634 -0.1360  0.3789 -0.6644
  298SOL    HW1  893   0.975   2.091   2.575  0.0352 -2.9206  0.5720
  298SOL    HW2  894   0.844   2.179   2.613  0.2198 -1.6015  3.3563
  299SOL     OW  895   1.156   2.947   2.700  0.3694 -0.5409 -0.0928
  299SOL    HW1  896   1.228   2.991   2.644  0.2026  0.1062  2.0905
  299SOL    HW2  897   1.063   2.991   2.697 -4.1935 -0.0967 -2.1367
  300SOL     OW  898   2.589   0.138   3.010  0.0591 -0.8563  0.2782
  300SOL    HW1  899   2.680   0.176   3.023 -4.0021  0.0297  1.6700
  300SOL    HW2  900   2.522   0.219   2.994 -0.1208 -1.4390 -2.0061
  301SOL     OW  901   1.395   1.505   1.433  0.2882  0.1754 -0.0609
  301SOL    HW1  902   1.441   1.461   1.515  1.6327 -2.0623  1.6988
  301SOL    HW2  903   1.450   1.479   1.350 -0.1991  1.0875 -0.0701
  302SOL     OW  904   2.828   2.454   0.277 -0.0788  0.6661 -0.0245
  302SOL    HW1  905   2.930   2.432   0.266  3.0834 -0.6104 -0.0937
  302SOL    HW2  906   2.785   2.434   0.190 -0.4192 -0.7503  1.7919
  303SOL     OW  907   2.922   2.555   2.426  0.0807  0.3326  0.2192
  303SOL    HW1  908   2.892   2.648   2.438  0.4156 -2.5676  2.3098
  303SOL    HW2  909   3.019   2.554   2.403  1.3108 -1.1192  1.8750
  304SOL     OW  910   3.095   0.726   1.940 -0.7403 -0.4161 -0.2997
  304SOL    HW1  911   3.099   0.642   1.877 -0.4633 -1.8539 -3.6472
  304SOL    HW2  912   3.032   0.710   2.018  1.7553  1.8346 -0.8768
  305SOL     OW  913   0.448   1.986   2.149 -0.1934 -0.1251 -0.1839
  305SOL    HW1  914   0.525   1.931   2.175  0.0742  1.9311 -0.1154
  305SOL    HW2  915   0.460   2.028   2.058  1.2431  0.9221 -0.2895
  306SOL     OW  916   2.784   1.003   1.819 -0.0090 -0.3717  0.3188
  306SOL    HW1  917   2.804   1.091   1.870  2.4147  0.9298  1.8378
  306SOL    HW2  918   2.730   0.948   1.888  0.8002  0.3403  1.5843
  307SOL     OW  919   1.937   1.147   1.698  0.3105  0.0191 -0.5461
  307SOL    HW1  920   1.951   1.234   1.657 -0.1591 -1.5703  0.9421
  307SOL    HW2  921   1.886   1.079   1.638 -1.2162 -2.0661  0.6213
  308SOL     OW  922   2.748   1.585   1.101 -0.2970  0.5797  0.3647
  308SOL    HW1  923   2.687   1.655   1.141 -1.4440 -0.2421 -0.8279
  308SOL    HW2  924   2.736   1.584   1.002  0.7575 -0.3067  1.8156
  309SOL     OW  925   2.292   1.646   1.680  0.5572  0.0796 -0.3797
  309SOL    HW1  926   2.360   1.710   1.637 -0.5800 -1.6160  1.3350
  309SOL    HW2  927   2.308   1.561   1.626 -1.3786  0.2698  0.0781
  310SOL     OW  928   2.846   1.522   2.646 -0.1438  0.4877  0.4299
  310SOL    HW1  929   2.869   1.548   2.549  0.5378 -0.4702 -3.4239
  310SOL    HW2  930   2.746   1.485   2.644 -2.5932 -0.1048  0.4843
  311SOL     OW  931   2.557   1.865   2.769  0.1911  0.4796 -0.7442
  311SOL    HW1  932   2.467   1.821   2.778 -0.9255  0.6614 -0.6259
  311SOL    HW2  933   2.618   1.830   2.844 -1.5320  0.4362  1.4782
  312SOL     OW  934   2.550   1.799   1.172 -0.0889  0.1466  0.2268
  312SOL    HW1  935   2.525   1.717   1.225 -0.0277 -3.1793  1.1956
  312SOL    HW2  936   2.476   1.867   1.178 -0.4260  0.1328  1.6389
  313SOL     OW  937   2.375   2.706   0.930  0.2867 -0.0947 -0.4177
  313SOL    HW1  938   2.376   2.798   0.980 -0.3415  1.1934  1.6553
  313SOL    HW2  939   2.372   2.632   1.003  1.4600  0.8399 -1.7330
  314SOL     OW  940   0.964   1.978   0.310  0.2174 -0.2242  0.4325
  314SOL    HW1  941   1.049   1.967   0.253  0.9433 -1.3708 -0.3592
  314SOL    HW2  942   0.985   2.015   0.404 -3.7474  3.5289  0.3322
  315SOL     OW  943   0.800   2.612   2.513 -0.4778 -0.8753  0.3830
  315SOL    HW1  944   0.849   2.641   2.599  0.9350 -1.5205  2.2174
  315SOL    HW2  945   0.868   2.607   2.433  1.0017 -0.6190  1.2580
  316SOL     OW  946   0.202   0.599   0.676 -0.0569 -0.3918  0.3897
  316SOL    HW1  947   0.157   0.685   0.644  0.0639  2.4161 -0.0540
  316SOL    HW2  948   0.149   0.515   0.646 -0.5935 -1.1297  0.8104
  317SOL     OW  949   0.996   0.389   0.496 -0.2771  0.3348  0.2473
  317SOL    HW1  950   0.906   0.378   0.455 -0.5269  0.0547  3.3627
  317SOL    HW2  951   0.986   0.387   0.595  1.8056 -0.4008  0.5934
  318SOL     OW  952   3.069   2.380   0.320 -0.2745  0.2478 -0.4698
  318SOL    HW1  953   0.009   2.463   0.361  0.1418  0.5703  1.0708
  318SOL    HW2  954   3.028   2.321   0.394  0.1947 -1.5411  1.3538
  319SOL     OW  955   0.326   1.407   2.443  0.5712  0.2979 -0.0392
  319SOL    HW1  956   0.367   1.346   2.514 -1.8278 -0.0277 -1.0622
  319SOL    HW2  957   0.401   1.430   2.380 -1.0547 -0.5086 -0.1811
  320SOL     OW  958   0.840   2.801   1.887 -0.0141  0.3974 -0.0905
  320SOL    HW1  959   0.886   2.854   1.811  1.8109 -0.7934  1.5767
  320SOL    HW2  960   0.772   2.737   1.843  1.9880 -0.4235  1.2076
  321SOL     OW  961   0.935   2.610   0.027 -0.1645 -0.7068  0.0104
  321SOL    HW1  962   1.032   2.614   0.061  0.0060  0.7380  0.6639
  321SOL    HW2  963   0.876   2.668   0.091 -1.3360 -1.4653 -0.1910
  322SOL     OW  964   2.796   1.233   1.942 -0.9329  0.0785 -0.1530
  322SOL    HW1  965   2.706   1.277   1.964  0.8313 -0.2451  0.6674
  322SOL    HW2  966   2.867   1.302   1.960 -2.2739 -0.0650  2.4657
  323SOL     OW  967   2.371   0.804   0.290 -0.1219  0.0955 -0.1808
  323SOL    HW1  968   2.272   0.823   0.267 -1.4933  1.0800  1.0554
  323SOL    HW2  969   2.417   0.750   0.216  1.3081  2.0547 -0.3335
  324SOL     OW  970   0.204   2.589   0.048  0.3209 -0.7828  0.3473
  324SOL    HW1  971   0.143   2.535   3.090  0.8413 -0.3504 -0.4700
  324SOL    HW2  972   0.302   2.594   0.018  1.4091 -0.6359 -2.0459
  325SOL     OW  973   1.903   0.201   2.505 -0.1697  0.5863  0.0371
  325SOL    HW1  974   1.945   0.163   2.589  0.7595  0.6152 -0.6570
  325SOL    HW2  975   1.936   0.145   2.424  1.0116 -4.0853 -1.5339
  326SOL     OW  976   2.216   2.736   1.406  0.1062  0.2891  0.0251
  326SOL    HW1  977   2.214   2.759   1.504  0.6740 -0.5884  0.0339
  326SOL    HW2  978   2.261   2.805   1.348  0.8060  0.0059  1.5306
  327SOL     OW  979   1.720   0.481   2.870  0.1549  0.7787 -0.6400
  327SOL    HW1  980   1.689   0.569   2.911  0.7179 -2.0085 -2.0225
  327SOL    HW2  981   1.781   0.509   2.794 -0.2763  2.2008 -2.2125
  328SOL     OW  982   2.810   1.180   2.461  0.0010 -0.3992 -0.2826
  328SOL    HW1  983   2.878   1.252   2.441 -1.3737  0.6669 -0.8620
  328SOL    HW2  984   2.717   1.212   2.491 -3.9698  0.4318 -2.2694
  329SOL     OW  985   1.794   0.257   1.896  0.0082 -0.5296  0.4482
  329SOL    HW1  986   1.789   0.257   1.793  1.4791  3.4113  0.5799
  329SOL    HW2  987   1.709   0.301   1.939 -1.4906 -0.2179 -0.4232
  330SOL     OW  988   2.491   1.811   1.624 -0.0922  0.0170  0.2416
  330SOL    HW1  989   2.492   1.902   1.583  0.5283 -0.6983  0.5852
  330SOL    HW2  990   2.575   1.761   1.603  1.8622 -2.8808 -2.6952
  331SOL     OW  991   0.563   1.403   1.606 -0.3887 -0.6867 -0.4044
  331SOL    HW1  992   0.503   1.342   1.544  0.4155 -0.5347 -2.4158
  331SOL    HW2  993   0.496   1.448   1.672  1.3757  0.6944 -1.5360
  332SOL     OW  994   0.679   0.265   1.260  0.8143 -0.2323  0.1031
  332SOL    HW1  995   0.634   0.334   1.196 -0.5285  0.7111 -2.1747
  332SOL    HW2  996   0.778   0.288   1.274 -2.3761 -1.4838  1.5965
  333SOL     OW  997   2.270   2.812   1.665 -0.2666 -0.0971  0.1300
  333SOL    HW1  998   2.368   2.797   1.705  1.3935 -0.6207 -1.7919
  333SOL    HW2  999   2.201   2.786   1.734 -0.9506  0.7480  0.9977
  334SOL     OW 1000   0.970   1.492   1.324 -0.0465  0.0375  0.7367
  334SOL    HW1 1001   0.907   1.411   1.301 -3.6479 -2.9209 -0.9204
  334SOL    HW2 1002   0.968   1.563   1.251  0.9569  0.8087 -1.4816
  335SOL     OW 1003   0.466   2.617   3.040 -0.4208 -0.5603 -0.2718
  335SOL    HW1 1004   0.486   2.704   3.091 -0.5332 -1.5399  0.4346
  335SOL    HW2 1005   0.460   2.622   2.939 -2.5459  0.0092 -2.4780
  336SOL     OW 1006   3.039   2.964   1.619 -0.0272  0.0871 -0.0257
  336SOL    HW1 1007   3.076   3.046   1.663 -3.0226 -1.5483 -3.7067
  336SOL    HW2 1008   2.947   2.985   1.573 -1.6077  1.7814  0.4323
  337SOL     OW 1009   2.448   1.977   0.443  0.1415  0.2372 -0.0630
  337SOL    HW1 1010   2.399   2.029   0.514 -3.8599 -2.5941 -0.2094
  337SOL    HW2 1011   2.431   2.004   0.342 -0.3438  0.8159 -4.3713
  338SOL     OW 1012   0.941   2.066   1.435  0.7307 -0.2224 -0.5336
  338SOL    HW1 1013   1.027   2.037   1.478  1.7048  0.2326 -1.3822
  338SOL    HW2 1014   0.955   2.164   1.399  1.0667  3.6794 -3.8390
  339SOL     OW 1015   3.030   0.584   2.372  0.2636 -0.0704  0.2217
  339SOL    HW1 1016   2.963   0.511   2.355  3.7578  1.2912  1.6547
  339SOL    HW2 1017   0.010   0.542   2.398 -2.9223 -2.0401  1.5512
  340SOL     OW 1018   1.634   2.919   1.018  0.0273 -0.3470 -0.1360
  340SOL    HW1 1019   1.575   2.922   1.100  0.2479  0.4075 -1.9129
  340SOL    HW2 1020   1.667   2.826   1.001 -1.2261  2.6125  2.4889
  341SOL     OW 1021   1.617   1.647   1.170  0.4670  0.1165  0.2769
  341SOL    HW1 1022   1.517   1.644   1.164  3.7031  0.2033  0.8304
  341SOL    HW2 1023   1.649   1.737   1.130  2.2134  1.1339 -1.2272
  342SOL     OW 1024   0.217   1.132   0.956  0.0525 -0.1219  0.1897
  342SOL    HW1 1025   0.149   1.148   0.887 -1.1714 -1.7814  1.3589
  342SOL    HW2 1026   0.309   1.108   0.918 -0.7995  1.9676  1.7642
  343SOL     OW 1027   1.806   0.377   1.376 -0.3306  0.2341 -1.0077
  343SOL    HW1 1028   1.710   0.410   1.374 -2.7212 -0.0021  0.3197
  343SOL    HW2 1029   1.874   0.446   1.338 -1.4646  0.1603 -0.7922
  344SOL     OW 1030   2.070   2.454   1.069 -0.1973  0.4440  0.6019
  344SOL    HW1 1031   2.174   2.455   1.074  0.3375 -0.1576 -1.0954
  344SOL    HW2 1032   2.033   2.534   1.121  0.5596  0.3113 -1.9414
  345SOL     OW 1033   2.706   2.347   2.814 -0.0391  0.0342 -0.0259
  345SOL    HW1 1034   2.669   2.435   2.851  2.2846 -0.9786 -2.0859
  345SOL    HW2 1035   2.639   2.278   2.806 -0.8194  2.1038 -3.1181
  346SOL     OW 1036   0.004   1.328   0.738 -0.4184  0.2214  0.2062
  346SOL    HW1 1037   3.106   1.379   0.825  0.9775 -1.6227 -0.6575
  346SOL    HW2 1038   0.047   1.378   0.661 -0.5892 -0.2658  1.7113
  347SOL     OW 1039   1.932   2.643   0.730  0.2724 -0.3692  0.4039
  347SOL    HW1 1040   1.861   2.633   0.795  1.8147 -0.3547  0.6875
  347SOL    HW2 1041   2.006   2.697   0.776 -0.2332  1.5094  0.9939
  348SOL     OW 1042   1.331   1.248   2.523 -0.6662  0.0687 -0.0439
  348SOL    HW1 1043   1.322   1.148   2.499 -1.3437 -0.4171  2.5593
  348SOL    HW2 1044   1.420   1.284   2.480  0.7161  0.1236  0.3740
  349SOL     OW 1045   2.336   1.106   2.192  0.4782 -0.0741  0.1331
  349SOL    HW1 1046   2.318   1.062   2.103  3.9212 -1.2814  1.6577
  349SOL    HW2 1047   2.346   1.037   2.264 -3.0981  1.2848 -1.0210
  350SOL     OW 1048   0.052   2.127   1.479  0.1260  0.0039 -0.0915
  350SOL    HW1 1049   3.074   2.075   1.499  1.8039  1.9599  0.7388
  350SOL    HW2 1050   0.114   2.070   1.424 -0.4333  2.0389  2.3945
  351SOL     OW 1051   0.559   0.337   2.599 -0.1813 -0.2943  0.4171
  351SOL    HW1 1052   0.620   0.298   2.669  0.3407 -0.8289 -0.8566
  351SOL    HW2 1053   0.594   0.427   2.567  1.7081  2.6956 -2.6520
  352SOL     OW 1054   0.838   2.835   1.337 -0.1348  0.3707 -0.2900
  352SOL    HW1 1055   0.938   2.845   1.363  0.9866 -0.0108  0.3171
  352SOL    HW2 1056   0.794   2.917   1.375  3.0446 -2.6876  0.4047
  353SOL     OW 1057   0.989   1.132   2.097 -0.1546  0.3561  0.5175
  353SOL    HW1 1058   0.992   1.193   2.175  3.4848 -3.1971 -1.6181
  353SOL    HW2 1059   0.960   1.038   2.125  1.0015 -2.4207 -1.6006
  354SOL     OW 1060   1.796   1.363   0.761  0.2041 -0.1135 -0.4697
  354SOL    HW1 1061   1.696   1.369   0.791 -1.7306  0.7559 -2.3176
  354SOL    HW2 1062   1.826   1.279   0.709 -1.3027 -1.7180 -2.1157
  355SOL     OW 1063   2.321   0.470   0.437  0.7590  0.4662  0.1372
  355SOL    HW1 1064   2.364   0.562   0.435  0.5058 -1.8432  2.8646
  355SOL    HW2 1065   2.391   0.398   0.469  2.8462 -2.6475  2.5265
  356SOL     OW 1066   2.807   0.914   2.576  0.0173  0.6566 -0.0372
  356SOL    HW1 1067   2.798   0.985   2.500  0.0178  0.2461 -0.1061
  356SOL    HW2 1068   2.893   0.853   2.571  1.7992 -1.3681 -0.8093
  357SOL     OW 1069   0.611   2.904   1.714 -0.2972 -0.1479 -0.2607
  357SOL    HW1 1070   0.668   2.986   1.728 -0.4564 -1.8807  1.1241
  357SOL    HW2 1071   0.526   2.909   1.766 -0.5564  0.8287 -0.1983
  358SOL     OW 1072   2.953   1.286   2.729 -0.1866  0.0660  0.4712
  358SOL    HW1 1073   2.898   1.366   2.693  0.3668  1.7442  0.7720
  358SOL    HW2 1074   3.019   1.246   2.658  1.5921 -0.9990 -1.1040
  359SOL     OW 1075   2.583   2.591   2.886 -0.2609 -0.2508 -0.2633
  359SOL    HW1 1076   2.497   2.633   2.925  0.7923  1.3376  0.4129
  359SOL    HW2 1077   2.638   2.650   2.826 -0.2659 -1.7843  3.4781
  360SOL     OW 1078   1.650   1.193   1.073  0.3372 -0.6224 -0.1256
  360SOL    HW1 1079   1.613   1.265   1.010 -0.7748  0.7857 -2.7496
  360SOL    HW2 1080   1.713   1.138   1.014 -0.0081  1.8109  1.5225
  361SOL     OW 1081   1.964   2.732   1.079  0.1017 -0.3154 -0.5341
  361SOL    HW1 1082   1.937   2.818   1.134 -0.4750  1.5120 -0.1769
  361SOL    HW2 1083   2.016   2.750   0.997 -3.9001  0.6054 -2.5575
  362SOL     OW 1084   1.363   1.610   1.095  0.1249 -0.1683 -0.6023
  362SOL    HW1 1085   1.348   1.508   1.096  3.1878 -0.5420  0.4736
  362SOL    HW2 1086   1.277   1.667   1.101 -0.2431 -0.8177 -0.8430
  363SOL     OW 1087   2.824   2.010   2.684 -0.2490  0.1970  0.7414
  363SOL    HW1 1088   2.723   2.014   2.671  2.2587  0.1002 -0.7113
  363SOL    HW2 1089   2.873   2.103   2.691 -0.9741  0.3727 -1.5384
  364SOL     OW 1090   1.844   0.714   1.553 -0.2838 -0.6772  0.4532
  364SOL    HW1 1091   1.793   0.640   1.602 -1.3915 -1.1216 -1.0622
  364SOL    HW2 1092   1.891   0.684   1.471 -0.5637 -0.4343  2.6549
  365SOL     OW 1093   2.910   2.657   0.998  0.7890 -0.1131 -0.0565
  365SOL    HW1 1094   2.859   2.714   0.928 -3.5422  1.7360 -3.8420
  365SOL    HW2 1095   2.852   2.585   1.042  0.8141 -0.4597  1.6303
  366SOL     OW 1096   2.854   1.395   0.169  0.4891 -0.0603  0.3394
  366SOL    HW1 1097   2.870   1.408   0.065  0.9480  1.3082 -2.4831
  366SOL    HW2 1098   2.794   1.317   0.189  1.1704 -0.5150 -1.7169
  367SOL     OW 1099   2.505   2.148   2.830 -0.4988  0.1265 -0.1110
  367SOL    HW1 1100   2.458   2.196   2.751 -1.2988  0.9812  1.0233
  367SOL    HW2 1101   2.508   2.048   2.812 -1.5178 -0.7330  0.7325
  368SOL     OW 1102   2.676   1.981   1.345 -0.0108 -0.5449  0.0364
  368SOL    HW1 1103   2.612   2.011   1.418  0.2852  0.5921  0.4942
  368SOL    HW2 1104   2.629   1.914   1.282 -0.7990  1.3968 -1.0312
  369SOL     OW 1105   0.726   0.390   0.420  0.2994 -0.2724  0.4383
  369SOL    HW1 1106   0.688   0.304   0.386  2.9616  0.4359  0.1945
  369SOL    HW2 1107   0.650   0.440   0.470 -2.2570  1.0068 -0.1890
  370SOL     OW 1108   0.933   0.651   1.166  0.2292 -0.2858  0.1958
  370SOL    HW1 1109   0.854   0.705   1.200  1.1785 -1.2901 -2.9160
  370SOL    HW2 1110   0.926   0.629   1.063  0.1731 -0.3452  1.5929
  371SOL     OW 1111   2.493   1.655   0.201  0.1998  0.4908  0.5765
  371SOL    HW1 1112   2.580   1.705   0.214 -3.1084  0.8418 -0.6182
  371SOL    HW2 1113   2.420   1.723   0.164 -3.0158  0.7202 -1.6697
  372SOL     OW 1114   0.139   0.983   2.512 -0.0475 -0.0466  0.4725
  372SOL    HW1 1115   0.201   0.957   2.588  2.6125  1.7852 -2.2430
  372SOL    HW2 1116   0.179   0.964   2.423 -1.8092 -1.0164  0.6984
  373SOL     OW 1117   2.832   0.967   0.431  0.2685  0.0097 -0.1511
  373SOL    HW1 1118   2.741   0.987   0.471 -0.2411 -1.5926  0.6105
  373SOL    HW2 1119   2.861   0.865   0.436 -1.3454 -0.9314  0.9599
  374SOL     OW 1120   0.499   2.111   0.116  0.5900  0.1298 -0.1597
  374SOL    HW1 1121   0.550   2.073   0.199  0.7816 -2.1579  1.4694
  374SOL    HW2 1122   0.537   2.202   0.099  2.4916 -0.3832 -1.8008
  375SOL     OW 1123   1.050   0.526   3.049 -0.3088 -0.3944  0.3037
  375SOL    HW1 1124   1.098   0.592   2.987  0.0780 -0.3094  3.2931
  375SOL    HW2 1125   1.029   0.570   0.034  2.5708  0.1696  1.3466
  376SOL     OW 1126   0.055   2.765   1.768 -0.4438  0.7067 -0.0249
  376SOL    HW1 1127   0.018   2.830   1.703  3.4522  2.1275  0.2006
  376SOL    HW2 1128   0.148   2.738   1.731  0.9716 -2.0183 -0.2671
  377SOL     OW 1129   0.282   1.803   2.386 -0.0673 -0.1220 -0.0696
  377SOL    HW1 1130   0.196   1.850   2.371  2.9918 -0.2785 -0.0450
  377SOL    HW2 1131   0.297   1.728   2.320  1.3362 -0.1167  1.0653
  378SOL     OW 1132   1.649   0.905   0.537 -0.0912 -0.4845 -0.2273
  378SOL    HW1 1133   1.566   0.877   0.481  2.9409 -0.2852  2.7589
  378SOL    HW2 1134   1.638   0.885   0.634 -1.0496  0.7824 -1.5317
  379SOL     OW 1135   1.084   1.728   0.079  0.6022  0.2308 -0.3567
  379SOL    HW1 1136   1.036   1.707   0.169  0.5049  0.3340  3.0921
  379SOL    HW2 1137   1.176   1.684   0.070 -0.9400 -0.1879  1.7765
  380SOL     OW 1138   2.431   2.218   2.188 -0.2033  0.0418 -0.5292
  380SOL    HW1 1139   2.505   2.180   2.251  3.0192 -0.0195  0.3218
  380SOL    HW2 1140   2.469   2.278   2.111 -0.0321  2.2137  1.4929
  381SOL     OW 1141   0.249   0.805   1.962 -0.3321  0.2216  0.5819
  381SOL    HW1 1142   0.256   0.891   1.911  1.3267 -0.4441  1.7374
  381SOL    HW2 1143   0.153   0.774   1.956 -1.4090  1.0666  0.6211
  382SOL     OW 1144   2.694   2.442   0.034 -0.7192 -0.8114  0.2321
  382SOL    HW1 1145   2.597   2.471   0.017  0.6613 -1.1503  0.8029
  382SOL    HW2 1146   2.710   2.346   3.106  0.1351  0.6049  1.2856
  383SOL     OW 1147   2.049   1.448   2.158  0.1292 -0.2694 -0.2075
  383SOL    HW1 1148   2.041   1.370   2.093 -3.3295 -0.5567  0.9047
  383SOL    HW2 1149   1.955   1.476   2.193 -0.7828  2.3326  2.9719
  384SOL     OW 1150   0.650   2.325   2.309  0.2210 -0.0602  0.1230
  384SOL    HW1 1151   0.723   2.264   2.273 -0.1944 -3.2605 -1.0191
  384SOL    HW2 1152   0.560   2.277   2.308  1.9280 -0.3967 -0.9573
  385SOL     OW 1153   2.751   2.426   0.793  0.2898  0.5827 -0.1395
  385SOL    HW1 1154   2.830   2.424   0.734  0.5393 -1.2033 -0.1618
  385SOL    HW2 1155   2.699   2.513   0.793  1.0742 -0.4658 -1.0952
  386SOL     OW 1156   1.466   0.603   2.937  0.1381  0.1350 -0.0731
  386SOL    HW1 1157   1.474   0.500   2.952  0.4812 -1.5633 -2.7151
  386SOL    HW2 1158   1.456   0.650   3.030  0.5437  1.1038  0.7183
  387SOL     OW 1159   0.475   1.013   1.555  0.5791  0.2257  0.0295
  387SOL    HW1 1160   0.377   1.032   1.547 -0.3535 -2.4110 -0.3248
  387SOL    HW2 1161   0.506   1.007   1.458 -0.3857 -0.1293 -1.9292
  388SOL     OW 1162   3.014   0.863   1.463  0.2648 -0.1233  0.0934
  388SOL    HW1 1163   2.964   0.799   1.398 -1.8277 -1.1646 -1.3050
  388SOL    HW2 1164   2.948   0.921   1.518  0.3196  0.2009 -0.1824
  389SOL     OW 1165   1.844   1.168   2.620  0.3297 -0.4744 -0.0590
  389SOL    HW1 1166   1.761   1.152   2.677  2.0446 -2.4201  0.4717
  389SOL    HW2 1167   1.904   1.088   2.631  0.8143  1.0892 -0.1321
  390SOL     OW 1168   1.875   2.283   0.530 -0.2785  0.0588  0.3700
  390SOL    HW1 1169   1.957   2.346   0.533  0.2924  1.2874 -2.6473
  390SOL    HW2 1170   1.863   2.247   0.434  1.6689 -1.4718 -0.4761
  391SOL     OW 1171   1.097   2.605   1.098 -0.5512 -0.0020 -0.4053
  391SOL    HW1 1172   1.084   2.509   1.133  1.9765  0.8973  0.1718
  391SOL    HW2 1173   1.008   2.640   1.059 -0.2629  0.8819 -2.0012
  392SOL     OW 1174   2.562   2.926   1.387  0.3246  0.4512  0.0526
  392SOL    HW1 1175   2.562   2.823   1.405  0.6090 -0.9075  0.9026
  392SOL    HW2 1176   2.471   2.955   1.361 -0.5100 -0.8043 -2.3798
  393SOL     OW 1177   1.871   2.386   2.635  0.3887  0.0103  0.1494
  393SOL    HW1 1178   1.919   2.435   2.709 -0.8453 -0.6393 -1.8555
  393SOL    HW2 1179   1.887   2.284   2.639 -0.0438 -1.4376  1.0735
  394SOL     OW 1180   0.520   2.616   2.786  0.5598 -0.1315 -0.0497
  394SOL    HW1 1181   0.607   2.665   2.769  0.3390  1.4168  1.3018
  394SOL    HW2 1182   0.534   2.515   2.800 -0.9838  0.2388 -1.3496
  395SOL     OW 1183   0.497   1.022   1.301 -0.4876 -0.4588  0.0815
  395SOL    HW1 1184   0.441   0.942   1.305  4.7697 -0.3211 -2.4241
  395SOL    HW2 1185   0.563   1.020   1.222 -1.5384 -2.4314 -0.0339
  396SOL     OW 1186   1.930   1.429   2.628 -0.3541  0.2418 -0.2898
  396SOL    HW1 1187   2.029   1.452   2.646  1.8755 -0.2621  0.9901
  396SOL    HW2 1188   1.905   1.332   2.628 -1.5613 -0.0629  1.1285
  397SOL     OW 1189   2.554   0.222   2.545  0.1784 -0.3015 -0.0688
  397SOL    HW1 1190   2.473   0.162   2.568  1.9479 -2.4343  0.1731
  397SOL    HW2 1191   2.642   0.182   2.565  0.0888  1.1903 -0.8644
  398SOL     OW 1192   1.604   0.579   0.489  0.0000  0.3642  0.6464
  398SOL    HW1 1193   1.641   0.488   0.513  1.2496 -2.1596 -2.8805
  398SOL    HW2 1194   1.503   0.591   0.496  3.2767  1.2890  0.7961
  399SOL     OW 1195   2.228   0.025   1.640 -0.1735 -0.0024 -0.0045
  399SOL    HW1 1196   2.159   0.100   1.616 -0.0216  1.8867 -0.1438
  399SOL    HW2 1197   2.224   3.060   1.573 -0.7479  1.5229  4.5015
  400SOL     OW 1198   3.055   2.365   1.952 -0.2018 -0.6093 -0.2894
  400SOL    HW1 1199   3.103   2.276   1.935  1.5406 -2.2287  0.9257
  400SOL    HW2 1200   3.055   2.418   1.864 -0.8468 -0.8632 -0.0019
  401SOL     OW 1201   0.623   0.196   0.132  0.0612  0.1973 -0.5692
  401SOL    HW1 1202   0.528   0.162   0.137 -5.0107 -0.3542  3.2871
  401SOL    HW2 1203   0.635   0.257   0.056  1.0188  0.3890 -0.7759
  402SOL     OW 1204   0.651   2.645   1.730  0.2831  0.1877 -0.8485
  402SOL    HW1 1205   0.659   2.600   1.643 -0.6561 -2.2454 -0.4145
  402SOL    HW2 1206   0.636   2.741   1.712  0.0647 -1.2260  1.2723
  403SOL     OW 1207   0.203   1.067   1.806 -0.0686 -0.1887 -0.2295
  403SOL    HW1 1208   0.107   1.077   1.842 -2.4520  0.2158  2.2178
  403SOL    HW2 1209   0.198   1.084   1.705 -0.3591  0.1224 -0.7222
  404SOL     OW 1210   2.776   2.403   1.974 -0.0159  0.1216  0.0991
  404SOL    HW1 1211   2.873   2.390   2.002 -0.9122  1.8634  2.5780
  404SOL    HW2 1212   2.770   2.419   1.871 -0.5486  0.5341 -3.7625
  405SOL     OW 1213   2.570   0.262   2.278 -0.3796 -0.2274  0.4786
  405SOL    HW1 1214   2.495   0.203   2.246  2.3413  2.7126  1.7302
  405SOL    HW2 1215   2.577   0.244   2.378  2.3829 -0.9567 -0.3470
  406SOL     OW 1216   1.566   2.730   0.247  0.3063  0.4683  0.0850
  406SOL    HW1 1217   1.558   2.821   0.286 -3.3089 -0.0981  3.5652
  406SOL    HW2 1218   1.512   2.662   0.300  2.2430  1.0568  2.2857
  407SOL     OW 1219   1.580   1.650   0.526  0.3651  0.2193 -0.6736
  407SOL    HW1 1220   1.657   1.587   0.510  0.2066  2.9862 -2.1160
  407SOL    HW2 1221   1.578   1.725   0.461  0.0495 -2.5668  2.5032
  408SOL     OW 1222   0.357   0.574   2.003 -0.4968  0.8281  0.8849
  408SOL    HW1 1223   0.382   0.547   2.098  1.9506 -0.0135 -0.5929
  408SOL    HW2 1224   0.319   0.669   1.995 -0.1894  1.0681 -0.4237
  409SOL     OW 1225   2.864   1.379   2.989  0.1618 -0.4504 -0.2862
  409SOL    HW1 1226   2.835   1.474   2.962 -1.6949  1.0174 -0.5792
  409SOL    HW2 1227   2.904   1.343   2.904 -1.1065  0.8246  1.2460
  410SOL     OW 1228   2.423   1.563   1.296 -0.2014 -0.1933 -0.2897
  410SOL    HW1 1229   2.371   1.503   1.362  0.7262 -0.1579  1.4991
  410SOL    HW2 1230   2.355   1.591   1.224  2.2087 -0.7104 -1.2097
  411SOL     OW 1231   0.048   0.403   0.579  0.2290 -0.4220 -0.3139
  411SOL    HW1 1232   0.094   0.379   0.491 -2.5484 -0.7597 -1.4662
  411SOL    HW2 1233   3.051   0.394   0.571 -1.6058 -2.7279  1.4359
  412SOL     OW 1234   1.593   0.253   0.117 -0.1746 -0.1587  0.3050
  412SOL    HW1 1235   1.562   0.217   0.209  3.9618 -2.2608  0.1101
  412SOL    HW2 1236   1.666   0.326   0.136  3.2123 -0.1245  1.4726
  413SOL     OW 1237   1.380   0.499   1.612  0.3852  0.2891  0.5537
  413SOL    HW1 1238   1.469   0.541   1.615 -2.2820 -0.3515 -0.4310
  413SOL    HW2 1239   1.363   0.467   1.515 -0.4678  0.4809  1.3906
  414SOL     OW 1240   0.288   1.163   0.265  0.0895  0.5749 -0.2556
  414SOL    HW1 1241   0.305   1.072   0.227  1.4490 -0.3504  1.6677
  414SOL    HW2 1242   0.236   1.224   0.203  3.1391  0.5895 -1.6069
  415SOL     OW 1243   0.097   1.495   0.521 -0.3445  0.0452 -0.0785
  415SOL    HW1 1244   0.109   1.584   0.474  0.1182 -1.4179 -1.9340
  415SOL    HW2 1245   0.051   1.426   0.465  1.2973  0.7939  3.3036
  416SOL     OW 1246   2.066   1.086   0.274 -0.1185  0.5438 -0.2490
  416SOL    HW1 1247   2.093   1.156   0.340 -0.3560  0.0891  0.7394
  416SOL    HW2 1248   1.979   1.034   0.305  1.5333 -1.2489 -0.2827
  417SOL     OW 1249   2.928   3.062   0.205 -0.2387 -0.5711  0.0800
  417SOL    HW1 1250   2.958   3.035   0.111 -1.2061 -1.3106 -1.2608
  417SOL    HW2 1251   2.844   3.009   0.226  0.8725 -1.3126 -0.2068
  418SOL     OW 1252   2.660   0.832   0.238 -0.4202 -0.3579  0.5040
  418SOL    HW1 1253   2.618   0.740   0.214  0.2862 -1.3549 -1.2902
  418SOL    HW2 1254   2.731   0.820   0.316  0.3579  0.7908 -0.2728
  419SOL     OW 1255   0.665   0.529   0.169  0.2505 -0.3707 -0.1091
  419SOL    HW1 1256   0.587   0.493   0.122  0.2050  0.8218  1.9295
  419SOL    HW2 1257   0.692   0.472   0.249 -0.9326  0.4615  1.0737
  420SOL     OW 1258   0.442   1.064   0.819  0.0317  0.1882 -0.1370
  420SOL    HW1 1259   0.394   0.986   0.776  0.7636  2.3463  1.1368
  420SOL    HW2 1260   0.460   1.136   0.751 -1.0850 -0.6429  2.9947
  421SOL     OW 1261   0.327   1.953   0.347  0.0795 -0.2581 -0.0392
  421SOL    HW1 1262   0.346   1.867   0.293  1.1486 -2.0390  0.0439
  421SOL    HW2 1263   0.239   1.996   0.320  0.1214  0.0428 -3.1153
  422SOL     OW 1264   2.767   0.298   1.405  0.8341 -0.0200 -0.2021
  422SOL    HW1 1265   2.684   0.346   1.369  0.3415  1.7887  0.8844
  422SOL    HW2 1266   2.744   0.243   1.487 -0.7144  0.7844  1.3094
  423SOL     OW 1267   1.891   1.859   0.510 -0.2582  0.2583  0.0649
  423SOL    HW1 1268   1.865   1.788   0.577  0.3463 -1.4939  1.6073
  423SOL    HW2 1269   1.808   1.878   0.454 -1.2497  1.4773  1.0492
  424SOL     OW 1270   1.634   1.522   0.073 -0.1064  0.2531 -0.7820
  424SOL    HW1 1271   1.636   1.625   0.096 -0.3325  1.5265 -3.6797
  424SOL    HW2 1272   1.726   1.475   0.071  1.1774  0.3745 -0.4397
  425SOL     OW 1273   0.353   2.811   2.156  0.0109 -0.7679  0.4131
  425SOL    HW1 1274   0.375   2.849   2.248  1.4210 -1.7659 -3.2398
  425SOL    HW2 1275   0.344   2.709   2.164 -1.9152 -0.1945 -0.1007
  426SOL     OW 1276   2.376   2.944   2.914 -0.2689 -0.0618 -0.2126
  426SOL    HW1 1277   2.478   2.957   2.905  0.6630  2.0736 -1.1387
  426SOL    HW2 1278   2.323   2.984   2.837 -0.8593 -2.5174 -0.5967
  427SOL     OW 1279   0.539   1.402   1.977 -0.4317  0.1077  0.4228
  427SOL    HW1 1280   0.616   1.342   1.969 -3.6730 -0.2240 -0.0654
  427SOL    HW2 1281   0.552   1.498   1.951  0.4645 -0.8608 -0.4615
  428SOL     OW 1282   2.244   1.308   2.339 -0.2988 -0.0602  0.5881
  428SOL    HW1 1283   2.302   1.239   2.291 -0.8896 -2.2800 -2.7108
  428SOL    HW2 1284   2.191   1.371   2.281 -0.6913  0.6070  0.4068
  429SOL     OW 1285   2.545   0.285   0.479  0.4976  0.2752 -0.1597
  429SOL    HW1 1286   2.618   0.297   0.411 -2.7536  0.3118  0.1672
  429SOL    HW2 1287   2.568   0.212   0.546  2.5985  1.8447  0.5692
  430SOL     OW 1288   1.653   1.779   2.441 -0.0309 -0.0573  0.2789
  430SOL    HW1 1289   1.605   1.744   2.356 -2.3784  0.6908 -0.6836
  430SOL    HW2 1290   1.740   1.726   2.455 -0.7253 -0.7724 -0.0223
  431SOL     OW 1291   2.870   1.676   1.843 -0.0771  0.4166  0.3263
  431SOL    HW1 1292   2.829   1.629   1.916  1.7787 -0.3444 -3.3947
  431SOL    HW2 1293   2.809   1.671   1.761  0.6735  0.2614  4.1685
  432SOL     OW 1294   1.047   2.780   2.080  0.1223  0.0897 -0.1622
  432SOL    HW1 1295   1.136   2.776   2.027  2.0026  0.6970  1.7867
  432SOL    HW2 1296   0.965   2.796   2.021 -2.1182  1.1163  1.7065
  433SOL     OW 1297   1.345   2.898   0.952  0.0972 -0.0267  0.4121
  433SOL    HW1 1298   1.396   2.982   0.917  4.7719 -0.3407  0.7289
  433SOL    HW2 1299   1.345   2.825   0.884  0.2480  0.0537  2.1462
  434SOL     OW 1300   0.395   2.315   2.078  0.5685  0.3949  0.2387
  434SOL    HW1 1301   0.441   2.244   2.023  1.3499  1.6952 -0.1879
  434SOL    HW2 1302   0.444   2.316   2.165 -0.3692  0.9493 -2.2523
  435SOL     OW 1303   0.525   1.253   0.655 -0.6973 -0.0564  0.1096
  435SOL    HW1 1304   0.613   1.296   0.682  0.7297  0.1736  0.6688
  435SOL    HW2 1305   0.519   1.232   0.556 -2.8034 -0.4864  0.1508
  436SOL     OW 1306   0.339   1.533   1.715 -0.7552 -0.6739  0.0260
  436SOL    HW1 1307   0.272   1.603   1.673 -2.5499  2.5279  0.0182
  436SOL    HW2 1308   0.291   1.460   1.767 -0.7174  1.0838 -0.5183
  437SOL     OW 1309   1.094   0.545   0.304 -0.0492 -0.4523  0.0227
  437SOL    HW1 1310   1.073   0.510   0.394 -0.6821 -1.5327 -0.2403
  437SOL    HW2 1311   1.018   0.599   0.262 -1.2163  0.0566  1.2924
  438SOL     OW 1312   0.721   1.914   1.348 -0.2861  0.2520 -0.2963
  438SOL    HW1 1313   0.628   1.943   1.311 -0.0659  0.4072 -1.1993
  438SOL    HW2 1314   0.763   1.996   1.400  1.5285  2.7950  2.5732
  439SOL     OW 1315   1.600   2.088   2.674  0.2329  0.4320 -0.3323
  439SOL    HW1 1316   1.562   2.040   2.593 -1.2684 -2.6874  0.0717
  439SOL    HW2 1317   1.689   2.038   2.690 -0.2139 -0.1282  1.7612
  440SOL     OW 1318   1.588   0.509   1.360  0.3556 -0.4574 -0.0174
  440SOL    HW1 1319   1.489   0.476   1.360 -0.4931  0.8610 -1.3196
  440SOL    HW2 1320   1.613   0.552   1.273  0.5477 -1.9493  0.0978
  441SOL     OW 1321   0.691   3.072   1.454 -0.3359 -0.0073 -0.1949
  441SOL    HW1 1322   0.629   0.047   1.457 -1.3742  1.0846  0.1876
  441SOL    HW2 1323   0.748   3.062   1.535 -0.9163 -0.1409 -0.9921
  442SOL     OW 1324   2.410   2.099   0.697 -0.2767  0.6407 -0.0447
  442SOL    HW1 1325   2.404   2.022   0.759 -0.7943  2.0413 -0.0496
  442SOL    HW2 1326   2.314   2.138   0.687  0.0693  1.5819  2.0437
  443SOL     OW 1327   2.882   0.382   2.290  0.1089  0.0557 -0.0585
  443SOL    HW1 1328   2.788   0.419   2.289  0.4961  0.4486  0.1103
  443SOL    HW2 1329   2.904   0.322   2.207  0.5814 -0.9510 -1.1876
  444SOL     OW 1330   1.660   1.063   2.294  0.3588  0.0484  0.6283
  444SOL    HW1 1331   1.643   1.150   2.241  0.2258 -1.1186 -0.5344
  444SOL    HW2 1332   1.718   0.999   2.239  3.2614 -2.5138  0.4550
  445SOL     OW 1333   2.530   2.070   1.562  0.6670  0.1132  0.2844
  445SOL    HW1 1334   2.485   2.137   1.502  2.7897 -2.7078 -2.0543
  445SOL    HW2 1335   2.519   2.082   1.662  2.1964 -0.5938 -0.2324
  446SOL     OW 1336   0.315   0.912   0.611 -0.3070 -0.3481 -0.0510
  446SOL    HW1 1337   0.360   0.852   0.540 -2.5007  1.5086 -1.5952
  446SOL    HW2 1338   0.217   0.927   0.594  1.1827  0.4460  1.6197
  447SOL     OW 1339   0.795   1.824   1.016 -0.0851  0.2929  0.1362
  447SOL    HW1 1340   0.766   1.914   0.976 -0.3668  2.9826 -2.1459
  447SOL    HW2 1341   0.757   1.742   0.963 -0.8699  0.6312  1.4740
  448SOL     OW 1342   1.498   1.365   1.655  0.1597 -0.1490  0.0233
  448SOL    HW1 1343   1.463   1.417   1.731  0.4976 -1.6426  0.5080
  448SOL    HW2 1344   1.481   1.268   1.679 -0.8275  0.7124 -1.4551
  449SOL     OW 1345   0.422   1.794   2.874 -0.6179 -0.1936 -0.5809
  449SOL    HW1 1346   0.341   1.806   2.816  0.6044  0.5608 -0.4748
  449SOL    HW2 1347   0.409   1.814   2.970 -0.8211 -0.1174 -2.2411
  450SOL     OW 1348   2.506   2.402   1.987 -0.4870  0.1887 -0.2967
  450SOL    HW1 1349   2.466   2.431   1.895 -1.7319  0.0607  0.7172
  450SOL    HW2 1350   2.609   2.399   1.981  1.7222  0.3558 -0.3891
  451SOL     OW 1351   2.397   0.355   1.895  0.2484  0.0442  0.3076
  451SOL    HW1 1352   2.400   0.265   1.851  3.3648  1.7340  0.2652
  451SOL    HW2 1353   2.325   0.408   1.850  1.3889 -0.5145 -2.3978
  452SOL     OW 1354   0.857   2.716   1.087 -0.0533  0.4948  0.1045
  452SOL    HW1 1355   0.819   2.777   1.012  1.0131  0.2271 -1.1128
  452SOL    HW2 1356   0.833   2.758   1.178 -0.8749  2.6672  0.4676
  453SOL     OW 1357   0.949   1.110   0.946  0.1063 -0.4896 -0.1086
  453SOL    HW1 1358   0.958   1.208   0.961 -4.0150 -0.6247  0.0075
  453SOL    HW2 1359   0.851   1.079   0.966 -2.9886 -0.9270  0.0770
  454SOL     OW 1360   3.014   1.097   0.808 -0.1455 -0.2616  0.0638
  454SOL    HW1 1361   2.942   1.111   0.881 -0.7357  1.4736  0.4795
  454SOL    HW2 1362   3.041   1.189   0.768  3.0444 -0.8969  1.9061
  455SOL     OW 1363   0.121   0.277   0.343 -0.6378  0.0419  0.0640
  455SOL    HW1 1364   0.152   0.335   0.263  0.5149 -0.5904  2.7558
  455SOL    HW2 1365   0.174   0.188   0.356 -0.4673 -2.1859 -1.7544
  456SOL     OW 1366   2.366   2.302   0.400  0.5078  0.1591 -0.3582
  456SOL    HW1 1367   2.325   2.289   0.493 -0.3539 -0.0187 -1.0070
  456SOL    HW2 1368   2.468   2.288   0.400 -1.2575  1.3217  0.6734
  457SOL     OW 1369   1.167   2.966   2.967  0.0563  0.2088 -0.0344
  457SOL    HW1 1370   1.248   2.944   3.028  1.4050  1.0070  0.9571
  457SOL    HW2 1371   1.194   2.950   2.866 -0.5477 -0.1651  0.0133
  458SOL     OW 1372   2.795   2.628   0.503 -0.5994  0.2136  0.3342
  458SOL    HW1 1373   2.695   2.629   0.536 -1.7810 -0.2919  1.1674
  458SOL    HW2 1374   2.798   2.560   0.421 -0.3177 -3.0220 -0.9248
  459SOL     OW 1375   2.635   0.337   2.007 -0.6738  0.5152  0.0948
  459SOL    HW1 1376   2.606   0.301   2.099  1.2273  0.7574  0.8238
  459SOL    HW2 1377   2.558   0.359   1.949  1.6475 -2.3741  1.0494
  460SOL     OW 1378   3.107   0.569   0.282  0.3200 -0.1714 -0.7394
  460SOL    HW1 1379   3.083   0.648   0.219 -3.5210 -0.9980 -0.8085
  460SOL    HW2 1380   0.004   0.477   0.235  2.2665 -0.0399  1.7900
  461SOL     OW 1381   0.315   1.750   1.129  0.0703  0.1911  0.2301
  461SOL    HW1 1382   0.251   1.692   1.075 -3.1835 -1.3508  1.6806
  461SOL    HW2 1383   0.406   1.762   1.079  2.0636  0.7731  0.5613
  462SOL     OW 1384   2.814   2.829   0.838  0.1278  0.2202 -0.1349
  462SOL    HW1 1385   2.889   2.874   0.780  0.9696  0.0500 -0.0077
  462SOL    HW2 1386   2.763   2.901   0.890  0.2207 -1.9436  0.1732
  463SOL     OW 1387   2.695   1.164   3.011 -0.2969 -0.2604 -0.1815
  463SOL    HW1 1388   2.724   1.095   2.939  0.7529 -1.2333 -1.2604
  463SOL    HW2 1389   2.760   1.242   3.001 -1.2632  3.2395 -1.5160
  464SOL     OW 1390   0.353   2.546   1.266 -0.2927 -0.3034  0.2339
  464SOL    HW1 1391   0.419   2.495   1.327  0.5726  0.9527  0.8899
  464SOL    HW2 1392   0.326   2.637   1.307 -0.3418 -0.5811 -1.9310
  465SOL     OW 1393   0.909   0.571   0.889 -0.0445 -0.2528  0.5747
  465SOL    HW1 1394   0.926   0.491   0.830  0.2836 -1.4647  1.6018
  465SOL    HW2 1395   0.809   0.597   0.880 -1.5290  0.8464 -2.4932
  466SOL     OW 1396   1.444   2.800   2.437  0.0149 -0.3662 -0.5496
  466SOL    HW1 1397   1.422   2.820   2.336  2.2382 -0.6953 -6.7806
  466SOL    HW2 1398   1.537   2.754   2.441  0.5670  0.8269 -0.8896
  467SOL     OW 1399   1.028   0.445   1.921 -0.4636 -0.0524  0.3878
  467SOL    HW1 1400   1.075   0.382   1.986 -1.6774 -0.1411 -1.1063
  467SOL    HW2 1401   0.928   0.429   1.925  1.5504 -0.4139  1.5648
  468SOL     OW 1402   0.190   0.863   2.236 -0.1350 -0.2886 -0.0945
  468SOL    HW1 1403   0.200   0.824   2.142 -1.7150  0.7100 -0.0478
  468SOL    HW2 1404   0.099   0.899   2.248  0.5186 -0.1348 -3.7121
  469SOL     OW 1405   0.479   1.718   0.693 -0.0936  0.1239 -0.0898
  469SOL    HW1 1406   0.423   1.802   0.669 -0.3052  1.3567  1.7345
  469SOL    HW2 1407   0.420   1.635   0.709 -0.1453  0.4661  0.3589
  470SOL     OW 1408   2.310   2.096   1.966 -0.6439  0.1883  0.4834
  470SOL    HW1 1409   2.387   2.123   1.905  0.4461 -2.5410  0.2446
  470SOL    HW2 1410   2.325   2.140   2.058  0.6540  1.7939  2.1031
  471SOL     OW 1411   1.136   0.284   2.717 -0.3760 -0.0258 -0.2561
  471SOL    HW1 1412   1.155   0.261   2.812  2.1010  0.2020  0.0095
  471SOL    HW2 1413   1.223   0.318   2.672  0.1111  2.0866  2.1461
  472SOL     OW 1414   0.378   2.640   1.696  0.4199 -0.0438 -0.3047
  472SOL    HW1 1415   0.351   2.544   1.667 -0.4493 -0.7789  0.8847
  472SOL    HW2 1416   0.474   2.638   1.724  0.0089  1.1239 -0.5287
  473SOL     OW 1417   0.559   0.182   2.379 -0.2698 -0.2160  0.1675
  473SOL    HW1 1418   0.559   0.241   2.463 -0.9406 -1.8178  0.9817
  473SOL    HW2 1419   0.585   0.084   2.394  1.3096  1.6453 -0.5666
  474SOL     OW 1420   1.725   0.152   1.207 -0.2328 -0.5700 -0.3536
  474SOL    HW1 1421   1.649   0.208   1.160 -1.1365  1.7469  0.4385
  474SOL    HW2 1422   1.757   0.195   1.292  1.9147 -1.6125  0.1951
  475SOL     OW 1423   1.992   0.573   1.361 -0.4093 -0.2998 -0.2044
  475SOL    HW1 1424   2.091   0.545   1.360  1.6081 -1.1306  0.4795
  475SOL    HW2 1425   1.972   0.633   1.285 -2.5038  1.4545  3.8230
  476SOL     OW 1426   0.671   0.932   0.929 -0.2980 -0.5888  0.5725
  476SOL    HW1 1427   0.608   1.000   0.896  1.7018 -0.3252  1.5139
  476SOL    HW2 1428   0.718   0.967   1.009 -1.6064  1.6006 -0.2669
  477SOL     OW 1429   1.019   2.406   0.874 -0.4186 -0.0079  0.2112
  477SOL    HW1 1430   1.073   2.380   0.789 -0.6645 -1.1235  0.3357
  477SOL    HW2 1431   0.942   2.469   0.854 -0.3470  1.4539  1.7399
  478SOL     OW 1432   0.093   2.630   2.232  0.7686  0.3320 -0.0105
  478SOL    HW1 1433   0.053   2.647   2.140 -0.3452 -0.9475 -0.5752
  478SOL    HW2 1434   0.188   2.590   2.213  2.0107 -1.7898  0.1562
  479SOL     OW 1435   2.631   0.601   1.127 -0.0516  0.2031  0.4536
  479SOL    HW1 1436   2.598   0.543   1.207 -0.0531  0.8845 -0.4131
  479SOL    HW2 1437   2.621   0.543   1.045  1.4104 -2.8086  0.7640
  480SOL     OW 1438   0.249   2.343   0.496  0.5500 -0.7744 -0.2879
  480SOL    HW1 1439   0.243   2.317   0.400  1.8234  1.9098  0.6474
  480SOL    HW2 1440   0.200   2.277   0.561 -1.7001 -0.5925  1.6703
  481SOL     OW 1441   2.140   2.134   1.502 -0.4641 -0.1479 -0.1862
  481SOL    HW1 1442   2.059   2.125   1.440  0.0104 -1.3845  0.2201
  481SOL    HW2 1443   2.120   2.137   1.605 -1.2875  0.7870  2.4079
  482SOL     OW 1444   1.474   2.714   2.760 -0.2745  0.2491  0.0213
  482SOL    HW1 1445   1.491   2.818   2.766 -4.3682  3.9453 -1.0782
  482SOL    HW2 1446   1.562   2.665   2.785  1.8697 -4.2482 -0.2061
  483SOL     OW 1447   0.897   1.974   1.856 -0.2800 -0.4307 -0.0538
  483SOL    HW1 1448   0.921   1.934   1.946 -0.0916  1.6413  0.6022
  483SOL    HW2 1449   0.843   1.913   1.799  1.2375 -0.2507 -0.6204
  484SOL     OW 1450   0.922   0.348   1.328  0.4962  0.9575 -0.4841
  484SOL    HW1 1451   0.901   0.370   1.428 -1.1865 -2.5129  0.8329
  484SOL    HW2 1452   0.981   0.411   1.279  0.2209  0.7373 -3.7921
  485SOL     OW 1453   2.082   1.048   0.003  0.1955  0.1585 -0.1176
  485SOL    HW1 1454   1.993   1.024   3.060  2.5623  0.6194  0.2038
  485SOL    HW2 1455   2.071   1.045   0.103 -0.3568 -1.4017 -0.4343
  486SOL     OW 1456   2.047   0.222   1.508 -0.6535  0.3615  1.0130
  486SOL    HW1 1457   1.954   0.250   1.541 -1.2651  1.2696 -1.0168
  486SOL    HW2 1458   2.049   0.225   1.403 -0.1928  0.0953 -3.5485
  487SOL     OW 1459   0.490   1.995   1.238 -0.3628  0.0321 -0.4823
  487SOL    HW1 1460   0.498   2.069   1.165 -0.6964  1.7859 -0.7684
  487SOL    HW2 1461   0.395   1.991   1.275  1.6628  0.1123  0.7608
  488SOL     OW 1462   2.151   2.218   2.916 -0.6333 -0.0098  0.2157
  488SOL    HW1 1463   2.143   2.125   2.878  2.5144  0.2954 -0.5605
  488SOL    HW2 1464   2.240   2.239   2.961  3.7901 -0.9833 -2.8041
  489SOL     OW 1465   1.881   3.007   0.622 -0.5301  0.4615 -0.3972
  489SOL    HW1 1466   1.829   2.920   0.599  0.0852 -4.3957 -0.3572
  489SOL    HW2 1467   1.935   3.039   0.541  1.6024  1.2419  0.7462
  490SOL     OW 1468   0.951   2.129   2.904  0.5038  0.2132 -0.2405
  490SOL    HW1 1469   0.976   2.139   2.802 -0.5562 -1.0219  0.1262
  490SOL    HW2 1470   0.989   2.207   2.957 -3.5957 -0.9725  0.5779
  491SOL     OW 1471   0.457   2.012   1.575 -0.1633  0.3870 -0.5868
  491SOL    HW1 1472   0.466   1.909   1.567  0.1508 -1.8412 -0.9633
  491SOL    HW2 1473   0.543   2.066   1.557 -1.3096  0.8152  1.8819
  492SOL     OW 1474   0.928   1.488   1.815  0.1476 -0.2133 -0.1278
  492SOL    HW1 1475   1.007   1.474   1.751  0.8824 -0.2003 -2.5971
  492SOL    HW2 1476   0.887   1.403   1.850 -1.4128  0.3959 -0.4801
  493SOL     OW 1477   2.461   1.635   0.781 -0.4494 -0.0777  0.3359
  493SOL    HW1 1478   2.453   1.647   0.679 -0.4987  0.8743 -0.6510
  493SOL    HW2 1479   2.561   1.630   0.803 -0.5960 -0.6906  0.1151
  494SOL     OW 1480   3.000   1.727   1.026 -0.1104 -0.1894 -0.3949
  494SOL    HW1 1481   2.956   1.773   0.948 -0.1415 -1.5648  0.4544
  494SOL    HW2 1482   2.933   1.701   1.102 -2.3878 -0.2775  0.3654
  495SOL     OW 1483   2.332   2.725   0.598 -0.1373 -0.0095 -0.2256
  495SOL    HW1 1484   2.260   2.703   0.531  0.8588  1.0923  4.4663
  495SOL    HW2 1485   2.309   2.664   0.678 -2.6297  0.0486  1.2016
  496SOL     OW 1486   2.387   0.194   1.262 -0.0119  0.5056 -0.1589
  496SOL    HW1 1487   2.474   0.142   1.273 -1.1785  2.2995  0.5922
  496SOL    HW2 1488   2.369   0.252   1.346 -1.3989 -0.7513  1.6033
  497SOL     OW 1489   2.606   1.135   2.651  0.1758 -0.2284 -0.6364
  497SOL    HW1 1490   2.511   1.103   2.636 -0.2747  0.8864 -3.4852
  497SOL    HW2 1491   2.648   1.099   2.735 -1.9399 -0.0739 -0.9818
  498SOL     OW 1492   2.892   2.014   1.526 -0.2541  0.3344  0.4706
  498SOL    HW1 1493   2.881   2.046   1.621  0.1793 -1.5207  0.4866
  498SOL    HW2 1494   2.805   2.008   1.466 -0.3586  2.3675 -0.0807
  499SOL     OW 1495   1.075   2.281   2.374  0.4052 -0.2351  0.6479
  499SOL    HW1 1496   0.993   2.334   2.347 -0.7748  0.0192  0.1400
  499SOL    HW2 1497   1.127   2.327   2.451  2.6020  1.8658  1.8986
  500SOL     OW 1498   1.200   1.514   0.831 -0.7580 -0.2686 -0.1096
  500SOL    HW1 1499   1.296   1.544   0.817 -0.4833 -1.0315 -0.6826
  500SOL    HW2 1500   1.214   1.432   0.884  0.3077  1.4573 -0.7300
  501SOL     OW 1501   1.767   0.260   1.640 -0.0558 -0.6483  0.2096
  501SOL    HW1 1502   1.744   0.320   1.562 -1.4032 -1.0314 -0.6113
  501SOL    HW2 1503   1.745   0.165   1.626  0.3723  0.7152  0.1910
  502SOL     OW 1504   2.816   0.505   1.672 -0.3880 -0.1277 -0.1846
  502SOL    HW1 1505   2.792   0.516   1.772 -0.8673  0.4982  0.2126
  502SOL    HW2 1506   2.818   0.407   1.634  1.5617 -1.6751  0.3998
  503SOL     OW 1507   2.609   1.475   2.270 -0.2652  0.3840 -0.9077
  503SOL    HW1 1508   2.590   1.480   2.372  1.0247 -1.7547  3.1653
  503SOL    HW2 1509   2.575   1.389   2.220  0.0192 -4.0632 -0.0154
  504SOL     OW 1510   1.724   1.330   1.456 -0.1743  0.5850  0.0195
  504SOL    HW1 1511   1.652   1.319   1.524 -0.4640 -0.2836 -2.4126
  504SOL    HW2 1512   1.819   1.322   1.498  0.2727  1.4677 -0.9330
  505SOL     OW 1513   0.473   0.138   1.426  0.4741 -0.0140  0.1736
  505SOL    HW1 1514   0.479   0.183   1.522  0.1874  1.3886  3.4750
  505SOL    HW2 1515   0.535   0.184   1.357 -1.0823 -1.7492 -3.7696
  506SOL     OW 1516   0.250   0.290   0.064  0.3036 -0.1622  0.5814
  506SOL    HW1 1517   0.295   0.377   0.074 -0.0732 -1.5284  0.2361
  506SOL    HW2 1518   0.299   0.232   3.103  1.4406 -2.3090 -0.1379
  507SOL     OW 1519   0.066   2.474   2.966  0.1480 -0.3170  0.3863
  507SOL    HW1 1520   0.005   2.477   2.882 -0.8577  1.4525  1.0993
  507SOL    HW2 1521   0.027   2.404   3.027 -1.4360 -1.5765 -2.7703
  508SOL     OW 1522   1.207   0.287   2.046  0.0628 -0.3472  0.2606
  508SOL    HW1 1523   1.296   0.243   2.019 -2.5473 -0.3645 -1.4274
  508SOL    HW2 1524   1.217   0.368   2.112 -1.2134  1.3507  2.2739
  509SOL     OW 1525   1.482   2.056   1.120  0.5485 -0.5672 -0.1230
  509SOL    HW1 1526   1.520   2.047   1.215  2.4036 -1.9688  1.3384
  509SOL    HW2 1527   1.443   2.149   1.114 -1.3290 -1.6574  1.6714
  510SOL     OW 1528   2.574   0.929   1.592  0.1404 -0.2207  0.0089
  510SOL    HW1 1529   2.561   0.906   1.690 -3.0590  0.1269  0.1815
  510SOL    HW2 1530   2.652   0.991   1.573  0.2770 -3.4927  1.9877
  511SOL     OW 1531   1.168   1.796   1.177  0.1684 -0.2720  0.5393
  511SOL    HW1 1532   1.096   1.866   1.185  0.6635 -1.6677 -0.1753
  511SOL    HW2 1533   1.215   1.782   1.266 -0.2181 -0.7196  2.1098
  512SOL     OW 1534   0.078   1.712   0.354 -0.0997  0.8037 -0.0724
  512SOL    HW1 1535   0.029   1.796   0.378  2.0728 -0.5510  0.9273
  512SOL    HW2 1536   0.058   1.690   0.259  0.2000  0.2096 -2.6429
  513SOL     OW 1537   0.101   1.274   0.099  0.2996 -0.0105 -0.3803
  513SOL    HW1 1538   0.133   1.372   0.104  1.8493  1.3084 -0.6123
  513SOL    HW2 1539   0.094   1.235   0.008  1.5531  1.5825  1.5697
  514SOL     OW 1540   1.999   2.420   2.310  0.4373  0.3848 -0.3334
  514SOL    HW1 1541   1.977   2.496   2.372 -0.1848 -0.8059  1.7451
  514SOL    HW2 1542   2.087   2.371   2.337  1.2985  0.4803  0.6848
  515SOL     OW 1543   2.524   0.985   0.458 -0.1847 -0.3015  0.6512
  515SOL    HW1 1544   2.494   0.909   0.393 -0.6260  1.9824  3.5322
  515SOL    HW2 1545   2.488   1.073   0.421  0.0002  3.2395 -1.2300
  516SOL     OW 1546   2.626   2.669   0.202  0.3891  0.4981  0.4447
  516SOL    HW1 1547   2.674   2.587   0.162  1.0572 -0.2882  1.5172
  516SOL    HW2 1548   2.588   2.641   0.289 -0.2553 -1.3427  1.3867
  517SOL     OW 1549   0.592   1.597   2.768  0.3280 -0.3149  0.0487
  517SOL    HW1 1550   0.667   1.665   2.743  1.3332 -0.7074  1.6718
  517SOL    HW2 1551   0.507   1.643   2.789  0.7349 -1.3223 -1.4722
  518SOL     OW 1552   0.159   0.088   1.945  0.1167  0.1583 -0.6548
  518SOL    HW1 1553   0.097   0.065   1.864 -2.9984  1.0005 -0.9051
  518SOL    HW2 1554   0.160   0.189   1.961 -0.8445  0.1794 -1.9917
  519SOL     OW 1555   1.275   1.265   0.219  0.0025 -0.0006 -0.0078
  519SOL    HW1 1556   1.280   1.198   0.142  2.2494 -3.3224 -0.2157
  519SOL    HW2 1557   1.297   1.355   0.181 -2.1998 -2.6368 -0.3769
  520SOL     OW 1558   2.670   2.759   2.253  0.4825  0.7295  0.0845
  520SOL    HW1 1559   2.717   2.785   2.169 -2.5450 -0.0686  1.2535
  520SOL    HW2 1560   2.656   2.657   2.249  1.3146  0.0229  0.0849
  521SOL     OW 1561   0.136   1.908   2.136 -0.5133  0.4090  0.1307
  521SOL    HW1 1562   0.132   1.981   2.209  1.6475  1.4481  3.0436
  521SOL    HW2 1563   0.229   1.878   2.130  0.8636  1.0972  1.1641
  522SOL     OW 1564   1.518   3.108   1.808 -0.1428  0.0025  0.1281
  522SOL    HW1 1565   1.414   3.099   1.805 -2.4393  3.1479  0.6229
  522SOL    HW2 1566   1.553   0.022   1.717  0.8312 -0.8816 -0.2601
  523SOL     OW 1567   1.938   2.170   1.098  0.1190 -0.3431 -0.4614
  523SOL    HW1 1568   2.010   2.100   1.122  0.0971 -1.1934  0.4958
  523SOL    HW2 1569   1.966   2.262   1.119 -0.5940 -1.8577  1.7396
  524SOL     OW 1570   0.891   2.158   0.811  0.5143 -0.2625  0.8190
  524SOL    HW1 1571   0.928   2.249   0.835  1.7635  1.4625 -1.9625
  524SOL    HW2 1572   0.799   2.139   0.851 -2.7681 -2.5227 -2.3752
  525SOL     OW 1573   2.898   0.423   0.520  0.0543 -0.3406 -0.2910
  525SOL    HW1 1574   2.836   0.448   0.601  0.6431  0.5550  2.4886
  525SOL    HW2 1575   2.841   0.378   0.445 -0.1743  2.2808 -1.6340
  526SOL     OW 1576   1.132   0.156   0.466  0.4199 -0.3940  0.5977
  526SOL    HW1 1577   1.079   0.243   0.480 -1.9578 -0.2215  2.7999
  526SOL    HW2 1578   1.172   0.145   0.373 -1.2859 -0.5921  2.1917
  527SOL     OW 1579   1.897   1.564   1.054  0.2550 -0.1486  0.1765
  527SOL    HW1 1580   1.806   1.599   1.064  0.8067  0.7678  0.0964
  527SOL    HW2 1581   1.908   1.506   0.974  0.2993  0.2613  2.8630
  528SOL     OW 1582   2.655   2.474   2.269  0.3798  0.2839 -0.0936
  528SOL    HW1 1583   2.754   2.462   2.287 -1.2507 -0.6902  0.4609
  528SOL    HW2 1584   2.628   2.390   2.220  0.3454 -1.3027  0.3488
  529SOL     OW 1585   0.887   1.286   2.335 -0.4041 -0.0419 -0.0103
  529SOL    HW1 1586   0.894   1.229   2.417  1.6830  1.0119 -0.3362
  529SOL    HW2 1587   0.788   1.318   2.318 -3.1143  1.3387  0.7305
  530SOL     OW 1588   1.758   0.819   2.618  0.0843  0.6146 -0.1091
  530SOL    HW1 1589   1.788   0.833   2.524  0.0313  0.1163 -2.8057
  530SOL    HW2 1590   1.825   0.850   2.683  0.1884 -1.3820 -3.3812
  531SOL     OW 1591   0.437   0.798   0.399 -0.3953  0.0668  0.4548
  531SOL    HW1 1592   0.527   0.819   0.448  3.3324 -1.3579 -0.1122
  531SOL    HW2 1593   0.430   0.843   0.309  0.2375  1.2191  1.9576
  532SOL     OW 1594   1.545   1.366   0.884 -0.5254  0.0865  0.0103
  532SOL    HW1 1595   1.497   1.283   0.854 -2.4053  0.2274 -1.0744
  532SOL    HW2 1596   1.514   1.452   0.839  1.7356  1.1098  1.2857
  533SOL     OW 1597   0.431   0.498   2.272  0.2170 -0.1266 -0.4286
  533SOL    HW1 1598   0.445   0.396   2.270 -0.2616  3.6291  1.8525
  533SOL    HW2 1599   0.468   0.537   2.360 -0.8450  3.2172  0.8376
  534SOL     OW 1600   0.680   0.227   2.808  1.1483  0.4206  0.3850
  534SOL    HW1 1601   0.716   0.253   2.898 -1.6179  1.9873 -0.4868
  534SOL    HW2 1602   0.669   0.125   2.793  0.2819 -0.7872 -2.0605
  535SOL     OW 1603   0.527   0.419   3.035 -0.3149 -0.0238  0.7821
  535SOL    HW1 1604   0.453   0.474   3.077  1.3739 -1.6377  0.8584
  535SOL    HW2 1605   0.491   0.331   2.996  1.7534  1.4750 -3.0607
  536SOL     OW 1606   0.475   0.961   2.236 -0.1433 -0.6397  0.1285
  536SOL    HW1 1607   0.375   0.947   2.244 -0.7025  2.2021 -0.3719
  536SOL    HW2 1608   0.518   0.910   2.155  1.4058 -1.8955  1.0910
  537SOL     OW 1609   1.367   0.171   1.219 -0.3686  0.3052  0.2627
  537SOL    HW1 1610   1.294   0.107   1.187 -0.3280 -2.0292  0.1584
  537SOL    HW2 1611   1.413   0.229   1.143  0.1131  1.3338 -0.5769
  538SOL     OW 1612   0.776   1.918   2.947 -0.5693  0.1823 -0.0339
  538SOL    HW1 1613   0.846   1.988   2.945 -0.5684 -1.3798  0.9347
  538SOL    HW2 1614   0.678   1.951   2.950 -2.4421 -1.6529 -0.2345
  539SOL     OW 1615   2.388   1.364   1.874 -0.0328  0.5748 -0.5440
  539SOL    HW1 1616   2.423   1.420   1.797  0.5968  1.5088  0.4053
  539SOL    HW2 1617   2.325   1.415   1.937 -0.9391  0.4875  0.5625
  540SOL     OW 1618   1.712   1.694   1.710  0.0062 -0.2590  0.1704
  540SOL    HW1 1619   1.685   1.658   1.622  1.2343 -0.0744  1.7785
  540SOL    HW2 1620   1.769   1.779   1.704  1.4711  1.0895  3.6317
  541SOL     OW 1621   0.786   1.745   1.725  0.0867 -0.1615  0.4531
  541SOL    HW1 1622   0.830   1.664   1.764  1.0251  2.3677 -0.0024
  541SOL    HW2 1623   0.805   1.754   1.626 -2.9773 -0.6485 -0.3451
  542SOL     OW 1624   1.874   0.841   2.365 -0.2615 -0.6434 -0.2856
  542SOL    HW1 1625   1.914   0.932   2.369  0.0172 -0.2324  0.8007
  542SOL    HW2 1626   1.895   0.800   2.273 -0.5586 -0.4620 -1.2057
  543SOL     OW 1627   0.991   0.965   0.514  0.0121 -0.6772 -0.1339
  543SOL    HW1 1628   0.900   0.984   0.556  0.1579 -3.1023  0.0469
  543SOL    HW2 1629   1.018   1.034   0.446 -0.9789 -2.1128  2.2425
  544SOL     OW 1630   2.284   1.923   2.341  0.0371 -0.0093  0.5229
  544SOL    HW1 1631   2.238   2.005   2.306  1.1168 -1.8227 -1.7640
  544SOL    HW2 1632   2.365   1.948   2.394 -1.1830  0.1718  2.6938
  545SOL     OW 1633   1.848   2.128   1.431  0.0178  0.0520  0.2819
  545SOL    HW1 1634   1.837   2.048   1.366  0.0081 -2.2331 -2.1889
  545SOL    HW2 1635   1.754   2.152   1.476 -2.7582  1.0426  2.5769
  546SOL     OW 1636   0.426   0.177   2.972 -0.4725 -0.5366 -0.2937
  546SOL    HW1 1637   0.375   0.201   2.889  2.0832 -1.4096  0.4915
  546SOL    HW2 1638   0.467   0.084   2.977  0.4230 -0.1782  0.4489
  547SOL     OW 1639   2.338   0.752   2.987 -0.2687  0.6337 -0.4039
  547SOL    HW1 1640   2.280   0.824   2.946  2.5176  0.2412  0.1067
  547SOL    HW2 1641   2.284   0.677   3.028 -2.0098 -2.7738 -3.4564
  548SOL     OW 1642   1.991   2.034   2.272  0.3988 -0.0500 -0.1453
  548SOL    HW1 1643   2.059   2.101   2.305  0.7470  2.3102 -0.7216
  548SOL    HW2 1644   2.013   2.005   2.175  0.6427 -1.9977 -4.5431
  549SOL     OW 1645   2.121   0.380   0.611  0.5108  0.1390 -0.7569
  549SOL    HW1 1646   2.154   0.363   0.705  3.9060  1.7799  1.3841
  549SOL    HW2 1647   2.195   0.418   0.555 -4.1928  0.0375 -0.3982
  550SOL     OW 1648   2.103   1.739   0.404  0.0277 -0.1680  0.0156
  550SOL    HW1 1649   2.106   1.743   0.304  2.0441  3.2214  1.7968
  550SOL    HW2 1650   2.018   1.781   0.445 -0.5106 -0.2116  0.6655
  551SOL     OW 1651   1.464   0.371   1.860  0.8009 -0.5424 -0.2227
  551SOL    HW1 1652   1.451   0.284   1.920 -0.7763 -1.3727  0.7750
  551SOL    HW2 1653   1.433   0.354   1.765 -2.0630 -1.3497  1.2661
  552SOL     OW 1654   0.041   2.193   2.403 -0.7192 -0.2143 -0.3558
  552SOL    HW1 1655   0.067   2.236   2.313 -1.9115 -0.7761  1.3349
  552SOL    HW2 1656   0.119   2.194   2.472 -0.7400 -0.5013  0.2073
  553SOL     OW 1657   0.868   2.873   0.216  0.2955  0.4133  0.3756
  553SOL    HW1 1658   0.859   2.964   0.173  1.3018 -1.1985  0.6907
  553SOL    HW2 1659   0.881   2.879   0.315  0.7161  2.3310 -0.4311
  554SOL     OW 1660   1.821   2.300   1.721  0.2523 -0.4187  0.2069
  554SOL    HW1 1661   1.880   2.281   1.802 -0.6500  0.5177 -1.0046
  554SOL    HW2 1662   1.852   2.400   1.690  1.3903  3.0986 -1.3642
  555SOL     OW 1663   1.211   2.022   1.974  0.6113 -0.0266 -0.4115
  555SOL    HW1 1664   1.246   2.058   2.061 -0.1442  0.3973 -3.4211
  555SOL    HW2 1665   1.160   2.090   1.925  0.6977 -4.1249  0.8214
  556SOL     OW 1666   1.157   1.934   0.857 -0.6093  0.3955  0.2727
  556SOL    HW1 1667   1.071   1.904   0.811  0.8058  0.5288 -1.4197
  556SOL    HW2 1668   1.146   1.942   0.958 -1.3672 -0.2746  1.6566
  557SOL     OW 1669   1.562   2.252   1.929  0.4784  0.2095 -0.4567
  557SOL    HW1 1670   1.660   2.238   1.945  1.6569 -1.9302 -3.4521
  557SOL    HW2 1671   1.541   2.163   1.881  0.1267  0.1173 -1.4443
  558SOL     OW 1672   0.442   0.183   1.692 -0.0894  0.4480 -0.6213
  558SOL    HW1 1673   0.426   0.111   1.762  0.3661 -0.0922 -0.7380
  558SOL    HW2 1674   0.534   0.218   1.697 -2.3990 -1.8707  0.2236
  559SOL     OW 1675   2.321   2.948   1.284  0.1397 -0.1961 -0.4978
  559SOL    HW1 1676   2.358   2.949   1.189 -0.5068  2.1714  1.6809
  559SOL    HW2 1677   2.234   2.998   1.283  2.9570 -0.2836 -1.5644
  560SOL     OW 1678   0.938   2.430   0.369 -0.1381  0.2286 -0.0845
  560SOL    HW1 1679   1.021   2.399   0.323  0.9365  1.7204  1.0769
  560SOL    HW2 1680   0.886   2.355   0.411 -1.0910 -1.0745 -2.0764
  561SOL     OW 1681   0.908   0.659   0.158 -0.0336  0.3044 -0.5509
  561SOL    HW1 1682   0.818   0.609   0.147  1.9401 -0.6925  1.9192
  561SOL    HW2 1683   0.883   0.755   0.182 -1.3869  3.5965  1.2176
  562SOL     OW 1684   0.844   0.495   2.478 -0.2713 -0.2128 -0.4338
  562SOL    HW1 1685   0.853   0.502   2.580 -0.0428  1.2312  1.7338
  562SOL    HW2 1686   0.913   0.441   2.441 -2.8665  0.0286  3.3815
  563SOL     OW 1687   1.608   2.366   2.635  0.1764  0.1395  0.1883
  563SOL    HW1 1688   1.586   2.267   2.664 -2.3294  1.3646  1.7891
  563SOL    HW2 1689   1.707   2.388   2.644 -0.7577 -1.8676 -1.2735
  564SOL     OW 1690   3.106   1.015   0.348  0.3563  0.3557 -0.0415
  564SOL    HW1 1691   0.070   1.085   0.355 -0.9854 -2.2563 -0.0600
  564SOL    HW2 1692   3.015   1.054   0.375 -1.0454  0.8231 -4.0128
  565SOL     OW 1693   1.512   2.986   2.799 -0.2208 -0.2721 -0.2387
  565SOL    HW1 1694   1.446   3.016   2.732  1.3064 -0.8264 -0.1538
  565SOL    HW2 1695   1.470   2.974   2.892  0.0884  0.1575  2.7429
  566SOL     OW 1696   1.927   3.056   2.312  0.2088  0.0215  0.2980
  566SOL    HW1 1697   1.862   3.046   2.388  2.9448  1.3245 -2.6898
  566SOL    HW2 1698   1.885   3.024   2.226 -1.2704 -2.7079  4.2152
  567SOL     OW 1699   2.423   1.235   0.842 -0.1856 -0.1001  0.0174
  567SOL    HW1 1700   2.327   1.207   0.873 -1.0761 -1.7818  2.9082
  567SOL    HW2 1701   2.483   1.243   0.924  1.4662 -0.0848 -0.1122
  568SOL     OW 1702   1.629   1.886   0.382  0.4114 -0.3677 -0.5322
  568SOL    HW1 1703   1.642   1.872   0.280 -0.4276 -1.1530 -2.0095
  568SOL    HW2 1704   1.568   1.968   0.404  1.4968  1.4339 -0.9615
  569SOL     OW 1705   2.039   1.657   2.960 -0.3657 -0.2382  0.1050
  569SOL    HW1 1706   2.059   1.558   2.956  1.9387  2.3118  0.8440
  569SOL    HW2 1707   1.944   1.674   2.928  2.7071 -1.2473  0.0197
  570SOL     OW 1708   2.857   2.763   1.467  0.1290  0.1003  0.3437
  570SOL    HW1 1709   2.786   2.798   1.414  1.7319 -2.0119 -0.7514
  570SOL    HW2 1710   2.949   2.773   1.418 -1.0544  2.6345 -2.0111
  571SOL     OW 1711   0.126   0.275   2.219  0.1536  0.4160  0.4877
  571SOL    HW1 1712   0.224   0.251   2.204  0.2840  0.7934 -2.2006
  571SOL    HW2 1713   0.125   0.355   2.283 -0.2744 -0.9453 -0.0129
  572SOL     OW 1714   0.930   1.434   0.910  0.6729  0.3935  1.0201
  572SOL    HW1 1715   0.915   1.487   0.998 -0.7931 -1.7840  0.0682
  572SOL    HW2 1716   1.016   1.469   0.865  1.3879  1.8065 -1.1537
  573SOL     OW 1717   0.855   0.341   2.975  0.1081  0.1857 -0.1389
  573SOL    HW1 1718   0.902   0.249   2.978  1.3580 -2.9486  0.3030
  573SOL    HW2 1719   0.918   0.415   3.008 -1.8754  0.8859  2.4429
  574SOL     OW 1720   0.874   0.129   0.738 -0.5238  0.1544 -0.1983
  574SOL    HW1 1721   0.929   0.051   0.705  0.6518 -3.2028  1.0006
  574SOL    HW2 1722   0.781   0.093   0.760  0.4054  1.0004 -1.0297
  575SOL     OW 1723   2.913   1.319   1.643  0.0367  0.1492  0.0809
  575SOL    HW1 1724   2.968   1.354   1.569  0.7898  0.6299  0.4116
  575SOL    HW2 1725   2.971   1.331   1.725 -1.2294 -0.8315 -0.8473
  576SOL     OW 1726   2.162   0.495   1.786 -0.2797  0.3627 -0.2489
  576SOL    HW1 1727   2.115   0.415   1.833 -0.3603  2.3994  0.8025
  576SOL    HW2 1728   2.087   0.563   1.760 -0.8124  0.6100  0.6640
  577SOL     OW 1729   0.021   1.254   2.092 -0.3544 -0.1648 -0.0919
  577SOL    HW1 1730   0.010   1.185   2.016  0.1720 -1.6511 -0.1558
  577SOL    HW2 1731   0.115   1.246   2.126 -0.8260  1.9530 -0.0275
  578SOL     OW 1732   1.731   2.979   2.492  0.2758 -0.4410 -0.3354
  578SOL    HW1 1733   1.633   2.977   2.463  1.5860  3.1989 -0.1487
  578SOL    HW2 1734   1.751   2.929   2.580 -0.1690 -1.6658 -0.8063
  579SOL     OW 1735   1.959   2.272   1.953  0.2554  0.0699 -0.4562
  579SOL    HW1 1736   1.969   2.369   1.977  0.7579 -1.6107 -0.6656
  579SOL    HW2 1737   1.903   2.230   2.025 -2.0642 -3.3229  1.8655
  580SOL     OW 1738   1.799   1.519   2.188 -0.0151 -0.0983  0.3562
  580SOL    HW1 1739   1.706   1.557   2.213 -3.9076  2.1703 -1.3020
  580SOL    HW2 1740   1.811   1.542   2.088  1.2130  0.0370  2.1177
  581SOL     OW 1741   1.383   0.972   2.752 -0.0068 -0.4323  0.0983
  581SOL    HW1 1742   1.454   1.014   2.689 -0.0584  3.7360 -0.9582
  581SOL    HW2 1743   1.332   0.899   2.702 -0.0937 -0.0389 -3.5013
  582SOL     OW 1744   0.473   2.085   1.901 -0.2826 -0.3528 -0.0835
  582SOL    HW1 1745   0.564   2.118   1.879 -1.0826 -1.2007  1.3430
  582SOL    HW2 1746   0.420   2.064   1.816 -1.0944  1.1826  0.2020
  583SOL     OW 1747   1.534   1.373   1.201 -0.2303  0.5032  0.1747
  583SOL    HW1 1748   1.597   1.300   1.168  1.5894  0.4734 -0.5826
  583SOL    HW2 1749   1.558   1.466   1.165 -1.9353 -3.4686  0.9927
  584SOL     OW 1750   1.195   2.427   0.639  0.3329  0.3583 -0.2880
  584SOL    HW1 1751   1.272   2.413   0.575 -2.1806  0.3629 -1.1986
  584SOL    HW2 1752   1.152   2.515   0.627  1.0583 -2.7153 -0.8704
  585SOL     OW 1753   2.771   2.196   3.062  0.5222  0.1385 -0.2281
  585SOL    HW1 1754   2.851   2.136   3.079 -0.3819  1.3427  2.1643
  585SOL    HW2 1755   2.788   2.249   2.979 -0.9655  0.4097  1.3555
  586SOL     OW 1756   2.789   1.529   0.412 -0.1766  0.0483 -0.1033
  586SOL    HW1 1757   2.841   1.520   0.322  0.1387 -2.9470  0.6539
  586SOL    HW2 1758   2.699   1.488   0.421  2.1722 -0.1036 -1.6923
  587SOL     OW 1759   1.163   1.501   2.916  0.1597  0.7946  0.5040
  587SOL    HW1 1760   1.183   1.412   2.866  1.8757 -1.3445  0.4504
  587SOL    HW2 1761   1.133   1.488   3.011 -3.5476 -0.6998 -0.1368
  588SOL     OW 1762   0.392   0.163   0.738 -0.3059 -0.2287  0.3334
  588SOL    HW1 1763   0.290   0.150   0.723 -0.1767  0.6057  0.5265
  588SOL    HW2 1764   0.407   0.234   0.805  1.3240 -1.8231  1.1971
  589SOL     OW 1765   1.351   0.302   0.569  0.2482 -0.1987 -0.1212
  589SOL    HW1 1766   1.271   0.243   0.550  1.4845  0.3244 -0.4975
  589SOL    HW2 1767   1.333   0.400   0.548  1.2030  2.4717 -0.8199
  590SOL     OW 1768   2.261   2.507   0.237  0.7917  0.2682 -0.2923
  590SOL    HW1 1769   2.280   2.423   0.292  0.3332 -0.3677 -2.2991
  590SOL    HW2 1770   2.241   2.591   0.296  0.8581  0.2127 -0.5619
  591SOL     OW 1771   0.390   2.870   1.870  0.0162  0.0616 -0.3432
  591SOL    HW1 1772   0.367   2.844   1.969 -1.1593  2.8410  3.4180
  591SOL    HW2 1773   0.391   2.789   1.810  0.3883 -0.3463  0.2605
  592SOL     OW 1774   2.987   1.611   2.405  0.3641 -0.4847 -0.8863
  592SOL    HW1 1775   2.931   1.693   2.440  0.9861 -0.1717  1.5804
  592SOL    HW2 1776   3.000   1.619   2.304 -0.1858  2.9241 -0.5563
  593SOL     OW 1777   1.922   1.536   1.338 -0.5056  0.1093 -1.0064
  593SOL    HW1 1778   1.884   1.441   1.356 -1.7159 -2.0988  1.2709
  593SOL    HW2 1779   1.943   1.552   1.241  2.4541 -1.9334 -0.7285
  594SOL     OW 1780   0.451   1.144   3.095 -0.2388  0.3567 -0.0796
  594SOL    HW1 1781   0.403   1.234   3.095  1.8719  2.1208  0.9836
  594SOL    HW2 1782   0.425   1.096   0.075 -0.6298 -1.4959 -0.2663
  595SOL     OW 1783   1.390   0.987   1.012 -0.4289 -0.0916  0.3438
  595SOL    HW1 1784   1.296   0.956   1.033  0.7223  0.4957 -1.0719
  595SOL    HW2 1785   1.384   1.055   0.937 -0.4653  2.0312  0.8536
  596SOL     OW 1786   2.859   1.112   1.033  0.4081 -0.0345 -0.4559
  596SOL    HW1 1787   2.884   1.009   1.035  0.3859 -2.2508  1.0394
  596SOL    HW2 1788   2.925   1.165   1.085 -2.7609 -1.9555  3.1183
  597SOL     OW 1789   1.044   2.440   1.776 -0.3215 -0.1680  0.0428
  597SOL    HW1 1790   0.950   2.435   1.799  2.1959 -0.6030 -2.7110
  597SOL    HW2 1791   1.084   2.342   1.768  1.4980  0.2403 -0.4428
  598SOL     OW 1792   2.168   2.618   1.898  0.0255 -0.2974 -0.1085
  598SOL    HW1 1793   2.095   2.574   1.949  1.4587 -0.8734 -1.1439
  598SOL    HW2 1794   2.182   2.562   1.817 -0.4725  0.2053  1.1066
  599SOL     OW 1795   0.915   1.234   0.103  0.6966  0.1553  0.1661
  599SOL    HW1 1796   0.935   1.230   0.201 -1.0578  0.8403 -1.3734
  599SOL    HW2 1797   0.969   1.164   0.054  0.9597  0.8777 -0.4467
  600SOL     OW 1798   1.239   0.801   0.170  0.3473 -0.5792 -0.6327
  600SOL    HW1 1799   1.199   0.715   0.209  0.0497 -0.3395 -1.1733
  600SOL    HW2 1800   1.317   0.781   0.105  0.2138  1.1566  1.9793
  601SOL     OW 1801   0.916   0.450   1.584  0.8694  0.0763 -0.2026
  601SOL    HW1 1802   1.009   0.438   1.627 -0.0130  0.3762 -1.6421
  601SOL    HW2 1803   0.878   0.542   1.618  0.6845  0.6312 -0.1929
  602SOL     OW 1804   0.551   2.103   0.693 -0.4917  0.0670 -0.2255
  602SOL    HW1 1805   0.480   2.033   0.665  0.1560 -0.7466 -2.6584
  602SOL    HW2 1806   0.531   2.196   0.658  0.3636 -4.3543 -0.5820
  603SOL     OW 1807   1.013   2.664   2.336 -0.3150  0.3200  0.1814
  603SOL    HW1 1808   1.026   2.704   2.241  1.3378  0.1000  1.1495
  603SOL    HW2 1809   1.102   2.621   2.368  0.1304  0.0734 -0.7410
  604SOL     OW 1810   0.139   1.903   3.084 -0.3362  0.3507  0.0255
  604SOL    HW1 1811   0.142   1.931   2.986  2.5038 -0.6747 -0.2674
  604SOL    HW2 1812   0.233   1.904   0.013  0.2225  0.1476  1.3628
  605SOL     OW 1813   2.095   1.728   1.854  0.4166  0.6784  0.1734
  605SOL    HW1 1814   2.021   1.660   1.861 -1.7210 -0.7206  0.1580
  605SOL    HW2 1815   2.164   1.698   1.782 -0.4439 -2.3985  3.4591
  606SOL     OW 1816   0.896   1.208   2.757 -0.9291 -0.3695  0.2531
  606SOL    HW1 1817   0.839   1.284   2.719 -0.5659  0.1613  0.9671
  606SOL    HW2 1818   0.988   1.239   2.769 -2.9539 -0.6963 -1.5134
  607SOL     OW 1819   1.137   0.931   1.030  0.3295 -0.2959  0.1267
  607SOL    HW1 1820   1.099   0.883   1.113  3.6603 -1.7770  2.0177
  607SOL    HW2 1821   1.070   1.004   0.984 -1.5382  2.7834 -0.5414
  608SOL     OW 1822   2.727   2.029   1.981 -0.1504 -0.3288  0.2005
  608SOL    HW1 1823   2.788   2.048   1.903 -0.6952 -2.3482  0.6390
  608SOL    HW2 1824   2.751   1.941   2.024 -1.9583  3.3825  0.5656
  609SOL     OW 1825   2.366   0.132   0.308  0.0675 -0.2441  0.4794
  609SOL    HW1 1826   2.421   0.077   0.241  0.3216 -1.2663  2.2963
  609SOL    HW2 1827   2.424   0.179   0.374 -0.2368  0.8525 -0.4391
  610SOL     OW 1828   3.047   2.343   1.359  0.4652  0.5315 -0.6806
  610SOL    HW1 1829   0.007   2.395   1.302 -0.9730 -1.7723  1.0793
  610SOL    HW2 1830   3.084   2.258   1.395  1.2543 -0.4980  1.5023
  611SOL     OW 1831   1.673   2.393   0.717  0.3711  0.3737 -0.3222
  611SOL    HW1 1832   1.738   2.368   0.640 -0.1755  2.0492 -0.6103
  611SOL    HW2 1833   1.714   2.351   0.802 -1.7675 -1.2385  0.1668
  612SOL     OW 1834   0.725   0.050   1.729  0.5461 -0.5427  0.2034
  612SOL    HW1 1835   0.750   0.031   1.824  1.8690  1.7280  1.5367
  612SOL    HW2 1836   0.719   0.152   1.708 -0.1435  0.4385 -2.8537
  613SOL     OW 1837   3.051   1.888   0.585 -0.2026  0.2290 -0.9247
  613SOL    HW1 1838   2.989   1.809   0.607 -0.8563 -0.8034  0.5577
  613SOL    HW2 1839   3.003   1.977   0.574 -1.4263  0.3623  0.9828
  614SOL     OW 1840   1.877   0.519   2.263 -0.0827  0.2742 -0.2268
  614SOL    HW1 1841   1.882   0.534   2.367 -2.6551 -3.9077 -0.9338
  614SOL    HW2 1842   1.899   0.604   2.214 -0.3630 -1.8151 -1.0249
  615SOL     OW 1843   1.208   1.309   1.325 -0.3174 -0.4608 -0.0734
  615SOL    HW1 1844   1.134   1.331   1.386  0.7321 -0.1277 -0.4686
  615SOL    HW2 1845   1.283   1.375   1.344 -0.1630 -1.5079  0.6113
  616SOL     OW 1846   1.651   1.787   0.116 -0.2215 -0.3384 -0.2595
  616SOL    HW1 1847   1.593   1.858   0.074  1.9743 -1.5260  1.1243
  616SOL    HW2 1848   1.747   1.793   0.082 -0.5334 -1.2789 -2.3853
  617SOL     OW 1849   1.979   0.019   0.381  0.8929 -0.3895 -0.1455
  617SOL    HW1 1850   2.075   0.001   0.391 -2.3978  0.2646 -0.9953
  617SOL    HW2 1851   1.936   3.072   0.306  1.8553 -3.2326 -2.1294
  618SOL     OW 1852   0.601   0.621   2.464  0.1027 -0.0463 -0.0443
  618SOL    HW1 1853   0.618   0.720   2.442 -1.6771 -0.0751 -1.7216
  618SOL    HW2 1854   0.681   0.561   2.449  0.5765  0.0829  3.0790
  619SOL     OW 1855   2.836   1.592   1.373  0.1786  0.1027 -0.4545
  619SOL    HW1 1856   2.912   1.523   1.371 -0.6417 -0.4310 -1.6417
  619SOL    HW2 1857   2.777   1.573   1.295  0.1873 -0.6735  2.0747
  620SOL     OW 1858   2.197   3.034   2.705 -0.2833  0.6689 -0.1405
  620SOL    HW1 1859   2.227   2.971   2.628  0.7648 -2.3169 -1.3783
  620SOL    HW2 1860   2.128   2.990   2.763 -0.8389  1.2442 -2.0307
  621SOL     OW 1861   2.485   1.559   3.025  0.5012  0.2921  0.3925
  621SOL    HW1 1862   2.470   1.455   3.039 -0.2569 -2.6644 -2.7525
  621SOL    HW2 1863   2.500   1.616   3.108  1.3444 -0.2679 -1.2196
  622SOL     OW 1864   1.864   3.016   2.050  0.3910  0.1031  0.7544
  622SOL    HW1 1865   1.771   2.977   2.022 -2.1564  1.2875 -1.6993
  622SOL    HW2 1866   1.899   3.080   1.981 -2.3457 -1.6465 -0.0161
  623SOL     OW 1867   0.965   1.970   1.186  0.0937  0.1826  0.1242
  623SOL    HW1 1868   0.943   2.001   1.284 -0.4796  1.3679  2.2529
  623SOL    HW2 1869   0.885   1.930   1.135 -0.3806  1.3094 -1.7953
  624SOL     OW 1870   0.247   2.973   2.997 -0.1181 -0.2516 -0.2041
  624SOL    HW1 1871   0.243   2.949   3.097  0.8642  0.6473 -1.0575
  624SOL    HW2 1872   0.277   3.066   2.982 -2.0961 -1.2365 -0.2572
  625SOL     OW 1873   0.918   1.827   0.721  0.0393  0.0562  0.4519
  625SOL    HW1 1874   0.885   1.806   0.811  1.5833  0.2928 -0.9826
  625SOL    HW2 1875   0.847   1.848   0.657  1.7384  0.8738  2.0871
  626SOL     OW 1876   3.052   2.910   3.098  0.4411  0.4661 -0.0499
  626SOL    HW1 1877   0.033   2.879   3.059 -0.3139 -2.2608 -1.3367
  626SOL    HW2 1878   2.982   2.840   3.091 -1.7392  0.9299  1.8283
  627SOL     OW 1879   1.414   1.603   2.804  0.0221  0.0372  0.1049
  627SOL    HW1 1880   1.424   1.589   2.701  1.1781  1.0858 -3.9093
  627SOL    HW2 1881   1.322   1.596   2.845  1.9534  1.0573 -1.4452
  628SOL     OW 1882   0.179   2.768   2.814  0.0814  0.3136 -0.1226
  628SOL    HW1 1883   0.133   2.692   2.866 -0.5450  1.2423  1.1883
  628SOL    HW2 1884   0.226   2.834   2.878 -0.8188 -0.3268  2.5603
  629SOL     OW 1885   0.683   2.870   2.606 -0.2158  0.3357  0.3750
  629SOL    HW1 1886   0.739   2.787   2.620 -0.5040 -0.9165 -0.2449
  629SOL    HW2 1887   0.598   2.872   2.662  0.4488 -2.0534 -4.2882
  630SOL     OW 1888   1.464   1.269   2.005 -0.0323  0.7377  0.3322
  630SOL    HW1 1889   1.390   1.196   2.008  2.3866  1.0179 -0.1816
  630SOL    HW2 1890   1.436   1.352   1.951 -0.3545  2.9687  0.6371
  631SOL     OW 1891   2.199   1.120   0.588  0.0207 -0.3356 -0.1061
  631SOL    HW1 1892   2.270   1.187   0.553  0.1131  1.3626 -0.2902
  631SOL    HW2 1893   2.235   1.026   0.598 -0.7505 -1.6841  1.2878
  632SOL     OW 1894   2.769   0.577   1.930 -0.1302 -0.2414 -0.3876
  632SOL    HW1 1895   2.822   0.631   2.000  0.9918 -0.9375 -2.6185
  632SOL    HW2 1896   2.752   0.479   1.962  3.5257  0.2441  1.6384
  633SOL     OW 1897   0.764   1.851   0.109  0.0524 -0.2385  0.4454
  633SOL    HW1 1898   0.761   1.889   0.017 -1.5713 -2.5563  0.9641
  633SOL    HW2 1899   0.813   1.906   0.176  0.7749 -2.5262 -0.7391
  634SOL     OW 1900   1.837   2.786   2.776 -0.1931 -0.3146 -0.1223
  634SOL    HW1 1901   1.852   2.869   2.827 -0.3897 -1.0667 -0.2122
  634SOL    HW2 1902   1.930   2.749   2.738  0.0667 -2.9233 -0.7961
  635SOL     OW 1903   2.019   0.302   0.065  0.3311  0.6764 -0.1981
  635SOL    HW1 1904   2.104   0.311   0.122 -3.0625 -1.1241 -1.5796
  635SOL    HW2 1905   1.940   0.355   0.102 -1.1848  0.4680 -0.8528
  636SOL     OW 1906   0.805   1.311   0.687 -0.6532 -0.0181 -0.3349
  636SOL    HW1 1907   0.855   1.348   0.604  1.8162 -2.4103 -2.5595
  636SOL    HW2 1908   0.818   1.380   0.761 -3.4602  0.1871  0.6507
  637SOL     OW 1909   2.975   2.154   0.509 -0.6420  0.1336 -0.0557
  637SOL    HW1 1910   2.886   2.100   0.499 -0.3096  0.4007  0.5801
  637SOL    HW2 1911   2.989   2.191   0.601 -1.0063 -0.6147 -4.1191
  638SOL     OW 1912   1.027   2.412   2.778  0.2715 -0.1369 -0.2406
  638SOL    HW1 1913   1.111   2.461   2.749  0.8240  0.5946  0.6577
  638SOL    HW2 1914   1.014   2.324   2.728  0.9003  0.2729  0.7708
  639SOL     OW 1915   1.322   2.074   0.144  0.0335  0.4501  0.6370
  639SOL    HW1 1916   1.227   2.060   0.107 -0.8190 -1.0716  0.7273
  639SOL    HW2 1917   1.335   2.011   0.224 -1.1737  0.2001  1.2240
  640SOL     OW 1918   1.759   0.143   0.727  0.1749  0.0849  0.0265
  640SOL    HW1 1919   1.718   0.108   0.807 -0.5192  0.8154 -2.8495
  640SOL    HW2 1920   1.815   0.070   0.681 -1.3000 -0.5192 -0.2047
  641SOL     OW 1921   0.019   2.897   0.362 -0.2517  0.1849  0.6517
  641SOL    HW1 1922   3.087   2.989   0.367  1.5980  1.1010  2.1940
  641SOL    HW2 1923   3.072   2.845   0.293  1.1150 -0.7882 -2.1803
  642SOL     OW 1924   1.266   0.138   1.585  0.3331  0.5230 -0.2453
  642SOL    HW1 1925   1.219   0.108   1.499  0.0052 -0.0866 -2.1988
  642SOL    HW2 1926   1.228   0.227   1.613 -0.7437  0.5096 -0.8692
  643SOL     OW 1927   0.584   1.698   1.965  0.0193 -0.1479 -0.1410
  643SOL    HW1 1928   0.615   1.731   1.879 -2.4255  1.2639  0.0248
  643SOL    HW2 1929   0.611   1.751   2.044  2.4001 -0.7744  2.7399
  644SOL     OW 1930   0.723   2.541   0.269 -0.0249  0.6103  0.3540
  644SOL    HW1 1931   0.819   2.508   0.284 -1.1536  0.2186  2.0427
  644SOL    HW2 1932   0.681   2.490   0.189  1.3375 -2.2011 -3.0417
  645SOL     OW 1933   1.555   2.261   0.189 -0.1238 -0.1675 -0.0632
  645SOL    HW1 1934   1.530   2.295   0.099 -0.5542 -1.0546  0.6850
  645SOL    HW2 1935   1.481   2.195   0.224 -3.1968 -1.6752  0.0066
  646SOL     OW 1936   0.369   1.408   3.047 -0.0813 -0.0779  0.1359
  646SOL    HW1 1937   0.288   1.447   2.998 -2.4106 -0.4153  1.4587
  646SOL    HW2 1938   0.458   1.441   3.011  0.2685  2.8565 -0.6363
  647SOL     OW 1939   0.515   2.825   1.083 -0.2142 -0.2788  0.3478
  647SOL    HW1 1940   0.467   2.801   1.165 -0.0343  0.5159 -2.4204
  647SOL    HW2 1941   0.548   2.925   1.082  0.5238 -1.4055 -2.6427
  648SOL     OW 1942   1.805   0.552   1.890  0.4156  0.2467  0.3627
  648SOL    HW1 1943   1.848   0.467   1.924  2.2245 -2.9059 -0.0444
  648SOL    HW2 1944   1.858   0.637   1.920  1.8117  0.1262 -0.1005
  649SOL     OW 1945   1.323   1.881   2.875  0.0196 -0.1842 -0.1005
  649SOL    HW1 1946   1.382   1.810   2.836 -1.6533  1.3268  2.5504
  649SOL    HW2 1947   1.229   1.865   2.856  3.4873  0.2127 -1.0281
  650SOL     OW 1948   2.753   1.822   2.165  0.3290  0.1716 -0.1989
  650SOL    HW1 1949   2.694   1.826   2.249 -1.4760 -0.5512 -0.8319
  650SOL    HW2 1950   2.832   1.758   2.175 -0.6647 -4.0659 -1.9013
  651SOL     OW 1951   1.023   0.103   3.022 -0.0143 -0.6291  0.1379
  651SOL    HW1 1952   1.064   0.014   2.994 -0.8927 -1.8202  0.6810
  651SOL    HW2 1953   1.093   0.179   3.012  3.1638  0.4473  1.9006
  652SOL     OW 1954   2.817   1.779   0.023  0.0815  0.3877 -0.5672
  652SOL    HW1 1955   2.818   1.716   3.048 -4.1798 -0.2193 -0.9992
  652SOL    HW2 1956   2.733   1.839   0.018  1.4380 -1.2673  3.3793
  653SOL     OW 1957   0.300   3.080   0.973 -0.1563 -0.0587 -0.1247
  653SOL    HW1 1958   0.243   0.015   1.046  1.0118 -0.8392  2.8457
  653SOL    HW2 1959   0.392   3.083   1.009 -0.3667 -1.9126  2.4122
  654SOL     OW 1960   2.286   0.138   2.585 -0.3451  0.2734  0.3520
  654SOL    HW1 1961   2.242   0.139   2.493 -2.0703  2.0290  0.4136
  654SOL    HW2 1962   2.259   0.056   2.635  1.6902 -1.0657  1.5717
  655SOL     OW 1963   0.408   2.477   0.995 -0.9163 -0.2412 -0.4378
  655SOL    HW1 1964   0.339   2.515   0.925  0.1834 -1.5195 -2.1788
  655SOL    HW2 1965   0.397   2.522   1.088  0.1777 -1.1036  2.1603
  656SOL     OW 1966   3.096   2.847   2.399  0.5790  0.2041  0.3732
  656SOL    HW1 1967   0.007   2.951   2.405 -2.0106  2.9297 -2.0342
  656SOL    HW2 1968   0.046   2.801   2.330  0.4797  1.5152  1.6646
  657SOL     OW 1969   2.538   0.497   2.498  0.2901  0.4796  0.0954
  657SOL    HW1 1970   2.574   0.518   2.408 -2.0708 -2.9371  3.3890
  657SOL    HW2 1971   2.526   0.398   2.509 -0.8443 -2.1408 -0.1739
  658SOL     OW 1972   2.113   1.923   0.938  0.0079 -0.5632  0.0113
  658SOL    HW1 1973   2.212   1.905   0.943 -1.1847  1.2180  0.8413
  658SOL    HW2 1974   2.072   1.952   0.849 -0.8932 -1.7457 -1.9287
  659SOL     OW 1975   2.247   2.995   0.087 -0.9781 -0.1310  0.0589
  659SOL    HW1 1976   2.282   2.956   0.004 -2.3547  0.1526  1.8726
  659SOL    HW2 1977   2.159   3.049   0.080 -1.4434 -1.6274 -0.7433
  660SOL     OW 1978   1.625   1.236   2.784 -0.0402 -0.4424 -0.0147
  660SOL    HW1 1979   1.621   1.331   2.818  1.7417 -0.1882  1.4861
  660SOL    HW2 1980   1.572   1.229   2.694 -1.2278 -0.3060 -1.2835
  661SOL     OW 1981   2.342   2.469   1.076 -0.6418 -0.0338  0.0228
  661SOL    HW1 1982   2.415   2.423   1.019 -0.2314  0.8721 -0.8319
  661SOL    HW2 1983   2.365   2.467   1.175 -2.6986 -0.4648  2.1260
  662SOL     OW 1984   0.788   0.907   0.167  0.1129 -0.2643  0.0041
  662SOL    HW1 1985   0.702   0.876   0.114 -1.9241 -1.8973 -1.0715
  662SOL    HW2 1986   0.769   0.924   0.265  0.4982 -0.3761 -1.1967
  663SOL     OW 1987   2.014   2.550   0.149 -0.1079 -0.2710  0.0530
  663SOL    HW1 1988   1.983   2.464   0.103  2.3780  0.2772 -1.4662
  663SOL    HW2 1989   2.115   2.540   0.176 -0.0791 -0.6918 -0.0448
  664SOL     OW 1990   0.682   2.172   1.561  0.5110 -0.4911 -0.0054
  664SOL    HW1 1991   0.773   2.176   1.515 -0.7012 -2.0171 -1.0754
  664SOL    HW2 1992   0.693   2.194   1.662  0.4862  0.9597  1.0879
  665SOL     OW 1993   1.833   2.245   2.211  0.7987 -0.0752 -0.4438
  665SOL    HW1 1994   1.897   2.316   2.258  2.5621 -0.1323  1.2367
  665SOL    HW2 1995   1.848   2.149   2.242  0.4608 -2.1862 -2.7033
  666SOL     OW 1996   0.270   2.247   0.214 -0.1824  0.2396 -0.5474
  666SOL    HW1 1997   0.355   2.195   0.194 -1.0135 -0.1480 -1.3296
  666SOL    HW2 1998   0.229   2.292   0.134 -0.2346  0.5515 -0.4766
  667SOL     OW 1999   2.318   1.547   2.071  0.7113  0.9961  0.6669
  667SOL    HW1 2000   2.353   1.633   2.027 -0.2286  0.8916 -0.7002
  667SOL    HW2 2001   2.219   1.545   2.092  0.3944  0.0959  0.3481
  668SOL     OW 2002   0.461   0.634   2.688 -0.0004  0.1534  0.4812
  668SOL    HW1 2003   0.508   0.624   2.599  1.2879 -1.2658  2.6928
  668SOL    HW2 2004   0.526   0.637   2.765  0.5892 -1.3192 -1.1755
  669SOL     OW 2005   1.773   2.289   2.943  0.6277  0.6661 -0.0278
  669SOL    HW1 2006   1.675   2.314   2.936  0.0648 -0.0965 -0.7153
  669SOL    HW2 2007   1.788   2.186   2.943  3.9251 -1.1639  0.5801
  670SOL     OW 2008   2.353   1.780   2.932 -0.1485 -0.2865 -0.1308
  670SOL    HW1 2009   2.342   1.829   3.023 -2.5494  1.2005  1.1117
  670SOL    HW2 2010   2.404   1.688   2.944 -0.4374 -4.4864 -0.2049
  671SOL     OW 2011   0.320   1.228   1.203 -0.5167 -0.1009 -0.4247
  671SOL    HW1 2012   0.266   1.203   1.117 -0.1595  0.2487  0.5612
  671SOL    HW2 2013   0.380   1.148   1.227  1.0905 -0.8426  1.5363
  672SOL     OW 2014   2.656   0.828   2.236 -0.2798  0.4798 -0.0641
  672SOL    HW1 2015   2.690   0.921   2.204 -0.4363 -0.2761  1.2004
  672SOL    HW2 2016   2.629   0.827   2.333 -0.2242 -0.8249  1.3868
  673SOL     OW 2017   2.368   2.635   2.088  0.2659 -0.6795 -0.0826
  673SOL    HW1 2018   2.434   2.555   2.092 -1.7243  0.4484  2.2763
  673SOL    HW2 2019   2.311   2.632   2.009 -0.6125 -1.2351 -0.0237
  674SOL     OW 2020   1.397   2.544   2.192  0.0623 -0.0906 -1.0421
  674SOL    HW1 2021   1.364   2.468   2.135  1.8337 -0.1296 -0.9865
  674SOL    HW2 2022   1.346   2.547   2.281  0.8396  1.5852 -2.7466
  675SOL     OW 2023   0.491   0.575   1.363 -0.0225 -0.0597 -0.2239
  675SOL    HW1 2024   0.444   0.657   1.306 -2.2097  5.6724 -2.1404
  675SOL    HW2 2025   0.563   0.615   1.428 -1.1308  2.5050  2.1879
  676SOL     OW 2026   1.792   1.024   0.917  0.4163 -0.4469 -0.6902
  676SOL    HW1 2027   1.729   0.947   0.885  2.0165 -0.6345  2.1775
  676SOL    HW2 2028   1.848   1.067   0.845  0.8115 -1.1060  1.0466
  677SOL     OW 2029   3.058   1.614   2.774  0.2713 -0.7806  0.4554
  677SOL    HW1 2030   0.020   1.620   2.699 -3.2389 -2.0588  0.7488
  677SOL    HW2 2031   2.971   1.588   2.725  0.0263 -1.1740 -0.7672
  678SOL     OW 2032   2.386   1.897   0.902 -0.0106 -0.2001 -0.3853
  678SOL    HW1 2033   2.421   1.809   0.871 -0.3510  5.7715  0.6589
  678SOL    HW2 2034   2.421   1.910   0.999 -1.6898  0.5543  1.8462
  679SOL     OW 2035   1.778   2.758   0.537  0.0588 -0.6293  0.0313
  679SOL    HW1 2036   1.805   2.725   0.447 -1.4052 -0.2985  2.3695
  679SOL    HW2 2037   1.829   2.702   0.602 -0.6721  0.1346 -2.0323
  680SOL     OW 2038   0.346   2.557   2.215 -0.0558 -0.8188  0.2609
  680SOL    HW1 2039   0.378   2.541   2.311  2.5308 -0.5375 -2.1115
  680SOL    HW2 2040   0.363   2.479   2.154  0.9377  0.2911  0.0960
  681SOL     OW 2041   2.705   1.431   1.768 -0.4969 -0.2022  0.3168
  681SOL    HW1 2042   2.778   1.357   1.758  0.8661 -0.0969  0.3563
  681SOL    HW2 2043   2.683   1.457   1.866  1.0510 -1.2189  1.9992
  682SOL     OW 2044   0.606   1.654   1.227  0.0748 -0.1107 -0.0673
  682SOL    HW1 2045   0.607   1.701   1.317  1.1454  2.0473 -0.7900
  682SOL    HW2 2046   0.658   1.712   1.163  1.8194 -1.8195 -1.5360
  683SOL     OW 2047   2.197   1.619   1.175  0.0197  0.5022 -0.1436
  683SOL    HW1 2048   2.206   1.601   1.072 -0.8382 -1.9767  0.1893
  683SOL    HW2 2049   2.162   1.712   1.196  1.8972  2.9054  1.0659
  684SOL     OW 2050   2.744   1.616   2.892  0.7903 -0.2210  0.5812
  684SOL    HW1 2051   2.785   1.626   2.798  0.7014 -0.5910 -1.9698
  684SOL    HW2 2052   2.643   1.596   2.889  0.0809 -0.5205 -0.2076
  685SOL     OW 2053   1.594   1.087   3.006  0.2940 -0.3113  0.2661
  685SOL    HW1 2054   1.604   1.158   2.931 -1.0511  1.5605  2.8573
  685SOL    HW2 2055   1.487   1.075   3.020 -1.1751 -1.2011  1.8431
  686SOL     OW 2056   0.228   0.490   1.489  0.4092  0.3126 -0.3856
  686SOL    HW1 2057   0.318   0.484   1.444 -2.1636 -0.3167 -2.4163
  686SOL    HW2 2058   0.218   0.426   1.569 -0.6589  0.9465 -0.4841
  687SOL     OW 2059   1.297   2.032   2.553 -0.2372 -0.1606  0.4296
  687SOL    HW1 2060   1.357   2.068   2.478  0.6966 -1.6948 -0.4642
  687SOL    HW2 2061   1.297   2.104   2.630  0.3531  1.0796 -0.9111
  688SOL     OW 2062   0.364   1.660   1.396  0.6053  0.4711 -0.2882
  688SOL    HW1 2063   0.428   1.708   1.462  2.1223  0.2535 -0.3533
  688SOL    HW2 2064   0.368   1.691   1.300 -1.3292  1.2049 -0.1890
  689SOL     OW 2065   1.396   1.075   1.635  0.4754  0.3705 -0.4405
  689SOL    HW1 2066   1.391   1.067   1.536 -4.5923 -1.1801  3.4785
  689SOL    HW2 2067   1.306   1.095   1.672  2.0092  3.0460  0.8726
  690SOL     OW 2068   2.579   0.880   1.017  0.7306  0.9467  0.0841
  690SOL    HW1 2069   2.620   0.790   1.054  1.4308 -2.9200 -0.8013
  690SOL    HW2 2070   2.642   0.941   0.967  0.7711 -0.5094  1.8085
  691SOL     OW 2071   0.729   2.183   1.840 -0.1619  0.0962 -0.2621
  691SOL    HW1 2072   0.805   2.117   1.863  1.5207  0.6959  2.0578
  691SOL    HW2 2073   0.753   2.278   1.868  0.2595  2.1299 -0.7964
  692SOL     OW 2074   1.970   0.341   0.981  0.1146  0.0132 -0.1013
  692SOL    HW1 2075   1.921   0.252   0.972  2.3006  0.2498 -0.4525
  692SOL    HW2 2076   2.054   0.341   0.918 -2.2366 -0.7308  0.1054
  693SOL     OW 2077   0.278   1.177   2.275  0.4927  0.4854 -0.5608
  693SOL    HW1 2078   0.268   1.247   2.346 -2.0185 -1.3315  2.8742
  693SOL    HW2 2079   0.365   1.129   2.294  0.6904  2.6249  0.7130
  694SOL     OW 2080   2.293   0.634   1.313 -0.4941 -0.1975  0.1013
  694SOL    HW1 2081   2.372   0.572   1.335  1.0017 -3.7545  0.2966
  694SOL    HW2 2082   2.313   0.730   1.344 -0.5015 -0.4042 -0.2036
  695SOL     OW 2083   1.143   1.479   1.634 -0.3034  0.2114  0.6465
  695SOL    HW1 2084   1.209   1.526   1.572  0.6549  2.5582  0.6008
  695SOL    HW2 2085   1.127   1.384   1.603  0.6406  0.8125  1.8789
  696SOL     OW 2086   1.174   2.686   0.197 -0.3671 -0.7667  0.2800
  696SOL    HW1 2087   1.169   2.784   0.221  1.3795  0.4539 -0.4174
  696SOL    HW2 2088   1.234   2.631   0.258 -0.4933  1.0753  1.2588
  697SOL     OW 2089   0.986   0.356   0.764  0.2344  0.1122 -0.0929
  697SOL    HW1 2090   0.933   0.270   0.750  1.8018 -0.0597  0.7203
  697SOL    HW2 2091   1.057   0.345   0.844 -0.2082  0.3068 -1.4164
  698SOL     OW 2092   1.179   1.485   2.528  0.1518 -0.2768  0.3438
  698SOL    HW1 2093   1.239   1.404   2.548 -0.2068  0.2841  0.6140
  698SOL    HW2 2094   1.231   1.571   2.515 -2.4572 -0.8985  2.4198
  699SOL     OW 2095   1.590   0.912   1.201 -0.0842 -0.2307  0.2788
  699SOL    HW1 2096   1.521   0.944   1.134  1.1290  0.4010 -1.4303
  699SOL    HW2 2097   1.676   0.974   1.199  2.1880 -1.0531 -1.3931
  700SOL     OW 2098   0.851   2.866   0.480  0.6096  0.2484 -0.0602
  700SOL    HW1 2099   0.762   2.913   0.500  0.4169  1.4029 -0.1689
  700SOL    HW2 2100   0.928   2.925   0.505 -0.6570 -3.7566 -2.1690
  701SOL     OW 2101   2.518   3.011   2.592  0.5896 -0.2407 -0.0785
  701SOL    HW1 2102   2.563   3.036   2.681  1.0066  0.3835 -0.0049
  701SOL    HW2 2103   2.582   3.016   2.514  0.1807 -0.6257 -0.7313
  702SOL     OW 2104   1.191   0.301   2.994  0.3186  0.0958 -0.0616
  702SOL    HW1 2105   1.290   0.318   3.009  1.7528 -0.2142  1.8346
  702SOL    HW2 2106   1.140   0.389   3.008  0.3779  0.0568  1.1020
  703SOL     OW 2107   2.631   3.016   2.345 -0.1520 -0.3784  0.6239
  703SOL    HW1 2108   2.559   3.068   2.299 -0.0933  1.7941  0.7429
  703SOL    HW2 2109   2.643   2.918   2.315  0.9770 -0.2140  1.5682
  704SOL     OW 2110   0.097   1.866   0.810 -0.5054  0.2651  0.4381
  704SOL    HW1 2111   0.014   1.862   0.869  1.8702  0.7066 -1.1754
  704SOL    HW2 2112   0.066   1.878   0.713  0.3055  1.2631 -0.1696
  705SOL     OW 2113   2.968   3.031   2.095 -0.3234 -0.4610  0.8997
  705SOL    HW1 2114   3.068   3.009   2.110  0.1905 -1.7775  0.5026
  705SOL    HW2 2115   2.913   2.957   2.056  1.5182  1.9478 -0.0601
  706SOL     OW 2116   1.823   2.985   0.189 -0.4003 -0.2921 -0.5050
  706SOL    HW1 2117   1.838   2.889   0.221  1.8292 -0.9049 -1.3416
  706SOL    HW2 2118   1.728   2.994   0.186  4.2854  0.4151 -0.7974
  707SOL     OW 2119   0.924   1.868   2.158  0.3568  0.3065 -0.3293
  707SOL    HW1 2120   1.016   1.883   2.201  2.6618 -3.0897 -1.5739
  707SOL    HW2 2121   0.938   1.775   2.117 -0.1595  1.7452 -1.6210
  708SOL     OW 2122   0.019   2.495   1.724 -0.0440  0.1826  0.0667
  708SOL    HW1 2123   0.108   2.476   1.673  0.3935  0.4922 -1.1112
  708SOL    HW2 2124   0.009   2.597   1.729  0.4660 -0.6001  2.0074
  709SOL     OW 2125   2.100   3.096   1.897  0.3089  0.4386  0.6106
  709SOL    HW1 2126   2.091   3.016   1.961 -0.0662  0.9005 -0.0851
  709SOL    HW2 2127   2.122   3.061   1.801 -0.9289 -0.9541  0.1392
  710SOL     OW 2128   2.182   0.771   2.497 -0.0527 -0.1252  0.8916
  710SOL    HW1 2129   2.084   0.798   2.505 -1.5072 -1.1927  1.4076
  710SOL    HW2 2130   2.212   0.708   2.568 -1.4284 -0.1284 -0.5414
  711SOL     OW 2131   1.156   2.291   3.073  0.0510  0.0889 -0.8090
  711SOL    HW1 2132   1.118   2.299   0.061  1.0132  1.2179  1.0187
  711SOL    HW2 2133   1.213   2.377   3.045  3.1535  0.8800 -0.1534
  712SOL     OW 2134   0.686   2.577   2.102 -0.1623  0.0796 -0.7583
  712SOL    HW1 2135   0.719   2.571   2.194  0.5150 -0.4193 -3.1035
  712SOL    HW2 2136   0.585   2.583   2.097  3.0440  0.4514 -0.5352
  713SOL     OW 2137   1.721   1.189   0.156 -0.2082 -0.3998  0.1035
  713SOL    HW1 2138   1.670   1.154   0.074 -1.6512  0.8502 -0.8659
  713SOL    HW2 2139   1.800   1.245   0.121 -0.4408 -1.0952 -0.8577
  714SOL     OW 2140   0.786   1.287   1.288 -0.1580  0.1020 -0.1969
  714SOL    HW1 2141   0.786   1.258   1.388 -0.4203 -2.8898  0.4293
  714SOL    HW2 2142   0.697   1.326   1.257 -0.1826  1.0882 -0.8847
  715SOL     OW 2143   2.007   0.354   2.909 -0.4347  0.4674  0.3557
  715SOL    HW1 2144   1.969   0.446   2.897  1.6803 -0.7779  0.2942
  715SOL    HW2 2145   2.011   0.329   3.007  0.8628 -1.8509  3.3207
  716SOL     OW 2146   2.847   2.790   2.018 -0.1432  0.0441 -0.9491
  716SOL    HW1 2147   2.808   2.815   1.924  0.4905 -1.9789 -1.0866
  716SOL    HW2 2148   2.920   2.716   2.008 -0.4162 -1.2732  0.7999
  717SOL     OW 2149   0.284   0.704   1.002 -0.1873  0.6639 -0.5362
  717SOL    HW1 2150   0.356   0.695   0.935 -1.5650 -2.2663  0.0499
  717SOL    HW2 2151   0.219   0.625   0.991 -0.1554  0.1024 -2.0187
  718SOL     OW 2152   0.562   1.367   2.249 -0.1805  0.1861 -0.2807
  718SOL    HW1 2153   0.602   1.442   2.305  2.9780 -0.1432  0.1798
  718SOL    HW2 2154   0.548   1.393   2.148 -1.3702 -0.1362 -0.3455
  719SOL     OW 2155   2.431   1.261   3.003 -0.2844 -0.5168  0.1607
  719SOL    HW1 2156   2.373   1.229   3.084  0.5792 -0.6137  4.7564
  719SOL    HW2 2157   2.520   1.218   2.998  0.8712 -1.5764 -3.4247
  720SOL     OW 2158   1.148   0.701   0.878  0.2331 -0.1885 -0.8187
  720SOL    HW1 2159   1.061   0.645   0.882 -1.0199 -0.7271  0.4948
  720SOL    HW2 2160   1.141   0.786   0.934  2.4543  0.4430  0.5812
  721SOL     OW 2161   2.724   0.413   0.068 -0.2883 -0.2318  0.4287
  721SOL    HW1 2162   2.733   0.513   0.038  0.2000  3.4135 -0.6047
  721SOL    HW2 2163   2.740   0.353   3.096  2.3401  0.2721  0.2077
  722SOL     OW 2164   1.978   0.616   2.745  0.3105  0.0296  0.1507
  722SOL    HW1 2165   2.080   0.626   2.756 -0.5067  1.9687 -0.4394
  722SOL    HW2 2166   1.965   0.603   2.643  0.1776  0.6066 -2.0971
  723SOL     OW 2167   2.889   0.698   0.429 -0.5469 -0.1996 -0.8394
  723SOL    HW1 2168   2.886   0.623   0.498 -1.1601 -1.6733  1.9952
  723SOL    HW2 2169   2.953   0.668   0.361 -4.5580  0.0960  1.4507
  724SOL     OW 2170   0.995   1.616   2.055 -0.5724  0.6065 -0.6527
  724SOL    HW1 2171   1.038   1.547   2.118 -2.0164  0.8504 -1.3049
  724SOL    HW2 2172   0.951   1.569   1.980 -1.6499  1.0891 -2.6118
  725SOL     OW 2173   1.893   0.784   2.084 -0.2662 -0.5049 -0.0912
  725SOL    HW1 2174   1.991   0.820   2.089  3.2845  1.8448  0.4445
  725SOL    HW2 2175   1.844   0.818   2.001  0.1716 -0.8760 -0.7611
  726SOL     OW 2176   1.551   2.907   0.560 -0.1055  0.0944 -0.6096
  726SOL    HW1 2177   1.637   2.852   0.548 -1.6209 -0.7697 -0.1378
  726SOL    HW2 2178   1.467   2.844   0.566 -1.3041 -2.0713 -1.3191
  727SOL     OW 2179   1.566   1.670   2.200  0.5463 -0.2307  0.4406
  727SOL    HW1 2180   1.475   1.637   2.172  1.1516  0.4115  1.7806
  727SOL    HW2 2181   1.602   1.737   2.137  0.3060 -0.6891  0.9725
  728SOL     OW 2182   1.835   2.834   1.545 -0.1435  0.1332  0.4325
  728SOL    HW1 2183   1.810   2.812   1.640  2.3006  2.3201 -3.7889
  728SOL    HW2 2184   1.874   2.756   1.493 -0.9659  2.2326  2.2910
  729SOL     OW 2185   2.134   1.190   0.882  0.3899  0.4215 -0.1458
  729SOL    HW1 2186   2.112   1.292   0.877  2.0759 -0.1989 -0.0833
  729SOL    HW2 2187   2.159   1.154   0.795 -1.6095 -0.4974  1.8059
  730SOL     OW 2188   0.495   1.290   2.634  0.1026  0.5896  0.2148
  730SOL    HW1 2189   0.586   1.330   2.626 -0.5071 -0.6812 -3.1601
  730SOL    HW2 2190   0.501   1.203   2.687  0.3844 -0.6611 -2.2114
  731SOL     OW 2191   0.119   0.035   0.787 -0.1192 -0.0677  0.2758
  731SOL    HW1 2192   0.161   0.001   0.699 -1.0251  1.2602  1.2435
  731SOL    HW2 2193   0.175   0.000   0.866  1.0639  0.3730  1.5955
  732SOL     OW 2194   1.414   0.898   0.384  0.1725  0.0188  0.0863
  732SOL    HW1 2195   1.375   0.908   0.292  0.2300 -3.2488 -1.4012
  732SOL    HW2 2196   1.347   0.874   0.454  0.2931  0.1311  0.6494
  733SOL     OW 2197   0.675   1.653   0.868  0.0278 -0.5162  0.3456
  733SOL    HW1 2198   0.652   1.557   0.901  0.3848 -2.7142 -1.4523
  733SOL    HW2 2199   0.605   1.693   0.808  2.9908  0.4547  1.5825
  734SOL     OW 2200   0.013   2.319   0.067 -0.6477  0.5765 -0.0912
  734SOL    HW1 2201   3.062   2.236   0.053  1.9050 -0.8478 -0.8984
  734SOL    HW2 2202   0.007   2.344   0.165  1.7597  0.9965 -1.7412
  735SOL     OW 2203   1.284   0.748   1.312 -0.7068  0.0137 -0.1182
  735SOL    HW1 2204   1.295   0.667   1.251  0.8837  2.2996  1.8028
  735SOL    HW2 2205   1.355   0.760   1.383 -2.0378  2.0983  1.5454
  736SOL     OW 2206   2.429   2.490   0.020  0.2791 -0.2105  0.3098
  736SOL    HW1 2207   2.425   2.559   3.054  2.0799 -2.0210 -2.2290
  736SOL    HW2 2208   2.373   2.517   0.100  0.3639 -0.6445 -0.9297
  737SOL     OW 2209   2.738   0.490   0.747  0.6852 -0.5919  0.0834
  737SOL    HW1 2210   2.662   0.452   0.801  2.5962  1.7547 -1.4586
  737SOL    HW2 2211   2.736   0.594   0.759  1.6863  0.9263  2.3962
  738SOL     OW 2212   2.405   0.202   1.003  0.4808 -0.2311  0.5222
  738SOL    HW1 2213   2.388   0.183   1.099  0.6633 -0.5303 -1.9916
  738SOL    HW2 2214   2.381   0.114   0.954 -0.7437 -2.8432 -1.8066
  739SOL     OW 2215   1.382   2.593   0.371  0.3238  0.0480 -0.0317
  739SOL    HW1 2216   1.423   2.510   0.413 -0.5100  0.8489  0.2652
  739SOL    HW2 2217   1.346   2.650   0.446  1.1791 -0.3457  1.1337
  740SOL     OW 2218   1.625   0.579   1.088 -0.1568 -0.0663  0.2570
  740SOL    HW1 2219   1.550   0.629   1.042  1.5607  0.5896  0.2969
  740SOL    HW2 2220   1.714   0.603   1.041 -1.2875  0.5579 -0.9545
  741SOL     OW 2221   2.677   0.774   0.707 -0.0757  0.6260 -0.5079
  741SOL    HW1 2222   2.780   0.782   0.721  2.3650 -0.6510 -0.3641
  741SOL    HW2 2223   2.642   0.868   0.723  2.5730  0.7480  0.6567
  742SOL     OW 2224   0.744   1.405   2.660  0.2309 -0.2294  0.4014
  742SOL    HW1 2225   0.803   1.442   2.589 -0.4115  1.8606  2.3761
  742SOL    HW2 2226   0.684   1.475   2.692  0.6263 -1.9713  0.5817
  743SOL     OW 2227   1.550   0.806   1.986 -0.1377  0.0644 -0.1007
  743SOL    HW1 2228   1.642   0.810   1.942  1.5744  0.5708 -2.4430
  743SOL    HW2 2229   1.485   0.863   1.938  0.3178  2.3187  1.6196
  744SOL     OW 2230   2.260   0.914   1.625 -0.1194  0.5300  1.1435
  744SOL    HW1 2231   2.269   0.916   1.522  0.3416  0.9787  0.2511
  744SOL    HW2 2232   2.318   0.985   1.667 -0.0089 -0.8838  0.8656
  745SOL     OW 2233   1.661   1.629   1.444 -0.2046  0.4752  0.4719
  745SOL    HW1 2234   1.634   1.665   1.357 -2.8952 -0.5388  2.4777
  745SOL    HW2 2235   1.681   1.532   1.430  1.9415  2.2453  0.7559
  746SOL     OW 2236   1.907   1.781   0.778 -0.8730 -0.0657 -0.5864
  746SOL    HW1 2237   1.836   1.776   0.851 -0.2779 -0.4755  0.9648
  746SOL    HW2 2238   1.987   1.739   0.825  1.3850 -2.5268  2.2007
  747SOL     OW 2239   2.229   1.597   0.904 -0.0704  0.0109 -0.2937
  747SOL    HW1 2240   2.313   1.603   0.843  1.1451 -0.4749  0.1812
  747SOL    HW2 2241   2.165   1.530   0.860 -1.2687 -0.3463 -0.4770
  748SOL     OW 2242   0.678   2.056   0.917 -0.1193  0.1722  0.5357
  748SOL    HW1 2243   0.647   2.081   0.819 -0.8661  1.2889 -2.9805
  748SOL    HW2 2244   0.613   2.098   0.980  1.4562  0.2956 -2.7768
  749SOL     OW 2245   2.408   2.913   2.057  0.2997  0.4933  0.0303
  749SOL    HW1 2246   2.317   2.866   2.054 -0.1871 -0.5551 -0.8657
  749SOL    HW2 2247   2.474   2.853   2.103 -2.8059  2.8802  0.2726
  750SOL     OW 2248   2.393   0.510   0.760 -0.3095  0.0749  0.4324
  750SOL    HW1 2249   2.432   0.511   0.666  0.7372  0.9005 -1.2243
  750SOL    HW2 2250   2.383   0.603   0.798  1.3214  1.6731 -1.2845
  751SOL     OW 2251   2.710   2.907   0.467 -0.5628  0.5129 -0.0619
  751SOL    HW1 2252   2.742   2.811   0.473  0.9469 -2.8216 -1.3993
  751SOL    HW2 2253   2.713   2.930   0.370  0.9726 -2.0255  1.7755
  752SOL     OW 2254   0.183   3.058   0.530  0.3274 -0.2520  0.0895
  752SOL    HW1 2255   0.105   3.009   0.481 -0.9656 -1.7075  1.3863
  752SOL    HW2 2256   0.235   0.012   0.460  1.5537  1.9105  2.1925
  753SOL     OW 2257   1.597   0.757   2.269  0.1675 -0.5205  0.1981
  753SOL    HW1 2258   1.587   0.763   2.170  3.8238 -0.8041 -0.2997
  753SOL    HW2 2259   1.691   0.784   2.300 -1.4844  0.8349  0.6927
  754SOL     OW 2260   1.323   2.343   2.010  0.3359 -0.5235 -0.0321
  754SOL    HW1 2261   1.280   2.401   1.938 -0.1410 -0.7340  1.9297
  754SOL    HW2 2262   1.403   2.291   1.980  0.3764 -0.7650 -0.5868
  755SOL     OW 2263   2.504   0.678   0.535  0.2358  0.5676 -0.0347
  755SOL    HW1 2264   2.581   0.705   0.597 -1.1481  0.3823  1.4512
  755SOL    HW2 2265   2.524   0.682   0.437  1.2814 -0.4919  3.5891
  756SOL     OW 2266   1.094   1.736   2.770 -0.6278 -0.0853  0.0528
  756SOL    HW1 2267   1.109   1.649   2.822  1.7228  0.6411  0.3843
  756SOL    HW2 2268   1.000   1.764   2.786 -0.9064 -1.9093 -0.6122
  757SOL     OW 2269   1.018   3.039   0.617  0.3097 -0.6030  0.1767
  757SOL    HW1 2270   1.060   0.015   0.572 -0.5635  2.0348  1.4921
  757SOL    HW2 2271   1.061   3.018   0.705 -0.3713  0.3469 -4.3396
  758SOL     OW 2272   1.133   0.041   1.101  0.2968  0.0258 -0.2928
  758SOL    HW1 2273   1.097   3.090   1.024  0.5888 -2.9514 -1.5299
  758SOL    HW2 2274   1.057   0.048   1.174 -0.9492 -0.1912  1.2569
  759SOL     OW 2275   0.452   0.518   0.738  0.3434  0.1424 -0.8544
  759SOL    HW1 2276   0.361   0.559   0.712  0.9157 -1.5392  0.2290
  759SOL    HW2 2277   0.439   0.442   0.804 -1.2563  1.0989  0.8642
  760SOL     OW 2278   2.438   1.082   1.165  0.1740 -0.0894 -0.5701
  760SOL    HW1 2279   2.494   1.008   1.118  2.6680 -0.2397 -1.5794
  760SOL    HW2 2280   2.495   1.159   1.200 -1.1070 -1.2687  2.0706
  761SOL     OW 2281   1.812   0.642   0.706 -0.2767 -0.7336 -0.4159
  761SOL    HW1 2282   1.761   0.562   0.674  2.8837  1.6880  1.2128
  761SOL    HW2 2283   1.834   0.629   0.805  0.1441 -0.8523  0.9829
  762SOL     OW 2284   2.135   2.165   0.652 -0.3462 -0.2569  0.0550
  762SOL    HW1 2285   2.055   2.134   0.596  3.3300 -1.1418  0.4884
  762SOL    HW2 2286   2.104   2.242   0.712 -1.5597 -1.7194  0.0551
  763SOL     OW 2287   1.353   1.499   1.883 -0.0957  0.1271  0.4771
  763SOL    HW1 2288   1.341   1.518   1.981 -1.1085 -0.5898 -0.9213
  763SOL    HW2 2289   1.274   1.519   1.820 -3.0729 -0.8028 -1.1752
  764SOL     OW 2290   2.555   2.041   2.461 -0.0930  0.3590  0.1014
  764SOL    HW1 2291   2.522   2.110   2.532 -1.3639  1.5067  0.9103
  764SOL    HW2 2292   2.631   2.083   2.401  2.0500  2.2292  0.1476
  765SOL     OW 2293   0.750   2.432   1.107 -0.2854  0.0132  0.2911
  765SOL    HW1 2294   0.738   2.422   1.004 -3.1297 -3.5833 -1.9519
  765SOL    HW2 2295   0.760   2.535   1.123 -1.7691  0.0292 -1.5991
  766SOL     OW 2296   0.123   1.586   2.570  0.1966  0.5367 -0.1622
  766SOL    HW1 2297   0.212   1.553   2.533  0.8852 -1.6211 -1.9186
  766SOL    HW2 2298   0.050   1.565   2.499  0.5698 -0.4847  0.8080
  767SOL     OW 2299   2.242   0.624   2.733  0.4454  0.0534  0.6175
  767SOL    HW1 2300   2.244   0.524   2.714  0.7739 -0.9198  1.8599
  767SOL    HW2 2301   2.295   0.645   2.817 -0.1944  0.6487 -2.2968
  768SOL     OW 2302   0.886   3.020   2.725  0.0905 -0.5123 -0.3606
  768SOL    HW1 2303   0.872   2.989   2.822 -1.8089 -1.1141  0.2162
  768SOL    HW2 2304   0.837   2.956   2.663  0.2927  3.3205  0.6186
  769SOL     OW 2305   0.239   2.529   0.793 -0.1530 -0.0558 -0.3633
  769SOL    HW1 2306   0.233   2.576   0.700  1.8887 -0.7024  0.4709
  769SOL    HW2 2307   0.142   2.510   0.823 -1.5213  0.0068 -0.7134
  770SOL     OW 2308   0.830   0.021   0.107 -0.1818 -0.2049 -0.2797
  770SOL    HW1 2309   0.915   0.045   0.052  1.3272  0.8722  1.4381
  770SOL    HW2 2310   0.762   0.095   0.120  1.5353 -0.1241  0.0237
  771SOL     OW 2311   1.162   1.792   2.489 -0.0723 -0.0077  0.2202
  771SOL    HW1 2312   1.133   1.770   2.579  0.8198  3.1401 -0.8140
  771SOL    HW2 2313   1.227   1.877   2.492  2.3345 -2.5332  0.0892
  772SOL     OW 2314   2.416   0.014   2.217  0.0099 -0.0822  0.3694
  772SOL    HW1 2315   2.400   3.039   2.157 -0.6356 -0.3674 -0.5211
  772SOL    HW2 2316   2.328   0.051   2.254 -1.1225  0.3492 -1.3466
  773SOL     OW 2317   1.473   0.161   2.052  0.9562  0.4841  0.3193
  773SOL    HW1 2318   1.544   0.219   2.086 -0.6232 -1.7872 -1.2758
  773SOL    HW2 2319   1.510   0.079   2.006  0.5113  0.6715 -1.1390
  774SOL     OW 2320   1.574   0.873   1.670  0.3679  0.5072 -0.5100
  774SOL    HW1 2321   1.519   0.957   1.668  0.4138 -1.2782 -0.8875
  774SOL    HW2 2322   1.576   0.842   1.574 -0.2964  0.7766 -1.8071
  775SOL     OW 2323   2.207   2.986   0.369  0.4433 -0.9216 -0.1298
  775SOL    HW1 2324   2.285   3.002   0.432 -2.3403 -0.6043 -1.3976
  775SOL    HW2 2325   2.230   2.995   0.272 -2.1932  3.1057  0.3110
  776SOL     OW 2326   2.057   1.004   2.055  0.1784  0.5333 -0.1438
  776SOL    HW1 2327   2.048   1.102   2.038 -0.7240 -1.8987 -0.3292
  776SOL    HW2 2328   2.151   0.972   2.033  2.9194  1.7809 -0.1476
  777SOL     OW 2329   0.040   1.243   2.506 -0.4483 -0.0221  0.6538
  777SOL    HW1 2330   0.083   1.153   2.486  0.6433  2.3566  0.4296
  777SOL    HW2 2331   3.093   1.275   2.429 -0.2746  0.9425  2.4053
  778SOL     OW 2332   2.367   0.948   2.418 -0.2339  0.2476 -0.0098
  778SOL    HW1 2333   2.285   0.900   2.465 -1.1146 -0.5361 -1.4974
  778SOL    HW2 2334   2.452   0.896   2.437 -0.8358 -0.1861 -0.8470
  779SOL     OW 2335   2.881   0.345   2.575  0.1236  0.1410 -0.6866
  779SOL    HW1 2336   2.892   0.351   2.472 -0.5795 -1.2072 -3.7359
  779SOL    HW2 2337   2.889   0.246   2.609  1.4370 -2.1320  2.8386
  780SOL     OW 2338   2.275   2.656   2.341 -0.6670 -0.2933 -0.4137
  780SOL    HW1 2339   2.210   2.733   2.332 -1.0243 -0.4126 -0.4222
  780SOL    HW2 2340   2.314   2.628   2.247  1.2526 -0.2260  0.5442
  781SOL     OW 2341   3.064   1.016   1.924 -0.2849  0.1939  0.0464
  781SOL    HW1 2342   3.082   0.923   1.958 -0.0057 -2.0153 -0.8622
  781SOL    HW2 2343   2.968   1.017   1.892 -2.8378 -2.3778 -0.2482
  782SOL     OW 2344   1.963   2.337   0.005  0.4809  0.4667  0.9820
  782SOL    HW1 2345   1.884   2.329   3.051 -0.2504 -0.2449 -1.0175
  782SOL    HW2 2346   2.035   2.283   3.074 -0.4324 -1.2100 -0.7880
  783SOL     OW 2347   0.523   2.228   1.086 -0.2480  0.0113 -0.1081
  783SOL    HW1 2348   0.473   2.298   1.038  2.3336  1.3677 -0.5140
  783SOL    HW2 2349   0.596   2.272   1.138 -0.7359 -2.0733 -0.5284
  784SOL     OW 2350   2.561   0.581   2.247  0.3158 -0.2625 -0.5448
  784SOL    HW1 2351   2.475   0.557   2.196 -2.6498  1.7587  0.1014
  784SOL    HW2 2352   2.601   0.665   2.211  0.3783 -0.7954  0.5567
  785SOL     OW 2353   0.124   0.085   1.162 -0.0241 -0.3442 -0.2604
  785SOL    HW1 2354   0.141   0.189   1.175  0.8772  0.5685  0.0043
  785SOL    HW2 2355   0.039   0.051   1.208 -2.6901 -1.9321  1.7250
  786SOL     OW 2356   1.300   2.715   0.584  0.1610 -0.2609 -0.0437
  786SOL    HW1 2357   1.334   2.706   0.678  2.6446 -0.5445  1.4259
  786SOL    HW2 2358   1.197   2.714   0.574  2.0097  2.0347  1.8725
  787SOL     OW 2359   1.398   0.243   0.824 -0.0033  1.0989 -0.0808
  787SOL    HW1 2360   1.379   0.277   0.728  0.3135  1.8979 -0.2764
  787SOL    HW2 2361   1.443   0.154   0.820 -2.1209  0.7361  0.1375
  788SOL     OW 2362   3.038   1.299   1.134  0.0042  0.1409 -0.5784
  788SOL    HW1 2363   3.064   1.380   1.073 -3.5394  4.5235  0.3498
  788SOL    HW2 2364   3.086   1.314   1.223 -0.2513 -0.0168 -2.2638
  789SOL     OW 2365   2.905   0.702   2.155 -0.4692  0.0943  0.1751
  789SOL    HW1 2366   2.815   0.721   2.199  0.0427 -2.1117  1.7319
  789SOL    HW2 2367   2.983   0.694   2.220 -1.6025  0.6830 -1.0968
  790SOL     OW 2368   1.090   0.726   2.871 -0.2039 -0.0084 -0.5807
  790SOL    HW1 2369   1.144   0.713   2.787 -1.3219  1.2869  0.2488
  790SOL    HW2 2370   1.046   0.819   2.867  0.5751  1.8176  3.1095
  791SOL     OW 2371   3.042   2.626   0.119 -0.5022  0.2245 -0.2108
  791SOL    HW1 2372   0.030   2.607   0.096  2.3088 -0.2945  1.6979
  791SOL    HW2 2373   2.976   2.640   0.041  1.5036  1.6408 -0.1026
  792SOL     OW 2374   1.263   0.718   1.809 -0.2341  0.7418 -0.1737
  792SOL    HW1 2375   1.282   0.695   1.904  2.4821  0.5678  0.0829
  792SOL    HW2 2376   1.307   0.653   1.743  3.9364  0.2158 -0.5449
  793SOL     OW 2377   2.935   0.363   1.223  0.1417  0.1629 -0.1306
  793SOL    HW1 2378   2.870   0.327   1.294 -4.2466 -1.0162 -5.2820
  793SOL    HW2 2379   2.880   0.385   1.141  2.0279 -0.5903  1.4771
  794SOL     OW 2380   3.021   0.194   2.059 -0.3991 -0.4326  0.9636
  794SOL    HW1 2381   2.983   0.101   2.077 -1.7673  0.4908  0.1279
  794SOL    HW2 2382   3.107   0.206   2.109  0.2202 -0.0293 -0.6827
  795SOL     OW 2383   0.407   1.866   0.021  0.4115  0.2366 -0.0742
  795SOL    HW1 2384   0.419   1.792   0.088 -1.1653 -0.1169 -0.9110
  795SOL    HW2 2385   0.447   1.955   0.059 -0.0431  1.9194  2.9222
  796SOL     OW 2386   2.797   0.719   0.036 -0.2810  0.2331  0.7551
  796SOL    HW1 2387   2.734   0.701   3.067  0.3016 -0.3965  0.8164
  796SOL    HW2 2388   2.762   0.785   0.109  1.2112 -1.5617 -1.0034
  797SOL     OW 2389   2.437   2.292   2.619 -0.3282  0.0343 -0.0296
  797SOL    HW1 2390   2.336   2.270   2.612  1.2110 -2.5405  1.1426
  797SOL    HW2 2391   2.457   2.380   2.574 -0.7767 -0.3587 -0.4158
  798SOL     OW 2392   2.805   0.089   1.070 -0.0966  0.3767  0.4405
  798SOL    HW1 2393   2.883   0.076   1.130 -1.5761 -2.1675 -0.1625
  798SOL    HW2 2394   2.806   0.179   1.023 -2.5351 -0.2966 -2.2409
  799SOL     OW 2395   0.188   0.051   1.464 -0.6787 -0.2549 -0.7759
  799SOL    HW1 2396   0.272   0.109   1.456  3.2132  0.8271  0.0833
  799SOL    HW2 2397   0.148   0.012   1.381  1.3761  0.6851  1.0291
  800SOL     OW 2398   0.408   1.715   0.244  0.2257  0.1202  0.1968
  800SOL    HW1 2399   0.339   1.645   0.240  0.5233  1.0858 -0.6008
  800SOL    HW2 2400   0.505   1.675   0.252 -0.2805 -3.3890  1.9799
  801SOL     OW 2401   1.503   2.108   0.499  0.4930 -0.1413  0.2092
  801SOL    HW1 2402   1.408   2.095   0.537  0.0077  0.2966 -2.5871
  801SOL    HW2 2403   1.569   2.108   0.582  1.2418 -2.1008 -0.5540
  802SOL     OW 2404   1.292   1.070   2.984  0.3042 -0.1244 -0.6349
  802SOL    HW1 2405   1.320   1.031   2.897  1.9722  1.0650  3.2238
  802SOL    HW2 2406   1.215   1.021   3.029 -0.8806 -1.6502  0.4077
  803SOL     OW 2407   1.149   1.761   1.890 -0.1795 -0.7854  0.4017
  803SOL    HW1 2408   1.179   1.850   1.932 -0.9255 -0.3803 -0.7803
  803SOL    HW2 2409   1.099   1.705   1.956  2.3191 -0.0232 -1.3293
  804SOL     OW 2410   1.628   2.396   1.064 -0.2162 -0.4639 -0.6380
  804SOL    HW1 2411   1.675   2.324   1.008 -0.9701  0.2176 -1.3806
  804SOL    HW2 2412   1.525   2.393   1.058 -4.0308  0.2541  0.0192
  805SOL     OW 2413   0.121   2.277   2.149 -0.0385  0.1678 -0.1546
  805SOL    HW1 2414   0.054   2.327   2.088  0.8130  0.6748 -0.2449
  805SOL    HW2 2415   0.210   2.269   2.101 -0.6715 -1.2538  2.6078
  806SOL     OW 2416   0.323   0.059   0.340 -0.0577 -0.3989  0.1869
  806SOL    HW1 2417   0.411   0.078   0.393 -1.5756  1.5054 -0.3971
  806SOL    HW2 2418   0.344   0.037   0.245  1.0426  1.6715  0.3848
  807SOL     OW 2419   2.621   0.732   2.942 -0.0137 -0.2677  0.0118
  807SOL    HW1 2420   2.529   0.779   2.947 -1.5727  0.8767  0.0345
  807SOL    HW2 2421   2.615   0.662   2.869 -3.2360  1.1753  1.6485
  808SOL     OW 2422   1.410   2.367   0.813 -0.2332 -0.1136  0.2629
  808SOL    HW1 2423   1.330   2.337   0.764 -0.0813  0.7767  1.1302
  808SOL    HW2 2424   1.496   2.361   0.767 -3.2210 -3.2905  3.7622
  809SOL     OW 2425   2.988   0.156   0.371 -0.3524 -0.0761  0.2131
  809SOL    HW1 2426   2.972   0.076   0.307  0.3182 -3.3212  0.2635
  809SOL    HW2 2427   3.071   0.213   0.344  0.1213 -0.0437 -1.0388
  810SOL     OW 2428   1.265   1.349   1.058 -0.1826  0.2402  0.2532
  810SOL    HW1 2429   1.212   1.329   1.142  0.1020 -1.2641  1.1768
  810SOL    HW2 2430   1.357   1.307   1.070  0.4494 -1.8612 -1.5285
  811SOL     OW 2431   1.501   2.884   1.277 -0.0411 -0.0258  0.5328
  811SOL    HW1 2432   1.488   2.963   1.346  0.2462  0.8411 -0.7548
  811SOL    HW2 2433   1.415   2.830   1.260 -1.2372 -0.4515 -0.0137
  812SOL     OW 2434   1.345   0.464   0.198 -0.3539 -0.1104 -0.6580
  812SOL    HW1 2435   1.372   0.369   0.171  0.0759  0.3805 -0.8171
  812SOL    HW2 2436   1.249   0.456   0.237  0.8054 -1.5508  2.4891
  813SOL     OW 2437   1.116   0.007   2.023 -0.4304 -0.3881  0.1399
  813SOL    HW1 2438   1.137   0.093   2.068  1.4129 -1.3434 -1.0719
  813SOL    HW2 2439   1.158   3.043   2.081  2.5071 -2.1916 -0.8918
  814SOL     OW 2440   0.554   2.867   0.815 -0.2641  0.5405  0.3417
  814SOL    HW1 2441   0.521   2.821   0.900 -1.3495 -0.6397 -0.3241
  814SOL    HW2 2442   0.489   2.851   0.736  0.4382  1.1627 -0.5136
  815SOL     OW 2443   0.231   2.619   0.513  0.3255  0.0858  0.5227
  815SOL    HW1 2444   0.130   2.626   0.531 -0.4928  2.4675 -1.4240
  815SOL    HW2 2445   0.244   2.532   0.456 -0.5493 -0.3955 -0.5095
  816SOL     OW 2446   2.603   1.406   2.644  0.7638  0.2591  0.1642
  816SOL    HW1 2447   2.619   1.308   2.671  0.9313 -0.3503  0.6805
  816SOL    HW2 2448   2.519   1.418   2.585 -2.5181 -1.4211 -1.9486
  817SOL     OW 2449   1.709   2.601   2.944 -0.4080  0.1723 -0.0650
  817SOL    HW1 2450   1.783   2.545   2.994  2.0846 -1.4332  0.4636
  817SOL    HW2 2451   1.753   2.654   2.871  1.1389 -0.3695 -2.3591
  818SOL     OW 2452   1.414   1.158   0.475 -0.1252 -0.1098 -0.0868
  818SOL    HW1 2453   1.346   1.195   0.411  0.5495  0.8796 -1.0677
  818SOL    HW2 2454   1.451   1.069   0.442  0.7684  0.4639 -0.0388
  819SOL     OW 2455   1.505   1.957   3.073 -0.2788 -0.3441  0.0688
  819SOL    HW1 2456   1.448   2.015   0.035  0.0535  2.4017 -0.5761
  819SOL    HW2 2457   1.453   1.939   2.987  2.0342  1.3778 -1.3531
  820SOL     OW 2458   0.618   0.759   0.020  0.1943 -0.1949  0.1738
  820SOL    HW1 2459   0.638   0.732   3.035 -1.1808 -0.7515  3.0058
  820SOL    HW2 2460   0.642   0.681   0.082  0.1673 -1.7323  1.1019
  821SOL     OW 2461   0.555   3.098   1.106  0.1585  0.1532  0.0550
  821SOL    HW1 2462   0.610   0.045   1.045  2.7654 -2.3128  0.2819
  821SOL    HW2 2463   0.560   0.021   1.205  4.8636 -0.9659  1.5551
  822SOL     OW 2464   1.659   2.622   2.461 -0.0221  0.0145  0.4072
  822SOL    HW1 2465   1.636   2.551   2.528 -2.1533 -1.2625 -1.8561
  822SOL    HW2 2466   1.677   2.576   2.373 -1.7880  0.0692 -0.9427
  823SOL     OW 2467   0.897   0.880   2.123 -0.3286  0.0868 -0.3506
  823SOL    HW1 2468   0.952   0.834   2.052  0.2921  0.3849  2.5684
  823SOL    HW2 2469   0.903   0.830   2.212 -1.4213  0.5342  0.8547
  824SOL     OW 2470   2.319   0.295   1.528  0.1117  0.6915 -0.3596
  824SOL    HW1 2471   2.218   0.292   1.525  1.9231  1.8698 -0.1590
  824SOL    HW2 2472   2.367   0.258   1.610  1.1764  2.0500 -1.7088
  825SOL     OW 2473   0.670   1.387   0.154 -0.0193  0.0943 -0.3909
  825SOL    HW1 2474   0.747   1.326   0.136 -2.8682 -0.5534  1.1002
  825SOL    HW2 2475   0.613   1.399   0.074  0.6513  0.2979 -0.6615
  826SOL     OW 2476   1.993   0.471   2.505 -0.3560 -0.0536 -0.5857
  826SOL    HW1 2477   1.944   0.381   2.507  0.6275  1.6134 -0.8431
  826SOL    HW2 2478   2.091   0.456   2.499 -2.6525  0.5844  0.8420
  827SOL     OW 2479   0.680   2.230   2.578 -0.4055  0.1656 -0.5691
  827SOL    HW1 2480   0.651   2.260   2.486  1.2020  1.8556  2.2172
  827SOL    HW2 2481   0.665   2.310   2.640 -1.6284  0.6705 -0.4808
  828SOL     OW 2482   2.612   0.055   1.277 -0.0604  0.0894  0.2955
  828SOL    HW1 2483   2.660   0.081   1.196 -2.1559 -1.4859  2.6502
  828SOL    HW2 2484   2.620   3.058   1.279 -0.2094 -1.5222  0.0106
  829SOL     OW 2485   1.314   1.753   1.405 -0.7443  0.1841 -0.2474
  829SOL    HW1 2486   1.353   1.654   1.403  2.6234 -3.3592 -1.0384
  829SOL    HW2 2487   1.254   1.755   1.489 -0.6699 -0.5004  1.2663
  830SOL     OW 2488   0.652   1.052   1.761 -0.1012  0.8402 -0.0596
  830SOL    HW1 2489   0.727   0.992   1.727  1.4134 -0.5635 -0.4546
  830SOL    HW2 2490   0.575   1.033   1.696  1.6109 -1.3202 -1.1057
  831SOL     OW 2491   0.003   1.674   0.085  0.3548 -0.4671 -0.1797
  831SOL    HW1 2492   3.009   1.678   0.075 -0.4983  0.2855  0.9455
  831SOL    HW2 2493   0.052   1.753   0.044  1.4544 -1.1058  0.2106
  832SOL     OW 2494   0.931   2.818   2.979 -0.4083 -0.2165 -0.5198
  832SOL    HW1 2495   1.023   2.862   2.973 -0.8776 -2.3060  1.9670
  832SOL    HW2 2496   0.929   2.743   3.048 -1.1272  4.5513  1.7827
  833SOL     OW 2497   2.992   0.292   1.824 -0.2208 -0.2981  0.2517
  833SOL    HW1 2498   2.989   0.247   1.917 -1.4679  1.7705 -0.8719
  833SOL    HW2 2499   3.021   0.390   1.840  1.7266  0.6232  1.1268
  834SOL     OW 2500   0.083   0.916   1.117 -0.2793 -0.4748 -0.0114
  834SOL    HW1 2501   0.134   0.990   1.071  0.7695 -1.2078 -0.0136
  834SOL    HW2 2502   0.133   0.823   1.117  3.0674 -2.0390 -1.0119
  835SOL     OW 2503   2.410   2.962   1.029  0.0819  0.1792  0.2504
  835SOL    HW1 2504   2.338   3.014   0.981  1.8326  2.3162  1.2220
  835SOL    HW2 2505   2.500   2.987   0.986  2.3280  3.2887  0.8271
  836SOL     OW 2506   0.793   1.804   2.711 -0.1761  0.6723 -0.7316
  836SOL    HW1 2507   0.729   1.871   2.666 -2.3091  2.9817 -0.8228
  836SOL    HW2 2508   0.794   1.829   2.809  0.4059 -1.6422  0.1772
  837SOL     OW 2509   1.776   2.013   3.047 -0.2810  0.6760 -0.5917
  837SOL    HW1 2510   1.678   2.001   3.069  0.3457 -0.7294  1.8292
  837SOL    HW2 2511   1.832   2.003   0.026 -1.7112 -1.1722  0.6480
  838SOL     OW 2512   3.042   0.985   2.265  0.2311  0.1631  0.3288
  838SOL    HW1 2513   2.937   0.992   2.261 -1.0914 -2.5389 -2.5245
  838SOL    HW2 2514   3.085   1.075   2.252 -0.7688 -0.9069  0.5340
  839SOL     OW 2515   0.954   0.963   2.877  0.1428  0.2820 -0.6572
  839SOL    HW1 2516   0.917   1.043   2.829  1.2456 -1.3198  2.1443
  839SOL    HW2 2517   0.988   0.999   2.968 -1.0155  1.2912  2.5015
  840SOL     OW 2518   1.750   0.698   0.295  0.4365  0.4598  0.0112
  840SOL    HW1 2519   1.769   0.797   0.320 -2.5313 -0.2674  3.8982
  840SOL    HW2 2520   1.710   0.654   0.380 -0.4166 -0.9744  2.2535
  841SOL     OW 2521   0.828   2.591   0.770  0.5306  0.0801 -0.4716
  841SOL    HW1 2522   0.745   2.542   0.811  1.8100 -0.6160  0.9569
  841SOL    HW2 2523   0.810   2.615   0.669 -0.6935  1.4217 -1.3154
  842SOL     OW 2524   0.270   0.578   0.326 -0.0254  0.0932  0.5388
  842SOL    HW1 2525   0.169   0.584   0.321 -0.7999  2.6393 -2.6478
  842SOL    HW2 2526   0.322   0.661   0.359 -0.6173 -1.0429 -0.6830
  843SOL     OW 2527   0.643   0.764   1.530 -0.3824 -0.2200 -0.2877
  843SOL    HW1 2528   0.699   0.718   1.604  2.6510  0.2952  2.0841
  843SOL    HW2 2529   0.576   0.830   1.568 -1.3616  0.8788  0.5349
  844SOL     OW 2530   2.045   2.466   2.843 -0.2176  0.5533  0.1269
  844SOL    HW1 2531   2.055   2.541   2.915 -2.8530  2.8129  1.9202
  844SOL    HW2 2532   2.090   2.375   2.864 -0.6230 -2.0932  0.1240
  845SOL     OW 2533   2.444   0.137   1.727  0.3980  0.2683 -0.1865
  845SOL    HW1 2534   2.493   0.090   1.806  2.1219 -0.8184  2.2717
  845SOL    HW2 2535   2.370   0.082   1.691  0.7186 -1.4502 -1.2735
  846SOL     OW 2536   2.049   1.864   2.525  0.1962  0.0425  0.0367
  846SOL    HW1 2537   1.997   1.777   2.503 -1.2194 -1.1378 -3.0203
  846SOL    HW2 2538   2.107   1.895   2.448  1.2666 -1.2587  0.9785
  847SOL     OW 2539   2.134   2.843   2.029  0.3700  0.0054  0.3726
  847SOL    HW1 2540   2.090   2.820   2.117 -0.6592  0.8429  0.0284
  847SOL    HW2 2541   2.138   2.762   1.965 -1.6114 -1.5016 -1.0302
  848SOL     OW 2542   0.242   2.858   0.171 -0.4170  0.4498 -0.2982
  848SOL    HW1 2543   0.234   2.759   0.146 -0.4442 -3.6979  0.5835
  848SOL    HW2 2544   0.210   2.866   0.262 -1.9600 -2.1737 -0.3001
  849SOL     OW 2545   0.448   2.964   1.378  0.6491  0.1982 -0.4067
  849SOL    HW1 2546   0.376   3.034   1.399 -2.3334  1.1463  1.1233
  849SOL    HW2 2547   0.540   2.979   1.425 -0.6362  3.5141  0.8755
  850SOL     OW 2548   3.107   1.491   0.958  0.3236 -1.0334  0.3639
  850SOL    HW1 2549   3.056   1.576   0.993 -2.9145  0.3638 -1.1077
  850SOL    HW2 2550   0.098   1.512   0.945 -0.0052 -0.8617 -1.5468
  851SOL     OW 2551   3.006   0.581   3.012  0.2176  0.0044 -0.0206
  851SOL    HW1 2552   3.062   0.630   2.942  0.2128  0.0511  1.7839
  851SOL    HW2 2553   2.944   0.637   3.069 -0.4495  0.0369  0.6318
  852SOL     OW 2554   1.929   2.118   2.586  0.4343  0.7594  0.1451
  852SOL    HW1 2555   1.880   2.084   2.664 -0.3300  0.3566 -2.2219
  852SOL    HW2 2556   1.931   2.044   2.514 -1.6812 -3.1690  0.0220
  853SOL     OW 2557   0.731   1.766   0.510  0.6659  0.7411  0.6343
  853SOL    HW1 2558   0.636   1.752   0.538 -1.1008 -0.6969 -1.4794
  853SOL    HW2 2559   0.747   1.703   0.427  1.7179 -1.8542  0.0517
  854SOL     OW 2560   1.734   1.286   1.840  0.3216  0.5806  0.1399
  854SOL    HW1 2561   1.656   1.233   1.882 -4.1817  0.4039  2.7229
  854SOL    HW2 2562   1.797   1.227   1.781  2.0311 -0.5915  0.5257
  855SOL     OW 2563   0.482   2.117   2.902  0.3165 -0.6229  0.1795
  855SOL    HW1 2564   0.471   2.045   2.972 -2.9276 -1.2867  0.5704
  855SOL    HW2 2565   0.396   2.166   2.899 -0.4637 -2.1216 -1.0541
  856SOL     OW 2566   0.413   0.029   1.905  0.1092  0.5925  0.2424
  856SOL    HW1 2567   0.420   3.040   1.879  1.1956 -0.1190  0.2233
  856SOL    HW2 2568   0.317   0.060   1.928  2.6527 -1.1232 -2.2393
  857SOL     OW 2569   0.692   0.308   1.710  0.6185  0.1831 -0.1949
  857SOL    HW1 2570   0.681   0.356   1.794  0.7968  1.7958  0.1947
  857SOL    HW2 2571   0.760   0.355   1.653 -1.7142 -0.2874  1.9482
  858SOL     OW 2572   0.008   1.926   2.395  0.4398 -0.0394 -0.3581
  858SOL    HW1 2573   3.026   1.880   2.424 -0.3808  0.0279  0.6441
  858SOL    HW2 2574   3.107   2.027   2.401  1.3357 -1.0975 -2.4831
  859SOL     OW 2575   1.984   2.339   0.822 -0.2994 -0.2498 -0.2507
  859SOL    HW1 2576   2.004   2.387   0.910  0.2626  1.7207  1.6624
  859SOL    HW2 2577   1.902   2.280   0.827  1.0516  1.3339  0.7442
  860SOL     OW 2578   2.037   0.665   0.550 -0.1284 -0.0032  0.2165
  860SOL    HW1 2579   2.064   0.572   0.575 -2.5814 -0.3491 -0.1190
  860SOL    HW2 2580   1.949   0.687   0.598  2.2631 -2.7168  0.5005
  861SOL     OW 2581   0.374   0.349   0.938 -0.0489 -0.3982 -0.1530
  861SOL    HW1 2582   0.428   0.395   1.013 -1.4437 -3.2812 -0.4269
  861SOL    HW2 2583   0.278   0.376   0.961  1.1242  0.5512 -1.2973
  862SOL     OW 2584   2.377   0.638   1.700  0.1926  0.1793 -0.6328
  862SOL    HW1 2585   2.296   0.587   1.749 -2.1611  0.7796  2.1025
  862SOL    HW2 2586   2.342   0.720   1.651 -1.7308 -0.9107 -1.6349
  863SOL     OW 2587   0.252   1.413   1.402  0.4654  0.5042 -0.5135
  863SOL    HW1 2588   0.290   1.363   1.322  1.6538 -0.4804  3.0893
  863SOL    HW2 2589   0.281   1.513   1.402 -2.8046  0.2106 -0.1907
  864SOL     OW 2590   2.617   0.072   1.940 -0.3651  0.1274  0.2793
  864SOL    HW1 2591   2.659   0.163   1.957 -1.1222 -0.3940 -2.3446
  864SOL    HW2 2592   2.564   0.040   2.020 -0.5973 -0.0462 -1.5807
  865SOL     OW 2593   1.638   0.365   2.122  0.4285  0.5518  0.1415
  865SOL    HW1 2594   1.573   0.423   2.174 -1.9700  0.3023 -0.0077
  865SOL    HW2 2595   1.737   0.377   2.137 -1.4896  0.0095 -0.2117
  866SOL     OW 2596   2.386   2.992   0.601  0.1473 -0.7774  0.0151
  866SOL    HW1 2597   2.385   2.895   0.604 -0.1223  2.2601  2.0360
  866SOL    HW2 2598   2.481   3.029   0.586 -1.1605 -0.1868  1.7666
  867SOL     OW 2599   2.615   2.650   0.796 -0.2411  0.7046 -0.4070
  867SOL    HW1 2600   2.661   2.741   0.793 -1.5785 -0.8755 -1.7698
  867SOL    HW2 2601   2.526   2.652   0.843  1.9563  0.0849  1.9349
  868SOL     OW 2602   1.638   1.489   2.909 -0.2690  0.1850  0.3470
  868SOL    HW1 2603   1.552   1.539   2.875  0.1453  1.6395  0.7119
  868SOL    HW2 2604   1.645   1.503   3.007 -1.7614 -2.5483 -0.7002
  869SOL     OW 2605   2.385   1.715   0.538 -0.8468 -0.1650  0.1051
  869SOL    HW1 2606   2.291   1.689   0.521  2.9054 -2.5825  1.3413
  869SOL    HW2 2607   2.403   1.808   0.495 -4.1366  3.1791  1.0712
  870SOL     OW 2608   2.737   1.978   0.479  0.1988 -0.4117  0.3049
  870SOL    HW1 2609   2.755   1.901   0.412 -0.7158  1.8592 -1.6578
  870SOL    HW2 2610   2.639   1.970   0.508  1.2974  1.7205 -0.0774
  871SOL     OW 2611   0.217   1.155   1.531 -0.6567 -0.2270  0.4129
  871SOL    HW1 2612   0.234   1.252   1.523 -2.0951 -1.7572 -1.5521
  871SOL    HW2 2613   0.146   1.116   1.465  0.8537 -1.1474  0.1223
  872SOL     OW 2614   0.348   1.645   2.168  0.1534  0.2522 -0.2606
  872SOL    HW1 2615   0.272   1.583   2.140  0.3052  0.1160 -2.1686
  872SOL    HW2 2616   0.393   1.684   2.085 -1.1518 -3.3060 -1.2896
  873SOL     OW 2617   0.032   2.785   1.334 -0.5013  0.1784 -0.3614
  873SOL    HW1 2618   0.125   2.762   1.363  0.2801  0.9071  2.3331
  873SOL    HW2 2619   0.007   2.755   1.239 -0.4783  0.8203  0.6849
  874SOL     OW 2620   1.018   0.716   1.944 -0.7375  0.3026  0.5602
  874SOL    HW1 2621   1.104   0.726   1.890  2.1081 -0.0910 -1.9270
  874SOL    HW2 2622   0.995   0.617   1.955  0.5464  1.0718 -1.7383
  875SOL     OW 2623   2.656   3.053   0.905 -0.0522 -0.1170 -0.3519
  875SOL    HW1 2624   2.711   3.077   0.987 -1.3231 -2.0258  3.0724
  875SOL    HW2 2625   2.676   0.002   0.825  0.2739 -2.0091  1.6065
  876SOL     OW 2626   0.931   1.444   0.476  0.7966 -0.2736  0.4769
  876SOL    HW1 2627   0.917   1.476   0.377 -0.8925  2.5381 -1.0592
  876SOL    HW2 2628   0.976   1.514   0.538  0.4945 -1.2954 -0.3967
  877SOL     OW 2629   1.003   0.838   1.396  0.6205 -0.4550  0.4668
  877SOL    HW1 2630   1.068   0.914   1.380 -1.3162  0.7745  1.3659
  877SOL    HW2 2631   1.039   0.755   1.353  0.4843  0.5889 -0.5842
  878SOL     OW 2632   2.364   2.104   0.190 -0.1860 -0.2976 -0.5892
  878SOL    HW1 2633   2.316   2.173   0.253 -1.2976  1.7677 -1.3438
  878SOL    HW2 2634   2.380   2.136   0.091  0.9257 -1.4417  0.3960
  879SOL     OW 2635   2.539   2.148   1.829  0.2954 -0.1435  0.0727
  879SOL    HW1 2636   2.606   2.104   1.894  1.3106 -1.2414 -1.4950
  879SOL    HW2 2637   2.582   2.228   1.785  0.4384 -0.9540 -0.2238
  880SOL     OW 2638   0.860   2.318   1.336 -0.0376 -0.0143  0.1489
  880SOL    HW1 2639   0.921   2.379   1.392  2.7852  1.1454 -0.3897
  880SOL    HW2 2640   0.836   2.362   1.247 -0.2879 -0.0035 -0.1020
  881SOL     OW 2641   0.981   2.109   0.544 -0.0863  0.8497 -0.0562
  881SOL    HW1 2642   0.980   2.091   0.645  0.7399 -0.9389  1.0881
  881SOL    HW2 2643   0.896   2.158   0.514  0.4558  1.4527 -0.3372
  882SOL     OW 2644   1.893   1.379   0.040  0.0024  0.0239  0.2158
  882SOL    HW1 2645   1.962   1.364   3.074 -1.2424  0.7053  1.4389
  882SOL    HW2 2646   1.941   1.426   0.115  1.0236 -2.4911  0.0240
  883SOL     OW 2647   1.549   0.772   1.414 -0.2586  0.4446  0.2562
  883SOL    HW1 2648   1.561   0.814   1.320 -0.0685  0.1595  0.6339
  883SOL    HW2 2649   1.593   0.677   1.416  3.1735 -0.2839 -1.6015
  884SOL     OW 2650   3.067   2.665   0.520 -0.1367 -0.1259 -0.1510
  884SOL    HW1 2651   2.967   2.635   0.506 -0.5966 -0.3483 -1.0524
  884SOL    HW2 2652   3.077   2.759   0.488  0.2848 -0.9452  0.8486
  885SOL     OW 2653   1.071   1.448   2.251  0.2648  0.2197 -0.6315
  885SOL    HW1 2654   1.009   1.370   2.272  0.6907  1.1434 -2.6959
  885SOL    HW2 2655   1.081   1.489   2.343 -1.6911 -1.5841  0.7404
  886SOL     OW 2656   0.920   1.579   2.531  0.3353 -0.4457 -0.2519
  886SOL    HW1 2657   0.932   1.670   2.572 -0.8851 -3.2292  0.4355
  886SOL    HW2 2658   1.011   1.538   2.520 -1.4825 -1.1619  0.3710
  887SOL     OW 2659   1.410   0.704   0.966  0.1561  0.0081 -0.2477
  887SOL    HW1 2660   1.403   0.799   1.006 -0.8961  0.7906  0.6488
  887SOL    HW2 2661   1.317   0.671   0.945  0.1505  0.4069  1.0488
  888SOL     OW 2662   2.152   0.756   2.213  0.1865 -0.6645  0.4261
  888SOL    HW1 2663   2.224   0.689   2.181  2.1211  1.6575  1.6434
  888SOL    HW2 2664   2.156   0.765   2.314 -1.2174 -0.3601  0.0996
  889SOL     OW 2665   2.872   1.894   0.858  0.1861  0.3447  0.3592
  889SOL    HW1 2666   2.832   1.920   0.769  0.0100 -1.0265  1.0561
  889SOL    HW2 2667   2.874   1.968   0.929 -0.8660 -2.4284 -1.0041
  890SOL     OW 2668   1.090   2.240   0.245  0.0140  0.1478 -0.0215
  890SOL    HW1 2669   1.186   2.216   0.277  2.2839 -2.0986  2.0318
  890SOL    HW2 2670   1.030   2.159   0.236  1.6048 -2.2969  0.4963
  891SOL     OW 2671   2.871   0.409   2.834 -0.3722  0.0273 -0.2433
  891SOL    HW1 2672   2.924   0.479   2.891  0.9046  1.2857  4.0594
  891SOL    HW2 2673   2.899   0.407   2.739 -2.1975 -3.4653  0.7827
  892SOL     OW 2674   2.999   2.138   0.978 -0.3545 -0.0595  0.0086
  892SOL    HW1 2675   3.093   2.113   1.017  3.5249 -2.3348 -0.4116
  892SOL    HW2 2676   2.943   2.168   1.054 -0.5469  0.2293  1.1851
  893SOL     OW 2677   1.545   0.303   1.067 -0.0011  0.2688 -0.4927
  893SOL    HW1 2678   1.501   0.290   0.974 -0.4499 -2.0709 -0.9740
  893SOL    HW2 2679   1.572   0.398   1.087  1.0620  1.9685  0.4463
  894SOL     OW 2680   2.871   0.352   0.975  0.0738  0.0041 -0.0677
  894SOL    HW1 2681   2.967   0.343   0.937  1.5896  1.0568 -2.2299
  894SOL    HW2 2682   2.810   0.393   0.906 -1.0053 -2.0032  0.7480
  895SOL     OW 2683   1.811   1.665   2.823 -0.3345 -0.1250  0.2686
  895SOL    HW1 2684   1.850   1.624   2.738 -0.1317  1.9344 -0.4115
  895SOL    HW2 2685   1.748   1.596   2.863  1.0364  3.0116  1.6238
  896SOL     OW 2686   2.019   0.772   1.730 -0.5155  0.6434 -0.6774
  896SOL    HW1 2687   2.083   0.843   1.722 -2.6100  0.0990 -1.6106
  896SOL    HW2 2688   1.959   0.766   1.648  0.5155  0.7039  0.1799
  897SOL     OW 2689   3.085   1.340   1.401 -0.3111 -0.6774  0.0390
  897SOL    HW1 2690   0.057   1.400   1.416 -1.1245 -2.9897  0.2419
  897SOL    HW2 2691   3.103   1.246   1.362 -0.8491 -1.1045 -2.7444
  898SOL     OW 2692   1.959   2.521   2.047 -0.1567 -0.0977 -0.5250
  898SOL    HW1 2693   1.887   2.589   2.064  0.5362 -0.8203  1.0867
  898SOL    HW2 2694   1.989   2.474   2.132  1.0502  0.2022 -0.7133
  899SOL     OW 2695   0.976   1.630   1.102 -0.4357  0.0946 -0.2325
  899SOL    HW1 2696   1.063   1.682   1.100 -2.8804 -0.3717  0.1076
  899SOL    HW2 2697   0.904   1.703   1.089 -0.1829 -1.7010  0.0315
  900SOL     OW 2698   1.284   2.564   2.429  0.0531  0.3150 -0.2555
  900SOL    HW1 2699   1.304   2.501   2.507  0.0684 -1.6135 -0.7686
  900SOL    HW2 2700   1.335   2.649   2.440 -0.5762  0.1861 -1.7375
  901SOL     OW 2701   0.674   1.554   2.374  0.4347 -0.0814  0.3651
  901SOL    HW1 2702   0.611   1.622   2.425  0.5011  0.8015  1.7013
  901SOL    HW2 2703   0.763   1.549   2.426 -2.3628 -0.5561  1.5546
  902SOL     OW 2704   2.191   0.936   2.881  0.3025 -1.0620 -0.1780
  902SOL    HW1 2705   2.142   0.980   2.962  1.0691 -0.1464 -0.5597
  902SOL    HW2 2706   2.218   1.010   2.817 -2.1079  2.0361 -0.3528
  903SOL     OW 2707   2.061   1.381   2.918 -0.1033  0.6244  0.2993
  903SOL    HW1 2708   2.130   1.321   2.879 -1.4104  1.8096  1.2722
  903SOL    HW2 2709   1.976   1.381   2.864  0.1104  0.3370 -0.9965
  904SOL     OW 2710   1.340   1.023   2.273  0.7522 -0.8619 -0.1580
  904SOL    HW1 2711   1.442   1.017   2.277 -2.1287  0.8494  1.2402
  904SOL    HW2 2712   1.288   0.943   2.308  0.3660 -1.5126  1.5591
  905SOL     OW 2713   2.554   0.403   0.935 -0.1961  0.2317 -0.0763
  905SOL    HW1 2714   2.492   0.330   0.976 -0.4108  1.8263 -0.8997
  905SOL    HW2 2715   2.495   0.462   0.871 -0.6377  1.4111 -1.0635
  906SOL     OW 2716   0.340   1.471   0.673 -0.3583  0.1243  0.1703
  906SOL    HW1 2717   0.383   1.378   0.659 -0.5221 -3.4784 -1.1818
  906SOL    HW2 2718   0.260   1.472   0.613 -0.3907  1.0061 -0.7104
  907SOL     OW 2719   1.524   3.027   0.340  0.0204  0.0824 -0.1579
  907SOL    HW1 2720   1.528   2.988   0.434 -1.5591  3.5250 -1.7654
  907SOL    HW2 2721   1.548   0.019   0.344 -0.1652 -2.2446 -1.0958
  908SOL     OW 2722   1.524   2.675   1.578 -0.7090  0.1607 -0.5383
  908SOL    HW1 2723   1.527   2.678   1.476 -0.3786 -1.0446 -2.2964
  908SOL    HW2 2724   1.451   2.735   1.617 -1.7620  0.1789 -2.4235
  909SOL     OW 2725   2.572   0.770   1.842 -0.3932  0.3874 -0.0761
  909SOL    HW1 2726   2.640   0.713   1.892  3.0583  0.0112  0.6294
  909SOL    HW2 2727   2.502   0.719   1.788  0.5692  1.6920 -1.7231
  910SOL     OW 2728   1.383   3.022   2.561 -0.4321  0.2676  0.3578
  910SOL    HW1 2729   1.382   3.106   2.500 -2.0580  5.4893 -0.5188
  910SOL    HW2 2730   1.393   2.935   2.507 -0.3929  1.1351 -0.0183
  911SOL     OW 2731   2.397   1.472   2.483 -0.3350  0.0636  0.5326
  911SOL    HW1 2732   2.408   1.560   2.430 -1.7521  2.8265 -0.0101
  911SOL    HW2 2733   2.315   1.422   2.450  1.8893 -1.2037  2.3181
  912SOL     OW 2734   2.371   2.216   1.390  0.2863  0.6387  0.4136
  912SOL    HW1 2735   2.370   2.318   1.383 -1.6237 -5.3960  0.3797
  912SOL    HW2 2736   2.277   2.180   1.414 -1.4360 -0.2858 -2.5456
  913SOL     OW 2737   2.464   2.504   1.722 -0.1662  1.1109 -0.1104
  913SOL    HW1 2738   2.485   2.603   1.743  0.4469 -0.7485 -0.2272
  913SOL    HW2 2739   2.371   2.488   1.690  1.2819  1.1439 -0.3651
  914SOL     OW 2740   2.353   1.985   1.204  0.0026  0.1051 -0.1745
  914SOL    HW1 2741   2.393   2.067   1.254 -1.2407 -0.8041  1.5331
  914SOL    HW2 2742   2.247   1.991   1.219 -4.5553  4.9287  0.0747
  915SOL     OW 2743   1.237   2.640   1.866 -0.0015  0.1395 -0.1093
  915SOL    HW1 2744   1.153   2.594   1.837 -0.1164 -0.2871  0.8269
  915SOL    HW2 2745   1.320   2.580   1.874  0.1863 -0.8595 -2.6985
  916SOL     OW 2746   0.185   2.153   1.090  0.2359  0.1669 -0.2374
  916SOL    HW1 2747   0.272   2.139   1.044  0.6724  1.7855  2.8778
  916SOL    HW2 2748   0.165   2.252   1.103 -3.6287 -1.0848 -1.1065
  917SOL     OW 2749   2.738   0.962   2.843 -0.8720 -0.1296 -0.3168
  917SOL    HW1 2750   2.694   0.872   2.867 -0.9293 -3.5751  0.5079
  917SOL    HW2 2751   2.779   0.947   2.749  0.0304  0.8530 -0.5305
  918SOL     OW 2752   1.817   1.957   2.780 -0.5327  0.4183 -0.2518
  918SOL    HW1 2753   1.802   1.978   2.877  0.6030  0.4058  0.9120
  918SOL    HW2 2754   1.848   1.860   2.770  0.5391 -0.2311 -0.7579
  919SOL     OW 2755   1.838   2.405   1.260 -0.2333 -0.0637  0.4260
  919SOL    HW1 2756   1.757   2.407   1.202  0.8734 -0.3424  1.2628
  919SOL    HW2 2757   1.841   2.326   1.322 -1.2522  0.6492  1.2855
  920SOL     OW 2758   0.870   0.516   2.751  0.7356  0.8349  0.2692
  920SOL    HW1 2759   0.869   0.430   2.805  0.1076 -2.1985 -2.0184
  920SOL    HW2 2760   0.960   0.566   2.767  0.0766  0.2498 -1.2713
  921SOL     OW 2761   3.063   2.861   2.679  0.1958  0.1784  0.6455
  921SOL    HW1 2762   3.077   2.847   2.577  1.9565 -2.6882  0.6725
  921SOL    HW2 2763   0.036   2.841   2.733  0.5701  1.6312 -0.5590
  922SOL     OW 2764   2.452   1.749   1.939  0.3440 -0.1301  0.4655
  922SOL    HW1 2765   2.432   1.716   1.843 -0.9977  0.8190 -0.2996
  922SOL    HW2 2766   2.466   1.847   1.946 -1.9528 -3.8341 -0.4418
  923SOL     OW 2767   0.601   1.996   2.665 -0.7609  0.3391 -0.1972
  923SOL    HW1 2768   0.554   2.027   2.751 -0.8754  0.6547 -0.2489
  923SOL    HW2 2769   0.629   2.073   2.604  2.0138  0.9744 -0.6567
  924SOL     OW 2770   1.642   0.548   2.472  0.2108  0.2737  0.2401
  924SOL    HW1 2771   1.611   0.604   2.394 -0.3007 -0.0534  4.2066
  924SOL    HW2 2772   1.608   0.598   2.551  0.7898 -1.4005 -2.7885
  925SOL     OW 2773   3.051   0.808   0.189 -0.4867  0.2670 -0.7270
  925SOL    HW1 2774   2.963   0.827   0.147 -0.6396 -0.0891  3.1091
  925SOL    HW2 2775   3.071   0.878   0.260  0.5766  1.0862  0.4036
  926SOL     OW 2776   3.071   0.279   0.797  0.2948  0.0063  0.6136
  926SOL    HW1 2777   0.005   0.194   0.836  1.5745 -1.8895 -2.2570
  926SOL    HW2 2778   3.107   0.305   0.705 -0.3227 -0.6832 -2.5756
  927SOL     OW 2779   1.399   1.185   0.744  0.8797 -0.2149  0.7727
  927SOL    HW1 2780   1.437   1.171   0.649 -0.2341 -2.7650 -1.4253
  927SOL    HW2 2781   1.301   1.157   0.742 -1.6628 -0.5919 -1.6237
  928SOL     OW 2782   0.077   0.001   2.410  0.4666 -0.0052  0.4074
  928SOL    HW1 2783   0.115   3.088   2.315  2.5335  0.5138 -2.1870
  928SOL    HW2 2784   0.004   0.075   2.401 -0.1566  2.6373 -0.3610
  929SOL     OW 2785   2.636   0.647   1.513  0.3973 -0.1823  0.8394
  929SOL    HW1 2786   2.581   0.712   1.563  0.1858 -0.9798 -1.2411
  929SOL    HW2 2787   2.703   0.602   1.574  0.7461  0.9715  2.1449
  930SOL     OW 2788   1.753   2.226   0.915  0.4661  0.2693 -0.0669
  930SOL    HW1 2789   1.723   2.154   0.850 -0.3317 -0.4953 -0.5653
  930SOL    HW2 2790   1.802   2.187   0.993 -1.6635  1.1934  0.6071
  931SOL     OW 2791   1.920   0.799   1.169  0.7424 -0.4114  0.3898
  931SOL    HW1 2792   1.864   0.883   1.158  2.1163  2.2499 -0.0587
  931SOL    HW2 2793   2.016   0.816   1.141 -0.3739  2.4012  0.6814
  932SOL     OW 2794   0.175   0.793   1.456  0.1644  0.1822  0.3941
  932SOL    HW1 2795   0.078   0.821   1.455  0.1091 -1.9857 -0.8811
  932SOL    HW2 2796   0.198   0.718   1.522 -0.9050  0.0985  0.6292
  933SOL     OW 2797   2.058   1.974   2.012 -0.5561  0.2245 -0.1638
  933SOL    HW1 2798   2.050   1.883   1.963 -1.2882 -0.8705 -1.0675
  933SOL    HW2 2799   2.154   2.009   2.002  1.8356  1.8403  0.8581
  934SOL     OW 2800   1.825   3.106   1.013  0.1136  0.0343 -0.3667
  934SOL    HW1 2801   1.808   0.063   1.090 -2.1916 -2.6966 -1.8446
  934SOL    HW2 2802   1.739   3.054   1.001  3.9568  2.4798 -1.7847
  935SOL     OW 2803   0.043   1.066   1.341  0.6720  0.0180 -0.0384
  935SOL    HW1 2804   3.083   1.003   1.399 -0.6356 -1.7502  3.1029
  935SOL    HW2 2805   0.079   1.018   1.259 -0.3082  0.6802  2.0157
  936SOL     OW 2806   2.809   0.725   1.286 -0.6944  0.3934  0.1557
  936SOL    HW1 2807   2.774   0.668   1.210  0.1282  2.0492  0.6922
  936SOL    HW2 2808   2.756   0.715   1.370  2.1697  2.7779 -0.4456
  937SOL     OW 2809   1.062   2.983   0.893 -0.0896 -0.1498 -0.2998
  937SOL    HW1 2810   0.968   2.950   0.905 -0.2807 -3.0097 -1.6446
  937SOL    HW2 2811   1.138   2.928   0.941 -1.3773 -0.1743  0.9000
  938SOL     OW 2812   3.027   2.271   0.745  0.1387 -0.3070 -0.0399
  938SOL    HW1 2813   3.006   2.223   0.831 -0.0330  0.1604 -0.7855
  938SOL    HW2 2814   3.048   2.371   0.761  0.8450  1.5277 -0.7698
  939SOL     OW 2815   0.233   1.837   2.682  0.1426 -0.3474  0.5205
  939SOL    HW1 2816   0.189   1.747   2.661  0.7919  0.0984  0.7611
  939SOL    HW2 2817   0.300   1.852   2.601  2.5739  0.2849 -2.9429
  940SOL     OW 2818   2.613   2.718   2.638 -0.4773 -0.1827  0.1425
  940SOL    HW1 2819   2.565   2.642   2.592 -1.6819  0.6794 -1.5877
  940SOL    HW2 2820   2.662   2.780   2.574  0.6950  1.4259  1.7901
  941SOL     OW 2821   1.464   0.325   3.001  0.1983 -0.4136 -0.0606
  941SOL    HW1 2822   1.529   0.296   2.926  2.3053  1.2876 -1.6640
  941SOL    HW2 2823   1.505   0.294   3.089 -0.9748  0.2840 -0.1448
  942SOL     OW 2824   1.550   1.945   1.386  0.0855  0.4635 -0.0618
  942SOL    HW1 2825   1.472   1.876   1.375  1.5084  1.4114 -0.8343
  942SOL    HW2 2826   1.519   2.026   1.440 -0.9112 -0.3306  0.1227
  943SOL     OW 2827   2.024   1.297   1.928 -0.0960 -0.1409  0.4756
  943SOL    HW1 2828   2.019   1.232   1.853 -0.0076 -1.1907  1.6558
  943SOL    HW2 2829   1.999   1.394   1.889 -3.0573 -0.0136  2.5317
  944SOL     OW 2830   1.781   0.865   1.835  0.0295 -0.1424 -0.1163
  944SOL    HW1 2831   1.870   0.837   1.796 -0.1706 -0.1232 -0.9151
  944SOL    HW2 2832   1.723   0.914   1.768 -0.4947  0.0004  1.6179
  945SOL     OW 2833   2.643   2.576   1.323  0.0257  0.0851  0.2226
  945SOL    HW1 2834   2.664   2.554   1.229 -0.2193 -1.5631  3.1136
  945SOL    HW2 2835   2.722   2.550   1.377  2.1444 -0.5555 -1.9807
  946SOL     OW 2836   0.895   0.926   1.696 -0.3258  0.0161  0.0531
  946SOL    HW1 2837   0.980   0.936   1.755  4.4536  0.4809  0.2066
  946SOL    HW2 2838   0.924   0.920   1.600 -0.6010  0.1853  1.8522
  947SOL     OW 2839   0.637   2.437   0.848  0.1860 -0.3579 -0.6027
  947SOL    HW1 2840   0.559   2.455   0.913 -0.0528 -1.2323 -1.4145
  947SOL    HW2 2841   0.593   2.410   0.761  0.5745  0.9884  1.9357
  948SOL     OW 2842   2.986   1.416   1.917  0.0102  0.0578 -0.6870
  948SOL    HW1 2843   3.041   1.368   1.986  1.3183 -0.5150 -1.1398
  948SOL    HW2 2844   3.042   1.494   1.880 -0.3739 -1.4251  1.4610
  949SOL     OW 2845   0.752   0.411   1.972  0.3650  0.2045  0.1212
  949SOL    HW1 2846   0.740   0.351   2.052 -1.4732 -0.1656 -1.1763
  949SOL    HW2 2847   0.717   0.503   1.980 -0.8351 -0.5688  1.6519
  950SOL     OW 2848   0.629   0.664   0.908  0.3518  0.4231 -0.3568
  950SOL    HW1 2849   0.646   0.764   0.897 -1.8714 -0.0341 -0.9829
  950SOL    HW2 2850   0.568   0.633   0.832  2.1569  2.2084 -0.2390
  951SOL     OW 2851   1.220   1.818   2.211 -0.1753  0.4084  0.1073
  951SOL    HW1 2852   1.259   1.908   2.200  0.3367  1.5992  0.9330
  951SOL    HW2 2853   1.183   1.804   2.305 -0.0690  1.3692  0.4703
  952SOL     OW 2854   1.209   1.272   2.781  0.0967  0.4380  0.0037
  952SOL    HW1 2855   1.246   1.248   2.690 -3.0622 -2.4668  1.1744
  952SOL    HW2 2856   1.245   1.205   2.848  0.1655 -1.8432 -0.9637
  953SOL     OW 2857   1.139   2.977   2.286  0.6245 -0.1359 -0.1042
  953SOL    HW1 2858   1.080   2.894   2.276 -1.1075 -1.9137  0.9622
  953SOL    HW2 2859   1.103   3.057   2.326 -0.8480 -0.1459 -1.8838
  954SOL     OW 2860   2.137   1.493   0.519  0.1034  0.2691  0.1599
  954SOL    HW1 2861   2.113   1.586   0.483 -1.0819 -0.9162 -1.2645
  954SOL    HW2 2862   2.186   1.432   0.453  1.2749  1.6300 -0.1594
  955SOL     OW 2863   2.960   2.238   2.727 -0.0709 -0.4594 -0.1157
  955SOL    HW1 2864   3.045   2.290   2.705 -1.6922 -1.2313 -4.9849
  955SOL    HW2 2865   2.885   2.302   2.750  2.4450 -0.1956  1.5681
  956SOL     OW 2866   1.185   1.018   1.355  1.0616  0.3232  0.2178
  956SOL    HW1 2867   1.266   0.949   1.357  0.4388 -2.3640 -2.5437
  956SOL    HW2 2868   1.217   1.112   1.332 -1.3888 -0.2097  2.0370
  957SOL     OW 2869   1.884   1.640   2.465  0.3776  0.3159 -0.7100
  957SOL    HW1 2870   1.897   1.617   2.367  0.0445  0.0626 -1.8259
  957SOL    HW2 2871   1.899   1.562   2.531 -1.4850  2.3161 -0.8889
  958SOL     OW 2872   1.530   2.609   1.292  0.3802 -0.0534  0.2416
  958SOL    HW1 2873   1.545   2.533   1.221  0.0244 -0.8867 -1.8171
  958SOL    HW2 2874   1.536   2.703   1.250 -2.8309  0.8485  0.7983
  959SOL     OW 2875   1.628   1.866   2.037 -0.2153  0.1110 -0.3340
  959SOL    HW1 2876   1.683   1.924   1.974 -0.3497 -0.4681  0.1630
  959SOL    HW2 2877   1.554   1.817   1.978 -0.8040 -0.2554 -1.2869
  960SOL     OW 2878   0.032   0.713   2.804  0.1887 -0.2716 -0.2181
  960SOL    HW1 2879   0.071   0.798   2.846 -0.2480 -2.2073  1.4662
  960SOL    HW2 2880   3.096   0.732   2.714  3.0124  0.8415 -0.5575
  961SOL     OW 2881   0.622   0.661   1.934  0.5350 -0.0250 -0.5075
  961SOL    HW1 2882   0.633   0.754   1.975 -0.9409 -0.3408  0.8569
  961SOL    HW2 2883   0.524   0.631   1.937 -0.5303 -1.2919  0.2860
  962SOL     OW 2884   1.309   1.686   0.483 -0.2296  0.3923  0.8495
  962SOL    HW1 2885   1.222   1.651   0.530  1.2767 -1.7850  0.0592
  962SOL    HW2 2886   1.394   1.655   0.521 -0.1576  1.8965 -0.0381
  963SOL     OW 2887   1.263   2.155   2.835 -0.2451  0.4682  0.1206
  963SOL    HW1 2888   1.212   2.210   2.900 -0.0941 -0.8742 -0.7546
  963SOL    HW2 2889   1.270   2.058   2.866 -0.0249  0.1953 -0.1127
  964SOL     OW 2890   1.039   2.648   0.538 -0.0999  0.1104  0.1141
  964SOL    HW1 2891   1.011   2.563   0.484  0.6888 -1.2336 -1.0538
  964SOL    HW2 2892   0.959   2.712   0.548 -0.7036  1.8751  0.1769
  965SOL     OW 2893   0.819   2.869   0.843 -0.2973  0.1246  0.0677
  965SOL    HW1 2894   0.719   2.880   0.828  3.9685  1.2837  3.5289
  965SOL    HW2 2895   0.846   2.779   0.799 -0.3799 -2.0862 -1.4775
  966SOL     OW 2896   0.102   1.182   2.948  0.7046 -0.4744  0.4414
  966SOL    HW1 2897   0.184   1.220   2.900  0.4466 -0.5501  1.0910
  966SOL    HW2 2898   0.017   1.221   2.905 -4.5096 -0.1610 -1.4608
  967SOL     OW 2899   1.307   2.827   1.669  0.1200  0.5578  0.1268
  967SOL    HW1 2900   1.314   2.922   1.713 -1.2831  2.1098  1.3462
  967SOL    HW2 2901   1.270   2.755   1.731  0.2013 -0.2015 -2.0382
  968SOL     OW 2902   1.820   0.429   0.208  0.3228 -0.1040  0.4127
  968SOL    HW1 2903   1.882   0.409   0.289  0.1031  0.7499 -0.8735
  968SOL    HW2 2904   1.774   0.521   0.211 -0.6306 -1.3758  0.0629
  969SOL     OW 2905   3.001   1.692   2.160  0.2442  0.1409 -0.1914
  969SOL    HW1 2906   3.021   1.657   2.067 -0.2630  1.3694 -0.9867
  969SOL    HW2 2907   3.043   1.782   2.181 -0.4738  1.5923 -0.8943
  970SOL     OW 2908   2.334   1.433   1.555  0.1880  0.1293 -0.1669
  970SOL    HW1 2909   2.257   1.379   1.502 -1.6047 -0.6931 -0.7792
  970SOL    HW2 2910   2.415   1.371   1.577  0.3014 -0.4001  1.5603
  971SOL     OW 2911   1.635   0.605   1.692  0.4693 -0.7521  0.5393
  971SOL    HW1 2912   1.676   0.565   1.774 -0.7013 -0.9373  0.2810
  971SOL    HW2 2913   1.610   0.703   1.697 -1.2631  0.2236 -0.8398
  972SOL     OW 2914   0.384   2.892   2.418 -0.0277 -0.1711  0.7061
  972SOL    HW1 2915   0.480   2.934   2.412  1.4407 -0.8633 -0.3106
  972SOL    HW2 2916   0.318   2.948   2.466  1.3495 -0.7826 -1.4300
  973SOL     OW 2917   2.673   1.226   0.234  0.1014  0.3238 -0.5282
  973SOL    HW1 2918   2.598   1.177   0.184  1.0782  2.8119 -0.0058
  973SOL    HW2 2919   2.730   1.168   0.292 -0.4491 -0.1321 -1.7886
  974SOL     OW 2920   1.604   1.308   2.218  0.3942 -0.3186  0.3585
  974SOL    HW1 2921   1.535   1.295   2.140  2.5336 -0.1871  0.2662
  974SOL    HW2 2922   1.694   1.337   2.183 -0.6224 -0.8082  0.7371
  975SOL     OW 2923   3.064   2.527   0.776  0.3304 -0.1454  0.0705
  975SOL    HW1 2924   3.054   2.582   0.691 -1.4086 -0.3268  1.1606
  975SOL    HW2 2925   3.016   2.569   0.852  1.1402 -2.5242 -0.4492
  976SOL     OW 2926   0.025   1.644   1.840  0.1280 -0.2000 -0.2225
  976SOL    HW1 2927   0.081   1.672   1.756 -0.4981  0.6008  0.5698
  976SOL    HW2 2928   3.033   1.666   1.831 -0.6623  1.0920  0.7026
  977SOL     OW 2929   0.610   2.424   0.052 -0.1307  0.2702  0.4478
  977SOL    HW1 2930   0.555   2.502   0.011  1.6831  1.7960  1.0421
  977SOL    HW2 2931   0.695   2.400   3.108 -1.9872 -0.6038  1.9342
  978SOL     OW 2932   0.536   1.768   2.479  0.1815 -0.0996  0.5925
  978SOL    HW1 2933   0.447   1.775   2.427 -2.4741 -1.8386  0.2868
  978SOL    HW2 2934   0.547   1.854   2.530 -1.7682 -1.4997  0.2636
  979SOL     OW 2935   1.278   2.560   1.447  0.0940 -0.0445  0.3364
  979SOL    HW1 2936   1.295   2.582   1.544  1.3606  0.6318 -0.5210
  979SOL    HW2 2937   1.363   2.550   1.392 -0.5990  0.8432  1.1458
  980SOL     OW 2938   0.628   1.478   2.999 -0.3958 -0.1099  0.3127
  980SOL    HW1 2939   0.629   1.512   2.902  1.2345 -2.6422  0.1173
  980SOL    HW2 2940   0.705   1.523   3.049  0.4634  1.5151 -0.5759
  981SOL     OW 2941   2.862   0.058   2.329 -0.1168 -0.4846  0.4778
  981SOL    HW1 2942   2.764   0.026   2.345 -2.9607 -0.8797  0.4537
  981SOL    HW2 2943   2.901   3.108   2.258  0.9929  0.4006  2.6588
  982SOL     OW 2944   3.047   2.497   2.714 -0.3315  0.1516 -0.4411
  982SOL    HW1 2945   0.020   2.519   2.661 -1.5355 -2.2408  1.2997
  982SOL    HW2 2946   2.967   2.518   2.659  1.6379 -1.5278 -0.1618
  983SOL     OW 2947   2.322   0.920   1.980 -0.3376  0.2248  0.3202
  983SOL    HW1 2948   2.340   0.959   1.888  1.9568  0.6818 -0.8791
  983SOL    HW2 2949   2.388   0.847   1.995  0.1240  4.8760 -0.7955
  984SOL     OW 2950   1.431   0.111   2.350 -0.4288  0.2953 -0.9271
  984SOL    HW1 2951   1.525   0.144   2.379 -1.6771  0.0100  0.4373
  984SOL    HW2 2952   1.424   0.097   2.251 -0.2660  2.2633  0.3212
  985SOL     OW 2953   1.458   2.193   2.386  0.5640  0.1446  0.3018
  985SOL    HW1 2954   1.522   2.147   2.322  0.5887 -0.6261 -1.0656
  985SOL    HW2 2955   1.507   2.235   2.467  1.6573 -0.5014  0.8529
  986SOL     OW 2956   2.109   0.348   2.238 -0.1178 -0.3613  0.2773
  986SOL    HW1 2957   2.159   0.390   2.320  1.6238  0.1176 -1.2700
  986SOL    HW2 2958   2.014   0.384   2.241 -0.4813 -2.0881 -0.1992
  987SOL     OW 2959   2.306   0.549   2.089 -0.1179  0.2047 -0.5616
  987SOL    HW1 2960   2.242   0.474   2.116  3.7447  0.3046 -0.0037
  987SOL    HW2 2961   2.369   0.510   2.020  0.7594 -1.2297  0.5570
  988SOL     OW 2962   2.618   0.508   2.778  0.0509  0.3306 -0.1601
  988SOL    HW1 2963   2.705   0.458   2.787 -0.2597 -3.2575 -1.9975
  988SOL    HW2 2964   2.588   0.481   2.686 -0.0502 -1.3692 -0.1162
  989SOL     OW 2965   2.467   2.518   2.472  0.0290 -0.0624  0.0230
  989SOL    HW1 2966   2.380   2.563   2.443  2.8463 -2.7365  2.3044
  989SOL    HW2 2967   2.540   2.507   2.398  0.2390 -1.2496 -2.8621
  990SOL     OW 2968   0.329   0.555   0.047  0.3228 -0.2877  0.3137
  990SOL    HW1 2969   0.313   0.563   0.150  0.0806  0.0917  0.3791
  990SOL    HW2 2970   0.290   0.636   3.102 -1.1758 -0.3447 -1.6839
  991SOL     OW 2971   0.675   0.634   2.882 -0.1990 -0.3238  0.0284
  991SOL    HW1 2972   0.652   0.554   2.938 -0.1627  0.8985 -1.9036
  991SOL    HW2 2973   0.751   0.606   2.819 -3.3580 -1.6957 -1.3911
  992SOL     OW 2974   2.695   2.180   2.257 -0.3242 -0.1240  0.0973
  992SOL    HW1 2975   2.778   2.191   2.314 -0.4727  1.0295  1.0986
  992SOL    HW2 2976   2.720   2.141   2.164 -1.3032 -1.6016 -1.0034
  993SOL     OW 2977   0.586   2.934   0.518 -0.1411 -0.4005  0.1077
  993SOL    HW1 2978   0.494   2.886   0.531  1.7783 -2.0568  1.1904
  993SOL    HW2 2979   0.577   3.021   0.460  0.6023  1.5909 -2.3332
  994SOL     OW 2980   0.235   2.116   1.676  0.4758  0.5516  0.6068
  994SOL    HW1 2981   0.305   2.053   1.635 -1.6681 -3.0788  0.0292
  994SOL    HW2 2982   0.153   2.125   1.617 -1.1477 -1.1585  0.4747
  995SOL     OW 2983   2.315   1.855   0.089 -0.0042 -0.0882  0.1180
  995SOL    HW1 2984   2.341   1.940   0.142  0.8809  1.4266  0.1211
  995SOL    HW2 2985   2.225   1.820   0.121 -0.8491  0.8966  1.4737
  996SOL     OW 2986   1.471   1.574   2.541  0.4299 -0.2019  0.4572
  996SOL    HW1 2987   1.517   1.493   2.500  0.0236  2.6021 -0.6055
  996SOL    HW2 2988   1.536   1.648   2.528 -1.1052  0.7196  1.3288
  997SOL     OW 2989   1.849   1.517   1.866 -0.3754 -0.0468  0.2161
  997SOL    HW1 2990   1.798   1.591   1.819 -0.2436  1.3909  0.8682
  997SOL    HW2 2991   1.800   1.429   1.862  1.0506  2.6662 -2.1758
  998SOL     OW 2992   2.746   1.765   0.306 -0.3740  0.0678 -0.3206
  998SOL    HW1 2993   2.755   1.671   0.346  1.5956 -1.1207  1.0144
  998SOL    HW2 2994   2.792   1.766   0.215  0.9103 -0.3985 -3.5260
  999SOL     OW 2995   2.532   2.591   0.498  0.3515 -0.3054  0.0093
  999SOL    HW1 2996   2.457   2.648   0.531 -1.2859  3.5212 -2.0510
  999SOL    HW2 2997   2.495   2.496   0.475  1.5003  0.6059  0.0442
 1000SOL     OW 2998   0.754   2.951   2.128  0.5345  0.1142  0.0654
 1000SOL    HW1 2999   0.756   3.041   2.079  2.1787 -0.9953 -1.7388
 1000SOL    HW2 3000   0.787   2.879   2.062 -1.1120  0.1889  1.1608
   3.10794   3.10794   3.10794
