1000 SPC/Fw water molecules t= 408.00000 step= 408000
 3000
    1SOL     OW    1   0.155   3.074   1.431 -0.1946  0.6100 -0.2176
    1SOL    HW1    2   0.086   0.015   1.493 -0.3762  2.0310 -0.6601
    1SOL    HW2    3   0.112   3.080   1.338 -1.4091 -2.6947  0.8053
    2SOL     OW    4   2.753   2.945   0.275  1.0149 -0.3156 -0.3987
    2SOL    HW1    5   2.729   2.943   0.174 -0.7467  0.2604  0.6109
    2SOL    HW2    6   2.850   2.917   0.293 -0.8475  0.9858  1.7799
    3SOL     OW    7   1.558   2.588   3.096 -0.2804 -0.3798  0.0631
    3SOL    HW1    8   1.621   2.668   3.108  0.5595 -0.3012  0.7822
    3SOL    HW2    9   1.464   2.628   3.085  0.6735  0.3711  1.9332
    4SOL     OW   10   1.045   2.972   2.300  0.2909  0.2025 -0.4999
    4SOL    HW1   11   1.012   3.028   2.224  1.8353 -1.5711  2.8256
    4SOL    HW2   12   1.094   2.888   2.265 -1.3254  1.1409 -0.9711
    5SOL     OW   13   2.070   0.077   1.794 -0.2070  0.1268 -0.3447
    5SOL    HW1   14   2.145   0.075   1.864  1.4621  0.9140 -1.8788
    5SOL    HW2   15   2.103   0.052   1.703 -0.8218 -2.4616  2.7591
    6SOL     OW   16   2.408   1.927   1.021 -0.0639  0.3713  0.5212
    6SOL    HW1   17   2.391   2.026   0.995 -0.4922  1.9567 -1.2550
    6SOL    HW2   18   2.447   1.878   0.940  1.3497  2.8740  3.2169
    7SOL     OW   19   2.129   1.114   0.720 -0.1850 -0.1152 -0.0699
    7SOL    HW1   20   2.217   1.132   0.762 -3.5899 -1.5465 -0.0848
    7SOL    HW2   21   2.123   1.159   0.628  0.1957 -0.2027  0.0049
    8SOL     OW   22   0.654   1.321   0.945  0.1600 -0.5934  0.2036
    8SOL    HW1   23   0.751   1.275   0.949  2.0194 -0.8807  1.2773
    8SOL    HW2   24   0.652   1.418   0.901 -5.8651  2.4908 -2.5209
    9SOL     OW   25   0.193   2.808   1.538  0.5700 -0.1810  0.0162
    9SOL    HW1   26   0.160   2.897   1.503  1.2127  1.3268 -1.9962
    9SOL    HW2   27   0.148   2.736   1.484  0.3885 -1.6716 -0.2615
   10SOL     OW   28   1.317   2.397   0.455 -0.8240 -0.4320  0.1548
   10SOL    HW1   29   1.285   2.374   0.548 -2.8376 -1.1775  2.0177
   10SOL    HW2   30   1.353   2.492   0.449  1.2615 -0.7651 -0.9752
   11SOL     OW   31   1.597   2.013   1.025 -0.5146  0.6308 -0.3021
   11SOL    HW1   32   1.657   2.026   0.945 -0.2673  1.4802  1.0588
   11SOL    HW2   33   1.606   2.085   1.090 -0.4834 -2.3383 -0.2345
   12SOL     OW   34   2.688   0.635   2.313  0.1334  0.1544  0.1190
   12SOL    HW1   35   2.715   0.685   2.395 -1.6760 -0.2571  0.1180
   12SOL    HW2   36   2.601   0.587   2.336 -0.1013  0.3403  0.6661
   13SOL     OW   37   2.701   2.897   0.025  0.4831  0.1980 -0.0586
   13SOL    HW1   38   2.747   2.937   3.056  0.8418  2.5316  2.0143
   13SOL    HW2   39   2.601   2.893   0.018  1.7024 -2.1472  1.1001
   14SOL     OW   40   1.679   1.560   3.017  0.0418  0.3887  0.3007
   14SOL    HW1   41   1.703   1.469   2.973  0.1866 -2.5759  2.4924
   14SOL    HW2   42   1.687   1.556   0.007  1.5709  1.8954 -1.5178
   15SOL     OW   43   2.772   2.682   1.668 -0.1829  0.0126  0.0478
   15SOL    HW1   44   2.752   2.587   1.697 -1.2250 -0.1412  2.3888
   15SOL    HW2   45   2.843   2.729   1.729  2.3508  0.8250  0.4578
   16SOL     OW   46   3.032   3.109   0.971  0.2505 -0.1677  0.9875
   16SOL    HW1   47   3.006   0.092   0.933  0.5999  2.6953  1.1584
   16SOL    HW2   48   3.029   3.038   0.898 -0.0542  0.0342  1.4410
   17SOL     OW   49   1.421   0.186   0.666 -0.0063 -0.5736 -0.1774
   17SOL    HW1   50   1.507   0.148   0.625 -2.7230 -1.8193 -2.8726
   17SOL    HW2   51   1.389   0.151   0.756 -0.9589  1.7158  0.5562
   18SOL     OW   52   1.372   0.130   0.926 -0.1026 -0.2383 -0.3719
   18SOL    HW1   53   1.426   0.136   1.012  0.4881 -1.3236  2.9569
   18SOL    HW2   54   1.287   0.093   0.959  2.6273 -0.6176 -1.4019
   19SOL     OW   55   2.190   1.267   0.486  0.0107 -0.0862 -0.6334
   19SOL    HW1   56   2.133   1.319   0.418  2.1030 -0.6027 -0.8847
   19SOL    HW2   57   2.292   1.274   0.462  1.2732  1.0413 -0.2929
   20SOL     OW   58   2.584   1.639   2.673  0.1369 -0.0028  0.2028
   20SOL    HW1   59   2.604   1.672   2.577  0.2479 -2.2606 -0.6777
   20SOL    HW2   60   2.525   1.702   2.730  0.2720  1.7043  0.1659
   21SOL     OW   61   1.646   2.860   0.238  1.0080  0.0564  0.6595
   21SOL    HW1   62   1.690   2.934   0.294 -0.9627  1.6600 -1.0896
   21SOL    HW2   63   1.546   2.860   0.258  1.4369  0.5453  0.8058
   22SOL     OW   64   2.860   0.966   0.824  0.5598 -0.4668  0.0088
   22SOL    HW1   65   2.923   0.976   0.905  2.4028 -2.1543 -0.7909
   22SOL    HW2   66   2.770   0.921   0.846  1.0667 -2.8174  2.9333
   23SOL     OW   67   0.589   3.052   1.997 -0.5731 -0.6134 -0.3367
   23SOL    HW1   68   0.673   3.103   1.968  1.0160  0.7466  1.2906
   23SOL    HW2   69   0.511   0.007   1.996 -2.8069 -1.5979 -2.3847
   24SOL     OW   70   2.488   2.323   0.728  0.5424 -0.3291  0.1386
   24SOL    HW1   71   2.535   2.409   0.695  0.5971  0.3415  0.1226
   24SOL    HW2   72   2.474   2.336   0.828  0.6252  1.8521 -0.1341
   25SOL     OW   73   1.754   3.104   2.736 -0.6441  0.2338  0.4128
   25SOL    HW1   74   1.797   0.071   2.683  0.4020 -1.1209 -1.3015
   25SOL    HW2   75   1.652   3.108   2.733  1.6403  1.5943  0.6332
   26SOL     OW   76   1.461   2.339   0.066  0.1535  0.7686 -0.2402
   26SOL    HW1   77   1.555   2.310   0.097  0.1043 -0.9850 -0.0945
   26SOL    HW2   78   1.467   2.435   0.037 -0.5794 -0.3539 -3.6396
   27SOL     OW   79   1.583   0.543   1.349  0.0732  0.0838  0.5199
   27SOL    HW1   80   1.484   0.527   1.315 -0.9700 -0.5624 -2.9649
   27SOL    HW2   81   1.608   0.640   1.360  0.0057  1.0317  0.5642
   28SOL     OW   82   1.091   1.457   0.504 -0.7921  0.0866 -0.4723
   28SOL    HW1   83   1.047   1.368   0.480  0.0204  0.3666  1.6344
   28SOL    HW2   84   1.188   1.443   0.535 -0.5868 -0.6459 -2.2246
   29SOL     OW   85   2.481   0.441   1.549  0.5139  0.8561 -0.4081
   29SOL    HW1   86   2.460   0.434   1.650  0.7728 -1.4203  2.6838
   29SOL    HW2   87   2.406   0.497   1.513  0.8348 -0.2875  1.7298
   30SOL     OW   88   1.266   2.617   1.494  0.2155 -0.2867  0.4081
   30SOL    HW1   89   1.317   2.590   1.580  0.7360  3.8470 -0.5755
   30SOL    HW2   90   1.285   2.561   1.412  1.0580 -0.6697 -0.6182
   31SOL     OW   91   2.066   2.865   1.464  0.0321 -0.2955  0.7071
   31SOL    HW1   92   2.105   2.942   1.519 -0.5089 -1.1165  1.2246
   31SOL    HW2   93   2.080   2.771   1.501 -1.4156 -2.7144 -0.0199
   32SOL     OW   94   1.911   1.513   2.652  0.0536 -0.0511 -0.0166
   32SOL    HW1   95   1.816   1.475   2.639 -0.5001  0.7542 -2.3381
   32SOL    HW2   96   1.925   1.586   2.580 -1.6433 -0.3858 -0.1232
   33SOL     OW   97   2.432   0.779   2.542  0.0481  0.4065  0.9355
   33SOL    HW1   98   2.352   0.800   2.599  1.3855  0.9892  1.3173
   33SOL    HW2   99   2.417   0.797   2.443  1.3859  1.5371  0.4312
   34SOL     OW  100   1.926   0.290   0.208 -0.2970 -0.7143 -0.1774
   34SOL    HW1  101   1.950   0.361   0.280 -1.3393 -0.2480 -0.0879
   34SOL    HW2  102   1.988   0.213   0.215 -1.3928  1.2662  0.3717
   35SOL     OW  103   3.104   2.096   1.921  0.0490 -0.2821  0.6565
   35SOL    HW1  104   3.092   2.105   1.822  1.1693 -1.5530 -2.3902
   35SOL    HW2  105   3.042   2.022   1.945  0.2610  1.0119  1.6925
   36SOL     OW  106   2.346   1.842   3.093  0.2785 -0.1169 -0.9051
   36SOL    HW1  107   2.380   1.814   3.000  2.1168 -0.1605 -2.0744
   36SOL    HW2  108   2.351   1.944   0.005 -0.7059  2.1572 -0.0049
   37SOL     OW  109   1.815   0.275   1.775  0.2453  0.2920 -0.3536
   37SOL    HW1  110   1.827   0.372   1.810  0.2682  1.3114 -2.7045
   37SOL    HW2  111   1.905   0.222   1.789  0.6676  0.1682 -0.1009
   38SOL     OW  112   0.334   0.473   2.532 -0.2138  0.3237 -0.4957
   38SOL    HW1  113   0.291   0.460   2.625 -0.3997  0.9879 -0.2411
   38SOL    HW2  114   0.435   0.458   2.535  0.4635 -0.7490 -1.0043
   39SOL     OW  115   1.879   0.930   1.360  0.1766 -0.0670 -0.5803
   39SOL    HW1  116   1.817   0.851   1.386 -1.2908  0.9126  1.3972
   39SOL    HW2  117   1.841   0.972   1.271  1.3030  2.1701 -4.1144
   40SOL     OW  118   1.164   2.035   0.704 -0.4214 -0.0883 -0.3437
   40SOL    HW1  119   1.107   2.026   0.788  0.2945 -3.2693  0.0344
   40SOL    HW2  120   1.233   1.962   0.707 -1.7956  1.2064 -1.1430
   41SOL     OW  121   1.962   2.167   1.089 -0.3948 -0.1295 -0.4304
   41SOL    HW1  122   1.918   2.116   1.014  1.8121 -1.8728 -2.2887
   41SOL    HW2  123   1.926   2.137   1.182  0.7661 -0.4376 -2.1051
   42SOL     OW  124   2.417   0.708   1.223  0.2638  0.1282  0.2167
   42SOL    HW1  125   2.514   0.738   1.227 -4.3052 -1.1018 -2.4076
   42SOL    HW2  126   2.379   0.699   1.320  0.2279 -0.6296  0.2000
   43SOL     OW  127   0.942   1.405   2.404  0.2186 -0.7298 -0.4317
   43SOL    HW1  128   1.042   1.383   2.383  0.0076 -0.9537 -2.4415
   43SOL    HW2  129   0.921   1.506   2.407  0.8442  1.5268 -0.9135
   44SOL     OW  130   1.602   2.541   1.321  0.0304  0.1546 -0.2955
   44SOL    HW1  131   1.638   2.614   1.382 -2.3131 -3.3307  1.7248
   44SOL    HW2  132   1.656   2.545   1.230  3.3879 -1.4579 -1.1880
   45SOL     OW  133   0.821   2.881   2.453  0.2844 -0.1458 -0.4468
   45SOL    HW1  134   0.905   2.910   2.401  0.0311  0.7374  0.5743
   45SOL    HW2  135   0.786   2.787   2.429 -1.9267 -2.1088  2.5350
   46SOL     OW  136   0.887   2.666   2.096  0.7273 -0.5527  0.2195
   46SOL    HW1  137   0.900   2.572   2.062 -0.7056  0.8006  1.3836
   46SOL    HW2  138   0.795   2.668   2.144  0.2996 -0.0301  1.5283
   47SOL     OW  139   1.029   2.045   0.936 -0.0465  0.4717 -0.1057
   47SOL    HW1  140   1.017   2.144   0.943 -0.9380  0.5723  0.1790
   47SOL    HW2  141   0.943   2.002   0.970  1.5036 -1.2184  3.4978
   48SOL     OW  142   0.776   2.397   1.380  0.1747 -0.1091 -0.1875
   48SOL    HW1  143   0.718   2.432   1.302  0.1506  0.0896  1.0121
   48SOL    HW2  144   0.868   2.440   1.375 -0.7233  1.4561  0.7079
   49SOL     OW  145   2.495   0.101   3.040 -0.0632 -0.4235  0.0396
   49SOL    HW1  146   2.541   0.096   2.947  1.9395  0.9671 -2.4876
   49SOL    HW2  147   2.463   0.016   3.089 -0.4848  0.1526  2.3934
   50SOL     OW  148   1.588   0.842   0.535  0.0334 -0.6898  0.2945
   50SOL    HW1  149   1.640   0.826   0.447  1.9091  0.5811 -0.5061
   50SOL    HW2  150   1.528   0.926   0.526 -2.8040  0.0822 -0.5109
   51SOL     OW  151   2.094   0.431   0.940  0.1097 -0.1553 -0.5068
   51SOL    HW1  152   2.053   0.469   1.026  0.7934  0.8160  0.2845
   51SOL    HW2  153   2.068   0.485   0.859 -0.4483  1.0569  1.5903
   52SOL     OW  154   0.851   1.539   0.154  0.4248 -0.0527  0.6400
   52SOL    HW1  155   0.817   1.571   0.062 -2.3038 -0.3072  0.3211
   52SOL    HW2  156   0.867   1.435   0.162 -0.0059  3.4519  1.6098
   53SOL     OW  157   0.483   1.109   3.099  0.3877  0.0657  0.3775
   53SOL    HW1  158   0.385   1.085   3.096  2.3302 -0.0865 -0.1896
   53SOL    HW2  159   0.531   1.049   0.052  0.8525  3.1663 -0.0501
   54SOL     OW  160   1.961   1.639   2.403 -0.2227  0.1460  0.1860
   54SOL    HW1  161   2.055   1.604   2.421 -0.6295  1.7212 -1.3240
   54SOL    HW2  162   1.960   1.682   2.307  0.5314 -1.2509 -0.7987
   55SOL     OW  163   2.789   2.246   0.930 -0.7427 -0.1071  0.1520
   55SOL    HW1  164   2.837   2.309   0.993 -0.1807  2.5992  1.8276
   55SOL    HW2  165   2.729   2.182   0.983 -0.0857  1.3635  0.8959
   56SOL     OW  166   2.028   2.944   1.191 -0.1655 -0.1647  0.2868
   56SOL    HW1  167   2.024   2.925   1.291  0.7816 -0.7550 -2.2831
   56SOL    HW2  168   1.933   2.923   1.153 -1.1891  0.1321 -2.3610
   57SOL     OW  169   1.658   1.306   0.567 -0.6357 -0.3275 -0.1682
   57SOL    HW1  170   1.659   1.385   0.633  2.5674  2.2844  1.7003
   57SOL    HW2  171   1.723   1.232   0.603  1.3164 -0.5346 -0.8045
   58SOL     OW  172   2.346   0.140   1.469 -0.2566  0.0388  0.6712
   58SOL    HW1  173   2.436   0.178   1.503  0.2860  5.4040  1.9769
   58SOL    HW2  174   2.357   0.133   1.370 -2.2191 -1.5392  2.6456
   59SOL     OW  175   1.114   2.785   2.646  0.1375  0.2779 -0.3784
   59SOL    HW1  176   1.175   2.845   2.698  0.1098  1.6318 -2.2281
   59SOL    HW2  177   1.026   2.778   2.699 -1.6307 -2.6428 -0.3354
   60SOL     OW  178   3.079   2.755   2.964  0.2269 -0.2946  0.4863
   60SOL    HW1  179   3.026   2.745   3.050  1.1019  1.8025 -1.1346
   60SOL    HW2  180   3.008   2.759   2.885 -2.9689  0.6671  1.2702
   61SOL     OW  181   0.922   2.311   0.904  0.4633 -1.0893 -0.5158
   61SOL    HW1  182   0.931   2.382   0.973  0.1655 -0.8130 -1.9993
   61SOL    HW2  183   0.830   2.321   0.860 -1.2781 -1.2581  0.7323
   62SOL     OW  184   1.428   1.780   2.050 -0.4544 -0.0909 -0.3510
   62SOL    HW1  185   1.494   1.820   2.119 -0.6429  2.0603 -2.8081
   62SOL    HW2  186   1.474   1.770   1.958  0.9818  1.2368 -2.1642
   63SOL     OW  187   1.842   1.647   0.397  0.4389 -0.5595 -0.2650
   63SOL    HW1  188   1.874   1.561   0.353  0.2222  1.1377  3.0520
   63SOL    HW2  189   1.916   1.708   0.434 -0.4263 -1.6024 -1.0521
   64SOL     OW  190   1.663   1.308   0.268  0.1817 -0.0232 -0.6485
   64SOL    HW1  191   1.688   1.286   0.364  0.9961 -0.8502  0.0374
   64SOL    HW2  192   1.659   1.220   0.216 -1.6647  1.8684  1.3324
   65SOL     OW  193   1.648   2.437   2.319  0.3522  0.3449  0.2814
   65SOL    HW1  194   1.609   2.390   2.398  1.1443  2.2777 -0.0893
   65SOL    HW2  195   1.748   2.431   2.323 -0.9727 -1.8082  0.0054
   66SOL     OW  196   0.243   1.123   1.421 -0.4990 -0.1977 -0.0015
   66SOL    HW1  197   0.287   1.028   1.417  1.3919 -1.6342 -0.2454
   66SOL    HW2  198   0.268   1.178   1.340  1.3003  2.4108  0.3016
   67SOL     OW  199   2.346   2.772   0.542  0.0915 -0.9008  0.2192
   67SOL    HW1  200   2.437   2.815   0.548 -0.6024  1.5938 -0.7123
   67SOL    HW2  201   2.272   2.812   0.598  3.7473 -0.5568 -2.2868
   68SOL     OW  202   2.020   2.448   1.373  0.1019 -0.7939 -0.0747
   68SOL    HW1  203   2.083   2.392   1.314  0.5122  0.5726 -1.3504
   68SOL    HW2  204   2.081   2.520   1.413  0.1057  1.2779 -1.8139
   69SOL     OW  205   2.472   2.070   0.057 -0.4301 -0.0309 -0.4246
   69SOL    HW1  206   2.478   2.172   0.037 -3.5226 -1.5332 -1.9023
   69SOL    HW2  207   2.567   2.027   0.062  1.6430 -0.1592  0.3837
   70SOL     OW  208   0.163   1.032   2.419  0.0761 -0.2836  0.7061
   70SOL    HW1  209   0.226   1.082   2.353 -1.0487  0.3381 -2.4015
   70SOL    HW2  210   0.148   1.093   2.500 -2.4793  0.8075  0.7109
   71SOL     OW  211   0.853   1.044   2.500 -0.3772  0.4125  0.2286
   71SOL    HW1  212   0.795   1.130   2.508  1.7836  4.5507  1.2871
   71SOL    HW2  213   0.799   0.957   2.519 -0.4801  0.7797 -0.9482
   72SOL     OW  214   2.461   1.597   2.009  0.2518 -0.4837  0.3460
   72SOL    HW1  215   2.457   1.497   1.982 -1.6502 -2.0869  0.6484
   72SOL    HW2  216   2.553   1.645   1.997  1.1869 -0.7124  0.7672
   73SOL     OW  217   1.255   1.978   2.715 -0.2738 -0.1493  0.1449
   73SOL    HW1  218   1.174   1.997   2.774  0.0969 -1.7192 -0.1178
   73SOL    HW2  219   1.326   1.927   2.778  3.0295 -1.4516  0.5999
   74SOL     OW  220   2.102   2.871   2.663 -0.2259 -0.3621 -0.1685
   74SOL    HW1  221   2.003   2.840   2.655 -1.9436 -0.3245 -3.2571
   74SOL    HW2  222   2.100   2.970   2.693  0.4340  0.6469 -2.1031
   75SOL     OW  223   1.749   2.543   1.081 -0.1042  0.5096 -0.0112
   75SOL    HW1  224   1.809   2.504   1.011 -1.1336  0.6207  1.0376
   75SOL    HW2  225   1.759   2.645   1.084 -1.9351 -3.0819  1.1064
   76SOL     OW  226   2.873   1.903   2.937 -0.2704  0.7579 -0.0351
   76SOL    HW1  227   2.823   1.821   2.903  1.9947  0.2553 -0.8707
   76SOL    HW2  228   2.922   1.883   3.025  0.5516 -1.2779  1.4253
   77SOL     OW  229   0.009   2.620   1.426 -0.3525 -0.1534  0.0301
   77SOL    HW1  230   3.108   2.583   1.328 -0.7369  1.7581 -3.4776
   77SOL    HW2  231   0.047   2.547   1.488 -1.5856  0.1386 -1.5445
   78SOL     OW  232   2.547   0.847   2.860 -0.0659  0.3227  0.3926
   78SOL    HW1  233   2.624   0.879   2.920 -0.2844 -0.4938  1.0607
   78SOL    HW2  234   2.467   0.907   2.881 -2.8689  2.0920  3.7336
   79SOL     OW  235   0.212   1.737   2.510 -0.5753 -0.4301 -0.5337
   79SOL    HW1  236   0.269   1.655   2.491 -1.2138  0.6249  1.5555
   79SOL    HW2  237   0.131   1.705   2.562 -0.5419 -2.3897  0.3773
   80SOL     OW  238   1.824   1.581   1.822 -1.0415  0.8947  0.2976
   80SOL    HW1  239   1.907   1.570   1.762  0.5870  0.6662 -3.5785
   80SOL    HW2  240   1.789   1.492   1.852  1.7783 -3.3323 -0.9071
   81SOL     OW  241   2.112   1.359   2.212  0.1512  0.1007  0.0873
   81SOL    HW1  242   2.018   1.345   2.244 -1.3899  0.6192  0.1643
   81SOL    HW2  243   2.138   1.451   2.254  0.3981  1.6117 -0.8282
   82SOL     OW  244   1.299   1.475   1.725 -0.3027 -0.0837  0.2465
   82SOL    HW1  245   1.338   1.557   1.672 -2.9905 -0.6003 -1.7200
   82SOL    HW2  246   1.366   1.406   1.756 -1.2589  2.5150  0.5775
   83SOL     OW  247   3.048   0.294   0.022  0.5872 -0.1018 -0.1536
   83SOL    HW1  248   3.066   0.335   0.115 -0.4533  0.4872 -1.8895
   83SOL    HW2  249   3.041   0.370   3.064  1.0894  0.7815  1.6931
   84SOL     OW  250   2.953   1.066   0.034  0.3705 -0.4817  0.6289
   84SOL    HW1  251   3.012   1.013   0.098  0.1271  1.7852  0.4848
   84SOL    HW2  252   2.967   1.166   0.054  1.0960  1.1901 -0.9138
   85SOL     OW  253   2.261   2.017   1.856 -0.3317  0.1503  0.0764
   85SOL    HW1  254   2.335   2.035   1.925  0.5137  1.9946  2.0804
   85SOL    HW2  255   2.180   2.072   1.879  2.2415 -1.9727 -2.1788
   86SOL     OW  256   0.512   0.547   1.126 -0.0902 -0.0837 -0.5099
   86SOL    HW1  257   0.486   0.590   1.038 -0.5574  0.0743  2.0940
   86SOL    HW2  258   0.568   0.464   1.112  0.0619 -0.4524 -1.8118
   87SOL     OW  259   2.819   2.120   2.077 -0.2465  0.2102  0.3221
   87SOL    HW1  260   2.741   2.183   2.104  0.2793 -0.1228  0.5743
   87SOL    HW2  261   2.872   2.098   2.160  0.6560  0.7420  2.1484
   88SOL     OW  262   0.516   2.020   0.076 -1.1481 -0.2507 -0.1086
   88SOL    HW1  263   0.567   2.019   0.164 -0.9560  0.8543  1.4746
   88SOL    HW2  264   0.547   1.950   0.008  0.1706 -0.9188  0.6482
   89SOL     OW  265   1.447   0.718   0.245  0.4921  0.2856  0.4480
   89SOL    HW1  266   1.391   0.806   0.249  0.8972 -0.3039 -1.3839
   89SOL    HW2  267   1.545   0.739   0.235  0.9725 -1.5931  0.3023
   90SOL     OW  268   0.002   1.526   2.323  0.1967  0.3449  0.8077
   90SOL    HW1  269   3.020   1.544   2.358  1.1244 -0.5731 -2.3514
   90SOL    HW2  270   0.045   1.612   2.304 -0.8885 -0.4509  1.1763
   91SOL     OW  271   2.261   3.053   1.075  0.5896  0.4904 -0.0737
   91SOL    HW1  272   2.184   2.992   1.111 -0.2771 -0.6238 -0.8636
   91SOL    HW2  273   2.283   3.031   0.982  0.8027  5.3541  2.5290
   92SOL     OW  274   2.087   1.275   1.253 -0.7989  0.2281 -0.1695
   92SOL    HW1  275   2.060   1.258   1.155 -0.8547  1.7222  0.1639
   92SOL    HW2  276   2.171   1.335   1.263 -1.1657 -0.2974  1.6029
   93SOL     OW  277   2.953   1.273   0.256 -0.2350 -0.1520 -0.1965
   93SOL    HW1  278   2.920   1.221   0.338 -1.8678  2.2077  1.0806
   93SOL    HW2  279   3.052   1.297   0.266 -0.1903  0.8337  0.8795
   94SOL     OW  280   1.145   2.340   2.081 -0.2862  0.6382  0.0028
   94SOL    HW1  281   1.158   2.242   2.058 -1.7845 -0.1573 -2.6641
   94SOL    HW2  282   1.172   2.356   2.178  2.6355 -1.8003  1.9473
   95SOL     OW  283   3.016   0.675   0.998 -0.1405 -0.2483  0.6960
   95SOL    HW1  284   3.076   0.623   1.060  0.4061 -0.7610 -2.0316
   95SOL    HW2  285   3.061   0.671   0.909 -1.4313  0.5922  2.3130
   96SOL     OW  286   3.074   2.759   1.738  0.0528 -0.0390  0.0151
   96SOL    HW1  287   0.026   2.787   1.661  1.2573  0.0782 -0.3698
   96SOL    HW2  288   0.006   2.681   1.785  0.9526  0.5744 -0.2203
   97SOL     OW  289   2.305   0.649   1.488  0.1458  0.3220  0.1429
   97SOL    HW1  290   2.316   0.754   1.500 -0.5769 -0.4473  0.1925
   97SOL    HW2  291   2.228   0.623   1.427  0.7745  0.8172  1.3420
   98SOL     OW  292   2.369   2.552   1.401 -0.1656 -0.1036 -0.2366
   98SOL    HW1  293   2.464   2.525   1.387 -0.0416  3.2981 -2.9160
   98SOL    HW2  294   2.310   2.486   1.351  0.2791 -1.5524 -0.9503
   99SOL     OW  295   0.303   0.298   1.822 -0.3650 -0.2329  0.3157
   99SOL    HW1  296   0.268   0.382   1.867  0.2359 -1.5516 -2.7571
   99SOL    HW2  297   0.357   0.326   1.736  1.4871 -0.0988 -1.9414
  100SOL     OW  298   2.076   0.192   2.371  0.1813 -0.9208 -0.1299
  100SOL    HW1  299   2.062   0.118   2.304 -0.4715 -0.8596  0.6656
  100SOL    HW2  300   2.046   0.285   2.343  1.4779  0.3515  3.0080
  101SOL     OW  301   0.085   0.031   2.411  0.3876  0.2491 -0.0700
  101SOL    HW1  302   0.145   0.034   2.331 -2.4669  3.5160 -1.4646
  101SOL    HW2  303   0.046   0.123   2.427  1.7373 -0.4630 -4.4776
  102SOL     OW  304   0.677   0.325   1.780 -0.2504 -0.3213 -0.1370
  102SOL    HW1  305   0.592   0.317   1.724 -0.1978  0.2114  0.3526
  102SOL    HW2  306   0.740   0.389   1.732  3.1269 -0.4874  0.7058
  103SOL     OW  307   0.952   0.676   2.766  0.0428  0.6080  0.0445
  103SOL    HW1  308   0.987   0.766   2.799  0.8903 -2.9566 -1.0778
  103SOL    HW2  309   0.991   0.652   2.676  1.2156  1.4078  0.6013
  104SOL     OW  310   0.127   0.679   2.208 -0.1005  0.0236  0.7003
  104SOL    HW1  311   0.185   0.723   2.282 -0.2754  0.4062  2.9501
  104SOL    HW2  312   0.043   0.738   2.195  3.0749 -0.3076  0.1900
  105SOL     OW  313   2.494   2.137   1.358 -0.4682 -0.2043  0.3463
  105SOL    HW1  314   2.447   2.199   1.422 -1.3885  2.2376 -1.7407
  105SOL    HW2  315   2.453   2.045   1.369 -1.4822  3.3375 -0.0953
  106SOL     OW  316   1.639   0.103   0.536 -0.4098  0.0645 -0.7145
  106SOL    HW1  317   1.678   0.093   0.630 -0.5025  2.0676  0.3431
  106SOL    HW2  318   1.650   0.204   0.511  0.9817  2.1886 -3.6730
  107SOL     OW  319   2.232   2.183   1.033  0.0546  0.1602  0.4549
  107SOL    HW1  320   2.137   2.184   1.072 -0.7483 -1.2555  1.1838
  107SOL    HW2  321   2.225   2.155   0.939  1.7406  2.7908  4.7403
  108SOL     OW  322   0.109   2.471   1.118  0.3931 -0.1542  0.6526
  108SOL    HW1  323   0.052   2.519   1.050  0.7465 -0.5378  0.8158
  108SOL    HW2  324   0.068   2.382   1.135 -2.8769  3.5103  1.8542
  109SOL     OW  325   1.948   2.412   0.913 -0.3389 -0.2470 -0.2426
  109SOL    HW1  326   1.956   2.373   0.818 -2.4913  0.9878  0.1314
  109SOL    HW2  327   1.939   2.335   0.979  0.7654 -0.1670 -2.0213
  110SOL     OW  328   1.829   1.609   1.375  0.4702  0.1643 -0.1862
  110SOL    HW1  329   1.923   1.641   1.347  2.4694  1.1410 -0.2673
  110SOL    HW2  330   1.824   1.511   1.401 -1.4322 -2.0099 -1.9163
  111SOL     OW  331   1.468   2.149   1.907  0.4852 -0.3103 -0.4379
  111SOL    HW1  332   1.534   2.174   1.834 -1.5713 -0.0088  1.7336
  111SOL    HW2  333   1.470   2.214   1.985  1.4024  0.9752 -0.5860
  112SOL     OW  334   1.955   2.216   3.082  0.2525 -0.5516  0.3712
  112SOL    HW1  335   1.926   2.130   0.015 -2.1702 -1.2934  1.6517
  112SOL    HW2  336   2.038   2.204   3.024 -0.1884  0.2159  1.4276
  113SOL     OW  337   2.026   1.855   1.845 -0.0665  1.0476 -0.2223
  113SOL    HW1  338   2.119   1.884   1.867 -2.7828  0.4777 -0.3291
  113SOL    HW2  339   2.031   1.765   1.795 -1.1613 -3.3213 -1.8405
  114SOL     OW  340   2.988   1.514   1.801 -0.4540 -0.8145 -0.7678
  114SOL    HW1  341   2.886   1.529   1.793  0.8215 -4.0039 -1.0913
  114SOL    HW2  342   3.014   1.463   1.885 -1.8524 -0.5247 -1.9087
  115SOL     OW  343   0.044   0.916   0.156 -0.0812 -0.3730 -0.2234
  115SOL    HW1  344   3.107   0.829   0.161  1.2061  0.9184 -0.4324
  115SOL    HW2  345   0.114   0.918   0.233  2.3926  1.1973  2.3586
  116SOL     OW  346   2.564   1.187   2.879  0.2050 -0.1564 -0.6558
  116SOL    HW1  347   2.594   1.239   2.960 -1.2150 -1.2787 -3.3697
  116SOL    HW2  348   2.469   1.154   2.885  5.1603  0.1230 -2.7264
  117SOL     OW  349   2.917   2.264   0.157  0.2577 -1.0309 -0.1344
  117SOL    HW1  350   2.976   2.225   0.087  0.0154 -0.6253  4.7094
  117SOL    HW2  351   2.897   2.363   0.129 -1.4599  1.7814 -0.8268
  118SOL     OW  352   0.786   2.072   2.972  0.0276 -0.4894 -0.3287
  118SOL    HW1  353   0.889   2.056   2.969 -0.3998  2.2108 -0.6441
  118SOL    HW2  354   0.738   1.992   2.938  1.2503  0.7920 -0.6200
  119SOL     OW  355   0.611   2.667   0.657 -0.1606  0.4059 -0.9484
  119SOL    HW1  356   0.699   2.672   0.711  0.4899  0.0128  0.3473
  119SOL    HW2  357   0.536   2.631   0.721  0.3415 -1.8379  2.8379
  120SOL     OW  358   1.294   0.514   0.332  0.3603 -0.2439  0.1284
  120SOL    HW1  359   1.341   0.593   0.288  0.1830  0.7178 -1.6642
  120SOL    HW2  360   1.193   0.518   0.309  2.5666  2.4034 -0.0630
  121SOL     OW  361   1.492   2.628   0.949 -0.3054 -0.6066 -0.6645
  121SOL    HW1  362   1.546   2.713   0.928 -1.0954  1.1464  1.8508
  121SOL    HW2  363   1.549   2.557   0.988 -3.8230  2.0914  0.2523
  122SOL     OW  364   2.597   1.745   2.398  0.0133 -0.0245  0.0109
  122SOL    HW1  365   2.661   1.686   2.340  3.5225 -0.0196  0.4171
  122SOL    HW2  366   2.496   1.733   2.373 -1.9493  0.7085  0.1310
  123SOL     OW  367   1.450   1.434   1.025  0.2172  0.0898 -0.1773
  123SOL    HW1  368   1.538   1.461   1.068  0.2432 -0.5917 -0.6866
  123SOL    HW2  369   1.368   1.473   1.080 -3.5223 -1.3463  2.5237
  124SOL     OW  370   0.285   0.432   2.862  0.0367 -0.6301 -0.3367
  124SOL    HW1  371   0.244   0.339   2.853 -1.6538 -0.4845  0.3465
  124SOL    HW2  372   0.385   0.430   2.865 -2.3372 -1.5266  0.8165
  125SOL     OW  373   0.388   0.432   0.166  0.1512  0.1414 -0.0168
  125SOL    HW1  374   0.308   0.488   0.138 -2.1683  1.6032  0.8414
  125SOL    HW2  375   0.365   0.338   0.126 -2.2351 -2.4911  0.6345
  126SOL     OW  376   0.406   1.737   0.537  0.4024 -0.5415 -0.3579
  126SOL    HW1  377   0.389   1.698   0.446  0.8472  2.3349  2.9810
  126SOL    HW2  378   0.409   1.670   0.615  0.3963 -0.5774 -0.5639
  127SOL     OW  379   0.965   2.470   1.667 -0.1658  0.1078  0.4190
  127SOL    HW1  380   0.924   2.565   1.681  0.6918 -0.9918  1.6135
  127SOL    HW2  381   0.965   2.441   1.568 -0.2046 -2.4237 -2.8613
  128SOL     OW  382   1.259   1.450   0.142 -0.4475 -0.5242 -0.2416
  128SOL    HW1  383   1.191   1.511   0.182  1.6029 -4.5016 -1.2361
  128SOL    HW2  384   1.300   1.497   0.059  0.2274  3.4256 -2.9638
  129SOL     OW  385   1.764   1.856   1.959 -0.0773 -0.2245  0.0437
  129SOL    HW1  386   1.708   1.800   1.901  0.8721 -0.4336  2.8422
  129SOL    HW2  387   1.855   1.896   1.921  3.0432 -2.3952 -0.4518
  130SOL     OW  388   1.665   2.196   1.690 -0.6911  0.8539  0.2084
  130SOL    HW1  389   1.646   2.098   1.653 -0.2379 -2.5831 -2.1876
  130SOL    HW2  390   1.609   2.256   1.633  1.2950 -2.2182 -0.7792
  131SOL     OW  391   0.093   2.319   2.018 -0.0733  0.1383 -0.2247
  131SOL    HW1  392   0.066   2.229   1.979  1.6943 -0.9225 -0.0251
  131SOL    HW2  393   0.029   2.349   2.090  1.7413 -0.1150  2.8515
  132SOL     OW  394   2.774   1.886   0.913 -0.2969  0.0313 -0.1815
  132SOL    HW1  395   2.768   1.786   0.900 -0.0550 -0.4418  0.4191
  132SOL    HW2  396   2.862   1.919   0.959  0.5600  2.1078  2.3145
  133SOL     OW  397   0.498   0.825   1.817  0.5386 -0.4744 -0.0664
  133SOL    HW1  398   0.462   0.794   1.726  2.4432 -2.5504 -2.0238
  133SOL    HW2  399   0.524   0.748   1.875 -1.0688 -0.9926  0.4841
  134SOL     OW  400   2.828   1.820   0.216  0.0529  0.3687 -0.1792
  134SOL    HW1  401   2.836   1.827   0.318  0.7996  0.3296  0.5310
  134SOL    HW2  402   2.764   1.890   0.179  1.6663 -1.9253  3.1995
  135SOL     OW  403   1.756   1.028   2.493 -0.1399  0.1706  0.3996
  135SOL    HW1  404   1.844   0.982   2.467  0.4291 -0.2787  1.0801
  135SOL    HW2  405   1.708   0.980   2.569 -1.5667 -0.0999  2.5269
  136SOL     OW  406   2.557   1.748   1.208  0.4066 -0.2190  0.3083
  136SOL    HW1  407   2.487   1.773   1.141  1.9325 -1.3117  3.7954
  136SOL    HW2  408   2.521   1.762   1.300  2.0926 -1.9028  0.8254
  137SOL     OW  409   2.484   1.721   0.853 -0.1456  0.0816  0.4829
  137SOL    HW1  410   2.540   1.630   0.845 -0.0907 -2.0228 -0.8862
  137SOL    HW2  411   2.505   1.782   0.773  0.8025  1.0236  0.9364
  138SOL     OW  412   2.623   0.546   0.821  0.3307 -0.2705 -0.0707
  138SOL    HW1  413   2.669   0.568   0.909 -0.3667 -0.5641 -1.3458
  138SOL    HW2  414   2.523   0.570   0.824 -2.0021  1.6499 -0.4961
  139SOL     OW  415   2.946   2.773   0.075 -0.5668  0.3363  0.1518
  139SOL    HW1  416   2.850   2.800   0.083  3.1174  0.3189  2.0785
  139SOL    HW2  417   2.996   2.858   0.096 -3.2087 -2.0146  0.0912
  140SOL     OW  418   0.701   1.369   1.377 -0.2196 -0.1568 -0.3252
  140SOL    HW1  419   0.789   1.333   1.344 -0.3300  1.1221 -1.3690
  140SOL    HW2  420   0.629   1.317   1.334 -0.0716  0.5543  1.4871
  141SOL     OW  421   1.194   1.754   0.878 -0.7651  0.1436  0.0430
  141SOL    HW1  422   1.157   1.778   0.966 -1.7369 -0.3650 -4.9520
  141SOL    HW2  423   1.298   1.755   0.876 -0.4691 -0.3048  1.3440
  142SOL     OW  424   0.783   0.561   1.021  0.3460 -0.2039 -0.2451
  142SOL    HW1  425   0.762   0.469   1.062  1.3656  0.8368  0.6371
  142SOL    HW2  426   0.825   0.620   1.091 -0.9074  0.5085  0.4649
  143SOL     OW  427   0.705   1.290   2.466  0.1310  0.3405  0.1393
  143SOL    HW1  428   0.634   1.344   2.417  2.4867 -0.6715 -1.3986
  143SOL    HW2  429   0.799   1.326   2.444 -3.7158  1.9752 -0.7157
  144SOL     OW  430   2.366   3.001   0.827 -0.5391  0.2793  0.2182
  144SOL    HW1  431   2.389   3.089   0.780 -0.5029  1.2597  0.8714
  144SOL    HW2  432   2.453   2.955   0.849 -0.3054  0.2620 -0.9165
  145SOL     OW  433   1.917   0.155   2.602 -0.0485  0.0705 -0.2456
  145SOL    HW1  434   1.966   0.116   2.686  0.1789 -1.6961  0.8894
  145SOL    HW2  435   1.979   0.155   2.521 -0.3128  2.0002  0.8404
  146SOL     OW  436   3.010   2.906   0.397 -0.1311  0.2210 -0.5481
  146SOL    HW1  437   3.056   2.941   0.311  0.9969  1.9880 -0.8803
  146SOL    HW2  438   2.985   2.987   0.449 -0.4852 -1.2505 -3.0174
  147SOL     OW  439   1.100   1.042   2.642 -0.0382  0.1076  0.0627
  147SOL    HW1  440   1.017   1.057   2.579 -0.0850 -0.1725 -3.5081
  147SOL    HW2  441   1.164   1.120   2.622 -0.3497  1.1961  0.0089
  148SOL     OW  442   1.475   3.105   2.695 -0.6129 -0.5449  0.4021
  148SOL    HW1  443   1.429   0.085   2.709 -2.6250  1.9139 -0.2597
  148SOL    HW2  444   1.422   3.023   2.723  1.5220  2.7801  2.0056
  149SOL     OW  445   1.518   0.075   1.951 -0.0288  0.0584 -0.3095
  149SOL    HW1  446   1.435   0.128   1.981  0.4828  0.1387 -0.7449
  149SOL    HW2  447   1.604   0.095   2.004  0.0565 -0.7087 -1.4310
  150SOL     OW  448   2.338   2.700   0.039  0.0293  0.3285 -0.4998
  150SOL    HW1  449   2.254   2.668   3.103  0.7746 -0.8979 -0.1107
  150SOL    HW2  450   2.386   2.629   0.093  1.6628  1.2851  0.3029
  151SOL     OW  451   0.728   1.566   3.014  0.2004  0.2186  0.5192
  151SOL    HW1  452   0.675   1.480   3.029 -0.0246 -0.3278 -1.4596
  151SOL    HW2  453   0.804   1.558   2.948  2.8457 -1.2164  1.8253
  152SOL     OW  454   0.383   0.054   1.558  0.4589 -0.2639  0.2524
  152SOL    HW1  455   0.296   0.026   1.515 -2.8527  0.3761 -2.8773
  152SOL    HW2  456   0.403   3.100   1.636  0.0247 -0.4255  1.6618
  153SOL     OW  457   2.357   2.953   1.772  0.7113 -0.5396 -0.3487
  153SOL    HW1  458   2.448   2.976   1.813 -0.1153 -1.7209 -3.6985
  153SOL    HW2  459   2.296   2.902   1.839 -1.5422 -2.0924  1.0909
  154SOL     OW  460   2.511   3.075   2.547  0.2981  0.6117 -0.0669
  154SOL    HW1  461   2.465   0.046   2.508 -0.3527 -0.3978 -1.0617
  154SOL    HW2  462   2.609   3.090   2.580 -3.0863  0.4330  3.1342
  155SOL     OW  463   2.911   1.146   0.477 -0.1948 -0.1441 -0.1452
  155SOL    HW1  464   2.995   1.104   0.511 -2.6994 -1.0053 -3.0380
  155SOL    HW2  465   2.895   1.237   0.524 -1.1643  1.7727  0.4477
  156SOL     OW  466   2.867   1.636   0.772 -0.8716  0.2182  0.2331
  156SOL    HW1  467   2.951   1.639   0.828  0.7084  0.5407 -0.5756
  156SOL    HW2  468   2.865   1.713   0.706  3.5204  0.9775 -1.8625
  157SOL     OW  469   0.747   0.521   0.425 -0.2118  0.0191  0.4198
  157SOL    HW1  470   0.747   0.428   0.460  1.3613 -0.9020  1.6689
  157SOL    HW2  471   0.819   0.576   0.469  0.8768  0.7190 -0.8884
  158SOL     OW  472   1.823   1.085   1.115 -0.2451 -0.0815  0.6246
  158SOL    HW1  473   1.830   1.096   1.013 -1.4365  0.3319 -1.4371
  158SOL    HW2  474   1.756   1.144   1.161 -0.2157  1.4463  0.5682
  159SOL     OW  475   0.042   0.422   0.256 -0.2196  0.1584  0.1856
  159SOL    HW1  476   3.106   0.509   0.288 -1.3357 -1.6522 -0.5849
  159SOL    HW2  477   0.066   0.359   0.333  1.1104 -0.8291 -0.5837
  160SOL     OW  478   2.078   2.191   1.953 -0.1474 -0.2277  0.0510
  160SOL    HW1  479   2.089   2.231   2.046 -0.8851 -0.6180 -1.3179
  160SOL    HW2  480   1.990   2.216   1.906  0.6998 -2.0789  0.5348
  161SOL     OW  481   0.199   1.026   3.080 -0.2222  0.7075  0.3021
  161SOL    HW1  482   0.200   0.974   2.990 -0.2846  0.3348  1.3194
  161SOL    HW2  483   0.139   0.982   0.041 -0.6523 -0.1614 -0.1777
  162SOL     OW  484   0.837   0.097   1.863 -0.4059  0.4531  0.3724
  162SOL    HW1  485   0.899   0.059   1.792 -1.3463 -1.4352  2.2179
  162SOL    HW2  486   0.782   0.175   1.836 -0.3684 -0.4255 -0.0665
  163SOL     OW  487   2.854   2.821   2.460 -0.7507 -0.1864  0.1649
  163SOL    HW1  488   2.846   2.921   2.473 -1.7903  1.8414 -0.0278
  163SOL    HW2  489   2.846   2.811   2.356  2.6263 -0.0227  1.0938
  164SOL     OW  490   2.149   1.946   0.349 -0.7104  0.2474  0.2995
  164SOL    HW1  491   2.211   1.871   0.316 -1.4398  0.7348  1.8410
  164SOL    HW2  492   2.165   2.026   0.290 -2.2558 -2.3425  1.6224
  165SOL     OW  493   0.283   0.267   1.350 -0.8737 -0.6909  0.0906
  165SOL    HW1  494   0.239   0.233   1.269  1.6770  1.3601  1.2954
  165SOL    HW2  495   0.351   0.202   1.387 -3.6108  2.2420  2.1342
  166SOL     OW  496   2.188   0.490   0.647  0.3472  0.3985  0.3090
  166SOL    HW1  497   2.237   0.447   0.567  1.1247 -0.0879 -2.3160
  166SOL    HW2  498   2.146   0.580   0.621 -2.4052  0.1260 -2.8062
  167SOL     OW  499   2.354   0.958   0.150  0.5299 -0.5146 -0.0321
  167SOL    HW1  500   2.373   0.857   0.133 -0.2758 -2.1061  1.1306
  167SOL    HW2  501   2.298   1.013   0.084 -0.8271 -0.0502  1.1547
  168SOL     OW  502   1.521   0.099   2.429 -0.5949 -0.6463 -0.2540
  168SOL    HW1  503   1.510   0.033   2.503  0.9480  0.4743  0.0925
  168SOL    HW2  504   1.494   0.193   2.468 -2.1759 -1.2418  0.2555
  169SOL     OW  505   0.730   1.835   0.719 -0.1234  0.2444 -0.2884
  169SOL    HW1  506   0.640   1.880   0.701 -2.3301 -0.7567 -1.3656
  169SOL    HW2  507   0.772   1.860   0.807  0.7949 -0.4409  1.9404
  170SOL     OW  508   2.887   0.924   1.282 -0.5585 -0.6861 -0.1083
  170SOL    HW1  509   2.937   0.950   1.194  2.5317 -0.0344 -1.7430
  170SOL    HW2  510   2.956   0.896   1.355  0.9420  0.9299  2.9031
  171SOL     OW  511   2.854   1.546   2.438  0.3434 -0.0694  0.6587
  171SOL    HW1  512   2.824   1.471   2.499  1.4420 -0.3615  0.7918
  171SOL    HW2  513   2.820   1.533   2.340 -1.2576 -1.5868 -2.1907
  172SOL     OW  514   0.737   1.641   1.349  0.1638 -0.6389  0.0991
  172SOL    HW1  515   0.657   1.684   1.301  0.7186  1.9959 -2.4769
  172SOL    HW2  516   0.729   1.540   1.361  0.7084  5.6445 -1.8484
  173SOL     OW  517   2.064   1.800   3.057 -0.5250 -0.2618  0.1875
  173SOL    HW1  518   1.989   1.860   3.092 -2.0125 -1.6720 -0.3107
  173SOL    HW2  519   2.155   1.814   3.099  0.2331  0.0450 -0.7207
  174SOL     OW  520   1.731   0.616   2.726  0.1755  0.4173 -0.2262
  174SOL    HW1  521   1.742   0.511   2.732 -1.0888 -4.1606 -2.2950
  174SOL    HW2  522   1.639   0.642   2.765  2.2525 -2.3687 -0.4295
  175SOL     OW  523   1.243   1.521   1.160 -0.0414 -0.4678  0.4732
  175SOL    HW1  524   1.194   1.606   1.135  0.7806  1.1893 -0.7787
  175SOL    HW2  525   1.178   1.462   1.211 -0.8390  2.8925  2.3710
  176SOL     OW  526   1.265   0.038   0.273  0.2086 -0.0701 -0.0858
  176SOL    HW1  527   1.302   0.008   0.182  1.0473 -2.0210 -0.7496
  176SOL    HW2  528   1.314   0.117   0.310 -1.6644 -0.0262  0.1654
  177SOL     OW  529   0.109   1.348   0.243 -0.2933 -0.1406 -0.0143
  177SOL    HW1  530   0.199   1.304   0.264  1.7988 -0.8025 -0.0827
  177SOL    HW2  531   0.085   1.343   0.144 -1.9080  0.9299 -1.3105
  178SOL     OW  532   2.959   2.415   2.650  0.3782 -0.1784  0.1291
  178SOL    HW1  533   2.936   2.358   2.730 -1.3911  1.8778  0.3179
  178SOL    HW2  534   3.059   2.410   2.639 -1.8204 -2.6577  0.8128
  179SOL     OW  535   2.763   2.583   2.593  0.0093 -0.2251 -0.1636
  179SOL    HW1  536   2.792   2.659   2.533 -0.4163  2.0123 -0.4920
  179SOL    HW2  537   2.838   2.517   2.620 -2.0572 -0.2056  0.0967
  180SOL     OW  538   2.339   0.855   1.014 -0.0415 -0.0130 -0.0925
  180SOL    HW1  539   2.316   0.957   1.001  1.0085 -0.7914  1.3120
  180SOL    HW2  540   2.356   0.828   1.112 -1.0201  0.2619  2.2399
  181SOL     OW  541   2.229   0.477   2.558 -0.1548  0.5384 -0.6360
  181SOL    HW1  542   2.228   0.558   2.622 -0.5425  1.8089  0.2284
  181SOL    HW2  543   2.174   0.399   2.595 -2.5475 -0.2527  0.3429
  182SOL     OW  544   2.623   2.404   2.321 -0.1230 -0.0674  0.0318
  182SOL    HW1  545   2.585   2.498   2.306  0.0094 -2.0549 -0.1445
  182SOL    HW2  546   2.717   2.397   2.358  0.8118  0.0981  1.5168
  183SOL     OW  547   2.118   0.904   1.926 -0.0094 -0.3955  0.0521
  183SOL    HW1  548   2.215   0.911   1.947 -1.1613 -0.1782  0.7628
  183SOL    HW2  549   2.092   0.874   1.829  0.3178  0.8389 -0.8533
  184SOL     OW  550   0.478   1.649   0.922  0.0845 -0.1832 -0.4461
  184SOL    HW1  551   0.576   1.612   0.922  0.0451  0.1528 -0.2015
  184SOL    HW2  552   0.417   1.594   0.864  1.6837 -0.4485  0.1896
  185SOL     OW  553   2.755   0.187   0.529 -0.3731 -0.3142  0.4401
  185SOL    HW1  554   2.706   0.229   0.608  1.4688  0.3705  0.4008
  185SOL    HW2  555   2.837   0.247   0.507 -2.9062 -1.8903  0.5298
  186SOL     OW  556   2.310   2.484   2.489  0.2586  0.3370  0.1171
  186SOL    HW1  557   2.248   2.426   2.547  2.2560  1.0405 -1.3192
  186SOL    HW2  558   2.328   2.571   2.533 -0.1294  1.2625 -1.4365
  187SOL     OW  559   0.731   1.573   0.831 -0.6098  0.0358 -0.2553
  187SOL    HW1  560   0.834   1.561   0.832  2.3657 -0.3196  2.9327
  187SOL    HW2  561   0.694   1.655   0.784 -1.2085 -0.4761  2.5285
  188SOL     OW  562   2.244   1.434   0.814  0.6642 -0.1640  0.6299
  188SOL    HW1  563   2.315   1.391   0.757  0.2312  0.4103 -4.2516
  188SOL    HW2  564   2.175   1.466   0.749 -0.6860 -0.9431  1.2608
  189SOL     OW  565   0.077   1.511   2.892 -0.1675  0.4915 -0.3806
  189SOL    HW1  566   0.095   1.543   2.986 -1.3796  0.0184 -1.4831
  189SOL    HW2  567   0.166   1.490   2.836  2.1697 -3.5513 -1.5208
  190SOL     OW  568   2.444   0.210   2.044  0.6443 -0.0973  0.2119
  190SOL    HW1  569   2.365   0.143   2.037 -2.0326 -1.8818 -0.2728
  190SOL    HW2  570   2.469   0.223   2.140 -2.0509 -2.6091 -1.4759
  191SOL     OW  571   0.968   0.411   2.276  0.0746  0.3167  0.9388
  191SOL    HW1  572   1.046   0.417   2.210 -0.8711  0.8227 -1.1798
  191SOL    HW2  573   0.916   0.330   2.256 -0.1132  1.8951  2.2597
  192SOL     OW  574   1.061   1.452   1.588  0.0421  0.0413  0.4139
  192SOL    HW1  575   1.149   1.474   1.633 -1.4079  2.1291 -1.5364
  192SOL    HW2  576   0.985   1.520   1.601  0.4271  3.9301 -2.2283
  193SOL     OW  577   1.242   2.746   0.759 -0.1212 -0.7122  0.2995
  193SOL    HW1  578   1.342   2.754   0.785  0.8141 -1.5965  0.1773
  193SOL    HW2  579   1.202   2.675   0.815  1.2986 -0.3036 -1.1534
  194SOL     OW  580   0.491   1.752   2.053 -0.1431 -0.3338  0.3211
  194SOL    HW1  581   0.463   1.836   2.102  4.2204 -0.2517 -0.2234
  194SOL    HW2  582   0.526   1.775   1.957  2.4168 -0.1734 -0.5122
  195SOL     OW  583   1.847   0.609   0.785  0.7975 -0.3603  0.2216
  195SOL    HW1  584   1.800   0.700   0.797 -1.5810 -0.2152  0.6902
  195SOL    HW2  585   1.807   0.537   0.845  0.4605  3.4463 -1.4258
  196SOL     OW  586   1.210   1.427   1.988 -0.5765 -0.5487 -0.6413
  196SOL    HW1  587   1.242   1.451   1.894  0.1428  0.6201  2.0157
  196SOL    HW2  588   1.146   1.350   1.995  0.3036  2.5125 -2.0641
  197SOL     OW  589   3.107   0.455   1.809  0.2224  0.3125  0.2922
  197SOL    HW1  590   3.100   0.417   1.902 -3.2147 -0.5006 -0.5970
  197SOL    HW2  591   3.099   0.556   1.811  1.3914 -1.1009  0.1659
  198SOL     OW  592   0.524   0.843   1.194  0.5019  0.2398  0.1605
  198SOL    HW1  593   0.583   0.907   1.137  0.1075 -0.2292 -0.4961
  198SOL    HW2  594   0.519   0.746   1.167 -1.4635 -5.3381  2.2273
  199SOL     OW  595   0.367   2.515   1.236  0.2174  0.0318 -0.0896
  199SOL    HW1  596   0.461   2.492   1.198  0.8150 -2.4672 -0.1768
  199SOL    HW2  597   0.293   2.513   1.168  0.4838  1.5990  0.8784
  200SOL     OW  598   1.582   1.665   2.708 -0.0822 -0.1555  0.4346
  200SOL    HW1  599   1.580   1.578   2.655 -0.3424 -1.1590 -0.4847
  200SOL    HW2  600   1.667   1.671   2.757 -2.0325 -1.5086 -0.0705
  201SOL     OW  601   0.420   2.447   1.720  0.3275 -0.3872 -0.4651
  201SOL    HW1  602   0.490   2.493   1.663  2.1975  2.5058  0.6915
  201SOL    HW2  603   0.383   2.369   1.673 -0.1368  0.4637  0.2554
  202SOL     OW  604   1.362   2.946   3.048  0.4778  0.6743 -0.0787
  202SOL    HW1  605   1.271   2.953   3.003  3.4451 -0.6663 -1.2435
  202SOL    HW2  606   1.390   3.038   3.083 -1.1686  0.0620 -1.5647
  203SOL     OW  607   1.576   0.563   2.365  0.5418 -0.0178 -0.4512
  203SOL    HW1  608   1.599   0.472   2.322  1.3198  1.7353 -0.7034
  203SOL    HW2  609   1.665   0.595   2.403 -0.9405  1.9443 -1.4383
  204SOL     OW  610   0.673   1.064   1.396  0.2517 -0.3105  0.5237
  204SOL    HW1  611   0.661   1.132   1.472  0.0799  0.6716 -0.8054
  204SOL    HW2  612   0.620   1.092   1.314  0.6677 -0.4747  0.4750
  205SOL     OW  613   2.193   0.873   2.696  0.3079 -0.4093  0.0356
  205SOL    HW1  614   2.112   0.833   2.738  7.2312  1.9580 -3.4075
  205SOL    HW2  615   2.166   0.929   2.611  1.7072  1.7561 -1.4637
  206SOL     OW  616   0.601   1.814   3.007 -0.3710 -0.1709 -0.4831
  206SOL    HW1  617   0.639   1.723   3.010  1.4812  2.2294  0.9537
  206SOL    HW2  618   0.594   1.853   2.910 -0.9931  0.4464  0.8539
  207SOL     OW  619   0.436   0.168   2.019  0.0153  0.1727 -0.1591
  207SOL    HW1  620   0.517   0.233   2.025  1.4408 -1.2752  0.1152
  207SOL    HW2  621   0.360   0.214   1.967  0.4256  1.8851  1.4514
  208SOL     OW  622   0.625   2.553   1.556  0.0100 -0.0677  0.4932
  208SOL    HW1  623   0.563   2.607   1.493  1.3002 -1.7200 -1.8744
  208SOL    HW2  624   0.667   2.480   1.499  0.1642  0.1453 -0.7647
  209SOL     OW  625   1.292   2.722   0.050  0.3441 -0.3637  0.3537
  209SOL    HW1  626   1.205   2.718   0.102  1.0039 -3.4959  3.5795
  209SOL    HW2  627   1.301   2.813   0.003  1.8688 -1.5250 -2.9122
  210SOL     OW  628   2.702   1.508   1.738 -0.4217  0.2665  0.7646
  210SOL    HW1  629   2.678   1.546   1.646  1.4004 -2.7932 -0.8177
  210SOL    HW2  630   2.654   1.417   1.745  0.1220 -1.0867 -1.2815
  211SOL     OW  631   1.094   0.242   1.720 -0.7032 -0.3920 -0.2188
  211SOL    HW1  632   1.068   0.343   1.750 -3.1002  1.8869  1.5053
  211SOL    HW2  633   1.195   0.233   1.691 -1.8225  0.8579  0.6025
  212SOL     OW  634   1.025   2.111   1.660  0.4587 -0.2303  0.2433
  212SOL    HW1  635   0.951   2.167   1.702 -0.0685  0.4648  0.7435
  212SOL    HW2  636   1.118   2.157   1.665  3.9125  0.8524  2.8875
  213SOL     OW  637   2.463   0.399   1.821 -0.6860  0.0840 -0.3457
  213SOL    HW1  638   2.542   0.457   1.849 -2.4443  1.1899  1.5796
  213SOL    HW2  639   2.460   0.321   1.886  0.9614  0.8159 -3.4896
  214SOL     OW  640   0.655   1.812   1.821  0.1097  0.3355  0.2221
  214SOL    HW1  641   0.732   1.744   1.814  1.1184 -0.7909 -0.3141
  214SOL    HW2  642   0.697   1.902   1.844  0.6959 -0.5635 -1.2859
  215SOL     OW  643   2.791   1.901   1.253  0.4929  0.5148  0.0332
  215SOL    HW1  644   2.704   1.844   1.232  0.3834 -3.4476  1.5834
  215SOL    HW2  645   2.760   1.991   1.287 -2.6235  0.5544 -0.3209
  216SOL     OW  646   0.038   0.934   1.406 -0.2012 -0.2444  0.2227
  216SOL    HW1  647   0.081   0.860   1.350 -1.2047 -1.4866  0.6729
  216SOL    HW2  648   0.099   1.013   1.417 -3.1809  0.5933 -0.0266
  217SOL     OW  649   2.620   0.239   1.436 -0.1991  0.4295  0.0942
  217SOL    HW1  650   2.617   0.258   1.337  0.1016  0.6935  1.6497
  217SOL    HW2  651   2.590   0.325   1.488  2.0069 -0.6727  2.6064
  218SOL     OW  652   1.362   2.242   1.125 -0.0497  0.2161  0.7112
  218SOL    HW1  653   1.439   2.198   1.174 -0.1806 -0.1631 -2.1377
  218SOL    HW2  654   1.368   2.218   1.022 -1.3778 -2.1292 -0.6021
  219SOL     OW  655   1.701   2.261   0.125  0.5704 -0.1701 -0.5111
  219SOL    HW1  656   1.763   2.319   0.067 -0.1222 -0.3873 -0.6013
  219SOL    HW2  657   1.757   2.202   0.185  2.5440  0.5564 -0.6286
  220SOL     OW  658   2.030   2.652   0.095  0.1406  0.3858 -0.2868
  220SOL    HW1  659   1.944   2.675   0.145 -1.3687  1.2253  1.9100
  220SOL    HW2  660   2.076   2.573   0.144  0.4627 -1.7660  2.2943
  221SOL     OW  661   2.980   1.922   1.073  0.3928  0.1216  0.5002
  221SOL    HW1  662   3.071   1.885   1.109  0.7258 -1.1696  1.1673
  221SOL    HW2  663   2.904   1.914   1.148 -3.6701 -2.6925  1.0244
  222SOL     OW  664   1.342   2.239   0.855 -0.2468 -0.1389  0.0191
  222SOL    HW1  665   1.411   2.248   0.782 -0.7347 -1.2281  2.4248
  222SOL    HW2  666   1.277   2.167   0.821  0.0626 -2.3296  0.4925
  223SOL     OW  667   0.793   2.618   2.385 -0.2386  0.4560 -0.2286
  223SOL    HW1  668   0.786   2.561   2.469  1.3807  2.7769  0.9774
  223SOL    HW2  669   0.885   2.593   2.337  2.1981  1.7648 -0.0680
  224SOL     OW  670   3.075   1.563   1.167 -0.4371  0.3907 -0.4410
  224SOL    HW1  671   2.980   1.567   1.211 -0.4573  1.3854  1.6725
  224SOL    HW2  672   0.009   1.654   1.174  0.6977 -1.7989  1.9561
  225SOL     OW  673   2.271   1.466   1.135  0.4083  0.4099  0.1886
  225SOL    HW1  674   2.374   1.484   1.135  0.3592  0.8544  0.7278
  225SOL    HW2  675   2.238   1.455   1.037  0.9570  0.3787 -2.0596
  226SOL     OW  676   1.465   2.641   0.432 -0.0437  0.4501  0.1861
  226SOL    HW1  677   1.549   2.675   0.479 -1.2117 -0.4592 -0.9406
  226SOL    HW2  678   1.427   2.722   0.386 -0.4942 -1.0953  3.8721
  227SOL     OW  679   1.279   1.011   1.462  0.2490  0.6545  0.2312
  227SOL    HW1  680   1.182   1.032   1.478 -2.2398  0.4368  1.5420
  227SOL    HW2  681   1.348   1.074   1.508 -1.4939  0.0885  1.7385
  228SOL     OW  682   1.224   0.594   2.190 -0.1146  0.1566 -0.0279
  228SOL    HW1  683   1.306   0.653   2.162 -0.6755  2.0561  0.2083
  228SOL    HW2  684   1.195   0.527   2.121  1.7042  0.9169  1.3947
  229SOL     OW  685   2.770   0.630   2.733 -0.3061 -0.0540 -0.2638
  229SOL    HW1  686   2.746   0.535   2.744 -1.4179  1.6054 -1.0847
  229SOL    HW2  687   2.693   0.691   2.755  1.7014 -1.5006 -2.7111
  230SOL     OW  688   1.043   1.024   0.773  0.2420  0.1412  0.2965
  230SOL    HW1  689   1.114   0.948   0.769  0.0711  1.3088 -0.8565
  230SOL    HW2  690   1.035   1.068   0.865 -0.0570  2.4917  1.9077
  231SOL     OW  691   2.421   2.900   2.095  0.3792  0.2056  0.2760
  231SOL    HW1  692   2.487   2.828   2.056  1.2501 -1.8860 -0.4897
  231SOL    HW2  693   2.422   2.909   2.198 -1.5952  1.1917  0.0925
  232SOL     OW  694   0.659   2.032   0.304 -0.1122 -0.0861 -0.0084
  232SOL    HW1  695   0.696   1.965   0.369 -1.1774  0.7827 -4.4996
  232SOL    HW2  696   0.735   2.079   0.250 -0.2704  1.2349 -0.2919
  233SOL     OW  697   1.234   2.389   2.327  0.5729  0.1779  0.2054
  233SOL    HW1  698   1.241   2.319   2.405  1.6120 -1.2430  1.1075
  233SOL    HW2  699   1.198   2.478   2.359  1.0574  0.4608  2.4183
  234SOL     OW  700   0.937   1.201   1.665 -0.2009  0.6400 -0.3215
  234SOL    HW1  701   0.976   1.293   1.653 -0.0299 -0.9525 -1.2233
  234SOL    HW2  702   0.878   1.181   1.584 -1.3562 -2.1766  0.9196
  235SOL     OW  703   0.512   1.744   1.608 -0.3427 -0.2631  0.0370
  235SOL    HW1  704   0.559   1.756   1.698 -0.0929  1.0164  4.5103
  235SOL    HW2  705   0.518   1.826   1.551  1.4400 -1.9642  0.1023
  236SOL     OW  706   1.837   2.880   2.547 -0.5521  0.1075 -0.1172
  236SOL    HW1  707   1.757   2.821   2.560  1.1279  0.3537  1.0432
  236SOL    HW2  708   1.818   2.975   2.589 -0.1752  3.1477 -1.5712
  237SOL     OW  709   1.265   2.932   0.568 -0.3200  0.3926  0.4081
  237SOL    HW1  710   1.262   2.843   0.618  1.1224  2.2166  0.8080
  237SOL    HW2  711   1.176   2.953   0.523  5.5093 -1.1989 -0.6865
  238SOL     OW  712   1.331   0.616   2.762 -0.2287  0.4938  0.1068
  238SOL    HW1  713   1.337   0.681   2.681 -4.2697 -0.7576 -1.5888
  238SOL    HW2  714   1.315   0.519   2.730  0.8731 -1.5240  0.9302
  239SOL     OW  715   0.616   0.380   2.028  0.0557 -0.0164  0.1291
  239SOL    HW1  716   0.594   0.483   2.043 -1.1433  1.0360 -2.1193
  239SOL    HW2  717   0.648   0.355   1.932  1.7563  0.7765 -1.5674
  240SOL     OW  718   2.283   2.550   0.733  0.4449 -0.3445 -0.1046
  240SOL    HW1  719   2.373   2.526   0.703  0.6507  0.2219 -2.1196
  240SOL    HW2  720   2.282   2.646   0.775  0.7761  2.5647  0.8883
  241SOL     OW  721   1.415   1.379   1.413 -0.4242  0.2138  0.6313
  241SOL    HW1  722   1.322   1.341   1.419  0.1379  0.7685 -1.3746
  241SOL    HW2  723   1.420   1.478   1.394 -2.0400 -0.3808  1.9378
  242SOL     OW  724   0.061   0.708   0.781  0.1679  0.0569  0.0502
  242SOL    HW1  725   3.105   0.759   0.726  0.7647 -0.8039 -0.1349
  242SOL    HW2  726   0.145   0.702   0.724 -2.4165 -1.4636  1.2110
  243SOL     OW  727   0.444   0.647   1.577 -0.2403  0.6083  0.3034
  243SOL    HW1  728   0.356   0.646   1.627  2.8315 -1.1933 -0.1613
  243SOL    HW2  729   0.431   0.583   1.496 -1.1519 -0.2660  0.2377
  244SOL     OW  730   1.049   0.425   2.854  0.3717 -0.1669 -0.0392
  244SOL    HW1  731   1.012   0.417   2.947 -0.3519 -0.5194 -3.6215
  244SOL    HW2  732   1.045   0.520   2.816  1.2093  1.8990  0.8348
  245SOL     OW  733   1.806   0.939   2.981 -0.5591  0.2530  0.3331
  245SOL    HW1  734   1.823   1.026   2.927 -0.9961  0.8042  1.2778
  245SOL    HW2  735   1.862   0.870   2.941  0.8106  0.8752 -1.5183
  246SOL     OW  736   0.010   0.983   1.924 -0.6389  0.5092 -0.5421
  246SOL    HW1  737   3.059   1.022   1.855 -0.2079 -0.9460 -1.7120
  246SOL    HW2  738   0.099   1.034   1.936 -2.1686 -3.5759 -0.6615
  247SOL     OW  739   0.534   2.961   2.245 -0.5626  0.4747  0.3483
  247SOL    HW1  740   0.574   2.985   2.150  2.0404  0.6780 -0.3725
  247SOL    HW2  741   0.571   3.025   2.316 -0.1315 -0.7979 -1.2231
  248SOL     OW  742   0.529   1.427   2.312 -0.1554  0.1546 -0.0829
  248SOL    HW1  743   0.590   1.505   2.288 -0.3440  0.5353 -1.7780
  248SOL    HW2  744   0.475   1.416   2.226  0.9842  0.8591 -2.8578
  249SOL     OW  745   0.216   0.154   2.843 -0.8100  0.3344 -0.8683
  249SOL    HW1  746   0.308   0.165   2.889 -1.5853  2.1328 -0.5652
  249SOL    HW2  747   0.203   0.073   2.787  1.2417  1.5352 -0.1436
  250SOL     OW  748   0.124   2.971   2.893 -0.2469 -0.2027  0.1620
  250SOL    HW1  749   0.054   2.908   2.930 -0.7918 -3.0335  2.2872
  250SOL    HW2  750   0.200   2.921   2.843  2.6073  0.8845 -0.9744
  251SOL     OW  751   0.353   1.529   0.698  0.4394  0.2928  0.0134
  251SOL    HW1  752   0.255   1.504   0.690  1.7462 -0.1371 -0.8290
  251SOL    HW2  753   0.417   1.462   0.664  0.0494  0.8269  1.2340
  252SOL     OW  754   1.618   2.841   2.168 -0.4980  0.1654  0.1819
  252SOL    HW1  755   1.563   2.882   2.092 -0.1901  1.6791  1.6862
  252SOL    HW2  756   1.564   2.787   2.232 -0.7601 -0.6981 -1.2496
  253SOL     OW  757   1.947   1.958   2.764 -0.2437 -0.3673 -0.2424
  253SOL    HW1  758   1.917   1.993   2.676  0.8703 -0.0990 -0.9052
  253SOL    HW2  759   1.893   1.879   2.803 -2.3002 -1.2911  1.6714
  254SOL     OW  760   0.442   1.396   1.832  0.1601 -0.0563  0.0782
  254SOL    HW1  761   0.406   1.382   1.743  1.6901  1.3219  3.0803
  254SOL    HW2  762   0.522   1.455   1.815  0.2199 -0.6386  1.0155
  255SOL     OW  763   0.990   0.011   1.641  0.3232  0.3366  0.5745
  255SOL    HW1  764   1.060   3.048   1.670  1.6321  0.6100  0.8157
  255SOL    HW2  765   1.028   0.105   1.663  0.4574  1.5734  1.4724
  256SOL     OW  766   0.015   2.179   1.148 -0.1066 -0.2083  0.1030
  256SOL    HW1  767   3.047   2.227   1.193 -1.6472  3.5353  1.4174
  256SOL    HW2  768   3.094   2.099   1.094  1.1152  1.1195  2.1616
  257SOL     OW  769   0.185   2.731   0.259 -0.1875  0.0389  0.5938
  257SOL    HW1  770   0.230   2.761   0.343  0.0342 -2.2068 -1.1022
  257SOL    HW2  771   0.178   2.628   0.256 -0.5845 -4.2606 -0.7527
  258SOL     OW  772   0.940   1.914   2.075  0.1057 -0.0054  0.1294
  258SOL    HW1  773   0.949   1.815   2.047  1.0156  1.1528 -0.2788
  258SOL    HW2  774   0.890   1.972   2.003  0.6697  1.2374  0.4057
  259SOL     OW  775   1.179   1.851   2.486  0.3393  0.4867  0.0128
  259SOL    HW1  776   1.165   1.928   2.426  0.6146 -0.5691 -3.1253
  259SOL    HW2  777   1.186   1.895   2.581  1.7896 -1.3438  1.3662
  260SOL     OW  778   2.337   0.843   2.296 -0.4828 -0.1657 -0.3469
  260SOL    HW1  779   2.274   0.781   2.248  1.0551 -2.0976  2.3186
  260SOL    HW2  780   2.421   0.855   2.235  2.7007  1.1987 -0.3825
  261SOL     OW  781   1.315   0.739   1.050 -0.1545 -0.3208 -0.2736
  261SOL    HW1  782   1.335   0.643   1.034 -2.3911 -0.0473  4.3478
  261SOL    HW2  783   1.240   0.749   1.116 -3.9249 -0.7285 -2.0421
  262SOL     OW  784   2.120   2.352   2.692  0.2971 -0.1397  0.6321
  262SOL    HW1  785   2.162   2.388   2.777 -1.8713 -1.7017 -3.0077
  262SOL    HW2  786   2.014   2.362   2.698 -1.8187 -0.5114 -1.2073
  263SOL     OW  787   0.587   2.448   0.488 -0.3413  0.1438  0.7880
  263SOL    HW1  788   0.589   2.534   0.541 -0.4933  1.0875  0.2404
  263SOL    HW2  789   0.685   2.416   0.477  1.4269 -0.7166  1.1440
  264SOL     OW  790   0.206   2.220   0.520  0.3139 -0.0858  0.6360
  264SOL    HW1  791   0.307   2.217   0.506 -0.5060  2.6262 -1.0612
  264SOL    HW2  792   0.153   2.214   0.430 -0.9096 -0.2305 -0.0974
  265SOL     OW  793   0.707   1.212   0.344 -0.0081  0.2291 -0.2411
  265SOL    HW1  794   0.712   1.227   0.445  1.1978  3.0434  2.9330
  265SOL    HW2  795   0.794   1.237   0.292 -1.3692 -1.0057 -0.7241
  266SOL     OW  796   0.726   1.909   2.296 -0.4274  0.2592 -0.1612
  266SOL    HW1  797   0.764   1.938   2.388  1.9852 -1.0495  0.8829
  266SOL    HW2  798   0.801   1.914   2.222  1.6599  1.7907  0.5072
  267SOL     OW  799   1.835   0.645   2.472 -0.0199 -0.2515  0.3142
  267SOL    HW1  800   1.825   0.654   2.573  1.4928  0.3719  0.1048
  267SOL    HW2  801   1.887   0.722   2.429 -0.0982  1.0362  1.4150
  268SOL     OW  802   0.668   0.964   0.118 -0.3875 -0.0832 -0.2010
  268SOL    HW1  803   0.642   0.886   0.178 -1.2393  0.9007 -0.9647
  268SOL    HW2  804   0.749   1.015   0.160  0.2549  1.6155  0.9918
  269SOL     OW  805   2.474   2.169   2.420  0.0594 -0.0187 -0.4058
  269SOL    HW1  806   2.549   2.113   2.460  0.7755  0.3796 -0.1158
  269SOL    HW2  807   2.516   2.240   2.363 -1.0941  0.6212 -0.2322
  270SOL     OW  808   1.776   1.783   2.879 -0.9334  0.3989  0.0698
  270SOL    HW1  809   1.727   1.872   2.904 -1.1002  1.9647 -0.1432
  270SOL    HW2  810   1.754   1.707   2.945 -1.5771  0.9346 -0.1500
  271SOL     OW  811   0.302   0.182   0.088  0.2056 -0.0644 -0.6340
  271SOL    HW1  812   0.375   0.156   0.024  1.3098 -1.2051  0.9282
  271SOL    HW2  813   0.235   0.118   0.058  0.5988  2.8730  1.4717
  272SOL     OW  814   2.719   0.565   0.346  0.1009 -0.3860  0.0253
  272SOL    HW1  815   2.775   0.513   0.415  2.4755  0.0678  0.7015
  272SOL    HW2  816   2.627   0.591   0.381  0.4297 -1.3516 -1.3464
  273SOL     OW  817   0.485   2.946   1.774 -0.3469  0.2974 -0.7946
  273SOL    HW1  818   0.520   2.960   1.869 -1.4562  1.0873 -0.9668
  273SOL    HW2  819   0.436   2.856   1.772  2.3087 -0.1640  1.3525
  274SOL     OW  820   2.684   0.643   1.520  0.4796  0.4776  0.1521
  274SOL    HW1  821   2.647   0.704   1.591  1.4886 -2.9767  3.2264
  274SOL    HW2  822   2.612   0.570   1.499 -0.6437  0.6951  0.0773
  275SOL     OW  823   1.012   1.552   0.745  0.0309 -0.0537 -0.0522
  275SOL    HW1  824   1.057   1.510   0.664 -0.1520  1.2058  0.1229
  275SOL    HW2  825   1.059   1.639   0.778 -0.5680  2.7334 -0.5125
  276SOL     OW  826   0.550   0.767   2.296  0.5945 -0.6224  0.5427
  276SOL    HW1  827   0.575   0.862   2.325  0.6405 -1.0798  0.0074
  276SOL    HW2  828   0.592   0.695   2.352 -1.8425  0.7207 -1.5796
  277SOL     OW  829   1.201   2.476   1.839  0.1332  0.0347  0.1393
  277SOL    HW1  830   1.111   2.469   1.793  0.6530  0.5566  2.4214
  277SOL    HW2  831   1.202   2.426   1.931 -0.3014 -1.4288 -0.4882
  278SOL     OW  832   1.810   2.742   2.009 -0.3267 -0.4929  0.0126
  278SOL    HW1  833   1.742   2.776   2.069  0.2227 -0.1210 -3.1361
  278SOL    HW2  834   1.845   2.809   1.945  0.7189 -2.5574  0.7049
  279SOL     OW  835   1.446   1.511   0.317 -0.3001  0.1406  0.1538
  279SOL    HW1  836   1.373   1.494   0.248  0.6008  0.9610 -1.0035
  279SOL    HW2  837   1.522   1.446   0.297  1.5763  0.8699  1.2302
  280SOL     OW  838   1.222   1.178   0.079  0.6188  0.0484  0.1855
  280SOL    HW1  839   1.148   1.172   0.010  0.7719  1.1578 -1.2322
  280SOL    HW2  840   1.227   1.267   0.127 -1.2705  0.5856 -0.4746
  281SOL     OW  841   0.457   0.336   1.606  0.2221 -0.1127 -0.0350
  281SOL    HW1  842   0.441   0.411   1.540 -0.6767 -1.4426 -1.5876
  281SOL    HW2  843   0.438   0.241   1.568  1.5726 -3.7589  0.0956
  282SOL     OW  844   0.145   2.640   0.596  0.6284 -0.0783 -0.4513
  282SOL    HW1  845   0.076   2.625   0.517 -3.8329  0.3729 -0.2932
  282SOL    HW2  846   0.138   2.559   0.656 -2.7542  0.0760  0.0141
  283SOL     OW  847   1.208   2.069   2.028 -0.1333  0.2532 -0.2257
  283SOL    HW1  848   1.139   2.009   1.983  0.4884  1.3817 -1.1193
  283SOL    HW2  849   1.304   2.044   1.997  1.4001 -1.6045 -2.0236
  284SOL     OW  850   2.862   2.870   1.078 -0.3820 -0.7100 -0.5105
  284SOL    HW1  851   2.794   2.943   1.056  2.0690  0.2309  2.2201
  284SOL    HW2  852   2.896   2.884   1.170 -1.9572  0.3630 -0.4416
  285SOL     OW  853   0.401   2.190   2.469  0.3254  0.1239 -0.1575
  285SOL    HW1  854   0.364   2.278   2.428  1.4082 -1.9075 -1.3378
  285SOL    HW2  855   0.454   2.213   2.553 -0.1124 -2.0588 -0.4061
  286SOL     OW  856   0.115   3.061   0.543 -0.0995 -0.6049  0.2183
  286SOL    HW1  857   0.165   0.021   0.598 -1.4856  1.1796  0.2860
  286SOL    HW2  858   0.017   3.087   0.553 -0.7469  2.0349 -1.5272
  287SOL     OW  859   0.585   0.984   0.527  0.0821 -0.2690 -0.8647
  287SOL    HW1  860   0.675   0.943   0.565 -0.1822 -0.4331  0.2468
  287SOL    HW2  861   0.605   1.060   0.462  0.0807  1.2514  1.9573
  288SOL     OW  862   2.212   1.909   2.743 -0.0451 -0.4753 -0.0478
  288SOL    HW1  863   2.235   1.982   2.673 -3.0369 -2.1491 -0.9973
  288SOL    HW2  864   2.113   1.921   2.757 -0.5542 -2.8707  1.0963
  289SOL     OW  865   0.247   2.025   2.804 -0.2192 -0.0293  0.0961
  289SOL    HW1  866   0.281   2.021   2.708  0.7982 -0.3617 -2.1257
  289SOL    HW2  867   0.175   1.961   2.824 -1.8758  1.4739 -0.2930
  290SOL     OW  868   1.434   1.645   1.333 -0.9021  0.1289  0.1821
  290SOL    HW1  869   1.375   1.595   1.275  3.6024  1.1338  3.3155
  290SOL    HW2  870   1.506   1.705   1.290  0.0121  0.5672  2.5523
  291SOL     OW  871   1.444   1.248   2.937 -0.5317  0.9741  0.2522
  291SOL    HW1  872   1.400   1.332   2.971 -0.1325 -1.1612  1.8753
  291SOL    HW2  873   1.383   1.169   2.963 -0.0881 -0.7474  1.3352
  292SOL     OW  874   1.085   1.608   0.270 -0.3186  0.0389  0.3801
  292SOL    HW1  875   1.093   1.550   0.357 -0.4357 -0.4552  2.3540
  292SOL    HW2  876   0.990   1.593   0.229 -2.1837  0.8645 -0.4653
  293SOL     OW  877   1.588   2.933   0.884 -0.1084 -0.5098  0.0390
  293SOL    HW1  878   1.503   2.925   0.936 -1.0779  0.7627 -2.2705
  293SOL    HW2  879   1.564   2.920   0.781 -0.3464 -0.2067 -0.7754
  294SOL     OW  880   1.877   1.237   2.395 -0.1337 -0.1645 -0.5026
  294SOL    HW1  881   1.812   1.166   2.432 -0.3118 -0.4259  1.0442
  294SOL    HW2  882   1.835   1.324   2.370  0.9005  1.0169  0.6387
  295SOL     OW  883   1.849   1.977   0.061 -0.3646  0.6247 -0.5662
  295SOL    HW1  884   1.751   1.978   0.026 -0.3792 -0.5432 -1.9700
  295SOL    HW2  885   1.845   1.999   0.161  0.0060  3.7294 -1.6668
  296SOL     OW  886   1.314   0.649   1.812 -0.1984  1.0205 -0.2527
  296SOL    HW1  887   1.370   0.563   1.798  0.1134 -0.6934 -0.5863
  296SOL    HW2  888   1.313   0.707   1.728  3.0164  1.1331  0.0181
  297SOL     OW  889   2.859   0.659   2.084  0.4530 -0.2569  0.0525
  297SOL    HW1  890   2.862   0.756   2.053 -0.1788 -0.0324  0.3726
  297SOL    HW2  891   2.783   0.655   2.153  0.9781  2.1098 -2.0194
  298SOL     OW  892   0.847   1.649   1.604 -0.0184 -0.1990  0.8003
  298SOL    HW1  893   0.909   1.724   1.646  5.6580  0.7051  2.0220
  298SOL    HW2  894   0.787   1.683   1.527 -1.8797 -0.3949 -1.0676
  299SOL     OW  895   1.043   0.053   2.519  0.8399 -0.3372  0.1746
  299SOL    HW1  896   1.106   0.113   2.469 -0.6386 -2.6085  0.6178
  299SOL    HW2  897   1.037   3.072   2.482 -3.3774  1.8051 -0.4957
  300SOL     OW  898   3.002   1.006   2.889  0.2642 -0.4182 -0.9112
  300SOL    HW1  899   2.952   1.070   2.830 -1.1247  0.5143  0.8315
  300SOL    HW2  900   2.972   1.019   2.988 -2.8943  3.3316  1.0390
  301SOL     OW  901   1.975   0.887   2.385  0.0325  0.3435  0.1528
  301SOL    HW1  902   2.001   0.854   2.289  0.7699 -2.1354 -2.9693
  301SOL    HW2  903   2.043   0.956   2.423  0.4368 -2.0313 -0.4076
  302SOL     OW  904   2.433   1.803   2.841 -0.2747  0.0764  0.9904
  302SOL    HW1  905   2.345   1.828   2.793  0.9027  2.7678 -1.0892
  302SOL    HW2  906   2.496   1.887   2.839  0.5961  1.9427  1.8936
  303SOL     OW  907   0.504   2.422   2.896  0.9401 -0.2879  0.7993
  303SOL    HW1  908   0.575   2.486   2.934 -0.6403 -3.2053  0.4534
  303SOL    HW2  909   0.458   2.365   2.968 -3.0996 -1.8792  1.9479
  304SOL     OW  910   0.197   1.708   1.398 -0.2912 -0.0644 -0.0053
  304SOL    HW1  911   0.164   1.775   1.470  1.8009  0.2158  1.7476
  304SOL    HW2  912   0.292   1.670   1.419  0.5025  0.1922 -1.3270
  305SOL     OW  913   2.575   0.906   2.145 -0.1509 -0.3459  0.2494
  305SOL    HW1  914   2.571   0.804   2.134  2.4915 -1.6402 -2.4064
  305SOL    HW2  915   2.616   0.930   2.237  0.3889  0.7046  3.1323
  306SOL     OW  916   1.854   1.344   1.404 -0.5780  0.1862 -0.1988
  306SOL    HW1  917   1.849   1.282   1.485  1.0293  1.5839 -1.1309
  306SOL    HW2  918   1.935   1.314   1.351  1.1071  1.7112  0.1267
  307SOL     OW  919   2.940   0.227   0.860 -0.0778  0.0298 -0.4910
  307SOL    HW1  920   2.883   0.253   0.778 -2.0171  1.0562 -1.2558
  307SOL    HW2  921   2.884   0.234   0.944  3.1883 -1.9425 -2.4888
  308SOL     OW  922   2.989   1.705   1.594 -0.7556  0.2173  0.0667
  308SOL    HW1  923   3.069   1.771   1.590 -0.1750 -0.2103  0.5166
  308SOL    HW2  924   3.009   1.631   1.660  0.4344 -1.3905  0.9565
  309SOL     OW  925   2.429   2.467   1.719  0.2787  0.0665  0.9986
  309SOL    HW1  926   2.445   2.565   1.689 -1.6994 -0.2129  0.7388
  309SOL    HW2  927   2.412   2.466   1.819 -2.9028  1.1032  0.2467
  310SOL     OW  928   2.306   1.357   2.654  0.0288  0.1672 -0.2633
  310SOL    HW1  929   2.315   1.421   2.733  2.6335  2.0356 -1.0523
  310SOL    HW2  930   2.218   1.303   2.657 -1.6531 -1.2373  0.4391
  311SOL     OW  931   1.711   1.294   2.928 -0.7434  0.4502 -0.9354
  311SOL    HW1  932   1.609   1.284   2.930 -4.6367 -2.3645 -0.9173
  311SOL    HW2  933   1.763   1.222   2.878 -3.7315  0.1670 -1.7517
  312SOL     OW  934   1.130   2.076   2.309  0.3776  0.3175  0.1508
  312SOL    HW1  935   1.181   2.073   2.219  0.0444  2.6071  0.3022
  312SOL    HW2  936   1.182   2.116   2.385 -0.8638 -0.4496  0.2232
  313SOL     OW  937   0.070   0.325   0.939 -0.4913  0.3842  0.4811
  313SOL    HW1  938   3.083   0.314   0.908  0.2520 -1.7215 -0.2049
  313SOL    HW2  939   0.081   0.392   1.017 -3.3361  2.2713 -2.9001
  314SOL     OW  940   0.564   1.942   1.152  0.0945  0.5452 -0.1960
  314SOL    HW1  941   0.579   2.008   1.230  0.7603 -2.2365 -0.5011
  314SOL    HW2  942   0.551   1.844   1.184  2.4631 -1.3445  1.9646
  315SOL     OW  943   0.479   2.101   2.000 -0.3564 -0.0452 -0.5833
  315SOL    HW1  944   0.427   2.188   1.997 -1.8722 -1.9963  1.1561
  315SOL    HW2  945   0.479   2.061   2.096  3.9192 -1.3088  0.0648
  316SOL     OW  946   0.417   2.538   0.832  0.2013 -0.1135  0.0147
  316SOL    HW1  947   0.325   2.499   0.806 -1.1588  0.2462  0.7274
  316SOL    HW2  948   0.400   2.611   0.902 -1.8949  2.1293 -0.3800
  317SOL     OW  949   2.812   0.062   1.587  0.1540 -0.3693 -0.1621
  317SOL    HW1  950   2.753   0.139   1.561  0.5851 -0.8135 -1.6631
  317SOL    HW2  951   2.760   3.086   1.561 -0.6018  0.9193  2.3819
  318SOL     OW  952   2.175   2.443   0.206  0.0734 -0.1956 -0.3130
  318SOL    HW1  953   2.270   2.479   0.193  0.4907 -1.0682 -0.5626
  318SOL    HW2  954   2.143   2.454   0.304 -1.9888 -2.6889  0.2147
  319SOL     OW  955   1.533   1.190   2.698 -0.0976  0.1066 -0.1765
  319SOL    HW1  956   1.497   1.233   2.785  3.4491 -2.6836  0.4854
  319SOL    HW2  957   1.534   1.085   2.695 -0.8203 -0.9115 -2.5119
  320SOL     OW  958   0.303   2.444   2.356 -0.8047 -0.2505  0.6529
  320SOL    HW1  959   0.232   2.497   2.307  0.8377 -0.5628  0.9898
  320SOL    HW2  960   0.382   2.424   2.294  0.5358  1.7531 -2.1437
  321SOL     OW  961   0.872   2.402   0.119 -0.4658 -0.2821  0.0657
  321SOL    HW1  962   0.956   2.452   0.086 -0.1649 -0.7215 -0.7995
  321SOL    HW2  963   0.797   2.437   0.058  0.0716 -1.7674  1.7919
  322SOL     OW  964   2.493   0.532   2.489  0.5371  0.1759  0.5613
  322SOL    HW1  965   2.492   0.632   2.503  0.6183 -1.5960  1.6584
  322SOL    HW2  966   2.397   0.488   2.486  0.1584 -3.1145  0.1274
  323SOL     OW  967   2.782   1.211   0.820 -0.6525 -0.1024  0.2065
  323SOL    HW1  968   2.791   1.239   0.919 -0.7485  0.0422 -0.5580
  323SOL    HW2  969   2.812   1.115   0.808 -0.4854  0.0088  0.0219
  324SOL     OW  970   0.231   0.715   1.742 -0.1524  0.1028 -0.6123
  324SOL    HW1  971   0.259   0.685   1.832  2.2271  1.4877 -0.5844
  324SOL    HW2  972   0.144   0.765   1.756  0.8746 -1.2414  1.5071
  325SOL     OW  973   0.092   0.105   1.856  0.3346  0.5397  0.5929
  325SOL    HW1  974   0.053   0.073   1.769 -0.4159  0.6208 -0.4374
  325SOL    HW2  975   0.147   0.188   1.839 -0.6290 -0.8132 -0.3739
  326SOL     OW  976   2.125   2.908   0.151 -0.0094 -0.5738  0.0416
  326SOL    HW1  977   2.199   2.937   0.215 -1.8457  0.9261  0.7588
  326SOL    HW2  978   2.105   2.812   0.152  2.2010  2.0275 -3.1489
  327SOL     OW  979   2.081   1.551   0.619 -0.2370  0.3162 -0.3045
  327SOL    HW1  980   2.070   1.645   0.586  0.2617 -0.9306 -3.6317
  327SOL    HW2  981   2.118   1.492   0.545  1.2274  0.1670  0.3203
  328SOL     OW  982   0.039   2.106   2.547  0.2658  0.1553  0.0820
  328SOL    HW1  983   0.006   2.043   2.623  0.5633 -1.6541  3.8265
  328SOL    HW2  984   0.089   2.191   2.577  2.8517  1.2583 -2.2249
  329SOL     OW  985   0.322   2.235   1.602  0.4352 -0.5954  0.0601
  329SOL    HW1  986   0.372   2.242   1.515 -1.7446 -1.9456  0.8161
  329SOL    HW2  987   0.372   2.162   1.657 -2.5542  0.0319 -0.8336
  330SOL     OW  988   2.465   1.231   2.494  0.4170 -0.6189 -0.2672
  330SOL    HW1  989   2.507   1.150   2.543 -1.1366 -0.3299  3.5019
  330SOL    HW2  990   2.395   1.271   2.555  0.9182 -0.2935 -2.0424
  331SOL     OW  991   2.868   2.428   1.124  0.0916 -0.4295  0.0781
  331SOL    HW1  992   2.879   2.374   1.209  0.5566  0.2641  0.6146
  331SOL    HW2  993   2.793   2.498   1.130 -1.0811  0.3777 -1.2494
  332SOL     OW  994   0.716   3.040   0.816  0.4330 -0.2717  0.3455
  332SOL    HW1  995   0.626   3.065   0.860 -1.7875  2.9076  0.2760
  332SOL    HW2  996   0.750   2.952   0.852  0.2883  1.6669 -0.6285
  333SOL     OW  997   2.253   2.112   2.582 -0.4810  0.0061  0.1714
  333SOL    HW1  998   2.196   2.184   2.626 -0.8663 -1.9787  1.4211
  333SOL    HW2  999   2.312   2.144   2.503  0.5263 -2.4711 -0.5589
  334SOL     OW 1000   0.731   1.258   0.617 -0.3442 -0.5865  0.1557
  334SOL    HW1 1001   0.629   1.245   0.628  2.2549  1.2581 -0.0721
  334SOL    HW2 1002   0.758   1.337   0.678  0.6918  1.1823  1.9715
  335SOL     OW 1003   2.892   2.063   2.328 -0.0320 -0.2000  0.3217
  335SOL    HW1 1004   2.989   2.059   2.359 -0.4381  2.2544  0.0079
  335SOL    HW2 1005   2.833   2.008   2.391  3.7517  0.4868 -1.2320
  336SOL     OW 1006   2.443   2.893   2.367 -0.3990 -0.2966 -0.3848
  336SOL    HW1 1007   2.480   2.948   2.447 -2.5533  1.9304  0.0962
  336SOL    HW2 1008   2.346   2.872   2.378  3.2785  0.2597 -1.2001
  337SOL     OW 1009   0.723   0.733   0.828 -0.4047  0.3069 -0.4529
  337SOL    HW1 1010   0.761   0.663   0.886 -2.0283  5.2018 -2.6658
  337SOL    HW2 1011   0.792   0.761   0.758 -2.3451 -1.9437 -0.9849
  338SOL     OW 1012   1.142   1.776   1.139  0.8062  0.3752 -0.3442
  338SOL    HW1 1013   1.043   1.792   1.159 -1.2735  2.1096 -2.6307
  338SOL    HW2 1014   1.205   1.846   1.178  1.0859  0.8926 -0.7344
  339SOL     OW 1015   0.093   1.877   1.593 -0.0253 -0.0669 -0.1733
  339SOL    HW1 1016   0.091   1.957   1.530 -0.5332 -0.9409 -2.1599
  339SOL    HW2 1017   0.146   1.895   1.677 -0.2820 -2.3893 -1.3840
  340SOL     OW 1018   1.416   2.537   1.701 -0.4871 -0.1780 -0.0825
  340SOL    HW1 1019   1.505   2.572   1.737 -0.1493 -1.0041  0.8209
  340SOL    HW2 1020   1.347   2.507   1.769 -0.5859 -1.1744 -0.7409
  341SOL     OW 1021   1.670   1.559   1.111 -0.3229  0.4543  0.0246
  341SOL    HW1 1022   1.672   1.660   1.128  0.7579  0.2262  2.2231
  341SOL    HW2 1023   1.704   1.518   1.195 -1.6065 -1.4175  0.3733
  342SOL     OW 1024   2.536   1.483   1.090 -0.1980  0.0852  0.5322
  342SOL    HW1 1025   2.562   1.557   1.157  2.0726  1.4608 -2.0920
  342SOL    HW2 1026   2.589   1.485   1.004 -0.2806 -2.3548  1.4053
  343SOL     OW 1027   2.342   0.364   1.040 -0.1748 -0.3569  0.1191
  343SOL    HW1 1028   2.378   0.428   1.109  0.2574 -0.5726 -3.1051
  343SOL    HW2 1029   2.253   0.399   1.003 -0.1316  0.0244 -0.0004
  344SOL     OW 1030   2.004   3.110   0.692  0.3174  0.0895 -0.4506
  344SOL    HW1 1031   2.064   0.071   0.732 -0.7493  0.9206  1.3525
  344SOL    HW2 1032   1.904   0.007   0.713 -2.0634  1.8277 -3.6486
  345SOL     OW 1033   0.955   2.836   1.913  0.2615  0.0410  0.6040
  345SOL    HW1 1034   0.929   2.769   1.991 -1.7508 -3.4311  1.6404
  345SOL    HW2 1035   0.937   2.793   1.823  0.5011  1.7322 -0.3636
  346SOL     OW 1036   2.608   2.044   0.793 -0.4188  0.1126 -0.2725
  346SOL    HW1 1037   2.671   1.988   0.854  1.5096 -0.8125  0.6088
  346SOL    HW2 1038   2.618   2.145   0.791 -0.4803 -1.0139  0.8705
  347SOL     OW 1039   2.506   2.974   1.271  0.1121  0.4738  0.5458
  347SOL    HW1 1040   2.419   2.919   1.263  0.0061  0.9930 -2.3458
  347SOL    HW2 1041   2.480   3.066   1.303 -2.5399  1.3718  2.3640
  348SOL     OW 1042   1.057   1.026   1.104 -0.3473  0.3281  0.5868
  348SOL    HW1 1043   1.149   1.073   1.085 -0.2942  3.9996  0.6340
  348SOL    HW2 1044   1.074   0.942   1.159  0.1502 -1.3148 -1.6057
  349SOL     OW 1045   2.292   0.575   1.939  0.2744  0.1122  0.0029
  349SOL    HW1 1046   2.205   0.543   1.980  2.4058  0.0850 -4.1215
  349SOL    HW2 1047   2.349   0.491   1.912  2.5032 -1.4595 -0.5906
  350SOL     OW 1048   2.171   2.566   0.461 -0.1363 -0.1020 -0.1866
  350SOL    HW1 1049   2.242   2.642   0.469 -1.5763  1.4997 -0.4927
  350SOL    HW2 1050   2.166   2.512   0.550  1.1697 -1.1343 -1.4489
  351SOL     OW 1051   1.254   0.294   2.794  0.5677 -0.1720  0.3285
  351SOL    HW1 1052   1.314   0.320   2.874  3.4502  1.0533  1.4656
  351SOL    HW2 1053   1.160   0.339   2.813 -2.3590  0.0240 -0.0738
  352SOL     OW 1054   2.015   2.634   2.283  0.2752  0.6743  0.4052
  352SOL    HW1 1055   1.976   2.611   2.375 -2.4489 -0.7335  1.6897
  352SOL    HW2 1056   1.975   2.574   2.207 -1.7350 -3.9525  0.7390
  353SOL     OW 1057   0.508   0.874   2.611 -0.1300 -0.0435 -0.7082
  353SOL    HW1 1058   0.510   0.957   2.547  0.2827 -0.7368 -2.3603
  353SOL    HW2 1059   0.592   0.820   2.599 -1.0385 -0.4408  0.9758
  354SOL     OW 1060   0.418   2.865   2.682  0.2993 -0.2638 -0.0552
  354SOL    HW1 1061   0.407   2.787   2.621  1.3351 -1.3267 -1.0069
  354SOL    HW2 1062   0.440   2.837   2.775 -0.3199  0.8890  0.5161
  355SOL     OW 1063   2.295   2.790   1.297  0.1118 -0.3604 -0.5610
  355SOL    HW1 1064   2.218   2.816   1.359 -2.6683 -2.3279 -0.6875
  355SOL    HW2 1065   2.340   2.706   1.329  1.2051  1.5939 -0.8605
  356SOL     OW 1066   2.454   0.595   0.389 -0.2645  0.1803 -0.0047
  356SOL    HW1 1067   2.411   0.673   0.444  1.9913  0.5390  0.8397
  356SOL    HW2 1068   2.406   0.507   0.408 -0.3167 -1.4366  0.9030
  357SOL     OW 1069   3.080   0.090   1.598  0.4266 -0.1153  0.2042
  357SOL    HW1 1070   3.099   0.189   1.602  0.9407  0.1269  2.0725
  357SOL    HW2 1071   2.979   0.084   1.619 -0.6659 -0.5996  3.1480
  358SOL     OW 1072   2.880   1.649   1.356 -0.2042  0.1410  0.4850
  358SOL    HW1 1073   2.930   1.657   1.441 -0.3909  0.6711 -1.9371
  358SOL    HW2 1074   2.884   1.740   1.304  0.2006 -1.8583 -0.7895
  359SOL     OW 1075   2.493   2.989   2.838 -0.1733 -0.2106  0.7111
  359SOL    HW1 1076   2.495   3.010   2.738  0.4419  1.1562  1.8240
  359SOL    HW2 1077   2.573   3.033   2.885 -0.6264 -3.9066 -0.4849
  360SOL     OW 1078   1.208   0.605   1.408  0.2534 -0.0416 -0.3380
  360SOL    HW1 1079   1.143   0.551   1.470 -0.4709  0.0340  2.0093
  360SOL    HW2 1080   1.266   0.671   1.459  1.5061  1.6086  0.2267
  361SOL     OW 1081   2.636   2.434   1.366 -0.3012  0.3496 -0.2159
  361SOL    HW1 1082   2.709   2.394   1.425  4.8696  1.2930 -1.7993
  361SOL    HW2 1083   2.674   2.504   1.302 -2.6863 -2.1882 -0.6648
  362SOL     OW 1084   1.470   0.437   0.784  0.2222  0.3116  0.3157
  362SOL    HW1 1085   1.495   0.496   0.704 -1.7293 -0.7685 -2.7312
  362SOL    HW2 1086   1.431   0.350   0.754 -1.6768 -0.0363  1.6051
  363SOL     OW 1087   1.825   1.426   0.956 -0.1810  0.1727 -0.1266
  363SOL    HW1 1088   1.832   1.497   0.883 -0.2034 -0.8302 -3.2200
  363SOL    HW2 1089   1.767   1.468   1.032 -0.1343  3.0620  1.8150
  364SOL     OW 1090   0.339   0.947   2.023  0.7239 -0.2089  0.1085
  364SOL    HW1 1091   0.306   0.869   2.074 -0.1846 -0.6431  0.1807
  364SOL    HW2 1092   0.405   0.923   1.951 -0.3847  0.1525 -0.9487
  365SOL     OW 1093   2.764   0.621   1.045 -0.8002  0.2230 -0.3230
  365SOL    HW1 1094   2.868   0.629   1.034  0.1263  0.0547 -1.2115
  365SOL    HW2 1095   2.733   0.679   1.124 -0.6288 -2.8699  0.7960
  366SOL     OW 1096   2.700   1.016   0.377  0.0775  0.3058  0.1283
  366SOL    HW1 1097   2.675   1.058   0.292 -0.1120  1.2463  0.4254
  366SOL    HW2 1098   2.783   1.058   0.418 -1.5406  2.6689 -2.6515
  367SOL     OW 1099   2.159   2.002   2.257  0.8910  0.4846  0.0018
  367SOL    HW1 1100   2.136   2.092   2.210 -0.6204 -1.1233  1.2594
  367SOL    HW2 1101   2.167   2.020   2.355  0.4911 -0.9319  0.1089
  368SOL     OW 1102   2.614   2.114   1.106 -0.0887  0.5432 -0.7676
  368SOL    HW1 1103   2.594   2.146   1.202 -0.8828 -2.2408 -2.4314
  368SOL    HW2 1104   2.549   2.034   1.090  0.1890  1.0023 -2.8076
  369SOL     OW 1105   2.098   0.021   2.774 -0.1580 -0.2697  0.2616
  369SOL    HW1 1106   2.085   3.091   2.868  0.5120 -0.0038  0.6049
  369SOL    HW2 1107   2.183   0.073   2.766 -3.0875 -2.2485  1.5526
  370SOL     OW 1108   0.711   0.334   1.148  0.1441 -0.2388 -0.2680
  370SOL    HW1 1109   0.658   0.250   1.130 -0.1037  2.1134 -1.6664
  370SOL    HW2 1110   0.745   0.324   1.243 -2.1732 -2.0818 -0.4400
  371SOL     OW 1111   0.406   1.616   0.267  0.2754  0.2903 -0.1146
  371SOL    HW1 1112   0.415   1.638   0.167  2.2697 -1.5404 -0.2012
  371SOL    HW2 1113   0.495   1.623   0.316  0.6552  1.3104 -1.2237
  372SOL     OW 1114   0.415   0.702   2.818  0.1086 -0.8005 -0.2973
  372SOL    HW1 1115   0.333   0.648   2.806  1.6649  1.1558  1.1942
  372SOL    HW2 1116   0.440   0.756   2.733  1.2282 -0.7924 -0.6446
  373SOL     OW 1117   1.100   2.990   2.966  0.2437  0.1545  0.0157
  373SOL    HW1 1118   1.024   2.924   2.966  2.5697 -1.3881 -0.1342
  373SOL    HW2 1119   1.082   3.075   2.909  1.4074  1.0947 -0.9680
  374SOL     OW 1120   1.078   1.820   0.439 -0.2853  0.1429 -0.8930
  374SOL    HW1 1121   1.144   1.835   0.517  0.1735  0.8175  0.6911
  374SOL    HW2 1122   1.102   1.732   0.393  0.9782  0.5866  0.3466
  375SOL     OW 1123   0.612   0.664   2.051  0.0910 -0.2366 -0.0597
  375SOL    HW1 1124   0.596   0.720   2.136  1.2316  2.4082  1.6635
  375SOL    HW2 1125   0.707   0.629   2.038 -0.1161  3.0835 -0.3467
  376SOL     OW 1126   0.117   2.440   1.597 -0.0775 -0.2805  0.1073
  376SOL    HW1 1127   0.166   2.349   1.585  2.5384  0.1268  1.1098
  376SOL    HW2 1128   0.164   2.492   1.671 -0.3927  0.2461 -0.4219
  377SOL     OW 1129   2.738   1.669   2.889 -0.7022  0.2971  0.2478
  377SOL    HW1 1130   2.670   1.660   2.814  2.0689  0.9639 -0.4165
  377SOL    HW2 1131   2.813   1.596   2.879  0.0948  1.3889  0.9817
  378SOL     OW 1132   2.116   2.981   3.003  0.3446 -0.0196  0.1512
  378SOL    HW1 1133   2.093   2.960   3.098 -0.4510 -1.3255  0.5304
  378SOL    HW2 1134   2.133   2.897   2.951 -1.9235  1.3999  2.9883
  379SOL     OW 1135   1.913   0.390   0.633  0.0391 -0.1096 -0.5852
  379SOL    HW1 1136   2.011   0.356   0.643  1.0178 -1.2972 -3.1775
  379SOL    HW2 1137   1.894   0.483   0.670 -0.7954  1.6267 -0.8260
  380SOL     OW 1138   2.798   2.186   1.814 -0.5881 -0.7008  0.1117
  380SOL    HW1 1139   2.881   2.149   1.769  2.9023  1.0913 -3.6359
  380SOL    HW2 1140   2.802   2.154   1.913  0.6384 -1.1567  1.4651
  381SOL     OW 1141   2.208   1.555   2.460  0.0006  0.4772  0.0317
  381SOL    HW1 1142   2.290   1.584   2.406 -0.5719  1.1856 -1.8836
  381SOL    HW2 1143   2.225   1.486   2.535  0.4440 -4.1309 -2.1546
  382SOL     OW 1144   2.868   2.762   2.809  0.0188  0.3156  0.2477
  382SOL    HW1 1145   2.785   2.707   2.829 -0.0135  0.8496  1.0152
  382SOL    HW2 1146   2.885   2.779   2.707 -1.1212  2.0368  3.9179
  383SOL     OW 1147   1.000   1.208   3.005  0.8377 -0.3977  0.3322
  383SOL    HW1 1148   0.961   1.117   2.980 -2.5046 -4.7664 -1.5005
  383SOL    HW2 1149   0.974   1.289   2.948 -2.0108  0.3657  1.8510
  384SOL     OW 1150   1.265   1.937   1.517 -0.3811 -0.2266 -0.1110
  384SOL    HW1 1151   1.211   1.930   1.427  1.7827 -0.2064 -1.8324
  384SOL    HW2 1152   1.256   2.025   1.575 -1.9380  2.1292  4.0108
  385SOL     OW 1153   1.973   2.679   0.900  0.6249  0.0410  0.1554
  385SOL    HW1 1154   1.956   2.578   0.900 -0.0615  0.8206  0.3334
  385SOL    HW2 1155   2.032   2.707   0.820 -0.5248  2.5635  1.4154
  386SOL     OW 1156   1.876   1.644   0.810  0.0912 -0.5719  0.0343
  386SOL    HW1 1157   1.915   1.697   0.894  1.7564 -2.5182  2.6699
  386SOL    HW2 1158   1.958   1.627   0.754 -0.8192 -2.6718  0.7611
  387SOL     OW 1159   2.972   2.303   1.351 -0.4447  0.8199  0.3850
  387SOL    HW1 1160   2.988   2.347   1.444  1.2116  1.7717 -0.9759
  387SOL    HW2 1161   2.923   2.213   1.354 -1.3275 -0.2405 -0.1810
  388SOL     OW 1162   3.008   1.068   1.609  0.7158 -0.2656 -0.2530
  388SOL    HW1 1163   3.017   1.169   1.623 -1.1911 -0.7907  2.4379
  388SOL    HW2 1164   3.050   1.031   1.527 -2.6338  2.3278  1.5236
  389SOL     OW 1165   2.114   0.646   0.110  0.0090  0.1484  0.0291
  389SOL    HW1 1166   2.090   0.596   0.193 -0.7279  0.8998 -0.2099
  389SOL    HW2 1167   2.209   0.681   0.119  1.9466  1.1820  0.8381
  390SOL     OW 1168   1.157   1.687   2.895  0.0960 -0.2037  0.3089
  390SOL    HW1 1169   1.238   1.742   2.871  1.5087 -1.0920 -0.0139
  390SOL    HW2 1170   1.126   1.616   2.830  0.8096 -0.9640  0.7820
  391SOL     OW 1171   1.383   2.130   3.005 -0.0908 -0.4192 -0.3129
  391SOL    HW1 1172   1.413   2.194   3.082  1.6958  1.1602  2.2180
  391SOL    HW2 1173   1.298   2.077   3.035 -1.2780  1.1230  2.2956
  392SOL     OW 1174   0.073   2.528   1.849  0.3427  0.2709  0.3172
  392SOL    HW1 1175   0.138   2.577   1.906 -2.0037  0.1713 -2.1821
  392SOL    HW2 1176   0.022   2.461   1.905 -0.4899 -2.8934  0.5196
  393SOL     OW 1177   1.230   2.352   0.205 -0.2121 -0.2171 -0.3681
  393SOL    HW1 1178   1.226   2.376   0.305  1.4308  1.5470  1.3136
  393SOL    HW2 1179   1.327   2.327   0.174 -1.0475  0.4512 -0.1001
  394SOL     OW 1180   0.603   0.381   2.553 -0.1511 -0.1053 -0.2587
  394SOL    HW1 1181   0.639   0.398   2.651  0.4252 -0.6875  1.3150
  394SOL    HW2 1182   0.583   0.282   2.538 -0.1311  2.2523 -1.3750
  395SOL     OW 1183   0.337   1.181   0.903  0.4320 -0.4014  0.5176
  395SOL    HW1 1184   0.425   1.203   0.858 -1.7483 -2.3410 -1.3218
  395SOL    HW2 1185   0.264   1.215   0.838 -1.3751 -1.2867  0.5755
  396SOL     OW 1186   1.785   0.943   2.178  0.3707  0.0198 -0.4418
  396SOL    HW1 1187   1.692   0.944   2.223  1.5853  0.7029  1.2286
  396SOL    HW2 1188   1.856   0.943   2.247 -2.0439  1.3923 -0.0866
  397SOL     OW 1189   0.649   0.429   0.178 -0.3644 -0.2379 -0.3180
  397SOL    HW1 1190   0.550   0.434   0.157  3.6008  1.3981  4.4050
  397SOL    HW2 1191   0.658   0.475   0.268 -1.0132 -0.4329  1.6824
  398SOL     OW 1192   1.128   2.318   2.840 -0.3881  0.1539 -0.5831
  398SOL    HW1 1193   1.215   2.293   2.792  1.1921 -1.4961 -1.6369
  398SOL    HW2 1194   1.143   2.353   2.937 -3.2834 -1.9078  3.2488
  399SOL     OW 1195   1.494   2.022   2.411 -0.1423 -0.3633  0.6391
  399SOL    HW1 1196   1.495   1.924   2.438 -0.1743  0.1966 -1.4431
  399SOL    HW2 1197   1.543   2.026   2.324 -0.0590 -1.8819 -2.3022
  400SOL     OW 1198   2.177   1.747   1.521 -0.0655 -0.7757  0.3431
  400SOL    HW1 1199   2.134   1.687   1.451 -0.3371  0.3331  0.9330
  400SOL    HW2 1200   2.188   1.694   1.606 -0.1231 -2.5784  0.8774
  401SOL     OW 1201   1.339   1.301   0.823  0.0341 -0.9006 -0.4214
  401SOL    HW1 1202   1.392   1.354   0.890 -1.0651 -1.4462 -0.9748
  401SOL    HW2 1203   1.408   1.254   0.766 -1.9859 -0.0552 -2.3088
  402SOL     OW 1204   0.111   2.570   2.232  0.0974 -0.4375 -0.2272
  402SOL    HW1 1205   0.173   2.594   2.153 -1.0810 -0.9876 -3.6127
  402SOL    HW2 1206   0.104   2.650   2.299 -0.3646  0.5313  2.5026
  403SOL     OW 1207   2.868   1.943   1.640  0.2988  0.0516  0.4233
  403SOL    HW1 1208   2.945   2.012   1.650  1.6876  0.2628 -1.6743
  403SOL    HW2 1209   2.901   1.855   1.608  0.8135  1.6311  2.8668
  404SOL     OW 1210   2.097   1.933   1.256  0.1766 -0.2074 -0.0119
  404SOL    HW1 1211   2.020   1.991   1.296 -1.0502 -0.2145 -4.2560
  404SOL    HW2 1212   2.188   1.963   1.289 -0.3550  3.7364 -0.1584
  405SOL     OW 1213   2.541   0.268   2.799  0.4273  0.1421  1.1300
  405SOL    HW1 1214   2.526   0.336   2.873  2.4881  0.6607 -3.6639
  405SOL    HW2 1215   2.586   0.313   2.724 -0.2934 -2.1554  2.0182
  406SOL     OW 1216   0.938   1.658   2.518 -0.5096 -0.3534  0.0889
  406SOL    HW1 1217   0.864   1.704   2.571 -0.2634 -2.7165  0.3619
  406SOL    HW2 1218   1.010   1.729   2.490  0.1206  1.7535 -2.1431
  407SOL     OW 1219   1.817   2.661   0.279 -0.0034  0.0464 -0.3663
  407SOL    HW1 1220   1.765   2.571   0.284  0.0322 -2.6665 -1.2535
  407SOL    HW2 1221   1.758   2.742   0.252 -0.8489 -2.0834  2.3298
  408SOL     OW 1222   0.495   0.019   0.923 -0.2951 -0.7523  0.2535
  408SOL    HW1 1223   0.489   0.076   0.835  0.7378 -0.0026  0.3360
  408SOL    HW2 1224   0.403   3.097   0.949 -0.5196  0.6572 -1.2434
  409SOL     OW 1225   2.228   2.067   0.807 -0.4564  0.5205  0.7899
  409SOL    HW1 1226   2.231   1.962   0.802 -1.1896  2.8193  1.7636
  409SOL    HW2 1227   2.269   2.108   0.725 -0.4659  1.1691  1.0553
  410SOL     OW 1228   2.203   2.115   3.025  0.0852  0.1206  0.6100
  410SOL    HW1 1229   2.214   2.061   2.942 -0.9545 -1.1038  2.1503
  410SOL    HW2 1230   2.287   2.171   3.037 -2.1837 -0.5574 -0.1559
  411SOL     OW 1231   0.126   0.309   0.500  0.2473  0.2046  0.0048
  411SOL    HW1 1232   0.151   0.225   0.446 -1.1031  1.2928  3.9687
  411SOL    HW2 1233   0.137   0.295   0.598 -0.5980  0.3880 -0.9769
  412SOL     OW 1234   1.616   2.470   0.295 -0.4023 -0.4130 -0.1060
  412SOL    HW1 1235   1.603   2.390   0.233 -1.3340  0.5449 -0.7614
  412SOL    HW2 1236   1.536   2.530   0.309  0.1865  0.7813  0.1664
  413SOL     OW 1237   2.040   0.531   2.099 -0.3383  0.6652 -0.1784
  413SOL    HW1 1238   1.982   0.518   2.019  1.1805 -1.7673  2.1107
  413SOL    HW2 1239   2.009   0.475   2.178 -0.2773  0.4110 -2.3093
  414SOL     OW 1240   2.949   0.363   0.492  0.4319  0.5539 -0.5707
  414SOL    HW1 1241   2.919   0.448   0.547 -0.0608  1.2524  0.0811
  414SOL    HW2 1242   3.045   0.338   0.519  0.2452 -0.6455 -0.9666
  415SOL     OW 1243   0.502   1.696   1.205 -0.2756 -0.6282 -0.3865
  415SOL    HW1 1244   0.451   1.630   1.261  0.9359 -1.0422 -0.3434
  415SOL    HW2 1245   0.481   1.686   1.106 -1.6217 -1.7400 -0.0869
  416SOL     OW 1246   0.006   2.966   0.148 -0.5111 -0.1083  0.2761
  416SOL    HW1 1247   0.029   3.048   0.093 -0.7080 -3.0765  2.7525
  416SOL    HW2 1248   0.091   2.910   0.154 -2.6928 -0.5910  2.3266
  417SOL     OW 1249   2.630   3.003   1.044 -0.5973 -0.2473  0.4236
  417SOL    HW1 1250   2.584   2.992   1.138 -0.6680  1.9757  2.1459
  417SOL    HW2 1251   2.647   3.102   1.022  0.3058 -0.3690 -0.0592
  418SOL     OW 1252   0.540   0.093   2.635 -0.2837  0.2476  0.3351
  418SOL    HW1 1253   0.575   0.099   2.731  0.6524  2.0899 -2.7282
  418SOL    HW2 1254   0.440   0.057   2.627 -3.3749  1.0224  1.7408
  419SOL     OW 1255   0.448   1.279   0.599 -0.3223 -0.1087  0.4960
  419SOL    HW1 1256   0.441   1.263   0.498  1.4731 -1.3943 -0.6144
  419SOL    HW2 1257   0.360   1.253   0.643  3.4585 -0.8303 -0.9500
  420SOL     OW 1258   1.837   2.000   0.875  0.3365  0.3092  0.2284
  420SOL    HW1 1259   1.847   1.997   0.774  0.3980 -3.1746 -2.0873
  420SOL    HW2 1260   1.908   1.938   0.913  3.7463 -2.3569  1.0840
  421SOL     OW 1261   1.833   2.066   2.552 -0.3385 -0.4836  0.1650
  421SOL    HW1 1262   1.834   2.020   2.460  0.2923  2.1901 -1.3487
  421SOL    HW2 1263   1.787   2.160   2.544 -1.5313  1.6878 -2.1860
  422SOL     OW 1264   2.972   0.539   2.993 -0.4729  0.0530  0.0148
  422SOL    HW1 1265   3.049   0.605   2.972 -0.8873 -0.2695  1.7555
  422SOL    HW2 1266   2.919   0.572   3.076 -4.7245  0.0130  2.1277
  423SOL     OW 1267   1.455   1.830   0.848 -0.0950  0.5286  0.2357
  423SOL    HW1 1268   1.484   1.890   0.924 -5.0878 -1.5140  0.9207
  423SOL    HW2 1269   1.532   1.806   0.783 -1.7310  1.5556 -0.0319
  424SOL     OW 1270   0.442   1.535   1.441 -0.4031 -0.5221  0.2155
  424SOL    HW1 1271   0.435   1.442   1.485 -2.0480  0.3839  1.0104
  424SOL    HW2 1272   0.495   1.598   1.504  1.0906  0.2629  0.5122
  425SOL     OW 1273   2.592   2.730   1.974 -0.0087 -0.3380  0.2741
  425SOL    HW1 1274   2.684   2.681   1.976  4.7032  1.3244 -0.9222
  425SOL    HW2 1275   2.593   2.804   1.903 -0.0432 -0.0443  0.5931
  426SOL     OW 1276   1.912   2.774   0.501 -0.0682  0.6491 -0.4884
  426SOL    HW1 1277   1.877   2.722   0.421  2.3549  2.1676 -1.4442
  426SOL    HW2 1278   2.013   2.754   0.516  0.6220 -1.9347  0.6502
  427SOL     OW 1279   0.552   0.684   3.062 -0.0954  0.4017  0.2027
  427SOL    HW1 1280   0.516   0.684   2.967 -0.7517  1.5795  2.3856
  427SOL    HW2 1281   0.489   0.731   0.017 -1.6733 -1.1925 -0.5731
  428SOL     OW 1282   1.921   1.210   0.176 -0.1164 -0.1324 -0.7339
  428SOL    HW1 1283   1.849   1.145   0.135 -2.0137  0.4851  1.4880
  428SOL    HW2 1284   1.925   1.294   0.118 -2.8046  3.0746 -2.2599
  429SOL     OW 1285   2.709   0.139   0.248 -1.0950 -0.7712  0.0781
  429SOL    HW1 1286   2.695   0.039   0.244  2.2205  2.9427 -1.0315
  429SOL    HW2 1287   2.755   0.165   0.336 -1.4577  0.2216  1.6407
  430SOL     OW 1288   0.978   3.087   2.069 -0.2760  0.2953 -0.0439
  430SOL    HW1 1289   0.919   0.056   2.053  2.4071  0.8304 -0.0763
  430SOL    HW2 1290   0.957   3.011   2.001  2.4983 -0.4554 -1.2052
  431SOL     OW 1291   2.862   1.357   1.311 -0.5613  0.3242  0.2130
  431SOL    HW1 1292   2.823   1.450   1.320 -0.9811  2.0083  1.0968
  431SOL    HW2 1293   2.932   1.338   1.388  3.0962  1.8735  2.8064
  432SOL     OW 1294   2.104   2.527   1.821 -0.4718  0.1572  0.3625
  432SOL    HW1 1295   2.171   2.460   1.855 -1.3510 -0.8224 -0.8041
  432SOL    HW2 1296   2.034   2.539   1.893  0.2128 -1.3802 -0.8553
  433SOL     OW 1297   1.155   1.743   0.047 -0.0717 -0.3078  0.2035
  433SOL    HW1 1298   1.104   1.704   0.129 -2.1448 -0.3362  0.8970
  433SOL    HW2 1299   1.117   1.714   3.066 -1.7510 -0.0538  2.5348
  434SOL     OW 1300   0.133   2.367   2.613  0.2489  0.2219 -0.3685
  434SOL    HW1 1301   0.156   2.417   2.530 -1.3364 -0.0387  0.2487
  434SOL    HW2 1302   0.177   2.392   2.703  1.7998  0.0853 -1.8750
  435SOL     OW 1303   0.198   0.691   0.516 -0.3281  0.3243 -0.0676
  435SOL    HW1 1304   0.278   0.628   0.506 -2.8806  0.0283 -0.8337
  435SOL    HW2 1305   0.233   0.788   0.509  0.0833  0.7661  1.6537
  436SOL     OW 1306   0.336   2.694   1.752 -0.5749  0.5512 -0.7567
  436SOL    HW1 1307   0.374   2.602   1.730 -0.7308 -2.0949  1.4197
  436SOL    HW2 1308   0.283   2.735   1.675 -1.8594  0.0532 -2.0895
  437SOL     OW 1309   1.020   2.014   1.414  0.0567  0.3227 -0.6931
  437SOL    HW1 1310   1.034   2.063   1.503  1.5453 -2.6168 -0.7168
  437SOL    HW2 1311   1.045   2.063   1.330  0.1557 -1.2281  1.4193
  438SOL     OW 1312   0.047   2.150   0.718 -0.1894  0.0088  0.1746
  438SOL    HW1 1313   0.086   2.141   0.811 -0.9392 -0.2603 -1.8711
  438SOL    HW2 1314   0.130   2.153   0.655 -0.8875 -4.8828  0.5008
  439SOL     OW 1315   0.091   0.493   1.142  0.3730  0.1733  0.5583
  439SOL    HW1 1316   0.055   0.428   1.210  4.2775  0.9887 -0.1591
  439SOL    HW2 1317   0.134   0.581   1.172 -0.4175  2.2820 -0.5925
  440SOL     OW 1318   2.847   2.780   2.196 -0.2703 -0.0683 -0.3835
  440SOL    HW1 1319   2.888   2.861   2.157  2.3138  0.7891 -1.0637
  440SOL    HW2 1320   2.834   2.709   2.124 -1.9882 -0.0937  0.0665
  441SOL     OW 1321   3.102   0.709   1.891 -0.3544 -0.1406 -0.0630
  441SOL    HW1 1322   3.038   0.689   1.971  3.0693 -2.6549 -1.5275
  441SOL    HW2 1323   0.013   0.809   1.897  0.4927 -1.9752 -0.6508
  442SOL     OW 1324   1.870   2.479   3.063 -0.0847 -0.1726  0.2001
  442SOL    HW1 1325   1.922   2.393   3.064 -0.4569 -1.1097 -1.4416
  442SOL    HW2 1326   1.918   2.548   0.004  0.1502  0.6259 -2.0613
  443SOL     OW 1327   0.412   0.784   0.176 -0.2189  0.8407 -0.3435
  443SOL    HW1 1328   0.339   0.716   0.160  2.3801  0.9774  1.7914
  443SOL    HW2 1329   0.491   0.768   0.241  4.3802  2.5492 -0.5083
  444SOL     OW 1330   1.438   1.512   2.134  0.0512 -0.2472  0.7751
  444SOL    HW1 1331   1.445   1.606   2.096 -1.7277 -1.3736  3.2152
  444SOL    HW2 1332   1.355   1.469   2.094  3.8511  3.5101 -3.3387
  445SOL     OW 1333   0.236   2.989   1.050 -0.4199 -0.0328 -0.6148
  445SOL    HW1 1334   0.252   3.058   1.126  1.1483 -0.0492  1.7361
  445SOL    HW2 1335   0.135   2.981   1.019 -0.4724 -1.4640 -2.4014
  446SOL     OW 1336   2.132   1.015   1.346 -0.1452  0.2141 -0.2780
  446SOL    HW1 1337   2.046   0.960   1.350 -0.3822 -1.5953  1.8120
  446SOL    HW2 1338   2.128   1.100   1.294 -0.5334  2.5646  2.3207
  447SOL     OW 1339   0.205   0.621   0.129 -0.0358 -0.2185  0.4698
  447SOL    HW1 1340   0.130   0.586   0.189  0.9529 -1.4608 -0.3927
  447SOL    HW2 1341   0.165   0.630   0.038  0.3882  1.3291  3.9276
  448SOL     OW 1342   1.288   2.164   1.650  0.3576  0.4109  0.5045
  448SOL    HW1 1343   1.368   2.212   1.610  4.1491  2.5054 -1.3032
  448SOL    HW2 1344   1.295   2.165   1.752  0.7270  1.3229  0.7640
  449SOL     OW 1345   1.363   1.521   0.575 -0.3306  0.7500  0.3484
  449SOL    HW1 1346   1.446   1.510   0.635  2.4383 -0.0485 -1.0796
  449SOL    HW2 1347   1.393   1.508   0.480  0.9855 -3.5459  1.9363
  450SOL     OW 1348   2.564   1.879   1.911  0.1257  0.4699  0.1059
  450SOL    HW1 1349   2.533   1.933   1.992 -0.8989 -0.1772  0.4767
  450SOL    HW2 1350   2.608   1.796   1.944  2.4685  2.2260  0.6660
  451SOL     OW 1351   2.911   1.487   2.831  0.1403  0.2495 -0.0223
  451SOL    HW1 1352   2.993   1.482   2.889 -2.6934 -0.2269 -3.3912
  451SOL    HW2 1353   2.877   1.392   2.802 -1.6403 -0.0840 -2.8176
  452SOL     OW 1354   1.518   0.982   1.297  0.1462  0.0916  0.7246
  452SOL    HW1 1355   1.416   0.977   1.323 -0.3614  1.2592  1.2839
  452SOL    HW2 1356   1.557   1.075   1.292 -0.3661 -0.3937 -1.8614
  453SOL     OW 1357   2.020   0.920   0.912 -0.5199  0.2388 -0.1679
  453SOL    HW1 1358   2.086   0.884   0.987  2.7612  0.5683  2.3734
  453SOL    HW2 1359   2.051   1.010   0.875 -1.0745  2.1037 -1.0953
  454SOL     OW 1360   2.861   0.790   0.358 -0.1810  0.4859 -0.6769
  454SOL    HW1 1361   2.813   0.697   0.358  0.8672 -0.0811  0.7732
  454SOL    HW2 1362   2.794   0.864   0.354  1.7773  0.6918  3.9620
  455SOL     OW 1363   3.019   2.483   0.903  0.7120 -0.0742  0.3714
  455SOL    HW1 1364   2.954   2.508   0.826 -2.3936 -1.5102 -3.2481
  455SOL    HW2 1365   2.969   2.479   0.990  0.9782  0.4934 -0.4313
  456SOL     OW 1366   0.835   3.039   1.230 -0.2315  0.0023 -0.1967
  456SOL    HW1 1367   0.793   2.964   1.289  0.5850 -0.6583 -0.0859
  456SOL    HW2 1368   0.890   3.104   1.283  1.1919  2.3239 -0.0967
  457SOL     OW 1369   1.792   2.838   1.061  0.0865  0.2154  0.4006
  457SOL    HW1 1370   1.710   2.898   1.045 -1.9005  1.4852  1.6297
  457SOL    HW2 1371   1.836   2.807   0.976 -0.0758 -4.0998  0.4144
  458SOL     OW 1372   2.672   0.287   0.775  0.1821  0.2830 -0.5889
  458SOL    HW1 1373   2.665   0.236   0.860 -0.4595  1.1026  3.5206
  458SOL    HW2 1374   2.650   0.383   0.795 -0.3927 -0.8639 -1.8359
  459SOL     OW 1375   1.853   0.720   0.049  0.1728  0.9582  0.6340
  459SOL    HW1 1376   1.859   0.791   3.091 -2.1917 -0.6919  2.0955
  459SOL    HW2 1377   1.947   0.684   0.070  1.2293  0.1685  2.1353
  460SOL     OW 1378   2.917   2.292   2.895  0.0738 -0.2090  0.4235
  460SOL    HW1 1379   2.909   2.376   2.952  0.5983 -0.9824 -0.5540
  460SOL    HW2 1380   2.971   2.217   2.933 -2.4582  2.2399 -0.3344
  461SOL     OW 1381   0.661   1.637   0.350  0.4740  0.3651  0.4256
  461SOL    HW1 1382   0.704   1.720   0.393  2.3924 -0.8367  0.2544
  461SOL    HW2 1383   0.723   1.588   0.287 -1.5342  1.9474 -0.3259
  462SOL     OW 1384   2.570   2.546   0.623  0.0542 -0.3835  0.3478
  462SOL    HW1 1385   2.671   2.564   0.611  1.6660 -1.4402 -1.6096
  462SOL    HW2 1386   2.521   2.633   0.608 -0.6809  0.4493  0.2619
  463SOL     OW 1387   2.794   0.537   0.618 -0.3268 -0.3033 -0.0302
  463SOL    HW1 1388   2.719   0.520   0.685  1.7678  1.4248 -0.2011
  463SOL    HW2 1389   2.828   0.631   0.631 -2.6452 -0.6117 -0.5994
  464SOL     OW 1390   1.086   2.743   0.221  0.2173 -0.2807  0.0915
  464SOL    HW1 1391   1.006   2.766   0.158 -0.7736  3.3149  0.5758
  464SOL    HW2 1392   1.048   2.708   0.306 -1.3874  0.2737 -3.8939
  465SOL     OW 1393   2.301   0.800   0.531  0.2354  0.3866 -0.3299
  465SOL    HW1 1394   2.260   0.770   0.619 -2.5700  2.5446  2.1923
  465SOL    HW2 1395   2.236   0.860   0.480 -3.5814 -1.1200 -1.4883
  466SOL     OW 1396   2.421   2.958   0.004  0.5629 -0.4818 -0.1192
  466SOL    HW1 1397   2.356   2.986   3.043 -0.6358  0.6966  2.5579
  466SOL    HW2 1398   2.401   2.863   0.034  0.7978  0.4718 -0.0772
  467SOL     OW 1399   1.056   0.499   1.816  0.0359  0.1170 -0.1388
  467SOL    HW1 1400   0.985   0.542   1.870 -2.1215  1.0231 -0.8432
  467SOL    HW2 1401   1.127   0.565   1.790 -2.5791  1.0255 -4.9119
  468SOL     OW 1402   0.229   0.429   2.271  0.6301  0.0432  0.1216
  468SOL    HW1 1403   0.279   0.435   2.363 -0.9972 -0.2181  1.8590
  468SOL    HW2 1404   0.190   0.518   2.245  2.4265 -1.7573  2.9002
  469SOL     OW 1405   0.718   2.914   2.711  0.0527 -0.0334  0.3479
  469SOL    HW1 1406   0.626   2.876   2.721  1.2813 -3.4035  1.1224
  469SOL    HW2 1407   0.744   2.911   2.610 -1.0606 -1.4310  0.8721
  470SOL     OW 1408   1.771   1.481   2.320  0.1846 -0.3040 -0.4232
  470SOL    HW1 1409   1.678   1.511   2.353 -1.6112  0.0929 -0.3497
  470SOL    HW2 1410   1.840   1.546   2.363 -0.8638 -0.9733 -1.4401
  471SOL     OW 1411   2.824   1.227   2.752 -0.3650  0.4437  0.2562
  471SOL    HW1 1412   2.778   1.287   2.685  0.1932 -0.5342 -0.9428
  471SOL    HW2 1413   2.766   1.173   2.811 -0.4010  1.2639 -1.6929
  472SOL     OW 1414   0.431   2.410   0.226 -0.4228  0.2789  0.0093
  472SOL    HW1 1415   0.330   2.431   0.216  0.2594  1.3804 -1.0489
  472SOL    HW2 1416   0.470   2.423   0.323  1.9944  0.4627  1.2952
  473SOL     OW 1417   0.716   3.063   2.936 -0.0834 -0.9721  0.3386
  473SOL    HW1 1418   0.686   3.003   2.862  3.1378 -1.9613  4.1002
  473SOL    HW2 1419   0.664   3.039   3.021 -1.1712 -1.1500 -0.5403
  474SOL     OW 1420   1.674   0.333   2.205  0.4723  0.2838 -0.0960
  474SOL    HW1 1421   1.585   0.349   2.156  1.6463  0.5975  2.0955
  474SOL    HW2 1422   1.703   0.232   2.198  2.6241  0.3469  1.1841
  475SOL     OW 1423   0.619   2.793   0.228  0.2220  0.3315 -0.5466
  475SOL    HW1 1424   0.599   2.807   0.329 -1.9216 -1.8879  0.7675
  475SOL    HW2 1425   0.698   2.854   0.205  1.4317 -0.9969  0.2682
  476SOL     OW 1426   0.209   0.896   1.036  0.5223  0.1312 -0.6124
  476SOL    HW1 1427   0.236   0.990   1.039 -1.0555 -1.0774  1.1266
  476SOL    HW2 1428   0.254   0.843   0.963  0.9742  0.1279 -0.2598
  477SOL     OW 1429   1.580   2.158   1.285  0.2514 -0.1128  0.0497
  477SOL    HW1 1430   1.660   2.218   1.316 -0.8637 -1.3060  0.1378
  477SOL    HW2 1431   1.533   2.109   1.366 -1.3815 -1.2200  1.2698
  478SOL     OW 1432   0.669   1.248   1.982  0.4273 -0.7807  0.3460
  478SOL    HW1 1433   0.588   1.249   1.925  3.3593 -1.8408  0.0590
  478SOL    HW2 1434   0.723   1.165   1.972 -0.0727 -1.6052  0.0765
  479SOL     OW 1435   0.612   0.096   1.161 -0.2933  0.3970 -0.0503
  479SOL    HW1 1436   0.554   0.072   1.083  1.0242 -4.5934  0.5958
  479SOL    HW2 1437   0.699   0.038   1.166 -0.2373  0.1881  0.1900
  480SOL     OW 1438   2.443   2.479   0.162 -0.2819 -0.9970 -0.3026
  480SOL    HW1 1439   2.506   2.440   0.234  1.3000  0.7668 -2.0988
  480SOL    HW2 1440   2.456   2.419   0.083  1.4280 -0.1786 -0.6458
  481SOL     OW 1441   2.846   0.336   1.092  0.4376 -0.0899  0.4419
  481SOL    HW1 1442   2.827   0.439   1.091  0.3457  0.9404 -0.2919
  481SOL    HW2 1443   2.914   0.323   1.173 -0.4178 -0.9642 -1.2833
  482SOL     OW 1444   1.441   2.302   2.152 -0.2756  0.6451  0.1608
  482SOL    HW1 1445   1.363   2.319   2.215  0.8974 -1.6186 -0.1885
  482SOL    HW2 1446   1.511   2.376   2.161 -0.5900  0.6448 -1.3586
  483SOL     OW 1447   0.292   1.424   2.745 -0.1836 -0.1558  0.9563
  483SOL    HW1 1448   0.317   1.464   2.653 -0.5945 -0.9560  1.3064
  483SOL    HW2 1449   0.257   1.327   2.729  0.4051  0.5733 -0.4194
  484SOL     OW 1450   0.986   1.602   2.049  0.6100 -0.0717 -0.0039
  484SOL    HW1 1451   1.054   1.534   2.017 -1.4452  1.1187 -2.0631
  484SOL    HW2 1452   0.891   1.573   2.027 -1.2175  1.1726 -1.6500
  485SOL     OW 1453   2.825   0.360   2.890  0.3395  0.6323 -0.2003
  485SOL    HW1 1454   2.897   0.432   2.915  2.2182 -0.1428  0.2156
  485SOL    HW2 1455   2.798   0.304   2.970  0.3776  0.2861 -3.7225
  486SOL     OW 1456   1.527   2.956   0.611  0.0165 -0.5054 -0.0335
  486SOL    HW1 1457   1.559   3.037   0.557 -1.2691 -1.4807 -2.2841
  486SOL    HW2 1458   1.424   2.941   0.580 -1.1248 -1.4031  0.0934
  487SOL     OW 1459   1.247   2.489   0.930 -0.5157  0.2353 -0.2929
  487SOL    HW1 1460   1.255   2.399   0.881 -0.6790 -0.1376 -2.1618
  487SOL    HW2 1461   1.338   2.525   0.954  1.5564 -0.9041  0.5114
  488SOL     OW 1462   2.159   0.980   0.344 -0.2433  0.3635  0.1311
  488SOL    HW1 1463   2.111   1.063   0.369 -0.2652 -0.6789 -2.2334
  488SOL    HW2 1464   2.222   0.991   0.268 -3.6401  0.7945 -0.3351
  489SOL     OW 1465   1.237   2.729   1.184  0.8094 -0.3670 -0.0049
  489SOL    HW1 1466   1.275   2.634   1.196  2.2559 -1.9123  1.8682
  489SOL    HW2 1467   1.236   2.794   1.262  1.3154 -4.7456  0.9217
  490SOL     OW 1468   0.942   1.044   0.259  0.1300  0.3334 -0.0971
  490SOL    HW1 1469   0.941   1.021   0.361 -0.1990 -1.4386  1.3456
  490SOL    HW2 1470   0.969   0.960   0.204 -3.5286 -1.5945  0.9100
  491SOL     OW 1471   1.396   2.898   0.279  0.1711  0.4016  0.5648
  491SOL    HW1 1472   1.369   2.964   0.350 -0.2404  0.5142 -1.4395
  491SOL    HW2 1473   1.321   2.865   0.218  2.5860 -1.9423 -3.1474
  492SOL     OW 1474   1.218   1.102   2.206  0.4965  0.4277  0.2079
  492SOL    HW1 1475   1.226   1.104   2.104  2.9702 -0.4981  0.0003
  492SOL    HW2 1476   1.130   1.056   2.234  0.6147 -2.1743 -1.0147
  493SOL     OW 1477   0.060   1.998   0.177  0.1115 -0.5124  0.5103
  493SOL    HW1 1478   3.098   1.939   0.139  1.1912  0.5573 -0.6321
  493SOL    HW2 1479   0.148   1.944   0.199  1.5085 -2.3685  2.6236
  494SOL     OW 1480   2.037   1.417   0.321  0.1545  0.2108 -0.0338
  494SOL    HW1 1481   2.095   1.470   0.253  1.3659 -0.5013 -0.8652
  494SOL    HW2 1482   1.972   1.349   0.270 -0.0709 -1.9176  0.5223
  495SOL     OW 1483   0.140   0.908   2.836  0.2691 -0.9964 -0.6536
  495SOL    HW1 1484   0.158   0.861   2.747 -2.4035  0.0779  0.9657
  495SOL    HW2 1485   0.041   0.924   2.846 -2.5088  2.9239 -0.7058
  496SOL     OW 1486   2.917   3.042   2.074 -0.6319  0.9800 -0.5315
  496SOL    HW1 1487   3.015   3.046   2.092 -0.6754  2.3823  0.8571
  496SOL    HW2 1488   2.876   3.111   2.137  0.5617 -0.1325  0.5127
  497SOL     OW 1489   2.601   0.887   0.828  0.3126 -0.0243 -0.6988
  497SOL    HW1 1490   2.515   0.842   0.870 -3.1161 -1.4466  1.1431
  497SOL    HW2 1491   2.571   0.922   0.737  0.9480 -1.6577  2.8997
  498SOL     OW 1492   0.412   2.248   0.006  0.4891 -0.1953 -0.2799
  498SOL    HW1 1493   0.456   2.155   0.015 -0.0223  0.2274  0.9034
  498SOL    HW2 1494   0.450   2.304   0.082 -0.6609 -0.3266  0.6325
  499SOL     OW 1495   1.067   2.394   0.688 -0.0572  0.1469 -0.2723
  499SOL    HW1 1496   0.998   2.367   0.759 -0.8284  0.2087  0.3916
  499SOL    HW2 1497   1.073   2.315   0.623 -0.2426 -2.7547  1.1631
  500SOL     OW 1498   0.908   0.315   2.561  0.0141 -0.4490  0.3512
  500SOL    HW1 1499   0.920   0.230   2.609  0.4917  3.0428 -1.1202
  500SOL    HW2 1500   0.913   0.293   2.465  1.1301 -1.3393  2.6900
  501SOL     OW 1501   1.060   0.009   1.377  0.7245  0.6322 -0.2809
  501SOL    HW1 1502   1.144   3.063   1.360 -0.3557 -2.5517 -0.5003
  501SOL    HW2 1503   1.023   0.001   1.472  1.8864 -0.4624  2.0966
  502SOL     OW 1504   0.007   0.292   2.044  0.4714 -0.5493  0.4662
  502SOL    HW1 1505   0.008   0.213   1.979  1.2147  1.5231  1.3037
  502SOL    HW2 1506   0.073   0.277   2.121  1.6730 -1.9028 -0.5959
  503SOL     OW 1507   1.907   2.347   2.359 -0.0020 -0.2490  0.1034
  503SOL    HW1 1508   1.898   2.401   2.445 -1.0661 -0.0488  1.8370
  503SOL    HW2 1509   1.874   2.251   2.373 -4.4343 -1.7028 -0.9840
  504SOL     OW 1510   1.872   0.543   1.851 -0.5454 -0.1930 -0.5889
  504SOL    HW1 1511   1.854   0.635   1.891  2.5748 -2.4022  3.9748
  504SOL    HW2 1512   1.951   0.547   1.784  1.3276  0.6597 -2.9606
  505SOL     OW 1513   2.858   1.144   1.825 -0.1120 -0.5177 -0.0916
  505SOL    HW1 1514   2.874   1.106   1.728 -1.4906 -1.0445 -1.5849
  505SOL    HW2 1515   2.770   1.191   1.820  0.5987 -4.2082 -0.5037
  506SOL     OW 1516   0.310   1.464   2.480  0.0980 -0.3050  0.1429
  506SOL    HW1 1517   0.224   1.419   2.459  2.1652 -1.5701 -2.1090
  506SOL    HW2 1518   0.389   1.450   2.413 -0.6981 -1.6377 -3.2679
  507SOL     OW 1519   0.268   2.890   2.192 -0.1492  0.2602  0.0756
  507SOL    HW1 1520   0.366   2.911   2.216  0.0392 -0.5724  1.8059
  507SOL    HW2 1521   0.221   2.856   2.273 -1.7682  0.4777  0.4350
  508SOL     OW 1522   1.340   0.781   1.581 -0.4130 -0.2713  0.1613
  508SOL    HW1 1523   1.314   0.867   1.531 -1.2092 -0.1126 -1.0479
  508SOL    HW2 1524   1.432   0.792   1.617 -1.6886 -1.0461 -0.0154
  509SOL     OW 1525   0.905   1.846   1.240 -0.7954  0.3011 -0.0619
  509SOL    HW1 1526   0.952   1.901   1.313  0.1925 -2.2559 -1.1876
  509SOL    HW2 1527   0.858   1.777   1.299  1.3083  2.6221 -1.2237
  510SOL     OW 1528   2.579   1.012   2.617  0.5184 -0.6093  0.0327
  510SOL    HW1 1529   2.591   1.049   2.712 -1.3082 -0.7334  1.5887
  510SOL    HW2 1530   2.547   0.915   2.610  2.2262  1.7088 -0.3169
  511SOL     OW 1531   0.553   1.195   1.195 -0.2060  0.1074 -0.5241
  511SOL    HW1 1532   0.453   1.212   1.202  0.8498  1.5002 -1.4767
  511SOL    HW2 1533   0.578   1.209   1.096  1.0454 -1.1570 -0.0764
  512SOL     OW 1534   2.925   2.287   0.658 -0.5841  0.1614  0.3865
  512SOL    HW1 1535   3.012   2.239   0.685  2.6997  0.3437  0.7181
  512SOL    HW2 1536   2.851   2.268   0.731 -1.7056 -1.8413  1.4686
  513SOL     OW 1537   0.460   1.397   2.980  0.3354 -0.2660 -0.4878
  513SOL    HW1 1538   0.468   1.298   3.008  0.2049 -0.3205  0.9976
  513SOL    HW2 1539   0.420   1.405   2.887  2.2946  0.7620  2.6605
  514SOL     OW 1540   0.075   2.449   3.052  0.7400 -0.3773 -0.1051
  514SOL    HW1 1541   0.016   2.520   3.010  3.2644  0.0451  2.3222
  514SOL    HW2 1542   0.133   2.401   2.981 -0.9238  0.3854  0.5274
  515SOL     OW 1543   1.523   1.011   2.299  0.3724 -0.3884  0.0765
  515SOL    HW1 1544   1.439   1.064   2.266  0.0698  1.4898  0.2271
  515SOL    HW2 1545   1.569   1.055   2.380  0.2544 -2.9455  0.2600
  516SOL     OW 1546   2.295   2.232   0.557 -0.2450 -0.0335  0.7241
  516SOL    HW1 1547   2.373   2.250   0.618  1.4321  0.6149 -1.9483
  516SOL    HW2 1548   2.325   2.172   0.480  0.2611 -1.4887 -0.4387
  517SOL     OW 1549   1.469   1.125   0.495  0.0934 -0.1378 -0.2582
  517SOL    HW1 1550   1.436   1.084   0.584 -1.6591 -0.1191 -0.9140
  517SOL    HW2 1551   1.532   1.207   0.508  4.5200  2.1420 -0.4344
  518SOL     OW 1552   2.250   2.526   2.204  0.6789 -0.0451  0.2058
  518SOL    HW1 1553   2.156   2.570   2.222  0.8877 -0.5315  0.7016
  518SOL    HW2 1554   2.286   2.504   2.294  0.1932  0.4289 -0.3212
  519SOL     OW 1555   1.770   2.326   1.375  0.2558  0.5120 -0.4146
  519SOL    HW1 1556   1.864   2.369   1.374  0.1177  1.0798 -1.0051
  519SOL    HW2 1557   1.702   2.400   1.378 -0.2243 -2.5090 -2.3703
  520SOL     OW 1558   2.503   2.462   2.657  0.1535  0.2564 -0.5100
  520SOL    HW1 1559   2.587   2.504   2.612  0.5873  0.6237 -0.5195
  520SOL    HW2 1560   2.445   2.416   2.589 -0.9941  1.7639 -0.9425
  521SOL     OW 1561   0.370   1.383   2.082 -1.0699  0.1486  0.3835
  521SOL    HW1 1562   0.419   1.401   1.989 -0.3829  0.9818 -1.1028
  521SOL    HW2 1563   0.270   1.400   2.080  1.8011  0.4842  0.2057
  522SOL     OW 1564   1.143   0.376   2.038  0.0925  0.4905 -0.0431
  522SOL    HW1 1565   1.091   0.408   1.957  2.0288 -3.1537  1.6542
  522SOL    HW2 1566   1.173   0.279   2.026 -5.0658  1.4714  0.7054
  523SOL     OW 1567   0.632   2.360   0.916 -0.2887 -0.4597  0.0504
  523SOL    HW1 1568   0.607   2.262   0.926 -0.7445  0.1483  1.1169
  523SOL    HW2 1569   0.556   2.409   0.874  0.1507  0.2461  1.2477
  524SOL     OW 1570   1.671   2.712   0.584  0.4318 -0.2062  0.2076
  524SOL    HW1 1571   1.764   2.755   0.566  0.0202  2.8803  0.8385
  524SOL    HW2 1572   1.610   2.778   0.627  1.9036 -0.1810 -1.1895
  525SOL     OW 1573   2.350   0.930   1.546  0.3872  0.5292 -0.6717
  525SOL    HW1 1574   2.341   0.996   1.470 -1.1404 -0.4602 -1.6949
  525SOL    HW2 1575   2.348   0.977   1.637  0.4308 -1.7602  0.7522
  526SOL     OW 1576   0.975   2.646   0.691  0.3485  0.4324  0.3740
  526SOL    HW1 1577   1.019   2.555   0.683 -0.8504 -0.6466  1.2463
  526SOL    HW2 1578   0.979   2.695   0.603 -1.5862 -2.2996 -0.3373
  527SOL     OW 1579   2.800   2.203   0.424  0.2033 -0.1292 -1.2502
  527SOL    HW1 1580   2.854   2.206   0.512 -2.1025  2.1361  1.8937
  527SOL    HW2 1581   2.849   2.254   0.350  1.1581  0.6389 -0.8920
  528SOL     OW 1582   2.128   0.155   0.420  0.0491  0.3273 -0.0725
  528SOL    HW1 1583   2.134   0.103   0.327  0.8319  0.5294 -3.0048
  528SOL    HW2 1584   2.079   0.097   0.490 -0.6680  0.0246  1.0689
  529SOL     OW 1585   1.509   1.527   2.401  0.1391  0.3523  0.2989
  529SOL    HW1 1586   1.482   1.619   2.439  1.1010 -1.5431  0.7165
  529SOL    HW2 1587   1.468   1.512   2.307 -1.2602  0.2478 -2.3569
  530SOL     OW 1588   2.401   0.619   2.922  0.5683 -0.1384 -0.2369
  530SOL    HW1 1589   2.468   0.551   2.961 -2.0426 -0.4478  0.2906
  530SOL    HW2 1590   2.446   0.702   2.882 -1.5513 -0.4751 -0.9273
  531SOL     OW 1591   1.348   0.984   3.054 -0.3235 -0.0856 -0.1198
  531SOL    HW1 1592   1.284   1.053   3.090  0.8913 -0.2902 -1.8824
  531SOL    HW2 1593   1.289   0.906   3.013 -1.9756 -1.3897 -4.0388
  532SOL     OW 1594   1.694   0.484   0.950  0.2970  0.5836 -0.3538
  532SOL    HW1 1595   1.674   0.572   0.999 -0.3436 -0.7483  0.9644
  532SOL    HW2 1596   1.613   0.457   0.893  0.2972  0.1982 -4.5840
  533SOL     OW 1597   0.960   0.898   2.027  0.0625 -0.5903 -0.4472
  533SOL    HW1 1598   0.979   0.936   2.125 -2.3521  1.1379  4.6295
  533SOL    HW2 1599   1.052   0.893   1.976 -3.0215  1.1001  1.1356
  534SOL     OW 1600   1.492   0.316   2.597  0.0410  0.6352 -0.2633
  534SOL    HW1 1601   1.441   0.322   2.689  0.0757  1.3671  1.0415
  534SOL    HW2 1602   1.593   0.324   2.618  3.0324 -1.8826  3.3106
  535SOL     OW 1603   0.335   0.482   0.426  0.2430  0.0188  0.0544
  535SOL    HW1 1604   0.367   0.476   0.328  0.3937 -1.0510  2.1294
  535SOL    HW2 1605   0.261   0.412   0.444  0.7007 -3.7383 -0.5009
  536SOL     OW 1606   1.053   0.188   0.468 -0.4712  0.1060 -0.1386
  536SOL    HW1 1607   1.147   0.171   0.434  2.9155  1.9744 -0.2195
  536SOL    HW2 1608   1.056   0.199   0.572  0.6179  1.4177  1.8813
  537SOL     OW 1609   1.693   1.161   0.889 -0.0146 -0.1413  0.1187
  537SOL    HW1 1610   1.693   1.252   0.925  0.3485  1.0025  1.2025
  537SOL    HW2 1611   1.595   1.136   0.873 -2.0626 -0.4358 -2.4471
  538SOL     OW 1612   3.085   2.142   3.064 -0.1582 -0.0769  0.0480
  538SOL    HW1 1613   0.014   2.082   0.026  0.2829  0.0795  0.0403
  538SOL    HW2 1614   0.044   2.204   3.026  1.0010  1.2835 -0.6357
  539SOL     OW 1615   2.335   1.757   0.243  0.5434  0.0069  0.1127
  539SOL    HW1 1616   2.383   1.792   0.164 -2.4448  0.7927  1.0310
  539SOL    HW2 1617   2.399   1.714   0.310  1.0086 -0.8955 -1.3657
  540SOL     OW 1618   0.413   2.719   1.422 -0.2764 -0.1488  0.1929
  540SOL    HW1 1619   0.382   2.650   1.354  2.2364  2.3762 -2.0082
  540SOL    HW2 1620   0.341   2.765   1.473  1.9059 -2.6821 -1.0750
  541SOL     OW 1621   2.063   3.071   2.232 -0.1623 -0.3608  0.0359
  541SOL    HW1 1622   2.123   2.995   2.266  0.2367 -0.6345  1.3256
  541SOL    HW2 1623   1.971   3.042   2.264 -1.4153 -1.6760 -0.0713
  542SOL     OW 1624   2.686   0.375   2.599  0.2590 -0.1718  0.0481
  542SOL    HW1 1625   2.775   0.397   2.547 -0.6645  1.8676  0.7261
  542SOL    HW2 1626   2.606   0.419   2.553 -0.1788  0.9222 -0.2769
  543SOL     OW 1627   0.039   1.029   0.572 -0.0743 -0.1301  0.1702
  543SOL    HW1 1628   0.132   0.994   0.536  2.4385 -0.9508  0.6177
  543SOL    HW2 1629   3.089   0.952   0.589 -2.7190  1.3281 -4.4484
  544SOL     OW 1630   3.108   3.067   1.220  0.3328  0.3351 -0.6538
  544SOL    HW1 1631   3.059   3.075   1.128  2.8208  1.8353 -1.2964
  544SOL    HW2 1632   3.067   2.992   1.283 -1.8577  0.0833  1.4626
  545SOL     OW 1633   1.562   2.239   0.685 -0.1248  0.1949 -0.4349
  545SOL    HW1 1634   1.586   2.318   0.626 -2.4767  0.6499 -0.2769
  545SOL    HW2 1635   1.605   2.155   0.648  0.7627 -0.2068 -3.0847
  546SOL     OW 1636   1.918   2.958   1.880  0.6595  0.4578 -0.2920
  546SOL    HW1 1637   1.983   2.896   1.928 -0.4357  1.5938 -0.5154
  546SOL    HW2 1638   1.959   3.049   1.859  1.0234  1.3384  0.3546
  547SOL     OW 1639   0.251   0.181   2.205  0.9235  0.1597  0.0160
  547SOL    HW1 1640   0.329   0.149   2.147  1.7332 -0.4243 -1.2201
  547SOL    HW2 1641   0.260   0.281   2.235  1.0245  1.4310 -0.6713
  548SOL     OW 1642   1.987   1.571   2.890  0.3700 -0.1847  0.1470
  548SOL    HW1 1643   1.973   1.668   2.915  0.5700 -0.4746  1.3592
  548SOL    HW2 1644   1.957   1.547   2.795  0.2777 -0.1057 -0.5016
  549SOL     OW 1645   2.964   0.793   0.613 -0.5065 -0.3631  0.2071
  549SOL    HW1 1646   2.921   0.801   0.522  1.8667 -0.3116  0.2581
  549SOL    HW2 1647   2.932   0.853   0.686 -1.5921 -3.0252 -3.9496
  550SOL     OW 1648   1.841   2.011   0.616 -0.1081 -0.2149 -0.0135
  550SOL    HW1 1649   1.753   2.004   0.564  0.9703  0.2747 -1.9973
  550SOL    HW2 1650   1.881   2.103   0.593  0.9565  1.0943  0.8093
  551SOL     OW 1651   1.282   0.485   0.986 -0.3477  0.2333 -0.4611
  551SOL    HW1 1652   1.190   0.468   0.947  1.3068  0.0328 -0.0287
  551SOL    HW2 1653   1.357   0.473   0.920 -1.5324  1.1564  4.5257
  552SOL     OW 1654   2.589   2.666   2.285 -0.3484  0.1150  0.4377
  552SOL    HW1 1655   2.655   2.720   2.232 -1.8285  0.6498 -2.8918
  552SOL    HW2 1656   2.538   2.731   2.341  1.7506  0.7155  0.5649
  553SOL     OW 1657   3.098   2.893   2.551  0.1405  0.4479  0.5319
  553SOL    HW1 1658   3.102   2.993   2.526 -2.7140 -0.6696  0.0189
  553SOL    HW2 1659   3.012   2.849   2.521  2.3444  1.2234  2.1537
  554SOL     OW 1660   1.032   2.897   1.053  0.0493 -0.3533 -0.6840
  554SOL    HW1 1661   0.972   2.933   1.127  2.2176 -1.3741  0.2838
  554SOL    HW2 1662   1.100   2.831   1.089 -1.2944 -1.1536  1.6554
  555SOL     OW 1663   2.434   2.496   1.986 -0.0169 -0.1720  0.2872
  555SOL    HW1 1664   2.490   2.580   1.977 -1.6990 -2.0328 -1.3770
  555SOL    HW2 1665   2.364   2.511   2.059 -0.0746 -0.8092  2.7471
  556SOL     OW 1666   1.064   0.105   2.776  0.4030  0.6187  0.2499
  556SOL    HW1 1667   1.152   0.154   2.778 -1.7464 -3.5680  1.6192
  556SOL    HW2 1668   1.046   0.064   2.680  1.8824 -0.0540 -2.6095
  557SOL     OW 1669   0.149   1.948   2.343  0.1779  0.9363  0.1910
  557SOL    HW1 1670   0.130   2.028   2.404 -0.9358  0.6330  1.3634
  557SOL    HW2 1671   0.187   1.871   2.401  2.2849  0.2695 -0.5212
  558SOL     OW 1672   2.199   1.035   2.423  0.0035  0.0306  0.9732
  558SOL    HW1 1673   2.237   0.964   2.355  2.6262 -2.5625 -0.6722
  558SOL    HW2 1674   2.257   1.118   2.417 -0.0286 -1.7125 -0.2110
  559SOL     OW 1675   2.583   2.295   2.089  0.2952  0.8611  0.3166
  559SOL    HW1 1676   2.594   2.340   2.174 -1.8691 -1.9091 -0.0239
  559SOL    HW2 1677   2.549   2.359   2.017  1.2648  1.1097 -1.4900
  560SOL     OW 1678   2.733   1.011   2.366 -0.7928  0.4164  0.4837
  560SOL    HW1 1679   2.697   1.028   2.461  3.0910 -1.6830  3.5801
  560SOL    HW2 1680   2.831   0.975   2.366 -1.4520 -0.0805 -2.3664
  561SOL     OW 1681   0.520   0.477   0.629  0.2909 -1.0086  0.2802
  561SOL    HW1 1682   0.620   0.501   0.607  2.4960  1.1463 -0.7389
  561SOL    HW2 1683   0.464   0.473   0.538 -0.5274  0.8874 -2.6231
  562SOL     OW 1684   1.104   1.356   1.353 -0.0271  0.2355  0.1108
  562SOL    HW1 1685   1.068   1.393   1.442  1.1541  3.4977 -1.1834
  562SOL    HW2 1686   1.053   1.271   1.326  0.3989  0.5771 -0.4497
  563SOL     OW 1687   1.659   2.856   3.067 -0.4635  0.6621 -0.2561
  563SOL    HW1 1688   1.659   2.887   0.052  1.7165  1.0897 -0.2484
  563SOL    HW2 1689   1.566   2.858   3.026 -2.4051 -0.3695 -2.5072
  564SOL     OW 1690   0.229   2.179   0.916  0.2321  0.3916 -0.0309
  564SOL    HW1 1691   0.199   2.214   1.009  1.7017  1.0790 -0.7754
  564SOL    HW2 1692   0.330   2.153   0.912  1.1266 -0.0525  0.1975
  565SOL     OW 1693   0.700   2.253   2.187  0.1395 -0.9050 -0.1077
  565SOL    HW1 1694   0.670   2.158   2.171  2.4791 -0.7643  0.1147
  565SOL    HW2 1695   0.621   2.318   2.185 -1.0310 -0.1667  0.1858
  566SOL     OW 1696   1.121   2.612   2.428  0.5667  0.5355  0.0381
  566SOL    HW1 1697   1.123   2.682   2.503  1.5957 -0.1689  0.5876
  566SOL    HW2 1698   1.128   2.665   2.338 -0.3005  0.9917  0.9973
  567SOL     OW 1699   2.463   2.323   1.018  0.0416 -0.4439 -0.2804
  567SOL    HW1 1700   2.533   2.267   1.071  0.5017 -0.4077  1.0524
  567SOL    HW2 1701   2.374   2.268   1.017 -2.4680 -0.1697  2.4509
  568SOL     OW 1702   1.996   0.526   0.349  0.2514 -0.2074  0.4587
  568SOL    HW1 1703   1.986   0.629   0.371 -0.9824  6.2965 -0.8204
  568SOL    HW2 1704   1.977   0.473   0.435  1.5806 -2.2754  0.3678
  569SOL     OW 1705   0.005   1.659   2.680  0.0317 -0.1500  0.1051
  569SOL    HW1 1706   3.028   1.626   2.646 -1.0506 -0.1627  1.0188
  569SOL    HW2 1707   0.020   1.609   2.770  0.7666  2.1167 -1.1651
  570SOL     OW 1708   0.174   0.138   1.138  0.4997 -0.1493 -0.0971
  570SOL    HW1 1709   0.146   0.218   1.078  0.0804  0.4650 -0.2112
  570SOL    HW2 1710   0.096   0.075   1.150  3.3260  0.5271  2.3142
  571SOL     OW 1711   2.934   0.578   1.438  0.2086 -0.0192  0.7590
  571SOL    HW1 1712   2.990   0.662   1.412  0.1726 -0.9786  0.2966
  571SOL    HW2 1713   2.834   0.601   1.445 -0.2070 -1.5533 -2.7530
  572SOL     OW 1714   0.109   2.772   0.885  0.3473 -0.0469  0.0273
  572SOL    HW1 1715   0.194   2.805   0.928 -0.3578  1.1113 -0.1435
  572SOL    HW2 1716   0.115   2.755   0.784 -0.5212  2.2439 -1.9364
  573SOL     OW 1717   0.832   0.687   0.032 -0.4049 -0.1641  0.1475
  573SOL    HW1 1718   0.840   0.586   0.059 -1.6934 -0.7661  0.7610
  573SOL    HW2 1719   0.744   0.701   3.091 -1.2321  2.2528 -2.0071
  574SOL     OW 1720   2.847   2.515   3.085  0.3275  0.0959  0.0717
  574SOL    HW1 1721   2.784   2.547   3.014  0.2918 -0.8999  3.7786
  574SOL    HW2 1722   2.877   2.596   0.029  0.5583 -0.0279  1.2520
  575SOL     OW 1723   1.189   2.045   1.187  0.2360 -0.6100  0.0189
  575SOL    HW1 1724   1.136   2.020   1.103  0.0317  0.8159 -1.6583
  575SOL    HW2 1725   1.252   2.128   1.170 -1.5784 -3.4351  0.4935
  576SOL     OW 1726   0.666   2.742   1.101  0.1213 -0.3184  0.1025
  576SOL    HW1 1727   0.669   2.803   1.180  2.0513  2.6425 -0.8138
  576SOL    HW2 1728   0.739   2.767   1.033 -1.4886  0.1222 -0.0595
  577SOL     OW 1729   2.115   1.634   1.280 -0.0395 -0.1621 -0.1372
  577SOL    HW1 1730   2.093   1.727   1.246  2.2346 -0.5016 -0.5399
  577SOL    HW2 1731   2.180   1.580   1.219 -0.6372  3.1779  1.0457
  578SOL     OW 1732   1.685   0.366   0.476  0.3908 -0.0151 -0.3029
  578SOL    HW1 1733   1.628   0.444   0.509 -0.7562  0.7673 -3.1893
  578SOL    HW2 1734   1.779   0.371   0.518 -2.1597 -0.1746  0.0790
  579SOL     OW 1735   2.674   1.394   2.604  0.1230  0.4205  0.1936
  579SOL    HW1 1736   2.635   1.484   2.643  0.5502  1.3061 -0.3094
  579SOL    HW2 1737   2.602   1.340   2.558  4.2278  0.1567  0.3037
  580SOL     OW 1738   1.571   0.787   1.700 -0.1279  0.2213  0.0323
  580SOL    HW1 1739   1.578   0.844   1.787  0.2334  0.8209  1.9510
  580SOL    HW2 1740   1.611   0.693   1.711  0.0579 -1.1903  0.4876
  581SOL     OW 1741   0.956   1.148   1.323  0.6048 -0.3799 -0.0457
  581SOL    HW1 1742   0.856   1.133   1.321  3.5411 -2.0099  0.3577
  581SOL    HW2 1743   0.998   1.087   1.254 -3.3413 -2.9208  1.4065
  582SOL     OW 1744   2.796   0.134   2.248 -0.3418  0.0972 -0.3012
  582SOL    HW1 1745   2.701   0.160   2.274  1.1353 -0.3455  0.3670
  582SOL    HW2 1746   2.852   0.212   2.218  2.1101 -1.0689 -1.8644
  583SOL     OW 1747   2.524   0.659   2.056 -0.2188 -0.1475 -0.0265
  583SOL    HW1 1748   2.433   0.652   1.999 -2.6209 -0.6962 -1.8820
  583SOL    HW2 1749   2.590   0.596   2.017 -0.4662  1.6054  0.8481
  584SOL     OW 1750   1.403   1.809   2.856  0.2528 -0.8711  0.4259
  584SOL    HW1 1751   1.462   1.841   2.931  1.1754  1.9464 -0.7904
  584SOL    HW2 1752   1.459   1.759   2.788  0.5803 -0.6408  2.0053
  585SOL     OW 1753   0.223   0.126   0.337 -0.2452  0.4917 -0.3726
  585SOL    HW1 1754   0.146   0.063   0.330 -0.4826  1.7072 -0.5657
  585SOL    HW2 1755   0.263   0.153   0.248 -0.0557  1.8367  0.5214
  586SOL     OW 1756   1.614   2.240   2.524  0.3546 -0.3789  0.2135
  586SOL    HW1 1757   1.551   2.256   2.598 -1.5099 -2.7628 -1.8365
  586SOL    HW2 1758   1.594   2.143   2.495 -1.0993 -1.7046 -1.1192
  587SOL     OW 1759   2.596   2.382   0.353  0.6353 -0.7017  0.3707
  587SOL    HW1 1760   2.584   2.457   0.419  0.2147 -2.5701 -0.5277
  587SOL    HW2 1761   2.657   2.308   0.394  1.7245 -0.9619 -1.2961
  588SOL     OW 1762   2.607   0.169   1.046 -0.5393 -0.4136  0.5033
  588SOL    HW1 1763   2.671   0.239   1.090  0.7641  2.1127  2.2494
  588SOL    HW2 1764   2.525   0.137   1.099  1.5363 -0.7521  0.1430
  589SOL     OW 1765   0.459   0.669   0.848  0.3954  0.0421  0.1616
  589SOL    HW1 1766   0.562   0.668   0.853 -0.3815 -1.9319  2.6433
  589SOL    HW2 1767   0.427   0.605   0.771 -3.7219 -0.7391  0.5447
  590SOL     OW 1768   2.215   1.790   0.785 -0.0862 -0.6050 -0.0965
  590SOL    HW1 1769   2.300   1.748   0.821 -2.2428  1.2648 -1.3756
  590SOL    HW2 1770   2.192   1.736   0.702  1.2308 -0.6501  1.9772
  591SOL     OW 1771   0.635   2.489   1.157 -0.4220 -0.3714 -0.6450
  591SOL    HW1 1772   0.646   2.424   1.080  0.7079  1.8034  0.9329
  591SOL    HW2 1773   0.637   2.584   1.115 -0.2583 -0.6849 -0.3454
  592SOL     OW 1774   1.090   0.766   1.206  0.0302  0.3635 -0.9332
  592SOL    HW1 1775   1.127   0.719   1.291  1.5392 -2.5859  0.4245
  592SOL    HW2 1776   0.986   0.761   1.188  1.7876  0.0523 -0.0197
  593SOL     OW 1777   0.884   1.173   0.966  0.1898 -0.1975 -0.0350
  593SOL    HW1 1778   0.943   1.249   0.928  0.6848 -2.0055  1.7020
  593SOL    HW2 1779   0.932   1.115   1.036  0.6047 -3.3886 -2.9519
  594SOL     OW 1780   1.029   2.029   0.280  0.4173 -0.0449 -0.1549
  594SOL    HW1 1781   0.942   2.044   0.230 -0.0327 -1.2230 -1.3385
  594SOL    HW2 1782   1.026   1.950   0.349 -0.3290 -0.8230  3.0697
  595SOL     OW 1783   1.531   0.231   1.147  0.2594 -0.2175 -0.2279
  595SOL    HW1 1784   1.632   0.212   1.125  2.9067 -4.0384 -2.2490
  595SOL    HW2 1785   1.507   0.328   1.169  0.0920  2.1654  0.3679
  596SOL     OW 1786   0.009   1.606   0.893 -0.2578  0.5110  0.8361
  596SOL    HW1 1787   3.096   1.590   0.991  0.6416  0.2532  0.5529
  596SOL    HW2 1788   0.101   1.659   0.893  3.0750  0.7628 -1.2153
  597SOL     OW 1789   0.286   2.526   2.809 -0.2841 -0.3204  0.4687
  597SOL    HW1 1790   0.370   2.481   2.847 -0.1634  1.0311 -2.8283
  597SOL    HW2 1791   0.251   2.596   2.878 -1.2839  1.6556 -1.1339
  598SOL     OW 1792   2.786   2.541   1.954 -0.2048 -0.0280 -0.2779
  598SOL    HW1 1793   2.861   2.502   2.011 -1.3035  0.3607  1.8017
  598SOL    HW2 1794   2.760   2.485   1.878  2.0484  0.4746  0.8156
  599SOL     OW 1795   0.873   0.387   0.001  0.4130 -0.0113  0.3695
  599SOL    HW1 1796   0.796   0.404   0.067 -2.1629 -2.7340 -1.7724
  599SOL    HW2 1797   0.867   0.287   3.078  0.2297 -0.7812 -0.6192
  600SOL     OW 1798   0.612   2.576   0.074 -0.2742 -0.3830 -0.2240
  600SOL    HW1 1799   0.620   2.665   0.117  1.5478 -1.5907 -1.0660
  600SOL    HW2 1800   0.544   2.519   0.128  1.3690  1.7945 -1.7202
  601SOL     OW 1801   0.362   0.875   1.406  0.5031  0.2377 -0.4890
  601SOL    HW1 1802   0.428   0.851   1.332 -2.2886 -1.6223 -0.4518
  601SOL    HW2 1803   0.395   0.826   1.485  0.9430  0.2862 -1.4299
  602SOL     OW 1804   0.862   2.773   0.892  0.2161  0.1932 -0.4499
  602SOL    HW1 1805   0.904   2.699   0.830 -0.4070  0.4607 -0.5613
  602SOL    HW2 1806   0.934   2.831   0.944  3.5855  0.4179  0.1501
  603SOL     OW 1807   0.768   0.221   2.216 -0.1384  0.2699 -0.0979
  603SOL    HW1 1808   0.725   0.162   2.286 -0.2091  2.7539  1.0411
  603SOL    HW2 1809   0.704   0.262   2.148  0.7855  1.2353  1.2143
  604SOL     OW 1810   0.821   2.700   1.703  0.3762  0.2591 -0.1484
  604SOL    HW1 1811   0.793   2.796   1.685 -0.7148  0.2965 -0.3618
  604SOL    HW2 1812   0.753   2.639   1.662  1.1805  1.8669  0.1663
  605SOL     OW 1813   1.558   0.883   1.974  0.1799  0.1159  0.0063
  605SOL    HW1 1814   1.659   0.875   1.961 -1.9204  0.0593  0.6600
  605SOL    HW2 1815   1.522   0.818   2.047 -2.6156 -0.2213  0.2594
  606SOL     OW 1816   2.431   2.745   2.896 -0.0905 -0.0620 -0.0166
  606SOL    HW1 1817   2.391   2.719   2.983  0.4594  0.1876 -0.6743
  606SOL    HW2 1818   2.457   2.843   2.889  0.6475 -0.8389  0.7973
  607SOL     OW 1819   0.839   0.774   1.210  0.2800  0.0581  0.5685
  607SOL    HW1 1820   0.777   0.835   1.158 -1.9691  1.2529 -3.9309
  607SOL    HW2 1821   0.810   0.768   1.310 -1.7610  1.0793  0.2513
  608SOL     OW 1822   0.407   1.933   2.557  0.3090 -0.5298 -0.0473
  608SOL    HW1 1823   0.385   2.011   2.499 -0.2189 -1.0902  4.3940
  608SOL    HW2 1824   0.338   1.857   2.545 -0.6209  1.8685 -0.7435
  609SOL     OW 1825   1.484   1.110   0.184  0.3607  0.0702 -0.0805
  609SOL    HW1 1826   1.451   1.087   0.277 -1.1409 -0.3801  0.6488
  609SOL    HW2 1827   1.413   1.092   0.114  0.8241 -0.3136  2.5923
  610SOL     OW 1828   0.439   0.492   1.386  0.4728  0.5592 -0.4207
  610SOL    HW1 1829   0.370   0.419   1.363  1.1790  3.1062 -0.9131
  610SOL    HW2 1830   0.479   0.533   1.304 -0.1586 -0.5720  1.5363
  611SOL     OW 1831   1.519   0.917   1.034 -0.5554 -0.0417  0.0751
  611SOL    HW1 1832   1.431   0.868   1.032 -0.5383  2.8646  0.4897
  611SOL    HW2 1833   1.561   0.937   1.128  0.1021  1.1211  1.0512
  612SOL     OW 1834   1.729   1.069   0.091  0.0825 -0.1057 -0.3531
  612SOL    HW1 1835   1.636   1.053   0.132 -0.5534 -3.7136 -1.4226
  612SOL    HW2 1836   1.748   1.009   0.010  0.6441  0.5591  2.2181
  613SOL     OW 1837   2.278   0.391   0.410  0.0220 -0.2988 -0.5226
  613SOL    HW1 1838   2.242   0.297   0.405 -0.4096  0.1029  0.0336
  613SOL    HW2 1839   2.268   0.428   0.314  0.5375  1.8455 -5.2445
  614SOL     OW 1840   2.833   3.092   2.508  0.1880 -0.8497  0.6866
  614SOL    HW1 1841   2.846   0.035   2.419 -0.6516  0.2296 -0.9595
  614SOL    HW2 1842   2.853   0.045   2.585  0.0461 -1.4437  2.2590
  615SOL     OW 1843   0.807   1.896   0.980  0.7748  0.2184 -0.3355
  615SOL    HW1 1844   0.859   1.857   1.053 -0.8239 -0.0643 -2.5798
  615SOL    HW2 1845   0.703   1.891   1.001 -4.1142 -1.9578 -0.2489
  616SOL     OW 1846   1.657   1.427   2.609  0.5392 -0.3499  0.5744
  616SOL    HW1 1847   1.612   1.437   2.516  2.7471 -0.0996 -0.2367
  616SOL    HW2 1848   1.641   1.337   2.654  0.8089 -1.1640  1.6397
  617SOL     OW 1849   1.428   0.348   2.974  0.7343 -0.0195 -0.3961
  617SOL    HW1 1850   1.419   0.442   3.017 -1.7453  0.0478  2.1834
  617SOL    HW2 1851   1.528   0.331   2.968  1.3528  4.6401 -0.6621
  618SOL     OW 1852   1.295   2.189   2.493 -0.3608  0.1173  0.0463
  618SOL    HW1 1853   1.371   2.134   2.459 -1.8574  1.2708  0.2221
  618SOL    HW2 1854   1.299   2.173   2.596  0.1003 -1.8931  1.2435
  619SOL     OW 1855   2.607   1.477   0.838 -0.4009  0.2275  0.1289
  619SOL    HW1 1856   2.701   1.449   0.809 -0.3241  0.3676 -0.6052
  619SOL    HW2 1857   2.541   1.417   0.790  0.6032 -0.2266  0.5024
  620SOL     OW 1858   2.183   2.835   2.397 -1.0572  0.4646 -0.2315
  620SOL    HW1 1859   2.148   2.863   2.490  2.6613 -1.7143 -1.4742
  620SOL    HW2 1860   2.134   2.753   2.363  0.9704  2.9014 -2.7922
  621SOL     OW 1861   2.811   1.378   0.613 -0.3331 -0.8901 -0.3861
  621SOL    HW1 1862   2.783   1.313   0.685  0.4682  0.4380 -0.6713
  621SOL    HW2 1863   2.866   1.440   0.667  0.5973 -2.1928  1.0890
  622SOL     OW 1864   1.444   1.778   2.493  0.5317  0.3194  0.0370
  622SOL    HW1 1865   1.339   1.784   2.492  0.3134  0.0395 -0.5953
  622SOL    HW2 1866   1.476   1.740   2.582  0.3535 -2.4734  1.3346
  623SOL     OW 1867   0.358   2.630   2.562  0.3676 -0.6058 -0.4128
  623SOL    HW1 1868   0.363   2.553   2.492  0.9675 -0.6659  1.9542
  623SOL    HW2 1869   0.314   2.599   2.652  0.1466 -0.5065  2.9848
  624SOL     OW 1870   0.750   2.599   2.948  0.1285  0.2953  0.1611
  624SOL    HW1 1871   0.808   2.522   2.914  0.8606 -2.0772 -1.3353
  624SOL    HW2 1872   0.728   2.593   3.051 -0.5278  0.0801  1.1589
  625SOL     OW 1873   0.356   2.344   1.972 -0.7251  0.4365  0.1000
  625SOL    HW1 1874   0.377   2.381   1.883  0.4191  0.6650  2.1600
  625SOL    HW2 1875   0.259   2.344   2.000  2.9425  0.8145 -2.7186
  626SOL     OW 1876   0.084   0.057   3.102  0.1324 -0.5482  0.6658
  626SOL    HW1 1877   0.009   0.127   3.094  0.0998  1.8358 -0.2088
  626SOL    HW2 1878   0.096   0.006   3.014 -0.7612  1.8169 -0.8308
  627SOL     OW 1879   2.149   1.593   0.147 -0.0555  0.1270 -0.4586
  627SOL    HW1 1880   2.227   1.662   0.174 -0.1026 -1.0805  0.4798
  627SOL    HW2 1881   2.091   1.630   0.072 -0.1595  1.7287  0.5575
  628SOL     OW 1882   1.485   1.947   0.185  0.2882 -0.4430  0.3967
  628SOL    HW1 1883   1.485   1.867   0.248 -2.4675 -1.5312 -0.2327
  628SOL    HW2 1884   1.465   2.037   0.232  1.8038 -3.0573  3.0226
  629SOL     OW 1885   2.988   0.344   1.581  0.1671 -0.2459  0.0604
  629SOL    HW1 1886   3.021   0.391   1.669 -0.6939 -0.3920  1.2294
  629SOL    HW2 1887   2.943   0.422   1.526 -0.6578 -0.2587  2.0590
  630SOL     OW 1888   2.022   1.054   1.617 -0.3721 -0.2486 -0.9742
  630SOL    HW1 1889   2.054   1.050   1.520  0.4482  0.5402  3.9828
  630SOL    HW2 1890   2.056   0.967   1.658 -1.4584  1.2146 -1.3758
  631SOL     OW 1891   1.740   0.052   0.804 -0.4592  0.3336  0.5797
  631SOL    HW1 1892   1.680   3.093   0.843 -0.0251 -2.1050  1.0607
  631SOL    HW2 1893   1.768   0.114   0.882  0.4660  1.6123  2.3444
  632SOL     OW 1894   2.801   0.916   1.986 -0.5655  0.7817 -0.0510
  632SOL    HW1 1895   2.808   1.009   1.946 -1.4596  0.5502  1.2542
  632SOL    HW2 1896   2.720   0.914   2.049  0.0812  0.7792  0.7141
  633SOL     OW 1897   0.767   0.472   2.748 -0.0034  0.1014 -0.2926
  633SOL    HW1 1898   0.813   0.555   2.787 -2.2168  1.3027 -1.8690
  633SOL    HW2 1899   0.830   0.413   2.693 -0.9517  1.4720  0.9753
  634SOL     OW 1900   0.509   2.775   2.919 -0.0730  0.7616 -0.1356
  634SOL    HW1 1901   0.585   2.707   2.909 -2.2192 -1.0798  1.6027
  634SOL    HW2 1902   0.455   2.754   3.003  2.1486 -0.0349  1.9922
  635SOL     OW 1903   0.024   1.272   1.153  0.2536  0.0246 -0.1766
  635SOL    HW1 1904   0.029   1.374   1.158 -0.8531  3.0477  0.0371
  635SOL    HW2 1905   3.038   1.245   1.133 -4.2618 -0.5402 -2.2065
  636SOL     OW 1906   0.167   1.608   0.034 -0.2074  0.6704 -0.3429
  636SOL    HW1 1907   0.142   1.541   0.108 -1.1241  0.3785 -1.2037
  636SOL    HW2 1908   0.268   1.621   0.032  2.9286  1.6048  0.4586
  637SOL     OW 1909   0.167   2.473   0.199 -0.5781  0.6847  0.1404
  637SOL    HW1 1910   0.113   2.473   0.111  3.9276 -1.3903 -0.0694
  637SOL    HW2 1911   0.149   2.388   0.253  0.0305  0.4323 -2.3582
  638SOL     OW 1912   2.858   2.530   0.593 -0.0727 -0.1507  0.4614
  638SOL    HW1 1913   2.931   2.585   0.536 -0.1725 -0.8435  1.5861
  638SOL    HW2 1914   2.882   2.434   0.616 -0.1767  2.3090 -1.3411
  639SOL     OW 1915   1.261   0.928   0.234 -0.3440  0.0212 -0.1015
  639SOL    HW1 1916   1.191   0.871   0.194 -1.0781 -2.6281  3.3130
  639SOL    HW2 1917   1.234   1.023   0.236 -0.4329  0.9568 -0.6706
  640SOL     OW 1918   1.858   2.355   1.797  0.2859 -0.3119  0.4020
  640SOL    HW1 1919   1.787   2.302   1.747  1.8371 -1.7149 -0.3722
  640SOL    HW2 1920   1.907   2.423   1.736 -2.1012 -0.5112 -1.0840
  641SOL     OW 1921   2.955   3.104   0.566 -0.1803  0.5176  0.0852
  641SOL    HW1 1922   2.937   3.037   0.642 -2.6959  1.4571  0.2445
  641SOL    HW2 1923   2.872   0.059   0.561 -2.4565  0.2770  0.5082
  642SOL     OW 1924   1.187   0.862   1.896  0.5644  0.1739  0.0823
  642SOL    HW1 1925   1.265   0.922   1.922 -3.0936 -0.5211 -0.7734
  642SOL    HW2 1926   1.228   0.772   1.878 -0.7228  2.2819  1.0216
  643SOL     OW 1927   0.797   1.929   2.574  0.4052  0.0703  0.3891
  643SOL    HW1 1928   0.893   1.956   2.597 -0.4407  1.0255 -2.5691
  643SOL    HW2 1929   0.732   1.933   2.654  2.2894 -0.0896 -0.2444
  644SOL     OW 1930   1.251   2.563   2.744 -0.1688  0.1014 -0.1244
  644SOL    HW1 1931   1.230   2.486   2.686 -0.4429  0.3013 -0.2067
  644SOL    HW2 1932   1.183   2.636   2.726  1.3320 -1.3984  2.0422
  645SOL     OW 1933   1.492   1.281   1.800 -0.6574 -0.2709  0.2278
  645SOL    HW1 1934   1.576   1.263   1.860  2.6450  0.5085  3.6034
  645SOL    HW2 1935   1.493   1.230   1.715 -1.0995 -0.0655  0.7368
  646SOL     OW 1936   0.920   2.797   2.852  0.2602 -0.1264 -0.3331
  646SOL    HW1 1937   0.858   2.733   2.901 -0.7759  2.0965  0.4358
  646SOL    HW2 1938   0.856   2.863   2.803 -2.2177  1.6671  0.0306
  647SOL     OW 1939   1.023   2.995   0.456  0.3592  0.1413 -0.3171
  647SOL    HW1 1940   0.926   3.000   0.490 -0.5333 -1.7463 -0.2606
  647SOL    HW2 1941   1.068   3.083   0.432 -1.4367  1.6411 -1.5077
  648SOL     OW 1942   2.699   2.923   1.473  0.2341 -0.6813  0.4868
  648SOL    HW1 1943   2.646   2.923   1.387  2.3635  1.5319 -0.8676
  648SOL    HW2 1944   2.708   2.833   1.517 -0.7315 -0.5542  3.1545
  649SOL     OW 1945   0.869   2.365   2.856 -0.7344 -0.3869  0.0984
  649SOL    HW1 1946   0.968   2.356   2.831  2.1630 -2.9965  0.0770
  649SOL    HW2 1947   0.829   2.281   2.896 -1.1547 -0.4203  1.4370
  650SOL     OW 1948   2.403   2.079   2.097 -0.1258 -0.2107  0.1345
  650SOL    HW1 1949   2.355   2.064   2.183 -1.3098 -1.1506  3.4175
  650SOL    HW2 1950   2.454   2.165   2.089 -0.0085 -0.8568 -0.3603
  651SOL     OW 1951   2.967   2.436   2.147  0.5677 -0.2929 -0.0909
  651SOL    HW1 1952   3.031   2.494   2.198  1.0555 -0.6496  0.1751
  651SOL    HW2 1953   2.889   2.403   2.204  1.3891 -0.2598  0.5946
  652SOL     OW 1954   2.526   1.908   0.571 -0.2280  0.5384  0.5467
  652SOL    HW1 1955   2.561   1.958   0.652 -0.7122 -1.2984  3.7241
  652SOL    HW2 1956   2.508   1.980   0.500  0.3563 -0.1703  0.7694
  653SOL     OW 1957   2.668   0.982   1.084  0.4023  0.2000  0.3462
  653SOL    HW1 1958   2.630   0.956   0.995 -2.4338  2.3862  3.1127
  653SOL    HW2 1959   2.603   1.050   1.129  0.7184 -1.6885 -0.9928
  654SOL     OW 1960   0.903   0.145   2.984  0.3155 -0.2324  0.1203
  654SOL    HW1 1961   0.973   0.156   2.914  0.5500 -1.4070  0.2189
  654SOL    HW2 1962   0.833   0.076   2.951  0.7889  0.2555 -1.0351
  655SOL     OW 1963   1.003   0.212   1.154  0.5705 -0.3902 -0.3158
  655SOL    HW1 1964   1.035   0.190   1.249 -0.2418 -0.8557 -0.0282
  655SOL    HW2 1965   0.938   0.287   1.146 -0.5013  0.1211  0.7909
  656SOL     OW 1966   0.249   2.678   2.025 -0.8922  0.2287  0.0663
  656SOL    HW1 1967   0.281   2.697   1.932  1.4333  1.6579  2.5285
  656SOL    HW2 1968   0.258   2.772   2.068 -0.4998  3.5396 -0.8241
  657SOL     OW 1969   2.380   0.693   0.105  0.4261  0.0276 -0.1505
  657SOL    HW1 1970   2.407   0.615   0.171  2.5623 -4.5871  0.1191
  657SOL    HW2 1971   2.392   0.653   0.008  2.0403 -1.9231 -3.9107
  658SOL     OW 1972   2.014   1.833   0.993 -0.5864  0.0158  0.1043
  658SOL    HW1 1973   2.022   1.882   1.084 -0.7938 -1.7867  0.8753
  658SOL    HW2 1974   2.095   1.837   0.933  0.1030 -1.1264  1.1894
  659SOL     OW 1975   2.606   2.270   2.865  0.4647  0.3448  0.8003
  659SOL    HW1 1976   2.550   2.336   2.808 -2.5426  0.4336 -0.1207
  659SOL    HW2 1977   2.706   2.282   2.849 -2.8922  0.5081 -1.4691
  660SOL     OW 1978   1.451   0.086   0.032 -0.5921  0.5067 -0.5288
  660SOL    HW1 1979   1.410   0.168   3.095 -1.8669  0.1389 -0.3402
  660SOL    HW2 1980   1.536   0.122   0.078 -0.7881 -2.2299 -2.8020
  661SOL     OW 1981   2.233   0.192   0.009 -0.1528 -0.5059 -0.3680
  661SOL    HW1 1982   2.165   0.115   0.008  2.8048  0.2835 -1.0301
  661SOL    HW2 1983   2.315   0.164   3.072 -0.6461  3.5442 -0.8021
  662SOL     OW 1984   0.794   0.228   0.794  0.4483 -0.2407 -0.0053
  662SOL    HW1 1985   0.757   0.201   0.704  4.0677 -0.4196 -0.7766
  662SOL    HW2 1986   0.754   0.162   0.858 -1.5507  0.5328  0.1569
  663SOL     OW 1987   1.308   0.434   2.432  0.3810  0.1904 -0.4818
  663SOL    HW1 1988   1.329   0.481   2.343 -0.0416 -0.1777  1.3792
  663SOL    HW2 1989   1.395   0.418   2.484  4.2587  1.7829  3.7403
  664SOL     OW 1990   0.661   2.857   1.360  0.7174 -0.0182  0.3867
  664SOL    HW1 1991   0.676   2.888   1.456 -1.8363 -0.8492 -1.6128
  664SOL    HW2 1992   0.572   2.812   1.351  1.8460 -4.3428 -1.8453
  665SOL     OW 1993   0.871   2.270   1.820  0.3966 -0.3723  0.1049
  665SOL    HW1 1994   0.915   2.344   1.763  1.1632  2.4762 -1.4242
  665SOL    HW2 1995   0.866   2.306   1.918 -1.9174  2.5321  1.9125
  666SOL     OW 1996   0.285   0.002   2.583  0.2062 -0.2139 -0.6962
  666SOL    HW1 1997   0.323   3.016   2.573 -1.9164 -2.8177 -0.9283
  666SOL    HW2 1998   0.210   0.023   2.513 -0.3095  2.0536 -1.8596
  667SOL     OW 1999   1.720   1.843   1.449 -0.1033  0.2411 -0.1146
  667SOL    HW1 2000   1.757   1.758   1.402 -1.4983  0.6210 -2.4064
  667SOL    HW2 2001   1.783   1.862   1.527 -1.0051 -0.9751  0.1366
  668SOL     OW 2002   1.452   0.431   1.761  0.4172  0.0461  0.3894
  668SOL    HW1 2003   1.547   0.432   1.717 -2.3326 -1.6710  0.7121
  668SOL    HW2 2004   1.397   0.348   1.736 -0.6947  0.6464 -0.0610
  669SOL     OW 2005   2.686   2.640   1.176  0.4659  0.0931 -0.0915
  669SOL    HW1 2006   2.595   2.653   1.136 -2.3380  0.1983  4.4726
  669SOL    HW2 2007   2.760   2.703   1.138  0.5748  2.8430  0.4464
  670SOL     OW 2008   1.390   2.264   2.781  0.0789 -0.3060  0.3241
  670SOL    HW1 2009   1.371   2.196   2.857  1.9859 -2.2464  0.5323
  670SOL    HW2 2010   1.473   2.318   2.805 -1.3441 -2.2790 -0.4235
  671SOL     OW 2011   0.991   1.217   0.568 -0.1785 -0.1108 -0.1261
  671SOL    HW1 2012   0.890   1.243   0.584 -1.3369 -1.9995 -0.4781
  671SOL    HW2 2013   1.037   1.170   0.645  1.5455 -1.9436 -1.3532
  672SOL     OW 2014   2.988   1.153   2.522  0.1454  0.6212  0.4527
  672SOL    HW1 2015   2.943   1.166   2.612  1.6280  3.5379 -1.3852
  672SOL    HW2 2016   3.001   1.055   2.506  1.5838 -1.6772 -0.0583
  673SOL     OW 2017   2.758   2.113   1.406 -0.2587 -0.0915 -0.3938
  673SOL    HW1 2018   2.770   2.049   1.486  0.6480 -0.0437  2.6711
  673SOL    HW2 2019   2.655   2.136   1.395 -1.4182  0.1596 -0.4496
  674SOL     OW 2020   0.511   2.446   2.187 -0.4779 -1.0298  0.2042
  674SOL    HW1 2021   0.468   2.416   2.101  2.6984  1.4264  2.6193
  674SOL    HW2 2022   0.535   2.545   2.181  0.1603 -0.6807 -1.6080
  675SOL     OW 2023   0.786   0.824   1.484 -0.0937 -0.0646 -0.3975
  675SOL    HW1 2024   0.849   0.842   1.562 -1.5119  0.2474 -0.0953
  675SOL    HW2 2025   0.733   0.905   1.456 -0.6687 -0.1546 -0.9046
  676SOL     OW 2026   2.372   0.141   1.184 -0.9386 -0.1024 -0.2785
  676SOL    HW1 2027   2.325   0.064   1.134  2.5199  0.0837 -0.1167
  676SOL    HW2 2028   2.368   0.229   1.127 -2.6114  1.7969  0.2458
  677SOL     OW 2029   2.304   1.396   3.109  0.2113  0.1517  0.0348
  677SOL    HW1 2030   2.252   1.458   0.053  1.2907 -0.3070 -1.2020
  677SOL    HW2 2031   2.307   1.429   3.012 -0.5710 -0.9056  2.1932
  678SOL     OW 2032   2.842   1.202   1.075 -0.4283 -0.1578 -0.0987
  678SOL    HW1 2033   2.827   1.259   1.160  0.9142  0.1674 -1.3537
  678SOL    HW2 2034   2.807   1.107   1.084  0.8796  0.7203 -1.9214
  679SOL     OW 2035   2.579   0.446   3.019  0.3879  0.0319 -0.4165
  679SOL    HW1 2036   2.590   0.399   3.109  3.2286 -0.3988 -0.2954
  679SOL    HW2 2037   2.666   0.450   2.966 -0.6826 -4.0224  2.5896
  680SOL     OW 2038   0.195   1.906   1.846  0.0834  0.2809  0.0387
  680SOL    HW1 2039   0.152   1.980   1.901  1.6313 -0.6382  0.4450
  680SOL    HW2 2040   0.195   1.823   1.904 -0.8054 -1.2763 -0.9500
  681SOL     OW 2041   1.897   2.085   1.372 -0.8405  0.7790  0.3411
  681SOL    HW1 2042   1.898   2.026   1.454 -1.0617 -0.3422 -0.8839
  681SOL    HW2 2043   1.836   2.163   1.389  0.4691  2.3336 -0.3484
  682SOL     OW 2044   0.421   1.632   0.012  0.9852 -0.3736  0.1423
  682SOL    HW1 2045   0.464   1.718   3.092  0.9428 -3.0127  0.7041
  682SOL    HW2 2046   0.438   1.549   3.063 -1.7194  0.2881 -0.6411
  683SOL     OW 2047   0.127   2.132   1.463  0.2283  0.0150  0.1652
  683SOL    HW1 2048   0.213   2.173   1.509  0.8415 -2.4552  0.2443
  683SOL    HW2 2049   0.128   2.155   1.364 -0.4406 -0.1246 -2.7236
  684SOL     OW 2050   2.938   1.311   2.007  0.2044  0.1744 -0.2558
  684SOL    HW1 2051   2.905   1.255   1.928 -1.1694  2.0928  1.2502
  684SOL    HW2 2052   2.903   1.281   2.098  0.6328 -0.5630  2.1025
  685SOL     OW 2053   1.485   1.039   0.750 -0.3332 -0.6575  0.0677
  685SOL    HW1 2054   1.550   0.983   0.804 -1.7998  0.6957 -0.8080
  685SOL    HW2 2055   1.401   0.986   0.742  2.4773  2.0163  0.4986
  686SOL     OW 2056   0.500   0.198   0.715 -0.4483 -0.4594  0.3288
  686SOL    HW1 2057   0.515   0.300   0.714 -1.5385 -0.5736 -1.6620
  686SOL    HW2 2058   0.484   0.162   0.619  1.5262  0.4244 -2.9144
  687SOL     OW 2059   1.060   2.066   2.887  0.3218  0.1993 -0.9067
  687SOL    HW1 2060   1.082   2.044   2.983 -0.1028  1.4054 -0.1166
  687SOL    HW2 2061   1.089   2.162   2.869 -3.1680 -2.6336  0.6370
  688SOL     OW 2062   1.660   0.778   1.412 -0.0370 -0.1712  0.4213
  688SOL    HW1 2063   1.605   0.848   1.362  1.0671  1.3526 -0.5981
  688SOL    HW2 2064   1.645   0.782   1.512  0.2841 -2.5212  2.1867
  689SOL     OW 2065   1.784   0.217   1.003 -0.0513 -0.8263  0.5417
  689SOL    HW1 2066   1.879   0.201   1.038  0.1528  0.9461 -0.2904
  689SOL    HW2 2067   1.763   0.316   0.986 -2.8313  2.1271 -1.4692
  690SOL     OW 2068   0.066   1.460   0.686  0.1734  0.1662  0.2858
  690SOL    HW1 2069   0.042   1.521   0.763  1.5112  0.0217 -2.5278
  690SOL    HW2 2070   0.039   1.507   0.600 -1.5096 -1.8657  2.2599
  691SOL     OW 2071   0.440   2.283   1.354 -0.7375  1.1423  0.0889
  691SOL    HW1 2072   0.512   2.235   1.299  3.7248 -0.7731 -0.9135
  691SOL    HW2 2073   0.394   2.363   1.315 -0.2271 -3.0204  0.5889
  692SOL     OW 2074   1.695   0.118   1.572  0.0249 -0.4046  0.5023
  692SOL    HW1 2075   1.708   0.178   1.654 -1.3544  1.4649 -0.1811
  692SOL    HW2 2076   1.779   0.127   1.508  1.3566 -0.3890 -1.8545
  693SOL     OW 2077   0.659   1.648   2.232  0.2858  0.1488  0.1722
  693SOL    HW1 2078   0.605   1.684   2.151 -1.6648 -0.3867  0.8326
  693SOL    HW2 2079   0.723   1.716   2.265  0.6637 -3.1907 -2.1336
  694SOL     OW 2080   2.049   1.280   0.959  0.3407  0.0306 -0.4902
  694SOL    HW1 2081   1.959   1.322   0.961  0.5078  0.1984  0.7025
  694SOL    HW2 2082   2.104   1.327   0.891 -3.6711 -0.3883  0.2478
  695SOL     OW 2083   1.252   0.843   0.771  0.4906  0.3429 -0.7703
  695SOL    HW1 2084   1.262   0.771   0.698  4.2291  0.4212 -2.9169
  695SOL    HW2 2085   1.246   0.804   0.865  0.1889  0.6407  3.1258
  696SOL     OW 2086   0.469   0.104   0.449 -0.6000  0.1794 -0.4221
  696SOL    HW1 2087   0.374   0.107   0.405  2.4410  1.3414  0.8355
  696SOL    HW2 2088   0.536   0.121   0.373 -1.8781  1.9081 -0.2223
  697SOL     OW 2089   1.951   0.560   1.133  0.3161 -0.5416 -0.0287
  697SOL    HW1 2090   1.918   0.506   1.214  1.0708 -0.6519 -1.0057
  697SOL    HW2 2091   1.884   0.638   1.106  2.2125  1.2515  0.4135
  698SOL     OW 2092   1.683   1.439   2.032  0.1463 -0.2373  0.0841
  698SOL    HW1 2093   1.588   1.460   2.065 -0.1943  0.2582 -1.0356
  698SOL    HW2 2094   1.741   1.480   2.109  0.4506  1.9516  1.4975
  699SOL     OW 2095   2.700   0.507   1.920 -0.1173 -0.1831  0.8290
  699SOL    HW1 2096   2.772   0.528   1.990  2.8928 -0.0229 -0.9765
  699SOL    HW2 2097   2.742   0.449   1.844  3.2032 -1.6263  0.0174
  700SOL     OW 2098   1.692   2.456   0.559 -0.0872 -0.7618  0.1094
  700SOL    HW1 2099   1.686   2.553   0.594  1.3133 -0.5134  0.8230
  700SOL    HW2 2100   1.674   2.458   0.460  0.4827 -3.0285  0.1700
  701SOL     OW 2101   2.649   1.983   2.507  0.0699  0.6918  0.2648
  701SOL    HW1 2102   2.646   1.891   2.464  2.0290  0.2045 -0.6142
  701SOL    HW2 2103   2.619   1.981   2.603  2.1641  2.6240 -3.0722
  702SOL     OW 2104   0.762   3.031   0.535 -0.6568  0.2568 -0.8255
  702SOL    HW1 2105   0.757   3.045   0.637  1.6083  0.4702  0.4170
  702SOL    HW2 2106   0.672   2.994   0.503 -1.9335  1.2399 -0.7661
  703SOL     OW 2107   1.831   2.947   2.289  0.1676 -0.0405  0.2851
  703SOL    HW1 2108   1.752   2.897   2.252  1.9898  1.4559  2.2676
  703SOL    HW2 2109   1.840   2.910   2.386  0.5289  1.6916  1.0261
  704SOL     OW 2110   2.720   2.063   0.171  0.4554  0.3588  0.2760
  704SOL    HW1 2111   2.799   2.131   0.175  0.5894  0.0431  2.5809
  704SOL    HW2 2112   2.661   2.084   0.246  0.9679  2.7244 -1.0287
  705SOL     OW 2113   2.867   2.329   2.395  0.7625  0.8204  0.0668
  705SOL    HW1 2114   2.880   2.230   2.371 -0.7356 -1.6682  1.2575
  705SOL    HW2 2115   2.917   2.356   2.482  0.1840  2.2293 -0.7075
  706SOL     OW 2116   2.551   0.021   0.483 -0.1667  0.1190 -0.3630
  706SOL    HW1 2117   2.636   0.082   0.479  0.8484 -1.1237  0.9039
  706SOL    HW2 2118   2.571   3.037   0.514 -0.7022  0.0398  2.6862
  707SOL     OW 2119   1.075   0.544   2.556  0.5047  0.3527  0.2252
  707SOL    HW1 2120   1.013   0.461   2.577  0.4664 -0.9944  0.0188
  707SOL    HW2 2121   1.163   0.516   2.513 -0.5631  0.1340 -2.3647
  708SOL     OW 2122   0.436   2.040   1.750  0.6899  0.4268 -0.0866
  708SOL    HW1 2123   0.371   1.963   1.761 -1.4195 -1.4693 -2.3123
  708SOL    HW2 2124   0.453   2.075   1.850  0.5904  0.7611  2.8723
  709SOL     OW 2125   1.476   2.927   1.944 -0.3642  0.2665  0.2313
  709SOL    HW1 2126   1.482   3.027   1.953  0.7656 -0.0930  0.8600
  709SOL    HW2 2127   1.471   2.900   1.843 -0.7663  0.5511 -0.7126
  710SOL     OW 2128   1.506   2.626   2.758 -0.1068 -0.3446  0.0961
  710SOL    HW1 2129   1.409   2.600   2.732 -3.2960  0.1077 -1.5047
  710SOL    HW2 2130   1.547   2.540   2.792 -0.8375  1.7514  0.4585
  711SOL     OW 2131   0.810   2.411   2.590 -0.0668 -0.8867  0.6887
  711SOL    HW1 2132   0.869   2.371   2.520 -0.7395  2.3656  0.2008
  711SOL    HW2 2133   0.847   2.402   2.688  0.3605  2.0358  1.9839
  712SOL     OW 2134   1.143   2.017   0.023  0.3818  0.3156 -0.4174
  712SOL    HW1 2135   1.154   1.915   0.027  0.8875 -0.4633 -0.4518
  712SOL    HW2 2136   1.115   2.051   0.116  1.1366  1.1972 -0.4586
  713SOL     OW 2137   1.977   1.293   1.740 -0.3374 -0.0663  0.1685
  713SOL    HW1 2138   2.006   1.202   1.700 -0.5687  0.4994  0.2712
  713SOL    HW2 2139   1.887   1.287   1.793 -1.2657  0.0926  0.4294
  714SOL     OW 2140   0.727   0.990   1.867 -0.2501  0.3275  0.5829
  714SOL    HW1 2141   0.650   0.932   1.825 -0.8942 -0.0313 -1.1737
  714SOL    HW2 2142   0.811   0.944   1.900 -0.5632  2.8477 -1.2106
  715SOL     OW 2143   2.579   0.372   0.158 -0.2557 -0.3862 -0.4327
  715SOL    HW1 2144   2.591   0.286   0.208  0.3202  2.0564 -3.5762
  715SOL    HW2 2145   2.629   0.454   0.200 -1.5570  1.6246  0.8744
  716SOL     OW 2146   0.386   2.734   1.004  0.5309  0.1899  0.3813
  716SOL    HW1 2147   0.485   2.722   1.015 -1.9215  0.1595 -1.6171
  716SOL    HW2 2148   0.345   2.824   1.028  0.4847  0.2730 -0.6441
  717SOL     OW 2149   2.370   0.625   0.822 -0.8787 -0.6056 -0.0052
  717SOL    HW1 2150   2.295   0.559   0.804 -0.1218 -0.6098  2.0598
  717SOL    HW2 2151   2.357   0.696   0.895  0.6790  0.3879  1.1051
  718SOL     OW 2152   1.500   1.164   1.556 -0.0916 -0.3304  0.2611
  718SOL    HW1 2153   1.498   1.262   1.511  2.0827  0.6646  0.0007
  718SOL    HW2 2154   1.596   1.130   1.561  1.3715  0.5747  0.3579
  719SOL     OW 2155   2.665   2.597   2.865  0.6374 -0.5200  0.4549
  719SOL    HW1 2156   2.571   2.633   2.889 -0.6081 -0.9818  1.9134
  719SOL    HW2 2157   2.677   2.599   2.762  0.2545 -1.6629  0.3878
  720SOL     OW 2158   1.022   0.494   0.827  0.0040  0.4300 -0.2648
  720SOL    HW1 2159   0.938   0.507   0.888 -0.5239  0.5107 -0.5713
  720SOL    HW2 2160   1.042   0.399   0.792  1.9235 -0.7033 -2.1463
  721SOL     OW 2161   2.011   0.104   1.168  0.0790 -0.2540  0.1554
  721SOL    HW1 2162   2.016   0.005   1.144 -0.7930  1.1316 -0.6002
  721SOL    HW2 2163   2.102   0.144   1.141 -0.3824  0.0641 -1.1561
  722SOL     OW 2164   0.743   2.051   1.912  0.3795  0.5386 -0.4944
  722SOL    HW1 2165   0.651   2.074   1.953  0.4310 -0.6277 -1.5225
  722SOL    HW2 2166   0.777   2.134   1.857  2.3584  0.1115  0.0525
  723SOL     OW 2167   1.234   2.920   1.387 -0.1882 -0.1438 -0.2692
  723SOL    HW1 2168   1.324   2.970   1.398  0.0049 -0.2498  2.3228
  723SOL    HW2 2169   1.223   2.861   1.472  0.0957 -0.5114  3.6984
  724SOL     OW 2170   1.542   2.011   1.550 -0.0794 -0.2421 -0.0943
  724SOL    HW1 2171   1.448   1.972   1.549  1.3147  0.1133  0.5057
  724SOL    HW2 2172   1.611   1.947   1.515 -1.7399  1.3719  2.7717
  725SOL     OW 2173   1.340   2.496   1.270  0.3727 -0.6962  0.0443
  725SOL    HW1 2174   1.309   2.411   1.221 -0.8267 -0.0713  1.2156
  725SOL    HW2 2175   1.444   2.505   1.272 -1.9588 -2.1761  1.0071
  726SOL     OW 2176   1.634   0.214   0.163  0.0978 -0.0603  0.7970
  726SOL    HW1 2177   1.599   0.262   0.248  1.7494 -0.3680  0.1904
  726SOL    HW2 2178   1.738   0.209   0.164  0.8904 -0.8970  0.0930
  727SOL     OW 2179   1.580   1.755   0.369 -0.5039  0.2489 -0.0816
  727SOL    HW1 2180   1.512   1.680   0.374 -0.1022  1.3564  0.6956
  727SOL    HW2 2181   1.674   1.718   0.363 -2.2230  0.2653 -0.9486
  728SOL     OW 2182   1.936   2.501   2.024 -0.4684  0.1984 -0.4918
  728SOL    HW1 2183   1.890   2.434   1.965 -0.9515  0.7263 -2.1881
  728SOL    HW2 2184   1.883   2.587   2.038  0.2689  1.7009 -0.0636
  729SOL     OW 2185   2.148   2.620   1.561  0.1726 -0.6776 -0.1733
  729SOL    HW1 2186   2.135   2.596   1.664  1.9776 -0.4797 -2.1747
  729SOL    HW2 2187   2.234   2.575   1.530 -0.2307 -1.6948  1.0881
  730SOL     OW 2188   1.594   0.905   2.691 -0.1667 -0.1477  0.0877
  730SOL    HW1 2189   1.581   0.874   2.787 -2.2398 -1.2965 -0.0381
  730SOL    HW2 2190   1.527   0.861   2.627  1.5531  2.2785  2.5299
  731SOL     OW 2191   0.617   0.107   1.430  0.3800 -0.2235  0.4798
  731SOL    HW1 2192   0.606   0.102   1.326  1.7683 -0.4021  0.7870
  731SOL    HW2 2193   0.549   0.050   1.469  2.9980 -0.3806 -3.7553
  732SOL     OW 2194   1.368   2.922   1.049  0.2190  0.5099  0.0263
  732SOL    HW1 2195   1.321   2.836   1.072  2.4009  0.7230 -0.9084
  732SOL    HW2 2196   1.321   2.988   0.990  2.2880 -0.6671  1.0801
  733SOL     OW 2197   1.279   1.171   1.064  0.2340  0.1876 -0.0844
  733SOL    HW1 2198   1.276   1.214   0.973  0.3848  0.8546  1.5267
  733SOL    HW2 2199   1.349   1.223   1.119  1.0604  0.8257  0.0412
  734SOL     OW 2200   2.470   2.097   0.362 -0.3488  0.1948  0.3131
  734SOL    HW1 2201   2.409   2.055   0.297  1.4184  2.5289  0.1656
  734SOL    HW2 2202   2.469   2.196   0.363 -1.2940 -2.9923  3.5434
  735SOL     OW 2203   0.785   0.193   0.509  0.1805 -0.6370  0.2558
  735SOL    HW1 2204   0.886   0.207   0.500 -0.7001 -3.0827  1.1282
  735SOL    HW2 2205   0.770   0.096   0.493  1.8943  0.0755 -1.5127
  736SOL     OW 2206   1.831   2.250   2.833 -0.5332  0.4066  0.2817
  736SOL    HW1 2207   1.873   2.255   2.922 -1.2663 -0.0886 -4.8879
  736SOL    HW2 2208   1.876   2.182   2.774 -2.6605 -0.3191 -0.2953
  737SOL     OW 2209   0.988   2.542   1.096 -0.0410 -0.5056  0.1892
  737SOL    HW1 2210   1.089   2.539   1.071 -0.4151 -1.2471  0.1769
  737SOL    HW2 2211   0.944   2.626   1.055 -0.0528  1.1343 -3.4456
  738SOL     OW 2212   1.692   0.073   2.213  0.3920 -0.1622  0.7874
  738SOL    HW1 2213   1.619   0.077   2.281 -0.1110  0.9149 -1.4535
  738SOL    HW2 2214   1.750   3.098   2.228  0.1584 -1.6768  1.2732
  739SOL     OW 2215   0.887   2.398   2.055  0.3572  0.4220 -0.7685
  739SOL    HW1 2216   0.985   2.366   2.062  0.0565  0.4586 -0.0131
  739SOL    HW2 2217   0.824   2.336   2.108  2.0210 -2.2389 -1.3982
  740SOL     OW 2218   1.477   2.335   1.530 -0.0378  0.2228  0.4289
  740SOL    HW1 2219   1.450   2.405   1.600 -1.3967 -1.7845 -0.5789
  740SOL    HW2 2220   1.512   2.388   1.447 -0.3311  1.3425  3.1272
  741SOL     OW 2221   2.574   1.349   0.008  0.3066  0.0236  0.6569
  741SOL    HW1 2222   2.637   1.424   0.026  2.4633  1.9378  0.0450
  741SOL    HW2 2223   2.478   1.377   0.018  1.5127 -0.2542  0.1261
  742SOL     OW 2224   0.733   1.501   2.001 -0.8484  0.3021  0.1054
  742SOL    HW1 2225   0.691   1.555   2.077 -1.6761 -1.5246 -1.9331
  742SOL    HW2 2226   0.712   1.403   1.998  1.4047  0.6155 -1.4015
  743SOL     OW 2227   2.988   0.884   2.448  0.3420  0.1918  0.2200
  743SOL    HW1 2228   3.053   0.883   2.373 -2.3952 -1.1529  2.4431
  743SOL    HW2 2229   2.994   0.793   2.497  1.0833 -1.1881 -1.3385
  744SOL     OW 2230   2.240   2.328   1.268 -0.0667  0.6463 -1.0435
  744SOL    HW1 2231   2.258   2.285   1.175  2.1062  1.5859 -1.4743
  744SOL    HW2 2232   2.293   2.273   1.336  0.8066 -1.2598  0.9390
  745SOL     OW 2233   2.413   1.896   1.430 -0.0443 -0.2287 -0.9800
  745SOL    HW1 2234   2.322   1.862   1.468 -0.1797 -0.1128 -0.2650
  745SOL    HW2 2235   2.483   1.883   1.507  2.1330 -0.8239  0.9032
  746SOL     OW 2236   2.511   0.993   0.589  0.1830  0.2383  0.0112
  746SOL    HW1 2237   2.445   0.924   0.545  2.6724 -0.8073 -1.0907
  746SOL    HW2 2238   2.576   1.028   0.522 -0.3942 -2.1913  0.1899
  747SOL     OW 2239   1.888   2.256   0.535  0.8688 -0.5071  0.4623
  747SOL    HW1 2240   1.980   2.297   0.555  0.1001  0.8048 -0.0629
  747SOL    HW2 2241   1.817   2.330   0.548 -1.5911 -0.9941 -1.7063
  748SOL     OW 2242   1.086   2.186   0.507  0.2855 -0.6379 -0.1925
  748SOL    HW1 2243   1.083   2.141   0.416 -0.2057  1.1254  3.7439
  748SOL    HW2 2244   1.108   2.117   0.583  3.3147 -0.1168  1.4044
  749SOL     OW 2245   2.928   0.413   2.453  0.1057  0.4309  0.0880
  749SOL    HW1 2246   2.916   0.415   2.352  0.1637 -0.2037  2.9419
  749SOL    HW2 2247   3.011   0.366   2.481 -0.0749 -0.1427 -1.9361
  750SOL     OW 2248   1.482   0.087   1.427  0.4333 -0.8830 -0.1140
  750SOL    HW1 2249   1.565   0.103   1.484  2.7720 -0.1192  0.3630
  750SOL    HW2 2250   1.468   0.174   1.375  3.4159 -0.9699  1.9359
  751SOL     OW 2251   1.602   2.401   2.869 -0.1597  0.6956 -0.3474
  751SOL    HW1 2252   1.597   2.426   2.967 -4.1793  1.2562  1.0438
  751SOL    HW2 2253   1.689   2.356   2.842  3.2299 -2.3447 -2.1997
  752SOL     OW 2254   1.877   2.123   0.303 -0.0402 -0.1099 -1.1022
  752SOL    HW1 2255   1.837   2.137   0.398 -0.1461  0.0096  1.2431
  752SOL    HW2 2256   1.978   2.155   0.301  1.1386  1.6718 -1.2424
  753SOL     OW 2257   1.455   0.739   2.193 -0.0695 -0.2232 -0.9391
  753SOL    HW1 2258   1.457   0.828   2.246 -0.3582  0.2508 -0.6676
  753SOL    HW2 2259   1.498   0.665   2.245 -2.1522 -2.8150 -2.3998
  754SOL     OW 2260   0.259   2.845   0.503 -0.1328 -0.4306 -0.2636
  754SOL    HW1 2261   0.222   2.764   0.545  1.5357  2.0377 -4.0554
  754SOL    HW2 2262   0.209   2.932   0.527 -0.7983 -0.5275 -0.9889
  755SOL     OW 2263   1.914   0.181   1.419  0.0247 -0.1224 -0.1286
  755SOL    HW1 2264   1.995   0.223   1.468 -3.1391  2.9578  1.9288
  755SOL    HW2 2265   1.943   0.129   1.338  2.2290  0.3968 -0.3047
  756SOL     OW 2266   1.262   1.278   2.589  0.2740  0.4631  0.1944
  756SOL    HW1 2267   1.358   1.274   2.603 -1.3997  1.3845  0.3760
  756SOL    HW2 2268   1.232   1.302   2.492 -0.1136  1.0694  0.3073
  757SOL     OW 2269   2.958   2.873   1.337  0.1130 -0.6039 -0.2152
  757SOL    HW1 2270   2.986   2.779   1.370  0.2142 -1.9931  0.4385
  757SOL    HW2 2271   2.879   2.904   1.391 -0.0808 -2.4062  0.5476
  758SOL     OW 2272   0.722   2.963   1.627 -0.6495  0.3579  0.2482
  758SOL    HW1 2273   0.641   2.965   1.680  1.0453 -2.3122  1.2704
  758SOL    HW2 2274   0.796   3.029   1.654  0.9467 -0.1049 -2.0752
  759SOL     OW 2275   2.452   1.271   0.677  0.1663 -0.2746 -0.3187
  759SOL    HW1 2276   2.431   1.313   0.586  1.1362 -1.9438  0.8389
  759SOL    HW2 2277   2.491   1.176   0.667 -0.0148  1.9758  0.2899
  760SOL     OW 2278   2.016   0.525   1.570  0.5564 -0.5858  0.7165
  760SOL    HW1 2279   1.972   0.498   1.481 -1.0305 -0.9778  0.2061
  760SOL    HW2 2280   2.090   0.464   1.603  2.3971  0.5682  0.5879
  761SOL     OW 2281   1.986   0.010   0.188  0.5332  0.2401 -0.1841
  761SOL    HW1 2282   1.909   0.023   0.256 -0.1068 -0.3756 -1.0477
  761SOL    HW2 2283   2.020   3.025   0.178 -0.8416 -1.0584 -2.6464
  762SOL     OW 2284   2.158   2.176   0.214 -0.2468 -0.0956 -0.1118
  762SOL    HW1 2285   2.172   2.276   0.220 -0.8417 -2.2636  1.6258
  762SOL    HW2 2286   2.143   2.146   0.117 -0.5988  0.5846  0.2222
  763SOL     OW 2287   0.704   0.980   1.024  0.5112 -0.6013  0.0506
  763SOL    HW1 2288   0.698   0.921   0.940 -0.0361 -0.8564 -0.1013
  763SOL    HW2 2289   0.759   1.064   1.003  0.1135  0.3167  0.8200
  764SOL     OW 2290   2.423   2.314   3.053 -0.2291 -0.0448 -0.4985
  764SOL    HW1 2291   2.499   2.276   2.994  0.5715  0.8968  0.2010
  764SOL    HW2 2292   2.367   2.385   2.999 -1.5497  1.3429 -0.0047
  765SOL     OW 2293   0.762   0.564   2.417 -0.3705 -0.3009  0.1385
  765SOL    HW1 2294   0.712   0.494   2.462  1.8185  1.8388 -3.0706
  765SOL    HW2 2295   0.837   0.515   2.369 -0.8398 -0.6318  1.9643
  766SOL     OW 2296   0.065   1.335   2.505  0.0086  0.2820  0.3389
  766SOL    HW1 2297   3.109   1.268   2.546  0.9561 -0.8541 -0.1064
  766SOL    HW2 2298   0.030   1.403   2.441 -0.3015  0.2366  1.5487
  767SOL     OW 2299   0.007   1.842   2.146 -0.2863 -0.2872  0.3178
  767SOL    HW1 2300   0.079   1.786   2.092 -0.0503 -0.1336 -0.6995
  767SOL    HW2 2301   0.059   1.892   2.223 -0.8615  2.8742  0.1258
  768SOL     OW 2302   1.011   0.927   2.862 -0.2941  0.4843 -0.1215
  768SOL    HW1 2303   0.926   0.966   2.898  1.9775  0.7285 -1.5797
  768SOL    HW2 2304   1.037   0.967   2.766 -1.6087  3.0151 -3.4573
  769SOL     OW 2305   1.838   2.881   2.859 -0.0851  0.0519 -0.3244
  769SOL    HW1 2306   1.773   2.885   2.937 -0.6092 -0.9974  1.6783
  769SOL    HW2 2307   1.831   2.970   2.804  2.0696  2.0117 -0.4919
  770SOL     OW 2308   3.021   0.645   2.588 -0.2298 -0.5442  0.4376
  770SOL    HW1 2309   2.990   0.566   2.532 -0.7129  1.0360 -0.2022
  770SOL    HW2 2310   2.957   0.675   2.660 -1.4768 -1.9220 -0.6517
  771SOL     OW 2311   0.715   2.135   1.322  0.0825  0.4032  0.1785
  771SOL    HW1 2312   0.789   2.071   1.292  0.8709 -0.8969  0.6097
  771SOL    HW2 2313   0.749   2.226   1.337 -0.2861 -1.2281 -2.2134
  772SOL     OW 2314   0.571   0.419   2.925 -0.7709 -0.1607  0.6342
  772SOL    HW1 2315   0.663   0.426   2.876  2.0515  0.0950 -1.5749
  772SOL    HW2 2316   0.582   0.458   3.017  1.3057  1.1880  1.2955
  773SOL     OW 2317   2.316   1.121   1.757 -0.1135  0.1519  0.5968
  773SOL    HW1 2318   2.334   1.078   1.849  0.6948 -1.1489 -0.6920
  773SOL    HW2 2319   2.272   1.211   1.760  0.9741 -2.3244  0.0827
  774SOL     OW 2320   0.982   0.677   0.464  0.1399  0.2327  0.2278
  774SOL    HW1 2321   1.007   0.650   0.367  1.0017  0.0000 -0.6970
  774SOL    HW2 2322   1.058   0.659   0.536  4.1148 -0.9808  2.2504
  775SOL     OW 2323   2.103   2.713   2.940  0.3611 -0.3319 -0.1392
  775SOL    HW1 2324   2.035   2.730   2.863 -1.0833  3.5984 -1.8806
  775SOL    HW2 2325   2.055   2.681   3.022  0.2227 -2.5132 -0.0218
  776SOL     OW 2326   2.237   0.022   2.020  0.1293  0.4803 -0.0223
  776SOL    HW1 2327   2.165   0.007   2.095  0.1248  2.3145  1.9183
  776SOL    HW2 2328   2.311   3.065   2.026  1.4047  1.4365  0.2800
  777SOL     OW 2329   0.520   1.092   2.827  0.3299 -0.0550 -0.2924
  777SOL    HW1 2330   0.512   0.997   2.796 -0.5955  0.6449 -1.4101
  777SOL    HW2 2331   0.502   1.097   2.931 -1.4182 -3.4455  0.4388
  778SOL     OW 2332   0.675   0.162   0.177  0.2076  0.1743 -0.2444
  778SOL    HW1 2333   0.664   0.263   0.174  0.3951  0.9538 -1.4513
  778SOL    HW2 2334   0.772   0.136   0.182 -0.8520  2.7148  1.7727
  779SOL     OW 2335   0.101   1.276   3.086 -0.3278  0.3124 -0.3806
  779SOL    HW1 2336   0.097   1.321   2.996 -0.5302 -2.5501  1.7953
  779SOL    HW2 2337   0.122   1.181   3.073  1.6380  1.0238  0.0204
  780SOL     OW 2338   1.954   0.765   2.790 -0.2325 -0.0681 -0.2603
  780SOL    HW1 2339   2.025   0.698   2.810 -0.3226 -0.9452  1.2111
  780SOL    HW2 2340   1.871   0.722   2.750  3.1569  1.7097  2.9162
  781SOL     OW 2341   2.159   1.351   1.950 -0.2578  0.2095 -1.0427
  781SOL    HW1 2342   2.134   1.336   2.049  0.4634  0.3179  0.5791
  781SOL    HW2 2343   2.085   1.330   1.887  1.3153  1.2573  1.0336
  782SOL     OW 2344   1.174   1.658   2.284  0.2450  0.0608 -0.3373
  782SOL    HW1 2345   1.101   1.678   2.216  0.9193  2.6008  0.8381
  782SOL    HW2 2346   1.188   1.733   2.350  0.1976  2.4501  1.5985
  783SOL     OW 2347   1.111   0.040   0.987  0.0940 -0.3070 -0.3609
  783SOL    HW1 2348   1.068   0.107   1.054 -1.2365  1.4330 -0.6044
  783SOL    HW2 2349   1.067   3.060   1.000  0.7508  1.4461 -0.2526
  784SOL     OW 2350   1.444   0.604   3.105 -0.6971 -0.1675  0.3441
  784SOL    HW1 2351   1.483   0.683   3.045  0.7032  4.0928 -0.7807
  784SOL    HW2 2352   1.439   0.638   0.095  0.3904  1.2927  3.8845
  785SOL     OW 2353   1.847   0.442   3.093  0.6595  0.5575 -0.1163
  785SOL    HW1 2354   1.809   0.533   0.007 -1.0720 -2.2277 -0.6243
  785SOL    HW2 2355   1.897   0.396   0.056 -2.0707 -0.1783 -0.3978
  786SOL     OW 2356   3.060   1.615   0.489 -0.2334 -0.2373 -0.4383
  786SOL    HW1 2357   3.007   1.681   0.545 -1.9949 -0.5561  1.3811
  786SOL    HW2 2358   3.005   1.608   0.402  0.9734  1.0333 -0.2140
  787SOL     OW 2359   1.760   1.527   0.156 -0.2875  0.4516 -0.3141
  787SOL    HW1 2360   1.755   1.599   0.227  0.9585  0.1459  1.6446
  787SOL    HW2 2361   1.723   1.437   0.196 -0.1133 -0.0795 -0.9231
  788SOL     OW 2362   1.617   1.797   1.192  0.1663 -0.3595 -1.2891
  788SOL    HW1 2363   1.644   1.827   1.285  0.4715 -0.3621  0.3033
  788SOL    HW2 2364   1.612   1.878   1.128  1.3814 -2.9112  1.2558
  789SOL     OW 2365   0.111   1.406   2.113 -0.1122  0.0423 -0.1714
  789SOL    HW1 2366   0.067   1.446   2.197  1.9585  1.2977 -0.0037
  789SOL    HW2 2367   0.043   1.363   2.052  0.2136  0.4205  4.3032
  790SOL     OW 2368   0.517   3.099   0.022 -0.4713  0.1106  0.0181
  790SOL    HW1 2369   0.467   3.014   0.052  1.1559  0.8140  0.7270
  790SOL    HW2 2370   0.555   0.050   0.093  0.9502 -0.8671 -1.2530
  791SOL     OW 2371   0.655   0.018   2.422 -0.1264  0.1873  0.0672
  791SOL    HW1 2372   0.617   0.044   2.511  1.1104 -0.7342 -3.1707
  791SOL    HW2 2373   0.718   3.047   2.427 -0.0531 -2.4746 -0.0094
  792SOL     OW 2374   1.926   0.413   2.305 -0.1132 -0.0738 -0.1232
  792SOL    HW1 2375   1.903   0.490   2.368 -1.9468  0.6262  1.8118
  792SOL    HW2 2376   1.842   0.384   2.251 -1.7960  1.4315 -4.2266
  793SOL     OW 2377   2.687   0.747   1.269 -0.9184 -0.0358 -0.4686
  793SOL    HW1 2378   2.693   0.726   1.368  0.2264  0.8483 -0.4106
  793SOL    HW2 2379   2.754   0.822   1.243 -0.7095 -1.4548 -2.6142
  794SOL     OW 2380   0.315   0.615   2.004 -0.3417 -0.2496 -0.3349
  794SOL    HW1 2381   0.270   0.640   2.093  2.2722  2.5800  1.8696
  794SOL    HW2 2382   0.418   0.623   2.017  3.8463 -0.7372 -1.2808
  795SOL     OW 2383   2.908   1.532   0.249 -0.1398  0.6935 -0.3636
  795SOL    HW1 2384   2.848   1.564   0.173 -1.6112 -1.0280  0.0010
  795SOL    HW2 2385   2.926   1.433   0.238 -2.3900 -1.7117 -0.0785
  796SOL     OW 2386   3.038   2.644   0.411  0.0843  0.4209 -0.0285
  796SOL    HW1 2387   3.036   2.746   0.407  1.0920 -0.7779  1.3515
  796SOL    HW2 2388   3.038   2.605   0.313 -0.0031 -1.1467  0.0191
  797SOL     OW 2389   1.868   2.536   2.537 -0.1750 -0.3094  0.8758
  797SOL    HW1 2390   1.886   2.546   2.635 -3.1508 -2.0612 -0.1113
  797SOL    HW2 2391   1.783   2.587   2.518 -1.3546 -1.0117 -3.3303
  798SOL     OW 2392   0.182   1.229   0.657  0.5314  0.7426 -0.2283
  798SOL    HW1 2393   0.127   1.144   0.655  0.2233  0.1926 -0.9003
  798SOL    HW2 2394   0.130   1.315   0.652  0.8057 -0.4536  1.5919
  799SOL     OW 2395   0.127   0.643   2.974  0.0583  0.2193 -0.0998
  799SOL    HW1 2396   0.179   0.723   2.939 -1.3610  1.8169 -0.5610
  799SOL    HW2 2397   0.159   0.551   2.935  2.8310 -3.1809 -2.7703
  800SOL     OW 2398   2.881   1.826   0.551 -0.2442 -0.2685 -0.1867
  800SOL    HW1 2399   2.962   1.884   0.533  1.4104 -0.8986  1.4697
  800SOL    HW2 2400   2.795   1.876   0.577 -1.5925 -1.9091  1.4386
  801SOL     OW 2401   1.632   1.236   1.274  0.2965  0.5446  0.3713
  801SOL    HW1 2402   1.716   1.271   1.325  0.5853 -0.8559  1.9337
  801SOL    HW2 2403   1.555   1.301   1.296  1.2875  0.4859  0.0260
  802SOL     OW 2404   1.025   1.853   1.717 -0.2411 -0.2657 -0.1398
  802SOL    HW1 2405   1.097   1.834   1.789 -3.5558 -0.0007 -1.2711
  802SOL    HW2 2406   1.029   1.952   1.694 -0.4760 -1.9086  0.8289
  803SOL     OW 2407   0.227   1.786   0.942  0.2196 -0.2274 -0.6529
  803SOL    HW1 2408   0.323   1.757   0.953  0.5998 -1.8436  1.0329
  803SOL    HW2 2409   0.218   1.860   0.872 -0.1249  2.2109  0.5501
  804SOL     OW 2410   1.024   2.510   1.363  0.5823 -0.4727 -0.0299
  804SOL    HW1 2411   1.008   2.530   1.265 -1.9963  1.1123 -2.5581
  804SOL    HW2 2412   1.061   2.592   1.410 -4.6263  0.6704  0.8320
  805SOL     OW 2413   1.965   1.407   0.018  0.1068 -0.0458  0.0379
  805SOL    HW1 2414   1.903   1.471   0.068  1.3589  0.4725 -0.1613
  805SOL    HW2 2415   1.986   1.447   3.039 -0.4836  1.6839 -2.6320
  806SOL     OW 2416   1.520   2.947   1.327 -0.0072  0.2821 -0.1242
  806SOL    HW1 2417   1.490   3.038   1.357 -1.2029 -2.5612 -2.9702
  806SOL    HW2 2418   1.484   2.932   1.233  1.5905 -0.3493  0.4501
  807SOL     OW 2419   2.279   0.239   2.720  0.1419 -0.9599 -0.1383
  807SOL    HW1 2420   2.223   0.279   2.795 -0.5342  1.2874 -2.1650
  807SOL    HW2 2421   2.378   0.237   2.747 -0.2801  0.4102  0.9801
  808SOL     OW 2422   0.314   1.026   0.278 -0.2751 -0.5169  0.1239
  808SOL    HW1 2423   0.367   0.950   0.234 -1.3874 -3.9641 -0.2222
  808SOL    HW2 2424   0.357   1.118   0.261 -0.5174  0.5858  0.3286
  809SOL     OW 2425   2.826   1.258   2.292  0.2946  0.1436 -0.0496
  809SOL    HW1 2426   2.791   1.164   2.298  0.8850  2.3203 -0.6161
  809SOL    HW2 2427   2.896   1.281   2.366  3.4967  1.8585  0.3992
  810SOL     OW 2428   1.686   0.520   1.628 -0.0363  0.4289  1.4009
  810SOL    HW1 2429   1.771   0.467   1.638 -0.2285  2.5660  0.1114
  810SOL    HW2 2430   1.639   0.500   1.540  2.5394 -1.8435 -0.0224
  811SOL     OW 2431   2.188   2.812   1.986 -0.4600 -0.1150 -0.6375
  811SOL    HW1 2432   2.160   2.714   2.005 -1.5654 -2.6017 -1.5137
  811SOL    HW2 2433   2.281   2.833   2.022 -3.9404 -2.4719 -0.7761
  812SOL     OW 2434   1.703   0.241   2.985  0.3150  0.0566  0.0195
  812SOL    HW1 2435   1.665   0.185   3.060  0.5979  0.6355  0.4552
  812SOL    HW2 2436   1.769   0.308   3.022 -0.9308 -0.9208  0.6517
  813SOL     OW 2437   1.829   0.817   1.955 -0.4739 -0.0395 -0.2315
  813SOL    HW1 2438   1.820   0.863   2.048 -0.8522 -0.4612 -0.8052
  813SOL    HW2 2439   1.914   0.851   1.912 -0.2522  1.8138  1.5224
  814SOL     OW 2440   1.742   1.216   1.914  0.2177  0.5966 -0.2268
  814SOL    HW1 2441   1.747   1.128   1.965  2.2231 -3.3981  1.6731
  814SOL    HW2 2442   1.709   1.296   1.970  3.2003  0.6006 -0.9755
  815SOL     OW 2443   0.633   0.783   0.338 -0.0096  0.1367  0.1360
  815SOL    HW1 2444   0.618   0.863   0.403 -2.5420 -1.5465 -0.1522
  815SOL    HW2 2445   0.636   0.694   0.388 -1.1121 -0.4918 -1.9483
  816SOL     OW 2446   2.286   1.541   2.862  0.1180 -0.3911 -0.4073
  816SOL    HW1 2447   2.183   1.546   2.877 -0.8812  0.3129  0.2025
  816SOL    HW2 2448   2.321   1.638   2.853 -0.3558 -1.2723 -4.5751
  817SOL     OW 2449   0.522   2.865   0.480 -0.4215  0.1040  0.5876
  817SOL    HW1 2450   0.547   2.783   0.538  3.5438  0.4333 -0.1749
  817SOL    HW2 2451   0.425   2.886   0.491 -0.8815 -3.0929 -0.3969
  818SOL     OW 2452   1.729   0.343   2.701 -0.3220 -0.0034 -0.3329
  818SOL    HW1 2453   1.774   0.292   2.623  2.1103 -0.3482 -1.4487
  818SOL    HW2 2454   1.743   0.295   2.789 -0.5666 -0.1067 -2.7549
  819SOL     OW 2455   1.504   0.576   0.550 -0.2427 -0.0750 -0.1895
  819SOL    HW1 2456   1.458   0.563   0.461 -1.6793 -2.4691  3.1249
  819SOL    HW2 2457   1.544   0.670   0.567  2.0897 -0.0693  1.9650
  820SOL     OW 2458   1.702   0.851   0.787  0.3512 -0.8098 -0.0648
  820SOL    HW1 2459   1.754   0.938   0.800  0.4000  2.3585 -2.2427
  820SOL    HW2 2460   1.659   0.839   0.694 -1.1805 -0.2240 -0.3054
  821SOL     OW 2461   2.330   3.051   0.308 -0.3300 -0.0433  0.4579
  821SOL    HW1 2462   2.391   3.059   0.389  1.3584 -0.1096 -2.2338
  821SOL    HW2 2463   2.383   3.095   0.236 -0.7566 -1.3467 -1.4593
  822SOL     OW 2464   0.070   3.043   2.083 -0.3268  0.0380 -0.4485
  822SOL    HW1 2465   0.145   2.980   2.114 -0.1258 -1.3223  0.6642
  822SOL    HW2 2466   0.099   3.085   1.994  1.2490 -1.0491  1.6795
  823SOL     OW 2467   2.698   2.415   1.718  0.3422  0.1798 -0.1058
  823SOL    HW1 2468   2.597   2.437   1.711 -2.9907  0.6272  1.1604
  823SOL    HW2 2469   2.710   2.317   1.744  1.2045  0.2450  1.0514
  824SOL     OW 2470   1.137   2.749   2.193 -0.0682  0.1895 -0.3569
  824SOL    HW1 2471   1.048   2.730   2.144  1.8778 -1.8240  0.3847
  824SOL    HW2 2472   1.216   2.735   2.125 -1.7865  0.7309  0.3411
  825SOL     OW 2473   1.639   1.758   0.667  0.0975 -0.1343 -0.1609
  825SOL    HW1 2474   1.737   1.739   0.693  2.1308 -1.7912  1.6202
  825SOL    HW2 2475   1.629   1.761   0.567  0.3377  1.9496  0.5438
  826SOL     OW 2476   1.722   0.793   0.289  0.2937 -0.1383  0.4700
  826SOL    HW1 2477   1.803   0.822   0.343  0.7643  0.1322 -0.6307
  826SOL    HW2 2478   1.754   0.752   0.205 -0.8476  2.3653  2.3183
  827SOL     OW 2479   0.291   1.259   1.170 -0.0786  0.1549 -0.0044
  827SOL    HW1 2480   0.190   1.261   1.179  1.7557 -1.2024  3.8089
  827SOL    HW2 2481   0.323   1.236   1.079  0.0782 -0.8178 -1.2551
  828SOL     OW 2482   2.091   1.567   1.710  0.2989 -0.2043 -0.4747
  828SOL    HW1 2483   2.069   1.466   1.702  0.1720 -1.9608 -0.6353
  828SOL    HW2 2484   2.173   1.581   1.772  3.9293  0.1945  1.1931
  829SOL     OW 2485   0.268   1.864   0.250  0.0492 -0.0817 -0.9599
  829SOL    HW1 2486   0.273   1.789   0.312  3.5713  1.6314 -2.5191
  829SOL    HW2 2487   0.355   1.902   0.220  0.3168 -1.5150  1.4857
  830SOL     OW 2488   1.206   0.617   0.647 -0.1711 -0.5291 -0.5962
  830SOL    HW1 2489   1.281   0.549   0.631 -0.9842 -0.1494 -0.5490
  830SOL    HW2 2490   1.132   0.576   0.705  3.2872 -1.2437  1.0374
  831SOL     OW 2491   2.754   1.596   0.032  0.1718 -0.7245 -0.2675
  831SOL    HW1 2492   2.754   1.627   3.046 -1.3728 -0.5483  0.8348
  831SOL    HW2 2493   2.771   1.672   0.097 -2.6020 -0.1213 -0.9440
  832SOL     OW 2494   0.836   2.939   0.208 -0.1396  0.2342 -0.5354
  832SOL    HW1 2495   0.853   3.038   0.185  0.3391  0.1520  2.3220
  832SOL    HW2 2496   0.903   2.906   0.281  0.2265 -2.6413  1.8074
  833SOL     OW 2497   0.871   0.616   2.045  0.2593  0.5337 -1.1378
  833SOL    HW1 2498   0.889   0.561   2.133 -1.0662 -0.1576  1.1609
  833SOL    HW2 2499   0.916   0.707   2.038 -0.2407  0.3316 -2.6131
  834SOL     OW 2500   0.158   0.730   1.258 -0.3555 -0.2797  0.3192
  834SOL    HW1 2501   0.175   0.788   1.174  1.5640  0.4620 -2.5825
  834SOL    HW2 2502   0.201   0.778   1.338 -2.9470  2.3310  1.4221
  835SOL     OW 2503   2.774   0.317   1.750  0.8443 -0.2339 -0.2362
  835SOL    HW1 2504   2.770   0.241   1.819 -0.6591 -2.4977  2.5991
  835SOL    HW2 2505   2.825   0.287   1.673  0.7547  1.6786  1.3076
  836SOL     OW 2506   0.489   2.176   0.489 -0.6655  0.2488  0.4492
  836SOL    HW1 2507   0.523   2.274   0.482 -0.1309  0.8365  0.8222
  836SOL    HW2 2508   0.528   2.124   0.407  1.2113 -2.0992 -2.1511
  837SOL     OW 2509   2.145   1.766   2.116  0.3459 -0.5482  0.2524
  837SOL    HW1 2510   2.217   1.729   2.056  0.2689  0.3126 -0.0118
  837SOL    HW2 2511   2.154   1.861   2.155  1.0714  0.0003  0.8666
  838SOL     OW 2512   3.049   1.339   1.581 -0.0423 -0.3377  0.0244
  838SOL    HW1 2513   0.036   1.343   1.561  0.4855 -1.3186 -0.2255
  838SOL    HW2 2514   3.024   1.399   1.658 -1.0994 -1.8985 -2.5123
  839SOL     OW 2515   0.211   0.194   0.741 -0.3401  0.0858  0.5287
  839SOL    HW1 2516   0.160   0.236   0.818  0.8492 -0.7750 -0.4147
  839SOL    HW2 2517   0.311   0.218   0.744  0.6304  0.5512 -2.9777
  840SOL     OW 2518   2.889   0.138   2.719 -0.0521  0.1664  0.0780
  840SOL    HW1 2519   2.989   0.122   2.727  0.0060  0.1591 -0.0139
  840SOL    HW2 2520   2.856   0.224   2.771 -3.2671 -1.8471  0.2338
  841SOL     OW 2521   0.380   2.852   0.125  0.2398  0.0511  0.0036
  841SOL    HW1 2522   0.306   2.821   0.189  1.4863 -1.1208  1.0084
  841SOL    HW2 2523   0.469   2.819   0.162  0.2722  1.1517 -0.6305
  842SOL     OW 2524   1.067   0.205   0.728 -0.0128  0.1739 -0.1370
  842SOL    HW1 2525   0.971   0.200   0.754  2.2969 -0.8143 -4.0026
  842SOL    HW2 2526   1.116   0.158   0.801 -0.4966  1.7572 -5.9237
  843SOL     OW 2527   0.224   1.145   2.732 -0.3404 -0.0778  0.2902
  843SOL    HW1 2528   0.178   1.062   2.763 -0.7041 -0.9514 -1.2596
  843SOL    HW2 2529   0.327   1.135   2.732  2.4067 -0.4303 -1.0723
  844SOL     OW 2530   0.928   2.252   2.381 -0.2648  0.0784 -0.0796
  844SOL    HW1 2531   0.835   2.232   2.344  1.2493  0.2083 -0.4045
  844SOL    HW2 2532   0.993   2.188   2.335  0.3624 -1.2698 -2.0312
  845SOL     OW 2533   2.304   2.706   2.661  0.3873  0.0442  0.0602
  845SOL    HW1 2534   2.371   2.733   2.734  1.3880  0.3132  0.3284
  845SOL    HW2 2535   2.230   2.775   2.667  0.9370 -1.2832  2.8919
  846SOL     OW 2536   1.853   2.004   2.275 -0.1085 -0.0296  0.6249
  846SOL    HW1 2537   1.920   1.930   2.253  0.6073 -0.3154  2.2191
  846SOL    HW2 2538   1.773   2.000   2.208 -1.5489 -1.0640 -0.5243
  847SOL     OW 2539   2.769   3.041   2.878  0.1274 -0.2869 -0.3019
  847SOL    HW1 2540   2.812   2.967   2.827 -0.5024  0.8338  0.8135
  847SOL    HW2 2541   2.813   0.018   2.846 -1.5009 -0.7442  3.4212
  848SOL     OW 2542   3.102   0.669   0.340  0.9693 -0.0877 -0.4096
  848SOL    HW1 2543   3.014   0.725   0.364 -1.0360 -0.4576 -0.8095
  848SOL    HW2 2544   0.063   0.679   0.412 -0.8194 -0.8765 -1.5583
  849SOL     OW 2545   1.224   0.112   2.058 -0.3498  0.1137  0.2312
  849SOL    HW1 2546   1.143   0.054   2.042  1.6045  0.0970 -1.7090
  849SOL    HW2 2547   1.244   0.106   2.156 -0.2734 -0.5051  0.2930
  850SOL     OW 2548   0.281   0.946   0.523  0.0269  0.3900  0.4542
  850SOL    HW1 2549   0.290   0.987   0.430 -2.3692  1.8309  0.3489
  850SOL    HW2 2550   0.363   0.956   0.579 -2.9540  3.5715 -2.8899
  851SOL     OW 2551   0.436   1.300   0.302  0.0395  0.1451 -0.4540
  851SOL    HW1 2552   0.416   1.395   0.275  1.5367 -1.5332 -2.1473
  851SOL    HW2 2553   0.533   1.285   0.297 -2.1991  0.5647  0.1164
  852SOL     OW 2554   1.351   1.063   1.935 -0.8983  0.5332  0.0156
  852SOL    HW1 2555   1.384   1.155   1.915 -1.8887 -0.5103 -0.6155
  852SOL    HW2 2556   1.430   0.996   1.937 -0.6270 -0.1412  1.4673
  853SOL     OW 2557   2.677   1.453   0.396 -0.0739 -0.0616  0.3570
  853SOL    HW1 2558   2.733   1.429   0.482  0.2290 -2.3386  0.7442
  853SOL    HW2 2559   2.741   1.476   0.323  0.6931 -0.6636  1.3932
  854SOL     OW 2560   1.013   0.957   2.303  0.0316  0.0740 -0.4654
  854SOL    HW1 2561   0.953   0.999   2.375  2.1286  3.3890 -1.5804
  854SOL    HW2 2562   1.077   0.880   2.335 -0.1277  0.0781  0.2195
  855SOL     OW 2563   0.266   2.659   3.054 -0.5250 -0.1834 -0.4508
  855SOL    HW1 2564   0.274   2.739   0.005 -2.9450  0.7918  0.6170
  855SOL    HW2 2565   0.215   2.584   3.100 -0.0695  0.8994  1.6271
  856SOL     OW 2566   1.165   0.750   2.412 -0.4447  0.2164 -0.0637
  856SOL    HW1 2567   1.194   0.701   2.326 -0.4148 -0.4182 -0.9638
  856SOL    HW2 2568   1.101   0.694   2.474 -1.6262 -3.6889  1.7517
  857SOL     OW 2569   1.421   0.769   2.528 -0.4485  0.3574 -0.0299
  857SOL    HW1 2570   1.466   0.695   2.468 -0.3935  0.7282 -3.8142
  857SOL    HW2 2571   1.334   0.799   2.479 -1.5315  1.2523 -1.2248
  858SOL     OW 2572   3.106   0.927   2.208  0.4800 -0.8430 -0.0231
  858SOL    HW1 2573   3.084   0.935   2.109 -1.4890 -1.9071 -0.1739
  858SOL    HW2 2574   0.060   1.000   2.240 -0.7556  0.0134  0.6437
  859SOL     OW 2575   2.421   0.141   0.723 -0.5273 -0.5056  0.1907
  859SOL    HW1 2576   2.500   0.194   0.756  1.5067 -1.0539 -2.1303
  859SOL    HW2 2577   2.428   0.130   0.621  1.0693 -0.6676  1.9724
  860SOL     OW 2578   1.818   3.043   0.401  0.0352 -0.1377 -0.1225
  860SOL    HW1 2579   1.766   3.111   0.454  0.7760 -4.8322 -2.8335
  860SOL    HW2 2580   1.864   2.970   0.461 -0.1157 -2.1096 -1.4910
  861SOL     OW 2581   1.357   0.484   1.237 -0.6705  0.3186 -0.2283
  861SOL    HW1 2582   1.294   0.540   1.292  2.6088 -0.9531 -2.4288
  861SOL    HW2 2583   1.331   0.481   1.138  1.5165 -3.1914 -1.4791
  862SOL     OW 2584   1.241   0.174   2.339 -0.0437  0.0117 -0.0783
  862SOL    HW1 2585   1.322   0.115   2.348 -1.4736 -0.4525  1.0105
  862SOL    HW2 2586   1.259   0.266   2.385  0.3156  0.5136  1.8972
  863SOL     OW 2587   3.003   2.913   0.783  0.0379  0.8943  0.0165
  863SOL    HW1 2588   2.928   2.857   0.736 -2.7982 -1.5239 -1.5591
  863SOL    HW2 2589   3.053   2.852   0.849 -0.6840 -2.5934  0.8404
  864SOL     OW 2590   2.532   0.252   2.282  0.0200  0.1900  0.0538
  864SOL    HW1 2591   2.557   0.344   2.327 -0.0410  1.6100 -1.0850
  864SOL    HW2 2592   2.457   0.211   2.336 -2.0530 -0.8776  2.6837
  865SOL     OW 2593   1.027   1.245   1.976  0.2344  0.6828 -0.2402
  865SOL    HW1 2594   0.965   1.234   1.895 -1.6614 -1.0948 -0.3455
  865SOL    HW2 2595   0.978   1.203   2.057 -0.2472 -0.9659 -1.1403
  866SOL     OW 2596   2.223   2.698   1.061 -0.4079  0.7014  0.3924
  866SOL    HW1 2597   2.256   2.743   1.149 -0.8945 -2.0760  3.6884
  866SOL    HW2 2598   2.128   2.674   1.074  1.5035  1.3580 -0.4226
  867SOL     OW 2599   2.150   2.877   0.711 -0.7708  0.2340  0.2601
  867SOL    HW1 2600   2.224   2.901   0.776 -3.0978 -0.7385 -0.8513
  867SOL    HW2 2601   2.088   2.960   0.702  1.6953 -1.0048  0.8385
  868SOL     OW 2602   3.062   2.149   1.659  0.0501  0.5136 -0.0570
  868SOL    HW1 2603   0.020   2.143   1.583 -0.7672  2.0742 -1.4807
  868SOL    HW2 2604   3.028   2.243   1.666 -1.2324 -3.3480 -0.3940
  869SOL     OW 2605   2.107   2.288   2.204  0.3397  1.1181  0.0257
  869SOL    HW1 2606   2.033   2.318   2.268  0.0795  0.7749 -1.2225
  869SOL    HW2 2607   2.178   2.360   2.206 -1.9183 -0.0678  0.2498
  870SOL     OW 2608   1.555   1.503   0.758 -0.0635  0.2745  0.0571
  870SOL    HW1 2609   1.577   1.604   0.761 -0.7012  0.5003 -0.7920
  870SOL    HW2 2610   1.527   1.474   0.850  1.5483 -0.7711 -2.2098
  871SOL     OW 2611   2.902   1.851   1.995  0.5809  0.3873 -1.1081
  871SOL    HW1 2612   2.843   1.931   2.016  1.2031 -1.6662 -0.7620
  871SOL    HW2 2613   2.987   1.849   2.053 -0.1436 -0.0332  0.4574
  872SOL     OW 2614   1.126   1.487   2.701  0.0786 -0.5025 -0.3056
  872SOL    HW1 2615   1.086   1.509   2.606  2.3424 -1.2878  0.4223
  872SOL    HW2 2616   1.186   1.405   2.689  0.1903 -0.8274 -1.7871
  873SOL     OW 2617   0.623   1.166   1.685  0.3560  0.0710  0.5571
  873SOL    HW1 2618   0.657   1.262   1.702  0.3243  0.8133 -0.3977
  873SOL    HW2 2619   0.641   1.106   1.769 -3.6972 -3.3057  2.6959
  874SOL     OW 2620   1.759   1.107   1.558  0.0951  0.3924 -0.1754
  874SOL    HW1 2621   1.759   1.031   1.490 -1.5284 -1.0181 -0.4965
  874SOL    HW2 2622   1.844   1.099   1.611 -1.0922  0.5169 -0.8019
  875SOL     OW 2623   2.808   0.181   3.085  0.1127  0.3495  0.1146
  875SOL    HW1 2624   2.734   0.182   0.044  1.6470 -0.4180  1.3875
  875SOL    HW2 2625   2.892   0.226   0.004  1.4285  0.7825 -0.5727
  876SOL     OW 2626   0.907   1.281   0.143  0.4743  0.2944 -0.0584
  876SOL    HW1 2627   0.941   1.193   0.181 -1.4686  0.2511  0.6486
  876SOL    HW2 2628   0.926   1.281   0.044 -1.6454 -0.0666 -0.1140
  877SOL     OW 2629   2.808   2.781   0.659  0.3967  0.3753  0.0965
  877SOL    HW1 2630   2.744   2.803   0.732  1.1822  1.1700 -1.2126
  877SOL    HW2 2631   2.821   2.682   0.641 -0.4932  0.1294 -2.2748
  878SOL     OW 2632   2.030   1.820   0.538  0.6197  0.1294 -0.3290
  878SOL    HW1 2633   2.084   1.860   0.462  0.8948 -1.4529  0.6739
  878SOL    HW2 2634   1.965   1.887   0.581 -0.2876  0.7798  0.3013
  879SOL     OW 2635   2.726   1.643   1.964  0.2437  0.2001  0.1793
  879SOL    HW1 2636   2.719   1.587   1.877 -2.1196  0.1620  0.0606
  879SOL    HW2 2637   2.811   1.697   1.960  0.2165 -2.5558 -0.1379
  880SOL     OW 2638   0.525   2.086   0.916  0.2760  0.2586 -0.3982
  880SOL    HW1 2639   0.538   2.021   0.992 -1.4857  1.7213 -1.5442
  880SOL    HW2 2640   0.508   2.030   0.832  4.0544  3.1861 -1.7593
  881SOL     OW 2641   0.782   0.347   1.415  0.2518  0.0976 -0.3276
  881SOL    HW1 2642   0.746   0.412   1.482 -0.9905  0.9252 -2.5833
  881SOL    HW2 2643   0.745   0.254   1.433 -1.4531 -1.2804  2.8305
  882SOL     OW 2644   2.259   1.109   1.008 -0.0930 -0.3001  0.0646
  882SOL    HW1 2645   2.177   1.169   1.009  1.3059  1.1228  1.4743
  882SOL    HW2 2646   2.327   1.142   1.074 -1.6725  0.5438  0.4162
  883SOL     OW 2647   1.361   0.173   1.674 -0.4335 -0.1285  0.5698
  883SOL    HW1 2648   1.405   0.158   1.763  2.4099  0.0835 -0.8242
  883SOL    HW2 2649   1.399   0.117   1.599 -0.5241  1.0567 -0.7246
  884SOL     OW 2650   2.920   0.411   2.167  0.0695 -0.2062 -0.1333
  884SOL    HW1 2651   2.897   0.508   2.141 -2.3111 -2.7660 -1.8827
  884SOL    HW2 2652   3.002   0.379   2.125 -2.3625 -1.1952  1.5514
  885SOL     OW 2653   1.402   1.535   3.030 -0.8079  0.3580  0.1832
  885SOL    HW1 2654   1.342   1.599   2.974 -1.7699 -3.2122  2.6170
  885SOL    HW2 2655   1.501   1.560   3.026  1.2674  1.0350  0.5793
  886SOL     OW 2656   2.050   0.351   2.943  0.6856 -0.4029  0.0853
  886SOL    HW1 2657   2.091   0.299   3.023 -0.5306  0.8911  1.3941
  886SOL    HW2 2658   1.961   0.390   2.968  1.4282  1.0858 -3.1411
  887SOL     OW 2659   1.451   2.821   1.671 -0.0005 -0.7036 -0.6620
  887SOL    HW1 2660   1.546   2.853   1.642  2.3150  2.0596 -0.2126
  887SOL    HW2 2661   1.430   2.733   1.630 -2.2893  2.4637  4.2053
  888SOL     OW 2662   1.882   1.712   2.152  0.2191 -0.5134  0.1545
  888SOL    HW1 2663   1.822   1.735   2.076  3.4303 -1.9859  0.0829
  888SOL    HW2 2664   1.974   1.700   2.110  0.9638 -0.9420  0.3991
  889SOL     OW 2665   2.101   2.362   0.665  0.4841 -0.4479  0.4537
  889SOL    HW1 2666   2.174   2.301   0.623  1.6073 -1.5656  0.7890
  889SOL    HW2 2667   2.138   2.417   0.737 -0.1559 -4.3807 -3.0095
  890SOL     OW 2668   1.579   2.000   0.495 -0.0180  0.3036  0.1634
  890SOL    HW1 2669   1.512   2.061   0.454  0.9281 -1.4368  2.2672
  890SOL    HW2 2670   1.575   1.909   0.446 -0.7704  0.6425 -0.3257
  891SOL     OW 2671   2.733   0.908   3.057 -0.1799  0.2984  0.0397
  891SOL    HW1 2672   2.665   0.962   3.107  3.4371  0.0093  0.2530
  891SOL    HW2 2673   2.829   0.935   3.089  1.2786 -0.4738  3.9336
  892SOL     OW 2674   2.197   1.127   3.111 -0.1826 -0.3166  0.0542
  892SOL    HW1 2675   2.103   1.141   0.035 -0.5844 -0.9902  1.4289
  892SOL    HW2 2676   2.230   1.225   3.106  0.4302  2.6765 -0.3497
  893SOL     OW 2677   1.842   2.563   1.570 -0.3377 -0.2172  0.1509
  893SOL    HW1 2678   1.794   2.646   1.533  0.6320  1.6192 -0.4035
  893SOL    HW2 2679   1.944   2.569   1.571 -0.2507 -0.2652 -2.7649
  894SOL     OW 2680   2.599   2.862   0.482  0.1551 -0.3893 -0.3563
  894SOL    HW1 2681   2.647   2.876   0.394 -1.7310  0.1173 -0.1667
  894SOL    HW2 2682   2.670   2.850   0.554 -1.5008 -2.8176 -2.3789
  895SOL     OW 2683   2.256   2.478   2.875 -0.3183  0.0152  0.3558
  895SOL    HW1 2684   2.325   2.469   2.798 -1.2732 -1.4167 -0.7127
  895SOL    HW2 2685   2.199   2.562   2.871  2.7542  0.3415  1.9618
  896SOL     OW 2686   2.329   0.159   2.473 -0.4259  0.5151  0.4199
  896SOL    HW1 2687   2.303   0.198   2.564  0.2272 -0.4322 -1.2375
  896SOL    HW2 2688   2.241   0.158   2.419 -0.3224 -0.2592 -1.3977
  897SOL     OW 2689   0.184   1.680   2.029  0.1727 -0.3924  0.0188
  897SOL    HW1 2690   0.166   1.585   2.045  0.7567  2.7344 -0.4618
  897SOL    HW2 2691   0.287   1.696   2.043 -0.1783 -1.4314 -2.0349
  898SOL     OW 2692   2.608   1.894   1.652 -0.2971  0.1226 -0.5212
  898SOL    HW1 2693   2.569   1.901   1.748  1.1708 -0.5096  0.8197
  898SOL    HW2 2694   2.697   1.935   1.646  0.1156  1.7722  0.6082
  899SOL     OW 2695   1.666   2.761   1.478 -0.5095 -0.0447 -0.2210
  899SOL    HW1 2696   1.707   2.826   1.550 -1.6873  1.3000  1.9891
  899SOL    HW2 2697   1.621   2.816   1.406  2.6278  0.1289  1.7798
  900SOL     OW 2698   1.050   0.800   0.103  0.4975 -0.2964  0.3648
  900SOL    HW1 2699   1.120   0.774   0.035 -0.0637 -1.3918  1.6498
  900SOL    HW2 2700   0.954   0.780   0.067 -1.1327  0.4655 -0.3343
  901SOL     OW 2701   1.194   1.348   2.335 -0.0921  0.0350 -0.2045
  901SOL    HW1 2702   1.222   1.256   2.293 -2.1150 -1.5107 -0.5383
  901SOL    HW2 2703   1.204   1.425   2.271  1.6559 -1.6500  0.0348
  902SOL     OW 2704   0.049   2.233   0.292  0.2020  0.0028  0.1576
  902SOL    HW1 2705   0.067   2.148   0.237  3.1160 -0.6338 -4.3454
  902SOL    HW2 2706   3.065   2.262   0.270 -1.1469  1.1394  2.3109
  903SOL     OW 2707   2.375   1.021   1.995  0.1108  0.1667  0.0024
  903SOL    HW1 2708   2.427   0.946   2.037 -3.1801  2.2807  0.2784
  903SOL    HW2 2709   2.410   1.117   2.010 -3.0580  2.5226  1.1208
  904SOL     OW 2710   1.535   0.821   2.957 -0.0760  0.1439  0.1702
  904SOL    HW1 2711   1.467   0.894   2.980  1.0915  0.4412  0.0509
  904SOL    HW2 2712   1.630   0.847   2.974 -1.2931  1.9934  0.1678
  905SOL     OW 2713   2.470   2.624   1.003 -0.1656 -0.4040 -0.2939
  905SOL    HW1 2714   2.370   2.643   1.029 -2.1962 -0.3465  2.9864
  905SOL    HW2 2715   2.481   2.524   1.011 -2.5094 -1.5126  0.8456
  906SOL     OW 2716   1.589   1.958   3.038  0.3008  0.1854 -0.3663
  906SOL    HW1 2717   1.538   2.036   2.994 -0.8833  1.8283  0.6768
  906SOL    HW2 2718   1.547   1.946   0.021  0.0483 -1.5585  1.3403
  907SOL     OW 2719   0.941   2.659   0.421 -0.0938 -0.5787  0.0496
  907SOL    HW1 2720   0.843   2.688   0.433 -2.1543  2.9319 -2.4804
  907SOL    HW2 2721   0.954   2.558   0.405  1.1306 -1.3059  2.6669
  908SOL     OW 2722   1.312   2.688   1.997 -0.1252  0.2551  0.1490
  908SOL    HW1 2723   1.267   2.626   1.932  0.2951 -0.7754  1.2207
  908SOL    HW2 2724   1.380   2.749   1.956 -1.8783  1.2878  2.3347
  909SOL     OW 2725   1.817   0.434   1.341  0.3473  0.2029 -0.7574
  909SOL    HW1 2726   1.798   0.338   1.360  0.4292  1.2002  0.1689
  909SOL    HW2 2727   1.734   0.493   1.351 -2.2566 -1.9308  0.4295
  910SOL     OW 2728   1.195   0.778   2.969 -0.6781 -0.3260 -0.1609
  910SOL    HW1 2729   1.136   0.842   2.914  0.2866  0.7724  1.1860
  910SOL    HW2 2730   1.254   0.722   2.903  1.4548 -1.3709  0.1115
  911SOL     OW 2731   2.821   0.623   0.083 -0.4476  0.4419 -0.1312
  911SOL    HW1 2732   2.775   0.690   0.026  0.2436  0.4874  1.3991
  911SOL    HW2 2733   2.776   0.601   0.173  3.0556  0.5296 -0.9036
  912SOL     OW 2734   0.207   2.251   2.950 -0.0410  0.8030  0.0842
  912SOL    HW1 2735   0.209   2.173   2.884 -1.9908 -1.5034 -1.3695
  912SOL    HW2 2736   0.286   2.244   3.016 -1.2703 -0.0803  3.1463
  913SOL     OW 2737   2.625   1.990   2.829  0.0374 -0.1601 -0.0781
  913SOL    HW1 2738   2.630   2.094   2.824  2.1470  1.8112  4.2222
  913SOL    HW2 2739   2.706   1.951   2.874 -1.7158  1.2808  0.7157
  914SOL     OW 2740   1.382   1.711   1.594  0.2604  0.9069  0.0911
  914SOL    HW1 2741   1.402   1.690   1.495  1.3716 -2.5358 -1.7925
  914SOL    HW2 2742   1.332   1.798   1.596  1.4765 -1.0099 -1.9837
  915SOL     OW 2743   0.622   2.691   2.189  0.3756  0.0178  0.0301
  915SOL    HW1 2744   0.588   2.789   2.207 -0.4617 -1.6031  1.8313
  915SOL    HW2 2745   0.668   2.655   2.271 -0.8205 -2.4585 -0.2496
  916SOL     OW 2746   0.414   1.291   1.567  0.0029  0.3952 -0.2903
  916SOL    HW1 2747   0.481   1.230   1.618 -0.8473  0.7940  1.0905
  916SOL    HW2 2748   0.345   1.226   1.523 -0.6001 -2.6986 -0.6280
  917SOL     OW 2749   2.309   0.403   0.149 -0.3096 -0.2978  0.6498
  917SOL    HW1 2750   2.260   0.333   0.091  1.7253  1.8469 -0.4954
  917SOL    HW2 2751   2.409   0.399   0.148  0.5100  1.2095 -0.3012
  918SOL     OW 2752   1.449   2.671   2.316  0.5077 -0.3597 -0.3172
  918SOL    HW1 2753   1.460   2.578   2.282 -3.1222  3.0747  3.2186
  918SOL    HW2 2754   1.350   2.701   2.328 -2.8926 -0.9970  2.4739
  919SOL     OW 2755   1.665   2.585   1.787  0.8235 -0.3377  0.3915
  919SOL    HW1 2756   1.713   2.621   1.869  1.9477  2.0393  1.4451
  919SOL    HW2 2757   1.730   2.540   1.720  1.1550 -1.5476  2.6994
  920SOL     OW 2758   0.775   1.011   2.959 -0.1577 -0.2948  0.8735
  920SOL    HW1 2759   0.717   1.074   2.903  0.7222  0.6993  0.3615
  920SOL    HW2 2760   0.732   0.973   3.044 -1.2947  0.1314 -0.7159
  921SOL     OW 2761   0.180   0.728   2.641  0.1826  0.3871  0.1655
  921SOL    HW1 2762   0.092   0.682   2.636 -0.5561 -0.0237  2.2551
  921SOL    HW2 2763   0.231   0.722   2.550 -0.7178  3.1569 -0.1110
  922SOL     OW 2764   0.809   1.875   0.473 -0.0316 -0.0899 -0.7880
  922SOL    HW1 2765   0.904   1.843   0.458 -1.1031  1.5271  1.2865
  922SOL    HW2 2766   0.768   1.839   0.561  2.0785 -0.4384  1.8153
  923SOL     OW 2767   0.357   1.144   2.241 -0.4059  0.0366 -0.7197
  923SOL    HW1 2768   0.360   1.080   2.165  1.9357 -0.8582  1.8670
  923SOL    HW2 2769   0.362   1.240   2.207 -0.4664  1.8024  1.9126
  924SOL     OW 2770   1.368   2.880   2.788 -0.0902 -0.4027 -0.3243
  924SOL    HW1 2771   1.417   2.796   2.767 -2.4348  1.4040 -0.6024
  924SOL    HW2 2772   1.378   2.901   2.887 -0.6788 -2.7385 -2.8929
  925SOL     OW 2773   2.655   1.661   1.509  0.9516  0.3244 -0.1278
  925SOL    HW1 2774   2.637   1.745   1.565 -0.5788  1.3502  1.8854
  925SOL    HW2 2775   2.735   1.678   1.449  1.9465  1.0373 -1.5277
  926SOL     OW 2776   2.078   0.771   1.696 -0.4960  0.4289 -0.2103
  926SOL    HW1 2777   2.164   0.720   1.695  1.2243  0.2506  1.1861
  926SOL    HW2 2778   2.012   0.713   1.640 -0.0664  3.3358  1.2230
  927SOL     OW 2779   2.499   2.732   1.684  0.5891  0.4176 -0.6921
  927SOL    HW1 2780   2.455   2.823   1.679  2.6984 -1.0207 -2.7683
  927SOL    HW2 2781   2.600   2.743   1.692 -0.5688 -0.0654  1.3478
  928SOL     OW 2782   0.288   0.784   2.386  0.6240 -0.0664 -0.7964
  928SOL    HW1 2783   0.259   0.881   2.398  0.7202 -0.5048 -0.9202
  928SOL    HW2 2784   0.384   0.780   2.355 -1.5309 -0.2928 -3.7587
  929SOL     OW 2785   2.146   0.210   0.779 -0.3087  0.2018 -0.0390
  929SOL    HW1 2786   2.244   0.194   0.758 -1.2903  1.4079  0.0997
  929SOL    HW2 2787   2.139   0.285   0.847  1.6988  0.8655 -1.9493
  930SOL     OW 2788   2.862   2.894   1.856  0.1963 -0.1168 -0.0317
  930SOL    HW1 2789   2.882   2.950   1.942 -3.0008  1.2216  1.7016
  930SOL    HW2 2790   2.948   2.853   1.819 -0.4183  0.1486 -0.6642
  931SOL     OW 2791   1.965   0.778   0.412 -0.1028 -0.2634  0.1776
  931SOL    HW1 2792   1.990   0.762   0.511  0.2872 -0.7823 -0.6026
  931SOL    HW2 2793   2.025   0.847   0.369  0.3108 -2.9538 -2.4222
  932SOL     OW 2794   2.606   1.271   1.815 -0.6567 -0.1585  0.1415
  932SOL    HW1 2795   2.526   1.290   1.875  0.1300 -0.9068  2.6836
  932SOL    HW2 2796   2.588   1.189   1.750  0.2340 -3.8772 -0.1518
  933SOL     OW 2797   2.966   2.380   1.603 -0.3601  0.1624  0.2927
  933SOL    HW1 2798   2.897   2.437   1.650  0.0814  0.3683  0.7399
  933SOL    HW2 2799   3.054   2.427   1.598  1.0308 -0.6833 -0.2422
  934SOL     OW 2800   0.565   1.987   1.517 -0.0533 -0.2931  0.1104
  934SOL    HW1 2801   0.614   2.065   1.476 -0.0202 -1.6524 -1.1263
  934SOL    HW2 2802   0.537   2.009   1.612  1.0275  0.6715  1.8019
  935SOL     OW 2803   2.701   1.557   2.216  0.3105  0.0797 -0.1041
  935SOL    HW1 2804   2.709   1.595   2.122  1.1404  1.5343  2.3168
  935SOL    HW2 2805   2.627   1.484   2.224  0.9279 -0.4632 -2.5053
  936SOL     OW 2806   2.368   1.674   2.264  0.2252  0.4853 -0.1269
  936SOL    HW1 2807   2.390   1.631   2.178  1.3723  0.1427  1.6803
  936SOL    HW2 2808   2.296   1.740   2.253  3.1015 -0.3856 -0.0041
  937SOL     OW 2809   2.292   1.725   1.830 -0.1705 -0.1895  0.5263
  937SOL    HW1 2810   2.350   1.684   1.903 -1.6229  1.5210  2.3958
  937SOL    HW2 2811   2.321   1.826   1.814  0.3957  1.9751 -0.3728
  938SOL     OW 2812   0.566   2.256   2.690 -0.0445 -0.0274  0.4820
  938SOL    HW1 2813   0.660   2.271   2.661  1.1542  0.2727 -0.4983
  938SOL    HW2 2814   0.538   2.318   2.767 -1.8082  0.2213 -0.7609
  939SOL     OW 2815   2.324   1.048   2.887  0.3134  0.0350 -0.5607
  939SOL    HW1 2816   2.261   0.990   2.837  0.5556  2.1435 -0.9779
  939SOL    HW2 2817   2.271   1.095   2.962 -1.4528  0.0052 -0.6490
  940SOL     OW 2818   1.272   1.773   0.628 -0.1529 -0.4742  0.2353
  940SOL    HW1 2819   1.304   1.681   0.612 -1.5920  0.6287 -0.8724
  940SOL    HW2 2820   1.240   1.783   0.724  0.8693 -0.7024 -4.4224
  941SOL     OW 2821   1.630   2.707   2.539  0.7345  0.1196 -0.0520
  941SOL    HW1 2822   1.590   2.679   2.630 -1.1420 -0.9375  0.1429
  941SOL    HW2 2823   1.569   2.670   2.460 -2.6220 -1.2009 -0.8339
  942SOL     OW 2824   0.856   2.372   0.411 -0.0162  0.0702  0.1784
  942SOL    HW1 2825   0.869   2.372   0.309  0.9246 -0.0852 -1.2471
  942SOL    HW2 2826   0.913   2.299   0.454 -1.9372 -0.3629 -1.1212
  943SOL     OW 2827   1.705   2.958   1.666 -0.1376 -0.2378 -0.0869
  943SOL    HW1 2828   1.770   2.946   1.742 -1.6470 -1.9081 -0.5321
  943SOL    HW2 2829   1.695   3.057   1.640 -0.1642 -1.3652 -0.5385
  944SOL     OW 2830   0.894   1.409   2.861 -0.5908 -0.2337 -0.0254
  944SOL    HW1 2831   0.953   1.439   2.783 -0.6186  0.2970 -1.3997
  944SOL    HW2 2832   0.807   1.363   2.822 -0.2312  1.4521 -0.0065
  945SOL     OW 2833   0.135   2.424   0.759  0.1987  0.1033 -0.2632
  945SOL    HW1 2834   0.043   2.443   0.795 -0.6788 -1.6560  0.0778
  945SOL    HW2 2835   0.151   2.325   0.754  2.3923 -0.8162 -1.8934
  946SOL     OW 2836   0.674   1.301   2.720  0.8124  0.1892 -0.6411
  946SOL    HW1 2837   0.659   1.304   2.619  1.0569 -0.2243  1.9711
  946SOL    HW2 2838   0.613   1.225   2.760 -4.7323 -1.5276  1.1982
  947SOL     OW 2839   2.595   3.044   1.880  0.1760 -0.0534 -0.1986
  947SOL    HW1 2840   2.695   3.024   1.861  1.8076  0.1919 -0.8752
  947SOL    HW2 2841   2.577   3.073   1.979 -0.5430  0.3829  3.3959
  948SOL     OW 2842   0.097   1.806   1.172 -0.1548  0.6878 -0.2405
  948SOL    HW1 2843   0.172   1.815   1.103  1.0124 -0.8019 -1.4322
  948SOL    HW2 2844   0.136   1.759   1.255 -1.4723 -2.0609 -2.5873
  949SOL     OW 2845   0.978   0.916   1.682 -0.4625 -0.3534  0.8110
  949SOL    HW1 2846   1.049   0.894   1.752  1.1354  3.5926  1.2849
  949SOL    HW2 2847   0.976   1.020   1.669  1.5076  0.7802 -0.9664
  950SOL     OW 2848   3.032   0.961   1.037 -0.3615  0.4344  0.1447
  950SOL    HW1 2849   3.038   0.860   1.026 -0.3472  0.1811  1.2979
  950SOL    HW2 2850   0.006   1.011   1.007  1.0324  1.6903 -2.6366
  951SOL     OW 2851   0.496   2.023   2.246  0.3460  0.2016 -0.0158
  951SOL    HW1 2852   0.585   1.996   2.287  0.0162 -0.8888  0.8593
  951SOL    HW2 2853   0.437   2.062   2.320 -2.7876 -2.2300  0.4098
  952SOL     OW 2854   1.394   2.152   0.362  0.3272  0.6311  0.0638
  952SOL    HW1 2855   1.391   2.247   0.397  0.0527 -3.5182 -0.3069
  952SOL    HW2 2856   1.301   2.123   0.348 -1.8574 -1.9735  1.9930
  953SOL     OW 2857   1.049   0.541   0.219 -0.0563 -0.0616  0.4940
  953SOL    HW1 2858   1.034   0.455   0.171  1.2922  1.8883  2.6687
  953SOL    HW2 2859   1.017   0.626   0.171  0.4423  2.3700 -0.3531
  954SOL     OW 2860   2.034   0.744   0.661 -0.3080 -0.5566  0.2407
  954SOL    HW1 2861   1.961   0.684   0.704  1.1685 -1.5918  0.4363
  954SOL    HW2 2862   2.046   0.828   0.718  0.9271  1.7325  0.3042
  955SOL     OW 2863   2.419   1.407   0.451  0.0904 -0.1598  0.4636
  955SOL    HW1 2864   2.385   1.503   0.438 -2.2552 -0.4894 -0.5773
  955SOL    HW2 2865   2.516   1.396   0.421 -1.9167 -0.4403 -0.7773
  956SOL     OW 2866   0.696   0.563   1.603  0.0782 -0.5976 -0.4698
  956SOL    HW1 2867   0.596   0.568   1.605 -1.8672 -0.9071 -3.1606
  956SOL    HW2 2868   0.730   0.651   1.567  0.4318  0.4097  0.4559
  957SOL     OW 2869   1.769   0.764   1.047 -0.3379 -0.5422  0.2532
  957SOL    HW1 2870   1.848   0.789   0.991 -2.3943 -0.7462  3.4933
  957SOL    HW2 2871   1.698   0.835   1.045 -0.9265  1.6657 -1.8585
  958SOL     OW 2872   0.489   1.975   0.673  0.0391  0.0397 -0.0844
  958SOL    HW1 2873   0.445   1.902   0.621  1.9190  3.5806  0.8209
  958SOL    HW2 2874   0.507   2.066   0.623  0.9915  0.2519 -0.5220
  959SOL     OW 2875   1.954   1.907   1.598 -0.4144  0.0426 -0.3391
  959SOL    HW1 2876   1.951   1.914   1.701 -1.3739 -2.8690  0.5527
  959SOL    HW2 2877   2.031   1.841   1.575  1.1859 -0.5401  0.4332
  960SOL     OW 2878   3.104   1.917   2.760  0.2119  0.3176  0.6444
  960SOL    HW1 2879   3.031   1.928   2.828  1.2373  0.5721  1.1044
  960SOL    HW2 2880   3.109   1.823   2.724 -0.5072  1.6453  0.0841
  961SOL     OW 2881   1.069   1.322   0.860  0.2592 -0.1381 -0.3738
  961SOL    HW1 2882   1.049   1.417   0.825  1.2324  0.8237  1.5349
  961SOL    HW2 2883   1.163   1.291   0.840 -0.9172 -2.0793  0.1692
  962SOL     OW 2884   0.865   0.874   0.622  0.2112 -0.7803 -0.3800
  962SOL    HW1 2885   0.929   0.937   0.674  1.3178 -0.7114 -0.3152
  962SOL    HW2 2886   0.921   0.812   0.565  1.9169 -0.2577 -0.5297
  963SOL     OW 2887   1.177   1.780   1.932  0.2618  0.2519 -0.1873
  963SOL    HW1 2888   1.103   1.710   1.947  0.6887  0.5653 -1.8992
  963SOL    HW2 2889   1.268   1.770   1.975  1.0997 -2.2675 -0.5241
  964SOL     OW 2890   0.171   2.784   2.411 -0.3352  0.0235 -0.4046
  964SOL    HW1 2891   0.226   2.721   2.478 -0.1805 -1.3864  4.3531
  964SOL    HW2 2892   0.106   2.840   2.465  0.3636  3.8874 -2.1318
  965SOL     OW 2893   0.825   2.140   0.126  0.1214  0.1650  0.1851
  965SOL    HW1 2894   0.850   2.238   0.112  2.0940 -0.2715 -2.9828
  965SOL    HW2 2895   0.791   2.116   0.036  1.2745  0.6698  1.1537
  966SOL     OW 2896   3.034   1.784   0.022 -0.1480  0.8855  0.2039
  966SOL    HW1 2897   2.971   1.782   0.100  1.1617 -0.6049 -0.2804
  966SOL    HW2 2898   3.107   1.708   0.027  3.5834 -0.7191  2.5509
  967SOL     OW 2899   1.872   2.603   2.809 -0.0015  0.8716  0.0604
  967SOL    HW1 2900   1.872   2.551   2.894 -0.3696  3.0316 -2.6657
  967SOL    HW2 2901   1.835   2.693   2.817  4.0182 -1.8482  2.0357
  968SOL     OW 2902   2.599   2.812   0.853  0.2285  1.0460  0.2202
  968SOL    HW1 2903   2.619   2.881   0.922  1.2640 -1.1760 -0.5310
  968SOL    HW2 2904   2.558   2.729   0.898  1.1054  1.0695  0.4269
  969SOL     OW 2905   0.555   1.055   2.405 -0.4838 -0.0363 -0.7132
  969SOL    HW1 2906   0.612   1.137   2.420  2.4639  2.6310  0.9467
  969SOL    HW2 2907   0.470   1.086   2.359 -0.9962 -0.2391  0.2877
  970SOL     OW 2908   1.840   1.134   0.668 -0.2986  0.0594  0.0524
  970SOL    HW1 2909   1.784   1.133   0.751 -1.0040  0.7049 -2.1785
  970SOL    HW2 2910   1.940   1.110   0.696  1.1405 -0.0395 -0.1669
  971SOL     OW 2911   2.195   3.068   1.581  0.4073 -0.4538  0.4959
  971SOL    HW1 2912   2.251   3.026   1.653  0.4696 -0.7361 -1.7416
  971SOL    HW2 2913   2.258   0.008   1.521  0.3443 -3.5724  0.1050
  972SOL     OW 2914   3.059   0.271   1.276 -0.1129  0.4349 -0.0689
  972SOL    HW1 2915   3.082   0.175   1.252  1.3985 -3.1523 -2.0084
  972SOL    HW2 2916   3.037   0.281   1.375 -1.5583  2.1722  1.1151
  973SOL     OW 2917   0.057   0.293   2.480  0.0594  0.0616 -0.4434
  973SOL    HW1 2918   0.133   0.281   2.547  4.1785 -0.5825  2.4295
  973SOL    HW2 2919   0.079   0.355   2.402  0.7825 -0.2626 -1.7010
  974SOL     OW 2920   2.416   1.319   2.011 -0.2191 -0.0673  0.7450
  974SOL    HW1 2921   2.314   1.324   2.008 -0.2849 -2.0570  1.7191
  974SOL    HW2 2922   2.450   1.333   2.107  0.2175 -1.5141 -0.9708
  975SOL     OW 2923   1.000   0.466   1.533 -0.1248  0.7839 -0.7593
  975SOL    HW1 2924   0.934   0.430   1.462  1.5237 -1.1639  1.0696
  975SOL    HW2 2925   0.948   0.522   1.604 -0.3489 -0.2373  2.2446
  976SOL     OW 2926   0.682   1.436   1.665 -0.2171 -0.0521 -0.1283
  976SOL    HW1 2927   0.746   1.517   1.677  0.3391 -1.9352  1.5416
  976SOL    HW2 2928   0.641   1.444   1.574  1.7671  0.6508  2.6625
  977SOL     OW 2929   0.953   0.071   0.138  0.3668  0.0732 -0.2140
  977SOL    HW1 2930   0.954   0.083   0.035 -0.7157 -1.3019 -2.1524
  977SOL    HW2 2931   1.043   0.055   0.181 -1.6547  0.9794  0.4808
  978SOL     OW 2932   2.548   1.320   2.239  0.2013 -0.2468 -0.2794
  978SOL    HW1 2933   2.493   1.278   2.316  0.0378 -0.1767  1.3140
  978SOL    HW2 2934   2.647   1.294   2.246  0.2199 -0.5788 -1.4651
  979SOL     OW 2935   1.430   0.415   2.074 -0.0672  0.8881  0.3585
  979SOL    HW1 2936   1.342   0.368   2.068  1.7871  1.4538 -0.1235
  979SOL    HW2 2937   1.461   0.441   1.978  0.7531  0.0488 -4.1210
  980SOL     OW 2938   1.569   1.702   1.836 -0.3251  0.3278 -0.2064
  980SOL    HW1 2939   1.479   1.688   1.789  0.9452 -1.5209  0.7692
  980SOL    HW2 2940   1.647   1.649   1.800 -1.0034  1.0192 -0.5933
  981SOL     OW 2941   2.615   1.076   1.652  0.7122  0.2233  0.4357
  981SOL    HW1 2942   2.605   1.067   1.550 -0.1777 -1.7367  2.2693
  981SOL    HW2 2943   2.617   0.988   1.699 -1.3168 -0.8733 -0.2108
  982SOL     OW 2944   0.480   0.161   2.911  0.0358 -0.1538  0.4978
  982SOL    HW1 2945   0.521   0.257   2.893  0.1303  2.0790  0.4579
  982SOL    HW2 2946   0.538   0.095   2.961  1.9610  0.6967  1.4194
  983SOL     OW 2947   2.140   0.587   2.846 -0.7178  0.0228  0.2488
  983SOL    HW1 2948   2.239   0.615   2.860  2.5856  3.3180 -1.4005
  983SOL    HW2 2949   2.121   0.503   2.896  1.4000  0.9481 -3.9802
  984SOL     OW 2950   1.166   2.943   1.739  0.2532  0.4260 -0.0738
  984SOL    HW1 2951   1.264   2.906   1.741  0.5714 -0.5810  0.3385
  984SOL    HW2 2952   1.112   2.899   1.813  1.3018 -2.5679 -1.3258
  985SOL     OW 2953   1.608   1.968   2.126 -0.0437  0.1228 -0.3377
  985SOL    HW1 2954   1.665   1.927   2.047  1.8883 -1.2118 -0.5830
  985SOL    HW2 2955   1.541   2.032   2.085  1.0243 -0.6726 -0.7343
  986SOL     OW 2956   2.166   0.319   1.663  0.0603  0.3512  0.0030
  986SOL    HW1 2957   2.259   0.296   1.628 -0.1527 -3.0439  0.4723
  986SOL    HW2 2958   2.140   0.247   1.731 -1.9359  0.1217  0.4198
  987SOL     OW 2959   2.476   1.200   1.183  0.4999  0.4399 -0.3065
  987SOL    HW1 2960   2.475   1.298   1.145 -2.5536  1.5245 -1.4537
  987SOL    HW2 2961   2.515   1.194   1.278  1.2547  0.6522 -0.2251
  988SOL     OW 2962   2.343   2.273   1.526 -1.0564  1.0703 -0.2512
  988SOL    HW1 2963   2.374   2.356   1.582 -1.4598  1.6245  3.0332
  988SOL    HW2 2964   2.246   2.251   1.553 -0.5985  0.5202  0.4153
  989SOL     OW 2965   1.119   2.497   3.094  0.2024  0.3484  0.2032
  989SOL    HW1 2966   1.179   2.565   3.048 -0.6073 -2.7876  1.5873
  989SOL    HW2 2967   1.167   2.455   0.062 -2.8201  0.9529  0.2245
  990SOL     OW 2968   1.857   1.119   2.767  0.0525  0.2668  0.1938
  990SOL    HW1 2969   1.958   1.131   2.753  0.1700  1.7809 -1.3702
  990SOL    HW2 2970   1.808   1.122   2.676 -0.1453 -0.6599 -0.8778
  991SOL     OW 2971   1.328   0.247   0.424 -1.0832  0.6404  0.5124
  991SOL    HW1 2972   1.383   0.231   0.510 -0.2207  2.1303  0.4952
  991SOL    HW2 2973   1.304   0.343   0.403 -0.7041 -2.0446 -0.9318
  992SOL     OW 2974   2.682   1.084   1.389 -0.2305 -0.0714  0.1230
  992SOL    HW1 2975   2.744   1.028   1.334 -0.1570 -2.7147 -3.6736
  992SOL    HW2 2976   2.736   1.166   1.421  0.3510 -3.2015 -1.6207
  993SOL     OW 2977   2.647   0.769   1.754 -0.6187  0.5292 -0.0038
  993SOL    HW1 2978   2.635   0.677   1.794 -1.2555 -0.8198  2.0700
  993SOL    HW2 2979   2.695   0.831   1.818  3.2238  1.7419 -1.8726
  994SOL     OW 2980   0.611   1.969   2.761 -0.4240 -0.0479 -0.2488
  994SOL    HW1 2981   0.597   2.071   2.764 -0.1112  3.8946  2.2720
  994SOL    HW2 2982   0.555   1.932   2.683  1.9795  0.0717  1.3690
  995SOL     OW 2983   2.064   1.267   2.624  0.1725  0.7011 -0.0450
  995SOL    HW1 2984   2.031   1.224   2.539 -0.1721  2.0420  1.0156
  995SOL    HW2 2985   2.017   1.354   2.642 -0.3335 -1.9268  3.7595
  996SOL     OW 2986   2.496   1.672   0.427  0.2754 -0.1603 -0.6102
  996SOL    HW1 2987   2.487   1.750   0.492 -1.3378  2.9994 -1.3339
  996SOL    HW2 2988   2.571   1.615   0.444 -1.0848  2.4537  0.8244
  997SOL     OW 2989   2.092   0.786   2.172 -0.3273 -0.7289  0.8384
  997SOL    HW1 2990   2.103   0.840   2.083  1.4572 -0.0827 -0.4542
  997SOL    HW2 2991   2.065   0.688   2.149 -0.1752  3.1322  0.4183
  998SOL     OW 2992   2.593   1.083   0.115 -0.3267 -0.1050 -0.1704
  998SOL    HW1 2993   2.503   1.044   0.148  0.1253 -0.2622  2.1651
  998SOL    HW2 2994   2.587   1.181   0.088 -0.1717  0.2657  0.3604
  999SOL     OW 2995   3.066   2.015   0.484 -0.4411 -0.1088 -0.6903
  999SOL    HW1 2996   0.022   2.033   0.411 -0.4383  0.9020  1.9718
  999SOL    HW2 2997   3.073   2.084   0.559  0.1538 -0.0136 -0.0023
 1000SOL     OW 2998   0.763   0.793   2.583 -0.0103  0.3904  0.1055
 1000SOL    HW1 2999   0.804   0.774   2.675  0.0384  0.4188  2.6115
 1000SOL    HW2 3000   0.766   0.706   2.528  2.8477 -0.8033  0.9491
   3.11098   3.11098   3.11098
