1000 SPC/Fw water molecules t= 223.00000 step= 223000
 3000
    1SOL     OW    1   3.053   2.896   0.857  0.0274  0.3379  0.2411
    1SOL    HW1    2   0.033   2.845   0.893 -1.5824  2.0273 -2.1704
    1SOL    HW2    3   3.043   2.983   0.907  2.9890 -0.7228  2.9372
    2SOL     OW    4   1.897   1.710   1.920 -0.4874  0.4327  0.1729
    2SOL    HW1    5   1.835   1.715   1.998 -0.3447 -0.2602  3.5358
    2SOL    HW2    6   1.885   1.624   1.863 -1.3750 -1.1997  1.2640
    3SOL     OW    7   1.581   2.123   2.360 -0.2032 -0.8099 -0.4471
    3SOL    HW1    8   1.514   2.178   2.415  0.5799  0.8629 -1.0209
    3SOL    HW2    9   1.674   2.153   2.388  0.2714 -0.4160 -0.6455
    4SOL     OW   10   2.079   2.192   2.204  0.4124 -0.1778  0.1691
    4SOL    HW1   11   2.026   2.247   2.266  1.8182  1.5556 -1.2734
    4SOL    HW2   12   2.127   2.114   2.252 -1.4531  0.4249 -1.4116
    5SOL     OW   13   1.570   0.913   1.584 -0.2600 -0.3270  0.1216
    5SOL    HW1   14   1.548   0.945   1.489 -0.2688 -1.1947 -1.0565
    5SOL    HW2   15   1.492   0.924   1.649  0.7124 -0.9342  0.2789
    6SOL     OW   16   2.742   0.285   0.011  0.4333 -0.0003 -0.2706
    6SOL    HW1   17   2.819   0.215   0.023  0.3299 -4.5589 -1.6925
    6SOL    HW2   18   2.704   0.278   3.014 -0.7231  1.3808 -1.3933
    7SOL     OW   19   0.224   1.641   1.377 -0.3910  0.0513  0.2095
    7SOL    HW1   20   0.238   1.549   1.335 -2.5533  0.3653  0.5325
    7SOL    HW2   21   0.303   1.704   1.363 -2.2155  0.7793 -0.2740
    8SOL     OW   22   1.023   0.559   0.900 -0.5424 -0.0905 -0.0978
    8SOL    HW1   23   1.114   0.548   0.945  2.9063  1.4802  0.1824
    8SOL    HW2   24   0.948   0.547   0.973 -1.0487 -1.2732  0.1745
    9SOL     OW   25   1.230   0.480   2.492 -0.5603  0.3206 -0.4670
    9SOL    HW1   26   1.214   0.522   2.399  0.7310  2.7990 -0.8317
    9SOL    HW2   27   1.293   0.399   2.487  0.0689 -0.9463  0.6189
   10SOL     OW   28   0.753   2.539   3.007 -0.2317 -0.1940 -0.0712
   10SOL    HW1   29   0.830   2.479   2.980 -3.5936  0.8545  2.0712
   10SOL    HW2   30   0.788   2.618   3.060 -1.5964  1.5699  1.5239
   11SOL     OW   31   0.671   1.129   3.066  0.0809  0.0106 -0.7132
   11SOL    HW1   32   0.704   1.181   2.982  1.4689 -1.1478 -1.7843
   11SOL    HW2   33   0.570   1.110   3.057 -2.5217  0.3631  0.4993
   12SOL     OW   34   0.142   0.206   1.623 -0.5338  0.4257 -0.4904
   12SOL    HW1   35   0.187   0.292   1.587 -0.1796  0.1782  0.2300
   12SOL    HW2   36   0.202   0.163   1.695  2.5536 -1.5686  1.1218
   13SOL     OW   37   1.234   0.134   0.332 -0.1985 -0.2536 -0.0403
   13SOL    HW1   38   1.201   0.171   0.244  0.0407  4.4494  1.3995
   13SOL    HW2   39   1.297   0.199   0.383  1.5918  1.2641  2.2546
   14SOL     OW   40   1.145   2.600   1.200  0.1541 -0.0185  0.0225
   14SOL    HW1   41   1.133   2.514   1.250 -1.4789 -1.3305 -2.1149
   14SOL    HW2   42   1.194   2.666   1.258 -0.2716 -0.1016 -1.4481
   15SOL     OW   43   2.648   1.236   1.780 -0.0877  0.0459  0.1414
   15SOL    HW1   44   2.736   1.200   1.809  0.1369  2.5340 -0.0027
   15SOL    HW2   45   2.591   1.165   1.738 -0.0638  2.3928 -0.0123
   16SOL     OW   46   1.824   3.074   3.006  0.0210  0.2691 -0.3663
   16SOL    HW1   47   1.919   3.100   3.019 -1.9240 -0.5886  1.1011
   16SOL    HW2   48   1.787   3.022   3.085  0.2194 -1.9177  1.0351
   17SOL     OW   49   0.799   0.060   1.291 -0.0221  0.0026  0.0473
   17SOL    HW1   50   0.729   0.001   1.249  0.4782 -1.1817 -0.7714
   17SOL    HW2   51   0.855   0.010   1.358 -0.0933  0.9319 -0.6567
   18SOL     OW   52   1.274   0.613   0.063 -0.3714  0.3406 -0.6486
   18SOL    HW1   53   1.315   0.539   0.118 -2.1587 -2.1009 -0.1288
   18SOL    HW2   54   1.281   0.704   0.109 -0.0993  0.1133 -1.3133
   19SOL     OW   55   2.174   1.877   0.158 -0.4695  0.1875 -0.4324
   19SOL    HW1   56   2.082   1.907   0.140 -1.5968 -4.5003  1.4888
   19SOL    HW2   57   2.183   1.832   0.249 -0.1176  1.3383  0.0697
   20SOL     OW   58   2.041   1.551   1.562 -0.0312 -0.4607 -0.8694
   20SOL    HW1   59   1.964   1.595   1.519  0.9810 -0.4582  2.1428
   20SOL    HW2   60   2.005   1.503   1.639 -1.2514  2.1321  0.5111
   21SOL     OW   61   0.760   1.233   2.840 -0.5830 -0.4153  0.0917
   21SOL    HW1   62   0.817   1.195   2.769 -1.0442  0.8619  0.8968
   21SOL    HW2   63   0.772   1.335   2.847 -2.8431  1.3915 -0.7392
   22SOL     OW   64   1.891   2.946   1.360  0.0598  0.2776 -0.2327
   22SOL    HW1   65   1.813   3.011   1.384 -0.9390 -3.1744 -1.2802
   22SOL    HW2   66   1.857   2.869   1.307 -2.5611 -0.1159  2.5780
   23SOL     OW   67   3.002   0.511   1.640  0.4354  0.0003  0.4862
   23SOL    HW1   68   3.050   0.579   1.574  5.5177  0.8609 -0.2089
   23SOL    HW2   69   2.992   0.415   1.606 -1.0277 -2.6538  2.1382
   24SOL     OW   70   2.237   2.528   1.284  0.3466 -0.1178 -0.0795
   24SOL    HW1   71   2.340   2.518   1.296  4.1262  1.8392  0.7252
   24SOL    HW2   72   2.200   2.612   1.336 -3.2932 -0.1692  1.4407
   25SOL     OW   73   1.711   2.904   2.416  0.2729  0.3681 -0.2369
   25SOL    HW1   74   1.795   2.856   2.387  1.0622  0.8728 -3.3014
   25SOL    HW2   75   1.624   2.850   2.410  0.5765 -0.0358 -1.9585
   26SOL     OW   76   1.625   2.864   3.076  0.2954 -0.0174  0.0770
   26SOL    HW1   77   1.694   2.801   3.026  2.3313 -1.5468 -1.3992
   26SOL    HW2   78   1.542   2.894   3.019 -2.4601 -0.7414 -2.0049
   27SOL     OW   79   0.293   1.545   2.400 -0.8208 -0.4091  0.5573
   27SOL    HW1   80   0.236   1.606   2.454  2.7248  1.8048  0.4001
   27SOL    HW2   81   0.367   1.604   2.365  0.6610 -0.1843  0.5096
   28SOL     OW   82   2.832   1.166   1.489  0.1089 -0.2696  0.6452
   28SOL    HW1   83   2.893   1.187   1.405  0.1104  1.3690  0.4603
   28SOL    HW2   84   2.885   1.187   1.574  1.6403 -0.6784 -2.2731
   29SOL     OW   85   2.757   2.582   2.062 -0.3641  0.0468  0.2160
   29SOL    HW1   86   2.831   2.519   2.092  1.1627 -0.2792  0.1867
   29SOL    HW2   87   2.775   2.619   1.968 -0.7198  1.1371 -0.7437
   30SOL     OW   88   1.630   0.126   0.195 -0.4709  0.7133  0.1163
   30SOL    HW1   89   1.536   0.103   0.158 -3.0617  0.8875  1.3978
   30SOL    HW2   90   1.662   0.213   0.156 -0.8513  0.5582 -0.7056
   31SOL     OW   91   2.796   2.675   1.820  0.2931 -0.5367 -0.3831
   31SOL    HW1   92   2.883   2.728   1.819  0.5901  1.7677 -1.9588
   31SOL    HW2   93   2.722   2.724   1.769  0.8284  1.8589  1.3510
   32SOL     OW   94   1.120   1.471   1.397 -0.5297 -0.1764 -0.2182
   32SOL    HW1   95   1.172   1.519   1.319  2.1705  4.5790 -2.0653
   32SOL    HW2   96   1.107   1.371   1.375 -2.2050  1.1898 -0.0428
   33SOL     OW   97   0.367   2.700   2.573 -0.2540 -0.2056 -0.6868
   33SOL    HW1   98   0.425   2.629   2.522 -1.1323 -1.5950  0.0898
   33SOL    HW2   99   0.269   2.668   2.581 -3.2686 -2.3968 -1.7740
   34SOL     OW  100   1.728   2.909   0.909 -0.0921 -0.7755 -0.1455
   34SOL    HW1  101   1.743   2.816   0.865 -1.7942 -2.2200  1.0511
   34SOL    HW2  102   1.800   2.971   0.877  0.2756 -1.5680  1.9159
   35SOL     OW  103   1.976   3.043   0.795 -0.0963  0.3780 -0.1385
   35SOL    HW1  104   1.988   3.021   0.695 -2.2979 -0.0913 -2.5041
   35SOL    HW2  105   2.037   0.010   0.826  0.2873  0.9194  0.6010
   36SOL     OW  106   1.955   2.795   2.364  0.0250 -0.3985 -0.1291
   36SOL    HW1  107   2.010   2.862   2.310  0.3791  0.9031 -0.1166
   36SOL    HW2  108   1.977   2.697   2.330 -0.5258 -1.8768  1.5781
   37SOL     OW  109   1.011   2.947   2.230  0.2437  0.6198 -0.7702
   37SOL    HW1  110   0.966   2.896   2.158 -2.4695  0.6887  4.1397
   37SOL    HW2  111   1.066   2.892   2.294  0.7964 -0.1348 -0.6163
   38SOL     OW  112   3.055   2.924   2.583 -0.6529 -0.3037  0.2408
   38SOL    HW1  113   3.083   2.844   2.522  0.9093 -3.3197 -4.1063
   38SOL    HW2  114   0.034   2.990   2.591  0.7684  1.7691 -0.1231
   39SOL     OW  115   2.405   1.395   2.032  0.6513 -0.1301  0.2983
   39SOL    HW1  116   2.446   1.488   2.050  0.1737 -1.4157  0.6401
   39SOL    HW2  117   2.303   1.388   2.052 -1.0906  1.2348  0.0004
   40SOL     OW  118   0.382   3.032   2.679 -0.2164 -0.2621  0.3027
   40SOL    HW1  119   0.433   3.101   2.733 -1.7985  0.1691 -0.5140
   40SOL    HW2  120   0.421   3.015   2.586 -0.2538  0.4592 -1.5647
   41SOL     OW  121   1.574   0.528   0.826  0.1614 -0.2467 -0.4053
   41SOL    HW1  122   1.598   0.606   0.765  2.7421 -1.2963  0.6195
   41SOL    HW2  123   1.511   0.468   0.774 -1.9185  1.4591  2.2014
   42SOL     OW  124   0.596   0.761   1.453 -0.0044  0.0152 -0.2151
   42SOL    HW1  125   0.642   0.812   1.378 -0.1734  2.7154 -0.0474
   42SOL    HW2  126   0.551   0.684   1.405  0.0139  3.1317  1.4338
   43SOL     OW  127   2.723   1.503   2.684 -0.4362  0.5026 -0.5558
   43SOL    HW1  128   2.622   1.477   2.691 -3.8531 -0.2486  1.3313
   43SOL    HW2  129   2.736   1.605   2.704  0.5736  2.8114  2.2700
   44SOL     OW  130   0.005   2.628   0.461  0.2354 -0.0759  0.1076
   44SOL    HW1  131   3.099   2.720   0.505 -0.1293 -5.1892 -2.4141
   44SOL    HW2  132   0.076   2.569   0.504  0.9711  0.9714 -1.6502
   45SOL     OW  133   0.493   2.520   1.741 -0.4115 -0.1492  0.6359
   45SOL    HW1  134   0.412   2.474   1.781 -0.8757  1.6028  0.9198
   45SOL    HW2  135   0.483   2.621   1.764 -0.2922  2.1923 -2.0936
   46SOL     OW  136   2.334   2.392   2.356  0.5570  0.1671 -0.2179
   46SOL    HW1  137   2.377   2.324   2.422 -0.2321 -4.3131  0.5155
   46SOL    HW2  138   2.383   2.393   2.263  0.6045 -1.1920 -3.4042
   47SOL     OW  139   2.255   2.005   1.454  0.3355 -0.3226  0.1575
   47SOL    HW1  140   2.257   2.094   1.403  0.2846  1.2309 -1.0679
   47SOL    HW2  141   2.172   1.985   1.505 -0.2385  1.0023 -1.3094
   48SOL     OW  142   0.576   1.534   0.232 -0.2994  0.4186  0.0847
   48SOL    HW1  143   0.592   1.434   0.237  0.9110  2.0463 -0.0362
   48SOL    HW2  144   0.477   1.552   0.224 -1.4925  2.4116 -0.1401
   49SOL     OW  145   2.624   0.361   2.852  0.0259  0.1487 -0.3686
   49SOL    HW1  146   2.658   0.337   2.759  1.5429 -0.9139 -0.0637
   49SOL    HW2  147   2.528   0.396   2.851  3.5182  1.3713 -0.7996
   50SOL     OW  148   2.301   0.797   0.235 -0.1534  0.1605  0.3896
   50SOL    HW1  149   2.205   0.828   0.254  2.2719  0.1037  1.4213
   50SOL    HW2  150   2.297   0.695   0.225 -0.3781  0.3198 -0.8502
   51SOL     OW  151   1.940   0.696   1.037 -0.1838  0.6355  0.5027
   51SOL    HW1  152   1.968   0.686   0.940 -1.3410 -0.7518  0.5510
   51SOL    HW2  153   1.881   0.615   1.059 -0.3557 -2.2066 -0.9725
   52SOL     OW  154   1.222   1.342   2.811  0.4934 -0.6651  0.3105
   52SOL    HW1  155   1.275   1.397   2.879 -0.9752  4.8298 -2.6027
   52SOL    HW2  156   1.217   1.243   2.838 -1.1614 -0.3220  0.7269
   53SOL     OW  157   0.944   1.652   1.774  0.2530 -0.2311 -0.2397
   53SOL    HW1  158   0.851   1.631   1.809  1.0638  1.3594 -0.6904
   53SOL    HW2  159   0.939   1.619   1.678 -0.1673  0.8033  2.8103
   54SOL     OW  160   1.848   0.250   0.752  0.4129 -0.1033  0.6464
   54SOL    HW1  161   1.924   0.181   0.755  3.6847 -0.1868 -0.0565
   54SOL    HW2  162   1.858   0.315   0.672  1.2566 -2.0572 -3.0424
   55SOL     OW  163   2.636   2.168   1.339 -0.0353 -0.2807  0.1175
   55SOL    HW1  164   2.671   2.217   1.255  1.2928  0.8120  0.1143
   55SOL    HW2  165   2.658   2.065   1.338  2.3893 -0.9926  0.6849
   56SOL     OW  166   0.947   3.036   1.532 -0.5525  0.0681  0.3123
   56SOL    HW1  167   0.980   2.965   1.466  1.7351  0.2312  0.2010
   56SOL    HW2  168   1.021   3.066   1.594 -1.9664  3.2033 -0.1695
   57SOL     OW  169   1.517   1.387   0.346  0.1519 -0.2385 -0.0173
   57SOL    HW1  170   1.611   1.347   0.326 -0.6848  0.5499  0.1258
   57SOL    HW2  171   1.530   1.472   0.404  1.0724  0.9547 -1.2361
   58SOL     OW  172   2.993   0.462   2.545 -0.3028 -0.6901  0.5897
   58SOL    HW1  173   3.032   0.438   2.451  0.1858  2.9584 -0.7534
   58SOL    HW2  174   2.938   0.546   2.548 -0.8153  2.0728 -1.9932
   59SOL     OW  175   1.162   2.736   2.363 -0.6547  0.7360  0.1681
   59SOL    HW1  176   1.204   2.738   2.455  1.1500  1.7460  1.1833
   59SOL    HW2  177   1.067   2.692   2.361 -0.5325  1.9265 -1.7899
   60SOL     OW  178   2.607   2.644   0.825 -0.4974 -0.1801  0.0186
   60SOL    HW1  179   2.573   2.561   0.868  1.9195  1.5109  2.6806
   60SOL    HW2  180   2.548   2.674   0.744 -3.6310  0.8016 -0.5186
   61SOL     OW  181   1.398   2.294   0.737  0.1741 -0.5322 -0.0517
   61SOL    HW1  182   1.476   2.246   0.780  0.6183  0.8206  0.5312
   61SOL    HW2  183   1.421   2.395   0.721 -0.9705 -0.7770 -2.5599
   62SOL     OW  184   2.479   1.951   2.545 -0.4402  0.1629  0.3835
   62SOL    HW1  185   2.482   1.856   2.580  1.3450  4.3470 -1.4348
   62SOL    HW2  186   2.478   1.949   2.442 -0.1442  0.6407 -1.6250
   63SOL     OW  187   2.300   0.215   2.943 -0.3154  0.3923 -0.0571
   63SOL    HW1  188   2.296   0.275   2.857 -0.5586 -0.1931 -2.0279
   63SOL    HW2  189   2.384   0.151   2.935  0.8971 -2.9559 -0.6147
   64SOL     OW  190   1.025   0.852   2.663 -0.5999  0.3820 -0.3230
   64SOL    HW1  191   1.018   0.909   2.748  2.4096 -1.9449 -2.0489
   64SOL    HW2  192   0.991   0.756   2.676  2.7717 -0.4318 -0.2407
   65SOL     OW  193   1.308   2.121   0.339  0.4582 -0.1326  0.4886
   65SOL    HW1  194   1.267   2.121   0.434 -0.6794 -1.3049 -2.6584
   65SOL    HW2  195   1.333   2.216   0.309 -1.5593  0.4170 -0.5893
   66SOL     OW  196   0.132   1.239   1.713  0.3511 -0.5208  0.2478
   66SOL    HW1  197   0.162   1.175   1.783 -0.9762 -2.0157 -0.0134
   66SOL    HW2  198   0.187   1.328   1.709 -0.1213  0.6827 -2.3496
   67SOL     OW  199   2.400   0.182   2.591 -0.3683  0.4918  0.0849
   67SOL    HW1  200   2.493   0.221   2.602 -1.0992  1.2505  1.0656
   67SOL    HW2  201   2.386   0.141   2.501  1.4280  0.6218  1.2990
   68SOL     OW  202   0.488   2.372   1.045  0.5189 -0.1094  0.0672
   68SOL    HW1  203   0.541   2.383   1.130 -0.7461 -0.2662  0.5867
   68SOL    HW2  204   0.404   2.316   1.064  0.3064  0.1010 -0.9072
   69SOL     OW  205   0.856   2.626   0.275  0.5152 -0.6863  0.5296
   69SOL    HW1  206   0.846   2.679   0.184 -2.5356 -1.1595 -0.1100
   69SOL    HW2  207   0.950   2.629   0.307 -1.8003 -0.0414  0.7126
   70SOL     OW  208   2.829   1.115   2.861 -0.5946  0.5680 -0.2473
   70SOL    HW1  209   2.822   1.040   2.933  0.2707  0.5881 -0.3495
   70SOL    HW2  210   2.834   1.071   2.771 -2.5431 -0.6140  0.5436
   71SOL     OW  211   0.334   1.092   2.579 -0.3444 -0.5776 -0.6006
   71SOL    HW1  212   0.233   1.106   2.586  1.0978  1.2797  0.2099
   71SOL    HW2  213   0.382   1.185   2.578 -0.3754  1.4708 -1.5565
   72SOL     OW  214   3.000   2.225   0.374  0.1650  0.8535 -0.2671
   72SOL    HW1  215   2.943   2.143   0.354 -3.0592 -0.1964 -0.7977
   72SOL    HW2  216   2.986   2.296   0.306 -0.6118  1.0638 -1.1396
   73SOL     OW  217   0.672   1.253   0.228  0.3667 -0.3967 -0.6053
   73SOL    HW1  218   0.756   1.307   0.242 -1.4029  0.1045 -1.2296
   73SOL    HW2  219   0.677   1.204   0.139  0.8547  0.9470  1.7180
   74SOL     OW  220   3.027   0.089   0.295  0.2147  0.1276  0.4915
   74SOL    HW1  221   2.993   0.084   0.194 -2.3525  0.7463 -3.3014
   74SOL    HW2  222   0.028   0.102   0.294  2.8495 -1.6381 -0.6929
   75SOL     OW  223   2.367   1.601   2.334  0.5495 -0.1760 -0.5349
   75SOL    HW1  224   2.459   1.620   2.299 -1.7287 -3.4124  1.0814
   75SOL    HW2  225   2.291   1.642   2.280  0.8146  0.1870  1.5397
   76SOL     OW  226   2.126   2.656   1.533 -0.1056  0.2793 -0.6975
   76SOL    HW1  227   2.213   2.661   1.589  1.8199  0.6057  0.2763
   76SOL    HW2  228   2.105   2.738   1.481  0.5224 -3.3014  1.6599
   77SOL     OW  229   2.737   0.397   1.492 -0.2866 -0.4459  0.2843
   77SOL    HW1  230   2.667   0.475   1.483 -0.7789  1.8036  1.4824
   77SOL    HW2  231   2.766   0.375   1.586  1.1539 -0.2849 -0.3019
   78SOL     OW  232   1.774   1.316   0.082  0.1961 -0.4816 -0.5214
   78SOL    HW1  233   1.808   1.326   3.083  0.9035 -1.4635 -0.1498
   78SOL    HW2  234   1.816   1.386   0.142 -1.4134  0.6291  0.6884
   79SOL     OW  235   0.741   1.913   1.921 -0.3939 -0.1262  0.2566
   79SOL    HW1  236   0.810   1.930   1.854  0.3736 -1.8891  4.8669
   79SOL    HW2  237   0.695   1.824   1.899  0.3530  0.7738  1.1029
   80SOL     OW  238   1.549   0.930   0.975 -0.3029 -0.6506 -0.3784
   80SOL    HW1  239   1.530   1.016   0.923 -1.6781  0.2213  1.1388
   80SOL    HW2  240   1.646   0.935   1.003 -0.1233  1.8286  1.3589
   81SOL     OW  241   0.646   0.349   1.289 -0.1484 -0.3955  0.0474
   81SOL    HW1  242   0.611   0.261   1.257  1.2266  0.1436  2.2281
   81SOL    HW2  243   0.695   0.409   1.223  3.1679 -1.9391  0.8294
   82SOL     OW  244   1.421   2.426   1.660 -0.2202 -0.0148  0.0736
   82SOL    HW1  245   1.361   2.365   1.717 -0.3815 -2.2684  4.8123
   82SOL    HW2  246   1.425   2.390   1.562  0.0969  0.1017 -1.1930
   83SOL     OW  247   0.594   2.997   1.183 -0.4224  0.2223  0.8174
   83SOL    HW1  248   0.515   3.043   1.226  1.8641 -2.3712 -0.7494
   83SOL    HW2  249   0.570   2.940   1.101  2.0661  0.5727 -0.5141
   84SOL     OW  250   0.079   0.810   3.037 -0.3140  0.0535 -0.0586
   84SOL    HW1  251   0.102   0.875   2.956 -2.5023  1.7969 -1.4181
   84SOL    HW2  252   0.065   0.711   3.004 -1.0776 -1.3637 -2.2741
   85SOL     OW  253   2.967   2.319   1.537  0.1535  0.2720  0.5079
   85SOL    HW1  254   2.941   2.356   1.445 -2.4592 -2.0041  2.1216
   85SOL    HW2  255   2.895   2.355   1.604 -3.6052 -0.5087  1.1468
   86SOL     OW  256   0.123   2.439   1.625  0.4638  0.1385  0.1372
   86SOL    HW1  257   0.059   2.370   1.584  0.6587 -0.9288  2.1395
   86SOL    HW2  258   0.097   2.534   1.599 -0.0260  1.5098  1.7002
   87SOL     OW  259   2.919   2.612   2.945  0.1657  0.5781 -0.3392
   87SOL    HW1  260   2.879   2.640   2.855  1.1360 -1.9350 -0.4446
   87SOL    HW2  261   2.853   2.551   2.998 -1.3925 -0.4476  1.4327
   88SOL     OW  262   0.095   2.025   1.311  0.3454 -0.2062 -0.0533
   88SOL    HW1  263   0.053   2.088   1.239 -0.2904 -0.1667  0.6538
   88SOL    HW2  264   0.168   1.976   1.259  0.5778  1.5071  0.6265
   89SOL     OW  265   1.162   0.727   1.884 -0.6913  0.4478  0.1254
   89SOL    HW1  266   1.066   0.724   1.857  0.1038 -1.0851  1.4490
   89SOL    HW2  267   1.210   0.642   1.845 -0.7542 -2.9290  2.3392
   90SOL     OW  268   3.001   1.550   1.811  0.0320  0.0295 -0.0388
   90SOL    HW1  269   2.994   1.549   1.914 -2.3704  0.6693 -0.3370
   90SOL    HW2  270   3.030   1.645   1.776 -0.0020  0.8270  0.3379
   91SOL     OW  271   1.012   1.949   0.495  0.2867  0.1598 -0.0266
   91SOL    HW1  272   1.022   2.050   0.492  2.5793 -0.4665  1.0621
   91SOL    HW2  273   1.093   1.910   0.546 -0.5419  1.0277  1.2196
   92SOL     OW  274   2.293   0.326   1.015  0.2729  0.0677 -0.2299
   92SOL    HW1  275   2.380   0.337   0.957 -0.9022 -0.1824 -0.3157
   92SOL    HW2  276   2.275   0.417   1.062  1.1133  2.1177  2.1799
   93SOL     OW  277   2.403   1.522   0.126  0.3755 -0.2346  0.2918
   93SOL    HW1  278   2.400   1.480   0.032  0.5535 -0.9055  0.4821
   93SOL    HW2  279   2.423   1.622   0.140  0.5505 -0.1713 -1.3629
   94SOL     OW  280   2.487   2.248   2.555  0.3102  0.0777  0.0894
   94SOL    HW1  281   2.504   2.150   2.564 -1.9450  4.6327  0.0525
   94SOL    HW2  282   2.567   2.301   2.535 -3.0301  2.4734 -0.0317
   95SOL     OW  283   1.781   0.455   0.997 -0.1692  0.1047  0.1527
   95SOL    HW1  284   1.696   0.468   0.940  0.5015  0.2027 -1.9966
   95SOL    HW2  285   1.852   0.407   0.938 -0.5815 -2.4359  0.1424
   96SOL     OW  286   2.833   3.071   1.807  0.2242  0.8605  0.7546
   96SOL    HW1  287   2.830   3.058   1.904  3.3166  1.1679 -0.0047
   96SOL    HW2  288   2.902   2.998   1.778  2.2908 -1.7187  1.9472
   97SOL     OW  289   2.213   0.151   1.230 -0.2159 -0.4877 -0.6417
   97SOL    HW1  290   2.241   0.213   1.152  1.2060  0.0308  2.4347
   97SOL    HW2  291   2.226   0.194   1.323 -1.8601 -0.8211  1.6498
   98SOL     OW  292   1.438   2.306   1.420 -0.2992  0.2293  0.4094
   98SOL    HW1  293   1.459   2.326   1.319  1.9537 -3.4387 -2.2308
   98SOL    HW2  294   1.502   2.232   1.449 -3.3150  2.0304 -1.7661
   99SOL     OW  295   3.054   2.707   1.920 -0.4101  0.3585 -0.0503
   99SOL    HW1  296   0.040   2.766   1.908  1.6029  1.0128  2.7557
   99SOL    HW2  297   3.061   2.643   1.994 -1.0655  0.2179 -2.1776
  100SOL     OW  298   0.091   0.748   2.721 -0.3954  0.5166  0.2115
  100SOL    HW1  299   0.088   0.837   2.774 -0.6733 -0.8478  0.9532
  100SOL    HW2  300   0.190   0.729   2.701  4.1955 -2.7041  1.5822
  101SOL     OW  301   1.668   1.059   0.108  0.1657  0.4866  0.3107
  101SOL    HW1  302   1.683   1.015   0.201  1.2947 -0.6148 -2.8144
  101SOL    HW2  303   1.715   1.151   0.102 -0.3329 -3.6385  0.3158
  102SOL     OW  304   0.275   0.469   1.312  0.3638  0.2668 -0.2536
  102SOL    HW1  305   0.273   0.466   1.413  0.7414  0.1293 -1.2499
  102SOL    HW2  306   0.320   0.551   1.273 -0.0252 -1.4137 -1.2809
  103SOL     OW  307   2.707   0.779   1.937  0.6904  0.1469 -0.0852
  103SOL    HW1  308   2.729   0.758   2.032  0.2596  0.1299 -2.6880
  103SOL    HW2  309   2.709   0.877   1.921 -0.4182 -4.6622  0.5281
  104SOL     OW  310   0.299   0.339   2.765  0.2034  0.5205 -0.0250
  104SOL    HW1  311   0.317   0.388   2.677  1.4358  0.3316 -2.9456
  104SOL    HW2  312   0.362   0.256   2.773 -0.4268 -0.7650 -3.1063
  105SOL     OW  313   2.295   1.679   1.840  0.4739  0.0984  0.4652
  105SOL    HW1  314   2.213   1.670   1.780  1.6147  0.0785  1.5556
  105SOL    HW2  315   2.291   1.750   1.912  0.3522 -1.2216 -0.5216
  106SOL     OW  316   1.456   0.288   0.431  0.2799 -0.0911 -0.1977
  106SOL    HW1  317   1.552   0.247   0.427 -1.1018 -2.4593 -1.2710
  106SOL    HW2  318   1.446   0.365   0.500  1.5563 -1.2240 -2.8148
  107SOL     OW  319   0.022   1.820   1.455  0.2148  0.3897  0.9713
  107SOL    HW1  320   0.098   1.750   1.433  0.9687 -3.2951  0.9971
  107SOL    HW2  321   0.039   1.906   1.402 -0.9955 -1.8780  0.8383
  108SOL     OW  322   0.006   2.744   2.392 -0.8327 -0.4170  0.2431
  108SOL    HW1  323   0.064   2.657   2.391 -0.9778 -0.0912 -1.5079
  108SOL    HW2  324   0.061   2.815   2.349 -0.0281 -2.4982  0.4100
  109SOL     OW  325   1.735   0.347   0.068 -1.1438  0.0934  0.3262
  109SOL    HW1  326   1.723   0.445   0.099 -0.1286  1.1134  0.3853
  109SOL    HW2  327   1.804   0.344   3.093 -0.5734 -1.3695 -0.1464
  110SOL     OW  328   0.455   2.341   2.470  0.5489  0.5221  0.0773
  110SOL    HW1  329   0.483   2.425   2.419  0.6273  2.2232 -0.0209
  110SOL    HW2  330   0.537   2.309   2.517 -2.4622 -2.4614 -2.0849
  111SOL     OW  331   1.456   2.564   2.091  0.7771 -0.2495  0.1066
  111SOL    HW1  332   1.503   2.477   2.080 -0.6812  2.4141 -1.7892
  111SOL    HW2  333   1.479   2.629   2.016 -0.3137 -1.2518  1.3007
  112SOL     OW  334   1.857   2.480   2.599  0.1705 -0.2262  0.4432
  112SOL    HW1  335   1.820   2.574   2.619  3.8363 -3.9776 -1.9833
  112SOL    HW2  336   1.924   2.455   2.674  1.3523 -1.3709 -0.4192
  113SOL     OW  337   1.851   2.624   1.586  0.0937 -0.8592  0.7855
  113SOL    HW1  338   1.826   2.705   1.644 -2.2694  0.8765 -1.4106
  113SOL    HW2  339   1.950   2.620   1.572 -0.3795  1.2781  1.8900
  114SOL     OW  340   2.926   0.624   0.540  0.6174  0.2626 -0.1574
  114SOL    HW1  341   2.903   0.569   0.459 -1.9827 -2.6970 -1.1057
  114SOL    HW2  342   2.847   0.679   0.568  1.0338  2.3430 -2.3631
  115SOL     OW  343   0.134   0.979   2.834 -0.1217  0.0317  0.7053
  115SOL    HW1  344   0.075   1.066   2.838 -0.0856  0.8065  3.0154
  115SOL    HW2  345   0.231   0.997   2.838  1.1904 -0.5401 -0.2417
  116SOL     OW  346   0.255   1.134   1.978  0.5587  0.0731  0.2733
  116SOL    HW1  347   0.280   1.235   1.974  1.1115 -3.6408  1.5315
  116SOL    HW2  348   0.334   1.071   1.989 -0.2253  1.4492 -0.9291
  117SOL     OW  349   2.530   0.222   0.687  0.4179  0.2171 -0.1765
  117SOL    HW1  350   2.586   0.141   0.702 -0.1138  1.8213 -0.6641
  117SOL    HW2  351   2.438   0.195   0.644 -1.3443 -3.4980 -1.9895
  118SOL     OW  352   1.241   1.821   1.602  0.5007  0.0065 -0.4513
  118SOL    HW1  353   1.339   1.795   1.595 -1.5392  0.5413  0.2110
  118SOL    HW2  354   1.204   1.811   1.694 -0.4347 -0.8950  0.1919
  119SOL     OW  355   1.131   2.329   0.051  0.8341  0.2991 -0.4901
  119SOL    HW1  356   1.197   2.355   0.125 -0.4878  1.6776  0.8152
  119SOL    HW2  357   1.060   2.268   0.088 -1.2687  0.7925  0.3286
  120SOL     OW  358   0.418   0.887   2.896 -0.3667  0.2470  0.5089
  120SOL    HW1  359   0.396   0.800   2.849 -2.4468 -2.4560 -1.2914
  120SOL    HW2  360   0.517   0.908   2.867  1.6787  0.4406  0.5302
  121SOL     OW  361   2.181   2.821   1.304 -0.1850  0.0694 -0.3222
  121SOL    HW1  362   2.103   2.834   1.239 -0.9619  1.6635 -2.0754
  121SOL    HW2  363   2.263   2.864   1.259  0.4644 -0.5676 -1.7965
  122SOL     OW  364   2.511   2.240   2.043 -0.1909  0.1928 -0.1197
  122SOL    HW1  365   2.561   2.209   2.124 -1.5673 -0.2697 -3.0098
  122SOL    HW2  366   2.464   2.324   2.065  1.7679 -1.6009 -2.2492
  123SOL     OW  367   0.195   2.971   0.573 -0.0639  0.0424  0.8418
  123SOL    HW1  368   0.227   3.065   0.603 -0.3324  1.3988 -0.0030
  123SOL    HW2  369   0.092   2.971   0.569  1.1012 -0.9676  1.6701
  124SOL     OW  370   1.991   0.707   2.479 -0.1528 -0.1468 -0.4767
  124SOL    HW1  371   1.955   0.802   2.482 -0.0359 -2.7091  1.2282
  124SOL    HW2  372   1.999   0.668   2.388 -0.7887  1.0155 -1.6127
  125SOL     OW  373   0.419   1.474   0.733 -0.6825 -0.2576  0.2241
  125SOL    HW1  374   0.483   1.438   0.659 -1.1047  1.2672 -2.1238
  125SOL    HW2  375   0.382   1.566   0.708 -0.3134 -0.7299  0.0976
  126SOL     OW  376   2.629   1.664   0.940  0.4178  0.5484 -0.3562
  126SOL    HW1  377   2.647   1.598   1.015 -0.2040 -1.0928 -1.4658
  126SOL    HW2  378   2.627   1.758   0.982  1.8722 -1.2204  0.2726
  127SOL     OW  379   0.237   2.162   1.766 -0.2032 -0.2339 -0.6366
  127SOL    HW1  380   0.184   2.140   1.685  0.4545  2.4243 -0.5176
  127SOL    HW2  381   0.253   2.262   1.774  1.6935  1.1425 -2.3097
  128SOL     OW  382   0.821   0.676   2.506  0.2121 -0.1413 -0.0646
  128SOL    HW1  383   0.735   0.631   2.540  0.2209 -1.6554  1.3862
  128SOL    HW2  384   0.815   0.778   2.516  1.5736  1.9549 -0.5704
  129SOL     OW  385   2.531   1.285   0.912 -0.0618 -0.4315  0.0177
  129SOL    HW1  386   2.582   1.197   0.901  0.8911 -0.3560 -2.8415
  129SOL    HW2  387   2.561   1.345   0.841 -2.9771 -1.7077  2.4956
  130SOL     OW  388   2.572   1.396   1.566 -0.0839 -0.2924  0.5337
  130SOL    HW1  389   2.605   1.362   1.652 -3.0271  2.9263 -2.7420
  130SOL    HW2  390   2.516   1.479   1.581  2.2158 -0.5668  0.5266
  131SOL     OW  391   2.531   0.361   0.191 -0.3033 -0.0081 -0.0782
  131SOL    HW1  392   2.548   0.459   0.211 -0.8489 -0.7864 -1.5284
  131SOL    HW2  393   2.599   0.316   0.134 -0.3937 -1.3814  4.0683
  132SOL     OW  394   2.769   2.308   1.907  0.2029  0.1648  0.2066
  132SOL    HW1  395   2.681   2.293   1.954  0.5762 -1.1642  0.0905
  132SOL    HW2  396   2.835   2.359   1.963  0.3012 -1.9379 -0.7498
  133SOL     OW  397   0.507   1.053   1.144  0.5778  0.1248 -0.8113
  133SOL    HW1  398   0.455   1.018   1.062  0.8495 -2.4654 -0.8705
  133SOL    HW2  399   0.540   1.147   1.126  0.1829  0.0875  1.9636
  134SOL     OW  400   0.141   1.195   0.042 -0.1976 -0.1383  0.0417
  134SOL    HW1  401   0.075   1.190   3.061 -2.5494 -1.1170 -0.5398
  134SOL    HW2  402   0.098   1.248   0.117 -0.3198 -2.5299 -0.8813
  135SOL     OW  403   2.262   1.434   1.502  0.2175  0.1209  0.7227
  135SOL    HW1  404   2.293   1.380   1.583 -0.0041  1.2985  0.5486
  135SOL    HW2  405   2.185   1.489   1.530  0.5067 -0.8193 -1.0306
  136SOL     OW  406   2.687   0.776   0.634 -0.5571  0.0179  0.0617
  136SOL    HW1  407   2.617   0.783   0.562 -1.8106 -0.5027  1.0522
  136SOL    HW2  408   2.652   0.728   0.719  0.1052 -3.4030  0.3205
  137SOL     OW  409   2.669   1.511   1.164  0.5040 -0.1389  0.5270
  137SOL    HW1  410   2.707   1.506   1.256  2.5475 -1.7872 -1.9701
  137SOL    HW2  411   2.664   1.419   1.117  1.0097  3.5249 -0.0010
  138SOL     OW  412   1.731   0.858   1.292 -0.4105 -0.1986 -0.2237
  138SOL    HW1  413   1.801   0.882   1.216  3.5782  1.8362 -0.8508
  138SOL    HW2  414   1.762   0.775   1.347  1.1088 -1.4962 -0.1403
  139SOL     OW  415   2.102   0.069   3.039  0.7138 -0.2262 -0.5041
  139SOL    HW1  416   2.178   0.117   2.986  0.2681 -0.6761  0.2834
  139SOL    HW2  417   2.137   3.090   3.087 -0.6877  0.5630  0.7046
  140SOL     OW  418   1.557   1.817   1.933 -0.0421 -0.4809 -0.2938
  140SOL    HW1  419   1.646   1.803   1.981 -0.9021  0.9142  0.7414
  140SOL    HW2  420   1.515   1.730   1.905  0.9159  2.1239 -1.5342
  141SOL     OW  421   2.094   1.850   1.035  0.4702  0.2080 -0.2107
  141SOL    HW1  422   2.189   1.875   1.077  1.7469  0.0856  2.3080
  141SOL    HW2  423   2.052   1.781   1.096  0.4287 -0.5415  3.3101
  142SOL     OW  424   3.054   0.962   0.133 -0.3447 -0.5367  0.1967
  142SOL    HW1  425   3.097   0.910   0.055  0.5824 -0.2263 -2.3818
  142SOL    HW2  426   3.074   0.916   0.221  0.9382 -0.2324 -1.2502
  143SOL     OW  427   0.251   2.086   2.781  0.4274 -0.3964 -0.1537
  143SOL    HW1  428   0.279   2.005   2.729  1.5491  0.9335  0.3743
  143SOL    HW2  429   0.153   2.078   2.810 -0.1912 -0.0026 -1.1078
  144SOL     OW  430   0.903   0.135   1.769 -0.6750 -0.0571  0.1283
  144SOL    HW1  431   0.899   0.168   1.671 -2.3937 -0.1033  0.8831
  144SOL    HW2  432   0.947   0.044   1.775 -0.9656  2.0885  2.4171
  145SOL     OW  433   2.603   1.063   0.396 -0.3145 -0.3355  0.1485
  145SOL    HW1  434   2.684   1.047   0.454 -0.2173  1.4555 -0.7340
  145SOL    HW2  435   2.530   1.116   0.446 -0.2216  1.7062 -0.4948
  146SOL     OW  436   2.462   2.505   0.102 -0.0441 -0.5780  0.2433
  146SOL    HW1  437   2.419   2.422   0.062  0.0898  2.9409 -1.8218
  146SOL    HW2  438   2.385   2.568   0.127  0.2554  0.8891 -0.5158
  147SOL     OW  439   2.583   2.734   1.330  0.1706  0.3711  0.9425
  147SOL    HW1  440   2.621   2.809   1.381 -1.4745 -3.8209 -1.0481
  147SOL    HW2  441   2.599   2.741   1.224  0.7049  2.5118 -1.8404
  148SOL     OW  442   1.773   0.054   2.533 -1.0558  0.7103  0.0905
  148SOL    HW1  443   1.674   0.082   2.528  2.4458  0.5414 -1.4433
  148SOL    HW2  444   1.776   3.058   2.509  1.5423 -1.4235 -2.1041
  149SOL     OW  445   1.026   0.562   2.656  0.2291  0.2754  0.0646
  149SOL    HW1  446   1.109   0.522   2.609  2.7083  2.0423 -1.4409
  149SOL    HW2  447   0.957   0.578   2.580 -1.9126 -1.5610 -0.7971
  150SOL     OW  448   0.975   2.933   0.404 -0.3035  0.1989 -0.6743
  150SOL    HW1  449   0.918   2.992   0.465 -0.3945  1.7770  1.0834
  150SOL    HW2  450   0.978   2.835   0.438  0.4451 -0.0581  2.0503
  151SOL     OW  451   0.012   1.653   0.129  0.0261 -0.1727 -0.1552
  151SOL    HW1  452   3.039   1.711   0.099 -0.5572 -2.3423 -0.6469
  151SOL    HW2  453   0.061   1.610   0.046  0.5189 -0.7789  2.8899
  152SOL     OW  454   0.178   0.962   0.434 -0.2648  0.3364 -0.1869
  152SOL    HW1  455   0.260   0.941   0.376  0.1401  3.5122  1.6389
  152SOL    HW2  456   0.097   0.905   0.406  2.3190 -1.1834  2.1168
  153SOL     OW  457   2.376   3.091   0.813 -0.1661  0.2652  0.4295
  153SOL    HW1  458   2.450   0.050   0.849  2.2848  1.8324  0.9375
  153SOL    HW2  459   2.376   2.999   0.857 -2.9405 -0.3601  1.8191
  154SOL     OW  460   0.896   0.702   1.790 -0.3204 -0.3629 -0.8760
  154SOL    HW1  461   0.921   0.631   1.720  2.7643  0.0527  1.6261
  154SOL    HW2  462   0.829   0.772   1.757  1.5765  2.2098  1.8164
  155SOL     OW  463   0.020   1.649   0.841 -0.6551 -0.3531 -0.4286
  155SOL    HW1  464   0.013   1.587   0.761 -2.9218 -1.0638  0.0883
  155SOL    HW2  465   3.056   1.730   0.840  1.3750  1.9514 -1.3746
  156SOL     OW  466   2.375   2.069   0.381 -0.0469  0.6301  0.1648
  156SOL    HW1  467   2.385   1.968   0.394 -0.0477  3.0492 -1.1238
  156SOL    HW2  468   2.409   2.099   0.289 -0.0827 -3.1758 -0.1166
  157SOL     OW  469   1.077   2.928   0.923 -0.4372 -0.2875  0.0643
  157SOL    HW1  470   0.987   2.877   0.918 -1.7453 -0.7942  1.5566
  157SOL    HW2  471   1.130   2.898   0.842  2.7753  1.3333  1.1507
  158SOL     OW  472   2.280   0.368   2.732 -0.1456  0.2545  0.0352
  158SOL    HW1  473   2.311   0.465   2.734  0.5504  0.4461  0.6214
  158SOL    HW2  474   2.331   0.310   2.664 -1.4922  0.2350  2.4635
  159SOL     OW  475   0.639   3.006   0.139 -0.1026  0.0367 -0.3214
  159SOL    HW1  476   0.539   3.038   0.157 -0.9883 -0.9211  0.5400
  159SOL    HW2  477   0.658   2.970   0.044  0.1187 -0.7293 -2.4217
  160SOL     OW  478   1.188   1.950   0.162  0.3263  0.3474 -0.5434
  160SOL    HW1  479   1.238   1.933   0.076 -2.1431 -3.4101  1.9228
  160SOL    HW2  480   1.232   2.031   0.216  2.5104  0.3436  0.1347
  161SOL     OW  481   2.741   1.997   2.578  0.0101 -0.8538  0.0442
  161SOL    HW1  482   2.783   2.073   2.634 -0.9229 -2.9674 -4.3697
  161SOL    HW2  483   2.638   1.984   2.590 -0.0299 -0.0925  1.3688
  162SOL     OW  484   0.181   2.788   0.910  0.1322 -0.8055 -0.0426
  162SOL    HW1  485   0.240   2.708   0.933 -0.0356 -2.5777  1.6324
  162SOL    HW2  486   0.204   2.815   0.815  0.9524 -1.0624  1.1180
  163SOL     OW  487   2.051   0.343   2.910  0.1833  0.0304 -0.7170
  163SOL    HW1  488   2.043   0.242   2.922 -0.0638  1.7618  2.1421
  163SOL    HW2  489   2.138   0.365   2.862 -0.5995 -1.9407  0.6559
  164SOL     OW  490   2.933   1.856   0.831 -0.2343 -0.0955 -0.0577
  164SOL    HW1  491   2.876   1.805   0.770  3.1828  3.1136  0.6919
  164SOL    HW2  492   2.887   1.939   0.871  1.3562  0.8776 -1.2589
  165SOL     OW  493   2.522   0.031   1.719  0.6502 -0.4478  0.4608
  165SOL    HW1  494   2.625   0.020   1.720 -0.8723 -1.3002  1.9474
  165SOL    HW2  495   2.481   0.025   1.621 -0.7810  0.2952 -0.7105
  166SOL     OW  496   2.116   0.434   0.666 -0.0250 -0.5349  0.0750
  166SOL    HW1  497   2.035   0.434   0.603 -0.0110  1.4665  1.0762
  166SOL    HW2  498   2.158   0.341   0.676 -1.0537  1.8984 -1.1387
  167SOL     OW  499   0.612   0.202   0.953  0.9465  0.5666 -0.2045
  167SOL    HW1  500   0.700   0.205   1.008  0.9803 -0.6665  1.5870
  167SOL    HW2  501   0.570   0.294   0.949 -0.9213  2.1291  0.6360
  168SOL     OW  502   1.827   2.930   1.992  0.4462  0.0732  0.4169
  168SOL    HW1  503   1.768   2.987   2.058 -1.6718  2.9872 -0.1081
  168SOL    HW2  504   1.926   2.936   2.014 -0.7883 -0.1652 -1.3891
  169SOL     OW  505   0.324   1.249   0.827  0.2822 -0.6776  0.3547
  169SOL    HW1  506   0.372   1.331   0.790 -1.1236 -1.1605  1.6685
  169SOL    HW2  507   0.249   1.228   0.761  2.1132  1.4770  0.1088
  170SOL     OW  508   2.600   0.770   1.309 -0.5177  0.2966 -0.1973
  170SOL    HW1  509   2.529   0.758   1.237  0.8781  0.6088  0.5109
  170SOL    HW2  510   2.591   0.703   1.386  2.4885 -1.5411  0.1412
  171SOL     OW  511   0.911   2.523   1.682  0.4789  0.0588 -0.0252
  171SOL    HW1  512   0.957   2.550   1.596  0.1326 -0.0806  0.3283
  171SOL    HW2  513   0.972   2.525   1.769  4.0305  1.0288  1.7863
  172SOL     OW  514   0.215   2.543   1.313  0.1888 -0.1721  0.1113
  172SOL    HW1  515   0.253   2.449   1.332  1.2355  1.7462 -3.0890
  172SOL    HW2  516   0.164   2.592   1.389  2.7085  1.8718 -0.0281
  173SOL     OW  517   1.437   0.167   0.006  0.3992  0.2867  0.5440
  173SOL    HW1  518   1.386   0.240   0.056 -1.6739  1.6779 -1.7185
  173SOL    HW2  519   1.524   0.205   3.077  1.8692  1.8992  0.2008
  174SOL     OW  520   1.516   0.151   2.783 -0.1873  0.0268  0.0318
  174SOL    HW1  521   1.442   0.199   2.832 -1.8563  0.4055  1.0196
  174SOL    HW2  522   1.522   0.184   2.687 -1.7226  0.4847 -0.1958
  175SOL     OW  523   1.769   2.671   2.964  0.6528 -0.0862 -0.1528
  175SOL    HW1  524   1.735   2.632   2.878  4.4418  2.1238  0.8728
  175SOL    HW2  525   1.868   2.671   2.968 -0.0680  1.4580  1.7004
  176SOL     OW  526   1.766   0.236   2.899 -0.1922 -0.3668 -0.2082
  176SOL    HW1  527   1.797   0.160   2.954 -2.0868  1.3880  2.8479
  176SOL    HW2  528   1.696   0.211   2.831 -0.9590 -0.5036  1.5255
  177SOL     OW  529   0.867   1.494   0.602  0.4243  0.8388 -0.3415
  177SOL    HW1  530   0.937   1.482   0.671  0.9163 -0.1131  0.5168
  177SOL    HW2  531   0.823   1.584   0.614  0.8285  3.1054 -0.3924
  178SOL     OW  532   0.011   1.928   2.399  0.2894  0.1185 -0.2824
  178SOL    HW1  533   3.070   1.944   2.308  0.9895 -0.7463  0.9310
  178SOL    HW2  534   3.073   1.836   2.428 -0.1525 -2.0852 -3.7277
  179SOL     OW  535   0.760   2.629   2.567 -0.5138 -0.6007  0.1721
  179SOL    HW1  536   0.858   2.641   2.599  3.8766 -1.6349 -0.8513
  179SOL    HW2  537   0.697   2.687   2.624  0.3641 -0.7235  1.8093
  180SOL     OW  538   2.011   1.940   1.569  0.7781  0.0317 -0.0055
  180SOL    HW1  539   2.006   1.950   1.671  0.9171 -4.8133 -0.4204
  180SOL    HW2  540   1.970   1.852   1.549 -1.6591 -1.8388 -0.7796
  181SOL     OW  541   1.571   1.141   2.288 -0.6179  0.4559  0.1301
  181SOL    HW1  542   1.640   1.072   2.259 -1.9137 -2.2615 -0.1287
  181SOL    HW2  543   1.498   1.105   2.351  1.3633  2.2962 -1.3528
  182SOL     OW  544   2.864   0.039   2.518  0.3615 -0.0171 -0.1640
  182SOL    HW1  545   2.927   3.067   2.551 -1.3582 -1.4587 -0.4552
  182SOL    HW2  546   2.828   0.001   2.431  2.1049  1.3478 -1.3415
  183SOL     OW  547   1.353   0.657   2.686  0.6859  0.0750 -0.1831
  183SOL    HW1  548   1.335   0.603   2.604  2.2630  3.0991 -0.4749
  183SOL    HW2  549   1.387   0.597   2.759 -1.0863 -1.3614  0.5574
  184SOL     OW  550   0.750   0.977   1.267 -0.4348 -0.4273  0.6333
  184SOL    HW1  551   0.797   1.049   1.316 -1.1025 -1.1086 -1.1923
  184SOL    HW2  552   0.665   1.019   1.228  0.1937  1.5519 -2.4870
  185SOL     OW  553   2.453   1.037   1.158  0.5134 -0.0719 -0.4062
  185SOL    HW1  554   2.465   1.124   1.213  0.9321 -1.0939 -2.1215
  185SOL    HW2  555   2.515   1.027   1.081  0.0391 -0.0277 -0.0064
  186SOL     OW  556   0.668   1.610   2.438 -0.1900  0.3629 -0.1353
  186SOL    HW1  557   0.718   1.652   2.516 -0.3567  1.3594  0.5493
  186SOL    HW2  558   0.605   1.678   2.395  1.4255 -1.9312  0.2452
  187SOL     OW  559   2.256   1.431   0.331 -0.6977  0.0626 -0.4520
  187SOL    HW1  560   2.186   1.368   0.291 -0.2673  0.2481 -0.0026
  187SOL    HW2  561   2.302   1.476   0.255 -1.9432 -2.6893  2.0004
  188SOL     OW  562   0.179   1.836   0.610 -0.1050  0.3066  0.1557
  188SOL    HW1  563   0.117   1.899   0.669 -0.8862  1.4646 -0.0913
  188SOL    HW2  564   0.247   1.892   0.557 -1.0974  0.4096 -2.8249
  189SOL     OW  565   2.392   0.460   0.465  0.1690 -0.2682 -0.4382
  189SOL    HW1  566   2.307   0.465   0.412  3.9735  1.0312 -1.0033
  189SOL    HW2  567   2.468   0.431   0.404  1.9089  3.7055 -2.2315
  190SOL     OW  568   1.116   1.285   2.397  0.5637 -0.3107  0.2005
  190SOL    HW1  569   1.156   1.356   2.336 -3.2332 -0.8843  2.2173
  190SOL    HW2  570   1.078   1.207   2.347  1.3248 -1.4840  0.1285
  191SOL     OW  571   2.180   0.196   1.938  0.3652  0.3366  0.2976
  191SOL    HW1  572   2.249   0.269   1.950 -3.6190 -1.2381  0.4155
  191SOL    HW2  573   2.119   0.213   1.857  0.1090  0.0044  0.1535
  192SOL     OW  574   2.032   0.921   1.445  0.3871  0.3521  0.2951
  192SOL    HW1  575   1.963   0.956   1.505  1.9303 -0.4992 -3.0050
  192SOL    HW2  576   2.009   0.924   1.346 -0.1562  0.4622  1.3965
  193SOL     OW  577   0.675   0.439   0.741  0.0020  0.6378 -0.0068
  193SOL    HW1  578   0.703   0.534   0.713 -1.1619  2.0462  0.0363
  193SOL    HW2  579   0.759   0.386   0.753 -2.9663 -2.1942 -0.6641
  194SOL     OW  580   1.409   2.555   0.744  0.7108  0.2546 -0.1138
  194SOL    HW1  581   1.441   2.622   0.679 -1.7258  0.8054  2.1196
  194SOL    HW2  582   1.381   2.598   0.834 -0.5501  1.0382  1.2887
  195SOL     OW  583   2.332   0.619   0.663  0.2452  0.0052  0.1996
  195SOL    HW1  584   2.373   0.562   0.589 -0.6736 -0.2838  1.1435
  195SOL    HW2  585   2.249   0.568   0.701 -3.1641 -0.8784  2.4646
  196SOL     OW  586   1.083   1.809   1.365  0.3231 -0.1786  0.4127
  196SOL    HW1  587   1.094   1.911   1.350  0.5172  1.0429 -0.4155
  196SOL    HW2  588   1.132   1.774   1.448 -2.9386  1.0447 -0.8742
  197SOL     OW  589   0.189   2.967   0.295 -0.7057 -0.0108 -0.4948
  197SOL    HW1  590   0.204   2.970   0.396 -0.3305  0.0940  0.2204
  197SOL    HW2  591   0.174   2.872   0.261 -1.1140  0.2086  0.4609
  198SOL     OW  592   0.631   1.169   0.755  0.3197  0.0779 -0.1790
  198SOL    HW1  593   0.597   1.086   0.707 -0.3224 -3.2343 -0.0155
  198SOL    HW2  594   0.622   1.254   0.697 -0.3028  2.8011  0.4396
  199SOL     OW  595   0.158   2.860   1.810 -0.2882  0.5617  0.2787
  199SOL    HW1  596   0.192   2.954   1.828  1.1849 -0.5960  1.4694
  199SOL    HW2  597   0.068   2.868   1.765  0.9770  0.5759  0.8066
  200SOL     OW  598   2.277   1.970   2.843  0.2531  0.2499 -0.2363
  200SOL    HW1  599   2.212   1.909   2.889 -0.0364 -0.8340  2.5250
  200SOL    HW2  600   2.217   2.031   2.784  0.5000  3.2866 -1.1728
  201SOL     OW  601   2.636   2.793   1.078 -0.4301  0.4761  0.6540
  201SOL    HW1  602   2.556   2.761   1.021 -0.6730 -0.8236 -5.1041
  201SOL    HW2  603   2.684   2.862   1.020 -0.4954  1.2385 -2.0462
  202SOL     OW  604   2.794   0.475   0.373 -0.1141 -0.1853 -0.1951
  202SOL    HW1  605   2.716   0.508   0.314 -0.6551  1.3055 -0.6500
  202SOL    HW2  606   2.775   0.382   0.416 -0.4032 -0.4779  0.7931
  203SOL     OW  607   1.220   1.467   2.227 -0.6868 -0.5990 -0.2580
  203SOL    HW1  608   1.183   1.467   2.136 -0.6763  1.2790  2.9066
  203SOL    HW2  609   1.261   1.560   2.245  1.3803 -0.8686 -2.3214
  204SOL     OW  610   0.924   1.357   2.112  0.0203 -0.0617  0.0581
  204SOL    HW1  611   0.924   1.388   2.015 -1.1091 -0.0282 -0.6840
  204SOL    HW2  612   0.979   1.272   2.127 -0.9745 -1.2621  0.6351
  205SOL     OW  613   1.269   2.090   1.544 -0.1007 -0.4082  0.0933
  205SOL    HW1  614   1.266   1.990   1.570 -0.9192  0.4663 -0.2644
  205SOL    HW2  615   1.235   2.107   1.451 -1.8862  0.2136  1.6247
  206SOL     OW  616   0.083   0.187   2.865 -0.9018 -0.2461 -0.0299
  206SOL    HW1  617   0.148   0.248   2.811 -1.2098 -0.2337 -0.7587
  206SOL    HW2  618   3.098   0.183   2.812  1.5604 -0.1446 -2.3186
  207SOL     OW  619   1.661   3.071   2.196  0.6371 -0.2242 -0.0388
  207SOL    HW1  620   1.654   0.071   2.208 -0.5356  0.6958 -0.1759
  207SOL    HW2  621   1.673   3.017   2.284  0.3837 -0.1817  0.6004
  208SOL     OW  622   0.634   2.170   1.843  0.8047 -0.3280  0.1616
  208SOL    HW1  623   0.667   2.076   1.820  1.0246 -1.6451  1.6895
  208SOL    HW2  624   0.647   2.243   1.768  1.9470  0.6364  0.6013
  209SOL     OW  625   1.762   1.198   2.807 -0.4135  0.5829  0.2035
  209SOL    HW1  626   1.690   1.206   2.728 -0.9554 -0.0375 -2.0170
  209SOL    HW2  627   1.745   1.106   2.848 -1.7609  0.3375  0.9152
  210SOL     OW  628   2.928   0.432   0.770 -0.0926 -0.1750  0.1764
  210SOL    HW1  629   2.958   0.481   0.687 -2.8465 -1.9119  1.7823
  210SOL    HW2  630   2.860   0.487   0.825  0.0454 -1.6435  2.0780
  211SOL     OW  631   0.624   1.276   1.004 -0.7679 -0.4469  0.0745
  211SOL    HW1  632   0.647   1.369   0.969  0.5172  0.0376 -1.6511
  211SOL    HW2  633   0.602   1.216   0.924  0.0880 -1.4050  0.2545
  212SOL     OW  634   1.222   1.769   0.601  0.3057 -0.3066 -0.1816
  212SOL    HW1  635   1.151   1.768   0.675 -1.4317  0.5410  2.6595
  212SOL    HW2  636   1.189   1.734   0.510  1.2115  1.8171  1.0634
  213SOL     OW  637   1.538   0.041   1.722  0.2928 -0.7762  0.0323
  213SOL    HW1  638   1.634   0.070   1.711  2.1311  0.2731  2.4361
  213SOL    HW2  639   1.488   0.073   1.641  2.8274  0.1065  3.0407
  214SOL     OW  640   1.519   1.593   2.477 -0.0805 -0.0597  0.1424
  214SOL    HW1  641   1.438   1.567   2.535  0.1104  4.8161 -0.2638
  214SOL    HW2  642   1.511   1.687   2.438 -0.5648  1.2137 -0.4218
  215SOL     OW  643   0.328   1.943   1.152 -0.0287  0.0855  0.4111
  215SOL    HW1  644   0.297   1.870   1.085 -3.8684  0.8271 -0.2402
  215SOL    HW2  645   0.337   2.041   1.118 -0.2892 -2.2060  3.0275
  216SOL     OW  646   0.718   3.060   2.173  0.0823  0.3802  0.3226
  216SOL    HW1  647   0.681   0.042   2.127 -0.5666  1.4287  0.2957
  216SOL    HW2  648   0.796   3.084   2.232  2.3012 -0.9900  1.2201
  217SOL     OW  649   2.295   0.307   0.104  0.3182 -0.4195 -0.4225
  217SOL    HW1  650   2.298   0.285   0.003 -1.0671  1.9420  1.2759
  217SOL    HW2  651   2.386   0.327   0.153  1.1969 -0.1992  2.2702
  218SOL     OW  652   2.144   1.667   2.147  0.0054  0.4704 -0.4432
  218SOL    HW1  653   2.088   1.679   2.233  1.4487  0.0237  2.2810
  218SOL    HW2  654   2.134   1.753   2.092 -0.0699  2.5409  1.4675
  219SOL     OW  655   1.479   1.112   0.405 -0.2760 -0.1584  0.5143
  219SOL    HW1  656   1.433   1.071   0.326  2.2096 -1.2010  2.4724
  219SOL    HW2  657   1.484   1.213   0.392  0.5084  0.5797 -0.1509
  220SOL     OW  658   1.444   1.834   1.064 -0.1633  0.1973 -0.0431
  220SOL    HW1  659   1.464   1.885   1.148 -0.1038 -0.3263 -1.7270
  220SOL    HW2  660   1.367   1.768   1.073  1.8979 -0.5597 -0.4053
  221SOL     OW  661   0.134   0.252   0.016  0.4462  0.0056  0.0707
  221SOL    HW1  662   0.202   0.323   3.085  0.6458  1.1145 -1.4010
  221SOL    HW2  663   0.091   0.210   3.036 -3.1509 -0.4356  1.3456
  222SOL     OW  664   1.130   2.635   1.530 -0.3906 -0.1047  0.5731
  222SOL    HW1  665   1.159   2.539   1.507  1.6184  0.3706  0.1590
  222SOL    HW2  666   1.207   2.687   1.487  0.8584 -3.4873 -1.2830
  223SOL     OW  667   1.464   2.788   2.760 -0.3122 -0.0817 -0.3478
  223SOL    HW1  668   1.512   2.874   2.784  1.1835 -1.3468 -2.3112
  223SOL    HW2  669   1.437   2.735   2.842 -0.8208  0.6007 -3.9483
  224SOL     OW  670   2.590   1.220   1.315 -0.0894  0.2947 -0.1799
  224SOL    HW1  671   2.538   1.290   1.363  0.1987 -3.3865 -3.5197
  224SOL    HW2  672   2.683   1.203   1.366 -1.5854 -0.9127  2.9490
  225SOL     OW  673   0.862   1.179   1.487 -0.4822  0.2357 -0.1678
  225SOL    HW1  674   0.875   1.137   1.574  0.6589 -0.5201  0.8460
  225SOL    HW2  675   0.951   1.200   1.437  2.5929  0.5093 -0.0160
  226SOL     OW  676   1.598   2.561   2.744 -0.2567 -0.2077  0.2714
  226SOL    HW1  677   1.538   2.641   2.743  1.7779 -0.2068 -1.5668
  226SOL    HW2  678   1.606   2.531   2.645  0.1875 -0.0323 -2.6708
  227SOL     OW  679   0.808   2.144   0.994 -0.5249 -0.3249 -0.1743
  227SOL    HW1  680   0.801   2.174   0.896  0.9920  0.6199  1.4068
  227SOL    HW2  681   0.838   2.222   1.051  2.6778  0.7672  0.8791
  228SOL     OW  682   0.275   2.248   1.139  0.0970  0.5424 -0.0830
  228SOL    HW1  683   0.273   2.253   1.242 -0.6544  2.0111  1.0471
  228SOL    HW2  684   0.183   2.236   1.098  0.0438  0.9508 -0.9325
  229SOL     OW  685   2.046   1.229   0.272  0.5419 -0.1531  0.3759
  229SOL    HW1  686   1.980   1.306   0.249 -0.0313 -2.5765  0.8371
  229SOL    HW2  687   2.109   1.214   0.190  3.5337 -2.7868 -1.1095
  230SOL     OW  688   1.005   1.085   2.223  0.4529 -1.0570  0.0449
  230SOL    HW1  689   0.923   1.069   2.160 -3.1268  0.2087 -0.9499
  230SOL    HW2  690   1.079   1.011   2.217  0.1134  0.5423  1.2866
  231SOL     OW  691   1.633   2.024   1.720 -0.0796 -0.4152  0.3731
  231SOL    HW1  692   1.719   2.083   1.738  1.8101 -1.4053 -0.9659
  231SOL    HW2  693   1.547   2.054   1.763 -1.4584 -2.1189 -0.3876
  232SOL     OW  694   1.986   2.297   1.184  0.4525 -0.2649  0.0714
  232SOL    HW1  695   1.962   2.230   1.253 -1.2192  0.2721  2.8037
  232SOL    HW2  696   1.964   2.391   1.216 -0.1238  0.7591 -1.7838
  233SOL     OW  697   1.579   2.453   2.486 -0.4027 -0.4539 -0.5334
  233SOL    HW1  698   1.668   2.412   2.467 -4.0326 -0.5193 -1.3188
  233SOL    HW2  699   1.504   2.387   2.497  0.0073  2.2140  0.3542
  234SOL     OW  700   1.143   3.042   2.825  0.0506 -0.0524 -0.2962
  234SOL    HW1  701   1.155   0.011   2.752 -1.4801  0.2164  0.8438
  234SOL    HW2  702   1.068   2.979   2.795 -0.7556 -1.6614  2.5376
  235SOL     OW  703   2.687   2.467   3.018  0.6491  0.1294 -0.4739
  235SOL    HW1  704   2.619   2.464   3.095  0.7911  1.6408 -1.8975
  235SOL    HW2  705   2.645   2.503   2.931 -1.2743  2.2471 -0.3913
  236SOL     OW  706   2.074   2.483   2.394 -0.0656 -0.4351  0.2904
  236SOL    HW1  707   2.171   2.453   2.392 -0.1693 -0.0324 -0.9536
  236SOL    HW2  708   2.024   2.465   2.480 -0.5379 -0.1533 -1.0437
  237SOL     OW  709   1.636   1.259   1.445 -0.0477  0.2018  0.3846
  237SOL    HW1  710   1.589   1.178   1.407 -0.7249 -1.7598  0.5102
  237SOL    HW2  711   1.575   1.310   1.510  0.5156 -2.9128  2.7151
  238SOL     OW  712   2.375   0.073   2.324 -0.5013  0.4881  0.6218
  238SOL    HW1  713   2.458   0.028   2.278  1.5148  0.1563 -1.3645
  238SOL    HW2  714   2.294   0.069   2.261  3.1184  1.9052  1.1360
  239SOL     OW  715   0.681   1.634   1.870  0.0247  1.2309 -0.6419
  239SOL    HW1  716   0.625   1.567   1.809 -1.3937 -0.1668  0.4488
  239SOL    HW2  717   0.661   1.621   1.967  0.4523 -0.0631 -3.6670
  240SOL     OW  718   3.004   2.202   0.643  0.3838 -0.1373  0.0819
  240SOL    HW1  719   3.010   2.294   0.679  0.7776 -2.7297 -1.1244
  240SOL    HW2  720   3.010   2.197   0.542  2.3188 -0.2698  0.2554
  241SOL     OW  721   1.888   1.986   0.917 -0.3186 -0.0951 -0.1418
  241SOL    HW1  722   1.977   1.951   0.955  2.2185 -0.0320  0.6448
  241SOL    HW2  723   1.891   1.975   0.818  1.6165 -1.6561 -0.4740
  242SOL     OW  724   1.352   1.509   2.976 -0.3970  0.3282  0.2939
  242SOL    HW1  725   1.396   1.456   3.052  0.5107  0.2455  0.5348
  242SOL    HW2  726   1.413   1.580   2.943 -2.0639 -0.3326  0.5729
  243SOL     OW  727   0.881   2.848   1.977  0.0862  0.3870 -0.5977
  243SOL    HW1  728   0.801   2.896   2.018  0.8617  2.0879  0.6514
  243SOL    HW2  729   0.856   2.801   1.892 -1.5389 -0.6949  0.9620
  244SOL     OW  730   1.844   2.816   2.690  0.2798 -0.0373 -0.0083
  244SOL    HW1  731   1.768   2.868   2.727 -2.9357 -2.2820 -0.9659
  244SOL    HW2  732   1.868   2.839   2.595 -0.3457  1.9773  0.4623
  245SOL     OW  733   1.384   3.032   0.432  0.4680  0.1443  0.6208
  245SOL    HW1  734   1.435   3.055   0.519 -2.1339 -1.8162  2.1940
  245SOL    HW2  735   1.331   0.010   0.392 -2.1706 -1.7856 -1.8196
  246SOL     OW  736   1.335   3.011   3.008 -0.4375  0.9299 -0.7332
  246SOL    HW1  737   1.259   3.032   2.944 -1.7482  1.1519 -0.0358
  246SOL    HW2  738   1.359   3.093   3.060  0.0196 -2.5296  1.3180
  247SOL     OW  739   3.079   0.543   1.910 -0.7081  0.1908  0.2331
  247SOL    HW1  740   3.004   0.531   1.977  2.2264  1.0732 -1.0660
  247SOL    HW2  741   3.044   0.541   1.814 -0.1498 -1.1865 -0.9669
  248SOL     OW  742   0.778   1.052   2.052  1.2447 -0.5373  0.3815
  248SOL    HW1  743   0.685   1.081   2.082 -0.2139  1.5679 -0.1726
  248SOL    HW2  744   0.787   0.950   2.045 -0.6701  1.0337 -1.7668
  249SOL     OW  745   2.218   0.515   0.260  0.3436  0.0224 -0.3677
  249SOL    HW1  746   2.123   0.555   0.265  1.2285 -0.2998  0.4601
  249SOL    HW2  747   2.224   0.451   0.183 -0.0605 -1.5412  1.3332
  250SOL     OW  748   0.562   0.151   0.506 -0.5752  0.0539 -0.0711
  250SOL    HW1  749   0.577   0.057   0.473  1.0777  3.3055  0.7323
  250SOL    HW2  750   0.647   0.204   0.526  1.9871  2.1721  0.3929
  251SOL     OW  751   1.104   0.174   2.655  0.2589  0.0576  0.5249
  251SOL    HW1  752   1.168   0.233   2.708  0.1244 -0.2370 -1.5428
  251SOL    HW2  753   1.159   0.110   2.595  0.0330  3.3751  2.5059
  252SOL     OW  754   1.743   1.817   2.141 -0.5942 -0.3815  0.2839
  252SOL    HW1  755   1.737   1.911   2.104 -1.1408  2.3667 -1.7202
  252SOL    HW2  756   1.678   1.802   2.221 -1.5485  1.6885 -1.3933
  253SOL     OW  757   2.096   2.529   1.861  0.4369 -0.1395  0.4012
  253SOL    HW1  758   2.169   2.572   1.911 -1.5020  0.8365 -3.2635
  253SOL    HW2  759   2.108   2.515   1.762 -0.3134  1.1752 -0.8245
  254SOL     OW  760   1.026   2.254   1.840 -0.1898 -0.4145  0.2225
  254SOL    HW1  761   1.121   2.260   1.797 -1.8660  1.0658  0.5743
  254SOL    HW2  762   1.000   2.344   1.881  0.6273  2.8785 -1.8866
  255SOL     OW  763   0.934   1.058   0.904  0.2384 -0.2635 -0.4618
  255SOL    HW1  764   0.954   1.151   0.947  0.8532  1.3622 -0.1987
  255SOL    HW2  765   0.927   1.066   0.801  0.5991 -1.6595 -1.1617
  256SOL     OW  766   1.754   2.067   2.029 -0.3364  0.6503  0.1913
  256SOL    HW1  767   1.786   2.096   1.935 -0.4290 -2.2658  0.1540
  256SOL    HW2  768   1.815   2.108   2.100  2.4880 -0.8888  1.0113
  257SOL     OW  769   0.638   2.406   2.684 -0.0135  0.1429 -0.0049
  257SOL    HW1  770   0.664   2.492   2.633 -0.4227  0.4048 -1.0087
  257SOL    HW2  771   0.582   2.428   2.770 -2.0869 -1.8455  3.1023
  258SOL     OW  772   0.701   0.437   2.207 -0.2113  0.1983 -0.3000
  258SOL    HW1  773   0.782   0.499   2.231  0.6696  1.3796 -0.2969
  258SOL    HW2  774   0.723   0.369   2.136 -1.0699 -0.1411 -0.3855
  259SOL     OW  775   0.907   0.601   2.262 -0.7495  0.9733  0.4077
  259SOL    HW1  776   0.889   0.642   2.353  3.4415 -2.6756  2.3043
  259SOL    HW2  777   1.000   0.559   2.259  1.3698  2.8854  0.9437
  260SOL     OW  778   1.368   0.847   0.748  0.1037  0.1628  0.3515
  260SOL    HW1  779   1.414   0.776   0.798  0.1737  1.7395 -0.5779
  260SOL    HW2  780   1.267   0.851   0.774  0.6890  0.7327  0.6935
  261SOL     OW  781   0.747   0.001   2.762 -0.2556  0.0240 -0.0672
  261SOL    HW1  782   0.830   3.050   2.787 -0.3562  0.3618  0.8533
  261SOL    HW2  783   0.759   0.050   2.674 -1.5822 -0.0742 -0.4728
  262SOL     OW  784   2.543   3.021   2.595 -0.2275  0.0535 -0.0145
  262SOL    HW1  785   2.601   3.090   2.637 -1.5050 -1.0697  0.5360
  262SOL    HW2  786   2.447   3.022   2.631 -3.1591 -1.9650 -1.8815
  263SOL     OW  787   0.269   1.917   2.457 -0.5252 -0.3526 -0.3071
  263SOL    HW1  788   0.171   1.928   2.427  0.2001  0.7823  0.6380
  263SOL    HW2  789   0.283   1.845   2.527  1.7428 -1.3632 -1.3893
  264SOL     OW  790   0.542   1.435   1.225  0.3725  0.2890 -0.0903
  264SOL    HW1  791   0.499   1.524   1.209 -1.1599  0.4173  2.0440
  264SOL    HW2  792   0.586   1.386   1.148  0.0434  0.2678  0.3550
  265SOL     OW  793   0.442   1.797   3.089 -0.1199  0.1972  0.4281
  265SOL    HW1  794   0.388   1.711   0.013  1.1562 -2.9632  0.5203
  265SOL    HW2  795   0.539   1.778   0.005 -1.9384 -3.6735  0.4065
  266SOL     OW  796   1.132   1.208   0.424 -0.0616  0.3348  0.9292
  266SOL    HW1  797   1.151   1.294   0.470  0.0949  0.5180  3.2085
  266SOL    HW2  798   1.081   1.148   0.485  1.1208  0.1994 -1.4867
  267SOL     OW  799   2.444   0.977   0.076 -0.8616  0.2817  0.5720
  267SOL    HW1  800   2.442   0.921   3.094  5.3044  0.5875  3.0618
  267SOL    HW2  801   2.399   0.921   0.147 -0.3578 -0.8597 -2.1518
  268SOL     OW  802   2.747   0.025   2.793  0.6075  0.1669  0.2589
  268SOL    HW1  803   2.803   0.106   2.768 -0.2533  3.8081  3.0307
  268SOL    HW2  804   2.805   3.041   2.798  1.0245 -0.7172  0.1739
  269SOL     OW  805   1.600   0.474   2.615 -0.1955 -1.0276  0.3905
  269SOL    HW1  806   1.669   0.427   2.559  1.2374  0.0657  0.6149
  269SOL    HW2  807   1.574   0.565   2.578 -1.1577 -0.6120 -2.3701
  270SOL     OW  808   0.847   1.192   2.556  0.1677 -0.2185 -0.0250
  270SOL    HW1  809   0.780   1.267   2.547 -0.2876  1.6502  0.5097
  270SOL    HW2  810   0.939   1.226   2.526  0.3099  0.8106 -2.0006
  271SOL     OW  811   2.649   1.133   0.147 -0.2336 -0.0034  0.0491
  271SOL    HW1  812   2.581   1.063   0.116 -1.0761 -2.3151  0.5577
  271SOL    HW2  813   2.653   1.127   0.250 -0.7856  0.1130 -1.6086
  272SOL     OW  814   2.725   1.775   2.760 -0.4736 -0.2865  0.1236
  272SOL    HW1  815   2.642   1.785   2.814  0.4143  0.2745  1.0897
  272SOL    HW2  816   2.759   1.854   2.709  1.9371  2.0737 -0.7802
  273SOL     OW  817   1.965   0.603   0.237 -0.1233 -0.1853 -0.0404
  273SOL    HW1  818   1.883   0.651   0.274 -1.7852  1.2669  1.0486
  273SOL    HW2  819   1.961   0.605   0.137 -2.6733  2.4081  2.0913
  274SOL     OW  820   0.273   2.556   1.034 -0.8416 -0.7775  0.0344
  274SOL    HW1  821   0.347   2.485   1.015 -1.0763  1.9079 -1.6465
  274SOL    HW2  822   0.269   2.573   1.135 -2.0751 -1.1263 -1.1671
  275SOL     OW  823   2.608   1.631   0.676 -0.0989  0.1835 -0.0704
  275SOL    HW1  824   2.586   1.535   0.656  1.7616  1.1374  1.2669
  275SOL    HW2  825   2.611   1.647   0.775 -1.5949  0.5361 -0.0728
  276SOL     OW  826   0.069   1.128   2.527 -0.7721  0.4806 -0.1676
  276SOL    HW1  827   0.024   1.198   2.477  0.5162 -2.4319  4.0598
  276SOL    HW2  828   0.002   1.053   2.548 -2.3081 -0.8164  1.0280
  277SOL     OW  829   1.667   2.323   1.221 -0.5301  0.1609 -0.1511
  277SOL    HW1  830   1.739   2.388   1.255  0.6364  1.0821  0.6225
  277SOL    HW2  831   1.711   2.238   1.205 -2.0629  1.5266 -2.4628
  278SOL     OW  832   1.296   0.506   1.746 -0.1411 -0.5413  0.0803
  278SOL    HW1  833   1.233   0.442   1.793 -1.2977  0.2185 -1.7179
  278SOL    HW2  834   1.359   0.453   1.695 -1.3942  1.4098 -0.4603
  279SOL     OW  835   1.587   1.633   0.472  0.0592 -0.7510  0.0976
  279SOL    HW1  836   1.555   1.703   0.543 -0.2169  3.1145  2.3557
  279SOL    HW2  837   1.569   1.672   0.377 -1.7534  1.7994 -1.1913
  280SOL     OW  838   0.588   1.945   0.698 -0.0046  0.0632 -0.1869
  280SOL    HW1  839   0.650   1.991   0.633 -0.1778 -0.2588  1.5313
  280SOL    HW2  840   0.522   2.014   0.735 -1.8170 -1.3443 -0.7143
  281SOL     OW  841   2.945   0.219   2.701  0.4954  0.2472  0.2229
  281SOL    HW1  842   2.983   0.302   2.659  0.2920 -0.4022  0.4391
  281SOL    HW2  843   2.918   0.156   2.623  2.3563  2.5246  0.3340
  282SOL     OW  844   0.391   0.991   0.914 -0.0968  0.2823 -0.0786
  282SOL    HW1  845   0.380   0.919   0.844  0.7607  1.3220  0.4369
  282SOL    HW2  846   0.395   1.079   0.859  0.2276 -0.4270 -2.1189
  283SOL     OW  847   1.985   1.984   0.393 -0.3231  0.6353  0.1061
  283SOL    HW1  848   2.034   2.064   0.434 -2.1763  0.8415 -0.4074
  283SOL    HW2  849   1.911   2.014   0.332  1.3860 -3.3092  1.1009
  284SOL     OW  850   1.089   1.078   0.161  0.4796 -0.4566  0.2197
  284SOL    HW1  851   1.097   1.100   0.258 -1.5332 -1.7908 -3.3011
  284SOL    HW2  852   1.156   1.126   0.097  2.2019 -0.1273  0.4087
  285SOL     OW  853   2.345   0.614   2.770 -0.4334  0.0116  0.4942
  285SOL    HW1  854   2.366   0.669   2.849 -1.4256 -2.2343 -0.0930
  285SOL    HW2  855   2.246   0.635   2.740  1.9453  3.5495 -0.0575
  286SOL     OW  856   1.352   2.990   1.254  0.5175 -0.2843 -0.5323
  286SOL    HW1  857   1.264   3.031   1.226 -0.6963  1.1107 -1.0767
  286SOL    HW2  858   1.412   2.981   1.176  1.3852 -0.9808  2.4768
  287SOL     OW  859   1.046   1.332   0.970 -0.2106 -0.0863  0.1125
  287SOL    HW1  860   1.149   1.342   0.949 -2.3732  0.0705 -0.6014
  287SOL    HW2  861   0.999   1.420   0.955 -2.3771  4.6051  0.6283
  288SOL     OW  862   1.607   3.001   2.839 -0.1562  0.3290  0.0468
  288SOL    HW1  863   1.689   3.022   2.896  3.0346  1.4175  1.3222
  288SOL    HW2  864   1.568   3.084   2.795 -2.7413 -0.8101  0.6864
  289SOL     OW  865   0.264   1.396   2.017  0.1021 -0.3130  1.1461
  289SOL    HW1  866   0.275   1.496   2.005  0.7691  2.1842 -1.6279
  289SOL    HW2  867   0.217   1.372   2.103 -0.1746  0.4513  1.7799
  290SOL     OW  868   1.903   2.280   0.917 -0.2188  0.0861  0.0925
  290SOL    HW1  869   1.912   2.301   1.015 -2.3552 -1.0697  1.8165
  290SOL    HW2  870   1.870   2.184   0.908 -0.9897 -1.4895 -0.0320
  291SOL     OW  871   2.307   2.330   3.075 -0.8105  0.0898  0.0930
  291SOL    HW1  872   2.216   2.372   3.094  3.0324  1.5657 -1.1688
  291SOL    HW2  873   2.320   2.305   2.979  1.5793 -0.3991  2.6141
  292SOL     OW  874   0.824   0.793   2.040  0.4069  0.2991 -0.6028
  292SOL    HW1  875   0.863   0.736   2.117  1.4494  0.0269  2.2436
  292SOL    HW2  876   0.846   0.753   1.947  0.2876 -0.0913 -4.0987
  293SOL     OW  877   2.064   2.801   0.908  0.6479 -0.2088 -0.0867
  293SOL    HW1  878   2.033   2.886   0.866  3.1305 -1.1970  1.6863
  293SOL    HW2  879   2.090   2.731   0.837  0.1204 -1.4293  0.6795
  294SOL     OW  880   0.337   0.472   2.563  0.3956  0.1903  0.4538
  294SOL    HW1  881   0.341   0.567   2.591 -1.6943 -2.2888 -1.8900
  294SOL    HW2  882   0.425   0.453   2.514  1.3104 -1.1555  0.0939
  295SOL     OW  883   1.472   1.853   0.599 -0.3537  0.5342  0.0468
  295SOL    HW1  884   1.505   1.865   0.696  1.7803  0.7246  0.1917
  295SOL    HW2  885   1.372   1.826   0.592 -0.0278  1.3877 -0.5766
  296SOL     OW  886   2.459   1.809   0.441  0.0907  0.1376 -0.2967
  296SOL    HW1  887   2.547   1.765   0.452  0.0954 -0.5139 -0.6985
  296SOL    HW2  888   2.385   1.741   0.456  0.4983 -2.7726  2.1116
  297SOL     OW  889   2.037   0.202   0.162 -0.4068 -0.3370  0.3920
  297SOL    HW1  890   2.033   0.146   0.075  3.3316 -0.3167 -3.3042
  297SOL    HW2  891   2.131   0.250   0.158  0.5013 -0.9247 -0.4263
  298SOL     OW  892   1.250   2.276   2.248  0.2948  0.4542 -0.2134
  298SOL    HW1  893   1.173   2.240   2.190  0.2626  0.2663  1.7275
  298SOL    HW2  894   1.339   2.271   2.202 -0.4092  1.9144 -1.3959
  299SOL     OW  895   1.397   2.866   2.504 -0.2205  0.3075  0.4830
  299SOL    HW1  896   1.406   2.843   2.606  0.4107  0.4532  1.9772
  299SOL    HW2  897   1.429   2.786   2.449 -0.0219 -2.0081  1.4741
  300SOL     OW  898   2.271   3.050   2.638  0.3542  0.0055 -0.4531
  300SOL    HW1  899   2.210   3.091   2.566 -2.7154  1.0443  1.4349
  300SOL    HW2  900   2.327   0.029   2.667 -0.3262  1.0074 -0.6681
  301SOL     OW  901   1.490   1.392   1.644 -0.4806 -0.0860 -0.1597
  301SOL    HW1  902   1.526   1.315   1.697 -0.1142  2.3684  0.7171
  301SOL    HW2  903   1.387   1.383   1.639  0.5526  0.6039  0.9340
  302SOL     OW  904   2.564   2.548   0.385  0.4738  0.1092 -0.0771
  302SOL    HW1  905   2.664   2.563   0.377 -1.2461  0.4257  0.7787
  302SOL    HW2  906   2.509   2.562   0.302 -2.8572  0.2415 -1.0225
  303SOL     OW  907   2.714   2.393   2.477  0.2367 -0.0497  0.2318
  303SOL    HW1  908   2.781   2.468   2.467  2.5129 -0.3334  0.4089
  303SOL    HW2  909   2.708   2.329   2.397  2.0266  1.5487  2.7097
  304SOL     OW  910   2.748   0.470   1.848  0.2014  0.3705 -0.6274
  304SOL    HW1  911   2.758   0.544   1.778  3.1462 -0.1450 -0.3596
  304SOL    HW2  912   2.779   0.498   1.941 -1.3946  1.1476  3.3441
  305SOL     OW  913   0.972   1.994   1.782 -0.2173 -0.2663  0.6346
  305SOL    HW1  914   1.047   1.932   1.805 -4.3771 -0.4930 -0.7351
  305SOL    HW2  915   0.987   2.091   1.810  1.3995 -0.5155 -0.1026
  306SOL     OW  916   2.729   0.717   1.667  0.5786 -0.4139  0.9757
  306SOL    HW1  917   2.794   0.767   1.610 -2.6314  0.9933 -2.4452
  306SOL    HW2  918   2.712   0.755   1.756  1.6204 -0.0754 -1.9307
  307SOL     OW  919   1.565   1.169   1.777 -0.7887 -0.0984 -0.0490
  307SOL    HW1  920   1.489   1.122   1.829  0.6170  0.6192  0.1230
  307SOL    HW2  921   1.658   1.121   1.781  1.6950 -1.4948 -0.6195
  308SOL     OW  922   2.827   1.383   0.823  0.0255  0.0503  0.1790
  308SOL    HW1  923   2.852   1.480   0.843 -0.6139  0.9377  1.6535
  308SOL    HW2  924   2.836   1.353   0.727  2.0808 -3.8043 -0.1439
  309SOL     OW  925   2.372   1.507   1.271 -0.0981 -0.6816 -0.5983
  309SOL    HW1  926   2.472   1.485   1.285  0.9035 -0.5370  0.8958
  309SOL    HW2  927   2.312   1.479   1.355 -3.5449  0.2634  2.4242
  310SOL     OW  928   2.728   1.807   2.404  0.0641 -0.4513 -0.8614
  310SOL    HW1  929   2.799   1.736   2.388 -1.1896 -1.0805  0.9416
  310SOL    HW2  930   2.750   1.867   2.484 -0.0578 -1.6543 -4.0571
  311SOL     OW  931   0.121   2.312   0.034  0.4489  0.6050 -0.1138
  311SOL    HW1  932   0.042   2.351   0.077  0.1439 -2.1453  0.1066
  311SOL    HW2  933   0.109   2.209   0.038  1.4875  0.8873  2.2138
  312SOL     OW  934   2.337   1.504   1.003  0.2075 -0.2398 -0.2037
  312SOL    HW1  935   2.314   1.511   1.103  0.4203  0.6664 -3.4354
  312SOL    HW2  936   2.383   1.417   0.982 -1.4724  3.0186  0.0456
  313SOL     OW  937   2.677   0.205   1.078 -0.7545 -0.0141 -0.3007
  313SOL    HW1  938   2.670   0.143   0.995  0.8093 -1.0388 -0.6148
  313SOL    HW2  939   2.618   0.286   1.063 -2.0556 -0.6803  2.1867
  314SOL     OW  940   1.162   1.614   0.385  0.0455 -0.3906 -0.0619
  314SOL    HW1  941   1.057   1.616   0.380  0.2384  0.9764 -1.9135
  314SOL    HW2  942   1.198   1.566   0.303  1.1060  1.7556  1.1615
  315SOL     OW  943   1.195   2.648   2.098 -0.2473  0.1163  0.2528
  315SOL    HW1  944   1.179   2.676   2.191  3.4826 -2.2827  1.0837
  315SOL    HW2  945   1.272   2.586   2.091 -2.6806  0.5810  0.7609
  316SOL     OW  946   3.042   1.195   0.319 -0.8598  0.2667  0.3758
  316SOL    HW1  947   0.026   1.193   0.372 -0.6503  1.8519 -3.6999
  316SOL    HW2  948   3.038   1.116   0.251  0.6025  1.5385  0.8429
  317SOL     OW  949   0.961   0.152   0.383 -0.3735 -0.7829 -0.3107
  317SOL    HW1  950   1.061   0.164   0.372 -2.6945 -0.3665 -2.2779
  317SOL    HW2  951   0.948   0.096   0.470  1.0654 -1.3100  0.0270
  318SOL     OW  952   2.844   2.658   0.352  0.3094 -0.3540  0.6942
  318SOL    HW1  953   2.839   2.747   0.301 -0.0738  1.6852 -2.3623
  318SOL    HW2  954   2.935   2.648   0.392  1.5345  2.8678 -0.9607
  319SOL     OW  955   0.582   1.348   2.518  0.2649 -0.2868  0.1603
  319SOL    HW1  956   0.492   1.357   2.562  0.1378  0.1089  0.6556
  319SOL    HW2  957   0.617   1.442   2.490 -0.2281  0.4658  0.4369
  320SOL     OW  958   0.686   2.372   1.642  1.1395 -0.5073 -0.0830
  320SOL    HW1  959   0.781   2.406   1.636  1.0471  0.8309  0.0704
  320SOL    HW2  960   0.623   2.438   1.687 -2.8218 -0.5812 -1.5152
  321SOL     OW  961   1.511   2.235   2.833  0.2548  0.1341  0.4230
  321SOL    HW1  962   1.542   2.331   2.844 -0.1846 -0.7247  0.3352
  321SOL    HW2  963   1.418   2.224   2.879 -0.9351 -1.3606 -0.3900
  322SOL     OW  964   2.820   1.057   1.942  0.2958 -0.1666 -0.5326
  322SOL    HW1  965   2.758   1.101   2.013 -2.0891 -0.8657 -0.6722
  322SOL    HW2  966   2.920   1.055   1.977 -2.0381  0.3531  0.7263
  323SOL     OW  967   2.135   0.810   0.549  0.3085  0.7394 -0.0050
  323SOL    HW1  968   2.200   0.733   0.557 -0.0492 -0.9071 -4.1518
  323SOL    HW2  969   2.095   0.826   0.456  2.1520 -1.0287 -2.0806
  324SOL     OW  970   0.324   2.722   3.096 -0.0503 -0.4109 -0.0118
  324SOL    HW1  971   0.425   2.713   3.098  0.3914  0.1041 -0.3881
  324SOL    HW2  972   0.284   2.731   3.004 -1.6392 -2.1905  2.9137
  325SOL     OW  973   1.484   0.334   2.282 -0.4284  0.1996 -0.5917
  325SOL    HW1  974   1.576   0.346   2.247 -0.5657  0.6924 -0.9071
  325SOL    HW2  975   1.413   0.354   2.206  0.8674 -0.0299 -2.1193
  326SOL     OW  976   2.380   2.642   1.692  0.4193  0.0332 -0.0292
  326SOL    HW1  977   2.467   2.685   1.671 -0.8855  0.2278  0.7460
  326SOL    HW2  978   2.384   2.541   1.684  2.0231  1.6600 -3.3561
  327SOL     OW  979   1.936   0.537   3.052 -0.0858 -0.0930 -0.0665
  327SOL    HW1  980   1.845   0.551   3.005 -1.7992 -1.8373 -3.2666
  327SOL    HW2  981   1.984   0.464   3.004 -1.4813  2.4307  3.4519
  328SOL     OW  982   2.731   0.755   2.220  0.2437 -0.2944  0.5445
  328SOL    HW1  983   2.803   0.828   2.225  1.2617  1.4810  1.3372
  328SOL    HW2  984   2.706   0.710   2.311 -1.2142 -0.1902 -1.1763
  329SOL     OW  985   1.540   0.225   1.960 -0.5530  0.2232 -0.8688
  329SOL    HW1  986   1.516   0.145   2.026  0.0548 -2.1246 -0.0634
  329SOL    HW2  987   1.539   0.191   1.866 -0.6695  1.3244  1.2685
  330SOL     OW  988   2.856   1.757   1.472 -0.2400  0.3246 -0.3177
  330SOL    HW1  989   2.960   1.762   1.479  0.0522  1.8757  2.5405
  330SOL    HW2  990   2.826   1.664   1.437  0.4985 -1.0748  0.4427
  331SOL     OW  991   0.673   1.324   2.158  0.6416 -0.5238 -0.0935
  331SOL    HW1  992   0.629   1.417   2.144 -3.0742  0.6576  2.2664
  331SOL    HW2  993   0.773   1.329   2.151 -0.5172 -1.2589  0.6314
  332SOL     OW  994   0.134   2.700   1.526 -0.8630 -0.7193 -0.1687
  332SOL    HW1  995   0.183   2.788   1.509  0.0984  3.5590  0.0435
  332SOL    HW2  996   0.038   2.712   1.538  3.9600 -3.5891 -0.3500
  333SOL     OW  997   2.320   2.766   1.959 -0.7641  0.1628 -0.1774
  333SOL    HW1  998   2.391   2.831   1.996  3.3738 -1.0707  0.5019
  333SOL    HW2  999   2.342   2.713   1.877 -0.8341 -1.9991 -1.8328
  334SOL     OW 1000   1.065   2.089   0.835  0.6998 -0.0328 -0.2190
  334SOL    HW1 1001   0.967   2.105   0.827  2.7126  0.8598  1.7885
  334SOL    HW2 1002   1.113   2.168   0.875  0.1092 -1.2427  0.6164
  335SOL     OW 1003   0.875   2.277   2.765  0.1689 -0.2808 -0.2254
  335SOL    HW1 1004   0.789   2.321   2.733  1.4835  0.0345 -2.7199
  335SOL    HW2 1005   0.938   2.345   2.818  1.0192  2.1667  2.4856
  336SOL     OW 1006   0.116   0.193   2.115  0.1844 -0.9762  0.6738
  336SOL    HW1 1007   0.146   0.264   2.050 -2.0412 -2.0549 -0.8917
  336SOL    HW2 1008   0.190   0.123   2.133 -0.9649  0.7586 -2.2514
  337SOL     OW 1009   2.778   2.136   0.049  0.2457 -0.7244  0.2971
  337SOL    HW1 1010   2.762   2.157   0.150  0.5607  4.2368  2.2290
  337SOL    HW2 1011   2.860   2.076   0.037 -0.7356  0.5394  1.1887
  338SOL     OW 1012   1.134   2.080   1.313 -0.2898 -0.0325  0.1196
  338SOL    HW1 1013   1.180   2.080   1.224 -3.4953  0.4302  1.8387
  338SOL    HW2 1014   1.074   2.155   1.326  2.7810 -0.8636  0.5288
  339SOL     OW 1015   3.075   0.354   2.321 -0.7537 -0.3012  0.0589
  339SOL    HW1 1016   2.983   0.320   2.300  0.2859  2.4228 -1.1607
  339SOL    HW2 1017   0.039   0.341   2.242 -1.3683 -1.1643 -1.6776
  340SOL     OW 1018   1.754   2.565   0.429 -0.4026 -0.4652  0.7474
  340SOL    HW1 1019   1.740   2.578   0.327 -0.3197  1.9319  0.0930
  340SOL    HW2 1020   1.693   2.494   0.464  2.0285  1.2778 -1.5177
  341SOL     OW 1021   1.647   1.595   1.175  0.1526  0.5792  0.0741
  341SOL    HW1 1022   1.730   1.534   1.196  2.1789 -0.3515  1.3288
  341SOL    HW2 1023   1.655   1.628   1.079  1.5310 -0.4077  0.4647
  342SOL     OW 1024   0.405   1.750   0.711  0.1515  0.0030 -0.1089
  342SOL    HW1 1025   0.321   1.791   0.675  0.9645  0.8422  0.3652
  342SOL    HW2 1026   0.488   1.803   0.684 -0.9544 -0.7923  0.0478
  343SOL     OW 1027   1.321   2.737   1.372  0.0734 -0.8300  0.2812
  343SOL    HW1 1028   1.403   2.701   1.412  0.1668 -1.1648 -0.3883
  343SOL    HW2 1029   1.327   2.835   1.354 -1.0919 -0.0036 -0.2378
  344SOL     OW 1030   2.378   2.814   0.935  0.0845  0.1059 -0.3363
  344SOL    HW1 1031   2.310   2.753   0.888  1.9008  0.5431 -1.4750
  344SOL    HW2 1032   2.334   2.877   1.001 -1.0117  0.3923 -1.1349
  345SOL     OW 1033   2.790   2.236   2.705  0.3065 -0.0296  0.5058
  345SOL    HW1 1034   2.769   2.277   2.609 -0.5579 -0.3457 -1.1834
  345SOL    HW2 1035   2.881   2.265   2.738 -0.5795 -0.2037 -0.2388
  346SOL     OW 1036   0.371   2.062   0.856  0.4779 -0.1058  0.1791
  346SOL    HW1 1037   0.285   2.019   0.886  2.5943 -0.1067 -1.3823
  346SOL    HW2 1038   0.356   2.157   0.829  1.9367 -2.1159 -0.5052
  347SOL     OW 1039   1.860   2.543   1.315  0.3318 -0.4645  0.2034
  347SOL    HW1 1040   1.866   2.587   1.409 -0.0242  0.6957  0.2015
  347SOL    HW2 1041   1.867   2.616   1.242 -1.9943  3.6349  0.5435
  348SOL     OW 1042   1.310   1.535   2.629 -0.1060 -0.3997 -0.0878
  348SOL    HW1 1043   1.305   1.452   2.692 -0.8535  1.7730  0.7928
  348SOL    HW2 1044   1.227   1.536   2.571  3.6221 -2.4586 -0.4229
  349SOL     OW 1045   2.254   0.807   2.146  0.0539  0.0574 -0.0610
  349SOL    HW1 1046   2.168   0.839   2.103 -2.2857  0.1596  0.7612
  349SOL    HW2 1047   2.306   0.883   2.196 -2.1253 -0.0159  2.5716
  350SOL     OW 1048   2.933   2.466   1.300  0.0137  0.5129 -0.2233
  350SOL    HW1 1049   2.932   2.556   1.261 -2.5092  0.4499  1.8557
  350SOL    HW2 1050   2.965   2.388   1.245  1.3396 -2.8279  0.2615
  351SOL     OW 1051   0.619   0.369   2.830  0.2625  0.0885  0.6974
  351SOL    HW1 1052   0.555   0.291   2.855 -3.1399 -0.7289  1.4102
  351SOL    HW2 1053   0.718   0.343   2.826 -1.5702  0.2043  0.8735
  352SOL     OW 1054   0.621   2.385   1.292 -0.0576 -0.7301  0.0362
  352SOL    HW1 1055   0.598   2.307   1.353 -0.0347  2.9312 -1.0019
  352SOL    HW2 1056   0.583   2.474   1.329 -1.2273  2.5436  1.2765
  353SOL     OW 1057   0.731   0.944   2.441  0.1296 -0.1656  0.1498
  353SOL    HW1 1058   0.796   1.017   2.472 -0.7993  0.3517  2.4652
  353SOL    HW2 1059   0.738   0.925   2.347 -0.9067  0.9182  0.3272
  354SOL     OW 1060   1.529   1.037   0.678  0.2626 -0.4591 -0.0394
  354SOL    HW1 1061   1.470   0.961   0.714  1.5462  1.2949  0.7119
  354SOL    HW2 1062   1.510   1.060   0.580  0.3727 -0.1630 -0.4974
  355SOL     OW 1063   2.739   0.240   0.502 -0.2058 -0.0201 -0.1629
  355SOL    HW1 1064   2.695   0.156   0.460  1.1725 -0.8384 -0.3914
  355SOL    HW2 1065   2.672   0.278   0.567 -1.3325 -0.6851  2.6835
  356SOL     OW 1066   2.887   0.999   2.642 -0.2041  0.6625  0.2165
  356SOL    HW1 1067   2.926   0.912   2.612  1.3917  1.3828 -0.8345
  356SOL    HW2 1068   2.887   1.065   2.565 -1.5890 -2.2170  1.3955
  357SOL     OW 1069   0.776   2.777   1.735  0.1726 -0.2952  0.3225
  357SOL    HW1 1070   0.742   2.844   1.663  0.4824  0.7975  1.1041
  357SOL    HW2 1071   0.825   2.697   1.694  0.4181  1.3464 -0.2773
  358SOL     OW 1072   2.417   1.357   2.449  0.0191  0.5779  0.0415
  358SOL    HW1 1073   2.391   1.429   2.383 -1.4146  2.1974  0.0468
  358SOL    HW2 1074   2.331   1.329   2.499 -1.9436 -0.4628 -1.9724
  359SOL     OW 1075   2.518   2.536   2.787 -0.2480  0.6703  0.1737
  359SOL    HW1 1076   2.530   2.607   2.719 -1.8709 -2.6214  2.7883
  359SOL    HW2 1077   2.501   2.444   2.738  0.0078 -1.7760 -0.7563
  360SOL     OW 1078   2.000   0.659   0.756  0.4387  0.3119  0.6222
  360SOL    HW1 1079   2.044   0.572   0.736  0.5161 -0.6200 -0.2270
  360SOL    HW2 1080   2.035   0.730   0.693  2.1281  1.1634  1.4914
  361SOL     OW 1081   1.883   2.744   1.143 -0.0569 -0.0782 -0.0892
  361SOL    HW1 1082   1.809   2.812   1.137 -0.7310  1.6544  1.6162
  361SOL    HW2 1083   1.949   2.760   1.063  0.1695  2.3062  0.3321
  362SOL     OW 1084   1.546   1.301   0.816 -0.1647 -0.2275  0.4223
  362SOL    HW1 1085   1.559   1.200   0.798 -0.6077 -1.0407 -0.6689
  362SOL    HW2 1086   1.632   1.351   0.810  0.7140 -2.5057  0.3962
  363SOL     OW 1087   3.022   1.646   2.432 -0.2753  0.0070 -0.0596
  363SOL    HW1 1088   3.071   1.628   2.342 -1.6341 -0.0225 -0.2868
  363SOL    HW2 1089   3.011   1.559   2.485  0.6050 -0.4323  0.6357
  364SOL     OW 1090   1.274   0.701   1.532  0.1088 -0.5345  0.2337
  364SOL    HW1 1091   1.275   0.621   1.594 -4.0091 -1.0579 -1.2644
  364SOL    HW2 1092   1.357   0.712   1.473  0.0165 -1.5954  0.2955
  365SOL     OW 1093   2.968   2.964   1.196 -0.2063  0.3005 -0.0680
  365SOL    HW1 1094   3.056   2.981   1.237  0.4624 -0.9761 -0.7319
  365SOL    HW2 1095   2.920   3.050   1.185 -1.1004  0.2177  0.5511
  366SOL     OW 1096   2.943   1.430   0.252 -0.0758  0.2882 -0.4981
  366SOL    HW1 1097   3.019   1.478   0.206  0.8187  0.5432  2.4363
  366SOL    HW2 1098   2.969   1.337   0.287  0.4188  0.0591 -0.1669
  367SOL     OW 1099   3.062   1.996   3.065  0.1522  0.2536  0.2630
  367SOL    HW1 1100   0.006   2.014   0.049 -1.2485 -0.5931  0.0052
  367SOL    HW2 1101   3.018   1.905   3.066 -0.2166  1.3052 -0.9488
  368SOL     OW 1102   2.940   2.325   1.017  0.4081  0.2326 -0.4173
  368SOL    HW1 1103   2.843   2.328   1.052  2.0218 -2.4364  1.3505
  368SOL    HW2 1104   2.980   2.418   1.001 -1.6668  2.4913 -0.7181
  369SOL     OW 1105   0.407   0.327   0.305 -0.3082  0.2068  0.1447
  369SOL    HW1 1106   0.455   0.386   0.233  1.0030  1.0121  1.4467
  369SOL    HW2 1107   0.471   0.301   0.378  1.1176 -1.2252 -1.1671
  370SOL     OW 1108   0.354   0.879   1.484  0.6787  0.4263 -0.1594
  370SOL    HW1 1109   0.340   0.955   1.421  1.2802  1.2587  0.8284
  370SOL    HW2 1110   0.448   0.846   1.488 -0.4491 -0.6959  1.4799
  371SOL     OW 1111   2.297   2.116   0.794  0.2347  0.2077  0.1883
  371SOL    HW1 1112   2.297   2.103   0.897  1.7289  3.8113  0.1887
  371SOL    HW2 1113   2.344   2.040   0.747  1.9421 -3.2370 -0.4500
  372SOL     OW 1114   2.976   0.743   2.556 -0.0326  0.4937 -0.1678
  372SOL    HW1 1115   3.051   0.743   2.622  2.5515 -0.9585 -1.8124
  372SOL    HW2 1116   3.015   0.743   2.461 -0.4818  0.1559 -0.1007
  373SOL     OW 1117   3.007   1.486   0.605  0.0648  0.6221 -0.1529
  373SOL    HW1 1118   2.964   1.578   0.596  1.0328  0.4701  0.4888
  373SOL    HW2 1119   2.938   1.418   0.578  0.3653  0.4887 -1.2607
  374SOL     OW 1120   0.676   2.343   0.222  0.3327  0.2546  0.3180
  374SOL    HW1 1121   0.692   2.426   0.164 -1.0140  1.1884 -2.3407
  374SOL    HW2 1122   0.705   2.257   0.172  1.5183 -2.0359 -1.3557
  375SOL     OW 1123   0.780   0.295   0.050  0.1493 -0.3885 -0.8447
  375SOL    HW1 1124   0.843   0.372   0.069  1.6813 -2.7615 -0.2401
  375SOL    HW2 1125   0.815   0.208   0.086  0.6474  0.2254  2.8533
  376SOL     OW 1126   0.267   3.053   2.055 -0.7272  0.4712 -0.1294
  376SOL    HW1 1127   0.219   3.024   2.140 -0.3143 -2.6845 -0.3749
  376SOL    HW2 1128   0.357   3.005   2.056 -1.7056 -0.6362 -1.2677
  377SOL     OW 1129   0.701   1.891   2.195 -0.7688  0.8820 -0.5983
  377SOL    HW1 1130   0.745   1.934   2.277 -0.3689 -0.3842 -0.0748
  377SOL    HW2 1131   0.752   1.915   2.109  0.7669 -1.5893  1.2287
  378SOL     OW 1132   1.038   1.017   0.616 -0.2870 -0.4237 -0.5673
  378SOL    HW1 1133   1.069   0.951   0.684 -0.1653  1.7046 -0.9639
  378SOL    HW2 1134   0.961   0.967   0.569 -0.9353  0.8799  2.4107
  379SOL     OW 1135   1.080   1.544   3.036  0.0623  0.2996  0.6659
  379SOL    HW1 1136   1.068   1.486   0.018 -0.0420  2.3633 -1.7328
  379SOL    HW2 1137   1.181   1.550   3.003  2.8505 -1.5418 -0.8045
  380SOL     OW 1138   0.031   2.044   1.905  0.0187  0.3048  0.1151
  380SOL    HW1 1139   3.040   2.061   1.857 -0.6918 -1.7399 -0.3148
  380SOL    HW2 1140   0.116   2.064   1.851 -1.7848 -0.6010 -0.3007
  381SOL     OW 1141   0.030   0.819   1.852  0.6452 -0.1534 -0.4302
  381SOL    HW1 1142   0.123   0.811   1.813  2.0551  0.0888  1.7694
  381SOL    HW2 1143   0.001   0.732   1.892  0.3058  1.8045 -1.0304
  382SOL     OW 1144   2.642   2.123   2.925 -0.3267 -0.2923  0.1028
  382SOL    HW1 1145   2.710   2.153   2.851 -1.1789  1.3279 -2.4977
  382SOL    HW2 1146   2.680   2.132   3.017 -1.2967  0.0107 -3.5268
  383SOL     OW 1147   2.244   1.957   2.284  0.1115  0.3661  0.1716
  383SOL    HW1 1148   2.341   1.983   2.277  0.5215  1.1848  0.9023
  383SOL    HW2 1149   2.224   1.895   2.360 -0.9433  1.8003  0.4257
  384SOL     OW 1150   0.817   2.431   2.116 -0.3352  0.0795 -0.2805
  384SOL    HW1 1151   0.719   2.446   2.084 -1.2523  0.7456 -0.5456
  384SOL    HW2 1152   0.817   2.361   2.192 -2.4740  1.4031  0.7279
  385SOL     OW 1153   2.649   1.922   1.067  0.6494 -0.0827  0.0903
  385SOL    HW1 1154   2.719   1.986   1.032  1.4326 -1.6212  2.1579
  385SOL    HW2 1155   2.653   1.914   1.167 -1.5700 -0.4870  1.1350
  386SOL     OW 1156   1.710   0.965   2.942 -0.0031 -0.1953  0.0607
  386SOL    HW1 1157   1.732   0.991   3.034  0.4048  0.8040 -1.3990
  386SOL    HW2 1158   1.608   0.956   2.921  0.3769  1.1142  0.2351
  387SOL     OW 1159   0.302   0.824   1.759 -0.2362 -0.5256  0.0003
  387SOL    HW1 1160   0.300   0.828   1.658  1.3726 -2.6988 -2.5503
  387SOL    HW2 1161   0.363   0.897   1.802  2.6204 -0.0349 -1.3155
  388SOL     OW 1162   2.628   0.973   1.513  0.4876 -0.9433 -0.3603
  388SOL    HW1 1163   2.601   0.934   1.422  1.6080  2.2394 -1.5083
  388SOL    HW2 1164   2.714   1.033   1.503  0.4321  1.8366 -0.7090
  389SOL     OW 1165   1.663   0.940   2.615  0.3760  0.0189 -0.9668
  389SOL    HW1 1166   1.750   0.938   2.563 -0.8684  0.6298  1.7426
  389SOL    HW2 1167   1.642   1.035   2.644 -1.1056 -0.0669 -0.0430
  390SOL     OW 1168   2.102   2.311   0.698 -0.6189 -0.2562 -0.1393
  390SOL    HW1 1169   2.181   2.256   0.739  0.9265 -2.9107 -0.2961
  390SOL    HW2 1170   2.032   2.326   0.772  1.5688  1.0221  1.7524
  391SOL     OW 1171   1.728   2.681   0.753 -0.6006  0.2134  0.0706
  391SOL    HW1 1172   1.797   2.696   0.683 -0.5111 -1.2120  0.6202
  391SOL    HW2 1173   1.739   2.587   0.789 -2.0094  1.4084 -0.2277
  392SOL     OW 1174   2.608   2.821   1.671 -0.4987 -0.1029  0.1229
  392SOL    HW1 1175   2.611   2.880   1.586  1.1671  2.2555  0.6069
  392SOL    HW2 1176   2.603   2.882   1.751  0.8610 -0.6958 -0.8506
  393SOL     OW 1177   1.847   1.854   2.941  0.1108  0.0585  0.0561
  393SOL    HW1 1178   1.820   1.949   2.918  0.8583 -1.1252  0.3991
  393SOL    HW2 1179   1.948   1.845   2.961 -2.4421 -1.5123  0.0539
  394SOL     OW 1180   0.570   2.710   2.750  0.2808 -0.5501 -0.0914
  394SOL    HW1 1181   0.553   2.649   2.832 -0.0239 -1.6476 -0.8306
  394SOL    HW2 1182   0.495   2.698   2.683  0.4279  3.4803  1.0989
  395SOL     OW 1183   0.911   1.600   0.967 -0.0289 -0.1539 -0.5157
  395SOL    HW1 1184   0.828   1.576   0.914 -0.8287 -0.7577 -0.8184
  395SOL    HW2 1185   0.894   1.653   1.055 -0.6305 -0.8407 -1.3503
  396SOL     OW 1186   1.807   0.755   2.780  0.0415  0.4269 -0.1411
  396SOL    HW1 1187   1.725   0.754   2.727  1.1900  0.0960  0.7911
  396SOL    HW2 1188   1.803   0.826   2.853 -0.3857  1.5176  2.2026
  397SOL     OW 1189   0.014   0.558   2.913 -0.1811 -0.0643  0.5656
  397SOL    HW1 1190   0.027   0.612   2.828  0.8864  2.3128  2.0909
  397SOL    HW2 1191   3.023   0.530   2.933  0.4063  0.2109 -2.7725
  398SOL     OW 1192   1.127   0.634   0.468 -0.0234  0.3322  0.9356
  398SOL    HW1 1193   1.177   0.708   0.419  1.2410  0.2590 -0.9606
  398SOL    HW2 1194   1.043   0.604   0.416  0.8831 -0.9389  0.2050
  399SOL     OW 1195   1.899   0.062   1.861  0.0721 -0.6734  0.2194
  399SOL    HW1 1196   1.852   0.093   1.775  1.0762 -2.1868 -0.0172
  399SOL    HW2 1197   1.846   3.086   1.898 -2.9224 -0.5246 -2.0669
  400SOL     OW 1198   2.899   2.189   2.333  0.0961  0.1228 -0.5493
  400SOL    HW1 1199   2.965   2.185   2.414 -2.1091  0.4571  0.2170
  400SOL    HW2 1200   2.929   2.121   2.260 -0.0770  0.8318  0.0622
  401SOL     OW 1201   0.876   0.050   0.135  0.1150 -0.3257 -0.5148
  401SOL    HW1 1202   0.796   3.092   0.141  0.0902  0.1077  2.3862
  401SOL    HW2 1203   0.905   0.079   0.227  1.3030 -0.3027  0.1330
  402SOL     OW 1204   0.284   2.294   1.404 -0.4841  0.3107  0.4444
  402SOL    HW1 1205   0.362   2.244   1.440 -0.7609  0.5476  1.0833
  402SOL    HW2 1206   0.227   2.310   1.488  2.2652  0.8057 -1.0797
  403SOL     OW 1207   0.056   0.975   1.252  0.0546  0.3826 -0.0555
  403SOL    HW1 1208   0.034   1.072   1.265 -0.5597 -0.8479 -0.2099
  403SOL    HW2 1209   3.074   0.921   1.265  1.5799 -0.5396 -1.7659
  404SOL     OW 1210   0.113   2.482   2.076 -0.1983  0.3367 -0.1770
  404SOL    HW1 1211   0.155   2.390   2.072  0.6873 -0.7444  0.5896
  404SOL    HW2 1212   0.145   2.535   2.161  0.1947 -0.7594  0.1127
  405SOL     OW 1213   2.823   0.305   2.241 -0.1335 -1.0834  0.7191
  405SOL    HW1 1214   2.764   0.233   2.198 -1.6756 -3.2685 -1.3944
  405SOL    HW2 1215   2.774   0.362   2.312 -0.3034  0.4507  0.2589
  406SOL     OW 1216   2.175   2.447   0.266  0.5562 -0.0730 -0.1287
  406SOL    HW1 1217   2.233   2.369   0.289 -1.2480 -0.1913 -0.3004
  406SOL    HW2 1218   2.111   2.477   0.342  0.4299  2.3333 -1.4038
  407SOL     OW 1219   1.964   1.644   0.798 -0.2575 -0.0735 -0.1865
  407SOL    HW1 1220   2.043   1.583   0.820  3.6179 -0.6825 -3.3581
  407SOL    HW2 1221   1.931   1.630   0.703 -1.8354  0.0521 -1.7819
  408SOL     OW 1222   0.519   0.309   2.434  0.3590 -0.1343  0.3740
  408SOL    HW1 1223   0.437   0.250   2.403 -3.5657 -0.3115  1.7984
  408SOL    HW2 1224   0.594   0.317   2.367 -0.0907  1.8210  0.3154
  409SOL     OW 1225   2.835   1.682   0.564 -0.6688  0.1922  0.2797
  409SOL    HW1 1226   2.752   1.662   0.617  2.1593  2.8040 -1.1713
  409SOL    HW2 1227   2.811   1.660   0.466 -0.2336  0.1920 -0.3917
  410SOL     OW 1228   2.079   1.306   1.265 -0.0555  0.0370  0.4915
  410SOL    HW1 1229   2.084   1.402   1.226 -0.4091  1.9134 -0.7527
  410SOL    HW2 1230   2.095   1.320   1.366  1.5615  1.0775  0.9819
  411SOL     OW 1231   0.015   0.756   0.339 -0.0123  0.6251 -0.1401
  411SOL    HW1 1232   0.063   0.669   0.308  0.4784  0.1138 -0.9397
  411SOL    HW2 1233   3.025   0.729   0.382 -0.1391  0.8558  0.0769
  412SOL     OW 1234   1.621   0.613   0.117  0.2117  0.6019 -0.1667
  412SOL    HW1 1235   1.553   0.677   0.083 -0.5623 -1.1515  1.2291
  412SOL    HW2 1236   1.661   0.654   0.199 -1.6127 -0.6840  0.7837
  413SOL     OW 1237   0.672   0.851   1.709  0.0881  0.1039 -0.3069
  413SOL    HW1 1238   0.608   0.916   1.761  0.3846 -1.1550  0.0792
  413SOL    HW2 1239   0.622   0.788   1.640 -0.8260  0.9954  1.5443
  414SOL     OW 1240   3.085   1.207   2.903  0.0137 -0.1378 -0.3517
  414SOL    HW1 1241   2.991   1.168   2.891  1.1479  0.9669  3.2288
  414SOL    HW2 1242   3.094   1.306   2.876  2.5712  0.7835  2.3786
  415SOL     OW 1243   0.265   1.559   3.075  0.5188 -0.2927 -0.4567
  415SOL    HW1 1244   0.331   1.493   3.031 -0.3468  1.0497  1.6129
  415SOL    HW2 1245   0.181   1.563   3.011 -0.9751 -2.5652 -1.9877
  416SOL     OW 1246   1.286   0.868   0.195  0.1495 -0.0927  0.0938
  416SOL    HW1 1247   1.289   0.875   0.300 -2.7886 -3.2310  0.3447
  416SOL    HW2 1248   1.211   0.926   0.159 -1.3810  0.0029 -3.8898
  417SOL     OW 1249   0.424   0.400   0.852  0.1265  0.1388  0.1894
  417SOL    HW1 1250   0.350   0.387   0.786  2.8396  0.7946  3.3674
  417SOL    HW2 1251   0.507   0.389   0.798 -2.8214  0.4112  0.9377
  418SOL     OW 1252   2.184   0.995   2.933 -0.6584 -0.3602  0.1513
  418SOL    HW1 1253   2.178   0.909   2.992 -2.2603 -1.0432 -0.2538
  418SOL    HW2 1254   2.270   1.006   2.881  0.9335  0.7234 -1.0302
  419SOL     OW 1255   0.557   0.423   0.100  0.0985  0.3280 -0.1495
  419SOL    HW1 1256   0.488   0.407   0.026  0.9220  0.8271  0.3583
  419SOL    HW2 1257   0.648   0.374   0.091 -0.2915  1.3542  0.9578
  420SOL     OW 1258   0.373   1.605   1.067 -0.0855 -0.1858 -0.5073
  420SOL    HW1 1259   0.344   1.509   1.076  1.9787  0.4532 -3.2270
  420SOL    HW2 1260   0.306   1.661   1.012 -2.9525 -0.9537 -0.7709
  421SOL     OW 1261   0.422   2.045   0.114  0.2620  0.3021 -0.2309
  421SOL    HW1 1262   0.454   2.130   0.080 -1.5569 -0.3224 -0.3191
  421SOL    HW2 1263   0.427   1.970   0.042  0.7888  2.8223  2.5168
  422SOL     OW 1264   2.230   0.265   1.476 -0.5165  0.3646  0.0147
  422SOL    HW1 1265   2.289   0.330   1.526 -1.1498 -0.4709 -0.1224
  422SOL    HW2 1266   2.175   0.214   1.541 -0.3652  1.3078  0.6432
  423SOL     OW 1267   2.108   1.393   0.855  0.3071  0.7915 -0.1870
  423SOL    HW1 1268   2.192   1.433   0.898  0.8639  0.1817 -3.9381
  423SOL    HW2 1269   2.125   1.298   0.820 -0.0468 -1.4134 -0.2556
  424SOL     OW 1270   1.967   1.509   0.204 -0.2050  0.1548 -0.3812
  424SOL    HW1 1271   2.017   1.550   0.129  0.2189  0.0635  1.9528
  424SOL    HW2 1272   1.996   1.548   0.292  1.3827 -0.2084 -0.6152
  425SOL     OW 1273   0.399   2.938   2.421  0.6146  0.0169 -0.1513
  425SOL    HW1 1274   0.414   2.911   2.323  0.2206 -2.2693 -0.9925
  425SOL    HW2 1275   0.411   2.859   2.484  0.2645 -1.4661 -0.9105
  426SOL     OW 1276   2.569   2.739   2.610  0.5403 -0.5338 -0.1619
  426SOL    HW1 1277   2.556   2.842   2.626  0.4438  4.4306  1.0261
  426SOL    HW2 1278   2.513   2.713   2.528 -1.3364  0.9780  1.1416
  427SOL     OW 1279   0.506   0.979   2.146  0.2874  0.0637  0.2765
  427SOL    HW1 1280   0.437   0.910   2.173  2.5302 -2.5923  0.2931
  427SOL    HW2 1281   0.529   1.028   2.229  0.3208 -0.3106  0.6191
  428SOL     OW 1282   1.982   1.017   2.236 -0.2683 -0.0732  0.1143
  428SOL    HW1 1283   2.002   0.966   2.152 -0.0707  1.9042  1.0600
  428SOL    HW2 1284   2.053   1.091   2.246  0.7211 -1.5543 -1.5959
  429SOL     OW 1285   2.330   0.198   0.528 -0.0038  0.0106 -0.1331
  429SOL    HW1 1286   2.315   0.147   0.440 -2.4525 -1.7499 -4.0003
  429SOL    HW2 1287   2.360   0.288   0.502 -2.3122 -1.9842  0.7229
  430SOL     OW 1288   1.639   1.320   2.107  0.1615  0.5471 -0.4645
  430SOL    HW1 1289   1.601   1.252   2.175 -0.3097  0.8773  0.7099
  430SOL    HW2 1290   1.565   1.369   2.051 -0.0442  0.7645 -3.1810
  431SOL     OW 1291   2.720   1.918   1.646  0.1418 -0.0361 -0.6358
  431SOL    HW1 1292   2.773   1.872   1.570 -1.9739 -2.2693  0.0607
  431SOL    HW2 1293   2.630   1.944   1.608 -0.3578 -1.4978 -0.0349
  432SOL     OW 1294   1.149   2.831   1.753  0.0021  0.3613  0.1254
  432SOL    HW1 1295   1.133   2.761   1.680  1.4302  0.6682 -0.2899
  432SOL    HW2 1296   1.066   2.832   1.814 -2.2636  2.6202  0.6100
  433SOL     OW 1297   1.481   2.929   1.017  0.6459  0.2895 -0.3223
  433SOL    HW1 1298   1.569   2.922   0.965 -1.4648 -0.6502 -2.3739
  433SOL    HW2 1299   1.423   2.844   1.007 -1.2241 -0.7633  1.9973
  434SOL     OW 1300   0.559   2.156   2.107 -0.6970 -0.2430 -0.8043
  434SOL    HW1 1301   0.595   2.151   2.010 -0.7663  0.0022 -0.7797
  434SOL    HW2 1302   0.479   2.095   2.113  2.5285  0.1204 -1.1843
  435SOL     OW 1303   0.310   1.590   0.255 -0.0993  0.1852 -0.5208
  435SOL    HW1 1304   0.268   1.559   0.169  0.7001  2.1668  1.8808
  435SOL    HW2 1305   0.262   1.567   0.339 -2.3054  1.7736 -0.0300
  436SOL     OW 1306   0.564   1.258   1.924 -0.2385 -0.6403  0.1900
  436SOL    HW1 1307   0.554   1.339   1.857  0.4723  2.6769 -0.4575
  436SOL    HW2 1308   0.597   1.291   2.016 -2.5944  1.8057  3.2546
  437SOL     OW 1309   1.157   0.704   2.943  0.6198  0.2242 -0.3614
  437SOL    HW1 1310   1.205   0.671   3.027  0.6301 -0.1424  0.5434
  437SOL    HW2 1311   1.196   0.666   2.859 -0.4268  2.7804  1.4688
  438SOL     OW 1312   0.594   1.946   1.565  0.1600 -0.0224 -0.0404
  438SOL    HW1 1313   0.536   1.909   1.488  0.1355  2.3084 -2.5726
  438SOL    HW2 1314   0.688   1.911   1.555 -2.0213  1.5407  0.4533
  439SOL     OW 1315   2.134   1.791   2.991 -0.0134  0.5513 -0.2727
  439SOL    HW1 1316   2.165   1.822   3.082 -1.0502  0.2676 -2.4443
  439SOL    HW2 1317   2.084   1.702   2.994 -0.8191 -1.9854  2.3833
  440SOL     OW 1318   1.366   0.495   0.595  0.3106 -0.1044  0.1816
  440SOL    HW1 1319   1.350   0.435   0.673 -0.7050  0.0034 -0.7232
  440SOL    HW2 1320   1.277   0.536   0.564  3.6800  0.3483 -1.5439
  441SOL     OW 1321   0.541   2.603   1.460 -0.1318  0.2826 -0.0509
  441SOL    HW1 1322   0.553   2.569   1.554  1.2238 -0.0591 -3.2101
  441SOL    HW2 1323   0.472   2.674   1.462 -0.6044  1.4533  0.3902
  442SOL     OW 1324   2.514   2.391   0.932  0.2606 -0.2634 -0.0702
  442SOL    HW1 1325   2.410   2.402   0.929 -2.3432 -1.8240 -2.4476
  442SOL    HW2 1326   2.555   2.317   0.874 -1.8712  0.9699  0.8641
  443SOL     OW 1327   2.489   0.757   2.598 -0.9067 -0.1826  0.5035
  443SOL    HW1 1328   2.435   0.834   2.563  1.4129 -0.4908  1.6599
  443SOL    HW2 1329   2.438   0.704   2.668 -0.3810  0.7161  0.2884
  444SOL     OW 1330   1.540   0.715   2.460  0.3475  0.0578 -0.5659
  444SOL    HW1 1331   1.587   0.786   2.506 -2.6137 -1.8043 -2.0247
  444SOL    HW2 1332   1.568   0.709   2.363 -0.1931  1.3432  1.2052
  445SOL     OW 1333   2.785   2.440   1.682  0.3752  0.5054 -0.5555
  445SOL    HW1 1334   2.771   2.359   1.743  1.4957  0.3226 -0.5396
  445SOL    HW2 1335   2.806   2.525   1.736 -0.3429 -0.5286  1.2667
  446SOL     OW 1336   0.171   1.529   0.471 -0.1442  0.1920 -0.3251
  446SOL    HW1 1337   0.212   1.543   0.561 -1.1482 -1.6654  2.1985
  446SOL    HW2 1338   0.071   1.500   0.493 -4.3183 -1.6955  2.5511
  447SOL     OW 1339   0.980   2.411   0.800  0.2322  0.4458  0.0845
  447SOL    HW1 1340   0.950   2.486   0.860  0.8680 -1.0259 -0.4689
  447SOL    HW2 1341   0.899   2.353   0.774  0.3162 -0.7450  0.2645
  448SOL     OW 1342   1.701   1.552   1.638 -0.3119 -0.4345 -0.2700
  448SOL    HW1 1343   1.768   1.504   1.697  0.1127 -2.6315 -0.3997
  448SOL    HW2 1344   1.615   1.501   1.625 -1.3679  0.6058  0.3451
  449SOL     OW 1345   0.734   1.709   2.666 -0.0891  0.7593 -0.3958
  449SOL    HW1 1346   0.661   1.747   2.721 -0.6427 -0.1773  0.7979
  449SOL    HW2 1347   0.798   1.650   2.721 -0.3914 -1.3747 -0.2610
  450SOL     OW 1348   2.994   1.989   2.146  0.5797 -0.0167  0.2454
  450SOL    HW1 1349   2.901   1.961   2.116  4.8713 -1.5851 -1.4855
  450SOL    HW2 1350   3.051   2.005   2.067 -0.9971 -0.8867  0.0318
  451SOL     OW 1351   1.882   0.474   1.642 -0.3327 -0.0647 -0.1781
  451SOL    HW1 1352   1.924   0.403   1.580  0.2750 -2.0403  0.7965
  451SOL    HW2 1353   1.921   0.564   1.615  0.6568 -2.5293  1.0834
  452SOL     OW 1354   0.980   2.841   1.320  0.5760  0.1833  0.2590
  452SOL    HW1 1355   1.011   2.747   1.319  3.2047  1.9766 -0.2800
  452SOL    HW2 1356   0.875   2.845   1.315 -3.5920 -2.6127 -0.6768
  453SOL     OW 1357   1.027   1.814   0.790 -0.1263 -0.7722 -0.0824
  453SOL    HW1 1358   0.997   1.756   0.866  2.0541  1.1394 -1.5373
  453SOL    HW2 1359   1.053   1.906   0.826 -0.8066 -0.3248 -3.2534
  454SOL     OW 1360   3.074   0.997   0.662  0.1985  0.1901 -0.4629
  454SOL    HW1 1361   0.044   0.972   0.590  1.9875  2.5334 -2.6332
  454SOL    HW2 1362   3.102   1.076   0.720 -0.6842  1.2792  1.2565
  455SOL     OW 1363   0.560   1.003   0.556 -0.6285 -0.1653  0.1932
  455SOL    HW1 1364   0.523   1.059   0.480 -0.6840 -3.0204  0.5420
  455SOL    HW2 1365   0.508   0.919   0.561  0.0892 -0.1908 -2.0114
  456SOL     OW 1366   2.237   2.464   0.998  0.0076  0.3271  0.6305
  456SOL    HW1 1367   2.232   2.509   1.087 -0.3356 -0.8151 -0.9365
  456SOL    HW2 1368   2.220   2.362   1.012 -1.4476 -1.0469  0.9959
  457SOL     OW 1369   1.458   2.625   0.125  0.4612  0.2050  0.3166
  457SOL    HW1 1370   1.425   2.691   0.200 -1.9376 -0.5575 -2.5215
  457SOL    HW2 1371   1.560   2.617   0.118  1.3292 -0.6467  1.1087
  458SOL     OW 1372   2.948   0.077   0.029 -0.0867  0.0606  0.7668
  458SOL    HW1 1373   2.899   3.093   0.018 -0.1068 -0.4170  2.1082
  458SOL    HW2 1374   3.041   0.064   3.091  1.0708 -0.7893 -0.2377
  459SOL     OW 1375   2.099   0.120   1.668  0.6022  0.1830 -0.2194
  459SOL    HW1 1376   2.143   0.039   1.616  0.4342 -4.2620 -1.2997
  459SOL    HW2 1377   2.032   0.083   1.738 -0.1871 -1.3588 -0.3287
  460SOL     OW 1378   2.972   0.435   0.156 -0.3538  0.1392  0.0241
  460SOL    HW1 1379   2.985   0.335   0.143  1.5695  0.1003  2.1370
  460SOL    HW2 1380   2.903   0.450   0.233 -0.4624  1.8638  4.0972
  461SOL     OW 1381   0.042   2.139   1.049 -0.0625  0.1966 -0.1316
  461SOL    HW1 1382   0.063   2.074   0.972  0.7722  0.5518  0.1412
  461SOL    HW2 1383   3.071   2.207   1.022  0.2235 -0.6531 -0.8292
  462SOL     OW 1384   3.082   0.062   0.941  0.1561 -0.1289 -0.4601
  462SOL    HW1 1385   0.080   0.043   0.947  0.9374 -1.1269  2.4914
  462SOL    HW2 1386   3.047   0.110   1.022  2.0768 -2.6616  1.5208
  463SOL     OW 1387   2.330   1.396   2.994 -0.4996 -0.0187 -0.5872
  463SOL    HW1 1388   2.318   1.308   3.046 -0.3172 -0.7585  0.7734
  463SOL    HW2 1389   2.351   1.388   2.892  0.0721  1.0247  0.6700
  464SOL     OW 1390   0.701   2.821   1.363 -0.6008 -0.1260  0.0483
  464SOL    HW1 1391   0.647   2.875   1.296 -1.5290  1.4422 -0.3543
  464SOL    HW2 1392   0.638   2.768   1.419 -0.4842  2.7585 -3.0164
  465SOL     OW 1393   0.840   0.536   1.094  0.3630  0.1682  0.1474
  465SOL    HW1 1394   0.899   0.613   1.125  2.7030 -1.3479 -0.4965
  465SOL    HW2 1395   0.744   0.561   1.069  2.4346  0.7578  0.1948
  466SOL     OW 1396   1.500   2.235   2.132  0.4300 -0.4977 -0.4073
  466SOL    HW1 1397   1.564   2.268   2.062  0.5570 -2.5093  0.0325
  466SOL    HW2 1398   1.551   2.198   2.210 -1.5663 -1.3455 -0.9542
  467SOL     OW 1399   0.865   0.304   1.993  0.4531 -0.1825 -0.1840
  467SOL    HW1 1400   0.928   0.305   2.072 -3.0975  2.3327 -0.9809
  467SOL    HW2 1401   0.899   0.238   1.928 -0.6944  0.4170  1.2641
  468SOL     OW 1402   3.051   1.226   2.203 -0.1186  0.8585  0.5938
  468SOL    HW1 1403   3.057   1.135   2.157  3.4196  0.0802  2.8239
  468SOL    HW2 1404   0.044   1.254   2.232 -0.2006 -2.8068 -1.3825
  469SOL     OW 1405   1.125   2.657   0.351  0.0831 -0.4033  0.4572
  469SOL    HW1 1406   1.211   2.706   0.324 -0.2091 -2.9620  2.1735
  469SOL    HW2 1407   1.147   2.588   0.420 -1.5014  1.2349 -1.4533
  470SOL     OW 1408   2.171   1.213   2.282 -0.2861  0.1232 -0.4815
  470SOL    HW1 1409   2.162   1.274   2.202 -0.4921  3.3760  1.6359
  470SOL    HW2 1410   2.152   1.258   2.374  2.5892  0.7301 -0.1142
  471SOL     OW 1411   1.010   2.458   2.940 -0.4601 -0.0499 -0.7768
  471SOL    HW1 1412   1.059   2.405   3.011  1.9880 -0.1050 -0.9707
  471SOL    HW2 1413   1.063   2.544   2.918 -0.9543 -0.0017 -1.7071
  472SOL     OW 1414   0.466   2.410   2.066 -0.0983 -0.1452 -0.1040
  472SOL    HW1 1415   0.468   2.323   2.122 -2.0449  0.0195 -0.3283
  472SOL    HW2 1416   0.411   2.389   1.979  0.2053 -1.4760 -0.1326
  473SOL     OW 1417   1.010   0.130   2.996  0.1637  0.1158 -0.0003
  473SOL    HW1 1418   1.053   0.054   2.945 -1.7098 -0.0065  0.0888
  473SOL    HW2 1419   0.947   0.102   3.074 -1.6505 -0.5727  0.9236
  474SOL     OW 1420   1.567   0.200   0.778 -0.0063 -0.7095  0.5628
  474SOL    HW1 1421   1.564   0.102   0.757  0.8529  0.8821  1.6449
  474SOL    HW2 1422   1.659   0.238   0.783 -0.3634 -0.2960 -3.0277
  475SOL     OW 1423   1.532   0.417   1.341 -0.5209  0.0404  0.0591
  475SOL    HW1 1424   1.508   0.517   1.322  1.9642  1.5721 -2.8739
  475SOL    HW2 1425   1.615   0.393   1.287  1.1072  3.9600 -1.1532
  476SOL     OW 1426   0.235   0.839   1.063 -0.1323 -0.0042  0.3302
  476SOL    HW1 1427   0.186   0.906   1.126  0.4999  1.3468  0.7203
  476SOL    HW2 1428   0.286   0.898   0.995 -3.6932  0.3349 -2.1249
  477SOL     OW 1429   1.231   2.118   0.611  0.1784  0.0077 -0.1037
  477SOL    HW1 1430   1.298   2.183   0.653 -1.7139  1.8517 -2.1881
  477SOL    HW2 1431   1.157   2.090   0.679 -0.3604  0.3364  3.5259
  478SOL     OW 1432   0.215   2.559   2.304  0.3528  0.6821  0.0842
  478SOL    HW1 1433   0.198   2.484   2.372  1.8483  0.4816  2.4270
  478SOL    HW2 1434   0.311   2.590   2.304 -0.8709  0.1757  4.0050
  479SOL     OW 1435   2.952   0.379   1.291 -0.1792 -0.0453 -0.0105
  479SOL    HW1 1436   2.869   0.420   1.328  2.4838 -0.8647  1.4325
  479SOL    HW2 1437   3.024   0.453   1.277  3.2222  3.6183 -0.6897
  480SOL     OW 1438   2.966   2.402   0.154 -0.0513 -0.0423 -0.1632
  480SOL    HW1 1439   2.981   2.486   0.211  0.5421  0.3285 -2.1097
  480SOL    HW2 1440   2.891   2.419   0.086  0.5484 -1.7155 -2.0962
  481SOL     OW 1441   2.476   2.020   1.903 -0.0432 -0.0087  0.0826
  481SOL    HW1 1442   2.477   2.034   1.800  1.0116  2.6860  0.7753
  481SOL    HW2 1443   2.484   2.111   1.952  1.0367  1.0263  1.2804
  482SOL     OW 1444   1.494   1.870   2.379  0.4945  0.0474  0.6929
  482SOL    HW1 1445   1.523   1.957   2.332  0.7643  0.6661  0.0656
  482SOL    HW2 1446   1.440   1.889   2.467  1.3318 -0.4796 -0.0809
  483SOL     OW 1447   0.903   1.581   1.518  0.1482  0.0651 -0.4668
  483SOL    HW1 1448   0.979   1.552   1.463 -0.1260  1.1520  3.7920
  483SOL    HW2 1449   0.822   1.521   1.511  0.0911  0.6605  1.5856
  484SOL     OW 1450   0.299   0.457   1.603 -0.3388  0.0169  0.2297
  484SOL    HW1 1451   0.396   0.456   1.556  1.5898  0.2994  0.1961
  484SOL    HW2 1452   0.306   0.496   1.697 -0.6540  0.4232 -1.9657
  485SOL     OW 1453   2.214   1.164   0.060 -0.2984 -0.1195  0.4791
  485SOL    HW1 1454   2.168   1.126   3.074  1.0884 -0.7330 -2.7511
  485SOL    HW2 1455   2.290   1.105   0.092  0.2396  0.7842  0.3826
  486SOL     OW 1456   1.363   0.131   1.539  0.3095  0.0402 -0.0199
  486SOL    HW1 1457   1.280   0.125   1.474 -1.1886  0.9291  0.4523
  486SOL    HW2 1458   1.395   0.227   1.559  2.1161  0.0832  0.2958
  487SOL     OW 1459   0.535   2.197   1.493 -0.2975  0.2346  0.4161
  487SOL    HW1 1460   0.582   2.272   1.542  1.7515 -1.7098 -0.4867
  487SOL    HW2 1461   0.566   2.104   1.524  3.0200  0.0639  1.4548
  488SOL     OW 1462   2.519   1.863   2.909  0.1450 -0.1240  0.1455
  488SOL    HW1 1463   2.431   1.890   2.864 -0.4938 -0.6580 -2.6972
  488SOL    HW2 1464   2.579   1.945   2.918 -0.2886  0.9708 -1.1181
  489SOL     OW 1465   1.981   3.027   0.511  0.8738  0.1587  0.3073
  489SOL    HW1 1466   1.886   3.023   0.484  0.0547  3.4468  0.0077
  489SOL    HW2 1467   2.035   2.956   0.462  1.7016  2.7800  0.9644
  490SOL     OW 1468   1.274   2.212   2.950 -0.1913 -0.3064 -0.2920
  490SOL    HW1 1469   1.237   2.122   2.935 -1.6832  2.1582  2.9708
  490SOL    HW2 1470   1.214   2.259   3.017 -0.8488  1.5782  1.2688
  491SOL     OW 1471   0.555   1.441   1.721  0.0872  0.1934  0.3873
  491SOL    HW1 1472   0.461   1.457   1.689 -0.1154  0.2201  0.1888
  491SOL    HW2 1473   0.606   1.408   1.637  0.8027  0.3378 -0.9788
  492SOL     OW 1474   1.326   1.088   1.881 -0.0990  0.3041 -0.3335
  492SOL    HW1 1475   1.246   1.090   1.823 -0.3767 -1.3049 -0.7767
  492SOL    HW2 1476   1.309   1.143   1.969 -1.4495  0.5565  1.7045
  493SOL     OW 1477   2.267   1.729   0.860 -0.0559  0.2469  0.1165
  493SOL    HW1 1478   2.322   1.666   0.919 -0.4137  0.2596 -0.4090
  493SOL    HW2 1479   2.188   1.768   0.911  1.8281 -3.0517 -0.5189
  494SOL     OW 1480   0.566   1.791   0.998 -0.5569  0.4922  0.0304
  494SOL    HW1 1481   0.481   1.738   1.012 -0.4899  0.1846 -0.9794
  494SOL    HW2 1482   0.568   1.843   0.908  0.2148  1.8976 -2.1164
  495SOL     OW 1483   2.229   2.638   0.746  0.2661 -0.2305 -0.8258
  495SOL    HW1 1484   2.305   2.655   0.680 -0.6870  0.1552  2.0492
  495SOL    HW2 1485   2.259   2.570   0.819  0.1337 -0.0814  1.5811
  496SOL     OW 1486   2.639   2.979   1.441 -0.2531 -0.2099 -0.1140
  496SOL    HW1 1487   2.721   3.036   1.426  0.2033 -0.1819  2.8558
  496SOL    HW2 1488   2.557   3.041   1.443  3.1981 -1.2712 -1.0703
  497SOL     OW 1489   2.335   0.970   2.534  0.4842  0.3766  0.0054
  497SOL    HW1 1490   2.344   0.969   2.432  1.7564  1.2379 -2.1350
  497SOL    HW2 1491   2.239   1.000   2.554 -0.7283  0.3319 -0.9852
  498SOL     OW 1492   0.058   2.141   1.552 -0.2077 -0.1445  0.7265
  498SOL    HW1 1493   0.060   2.085   1.467  1.0082  0.1841 -0.7125
  498SOL    HW2 1494   3.082   2.201   1.558  1.5703 -2.1238  1.2348
  499SOL     OW 1495   1.027   2.516   1.940  0.1632  0.0043  0.5594
  499SOL    HW1 1496   0.955   2.492   2.012 -0.4177  4.6131  2.2800
  499SOL    HW2 1497   1.099   2.578   1.984 -0.3953  2.3414  0.4273
  500SOL     OW 1498   0.993   2.239   0.457  0.7427 -0.0260  1.0720
  500SOL    HW1 1499   0.919   2.308   0.474  0.1936 -0.5163 -1.2652
  500SOL    HW2 1500   1.074   2.264   0.515  1.6360 -0.3505  2.5231
  501SOL     OW 1501   1.637   3.067   1.418  0.0147 -0.1600  0.3141
  501SOL    HW1 1502   1.623   3.096   1.321  1.5681  1.6161  0.9363
  501SOL    HW2 1503   1.566   3.005   1.446  1.7741  1.7281  0.0249
  502SOL     OW 1504   2.326   0.447   1.636 -0.1301  0.3783 -0.0831
  502SOL    HW1 1505   2.273   0.495   1.708  0.3838 -1.6896 -1.1069
  502SOL    HW2 1506   2.405   0.396   1.674 -1.1296  1.7584  1.5173
  503SOL     OW 1507   2.624   1.192   2.357 -0.3487  0.1182 -0.4228
  503SOL    HW1 1508   2.553   1.257   2.395 -0.8600  0.6688  2.6538
  503SOL    HW2 1509   2.613   1.183   2.257  0.8393  0.1923  0.3977
  504SOL     OW 1510   1.502   1.038   1.329 -0.0200  0.1193 -0.4996
  504SOL    HW1 1511   1.560   0.980   1.275 -1.0031 -1.5826  0.0357
  504SOL    HW2 1512   1.429   1.081   1.270 -0.5851  0.1079 -1.8350
  505SOL     OW 1513   0.598   2.978   1.563  0.5781 -0.4332 -0.3712
  505SOL    HW1 1514   0.680   2.966   1.501 -0.1753  0.1599 -0.9547
  505SOL    HW2 1515   0.514   2.979   1.505 -1.6662  0.2095  0.6638
  506SOL     OW 1516   0.173   0.191   0.270  0.4631 -0.7864 -0.0697
  506SOL    HW1 1517   0.170   0.206   0.170  0.8251  0.2278 -1.8244
  506SOL    HW2 1518   0.257   0.240   0.306 -1.0710  2.5543 -0.9154
  507SOL     OW 1519   2.704   2.939   0.005  0.1515  0.0790 -0.4018
  507SOL    HW1 1520   2.763   2.929   0.089  0.9458 -1.0474 -1.5101
  507SOL    HW2 1521   2.760   2.925   3.026 -0.7069 -1.0944  1.8449
  508SOL     OW 1522   1.114   0.341   1.859  0.0192 -0.5885  0.0885
  508SOL    HW1 1523   1.098   0.276   1.783  0.6449  0.1802 -0.2586
  508SOL    HW2 1524   1.022   0.392   1.887  0.8132  4.3593 -0.4455
  509SOL     OW 1525   1.680   1.833   1.291  0.3428 -0.6556  0.0964
  509SOL    HW1 1526   1.595   1.876   1.326  1.4895 -0.1116 -1.4341
  509SOL    HW2 1527   1.665   1.748   1.239  3.0684 -2.2781 -0.9430
  510SOL     OW 1528   2.450   1.079   1.668 -0.0664 -0.0882 -0.6000
  510SOL    HW1 1529   2.517   1.049   1.598 -0.2109 -0.4629  2.5505
  510SOL    HW2 1530   2.354   1.071   1.623 -2.1481 -0.5407 -0.5301
  511SOL     OW 1531   1.431   1.907   1.347 -0.0109 -0.2257  0.4861
  511SOL    HW1 1532   1.462   1.995   1.383  0.4144 -1.9800 -1.8103
  511SOL    HW2 1533   1.363   1.857   1.404  0.8203 -0.4139  1.0368
  512SOL     OW 1534   0.058   1.252   0.727 -0.6738 -0.2469 -0.1425
  512SOL    HW1 1535   0.071   1.295   0.637  0.2112  0.2547 -2.2704
  512SOL    HW2 1536   3.079   1.295   0.773 -0.6455  1.3223  0.2294
  513SOL     OW 1537   0.010   1.563   2.970 -0.0991  0.1695 -0.2619
  513SOL    HW1 1538   0.035   1.532   2.874  0.4713 -2.9499 -1.5165
  513SOL    HW2 1539   3.013   1.558   2.985 -3.3665 -0.5091 -2.3253
  514SOL     OW 1540   2.638   2.166   2.275 -0.0778  0.0354 -0.0735
  514SOL    HW1 1541   2.739   2.171   2.292 -0.0181  4.5225  0.0962
  514SOL    HW2 1542   2.600   2.070   2.267 -2.3507  3.3542 -0.2871
  515SOL     OW 1543   2.217   1.058   0.637 -0.0797  0.1263 -0.2013
  515SOL    HW1 1544   2.236   1.067   0.737 -2.2602  0.6871 -1.4617
  515SOL    HW2 1545   2.186   0.963   0.616 -1.4663  0.2703 -0.0391
  516SOL     OW 1546   2.438   2.918   3.054 -0.6925 -0.4209 -0.2563
  516SOL    HW1 1547   2.530   2.897   3.094  1.6772  0.1851  0.5513
  516SOL    HW2 1548   2.403   2.831   3.010 -0.3780 -0.1243  3.7566
  517SOL     OW 1549   1.058   1.741   2.740  0.4211 -0.1581 -0.5984
  517SOL    HW1 1550   0.996   1.674   2.782 -2.1904 -1.1140 -1.4526
  517SOL    HW2 1551   1.066   1.710   2.645 -1.1835  1.6918  1.7009
  518SOL     OW 1552   0.352   0.096   2.313 -0.4732 -0.6633 -0.3068
  518SOL    HW1 1553   0.367   3.102   2.339  2.0360 -0.0747 -0.6523
  518SOL    HW2 1554   0.277   0.141   2.367 -0.9025  0.7204 -2.1249
  519SOL     OW 1555   0.664   1.506   2.989  0.1015  0.6149 -0.9941
  519SOL    HW1 1556   0.750   1.525   2.942 -3.2407 -3.5525  0.9845
  519SOL    HW2 1557   0.642   1.553   3.075  1.5749 -2.5820  1.3600
  520SOL     OW 1558   2.955   2.405   2.101  0.3166  0.2002 -0.3117
  520SOL    HW1 1559   2.965   2.365   2.195 -0.8851 -1.0114  0.9545
  520SOL    HW2 1560   3.043   2.444   2.074 -3.0268 -0.3493 -0.5661
  521SOL     OW 1561   0.808   2.179   2.236  0.1923  0.2099  0.7544
  521SOL    HW1 1562   0.840   2.132   2.323  2.0694 -0.9984 -0.1772
  521SOL    HW2 1563   0.702   2.162   2.214 -5.8572 -2.6469  0.8206
  522SOL     OW 1564   1.782   2.818   1.737 -0.1725  0.0039  0.2608
  522SOL    HW1 1565   1.831   2.843   1.819  2.6119 -0.9270 -2.8007
  522SOL    HW2 1566   1.683   2.830   1.750 -2.2109 -2.4054  2.2191
  523SOL     OW 1567   2.038   1.948   1.845 -0.2704  0.8964  0.4025
  523SOL    HW1 1568   2.106   1.933   1.919 -2.6708 -0.8121  0.7684
  523SOL    HW2 1569   1.961   1.879   1.860 -2.8640  1.1803  3.0792
  524SOL     OW 1570   0.668   2.697   0.477 -0.3375 -0.6403  0.1551
  524SOL    HW1 1571   0.726   2.679   0.392  0.1132 -2.2541  0.2881
  524SOL    HW2 1572   0.568   2.678   0.454 -0.0617  0.9850 -1.3812
  525SOL     OW 1573   0.136   0.526   0.240 -0.1660 -0.1616  0.3098
  525SOL    HW1 1574   0.055   0.484   0.205  2.9851  2.5702 -0.4139
  525SOL    HW2 1575   0.179   0.464   0.304 -1.0582 -0.3474  1.1015
  526SOL     OW 1576   0.869   3.093   0.587  0.8345 -0.0349  0.7409
  526SOL    HW1 1577   0.770   3.079   0.556 -1.7431  0.0448 -0.1632
  526SOL    HW2 1578   0.875   0.005   0.688 -0.0032  1.0899 -1.1711
  527SOL     OW 1579   2.032   1.658   1.248  0.3028 -0.1706 -0.7202
  527SOL    HW1 1580   1.955   1.712   1.291 -1.6859  1.0017  0.3179
  527SOL    HW2 1581   2.106   1.627   1.312 -0.7822 -0.2955 -2.0668
  528SOL     OW 1582   2.863   2.636   2.424 -0.6644 -0.2425 -0.0909
  528SOL    HW1 1583   2.794   2.685   2.374  0.7806  1.6193 -0.1308
  528SOL    HW2 1584   2.952   2.679   2.392  0.6310  1.1318 -0.1615
  529SOL     OW 1585   1.289   1.740   2.229 -0.3382 -0.3867 -0.3196
  529SOL    HW1 1586   1.262   1.815   2.162  0.8221  0.3437 -0.2186
  529SOL    HW2 1587   1.372   1.769   2.281  1.2631  1.6073  1.9049
  530SOL     OW 1588   1.334   1.125   0.033 -0.1011 -0.0618 -0.3215
  530SOL    HW1 1589   1.407   1.196   0.040 -0.1203 -0.2199 -0.8295
  530SOL    HW2 1590   1.310   1.109   3.037  1.0171 -0.9277  2.5789
  531SOL     OW 1591   0.361   1.126   2.982  0.4287  0.3156  0.2676
  531SOL    HW1 1592   0.296   1.132   3.057 -1.6739  1.5584 -0.1433
  531SOL    HW2 1593   0.388   1.032   2.953  0.7493 -0.7811 -1.1735
  532SOL     OW 1594   1.757   1.398   0.674 -0.6016  0.4347  0.1489
  532SOL    HW1 1595   1.810   1.372   0.760  1.4412 -0.4015 -0.3780
  532SOL    HW2 1596   1.783   1.490   0.637  2.2167  0.3412  0.0967
  533SOL     OW 1597   0.728   0.151   2.516 -0.3630 -0.0354  0.4373
  533SOL    HW1 1598   0.645   0.214   2.518  1.4890  0.9791 -2.6391
  533SOL    HW2 1599   0.815   0.202   2.497  0.6143  1.2505 -1.2965
  534SOL     OW 1600   1.130   2.691   2.879 -0.0814 -0.2644 -0.0888
  534SOL    HW1 1601   1.099   2.784   2.892 -0.0955  0.2527 -3.5516
  534SOL    HW2 1602   1.228   2.680   2.911 -0.9936 -2.6494 -1.0486
  535SOL     OW 1603   0.440   0.039   0.229  0.4979  0.3985 -0.3936
  535SOL    HW1 1604   0.351   0.022   0.267 -0.0886  0.5123 -1.3238
  535SOL    HW2 1605   0.463   0.140   0.239  0.4633  1.8547  0.8164
  536SOL     OW 1606   2.988   0.850   2.190 -0.2261 -0.1156  0.5743
  536SOL    HW1 1607   3.024   0.945   2.188  2.2077  3.5123 -0.8948
  536SOL    HW2 1608   3.073   0.785   2.174  3.2448 -1.2057  1.8081
  537SOL     OW 1609   1.155   0.142   1.383  0.0043  0.2949  0.3689
  537SOL    HW1 1610   1.152   0.061   1.318 -1.9621  1.5188 -0.1271
  537SOL    HW2 1611   1.132   0.231   1.338 -1.6143 -1.3204  0.9558
  538SOL     OW 1612   0.482   1.765   0.401 -0.4503  0.1068  0.2814
  538SOL    HW1 1613   0.409   1.722   0.339  0.8479 -0.1067 -1.6692
  538SOL    HW2 1614   0.563   1.701   0.414  0.1418 -0.0114 -0.2034
  539SOL     OW 1615   2.565   1.162   2.079 -0.0365  0.4408 -0.1504
  539SOL    HW1 1616   2.543   1.087   2.011 -0.3943  3.5740  1.9733
  539SOL    HW2 1617   2.509   1.245   2.057 -0.0455 -0.2113 -0.0807
  540SOL     OW 1618   2.150   1.410   2.081 -0.2479 -0.4045  0.0216
  540SOL    HW1 1619   2.060   1.393   2.041  0.7931 -0.7158 -1.8617
  540SOL    HW2 1620   2.165   1.510   2.097 -0.5635 -0.6582 -1.8277
  541SOL     OW 1621   0.684   1.391   1.483  0.3749 -0.0636 -0.9771
  541SOL    HW1 1622   0.744   1.305   1.497 -1.3058 -0.9959 -0.5769
  541SOL    HW2 1623   0.632   1.393   1.393 -0.5210  1.9980 -0.7482
  542SOL     OW 1624   1.745   0.397   2.240 -0.1619  0.9293  0.4339
  542SOL    HW1 1625   1.796   0.414   2.328 -0.9840 -0.1722  1.6794
  542SOL    HW2 1626   1.795   0.329   2.182  1.3651 -1.2369  1.5478
  543SOL     OW 1627   0.784   0.342   0.451 -0.7374  0.3456  0.7913
  543SOL    HW1 1628   0.830   0.375   0.537  0.4222  0.0431  0.8394
  543SOL    HW2 1629   0.845   0.270   0.416 -2.2585  0.5314  1.9566
  544SOL     OW 1630   2.522   1.885   2.273  0.3070 -0.1860 -0.0501
  544SOL    HW1 1631   2.517   1.850   2.180 -2.1208  2.2842  0.7735
  544SOL    HW2 1632   2.598   1.837   2.324 -0.3131  1.3799  1.3600
  545SOL     OW 1633   1.821   2.215   1.800  0.3755 -0.2203 -0.6267
  545SOL    HW1 1634   1.891   2.244   1.867 -0.7292 -1.2065 -2.1209
  545SOL    HW2 1635   1.779   2.300   1.764  0.3176  0.9774  1.4051
  546SOL     OW 1636   0.398   0.004   3.059  0.6613 -0.7258  0.5891
  546SOL    HW1 1637   0.300   3.075   3.049 -1.4406 -1.5286 -1.1409
  546SOL    HW2 1638   0.426   0.005   0.053  0.9304 -0.6097 -1.9637
  547SOL     OW 1639   2.032   0.901   0.274  0.2375  0.1346 -0.2112
  547SOL    HW1 1640   1.963   0.856   0.215 -1.7995  1.2019  0.9797
  547SOL    HW2 1641   1.989   0.961   0.348 -0.3517  0.2496  0.8594
  548SOL     OW 1642   2.180   1.816   2.550  0.1051  0.1518  0.0308
  548SOL    HW1 1643   2.174   1.916   2.579  0.5481  1.6988 -0.3756
  548SOL    HW2 1644   2.262   1.768   2.592 -1.7465 -0.5612  2.2033
  549SOL     OW 1645   1.885   0.451   0.541  0.5145 -0.3142 -0.3427
  549SOL    HW1 1646   1.913   0.389   0.465  0.8814  2.5622 -0.6104
  549SOL    HW2 1647   1.801   0.501   0.518  0.6524 -1.6564  0.0927
  550SOL     OW 1648   2.622   2.166   0.730  0.5662  0.0471 -0.0357
  550SOL    HW1 1649   2.553   2.093   0.752 -0.8141 -0.2776  1.6125
  550SOL    HW2 1650   2.613   2.205   0.635 -0.0465  1.4080 -1.2856
  551SOL     OW 1651   0.904   0.232   1.487 -0.4894  0.0348  0.0823
  551SOL    HW1 1652   0.996   0.188   1.468 -0.3315  0.1501  0.7271
  551SOL    HW2 1653   0.840   0.211   1.414 -3.9095  4.4967  1.2044
  552SOL     OW 1654   0.140   2.572   2.680 -0.1619  0.3714  0.0443
  552SOL    HW1 1655   0.092   2.548   2.764 -2.1883  0.3919  2.1899
  552SOL    HW2 1656   0.145   2.487   2.622  0.5219 -2.1151 -3.3548
  553SOL     OW 1657   0.649   3.016   0.418  0.1329 -0.1745 -0.2126
  553SOL    HW1 1658   0.645   3.019   0.317  2.1533  0.6735  0.8708
  553SOL    HW2 1659   0.612   2.923   0.446  0.0784 -0.3771  0.7798
  554SOL     OW 1660   2.204   2.141   1.714  0.5136  0.2151  0.2388
  554SOL    HW1 1661   2.173   2.075   1.783  0.1412 -1.2267 -1.2061
  554SOL    HW2 1662   2.134   2.209   1.689  0.2747  0.9661  1.6948
  555SOL     OW 1663   1.288   2.208   1.776  0.5290  0.1109 -0.1512
  555SOL    HW1 1664   1.281   2.180   1.679  0.0759  1.3680  0.5680
  555SOL    HW2 1665   1.318   2.132   1.842  1.3613  1.0612 -0.2019
  556SOL     OW 1666   1.384   1.513   1.167  0.1978 -0.3278  0.2124
  556SOL    HW1 1667   1.323   1.569   1.113 -0.2350  2.0586  1.1839
  556SOL    HW2 1668   1.474   1.559   1.176 -1.9539 -0.6876 -0.3865
  557SOL     OW 1669   1.986   2.318   1.995 -0.4322  0.2044  0.0422
  557SOL    HW1 1670   2.034   2.402   1.963  0.4871  2.6898  2.9009
  557SOL    HW2 1671   2.042   2.270   2.066  1.5109  2.1587  3.5188
  558SOL     OW 1672   0.562   0.175   2.060 -0.0065  0.2082 -0.2385
  558SOL    HW1 1673   0.485   0.152   2.123  0.6280 -0.7275 -1.3597
  558SOL    HW2 1674   0.538   0.245   1.989 -0.5735 -0.2960  2.2782
  559SOL     OW 1675   2.341   2.997   1.140  0.3294 -0.1065 -0.3370
  559SOL    HW1 1676   2.425   2.989   1.196  0.2969 -0.7440  0.4387
  559SOL    HW2 1677   2.301   3.093   1.151 -1.0309  0.4383 -1.8705
  560SOL     OW 1678   0.812   2.423   0.478 -0.4065  0.4689  0.3562
  560SOL    HW1 1679   0.836   2.479   0.399  1.4360  0.5590  0.4750
  560SOL    HW2 1680   0.714   2.395   0.469  0.2728  2.5206 -1.6889
  561SOL     OW 1681   0.981   0.461   0.075  0.1103 -0.1989 -0.1089
  561SOL    HW1 1682   0.985   0.507   3.087 -3.3424  2.4091  2.2748
  561SOL    HW2 1683   0.965   0.528   0.151  0.2877 -2.2808  1.8818
  562SOL     OW 1684   0.887   0.289   2.798  0.2296 -0.2062  0.0056
  562SOL    HW1 1685   0.902   0.271   2.896 -0.2938 -3.8676  3.2513
  562SOL    HW2 1686   0.967   0.254   2.749 -1.3608  0.7628 -1.2287
  563SOL     OW 1687   1.498   1.917   2.824  0.1005  0.0198  0.1560
  563SOL    HW1 1688   1.559   2.000   2.817 -0.4275 -1.2506 -1.1304
  563SOL    HW2 1689   1.422   1.920   2.751 -1.9231  0.0694 -1.8879
  564SOL     OW 1690   2.807   1.028   0.600  0.4611 -0.3663  0.6006
  564SOL    HW1 1691   2.751   0.944   0.614 -0.2285  3.1489 -1.4136
  564SOL    HW2 1692   2.909   1.008   0.615  1.0370 -2.1076  1.3623
  565SOL     OW 1693   1.251   0.302   2.843 -0.0211 -0.1239 -0.0617
  565SOL    HW1 1694   1.193   0.265   2.919 -0.0609  1.3097 -1.2957
  565SOL    HW2 1695   1.312   0.381   2.870  0.9390 -1.4148 -0.6606
  566SOL     OW 1696   1.316   0.375   2.058 -0.1936  0.0822 -0.1118
  566SOL    HW1 1697   1.236   0.359   1.998 -2.6093  0.9364  1.5731
  566SOL    HW2 1698   1.401   0.341   2.018 -1.5683  0.0657 -0.2750
  567SOL     OW 1699   2.579   1.368   0.636  0.2772  0.2334 -0.1092
  567SOL    HW1 1700   2.511   1.303   0.598  1.1189 -0.5636 -0.1420
  567SOL    HW2 1701   2.668   1.358   0.592  0.9714  1.3602  2.1704
  568SOL     OW 1702   1.899   1.908   0.661  0.0051 -0.7301  0.5501
  568SOL    HW1 1703   1.957   1.885   0.581  1.5517 -1.2399  1.1501
  568SOL    HW2 1704   1.885   1.825   0.717 -2.8027  1.5437 -1.0982
  569SOL     OW 1705   2.103   1.529   3.043  0.4934 -0.1746 -0.4975
  569SOL    HW1 1706   2.040   1.467   2.995  1.4035  2.1050 -0.9250
  569SOL    HW2 1707   2.198   1.493   3.035 -0.4283  2.0127 -0.5629
  570SOL     OW 1708   0.422   2.783   1.806 -0.2747  0.1481  0.1687
  570SOL    HW1 1709   0.493   2.858   1.820  0.3372 -1.2562  2.8079
  570SOL    HW2 1710   0.329   2.822   1.789  2.8455  1.1645 -0.8182
  571SOL     OW 1711   0.206   0.263   2.447  0.2450  0.0130  0.8085
  571SOL    HW1 1712   0.109   0.288   2.413 -0.7224  0.2019 -0.5551
  571SOL    HW2 1713   0.250   0.349   2.484  2.2141  0.8006  0.2996
  572SOL     OW 1714   0.788   1.731   0.685  0.3301  0.0921  0.3443
  572SOL    HW1 1715   0.713   1.802   0.688 -1.8424  0.6024  4.5302
  572SOL    HW2 1716   0.879   1.780   0.708  1.7064  3.8134  0.4612
  573SOL     OW 1717   1.340   2.383   0.218  0.3432  0.4385 -0.5104
  573SOL    HW1 1718   1.378   2.436   0.141 -1.2349 -1.5392  0.7376
  573SOL    HW2 1719   1.359   2.424   0.309 -3.6774 -2.0129 -0.9533
  574SOL     OW 1720   0.905   0.062   0.847 -0.2650 -0.5872 -0.5464
  574SOL    HW1 1721   0.892   0.126   0.924  0.3777  1.7069 -0.4808
  574SOL    HW2 1722   0.948   3.077   0.879 -0.5399  2.6661 -0.1763
  575SOL     OW 1723   2.927   0.900   1.395  0.7194  0.5180 -0.0746
  575SOL    HW1 1724   2.835   0.890   1.349  1.3234 -1.5646 -3.7899
  575SOL    HW2 1725   2.935   0.953   1.480  2.2882 -3.7554  1.4242
  576SOL     OW 1726   1.769   0.101   1.615 -0.3232  0.1364  0.2074
  576SOL    HW1 1727   1.838   0.159   1.564  3.0725 -1.9894 -0.6111
  576SOL    HW2 1728   1.724   0.040   1.541 -0.0097 -0.3289  0.6408
  577SOL     OW 1729   3.087   1.065   1.996 -0.3034 -0.0840 -0.1796
  577SOL    HW1 1730   0.007   0.991   1.935 -1.8070  1.4718  0.4272
  577SOL    HW2 1731   0.057   1.140   1.987 -0.3117  1.3364 -1.1115
  578SOL     OW 1732   1.908   0.269   2.663 -0.3140 -0.2003 -0.3218
  578SOL    HW1 1733   1.911   0.278   2.766  1.2650 -0.1475 -2.0176
  578SOL    HW2 1734   1.858   0.187   2.630  0.8512  1.2557 -2.0099
  579SOL     OW 1735   2.263   1.887   2.025 -0.1695 -0.6176  0.2186
  579SOL    HW1 1736   2.331   1.954   1.981  0.0603  1.6753 -3.0127
  579SOL    HW2 1737   2.249   1.902   2.124  0.6171 -1.5221 -2.8361
  580SOL     OW 1738   1.844   1.428   2.921  0.3499  0.0475 -0.3395
  580SOL    HW1 1739   1.816   1.516   2.873 -0.5781  3.1312  0.6796
  580SOL    HW2 1740   1.809   1.348   2.865  0.7313  1.0187 -0.9187
  581SOL     OW 1741   1.231   1.072   2.894  0.2759  0.0657  0.1577
  581SOL    HW1 1742   1.295   0.999   2.864  1.4766 -2.2076 -0.4998
  581SOL    HW2 1743   1.139   1.030   2.904  1.1959 -0.2480 -0.3634
  582SOL     OW 1744   0.819   2.088   1.376 -0.0697  0.5942  0.5765
  582SOL    HW1 1745   0.800   2.046   1.284 -1.2983  2.2880 -2.7359
  582SOL    HW2 1746   0.832   2.016   1.446  0.3326 -1.6637  1.2035
  583SOL     OW 1747   1.297   1.085   1.173  0.1028 -0.3803 -0.2551
  583SOL    HW1 1748   1.217   1.023   1.161 -0.1513 -2.0518 -1.6911
  583SOL    HW2 1749   1.313   1.138   1.090 -1.5614 -1.7632  2.5108
  584SOL     OW 1750   1.623   2.374   0.559 -0.1047  0.1109  0.6250
  584SOL    HW1 1751   1.642   2.279   0.556  0.7609 -2.3421  2.6183
  584SOL    HW2 1752   1.646   2.407   0.650  0.4965  1.0449 -4.9974
  585SOL     OW 1753   2.367   2.660   2.943 -0.7100  0.2206  0.3980
  585SOL    HW1 1754   2.432   2.608   2.876  1.2152 -4.8599 -1.3727
  585SOL    HW2 1755   2.314   2.595   2.999  0.8776  0.9098 -0.3533
  586SOL     OW 1756   2.831   2.083   0.898 -0.3788 -0.1791  0.4423
  586SOL    HW1 1757   2.769   2.110   0.818  1.5158  1.7273  1.6462
  586SOL    HW2 1758   2.866   2.164   0.942 -0.5601  1.4670  1.9583
  587SOL     OW 1759   0.986   1.759   0.096  0.0969 -0.0219 -0.5362
  587SOL    HW1 1760   1.063   1.824   0.110  0.7346  1.8519 -0.8696
  587SOL    HW2 1761   1.009   1.702   0.018 -1.0862 -0.8784 -1.3347
  588SOL     OW 1762   0.360   0.009   1.238 -0.6356  0.5678  0.7921
  588SOL    HW1 1763   0.318   3.090   1.329 -0.3857  0.0586  0.9693
  588SOL    HW2 1764   0.326   0.100   1.204 -0.3036 -1.2917 -0.6861
  589SOL     OW 1765   1.077   0.769   0.709 -0.1764  0.1868 -0.1760
  589SOL    HW1 1766   1.040   0.705   0.781 -1.0965 -2.0453  0.7756
  589SOL    HW2 1767   1.073   0.720   0.619  0.7304  0.2511 -1.7158
  590SOL     OW 1768   2.074   2.438   0.016  0.4773 -0.0239  0.1071
  590SOL    HW1 1769   2.084   2.425   0.117 -0.9707  0.5672 -1.9081
  590SOL    HW2 1770   2.059   2.539   3.097  2.7029 -0.0310  0.9865
  591SOL     OW 1771   0.532   2.585   2.369 -0.2678 -0.8136  0.0372
  591SOL    HW1 1772   0.631   2.600   2.386 -0.3074 -0.6238  0.0171
  591SOL    HW2 1773   0.510   2.590   2.272  1.1319 -0.8653  3.3912
  592SOL     OW 1774   2.963   1.451   2.074  0.1700 -0.5971 -0.7858
  592SOL    HW1 1775   3.003   1.365   2.112 -0.2079  0.2966  2.6042
  592SOL    HW2 1776   2.870   1.433   2.034  0.5478 -1.9920  0.8303
  593SOL     OW 1777   1.819   1.403   1.213 -0.0789  0.0742  0.7126
  593SOL    HW1 1778   1.902   1.344   1.223 -1.1978 -1.7082 -0.7628
  593SOL    HW2 1779   1.753   1.392   1.290 -1.9336 -1.5540  0.5155
  594SOL     OW 1780   2.578   1.261   2.865  0.8327  0.1346  0.2576
  594SOL    HW1 1781   2.560   1.309   2.948  2.3697  0.2237 -0.9227
  594SOL    HW2 1782   2.668   1.216   2.867 -2.3940 -0.3339 -1.5341
  595SOL     OW 1783   0.810   0.892   0.503 -0.1827 -0.2026  0.2073
  595SOL    HW1 1784   0.750   0.971   0.524  2.5786 -2.0959  1.5782
  595SOL    HW2 1785   0.795   0.856   0.410  1.7183  0.0241  0.2716
  596SOL     OW 1786   2.997   1.248   1.266 -0.2586  0.3861  0.3047
  596SOL    HW1 1787   2.954   1.232   1.177  1.7933  0.5217 -1.3722
  596SOL    HW2 1788   3.010   1.346   1.289  0.7398 -0.2964 -0.6008
  597SOL     OW 1789   0.962   2.274   1.521  0.4503  0.5388 -0.3462
  597SOL    HW1 1790   0.904   2.227   1.451 -0.2935  2.4323  0.9495
  597SOL    HW2 1791   0.934   2.245   1.615 -0.8188  0.2778 -0.8983
  598SOL     OW 1792   2.352   2.356   1.684  0.1692  0.4633 -0.3218
  598SOL    HW1 1793   2.300   2.271   1.684  0.0901  0.4287  2.8169
  598SOL    HW2 1794   2.453   2.345   1.677 -0.1736  1.2283  2.1755
  599SOL     OW 1795   0.414   1.383   2.905  0.8287  0.1874  0.4586
  599SOL    HW1 1796   0.516   1.407   2.921  0.3224 -2.2522  1.0608
  599SOL    HW2 1797   0.388   1.293   2.933  0.7467  1.3551 -2.8559
  600SOL     OW 1798   0.739   0.719   2.951 -0.5598 -0.0407  0.3827
  600SOL    HW1 1799   0.811   0.646   2.928 -0.6366  0.3819 -0.2451
  600SOL    HW2 1800   0.678   0.687   3.028  0.1125 -3.5723 -2.3686
  601SOL     OW 1801   0.379   0.595   1.879  0.7045 -0.5901  0.4872
  601SOL    HW1 1802   0.358   0.678   1.821  3.1987 -2.2680  0.9636
  601SOL    HW2 1803   0.449   0.614   1.949 -2.0306  0.5473  1.7937
  602SOL     OW 1804   0.403   2.636   0.432  0.6356  0.0522 -0.3748
  602SOL    HW1 1805   0.351   2.646   0.520  3.1201 -1.8722 -0.0089
  602SOL    HW2 1806   0.354   2.674   0.352  1.1195 -1.2728  2.5774
  603SOL     OW 1807   1.254   2.913   2.020 -0.4849  0.3786  0.1564
  603SOL    HW1 1808   1.163   2.934   1.984  1.1261 -0.4046 -1.2643
  603SOL    HW2 1809   1.257   2.816   2.043 -0.4829 -0.6553  0.6845
  604SOL     OW 1810   0.351   2.248   2.984 -0.0712  0.4478 -0.4241
  604SOL    HW1 1811   0.300   2.193   2.905 -1.1419  0.0445 -2.8406
  604SOL    HW2 1812   0.288   2.279   3.056  1.5463  3.4461  0.2514
  605SOL     OW 1813   2.134   1.148   1.855  0.4531 -0.1612  0.3314
  605SOL    HW1 1814   2.074   1.143   1.775 -1.4881  2.1215 -2.1137
  605SOL    HW2 1815   2.207   1.214   1.836 -1.3810  0.5854  3.0049
  606SOL     OW 1816   0.668   0.923   2.815 -0.3907  0.5519 -0.1420
  606SOL    HW1 1817   0.717   0.861   2.877 -2.9161 -1.9567 -1.2564
  606SOL    HW2 1818   0.721   1.004   2.789  0.9453 -2.0951 -1.8977
  607SOL     OW 1819   0.927   0.787   1.200  0.3237 -0.7326 -0.2098
  607SOL    HW1 1820   0.985   0.760   1.282 -0.0114 -0.2758  0.7931
  607SOL    HW2 1821   0.857   0.857   1.230 -0.2660 -0.4837  1.2463
  608SOL     OW 1822   2.894   2.078   1.788  0.3338  0.4736  0.2441
  608SOL    HW1 1823   2.864   2.167   1.831  2.2422 -2.2378 -0.1081
  608SOL    HW2 1824   2.824   2.031   1.728 -0.7837 -1.1503 -1.1200
  609SOL     OW 1825   2.336   0.081   0.275 -0.1499 -0.7074 -0.5825
  609SOL    HW1 1826   2.326   0.141   0.190 -2.1758  2.8279 -2.3066
  609SOL    HW2 1827   2.276   0.001   0.262  0.9637 -0.5880  1.0764
  610SOL     OW 1828   2.956   2.732   1.482 -0.7237 -0.7676 -0.4351
  610SOL    HW1 1829   2.923   2.795   1.404  1.3205  0.8570 -4.5726
  610SOL    HW2 1830   2.905   2.643   1.468  1.5998  0.2423  1.0316
  611SOL     OW 1831   1.823   2.308   0.217 -0.3836 -0.1692  0.4332
  611SOL    HW1 1832   1.808   2.205   0.207  1.1560 -0.1620 -0.7485
  611SOL    HW2 1833   1.890   2.329   0.287 -2.3814 -0.7065 -1.0504
  612SOL     OW 1834   0.488   0.155   1.689 -0.6014  0.1301 -0.0483
  612SOL    HW1 1835   0.527   0.108   1.606 -0.1753 -0.0131 -1.6235
  612SOL    HW2 1836   0.480   0.256   1.686 -1.9554  2.1652  0.4301
  613SOL     OW 1837   0.052   2.002   0.791  0.4661 -0.3554  0.4903
  613SOL    HW1 1838   0.018   2.077   0.727  0.5485  0.1540  1.2183
  613SOL    HW2 1839   3.067   1.957   0.826  2.0963 -0.2474  1.3867
  614SOL     OW 1840   1.654   0.469   1.827  0.1620  0.4912  0.4837
  614SOL    HW1 1841   1.728   0.467   1.754  2.6221  0.6950 -2.3161
  614SOL    HW2 1842   1.639   0.392   1.886  0.5020  1.4751 -4.2360
  615SOL     OW 1843   1.462   1.578   0.768 -1.1312 -0.2260  0.0955
  615SOL    HW1 1844   1.371   1.618   0.775  2.8530  2.1702 -0.6503
  615SOL    HW2 1845   1.453   1.479   0.771 -0.8300 -1.6682 -4.5146
  616SOL     OW 1846   1.843   1.628   0.548 -0.2139 -0.3156  0.1836
  616SOL    HW1 1847   1.750   1.616   0.504 -1.8327 -0.6562 -0.1452
  616SOL    HW2 1848   1.906   1.654   0.472  1.8467 -0.3338  0.1821
  617SOL     OW 1849   1.486   0.833   0.034  0.6016  0.3192 -0.0893
  617SOL    HW1 1850   1.402   0.856   0.088  2.0132  0.1154 -0.3881
  617SOL    HW2 1851   1.552   0.906   0.039  1.1129 -0.2525  0.2797
  618SOL     OW 1852   0.360   0.748   2.253  0.2667  0.4290 -0.2531
  618SOL    HW1 1853   0.430   0.700   2.195 -0.4754  0.1022 -0.2355
  618SOL    HW2 1854   0.403   0.768   2.340  0.5242  0.1504 -1.8002
  619SOL     OW 1855   3.041   1.506   1.338 -0.6271 -0.3732 -0.5663
  619SOL    HW1 1856   0.020   1.531   1.397 -0.0098  1.7345  1.1160
  619SOL    HW2 1857   3.061   1.528   1.244 -0.2541 -0.8635  1.4606
  620SOL     OW 1858   2.191   2.587   2.680  0.3710 -0.3762 -0.4645
  620SOL    HW1 1859   2.216   2.655   2.606 -1.1256 -1.9751  1.6792
  620SOL    HW2 1860   2.164   2.626   2.768  0.5353  1.7630  3.1145
  621SOL     OW 1861   2.887   1.762   0.005 -0.3117 -0.1350 -0.1420
  621SOL    HW1 1862   2.858   1.676   3.056 -1.3878 -1.1380  0.6484
  621SOL    HW2 1863   2.809   1.799   0.065 -0.9759  0.3929  0.8390
  622SOL     OW 1864   1.515   0.153   2.491  0.2124 -0.4809  0.0022
  622SOL    HW1 1865   1.438   0.087   2.494  0.9629 -1.8388  0.4014
  622SOL    HW2 1866   1.495   0.231   2.427 -2.0498  2.1714 -0.0399
  623SOL     OW 1867   0.876   2.360   1.143  0.3600  0.7138 -0.2733
  623SOL    HW1 1868   0.796   2.367   1.204 -0.5363  0.5655  1.3741
  623SOL    HW2 1869   0.889   2.445   1.088  0.1432  0.9709  1.2046
  624SOL     OW 1870   0.262   2.818   2.835 -0.2847  0.1676 -0.5614
  624SOL    HW1 1871   0.251   2.734   2.782 -0.4113  0.3093 -0.7021
  624SOL    HW2 1872   0.298   2.884   2.771 -0.8486 -0.5152  1.1936
  625SOL     OW 1873   0.748   2.046   0.500 -0.6036 -0.0866 -0.4328
  625SOL    HW1 1874   0.849   2.015   0.483  3.3470 -0.1805 -1.6188
  625SOL    HW2 1875   0.698   2.031   0.410 -1.3015  1.1833  1.1295
  626SOL     OW 1876   2.828   0.515   2.964  0.1039  0.7183  0.4432
  626SOL    HW1 1877   2.856   0.466   3.044  0.3626  2.3082 -1.0667
  626SOL    HW2 1878   2.755   0.468   2.911 -1.6437  0.7135 -0.5790
  627SOL     OW 1879   1.351   1.897   3.076 -0.1354  0.1593  0.0855
  627SOL    HW1 1880   1.443   1.864   3.052  0.8963  3.5668  0.7813
  627SOL    HW2 1881   1.300   1.925   2.988 -3.9071 -0.3356 -0.3732
  628SOL     OW 1882   0.001   2.418   2.909  0.3564 -0.3535 -0.4332
  628SOL    HW1 1883   0.063   2.384   2.984  2.5915 -2.8659  0.9314
  628SOL    HW2 1884   3.043   2.497   2.937  0.0357 -3.3948  1.0790
  629SOL     OW 1885   0.959   2.888   2.712  0.1339 -0.5941  0.0022
  629SOL    HW1 1886   0.964   2.788   2.691  0.5318  0.7177 -0.0541
  629SOL    HW2 1887   0.933   2.931   2.624 -1.0505  2.1009 -2.1887
  630SOL     OW 1888   1.342   0.834   2.042 -0.4034 -0.5835  0.0052
  630SOL    HW1 1889   1.267   0.794   1.986  0.1468 -1.6574 -0.0113
  630SOL    HW2 1890   1.381   0.907   1.982 -0.7184  0.9705 -0.1666
  631SOL     OW 1891   1.697   0.964   0.388 -0.2228  0.3671 -0.3735
  631SOL    HW1 1892   1.785   0.985   0.437 -0.0530  0.6869 -2.2948
  631SOL    HW2 1893   1.625   1.030   0.407 -0.5643 -1.5624  0.1058
  632SOL     OW 1894   2.518   0.336   1.784 -0.4148  0.3519  0.4094
  632SOL    HW1 1895   2.596   0.398   1.817  2.5130  0.5897 -1.4000
  632SOL    HW2 1896   2.552   0.257   1.731 -0.7117  2.1217  0.1912
  633SOL     OW 1897   0.870   1.406   0.330  0.1568 -0.1967 -0.0718
  633SOL    HW1 1898   0.865   1.507   0.312 -0.7410  0.3568 -0.6153
  633SOL    HW2 1899   0.897   1.387   0.426  1.6158  0.2778 -2.2750
  634SOL     OW 1900   2.406   2.648   2.406  0.3270 -0.4194  0.0097
  634SOL    HW1 1901   2.377   2.552   2.393 -1.0835  0.9864  0.2578
  634SOL    HW2 1902   2.327   2.704   2.433 -1.8373  0.4483 -1.5428
  635SOL     OW 1903   1.750   0.725   0.328  0.1554 -0.4151  0.0738
  635SOL    HW1 1904   1.694   0.669   0.388 -2.8366  1.0903 -0.4779
  635SOL    HW2 1905   1.724   0.826   0.345 -0.7623 -1.1574  1.5254
  636SOL     OW 1906   0.658   1.536   0.890  0.4621  0.1103  0.2229
  636SOL    HW1 1907   0.581   1.520   0.822 -3.5419  0.1735 -0.3859
  636SOL    HW2 1908   0.633   1.617   0.944 -2.0427 -2.4591 -0.1462
  637SOL     OW 1909   2.711   2.119   0.303 -0.2498  0.2547  0.2172
  637SOL    HW1 1910   2.765   2.051   0.362 -0.2725 -2.2093  2.1404
  637SOL    HW2 1911   2.644   2.177   0.362  1.7404  0.5650  1.1099
  638SOL     OW 1912   1.531   2.689   2.356  0.2373 -0.5819 -0.0459
  638SOL    HW1 1913   1.503   2.680   2.258 -1.6283 -0.8977 -0.3670
  638SOL    HW2 1914   1.563   2.605   2.400 -0.3572  0.7683  0.5731
  639SOL     OW 1915   1.546   1.972   0.371  0.2322 -0.6232 -0.4530
  639SOL    HW1 1916   1.454   1.993   0.334 -1.0273 -4.4694  1.9862
  639SOL    HW2 1917   1.530   1.927   0.461  0.6169  0.6161 -2.1188
  640SOL     OW 1918   1.956   0.188   0.428  0.6328 -0.3471 -0.5286
  640SOL    HW1 1919   1.985   0.098   0.470 -1.5752  2.5326 -0.1575
  640SOL    HW2 1920   2.001   0.188   0.335 -1.1697 -0.3358 -2.1222
  641SOL     OW 1921   2.879   3.091   0.492 -0.7066  0.4310 -0.2420
  641SOL    HW1 1922   2.840   0.059   0.556 -0.4983  1.5498  1.0834
  641SOL    HW2 1923   2.926   0.038   0.415 -1.7579  0.7076 -1.9972
  642SOL     OW 1924   0.566   0.414   1.540 -0.3983  0.4052 -0.2404
  642SOL    HW1 1925   0.641   0.408   1.610  1.9856 -1.9421  0.8626
  642SOL    HW2 1926   0.590   0.394   1.445 -0.1760  0.6682 -1.1420
  643SOL     OW 1927   0.521   1.169   2.312 -0.2596 -0.3864 -0.7529
  643SOL    HW1 1928   0.545   1.207   2.403 -1.5741  2.0467  1.1485
  643SOL    HW2 1929   0.579   1.215   2.239  2.3630 -2.4118 -0.6533
  644SOL     OW 1930   1.421   2.504   0.454  0.2739  0.0788  0.4812
  644SOL    HW1 1931   1.434   2.601   0.478 -3.7737 -0.0590 -0.1313
  644SOL    HW2 1932   1.497   2.447   0.486 -1.7862  0.6810 -0.6457
  645SOL     OW 1933   1.737   2.029   0.200  0.1993 -0.1455 -0.6070
  645SOL    HW1 1934   1.732   1.968   0.126 -1.2628  0.1249  1.1193
  645SOL    HW2 1935   1.658   2.008   0.263 -0.6017  1.1130  1.7282
  646SOL     OW 1936   0.064   1.458   2.739  0.2456  0.2130  0.0773
  646SOL    HW1 1937   0.153   1.434   2.701 -0.7233  0.2059 -0.4772
  646SOL    HW2 1938   3.090   1.447   2.668  2.2119  0.9586 -1.3421
  647SOL     OW 1939   0.877   0.235   1.076  0.1544 -0.1926 -0.1107
  647SOL    HW1 1940   0.885   0.167   1.147 -2.7354  2.4061 -2.3901
  647SOL    HW2 1941   0.909   0.322   1.113  1.1791  0.2190 -2.1427
  648SOL     OW 1942   1.472   0.701   1.317  0.1892 -0.3011 -0.1549
  648SOL    HW1 1943   1.428   0.726   1.226 -1.3812  1.1708  1.2106
  648SOL    HW2 1944   1.563   0.753   1.324  3.8005  0.9364 -0.6298
  649SOL     OW 1945   0.930   1.733   0.354  0.0767  0.3829 -0.1710
  649SOL    HW1 1946   0.938   1.821   0.402  0.1499 -1.1214  2.8683
  649SOL    HW2 1947   0.951   1.736   0.253  0.8348  1.4809 -4.0527
  650SOL     OW 1948   2.618   1.604   2.180  0.0362 -0.3991 -0.0511
  650SOL    HW1 1949   2.677   1.679   2.151 -1.1354  0.1630  1.8317
  650SOL    HW2 1950   2.657   1.515   2.154  2.4258  0.7398 -0.6923
  651SOL     OW 1951   1.410   2.242   2.556 -0.1888  0.1385  0.5380
  651SOL    HW1 1952   1.431   2.241   2.655  1.7419  0.2644  0.6921
  651SOL    HW2 1953   1.318   2.202   2.539 -1.0253 -0.0983  0.8252
  652SOL     OW 1954   2.711   1.853   0.180  0.8364  0.0250 -0.2697
  652SOL    HW1 1955   2.622   1.819   0.138 -1.4173 -1.9953  4.1788
  652SOL    HW2 1956   2.717   1.949   0.214  0.6673 -1.4700 -1.6399
  653SOL     OW 1957   0.239   0.007   0.928  0.4342 -0.1955  0.4903
  653SOL    HW1 1958   0.314   3.085   0.864  1.4012 -1.3695 -0.9662
  653SOL    HW2 1959   0.266   0.091   0.972  1.6848 -1.3581 -3.2442
  654SOL     OW 1960   2.690   0.087   2.145  0.0338  0.0758  0.0220
  654SOL    HW1 1961   2.688   0.031   2.232  0.5027  1.5692  0.8834
  654SOL    HW2 1962   2.606   0.074   2.092  1.6803  0.6937  1.1515
  655SOL     OW 1963   0.586   2.886   0.910 -0.1603  0.0403 -0.0063
  655SOL    HW1 1964   0.568   2.821   0.830  0.5874 -2.2907  1.4799
  655SOL    HW2 1965   0.562   2.980   0.883  0.8604  0.9746 -0.4845
  656SOL     OW 1966   0.125   3.007   2.297 -0.2113 -0.4363  0.6342
  656SOL    HW1 1967   0.032   3.033   2.261  0.2537  1.2447 -0.1463
  656SOL    HW2 1968   0.142   3.023   2.395  1.8234 -1.6471 -1.1619
  657SOL     OW 1969   2.429   0.770   2.962  0.3606 -0.1908 -0.4314
  657SOL    HW1 1970   2.437   0.852   2.903 -1.1450  1.6000 -1.7939
  657SOL    HW2 1971   2.520   0.737   2.995 -0.1708  0.2213 -0.0952
  658SOL     OW 1972   2.339   1.893   1.117 -0.0440  0.4111 -0.0287
  658SOL    HW1 1973   2.374   1.851   1.207 -0.9805 -0.3847 -1.5725
  658SOL    HW2 1974   2.417   1.898   1.051 -0.9874 -0.3414 -2.3212
  659SOL     OW 1975   2.153   2.770   0.464 -0.1831 -0.2682 -0.4535
  659SOL    HW1 1976   2.140   2.667   0.473  3.9711 -0.6385 -0.5692
  659SOL    HW2 1977   2.222   2.800   0.535  1.2207  0.5090  2.7403
  660SOL     OW 1978   1.586   1.242   2.597 -0.1671 -0.8025 -0.5981
  660SOL    HW1 1979   1.633   1.305   2.536 -1.6137  0.9200 -0.7571
  660SOL    HW2 1980   1.507   1.203   2.548 -1.8978 -0.2339  0.5439
  661SOL     OW 1981   2.585   2.315   1.568 -0.0498 -0.5261 -0.2944
  661SOL    HW1 1982   2.617   2.249   1.492  1.6295 -0.2697 -0.6806
  661SOL    HW2 1983   2.666   2.369   1.614  0.6961 -1.9052  3.0078
  662SOL     OW 1984   0.550   0.696   0.083 -0.9790 -0.1439 -0.3179
  662SOL    HW1 1985   0.453   0.726   0.076  2.6616  1.5060 -0.0927
  662SOL    HW2 1986   0.554   0.595   0.102  0.7064 -1.8078  2.4567
  663SOL     OW 1987   2.220   2.172   1.060 -0.0251 -0.2669 -0.2497
  663SOL    HW1 1988   2.122   2.182   1.084 -0.7195 -0.4108 -2.2252
  663SOL    HW2 1989   2.254   2.087   1.098 -0.3667 -0.7739 -1.8865
  664SOL     OW 1990   0.872   1.740   1.208  0.5756  0.2702 -0.4862
  664SOL    HW1 1991   0.823   1.826   1.175 -2.1134 -1.0350 -3.2270
  664SOL    HW2 1992   0.922   1.755   1.294  0.7625  0.5918 -1.7428
  665SOL     OW 1993   1.690   2.408   2.028  0.0137 -0.0422  0.7408
  665SOL    HW1 1994   1.711   2.462   1.944  1.2904  0.3115  1.0362
  665SOL    HW2 1995   1.782   2.370   2.060  2.4442  2.5941 -0.9477
  666SOL     OW 1996   3.031   2.680   0.112  0.1325  0.2043  0.2935
  666SOL    HW1 1997   2.993   2.642   0.024 -0.0444 -0.5643  0.3540
  666SOL    HW2 1998   3.032   2.782   0.118  2.0125 -1.0939 -0.1185
  667SOL     OW 1999   2.722   1.446   1.954  0.2142  0.2935 -0.2245
  667SOL    HW1 2000   2.717   1.533   1.898 -1.0805  0.7586 -1.5657
  667SOL    HW2 2001   2.673   1.370   1.901  0.7603 -0.3713 -3.1743
  668SOL     OW 2002   0.364   0.718   2.687  0.4125 -0.1654 -0.4543
  668SOL    HW1 2003   0.385   0.797   2.623  0.3811 -1.2285  1.5682
  668SOL    HW2 2004   0.442   0.654   2.682 -4.1949  0.1507 -2.3474
  669SOL     OW 2005   1.925   2.307   2.900  0.1317 -0.4828  0.3650
  669SOL    HW1 2006   2.002   2.285   2.840 -2.8721  0.9498 -1.3855
  669SOL    HW2 2007   1.952   2.384   2.967  3.4357  1.2600  0.5237
  670SOL     OW 2008   2.411   1.674   2.610 -0.1544  0.3407  0.4863
  670SOL    HW1 2009   2.422   1.593   2.667 -0.6521  1.8485  0.3152
  670SOL    HW2 2010   2.392   1.647   2.514 -2.2543 -1.9021  1.5732
  671SOL     OW 2011   0.235   1.806   0.923  0.2684 -0.0370 -0.0561
  671SOL    HW1 2012   0.315   1.825   0.863 -2.0221  0.1487 -0.0214
  671SOL    HW2 2013   0.150   1.765   0.874 -3.5640 -4.3980 -0.3455
  672SOL     OW 2014   2.450   0.647   2.046 -0.2038  0.2988 -0.7362
  672SOL    HW1 2015   2.394   0.715   2.104  1.2623  0.0389  3.7476
  672SOL    HW2 2016   2.541   0.683   2.019 -0.9926  0.1374  1.3318
  673SOL     OW 2017   2.464   2.498   2.136 -0.3446 -0.2918  0.0886
  673SOL    HW1 2018   2.563   2.516   2.113  1.9331  1.9267 -0.1233
  673SOL    HW2 2019   2.417   2.579   2.163  0.5879 -1.6849  2.7856
  674SOL     OW 2020   1.362   2.663   1.843  0.1040  0.5250 -0.0816
  674SOL    HW1 2021   1.380   2.590   1.772  1.6167 -2.2141 -3.4493
  674SOL    HW2 2022   1.270   2.714   1.831  0.9672  1.6284  1.3493
  675SOL     OW 2023   0.663   0.840   0.905 -0.3106 -0.1563  0.0218
  675SOL    HW1 2024   0.586   0.904   0.930  1.5868 -1.2234 -1.2109
  675SOL    HW2 2025   0.751   0.885   0.928 -0.0248 -2.3833 -0.2470
  676SOL     OW 2026   1.936   1.012   0.496  0.1693  0.0423  0.7150
  676SOL    HW1 2027   1.893   1.000   0.588 -0.7800 -1.7381  0.2021
  676SOL    HW2 2028   2.021   1.075   0.501 -1.3690  2.0095 -2.1664
  677SOL     OW 2029   2.952   1.401   2.571 -0.1727  0.2305 -0.2954
  677SOL    HW1 2030   2.861   1.438   2.608 -0.3135 -0.2863 -0.3441
  677SOL    HW2 2031   2.932   1.329   2.493 -3.2182 -1.8836 -4.0702
  678SOL     OW 2032   2.679   1.906   1.323 -0.0691 -0.5781 -0.0567
  678SOL    HW1 2033   2.758   1.842   1.341 -0.0699  0.0712  2.9888
  678SOL    HW2 2034   2.589   1.867   1.347  1.0603  1.2996  0.8969
  679SOL     OW 2035   2.048   2.516   0.505 -0.0653 -0.2408 -0.1511
  679SOL    HW1 2036   2.057   2.447   0.578  0.1671  3.6503 -0.8149
  679SOL    HW2 2037   1.950   2.553   0.501 -0.3839 -1.6719  1.3729
  680SOL     OW 2038   0.182   2.217   2.090  0.0592 -0.0069 -0.6284
  680SOL    HW1 2039   0.181   2.148   2.018  2.6299 -0.3182  1.8415
  680SOL    HW2 2040   0.236   2.182   2.172  0.5514 -0.1510 -0.8883
  681SOL     OW 2041   2.981   1.290   1.692 -0.3616 -0.2771  0.8713
  681SOL    HW1 2042   3.079   1.254   1.699  1.6038  0.5414  3.4975
  681SOL    HW2 2043   2.975   1.389   1.711 -1.7172  0.0998 -2.8577
  682SOL     OW 2044   1.206   2.307   0.920 -0.0332  0.3976  0.1530
  682SOL    HW1 2045   1.131   2.375   0.922 -0.3425  0.5199 -2.8676
  682SOL    HW2 2046   1.259   2.321   0.832 -0.9981  0.0602  1.5787
  683SOL     OW 2047   2.174   1.102   1.122 -0.4212  0.2009  0.4463
  683SOL    HW1 2048   2.134   1.180   1.170  0.8726  1.5651 -1.8368
  683SOL    HW2 2049   2.267   1.074   1.158  1.8782  0.3562 -0.5225
  684SOL     OW 2050   0.276   1.720   2.676  0.1226 -0.9475  0.1447
  684SOL    HW1 2051   0.214   1.688   2.748 -0.3538 -2.3196 -0.8827
  684SOL    HW2 2052   0.353   1.774   2.722 -0.5022  1.3026  0.9113
  685SOL     OW 2053   1.507   1.378   0.059  0.5873  0.0193 -0.7943
  685SOL    HW1 2054   1.597   1.340   0.066  1.8931 -0.6970  0.1693
  685SOL    HW2 2055   1.490   1.450   0.133 -1.1362 -2.5602 -0.2362
  686SOL     OW 2056   2.964   0.701   1.059 -0.1390 -0.2992  0.0523
  686SOL    HW1 2057   3.018   0.657   1.140 -1.1933 -1.4466  1.7782
  686SOL    HW2 2058   3.024   0.719   0.978 -1.0450 -0.6516 -1.1863
  687SOL     OW 2059   0.896   2.218   2.516  0.0546 -0.1447  0.2387
  687SOL    HW1 2060   0.893   2.234   2.619 -0.5592 -0.7656  0.8077
  687SOL    HW2 2061   0.953   2.284   2.471 -0.6644 -1.7214  2.0071
  688SOL     OW 2062   0.206   1.711   1.736  0.3923 -0.1294  0.2714
  688SOL    HW1 2063   0.279   1.778   1.740  0.6494 -1.6130 -2.0469
  688SOL    HW2 2064   0.119   1.750   1.773  1.3906 -3.3037 -1.6178
  689SOL     OW 2065   1.828   0.930   1.672  0.0533 -0.5100 -0.0478
  689SOL    HW1 2066   1.729   0.928   1.643 -0.1833  2.5032  1.7343
  689SOL    HW2 2067   1.845   0.871   1.755 -0.3437 -0.2038  0.9876
  690SOL     OW 2068   2.398   0.778   1.116  0.4140  0.2433  0.6649
  690SOL    HW1 2069   2.306   0.743   1.143  0.4472 -0.5786  0.7322
  690SOL    HW2 2070   2.413   0.869   1.153 -3.1203  0.2859  1.2138
  691SOL     OW 2071   0.853   1.871   1.555  0.0152  0.0438  0.4992
  691SOL    HW1 2072   0.873   1.775   1.525  0.6516  1.1033 -0.1013
  691SOL    HW2 2073   0.919   1.911   1.618 -2.1557  2.1829  0.3977
  692SOL     OW 2074   1.924   0.272   1.432  0.0648 -0.5762 -0.3322
  692SOL    HW1 2075   1.848   0.290   1.370  0.7976  0.1356  0.6266
  692SOL    HW2 2076   2.008   0.227   1.394  2.2891 -2.8645  0.0739
  693SOL     OW 2077   0.147   0.895   2.391 -0.8596  0.0952  0.1594
  693SOL    HW1 2078   0.236   0.864   2.353 -1.7894  1.5785 -0.9169
  693SOL    HW2 2079   0.156   0.995   2.412  1.8059 -0.4747 -0.5037
  694SOL     OW 2080   1.737   0.283   1.221  0.4490 -0.3203 -0.0144
  694SOL    HW1 2081   1.748   0.328   1.134  0.6714 -0.8820  2.1857
  694SOL    HW2 2082   1.690   0.196   1.216 -2.5290  2.4664  2.1896
  695SOL     OW 2083   1.214   1.370   1.659  0.4731 -0.2009  0.5287
  695SOL    HW1 2084   1.165   1.421   1.588  0.2315 -1.6167 -2.6420
  695SOL    HW2 2085   1.159   1.285   1.673 -0.1738  0.8334  1.9371
  696SOL     OW 2086   1.765   2.982   0.170  0.2494 -0.0501 -0.0988
  696SOL    HW1 2087   1.703   2.928   0.107 -1.7028 -2.8535 -0.6508
  696SOL    HW2 2088   1.739   3.084   0.189 -1.5569  2.2587  1.2500
  697SOL     OW 2089   0.580   0.545   0.466  0.4958  0.3567 -0.0241
  697SOL    HW1 2090   0.618   0.598   0.544  0.9829  1.1478 -0.6752
  697SOL    HW2 2091   0.629   0.458   0.441 -3.0140 -0.9911 -0.1797
  698SOL     OW 2092   1.369   1.136   2.469  0.9636 -0.3284 -0.7779
  698SOL    HW1 2093   1.297   1.205   2.450 -0.2938 -0.0275  2.0933
  698SOL    HW2 2094   1.328   1.048   2.496 -2.0931  1.8338 -0.4182
  699SOL     OW 2095   1.329   1.300   0.996  0.2445  0.8632  0.1040
  699SOL    HW1 2096   1.335   1.381   1.058 -1.8118 -0.0120 -1.9358
  699SOL    HW2 2097   1.404   1.296   0.929 -2.3120  0.8891  3.5007
  700SOL     OW 2098   1.594   3.064   0.599 -0.2053  0.4422  0.1389
  700SOL    HW1 2099   1.662   2.993   0.563 -1.0494  1.5816 -1.2404
  700SOL    HW2 2100   1.633   0.054   0.568 -0.3249  5.2255 -2.3657
  701SOL     OW 2101   2.691   2.995   2.361 -0.0110  0.0468  0.0780
  701SOL    HW1 2102   2.693   2.898   2.333  0.6285 -0.7493  2.8401
  701SOL    HW2 2103   2.643   3.008   2.449 -3.4188 -0.1935  1.0684
  702SOL     OW 2104   1.159   0.267   0.087 -0.1846 -0.2275  0.2619
  702SOL    HW1 2105   1.116   0.363   0.091 -1.1235  0.7652 -0.0175
  702SOL    HW2 2106   1.103   0.217   0.015  0.8008  0.8181  0.8720
  703SOL     OW 2107   2.197   2.793   2.505  0.3193 -0.1282 -0.5665
  703SOL    HW1 2108   2.117   2.802   2.443  1.0064  0.0764  0.0502
  703SOL    HW2 2109   2.222   2.879   2.553 -0.3296 -1.9003  2.2123
  704SOL     OW 2110   0.553   2.408   0.778 -0.0310 -0.4462  0.2192
  704SOL    HW1 2111   0.502   2.355   0.707  0.3825  0.0997 -1.6495
  704SOL    HW2 2112   0.510   2.408   0.868 -0.4956 -2.1962 -1.6069
  705SOL     OW 2113   2.449   0.068   2.000  0.1948 -0.2528 -0.3642
  705SOL    HW1 2114   2.476   0.055   1.903  1.2711  0.3931  2.3395
  705SOL    HW2 2115   2.346   0.074   2.007 -1.2846  0.4913 -1.2050
  706SOL     OW 2116   1.697   0.161   0.438 -0.1699  0.5472 -0.3077
  706SOL    HW1 2117   1.793   0.195   0.450 -1.5324 -0.1592  0.6540
  706SOL    HW2 2118   1.683   0.144   0.337 -2.0639 -0.6611  1.2877
  707SOL     OW 2119   1.211   1.959   2.080 -0.1762  0.1223  0.2444
  707SOL    HW1 2120   1.294   1.984   2.032  0.0817  1.6958 -0.3723
  707SOL    HW2 2121   1.143   2.037   2.086 -1.2353  3.0946 -1.3875
  708SOL     OW 2122   0.258   2.425   1.848 -0.4921 -0.4727 -0.0924
  708SOL    HW1 2123   0.212   2.455   1.933  2.1007 -1.3184 -1.3613
  708SOL    HW2 2124   0.213   2.457   1.763  2.4167  3.7310 -0.8721
  709SOL     OW 2125   1.911   0.259   2.073  0.4759 -0.0943 -0.5651
  709SOL    HW1 2126   1.976   0.251   2.153  1.8325 -0.2512  1.1874
  709SOL    HW2 2127   1.936   0.193   2.001  0.7816  1.5256  1.6669
  710SOL     OW 2128   2.026   0.477   1.874  0.0712  0.5369 -0.5718
  710SOL    HW1 2129   1.975   0.460   1.794  0.3228  2.0337  1.9605
  710SOL    HW2 2130   1.992   0.434   1.959 -0.9322  1.8718  1.3489
  711SOL     OW 2131   0.744   2.112   0.112 -0.4105  0.0582  0.8388
  711SOL    HW1 2132   0.695   2.053   0.173  1.4512  4.1866 -2.2348
  711SOL    HW2 2133   0.846   2.121   0.136  2.5518 -0.6181  0.9627
  712SOL     OW 2134   0.493   2.660   2.068  0.1076  0.1574  0.6632
  712SOL    HW1 2135   0.498   2.560   2.056  1.0976  1.9496 -0.9673
  712SOL    HW2 2136   0.461   2.700   1.980  1.2267  1.4913  1.4180
  713SOL     OW 2137   1.765   1.266   0.432 -0.2817  0.5570  0.2488
  713SOL    HW1 2138   1.748   1.318   0.517 -1.0505 -0.9597 -0.1806
  713SOL    HW2 2139   1.861   1.234   0.434 -0.8813  0.7130 -0.5146
  714SOL     OW 2140   0.728   1.948   1.148  0.1189  0.1526  0.2262
  714SOL    HW1 2141   0.659   1.888   1.106  2.1063  0.9778 -1.3146
  714SOL    HW2 2142   0.748   2.024   1.083 -0.3024 -1.6405  0.4472
  715SOL     OW 2143   2.097   2.877   2.827 -0.0617 -0.6414 -0.3892
  715SOL    HW1 2144   2.164   2.951   2.816 -1.2100 -1.0277  0.5915
  715SOL    HW2 2145   2.017   2.890   2.762  0.2282 -0.3575 -2.3506
  716SOL     OW 2146   2.875   2.900   2.028 -1.1471  0.3340 -0.1164
  716SOL    HW1 2147   2.947   2.829   2.028 -2.4422  1.3723  1.0522
  716SOL    HW2 2148   2.894   2.970   2.102 -0.2759  3.5423 -2.7427
  717SOL     OW 2149   0.290   0.991   0.175 -0.3901 -0.2263  0.1673
  717SOL    HW1 2150   0.285   0.894   0.146  1.2324 -0.1725  0.9846
  717SOL    HW2 2151   0.215   1.042   0.132  1.1125  0.3554 -0.3814
  718SOL     OW 2152   1.268   0.876   2.509  0.0987 -0.4785  0.0941
  718SOL    HW1 2153   1.174   0.866   2.544  2.7501  2.1791  1.5644
  718SOL    HW2 2154   1.330   0.820   2.566  2.5392  0.7825  0.8965
  719SOL     OW 2155   2.623   1.372   0.002 -0.3663 -0.3895  0.2465
  719SOL    HW1 2156   2.641   1.286   0.056  0.1014 -0.4478  1.1371
  719SOL    HW2 2157   2.563   1.430   0.061 -1.6496  0.5991  0.1272
  720SOL     OW 2158   1.112   0.929   1.048  0.4829  0.3884 -0.1996
  720SOL    HW1 2159   1.034   0.883   1.089  1.1654  1.4869  0.5448
  720SOL    HW2 2160   1.075   0.985   0.968  0.7996 -3.0213 -1.7556
  721SOL     OW 2161   2.635   0.625   0.231 -0.0829  0.4209 -0.4317
  721SOL    HW1 2162   2.651   0.666   0.135 -0.3597  0.4869 -0.1342
  721SOL    HW2 2163   2.625   0.703   0.297 -0.7765 -1.8494 -1.8003
  722SOL     OW 2164   1.449   0.901   2.870  0.1720  0.0666 -0.2170
  722SOL    HW1 2165   1.462   0.852   2.957  1.0147 -0.2841 -1.8350
  722SOL    HW2 2166   1.422   0.825   2.807  0.3810 -1.6571  1.3346
  723SOL     OW 2167   0.184   1.262   0.432 -0.3871  0.4292  0.0336
  723SOL    HW1 2168   0.172   1.362   0.405  0.7757  0.1626 -0.9055
  723SOL    HW2 2169   0.271   1.221   0.411  0.0932  0.9197  2.4091
  724SOL     OW 2170   0.557   1.563   2.108  0.1072  0.2355  0.3179
  724SOL    HW1 2171   0.472   1.579   2.053 -0.3272  1.7855 -0.0735
  724SOL    HW2 2172   0.578   1.640   2.170 -1.5262 -0.0112 -0.1260
  725SOL     OW 2173   2.057   0.681   1.597  0.3471  0.1959  0.1877
  725SOL    HW1 2174   2.036   0.768   1.556  0.8009 -3.2803  2.7005
  725SOL    HW2 2175   2.112   0.698   1.680 -1.6813  0.0145 -2.9951
  726SOL     OW 2176   1.741   2.892   0.441  0.4670 -0.4617  0.5647
  726SOL    HW1 2177   1.734   2.918   0.341 -1.3624 -3.6252  0.5991
  726SOL    HW2 2178   1.778   2.797   0.458  3.3468 -0.8463 -0.4538
  727SOL     OW 2179   1.281   1.209   2.099 -0.2048 -0.0693  0.2900
  727SOL    HW1 2180   1.283   1.138   2.164  2.8689  0.2016 -0.8992
  727SOL    HW2 2181   1.260   1.293   2.147  0.3656 -3.2360  0.7085
  728SOL     OW 2182   1.482   2.390   1.025 -0.0272  0.0658  0.5739
  728SOL    HW1 2183   1.449   2.302   0.991 -0.2788  1.5123 -3.8831
  728SOL    HW2 2184   1.546   2.387   1.107  1.3530  0.7979  2.1213
  729SOL     OW 2185   1.958   0.932   1.158  0.6284  0.5605 -0.3658
  729SOL    HW1 2186   2.045   0.988   1.131  1.4732 -0.1962  1.1508
  729SOL    HW2 2187   1.959   0.845   1.108  2.0802  1.8883  1.3227
  730SOL     OW 2188   0.486   1.775   2.325 -0.1733  0.8644  0.0153
  730SOL    HW1 2189   0.560   1.825   2.281 -1.5565 -2.2055  1.2434
  730SOL    HW2 2190   0.400   1.831   2.323  0.3398  1.0696  0.5893
  731SOL     OW 2191   0.316   0.591   0.562 -0.3030  0.0908  0.3249
  731SOL    HW1 2192   0.273   0.509   0.606 -0.2727 -0.3650 -0.6390
  731SOL    HW2 2193   0.409   0.572   0.525  1.1951  0.4189  0.7726
  732SOL     OW 2194   0.790   0.796   0.229 -0.0472 -0.3100  0.2892
  732SOL    HW1 2195   0.703   0.780   0.184  1.8774 -1.2594  1.0079
  732SOL    HW2 2196   0.840   0.865   0.178 -0.0268 -0.7622  0.4624
  733SOL     OW 2197   0.762   2.243   0.753  0.6408  0.2958  0.1751
  733SOL    HW1 2198   0.758   2.199   0.660 -2.7509  0.8645  0.7476
  733SOL    HW2 2199   0.691   2.317   0.756 -1.9887 -1.8289 -1.2207
  734SOL     OW 2200   3.079   2.143   2.817 -0.0238  0.1327 -0.2325
  734SOL    HW1 2201   3.058   2.233   2.861 -0.5470  1.4991 -1.3013
  734SOL    HW2 2202   3.084   2.071   2.891 -1.5598 -0.2233  0.1087
  735SOL     OW 2203   1.039   0.609   1.403 -0.4511 -0.3931 -0.1989
  735SOL    HW1 2204   0.970   0.580   1.467  2.2109  0.5005 -0.7688
  735SOL    HW2 2205   1.122   0.634   1.449 -2.4561  2.4097 -0.5977
  736SOL     OW 2206   2.064   2.713   3.043  0.1286 -0.2905  0.3687
  736SOL    HW1 2207   2.056   2.749   0.033  0.9293  0.7258  0.6918
  736SOL    HW2 2208   2.071   2.790   2.974  0.8762  1.1070 -0.6729
  737SOL     OW 2209   0.185   0.363   0.686 -0.7478  0.1647 -0.4763
  737SOL    HW1 2210   0.112   0.341   0.621  0.6283 -1.5088 -1.1974
  737SOL    HW2 2211   0.149   0.357   0.785  0.0094 -1.0087 -0.8741
  738SOL     OW 2212   2.140   0.142   0.850  0.0236 -0.2255  0.1848
  738SOL    HW1 2213   2.173   0.228   0.897  0.2733 -2.2626  0.4373
  738SOL    HW2 2214   2.214   0.097   0.799 -2.0615  0.5626 -0.5505
  739SOL     OW 2215   1.721   2.551   0.150 -0.2604 -0.1126 -0.1645
  739SOL    HW1 2216   1.743   2.448   0.155 -3.0053  1.9041 -0.2801
  739SOL    HW2 2217   1.747   2.594   0.061 -0.1202 -0.3027  1.2851
  740SOL     OW 2218   1.353   0.332   0.813  0.4986  0.2986 -0.2744
  740SOL    HW1 2219   1.277   0.260   0.814 -0.4969 -2.1397  0.1692
  740SOL    HW2 2220   1.442   0.281   0.801  2.3458 -0.6707  0.0075
  741SOL     OW 2221   2.503   0.730   0.855  0.2725  0.6558 -0.1851
  741SOL    HW1 2222   2.444   0.745   0.934  1.8305  3.4807 -2.9582
  741SOL    HW2 2223   2.440   0.729   0.771 -0.1872 -0.6103 -0.5837
  742SOL     OW 2224   1.046   2.181   2.112 -0.0468  0.3358 -0.6480
  742SOL    HW1 2225   0.956   2.165   2.156 -2.0438  1.2752 -2.1012
  742SOL    HW2 2226   1.034   2.211   2.018  1.1240 -2.1898  2.5978
  743SOL     OW 2227   1.883   0.731   1.884 -0.1159 -0.0632 -0.7984
  743SOL    HW1 2228   1.936   0.650   1.891 -3.9082  2.8832 -0.2083
  743SOL    HW2 2229   1.793   0.723   1.930  0.9833 -0.4980 -2.1023
  744SOL     OW 2230   2.171   0.650   1.164  0.0218  0.1401 -0.1679
  744SOL    HW1 2231   2.087   0.685   1.122  2.1191 -1.0440 -0.2972
  744SOL    HW2 2232   2.147   0.585   1.239 -1.4005  0.4543  0.6767
  745SOL     OW 2233   1.856   1.209   1.634 -0.6004  0.8452  0.2118
  745SOL    HW1 2234   1.863   1.106   1.650 -0.4157  0.1500  2.0022
  745SOL    HW2 2235   1.784   1.227   1.566 -0.4573 -0.7812  0.6930
  746SOL     OW 2236   1.736   1.653   0.943 -0.0887 -0.1180 -0.0371
  746SOL    HW1 2237   1.830   1.671   0.894  0.3947  0.2761 -2.9195
  746SOL    HW2 2238   1.669   1.630   0.872 -2.0474  0.8172  2.3119
  747SOL     OW 2239   1.846   1.350   0.943 -0.3722  0.4785  0.0714
  747SOL    HW1 2240   1.936   1.391   0.918 -0.7556 -1.2176  1.8576
  747SOL    HW2 2241   1.815   1.373   1.039  1.3797  1.4683  2.8803
  748SOL     OW 2242   0.347   2.253   0.617  0.7109  0.4720 -0.3623
  748SOL    HW1 2243   0.268   2.318   0.620 -0.7572  2.0923  1.2702
  748SOL    HW2 2244   0.430   2.288   0.570  1.5796  0.9049  2.2426
  749SOL     OW 2245   2.654   2.735   2.292  0.2236  0.1406 -0.6468
  749SOL    HW1 2246   2.559   2.713   2.317 -2.4657  1.0075 -0.5874
  749SOL    HW2 2247   2.676   2.688   2.205  0.4805  0.1289 -0.3013
  750SOL     OW 2248   2.538   0.373   0.898 -0.8294 -0.7405  0.2038
  750SOL    HW1 2249   2.543   0.307   0.820 -2.0758  2.3899  0.8980
  750SOL    HW2 2250   2.587   0.456   0.863  1.3694 -0.5277 -1.8862
  751SOL     OW 2251   2.579   0.027   0.379 -0.1164 -0.5545  0.1056
  751SOL    HW1 2252   2.640   3.079   0.317  2.2035  0.2402 -1.5638
  751SOL    HW2 2253   2.499   0.073   0.334  2.1345 -0.5125 -1.2058
  752SOL     OW 2254   0.294   2.745   0.669 -0.2410 -0.1676  0.3594
  752SOL    HW1 2255   0.388   2.764   0.694 -0.5651  2.0076  1.7182
  752SOL    HW2 2256   0.251   2.820   0.614 -1.1498  1.1500  0.6500
  753SOL     OW 2257   1.583   0.696   1.960  0.3180  0.3051 -0.3353
  753SOL    HW1 2258   1.483   0.703   1.958 -1.8599 -1.9628  2.4728
  753SOL    HW2 2259   1.617   0.617   1.900  0.2040  0.4088  0.2076
  754SOL     OW 2260   1.680   2.478   1.757  0.3744 -0.0117  0.6187
  754SOL    HW1 2261   1.736   2.522   1.681  2.4938 -2.0441 -1.9879
  754SOL    HW2 2262   1.585   2.466   1.728 -0.1750  0.0620  2.3053
  755SOL     OW 2263   3.091   0.295   0.516  0.1405 -0.4092 -0.1390
  755SOL    HW1 2264   3.033   0.233   0.577 -2.4230 -0.7314  1.3958
  755SOL    HW2 2265   3.095   0.250   0.422 -0.0935 -2.9102 -1.6907
  756SOL     OW 2266   1.494   1.643   2.783  0.6922  0.8490 -0.0372
  756SOL    HW1 2267   1.415   1.610   2.729  1.5011 -0.6802  0.4306
  756SOL    HW2 2268   1.480   1.737   2.809 -2.5796 -3.0641  1.1235
  757SOL     OW 2269   1.458   0.254   1.114  0.1408  0.0733  0.4149
  757SOL    HW1 2270   1.412   0.330   1.159  2.4406 -4.4949  0.2802
  757SOL    HW2 2271   1.451   0.261   1.012  1.0920  2.2518 -1.3192
  758SOL     OW 2272   0.242   3.027   1.496  0.1626 -0.4278  0.6015
  758SOL    HW1 2273   0.151   3.056   1.466  1.2562 -1.8681  0.9054
  758SOL    HW2 2274   0.254   3.056   1.591  0.6360 -2.4280 -2.0169
  759SOL     OW 2275   0.425   0.680   1.240 -0.6172 -0.2121  0.2370
  759SOL    HW1 2276   0.480   0.624   1.174  2.8009 -0.6761  1.7943
  759SOL    HW2 2277   0.371   0.755   1.198 -1.7534  0.1311  0.1700
  760SOL     OW 2278   2.306   1.122   0.877 -0.0848 -0.4436 -1.1047
  760SOL    HW1 2279   2.388   1.185   0.888  0.5281 -2.3671 -1.6275
  760SOL    HW2 2280   2.251   1.108   0.964  0.2186 -1.0327 -0.5667
  761SOL     OW 2281   1.271   0.896   0.451  0.2556  0.3525  0.3938
  761SOL    HW1 2282   1.342   0.852   0.512 -0.5672 -1.6916 -1.7824
  761SOL    HW2 2283   1.216   0.964   0.498  0.3479  0.3549 -0.6685
  762SOL     OW 2284   2.308   2.250   1.354 -0.2062  0.5699 -0.8740
  762SOL    HW1 2285   2.271   2.334   1.316  1.1317  0.3087 -0.3218
  762SOL    HW2 2286   2.409   2.235   1.330  0.4118 -0.1806 -0.0374
  763SOL     OW 2287   1.460   1.526   1.914  0.8375  0.2000  0.4614
  763SOL    HW1 2288   1.473   1.509   1.814 -1.2748  2.4491 -1.4650
  763SOL    HW2 2289   1.368   1.495   1.948 -1.3522  0.6168 -0.5921
  764SOL     OW 2290   3.074   2.145   2.548  0.1711 -0.2488 -0.0586
  764SOL    HW1 2291   3.083   2.055   2.504 -1.3708 -0.4453  0.8292
  764SOL    HW2 2292   3.071   2.131   2.653 -0.1399  0.2903  0.7199
  765SOL     OW 2293   0.899   2.602   1.021  0.7968 -0.7517  0.2470
  765SOL    HW1 2294   0.975   2.619   1.086 -1.0947 -0.7000 -1.6256
  765SOL    HW2 2295   0.853   2.688   0.994  4.3208 -0.6226 -2.1223
  766SOL     OW 2296   0.772   1.979   2.459 -0.2437  0.1765  0.2649
  766SOL    HW1 2297   0.804   1.893   2.508  0.5359  0.8616 -0.0503
  766SOL    HW2 2298   0.792   2.061   2.516 -0.8858  0.0463  0.8075
  767SOL     OW 2299   1.898   0.442   2.450 -0.4217  0.7969 -0.7377
  767SOL    HW1 2300   1.952   0.523   2.483  0.1405 -2.9827  0.5036
  767SOL    HW2 2301   1.895   0.383   2.533  1.3114 -0.2552 -0.5134
  768SOL     OW 2302   1.025   2.605   2.651  0.4605 -0.4234  0.0059
  768SOL    HW1 2303   1.073   2.532   2.603 -2.9714 -1.5766 -1.8640
  768SOL    HW2 2304   1.067   2.632   2.739 -0.6545  0.8542 -1.0211
  769SOL     OW 2305   3.079   2.568   1.007  0.8672 -0.1961 -0.2581
  769SOL    HW1 2306   3.016   2.620   1.064  1.0763 -1.9065 -1.9237
  769SOL    HW2 2307   0.077   2.587   1.016  0.3216 -2.6154  2.3862
  770SOL     OW 2308   0.685   2.930   2.990 -0.1343 -0.8017  0.1727
  770SOL    HW1 2309   0.626   2.864   2.941 -1.7069 -4.1776  1.7512
  770SOL    HW2 2310   0.696   3.015   2.932  0.1566  1.9965 -1.2052
  771SOL     OW 2311   1.105   2.425   2.445  0.2403  0.0955  0.2830
  771SOL    HW1 2312   1.166   2.380   2.378 -0.1400  0.8697 -1.2056
  771SOL    HW2 2313   1.044   2.491   2.395  1.2686  0.1568  0.7870
  772SOL     OW 2314   2.176   0.020   2.153 -0.3071 -0.4309  0.3463
  772SOL    HW1 2315   2.169   0.092   2.084 -1.0595 -2.2412 -1.9289
  772SOL    HW2 2316   2.167   3.024   2.118  1.2814 -1.4815 -0.1248
  773SOL     OW 2317   1.166   3.089   1.694 -0.5231  0.3869 -0.4821
  773SOL    HW1 2318   1.255   0.029   1.665  1.2618 -0.4616  2.5783
  773SOL    HW2 2319   1.187   2.989   1.713 -1.3443 -0.3043 -0.3332
  774SOL     OW 2320   1.670   0.657   2.216 -0.3479  0.0775 -0.1659
  774SOL    HW1 2321   1.631   0.667   2.121 -0.2996  0.9781 -1.7726
  774SOL    HW2 2322   1.695   0.559   2.235 -0.3678  0.9409  0.8850
  775SOL     OW 2323   2.215   2.985   0.102 -0.0192 -0.3712 -0.5414
  775SOL    HW1 2324   2.293   2.943   0.052 -0.2004 -0.3351 -2.8091
  775SOL    HW2 2325   2.157   2.914   0.139  2.1488  2.3889 -0.1046
  776SOL     OW 2326   2.448   0.975   1.919  0.3428  0.1059  0.0488
  776SOL    HW1 2327   2.458   0.987   1.816  1.5514 -0.4070 -0.1829
  776SOL    HW2 2328   2.364   0.923   1.949  0.1028  0.5177  5.0084
  777SOL     OW 2329   2.884   1.150   2.416 -0.1269  0.8654 -0.1033
  777SOL    HW1 2330   2.923   1.170   2.325 -0.7743 -1.4122 -0.5259
  777SOL    HW2 2331   2.782   1.144   2.403 -0.7457  1.6734 -0.9015
  778SOL     OW 2332   2.381   0.370   2.024 -1.1778  0.0454  0.4580
  778SOL    HW1 2333   2.393   0.470   2.033 -0.4368 -5.4510 -1.2616
  778SOL    HW2 2334   2.446   0.341   1.953  1.3814  1.7922  1.2001
  779SOL     OW 2335   0.152   3.007   2.986  0.1251  0.0685 -0.7548
  779SOL    HW1 2336   0.137   3.087   2.924  1.3594 -1.4325 -0.1637
  779SOL    HW2 2337   0.192   2.930   2.936  1.2354  1.1947 -2.9365
  780SOL     OW 2338   2.084   0.016   2.478  0.5748  0.0194  0.0212
  780SOL    HW1 2339   1.978   0.025   2.487 -1.5913  0.4688  1.6425
  780SOL    HW2 2340   2.124   0.068   2.397  0.2545 -3.7631  2.2280
  781SOL     OW 2341   0.010   0.715   1.460  0.4984  0.0971  0.2817
  781SOL    HW1 2342   3.040   0.785   1.450 -0.6318  3.4030  1.2455
  781SOL    HW2 2343   0.093   0.762   1.493  3.1042 -0.9276 -0.8953
  782SOL     OW 2344   2.145   2.199   0.463  0.0801  0.0535  0.2280
  782SOL    HW1 2345   2.235   2.153   0.450 -0.0477 -0.8713  2.0396
  782SOL    HW2 2346   2.140   2.225   0.563  0.1507 -1.4455  0.7413
  783SOL     OW 2347   0.498   1.824   1.339 -0.1463 -0.3778  0.0484
  783SOL    HW1 2348   0.421   1.869   1.287 -1.4074  0.0254  0.8857
  783SOL    HW2 2349   0.589   1.852   1.302 -1.6284  1.2057 -2.6069
  784SOL     OW 2350   2.160   0.568   2.268 -0.1942  0.5450 -0.0105
  784SOL    HW1 2351   2.247   0.517   2.286  3.1876 -2.1826 -0.4841
  784SOL    HW2 2352   2.181   0.650   2.216 -1.6699  1.2678  0.4131
  785SOL     OW 2353   0.271   0.257   1.137 -0.0721  0.1347  0.1248
  785SOL    HW1 2354   0.238   0.301   1.047 -3.1606  0.9973 -1.3080
  785SOL    HW2 2355   0.275   0.327   1.207 -2.4345 -2.8737 -1.0956
  786SOL     OW 2356   2.020   2.824   0.210 -0.2064 -0.9538 -0.0697
  786SOL    HW1 2357   1.924   2.865   0.215 -2.4373 -1.9432 -0.5041
  786SOL    HW2 2358   2.052   2.790   0.303 -2.4037  2.0638  0.3277
  787SOL     OW 2359   1.194   0.131   0.766 -0.1562 -0.0721 -0.5435
  787SOL    HW1 2360   1.271   0.068   0.768 -0.4087  2.9574 -2.0712
  787SOL    HW2 2361   1.108   0.086   0.782 -1.2219 -0.3166  1.1273
  788SOL     OW 2362   0.054   1.521   1.080  0.2911  0.6983  0.3351
  788SOL    HW1 2363   0.048   1.576   0.988 -1.8749 -0.5159 -2.3432
  788SOL    HW2 2364   0.112   1.432   1.069  1.3758 -2.2862  1.7423
  789SOL     OW 2365   2.851   0.542   2.096  0.2803  0.1474 -0.3016
  789SOL    HW1 2366   2.856   0.455   2.154 -1.2075 -1.8729  0.4111
  789SOL    HW2 2367   2.817   0.624   2.149 -0.2222  2.9260  6.2576
  790SOL     OW 2368   0.955   0.539   2.930  0.4438  0.0120  0.3074
  790SOL    HW1 2369   0.947   0.490   2.843  1.1957  2.5687  1.5564
  790SOL    HW2 2370   1.023   0.611   2.917 -3.1310 -2.8983  1.1848
  791SOL     OW 2371   2.526   0.077   2.939  0.6979  0.8846  0.4215
  791SOL    HW1 2372   2.620   0.070   2.899 -0.4378  0.0471 -1.1865
  791SOL    HW2 2373   2.495   3.091   2.987 -1.1396  0.7826 -0.6053
  792SOL     OW 2374   1.202   0.979   1.501 -0.1713  0.4909  0.4806
  792SOL    HW1 2375   1.282   1.003   1.450 -0.5582  4.3719  1.7514
  792SOL    HW2 2376   1.186   0.882   1.519 -2.6057  1.0104  2.0974
  793SOL     OW 2377   2.843   0.104   1.449  0.1238 -0.4390  0.1042
  793SOL    HW1 2378   2.829   0.185   1.507 -1.4531  0.3217 -4.0821
  793SOL    HW2 2379   2.909   0.130   1.369 -0.2438 -1.2712 -1.3933
  794SOL     OW 2380   3.013   0.019   2.173 -0.0864 -0.2766  0.1133
  794SOL    HW1 2381   2.932   0.079   2.168  0.7557  1.3895 -0.8619
  794SOL    HW2 2382   3.088   0.085   2.145  1.3647 -0.8016 -2.7491
  795SOL     OW 2383   0.511   1.841   2.820 -0.1609  0.7663  0.1859
  795SOL    HW1 2384   0.512   1.941   2.817  1.7457 -1.0936 -0.7476
  795SOL    HW2 2385   0.476   1.807   2.909  2.5763  3.5956 -3.6310
  796SOL     OW 2386   2.073   0.663   2.716  0.1626 -0.1092  0.5046
  796SOL    HW1 2387   2.049   0.693   2.622 -0.9676 -0.7806 -2.1944
  796SOL    HW2 2388   1.995   0.692   2.776 -1.1195  0.5833 -0.6504
  797SOL     OW 2389   2.453   2.156   0.134  0.2339 -0.3278 -0.2535
  797SOL    HW1 2390   2.544   2.131   0.096 -0.2661 -1.1251 -1.2064
  797SOL    HW2 2391   2.398   2.189   0.061  1.8575 -0.8339  0.6059
  798SOL     OW 2392   0.033   0.583   1.244 -0.3539 -0.4254  0.0249
  798SOL    HW1 2393   0.034   0.647   1.324  0.6716 -0.5193  0.4561
  798SOL    HW2 2394   0.125   0.539   1.233  2.1146 -0.1310 -0.1110
  799SOL     OW 2395   0.260   0.025   1.795 -0.4731  0.5162 -0.9865
  799SOL    HW1 2396   0.340   0.079   1.764 -1.0230 -2.7227  1.1818
  799SOL    HW2 2397   0.257   0.017   1.899  0.4750  1.1312 -0.2700
  800SOL     OW 2398   0.137   2.048   0.187  0.3247  0.6145  0.3092
  800SOL    HW1 2399   0.110   2.052   0.286  0.6413 -0.3208 -1.8675
  800SOL    HW2 2400   0.236   2.055   0.170 -2.9718 -0.0468 -0.1194
  801SOL     OW 2401   1.586   1.884   0.846  0.1341 -0.2632 -0.2718
  801SOL    HW1 2402   1.521   1.862   0.925 -2.2357  1.4408  0.3595
  801SOL    HW2 2403   1.680   1.851   0.867  0.4078  1.5268 -0.0903
  802SOL     OW 2404   0.927   0.583   0.321  0.4931 -0.0717  0.4326
  802SOL    HW1 2405   0.874   0.492   0.338 -0.0585 -4.5555  0.7684
  802SOL    HW2 2406   0.873   0.664   0.282 -0.8801  0.3339  2.3841
  803SOL     OW 2407   1.142   1.435   1.918 -0.1377  0.4295  0.0412
  803SOL    HW1 2408   1.105   1.523   1.879  0.5588 -1.2993  1.7542
  803SOL    HW2 2409   1.178   1.375   1.843 -0.9879 -2.6471 -2.8820
  804SOL     OW 2410   1.720   2.051   1.125 -0.0221  0.5587 -0.3894
  804SOL    HW1 2411   1.721   1.967   1.184 -4.0728  1.2494  1.7038
  804SOL    HW2 2412   1.778   2.030   1.041 -1.5158 -0.4795  0.5660
  805SOL     OW 2413   0.181   2.378   2.518  0.0841  0.4032 -0.1271
  805SOL    HW1 2414   0.117   2.310   2.560 -1.1651 -0.4159  0.2594
  805SOL    HW2 2415   0.276   2.332   2.520  3.3121 -1.6968  0.1345
  806SOL     OW 2416   1.050   2.913   0.131 -0.9731  0.2972 -0.1776
  806SOL    HW1 2417   1.080   3.005   0.094  1.4271  4.9708  0.2520
  806SOL    HW2 2418   1.003   2.916   0.224 -1.3193 -0.8190 -2.4910
  807SOL     OW 2419   2.446   1.010   2.810  0.2356  0.0691 -0.3937
  807SOL    HW1 2420   2.522   1.073   2.831  0.5687 -1.3728 -1.0258
  807SOL    HW2 2421   2.426   1.002   2.711 -0.3712  0.2504  2.6837
  808SOL     OW 2422   1.565   2.147   0.900 -0.1959  0.6714 -0.2423
  808SOL    HW1 2423   1.611   2.124   0.988  0.0789 -2.5623 -0.0948
  808SOL    HW2 2424   1.564   2.059   0.838  1.0613 -1.1909 -1.6589
  809SOL     OW 2425   0.320   0.115   0.625 -0.2465 -0.2046  0.0141
  809SOL    HW1 2426   0.409   0.125   0.579  0.3737 -0.8675 -1.0673
  809SOL    HW2 2427   0.281   0.208   0.647 -2.5502  2.0433  2.0623
  810SOL     OW 2428   1.239   1.443   0.583 -0.0393 -0.0826  0.4324
  810SOL    HW1 2429   1.212   1.504   0.509  2.8215 -0.9246  0.7857
  810SOL    HW2 2430   1.332   1.420   0.572 -3.1565  0.2771  0.2161
  811SOL     OW 2431   1.352   2.663   1.012 -0.2261  0.2765 -0.0647
  811SOL    HW1 2432   1.390   2.572   1.038  2.7478 -0.4985  2.4039
  811SOL    HW2 2433   1.253   2.661   1.044  2.0619 -0.6977  0.6837
  812SOL     OW 2434   0.907   0.325   0.728  0.0109 -0.4915  0.0799
  812SOL    HW1 2435   0.992   0.343   0.774 -2.6693 -0.9725 -0.3759
  812SOL    HW2 2436   0.876   0.231   0.745  1.9957 -1.4019  0.7614
  813SOL     OW 2437   1.192   0.069   2.253 -0.3056  0.2527  0.2020
  813SOL    HW1 2438   1.153   3.081   2.223  0.0198 -0.3547 -1.0069
  813SOL    HW2 2439   1.267   0.104   2.191  2.4867  0.8971 -0.8434
  814SOL     OW 2440   1.103   3.044   1.174 -0.0286 -0.3159 -0.3603
  814SOL    HW1 2441   1.057   2.968   1.223  2.2006  0.4199 -2.4370
  814SOL    HW2 2442   1.129   3.018   1.080  1.1019  0.0642 -0.9890
  815SOL     OW 2443   0.218   2.693   0.250  0.7465 -0.2743 -0.4361
  815SOL    HW1 2444   0.253   2.685   0.155 -2.1887 -0.3658 -1.8240
  815SOL    HW2 2445   0.117   2.678   0.249 -1.4202 -1.1123  0.8235
  816SOL     OW 2446   2.027   1.154   2.699 -0.0708  0.8748 -0.2713
  816SOL    HW1 2447   2.058   1.088   2.768  2.4133  0.3300 -2.2277
  816SOL    HW2 2448   1.943   1.201   2.732 -2.0313  2.0759 -2.4813
  817SOL     OW 2449   1.826   2.263   2.449 -0.5871 -1.0505  0.0763
  817SOL    HW1 2450   1.829   2.184   2.512  0.1356  0.8303 -0.7508
  817SOL    HW2 2451   1.862   2.343   2.499 -0.8049  1.6331  1.9436
  818SOL     OW 2452   0.880   0.963   0.049 -0.0680  0.0635 -0.1394
  818SOL    HW1 2453   0.786   1.005   0.039 -3.9884  0.5438 -0.5609
  818SOL    HW2 2454   0.944   1.025   0.092  0.6076 -1.0882 -2.7190
  819SOL     OW 2455   1.688   1.678   3.086 -0.4344 -0.6090 -0.0868
  819SOL    HW1 2456   1.742   1.739   3.025 -2.1867 -1.1760 -1.0754
  819SOL    HW2 2457   1.735   1.591   3.088  0.8529  0.7744 -1.4157
  820SOL     OW 2458   0.437   0.785   0.428 -0.2595 -0.3829 -0.0948
  820SOL    HW1 2459   0.353   0.730   0.457 -2.2094 -3.4476  2.9641
  820SOL    HW2 2460   0.514   0.724   0.410 -2.5085 -0.9239  1.6792
  821SOL     OW 2461   0.386   2.817   1.382 -0.2247  0.2704  0.2773
  821SOL    HW1 2462   0.350   2.908   1.388  0.5483 -3.0441  0.3266
  821SOL    HW2 2463   0.317   2.750   1.348  0.2216 -0.1184 -1.8223
  822SOL     OW 2464   2.108   2.068   2.625 -1.3389  0.7332 -0.1260
  822SOL    HW1 2465   2.120   2.163   2.672  0.5613  2.3984  1.8943
  822SOL    HW2 2466   2.007   2.057   2.606 -1.7695  2.0455  1.2368
  823SOL     OW 2467   0.570   0.667   2.078 -0.1215 -0.0216  0.0504
  823SOL    HW1 2468   0.643   0.737   2.067 -1.7001  1.7664  1.2071
  823SOL    HW2 2469   0.616   0.579   2.104 -1.3557 -1.1445 -1.1833
  824SOL     OW 2470   2.421   0.040   1.465 -0.7221 -0.4551  0.2501
  824SOL    HW1 2471   2.456   0.129   1.426 -1.0957 -3.4872  1.0882
  824SOL    HW2 2472   2.322   0.036   1.487  1.6512 -0.1897 -1.9116
  825SOL     OW 2473   0.330   1.400   2.652 -0.3474  0.3681 -0.2180
  825SOL    HW1 2474   0.366   1.483   2.614  0.7310 -2.8268 -0.6735
  825SOL    HW2 2475   0.370   1.381   2.747 -0.6534  1.5472 -0.5004
  826SOL     OW 2476   1.693   0.510   2.908  0.5332 -0.1987  0.0948
  826SOL    HW1 2477   1.731   0.579   2.847  1.8284  3.0838  3.2688
  826SOL    HW2 2478   1.726   0.417   2.882  2.7912 -1.1741  1.6802
  827SOL     OW 2479   0.918   2.606   2.352  0.3215  0.4363  0.2256
  827SOL    HW1 2480   0.855   2.606   2.429 -0.6887 -0.9287 -0.2277
  827SOL    HW2 2481   0.880   2.563   2.268  0.9530 -3.0301  1.6028
  828SOL     OW 2482   3.031   2.912   1.677  0.2617  0.1684  0.0661
  828SOL    HW1 2483   2.980   2.833   1.629 -1.5723 -0.2866  0.3013
  828SOL    HW2 2484   3.054   2.989   1.614  1.2061  0.4189  1.7782
  829SOL     OW 2485   1.491   1.758   1.653  0.6392 -0.2188 -1.1719
  829SOL    HW1 2486   1.526   1.845   1.692 -0.1005  0.7380 -0.6810
  829SOL    HW2 2487   1.566   1.695   1.656 -0.8591  1.7756 -0.5599
  830SOL     OW 2488   0.860   1.056   1.797  0.3100  0.3163  0.3435
  830SOL    HW1 2489   0.781   1.004   1.771  1.8151  2.6909 -0.1026
  830SOL    HW2 2490   0.848   1.078   1.897 -0.1685  1.2294  0.2647
  831SOL     OW 2491   2.750   1.633   0.330  0.3912  0.6614  0.1309
  831SOL    HW1 2492   2.750   1.727   0.283  0.6593 -0.7294 -2.3117
  831SOL    HW2 2493   2.832   1.577   0.289  2.3470 -1.6453 -1.5300
  832SOL     OW 2494   1.315   2.822   0.275 -0.2706  0.5057 -0.1501
  832SOL    HW1 2495   1.234   2.834   0.215  1.2845 -0.7611 -0.2728
  832SOL    HW2 2496   1.340   2.901   0.332 -2.4235 -0.2642 -0.5782
  833SOL     OW 2497   2.817   0.227   1.711 -0.2393  0.2667  0.5377
  833SOL    HW1 2498   2.819   0.130   1.750  0.3106 -3.1613  0.2835
  833SOL    HW2 2499   2.809   0.301   1.780 -0.0048 -0.6188 -1.3638
  834SOL     OW 2500   0.097   0.690   0.881  0.3282  0.4306 -0.5543
  834SOL    HW1 2501   0.150   0.761   0.921 -1.6796  0.5426 -4.2365
  834SOL    HW2 2502   0.120   0.671   0.785 -0.9156  1.0107  0.1776
  835SOL     OW 2503   2.698   0.034   0.882  0.3008 -0.2596 -0.0976
  835SOL    HW1 2504   2.764   0.082   0.822  0.7195 -0.0658 -1.5694
  835SOL    HW2 2505   2.733   3.042   0.892  0.4044  1.7293  1.6306
  836SOL     OW 2506   1.162   1.945   2.880 -0.3120 -0.3084  0.1806
  836SOL    HW1 2507   1.077   1.986   2.917 -3.7949 -0.8990  0.4133
  836SOL    HW2 2508   1.131   1.864   2.824  0.3574 -0.9637 -3.2549
  837SOL     OW 2509   1.549   1.705   0.210 -0.5820 -0.7389  0.0339
  837SOL    HW1 2510   1.599   1.682   0.123  2.8666  0.0267 -0.2543
  837SOL    HW2 2511   1.491   1.788   0.190  0.8644 -0.6980  1.7055
  838SOL     OW 2512   2.720   0.672   2.483  0.2111  0.3703 -0.1234
  838SOL    HW1 2513   2.797   0.696   2.549  1.3340  1.5029 -0.7707
  838SOL    HW2 2514   2.635   0.714   2.525 -1.1635  0.6642  0.6873
  839SOL     OW 2515   0.462   0.866   2.480  0.1095 -0.3579  0.5513
  839SOL    HW1 2516   0.407   0.948   2.507 -2.1339  1.1671 -1.1262
  839SOL    HW2 2517   0.563   0.884   2.484 -0.4287 -1.3533  0.0109
  840SOL     OW 2518   1.019   0.927   2.915  0.1774  0.1883 -0.1659
  840SOL    HW1 2519   0.964   0.939   2.996  0.4025  1.0637 -0.3348
  840SOL    HW2 2520   1.077   0.844   2.922  0.1897 -1.5103 -3.3391
  841SOL     OW 2521   0.940   2.691   0.653  0.3567  0.7372 -0.5073
  841SOL    HW1 2522   1.030   2.648   0.658 -3.7686 -0.9538  0.4104
  841SOL    HW2 2523   0.872   2.627   0.613 -1.3476  1.7429 -0.3004
  842SOL     OW 2524   0.697   0.695   0.650 -0.1869 -0.0425 -0.0971
  842SOL    HW1 2525   0.684   0.729   0.744  0.4572 -1.0924 -3.2395
  842SOL    HW2 2526   0.741   0.770   0.595 -2.4135 -2.4301 -0.6343
  843SOL     OW 2527   0.303   1.120   1.300  0.6543 -0.6493 -0.2271
  843SOL    HW1 2528   0.382   1.091   1.246 -1.2917 -0.4180  2.6041
  843SOL    HW2 2529   0.222   1.062   1.280  1.6864  1.1593 -0.8213
  844SOL     OW 2530   2.149   2.334   2.733  0.0788  0.0116 -0.0274
  844SOL    HW1 2531   2.163   2.425   2.689  0.1334 -0.2355 -0.8436
  844SOL    HW2 2532   2.233   2.306   2.777  1.0336  1.1316  1.2288
  845SOL     OW 2533   2.156   3.033   1.495  0.0027  0.0544  0.3035
  845SOL    HW1 2534   2.059   3.046   1.467 -0.1546 -3.2840 -0.2036
  845SOL    HW2 2535   2.189   2.952   1.442 -2.6665  0.4829  1.3454
  846SOL     OW 2536   1.919   0.972   2.489  0.4180 -0.0470  0.1879
  846SOL    HW1 2537   1.946   0.998   2.393  1.2111  1.1961 -1.2361
  846SOL    HW2 2538   1.957   1.035   2.558 -1.8829 -0.5055 -0.8364
  847SOL     OW 2539   2.088   2.864   2.084  0.1876  0.2793 -0.0363
  847SOL    HW1 2540   2.050   2.768   2.100  0.4798 -1.3500 -0.9317
  847SOL    HW2 2541   2.182   2.850   2.045 -2.2055 -0.2623 -0.8606
  848SOL     OW 2542   0.014   2.966   0.096 -0.0617  0.4304  0.1708
  848SOL    HW1 2543   0.079   2.988   0.175 -0.1002 -0.3402  1.4377
  848SOL    HW2 2544   0.065   2.973   0.008  0.2237  0.3565  0.1967
  849SOL     OW 2545   0.181   2.919   1.157  0.0982 -0.2489  0.2462
  849SOL    HW1 2546   0.184   2.874   1.062 -0.3509  0.1817 -3.5253
  849SOL    HW2 2547   0.249   2.993   1.158  1.9609 -0.2484  0.4805
  850SOL     OW 2548   0.338   2.010   0.502  0.5329  0.0595  0.2847
  850SOL    HW1 2549   0.347   2.099   0.555  0.6751  1.6141 -1.2808
  850SOL    HW2 2550   0.417   1.988   0.444  0.5803 -0.0786  0.7049
  851SOL     OW 2551   2.132   0.739   3.081  0.7590  0.3429  0.4941
  851SOL    HW1 2552   2.061   0.668   3.053 -2.0387 -0.0078  0.4022
  851SOL    HW2 2553   2.226   0.709   3.060 -3.7201  0.5006  1.6781
  852SOL     OW 2554   1.846   2.052   2.609 -0.2535  0.7510 -0.3893
  852SOL    HW1 2555   1.819   1.960   2.559  0.8403 -5.8715 -1.3624
  852SOL    HW2 2556   1.803   2.054   2.705  0.1779 -0.2529  6.5666
  853SOL     OW 2557   0.602   1.974   0.292  0.2619  0.8149  0.3910
  853SOL    HW1 2558   0.519   1.998   0.234  3.2798 -0.4366 -1.8633
  853SOL    HW2 2559   0.581   1.883   0.338 -1.6210  1.8375  0.6359
  854SOL     OW 2560   1.733   0.939   2.210 -0.1957 -0.4981 -0.1875
  854SOL    HW1 2561   1.719   0.836   2.215 -0.6271 -2.8528  0.7723
  854SOL    HW2 2562   1.834   0.971   2.224 -0.2320  2.3164 -1.9940
  855SOL     OW 2563   0.513   2.460   2.919  0.4179 -0.2320  0.3829
  855SOL    HW1 2564   0.607   2.463   2.967  0.0542  0.5210 -2.0075
  855SOL    HW2 2565   0.456   2.379   2.954 -1.1824 -0.8014  1.4148
  856SOL     OW 2566   0.491   2.903   2.177  0.3336  0.3762 -0.5480
  856SOL    HW1 2567   0.517   2.812   2.137 -3.6743 -0.8212  1.9630
  856SOL    HW2 2568   0.574   2.954   2.196 -0.7486 -1.6720  0.7251
  857SOL     OW 2569   0.707   0.358   1.763  0.0633  0.1721 -0.1728
  857SOL    HW1 2570   0.749   0.361   1.851 -0.0872  1.2362 -1.4549
  857SOL    HW2 2571   0.692   0.256   1.749  0.6694 -0.6895 -0.3582
  858SOL     OW 2572   0.439   1.902   2.037 -0.0601  0.1418  0.2202
  858SOL    HW1 2573   0.527   1.932   2.080 -0.5719 -0.8229 -1.5673
  858SOL    HW2 2574   0.444   1.909   1.936  0.4473 -1.3963  0.1436
  859SOL     OW 2575   2.069   2.362   1.505 -0.5787  0.0645  0.1007
  859SOL    HW1 2576   2.150   2.329   1.447  1.0169 -2.3762  1.2143
  859SOL    HW2 2577   2.055   2.457   1.480  0.0724 -1.3838 -0.7685
  860SOL     OW 2578   1.620   0.590   0.512  0.0960  0.6276 -0.2402
  860SOL    HW1 2579   1.647   0.646   0.590 -0.8758  0.4902  0.4531
  860SOL    HW2 2580   1.523   0.565   0.523  1.6221 -0.6409  0.1129
  861SOL     OW 2581   0.083   0.412   0.929  0.3942 -1.3583  0.4240
  861SOL    HW1 2582   0.107   0.511   0.961 -0.8976  0.8292  1.0185
  861SOL    HW2 2583   3.087   0.411   0.897  0.4445 -1.4882 -1.8991
  862SOL     OW 2584   2.280   1.014   1.416 -0.1878 -0.5029  0.0183
  862SOL    HW1 2585   2.191   0.974   1.447  1.8314 -0.2312  0.5761
  862SOL    HW2 2586   2.322   0.963   1.338  0.8516 -0.9358  0.1397
  863SOL     OW 2587   0.330   1.381   1.388 -0.4528  0.6986  0.0017
  863SOL    HW1 2588   0.303   1.282   1.397  1.0395 -1.8636  1.6380
  863SOL    HW2 2589   0.411   1.386   1.326 -1.3230 -0.1253 -0.5649
  864SOL     OW 2590   2.541   2.910   2.023 -0.2620  0.2285  0.3654
  864SOL    HW1 2591   2.638   2.891   2.036 -0.6213 -1.1098  0.0820
  864SOL    HW2 2592   2.524   3.010   2.006 -2.4067 -0.5000  0.3979
  865SOL     OW 2593   1.215   0.603   2.237  0.0510 -0.0893 -0.1587
  865SOL    HW1 2594   1.262   0.694   2.242 -2.1221 -0.4176  1.9092
  865SOL    HW2 2595   1.241   0.552   2.152 -2.5886  2.3887 -0.8157
  866SOL     OW 2596   2.442   2.975   0.574  0.0881  0.2559  0.3614
  866SOL    HW1 2597   2.416   3.037   0.651  1.8548  0.7389  2.0470
  866SOL    HW2 2598   2.502   3.024   0.508  1.2742  0.8302 -0.0295
  867SOL     OW 2599   2.791   2.871   0.875 -0.0765  0.6684 -0.0403
  867SOL    HW1 2600   2.738   2.791   0.839 -1.6056  1.1941  0.6519
  867SOL    HW2 2601   2.893   2.872   0.860 -2.2476 -3.7328  0.1525
  868SOL     OW 2602   1.767   1.631   2.753 -0.3835 -0.2223  0.4714
  868SOL    HW1 2603   1.791   1.716   2.806  0.8990 -1.9139 -0.7022
  868SOL    HW2 2604   1.666   1.624   2.759  1.4084  0.7561  0.5175
  869SOL     OW 2605   2.843   2.631   0.677 -0.1525 -0.7609 -0.3998
  869SOL    HW1 2606   2.826   2.623   0.576 -1.2303 -0.4798 -4.9453
  869SOL    HW2 2607   2.765   2.667   0.731  0.8695  1.8246  1.5960
  870SOL     OW 2608   2.873   1.974   0.472  0.3867  0.9659  0.2254
  870SOL    HW1 2609   2.918   2.017   0.552  0.9379 -1.2942  3.1852
  870SOL    HW2 2610   2.888   1.873   0.471 -0.2810  0.5356  2.4055
  871SOL     OW 2611   0.247   1.333   1.075 -0.2866 -0.4608  0.2997
  871SOL    HW1 2612   0.266   1.277   1.158 -1.6081  0.7729  1.2101
  871SOL    HW2 2613   0.285   1.298   0.986 -1.1020  1.8088  0.3911
  872SOL     OW 2614   1.095   1.688   2.458 -0.2309  0.4305  0.1391
  872SOL    HW1 2615   1.023   1.622   2.419 -0.4217  4.2055 -1.3157
  872SOL    HW2 2616   1.151   1.717   2.375 -2.6691 -0.8114  0.0753
  873SOL     OW 2617   0.577   2.991   1.858  0.4448  0.2553  0.3454
  873SOL    HW1 2618   0.621   3.074   1.903  1.9614 -1.4754  0.3769
  873SOL    HW2 2619   0.616   2.974   1.761  0.2909 -0.8679 -0.7807
  874SOL     OW 2620   0.899   0.465   1.624  0.2618 -0.6415  0.2667
  874SOL    HW1 2621   0.826   0.461   1.693  0.5839 -0.6670 -0.5719
  874SOL    HW2 2622   0.893   0.374   1.568 -0.8295 -3.0065  0.2777
  875SOL     OW 2623   2.949   0.152   1.150  0.5008 -0.5427  0.0432
  875SOL    HW1 2624   2.965   0.238   1.202 -1.5104  1.4771 -0.9249
  875SOL    HW2 2625   2.855   0.157   1.105 -0.6243  0.0622 -1.5452
  876SOL     OW 2626   0.453   1.139   0.345  0.3945 -0.0046  0.0793
  876SOL    HW1 2627   0.404   1.077   0.288 -0.5070  1.7541  1.2890
  876SOL    HW2 2628   0.545   1.157   0.302  1.0399  1.3730 -0.6707
  877SOL     OW 2629   1.106   1.108   1.706  0.9166  0.6928 -0.2287
  877SOL    HW1 2630   1.122   1.051   1.624 -2.2212 -2.8540  2.1711
  877SOL    HW2 2631   1.019   1.080   1.749  0.1791  1.0786  0.4952
  878SOL     OW 2632   2.551   2.261   0.473 -0.4203 -0.3241 -0.3078
  878SOL    HW1 2633   2.468   2.212   0.438  2.8634 -0.4968  0.1692
  878SOL    HW2 2634   2.560   2.358   0.441 -0.3806 -3.4214  1.4896
  879SOL     OW 2635   2.745   1.675   1.792  0.5011 -0.6116 -0.3904
  879SOL    HW1 2636   2.830   1.627   1.769 -0.0192  1.3906 -2.1472
  879SOL    HW2 2637   2.745   1.769   1.746 -1.4823  0.8428 -0.7231
  880SOL     OW 2638   1.159   2.528   0.609 -0.1383  0.0165 -0.5298
  880SOL    HW1 2639   1.100   2.471   0.668  2.5014  0.8164 -1.4396
  880SOL    HW2 2640   1.249   2.535   0.650  1.6635 -0.8671 -0.0689
  881SOL     OW 2641   0.535   2.377   0.477 -0.1235  0.5780  0.4234
  881SOL    HW1 2642   0.554   2.325   0.389  1.8891  0.0917 -1.6752
  881SOL    HW2 2643   0.485   2.461   0.455  2.8972 -0.4811  3.0025
  882SOL     OW 2644   1.718   0.737   0.713  0.2740  0.5968  0.1558
  882SOL    HW1 2645   1.702   0.838   0.710 -2.4625 -1.8048  1.2003
  882SOL    HW2 2646   1.805   0.717   0.759 -1.6934 -1.3683  0.1047
  883SOL     OW 2647   1.363   0.774   1.075 -0.1120  0.5129 -0.3788
  883SOL    HW1 2648   1.278   0.829   1.084 -0.1695  0.8644 -0.2712
  883SOL    HW2 2649   1.439   0.833   1.039  1.8802  0.0360  0.8290
  884SOL     OW 2650   2.853   2.952   0.232  0.2250  0.0270  0.4747
  884SOL    HW1 2651   2.941   2.966   0.185 -0.1533 -4.2796  0.8681
  884SOL    HW2 2652   2.855   2.974   0.332 -0.8672  1.7273  0.3694
  885SOL     OW 2653   1.045   1.383   2.622  0.3888  0.2369  0.1670
  885SOL    HW1 2654   1.110   1.351   2.696 -0.8907  0.5893  0.7985
  885SOL    HW2 2655   1.091   1.368   2.531  0.1618 -1.2258 -2.3999
  886SOL     OW 2656   1.312   1.897   2.587 -0.3815 -0.7478 -0.0627
  886SOL    HW1 2657   1.244   1.833   2.617  1.3320 -0.1300 -1.8073
  886SOL    HW2 2658   1.263   1.978   2.548  0.7508  0.6731 -2.2495
  887SOL     OW 2659   1.104   0.383   1.239  0.1757 -0.0181  0.0115
  887SOL    HW1 2660   1.139   0.397   1.148 -1.4960 -0.7536  1.0925
  887SOL    HW2 2661   1.093   0.469   1.292 -2.9631  1.9546 -0.8776
  888SOL     OW 2662   2.251   0.650   1.824  0.0377  0.1584 -0.4985
  888SOL    HW1 2663   2.315   0.700   1.886 -1.0963 -0.8838 -0.4812
  888SOL    HW2 2664   2.179   0.592   1.874 -1.0341 -0.4954  0.5016
  889SOL     OW 2665   0.195   2.479   0.660  0.1534  0.0597 -0.5921
  889SOL    HW1 2666   0.215   2.572   0.692  0.1265 -0.3555  0.1029
  889SOL    HW2 2667   0.102   2.447   0.690  0.0968  1.4315 -0.6876
  890SOL     OW 2668   1.709   2.093   0.567 -0.2461  0.3437  0.1973
  890SOL    HW1 2669   1.774   2.019   0.578 -1.7274  2.1493 -0.0417
  890SOL    HW2 2670   1.630   2.072   0.506 -2.3696  0.3223 -3.0603
  891SOL     OW 2671   2.804   0.974   0.010  0.5626  0.0368 -0.0680
  891SOL    HW1 2672   2.893   0.970   0.063  0.8991  0.4765  0.7400
  891SOL    HW2 2673   2.741   1.044   0.050 -0.8592  0.2929  1.5061
  892SOL     OW 2674   2.683   2.327   1.144  0.2023  0.2048  0.3707
  892SOL    HW1 2675   2.617   2.363   1.073  1.3374  0.6322  1.0633
  892SOL    HW2 2676   2.661   2.371   1.234 -2.5065 -1.9510  0.6699
  893SOL     OW 2677   1.271   0.480   1.011 -0.2552  0.3237  0.3852
  893SOL    HW1 2678   1.314   0.424   0.935 -1.7918  0.4357  0.1694
  893SOL    HW2 2679   1.319   0.573   1.024  1.9625  3.7055  2.2508
  894SOL     OW 2680   2.726   0.591   0.935 -0.5720 -0.0146  0.0238
  894SOL    HW1 2681   2.657   0.665   0.935  0.6366 -0.2040 -1.8563
  894SOL    HW2 2682   2.801   0.622   0.994 -0.4758 -1.6291  0.4847
  895SOL     OW 2683   1.691   1.403   2.406  0.2253  0.0984 -0.1292
  895SOL    HW1 2684   1.619   1.476   2.426  0.0589  1.8891  2.7861
  895SOL    HW2 2685   1.666   1.349   2.324 -0.0749  0.4033  1.2256
  896SOL     OW 2686   1.839   0.622   1.364 -0.3007 -0.1373  0.0116
  896SOL    HW1 2687   1.931   0.588   1.396  0.3686 -0.9515 -2.5446
  896SOL    HW2 2688   1.778   0.543   1.370 -0.4254 -1.0817 -1.7035
  897SOL     OW 2689   0.298   1.471   1.671  0.2855 -0.2233 -1.0860
  897SOL    HW1 2690   0.259   1.558   1.703 -0.5061 -0.8585  0.0080
  897SOL    HW2 2691   0.297   1.474   1.567 -1.1805  0.0836 -3.1282
  898SOL     OW 2692   2.057   2.608   2.148 -0.1120 -0.0332  0.5261
  898SOL    HW1 2693   2.034   2.571   2.058 -0.4305  0.8123 -1.5979
  898SOL    HW2 2694   2.063   2.541   2.223 -0.4109 -0.0827 -2.0710
  899SOL     OW 2695   1.199   1.693   1.131  0.2793  0.3688  0.3941
  899SOL    HW1 2696   1.121   1.693   1.061 -0.1889 -2.5092  2.0554
  899SOL    HW2 2697   1.172   1.742   1.216  2.3751 -0.3472 -1.9053
  900SOL     OW 2698   1.159   2.117   2.477 -0.0751 -0.1814 -0.9919
  900SOL    HW1 2699   1.062   2.117   2.496  4.1552  1.6284 -0.8488
  900SOL    HW2 2700   1.181   2.154   2.385  1.0810  0.3945 -2.9358
  901SOL     OW 2701   0.927   1.536   2.332 -0.2053 -0.0167  0.0306
  901SOL    HW1 2702   0.939   1.477   2.251  1.1582  2.6987 -0.7539
  901SOL    HW2 2703   0.826   1.552   2.350  3.0115 -1.1058  3.2424
  902SOL     OW 2704   2.226   1.640   0.560 -0.4672  0.0939 -0.2050
  902SOL    HW1 2705   2.265   1.556   0.525  0.3361 -1.7982  1.8144
  902SOL    HW2 2706   2.258   1.661   0.655 -0.3083  2.5848 -2.7341
  903SOL     OW 2707   2.041   1.722   0.390 -0.1853 -0.0894 -0.0190
  903SOL    HW1 2708   2.122   1.691   0.445  0.8527 -0.9265  0.3200
  903SOL    HW2 2709   2.028   1.822   0.384  1.1657  3.2585  0.8319
  904SOL     OW 2710   1.197   0.918   2.264  0.2465  0.2991  0.5591
  904SOL    HW1 2711   1.242   0.887   2.179  2.4689 -1.0823 -1.2909
  904SOL    HW2 2712   1.240   0.884   2.349 -1.1361  1.7131 -1.2468
  905SOL     OW 2713   2.908   0.167   0.755  0.5846  0.0757 -0.3902
  905SOL    HW1 2714   2.920   0.268   0.773 -1.3664  2.0095  2.8394
  905SOL    HW2 2715   2.978   0.117   0.811 -4.5116  1.8828 -1.2285
  906SOL     OW 2716   3.056   1.723   0.388 -0.3755  0.6613  0.4589
  906SOL    HW1 2717   3.073   1.696   0.292 -0.5152 -0.3230 -0.0802
  906SOL    HW2 2718   0.040   1.739   0.435  2.1769 -1.0592  0.3490
  907SOL     OW 2719   1.434   0.426   0.177  0.3732 -0.2199  0.2947
  907SOL    HW1 2720   1.526   0.463   0.150  1.6013  3.1406  1.8927
  907SOL    HW2 2721   1.438   0.388   0.270 -0.7479  1.9416 -0.5974
  908SOL     OW 2722   1.583   2.747   1.470  0.0662 -0.2554  0.1285
  908SOL    HW1 2723   1.654   2.681   1.464 -0.2288  2.4496 -0.1118
  908SOL    HW2 2724   1.568   2.788   1.566  1.1123 -0.8377  1.9815
  909SOL     OW 2725   2.554   0.581   1.526 -0.3278 -0.8122  0.0073
  909SOL    HW1 2726   2.467   0.567   1.570  3.6138 -0.1439  0.5715
  909SOL    HW2 2727   2.614   0.636   1.588 -0.7088  0.9059 -1.2205
  910SOL     OW 2728   1.281   0.010   2.505 -0.0796 -0.0414  0.5039
  910SOL    HW1 2729   1.325   3.022   2.521 -2.2849 -1.9000 -0.6603
  910SOL    HW2 2730   1.237   0.009   2.412 -2.0565 -0.4344  3.1268
  911SOL     OW 2731   2.372   1.027   2.269  0.1927 -0.3170  0.4351
  911SOL    HW1 2732   2.468   1.049   2.253  0.0352 -4.0474 -1.1655
  911SOL    HW2 2733   2.313   1.107   2.255 -0.1447 -1.1298  2.2466
  912SOL     OW 2734   2.483   2.071   1.582 -0.0402  0.3306 -0.3419
  912SOL    HW1 2735   2.488   2.172   1.569 -0.0098  2.3819 -1.5460
  912SOL    HW2 2736   2.392   2.041   1.549  0.5464  0.4754  1.6055
  913SOL     OW 2737   2.505   2.488   1.353 -0.3536 -0.2518 -0.3084
  913SOL    HW1 2738   2.499   2.447   1.446 -0.8853 -0.5743  3.3881
  913SOL    HW2 2739   2.542   2.582   1.347  1.2078 -3.6785 -0.4039
  914SOL     OW 2740   2.445   1.802   1.385 -0.0332 -0.9605  0.2147
  914SOL    HW1 2741   2.471   1.739   1.459 -0.7022 -1.3678 -0.6580
  914SOL    HW2 2742   2.364   1.861   1.418 -2.6079  3.7637  1.1300
  915SOL     OW 2743   1.172   2.374   1.404 -0.4203  0.3052  0.8549
  915SOL    HW1 2744   1.102   2.323   1.456 -0.3647  0.1593  0.7321
  915SOL    HW2 2745   1.263   2.335   1.422  3.3742  3.2055  0.3533
  916SOL     OW 2746   2.901   2.706   1.174 -0.5591  0.2608 -0.1106
  916SOL    HW1 2747   2.936   2.801   1.183  0.4526 -0.2272  1.2196
  916SOL    HW2 2748   2.805   2.703   1.134 -0.8310 -3.5364 -2.2723
  917SOL     OW 2749   2.446   1.430   2.722 -0.7232 -0.2908 -0.0932
  917SOL    HW1 2750   2.510   1.358   2.758  1.4766 -0.5545  1.4036
  917SOL    HW2 2751   2.414   1.410   2.630 -0.3074  0.1080  3.1587
  918SOL     OW 2752   1.783   1.808   2.502  0.4492 -0.5633  0.6069
  918SOL    HW1 2753   1.735   1.730   2.551 -0.7944 -2.2609 -2.2563
  918SOL    HW2 2754   1.869   1.772   2.459  1.2353 -1.8501  1.1379
  919SOL     OW 2755   1.629   2.121   1.472 -0.0397 -0.0901  0.0712
  919SOL    HW1 2756   1.638   2.088   1.568 -0.2610  1.6993  1.5768
  919SOL    HW2 2757   1.717   2.151   1.428 -0.1939  0.2399 -1.2943
  920SOL     OW 2758   0.513   0.107   2.837  0.1330 -0.1338  0.6611
  920SOL    HW1 2759   0.606   0.061   2.811  5.0380  1.4922 -3.4917
  920SOL    HW2 2760   0.475   0.073   2.926 -1.4309 -0.2320  1.1648
  921SOL     OW 2761   2.661   0.245   2.551 -0.0132 -0.3907  0.1747
  921SOL    HW1 2762   2.731   0.174   2.537  0.3856 -2.8224  0.6192
  921SOL    HW2 2763   2.664   0.316   2.480 -0.9747  0.2416  1.1469
  922SOL     OW 2764   2.488   1.637   1.663 -0.1893 -0.0640 -0.0603
  922SOL    HW1 2765   2.583   1.651   1.706  2.2456  1.3027  1.2493
  922SOL    HW2 2766   2.414   1.632   1.739 -2.4223 -0.3541 -0.1177
  923SOL     OW 2767   0.980   2.153   0.204 -0.1579  0.3529 -0.0315
  923SOL    HW1 2768   0.974   2.190   0.300 -0.9960 -1.9305  0.7143
  923SOL    HW2 2769   1.058   2.087   0.202  0.6657  3.8081 -0.6145
  924SOL     OW 2770   1.416   0.505   2.924  0.4883 -0.5412 -0.1686
  924SOL    HW1 2771   1.368   0.521   3.013  2.2298  1.4774 -0.9242
  924SOL    HW2 2772   1.515   0.521   2.931 -3.0915 -0.2185  2.5338
  925SOL     OW 2773   2.508   0.787   0.430 -0.3167 -0.9523 -0.0948
  925SOL    HW1 2774   2.536   0.884   0.419 -1.6366 -0.8985 -0.2056
  925SOL    HW2 2775   2.414   0.773   0.395 -0.0365  0.8518 -0.3957
  926SOL     OW 2776   0.299   0.798   0.718 -0.6633  0.4030 -0.5039
  926SOL    HW1 2777   0.318   0.704   0.678  1.7961  0.6283 -1.4861
  926SOL    HW2 2778   0.261   0.865   0.650  0.3489 -0.6138  0.4865
  927SOL     OW 2779   0.594   1.385   0.551  0.0139 -0.0810 -0.4262
  927SOL    HW1 2780   0.554   1.330   0.478  0.4394  0.7759  1.4743
  927SOL    HW2 2781   0.692   1.411   0.538 -1.4643 -3.9213 -0.8658
  928SOL     OW 2782   0.146   0.004   2.556  0.0346  0.2568 -0.3034
  928SOL    HW1 2783   0.239   3.072   2.584  0.5752  0.8679 -1.0122
  928SOL    HW2 2784   0.138   0.101   2.521 -1.5526  1.5686 -0.8133
  929SOL     OW 2785   2.556   0.248   1.347  0.0315  0.1081 -0.2023
  929SOL    HW1 2786   2.583   0.224   1.250  2.4462 -2.4223 -2.3966
  929SOL    HW2 2787   2.627   0.308   1.388  1.8638  2.0448  0.8983
  930SOL     OW 2788   1.939   2.162   1.419 -0.5883 -0.3247 -0.3865
  930SOL    HW1 2789   1.989   2.245   1.458 -1.8691  1.1359  1.0368
  930SOL    HW2 2790   1.966   2.078   1.462 -0.7851  1.3230 -3.3162
  931SOL     OW 2791   1.785   1.103   0.991  0.2814 -0.4121 -0.1188
  931SOL    HW1 2792   1.834   1.077   1.079 -2.6252  0.4664 -1.3219
  931SOL    HW2 2793   1.793   1.204   0.975  1.0114 -0.6902 -0.9883
  932SOL     OW 2794   2.776   0.882   1.157 -0.1944  0.1066  0.0617
  932SOL    HW1 2795   2.714   0.836   1.227  2.2041 -0.7613  0.9348
  932SOL    HW2 2796   2.847   0.821   1.117 -0.9256  0.1811 -0.6696
  933SOL     OW 2797   2.693   1.878   2.032 -0.1574  0.7144 -0.0309
  933SOL    HW1 2798   2.756   1.821   1.975  0.9505  1.7195  1.6784
  933SOL    HW2 2799   2.633   1.928   1.962 -0.6230 -1.0283 -3.9758
  934SOL     OW 2800   1.594   0.034   1.155  0.0303 -0.0469  0.2493
  934SOL    HW1 2801   1.532   0.115   1.161  0.3764 -2.3811  0.5410
  934SOL    HW2 2802   1.557   3.069   1.083  0.3388 -2.0880 -0.2445
  935SOL     OW 2803   2.665   1.010   0.947 -0.2032 -0.6429 -0.1685
  935SOL    HW1 2804   2.709   0.951   1.018 -2.0307 -1.1951 -2.0845
  935SOL    HW2 2805   2.675   0.967   0.855  0.3649 -2.4316  0.9876
  936SOL     OW 2806   2.841   1.207   1.039  0.2886 -0.2315 -0.5573
  936SOL    HW1 2807   2.776   1.131   1.011  0.8464  0.6585 -0.2452
  936SOL    HW2 2808   2.849   1.275   0.965  0.2443 -0.8533  0.2125
  937SOL     OW 2809   1.451   2.762   0.557 -0.6925  0.2567  0.1174
  937SOL    HW1 2810   1.416   2.847   0.507  2.2855  2.2681 -1.6075
  937SOL    HW2 2811   1.545   2.783   0.595  0.9193 -0.2312  0.8115
  938SOL     OW 2812   3.048   2.473   0.748 -0.2442 -0.1294 -0.2660
  938SOL    HW1 2813   2.967   2.521   0.713  0.3650 -2.2714 -2.1151
  938SOL    HW2 2814   3.069   2.510   0.839  0.1620 -0.3928 -0.8940
  939SOL     OW 2815   0.932   2.066   2.948 -0.1019 -0.0794  0.2050
  939SOL    HW1 2816   0.882   2.093   3.034  2.8788 -0.5567 -1.8751
  939SOL    HW2 2817   0.897   2.112   2.862  1.1742  0.5706  0.7220
  940SOL     OW 2818   2.826   2.685   2.711 -0.1515 -0.4831  0.1368
  940SOL    HW1 2819   2.863   2.652   2.624 -0.7063  0.4436 -3.1319
  940SOL    HW2 2820   2.727   2.700   2.690 -5.2085  0.1203 -1.8287
  941SOL     OW 2821   1.364   2.718   3.004 -0.3721  0.5999 -0.0181
  941SOL    HW1 2822   1.322   2.806   3.025 -0.2167 -2.3860  0.8308
  941SOL    HW2 2823   1.402   2.673   3.086 -1.7210  1.6562  0.2837
  942SOL     OW 2824   1.841   1.712   1.475  0.1309 -0.2111  0.7275
  942SOL    HW1 2825   1.790   1.648   1.540  0.0679 -3.2370  0.6602
  942SOL    HW2 2826   1.776   1.769   1.420 -0.6282  1.7383  0.7028
  943SOL     OW 2827   2.341   1.309   1.766 -0.0056 -0.2353 -0.0561
  943SOL    HW1 2828   2.389   1.226   1.734  0.9325 -1.0377 -0.5902
  943SOL    HW2 2829   2.390   1.357   1.841  0.7818 -2.4776 -1.3289
  944SOL     OW 2830   2.050   0.919   2.006  0.5347  0.3180 -0.4567
  944SOL    HW1 2831   2.064   1.001   1.951 -1.6770 -2.1465  0.4032
  944SOL    HW2 2832   1.995   0.853   1.954  0.1022 -0.6427  0.2598
  945SOL     OW 2833   3.085   0.023   1.491 -0.5477 -0.2550  0.1136
  945SOL    HW1 2834   2.982   0.024   1.496 -0.1811  1.3745  2.1245
  945SOL    HW2 2835   0.023   0.099   1.550  1.3593  1.7629 -2.2078
  946SOL     OW 2836   0.501   0.986   1.894  0.4421  0.2253 -0.1780
  946SOL    HW1 2837   0.526   1.083   1.889 -1.6845  0.2221  0.7585
  946SOL    HW2 2838   0.517   0.966   1.993  1.9881 -0.7785  0.4570
  947SOL     OW 2839   0.559   2.703   0.716  0.4785  0.1880  0.8092
  947SOL    HW1 2840   0.613   2.701   0.627  0.7326  1.3458 -2.9098
  947SOL    HW2 2841   0.541   2.605   0.742 -1.7466 -1.6180 -1.5497
  948SOL     OW 2842   2.922   0.944   1.704 -0.0413 -0.1416  0.0795
  948SOL    HW1 2843   2.878   1.025   1.750 -2.0982  1.6066 -0.9180
  948SOL    HW2 2844   2.990   0.898   1.763 -0.8732 -0.4442 -0.6570
  949SOL     OW 2845   0.101   0.674   2.151  0.4210 -0.1680 -0.4159
  949SOL    HW1 2846   0.180   0.719   2.188 -0.2781 -1.6418 -0.8877
  949SOL    HW2 2847   0.121   0.577   2.127  0.3759  0.2685  2.0345
  950SOL     OW 2848   0.578   0.578   1.003 -0.3898  0.0963  0.3926
  950SOL    HW1 2849   0.606   0.663   0.961 -1.4496 -0.9525 -0.3076
  950SOL    HW2 2850   0.518   0.522   0.945  2.9909  0.3380 -0.4047
  951SOL     OW 2851   1.159   1.807   1.866  0.1833 -0.4316  0.5780
  951SOL    HW1 2852   1.157   1.822   1.966  0.1939 -3.8039 -1.7636
  951SOL    HW2 2853   1.078   1.756   1.827  0.5383 -0.6839 -0.2980
  952SOL     OW 2854   0.905   1.511   2.833  0.0017 -0.4534  0.3766
  952SOL    HW1 2855   0.977   1.508   2.910  2.8884 -3.9944 -1.1804
  952SOL    HW2 2856   0.939   1.442   2.763 -0.2278 -2.0065  2.0589
  953SOL     OW 2857   1.418   0.005   2.114  0.0908 -0.0392  0.2266
  953SOL    HW1 2858   1.364   3.025   2.073 -1.9365  1.4336  0.3498
  953SOL    HW2 2859   1.509   3.075   2.145 -0.7144  0.7539  1.7968
  954SOL     OW 2860   2.399   1.204   0.515 -0.5293  0.5933  0.0637
  954SOL    HW1 2861   2.347   1.278   0.465 -1.3734  1.2277 -0.1432
  954SOL    HW2 2862   2.334   1.136   0.556  3.4952 -3.5215  0.6266
  955SOL     OW 2863   0.335   2.139   2.305 -0.3563  0.2624  0.2350
  955SOL    HW1 2864   0.370   2.205   2.376  0.2151  1.0434  1.7068
  955SOL    HW2 2865   0.298   2.056   2.351 -0.2009  2.8686 -0.9866
  956SOL     OW 2866   1.050   1.235   1.273 -0.0311  0.1997  0.2574
  956SOL    HW1 2867   1.125   1.173   1.261 -2.0878  0.2908 -0.6837
  956SOL    HW2 2868   1.010   1.262   1.185  0.9743 -2.5177  0.0628
  957SOL     OW 2869   2.132   1.330   2.523 -0.1930 -0.8897  0.0081
  957SOL    HW1 2870   2.068   1.407   2.519 -0.8898 -0.2437  1.1925
  957SOL    HW2 2871   2.116   1.267   2.599 -0.9296  3.1332 -0.4020
  958SOL     OW 2872   1.699   2.421   0.812  0.0987  1.2043  0.3806
  958SOL    HW1 2873   1.613   2.411   0.868  0.8946  1.5674 -0.2108
  958SOL    HW2 2874   1.777   2.368   0.860 -1.9364 -2.5472 -1.1545
  959SOL     OW 2875   2.009   1.707   2.375 -0.1834  0.5480  0.2089
  959SOL    HW1 2876   2.068   1.754   2.441  2.6760  1.2453 -0.2448
  959SOL    HW2 2877   1.960   1.634   2.425  0.5524 -1.2534 -0.2394
  960SOL     OW 2878   0.333   0.439   3.043  0.2196 -0.0936 -0.3134
  960SOL    HW1 2879   0.285   0.524   3.073  0.5722  3.3237  1.7649
  960SOL    HW2 2880   0.323   0.415   2.944 -1.8006 -1.1191  2.9992
  961SOL     OW 2881   0.205   0.418   1.981 -0.0299  0.3107 -0.6278
  961SOL    HW1 2882   0.114   0.449   1.939 -2.1929  0.2927  0.2712
  961SOL    HW2 2883   0.282   0.478   1.952 -0.7726  0.7436  2.0964
  962SOL     OW 2884   1.206   1.414   0.177  1.1886  0.5047 -0.1888
  962SOL    HW1 2885   1.294   1.369   0.154 -0.7123  0.7678 -0.9658
  962SOL    HW2 2886   1.157   1.358   0.246 -0.3864 -1.3551  2.0257
  963SOL     OW 2887   1.761   2.112   2.871 -0.1091 -0.4180 -0.2746
  963SOL    HW1 2888   1.832   2.185   2.888 -1.9364 -0.6342  0.8172
  963SOL    HW2 2889   1.671   2.146   2.883  3.2596 -2.2454 -0.8831
  964SOL     OW 2890   1.225   2.875   0.697  0.2493  0.4788 -1.5722
  964SOL    HW1 2891   1.184   2.910   0.614 -0.6679 -2.4218  3.5611
  964SOL    HW2 2892   1.303   2.814   0.678 -0.8311  0.5624  0.0599
  965SOL     OW 2893   0.851   2.827   0.881  0.0550 -0.4522  0.0883
  965SOL    HW1 2894   0.878   2.773   0.796  3.0632  2.2797 -0.6948
  965SOL    HW2 2895   0.750   2.856   0.883  0.6148 -1.6533 -0.2064
  966SOL     OW 2896   2.823   1.534   2.989  0.4112  0.1328  0.2431
  966SOL    HW1 2897   2.786   1.528   2.894  0.7309 -1.6184 -1.5533
  966SOL    HW2 2898   2.770   1.478   3.054  0.4673  0.0352  1.7229
  967SOL     OW 2899   1.503   2.861   1.709 -0.2811 -0.1856 -0.2118
  967SOL    HW1 2900   1.460   2.787   1.764 -1.0799  0.3151  0.2280
  967SOL    HW2 2901   1.473   2.952   1.745 -0.4519 -0.4082  0.2944
  968SOL     OW 2902   1.799   1.031   0.719  0.0297  0.1654  0.2259
  968SOL    HW1 2903   1.703   1.062   0.718  0.3865  0.0998 -1.1105
  968SOL    HW2 2904   1.835   1.042   0.815  0.7005 -1.7378 -1.4020
  969SOL     OW 2905   0.349   1.660   1.977 -0.2337 -0.1666 -0.3585
  969SOL    HW1 2906   0.297   1.677   1.890 -1.7299  0.2365  2.2399
  969SOL    HW2 2907   0.374   1.753   2.009 -0.9813  3.8579 -0.5405
  970SOL     OW 2908   2.774   1.495   1.411 -0.0524 -0.2705  0.5292
  970SOL    HW1 2909   2.871   1.475   1.382 -0.1026 -0.8036 -0.2577
  970SOL    HW2 2910   2.730   1.434   1.477  0.3630  2.1622 -0.9103
  971SOL     OW 2911   1.484   0.363   1.601  0.2145 -0.1898  0.2568
  971SOL    HW1 2912   1.500   0.381   1.505 -1.3412 -2.5932  4.1383
  971SOL    HW2 2913   1.566   0.392   1.656  3.3848  1.0178  0.5549
  972SOL     OW 2914   0.923   0.316   2.508 -0.0467 -0.0281  0.8911
  972SOL    HW1 2915   1.001   0.267   2.550  1.8037  0.6621 -0.1411
  972SOL    HW2 2916   0.889   0.397   2.564 -0.7475 -0.1424  1.1829
  973SOL     OW 2917   2.846   1.288   0.552 -0.0551 -0.1616 -0.7066
  973SOL    HW1 2918   2.890   1.292   0.459  1.1499 -2.8183  0.5783
  973SOL    HW2 2919   2.821   1.193   0.577 -0.3154 -0.1519  0.0915
  974SOL     OW 2920   1.886   1.294   2.027 -0.1870  0.3452  0.0645
  974SOL    HW1 2921   1.794   1.306   2.071  0.2677 -0.3905  0.3361
  974SOL    HW2 2922   1.919   1.201   2.052 -2.5682 -0.1725  2.5756
  975SOL     OW 2923   3.030   2.888   0.587 -0.0463 -0.5402 -0.1217
  975SOL    HW1 2924   3.048   2.882   0.688  1.8990  0.0256 -0.3471
  975SOL    HW2 2925   2.955   2.951   0.556 -0.5758 -2.0032  1.1734
  976SOL     OW 2926   3.038   1.811   1.717  0.3344 -0.1145 -0.7663
  976SOL    HW1 2927   3.077   1.823   1.623 -0.8881 -0.1824  2.2939
  976SOL    HW2 2928   2.978   1.888   1.738  4.1238  0.1324 -3.1770
  977SOL     OW 2929   0.852   2.765   0.050 -0.7243 -0.3911  0.2038
  977SOL    HW1 2930   0.938   2.809   0.081  1.5452 -1.1512  0.9573
  977SOL    HW2 2931   0.784   2.825   0.005 -2.4262  2.0230  2.0843
  978SOL     OW 2932   0.681   1.738   0.093  0.6922  0.0696 -0.0489
  978SOL    HW1 2933   0.641   1.680   0.167 -1.1748 -4.9253  0.8067
  978SOL    HW2 2934   0.781   1.744   0.101 -0.3698 -0.5092  0.1009
  979SOL     OW 2935   1.311   2.098   1.090  0.0442  0.1037  0.5624
  979SOL    HW1 2936   1.400   2.057   1.053  0.4493  0.1246  0.4079
  979SOL    HW2 2937   1.270   2.170   1.027  0.4497  0.2639  0.0193
  980SOL     OW 2938   0.192   1.295   2.301 -0.2746 -0.1079  0.0816
  980SOL    HW1 2939   0.233   1.383   2.334  0.0452 -2.4593 -0.2276
  980SOL    HW2 2940   0.267   1.226   2.290  0.0170  0.7319 -0.0175
  981SOL     OW 2941   2.670   0.736   3.098  0.3771 -0.7503  0.1669
  981SOL    HW1 2942   2.727   0.820   0.005  1.9781 -3.4496  2.1495
  981SOL    HW2 2943   2.726   0.672   3.042  0.4126 -0.1243  2.7398
  982SOL     OW 2944   2.938   2.905   2.875  0.1027  0.1437 -0.1831
  982SOL    HW1 2945   3.034   2.912   2.900 -0.4132  1.1534 -3.7049
  982SOL    HW2 2946   2.927   2.817   2.816  0.6850 -0.1753 -1.0374
  983SOL     OW 2947   2.098   0.511   1.403  0.3968  0.0950 -0.4444
  983SOL    HW1 2948   2.109   0.575   1.482  0.9636  0.8149 -0.2776
  983SOL    HW2 2949   2.127   0.417   1.427  0.2466 -1.1812 -1.8826
  984SOL     OW 2950   1.004   0.269   2.234  0.0501  0.2005 -0.0146
  984SOL    HW1 2951   0.961   0.295   2.326 -0.3189  1.8417  0.2732
  984SOL    HW2 2952   1.069   0.194   2.251  1.5072  0.7145  0.0052
  985SOL     OW 2953   1.421   2.057   1.943  0.4068  0.1324  0.1648
  985SOL    HW1 2954   1.473   1.971   1.943 -0.7715  2.0757  1.4009
  985SOL    HW2 2955   1.459   2.119   2.013  0.7782 -1.8338  1.5732
  986SOL     OW 2956   2.078   0.252   2.303  0.1831  0.6573  0.2721
  986SOL    HW1 2957   2.011   0.235   2.373  2.7686 -0.9463 -1.5397
  986SOL    HW2 2958   2.136   0.334   2.313  1.0479 -0.2100  0.3379
  987SOL     OW 2959   2.377   0.387   2.293 -0.6291 -0.3355  0.2023
  987SOL    HW1 2960   2.385   0.299   2.344 -0.8998 -0.3132 -0.0436
  987SOL    HW2 2961   2.365   0.363   2.191 -0.3109  2.0880  0.0907
  988SOL     OW 2962   2.643   0.442   2.390  0.3267  0.0155 -0.5415
  988SOL    HW1 2963   2.672   0.536   2.420 -0.0914  1.1136  0.8290
  988SOL    HW2 2964   2.542   0.437   2.369  0.1378  2.0993  1.3065
  989SOL     OW 2965   2.399   2.266   2.807  0.3414 -0.1381 -0.1620
  989SOL    HW1 2966   2.468   2.210   2.859  1.6007 -0.3071  0.1073
  989SOL    HW2 2967   2.402   2.243   2.711  0.6911  1.4626  1.9940
  990SOL     OW 2968   0.276   0.725   0.096 -0.1556 -0.4565  0.3416
  990SOL    HW1 2969   0.237   0.661   0.167 -2.7075 -0.8868  1.0646
  990SOL    HW2 2970   0.210   0.774   0.035  2.7334 -1.2537  0.7460
  991SOL     OW 2971   0.618   0.616   2.678 -0.6252 -0.0187 -0.1262
  991SOL    HW1 2972   0.614   0.530   2.734 -0.2993  2.4305 -0.1297
  991SOL    HW2 2973   0.640   0.695   2.735  0.9683 -1.3457  0.1310
  992SOL     OW 2974   0.032   1.642   2.199 -0.3139  0.6819  0.1603
  992SOL    HW1 2975   0.131   1.656   2.193 -1.3487  0.3871 -0.5065
  992SOL    HW2 2976   3.091   1.570   2.141  0.7005  2.7422  1.8160
  993SOL     OW 2977   0.513   0.006   0.793 -0.2469 -0.0305 -0.2250
  993SOL    HW1 2978   0.449   0.028   0.717 -1.7310 -1.8032  1.9185
  993SOL    HW2 2979   0.529   0.086   0.862 -0.1977  2.7093  1.0238
  994SOL     OW 2980   0.379   1.934   1.760 -0.1928 -0.3908 -0.6351
  994SOL    HW1 2981   0.322   2.023   1.760  0.2440 -0.8076  0.9208
  994SOL    HW2 2982   0.462   1.938   1.696  1.4899 -1.5466  0.1891
  995SOL     OW 2983   2.451   1.811   0.073 -0.1993  0.5497  0.1671
  995SOL    HW1 2984   2.476   1.803   3.076  2.4068  1.2787  0.4400
  995SOL    HW2 2985   2.363   1.856   0.080 -0.1703 -0.3852  0.2993
  996SOL     OW 2986   1.912   1.520   2.537 -0.2906 -0.8827 -0.1327
  996SOL    HW1 2987   1.879   1.547   2.628 -2.5055 -0.4195  0.7996
  996SOL    HW2 2988   1.837   1.468   2.489 -1.4756  0.4976 -0.1081
  997SOL     OW 2989   1.876   1.433   1.794 -0.2310 -0.0212  0.0920
  997SOL    HW1 2990   1.873   1.401   1.891  0.0823  0.8141  0.6496
  997SOL    HW2 2991   1.881   1.349   1.735 -0.7542 -0.0575  1.9905
  998SOL     OW 2992   2.450   1.914   0.724  0.0174  0.1754 -0.1592
  998SOL    HW1 2993   2.412   1.821   0.759 -0.9754 -3.8146  1.0180
  998SOL    HW2 2994   2.503   1.896   0.639 -1.6179  0.5938 -0.5038
  999SOL     OW 2995   2.447   2.709   0.598  0.6610  0.1396 -0.2903
  999SOL    HW1 2996   2.432   2.803   0.586  1.2765 -1.4648 -0.1316
  999SOL    HW2 2997   2.465   2.661   0.512  0.6889  1.5794  4.0643
 1000SOL     OW 2998   0.892   3.018   2.489  0.2576 -0.4207 -0.1544
 1000SOL    HW1 2999   0.812   3.074   2.503 -1.8007 -0.3730  3.0739
 1000SOL    HW2 3000   0.926   3.023   2.392  0.9216 -0.8268  0.1145
   3.10158   3.10158   3.10158
