1000 SPC/Fw water molecules t=  67.00000 step= 67000
 3000
    1SOL     OW    1   2.086   2.708   0.849 -0.1319 -0.0138 -0.3925
    1SOL    HW1    2   1.993   2.727   0.803 -1.3253 -0.0672  0.3166
    1SOL    HW2    3   2.165   2.764   0.810  0.9238 -0.2498  0.2084
    2SOL     OW    4   0.920   1.172   2.460  0.2036 -0.0601  0.2594
    2SOL    HW1    5   0.889   1.096   2.522 -0.2623  1.2020 -0.8441
    2SOL    HW2    6   0.937   1.254   2.521 -0.9449  3.8470 -0.8879
    3SOL     OW    7   1.414   2.699   2.468 -0.2346 -0.6665  0.2252
    3SOL    HW1    8   1.489   2.758   2.506 -0.9473  0.7748  2.7029
    3SOL    HW2    9   1.441   2.602   2.459  0.1741 -0.0509 -2.7130
    4SOL     OW   10   1.165   1.912   2.898  0.3831  0.1855 -0.3431
    4SOL    HW1   11   1.137   1.920   2.802  2.5311  2.1112 -2.4947
    4SOL    HW2   12   1.236   1.838   2.899 -0.0883 -1.1720  0.0412
    5SOL     OW   13   0.826   0.593   1.751 -0.2194  0.3360  0.0954
    5SOL    HW1   14   0.923   0.621   1.728 -0.2655  0.6495  0.6065
    5SOL    HW2   15   0.811   0.601   1.851 -0.2403 -0.7018  0.1784
    6SOL     OW   16   1.968   0.617   2.393 -0.2158 -0.4164  0.1194
    6SOL    HW1   17   1.970   0.631   2.289  1.9314  0.2572 -1.5427
    6SOL    HW2   18   1.932   0.521   2.407 -0.7114 -1.6694  0.9805
    7SOL     OW   19   0.196   0.312   1.676  0.5099 -0.1671 -0.3859
    7SOL    HW1   20   0.149   0.345   1.593 -0.3777  1.1974  1.7976
    7SOL    HW2   21   0.152   0.369   1.749 -1.2330  1.5752 -1.1421
    8SOL     OW   22   1.947   2.959   1.785 -0.2645  0.4060  0.5465
    8SOL    HW1   23   1.886   2.913   1.855  0.2994  0.9495  1.6303
    8SOL    HW2   24   1.938   3.061   1.785 -0.0160  0.0640 -0.6541
    9SOL     OW   25   0.253   2.978   0.772 -0.9066 -0.1615 -0.3663
    9SOL    HW1   26   0.342   3.025   0.780  1.6481  0.1391  2.1810
    9SOL    HW2   27   0.193   3.020   0.698 -1.8282 -0.8267 -0.9525
   10SOL     OW   28   0.533   2.203   2.434  0.8353 -0.5530 -0.2294
   10SOL    HW1   29   0.630   2.177   2.422  0.9662 -0.6311 -0.8595
   10SOL    HW2   30   0.522   2.223   2.537 -1.3705  2.1756  3.4944
   11SOL     OW   31   0.609   1.547   0.154  0.1444 -0.1192  0.1040
   11SOL    HW1   32   0.615   1.490   0.068  1.9751 -0.3631 -0.7787
   11SOL    HW2   33   0.516   1.542   0.190 -2.3145 -2.2113 -1.5681
   12SOL     OW   34   2.752   2.764   1.487 -0.4206  0.6310  0.9188
   12SOL    HW1   35   2.767   2.849   1.428 -1.7116 -0.1787 -4.5642
   12SOL    HW2   36   2.821   2.690   1.476 -3.5594  1.6604 -2.5998
   13SOL     OW   37   0.825   2.785   0.117  0.3737  0.4932 -0.1806
   13SOL    HW1   38   0.823   2.863   0.052 -0.2509 -1.8707  3.2528
   13SOL    HW2   39   0.728   2.770   0.159 -0.6012  1.5382 -0.5839
   14SOL     OW   40   1.464   1.642   1.416 -0.4580 -0.5635 -0.6715
   14SOL    HW1   41   1.414   1.594   1.490  1.6593  1.5657  1.6770
   14SOL    HW2   42   1.567   1.639   1.428 -2.3198  2.6361  1.3164
   15SOL     OW   43   0.394   1.814   2.471  0.2912  0.1217 -0.1689
   15SOL    HW1   44   0.496   1.810   2.448 -0.1167 -0.2975 -0.2232
   15SOL    HW2   45   0.354   1.894   2.431  1.7315  0.3920 -0.6368
   16SOL     OW   46   1.530   0.468   2.636 -0.4588  0.2805  0.6233
   16SOL    HW1   47   1.561   0.534   2.568 -0.6625  1.4110  0.7511
   16SOL    HW2   48   1.570   0.497   2.724  0.2099 -0.0572  1.2850
   17SOL     OW   49   3.051   2.602   2.413 -0.3768 -0.3309  0.5529
   17SOL    HW1   50   3.078   2.605   2.512  1.8758  0.8701 -2.0799
   17SOL    HW2   51   0.044   2.549   2.361 -2.5986 -2.1614 -1.4016
   18SOL     OW   52   1.059   1.279   0.779  0.7222 -0.1399 -0.0888
   18SOL    HW1   53   1.053   1.377   0.762  2.0651 -1.1008  4.3475
   18SOL    HW2   54   1.002   1.265   0.863 -2.4980  0.5754 -2.3955
   19SOL     OW   55   2.776   1.881   2.429 -0.3554 -0.0022  0.0073
   19SOL    HW1   56   2.874   1.851   2.445  1.4024 -2.3646 -1.9738
   19SOL    HW2   57   2.759   1.973   2.467 -0.1913  0.3215 -2.6506
   20SOL     OW   58   2.391   2.242   2.440 -0.0202 -0.1354 -0.3367
   20SOL    HW1   59   2.433   2.274   2.353  0.1519  2.7998  0.4772
   20SOL    HW2   60   2.301   2.284   2.452  2.3608 -0.7314 -2.4792
   21SOL     OW   61   1.538   1.705   0.367  0.2901  0.1333 -0.8650
   21SOL    HW1   62   1.595   1.634   0.422 -2.0979 -2.6284 -1.3432
   21SOL    HW2   63   1.479   1.767   0.428 -0.6969  1.8427  1.3420
   22SOL     OW   64   2.179   2.051   1.568  1.1236  0.1472 -0.2460
   22SOL    HW1   65   2.216   2.065   1.663  0.8732  0.5577  0.4567
   22SOL    HW2   66   2.181   2.135   1.509  0.3759  1.5387 -0.4220
   23SOL     OW   67   3.029   1.140   1.172 -0.4083 -0.7722  0.1946
   23SOL    HW1   68   2.941   1.196   1.165 -1.2301  0.7773  1.1303
   23SOL    HW2   69   3.037   1.070   1.101  0.0543 -2.8163 -1.7020
   24SOL     OW   70   2.316   1.416   1.857  0.3083 -0.5482 -0.1657
   24SOL    HW1   71   2.397   1.413   1.795 -1.9455 -0.6948 -0.9727
   24SOL    HW2   72   2.246   1.351   1.821  0.6977 -0.4779 -2.5442
   25SOL     OW   73   2.028   0.252   2.247 -0.0988 -0.1420 -0.3755
   25SOL    HW1   74   2.097   0.325   2.275 -1.4386  2.1258 -0.0477
   25SOL    HW2   75   2.053   0.156   2.278  2.0428  1.3718 -1.7304
   26SOL     OW   76   1.124   3.061   0.326  0.1371  0.0910  0.2629
   26SOL    HW1   77   1.029   0.004   0.315  3.7991  1.5977 -2.3657
   26SOL    HW2   78   1.132   3.017   0.419  0.6951  1.0799  0.0749
   27SOL     OW   79   0.812   1.697   0.731 -0.5851 -0.1901  0.2454
   27SOL    HW1   80   0.780   1.690   0.638 -1.3745 -0.2842  0.5690
   27SOL    HW2   81   0.744   1.670   0.801  1.4448 -1.1394 -3.3658
   28SOL     OW   82   2.504   2.043   1.066 -0.4714 -0.2211 -1.0934
   28SOL    HW1   83   2.404   2.030   1.085 -0.3320 -1.3144 -0.4497
   28SOL    HW2   84   2.520   2.139   1.034  1.5720  0.0453  1.1046
   29SOL     OW   85   2.112   3.066   1.527  0.0088  0.0698 -0.1594
   29SOL    HW1   86   2.051   2.990   1.542  2.7751  5.6482 -1.6958
   29SOL    HW2   87   2.158   0.020   1.613 -2.1626  0.8785 -0.4674
   30SOL     OW   88   0.823   2.906   1.123  0.0198  0.0693 -0.4169
   30SOL    HW1   89   0.726   2.874   1.125 -2.5098 -1.6872 -1.3252
   30SOL    HW2   90   0.847   2.953   1.212 -1.9981 -0.7149  1.2714
   31SOL     OW   91   0.002   1.981   2.052  0.4316 -0.8483  0.5977
   31SOL    HW1   92   0.082   1.964   1.998 -1.2363  0.1375  3.2002
   31SOL    HW2   93   3.068   1.901   2.108 -1.3636  1.8898  0.7899
   32SOL     OW   94   1.415   1.611   2.241 -0.1001 -0.3895  0.5262
   32SOL    HW1   95   1.386   1.680   2.171  0.5241  1.8402 -1.4070
   32SOL    HW2   96   1.498   1.563   2.200 -0.3462  0.5412 -1.4221
   33SOL     OW   97   0.441   0.046   2.915  0.1133  0.1620  0.4233
   33SOL    HW1   98   0.471   0.046   2.820 -3.0081  1.5664 -0.1598
   33SOL    HW2   99   0.452   3.036   2.959  0.0263  2.1115  1.0050
   34SOL     OW  100   2.550   3.030   0.632  0.6158  0.0253 -0.4302
   34SOL    HW1  101   2.494   3.068   0.703  0.0352 -2.6344 -2.1832
   34SOL    HW2  102   2.597   2.943   0.659 -0.2753  1.6004 -2.4228
   35SOL     OW  103   2.571   0.363   1.414  0.9570  0.1342 -0.0109
   35SOL    HW1  104   2.534   0.429   1.485 -0.4446  0.2824 -2.5361
   35SOL    HW2  105   2.505   0.340   1.340  1.0488  2.0911 -0.6441
   36SOL     OW  106   2.793   3.003   2.355  0.1794 -0.3227  0.1904
   36SOL    HW1  107   2.700   3.013   2.318  3.1323  0.1044 -0.6919
   36SOL    HW2  108   2.839   2.919   2.322  0.9540  2.6840  0.2072
   37SOL     OW  109   1.713   2.586   2.927  0.0923  0.0959  0.4861
   37SOL    HW1  110   1.690   2.676   2.884  0.2270 -0.3769  0.0573
   37SOL    HW2  111   1.635   2.559   2.986  1.6753 -1.0229 -2.9007
   38SOL     OW  112   0.014   0.923   0.014  0.2450  0.2560  0.2027
   38SOL    HW1  113   3.026   0.887   3.025 -2.3624 -0.6079 -0.3108
   38SOL    HW2  114   3.045   0.933   0.104 -1.2576 -0.9451 -2.5571
   39SOL     OW  115   1.731   1.697   2.044  0.2505  0.0250  0.6851
   39SOL    HW1  116   1.671   1.775   2.059  1.6956 -2.1838 -0.1244
   39SOL    HW2  117   1.686   1.607   2.064 -2.8371 -1.9278 -1.3880
   40SOL     OW  118   0.174   0.366   2.551 -0.5265 -0.0142 -0.4377
   40SOL    HW1  119   0.086   0.316   2.575 -1.8393 -0.1736  3.8921
   40SOL    HW2  120   0.255   0.341   2.613  1.6914  2.3333  0.2160
   41SOL     OW  121   1.762   1.200   1.842  0.4925 -0.2760  0.4247
   41SOL    HW1  122   1.681   1.198   1.904 -0.3555  0.0102 -0.7106
   41SOL    HW2  123   1.745   1.267   1.765 -0.5176  2.1335 -1.1963
   42SOL     OW  124   2.998   0.252   1.583 -0.1213 -0.0902 -0.3357
   42SOL    HW1  125   2.912   0.245   1.535 -0.0584 -0.3313 -0.1070
   42SOL    HW2  126   3.056   0.313   1.524 -2.7174 -1.1099 -0.6589
   43SOL     OW  127   1.425   1.200   1.700 -0.1072  0.3696 -0.0050
   43SOL    HW1  128   1.388   1.170   1.788  1.9943 -1.2408 -1.3559
   43SOL    HW2  129   1.408   1.134   1.627 -0.7255  1.6946  1.0320
   44SOL     OW  130   2.973   0.313   2.963 -0.0828  0.4853 -0.0990
   44SOL    HW1  131   3.051   0.313   3.033  2.5954 -0.0120  1.6481
   44SOL    HW2  132   2.937   0.217   2.950 -0.9247  1.7743  1.8841
   45SOL     OW  133   0.360   2.171   1.065  0.3916  0.0763  0.3047
   45SOL    HW1  134   0.307   2.206   1.146 -0.3292 -0.5551  3.1025
   45SOL    HW2  135   0.310   2.092   1.023  0.0171 -1.7861  0.5875
   46SOL     OW  136   2.273   2.866   1.770  0.2397  0.2567  0.0483
   46SOL    HW1  137   2.243   2.960   1.777 -0.2937 -0.6014  1.2841
   46SOL    HW2  138   2.371   2.850   1.790 -0.7409 -1.2156 -0.3418
   47SOL     OW  139   0.311   1.795   1.110 -0.2616 -0.4020  0.5521
   47SOL    HW1  140   0.376   1.836   1.043  2.0908  1.0844  0.2011
   47SOL    HW2  141   0.217   1.830   1.111  2.3130 -3.4391  0.8731
   48SOL     OW  142   0.510   2.760   0.221  0.1923  0.6401 -0.1056
   48SOL    HW1  143   0.506   2.811   0.309  2.1847 -2.7353  0.4465
   48SOL    HW2  144   0.436   2.686   0.211 -1.4163 -0.6092  1.5688
   49SOL     OW  145   2.937   1.644   1.796  0.6502 -0.0348 -0.4442
   49SOL    HW1  146   2.867   1.616   1.865 -0.2566 -1.2578 -0.3343
   49SOL    HW2  147   3.018   1.589   1.822 -2.9609  0.9463  1.2597
   50SOL     OW  148   1.553   0.168   0.585  0.3995 -0.0098 -0.2754
   50SOL    HW1  149   1.636   0.192   0.529  3.1971  1.9840 -2.0222
   50SOL    HW2  150   1.495   0.248   0.591 -1.1450  0.1967  0.1694
   51SOL     OW  151   1.036   0.550   1.207 -0.4916 -0.2061 -0.1146
   51SOL    HW1  152   1.075   0.615   1.138 -0.5016 -0.2750 -0.6847
   51SOL    HW2  153   0.961   0.496   1.165 -0.2995  1.4176  0.6857
   52SOL     OW  154   0.770   1.198   0.568 -0.2363 -0.8268 -0.7914
   52SOL    HW1  155   0.684   1.218   0.517 -3.4153 -0.0836  0.1524
   52SOL    HW2  156   0.756   1.233   0.663  1.4315  1.7007 -4.1853
   53SOL     OW  157   1.399   3.067   2.288  0.0937 -0.1215 -0.2704
   53SOL    HW1  158   1.414   3.067   2.390  4.2149  0.4536 -1.1950
   53SOL    HW2  159   1.487   3.047   2.240 -0.6976  3.0331 -0.4706
   54SOL     OW  160   1.736   0.601   1.563  0.1459 -0.3626 -0.1123
   54SOL    HW1  161   1.688   0.617   1.471 -1.2980  0.3955 -1.3244
   54SOL    HW2  162   1.838   0.601   1.551  1.9268  0.3793  0.9256
   55SOL     OW  163   3.036   2.810   0.529 -0.2157 -0.7516  0.6047
   55SOL    HW1  164   3.007   2.723   0.488  1.0031  0.0310 -1.6211
   55SOL    HW2  165   0.021   2.790   0.606  0.6784  0.1598 -3.7949
   56SOL     OW  166   1.074   2.593   1.748  0.1167 -0.2827  0.1517
   56SOL    HW1  167   1.148   2.605   1.819  0.5712 -0.2482 -1.2687
   56SOL    HW2  168   1.088   2.660   1.671 -1.9442 -0.3822  0.3300
   57SOL     OW  169   1.713   0.862   2.357  0.1947 -0.3535 -0.0605
   57SOL    HW1  170   1.655   0.779   2.377  2.7077  0.3667 -2.1289
   57SOL    HW2  171   1.783   0.837   2.289  0.6459  3.2369  2.4862
   58SOL     OW  172   0.340   1.290   2.067  0.2284 -0.5554 -0.0362
   58SOL    HW1  173   0.398   1.372   2.052 -0.3847 -3.2618 -1.0058
   58SOL    HW2  174   0.387   1.207   2.051 -0.3628  0.9311 -1.3840
   59SOL     OW  175   0.499   2.469   1.967  0.2048  0.1557  0.2157
   59SOL    HW1  176   0.525   2.371   1.956 -1.0898  1.4460  0.2486
   59SOL    HW2  177   0.540   2.516   2.048 -2.3807  0.0395  0.1253
   60SOL     OW  178   2.424   2.424   0.205  0.4756  0.6333 -0.3463
   60SOL    HW1  179   2.510   2.378   0.227 -0.3876  2.1164 -2.9075
   60SOL    HW2  180   2.436   2.489   0.130 -1.0117  0.9941 -0.7965
   61SOL     OW  181   1.145   2.775   0.685 -0.9929 -0.0806  0.2942
   61SOL    HW1  182   1.233   2.768   0.630  0.9520 -0.6068  1.6606
   61SOL    HW2  183   1.076   2.697   0.669 -0.7336 -2.2208 -0.2458
   62SOL     OW  184   1.651   2.264   2.592 -0.0583 -0.1710  0.0877
   62SOL    HW1  185   1.692   2.233   2.502 -1.9147  1.7683  0.6367
   62SOL    HW2  186   1.632   2.183   2.652 -0.5559 -2.8583  0.3563
   63SOL     OW  187   2.119   0.643   2.827  0.1772  0.4534  0.0705
   63SOL    HW1  188   2.148   0.668   2.738 -2.0443  0.4954  0.1713
   63SOL    HW2  189   2.193   0.650   2.899 -1.1812 -1.4064 -1.6150
   64SOL     OW  190   1.337   1.451   0.332 -0.4587  0.2602 -0.0022
   64SOL    HW1  191   1.404   1.526   0.326 -0.9998 -0.5214 -0.8245
   64SOL    HW2  192   1.238   1.484   0.341  0.3884  0.8478 -1.6805
   65SOL     OW  193   0.896   3.057   1.388  0.2797 -0.5825 -0.1012
   65SOL    HW1  194   0.964   3.025   1.456 -1.9322 -0.5960  0.2125
   65SOL    HW2  195   0.872   0.079   1.399  0.4952  1.6436 -1.0830
   66SOL     OW  196   0.768   1.260   1.352 -0.3899  0.1408  0.0771
   66SOL    HW1  197   0.711   1.233   1.437 -1.7544 -0.3436 -0.5871
   66SOL    HW2  198   0.866   1.239   1.362  0.3064 -0.7339 -1.4562
   67SOL     OW  199   2.371   2.549   1.882 -0.1458  0.4044  0.5270
   67SOL    HW1  200   2.424   2.544   1.970 -0.1104  0.4507  0.6136
   67SOL    HW2  201   2.429   2.563   1.798  0.0223 -0.4009 -3.2133
   68SOL     OW  202   0.910   0.989   1.853  1.0662 -0.1549  0.5299
   68SOL    HW1  203   0.867   1.060   1.911  1.6125 -0.9461 -0.8762
   68SOL    HW2  204   0.847   0.946   1.785 -0.8962  0.0328 -1.6660
   69SOL     OW  205   2.683   2.582   0.068  0.2269 -0.1116  0.5332
   69SOL    HW1  206   2.667   2.601   0.171 -0.5639  0.8749  1.4097
   69SOL    HW2  207   2.598   2.587   0.009 -2.5703  1.0951 -1.0923
   70SOL     OW  208   2.413   0.795   2.502 -0.2478 -0.1108  0.3651
   70SOL    HW1  209   2.443   0.861   2.577 -1.5199  0.3831  0.8883
   70SOL    HW2  210   2.494   0.775   2.440 -0.5214  0.1456  1.9866
   71SOL     OW  211   0.038   2.160   0.530  0.3246 -0.1585  0.1938
   71SOL    HW1  212   3.041   2.114   0.475 -0.5621 -1.9017 -1.5075
   71SOL    HW2  213   0.060   2.251   0.486  0.8293 -1.2740 -1.5429
   72SOL     OW  214   2.911   2.052   0.370 -0.1416 -0.5943 -0.3728
   72SOL    HW1  215   2.848   1.976   0.364  0.2332 -0.1029 -0.1571
   72SOL    HW2  216   2.926   2.090   0.272 -0.7112  2.2075  0.2999
   73SOL     OW  217   0.860   0.607   0.830  0.0260 -0.2253 -0.1388
   73SOL    HW1  218   0.950   0.639   0.870 -0.3618  2.1729  0.5745
   73SOL    HW2  219   0.807   0.694   0.813  0.5901  1.0769  0.2750
   74SOL     OW  220   2.534   2.324   2.211  0.2133 -0.3446  0.0528
   74SOL    HW1  221   2.482   2.251   2.161 -1.2325  0.8148 -0.8863
   74SOL    HW2  222   2.634   2.312   2.208 -3.2028 -3.1759  0.6708
   75SOL     OW  223   1.795   1.613   1.804  0.0542 -0.5462 -0.2039
   75SOL    HW1  224   1.789   1.654   1.901  0.4644  1.8115  2.9187
   75SOL    HW2  225   1.703   1.625   1.756 -0.4472  0.1286  1.1753
   76SOL     OW  226   1.159   1.948   1.056 -0.0897 -0.3485  0.3678
   76SOL    HW1  227   1.226   1.883   1.094 -2.1869  0.7289 -1.9250
   76SOL    HW2  228   1.082   1.900   1.005 -2.9027 -1.2823  1.3216
   77SOL     OW  229   2.752   1.577   1.979 -0.3620 -0.1875 -0.2408
   77SOL    HW1  230   2.702   1.499   2.028 -0.4524 -1.8205 -0.0409
   77SOL    HW2  231   2.750   1.662   2.033  1.3796  0.9843 -1.0726
   78SOL     OW  232   1.565   0.564   0.545  0.0238 -0.2226 -0.8091
   78SOL    HW1  233   1.586   0.564   0.646  3.5734 -1.3840  0.1268
   78SOL    HW2  234   1.494   0.492   0.526 -2.3095 -0.3151  0.7195
   79SOL     OW  235   2.049   1.257   1.869 -0.4798  0.3864  0.4241
   79SOL    HW1  236   2.088   1.261   1.964  0.6288 -0.3970 -1.4122
   79SOL    HW2  237   1.954   1.220   1.870 -1.0651 -0.3131  0.9222
   80SOL     OW  238   0.994   0.462   1.468 -0.3931 -0.3691  0.6664
   80SOL    HW1  239   0.981   0.510   1.375 -0.4845  0.9851 -2.7510
   80SOL    HW2  240   1.074   0.503   1.520  2.1239 -0.7983 -2.5565
   81SOL     OW  241   0.941   2.576   0.745  0.6714  0.1969 -0.1092
   81SOL    HW1  242   0.940   2.643   0.820  1.3261 -0.2389  0.1494
   81SOL    HW2  243   0.958   2.479   0.776 -3.5716  1.5117 -1.6516
   82SOL     OW  244   1.349   0.373   1.731  0.1220  0.5523  0.0368
   82SOL    HW1  245   1.449   0.396   1.739  0.2707 -2.3551 -3.0658
   82SOL    HW2  246   1.319   0.288   1.781 -0.5572 -0.3770  0.8000
   83SOL     OW  247   0.361   2.287   0.626  0.3278  0.2511 -0.0324
   83SOL    HW1  248   0.354   2.183   0.608  0.1524 -3.6500  0.7380
   83SOL    HW2  249   0.329   2.308   0.718 -0.9335  0.0414 -1.5486
   84SOL     OW  250   2.705   1.535   3.027  0.5235  0.0837  0.0442
   84SOL    HW1  251   2.806   1.510   3.029  1.5507 -2.5776  0.2734
   84SOL    HW2  252   2.697   1.636   3.040 -0.7759  1.8054  0.5209
   85SOL     OW  253   2.810   2.300   1.733 -0.0480 -0.0942 -0.4266
   85SOL    HW1  254   2.719   2.254   1.716 -2.6076 -2.0747  0.9965
   85SOL    HW2  255   2.861   2.252   1.808  0.2070  0.6253 -1.6069
   86SOL     OW  256   1.559   2.702   1.184  0.1393  0.1478 -0.3326
   86SOL    HW1  257   1.648   2.666   1.217 -3.0603 -0.5270  0.6549
   86SOL    HW2  258   1.570   2.760   1.098  2.1687  0.1770 -1.0443
   87SOL     OW  259   2.759   1.789   0.365 -0.0125 -0.9009  0.1264
   87SOL    HW1  260   2.669   1.741   0.374 -3.3789 -0.7945 -1.6329
   87SOL    HW2  261   2.800   1.765   0.274  0.7540 -0.0737  2.1665
   88SOL     OW  262   0.815   0.420   1.118  0.2456  0.2658  0.9454
   88SOL    HW1  263   0.719   0.439   1.116 -0.1048  0.2860  1.8305
   88SOL    HW2  264   0.842   0.341   1.065  0.4898 -0.6797  0.2237
   89SOL     OW  265   0.819   2.879   1.795  0.0034 -0.2455  0.6803
   89SOL    HW1  266   0.775   2.969   1.834 -2.8889  3.6978  2.5987
   89SOL    HW2  267   0.766   2.795   1.813  0.6818  0.8565 -3.4700
   90SOL     OW  268   3.038   1.666   0.921  0.1379  0.1082 -0.0543
   90SOL    HW1  269   3.064   1.743   0.864 -4.6682  0.5284  1.0524
   90SOL    HW2  270   2.980   1.705   0.998 -0.7172 -0.6191  1.2542
   91SOL     OW  271   1.305   1.686   1.185  0.4402 -0.0209 -0.1444
   91SOL    HW1  272   1.373   1.667   1.257 -1.4465 -0.7395  0.2549
   91SOL    HW2  273   1.233   1.614   1.187 -1.9959  3.0778 -1.1007
   92SOL     OW  274   2.631   0.030   1.712  0.5416  0.1403  0.0237
   92SOL    HW1  275   2.584   0.120   1.709  0.6342  0.3504 -0.5447
   92SOL    HW2  276   2.713   0.027   1.771  0.8127  1.7588 -0.5151
   93SOL     OW  277   0.309   1.131   2.815  0.1638 -0.3048  0.2310
   93SOL    HW1  278   0.375   1.062   2.844  0.2717  1.6219 -0.6151
   93SOL    HW2  279   0.326   1.170   2.720  0.9949  2.2034  0.0056
   94SOL     OW  280   2.240   0.097   1.756  0.1581  0.0553 -0.4666
   94SOL    HW1  281   2.240   0.075   1.856 -0.9291 -1.0089 -0.9777
   94SOL    HW2  282   2.313   0.158   1.727 -1.2186 -4.5293 -1.0826
   95SOL     OW  283   1.632   0.728   2.045  0.2159 -0.4657 -0.2094
   95SOL    HW1  284   1.529   0.744   2.061 -1.5765  1.5042  0.6625
   95SOL    HW2  285   1.658   0.739   1.947 -1.9482  1.3820  1.9452
   96SOL     OW  286   2.786   0.621   1.704  1.0522 -0.0314 -0.1318
   96SOL    HW1  287   2.849   0.644   1.778 -1.4806 -0.9249 -1.6054
   96SOL    HW2  288   2.717   0.694   1.700  1.4820 -0.7967  1.4202
   97SOL     OW  289   2.339   0.059   1.357  0.4970  0.5767 -0.0594
   97SOL    HW1  290   2.431   0.032   1.392 -0.9714 -1.9735  2.4331
   97SOL    HW2  291   2.272   0.006   1.412 -0.0069  1.7038 -1.5698
   98SOL     OW  292   2.059   2.511   1.632  0.0621 -0.1435  0.1136
   98SOL    HW1  293   2.128   2.455   1.680  1.6840 -0.1894  1.1229
   98SOL    HW2  294   1.965   2.470   1.644 -2.2524  2.6704 -0.1945
   99SOL     OW  295   2.380   0.534   1.552 -0.1415 -0.2958  0.1320
   99SOL    HW1  296   2.285   0.526   1.515 -3.1648 -2.2392 -1.4969
   99SOL    HW2  297   2.384   0.600   1.626 -1.2829 -4.4756  0.0322
  100SOL     OW  298   2.300   1.609   2.065  0.5278  0.0786 -0.0550
  100SOL    HW1  299   2.332   1.540   2.001 -1.9035  0.8240  1.0604
  100SOL    HW2  300   2.202   1.621   2.064 -0.7107 -0.6542  1.9173
  101SOL     OW  301   2.290   0.099   3.072  0.1272  1.5196  0.5628
  101SOL    HW1  302   2.344   0.027   0.045  1.4645 -1.1617  0.6260
  101SOL    HW2  303   2.202   0.124   0.037 -0.6012 -1.0851  0.0102
  102SOL     OW  304   0.639   0.626   1.286  0.0070 -0.6308  0.1120
  102SOL    HW1  305   0.695   0.542   1.308 -0.0695  1.2804  1.1693
  102SOL    HW2  306   0.556   0.599   1.227 -2.1735 -0.7995 -1.7341
  103SOL     OW  307   2.953   0.142   2.350 -0.2683 -0.1639  0.5368
  103SOL    HW1  308   2.879   0.075   2.370  0.8484 -2.8744  2.8857
  103SOL    HW2  309   3.049   0.105   2.337  0.4949  1.7660 -0.1500
  104SOL     OW  310   3.069   2.844   1.630 -0.3898  0.1481 -0.2655
  104SOL    HW1  311   3.044   2.795   1.544  2.8307  1.0205  0.0444
  104SOL    HW2  312   3.057   2.778   1.706  0.7824 -2.0010  4.1286
  105SOL     OW  313   1.369   1.116   1.965  0.0088  0.3741 -0.0651
  105SOL    HW1  314   1.290   1.146   2.019  0.8957 -0.2134 -0.2278
  105SOL    HW2  315   1.335   1.039   1.908 -0.5432  2.3434 -0.3049
  106SOL     OW  316   1.918   0.504   0.657  0.0916 -0.3342  0.4554
  106SOL    HW1  317   1.887   0.564   0.735 -0.4860  1.4555  0.7022
  106SOL    HW2  318   1.862   0.528   0.577 -0.8708 -1.0327  0.3194
  107SOL     OW  319   0.543   0.861   1.410  0.2631 -0.0167 -0.4278
  107SOL    HW1  320   0.505   0.806   1.489  0.0539 -0.6028 -0.2903
  107SOL    HW2  321   0.607   0.802   1.357 -0.2571  1.2284 -0.1411
  108SOL     OW  322   2.982   0.553   2.315  0.1110 -0.1584 -0.3364
  108SOL    HW1  323   2.945   0.528   2.227 -0.0861  1.8479  1.1123
  108SOL    HW2  324   2.944   0.500   2.389  0.0612  1.1607  3.3644
  109SOL     OW  325   2.007   3.065   2.730  0.0437 -0.1940 -0.4761
  109SOL    HW1  326   2.105   3.040   2.739 -1.7396 -0.3646  1.0020
  109SOL    HW2  327   1.967   3.009   2.651  0.9268 -2.5295 -0.9784
  110SOL     OW  328   0.025   1.774   2.871  0.3258 -0.1602  0.0600
  110SOL    HW1  329   3.021   1.823   2.861  1.0053 -2.5205 -0.6469
  110SOL    HW2  330   0.042   1.759   2.969  0.2292 -0.2534 -0.8340
  111SOL     OW  331   2.739   0.562   2.545  0.2648 -0.6234 -0.0160
  111SOL    HW1  332   2.676   0.527   2.615 -2.1799  0.9350 -0.8392
  111SOL    HW2  333   2.794   0.484   2.501  1.1204 -0.0416 -2.3925
  112SOL     OW  334   2.794   2.601   1.154  0.2539 -0.3996 -0.0474
  112SOL    HW1  335   2.747   2.516   1.190  0.0960 -1.1576  1.8625
  112SOL    HW2  336   2.891   2.585   1.162 -2.0631 -0.3016  0.9239
  113SOL     OW  337   2.159   2.181   2.157 -0.4302 -0.3937 -0.3497
  113SOL    HW1  338   2.089   2.177   2.234 -3.2415  1.6428  0.5832
  113SOL    HW2  339   2.135   2.256   2.095  0.4266  1.2389  1.3178
  114SOL     OW  340   2.762   0.050   0.299  0.2711 -0.4159  0.0041
  114SOL    HW1  341   2.663   0.047   0.288 -0.0123  0.9392  0.1110
  114SOL    HW2  342   2.792   0.136   0.344 -0.2793 -0.4019  0.0163
  115SOL     OW  343   2.733   1.806   3.036 -0.2298 -0.3421 -0.4983
  115SOL    HW1  344   2.809   1.781   0.022  0.7590  1.6923  1.9189
  115SOL    HW2  345   2.778   1.832   2.949 -1.1683 -0.8605 -1.6783
  116SOL     OW  346   0.142   1.433   1.943  0.2400  0.0097 -0.5044
  116SOL    HW1  347   0.112   1.396   1.853 -0.0169  1.1107  0.5454
  116SOL    HW2  348   0.197   1.371   2.001 -0.6123  0.3714 -2.4569
  117SOL     OW  349   2.115   0.265   0.983 -0.1015 -0.5049  0.2448
  117SOL    HW1  350   2.095   0.166   0.960 -0.5598  0.3539 -0.1685
  117SOL    HW2  351   2.033   0.310   1.018  2.5312 -1.6962  1.2087
  118SOL     OW  352   2.966   2.207   1.931  0.2291  0.1350  0.4984
  118SOL    HW1  353   2.987   2.115   1.966 -2.7291 -2.2159 -0.3823
  118SOL    HW2  354   3.051   2.253   1.901 -1.7794 -0.4397 -0.9453
  119SOL     OW  355   0.832   1.725   1.165  0.6355 -0.0698  0.3057
  119SOL    HW1  356   0.847   1.809   1.221  1.8733  1.1249  1.8918
  119SOL    HW2  357   0.748   1.675   1.201 -2.0319  0.1442  0.7825
  120SOL     OW  358   0.291   1.557   1.268  0.0809  0.4965 -0.1631
  120SOL    HW1  359   0.251   1.588   1.363 -1.6308 -0.9922  3.1086
  120SOL    HW2  360   0.336   1.631   1.222  0.0530 -1.3747  1.3156
  121SOL     OW  361   1.877   1.194   1.029 -0.2937 -0.2740  0.2924
  121SOL    HW1  362   1.809   1.250   1.081  3.0291  3.7307  2.0240
  121SOL    HW2  363   1.906   1.118   1.094 -1.7188  0.3652  2.9660
  122SOL     OW  364   1.880   1.826   2.573 -0.3324  0.0137  0.1406
  122SOL    HW1  365   1.816   1.759   2.533 -1.4826  1.1126  0.2083
  122SOL    HW2  366   1.916   1.893   2.504 -0.3011  2.2709 -2.2235
  123SOL     OW  367   2.859   2.896   0.337 -0.2460 -0.3207 -0.2275
  123SOL    HW1  368   2.819   2.986   0.318  0.6199 -3.3505 -1.0476
  123SOL    HW2  369   2.918   2.894   0.426  2.8013  1.8751  0.6093
  124SOL     OW  370   1.012   1.247   0.437  0.1805  0.2771 -0.1224
  124SOL    HW1  371   0.922   1.235   0.488 -1.7728  1.6344 -3.0934
  124SOL    HW2  372   1.068   1.330   0.452  2.1181 -1.7549 -1.2710
  125SOL     OW  373   0.251   1.382   2.330  0.3669 -0.0722  0.0637
  125SOL    HW1  374   0.253   1.485   2.334 -0.4870 -0.7775  0.1744
  125SOL    HW2  375   0.274   1.345   2.240 -0.3952  0.8895 -1.0868
  126SOL     OW  376   0.098   2.626   0.017  0.5461 -0.1951  0.6110
  126SOL    HW1  377   0.036   2.702   0.040  1.0245 -2.1305 -0.7817
  126SOL    HW2  378   0.168   2.613   0.089 -1.9590 -0.8059 -0.5405
  127SOL     OW  379   2.983   1.718   0.512  0.1917  0.0698  0.1277
  127SOL    HW1  380   2.899   1.747   0.454 -3.1150 -1.6871  0.2559
  127SOL    HW2  381   2.971   1.625   0.551 -0.3663 -0.2273 -0.7989
  128SOL     OW  382   1.178   1.032   0.715 -0.8314 -0.2316 -0.0330
  128SOL    HW1  383   1.111   1.094   0.761 -1.7802 -0.8747  1.0965
  128SOL    HW2  384   1.272   1.046   0.759 -0.7524 -0.8910  0.1624
  129SOL     OW  385   2.237   2.013   1.156  0.1936 -0.8381  0.1048
  129SOL    HW1  386   2.158   1.985   1.105  0.7707  1.1969  1.3894
  129SOL    HW2  387   2.281   1.927   1.186 -0.0763 -1.8891 -0.0607
  130SOL     OW  388   2.087   1.052   0.763  0.4073  0.5563  0.1596
  130SOL    HW1  389   2.003   1.104   0.739  0.7236  2.0063  1.2886
  130SOL    HW2  390   2.135   1.104   0.838  2.7969  0.5536  1.0588
  131SOL     OW  391   2.950   1.191   2.678  0.0309 -0.1861 -0.1514
  131SOL    HW1  392   2.976   1.108   2.627  1.8835 -2.2238 -2.3603
  131SOL    HW2  393   2.854   1.228   2.682  2.9174 -0.0160  1.0398
  132SOL     OW  394   1.611   1.191   2.062 -0.0049 -0.2284  0.0448
  132SOL    HW1  395   1.621   1.174   2.160 -0.6746 -2.7587 -2.4934
  132SOL    HW2  396   1.517   1.173   2.028 -0.0282 -3.0397  0.8393
  133SOL     OW  397   2.990   0.989   0.272  0.2853  0.2015  0.3192
  133SOL    HW1  398   2.963   0.934   0.350  1.0058  1.4604 -1.6339
  133SOL    HW2  399   3.025   1.082   0.294 -0.9390 -0.3448 -2.3363
  134SOL     OW  400   2.636   0.913   0.444  1.2243 -0.7826 -0.5816
  134SOL    HW1  401   2.654   0.930   0.348  3.3861 -0.6961  1.2511
  134SOL    HW2  402   2.593   0.995   0.492 -0.4978  2.6148  0.4743
  135SOL     OW  403   1.647   0.851   2.851  0.3447  0.1166  0.4655
  135SOL    HW1  404   1.656   0.750   2.828 -0.9458 -0.3602 -1.8790
  135SOL    HW2  405   1.718   0.878   2.915 -2.1279  0.3233  1.4795
  136SOL     OW  406   1.802   1.890   1.760 -0.3968  0.8431  0.4320
  136SOL    HW1  407   1.838   1.793   1.750 -0.9065  0.9564 -2.9315
  136SOL    HW2  408   1.701   1.885   1.748 -0.2442 -0.9001 -0.7529
  137SOL     OW  409   2.417   2.680   0.462  0.1400 -0.1712 -0.1854
  137SOL    HW1  410   2.407   2.604   0.528 -1.3688  1.5172  0.4543
  137SOL    HW2  411   2.324   2.690   0.419 -1.3684 -0.0529 -0.9863
  138SOL     OW  412   2.194   0.436   1.376 -0.2930 -0.4140  0.0162
  138SOL    HW1  413   2.130   0.361   1.391 -0.1740  0.4691  0.0084
  138SOL    HW2  414   2.272   0.391   1.329 -0.9316 -2.0356 -0.4817
  139SOL     OW  415   2.638   0.247   2.347 -0.4327 -0.3512 -0.3306
  139SOL    HW1  416   2.566   0.254   2.419 -1.2978  0.4532 -2.2789
  139SOL    HW2  417   2.728   0.275   2.382 -0.1610  1.9145  0.8881
  140SOL     OW  418   1.080   1.802   2.142  0.2531  0.4856 -0.6166
  140SOL    HW1  419   1.070   1.804   2.244 -0.0138 -0.7842 -1.1136
  140SOL    HW2  420   1.171   1.767   2.119  0.0294 -2.0175  0.8706
  141SOL     OW  421   0.858   0.628   2.523  0.3141 -0.5933 -0.0048
  141SOL    HW1  422   0.892   0.718   2.553 -1.1881  1.6844 -0.6638
  141SOL    HW2  423   0.923   0.587   2.453 -0.0354  1.9873 -1.0083
  142SOL     OW  424   2.733   2.683   2.726  0.2765 -0.0725  0.3985
  142SOL    HW1  425   2.651   2.696   2.788 -0.5123 -0.5952  1.3919
  142SOL    HW2  426   2.703   2.680   2.628  0.2279 -1.3965 -2.9977
  143SOL     OW  427   1.101   2.068   0.392  0.1334 -0.4003 -0.0968
  143SOL    HW1  428   1.191   2.113   0.373  1.2412 -1.2873 -1.2283
  143SOL    HW2  429   1.067   2.099   0.480 -1.4134  1.0608 -0.7488
  144SOL     OW  430   1.491   2.549   0.003  0.4812 -0.2217 -0.0997
  144SOL    HW1  431   1.421   2.496   3.034 -1.7493  0.2520  0.5636
  144SOL    HW2  432   1.451   2.624   0.061  2.1459  0.6234 -0.2572
  145SOL     OW  433   1.480   1.962   2.629  0.2718 -0.7158  0.0929
  145SOL    HW1  434   1.553   2.003   2.687 -2.2403  0.9214 -1.0757
  145SOL    HW2  435   1.520   1.933   2.539 -2.5860 -0.6762 -0.3901
  146SOL     OW  436   2.544   0.015   2.752 -0.2491  0.1333 -0.3252
  146SOL    HW1  437   2.545   3.060   2.850 -0.2485  1.5711 -0.9168
  146SOL    HW2  438   2.635   3.074   2.702  3.1347 -0.1381 -1.3684
  147SOL     OW  439   2.787   1.197   0.916  0.7585  0.2468  0.0932
  147SOL    HW1  440   2.849   1.258   0.869 -0.6908  0.0311 -0.8996
  147SOL    HW2  441   2.692   1.236   0.940 -1.1630 -1.4130  0.3524
  148SOL     OW  442   2.252   2.756   0.098  0.5026 -0.1561 -0.3472
  148SOL    HW1  443   2.202   2.735   0.183 -1.5720  0.6952 -0.3929
  148SOL    HW2  444   2.187   2.759   0.018  3.5647  1.3129 -0.9475
  149SOL     OW  445   0.576   1.737   2.782  0.1935  0.2438  0.1032
  149SOL    HW1  446   0.490   1.723   2.735 -1.5772 -0.1569 -2.3987
  149SOL    HW2  447   0.633   1.652   2.787 -1.3033  1.3704  2.2734
  150SOL     OW  448   0.293   2.526   0.525 -0.0361 -0.7217 -0.5193
  150SOL    HW1  449   0.374   2.585   0.544 -2.3691 -0.2023  2.8956
  150SOL    HW2  450   0.314   2.429   0.548 -0.2851  0.4502  0.7780
  151SOL     OW  451   0.307   1.131   0.246  0.4076  0.4524 -0.4506
  151SOL    HW1  452   0.277   1.052   0.305 -2.8399 -0.0775  1.6740
  151SOL    HW2  453   0.295   1.119   0.143 -1.3507  0.8576  0.8959
  152SOL     OW  454   2.742   2.211   0.527  0.3445 -0.5772  0.4101
  152SOL    HW1  455   2.821   2.189   0.473 -2.8639 -1.3536  0.5362
  152SOL    HW2  456   2.676   2.133   0.514 -0.7010  0.8297 -0.5749
  153SOL     OW  457   1.818   2.349   0.772 -0.2424 -0.2679 -0.0190
  153SOL    HW1  458   1.758   2.414   0.820 -2.9729  1.8092 -2.0460
  153SOL    HW2  459   1.777   2.315   0.685  1.8191  2.0672 -0.2525
  154SOL     OW  460   0.874   2.614   1.303  0.5688  0.8436 -0.2360
  154SOL    HW1  461   0.888   2.654   1.211 -0.6837  0.0695 -2.2684
  154SOL    HW2  462   0.895   2.515   1.304  1.0946  1.2788 -1.0716
  155SOL     OW  463   2.715   1.861   0.640  1.2277  0.1791  0.5015
  155SOL    HW1  464   2.633   1.916   0.612  1.9918  0.8214  0.4422
  155SOL    HW2  465   2.787   1.866   0.568 -0.0709  0.2607  0.2738
  156SOL     OW  466   2.592   2.308   2.941 -0.5580 -0.4277 -0.1372
  156SOL    HW1  467   2.542   2.314   2.855  3.1401 -2.2752  0.9136
  156SOL    HW2  468   2.552   2.239   3.001  1.9864 -1.9148 -0.3575
  157SOL     OW  469   0.616   1.996   1.466  0.3216  0.2678  0.0498
  157SOL    HW1  470   0.682   2.003   1.388 -0.5779  0.3173  0.8946
  157SOL    HW2  471   0.525   2.036   1.445  1.4380  0.7508 -0.3117
  158SOL     OW  472   1.431   0.276   0.225 -0.9514  0.0811  0.6299
  158SOL    HW1  473   1.508   0.241   0.164 -0.8368  2.3041 -2.1225
  158SOL    HW2  474   1.364   0.206   0.253 -1.4123  2.2856  1.6530
  159SOL     OW  475   1.305   0.715   0.310  0.1253 -0.1183 -0.3164
  159SOL    HW1  476   1.225   0.687   0.371 -0.3602 -3.4636 -1.0147
  159SOL    HW2  477   1.325   0.647   0.241 -1.9048  2.3221  0.8487
  160SOL     OW  478   0.706   1.278   0.821 -0.7391  0.3766  0.5101
  160SOL    HW1  479   0.791   1.253   0.872  2.2307 -1.4335 -2.0928
  160SOL    HW2  480   0.646   1.349   0.869 -1.6923 -0.0726 -1.4584
  161SOL     OW  481   0.050   2.556   2.670  0.5904  0.2586  0.6347
  161SOL    HW1  482   0.017   2.469   2.703  1.5696  0.5075 -2.0507
  161SOL    HW2  483   0.149   2.562   2.690 -2.0639 -0.1000 -1.3020
  162SOL     OW  484   0.241   2.273   1.294  0.2559 -0.1444 -0.5450
  162SOL    HW1  485   0.269   2.363   1.337  0.6557 -0.4831 -2.3136
  162SOL    HW2  486   0.140   2.283   1.278 -2.8060  1.3425  2.7390
  163SOL     OW  487   0.138   0.636   2.882  0.6627 -0.1641  0.0903
  163SOL    HW1  488   0.156   0.715   2.815 -2.3491  2.3363 -1.5163
  163SOL    HW2  489   0.045   0.634   2.925 -2.8160  0.9118  1.5061
  164SOL     OW  490   0.362   0.004   2.432  0.2155  0.1831 -0.5333
  164SOL    HW1  491   0.452   3.035   2.431 -1.3551  2.5193 -1.8568
  164SOL    HW2  492   0.292   3.031   2.486  0.9189  2.1872 -0.7966
  165SOL     OW  493   2.444   1.060   1.651 -0.7003 -0.1629 -0.4083
  165SOL    HW1  494   2.404   1.000   1.582 -2.9408  1.9617 -2.6584
  165SOL    HW2  495   2.393   1.051   1.735  1.0337  2.6471 -2.4475
  166SOL     OW  496   1.914   1.956   1.531  0.0489 -0.1177 -0.0713
  166SOL    HW1  497   1.998   2.015   1.542  2.5573  2.7184  0.2158
  166SOL    HW2  498   1.875   1.947   1.621  1.5197 -0.7482 -0.0126
  167SOL     OW  499   0.706   0.895   2.394  0.5019  0.2457 -0.4191
  167SOL    HW1  500   0.767   0.882   2.315 -0.4302 -0.8668  2.0379
  167SOL    HW2  501   0.764   0.913   2.477 -1.6864  0.2588 -0.2320
  168SOL     OW  502   2.217   0.035   2.026 -0.0722 -0.0565  0.0080
  168SOL    HW1  503   2.261   0.111   2.079 -0.5753 -1.8593  1.0175
  168SOL    HW2  504   2.152   3.063   2.085  1.5356  0.4526 -2.5570
  169SOL     OW  505   0.264   0.891   0.351  0.1466 -0.0607 -0.6518
  169SOL    HW1  506   0.350   0.838   0.377  0.7840 -0.4617  3.1873
  169SOL    HW2  507   0.218   0.836   0.276  1.6337 -1.2345  0.6843
  170SOL     OW  508   0.456   1.400   1.661 -0.0220  0.3142 -0.2099
  170SOL    HW1  509   0.449   1.311   1.711 -0.3432  1.3659  0.7150
  170SOL    HW2  510   0.518   1.399   1.580  0.8031  3.9693 -3.0192
  171SOL     OW  511   1.184   2.143   1.729 -0.1788 -0.5515  0.0935
  171SOL    HW1  512   1.097   2.096   1.759 -1.8656 -2.9999  0.5783
  171SOL    HW2  513   1.166   2.226   1.677 -1.7225 -2.8224  1.5819
  172SOL     OW  514   1.278   2.633   1.909  0.0786  0.3597  0.1416
  172SOL    HW1  515   1.231   2.710   1.956  0.3677 -1.0809 -2.8319
  172SOL    HW2  516   1.306   2.569   1.984  0.1233  1.2906  0.1161
  173SOL     OW  517   1.313   2.522   0.646 -0.6535  0.0152  0.1118
  173SOL    HW1  518   1.276   2.428   0.659 -1.0013  1.9968 -0.5135
  173SOL    HW2  519   1.324   2.565   0.737 -0.1224  0.6485  1.2099
  174SOL     OW  520   2.459   3.069   0.373 -0.2744  0.2219  0.5924
  174SOL    HW1  521   2.496   3.044   0.468  0.7678  1.7821  0.1210
  174SOL    HW2  522   2.446   0.094   0.378 -0.6831  2.8434  1.4926
  175SOL     OW  523   0.817   1.539   0.414 -0.0690 -0.2673  0.0172
  175SOL    HW1  524   0.790   1.637   0.408  2.1874 -2.2023  3.1162
  175SOL    HW2  525   0.766   1.495   0.490  1.2776 -0.6108 -0.0568
  176SOL     OW  526   0.701   1.777   0.488 -0.2335 -0.1331 -0.0764
  176SOL    HW1  527   0.689   1.867   0.441 -0.9025  0.6707  1.9352
  176SOL    HW2  528   0.616   1.721   0.498  1.3723 -0.5886  2.4117
  177SOL     OW  529   1.187   1.030   1.528 -0.0529  0.1821 -0.7437
  177SOL    HW1  530   1.159   1.093   1.604 -0.4187 -1.5275 -0.4565
  177SOL    HW2  531   1.277   0.994   1.546 -2.0028  1.5958  0.7931
  178SOL     OW  532   2.426   1.850   0.372  0.0010  0.7635  0.1452
  178SOL    HW1  533   2.351   1.911   0.344  2.4489 -0.3674  0.3728
  178SOL    HW2  534   2.410   1.759   0.321  0.0033  0.0773 -0.3865
  179SOL     OW  535   1.324   2.381   2.951  0.2217  0.4936 -0.2126
  179SOL    HW1  536   1.300   2.379   2.854  0.5908 -0.9345 -1.2228
  179SOL    HW2  537   1.289   2.295   2.992  1.1292 -0.4261  1.3781
  180SOL     OW  538   2.026   1.422   2.180  0.2991 -0.5860 -0.1179
  180SOL    HW1  539   2.045   1.522   2.177 -0.3657 -0.5328  0.8196
  180SOL    HW2  540   2.107   1.367   2.148  0.4031 -1.8879 -0.9393
  181SOL     OW  541   0.975   0.884   2.588  0.2251 -0.1571 -0.0862
  181SOL    HW1  542   1.003   0.888   2.684 -2.0993 -1.3881 -1.1632
  181SOL    HW2  543   1.054   0.874   2.529 -4.4470 -4.4244  1.0445
  182SOL     OW  544   2.859   1.390   2.341 -0.1650 -0.0992 -0.0254
  182SOL    HW1  545   2.804   1.378   2.429 -2.8913 -2.3889  0.4739
  182SOL    HW2  546   2.953   1.435   2.366  4.2629  1.0781  0.5447
  183SOL     OW  547   1.331   0.427   2.308 -0.2173 -0.2447  0.2385
  183SOL    HW1  548   1.280   0.370   2.372  0.1468  1.8101 -0.7588
  183SOL    HW2  549   1.290   0.442   2.215  0.5081 -2.0454  1.8710
  184SOL     OW  550   0.581   0.457   1.751  0.1930  0.2105  0.1788
  184SOL    HW1  551   0.664   0.514   1.728 -2.2979  0.7258  0.7510
  184SOL    HW2  552   0.520   0.454   1.671  2.2843  1.7676  2.4775
  185SOL     OW  553   2.078   1.860   0.628  0.0693  0.3044 -0.1172
  185SOL    HW1  554   2.158   1.913   0.655 -0.3490 -1.9693 -1.0015
  185SOL    HW2  555   2.078   1.774   0.690  0.3236  0.6185  1.1073
  186SOL     OW  556   0.305   1.952   0.288 -0.6652 -0.3524 -0.3981
  186SOL    HW1  557   0.399   1.921   0.252  1.0074 -0.8090 -2.1349
  186SOL    HW2  558   0.250   1.871   0.318 -3.6162 -0.7717 -0.4598
  187SOL     OW  559   2.007   2.070   0.350 -0.1972 -0.5254  0.1972
  187SOL    HW1  560   1.949   2.120   0.414  4.9292 -1.6700 -0.0483
  187SOL    HW2  561   2.002   1.971   0.367  0.1031  1.6141 -0.9315
  188SOL     OW  562   0.983   2.406   1.108 -0.0373 -0.4004  0.0540
  188SOL    HW1  563   1.036   2.361   1.186 -1.3057  0.8931  1.1841
  188SOL    HW2  564   0.884   2.395   1.118  2.8887  2.4864  0.5284
  189SOL     OW  565   2.138   1.284   2.852  0.2736  0.2782 -0.0793
  189SOL    HW1  566   2.138   1.310   2.750  4.9380 -0.7890 -0.4648
  189SOL    HW2  567   2.156   1.358   2.918  0.3360 -0.0357 -0.5277
  190SOL     OW  568   0.912   2.258   2.002  0.3127 -0.4645 -0.2587
  190SOL    HW1  569   0.920   2.154   2.007  2.0325  0.3036 -0.2572
  190SOL    HW2  570   0.872   2.297   2.083  0.7281 -1.1558 -1.2772
  191SOL     OW  571   2.546   0.911   1.393 -0.2450  0.1389 -0.5933
  191SOL    HW1  572   2.612   0.948   1.326  1.0615  0.1236 -0.3803
  191SOL    HW2  573   2.541   0.804   1.383  1.4523 -3.1379  0.5139
  192SOL     OW  574   2.396   0.714   1.732  0.0743 -0.0837 -0.3260
  192SOL    HW1  575   2.374   0.645   1.803  0.1060  1.8472  0.9989
  192SOL    HW2  576   2.427   0.796   1.782  0.2492  1.6307  1.7754
  193SOL     OW  577   0.634   0.119   0.191 -0.0010  0.0125  0.1279
  193SOL    HW1  578   0.656   0.214   0.237  1.1177  1.9489  0.4411
  193SOL    HW2  579   0.535   0.108   0.180  3.9551 -2.9580 -0.7269
  194SOL     OW  580   1.153   2.389   1.572 -0.4631 -0.3622  0.0651
  194SOL    HW1  581   1.241   2.400   1.521  1.9170 -0.8915 -1.7741
  194SOL    HW2  582   1.136   2.478   1.625  0.4311  1.0670 -0.1950
  195SOL     OW  583   2.485   1.109   0.576 -0.2068  0.8722 -0.2355
  195SOL    HW1  584   2.497   1.202   0.620 -0.1540  0.8180 -0.1103
  195SOL    HW2  585   2.430   1.125   0.493 -0.5223 -0.9359 -0.3504
  196SOL     OW  586   0.914   2.149   1.671  0.9149  0.0345 -0.0952
  196SOL    HW1  587   0.918   2.251   1.664  0.3376 -0.9435 -1.3942
  196SOL    HW2  588   0.825   2.112   1.702  4.8703 -0.0178 -0.2333
  197SOL     OW  589   0.322   0.746   2.477  0.0711  0.5613  0.3535
  197SOL    HW1  590   0.307   0.832   2.423 -1.2780  0.1360  0.8698
  197SOL    HW2  591   0.286   0.665   2.429 -2.1427 -1.3286  1.5849
  198SOL     OW  592   1.548   0.824   0.290 -0.4193 -0.1058  0.2860
  198SOL    HW1  593   1.472   0.755   0.317 -2.0238 -0.5805  0.0064
  198SOL    HW2  594   1.505   0.910   0.259 -0.5052 -1.9702  1.2976
  199SOL     OW  595   2.572   0.596   2.115 -0.0441 -0.1164  0.1561
  199SOL    HW1  596   2.592   0.632   2.209 -3.6421  2.7221 -1.4126
  199SOL    HW2  597   2.520   0.670   2.059  0.2161  2.3332 -2.3171
  200SOL     OW  598   2.443   2.813   2.609  0.1922 -0.3613 -0.1734
  200SOL    HW1  599   2.481   2.807   2.703 -1.1926 -0.5946 -2.3312
  200SOL    HW2  600   2.508   2.771   2.543 -0.1229 -0.4129 -0.0642
  201SOL     OW  601   2.364   0.301   1.234 -0.4509  0.2726  0.2388
  201SOL    HW1  602   2.354   0.208   1.276  0.9719  0.4119 -1.2535
  201SOL    HW2  603   2.391   0.297   1.135  1.2993  0.2598 -2.9144
  202SOL     OW  604   0.083   2.853   0.238 -0.2301  0.2117  0.2909
  202SOL    HW1  605   3.061   2.870   0.255 -0.6638 -0.4255  1.7177
  202SOL    HW2  606   0.139   2.938   0.258  1.8924 -0.2223  2.7679
  203SOL     OW  607   1.090   2.229   2.752 -0.1877 -0.4680  0.0248
  203SOL    HW1  608   1.012   2.191   2.811 -3.3461  0.1883  2.9768
  203SOL    HW2  609   1.142   2.153   2.707  4.0605  0.3946 -1.9153
  204SOL     OW  610   0.689   1.812   2.422 -0.2074  0.0885 -0.3867
  204SOL    HW1  611   0.731   1.849   2.339 -0.2169  0.1473 -0.6020
  204SOL    HW2  612   0.740   1.843   2.505  1.2021 -0.4013  1.4973
  205SOL     OW  613   1.029   1.038   1.133 -0.2463 -0.4699  0.2580
  205SOL    HW1  614   0.978   0.958   1.175  0.9269 -2.5999  0.8023
  205SOL    HW2  615   1.123   1.007   1.102  1.3340 -0.2762  0.4842
  206SOL     OW  616   0.161   0.820   2.691  0.6608 -0.3205 -0.0008
  206SOL    HW1  617   0.101   0.897   2.663  1.2822 -0.2043  0.1673
  206SOL    HW2  618   0.204   0.776   2.615 -1.9695  2.5630 -0.3937
  207SOL     OW  619   1.696   2.322   1.831  0.2069 -0.0613  0.0789
  207SOL    HW1  620   1.744   2.414   1.848  1.1825  0.4433 -0.2555
  207SOL    HW2  621   1.594   2.327   1.831 -0.0691 -2.1261 -2.2164
  208SOL     OW  622   0.546   2.825   1.154  0.1190 -0.2919 -0.5001
  208SOL    HW1  623   0.558   2.786   1.248 -0.6611 -1.6954 -1.0750
  208SOL    HW2  624   0.455   2.876   1.144  0.0448  0.3505  0.2779
  209SOL     OW  625   1.497   1.277   0.181 -0.7315 -0.4620 -0.1869
  209SOL    HW1  626   1.434   1.340   0.238 -0.8768 -0.9619  1.2534
  209SOL    HW2  627   1.597   1.285   0.207  1.1190  1.3356  0.1993
  210SOL     OW  628   2.378   0.652   0.649 -0.4463 -0.3565  0.4792
  210SOL    HW1  629   2.282   0.677   0.678 -1.5061  2.7624  0.6972
  210SOL    HW2  630   2.397   0.558   0.673  1.4482  0.7625 -4.2446
  211SOL     OW  631   1.611   2.732   0.359 -0.3746 -0.4711  0.1730
  211SOL    HW1  632   1.559   2.707   0.273 -1.6918  0.9227 -2.2314
  211SOL    HW2  633   1.686   2.798   0.330  3.2088  2.9982 -1.4765
  212SOL     OW  634   2.086   2.339   0.702 -0.2631  0.0721 -0.0147
  212SOL    HW1  635   2.135   2.384   0.778 -0.4907  0.6409 -1.3442
  212SOL    HW2  636   1.986   2.353   0.718 -3.4435  0.4865  0.5757
  213SOL     OW  637   1.871   0.593   2.684  0.2357  0.0239 -0.3722
  213SOL    HW1  638   1.953   0.638   2.726  0.5136  2.1157 -2.3699
  213SOL    HW2  639   1.872   0.587   2.582  0.6625  1.7721 -2.6345
  214SOL     OW  640   1.034   1.412   1.844  0.6135 -0.3837 -0.1998
  214SOL    HW1  641   1.068   1.357   1.922  0.1307  2.8157  0.3668
  214SOL    HW2  642   1.004   1.495   1.889 -1.6217 -3.1405 -3.0550
  215SOL     OW  643   0.070   1.391   0.809 -0.2685 -0.1034 -0.0693
  215SOL    HW1  644   0.117   1.447   0.875 -2.3254 -1.2109 -3.7400
  215SOL    HW2  645   0.004   1.451   0.758  0.2887 -1.4272 -0.3725
  216SOL     OW  646   0.437   2.466   2.506  0.6610  0.3580 -0.7478
  216SOL    HW1  647   0.465   2.374   2.475 -2.4316 -2.0030  1.2421
  216SOL    HW2  648   0.514   2.531   2.501  1.2422 -2.0597  0.9913
  217SOL     OW  649   2.673   1.001   1.167 -0.2227 -0.3438 -0.1787
  217SOL    HW1  650   2.587   0.979   1.117  0.0615  0.5750 -2.0645
  217SOL    HW2  651   2.692   1.102   1.170 -1.2993  1.6270  1.7032
  218SOL     OW  652   0.915   1.995   1.987  0.3398  0.0405  0.0966
  218SOL    HW1  653   0.855   1.963   1.914  3.7390 -2.2461  0.1096
  218SOL    HW2  654   0.980   1.919   2.016  1.1490 -2.9243  0.6199
  219SOL     OW  655   2.082   1.501   0.309 -0.6055 -0.3621 -0.3262
  219SOL    HW1  656   2.051   1.481   0.215  0.4201 -1.3807  1.6486
  219SOL    HW2  657   2.040   1.428   0.378 -0.7438 -2.2646 -0.0315
  220SOL     OW  658   2.115   1.069   0.367 -0.7142 -0.0552  0.0079
  220SOL    HW1  659   2.214   1.092   0.373 -0.8155  1.5797 -0.7031
  220SOL    HW2  660   2.088   0.976   0.398 -2.4459 -0.0843  0.0265
  221SOL     OW  661   2.905   0.511   0.293  0.1366 -0.4505  0.0909
  221SOL    HW1  662   2.989   0.502   0.236 -0.6376  0.6751 -0.0583
  221SOL    HW2  663   2.826   0.545   0.241  0.9949  2.1172  2.3038
  222SOL     OW  664   1.450   1.185   0.516  0.0321 -0.4067  0.5953
  222SOL    HW1  665   1.380   1.136   0.463 -0.4139 -0.4100 -1.9774
  222SOL    HW2  666   1.411   1.259   0.575 -0.4392 -2.0291  0.3081
  223SOL     OW  667   0.894   0.114   2.966 -0.7869  0.3895  0.4049
  223SOL    HW1  668   0.845   0.029   2.971  1.0617  1.5792  0.3939
  223SOL    HW2  669   0.908   0.139   2.867  1.3501  1.7310  1.1711
  224SOL     OW  670   1.339   0.198   1.142  0.2866 -0.6176  0.1343
  224SOL    HW1  671   1.292   0.252   1.220 -1.4165  0.5480  1.5786
  224SOL    HW2  672   1.365   0.105   1.168  1.0897  0.7469  0.6351
  225SOL     OW  673   0.127   2.334   1.851  0.0721  0.4841  0.1925
  225SOL    HW1  674   0.170   2.259   1.798 -1.3954  0.3989 -3.8996
  225SOL    HW2  675   0.149   2.427   1.815  1.0878  2.1580 -1.0974
  226SOL     OW  676   1.079   1.542   0.354 -0.2926 -0.6914 -0.1895
  226SOL    HW1  677   0.976   1.533   0.378 -2.1972 -2.6485  0.8351
  226SOL    HW2  678   1.110   1.641   0.337  1.9979  1.9135 -0.4624
  227SOL     OW  679   0.618   1.626   0.914 -0.5078 -0.4194 -0.0385
  227SOL    HW1  680   0.576   1.714   0.933  3.9121 -1.9897  1.6032
  227SOL    HW2  681   0.566   1.555   0.966 -2.6755 -0.6670  0.1165
  228SOL     OW  682   0.056   1.858   0.716 -0.2949  0.4861 -0.2431
  228SOL    HW1  683   0.143   1.815   0.694 -3.5111 -0.7015  0.1682
  228SOL    HW2  684   3.063   1.814   0.658 -1.7471  0.4266 -0.4366
  229SOL     OW  685   2.482   0.219   2.559 -0.2508  0.1393  0.0184
  229SOL    HW1  686   2.396   0.260   2.599  1.0669  1.3056  3.2252
  229SOL    HW2  687   2.526   0.154   2.622 -0.7004  1.5016  1.7452
  230SOL     OW  688   1.829   1.150   0.745 -0.4161 -0.6954 -0.0484
  230SOL    HW1  689   1.826   1.146   0.847  0.9565 -1.7386  0.0807
  230SOL    HW2  690   1.762   1.221   0.707  0.7530  1.8262 -2.2139
  231SOL     OW  691   1.246   1.392   2.615  0.2943  0.0558 -0.2257
  231SOL    HW1  692   1.287   1.478   2.573  2.0218  1.5575 -0.5972
  231SOL    HW2  693   1.295   1.311   2.577  0.9715 -0.5230 -0.4482
  232SOL     OW  694   2.415   2.482   0.675 -0.4317 -0.3074 -0.0207
  232SOL    HW1  695   2.507   2.457   0.709 -3.3158 -0.7156  2.5671
  232SOL    HW2  696   2.343   2.483   0.750  0.1003  0.7260 -2.7606
  233SOL     OW  697   0.657   2.492   0.821 -0.2999 -0.3748 -0.6071
  233SOL    HW1  698   0.718   2.561   0.780 -0.7941  2.7677 -1.1657
  233SOL    HW2  699   0.672   2.397   0.780  0.6213 -1.9718  0.1826
  234SOL     OW  700   0.553   0.495   2.784  0.2592 -0.0941 -0.1431
  234SOL    HW1  701   0.537   0.575   2.723  0.3275 -1.3151  0.0786
  234SOL    HW2  702   0.542   0.523   2.882 -0.6655  1.8463  1.0504
  235SOL     OW  703   2.630   0.713   2.350  0.1876 -0.2366 -0.2009
  235SOL    HW1  704   2.659   0.653   2.432  4.5757  1.5754 -1.4217
  235SOL    HW2  705   2.704   0.779   2.322  1.5068  1.0089  3.4499
  236SOL     OW  706   1.579   2.799   1.440 -0.2133  0.0285 -0.3402
  236SOL    HW1  707   1.568   2.767   1.346  0.7732  1.1587  0.5282
  236SOL    HW2  708   1.586   2.730   1.515 -2.5230  0.8158  1.5521
  237SOL     OW  709   0.964   1.506   2.388  0.4283 -0.0903  0.5015
  237SOL    HW1  710   0.869   1.531   2.356 -2.0203  3.0766 -0.2243
  237SOL    HW2  711   0.961   1.455   2.477 -0.2022 -0.2738 -1.4798
  238SOL     OW  712   1.020   0.303   2.270  0.4102 -0.0183  0.1920
  238SOL    HW1  713   1.044   0.387   2.329  0.0211  4.1491  0.0655
  238SOL    HW2  714   0.936   0.261   2.314  2.8940  1.1869  1.6536
  239SOL     OW  715   0.355   2.143   2.107 -0.6362  0.4399  0.0689
  239SOL    HW1  716   0.453   2.157   2.080 -0.7360  0.4633  1.3194
  239SOL    HW2  717   0.304   2.231   2.108  0.8941 -0.1479 -0.3887
  240SOL     OW  718   2.660   2.788   0.684 -0.3586 -0.3621 -0.1453
  240SOL    HW1  719   2.653   2.700   0.632  0.6347 -1.4078  0.5590
  240SOL    HW2  720   2.683   2.775   0.780 -2.0324  0.7394 -0.7238
  241SOL     OW  721   2.560   1.328   0.713 -0.5031  0.4820 -0.0068
  241SOL    HW1  722   2.508   1.412   0.687 -2.3331  0.8758 -1.1926
  241SOL    HW2  723   2.524   1.288   0.797  1.1577  0.0132 -1.8100
  242SOL     OW  724   2.012   2.384   1.992 -0.2603  0.4474 -0.1834
  242SOL    HW1  725   2.075   2.378   1.909  1.8507  0.3878  2.0948
  242SOL    HW2  726   1.940   2.458   1.979 -3.1084  1.2816  0.3304
  243SOL     OW  727   0.629   2.644   1.797  0.7038 -0.1237  0.1096
  243SOL    HW1  728   0.555   2.597   1.848 -1.1863  1.5449 -0.7946
  243SOL    HW2  729   0.698   2.570   1.770  2.3376  1.2262 -1.6117
  244SOL     OW  730   2.164   0.743   2.561 -0.1185  0.4015 -0.0523
  244SOL    HW1  731   2.103   0.694   2.492  1.0963 -0.6995  1.4175
  244SOL    HW2  732   2.263   0.742   2.532 -1.0584  0.2095  0.8727
  245SOL     OW  733   1.435   0.362   0.936 -0.9162  0.1649 -0.1585
  245SOL    HW1  734   1.377   0.361   0.855 -1.8932  2.9065  0.8111
  245SOL    HW2  735   1.398   0.300   1.010 -1.1527  0.1580  3.0893
  246SOL     OW  736   1.909   2.623   0.030  0.2039  0.1596 -0.3120
  246SOL    HW1  737   1.998   2.651   3.071  0.2292 -2.2391 -0.4615
  246SOL    HW2  738   1.845   2.609   3.031  1.2083  2.2468  1.2196
  247SOL     OW  739   1.178   0.806   2.421  0.0055 -0.5616  0.8030
  247SOL    HW1  740   1.259   0.786   2.480  0.2513 -1.6132  0.7167
  247SOL    HW2  741   1.199   0.883   2.359  1.4315  0.1143  0.3966
  248SOL     OW  742   0.211   2.094   1.699  0.0578 -0.2163  0.2830
  248SOL    HW1  743   0.254   2.095   1.603  1.3038 -0.3578 -0.3801
  248SOL    HW2  744   0.266   2.038   1.766  1.0425  0.6394  0.3423
  249SOL     OW  745   2.524   0.425   0.044 -0.7717 -0.4487  0.2068
  249SOL    HW1  746   2.593   0.368   3.069  1.0537  1.1261  0.4607
  249SOL    HW2  747   2.435   0.417   3.076 -0.7454  0.9203  1.6781
  250SOL     OW  748   2.813   3.046   2.672  0.4505 -0.2228 -0.2777
  250SOL    HW1  749   2.910   3.040   2.703  0.9580 -1.3909  3.7651
  250SOL    HW2  750   2.812   3.033   2.571  2.5181  1.0075 -1.8160
  251SOL     OW  751   1.372   0.795   2.869 -0.3462 -0.3206  0.6207
  251SOL    HW1  752   1.318   0.795   2.954 -0.1222  0.7784  1.3612
  251SOL    HW2  753   1.469   0.767   2.880 -1.1792 -2.8483  1.4293
  252SOL     OW  754   1.343   2.034   1.904  0.9231  0.2264  0.1612
  252SOL    HW1  755   1.283   2.075   1.837 -0.0821  0.9017 -0.7896
  252SOL    HW2  756   1.324   2.068   1.996  1.6696 -2.5710 -2.8438
  253SOL     OW  757   2.234   2.477   1.172  0.6979 -0.4413 -0.0685
  253SOL    HW1  758   2.305   2.540   1.211 -0.1077 -1.1396 -1.5572
  253SOL    HW2  759   2.223   2.390   1.222 -1.7158  0.9333 -2.4408
  254SOL     OW  760   2.146   1.409   0.683 -0.3292  0.0236  0.0553
  254SOL    HW1  761   2.086   1.370   0.612  0.9134  0.8109  2.2522
  254SOL    HW2  762   2.137   1.355   0.774  0.8925  0.3726  1.6819
  255SOL     OW  763   1.392   3.006   1.214  0.0419  0.0183 -0.5859
  255SOL    HW1  764   1.325   2.971   1.148  0.6670 -0.5671  0.2171
  255SOL    HW2  765   1.377   2.976   1.312  0.4480  4.1246  2.0389
  256SOL     OW  766   1.846   2.311   1.319  0.0783  0.0021  0.2358
  256SOL    HW1  767   1.929   2.283   1.262  1.4534 -3.2918 -0.3159
  256SOL    HW2  768   1.789   2.229   1.331  4.2206  1.5677  0.6850
  257SOL     OW  769   0.717   2.597   2.525  0.2259  0.6789  0.0390
  257SOL    HW1  770   0.796   2.618   2.462 -0.7381  1.3798 -1.1318
  257SOL    HW2  771   0.719   2.655   2.606 -2.9152 -1.4736  0.0261
  258SOL     OW  772   0.764   2.666   0.512  0.0701 -0.1959  0.0585
  258SOL    HW1  773   0.830   2.719   0.464 -0.3781  0.3198  0.5696
  258SOL    HW2  774   0.798   2.659   0.606 -2.1133  0.1075  2.3607
  259SOL     OW  775   1.531   0.189   2.682  0.0176 -0.0080 -0.0619
  259SOL    HW1  776   1.539   0.176   2.782  0.2641 -0.5289  2.5140
  259SOL    HW2  777   1.541   0.287   2.651 -0.0088  1.2731  1.4996
  260SOL     OW  778   2.523   0.650   1.361  0.2710 -0.0580 -0.0815
  260SOL    HW1  779   2.510   0.596   1.275  0.5735  0.8237  0.0716
  260SOL    HW2  780   2.473   0.605   1.436  0.3806  3.5218 -0.3309
  261SOL     OW  781   0.802   0.420   2.669  0.5410 -0.0979  0.2565
  261SOL    HW1  782   0.719   0.436   2.723 -0.2984  4.1364 -2.0589
  261SOL    HW2  783   0.812   0.501   2.601  2.6375  0.4561 -1.3223
  262SOL     OW  784   1.472   2.303   2.232 -0.5987  0.7198  0.1948
  262SOL    HW1  785   1.409   2.341   2.162 -0.4517 -0.0522 -1.3573
  262SOL    HW2  786   1.567   2.325   2.206  0.5336 -0.9033  3.5711
  263SOL     OW  787   0.425   1.948   2.861  0.4488 -0.1009  0.3204
  263SOL    HW1  788   0.461   2.037   2.893  0.4465 -1.1980  0.6977
  263SOL    HW2  789   0.501   1.889   2.825  0.8878 -0.3760 -1.4003
  264SOL     OW  790   1.049   1.540   0.728 -0.4263 -0.7400  0.4412
  264SOL    HW1  791   0.969   1.601   0.714 -4.1933  0.6496  2.6259
  264SOL    HW2  792   1.139   1.592   0.729  0.5162 -0.7834  1.6088
  265SOL     OW  793   1.220   2.648   0.412  0.7391 -0.0803  0.3173
  265SOL    HW1  794   1.146   2.575   0.397 -1.5005 -0.3333  0.4504
  265SOL    HW2  795   1.277   2.620   0.495 -0.3638 -0.5969  1.2379
  266SOL     OW  796   1.870   0.668   0.839 -0.2431 -0.0193  0.1916
  266SOL    HW1  797   1.875   0.670   0.938 -1.5378  0.6264 -0.8692
  266SOL    HW2  798   1.840   0.753   0.784  0.7894 -1.2297  0.1566
  267SOL     OW  799   0.046   1.327   2.834 -0.2466 -0.2479  0.0050
  267SOL    HW1  800   0.127   1.269   2.866 -2.3150 -0.6570 -1.3152
  267SOL    HW2  801   3.051   1.270   2.792  1.5524  0.5291 -2.0553
  268SOL     OW  802   1.591   3.020   0.233 -0.1020 -0.2653 -0.5606
  268SOL    HW1  803   1.679   3.066   0.271 -0.4294  1.6036  1.5120
  268SOL    HW2  804   1.512   3.043   0.296 -0.3963 -1.0429  2.9197
  269SOL     OW  805   2.790   0.801   2.675 -0.6352  0.1311  0.0856
  269SOL    HW1  806   2.777   0.716   2.627 -0.5433  2.1649  0.0205
  269SOL    HW2  807   2.841   0.868   2.616  2.2075 -1.1362 -0.5580
  270SOL     OW  808   0.018   1.543   0.199  0.2669  0.2818  0.0631
  270SOL    HW1  809   3.044   1.467   0.238 -2.2415  3.5469 -1.8800
  270SOL    HW2  810   0.093   1.507   0.137  0.2553 -0.1876 -0.5859
  271SOL     OW  811   2.715   1.350   2.570 -0.5919  0.0443  0.5335
  271SOL    HW1  812   2.638   1.394   2.626 -0.3312  4.5613  2.0425
  271SOL    HW2  813   2.684   1.265   2.521 -1.1268  1.0532 -3.4497
  272SOL     OW  814   2.804   2.480   2.375  0.0820 -0.1188  0.2587
  272SOL    HW1  815   2.894   2.529   2.394  0.5579  0.1466 -1.0737
  272SOL    HW2  816   2.826   2.415   2.296 -0.8855  0.4910  1.6185
  273SOL     OW  817   0.136   2.734   0.713  0.3486 -0.4706  0.6241
  273SOL    HW1  818   0.189   2.818   0.740 -0.8358  1.4918  2.3452
  273SOL    HW2  819   0.191   2.677   0.648  0.3937 -2.3142 -0.2683
  274SOL     OW  820   1.023   2.329   0.843  0.4239 -0.0136 -0.5959
  274SOL    HW1  821   1.114   2.328   0.806 -2.2895 -2.0682 -0.7810
  274SOL    HW2  822   1.023   2.340   0.949  0.2927 -1.6484  3.5286
  275SOL     OW  823   2.347   1.597   0.296 -0.3520  0.9040  0.1795
  275SOL    HW1  824   2.249   1.565   0.293  1.3441 -2.2334  1.0303
  275SOL    HW2  825   2.394   1.545   0.222 -2.0264  0.9683 -0.9650
  276SOL     OW  826   2.551   1.664   1.209 -0.6750 -0.1496  0.0794
  276SOL    HW1  827   2.559   1.571   1.253 -1.5724 -0.1213  0.2501
  276SOL    HW2  828   2.641   1.696   1.172 -0.4876  0.5271 -0.6217
  277SOL     OW  829   2.377   0.005   0.835  0.6379 -0.4165  0.1664
  277SOL    HW1  830   2.323   3.020   0.891  0.0848  3.4622 -0.1443
  277SOL    HW2  831   2.419   0.076   0.897  0.2644  1.9958  2.3646
  278SOL     OW  832   1.555   0.253   2.357  0.3494  0.8070 -0.4179
  278SOL    HW1  833   1.490   0.329   2.350  0.0625 -0.5899 -0.5123
  278SOL    HW2  834   1.527   0.189   2.431  1.2451 -0.1432  0.5799
  279SOL     OW  835   1.292   2.637   1.278 -0.3119 -0.2223 -0.3112
  279SOL    HW1  836   1.379   2.672   1.238 -0.1066  0.4698  0.1522
  279SOL    HW2  837   1.226   2.623   1.204 -1.3359  4.6891  1.4269
  280SOL     OW  838   0.888   0.958   0.630  0.6845  0.4998 -0.0102
  280SOL    HW1  839   0.836   1.041   0.612 -1.0128 -1.5652 -1.0966
  280SOL    HW2  840   0.986   0.981   0.644  0.5145  1.2517  0.6322
  281SOL     OW  841   2.512   1.430   2.729 -0.2210  0.1463  0.1780
  281SOL    HW1  842   2.514   1.531   2.716  1.3501 -1.3216  2.2412
  281SOL    HW2  843   2.446   1.399   2.665  0.2403  1.3597  0.5292
  282SOL     OW  844   2.903   1.321   0.166 -0.6581  0.1196 -0.6650
  282SOL    HW1  845   2.808   1.300   0.192 -0.8362  4.5539  0.1084
  282SOL    HW2  846   2.978   1.269   0.213  0.0014  0.6567  1.0020
  283SOL     OW  847   1.815   2.617   2.542 -0.1441  0.0571  0.0045
  283SOL    HW1  848   1.789   2.567   2.459  1.1037  3.9104  0.0625
  283SOL    HW2  849   1.820   2.551   2.620  0.5664 -1.6131 -0.1698
  284SOL     OW  850   0.760   3.002   3.074  0.0088  0.0381 -0.3916
  284SOL    HW1  851   0.741   3.067   0.074 -1.3922  1.4232  0.7563
  284SOL    HW2  852   0.672   2.970   3.035 -1.5349 -1.6802  0.8628
  285SOL     OW  853   2.180   1.598   2.494 -0.1674 -0.2959  0.1014
  285SOL    HW1  854   2.173   1.645   2.581 -0.1828 -2.1623 -3.7782
  285SOL    HW2  855   2.149   1.661   2.419 -1.7255 -0.4391 -0.4695
  286SOL     OW  856   1.265   2.103   0.854  0.0359  0.5903 -0.2840
  286SOL    HW1  857   1.211   2.095   0.939  0.5362  1.7020  0.3587
  286SOL    HW2  858   1.351   2.051   0.871 -1.9344 -1.5066 -0.7664
  287SOL     OW  859   1.691   0.220   1.194  0.1876 -0.3223 -0.7099
  287SOL    HW1  860   1.713   0.173   1.284  0.5200 -1.5060  1.9296
  287SOL    HW2  861   1.763   0.286   1.163 -1.0817 -1.3560  0.2046
  288SOL     OW  862   0.925   2.654   2.368  0.6164  0.1689 -0.5684
  288SOL    HW1  863   1.000   2.667   2.437 -1.1519  2.2881 -0.0876
  288SOL    HW2  864   0.957   2.650   2.273 -0.8232 -0.0582 -0.7209
  289SOL     OW  865   0.077   1.183   0.581 -0.4276 -0.8161  0.6206
  289SOL    HW1  866   0.083   1.268   0.636  0.1765  1.2360 -2.0747
  289SOL    HW2  867   0.002   1.122   0.607 -1.8954  1.7005  1.1881
  290SOL     OW  868   1.199   2.215   1.177 -0.0634  0.1577  0.6278
  290SOL    HW1  869   1.300   2.237   1.180  3.3248  1.9910 -1.5515
  290SOL    HW2  870   1.181   2.119   1.150  0.0457  1.3117 -0.5535
  291SOL     OW  871   1.870   2.760   0.698 -0.2099 -0.0935  0.3817
  291SOL    HW1  872   1.865   2.855   0.672 -1.3897 -2.3505 -0.0210
  291SOL    HW2  873   1.848   2.700   0.617  0.0491 -1.5661  0.8230
  292SOL     OW  874   0.410   0.193   2.076 -0.4357 -0.1681 -0.1759
  292SOL    HW1  875   0.361   0.239   2.153  0.4110  0.2184 -0.5460
  292SOL    HW2  876   0.385   0.094   2.073  1.4750  1.3334 -0.4021
  293SOL     OW  877   2.271   1.973   0.781  0.0016 -0.2888  0.1573
  293SOL    HW1  878   2.341   1.904   0.783  1.4025 -1.5716 -0.2311
  293SOL    HW2  879   2.312   2.065   0.778 -0.4441  0.5797  1.7763
  294SOL     OW  880   0.977   3.056   2.134  0.1614  0.1647  0.1205
  294SOL    HW1  881   1.011   0.034   2.060  2.2457 -0.4754  2.0676
  294SOL    HW2  882   1.055   3.027   2.197  0.0826  2.6233  0.6390
  295SOL     OW  883   1.219   1.224   1.196  0.1002 -0.2039  0.6193
  295SOL    HW1  884   1.314   1.190   1.180  2.9211 -0.5655 -1.1189
  295SOL    HW2  885   1.157   1.148   1.174 -0.3415  1.4368  0.1597
  296SOL     OW  886   2.055   1.954   0.971  0.0322  0.5954 -0.0420
  296SOL    HW1  887   2.099   1.904   0.891  1.6749 -1.1408  0.9338
  296SOL    HW2  888   2.024   2.050   0.946 -0.8130  1.2344 -0.4537
  297SOL     OW  889   2.278   0.013   2.825 -0.3802 -0.0543  0.3638
  297SOL    HW1  890   2.364   0.022   2.775  0.1144 -1.0065 -0.7511
  297SOL    HW2  891   2.274   0.068   2.912 -0.9083 -1.5012 -1.8009
  298SOL     OW  892   1.172   0.202   2.525  0.0155 -0.1323 -0.2064
  298SOL    HW1  893   1.088   0.175   2.469  0.0784  0.3554  0.9740
  298SOL    HW2  894   1.193   0.135   2.601  2.8897 -1.2758 -2.2900
  299SOL     OW  895   1.128   2.816   2.016  0.7375  0.4282  0.2345
  299SOL    HW1  896   1.113   2.893   1.958 -0.0638 -0.8194  0.2765
  299SOL    HW2  897   1.135   2.846   2.112 -2.4084 -0.0939 -2.3592
  300SOL     OW  898   2.459   0.290   1.733 -0.0800 -0.3331  0.3124
  300SOL    HW1  899   2.477   0.315   1.831  2.2936  0.8564  1.8027
  300SOL    HW2  900   2.452   0.369   1.678  1.3849  1.6397  4.5028
  301SOL     OW  901   2.073   0.392   1.722 -0.3994 -0.0494 -0.2475
  301SOL    HW1  902   2.159   0.393   1.780  3.6285  0.1397  3.0739
  301SOL    HW2  903   2.043   0.294   1.699 -1.7101 -2.9603  0.7203
  302SOL     OW  904   0.406   2.603   2.939  0.0369 -0.1826 -0.1437
  302SOL    HW1  905   0.390   2.578   2.842 -0.4753  0.3416  1.4917
  302SOL    HW2  906   0.342   2.546   2.995  0.5173  1.5519 -1.6123
  303SOL     OW  907   1.691   2.057   1.372  0.0569 -0.0976  0.1415
  303SOL    HW1  908   1.607   2.001   1.369  2.0814  0.5167 -0.1340
  303SOL    HW2  909   1.760   2.008   1.430  1.4145 -1.6797  2.0839
  304SOL     OW  910   0.071   0.636   1.021  0.1584  0.2302  0.4882
  304SOL    HW1  911   0.129   0.693   1.083 -1.0472  0.3664 -3.6691
  304SOL    HW2  912   0.048   0.697   0.940 -1.5358  2.2856  2.1924
  305SOL     OW  913   0.722   0.846   0.819 -0.2183  0.0065  0.3477
  305SOL    HW1  914   0.686   0.901   0.899  0.2872  2.1729  1.6347
  305SOL    HW2  915   0.776   0.902   0.750 -0.6401 -0.0527 -0.9796
  306SOL     OW  916   0.475   0.931   2.949 -0.0653 -0.3247 -0.0727
  306SOL    HW1  917   0.520   0.890   2.867  0.8251 -0.8387  1.7417
  306SOL    HW2  918   0.440   0.855   3.007  1.2393 -0.8620 -1.9641
  307SOL     OW  919   1.235   0.297   1.395  0.2449  0.0889  0.1618
  307SOL    HW1  920   1.141   0.308   1.431 -0.6671  0.3856  0.8034
  307SOL    HW2  921   1.293   0.278   1.476 -0.2901 -0.4854 -1.9589
  308SOL     OW  922   0.424   0.698   1.020  0.2984  0.1708  0.0720
  308SOL    HW1  923   0.399   0.739   0.929 -2.7990  0.9773  1.1241
  308SOL    HW2  924   0.370   0.733   1.096  3.6356 -2.3188 -1.4257
  309SOL     OW  925   2.483   0.895   0.759 -0.4237 -0.2675 -0.1862
  309SOL    HW1  926   2.431   0.815   0.720 -0.6082 -1.2904 -1.2103
  309SOL    HW2  927   2.479   0.976   0.694  1.3392  0.6131  1.9161
  310SOL     OW  928   1.055   1.304   2.951  0.0997 -0.1890  0.2381
  310SOL    HW1  929   1.121   1.227   2.926 -1.9059 -4.8186 -1.7662
  310SOL    HW2  930   0.959   1.270   2.948 -0.3104 -0.8167  0.9824
  311SOL     OW  931   2.428   2.702   2.239  0.1048  0.5166  0.4682
  311SOL    HW1  932   2.438   2.793   2.196  0.9321  0.5447  0.2865
  311SOL    HW2  933   2.333   2.684   2.280 -0.5143 -0.6879  0.9090
  312SOL     OW  934   1.959   2.130   0.015  0.3731  0.2921 -0.1561
  312SOL    HW1  935   2.031   2.126   3.024  1.3131  0.4769 -1.4451
  312SOL    HW2  936   1.951   2.224   0.053 -0.4098 -0.3399 -1.2564
  313SOL     OW  937   0.376   0.104   0.090  0.3183 -0.4435  0.0019
  313SOL    HW1  938   0.378   0.204   0.111  1.7007  0.4294  0.0853
  313SOL    HW2  939   0.385   0.099   3.070  1.6619  1.0545  0.4126
  314SOL     OW  940   2.604   1.293   2.930  0.6240 -0.4053  0.1362
  314SOL    HW1  941   2.676   1.345   2.979 -1.0883 -1.0083 -2.9838
  314SOL    HW2  942   2.555   1.347   2.857 -0.7921  4.1558  1.8549
  315SOL     OW  943   1.727   0.509   2.177  0.0585  0.4656  0.1627
  315SOL    HW1  944   1.683   0.531   2.265  0.5432 -1.6319  0.0754
  315SOL    HW2  945   1.705   0.578   2.111 -0.1783 -1.0664  0.9692
  316SOL     OW  946   2.921   1.058   0.630 -0.0712 -0.8091  0.3982
  316SOL    HW1  947   2.927   1.030   0.729  0.6282  1.6529 -1.8215
  316SOL    HW2  948   2.903   0.977   0.571 -0.9814  0.5352 -1.2750
  317SOL     OW  949   1.085   2.713   0.070  0.4313  0.0912  0.0058
  317SOL    HW1  950   0.989   2.749   0.092 -1.1265  2.3359  0.5681
  317SOL    HW2  951   1.089   2.613   0.049 -2.4454  2.7182  0.0683
  318SOL     OW  952   2.083   2.849   1.284 -0.6530  0.3502 -0.0850
  318SOL    HW1  953   2.053   2.776   1.223 -1.7669  2.0452  0.8641
  318SOL    HW2  954   2.122   2.809   1.367 -1.4314 -0.2112 -4.0164
  319SOL     OW  955   0.983   1.539   2.878  0.0088  0.3800 -0.5308
  319SOL    HW1  956   0.966   1.610   2.958  0.3157  1.9462  0.0239
  319SOL    HW2  957   1.023   1.451   2.917  0.4064 -2.9073  0.6310
  320SOL     OW  958   0.452   1.870   0.883  0.5717 -0.7952  0.6830
  320SOL    HW1  959   0.419   1.802   0.814  3.1438 -1.3233  0.1104
  320SOL    HW2  960   0.529   1.920   0.857 -1.9422 -1.9297  4.1111
  321SOL     OW  961   1.840   2.587   1.900 -0.4087 -0.3269 -0.0231
  321SOL    HW1  962   1.914   2.620   1.840 -1.8670  1.5406  2.2863
  321SOL    HW2  963   1.787   2.670   1.925 -0.0995 -2.8203 -2.7377
  322SOL     OW  964   2.331   1.935   2.401 -0.0289  0.5504 -0.3435
  322SOL    HW1  965   2.348   2.037   2.396 -0.1227  4.0880 -1.4894
  322SOL    HW2  966   2.415   1.873   2.404  1.9418 -1.3037 -0.2773
  323SOL     OW  967   2.264   0.183   0.647 -0.5979  0.7376  0.4430
  323SOL    HW1  968   2.279   0.117   0.723  0.4291 -1.9389  0.0502
  323SOL    HW2  969   2.321   0.159   0.567 -2.2834  0.9106 -2.0567
  324SOL     OW  970   2.952   2.801   2.261 -0.0100  0.2688  0.1256
  324SOL    HW1  971   3.042   2.849   2.236  1.8469 -0.8670  0.9780
  324SOL    HW2  972   2.980   2.718   2.318  1.8365 -3.4756  4.1860
  325SOL     OW  973   1.029   0.563   2.766  0.2416 -0.4049 -0.1511
  325SOL    HW1  974   1.108   0.524   2.712  2.6908 -0.5930 -0.1732
  325SOL    HW2  975   0.938   0.525   2.740 -0.1412  1.2989 -2.3011
  326SOL     OW  976   2.441   2.364   1.475  0.2869 -0.0455 -0.1004
  326SOL    HW1  977   2.344   2.362   1.458  2.7205 -1.2356 -0.4591
  326SOL    HW2  978   2.475   2.287   1.530  0.6977  1.4966  0.5426
  327SOL     OW  979   2.409   2.975   0.121 -0.2675 -0.0020 -0.2184
  327SOL    HW1  980   2.427   2.994   0.223  1.6896 -1.7513  1.9228
  327SOL    HW2  981   2.361   2.889   0.109  0.7408  1.6446  0.4125
  328SOL     OW  982   0.402   0.692   1.584  0.1800  0.4184 -0.6020
  328SOL    HW1  983   0.416   0.590   1.568  0.4032  1.8331  1.9339
  328SOL    HW2  984   0.309   0.715   1.619  0.0028  0.1611 -1.9248
  329SOL     OW  985   1.986   0.790   1.392  0.3351  0.1693  0.2962
  329SOL    HW1  986   1.995   0.761   1.488  3.6495  0.2765 -0.7981
  329SOL    HW2  987   2.053   0.729   1.343 -0.2488  0.2364 -0.9736
  330SOL     OW  988   0.556   0.438   1.005  0.1878  0.3145  0.1753
  330SOL    HW1  989   0.474   0.376   0.978 -2.3104  0.7304  0.5538
  330SOL    HW2  990   0.531   0.536   1.017  2.8259  1.9846  2.1441
  331SOL     OW  991   0.755   1.388   1.808  0.0874 -0.0614 -0.1698
  331SOL    HW1  992   0.855   1.384   1.785 -1.6734 -0.5929 -2.3366
  331SOL    HW2  993   0.706   1.406   1.719  0.8063  0.4200  1.1657
  332SOL     OW  994   2.945   2.481   1.617 -0.1670 -0.5631  0.0438
  332SOL    HW1  995   2.958   2.551   1.689 -0.3228  0.3893 -3.2158
  332SOL    HW2  996   2.894   2.399   1.648  1.5642  0.4716  0.1753
  333SOL     OW  997   2.973   2.913   1.181 -0.2953  0.0865  0.0976
  333SOL    HW1  998   2.992   2.914   1.079  2.1553  0.0917  2.0757
  333SOL    HW2  999   2.966   2.821   1.213  2.5669  2.4749 -3.2184
  334SOL     OW 1000   0.037   1.232   0.318  0.0068  0.1399 -0.0574
  334SOL    HW1 1001   0.043   1.213   0.418  0.5821 -0.8145 -0.8029
  334SOL    HW2 1002   0.129   1.203   0.273  0.9667  1.5047 -0.7368
  335SOL     OW 1003   0.706   2.616   2.965  0.1624  0.3466 -0.4300
  335SOL    HW1 1004   0.606   2.620   2.968  4.2141  1.5931  1.5280
  335SOL    HW2 1005   0.743   2.555   3.039  0.2781 -1.8711  0.7622
  336SOL     OW 1006   2.865   2.811   2.010  0.1379  0.2322  0.1048
  336SOL    HW1 1007   2.880   2.800   2.109  0.6662  0.9163  0.7976
  336SOL    HW2 1008   2.809   2.737   1.972  0.7002  1.3974 -3.1308
  337SOL     OW 1009   1.496   1.930   1.697  0.0419  0.2301  0.3256
  337SOL    HW1 1010   1.429   1.933   1.620 -0.2183  0.2670 -1.0857
  337SOL    HW2 1011   1.444   1.948   1.786 -0.0057 -2.1886 -1.8706
  338SOL     OW 1012   0.815   0.150   2.705 -0.9799  0.0321  0.3054
  338SOL    HW1 1013   0.814   0.253   2.695  1.0104 -1.1015 -0.1119
  338SOL    HW2 1014   0.874   0.102   2.635 -0.0279 -0.5411 -0.7274
  339SOL     OW 1015   0.526   1.068   2.260 -0.1074 -0.1107 -0.1627
  339SOL    HW1 1016   0.538   1.045   2.164 -0.4025  0.2844 -1.7569
  339SOL    HW2 1017   0.583   1.014   2.325 -3.1362  0.8973 -2.4448
  340SOL     OW 1018   2.157   0.525   0.836 -1.0042 -0.4732 -0.1138
  340SOL    HW1 1019   2.151   0.452   0.906  3.7451  0.7069  0.4973
  340SOL    HW2 1020   2.095   0.515   0.757 -0.8238  0.5542  0.6508
  341SOL     OW 1021   2.113   1.303   0.940 -0.1437 -0.4991 -0.4165
  341SOL    HW1 1022   2.015   1.275   0.965 -1.4982  0.0872  1.0103
  341SOL    HW2 1023   2.179   1.301   1.014  1.1361 -2.6130 -3.0840
  342SOL     OW 1024   2.076   2.543   2.729 -0.2565  0.2065 -0.3096
  342SOL    HW1 1025   2.141   2.490   2.783  1.8576  1.8850 -1.0660
  342SOL    HW2 1026   1.977   2.509   2.737 -0.2596  0.3182 -2.4397
  343SOL     OW 1027   0.704   2.409   1.509 -0.2325 -0.5840  0.1256
  343SOL    HW1 1028   0.659   2.495   1.478  1.9348  2.1772 -2.6941
  343SOL    HW2 1029   0.641   2.353   1.565  3.9777 -0.0506 -0.2949
  344SOL     OW 1030   2.381   2.786   1.448  0.1120 -0.4010 -0.4311
  344SOL    HW1 1031   2.332   2.758   1.531  0.0471 -1.8304  1.1921
  344SOL    HW2 1032   2.444   2.874   1.470  4.8971  3.3219  1.8710
  345SOL     OW 1033   2.246   2.232   3.009  0.3333  0.1554  0.1212
  345SOL    HW1 1034   2.293   2.176   3.079 -1.6802  3.0475 -0.4654
  345SOL    HW2 1035   2.193   2.166   2.943  0.0028 -2.7212 -0.3586
  346SOL     OW 1036   1.510   2.230   1.514  0.6152 -0.2670 -0.1553
  346SOL    HW1 1037   1.564   2.249   1.435 -1.9104  0.5129  3.4583
  346SOL    HW2 1038   1.547   2.156   1.576 -0.7003 -1.4061  2.8935
  347SOL     OW 1039   1.002   1.739   1.611  0.0735 -0.2232 -0.5635
  347SOL    HW1 1040   0.976   1.821   1.553 -0.1670  2.6002 -2.0077
  347SOL    HW2 1041   1.016   1.647   1.556  0.4672 -3.1447 -2.3071
  348SOL     OW 1042   0.271   1.962   1.910 -0.1691 -0.1473  0.1623
  348SOL    HW1 1043   0.260   1.862   1.910 -0.0689 -1.2063  0.4676
  348SOL    HW2 1044   0.330   1.987   1.989 -0.1215 -0.3548  0.8788
  349SOL     OW 1045   1.732   1.630   1.474  0.5565  0.0917  0.0939
  349SOL    HW1 1046   1.737   1.533   1.444 -0.6790 -0.7653  0.0163
  349SOL    HW2 1047   1.824   1.676   1.484 -0.1320  0.9179 -0.8417
  350SOL     OW 1048   2.317   2.203   0.550 -0.1869 -0.2587  0.0938
  350SOL    HW1 1049   2.234   2.216   0.604  0.2594  2.0248 -0.0388
  350SOL    HW2 1050   2.376   2.291   0.547 -0.0773  4.7058 -0.5502
  351SOL     OW 1051   0.705   2.919   1.543  0.5833  0.3528 -0.4596
  351SOL    HW1 1052   0.757   2.892   1.628  0.3252  0.7084  0.6161
  351SOL    HW2 1053   0.768   2.953   1.469 -0.4530 -0.1993  0.7379
  352SOL     OW 1054   0.303   1.075   0.826  0.0412  0.1428  0.0887
  352SOL    HW1 1055   0.382   1.006   0.840  1.5747 -1.0719  0.6474
  352SOL    HW2 1056   0.278   1.115   0.914 -0.8854  1.4241 -1.1133
  353SOL     OW 1057   1.120   1.717   2.423 -0.2196 -0.4534 -0.5018
  353SOL    HW1 1058   1.063   1.632   2.424  0.7564 -0.4692 -1.1806
  353SOL    HW2 1059   1.212   1.697   2.465  1.0565  0.6092 -0.4229
  354SOL     OW 1060   1.759   2.851   1.940 -0.3315  0.2867  0.2337
  354SOL    HW1 1061   1.731   2.913   2.014 -2.0641 -1.9380  1.2486
  354SOL    HW2 1062   1.673   2.834   1.884 -2.7127  1.2212  1.1795
  355SOL     OW 1063   1.988   1.383   0.069  0.1604  0.1398 -0.0600
  355SOL    HW1 1064   2.066   1.438   0.034 -1.7295 -1.4873 -0.9002
  355SOL    HW2 1065   1.915   1.366   3.076  0.5420 -0.9777 -0.5901
  356SOL     OW 1066   2.939   1.630   1.353 -0.4184 -0.2785  0.3723
  356SOL    HW1 1067   3.008   1.703   1.377  0.6027  0.3046  1.0425
  356SOL    HW2 1068   2.981   1.546   1.310 -2.2889  0.4953  0.6487
  357SOL     OW 1069   0.281   2.543   1.406  0.5257  0.2719 -0.2408
  357SOL    HW1 1070   0.270   2.634   1.366 -0.8717  2.4085 -2.5509
  357SOL    HW2 1071   0.265   2.543   1.509  0.0215  0.1615  0.7082
  358SOL     OW 1072   2.542   1.682   1.610  0.2540  0.0221  0.4062
  358SOL    HW1 1073   2.530   1.702   1.705  1.2333  0.0996 -1.2936
  358SOL    HW2 1074   2.623   1.620   1.597 -0.9304  0.8375 -0.1445
  359SOL     OW 1075   2.188   2.773   2.635  0.5460  0.0625  1.0756
  359SOL    HW1 1076   2.291   2.783   2.625  1.8692 -0.6556  0.4781
  359SOL    HW2 1077   2.156   2.693   2.691  0.2638 -2.0630  0.5000
  360SOL     OW 1078   1.236   2.908   0.987 -0.8059 -0.0856  0.1971
  360SOL    HW1 1079   1.315   2.888   0.929  0.2039  0.9844 -1.0783
  360SOL    HW2 1080   1.179   2.827   0.985  2.2828 -2.7186 -1.0298
  361SOL     OW 1081   2.148   0.408   0.274  0.4269  0.8002  0.3174
  361SOL    HW1 1082   2.094   0.382   0.357 -0.4264  1.6831  1.7494
  361SOL    HW2 1083   2.165   0.509   0.279  1.4881 -1.2688 -1.5363
  362SOL     OW 1084   1.419   1.100   0.865 -0.0600  0.1573  0.2406
  362SOL    HW1 1085   1.473   1.023   0.831 -1.0489  0.4397 -0.8483
  362SOL    HW2 1086   1.459   1.190   0.833  3.1607 -0.0064 -1.3818
  363SOL     OW 1087   2.237   1.105   2.395  0.4736 -0.3323 -0.3614
  363SOL    HW1 1088   2.247   1.055   2.483 -1.0624 -0.4979 -0.7094
  363SOL    HW2 1089   2.177   1.052   2.331  0.8550  0.0079 -1.9044
  364SOL     OW 1090   0.227   0.201   1.135 -0.1178  0.5535 -0.2255
  364SOL    HW1 1091   0.189   0.282   1.182 -0.9933 -2.6262 -1.5936
  364SOL    HW2 1092   0.179   0.121   1.175 -2.1026  2.5375  2.2365
  365SOL     OW 1093   0.566   0.071   2.674  0.9674 -0.3693  0.3966
  365SOL    HW1 1094   0.572   3.066   2.621  1.5712  2.9148  2.4119
  365SOL    HW2 1095   0.663   0.098   2.690 -0.2155 -0.7218 -0.1125
  366SOL     OW 1096   2.066   2.177   2.572  0.3592  0.3822  0.3664
  366SOL    HW1 1097   2.085   2.182   2.671 -0.8643 -0.5237 -0.2403
  366SOL    HW2 1098   2.081   2.270   2.529 -1.8059  2.0285  2.3983
  367SOL     OW 1099   2.878   2.419   0.164  0.4072 -0.3276  0.1221
  367SOL    HW1 1100   2.813   2.474   0.108 -1.5331  0.0171 -1.7067
  367SOL    HW2 1101   2.898   2.469   0.253  1.5714 -2.1830 -1.2997
  368SOL     OW 1102   2.787   1.319   1.191 -0.2606 -0.1792 -0.1594
  368SOL    HW1 1103   2.714   1.351   1.250  1.1280 -1.8536 -2.0298
  368SOL    HW2 1104   2.800   1.385   1.113 -0.7617  0.8696 -1.1794
  369SOL     OW 1105   0.964   0.008   2.540 -0.1047 -0.8436 -0.4403
  369SOL    HW1 1106   0.924   3.024   2.475  0.4574  0.0503  0.5247
  369SOL    HW2 1107   1.046   3.047   2.587 -0.3842  0.0562  2.1586
  370SOL     OW 1108   2.689   0.307   0.689  0.1291 -0.1400  0.0312
  370SOL    HW1 1109   2.729   0.392   0.729  0.2781 -0.8647  0.4826
  370SOL    HW2 1110   2.724   0.281   0.599 -1.1310 -1.2915 -1.4602
  371SOL     OW 1111   1.545   2.315   1.200 -0.0430 -0.1861  0.6660
  371SOL    HW1 1112   1.550   2.273   1.106 -0.0729 -1.4489  0.3323
  371SOL    HW2 1113   1.580   2.407   1.187 -0.9538 -1.3861  1.1925
  372SOL     OW 1114   2.947   0.951   2.525 -0.4813 -0.0788  0.6496
  372SOL    HW1 1115   2.921   0.889   2.448 -0.6445 -0.3060 -0.2601
  372SOL    HW2 1116   3.039   0.985   2.506 -1.8214  0.9358 -0.2712
  373SOL     OW 1117   2.690   1.749   0.889  0.7479 -0.2281 -0.2702
  373SOL    HW1 1118   2.705   1.796   0.803 -0.6692 -2.3060  0.5329
  373SOL    HW2 1119   2.701   1.816   0.969  0.1131  0.8753 -1.6985
  374SOL     OW 1120   0.611   2.923   2.544 -0.4479  0.1155 -0.1229
  374SOL    HW1 1121   0.629   2.861   2.619  0.0858  0.7194 -0.0839
  374SOL    HW2 1122   0.683   2.915   2.471  0.2110 -1.2247  0.7196
  375SOL     OW 1123   0.162   0.079   2.848 -0.0351 -0.3033  0.9353
  375SOL    HW1 1124   0.244   0.033   2.881 -2.6139  1.7055 -2.5835
  375SOL    HW2 1125   0.162   0.177   2.882 -1.4123  2.7628  0.9304
  376SOL     OW 1126   3.055   1.996   1.597 -0.1012 -0.3382 -0.0379
  376SOL    HW1 1127   0.058   2.019   1.650 -1.8344  2.0900  1.7229
  376SOL    HW2 1128   2.976   1.964   1.657  0.7754 -0.9609  0.0435
  377SOL     OW 1129   1.704   2.139   2.347  0.1985 -0.0742 -0.0041
  377SOL    HW1 1130   1.664   2.052   2.348  2.4815  0.9886  3.4605
  377SOL    HW2 1131   1.685   2.186   2.260  0.6396 -1.0754  0.6407
  378SOL     OW 1132   0.415   0.293   2.692  0.3148  0.4200 -0.3029
  378SOL    HW1 1133   0.469   0.379   2.714 -0.1850  0.7285  0.6950
  378SOL    HW2 1134   0.468   0.206   2.689  0.5567  2.4267  3.4654
  379SOL     OW 1135   0.476   0.727   0.409 -0.2667  0.2319  0.5156
  379SOL    HW1 1136   0.504   0.691   0.502 -1.3311  0.4156  1.6017
  379SOL    HW2 1137   0.550   0.734   0.338 -0.1671  3.3732 -0.5956
  380SOL     OW 1138   0.355   1.650   1.679  0.1657  0.6827  0.5605
  380SOL    HW1 1139   0.395   1.557   1.684 -0.4855  3.5934  1.3107
  380SOL    HW2 1140   0.325   1.677   1.772  1.3966 -1.8958  1.2544
  381SOL     OW 1141   0.386   1.035   1.971 -0.3611 -0.3215 -0.2585
  381SOL    HW1 1142   0.294   0.997   2.000  0.4194 -1.6042  0.5882
  381SOL    HW2 1143   0.387   1.063   1.873 -1.2354 -1.6650  0.4988
  382SOL     OW 1144   2.281   2.077   0.319  0.5740  0.1606  0.7467
  382SOL    HW1 1145   2.182   2.085   0.301 -2.3311 -1.3572 -1.3453
  382SOL    HW2 1146   2.307   2.135   0.398  2.3809  0.3461 -0.1012
  383SOL     OW 1147   0.176   1.988   2.782  0.6094 -0.2738 -0.1275
  383SOL    HW1 1148   0.129   1.902   2.817 -1.1500 -0.9425  2.6855
  383SOL    HW2 1149   0.275   1.971   2.792 -0.9332  2.2244  1.4758
  384SOL     OW 1150   0.869   2.095   2.894 -0.2029 -0.7438 -0.0611
  384SOL    HW1 1151   0.890   2.008   2.935 -1.2366  2.3120 -0.8543
  384SOL    HW2 1152   0.818   2.143   2.963  1.3258 -0.3724 -1.7492
  385SOL     OW 1153   2.516   2.015   0.546 -0.1922 -0.1313  0.5417
  385SOL    HW1 1154   2.452   2.088   0.563  0.3404 -1.7636 -1.3274
  385SOL    HW2 1155   2.478   1.943   0.487 -1.1185  0.8356  0.7143
  386SOL     OW 1156   2.245   1.361   1.524 -0.4088  0.2095 -0.3163
  386SOL    HW1 1157   2.336   1.364   1.571 -0.0717  2.3642 -0.1918
  386SOL    HW2 1158   2.169   1.393   1.580  1.4518 -0.5623  0.2750
  387SOL     OW 1159   2.651   1.397   2.158  0.2526  0.6688  0.0715
  387SOL    HW1 1160   2.741   1.405   2.206 -1.8095 -1.4793 -2.6968
  387SOL    HW2 1161   2.568   1.414   2.211  0.4954 -0.0365 -0.9454
  388SOL     OW 1162   0.253   1.693   1.923 -0.7210  0.2628 -0.1294
  388SOL    HW1 1163   0.327   1.675   1.992  0.3902  0.1226 -1.5389
  388SOL    HW2 1164   0.192   1.612   1.918 -1.4717 -1.1179  1.2573
  389SOL     OW 1165   1.891   0.985   1.770  0.2377  0.0079  0.2878
  389SOL    HW1 1166   1.895   0.995   1.671  0.1947  2.4832  2.5923
  389SOL    HW2 1167   1.843   1.059   1.812 -0.1644  1.4620 -0.5945
  390SOL     OW 1168   2.005   0.032   0.502  0.1057 -0.2020 -0.0813
  390SOL    HW1 1169   1.959   0.001   0.589 -1.3200  1.0655 -0.0618
  390SOL    HW2 1170   2.010   0.137   0.504  1.0084  4.8226 -0.6614
  391SOL     OW 1171   1.928   1.592   1.144  0.2587  0.2778 -0.0162
  391SOL    HW1 1172   2.013   1.575   1.099 -1.8467 -1.8474 -2.5864
  391SOL    HW2 1173   1.945   1.639   1.235  0.7824 -1.7282  0.8503
  392SOL     OW 1174   2.646   2.667   0.318  0.2271 -0.1979  0.2194
  392SOL    HW1 1175   2.556   2.685   0.372 -2.3626 -0.2228  1.1892
  392SOL    HW2 1176   2.721   2.730   0.340  2.0034 -1.4985 -0.6488
  393SOL     OW 1177   1.896   1.891   2.837 -0.1730  0.3024  0.5774
  393SOL    HW1 1178   1.901   1.817   2.902 -0.7986  0.7024  1.5679
  393SOL    HW2 1179   1.907   1.851   2.745 -2.4593  1.6596 -0.2816
  394SOL     OW 1180   0.187   2.863   2.597  0.2685  0.8513 -0.2416
  394SOL    HW1 1181   0.087   2.894   2.614  0.3823  0.4730  2.6829
  394SOL    HW2 1182   0.238   2.848   2.686  1.6220  0.1298  0.9811
  395SOL     OW 1183   0.466   0.291   0.501 -0.2109  0.3791 -0.1858
  395SOL    HW1 1184   0.389   0.344   0.453 -0.8518 -0.0301  0.1669
  395SOL    HW2 1185   0.481   0.325   0.596  2.5356  0.9063  1.1839
  396SOL     OW 1186   1.765   0.982   0.417 -0.4284 -0.3238  0.3266
  396SOL    HW1 1187   1.680   0.936   0.386 -0.5716 -1.6858  0.8219
  396SOL    HW2 1188   1.849   0.933   0.392 -0.8246 -0.8808  1.3131
  397SOL     OW 1189   0.585   0.664   2.255  0.5061  0.1667 -0.0083
  397SOL    HW1 1190   0.478   0.664   2.260 -0.2150  0.3528 -0.4734
  397SOL    HW2 1191   0.628   0.753   2.283  0.9811  0.9030  1.1903
  398SOL     OW 1192   0.870   0.113   0.557 -0.6185 -0.0361 -0.8179
  398SOL    HW1 1193   0.906   0.193   0.610  0.5347 -1.0705 -0.3709
  398SOL    HW2 1194   0.879   0.124   0.456  0.6605 -1.2700 -0.8093
  399SOL     OW 1195   2.041   2.767   1.572 -0.7783  0.0977  0.2387
  399SOL    HW1 1196   1.992   2.822   1.644  0.6282 -1.4278  1.6682
  399SOL    HW2 1197   2.068   2.669   1.597  1.7503 -1.9674  1.2279
  400SOL     OW 1198   0.946   1.601   2.051 -0.6383 -0.4009  0.1330
  400SOL    HW1 1199   1.022   1.658   2.094  1.6542 -1.2377  1.8846
  400SOL    HW2 1200   0.865   1.606   2.111  2.0036  1.5820 -1.7630
  401SOL     OW 1201   0.771   1.091   2.682 -0.3814 -0.0669  0.0726
  401SOL    HW1 1202   0.757   1.147   2.765 -2.8417 -1.7834 -1.2662
  401SOL    HW2 1203   0.770   0.995   2.717 -0.3701  1.2596  1.5306
  402SOL     OW 1204   2.880   2.122   0.853  0.2923  0.0365 -0.4525
  402SOL    HW1 1205   2.982   2.130   0.835  1.9540  2.0394 -0.9465
  402SOL    HW2 1206   2.832   2.083   0.775  2.9684  1.9983 -0.5496
  403SOL     OW 1207   0.277   0.960   2.332 -0.2547  0.7363 -0.1357
  403SOL    HW1 1208   0.240   0.952   2.234 -1.2010 -1.7830 -1.5490
  403SOL    HW2 1209   0.374   0.996   2.320  1.6918  0.5113 -1.2759
  404SOL     OW 1210   0.244   2.384   2.090  0.7785  0.1743  0.6855
  404SOL    HW1 1211   0.182   2.367   2.012  0.7960  0.0568 -1.5846
  404SOL    HW2 1212   0.320   2.454   2.064  0.1181  1.3062 -0.1596
  405SOL     OW 1213   0.108   0.422   1.910 -0.3910 -0.0458 -0.2580
  405SOL    HW1 1214   0.197   0.456   1.954  2.8686 -0.8985  1.0497
  405SOL    HW2 1215   0.061   0.349   1.968 -2.2989  0.7299  1.5194
  406SOL     OW 1216   1.356   1.618   2.518 -0.2007  0.0756 -0.1222
  406SOL    HW1 1217   1.394   1.613   2.423 -0.0357  0.9975 -2.7509
  406SOL    HW2 1218   1.428   1.636   2.589 -3.6342 -2.3574  1.2830
  407SOL     OW 1219   1.360   1.248   2.396  0.1198  0.1250  0.1847
  407SOL    HW1 1220   1.303   1.325   2.357 -0.4769 -0.7854 -0.5397
  407SOL    HW2 1221   1.430   1.218   2.331  0.0867  0.7882 -0.0045
  408SOL     OW 1222   0.833   2.914   2.363 -0.3959 -0.5043  0.2128
  408SOL    HW1 1223   0.874   2.958   2.279  1.8284 -0.6977 -0.7177
  408SOL    HW2 1224   0.854   2.814   2.365 -0.3033  0.1512  3.7083
  409SOL     OW 1225   0.066   2.205   0.791 -0.1800  0.1724  0.3836
  409SOL    HW1 1226   0.063   2.184   0.690  0.4069  2.8148  1.6032
  409SOL    HW2 1227   0.123   2.135   0.846  1.6669 -1.6088  0.1644
  410SOL     OW 1228   2.476   1.444   0.093 -0.1883 -1.0002  0.3353
  410SOL    HW1 1229   2.516   1.381   0.161 -0.8895 -0.2016 -3.6207
  410SOL    HW2 1230   2.544   1.456   0.020 -0.6256 -2.2075 -1.4662
  411SOL     OW 1231   0.076   0.030   1.282 -0.5097 -0.5034 -0.2802
  411SOL    HW1 1232   0.130   3.074   1.363  0.4713 -2.0494 -2.3113
  411SOL    HW2 1233   0.017   3.031   1.250  0.7885  1.1548 -0.1554
  412SOL     OW 1234   1.646   0.643   1.309  0.1745  0.3012  0.5328
  412SOL    HW1 1235   1.617   0.558   1.261 -0.3366 -1.0550  2.6066
  412SOL    HW2 1236   1.577   0.719   1.301 -2.1685 -0.5049  0.2824
  413SOL     OW 1237   0.728   0.032   1.924  0.3486  0.3286 -0.6487
  413SOL    HW1 1238   0.694   0.017   2.022  0.0563 -1.3458  3.1096
  413SOL    HW2 1239   0.772   0.123   1.920 -0.8747  1.6800  0.9365
  414SOL     OW 1240   2.785   1.622   2.653 -0.1594 -0.5441  0.0005
  414SOL    HW1 1241   2.810   1.532   2.681 -0.9526  3.0941 -0.0141
  414SOL    HW2 1242   2.765   1.626   2.555 -0.1068 -0.6325 -1.9832
  415SOL     OW 1243   0.779   2.451   0.090 -0.1597 -0.1089  0.0787
  415SOL    HW1 1244   0.877   2.458   0.058 -0.8522  0.0318  0.2730
  415SOL    HW2 1245   0.772   2.473   0.192  1.3235  0.1766  4.4491
  416SOL     OW 1246   1.909   2.931   2.954  0.0909  0.1032 -0.0342
  416SOL    HW1 1247   1.890   2.998   3.025 -2.8897 -2.4701 -1.8571
  416SOL    HW2 1248   1.945   2.984   2.871  0.7852 -1.2608  0.9605
  417SOL     OW 1249   0.129   0.425   0.571  0.6359  0.1741 -0.1068
  417SOL    HW1 1250   0.180   0.456   0.650  1.3125  0.1523 -2.2741
  417SOL    HW2 1251   0.055   0.354   0.594 -0.7819 -1.7605  2.1481
  418SOL     OW 1252   2.376   0.341   0.950  0.0120 -0.2749 -0.1958
  418SOL    HW1 1253   2.282   0.309   0.975  0.5236  1.8475 -3.0433
  418SOL    HW2 1254   2.383   0.355   0.853 -0.0969  3.1634  2.9452
  419SOL     OW 1255   3.010   2.873   0.901  0.1394  0.3662  0.0185
  419SOL    HW1 1256   2.971   2.945   0.835 -2.1359 -0.6861 -1.5206
  419SOL    HW2 1257   0.003   2.818   0.855  0.6523 -0.1664 -1.7692
  420SOL     OW 1258   0.052   1.398   1.659 -0.0323  0.5956 -0.2829
  420SOL    HW1 1259   0.127   1.334   1.642 -0.1964  2.2173 -2.7058
  420SOL    HW2 1260   3.043   1.357   1.632 -1.0456 -0.5695 -1.6810
  421SOL     OW 1261   1.400   2.837   0.593 -0.0929 -0.2332 -0.0002
  421SOL    HW1 1262   1.466   2.787   0.528 -0.5935 -4.1171 -1.5973
  421SOL    HW2 1263   1.370   2.930   0.563  1.0329 -0.0186 -1.4148
  422SOL     OW 1264   0.633   0.303   1.321 -0.3263 -0.0361 -0.0355
  422SOL    HW1 1265   0.721   0.276   1.373  5.5029  0.2299  1.6353
  422SOL    HW2 1266   0.610   0.238   1.247 -3.0019  1.0478  1.2961
  423SOL     OW 1267   1.121   1.166   1.748  0.1813 -0.6349  0.1256
  423SOL    HW1 1268   1.085   1.260   1.774 -0.1781 -1.6202 -3.1947
  423SOL    HW2 1269   1.071   1.092   1.795  1.1704 -1.2838  2.2755
  424SOL     OW 1270   2.061   1.852   0.107  0.0355  0.3699 -0.1758
  424SOL    HW1 1271   2.021   1.946   0.099 -1.1505 -2.6042  0.6664
  424SOL    HW2 1272   2.081   1.834   0.204  1.0388 -0.2461 -1.1854
  425SOL     OW 1273   3.068   0.241   2.060 -0.5136 -0.0333  0.5751
  425SOL    HW1 1274   3.059   0.221   2.157  0.8743  0.0977  0.4248
  425SOL    HW2 1275   2.973   0.233   2.023  0.2767  1.1136  0.1471
  426SOL     OW 1276   0.243   2.813   2.865  0.6039 -0.1114  0.4357
  426SOL    HW1 1277   0.283   2.734   2.909 -0.5030  0.4581 -1.0462
  426SOL    HW2 1278   0.193   2.866   2.934  0.2623  1.1311 -1.6991
  427SOL     OW 1279   1.002   0.848   2.871 -0.5922  0.5223  0.0786
  427SOL    HW1 1280   1.079   0.900   2.913 -0.9494 -1.0547  1.1292
  427SOL    HW2 1281   1.034   0.752   2.862 -1.2605 -1.6683  0.3637
  428SOL     OW 1282   2.693   0.854   1.630  0.1143 -0.7006 -0.3947
  428SOL    HW1 1283   2.638   0.869   1.545 -0.6114 -1.5455 -0.7115
  428SOL    HW2 1284   2.753   0.935   1.649 -1.0577  1.3612  1.4530
  429SOL     OW 1285   2.249   2.970   1.066 -0.4095 -0.2715 -0.7259
  429SOL    HW1 1286   2.222   2.973   1.165 -1.4342 -0.7176 -0.5564
  429SOL    HW2 1287   2.312   2.895   1.039  1.2277  0.6053 -3.0763
  430SOL     OW 1288   0.973   1.391   2.630  0.2294 -0.0043 -0.7814
  430SOL    HW1 1289   0.936   1.426   2.717 -1.9943  2.3364  1.0655
  430SOL    HW2 1290   1.071   1.381   2.631  0.0354 -0.5937  0.3207
  431SOL     OW 1291   2.788   1.556   1.591  0.2375  0.0746  0.6081
  431SOL    HW1 1292   2.832   1.606   1.671  1.1929  3.0139  0.2986
  431SOL    HW2 1293   2.853   1.554   1.512 -0.2067  2.0592 -2.0992
  432SOL     OW 1294   0.802   2.356   2.512  0.2291 -0.3687  0.2737
  432SOL    HW1 1295   0.742   2.439   2.506  1.1883  2.0856  0.8182
  432SOL    HW2 1296   0.807   2.328   2.610  2.3854  0.6948 -0.7699
  433SOL     OW 1297   1.866   0.332   2.036  0.3432  0.1800  0.5546
  433SOL    HW1 1298   1.923   0.277   2.101  1.6019  1.7201 -0.7822
  433SOL    HW2 1299   1.804   0.392   2.090 -3.2468  1.1374 -2.5666
  434SOL     OW 1300   0.770   2.361   2.201 -0.1568 -0.3013 -0.2368
  434SOL    HW1 1301   0.712   2.446   2.188  1.9629  0.5917  0.4802
  434SOL    HW2 1302   0.819   2.361   2.291  1.3372  0.7484 -0.8275
  435SOL     OW 1303   0.259   3.051   0.305  0.5050  0.2828 -0.2261
  435SOL    HW1 1304   0.300   0.009   0.221  0.8365 -2.1930 -1.1498
  435SOL    HW2 1305   0.330   2.989   0.353 -1.5944 -1.2289  1.2718
  436SOL     OW 1306   0.721   0.677   2.002 -0.2339  0.0617 -0.2662
  436SOL    HW1 1307   0.702   0.773   1.968  1.5880  0.0099 -0.6843
  436SOL    HW2 1308   0.659   0.653   2.078  0.9393  0.2216 -1.0736
  437SOL     OW 1309   0.561   2.273   2.692  0.3606  0.4674  0.5750
  437SOL    HW1 1310   0.640   2.339   2.704 -1.3474 -0.1079 -0.2472
  437SOL    HW2 1311   0.537   2.232   2.784 -0.8624 -1.1584  0.9963
  438SOL     OW 1312   1.044   1.253   1.419 -0.0530 -0.6505  0.4863
  438SOL    HW1 1313   1.116   1.266   1.346 -0.0836  2.1739  1.9904
  438SOL    HW2 1314   1.058   1.168   1.468 -1.5192 -1.2191  0.0382
  439SOL     OW 1315   2.483   1.111   2.273  0.4096  0.3102  0.0228
  439SOL    HW1 1316   2.574   1.117   2.322 -1.0267 -2.2194  0.3777
  439SOL    HW2 1317   2.400   1.133   2.328  1.2431  2.1986  0.6627
  440SOL     OW 1318   0.048   0.496   0.142 -0.1780 -0.4567 -0.1085
  440SOL    HW1 1319   0.093   0.410   0.108 -2.7456  0.7200 -2.3038
  440SOL    HW2 1320   0.116   0.566   0.170  0.1725 -0.1166  0.0012
  441SOL     OW 1321   1.248   1.921   1.566 -0.1540  0.2773  0.3654
  441SOL    HW1 1322   1.221   2.004   1.625 -0.1960  3.5840  1.8422
  441SOL    HW2 1323   1.172   1.884   1.512 -2.6854 -0.5309 -0.9415
  442SOL     OW 1324   2.045   1.638   0.792 -0.3378  0.3263 -0.2578
  442SOL    HW1 1325   2.087   1.659   0.885  2.6911  0.2245  2.2593
  442SOL    HW2 1326   2.092   1.555   0.752  1.6829 -0.9806 -0.2709
  443SOL     OW 1327   2.742   2.075   2.641 -0.2497 -0.0992  0.9948
  443SOL    HW1 1328   2.747   2.179   2.646 -2.4697 -0.8947 -1.3989
  443SOL    HW2 1329   2.658   2.038   2.688 -0.4955 -1.2891  1.0337
  444SOL     OW 1330   1.573   1.612   2.972 -0.0200  0.1255 -0.0603
  444SOL    HW1 1331   1.635   1.616   3.052  1.7288  0.6491 -0.8792
  444SOL    HW2 1332   1.495   1.552   2.987 -2.1342  0.4976  2.5541
  445SOL     OW 1333   2.566   2.848   1.837 -0.6331  0.4137 -0.1483
  445SOL    HW1 1334   2.620   2.762   1.839 -2.3305  2.9063 -1.1623
  445SOL    HW2 1335   2.618   2.929   1.799  0.4716  1.1812  1.0963
  446SOL     OW 1336   0.755   0.859   1.656 -0.1741  0.2104 -0.2143
  446SOL    HW1 1337   0.834   0.845   1.594 -0.7258  1.2347  2.4910
  446SOL    HW2 1338   0.713   0.767   1.680 -1.7155  1.7643  2.6782
  447SOL     OW 1339   0.607   0.951   1.067  0.0782  0.0894 -0.2970
  447SOL    HW1 1340   0.544   0.871   1.057 -1.6242 -1.3544  0.3015
  447SOL    HW2 1341   0.688   0.930   1.126  2.0155 -0.8185 -0.2087
  448SOL     OW 1342   1.035   1.074   2.230  0.6061  0.2132 -0.2502
  448SOL    HW1 1343   0.998   1.107   2.318 -1.0191  0.7392 -1.1123
  448SOL    HW2 1344   0.981   1.002   2.191  0.5933  1.9549  0.3735
  449SOL     OW 1345   3.049   2.110   2.294  0.6247 -0.3553 -0.1947
  449SOL    HW1 1346   3.045   2.038   2.366 -0.3639 -1.0952 -0.2752
  449SOL    HW2 1347   0.006   2.072   2.204 -0.9293  1.2027  0.6312
  450SOL     OW 1348   2.417   1.851   2.122 -0.0310  0.0862  0.2293
  450SOL    HW1 1349   2.444   1.800   2.207 -0.2783 -1.9296  2.0858
  450SOL    HW2 1350   2.373   1.785   2.058 -0.9114 -0.5325 -1.2618
  451SOL     OW 1351   2.509   1.378   1.293  0.2901 -0.5345 -0.6812
  451SOL    HW1 1352   2.515   1.350   1.390 -1.8719  3.0845 -2.0971
  451SOL    HW2 1353   2.439   1.328   1.240  2.2458  3.8157 -0.3289
  452SOL     OW 1354   0.221   1.206   1.515 -0.4368  0.2730  0.3770
  452SOL    HW1 1355   0.132   1.163   1.489 -0.4367  0.6448  1.8286
  452SOL    HW2 1356   0.276   1.247   1.437 -0.4397 -1.4410  0.8677
  453SOL     OW 1357   0.377   0.784   0.759  0.0591 -0.3232 -0.6305
  453SOL    HW1 1358   0.408   0.695   0.727  1.4888  0.1565  1.8356
  453SOL    HW2 1359   0.306   0.828   0.704 -0.1955  0.3976  0.4048
  454SOL     OW 1360   0.464   1.625   0.508  0.7742 -0.8604 -0.2983
  454SOL    HW1 1361   0.455   1.541   0.566  0.2030 -1.9190 -1.5432
  454SOL    HW2 1362   0.431   1.596   0.417  0.8760 -0.1824 -0.7696
  455SOL     OW 1363   1.539   0.841   0.811  0.6981  0.6217 -0.3263
  455SOL    HW1 1364   1.622   0.855   0.754  2.9869  0.6490  0.8393
  455SOL    HW2 1365   1.540   0.743   0.841 -0.4212 -1.5576 -1.2458
  456SOL     OW 1366   1.752   2.752   0.972 -0.0324 -0.0903  0.6743
  456SOL    HW1 1367   1.771   2.767   0.875  0.5807 -1.7113  1.2261
  456SOL    HW2 1368   1.820   2.797   1.031 -2.9081 -2.1252 -0.7036
  457SOL     OW 1369   1.850   0.369   2.444  0.5331  0.1842 -0.3738
  457SOL    HW1 1370   1.760   0.345   2.403 -0.4441 -0.5463  2.0474
  457SOL    HW2 1371   1.919   0.295   2.421  0.9800 -0.1260 -0.4515
  458SOL     OW 1372   2.394   0.570   2.910 -0.3854 -0.0194 -0.2490
  458SOL    HW1 1373   2.374   0.475   2.898  0.9127  2.5214 -1.5891
  458SOL    HW2 1374   2.476   0.588   2.858  1.7900 -0.2539 -1.7036
  459SOL     OW 1375   3.058   1.720   2.192 -0.2650  0.2922 -0.4823
  459SOL    HW1 1376   3.046   1.719   2.294  0.5580 -3.1372  0.4701
  459SOL    HW2 1377   0.053   1.651   2.168  0.9921 -1.4041 -2.3152
  460SOL     OW 1378   0.374   0.701   3.055  0.0267 -0.4779 -0.3455
  460SOL    HW1 1379   0.324   0.666   2.973 -1.4614  1.9473 -0.0170
  460SOL    HW2 1380   0.437   0.627   0.011 -0.5667 -2.8191 -0.1413
  461SOL     OW 1381   2.923   2.537   0.401  0.2922  0.2265  0.1804
  461SOL    HW1 1382   2.858   2.519   0.476  0.3032  1.6129 -0.0841
  461SOL    HW2 1383   3.006   2.478   0.399  0.0233  1.2888 -2.0180
  462SOL     OW 1384   3.067   0.035   1.734 -0.3997 -0.2928 -0.0458
  462SOL    HW1 1385   3.069   3.036   1.669  1.7696  0.5054  1.2392
  462SOL    HW2 1386   3.057   0.125   1.689  1.7342 -0.8294  0.6858
  463SOL     OW 1387   1.764   2.086   1.955  0.1684  0.0965 -0.0318
  463SOL    HW1 1388   1.796   2.020   1.884 -0.6107 -0.5033 -0.3694
  463SOL    HW2 1389   1.746   2.176   1.916 -0.2949 -0.7445  0.0791
  464SOL     OW 1390   0.282   2.804   1.303 -0.4610  0.4158  0.1096
  464SOL    HW1 1391   0.241   2.873   1.366  0.7241  0.8746  1.5156
  464SOL    HW2 1392   0.287   2.843   1.207  1.1188 -1.5674  0.9885
  465SOL     OW 1393   0.358   0.077   1.695 -0.0792 -0.3957 -0.2755
  465SOL    HW1 1394   0.361   0.034   1.784  0.1707  1.5735 -2.4281
  465SOL    HW2 1395   0.311   0.168   1.694 -2.6498  0.9564  0.0377
  466SOL     OW 1396   1.167   1.993   2.382 -0.1724  0.3622 -0.3469
  466SOL    HW1 1397   1.159   1.894   2.405  2.1357  0.2168 -2.4713
  466SOL    HW2 1398   1.080   2.048   2.396  0.3718 -2.4482  0.1360
  467SOL     OW 1399   2.903   1.499   0.674 -0.1026  0.2484 -0.4374
  467SOL    HW1 1400   2.865   1.494   0.771 -1.6239 -0.6520  1.1505
  467SOL    HW2 1401   2.863   1.421   0.616 -1.2381 -3.2649 -2.4007
  468SOL     OW 1402   2.277   1.909   2.660 -0.0199 -0.0955 -0.4431
  468SOL    HW1 1403   2.220   1.820   2.676 -0.7333 -3.3915  2.6188
  468SOL    HW2 1404   2.292   1.928   2.563  2.1678  1.0789  0.8401
  469SOL     OW 1405   1.221   2.271   0.652 -0.2755 -0.2181  0.0139
  469SOL    HW1 1406   1.262   2.253   0.561  1.8476 -1.3393  1.2448
  469SOL    HW2 1407   1.233   2.192   0.719 -1.6018  1.0710 -0.7813
  470SOL     OW 1408   1.975   1.728   1.367  0.1316 -0.3686 -0.2153
  470SOL    HW1 1409   1.935   1.819   1.403  0.2533  2.6132  1.4827
  470SOL    HW2 1410   2.078   1.726   1.381 -1.4142 -1.0313  0.0941
  471SOL     OW 1411   0.075   2.387   0.397 -0.0416  0.1322  0.5399
  471SOL    HW1 1412   0.148   2.448   0.448  4.1963  0.0274 -0.5754
  471SOL    HW2 1413   0.118   2.332   0.326 -3.1577 -0.2393  4.1287
  472SOL     OW 1414   2.525   1.746   2.364  0.2382 -0.1005 -0.4143
  472SOL    HW1 1415   2.517   1.645   2.371 -1.1236 -0.7573 -1.3065
  472SOL    HW2 1416   2.615   1.778   2.396 -0.9210  1.1448 -1.4165
  473SOL     OW 1417   1.379   2.591   0.906 -0.1840  0.5546 -0.3657
  473SOL    HW1 1418   1.295   2.578   0.969 -1.6397 -0.3980  4.3729
  473SOL    HW2 1419   1.413   2.684   0.901  1.0031  0.7274 -1.9579
  474SOL     OW 1420   2.782   0.189   1.428  0.1167  0.0418  0.9524
  474SOL    HW1 1421   2.773   0.106   1.369  1.5031 -0.9788 -1.1637
  474SOL    HW2 1422   2.694   0.228   1.455  4.1355  0.1550  3.5169
  475SOL     OW 1423   2.128   2.688   1.925  0.0507 -0.3309 -0.0741
  475SOL    HW1 1424   2.211   2.627   1.922 -1.2221 -0.4415  0.0495
  475SOL    HW2 1425   2.141   2.765   1.860  0.1765  1.2489 -1.3800
  476SOL     OW 1426   0.250   0.492   0.808 -0.4382 -0.2651 -0.5115
  476SOL    HW1 1427   0.297   0.427   0.872  2.6490  0.5376  1.3625
  476SOL    HW2 1428   0.194   0.562   0.858  2.0889  0.2512 -0.8265
  477SOL     OW 1429   0.717   2.020   0.902  0.3898  0.0723 -0.4270
  477SOL    HW1 1430   0.662   2.088   0.964  0.2844  2.8531  1.8573
  477SOL    HW2 1431   0.785   1.960   0.953  0.2769 -0.9003  2.2714
  478SOL     OW 1432   0.798   2.413   2.782 -0.5619 -0.2043 -0.1686
  478SOL    HW1 1433   0.871   2.349   2.820  0.0709 -1.8825  0.0265
  478SOL    HW2 1434   0.754   2.464   2.861  0.9259  0.3598 -0.3330
  479SOL     OW 1435   0.146   0.978   2.088  0.0451 -0.3045  0.4621
  479SOL    HW1 1436   0.075   1.036   2.128 -0.0202  1.7431 -1.3779
  479SOL    HW2 1437   0.102   0.911   2.020 -2.7246 -1.1447 -0.7312
  480SOL     OW 1438   0.330   2.317   3.051  0.2612  0.3827 -0.2772
  480SOL    HW1 1439   0.288   2.276   0.056 -1.3281  0.1186 -0.6293
  480SOL    HW2 1440   0.276   2.288   2.970  1.3480  0.0524 -0.6950
  481SOL     OW 1441   1.659   2.996   2.186 -0.3926 -0.2073  0.3318
  481SOL    HW1 1442   1.729   3.001   2.256 -1.9785 -0.1107 -4.2549
  481SOL    HW2 1443   1.645   0.007   2.134  0.0245  2.1323 -0.4382
  482SOL     OW 1444   1.719   2.020   0.061 -0.0512 -0.9400  0.8126
  482SOL    HW1 1445   1.726   1.961   0.139  1.2072  0.4866  0.3856
  482SOL    HW2 1446   1.809   2.070   0.043 -0.9417 -1.8176 -1.8542
  483SOL     OW 1447   1.036   2.618   2.721 -0.2866  0.1453  0.2864
  483SOL    HW1 1448   1.126   2.573   2.703 -0.6299  4.3021  0.7436
  483SOL    HW2 1449   0.959   2.556   2.714  2.2254  1.8223  2.3054
  484SOL     OW 1450   0.641   2.828   0.761  0.5528 -0.0146  0.0969
  484SOL    HW1 1451   0.723   2.889   0.744 -1.4307 -0.3009 -0.0790
  484SOL    HW2 1452   0.561   2.876   0.810 -1.3495 -1.4577  0.0966
  485SOL     OW 1453   2.122   0.796   0.706 -0.2092  0.2245 -0.4890
  485SOL    HW1 1454   2.131   0.895   0.735 -3.0699  0.8654 -1.3931
  485SOL    HW2 1455   2.062   0.747   0.776 -0.7570  0.9029  1.5472
  486SOL     OW 1456   2.043   2.739   2.167 -0.4986 -0.2571 -0.1637
  486SOL    HW1 1457   2.104   2.695   2.241  2.2923 -1.7456  0.4549
  486SOL    HW2 1458   2.072   2.717   2.072 -0.2432 -0.7338  3.0418
  487SOL     OW 1459   1.182   1.908   0.664 -0.2037 -0.2515 -0.1084
  487SOL    HW1 1460   1.085   1.912   0.630  1.3983 -1.3407 -0.8536
  487SOL    HW2 1461   1.202   1.978   0.737  2.6594 -0.5316 -0.9560
  488SOL     OW 1462   2.045   0.234   0.083  0.3366 -0.5791  0.4613
  488SOL    HW1 1463   2.112   0.281   0.143 -0.3959 -0.8350 -0.0758
  488SOL    HW2 1464   2.032   0.292   3.080  0.0748  1.8157  1.2191
  489SOL     OW 1465   2.207   2.939   0.464 -0.0014 -0.0866  0.0846
  489SOL    HW1 1466   2.281   2.992   0.407 -0.6503  1.2740 -1.8091
  489SOL    HW2 1467   2.122   2.994   0.478 -1.8158 -1.0987 -1.1330
  490SOL     OW 1468   1.673   2.836   2.853  0.3064  0.5033 -0.0995
  490SOL    HW1 1469   1.764   2.881   2.869 -0.0509  1.4434  2.6158
  490SOL    HW2 1470   1.601   2.865   2.919 -1.8263  1.2500  0.6933
  491SOL     OW 1471   0.858   0.195   0.980 -0.3487  0.5255  0.7650
  491SOL    HW1 1472   0.952   0.168   1.014  2.1271 -0.6864 -0.4646
  491SOL    HW2 1473   0.791   0.123   0.989  0.4626  4.2014  0.7066
  492SOL     OW 1474   1.878   2.968   0.282  0.5824 -0.0801  0.2825
  492SOL    HW1 1475   1.927   3.020   0.353  0.0069 -0.3387 -1.5984
  492SOL    HW2 1476   1.915   2.877   0.262  0.8066  1.3842 -1.0528
  493SOL     OW 1477   1.833   2.430   2.751 -0.4086  0.0078  0.0815
  493SOL    HW1 1478   1.787   2.351   2.702  1.0524 -0.4563 -0.1576
  493SOL    HW2 1479   1.788   2.453   2.837  0.6751 -3.9293 -1.3806
  494SOL     OW 1480   0.239   1.168   1.086  0.3048 -0.5693  0.7295
  494SOL    HW1 1481   0.282   1.102   1.153  2.7851  0.5373 -0.1244
  494SOL    HW2 1482   0.143   1.186   1.107 -0.0534 -1.1800 -0.5769
  495SOL     OW 1483   2.821   0.363   1.756 -0.1988 -0.1065 -0.1237
  495SOL    HW1 1484   2.903   0.330   1.704  1.0342 -1.9469 -3.1915
  495SOL    HW2 1485   2.791   0.453   1.718 -2.4405  1.1813 -2.6440
  496SOL     OW 1486   2.561   2.541   2.075  0.0767  0.4757  0.4859
  496SOL    HW1 1487   2.552   2.458   2.133 -0.7357 -0.8444  1.0683
  496SOL    HW2 1488   2.517   2.622   2.125  0.4083 -0.0880  2.2353
  497SOL     OW 1489   1.633   1.307   2.635  0.4678 -0.1602 -0.3869
  497SOL    HW1 1490   1.722   1.277   2.605 -3.6735  0.9939  2.3823
  497SOL    HW2 1491   1.580   1.240   2.686  0.8901  2.7968  1.0534
  498SOL     OW 1492   0.745   2.239   0.742  0.2021  0.2928 -0.2671
  498SOL    HW1 1493   0.845   2.243   0.749 -0.0265  2.4219 -5.0095
  498SOL    HW2 1494   0.718   2.160   0.802 -1.3100  1.4287 -0.9448
  499SOL     OW 1495   0.213   1.598   0.950 -0.3843 -0.0517 -0.1663
  499SOL    HW1 1496   0.117   1.640   0.941 -0.6398 -1.1894 -0.6929
  499SOL    HW2 1497   0.271   1.651   1.015 -1.2095  0.3432  1.3687
  500SOL     OW 1498   1.563   2.518   0.526 -0.4014 -0.2904  0.3466
  500SOL    HW1 1499   1.585   2.602   0.468  0.4585  0.8015 -3.2117
  500SOL    HW2 1500   1.468   2.520   0.561  1.7245 -0.1007  0.6871
  501SOL     OW 1501   2.029   2.652   1.116  0.2295  0.1340 -0.0651
  501SOL    HW1 1502   2.099   2.584   1.150  0.9182  0.9081  2.2911
  501SOL    HW2 1503   2.052   2.686   1.023  2.3612  0.2727  3.2117
  502SOL     OW 1504   0.429   0.418   1.515  0.5846  0.3001 -0.2183
  502SOL    HW1 1505   0.361   0.346   1.537 -0.3072  0.7465  0.4464
  502SOL    HW2 1506   0.483   0.391   1.427  0.4987  1.2733 -2.8410
  503SOL     OW 1507   2.027   0.223   1.431  0.2251  0.7848 -0.1849
  503SOL    HW1 1508   1.927   0.205   1.431  0.2823 -2.1251 -1.3720
  503SOL    HW2 1509   2.070   0.142   1.481  2.8838  1.6516  1.2626
  504SOL     OW 1510   2.102   0.811   1.854  0.4074  0.9906 -0.2234
  504SOL    HW1 1511   2.010   0.857   1.840  0.3552  2.2092 -0.9169
  504SOL    HW2 1512   2.177   0.882   1.864 -1.3665  0.0917 -2.6814
  505SOL     OW 1513   1.168   2.906   2.264  0.5100  0.3670 -0.1256
  505SOL    HW1 1514   1.157   2.848   2.348  2.2107 -0.5731  0.5621
  505SOL    HW2 1515   1.241   2.971   2.273 -2.9565  0.0066 -0.6137
  506SOL     OW 1516   0.371   0.446   1.954  0.1762  0.2829  0.0120
  506SOL    HW1 1517   0.429   0.470   1.872  0.3263  0.0507 -1.6070
  506SOL    HW2 1518   0.408   0.364   1.997  2.1596 -1.4315 -1.0955
  507SOL     OW 1519   1.539   0.138   2.946 -0.0356 -0.3950 -0.1466
  507SOL    HW1 1520   1.514   0.044   2.986  2.1414  0.0072  1.4664
  507SOL    HW2 1521   1.581   0.195   3.016  1.5180 -2.7302 -2.0328
  508SOL     OW 1522   2.180   0.576   2.143 -0.3910 -0.4073  0.0923
  508SOL    HW1 1523   2.197   0.673   2.158 -0.7773 -0.0852  1.0363
  508SOL    HW2 1524   2.094   0.561   2.088  0.1196  1.6711  0.2894
  509SOL     OW 1525   0.751   1.243   2.249  0.2430 -0.0850  0.2420
  509SOL    HW1 1526   0.666   1.204   2.286  0.6597  0.0080  0.1012
  509SOL    HW2 1527   0.816   1.232   2.327  0.0863 -1.1367 -0.1763
  510SOL     OW 1528   2.948   0.442   0.972 -0.3144  0.0253 -0.1080
  510SOL    HW1 1529   3.026   0.500   1.005 -3.0232 -1.4336 -0.1532
  510SOL    HW2 1530   2.911   0.461   0.875 -0.7874  4.4033  0.6250
  511SOL     OW 1531   1.669   1.316   1.156 -0.3797 -0.0979 -0.7290
  511SOL    HW1 1532   1.679   1.399   1.096 -1.5299  0.7752  1.1916
  511SOL    HW2 1533   1.647   1.342   1.252 -0.0406 -0.6841 -0.7660
  512SOL     OW 1534   0.469   1.369   0.637 -0.4419 -0.2388  0.0560
  512SOL    HW1 1535   0.461   1.331   0.544  0.4630  0.3457 -1.5044
  512SOL    HW2 1536   0.439   1.303   0.710  1.7611 -1.5946  0.1562
  513SOL     OW 1537   0.630   2.192   1.096  0.3631 -0.0707  0.6258
  513SOL    HW1 1538   0.531   2.202   1.111  1.1999 -1.1361  2.0706
  513SOL    HW2 1539   0.677   2.280   1.111  1.2536 -0.0934  0.9598
  514SOL     OW 1540   0.164   2.208   0.198 -0.0899 -0.3521  0.3234
  514SOL    HW1 1541   0.068   2.202   0.164 -0.7283 -2.3526 -2.2973
  514SOL    HW2 1542   0.195   2.118   0.238 -1.2398  2.6432  1.9875
  515SOL     OW 1543   2.839   2.988   0.049  0.0656  0.0670  0.5263
  515SOL    HW1 1544   2.871   2.891   0.033  1.7872 -0.0725  0.2153
  515SOL    HW2 1545   2.836   3.008   0.151  1.0735 -1.4483 -0.7995
  516SOL     OW 1546   2.029   0.011   0.960 -0.1581  1.2082  0.6865
  516SOL    HW1 1547   1.948   3.074   1.015  0.0447  1.5040  1.0237
  516SOL    HW2 1548   2.109   3.040   0.998  1.5450  1.8412  1.1265
  517SOL     OW 1549   1.670   1.519   0.510  0.5314  0.2626 -0.5355
  517SOL    HW1 1550   1.712   1.551   0.601  1.5517 -1.4420 -0.4664
  517SOL    HW2 1551   1.687   1.419   0.500  0.7996  0.0104 -0.8021
  518SOL     OW 1552   1.310   0.589   1.285 -0.3497  0.2429 -0.0436
  518SOL    HW1 1553   1.224   0.555   1.241 -1.5388  0.4625  0.0163
  518SOL    HW2 1554   1.393   0.547   1.241 -0.3744  1.1058  1.1653
  519SOL     OW 1555   2.666   2.273   0.259 -0.0985 -0.5624  0.5001
  519SOL    HW1 1556   2.682   2.276   0.360 -2.3021  0.4332 -2.1575
  519SOL    HW2 1557   2.749   2.309   0.206  1.6839 -1.9997 -0.9417
  520SOL     OW 1558   2.141   1.886   1.856 -0.5267 -0.7401  0.1551
  520SOL    HW1 1559   2.163   1.802   1.798 -0.6985  2.2127 -0.6994
  520SOL    HW2 1560   2.082   1.859   1.930  1.8806 -1.1243 -0.6167
  521SOL     OW 1561   1.514   2.748   2.192  0.0018  0.6876  0.2288
  521SOL    HW1 1562   1.477   2.754   2.286 -1.7121 -0.2954  2.2867
  521SOL    HW2 1563   1.575   2.827   2.173  0.6183 -0.1904 -0.7681
  522SOL     OW 1564   2.789   0.234   1.976 -0.8829 -0.3757  0.8352
  522SOL    HW1 1565   2.797   0.292   1.889 -1.2593  0.5285 -2.4661
  522SOL    HW2 1566   2.797   0.137   1.944 -0.2282 -0.7187  0.9521
  523SOL     OW 1567   0.960   1.953   1.468 -0.4146 -0.0123  0.3307
  523SOL    HW1 1568   0.967   2.032   1.535  0.3315 -0.0580 -2.0259
  523SOL    HW2 1569   0.920   1.990   1.381 -1.1893  1.6184  1.6298
  524SOL     OW 1570   2.127   2.046   2.839 -0.3397  0.5627 -0.0453
  524SOL    HW1 1571   2.197   1.993   2.787 -1.5135 -0.0612 -1.0885
  524SOL    HW2 1572   2.034   2.000   2.831 -1.7602  0.2031 -0.8329
  525SOL     OW 1573   2.725   1.060   0.188 -0.1217 -0.5798 -0.3604
  525SOL    HW1 1574   2.820   1.055   0.218 -0.5612 -1.2924  1.5371
  525SOL    HW2 1575   2.713   1.020   0.097 -1.4316  0.4405  0.8762
  526SOL     OW 1576   0.956   2.786   0.945  0.7946  0.1366 -0.0031
  526SOL    HW1 1577   0.957   2.839   0.860 -0.3109  2.8456  1.8764
  526SOL    HW2 1578   0.892   2.828   1.010  1.1554  0.2764 -1.5009
  527SOL     OW 1579   2.382   1.520   0.639 -0.0902 -0.1859 -0.0751
  527SOL    HW1 1580   2.294   1.472   0.633  0.4417 -0.3426 -2.5103
  527SOL    HW2 1581   2.397   1.583   0.563 -1.6895  2.7404  1.1419
  528SOL     OW 1582   0.562   0.711   2.606 -0.0173  0.1327 -0.3971
  528SOL    HW1 1583   0.632   0.734   2.539  1.7688  0.3998 -0.3013
  528SOL    HW2 1584   0.467   0.712   2.566 -3.1708  1.0358  0.2762
  529SOL     OW 1585   0.586   1.374   3.032  0.2946  0.0754  0.1060
  529SOL    HW1 1586   0.499   1.415   2.990 -2.0679 -0.0648  0.6278
  529SOL    HW2 1587   0.572   1.277   3.069  1.5121 -1.5242 -0.0560
  530SOL     OW 1588   1.345   0.870   1.830  0.4017 -0.1004 -1.0120
  530SOL    HW1 1589   1.385   0.799   1.886 -0.3670 -1.3940 -1.8798
  530SOL    HW2 1590   1.248   0.843   1.836 -1.1473  0.0085  1.3489
  531SOL     OW 1591   1.249   2.119   3.038  0.5426  0.1197  0.0647
  531SOL    HW1 1592   1.193   2.050   2.987 -1.9113 -1.8700 -2.2738
  531SOL    HW2 1593   1.328   2.066   3.077  0.3855  0.4061 -2.2152
  532SOL     OW 1594   2.285   0.718   0.016  0.2449  0.3231 -0.1492
  532SOL    HW1 1595   2.278   0.666   0.105  0.3919  0.7708 -0.3870
  532SOL    HW2 1596   2.342   0.664   3.027 -0.0267 -1.6286  1.6768
  533SOL     OW 1597   2.825   0.499   2.096  0.1718  0.4577  0.3309
  533SOL    HW1 1598   2.801   0.402   2.074 -0.7026 -3.0596 -0.6918
  533SOL    HW2 1599   2.759   0.569   2.066 -1.5182  0.1225  1.3542
  534SOL     OW 1600   1.859   0.033   0.061  0.0254 -0.5320  0.0152
  534SOL    HW1 1601   1.850   3.052   0.145  2.4746  1.5514  0.4559
  534SOL    HW2 1602   1.948   0.088   0.071  4.9802  0.3094  0.2756
  535SOL     OW 1603   0.627   0.260   2.971 -0.0367 -0.2017  0.0778
  535SOL    HW1 1604   0.550   0.197   2.946 -2.4633  0.8286  1.0474
  535SOL    HW2 1605   0.710   0.206   3.003  1.3949  1.0663 -1.2466
  536SOL     OW 1606   0.665   1.469   1.501 -0.4960  0.0764  0.2458
  536SOL    HW1 1607   0.629   1.565   1.501 -1.1835  0.0706  1.2275
  536SOL    HW2 1608   0.713   1.450   1.415 -0.6843 -0.2306  2.3972
  537SOL     OW 1609   0.249   2.664   1.872  0.4895  0.5286  0.0598
  537SOL    HW1 1610   0.311   2.705   1.806 -0.4276 -0.6247  0.0753
  537SOL    HW2 1611   0.267   2.685   1.968 -1.5314  0.2083 -4.3457
  538SOL     OW 1612   2.986   2.177   0.115  0.2940 -0.5110  0.1379
  538SOL    HW1 1613   2.972   2.278   0.109  2.2977 -2.3210  2.0496
  538SOL    HW2 1614   2.983   2.132   0.020  0.7537  2.0968 -1.4379
  539SOL     OW 1615   2.580   0.959   2.649 -0.3352  0.2601 -0.1306
  539SOL    HW1 1616   2.656   0.888   2.662  1.2797 -0.4914 -0.8067
  539SOL    HW2 1617   2.525   0.974   2.733  0.6328 -1.8428  0.8814
  540SOL     OW 1618   1.762   0.753   0.143  0.2638 -0.6954 -0.2256
  540SOL    HW1 1619   1.803   0.823   0.085 -0.7760 -0.7597  0.8792
  540SOL    HW2 1620   1.669   0.784   0.182 -1.8465 -0.4726  2.8997
  541SOL     OW 1621   1.025   0.346   2.002  0.4447  0.4467 -0.5951
  541SOL    HW1 1622   1.006   0.306   2.095 -1.6706  1.1091  0.6314
  541SOL    HW2 1623   0.939   0.371   1.962 -0.0995 -0.7614  3.2490
  542SOL     OW 1624   1.734   2.363   2.168 -0.4363 -1.0901 -0.7751
  542SOL    HW1 1625   1.747   2.466   2.176 -0.9742  2.3964 -1.4489
  542SOL    HW2 1626   1.816   2.321   2.137  2.0301 -1.5297  2.3285
  543SOL     OW 1627   0.951   2.794   0.363  0.0057 -0.4116 -0.0396
  543SOL    HW1 1628   1.045   2.754   0.352  1.3442 -1.9932 -0.7883
  543SOL    HW2 1629   0.907   2.814   0.273  1.7879 -1.5271  2.8575
  544SOL     OW 1630   2.793   1.789   2.173  0.1515 -0.4524  0.3321
  544SOL    HW1 1631   2.880   1.738   2.169 -2.7889  1.1052 -0.4531
  544SOL    HW2 1632   2.775   1.826   2.267 -0.3241 -0.2256 -0.9552
  545SOL     OW 1633   1.446   1.930   1.381  0.1563 -0.4432  0.0179
  545SOL    HW1 1634   1.362   1.945   1.445  3.3611 -1.4966  0.6429
  545SOL    HW2 1635   1.463   1.827   1.369  0.6224 -1.5117  2.8763
  546SOL     OW 1636   0.624   0.071   2.199  0.2245  0.0308  0.1880
  546SOL    HW1 1637   0.683   0.126   2.263 -0.4128  3.9495  0.1159
  546SOL    HW2 1638   0.557   0.131   2.147 -0.3619  1.5267 -1.2066
  547SOL     OW 1639   1.130   0.281   0.437 -0.1771 -0.4106  0.7221
  547SOL    HW1 1640   1.110   0.194   0.394  2.9967  2.1641  1.8854
  547SOL    HW2 1641   1.053   0.350   0.431 -1.7251 -2.2153  0.0797
  548SOL     OW 1642   1.485   1.950   3.070 -0.7770  0.1329  0.5113
  548SOL    HW1 1643   1.586   1.963   0.006  2.6732  0.3457 -0.4518
  548SOL    HW2 1644   1.475   1.928   2.970 -0.4347  1.9818 -2.0428
  549SOL     OW 1645   2.059   1.107   0.110  0.1896  0.6263 -0.0654
  549SOL    HW1 1646   2.060   1.204   0.078 -0.2922  0.3930 -0.0818
  549SOL    HW2 1647   2.072   1.094   0.213  0.3303 -0.5613  0.1737
  550SOL     OW 1648   2.465   2.106   0.120 -0.1005  0.1412  0.0504
  550SOL    HW1 1649   2.394   2.086   0.189  0.1057  2.9617  0.5368
  550SOL    HW2 1650   2.547   2.144   0.165  1.2751  2.4273  3.3131
  551SOL     OW 1651   1.249   0.565   1.562 -0.5597 -0.0295 -0.3860
  551SOL    HW1 1652   1.268   0.569   1.461 -1.1605  0.8852 -1.7708
  551SOL    HW2 1653   1.282   0.477   1.606  2.9553 -0.2013  1.5976
  552SOL     OW 1654   0.181   2.259   2.830 -0.2013 -0.3205 -0.0484
  552SOL    HW1 1655   0.141   2.172   2.801 -3.0877  0.5185  1.3382
  552SOL    HW2 1656   0.106   2.305   2.880  1.3942 -1.0806 -4.3410
  553SOL     OW 1657   2.745   2.769   0.948  0.2834  0.0328 -0.1028
  553SOL    HW1 1658   2.746   2.700   1.023 -0.4770 -0.1528  1.7609
  553SOL    HW2 1659   2.835   2.814   0.936  1.6351 -2.4852  1.5485
  554SOL     OW 1660   2.037   1.447   1.686 -0.9593 -0.2388 -0.3612
  554SOL    HW1 1661   2.031   1.370   1.755  0.2128 -0.7653  1.1265
  554SOL    HW2 1662   1.961   1.510   1.697  0.9819 -1.2482  0.3588
  555SOL     OW 1663   1.356   2.064   2.198  0.0526 -0.4903 -0.0034
  555SOL    HW1 1664   1.302   2.030   2.279 -0.0641 -1.3225  1.2703
  555SOL    HW2 1665   1.380   2.164   2.207 -0.4091 -2.7376  3.3883
  556SOL     OW 1666   1.242   1.658   1.786 -0.7295  0.4183  0.3867
  556SOL    HW1 1667   1.180   1.702   1.718  2.1042  0.4688  0.9475
  556SOL    HW2 1668   1.258   1.562   1.747  0.6587  0.9541 -1.4412
  557SOL     OW 1669   1.440   0.006   1.745 -0.3877  0.5390 -0.4048
  557SOL    HW1 1670   1.475   2.995   1.784  2.2165  0.9781  1.6436
  557SOL    HW2 1671   1.371   0.052   1.804  0.7487 -2.6759 -1.1074
  558SOL     OW 1672   0.543   2.885   2.100 -0.3976 -0.6469 -0.7622
  558SOL    HW1 1673   0.498   2.935   2.016  0.5801  2.4863  0.6436
  558SOL    HW2 1674   0.594   2.955   2.160 -0.2654  5.0917  0.2707
  559SOL     OW 1675   1.912   2.370   0.127 -0.1221 -0.1790  0.0670
  559SOL    HW1 1676   1.886   2.458   0.084 -0.5243  1.9528 -0.5468
  559SOL    HW2 1677   2.012   2.377   0.151 -1.2365  0.9666 -0.1151
  560SOL     OW 1678   1.344   2.193   0.417 -0.0985 -0.3115 -0.7417
  560SOL    HW1 1679   1.432   2.184   0.471 -1.8187 -0.4959 -1.8541
  560SOL    HW2 1680   1.365   2.227   0.324  2.0963  0.5839 -0.1554
  561SOL     OW 1681   1.316   0.503   0.109 -0.3209 -0.6219  0.2598
  561SOL    HW1 1682   1.266   0.472   0.025  0.3951  0.2564 -2.8202
  561SOL    HW2 1683   1.353   0.417   0.158  1.7397 -2.1799  1.0696
  562SOL     OW 1684   0.579   1.467   2.031  0.3028  0.3017  0.0661
  562SOL    HW1 1685   0.639   1.459   2.112 -0.0768  0.0759 -0.9331
  562SOL    HW2 1686   0.625   1.432   1.943 -1.7386 -0.8986  0.3089
  563SOL     OW 1687   1.221   2.029   2.633 -0.6937 -0.3575 -0.2590
  563SOL    HW1 1688   1.211   2.042   2.532 -1.4144 -0.5920 -1.8307
  563SOL    HW2 1689   1.316   2.001   2.652  2.0223  1.5071 -0.0569
  564SOL     OW 1690   2.881   0.951   0.866 -0.2630 -0.1065 -0.2000
  564SOL    HW1 1691   2.815   0.874   0.876 -2.5296 -1.8893  2.7765
  564SOL    HW2 1692   2.845   1.038   0.905  0.1979  1.4460  0.3961
  565SOL     OW 1693   0.523   1.143   0.046 -0.3785  0.2744  0.4035
  565SOL    HW1 1694   0.511   1.062   3.060  0.6293 -1.5093  0.2244
  565SOL    HW2 1695   0.471   1.138   0.134  0.1425 -0.2068 -0.8260
  566SOL     OW 1696   2.520   2.757   2.865 -0.3571 -0.0213  0.1830
  566SOL    HW1 1697   2.553   2.834   2.926 -1.7821  0.1690 -1.4961
  566SOL    HW2 1698   2.472   2.688   2.925  0.0773  1.8334 -1.3594
  567SOL     OW 1699   1.479   1.131   1.209  0.4266  0.1039 -0.2742
  567SOL    HW1 1700   1.556   1.186   1.170  1.6220 -0.9931  1.2732
  567SOL    HW2 1701   1.508   1.092   1.300 -1.1172 -0.8728 -3.5902
  568SOL     OW 1702   1.349   1.450   2.879  0.4874  0.0793  0.1205
  568SOL    HW1 1703   1.279   1.486   2.949  1.6324 -2.0382  0.9237
  568SOL    HW2 1704   1.304   1.420   2.790  2.0530 -1.1613 -2.2938
  569SOL     OW 1705   2.240   1.737   3.001  0.1594 -0.0282 -0.4529
  569SOL    HW1 1706   2.334   1.787   2.998  0.2823 -1.2235  0.8117
  569SOL    HW2 1707   2.167   1.785   3.061 -1.2759 -0.0600  0.1395
  570SOL     OW 1708   2.831   2.267   2.178 -0.7160  0.3768 -0.2425
  570SOL    HW1 1709   2.876   2.262   2.084  1.8102 -0.9946 -1.9940
  570SOL    HW2 1710   2.882   2.199   2.237 -0.8231  1.1303 -0.3180
  571SOL     OW 1711   2.862   1.904   1.756  0.1795  0.0538 -0.0433
  571SOL    HW1 1712   2.915   1.815   1.765  1.1550 -1.2193 -0.5720
  571SOL    HW2 1713   2.815   1.937   1.843  0.3682  0.1372 -1.7106
  572SOL     OW 1714   1.671   2.276   0.552 -0.2020  0.0616  0.2391
  572SOL    HW1 1715   1.612   2.362   0.547 -2.3861  0.5174 -2.8098
  572SOL    HW2 1716   1.706   2.256   0.459 -0.7404  1.3160  4.0042
  573SOL     OW 1717   1.401   1.878   0.529  0.1838  0.5524 -0.0546
  573SOL    HW1 1718   1.475   1.929   0.576  0.5469  0.1236 -1.0331
  573SOL    HW2 1719   1.312   1.899   0.574  0.2852  0.5221  0.2913
  574SOL     OW 1720   1.400   3.011   1.489  0.2221 -0.2643 -0.0863
  574SOL    HW1 1721   1.477   2.949   1.463  2.1923  0.3657 -0.1205
  574SOL    HW2 1722   1.418   3.054   1.583 -3.1303 -0.5911  1.4697
  575SOL     OW 1723   0.339   1.009   1.280 -0.5559 -0.2263 -0.0968
  575SOL    HW1 1724   0.393   0.935   1.325 -0.3490  0.8476 -1.6419
  575SOL    HW2 1725   0.367   1.103   1.310  1.1574  0.8448  0.8970
  576SOL     OW 1726   2.558   0.565   1.029 -0.0628 -0.7293  0.4799
  576SOL    HW1 1727   2.629   0.564   1.104 -0.4999  0.8991 -0.6585
  576SOL    HW2 1728   2.521   0.474   1.010 -0.6994  2.6642  0.6324
  577SOL     OW 1729   1.539   0.639   2.379  0.3127 -0.0414 -0.2209
  577SOL    HW1 1730   1.489   0.701   2.445 -1.9053  0.0192 -2.0836
  577SOL    HW2 1731   1.467   0.602   2.312 -2.8785 -2.2890 -1.0294
  578SOL     OW 1732   2.027   1.402   2.594 -0.0445 -0.1116  0.3541
  578SOL    HW1 1733   1.964   1.441   2.665 -0.8636  1.3155  1.6844
  578SOL    HW2 1734   2.103   1.468   2.571 -2.1101 -2.1484 -1.8555
  579SOL     OW 1735   0.615   1.608   1.264 -0.1253  0.6016  0.6294
  579SOL    HW1 1736   0.570   1.669   1.327 -0.1783  2.2332  1.1922
  579SOL    HW2 1737   0.545   1.537   1.236 -3.5229 -1.0604 -0.8346
  580SOL     OW 1738   1.450   2.371   0.209  0.2125 -0.4302 -0.0170
  580SOL    HW1 1739   1.467   2.440   0.132 -1.9636  1.9007 -2.6595
  580SOL    HW2 1740   1.534   2.321   0.211 -0.8310 -0.9241  0.0919
  581SOL     OW 1741   0.860   0.875   2.180  0.3892  0.5130 -0.4652
  581SOL    HW1 1742   0.796   0.899   2.105  1.8789 -0.5606  2.3270
  581SOL    HW2 1743   0.889   0.778   2.171  2.8123  0.8904 -0.2458
  582SOL     OW 1744   0.592   1.226   1.151 -0.1805  0.0988 -0.9876
  582SOL    HW1 1745   0.585   1.136   1.099  0.2246  1.6197  0.6732
  582SOL    HW2 1746   0.652   1.226   1.233 -1.6288 -1.3235 -2.8024
  583SOL     OW 1747   0.772   1.179   1.994 -0.1989 -0.0610  0.1381
  583SOL    HW1 1748   0.753   1.269   1.941 -2.9991  1.2081 -1.1846
  583SOL    HW2 1749   0.768   1.198   2.098 -2.6030  0.9485 -2.0625
  584SOL     OW 1750   2.159   2.699   0.369  0.0621  0.9071  0.6411
  584SOL    HW1 1751   2.058   2.696   0.362 -0.8748  0.6423 -1.1623
  584SOL    HW2 1752   2.185   2.779   0.424 -0.9636  0.2433 -1.2580
  585SOL     OW 1753   1.980   0.257   2.698  0.5994  0.5266 -0.3667
  585SOL    HW1 1754   1.984   0.154   2.713 -0.1544  0.9881  2.2404
  585SOL    HW2 1755   1.906   0.282   2.636 -0.8107 -2.3708  1.9266
  586SOL     OW 1756   0.146   1.733   0.346 -0.8263 -0.1936  0.0731
  586SOL    HW1 1757   0.087   1.759   0.420  1.2820 -0.5593 -0.3246
  586SOL    HW2 1758   0.086   1.676   0.289  1.4667  1.5450  0.9591
  587SOL     OW 1759   1.784   1.863   0.676 -0.2886 -0.1739 -0.0074
  587SOL    HW1 1760   1.765   1.767   0.707 -1.3518 -0.4747 -2.2903
  587SOL    HW2 1761   1.883   1.886   0.671  1.4563 -0.8875  0.4421
  588SOL     OW 1762   0.365   0.276   0.915  0.5505  0.1608 -0.3492
  588SOL    HW1 1763   0.319   0.231   0.997  0.0570 -1.3085  0.1750
  588SOL    HW2 1764   0.387   0.197   0.853 -0.9065 -1.3022 -0.0253
  589SOL     OW 1765   1.088   0.741   0.982 -0.3370  0.4696 -0.4678
  589SOL    HW1 1766   1.133   0.733   0.890 -0.4510  0.9997 -0.1026
  589SOL    HW2 1767   1.133   0.808   1.041  2.8656  0.2625 -0.7288
  590SOL     OW 1768   1.373   1.030   0.220 -0.1014  0.1309 -0.5216
  590SOL    HW1 1769   1.431   1.116   0.212  0.4930  0.9387  1.2933
  590SOL    HW2 1770   1.298   1.052   0.286 -2.7841 -0.4291 -1.0725
  591SOL     OW 1771   2.614   2.671   2.431  0.2319 -0.4111 -0.4456
  591SOL    HW1 1772   2.541   2.682   2.355 -0.2293 -1.9409 -2.1534
  591SOL    HW2 1773   2.689   2.614   2.403 -2.9461  3.2299 -2.0823
  592SOL     OW 1774   1.502   1.971   0.885 -0.0296  0.1798  0.3515
  592SOL    HW1 1775   1.521   1.981   0.783 -1.2183 -0.2846 -0.4559
  592SOL    HW2 1776   1.576   2.011   0.947  2.5392 -0.8829  2.2433
  593SOL     OW 1777   1.134   0.103   0.993 -0.6615 -0.3815 -0.2569
  593SOL    HW1 1778   1.162   0.013   0.977 -0.0805  1.6447 -1.3865
  593SOL    HW2 1779   1.205   0.148   1.054 -0.7584 -0.3131 -1.7295
  594SOL     OW 1780   2.882   0.839   2.293  0.4630  0.1506  0.5918
  594SOL    HW1 1781   2.917   0.897   2.215  1.3636 -2.8378  0.3340
  594SOL    HW2 1782   2.916   0.746   2.294 -1.6087  2.7759 -0.5361
  595SOL     OW 1783   0.468   2.523   1.189  0.0512 -0.1549 -0.2317
  595SOL    HW1 1784   0.430   2.576   1.112 -1.1771 -1.2164 -3.3612
  595SOL    HW2 1785   0.447   2.566   1.278  1.0627  0.7829 -2.3140
  596SOL     OW 1786   0.081   0.807   1.411 -0.3841 -0.1653 -0.4146
  596SOL    HW1 1787   0.114   0.787   1.317 -1.4682 -0.2817  1.2155
  596SOL    HW2 1788   0.023   0.727   1.441 -1.0693 -1.5808 -0.9408
  597SOL     OW 1789   1.753   1.843   0.254  0.4490  0.1775 -0.0466
  597SOL    HW1 1790   1.684   1.833   0.327 -1.9388 -0.2690  0.0971
  597SOL    HW2 1791   1.842   1.811   0.292  2.7732  1.5629  0.6793
  598SOL     OW 1792   0.400   2.789   1.713 -0.2795 -0.0986  0.8133
  598SOL    HW1 1793   0.394   2.799   1.612  0.7624 -1.4164  1.4992
  598SOL    HW2 1794   0.492   2.745   1.732 -0.4628 -0.7520 -1.1931
  599SOL     OW 1795   2.510   1.982   2.765 -0.2539 -0.0859 -0.4499
  599SOL    HW1 1796   2.412   1.995   2.735  0.3592 -1.0167 -3.9262
  599SOL    HW2 1797   2.515   1.945   2.861 -1.5932  2.6647  0.0447
  600SOL     OW 1798   0.700   0.770   0.248  0.1256 -0.1225  0.0425
  600SOL    HW1 1799   0.690   0.872   0.248 -2.0613 -3.6690 -1.0644
  600SOL    HW2 1800   0.764   0.746   0.323 -1.0824  2.9688 -0.3294
  601SOL     OW 1801   0.832   0.725   0.491 -0.5022 -0.2944 -0.2679
  601SOL    HW1 1802   0.876   0.810   0.525  1.1017  1.1194  1.0963
  601SOL    HW2 1803   0.773   0.683   0.562 -0.1322  1.5516 -2.0823
  602SOL     OW 1804   1.461   2.839   0.860 -0.1006 -0.3934 -0.2043
  602SOL    HW1 1805   1.519   2.926   0.872  1.0098  3.1995 -1.2433
  602SOL    HW2 1806   1.457   2.817   0.760  0.6494 -0.9697 -1.3059
  603SOL     OW 1807   0.653   2.617   2.145  0.0525  0.1492 -0.3820
  603SOL    HW1 1808   0.599   2.699   2.120  1.2987  2.2600 -0.3858
  603SOL    HW2 1809   0.752   2.635   2.128  0.3290 -3.5000  3.6887
  604SOL     OW 1810   0.116   0.058   2.302 -0.1059 -0.6079 -0.4716
  604SOL    HW1 1811   0.087   3.062   2.242 -0.9659  1.9604  1.2584
  604SOL    HW2 1812   0.212   0.042   2.338 -0.6664 -1.5235 -0.0579
  605SOL     OW 1813   2.703   2.007   1.274  0.0588  0.1490  0.0584
  605SOL    HW1 1814   2.625   2.047   1.222 -1.4274 -2.6901  3.1126
  605SOL    HW2 1815   2.691   2.004   1.373 -0.7813  0.2402 -1.1111
  606SOL     OW 1816   0.380   1.527   2.934  0.5131  0.2293 -0.1686
  606SOL    HW1 1817   0.380   1.621   2.977 -0.1388 -0.1727 -0.6188
  606SOL    HW2 1818   0.388   1.542   2.833 -3.2738 -0.2823  1.8947
  607SOL     OW 1819   0.901   0.125   0.291 -0.2715 -0.7432  0.4107
  607SOL    HW1 1820   0.803   0.128   0.264  2.8219  0.3883 -1.2531
  607SOL    HW2 1821   0.958   0.181   0.225 -0.1720  0.1893 -0.5166
  608SOL     OW 1822   1.601   1.121   2.324  0.4175  0.1019 -0.4689
  608SOL    HW1 1823   1.648   1.135   2.409 -1.2443  1.6431  0.4778
  608SOL    HW2 1824   1.604   1.020   2.310 -2.4824 -0.8727  1.6254
  609SOL     OW 1825   3.012   0.171   0.904 -0.2828 -0.1133 -0.2047
  609SOL    HW1 1826   3.075   0.115   0.963 -0.6800  1.0505 -1.7828
  609SOL    HW2 1827   2.986   0.263   0.945 -1.4538  1.5034  0.4116
  610SOL     OW 1828   0.507   2.684   0.580 -0.0881  0.1084 -0.0848
  610SOL    HW1 1829   0.601   2.660   0.546  0.5345  2.3015 -0.0151
  610SOL    HW2 1830   0.532   2.743   0.661  0.6405 -0.5932 -0.4593
  611SOL     OW 1831   1.495   1.080   2.806 -0.7682 -0.5599  0.1421
  611SOL    HW1 1832   1.536   0.988   2.821 -1.5011 -2.5885 -3.1667
  611SOL    HW2 1833   1.516   1.136   2.888  0.8275 -0.9672  3.4927
  612SOL     OW 1834   0.935   2.114   2.439  0.8631 -0.1143  0.4409
  612SOL    HW1 1835   0.890   2.061   2.513  1.9668  0.6160  0.7265
  612SOL    HW2 1836   0.937   2.215   2.468  0.9947  0.9271 -0.1815
  613SOL     OW 1837   1.204   2.301   0.161  0.4281 -0.1919 -0.3054
  613SOL    HW1 1838   1.297   2.339   0.186  1.3559  0.2840 -1.2321
  613SOL    HW2 1839   1.208   2.228   0.094 -1.4869  1.4652 -0.6703
  614SOL     OW 1840   2.559   3.042   1.467  0.4640  0.1807  0.1138
  614SOL    HW1 1841   2.639   3.024   1.407 -0.6851 -0.1853  0.5934
  614SOL    HW2 1842   2.590   3.060   1.561 -5.0459  1.1623  0.5224
  615SOL     OW 1843   2.220   1.476   3.023  0.4814 -0.4963 -0.2546
  615SOL    HW1 1844   2.224   1.580   3.012 -1.3960  2.9859  1.3355
  615SOL    HW2 1845   2.311   1.445   3.061  4.0112  1.0401  0.6590
  616SOL     OW 1846   1.407   0.036   0.413 -0.0366 -0.0218  0.0342
  616SOL    HW1 1847   1.309   0.030   0.447 -1.9279  2.3439  2.3995
  616SOL    HW2 1848   1.470   0.076   0.483  1.8255  1.9270 -1.3287
  617SOL     OW 1849   0.834   1.031   0.188  0.1396 -0.2205  0.4293
  617SOL    HW1 1850   0.829   1.000   0.093  0.5584 -2.4451  2.2457
  617SOL    HW2 1851   0.802   1.129   0.194 -1.3555  1.3767  0.6663
  618SOL     OW 1852   0.727   0.358   1.976  0.0520  0.1437  0.2050
  618SOL    HW1 1853   0.665   0.348   2.056 -1.5575  0.1018 -0.6591
  618SOL    HW2 1854   0.681   0.385   1.890  0.1937 -3.0266 -0.7070
  619SOL     OW 1855   3.060   1.058   1.434 -0.0968  0.0475 -0.1428
  619SOL    HW1 1856   0.013   0.960   1.440 -0.3839 -0.1137  1.3891
  619SOL    HW2 1857   3.044   1.093   1.339 -1.2936  0.0245  0.4190
  620SOL     OW 1858   1.932   1.129   2.805  0.6566 -0.2126  0.3660
  620SOL    HW1 1859   2.021   1.178   2.826 -0.8908  0.6316  0.6576
  620SOL    HW2 1860   1.941   1.057   2.734 -0.9874  0.8066 -0.9465
  621SOL     OW 1861   2.438   2.642   1.196 -0.3319 -1.1102 -0.4916
  621SOL    HW1 1862   2.453   2.701   1.117 -1.4150 -2.1482  1.6392
  621SOL    HW2 1863   2.437   2.698   1.286 -1.2050  3.0042 -1.4892
  622SOL     OW 1864   1.405   0.780   2.580 -0.0952  0.8725  0.3927
  622SOL    HW1 1865   1.412   0.874   2.551  1.3440 -3.7824  0.8476
  622SOL    HW2 1866   1.391   0.767   2.682  0.2586 -1.9153  0.6505
  623SOL     OW 1867   1.172   0.398   2.969  0.3652 -0.3047 -0.2764
  623SOL    HW1 1868   1.126   0.465   2.905 -1.5294  0.7505 -1.7826
  623SOL    HW2 1869   1.230   0.334   2.918  0.7621  1.3611  0.3720
  624SOL     OW 1870   1.754   0.481   3.061 -0.5959 -0.2224  0.5910
  624SOL    HW1 1871   1.758   0.560   0.046 -2.7497  0.2649  1.0626
  624SOL    HW2 1872   1.845   0.472   3.011  1.5853  0.3278  0.4957
  625SOL     OW 1873   0.916   1.233   0.987  0.4540  0.1277 -0.3978
  625SOL    HW1 1874   0.939   1.152   1.048 -1.4046 -2.9076  3.6610
  625SOL    HW2 1875   0.920   1.320   1.033  0.2053 -0.1110 -2.2419
  626SOL     OW 1876   1.518   1.286   3.001  0.0380 -0.2699  0.5779
  626SOL    HW1 1877   1.506   1.292   0.021 -1.4281 -1.9967 -0.2635
  626SOL    HW2 1878   1.448   1.343   2.953  2.2393  1.4357 -2.1920
  627SOL     OW 1879   0.898   2.673   2.079 -0.1299 -0.1211  0.7012
  627SOL    HW1 1880   0.856   2.622   2.004 -0.6957  4.1497  1.1420
  627SOL    HW2 1881   0.960   2.750   2.052 -1.7205  0.0526 -1.6938
  628SOL     OW 1882   2.379   0.200   2.185 -0.3454 -0.0286 -0.2634
  628SOL    HW1 1883   2.464   0.236   2.138 -1.0183 -0.1619  0.7499
  628SOL    HW2 1884   2.397   0.113   2.238 -1.2753 -1.1508 -0.7047
  629SOL     OW 1885   0.779   0.960   3.010  0.0330 -0.0430 -0.0390
  629SOL    HW1 1886   0.857   0.900   2.979 -0.0014  2.1590 -0.2277
  629SOL    HW2 1887   0.690   0.921   2.986 -1.4503 -1.2202 -0.1374
  630SOL     OW 1888   1.233   0.185   2.154  0.1733 -0.6672 -0.9493
  630SOL    HW1 1889   1.147   0.212   2.206 -1.4378  0.3008  0.9407
  630SOL    HW2 1890   1.297   0.123   2.208 -0.2585 -0.8514 -0.2855
  631SOL     OW 1891   2.830   0.539   0.726  0.0646 -0.2574  0.3816
  631SOL    HW1 1892   2.797   0.622   0.771  1.4036  0.1340  0.7034
  631SOL    HW2 1893   2.893   0.560   0.646  0.5236  1.2761 -2.3037
  632SOL     OW 1894   2.195   1.053   1.162  0.1538  0.0169 -0.0246
  632SOL    HW1 1895   2.104   1.010   1.183 -3.5692 -3.1407  0.7036
  632SOL    HW2 1896   2.261   0.992   1.122  1.8670  0.5630  1.1655
  633SOL     OW 1897   1.252   0.764   0.758  0.4760  0.3716  0.3252
  633SOL    HW1 1898   1.203   0.847   0.729  0.3336  0.9351  0.5871
  633SOL    HW2 1899   1.351   0.769   0.743  0.6279  2.1953 -2.4723
  634SOL     OW 1900   1.870   3.050   0.724 -0.2452 -0.1208 -0.2174
  634SOL    HW1 1901   1.933   3.058   0.800 -2.2359  1.0030 -0.6422
  634SOL    HW2 1902   1.778   3.073   0.756 -0.1670 -2.1941  0.2030
  635SOL     OW 1903   1.637   0.911   1.076 -0.0009  0.3139  0.1150
  635SOL    HW1 1904   1.587   0.915   0.988  0.9298  2.2509  0.7228
  635SOL    HW2 1905   1.574   0.965   1.137 -0.1130  0.1934  0.2428
  636SOL     OW 1906   0.631   0.390   0.730  0.1448  0.2940  0.2495
  636SOL    HW1 1907   0.634   0.401   0.831 -1.7836 -2.5679  0.0646
  636SOL    HW2 1908   0.717   0.343   0.699 -0.3665 -0.6425 -2.3863
  637SOL     OW 1909   2.013   2.375   0.440  0.2753  0.3232  0.5773
  637SOL    HW1 1910   2.060   2.377   0.532 -1.9734  0.7163 -2.1430
  637SOL    HW2 1911   2.079   2.385   0.361 -0.7452 -1.7487 -1.9225
  638SOL     OW 1912   1.635   2.835   2.578 -0.5080 -0.0649  0.3971
  638SOL    HW1 1913   1.646   2.848   2.677  0.6239 -1.8773 -1.9964
  638SOL    HW2 1914   1.701   2.760   2.547  2.0245 -1.2302  1.4140
  639SOL     OW 1915   0.830   2.104   1.263  0.2309 -0.0186 -0.1040
  639SOL    HW1 1916   0.881   2.186   1.303 -1.0076 -0.0919 -0.8872
  639SOL    HW2 1917   0.755   2.143   1.201  1.2182 -0.3550  1.1835
  640SOL     OW 1918   0.258   2.619   0.251 -0.2195 -0.2627 -0.1918
  640SOL    HW1 1919   0.189   2.687   0.261  1.3030 -0.4327  1.4504
  640SOL    HW2 1920   0.302   2.593   0.338  0.2400  0.6490  0.7239
  641SOL     OW 1921   0.113   0.256   0.028 -0.3045  0.0609  0.0659
  641SOL    HW1 1922   0.146   0.170   0.071  2.9259  0.5819  2.8892
  641SOL    HW2 1923   0.178   0.295   3.037 -1.3884 -0.3033 -3.4325
  642SOL     OW 1924   0.054   0.962   0.959  0.0008  0.2538  0.0802
  642SOL    HW1 1925   3.037   0.954   0.927 -1.3052  1.4524 -1.8338
  642SOL    HW2 1926   0.116   0.985   0.880  0.1099  2.6827 -0.9940
  643SOL     OW 1927   0.627   1.863   2.000  0.3130 -0.1930 -0.3774
  643SOL    HW1 1928   0.661   1.912   2.083  1.1996  1.5311  3.4303
  643SOL    HW2 1929   0.698   1.816   1.952 -2.3946 -1.1908  3.6467
  644SOL     OW 1930   1.823   2.549   0.501 -0.0519  0.3286  0.1109
  644SOL    HW1 1931   1.893   2.476   0.469  0.0246 -0.1380 -0.6767
  644SOL    HW2 1932   1.732   2.508   0.527  0.1795  0.4795  0.0797
  645SOL     OW 1933   1.657   2.533   0.877  0.1288 -0.1700  0.2843
  645SOL    HW1 1934   1.701   2.612   0.929  1.8485  0.2902  0.3989
  645SOL    HW2 1935   1.555   2.548   0.882 -1.8457  1.8023 -0.1509
  646SOL     OW 1936   1.387   2.718   0.199 -0.0928 -0.3673  0.0136
  646SOL    HW1 1937   1.343   2.671   0.277  0.3994 -0.8038  0.3715
  646SOL    HW2 1938   1.332   2.798   0.171  0.1159  1.9057  0.1483
  647SOL     OW 1939   0.380   2.973   1.926 -0.4640 -0.4853  0.3322
  647SOL    HW1 1940   0.289   3.019   1.938  0.4591 -1.6441 -0.1593
  647SOL    HW2 1941   0.373   2.905   1.852  1.5110  0.2236  1.9361
  648SOL     OW 1942   1.911   0.926   1.173  0.1507 -0.8009  0.7439
  648SOL    HW1 1943   1.937   0.873   1.262  1.6610  0.8425  1.9023
  648SOL    HW2 1944   1.811   0.923   1.158 -2.2395  0.1596 -0.6298
  649SOL     OW 1945   1.665   2.058   2.798  0.3187  0.6513  0.0389
  649SOL    HW1 1946   1.755   2.005   2.803  2.8675 -1.9183 -0.5707
  649SOL    HW2 1947   1.646   2.096   2.892 -0.0122 -1.1366 -0.2423
  650SOL     OW 1948   2.538   1.722   1.859  0.1049 -0.1828 -0.2779
  650SOL    HW1 1949   2.617   1.654   1.868 -0.6235 -0.7612  0.8620
  650SOL    HW2 1950   2.535   1.791   1.932 -2.0537 -2.7692  0.7435
  651SOL     OW 1951   1.391   1.791   2.826  0.1702  0.3030 -0.0733
  651SOL    HW1 1952   1.457   1.716   2.852 -0.0091 -1.4666 -2.5003
  651SOL    HW2 1953   1.413   1.833   2.736  0.9830 -1.0778 -0.9084
  652SOL     OW 1954   0.961   2.865   2.782 -0.1149 -0.0849 -0.0143
  652SOL    HW1 1955   0.986   2.770   2.763 -2.1391  1.2115  2.3105
  652SOL    HW2 1956   1.037   2.913   2.825  1.0328 -1.6132 -1.3671
  653SOL     OW 1957   2.059   2.234   1.193 -0.0001 -0.0410 -0.0221
  653SOL    HW1 1958   2.141   2.177   1.176 -0.2817 -2.8372 -1.4475
  653SOL    HW2 1959   1.991   2.235   1.116  0.2760  0.5368  1.7690
  654SOL     OW 1960   2.719   2.610   1.881 -0.2082  0.0130 -0.1416
  654SOL    HW1 1961   2.691   2.579   1.789  0.5402  0.9761 -2.0954
  654SOL    HW2 1962   2.679   2.552   1.959 -0.5254 -1.3750  0.6691
  655SOL     OW 1963   2.914   2.100   1.114 -0.6614  0.0772  0.8208
  655SOL    HW1 1964   2.869   2.116   1.019 -1.3560 -2.6883 -1.7031
  655SOL    HW2 1965   2.842   2.076   1.184 -0.4303 -1.4738  0.1531
  656SOL     OW 1966   0.308   2.467   2.727  0.0757  0.2866 -0.5510
  656SOL    HW1 1967   0.358   2.453   2.643  1.6991  2.4322  3.9366
  656SOL    HW2 1968   0.275   2.382   2.764  0.5146  3.3172 -0.5039
  657SOL     OW 1969   2.899   0.842   0.492  0.0014  0.1288  0.1829
  657SOL    HW1 1970   2.938   0.746   0.486 -1.5580 -2.0224 -4.1958
  657SOL    HW2 1971   2.800   0.844   0.471  2.9339  2.4713 -1.2127
  658SOL     OW 1972   1.466   1.693   0.971  0.1034 -0.6124  0.1494
  658SOL    HW1 1973   1.397   1.685   1.044 -0.4091 -1.0906 -1.6005
  658SOL    HW2 1974   1.491   1.787   0.947  1.2868  1.1909 -1.5254
  659SOL     OW 1975   1.516   0.441   1.193 -0.1244 -0.3472 -0.3323
  659SOL    HW1 1976   1.558   0.359   1.238 -0.7122  2.1166  3.3975
  659SOL    HW2 1977   1.499   0.434   1.093  0.6380 -0.5552  0.1437
  660SOL     OW 1978   1.706   1.244   0.479 -0.1466  0.0600 -0.2211
  660SOL    HW1 1979   1.724   1.147   0.439  2.1405  0.6516 -0.6356
  660SOL    HW2 1980   1.605   1.259   0.496 -0.9241  2.9969 -0.6112
  661SOL     OW 1981   0.356   1.556   0.256  0.1680  0.1836  0.5070
  661SOL    HW1 1982   0.310   1.491   0.189  1.0778 -0.1888 -0.7560
  661SOL    HW2 1983   0.283   1.610   0.299 -0.0376 -2.6402  0.2761
  662SOL     OW 1984   3.027   1.130   2.177  0.0654  0.0533 -0.0645
  662SOL    HW1 1985   3.017   1.169   2.084 -1.5682 -0.9175  2.7442
  662SOL    HW2 1986   2.981   1.189   2.245 -1.4288 -2.8163 -0.7952
  663SOL     OW 1987   2.198   1.494   1.289  0.4526  0.4728  0.8806
  663SOL    HW1 1988   2.232   1.587   1.278 -1.3843 -0.4539 -2.0824
  663SOL    HW2 1989   2.235   1.446   1.371  0.8738 -1.2846 -0.7182
  664SOL     OW 1990   0.656   0.003   1.012  0.0057  1.2767  0.3456
  664SOL    HW1 1991   0.732   3.022   1.043  1.3672 -0.0603 -2.2499
  664SOL    HW2 1992   0.580   0.012   1.080  0.4878  2.8130  0.2346
  665SOL     OW 1993   1.211   3.003   2.660 -0.0403 -0.3891 -0.3050
  665SOL    HW1 1994   1.310   3.001   2.624  0.0041 -1.4490 -1.0252
  665SOL    HW2 1995   1.196   3.018   2.760  0.0162 -0.0771 -2.1408
  666SOL     OW 1996   0.329   0.625   2.161  0.0017  0.2134  0.5246
  666SOL    HW1 1997   0.359   0.580   2.077  0.4536  2.4510 -1.9517
  666SOL    HW2 1998   0.275   0.566   2.214  2.1053  4.1546 -0.5372
  667SOL     OW 1999   1.802   1.418   2.328 -0.1746 -0.1699  0.1239
  667SOL    HW1 2000   1.884   1.435   2.268 -1.4436 -0.7037  0.5319
  667SOL    HW2 2001   1.819   1.335   2.385  1.2577 -0.4184 -0.6974
  668SOL     OW 2002   0.051   1.578   2.689  0.3955  0.1805  0.0314
  668SOL    HW1 2003   0.063   1.481   2.727  0.5210 -1.6677 -1.4987
  668SOL    HW2 2004   0.033   1.642   2.762  0.1907 -2.0431 -4.3812
  669SOL     OW 2005   2.290   3.003   2.416  0.6785 -0.0103  0.1430
  669SOL    HW1 2006   2.373   3.034   2.373  2.7667  3.8150 -3.8553
  669SOL    HW2 2007   2.303   2.967   2.511 -2.3325  0.9354 -0.4907
  670SOL     OW 2008   2.719   1.093   2.430  0.3652 -0.6038 -0.7884
  670SOL    HW1 2009   2.795   1.037   2.402 -0.1602  0.4137  2.4273
  670SOL    HW2 2010   2.657   1.055   2.503  1.7502  2.8238 -1.6162
  671SOL     OW 2011   2.477   1.899   3.018 -0.2777  0.1863  0.0102
  671SOL    HW1 2012   2.476   1.981   3.079 -1.3103 -2.0375 -1.5053
  671SOL    HW2 2013   2.566   1.843   3.042  1.5815 -1.6160  0.6937
  672SOL     OW 2014   2.437   1.483   2.277  0.0053 -0.4153  0.1725
  672SOL    HW1 2015   2.409   1.458   2.372 -2.2258  2.2153 -3.2928
  672SOL    HW2 2016   2.360   1.521   2.222 -2.2587  2.7860 -0.5439
  673SOL     OW 2017   2.788   1.495   0.962 -0.1189  0.2867 -0.0973
  673SOL    HW1 2018   2.745   1.582   0.934 -1.6221 -1.1017  2.0437
  673SOL    HW2 2019   2.884   1.507   0.989  1.2228 -0.9776  1.2756
  674SOL     OW 2020   1.324   1.748   2.033 -0.4272 -0.0637  0.2057
  674SOL    HW1 2021   1.400   1.819   2.021 -2.3921 -1.4438  1.8125
  674SOL    HW2 2022   1.295   1.719   1.940  0.2625 -1.6554  0.9517
  675SOL     OW 2023   2.781   0.529   1.183  0.1365  0.0534  0.2277
  675SOL    HW1 2024   2.850   0.489   1.120  0.5745  1.7146  0.6549
  675SOL    HW2 2025   2.791   0.493   1.278  0.3237 -0.1302 -0.8783
  676SOL     OW 2026   2.774   1.287   0.560 -0.0640  0.2031  0.3919
  676SOL    HW1 2027   2.689   1.289   0.620  0.2949  4.0567 -1.3775
  676SOL    HW2 2028   2.834   1.211   0.599  2.2587 -1.8123  1.6584
  677SOL     OW 2029   1.614   1.462   2.143 -0.0403 -0.2977  0.0031
  677SOL    HW1 2030   1.687   1.456   2.217 -2.8394  1.2283 -1.4583
  677SOL    HW2 2031   1.601   1.371   2.099  0.2972  3.4922 -1.0256
  678SOL     OW 2032   2.526   1.335   0.976 -0.3427  0.0825  0.4950
  678SOL    HW1 2033   2.561   1.427   1.013  0.9393  1.6649  1.1733
  678SOL    HW2 2034   2.439   1.300   1.023  2.8373 -3.4716  0.3273
  679SOL     OW 2035   0.420   2.598   0.916  0.1325 -0.0403 -0.3330
  679SOL    HW1 2036   0.513   2.609   0.874  1.6406 -0.1739  1.2725
  679SOL    HW2 2037   0.381   2.509   0.894 -2.3938 -0.4790 -1.5727
  680SOL     OW 2038   2.821   1.770   1.158 -0.2535  0.1245 -0.0168
  680SOL    HW1 2039   2.863   1.721   1.237 -1.1155 -1.0280  1.4497
  680SOL    HW2 2040   2.769   1.851   1.191  0.6498 -2.0344  0.6917
  681SOL     OW 2041   0.829   0.873   1.260 -0.4278 -0.1718  0.1604
  681SOL    HW1 2042   0.882   0.866   1.352  0.5501  0.1896 -1.3128
  681SOL    HW2 2043   0.787   0.788   1.243  1.9007 -0.5944  2.2994
  682SOL     OW 2044   1.608   0.009   0.779  0.0916 -0.0064  0.4069
  682SOL    HW1 2045   1.581   0.048   0.865 -0.3988  0.9430 -0.0964
  682SOL    HW2 2046   1.579   0.064   0.703  0.5500 -2.8555  2.5027
  683SOL     OW 2047   2.503   1.420   1.638  0.0520  0.1575 -0.1224
  683SOL    HW1 2048   2.513   1.517   1.611 -0.5926  1.2730 -1.0617
  683SOL    HW2 2049   2.593   1.373   1.630 -2.3214  2.0090  0.0887
  684SOL     OW 2050   0.131   1.637   1.528  0.0401  0.0815  0.9060
  684SOL    HW1 2051   0.077   1.564   1.571  0.4695 -1.6846  3.1655
  684SOL    HW2 2052   0.203   1.658   1.599  1.4088 -0.5273  1.2400
  685SOL     OW 2053   2.054   1.770   0.366 -0.0390 -0.1665  0.6455
  685SOL    HW1 2054   2.057   1.812   0.462 -0.3827 -0.9781  0.4412
  685SOL    HW2 2055   2.085   1.674   0.369 -2.0931  1.6054 -0.8315
  686SOL     OW 2056   2.720   0.128   0.916  0.2982  0.2981  0.3681
  686SOL    HW1 2057   2.821   0.115   0.933  2.7042 -2.6972 -0.3153
  686SOL    HW2 2058   2.714   0.196   0.837 -3.6930 -1.8754 -1.1805
  687SOL     OW 2059   1.456   3.049   2.560 -0.5117  0.1146 -0.3164
  687SOL    HW1 2060   1.499   0.038   2.621  3.7765  1.0681 -0.5551
  687SOL    HW2 2061   1.525   2.976   2.540 -0.3624 -0.8008  0.4584
  688SOL     OW 2062   1.599   1.871   2.409  0.3732  0.0005  0.0140
  688SOL    HW1 2063   1.639   1.789   2.455  2.5296 -0.8105 -0.1906
  688SOL    HW2 2064   1.584   1.864   2.309 -1.3688  0.3069  0.3440
  689SOL     OW 2065   2.729   1.197   1.942  0.0862  0.2607  0.0737
  689SOL    HW1 2066   2.724   1.279   1.998  0.3480 -3.1621 -3.2551
  689SOL    HW2 2067   2.826   1.183   1.916 -0.2204 -0.1634 -3.0854
  690SOL     OW 2068   1.668   2.057   1.087 -0.2343  0.8067 -0.6861
  690SOL    HW1 2069   1.650   2.090   1.181  2.7175 -1.1228  0.0628
  690SOL    HW2 2070   1.726   1.969   1.085  0.3769 -0.0342 -1.5349
  691SOL     OW 2071   0.456   1.432   1.027  0.0128  0.1176 -0.0461
  691SOL    HW1 2072   0.481   1.342   1.063 -0.4163 -1.3689  1.1017
  691SOL    HW2 2073   0.358   1.448   1.006 -1.8242 -1.1611 -1.3978
  692SOL     OW 2074   2.445   2.932   2.058 -0.3018  0.1271  1.0675
  692SOL    HW1 2075   2.355   2.972   2.028 -0.9867 -0.4239  1.4444
  692SOL    HW2 2076   2.494   2.888   1.976  3.0633 -1.4506 -0.5658
  693SOL     OW 2077   0.019   1.475   2.426 -0.4860  0.3649  0.1923
  693SOL    HW1 2078   0.057   1.512   2.514 -0.0423 -2.2765  0.6474
  693SOL    HW2 2079   0.078   1.399   2.388 -0.2566 -3.5798 -0.9813
  694SOL     OW 2080   1.932   0.390   1.149  0.0732 -0.0928  0.3023
  694SOL    HW1 2081   1.976   0.365   1.238  2.6819 -0.7873  2.0568
  694SOL    HW2 2082   1.916   0.492   1.147 -0.0457 -0.2848  1.4755
  695SOL     OW 2083   1.220   0.881   0.022 -0.1589  0.2186 -0.2442
  695SOL    HW1 2084   1.177   0.810   0.076  2.1587 -0.6570 -2.5322
  695SOL    HW2 2085   1.283   0.935   0.083 -0.6148 -1.2093  0.2400
  696SOL     OW 2086   1.893   0.169   1.817  0.0609 -0.6547 -0.2868
  696SOL    HW1 2087   1.889   0.222   1.905  2.7238 -0.4651 -0.6386
  696SOL    HW2 2088   1.815   0.183   1.757  4.5085  1.0215 -0.2940
  697SOL     OW 2089   1.600   0.157   2.094  0.0523 -0.2196  0.5095
  697SOL    HW1 2090   1.574   0.210   2.180  0.0641 -2.9052  0.8295
  697SOL    HW2 2091   1.648   0.213   2.027 -0.3290 -0.9863  0.4685
  698SOL     OW 2092   1.721   1.643   2.481 -0.3430  0.5001  0.0924
  698SOL    HW1 2093   1.685   1.606   2.566  2.4597  1.1386  0.3607
  698SOL    HW2 2094   1.741   1.564   2.419 -3.2748  0.2773 -1.0644
  699SOL     OW 2095   1.793   0.655   0.410  0.2084  0.1696  0.0317
  699SOL    HW1 2096   1.784   0.665   0.307  2.0843  1.1952  2.7959
  699SOL    HW2 2097   1.700   0.632   0.449  1.7180 -1.2147  1.8553
  700SOL     OW 2098   1.486   2.974   3.071  0.1694  0.0977  0.0711
  700SOL    HW1 2099   1.544   2.995   0.069 -0.0922  1.7808 -1.4739
  700SOL    HW2 2100   1.391   2.962   0.020  2.0774  1.4545 -1.6414
  701SOL     OW 2101   0.100   0.415   1.217 -0.4789  0.1563 -0.4941
  701SOL    HW1 2102   0.109   0.491   1.156  1.2560 -4.0225  0.9192
  701SOL    HW2 2103   0.006   0.376   1.226  2.0740  0.0610  0.3199
  702SOL     OW 2104   1.778   0.150   1.441  0.1362  0.1248 -0.1453
  702SOL    HW1 2105   1.737   0.156   1.535 -0.6136  1.2997  0.7466
  702SOL    HW2 2106   1.806   0.050   1.423  0.7485 -0.2952 -1.7184
  703SOL     OW 2107   2.821   0.804   1.289 -0.0160 -0.2687 -0.2021
  703SOL    HW1 2108   2.765   0.734   1.239 -0.3415 -0.5765  0.0792
  703SOL    HW2 2109   2.803   0.897   1.252 -1.5767 -3.7025  1.4543
  704SOL     OW 2110   0.924   2.339   1.388  0.3246 -0.1926  0.3833
  704SOL    HW1 2111   1.001   2.328   1.458  2.5156 -0.6362  0.7700
  704SOL    HW2 2112   0.839   2.371   1.435  6.1734 -3.6300 -1.1231
  705SOL     OW 2113   0.265   1.642   2.291  0.2689  0.0622 -0.0110
  705SOL    HW1 2114   0.311   1.672   2.205  0.3265 -0.9598  0.3728
  705SOL    HW2 2115   0.300   1.699   2.372 -0.6806  1.5408  0.0716
  706SOL     OW 2116   2.584   0.435   2.739 -0.0177  0.4524 -0.5756
  706SOL    HW1 2117   2.502   0.390   2.698  2.0334  0.6005  0.1821
  706SOL    HW2 2118   2.623   0.380   2.816 -0.6947  1.9347 -0.3146
  707SOL     OW 2119   1.783   2.621   2.231 -0.3489  0.3269 -0.2067
  707SOL    HW1 2120   1.855   2.671   2.185  0.1213 -0.4809  1.3285
  707SOL    HW2 2121   1.701   2.676   2.249  1.7379  1.3453  0.4897
  708SOL     OW 2122   0.514   2.275   1.697  0.3057 -0.4492 -0.6664
  708SOL    HW1 2123   0.553   2.189   1.739  1.9470  1.7290  1.5335
  708SOL    HW2 2124   0.480   2.332   1.782 -1.0729  1.5224  4.0087
  709SOL     OW 2125   0.031   0.865   1.859  0.0435  0.8081 -0.4057
  709SOL    HW1 2126   0.107   0.851   1.789  1.9074 -1.2588  1.9263
  709SOL    HW2 2127   3.044   0.788   1.848 -0.8159  0.9548 -1.1056
  710SOL     OW 2128   0.062   0.436   1.476 -0.0817  0.6504 -0.4410
  710SOL    HW1 2129   0.100   0.434   1.384  1.2883  2.5173  1.4993
  710SOL    HW2 2130   3.065   0.505   1.481 -0.3699  0.0325 -0.5742
  711SOL     OW 2131   3.066   2.576   1.161  0.2704 -0.0766  0.1035
  711SOL    HW1 2132   3.059   2.479   1.190  2.2976  0.1384  0.5150
  711SOL    HW2 2133   0.024   2.595   1.066  0.5881 -3.2332  0.2395
  712SOL     OW 2134   0.369   0.267   2.346  0.8082  0.7718 -0.3069
  712SOL    HW1 2135   0.384   0.173   2.384 -0.6549 -0.3484 -0.2125
  712SOL    HW2 2136   0.322   0.326   2.415 -1.6558 -0.9780 -1.5469
  713SOL     OW 2137   2.356   0.241   0.367  0.2769  0.1047 -0.6309
  713SOL    HW1 2138   2.273   0.297   0.351  3.2202 -1.4330 -2.3791
  713SOL    HW2 2139   2.436   0.290   0.327  0.3789  0.1614  0.9405
  714SOL     OW 2140   1.719   1.592   0.118 -0.3009 -0.3286  0.1280
  714SOL    HW1 2141   1.717   1.668   0.191 -0.4748  2.2169  1.6184
  714SOL    HW2 2142   1.718   1.499   0.158 -0.2127 -5.1410 -1.3892
  715SOL     OW 2143   3.047   0.222   0.607 -0.3593  0.3961 -0.0442
  715SOL    HW1 2144   0.021   0.146   0.563  1.1101 -2.4247 -2.7302
  715SOL    HW2 2145   3.029   0.190   0.701 -0.5052  0.4827 -0.0894
  716SOL     OW 2146   1.270   0.498   2.028  0.4140  0.4699 -0.3603
  716SOL    HW1 2147   1.336   0.438   1.981 -0.8549  0.2853  1.6989
  716SOL    HW2 2148   1.175   0.457   2.010 -1.7642  2.4355 -2.0377
  717SOL     OW 2149   0.227   0.372   2.907  0.6360 -0.1910  0.1517
  717SOL    HW1 2150   0.188   0.461   2.874 -2.0614  1.7474 -1.8818
  717SOL    HW2 2151   0.283   0.328   2.835  0.5753 -0.4091 -0.3900
  718SOL     OW 2152   1.029   0.604   0.193 -0.0372 -0.8834  0.4921
  718SOL    HW1 2153   1.022   0.698   0.237  3.0786  2.2577  0.2435
  718SOL    HW2 2154   1.122   0.582   0.156 -1.2304 -0.5798 -0.6426
  719SOL     OW 2155   2.478   2.327   2.696 -0.6061  0.3832  0.1437
  719SOL    HW1 2156   2.568   2.374   2.683  1.6621  0.9825  1.0064
  719SOL    HW2 2157   2.459   2.267   2.612 -1.1792 -1.2904 -4.1003
  720SOL     OW 2158   1.406   0.838   1.295 -0.0868  0.3300  0.4976
  720SOL    HW1 2159   1.388   0.872   1.389 -1.9800 -0.7085  0.2753
  720SOL    HW2 2160   1.369   0.743   1.287 -1.8130 -2.1867  0.0316
  721SOL     OW 2161   2.995   2.671   1.411  0.0018 -0.6030  0.1645
  721SOL    HW1 2162   2.989   2.583   1.462  0.0135  1.7558 -1.9952
  721SOL    HW2 2163   3.031   2.657   1.314  2.8324 -0.7535 -3.2519
  722SOL     OW 2164   0.695   1.484   2.804  0.2722  0.4168 -0.2240
  722SOL    HW1 2165   0.659   1.427   2.880 -0.3701 -0.9705 -0.3808
  722SOL    HW2 2166   0.780   1.530   2.831 -0.8153 -2.1409  0.8854
  723SOL     OW 2167   2.046   0.306   0.530  0.3236 -0.3854  0.3579
  723SOL    HW1 2168   2.131   0.274   0.580 -1.1090 -1.0636  1.8604
  723SOL    HW2 2169   2.005   0.376   0.592  2.2752 -0.4696 -1.5567
  724SOL     OW 2170   0.743   2.188   0.044  0.4436 -0.1165  0.2545
  724SOL    HW1 2171   0.803   2.126   0.101  2.6162 -1.0473  1.8597
  724SOL    HW2 2172   0.763   2.283   0.072  1.8920  0.3571  3.0576
  725SOL     OW 2173   0.203   0.834   1.147 -0.5306  0.5223  0.3448
  725SOL    HW1 2174   0.149   0.887   1.075 -1.6210  2.3434 -1.4306
  725SOL    HW2 2175   0.252   0.899   1.207  0.1539  0.0406 -2.3593
  726SOL     OW 2176   2.452   0.672   0.391  0.3242  0.1739  0.1499
  726SOL    HW1 2177   2.512   0.752   0.371 -0.2780  0.5305 -2.3419
  726SOL    HW2 2178   2.432   0.664   0.492 -0.7636 -1.1853  0.0908
  727SOL     OW 2179   1.866   1.204   2.512  0.8519  0.8370 -0.1021
  727SOL    HW1 2180   1.934   1.271   2.542  0.4927 -0.2850 -4.6451
  727SOL    HW2 2181   1.892   1.107   2.531 -0.2614  2.1247  3.2336
  728SOL     OW 2182   1.856   2.976   1.405 -0.2572  0.1909  0.0140
  728SOL    HW1 2183   1.953   2.953   1.390  0.5866 -2.5780 -2.0371
  728SOL    HW2 2184   1.808   2.892   1.436  4.1479  0.5845  0.1644
  729SOL     OW 2185   2.292   0.810   2.232  0.3918  0.2009  0.0154
  729SOL    HW1 2186   2.335   0.823   2.323  0.3168 -0.5103  0.7850
  729SOL    HW2 2187   2.219   0.878   2.223  2.9787  0.4834  2.5614
  730SOL     OW 2188   0.963   0.846   1.501 -0.3248  0.3808  0.0578
  730SOL    HW1 2189   1.033   0.919   1.482  0.4214  3.2032  0.4411
  730SOL    HW2 2190   1.002   0.782   1.573 -1.6056  0.3760 -0.9173
  731SOL     OW 2191   0.381   0.378   0.133 -0.1083  0.2400  0.4558
  731SOL    HW1 2192   0.350   0.430   0.213  1.8469 -0.2402 -3.3099
  731SOL    HW2 2193   0.451   0.421   0.078 -0.1388 -0.1806 -0.4211
  732SOL     OW 2194   0.298   0.503   0.349 -0.1247  0.2642  0.2204
  732SOL    HW1 2195   0.341   0.592   0.372  2.1876 -0.4309  2.1703
  732SOL    HW2 2196   0.223   0.476   0.411 -0.7760  0.4318 -2.7537
  733SOL     OW 2197   1.584   1.563   2.695 -0.4459 -0.2006 -0.1084
  733SOL    HW1 2198   1.587   1.464   2.674 -1.4953 -0.3428  0.6848
  733SOL    HW2 2199   1.595   1.576   2.795  1.1414  0.0535 -2.5549
  734SOL     OW 2200   0.090   2.013   2.539  0.3480  0.0332  0.5678
  734SOL    HW1 2201   0.160   2.030   2.464 -0.2134  1.3512  1.3167
  734SOL    HW2 2202   0.131   2.000   2.636 -1.1095  2.3037  3.6193
  735SOL     OW 2203   1.862   0.656   1.133 -0.4212  0.3572  0.8541
  735SOL    HW1 2204   1.914   0.741   1.141 -4.9288 -1.5861 -0.9263
  735SOL    HW2 2205   1.777   0.661   1.189  0.6805  2.9650 -2.8528
  736SOL     OW 2206   1.243   1.547   0.026 -0.2118  0.8846 -0.3070
  736SOL    HW1 2207   1.197   1.511   0.115  1.8324  2.3643  0.5586
  736SOL    HW2 2208   1.309   1.620   0.054 -2.0513  2.5503  1.3616
  737SOL     OW 2209   2.825   0.283   0.436  0.6002 -0.7363 -0.1011
  737SOL    HW1 2210   2.842   0.370   0.385  0.5053 -1.0931 -1.8539
  737SOL    HW2 2211   2.917   0.256   0.469  0.4681  2.2300 -1.1634
  738SOL     OW 2212   0.668   2.023   1.731 -0.1475 -0.4453 -0.3441
  738SOL    HW1 2213   0.639   2.040   1.636  1.5712 -1.5629  0.8489
  738SOL    HW2 2214   0.675   1.925   1.743  0.1675  1.6593  0.8003
  739SOL     OW 2215   1.156   2.749   2.478  0.3401 -0.1603 -0.5273
  739SOL    HW1 2216   1.136   2.730   2.579 -0.2702 -1.7275  3.6743
  739SOL    HW2 2217   1.255   2.730   2.465  2.2694  0.9169  1.0071
  740SOL     OW 2218   1.817   2.381   1.601  0.4113  0.5968  0.2427
  740SOL    HW1 2219   1.829   2.343   1.509 -1.1513 -0.0416 -0.9052
  740SOL    HW2 2220   1.770   2.318   1.667  2.1006 -0.6764 -0.8983
  741SOL     OW 2221   2.195   0.667   0.286  0.7058 -0.4780 -0.3139
  741SOL    HW1 2222   2.292   0.668   0.318  1.0577 -0.1830 -1.6719
  741SOL    HW2 2223   2.135   0.748   0.322 -0.7917  2.7689  2.7897
  742SOL     OW 2224   1.044   2.453   0.009  0.9773 -0.3351  0.0246
  742SOL    HW1 2225   1.105   2.466   3.014 -3.3917 -1.5523  2.2906
  742SOL    HW2 2226   1.094   2.400   0.086  1.4653 -1.2847  0.9056
  743SOL     OW 2227   2.431   0.804   2.000 -0.0432  0.6614  0.2441
  743SOL    HW1 2228   2.381   0.807   2.093 -3.0535  2.9770 -0.8766
  743SOL    HW2 2229   2.464   0.898   1.979  1.4037  2.2568  1.5653
  744SOL     OW 2230   2.433   0.400   0.703  0.5903 -0.3959 -0.1904
  744SOL    HW1 2231   2.373   0.345   0.642  1.5267  0.2212 -0.9222
  744SOL    HW2 2232   2.533   0.364   0.707  4.4389 -1.5313 -0.1286
  745SOL     OW 2233   2.679   1.199   1.662 -0.2641 -0.5296  0.1317
  745SOL    HW1 2234   2.587   1.157   1.630  0.8962 -1.9887  0.3187
  745SOL    HW2 2235   2.698   1.186   1.761  0.0372  0.5014 -0.9556
  746SOL     OW 2236   1.297   1.353   0.689  0.2277  0.1366 -0.7300
  746SOL    HW1 2237   1.281   1.445   0.716  0.3937 -1.9545  0.8917
  746SOL    HW2 2238   1.213   1.300   0.718 -0.9998 -0.0805  0.7862
  747SOL     OW 2239   1.529   1.651   1.743  0.6879 -0.2790  0.2912
  747SOL    HW1 2240   1.535   1.728   1.675 -1.8982 -0.2829  0.1508
  747SOL    HW2 2241   1.428   1.649   1.769  0.6124  0.8917 -1.5160
  748SOL     OW 2242   0.495   2.891   3.018  0.3958  0.1735 -0.2825
  748SOL    HW1 2243   0.469   2.822   2.953  1.9504 -1.5924  0.1798
  748SOL    HW2 2244   0.502   2.854   0.034  0.5841 -0.6586 -1.4551
  749SOL     OW 2245   0.363   1.233   2.573 -0.1669  0.5009 -0.2645
  749SOL    HW1 2246   0.333   1.241   2.474 -1.3811  0.1026 -0.4693
  749SOL    HW2 2247   0.450   1.279   2.597  2.7268 -0.7753  0.7833
  750SOL     OW 2248   1.906   0.787   2.120  0.0970 -0.0423  0.0451
  750SOL    HW1 2249   1.951   0.719   2.057 -1.6517 -0.4633  1.7033
  750SOL    HW2 2250   1.815   0.816   2.092  2.9885  0.0900  0.5543
  751SOL     OW 2251   2.542   0.402   0.298  0.1265  0.0543 -0.1851
  751SOL    HW1 2252   2.533   0.433   0.197 -0.0427  3.6353 -0.9248
  751SOL    HW2 2253   2.545   0.489   0.348  2.0766 -0.9629 -1.8610
  752SOL     OW 2254   0.280   2.361   0.884 -0.2319  0.4861 -0.2041
  752SOL    HW1 2255   0.196   2.312   0.842 -0.9769 -1.7797 -1.7418
  752SOL    HW2 2256   0.319   2.294   0.954  1.7354  0.0350  0.9367
  753SOL     OW 2257   1.147   2.595   1.041  0.0480 -0.3273 -0.0017
  753SOL    HW1 2258   1.083   2.521   1.061 -0.7553  2.6527  0.6794
  753SOL    HW2 2259   1.091   2.662   0.983 -0.5197 -0.1096  0.8083
  754SOL     OW 2260   0.163   0.052   1.927 -0.0413  0.5618 -0.1644
  754SOL    HW1 2261   0.125   0.121   1.999  2.3750 -1.4662  0.9012
  754SOL    HW2 2262   0.106   0.042   1.841  1.6718 -0.8110  0.6355
  755SOL     OW 2263   2.018   0.822   0.456 -0.0092  0.1664 -0.3795
  755SOL    HW1 2264   1.958   0.745   0.431  2.9427  0.1205 -0.5054
  755SOL    HW2 2265   2.045   0.824   0.557 -1.7357 -0.4099 -2.6896
  756SOL     OW 2266   2.117   2.415   2.493 -0.5362  0.1720 -0.3390
  756SOL    HW1 2267   2.089   2.467   2.574  0.2254 -0.1866 -0.6455
  756SOL    HW2 2268   2.063   2.445   2.411 -0.8855 -0.2668 -2.5583
  757SOL     OW 2269   1.751   0.202   0.368 -0.2254  0.0011  0.2669
  757SOL    HW1 2270   1.716   0.219   0.273 -0.8636  2.3247  1.5461
  757SOL    HW2 2271   1.835   0.259   0.392  5.0881  0.8191  1.1823
  758SOL     OW 2272   2.194   0.675   1.249  0.3633  0.0321 -0.0713
  758SOL    HW1 2273   2.178   0.581   1.280 -1.6869  2.7973 -1.4015
  758SOL    HW2 2274   2.224   0.670   1.149  0.3621  0.5757 -3.1542
  759SOL     OW 2275   2.317   0.656   0.999 -0.3153  0.2179 -0.0007
  759SOL    HW1 2276   2.415   0.621   0.999 -2.3718 -0.6546  0.8983
  759SOL    HW2 2277   2.258   0.611   0.930  1.4396 -0.4473 -1.1427
  760SOL     OW 2278   2.310   1.291   1.148  0.4036 -0.0838  0.4520
  760SOL    HW1 2279   2.261   1.369   1.190  0.7788  0.0047 -1.3439
  760SOL    HW2 2280   2.273   1.199   1.175  0.2892  0.5271 -0.1564
  761SOL     OW 2281   0.677   0.340   0.336  0.1073  0.7605 -0.0752
  761SOL    HW1 2282   0.755   0.404   0.347 -0.1657 -0.6757  1.2352
  761SOL    HW2 2283   0.615   0.339   0.416  4.3223 -2.4945 -2.0890
  762SOL     OW 2284   0.945   1.826   0.940  0.5160 -0.0594  0.2284
  762SOL    HW1 2285   0.895   1.817   0.853 -0.2513  2.2638  2.4827
  762SOL    HW2 2286   0.906   1.779   1.021 -0.2344  0.9494 -0.5423
  763SOL     OW 2287   1.426   0.948   1.570  0.2194 -0.2510  0.7093
  763SOL    HW1 2288   1.437   0.922   1.669 -0.3677 -1.8992  0.3498
  763SOL    HW2 2289   1.506   1.005   1.543 -0.3963  0.0477  0.8495
  764SOL     OW 2290   0.320   1.646   2.672 -0.3521  0.0194 -0.5512
  764SOL    HW1 2291   0.218   1.646   2.674  0.0582  1.4020  1.7262
  764SOL    HW2 2292   0.356   1.716   2.607  0.7775  0.7915  0.7402
  765SOL     OW 2293   0.644   2.680   1.452  0.5957 -0.1356  0.0040
  765SOL    HW1 2294   0.656   2.776   1.488 -2.9444  1.9306  1.7597
  765SOL    HW2 2295   0.719   2.661   1.386  0.9516 -0.2827  0.6933
  766SOL     OW 2296   2.789   2.344   2.619 -0.7183  0.5603  0.2680
  766SOL    HW1 2297   2.884   2.310   2.623  1.3056  0.0597 -0.6434
  766SOL    HW2 2298   2.773   2.398   2.534 -3.6316  2.0067  1.7250
  767SOL     OW 2299   1.282   1.002   2.271 -0.2253  0.1717  0.6343
  767SOL    HW1 2300   1.330   1.062   2.340  2.3239 -2.5123  3.3470
  767SOL    HW2 2301   1.190   1.042   2.247  3.9585  0.1869 -0.0757
  768SOL     OW 2302   1.381   1.767   0.171 -0.8202 -0.0962  0.2000
  768SOL    HW1 2303   1.406   1.848   0.111  0.4487  2.1413  0.7237
  768SOL    HW2 2304   1.448   1.743   0.241 -0.2161 -1.8503 -0.9833
  769SOL     OW 2305   0.346   2.041   1.412 -0.1408 -0.0308 -0.4337
  769SOL    HW1 2306   0.306   2.122   1.359  2.0612  0.9013  0.2213
  769SOL    HW2 2307   0.309   1.951   1.393  1.7083  1.9246 -0.3189
  770SOL     OW 2308   1.408   1.038   2.543  0.5247 -0.4572 -0.5088
  770SOL    HW1 2309   1.445   1.059   2.642  0.5018 -0.1009  1.7840
  770SOL    HW2 2310   1.399   1.129   2.495 -0.5456  1.5286  0.5386
  771SOL     OW 2311   0.100   2.913   2.146  0.1544 -0.1520 -0.0967
  771SOL    HW1 2312   0.158   2.830   2.156 -0.7201  0.1683  0.0537
  771SOL    HW2 2313   0.106   2.958   2.054 -0.8535  0.5519 -0.1620
  772SOL     OW 2314   2.317   2.095   1.827 -0.1048  0.8885  0.2255
  772SOL    HW1 2315   2.366   2.110   1.913 -0.3448 -0.9367 -2.0589
  772SOL    HW2 2316   2.263   2.008   1.841 -1.3933  1.2950  1.5806
  773SOL     OW 2317   0.535   1.735   1.488 -0.0693 -0.0425 -0.2442
  773SOL    HW1 2318   0.466   1.717   1.560 -0.4137  0.0117 -0.3318
  773SOL    HW2 2319   0.561   1.831   1.484 -0.5326 -3.5241  0.5184
  774SOL     OW 2320   1.093   0.548   2.411 -0.7168  0.0201  0.0960
  774SOL    HW1 2321   1.162   0.516   2.475 -1.1708  1.9141 -0.5184
  774SOL    HW2 2322   1.096   0.652   2.415 -0.1226  0.3655  0.1664
  775SOL     OW 2323   2.102   2.754   2.975  0.3799  0.4438 -0.4283
  775SOL    HW1 2324   2.027   2.817   2.965  3.1265  0.9888  1.7013
  775SOL    HW2 2325   2.137   2.732   2.882 -2.7320 -0.1083  2.8204
  776SOL     OW 2326   2.999   0.610   1.893 -0.1251 -0.5215 -0.7492
  776SOL    HW1 2327   2.943   0.576   1.973 -3.4073 -1.8047  0.9811
  776SOL    HW2 2328   3.069   0.536   1.872  3.0530 -2.1668  1.6742
  777SOL     OW 2329   2.426   2.118   2.083 -0.0031 -0.5294 -0.0705
  777SOL    HW1 2330   2.440   2.018   2.102 -0.2968  0.9953 -0.0357
  777SOL    HW2 2331   2.332   2.145   2.113  0.4937 -1.2205  0.2260
  778SOL     OW 2332   1.886   1.167   2.141  0.7310  0.0588 -0.2031
  778SOL    HW1 2333   1.910   1.256   2.180 -2.8457 -0.8083  0.2996
  778SOL    HW2 2334   1.789   1.146   2.112  0.9876  0.2492  1.8767
  779SOL     OW 2335   2.384   1.123   0.315 -0.1481 -0.0192 -0.3129
  779SOL    HW1 2336   2.399   1.207   0.257  0.0984  0.6030 -0.4594
  779SOL    HW2 2337   2.392   1.042   0.256  0.6195  3.1092  1.6528
  780SOL     OW 2338   2.322   0.303   2.880 -0.2474  0.4390 -0.2125
  780SOL    HW1 2339   2.268   0.287   2.797  2.3865  0.3307  0.8618
  780SOL    HW2 2340   2.316   0.232   2.951  0.9357 -0.1172  1.5054
  781SOL     OW 2341   0.100   1.845   1.379 -0.1886  0.2140  0.0819
  781SOL    HW1 2342   0.043   1.915   1.420  0.6879  2.2348 -0.6351
  781SOL    HW2 2343   0.116   1.765   1.438  1.2873  0.5219 -0.4395
  782SOL     OW 2344   2.304   2.452   2.856 -0.2614 -0.5862 -0.6296
  782SOL    HW1 2345   2.363   2.425   2.782 -1.6455  0.7980  1.2519
  782SOL    HW2 2346   2.300   2.370   2.917  0.1098 -0.7544 -0.1971
  783SOL     OW 2347   0.393   1.300   1.324  0.0444  0.3342 -0.1347
  783SOL    HW1 2348   0.454   1.286   1.245 -0.0208 -0.7103  0.8338
  783SOL    HW2 2349   0.343   1.389   1.313 -0.4279  0.4342 -0.2907
  784SOL     OW 2350   1.656   0.581   2.823 -0.1630 -0.1646 -0.4079
  784SOL    HW1 2351   1.741   0.591   2.767  1.7772 -2.1476  1.6477
  784SOL    HW2 2352   1.677   0.551   2.916 -0.0674 -2.8599 -1.2357
  785SOL     OW 2353   2.473   2.800   0.942 -0.1632  0.1807 -0.0037
  785SOL    HW1 2354   2.416   2.805   0.858  0.0541 -0.8209  0.6440
  785SOL    HW2 2355   2.573   2.775   0.929  1.1284 -2.6845 -1.2998
  786SOL     OW 2356   0.801   2.006   2.213 -0.2090 -0.2860  0.4905
  786SOL    HW1 2357   0.857   2.021   2.126  0.8293  0.0790 -0.7927
  786SOL    HW2 2358   0.843   2.052   2.293 -1.1158  2.7933  1.0093
  787SOL     OW 2359   1.298   0.949   1.083 -0.2501 -0.1665  0.0737
  787SOL    HW1 2360   1.345   0.923   1.166 -0.9594  0.7798 -1.5775
  787SOL    HW2 2361   1.367   0.984   1.015  1.0235  0.7742  0.1200
  788SOL     OW 2362   3.015   0.590   0.530 -0.3947  0.3474 -0.4492
  788SOL    HW1 2363   0.013   0.528   0.550 -0.6184 -0.2869 -0.5766
  788SOL    HW2 2364   2.971   0.571   0.439 -1.1193 -0.3632 -1.3670
  789SOL     OW 2365   0.070   1.925   1.116  0.0139 -0.1113  0.2696
  789SOL    HW1 2366   3.070   1.983   1.097  1.6640 -1.0728 -1.9691
  789SOL    HW2 2367   0.081   1.911   1.216 -2.5455  0.9489  0.9841
  790SOL     OW 2368   0.999   0.628   2.166 -0.4902 -0.1923  0.5739
  790SOL    HW1 2369   0.962   0.541   2.123 -1.3946  1.0730 -0.2740
  790SOL    HW2 2370   1.056   0.611   2.250  1.7555  1.9160 -1.0087
  791SOL     OW 2371   1.380   0.365   0.481  0.1074  0.0556 -0.0008
  791SOL    HW1 2372   1.431   0.339   0.395 -0.6510 -0.8042  1.9078
  791SOL    HW2 2373   1.281   0.334   0.465 -0.7424  0.2230 -2.2656
  792SOL     OW 2374   1.516   2.811   1.800  0.5104  0.6190  0.0399
  792SOL    HW1 2375   1.430   2.781   1.844  1.2975 -0.2063 -2.9899
  792SOL    HW2 2376   1.553   2.744   1.732 -1.8305 -0.6709 -3.9594
  793SOL     OW 2377   1.287   0.479   0.712 -0.3000  0.0234 -0.0194
  793SOL    HW1 2378   1.259   0.579   0.707  0.6651  0.9100 -1.9415
  793SOL    HW2 2379   1.323   0.440   0.623  2.5566 -1.1771 -2.8092
  794SOL     OW 2380   0.636   0.936   1.993 -0.7117  0.1265  0.6305
  794SOL    HW1 2381   0.541   0.964   1.969  1.8892  1.4194  4.3573
  794SOL    HW2 2382   0.705   1.016   1.997  1.4250  2.0448  3.1733
  795SOL     OW 2383   0.319   2.058   2.366 -0.2536 -0.0656 -0.0757
  795SOL    HW1 2384   0.403   2.112   2.382  0.2634 -0.7873 -0.5425
  795SOL    HW2 2385   0.294   2.066   2.270  1.8710  2.2336 -0.1800
  796SOL     OW 2386   2.480   1.065   1.995  0.0343  1.0320 -0.5521
  796SOL    HW1 2387   2.469   1.052   2.100  0.9465 -1.2321  3.3542
  796SOL    HW2 2388   2.565   1.110   1.966  1.0958 -0.2458 -0.6091
  797SOL     OW 2389   2.806   2.464   2.908  0.3829  0.2179 -0.1152
  797SOL    HW1 2390   2.777   2.522   2.832  1.6041 -1.0000  0.5266
  797SOL    HW2 2391   2.727   2.400   2.942 -2.6445 -3.6402 -0.1337
  798SOL     OW 2392   0.103   2.379   2.323  0.0433 -0.0852  0.4566
  798SOL    HW1 2393   0.188   2.375   2.272 -1.6148  0.0531  0.6808
  798SOL    HW2 2394   0.051   2.297   2.305  1.8780 -0.0762 -0.2811
  799SOL     OW 2395   0.535   2.178   2.952  0.3660 -0.6048  0.4499
  799SOL    HW1 2396   0.618   2.195   3.003 -0.5261  0.5921 -1.0363
  799SOL    HW2 2397   0.463   2.239   2.994 -1.3228  0.3191  0.8774
  800SOL     OW 2398   0.903   1.640   0.094 -0.5500 -0.5181  0.9905
  800SOL    HW1 2399   0.818   1.616   0.136  1.8373  2.0390  1.1201
  800SOL    HW2 2400   0.978   1.593   0.138 -1.0617  1.2048 -2.6471
  801SOL     OW 2401   1.697   1.363   1.424 -0.2609 -0.2371 -0.0057
  801SOL    HW1 2402   1.798   1.375   1.408  0.4117  0.5711  3.7006
  801SOL    HW2 2403   1.683   1.384   1.523  2.3114  2.3186  0.7320
  802SOL     OW 2404   2.636   1.289   0.280  0.0454  0.0889 -0.4504
  802SOL    HW1 2405   2.667   1.295   0.375 -1.0333  0.2952  0.4183
  802SOL    HW2 2406   2.652   1.194   0.249 -1.4556  1.0206 -1.7319
  803SOL     OW 2407   1.000   1.781   2.708  0.6936 -0.0311  0.0680
  803SOL    HW1 2408   0.965   1.698   2.756  1.0190 -0.8548  1.6786
  803SOL    HW2 2409   1.090   1.763   2.662  0.7660  0.3609  0.0844
  804SOL     OW 2410   1.746   1.328   0.235 -0.3674 -0.0279 -0.0192
  804SOL    HW1 2411   1.742   1.293   0.332 -0.8378 -1.5914  1.6518
  804SOL    HW2 2412   1.841   1.309   0.197  0.2860 -1.0080  0.5704
  805SOL     OW 2413   2.516   1.702   2.681 -0.3452 -0.3208 -0.4199
  805SOL    HW1 2414   2.469   1.794   2.672 -1.4628  1.9405 -1.5443
  805SOL    HW2 2415   2.621   1.706   2.677  2.2675 -1.3104  0.3555
  806SOL     OW 2416   0.455   2.918   0.442 -0.6075  0.0857 -0.1073
  806SOL    HW1 2417   0.520   2.983   0.487 -0.3142 -0.0391  1.9212
  806SOL    HW2 2418   0.449   2.841   0.507 -1.1880 -0.6565  0.3764
  807SOL     OW 2419   1.887   1.544   2.788  0.6876 -0.0581  0.4859
  807SOL    HW1 2420   1.880   1.633   2.839  2.0487 -1.1028 -2.4926
  807SOL    HW2 2421   1.842   1.473   2.845  1.6270 -1.4186  1.1672
  808SOL     OW 2422   0.299   1.723   0.716  0.5236 -0.1915 -0.6176
  808SOL    HW1 2423   0.334   1.686   0.629 -0.4692  1.0247  0.1845
  808SOL    HW2 2424   0.273   1.654   0.788 -0.8477  1.4708  0.7495
  809SOL     OW 2425   2.431   0.914   0.135  0.2419  0.0186  0.2540
  809SOL    HW1 2426   2.365   0.853   0.083 -1.8385 -0.0237 -3.2077
  809SOL    HW2 2427   2.528   0.900   0.098  1.4597  1.5229 -0.7819
  810SOL     OW 2428   0.525   1.267   0.378  0.1751 -0.4994  0.3197
  810SOL    HW1 2429   0.602   1.285   0.315 -4.0013 -0.5378 -1.6515
  810SOL    HW2 2430   0.445   1.227   0.329 -3.7238 -2.8535 -0.0787
  811SOL     OW 2431   1.396   2.499   1.480  0.2025  0.0026  0.2693
  811SOL    HW1 2432   1.357   2.559   1.401  1.1465  1.6536 -2.1515
  811SOL    HW2 2433   1.433   2.411   1.452 -1.1532  2.6175  0.8263
  812SOL     OW 2434   0.857   2.494   1.869  0.0594  0.3831 -0.0162
  812SOL    HW1 2435   0.942   2.539   1.830  1.1535  0.6622 -1.1163
  812SOL    HW2 2436   0.882   2.411   1.928 -0.8742  0.0580  2.6142
  813SOL     OW 2437   1.259   0.143   1.873 -0.0714  0.2280 -0.3497
  813SOL    HW1 2438   1.270   0.164   1.972  2.2887 -0.9000 -1.0674
  813SOL    HW2 2439   1.172   0.094   1.858  0.3211 -0.4250  0.2456
  814SOL     OW 2440   1.230   2.450   2.647  0.1602  0.3892 -0.2878
  814SOL    HW1 2441   1.325   2.449   2.609  0.6728  0.4199  1.2028
  814SOL    HW2 2442   1.176   2.365   2.633  0.2243 -0.5621 -3.1058
  815SOL     OW 2443   0.763   0.259   2.373  0.0581  0.7164  0.1248
  815SOL    HW1 2444   0.710   0.230   2.457 -0.3080  0.6431  1.7782
  815SOL    HW2 2445   0.718   0.334   2.328  0.6257 -1.9046  4.1775
  816SOL     OW 2446   1.991   0.423   2.916  0.5591  0.2296  0.0748
  816SOL    HW1 2447   2.020   0.515   2.883  2.4306  2.6406 -1.0163
  816SOL    HW2 2448   1.996   0.357   2.836  3.2772 -0.7734  1.2947
  817SOL     OW 2449   2.250   0.400   2.330  0.5838 -0.3569  0.1244
  817SOL    HW1 2450   2.291   0.323   2.275 -1.2690 -2.4258  0.8802
  817SOL    HW2 2451   2.231   0.483   2.270 -0.0225  1.6274 -2.2402
  818SOL     OW 2452   1.683   0.248   0.077  0.1148  0.2005 -0.7860
  818SOL    HW1 2453   1.710   0.339   0.028  0.2427  0.9376 -0.6670
  818SOL    HW2 2454   1.748   0.169   0.053 -2.5778  2.5686  1.2018
  819SOL     OW 2455   2.140   1.685   2.759  0.9279 -0.3279  0.4814
  819SOL    HW1 2456   2.066   1.611   2.760  0.2071 -0.5285  0.5224
  819SOL    HW2 2457   2.179   1.701   2.855 -0.5771 -0.3008 -1.9172
  820SOL     OW 2458   0.087   1.872   0.045 -0.4419  0.1449 -0.6160
  820SOL    HW1 2459   0.083   1.966   0.014 -1.0630  1.9674  0.9382
  820SOL    HW2 2460   0.179   1.836   0.055 -0.3018  0.8799  0.8555
  821SOL     OW 2461   0.297   2.843   1.039  0.4861 -0.1008  0.4186
  821SOL    HW1 2462   0.315   2.748   1.003 -2.1637 -2.4794 -2.5514
  821SOL    HW2 2463   0.259   2.896   0.962 -0.6675  1.3702 -0.8165
  822SOL     OW 2464   2.890   2.739   3.044  0.4782 -0.0951  0.3856
  822SOL    HW1 2465   2.808   2.684   3.058  1.4650  0.6321 -2.8726
  822SOL    HW2 2466   2.933   2.733   2.948 -0.1353 -2.3906 -3.1383
  823SOL     OW 2467   1.234   0.449   2.631  0.0464 -0.3375  0.4924
  823SOL    HW1 2468   1.205   0.359   2.602  2.1830  3.7181  2.8056
  823SOL    HW2 2469   1.331   0.472   2.632 -1.1042 -1.1543  0.3978
  824SOL     OW 2470   2.724   1.980   1.987 -0.0009 -0.1408  0.2227
  824SOL    HW1 2471   2.761   1.925   2.066  1.3348  0.8122  0.4416
  824SOL    HW2 2472   2.646   2.034   2.017 -1.1135  0.6808  0.3291
  825SOL     OW 2473   3.057   2.276   2.543 -0.8333  0.4488  0.0502
  825SOL    HW1 2474   0.026   2.185   2.522  1.4021  1.1302  0.3465
  825SOL    HW2 2475   0.012   2.337   2.469  2.8640 -1.8722  0.6517
  826SOL     OW 2476   2.333   1.357   2.510 -0.7829 -0.2009 -0.3335
  826SOL    HW1 2477   2.306   1.260   2.492 -1.6673  1.7607  2.3241
  826SOL    HW2 2478   2.268   1.423   2.465 -2.3354 -1.4684  0.2285
  827SOL     OW 2479   2.154   2.327   1.435 -0.0946 -0.3857  0.3373
  827SOL    HW1 2480   2.114   2.294   1.344  2.3985 -0.7383 -4.7084
  827SOL    HW2 2481   2.086   2.377   1.490 -0.0952 -1.8017 -0.6966
  828SOL     OW 2482   0.167   2.957   1.475 -0.2523  0.4434 -0.4163
  828SOL    HW1 2483   0.102   2.906   1.540 -0.3647 -2.0228 -1.3532
  828SOL    HW2 2484   0.247   3.001   1.524 -0.3771 -1.7162 -4.0275
  829SOL     OW 2485   1.468   2.426   2.490 -0.4427  0.1106  0.2848
  829SOL    HW1 2486   1.534   2.366   2.539 -0.3346 -3.5209 -1.4411
  829SOL    HW2 2487   1.444   2.386   2.397  1.7439 -0.8211  0.5713
  830SOL     OW 2488   0.926   0.356   0.747 -0.5700 -0.0532  0.2620
  830SOL    HW1 2489   0.922   0.293   0.827  1.1861 -0.5186 -0.3994
  830SOL    HW2 2490   0.902   0.449   0.780 -0.6396 -1.9252 -1.7046
  831SOL     OW 2491   2.985   1.510   3.040 -0.1433  0.4845  0.1658
  831SOL    HW1 2492   2.976   1.436   0.031 -4.5947  0.9759  4.1530
  831SOL    HW2 2493   3.058   1.487   2.975 -0.2276  1.8035 -1.4834
  832SOL     OW 2494   1.569   1.910   2.100 -0.0946 -0.3161  0.3546
  832SOL    HW1 2495   1.489   1.971   2.125  0.3784  1.8983  0.7361
  832SOL    HW2 2496   1.627   1.965   2.036 -0.6366  3.4941 -1.8874
  833SOL     OW 2497   0.591   0.399   2.224  0.4374  0.0560  0.3326
  833SOL    HW1 2498   0.511   0.362   2.268 -0.3442 -0.7107 -0.8011
  833SOL    HW2 2499   0.594   0.499   2.233 -1.0954 -0.1500  0.2130
  834SOL     OW 2500   0.646   1.092   1.559  0.0543 -0.0160 -0.0064
  834SOL    HW1 2501   0.608   1.041   1.480 -0.4865  1.2824  0.2560
  834SOL    HW2 2502   0.697   1.022   1.609  0.0907  1.5371 -1.1548
  835SOL     OW 2503   2.660   0.891   3.066  0.1327 -0.2461  0.4444
  835SOL    HW1 2504   2.750   0.868   3.016 -0.6187 -4.2100  0.9900
  835SOL    HW2 2505   2.592   0.947   3.006 -0.6976  3.2626  1.5260
  836SOL     OW 2506   1.143   1.792   0.305  0.2914  0.0381 -0.2914
  836SOL    HW1 2507   1.116   1.873   0.362 -2.1979  0.9792 -0.1856
  836SOL    HW2 2508   1.233   1.802   0.262  2.4561 -1.0225 -0.6552
  837SOL     OW 2509   1.697   1.546   1.009  0.0654  0.0158  0.3114
  837SOL    HW1 2510   1.785   1.563   1.061  2.4173 -0.6043 -0.3995
  837SOL    HW2 2511   1.619   1.613   1.016  0.9870 -1.0212  1.8158
  838SOL     OW 2512   1.128   1.257   2.054 -0.5106  0.2416  0.1441
  838SOL    HW1 2513   1.093   1.176   2.106 -0.8476 -0.7082 -0.9547
  838SOL    HW2 2514   1.163   1.327   2.121  0.5461 -0.7484 -1.1908
  839SOL     OW 2515   0.808   1.967   2.618 -0.5363 -0.1202 -0.0100
  839SOL    HW1 2516   0.892   1.923   2.660  0.5163 -0.3374 -0.5358
  839SOL    HW2 2517   0.759   2.022   2.692 -0.2561 -1.9037  0.2883
  840SOL     OW 2518   0.753   2.464   0.349  0.6031  0.3044 -0.0838
  840SOL    HW1 2519   0.768   2.546   0.406 -0.3840 -2.1816  0.3475
  840SOL    HW2 2520   0.728   2.383   0.409 -1.4292  1.0074  0.6028
  841SOL     OW 2521   1.911   2.691   0.292  0.8530  0.1583 -0.0321
  841SOL    HW1 2522   1.849   2.645   0.361  3.6289  2.0392  0.5567
  841SOL    HW2 2523   1.902   2.650   0.200  0.0082 -2.1960 -0.1658
  842SOL     OW 2524   0.576   0.508   0.003  0.1558 -0.1512 -0.1137
  842SOL    HW1 2525   0.611   0.418   3.055 -0.0893  4.4702 -2.6471
  842SOL    HW2 2526   0.660   0.565   0.020  3.5645 -2.4588  1.3386
  843SOL     OW 2527   1.205   0.193   0.753  0.3305  0.1639 -0.4883
  843SOL    HW1 2528   1.178   0.158   0.849 -0.5252 -2.0496  0.7355
  843SOL    HW2 2529   1.192   0.295   0.744  2.1573 -0.3713  1.1894
  844SOL     OW 2530   2.990   2.770   2.789  0.4945  0.5330  0.0203
  844SOL    HW1 2531   3.049   2.703   2.738  2.3631 -1.0701 -3.2144
  844SOL    HW2 2532   2.891   2.743   2.771 -1.8671 -1.7168  1.6199
  845SOL     OW 2533   2.537   2.302   0.973  0.2364 -0.1855 -0.4369
  845SOL    HW1 2534   2.583   2.321   0.887 -2.0388 -0.0181  0.8471
  845SOL    HW2 2535   2.568   2.358   1.052 -1.2348  0.6114 -0.1929
  846SOL     OW 2536   3.031   1.804   2.473  0.2117  0.3413  0.5923
  846SOL    HW1 2537   3.067   1.874   2.537 -1.5673  0.4342 -0.7594
  846SOL    HW2 2538   3.039   1.709   2.508 -4.9759  2.0645 -1.0430
  847SOL     OW 2539   1.073   0.701   1.718 -0.1053  0.0476 -0.4186
  847SOL    HW1 2540   1.104   0.715   1.815 -1.3463  0.7313  2.2359
  847SOL    HW2 2541   1.147   0.660   1.659 -1.0159 -1.5977 -0.2088
  848SOL     OW 2542   2.587   2.994   2.998 -0.1279 -0.0877  0.7373
  848SOL    HW1 2543   2.511   2.991   3.070  0.4117 -0.3377 -0.2353
  848SOL    HW2 2544   2.676   2.991   3.047 -1.3465  3.5989 -2.3844
  849SOL     OW 2545   0.734   2.768   2.733 -0.3650 -0.3869 -0.1528
  849SOL    HW1 2546   0.723   2.712   2.819  2.0703 -2.4700  0.9707
  849SOL    HW2 2547   0.824   2.819   2.746  3.3803 -0.9390 -0.5381
  850SOL     OW 2548   1.113   2.696   1.490  0.3364  0.1892 -0.0044
  850SOL    HW1 2549   1.190   2.681   1.423  2.0852  1.6713  1.3584
  850SOL    HW2 2550   1.022   2.670   1.447  0.3076 -2.0497  0.7656
  851SOL     OW 2551   2.535   0.342   2.007  0.1948  0.3031  0.0890
  851SOL    HW1 2552   2.545   0.433   2.051 -1.1662 -2.0954 -2.2919
  851SOL    HW2 2553   2.627   0.295   1.993  1.1004  1.4956 -0.6554
  852SOL     OW 2554   2.075   0.984   2.202  0.2601  0.4517 -0.1807
  852SOL    HW1 2555   2.014   1.066   2.213  1.1326  2.2183  0.3508
  852SOL    HW2 2556   2.021   0.910   2.158 -1.5155 -0.2982 -2.5775
  853SOL     OW 2557   2.882   3.027   0.690 -0.4023  0.4530 -0.1272
  853SOL    HW1 2558   2.822   0.013   0.650  1.8719 -2.9422 -0.2917
  853SOL    HW2 2559   2.863   2.937   0.646 -0.9407 -0.2363 -0.4832
  854SOL     OW 2560   2.240   1.269   2.100 -0.1961 -0.1541  0.1203
  854SOL    HW1 2561   2.272   1.187   2.142  0.4199 -0.7136 -0.0565
  854SOL    HW2 2562   2.318   1.332   2.084  0.5988  0.1422  0.1007
  855SOL     OW 2563   1.049   2.459   0.346  0.4034  0.4072  1.0524
  855SOL    HW1 2564   0.949   2.463   0.359  2.4982 -0.6255 -0.8649
  855SOL    HW2 2565   1.069   2.386   0.279  0.0233  3.7116 -0.3192
  856SOL     OW 2566   3.036   0.276   2.694 -0.0526  0.0211 -0.3392
  856SOL    HW1 2567   3.056   0.177   2.685  0.8157 -0.7527  2.0271
  856SOL    HW2 2568   3.023   0.297   2.796 -0.8876 -2.1302 -1.1184
  857SOL     OW 2569   1.064   3.043   1.828 -0.0798  0.4149 -0.9071
  857SOL    HW1 2570   1.115   3.013   1.748 -0.2412  3.1158  1.3705
  857SOL    HW2 2571   0.975   2.996   1.823  0.2134  3.3200  2.5147
  858SOL     OW 2572   2.557   2.182   1.665  1.0169  0.3433 -1.1676
  858SOL    HW1 2573   2.578   2.095   1.617  4.0970  0.8745 -0.4816
  858SOL    HW2 2574   2.495   2.162   1.747  0.2212 -1.5341 -0.1399
  859SOL     OW 2575   1.423   2.395   1.806 -0.3005  0.0383  0.1809
  859SOL    HW1 2576   1.414   2.345   1.718  3.2967  2.7997  2.0824
  859SOL    HW2 2577   1.389   2.493   1.793 -2.4733  3.1287 -0.8987
  860SOL     OW 2578   2.418   2.597   3.057  0.1126  0.2414 -0.3262
  860SOL    HW1 2579   2.350   2.550   2.997 -1.7676  0.0943 -0.6750
  860SOL    HW2 2580   2.363   2.667   0.032 -0.9095  2.3132  1.6471
  861SOL     OW 2581   2.324   2.813   0.711 -0.2765  0.3815 -0.7070
  861SOL    HW1 2582   2.269   2.869   0.652 -1.6082  1.3668  2.2659
  861SOL    HW2 2583   2.374   2.746   0.659  1.2591  1.1984 -1.6186
  862SOL     OW 2584   1.844   3.025   2.371  0.1223  0.4996  0.0566
  862SOL    HW1 2585   1.927   3.006   2.318  0.6596  0.0863 -0.4603
  862SOL    HW2 2586   1.849   2.979   2.461 -0.1261  0.8166 -1.1228
  863SOL     OW 2587   0.043   0.712   0.752 -0.3962  0.2177  0.1539
  863SOL    HW1 2588   0.112   0.784   0.713  1.4859  1.7997 -1.8859
  863SOL    HW2 2589   3.069   0.682   0.675  0.6115 -2.4106  2.3697
  864SOL     OW 2590   0.295   2.724   2.141 -0.1112 -0.6525 -0.4919
  864SOL    HW1 2591   0.363   2.799   2.127  1.9472  2.5392  1.1620
  864SOL    HW2 2592   0.308   2.697   2.240  2.3908 -2.1337  3.2665
  865SOL     OW 2593   0.781   1.208   2.910  0.0641  0.1757  0.1641
  865SOL    HW1 2594   0.792   1.122   2.965 -0.1581  0.8126 -1.5829
  865SOL    HW2 2595   0.720   1.279   2.965 -2.5277  3.9650  3.2461
  866SOL     OW 2596   2.888   0.826   2.938 -0.8883  0.1429 -0.7755
  866SOL    HW1 2597   2.863   0.836   2.842  1.5884 -1.8495  3.1795
  866SOL    HW2 2598   2.911   0.732   2.966  0.0528 -3.8861  1.7209
  867SOL     OW 2599   3.066   3.017   2.720  0.0977  0.1983 -0.3334
  867SOL    HW1 2600   0.051   0.002   2.769  0.1012 -0.3297  3.1009
  867SOL    HW2 2601   3.057   2.931   2.768 -1.7622 -0.5720  1.4538
  868SOL     OW 2602   1.188   3.064   0.611 -0.3579  0.5190  0.2633
  868SOL    HW1 2603   1.212   0.075   0.658  2.1461  2.3250 -3.4432
  868SOL    HW2 2604   1.167   2.985   0.675 -0.0352 -2.6709  3.3023
  869SOL     OW 2605   1.326   1.627   0.752 -0.2118 -0.0504  0.8788
  869SOL    HW1 2606   1.317   1.698   0.679  0.5162  0.1310 -2.2444
  869SOL    HW2 2607   1.383   1.659   0.830 -1.1655 -2.4393  0.1138
  870SOL     OW 2608   1.833   1.856   1.070 -0.6005  0.3132  0.0817
  870SOL    HW1 2609   1.925   1.889   1.033 -1.2787  2.1416  2.4234
  870SOL    HW2 2610   1.846   1.762   1.106 -2.9581 -0.3013  1.0063
  871SOL     OW 2611   1.290   1.433   1.633  0.1553 -0.1801 -0.6138
  871SOL    HW1 2612   1.316   1.333   1.654  0.7455 -0.9080  1.8322
  871SOL    HW2 2613   1.219   1.450   1.561  0.0141 -0.5357 -0.9776
  872SOL     OW 2614   1.051   1.523   1.472 -0.0766 -0.2553 -0.2874
  872SOL    HW1 2615   1.081   1.519   1.376 -0.5235  1.5491 -0.3250
  872SOL    HW2 2616   0.988   1.444   1.488  1.9165  1.1672 -0.4133
  873SOL     OW 2617   1.211   1.077   2.896 -0.1177  0.3345 -0.0764
  873SOL    HW1 2618   1.232   1.013   2.970  0.0547  0.1884 -1.1170
  873SOL    HW2 2619   1.297   1.106   2.853  1.1654 -0.1332 -2.1123
  874SOL     OW 2620   0.011   1.431   1.221  0.4682  0.2894 -0.0452
  874SOL    HW1 2621   0.112   1.450   1.236 -0.9652  0.7643  0.4506
  874SOL    HW2 2622   3.070   1.335   1.224 -1.9716 -0.7168  1.2100
  875SOL     OW 2623   2.602   3.034   1.106 -0.2298 -0.3846  0.2044
  875SOL    HW1 2624   2.635   0.026   1.041  0.3978 -0.6536  2.0994
  875SOL    HW2 2625   2.533   2.970   1.069 -1.3006 -0.3371 -0.3599
  876SOL     OW 2626   0.817   0.622   0.032 -0.4570  0.4313  0.3250
  876SOL    HW1 2627   0.904   0.595   0.071  0.4205  0.5292 -3.2106
  876SOL    HW2 2628   0.762   0.676   0.100 -1.9309 -3.3084  1.3168
  877SOL     OW 2629   2.989   0.243   1.259  0.1376  0.0590  0.3062
  877SOL    HW1 2630   2.911   0.243   1.326  2.3524  0.4003 -0.9302
  877SOL    HW2 2631   3.050   0.165   1.280  3.0281  1.3042  3.0715
  878SOL     OW 2632   1.688   2.219   0.287 -0.2761  0.1263 -0.0114
  878SOL    HW1 2633   1.770   2.268   0.255 -1.3153 -2.3996 -2.5673
  878SOL    HW2 2634   1.664   2.150   0.218  0.2666  2.8274  1.8687
  879SOL     OW 2635   2.258   1.814   1.484  0.3918  0.2176 -0.0936
  879SOL    HW1 2636   2.245   1.747   1.558 -0.1333 -2.5841 -2.2211
  879SOL    HW2 2637   2.231   1.908   1.518  2.5972  2.2323 -0.9414
  880SOL     OW 2638   0.703   0.165   1.666  0.3824  0.0531 -0.0948
  880SOL    HW1 2639   0.637   0.244   1.663 -2.3643  0.0216 -1.0808
  880SOL    HW2 2640   0.691   0.101   1.746 -0.8176 -0.5565  2.1680
  881SOL     OW 2641   0.927   1.870   3.049 -0.5829 -0.3806  0.2670
  881SOL    HW1 2642   1.014   1.871   2.992  2.1603  3.1204 -3.0238
  881SOL    HW2 2643   0.917   1.779   0.018 -0.3331  0.1280  2.0376
  882SOL     OW 2644   2.137   1.129   1.459 -0.0996 -0.4752 -0.2778
  882SOL    HW1 2645   2.200   1.208   1.485  1.1592  2.8338 -1.5696
  882SOL    HW2 2646   2.192   1.046   1.431  1.2656 -0.4235  0.3524
  883SOL     OW 2647   1.377   0.762   2.105  0.4611  0.3957 -0.7725
  883SOL    HW1 2648   1.336   0.845   2.147  1.1972  3.9190  0.1565
  883SOL    HW2 2649   1.307   0.686   2.091 -0.2247 -1.1814  0.2006
  884SOL     OW 2650   2.675   0.288   2.957  0.2430  0.8329 -0.3853
  884SOL    HW1 2651   2.770   0.304   2.991 -1.2365  1.6097  2.7596
  884SOL    HW2 2652   2.676   0.192   2.920 -1.1696 -1.0941  1.0884
  885SOL     OW 2653   0.301   2.045   0.545 -0.1857  0.3665 -0.3496
  885SOL    HW1 2654   0.339   2.026   0.452  1.8730  0.4300  0.1521
  885SOL    HW2 2655   0.201   2.043   0.543  1.0466 -0.5601  1.3486
  886SOL     OW 2656   1.788   1.343   2.938 -0.1347 -0.1259 -0.1392
  886SOL    HW1 2657   1.824   1.266   2.877  0.4205  2.1728 -0.6813
  886SOL    HW2 2658   1.685   1.335   2.962  0.1846  1.8232  0.0344
  887SOL     OW 2659   1.664   0.411   1.739  0.3611  0.3051  0.0978
  887SOL    HW1 2660   1.714   0.440   1.820 -0.3922  1.3966 -2.9108
  887SOL    HW2 2661   1.684   0.476   1.661  1.1549  0.6334  0.8495
  888SOL     OW 2662   2.932   1.221   1.619  0.1398  0.1166  0.3239
  888SOL    HW1 2663   2.960   1.162   1.545  0.0603  0.0120  4.4358
  888SOL    HW2 2664   2.826   1.220   1.633 -1.8270  1.2170 -0.1818
  889SOL     OW 2665   2.883   2.431   0.868  0.1391 -0.6827 -0.0876
  889SOL    HW1 2666   2.957   2.481   0.919  0.8923 -0.0285  1.2539
  889SOL    HW2 2667   2.907   2.333   0.867  1.1307  0.2266 -0.7140
  890SOL     OW 2668   0.295   2.690   2.407 -0.8018  0.3293 -0.6093
  890SOL    HW1 2669   0.316   2.598   2.447 -0.4534  1.5371  0.7193
  890SOL    HW2 2670   0.254   2.754   2.478 -0.5851  3.0468  0.6631
  891SOL     OW 2671   0.559   1.819   0.189  0.1879 -0.1488  0.0531
  891SOL    HW1 2672   0.622   1.896   0.220  2.7695 -0.0811  3.8678
  891SOL    HW2 2673   0.597   1.733   0.225 -1.2096  2.1056 -1.3365
  892SOL     OW 2674   3.034   2.317   1.218  0.3723 -0.2215  0.4624
  892SOL    HW1 2675   3.041   2.305   1.316 -1.1562  2.4742 -1.2073
  892SOL    HW2 2676   2.993   2.242   1.164 -1.6903 -1.2709  0.4756
  893SOL     OW 2677   0.483   0.009   1.457  0.1471  0.4047 -0.2966
  893SOL    HW1 2678   0.573   3.046   1.466 -0.1931  0.7495 -2.0151
  893SOL    HW2 2679   0.435   0.026   1.545 -1.9306 -0.2111 -2.0454
  894SOL     OW 2680   2.416   1.715   0.835 -0.2125  0.0512 -0.4108
  894SOL    HW1 2681   2.515   1.718   0.863 -1.7768 -0.9269  2.5552
  894SOL    HW2 2682   2.398   1.642   0.767  0.1300 -0.6459  0.2419
  895SOL     OW 2683   2.590   2.577   1.647  0.3549 -0.0785 -0.2659
  895SOL    HW1 2684   2.573   2.491   1.592 -0.9764 -0.5964 -0.1215
  895SOL    HW2 2685   2.642   2.645   1.595 -1.9967 -3.0339  0.7917
  896SOL     OW 2686   0.848   0.240   1.464  0.1151  0.3873  0.5764
  896SOL    HW1 2687   0.907   0.321   1.473  0.0545  0.9887  2.1263
  896SOL    HW2 2688   0.802   0.223   1.552 -1.2912 -1.8238 -1.0740
  897SOL     OW 2689   0.938   1.525   1.016 -0.5146 -0.2336 -0.2046
  897SOL    HW1 2690   0.889   1.604   1.048  2.4623 -1.4519 -1.5076
  897SOL    HW2 2691   0.983   1.531   0.925 -1.3658  1.0755  2.0346
  898SOL     OW 2692   1.625   2.616   1.629 -0.0505 -0.1118  0.2124
  898SOL    HW1 2693   1.533   2.579   1.612  1.1475 -1.9096 -2.7958
  898SOL    HW2 2694   1.699   2.546   1.599  1.5965 -1.1259  0.3290
  899SOL     OW 2695   1.022   0.250   0.088 -0.2339 -0.2487  0.5383
  899SOL    HW1 2696   1.091   0.309   0.050 -3.5050 -0.5720  4.3152
  899SOL    HW2 2697   0.949   0.228   0.021 -0.2759  0.6228  0.3881
  900SOL     OW 2698   1.296   2.397   2.037 -0.3311  0.0416  0.3723
  900SOL    HW1 2699   1.191   2.404   2.027 -2.7616 -0.3425 -0.4984
  900SOL    HW2 2700   1.338   2.388   1.944 -1.3011  0.8695  0.8194
  901SOL     OW 2701   0.903   2.024   0.197  0.7384 -0.0731  0.0529
  901SOL    HW1 2702   0.980   2.051   0.258 -1.4519  0.3980 -1.5269
  901SOL    HW2 2703   0.931   1.957   0.126 -1.2352  0.9520  3.1789
  902SOL     OW 2704   1.564   1.344   0.817  0.2002 -0.0470  0.0675
  902SOL    HW1 2705   1.607   1.412   0.880 -2.7987  1.1089  0.8789
  902SOL    HW2 2706   1.474   1.383   0.785  0.8705  0.8738 -2.2641
  903SOL     OW 2707   2.505   1.055   2.892 -0.2775 -0.0003 -0.5703
  903SOL    HW1 2708   2.546   1.148   2.902  0.6955 -4.5837 -0.7149
  903SOL    HW2 2709   2.403   1.052   2.896 -2.4850 -1.3255 -1.1577
  904SOL     OW 2710   0.788   1.287   0.248 -0.0904  0.4777 -0.5750
  904SOL    HW1 2711   0.785   1.387   0.239  1.1431  1.4360  1.4599
  904SOL    HW2 2712   0.874   1.258   0.299  0.2965 -0.4941  0.3321
  905SOL     OW 2713   1.837   2.993   1.123 -0.2450  0.2589  0.0088
  905SOL    HW1 2714   1.740   3.016   1.097  1.4219 -0.3304 -4.3645
  905SOL    HW2 2715   1.851   2.987   1.223 -1.0976 -1.5141 -0.7239
  906SOL     OW 2716   2.614   2.423   1.235  0.3182 -0.7836  0.1096
  906SOL    HW1 2717   2.570   2.415   1.326 -2.4239 -0.1510 -1.6183
  906SOL    HW2 2718   2.571   2.499   1.181 -0.7525 -0.6502 -0.7636
  907SOL     OW 2719   1.192   1.046   0.427  0.9586  0.0690  1.1028
  907SOL    HW1 2720   1.205   1.027   0.528 -0.0245 -0.2327  1.8736
  907SOL    HW2 2721   1.123   1.122   0.422 -2.1431  4.0638 -1.6084
  908SOL     OW 2722   1.597   0.014   1.073 -0.2869  0.1560 -0.4152
  908SOL    HW1 2723   1.531   3.053   1.141 -0.9411  1.2180  1.7391
  908SOL    HW2 2724   1.636   0.102   1.108  0.0337 -0.2682 -0.8512
  909SOL     OW 2725   2.274   0.889   1.406 -0.1779 -0.2405  0.5765
  909SOL    HW1 2726   2.372   0.902   1.384  1.4145 -0.2576  1.1487
  909SOL    HW2 2727   2.243   0.798   1.369  2.5188 -3.7809  0.2323
  910SOL     OW 2728   1.977   0.583   1.960  0.7019  0.0132 -0.2628
  910SOL    HW1 2729   2.060   0.608   1.907 -0.9857 -1.1083  1.4685
  910SOL    HW2 2730   1.973   0.485   1.981  2.3160  0.1673 -0.4525
  911SOL     OW 2731   2.241   0.991   2.656 -0.2773 -0.4697  0.1140
  911SOL    HW1 2732   2.243   1.009   2.758 -0.8796 -1.4558  0.0428
  911SOL    HW2 2733   2.210   0.894   2.636 -1.1381  0.5772  2.6904
  912SOL     OW 2734   0.399   1.113   1.693 -0.6075  0.7094 -0.0092
  912SOL    HW1 2735   0.491   1.086   1.649 -0.3095 -2.5106 -1.3248
  912SOL    HW2 2736   0.340   1.146   1.615  0.6106 -0.4990 -2.5619
  913SOL     OW 2737   0.012   2.254   1.489  0.2895 -0.4581 -0.5023
  913SOL    HW1 2738   0.013   2.161   1.534  1.1579  0.9662 -0.7163
  913SOL    HW2 2739   3.059   2.330   1.547 -0.4818 -1.2173 -2.4214
  914SOL     OW 2740   1.690   0.782   1.789 -0.2244 -0.0753 -0.3737
  914SOL    HW1 2741   1.750   0.866   1.787  0.7533 -2.8035  0.1452
  914SOL    HW2 2742   1.699   0.736   1.700 -1.5662  2.7889  1.3313
  915SOL     OW 2743   2.459   0.903   1.031 -0.3209 -0.2698  0.4016
  915SOL    HW1 2744   2.416   0.811   1.032  1.4894  1.1509  0.1236
  915SOL    HW2 2745   2.485   0.918   0.930 -0.3374 -2.1539 -0.5714
  916SOL     OW 2746   1.910   2.182   0.989 -0.1957 -0.0029  0.1597
  916SOL    HW1 2747   1.877   2.234   0.909 -0.0565 -0.5346 -0.9582
  916SOL    HW2 2748   1.833   2.128   1.031  1.4205 -2.9385 -2.2503
  917SOL     OW 2749   1.954   2.020   2.388  1.0254  0.0823  0.2050
  917SOL    HW1 2750   1.867   2.064   2.359  1.6153 -0.4875 -2.5367
  917SOL    HW2 2751   2.004   2.073   2.462  2.3756  1.2540  0.9403
  918SOL     OW 2752   1.989   2.479   2.281  0.0128 -0.2288 -0.2993
  918SOL    HW1 2753   1.909   2.542   2.302  0.8879  2.2409  3.6846
  918SOL    HW2 2754   2.009   2.464   2.182 -1.1897  0.4315  3.8549
  919SOL     OW 2755   1.148   2.970   1.576 -0.0536 -0.3149 -0.1983
  919SOL    HW1 2756   1.139   2.870   1.552 -1.1088 -3.5581 -0.1735
  919SOL    HW2 2757   1.238   3.008   1.543 -1.2512 -0.3577  2.2271
  920SOL     OW 2758   2.879   0.359   2.485 -0.5546 -0.4956 -0.0907
  920SOL    HW1 2759   2.914   0.345   2.579  0.5911 -0.4098 -0.3599
  920SOL    HW2 2760   2.907   0.280   2.425 -1.3361 -0.6260  2.3772
  921SOL     OW 2761   0.195   0.851   1.671 -0.0784  0.1164 -0.2499
  921SOL    HW1 2762   0.154   0.834   1.580 -0.9800 -3.2097  0.9709
  921SOL    HW2 2763   0.256   0.932   1.669  0.6824 -0.2278 -1.7381
  922SOL     OW 2764   2.168   2.454   0.202 -0.3038  0.3444 -0.7356
  922SOL    HW1 2765   2.149   2.544   0.245  0.2331 -0.8320 -0.8539
  922SOL    HW2 2766   2.266   2.421   0.207  0.5444 -0.6208 -2.8785
  923SOL     OW 2767   0.623   2.249   0.494  0.3872  0.0620 -0.0391
  923SOL    HW1 2768   0.653   2.231   0.590  1.2803  1.6971 -1.7470
  923SOL    HW2 2769   0.526   2.282   0.497  1.7253 -1.1846 -0.0222
  924SOL     OW 2770   1.027   0.872   0.279  0.1868 -0.2118 -0.1202
  924SOL    HW1 2771   0.946   0.923   0.249  1.0118  0.9235 -0.2975
  924SOL    HW2 2772   1.087   0.926   0.344 -2.8013 -1.1339  1.8715
  925SOL     OW 2773   2.693   0.745   0.838 -0.1350  0.2629  0.6026
  925SOL    HW1 2774   2.637   0.686   0.904 -0.4282 -2.4938 -1.8751
  925SOL    HW2 2775   2.636   0.813   0.789  4.1574 -0.5165  1.5457
  926SOL     OW 2776   0.461   0.067   1.179 -0.0205  0.0032  0.2305
  926SOL    HW1 2777   0.477   0.047   1.278  0.1860 -0.5995  0.7585
  926SOL    HW2 2778   0.372   0.114   1.164 -3.3211  2.6612  0.4349
  927SOL     OW 2779   0.528   1.427   2.356 -1.1118  0.5874 -0.2438
  927SOL    HW1 2780   0.562   1.390   2.445  2.2882 -0.7232 -0.5427
  927SOL    HW2 2781   0.428   1.392   2.346 -4.2784 -1.2591 -0.8896
  928SOL     OW 2782   0.166   0.536   2.347 -0.0009  0.5454 -0.4427
  928SOL    HW1 2783   0.073   0.562   2.324 -1.0974 -1.5254  3.0422
  928SOL    HW2 2784   0.164   0.480   2.436  0.8118  0.8224 -1.0262
  929SOL     OW 2785   2.760   2.963   1.311  0.2134 -0.0532  0.2004
  929SOL    HW1 2786   2.853   2.975   1.272 -0.2879 -0.1246  2.2230
  929SOL    HW2 2787   2.692   2.977   1.232 -4.1139 -0.1209 -3.5445
  930SOL     OW 2788   2.028   0.650   1.624  0.0080  0.3016 -0.0545
  930SOL    HW1 2789   2.042   0.549   1.647  1.5639 -3.9069  0.2658
  930SOL    HW2 2790   2.087   0.704   1.689  1.1454 -1.1530  2.5370
  931SOL     OW 2791   1.841   0.971   3.012 -0.5247  1.0514 -0.3758
  931SOL    HW1 2792   1.835   1.053   2.948 -1.2358  0.7047 -0.5305
  931SOL    HW2 2793   1.923   0.986   3.075  2.5683  0.9943 -1.6523
  932SOL     OW 2794   1.978   1.299   0.472 -1.0923 -0.4228 -0.1616
  932SOL    HW1 2795   2.029   1.210   0.456  1.8933 -2.7249 -0.9077
  932SOL    HW2 2796   1.876   1.274   0.484 -1.7856  0.0667  2.0041
  933SOL     OW 2797   2.196   1.681   1.001  0.0269  0.0228 -0.5646
  933SOL    HW1 2798   2.277   1.672   0.939 -1.6890 -2.3665  0.1617
  933SOL    HW2 2799   2.232   1.724   1.089 -0.2029 -0.5031 -1.8652
  934SOL     OW 2800   1.927   0.936   2.540  0.0799 -0.1561  0.4072
  934SOL    HW1 2801   1.994   0.859   2.525 -2.1434 -0.8661  0.4020
  934SOL    HW2 2802   1.832   0.897   2.528  0.1138 -1.8663  0.2211
  935SOL     OW 2803   0.178   0.907   0.609  0.6080  0.9238 -0.2268
  935SOL    HW1 2804   0.216   0.892   0.514  0.0012  1.5964  0.1741
  935SOL    HW2 2805   0.166   1.006   0.621 -0.3452 -0.5841  0.8160
  936SOL     OW 2806   0.472   0.059   0.783  0.4021  0.5925 -0.0821
  936SOL    HW1 2807   0.561   0.052   0.838  1.4697  1.1906 -1.3128
  936SOL    HW2 2808   0.493   0.094   0.690 -0.5922 -0.0327  1.9879
  937SOL     OW 2809   2.839   3.061   1.878 -0.7525 -0.0762  0.2241
  937SOL    HW1 2810   2.928   3.066   1.822 -0.1776 -1.2714 -0.9161
  937SOL    HW2 2811   2.826   2.968   1.928 -0.7657  0.5658  0.2372
  938SOL     OW 2812   3.061   2.424   2.949  0.5212 -0.3474  0.6064
  938SOL    HW1 2813   2.958   2.446   2.947 -0.1673  1.2623  1.7209
  938SOL    HW2 2814   0.023   2.500   3.003  0.0541  0.8043  0.4320
  939SOL     OW 2815   1.113   1.499   1.199 -0.4817 -0.6178  0.2603
  939SOL    HW1 2816   1.166   1.415   1.193 -3.4262  1.0776 -0.6540
  939SOL    HW2 2817   1.031   1.494   1.131 -0.2321 -2.8458  0.3540
  940SOL     OW 2818   2.983   0.583   3.014 -0.3038 -0.4687  0.2960
  940SOL    HW1 2819   2.969   0.492   2.968 -0.8998 -0.5949  1.7274
  940SOL    HW2 2820   3.025   0.562   0.023 -0.7759 -2.5155 -1.9652
  941SOL     OW 2821   2.224   0.321   2.616 -0.3029 -0.1765  0.3120
  941SOL    HW1 2822   2.213   0.334   2.515  1.0097 -1.2579 -0.9503
  941SOL    HW2 2823   2.131   0.324   2.661  1.8394  1.0030 -1.8437
  942SOL     OW 2824   1.577   0.572   0.862  0.4146  0.4594  0.3990
  942SOL    HW1 2825   1.526   0.490   0.889  1.3070  2.7665  0.4195
  942SOL    HW2 2826   1.671   0.580   0.900 -1.8806  1.9150  1.8829
  943SOL     OW 2827   1.095   0.816   1.965  0.1171  0.2479  0.6843
  943SOL    HW1 2828   1.044   0.752   2.025  0.8122 -0.9797  0.5122
  943SOL    HW2 2829   1.034   0.885   1.916 -1.1937  1.5646  0.5855
  944SOL     OW 2830   1.894   1.018   1.503  0.0722  0.0513 -0.1294
  944SOL    HW1 2831   1.908   0.922   1.471  0.8803 -0.2413  0.7810
  944SOL    HW2 2832   1.977   1.069   1.475  2.2793 -3.9620 -0.0791
  945SOL     OW 2833   2.898   0.064   2.919 -0.4591 -0.5011  0.1096
  945SOL    HW1 2834   2.837   0.051   2.839 -0.2039  3.1101  1.3920
  945SOL    HW2 2835   2.874   3.079   2.994  1.1825 -1.2666 -0.7437
  946SOL     OW 2836   2.998   1.123   1.892 -0.7720 -0.9763  0.4814
  946SOL    HW1 2837   2.967   1.156   1.799 -2.8577 -1.3892  2.0255
  946SOL    HW2 2838   3.058   1.038   1.882  2.3552 -2.6618 -0.6110
  947SOL     OW 2839   1.233   2.928   0.098 -0.6589  0.2108  0.3039
  947SOL    HW1 2840   1.173   2.849   0.082 -0.3158  0.2365 -0.5942
  947SOL    HW2 2841   1.191   2.986   0.166  4.6309  2.8185 -3.1638
  948SOL     OW 2842   2.298   1.750   1.230 -0.4496 -0.2570  0.2003
  948SOL    HW1 2843   2.289   1.768   1.329  0.8175 -1.2245  0.6492
  948SOL    HW2 2844   2.400   1.735   1.215 -1.0547  0.5021 -0.4275
  949SOL     OW 2845   0.228   1.424   0.042 -0.2473 -0.1806 -0.1173
  949SOL    HW1 2846   0.218   1.322   0.030  0.1248  1.0581 -1.3926
  949SOL    HW2 2847   0.288   1.449   3.046 -2.5394  0.0777  2.7025
  950SOL     OW 2848   0.713   2.450   1.104 -0.9384  0.0746 -0.0767
  950SOL    HW1 2849   0.639   2.499   1.155  0.4461  1.0821  0.0288
  950SOL    HW2 2850   0.689   2.459   1.003 -0.6074 -2.3066  0.1747
  951SOL     OW 2851   0.617   1.333   2.581 -0.3012 -0.0351  0.2215
  951SOL    HW1 2852   0.636   1.394   2.659  0.8495 -0.6549 -2.9448
  951SOL    HW2 2853   0.672   1.251   2.579  0.2719  0.8352  0.6055
  952SOL     OW 2854   0.603   0.652   0.643 -0.0947  0.1471  0.5018
  952SOL    HW1 2855   0.624   0.552   0.669 -0.8073 -3.2985  0.2685
  952SOL    HW2 2856   0.616   0.719   0.716 -0.4148 -0.5004 -1.1411
  953SOL     OW 2857   2.535   0.017   2.285 -0.2534  0.0265 -0.2753
  953SOL    HW1 2858   2.540   3.072   2.189 -1.4557  2.0582  1.3182
  953SOL    HW2 2859   2.576   0.108   2.311  0.0185 -0.1435 -1.4413
  954SOL     OW 2860   1.799   0.882   0.684 -0.0950 -0.2693 -0.7385
  954SOL    HW1 2861   1.813   0.975   0.723 -1.4542  1.3211  0.0297
  954SOL    HW2 2862   1.779   0.896   0.583  2.0936 -1.8677 -0.9166
  955SOL     OW 2863   0.672   2.012   0.363 -0.1925  0.0719 -0.1587
  955SOL    HW1 2864   0.751   2.041   0.308 -0.9142 -2.3675  0.2030
  955SOL    HW2 2865   0.639   2.090   0.420  2.9430  1.8281  1.0210
  956SOL     OW 2866   2.292   0.488   1.904 -0.1982  0.2569  0.1764
  956SOL    HW1 2867   2.289   0.545   1.990  1.5972 -0.3229  2.0278
  956SOL    HW2 2868   2.355   0.411   1.918 -0.8258  0.8813 -1.8740
  957SOL     OW 2869   2.210   2.360   1.812  0.0542  0.3360  0.0268
  957SOL    HW1 2870   2.277   2.427   1.850  0.5469 -0.6785 -1.2736
  957SOL    HW2 2871   2.251   2.267   1.808 -0.9027  2.5826  1.5785
  958SOL     OW 2872   1.629   1.089   1.434 -0.2742 -0.9552  0.2848
  958SOL    HW1 2873   1.618   1.185   1.434 -2.7232 -3.2294 -0.8895
  958SOL    HW2 2874   1.727   1.062   1.440  0.8682  0.0192  0.6445
  959SOL     OW 2875   2.033   1.676   2.113 -0.3353 -0.4260 -0.4313
  959SOL    HW1 2876   1.939   1.696   2.086  3.7109 -1.1735  1.4562
  959SOL    HW2 2877   2.053   1.728   2.199 -0.4461  1.6111 -3.0270
  960SOL     OW 2878   0.678   0.796   2.828 -0.3337  0.2948 -0.0863
  960SOL    HW1 2879   0.631   0.767   2.740 -0.3071 -2.7215  1.7599
  960SOL    HW2 2880   0.757   0.737   2.843  0.5988  1.2214  0.3704
  961SOL     OW 2881   0.194   1.163   3.065 -0.7529  0.0306  0.0902
  961SOL    HW1 2882   0.115   1.096   3.073  0.0409  0.7378  0.4636
  961SOL    HW2 2883   0.246   1.152   2.980 -2.1762  0.4755  1.7426
  962SOL     OW 2884   0.723   1.591   2.250  0.5083  0.7499  0.0849
  962SOL    HW1 2885   0.656   1.513   2.266 -3.0607 -1.9041  0.0301
  962SOL    HW2 2886   0.709   1.678   2.308 -0.7362  0.6179  2.0559
  963SOL     OW 2887   2.984   2.096   2.945 -0.0869  0.4440  0.0645
  963SOL    HW1 2888   2.954   2.032   2.870 -2.6756  1.3945 -1.2708
  963SOL    HW2 2889   2.982   2.195   2.918 -3.7905  1.5840  0.6916
  964SOL     OW 2890   0.840   1.764   1.853 -0.0038 -0.1601  0.5682
  964SOL    HW1 2891   0.874   1.691   1.914  0.2340 -0.8307  0.1953
  964SOL    HW2 2892   0.896   1.757   1.767  0.4813  1.1149 -0.3054
  965SOL     OW 2893   1.569   2.045   0.633 -0.2287  0.0781  0.2250
  965SOL    HW1 2894   1.592   2.141   0.607  1.7785  1.1594 -1.8368
  965SOL    HW2 2895   1.653   1.992   0.630  0.1508  1.5060  3.0842
  966SOL     OW 2896   2.925   1.740   0.146 -0.0621  0.1436 -0.2894
  966SOL    HW1 2897   2.990   1.818   0.128 -0.2070 -0.4792  0.0001
  966SOL    HW2 2898   2.977   1.655   0.118  1.2751 -2.1266  1.7174
  967SOL     OW 2899   2.079   3.003   2.236 -0.4603 -0.5600  0.1992
  967SOL    HW1 2900   2.164   3.004   2.293  1.7047 -0.4378 -1.6029
  967SOL    HW2 2901   2.057   2.910   2.207 -0.7512  2.3738 -0.1391
  968SOL     OW 2902   0.905   0.474   0.400  0.2624  0.1447  0.3885
  968SOL    HW1 2903   0.890   0.555   0.460  0.5180  0.2582  1.3065
  968SOL    HW2 2904   0.947   0.502   0.315  0.3934  3.0285  2.3642
  969SOL     OW 2905   0.458   1.680   2.087 -0.0649 -0.1158 -0.1221
  969SOL    HW1 2906   0.520   1.761   2.067  1.7230  1.1247 -0.6815
  969SOL    HW2 2907   0.515   1.594   2.075 -1.6069  1.2361  0.0004
  970SOL     OW 2908   1.789   2.589   1.257  0.1268  0.1013  0.3105
  970SOL    HW1 2909   1.872   2.621   1.208 -0.8479 -0.9440 -3.0206
  970SOL    HW2 2910   1.785   2.489   1.262 -1.9307 -0.0394 -1.8036
  971SOL     OW 2911   2.250   2.483   0.880 -0.4203 -0.0195 -0.3084
  971SOL    HW1 2912   2.182   2.561   0.867 -2.2740  1.4906 -2.5486
  971SOL    HW2 2913   2.260   2.464   0.978 -0.7249  1.7275  0.7896
  972SOL     OW 2914   0.114   1.057   2.505 -0.0986  0.5115  0.4561
  972SOL    HW1 2915   0.165   1.006   2.435  3.0108  1.0387  2.9896
  972SOL    HW2 2916   0.176   1.100   2.571  1.2302  0.0596 -1.8290
  973SOL     OW 2917   0.602   0.042   0.539  0.1381  0.5378  0.2483
  973SOL    HW1 2918   0.700   0.070   0.557 -0.2706 -3.0060 -1.6604
  973SOL    HW2 2919   0.560   0.125   0.495  1.1250  0.0715 -0.7536
  974SOL     OW 2920   2.246   1.062   1.868  0.6841  0.7461  0.1958
  974SOL    HW1 2921   2.167   1.125   1.875  1.7841 -0.2782 -1.8961
  974SOL    HW2 2922   2.329   1.090   1.918 -1.9506  0.0078 -0.8946
  975SOL     OW 2923   0.108   3.050   0.549  0.0332 -0.1961  0.0191
  975SOL    HW1 2924   0.033   2.977   0.535  2.0592 -2.3007  0.6847
  975SOL    HW2 2925   0.169   3.056   0.470  2.4827  1.5635 -0.2250
  976SOL     OW 2926   0.212   2.017   0.913  0.1485  0.2778 -0.2448
  976SOL    HW1 2927   0.140   1.967   0.962  2.1774  0.3324  0.5045
  976SOL    HW2 2928   0.251   1.966   0.835 -0.9324 -0.0340 -0.0670
  977SOL     OW 2929   0.927   1.949   0.612 -0.8280  0.2495 -0.1932
  977SOL    HW1 2930   0.863   1.883   0.568  0.7186  1.0520  0.1774
  977SOL    HW2 2931   0.881   2.004   0.682  0.3026 -0.4499 -1.9243
  978SOL     OW 2932   0.177   0.734   0.159  0.3632  0.7609  0.4739
  978SOL    HW1 2933   0.258   0.711   0.101 -0.6576 -2.3296  2.7662
  978SOL    HW2 2934   0.119   0.801   0.111 -1.1552 -0.5857  2.9037
  979SOL     OW 2935   1.789   1.600   0.740  0.0150  0.0292 -0.2223
  979SOL    HW1 2936   1.891   1.599   0.751  2.8692 -1.9740 -3.1019
  979SOL    HW2 2937   1.744   1.596   0.831 -0.0922  1.6114 -0.8374
  980SOL     OW 2938   0.603   2.203   2.027 -0.3198 -0.1397 -0.0807
  980SOL    HW1 2939   0.670   2.241   2.091 -3.8749 -1.9931  0.0195
  980SOL    HW2 2940   0.624   2.110   2.000 -1.1585 -0.5405 -0.7477
  981SOL     OW 2941   2.232   1.046   2.911 -0.0300  0.1540 -0.7155
  981SOL    HW1 2942   2.203   1.144   2.898 -2.3548  1.7539  1.3379
  981SOL    HW2 2943   2.198   1.002   2.998 -4.6753 -1.1409 -2.2154
  982SOL     OW 2944   3.058   2.675   1.815 -0.2839 -0.5605 -0.4194
  982SOL    HW1 2945   3.005   2.712   1.895 -3.2705  1.9771  0.1152
  982SOL    HW2 2946   0.073   2.653   1.840  1.0802  2.9252  1.1006
  983SOL     OW 2947   1.656   0.152   1.690  0.0781 -0.0953 -0.5086
  983SOL    HW1 2948   1.644   0.253   1.717  3.4526  1.5647 -0.0506
  983SOL    HW2 2949   1.568   0.102   1.694 -0.5048 -0.1263  0.7453
  984SOL     OW 2950   1.939   2.854   2.556  0.0229  0.1567 -0.0743
  984SOL    HW1 2951   2.035   2.841   2.589 -0.4908  2.6080 -0.3368
  984SOL    HW2 2952   1.887   2.765   2.546 -1.7519 -3.2124  2.2240
  985SOL     OW 2953   1.625   1.384   1.671 -0.1070  0.0184 -0.0537
  985SOL    HW1 2954   1.546   1.321   1.679 -1.4399 -2.1542 -0.1187
  985SOL    HW2 2955   1.607   1.468   1.729 -0.6976  1.3542  1.1634
  986SOL     OW 2956   2.195   2.664   2.368 -0.3466 -0.4005 -0.2432
  986SOL    HW1 2957   2.205   2.740   2.434  0.2389 -1.4567 -1.5553
  986SOL    HW2 2958   2.207   2.568   2.406 -1.0162 -2.4914  0.9797
  987SOL     OW 2959   2.884   1.883   2.781 -0.2651  0.0805 -0.2171
  987SOL    HW1 2960   2.872   1.794   2.743  0.7735 -0.0378  0.5913
  987SOL    HW2 2961   2.823   1.948   2.732  1.5450 -3.2610  0.7883
  988SOL     OW 2962   2.946   0.633   1.474 -0.0278  0.2611 -0.4862
  988SOL    HW1 2963   2.881   0.600   1.546 -1.3311 -3.0809  0.2669
  988SOL    HW2 2964   2.901   0.706   1.420  0.8124 -2.3407 -1.6793
  989SOL     OW 2965   1.958   1.354   1.382 -0.3722 -0.8991  0.7805
  989SOL    HW1 2966   2.016   1.413   1.321 -1.5565 -1.4859 -1.0667
  989SOL    HW2 2967   2.019   1.285   1.423  3.2008 -0.0394  0.1245
  990SOL     OW 2968   2.727   0.616   0.103  0.3841  0.1449 -0.2475
  990SOL    HW1 2969   2.699   0.711   0.075 -1.7093 -1.2205 -0.1660
  990SOL    HW2 2970   2.664   0.548   0.067  0.0019 -0.1602  3.9251
  991SOL     OW 2971   0.372   1.766   3.058  0.0886  0.3733 -0.0625
  991SOL    HW1 2972   0.392   1.831   2.982 -0.4885  2.1761 -2.1523
  991SOL    HW2 2973   0.440   1.777   0.054  1.2937  2.0294  1.4604
  992SOL     OW 2974   2.204   1.656   1.725 -0.1098 -0.3980 -0.1709
  992SOL    HW1 2975   2.132   1.586   1.696 -0.8106 -1.3522 -1.6865
  992SOL    HW2 2976   2.265   1.603   1.785 -2.7404  0.3293 -0.4427
  993SOL     OW 2977   0.908   2.960   0.709 -0.4199 -0.2070 -0.5582
  993SOL    HW1 2978   0.890   3.059   0.685  0.0344  1.7650 -0.5468
  993SOL    HW2 2979   0.995   2.927   0.664  0.0535 -1.2026 -1.3664
  994SOL     OW 2980   2.667   1.938   1.557 -0.4848  0.3348 -0.7570
  994SOL    HW1 2981   2.744   1.926   1.627  2.3578  0.2237  3.8563
  994SOL    HW2 2982   2.622   1.847   1.539  0.1423 -0.6936  0.9222
  995SOL     OW 2983   2.097   1.797   2.337 -0.5307  0.0421  0.2448
  995SOL    HW1 2984   2.024   1.866   2.338  0.0594 -1.0080  0.7024
  995SOL    HW2 2985   2.180   1.850   2.353  0.6830 -0.7163 -0.3179
  996SOL     OW 2986   1.898   1.694   3.038 -0.8799  0.5317  0.1860
  996SOL    HW1 2987   1.822   1.647   0.010  0.1835  0.1293 -2.6102
  996SOL    HW2 2988   1.949   1.765   0.014  2.1242  1.4833  1.8388
  997SOL     OW 2989   1.204   1.437   2.236 -0.0612 -0.5499  0.4256
  997SOL    HW1 2990   1.120   1.464   2.289  0.6676 -2.4926 -2.5768
  997SOL    HW2 2991   1.264   1.514   2.213 -0.1932  0.6519  2.0114
  998SOL     OW 2992   2.673   2.385   0.726 -0.3147 -0.1769 -0.3520
  998SOL    HW1 2993   2.712   2.323   0.652 -3.4970 -0.3425 -1.8204
  998SOL    HW2 2994   2.755   2.414   0.784 -1.5940 -2.0776 -1.2686
  999SOL     OW 2995   0.079   2.555   0.910 -0.0964 -0.3559 -0.3065
  999SOL    HW1 2996   0.153   2.483   0.922 -0.4264 -2.8096 -1.1498
  999SOL    HW2 2997   0.105   2.627   0.839  1.5595 -0.6968 -0.8388
 1000SOL     OW 2998   1.147   3.057   2.914 -0.2996  0.1427 -0.3656
 1000SOL    HW1 2999   1.199   3.017   2.988  1.7981 -0.0113  0.4689
 1000SOL    HW2 3000   1.054   0.002   2.948 -1.2908  0.0229 -0.6842
   3.07991   3.07991   3.07991
