1000 SPC/Fw water molecules t= 177.00000 step= 177000
 3000
    1SOL     OW    1   2.714   3.091   0.994  0.0799  0.2480 -0.0328
    1SOL    HW1    2   2.678   0.046   0.955  0.2007 -1.1028  1.8186
    1SOL    HW2    3   2.739   3.022   0.922  1.3048 -1.3341 -0.1136
    2SOL     OW    4   1.536   1.833   2.135 -0.1162  0.2976  0.0461
    2SOL    HW1    5   1.493   1.747   2.158  1.6474 -0.0404  0.1437
    2SOL    HW2    6   1.531   1.868   2.042  0.1097 -0.5321  2.2097
    3SOL     OW    7   1.877   2.570   2.160 -0.3255 -0.3361 -0.2004
    3SOL    HW1    8   1.927   2.650   2.120 -1.3128  0.5736  1.9434
    3SOL    HW2    9   1.836   2.597   2.251  1.0613 -0.8351  3.0768
    4SOL     OW   10   2.028   2.076   1.966  0.2901  0.2720 -0.3758
    4SOL    HW1   11   2.021   2.130   2.056 -0.4528 -0.2184 -0.4261
    4SOL    HW2   12   1.994   2.136   1.891 -0.5753  2.9503 -1.5459
    5SOL     OW   13   1.126   0.703   1.874 -0.3843  0.2919  0.2733
    5SOL    HW1   14   1.228   0.727   1.867  4.4728  0.5745 -1.4884
    5SOL    HW2   15   1.063   0.778   1.857  0.1938  0.8858 -3.5011
    6SOL     OW   16   2.692   0.852   2.959  0.4800  0.2297  0.6352
    6SOL    HW1   17   2.664   0.843   2.864 -1.1414  0.6621 -1.4916
    6SOL    HW2   18   2.611   0.834   3.021  0.4738 -1.9792  2.9272
    7SOL     OW   19   1.056   0.934   1.468  0.4225  0.4584 -0.5494
    7SOL    HW1   20   1.049   0.837   1.435  0.4915 -0.9287  0.2951
    7SOL    HW2   21   1.053   1.000   1.389 -1.5451  2.1232  0.1301
    8SOL     OW   22   1.092   3.117   1.117  0.1643  0.5691 -0.2830
    8SOL    HW1   23   1.144   0.033   1.195 -0.5504 -0.6554 -2.7563
    8SOL    HW2   24   0.995   0.016   1.117 -0.4899 -0.3724 -0.6939
    9SOL     OW   25   0.787   0.913   0.008 -0.7818 -0.1566  0.4518
    9SOL    HW1   26   0.716   0.978   3.113  0.4917 -1.3337  0.1791
    9SOL    HW2   27   0.841   0.939   0.088 -0.1293 -2.2904  0.7456
   10SOL     OW   28   0.330   2.754   0.273  0.0441 -0.0011  0.2939
   10SOL    HW1   29   0.226   2.765   0.264 -3.0934 -0.6256 -0.4298
   10SOL    HW2   30   0.357   2.657   0.263  0.0651  0.1377  0.8192
   11SOL     OW   31   0.305   1.428   0.035  0.3681  0.1057  0.4295
   11SOL    HW1   32   0.365   1.414   3.080  1.8579 -1.2234  2.1863
   11SOL    HW2   33   0.216   1.464   3.121  0.9580  0.6602 -1.3902
   12SOL     OW   34   0.654   3.090   1.369  0.4129 -0.1578  0.1514
   12SOL    HW1   35   0.731   3.117   1.431  1.3590 -1.8404 -1.6381
   12SOL    HW2   36   0.627   2.994   1.392  0.1323 -1.5196 -0.6082
   13SOL     OW   37   1.049   2.926   0.586 -0.2022 -0.2479  0.0526
   13SOL    HW1   38   1.138   2.976   0.612  0.6275  0.8880  0.8850
   13SOL    HW2   39   0.973   2.994   0.581 -1.5282 -1.1792  0.3507
   14SOL     OW   40   1.035   1.985   1.149 -0.2251  0.0439  0.2815
   14SOL    HW1   41   0.946   2.011   1.186  2.9708  1.7783 -0.4625
   14SOL    HW2   42   1.089   1.946   1.222  1.0219 -0.3413  0.0008
   15SOL     OW   43   2.888   0.693   2.263  0.1395  0.6511 -0.5831
   15SOL    HW1   44   2.806   0.753   2.277  0.7066 -0.0610  0.6829
   15SOL    HW2   45   2.866   0.599   2.301 -2.7150 -0.2762  0.1089
   16SOL     OW   46   1.411   2.800   2.673  0.2329  0.1440 -0.0823
   16SOL    HW1   47   1.391   2.730   2.605  0.8120  0.0729  0.8322
   16SOL    HW2   48   1.335   2.809   2.742 -0.6418  1.6794 -0.7886
   17SOL     OW   49   0.860   0.002   1.519  0.6110 -0.0554 -0.3606
   17SOL    HW1   50   0.792   0.012   1.593  2.5816 -0.1439  2.1288
   17SOL    HW2   51   0.939   0.058   1.548 -1.0589  2.0287  2.4915
   18SOL     OW   52   1.361   0.696   0.225  0.0782  0.0658 -0.5338
   18SOL    HW1   53   1.385   0.663   0.137 -1.2606  0.6375  4.4910
   18SOL    HW2   54   1.382   0.618   0.290 -0.4851 -2.4905 -0.4668
   19SOL     OW   55   2.296   1.524   2.987  0.4048  0.3085  0.2678
   19SOL    HW1   56   2.245   1.460   2.924 -2.6131 -1.5784 -1.1877
   19SOL    HW2   57   2.373   1.575   2.942  4.1857  1.2643  0.3118
   20SOL     OW   58   2.116   1.637   1.924  0.1500  0.3018  0.4518
   20SOL    HW1   59   2.057   1.678   2.002 -1.8977  2.1763  1.8693
   20SOL    HW2   60   2.089   1.688   1.836 -1.3841 -0.2519  1.1713
   21SOL     OW   61   0.490   1.380   2.942 -0.0758 -0.0164 -0.0937
   21SOL    HW1   62   0.586   1.379   2.908  1.6270 -1.3585  0.0362
   21SOL    HW2   63   0.427   1.400   2.861 -2.1231  0.9381 -0.9525
   22SOL     OW   64   2.576   3.069   1.441  0.3782  0.1772 -0.1044
   22SOL    HW1   65   2.502   3.021   1.388  0.9364 -0.4524 -0.5998
   22SOL    HW2   66   2.582   0.036   1.401 -0.9265 -0.4258 -0.9222
   23SOL     OW   67   2.932   0.787   1.756  0.8745 -0.6927 -0.4777
   23SOL    HW1   68   2.876   0.872   1.775 -0.2812 -0.2985  2.2215
   23SOL    HW2   69   2.934   0.769   1.653  1.7180  1.3368  0.5608
   24SOL     OW   70   2.683   2.248   1.476 -0.4906 -0.0916  0.2145
   24SOL    HW1   71   2.594   2.285   1.512  0.5662  1.3821  1.2227
   24SOL    HW2   72   2.763   2.277   1.529 -1.2873  0.3271 -3.1282
   25SOL     OW   73   2.057   2.842   2.558  0.1228 -0.4209  0.0084
   25SOL    HW1   74   2.095   2.821   2.469 -2.1352  0.6032  1.2010
   25SOL    HW2   75   1.956   2.825   2.554  1.6954  0.5432 -1.2341
   26SOL     OW   76   1.432   3.103   3.029 -0.1734 -0.1461  0.2542
   26SOL    HW1   77   1.471   0.045   2.964  0.7433 -1.6464  0.4072
   26SOL    HW2   78   1.496   3.022   3.043 -0.9486 -3.1721  0.3926
   27SOL     OW   79   0.617   2.202   3.003  0.0360 -0.4422 -0.0037
   27SOL    HW1   80   0.583   2.147   3.083 -1.3202  1.6107 -0.5220
   27SOL    HW2   81   0.543   2.231   2.938 -0.9697 -3.3421 -2.8202
   28SOL     OW   82   0.032   1.513   1.285 -0.3388  0.1627  1.1380
   28SOL    HW1   83   3.074   1.473   1.242 -2.3133  1.7744  0.2298
   28SOL    HW2   84   0.113   1.454   1.257  2.8392 -2.0009 -1.6724
   29SOL     OW   85   2.604   1.883   2.047  0.2244  0.0927 -0.3172
   29SOL    HW1   86   2.542   1.822   2.104 -1.8806 -2.7548  2.5162
   29SOL    HW2   87   2.704   1.878   2.075  2.5768  0.6798 -0.1825
   30SOL     OW   88   1.200   2.958   0.945  0.3090  0.1616 -0.2398
   30SOL    HW1   89   1.138   2.884   0.904 -2.8512  2.5943  2.3965
   30SOL    HW2   90   1.155   3.019   1.021 -0.2752  1.0319 -0.5480
   31SOL     OW   91   0.021   2.161   1.893  0.3302  0.4725 -0.0499
   31SOL    HW1   92   3.063   2.216   1.871  0.5902  0.7666  1.0641
   31SOL    HW2   93   0.092   2.184   1.830 -1.5839 -1.9519  0.5540
   32SOL     OW   94   1.421   0.999   1.841  0.7999  0.4787 -0.0961
   32SOL    HW1   95   1.373   1.017   1.753  1.2894  0.5230 -0.2273
   32SOL    HW2   96   1.369   1.062   1.905 -1.5228  1.4377 -1.5194
   33SOL     OW   97   0.078   2.574   2.287  0.2631 -0.3606 -0.0551
   33SOL    HW1   98   3.114   2.619   2.305 -1.9519  3.1736 -0.1636
   33SOL    HW2   99   0.119   2.613   2.202  0.1156 -0.2326 -0.7059
   34SOL     OW  100   2.064   0.024   1.047  0.0441  0.2725  0.3666
   34SOL    HW1  101   2.032   0.037   0.952 -0.9875  2.1070  0.8120
   34SOL    HW2  102   2.081   0.119   1.085  1.3122 -1.9866 -1.7435
   35SOL     OW  103   2.272   0.753   1.544  0.4008  0.3527  0.1152
   35SOL    HW1  104   2.235   0.849   1.531 -1.8060  0.7206 -3.1764
   35SOL    HW2  105   2.368   0.757   1.577  1.1746  3.0688  0.5715
   36SOL     OW  106   2.472   2.396   2.057  0.0973  0.5854 -0.0111
   36SOL    HW1  107   2.502   2.300   2.076 -1.4134 -0.2500  1.9603
   36SOL    HW2  108   2.378   2.400   2.020 -2.0672  3.2177  1.0791
   37SOL     OW  109   0.806   2.371   2.419  0.7038 -0.0239 -0.6670
   37SOL    HW1  110   0.865   2.391   2.340 -1.6389 -0.6864 -2.6072
   37SOL    HW2  111   0.862   2.391   2.500 -0.7211 -0.8119 -2.3292
   38SOL     OW  112   2.702   0.225   2.960 -0.3985  0.0731  1.0340
   38SOL    HW1  113   2.630   0.215   3.035 -0.1585 -2.5508 -0.3981
   38SOL    HW2  114   2.796   0.208   2.993  0.2375 -0.0123 -0.3982
   39SOL     OW  115   2.012   1.675   2.183 -0.3350  0.0499 -0.6137
   39SOL    HW1  116   2.002   1.590   2.241  1.2706 -0.2227 -0.3013
   39SOL    HW2  117   2.083   1.743   2.214  0.1686  1.5857 -0.2785
   40SOL     OW  118   0.077   2.893   2.597  0.1950  0.2317 -0.1941
   40SOL    HW1  119   0.017   2.845   2.663 -1.5749  2.3296  0.0167
   40SOL    HW2  120   0.145   2.823   2.561  1.7424 -1.1034 -3.1117
   41SOL     OW  121   1.805   0.669   1.275  0.0066 -0.1705  0.4080
   41SOL    HW1  122   1.797   0.619   1.361 -1.6473  2.8118 -0.5813
   41SOL    HW2  123   1.833   0.609   1.200  1.3014 -2.6559 -0.5683
   42SOL     OW  124   1.015   0.204   1.863 -0.0309  0.1165 -0.2038
   42SOL    HW1  125   1.031   0.306   1.868  0.6440  1.5099  1.0275
   42SOL    HW2  126   0.922   0.185   1.904  2.0371  3.1701 -0.1431
   43SOL     OW  127   2.113   0.803   1.936 -0.4107 -0.5994 -0.0977
   43SOL    HW1  128   2.201   0.861   1.919  0.4759 -1.2562 -1.4247
   43SOL    HW2  129   2.039   0.847   1.876  0.1362  1.5141 -1.8306
   44SOL     OW  130   0.032   2.921   0.346  0.2756 -0.4196 -0.1835
   44SOL    HW1  131   3.056   2.926   0.350 -0.5488 -1.7630 -0.6352
   44SOL    HW2  132   0.077   3.013   0.320  1.4984  0.2780 -1.2839
   45SOL     OW  133   0.203   2.418   1.830 -0.1554 -0.4408  0.0974
   45SOL    HW1  134   0.111   2.448   1.862  0.1577  1.2614 -1.1361
   45SOL    HW2  135   0.252   2.489   1.775  0.9007  1.5725 -0.4861
   46SOL     OW  136   2.092   2.347   2.232  0.0960 -0.1636  0.4831
   46SOL    HW1  137   2.173   2.293   2.263  0.8620  0.6120  1.3056
   46SOL    HW2  138   2.085   2.434   2.284  1.9197  2.1952 -3.2147
   47SOL     OW  139   1.484   2.141   1.555  0.6422 -0.0274  0.1487
   47SOL    HW1  140   1.516   2.238   1.569 -2.1208  0.1912  0.7181
   47SOL    HW2  141   1.399   2.129   1.502  2.9016 -0.8174  1.2128
   48SOL     OW  142   0.394   1.576   0.456  0.5021  0.3628 -0.1534
   48SOL    HW1  143   0.463   1.640   0.490  0.0929  0.2250 -0.4392
   48SOL    HW2  144   0.316   1.578   0.519 -2.2226  4.9657  1.0243
   49SOL     OW  145   2.817   0.375   2.619 -0.0284 -0.4053  0.2234
   49SOL    HW1  146   2.799   0.446   2.690 -0.1975  0.4349  0.8112
   49SOL    HW2  147   2.849   0.413   2.532  0.5338 -0.4227  3.2300
   50SOL     OW  148   2.039   0.925   0.652 -0.4139 -0.6280 -0.3841
   50SOL    HW1  149   1.970   1.004   0.646  1.6098 -2.1913 -0.6925
   50SOL    HW2  150   2.137   0.955   0.662  0.9270  1.5045  1.5019
   51SOL     OW  151   1.463   0.436   0.877  0.4106 -0.2770  0.2408
   51SOL    HW1  152   1.391   0.395   0.933  0.7671 -1.2784 -0.2221
   51SOL    HW2  153   1.422   0.505   0.820 -2.3341 -4.4507  0.3882
   52SOL     OW  154   1.333   1.314   3.109  0.2499  0.3963  0.3491
   52SOL    HW1  155   1.320   1.259   0.073 -2.0633 -1.2447 -0.1211
   52SOL    HW2  156   1.337   1.411   3.125 -2.4379 -2.3786  1.0527
   53SOL     OW  157   1.087   1.982   2.888 -0.4531 -0.0769  0.0315
   53SOL    HW1  158   1.019   1.978   2.967 -1.3626  2.0527  0.3732
   53SOL    HW2  159   1.139   2.066   2.890 -0.8003 -0.9081  1.1360
   54SOL     OW  160   2.064   0.448   1.314  0.1731  0.7246  0.1812
   54SOL    HW1  161   2.151   0.499   1.297 -0.2502  2.7169  3.5766
   54SOL    HW2  162   2.028   0.461   1.408 -2.6907  1.8090 -1.1184
   55SOL     OW  163   2.342   2.775   0.634 -0.4675 -0.4362  0.1137
   55SOL    HW1  164   2.366   2.864   0.594  0.6303 -2.2909 -1.7477
   55SOL    HW2  165   2.261   2.740   0.579 -0.9337  1.3182  0.1116
   56SOL     OW  166   0.605   2.790   1.508 -0.0169  0.2015 -0.6078
   56SOL    HW1  167   0.603   2.690   1.480  0.5250  0.7046 -1.8455
   56SOL    HW2  168   0.636   2.800   1.604  1.7645  0.4737  0.2000
   57SOL     OW  169   1.644   1.361   0.541  0.1940 -0.2305  0.0552
   57SOL    HW1  170   1.619   1.302   0.459  0.0817 -1.5363  0.5219
   57SOL    HW2  171   1.730   1.414   0.514  0.8701  0.5007 -2.3342
   58SOL     OW  172   0.278   0.879   2.313 -0.1151  0.1693  0.2888
   58SOL    HW1  173   0.212   0.938   2.255 -0.2222  1.1551  1.8327
   58SOL    HW2  174   0.268   0.778   2.299  1.0497  1.9759 -1.2419
   59SOL     OW  175   0.974   2.849   2.294  0.4354 -0.1488  0.7947
   59SOL    HW1  176   1.051   2.795   2.336  1.1787 -0.0815  3.7060
   59SOL    HW2  177   1.008   2.942   2.259 -0.6446  1.2077 -0.6208
   60SOL     OW  178   2.512   2.763   1.014 -0.0258  0.5356  0.3599
   60SOL    HW1  179   2.440   2.821   0.971  0.6673  1.6321  2.4561
   60SOL    HW2  180   2.506   2.768   1.115  2.6009  2.1142  2.1063
   61SOL     OW  181   1.096   2.012   0.755 -0.3949  0.2723  0.2527
   61SOL    HW1  182   1.026   1.954   0.796  1.0413  1.5158 -0.7029
   61SOL    HW2  183   1.121   2.089   0.816 -0.1315 -3.5182  0.2770
   62SOL     OW  184   2.279   2.687   2.721 -0.2603 -0.6007  0.1231
   62SOL    HW1  185   2.211   2.641   2.786  0.5402 -0.0401  3.6094
   62SOL    HW2  186   2.235   2.760   2.668 -0.4960 -0.1846 -0.8238
   63SOL     OW  187   2.298   0.664   2.977 -0.0062 -0.1321  0.1990
   63SOL    HW1  188   2.201   0.689   2.989  1.9502  1.6966 -0.7556
   63SOL    HW2  189   2.309   0.566   3.010 -0.4756 -0.1354  0.5358
   64SOL     OW  190   0.957   0.964   2.915  0.1985  0.6090 -0.2801
   64SOL    HW1  191   1.000   1.051   2.947 -2.4974 -0.5503 -0.4671
   64SOL    HW2  192   0.892   0.930   2.989 -2.6934 -0.3466  0.9804
   65SOL     OW  193   1.342   2.353   0.585  0.0397 -0.6123  0.1007
   65SOL    HW1  194   1.263   2.334   0.643 -1.5216 -0.7722  0.7326
   65SOL    HW2  195   1.380   2.264   0.551 -0.5368 -3.5811 -0.3781
   66SOL     OW  196   0.870   1.324   1.654 -0.2519  0.4597  0.3920
   66SOL    HW1  197   0.885   1.220   1.641  0.1275 -0.8440  0.5258
   66SOL    HW2  198   0.901   1.357   1.744 -2.4540 -2.0447 -0.7942
   67SOL     OW  199   2.336   2.979   2.442  0.1354 -0.0629 -0.6215
   67SOL    HW1  200   2.298   2.904   2.388 -1.0917  2.5377 -0.0106
   67SOL    HW2  201   2.416   3.015   2.399 -0.7312 -0.3773  0.4428
   68SOL     OW  202   0.677   1.496   1.219  0.6533 -0.2274 -0.4379
   68SOL    HW1  203   0.768   1.538   1.201  0.5603 -1.8589  0.2559
   68SOL    HW2  204   0.695   1.397   1.218  0.3955 -0.3792  0.8371
   69SOL     OW  205   1.393   2.373   0.290  0.3090 -0.3726 -0.8071
   69SOL    HW1  206   1.381   2.378   0.392 -2.3619 -0.3997  2.1510
   69SOL    HW2  207   1.380   2.468   0.253  1.4527  0.2174 -0.3882
   70SOL     OW  208   0.100   1.000   2.507 -0.1315  0.1283  0.3872
   70SOL    HW1  209   0.001   1.022   2.528  0.2858  2.4523  0.8963
   70SOL    HW2  210   0.105   0.912   2.462 -0.2520 -0.7164  0.0891
   71SOL     OW  211   0.097   1.827   2.627 -0.0401 -0.2878 -0.1011
   71SOL    HW1  212   0.167   1.793   2.559  2.4369  0.4826  3.5667
   71SOL    HW2  213   0.115   1.781   2.715 -1.5576 -0.4201 -1.4909
   72SOL     OW  214   2.809   2.323   0.543  0.0843 -0.3177 -0.2911
   72SOL    HW1  215   2.774   2.240   0.592  4.2702  0.3240  0.3083
   72SOL    HW2  216   2.774   2.317   0.446 -0.9693  0.8875 -1.0103
   73SOL     OW  217   0.598   1.765   0.527  0.4722 -0.1915  0.1944
   73SOL    HW1  218   0.589   1.864   0.495  0.6386  0.3108 -0.2199
   73SOL    HW2  219   0.686   1.745   0.563 -2.6326  1.5081  0.6021
   74SOL     OW  220   0.116   1.453   2.624 -0.0482  0.0431  0.2076
   74SOL    HW1  221   0.114   1.539   2.572 -1.5065  0.1702  1.9582
   74SOL    HW2  222   0.160   1.378   2.573  2.4326  0.0377  3.6928
   75SOL     OW  223   1.561   1.580   1.696  0.1104 -0.0525  0.1021
   75SOL    HW1  224   1.597   1.668   1.732 -0.0533 -0.7047 -1.0903
   75SOL    HW2  225   1.468   1.561   1.726  0.5219 -0.1016 -2.5865
   76SOL     OW  226   1.717   2.496   1.366  0.1576  0.4569 -0.5379
   76SOL    HW1  227   1.793   2.524   1.304  0.0683 -1.9520  0.1787
   76SOL    HW2  228   1.633   2.484   1.313  2.1568  0.6502  0.8976
   77SOL     OW  229   2.601   1.081   1.232 -0.1067  0.1239  0.4702
   77SOL    HW1  230   2.693   1.050   1.265  0.0177  0.2175  1.1273
   77SOL    HW2  231   2.572   1.014   1.154 -1.2097 -3.2583 -0.4185
   78SOL     OW  232   1.294   0.987   0.536  0.0706 -0.5918  0.6902
   78SOL    HW1  233   1.277   1.067   0.598  0.3069 -0.7393  0.7356
   78SOL    HW2  234   1.390   0.979   0.513 -1.0451 -4.2230  0.1509
   79SOL     OW  235   0.085   1.432   1.904  0.5053 -0.3276 -0.1497
   79SOL    HW1  236   0.148   1.403   1.832 -1.9160 -1.0362  3.1810
   79SOL    HW2  237   3.118   1.437   1.866  1.2999 -0.5235  3.3016
   80SOL     OW  238   1.623   0.979   1.569 -0.0158 -0.5002 -0.2400
   80SOL    HW1  239   1.611   0.878   1.596 -1.5591 -2.6326  0.3458
   80SOL    HW2  240   1.535   1.006   1.525  1.1932 -0.9060 -0.5756
   81SOL     OW  241   0.730   0.176   0.923 -0.2488 -0.3723  0.4425
   81SOL    HW1  242   0.780   0.228   0.850 -0.2522  0.8165  0.1729
   81SOL    HW2  243   0.649   0.135   0.881  0.2596  0.2578  0.9485
   82SOL     OW  244   1.492   2.871   1.554  0.2386 -0.1022 -0.1284
   82SOL    HW1  245   1.427   2.918   1.492 -0.8738  1.5318  1.2507
   82SOL    HW2  246   1.578   2.851   1.507 -1.7866  1.4715  3.4840
   83SOL     OW  247   0.854   2.153   0.973 -0.4735  0.2212  0.1200
   83SOL    HW1  248   0.770   2.113   0.930  0.7018  0.6470 -0.4314
   83SOL    HW2  249   0.934   2.088   0.975  2.2397 -2.3882  1.4524
   84SOL     OW  250   0.360   1.501   2.749  0.7510 -0.2667  0.4589
   84SOL    HW1  251   0.274   1.517   2.696 -1.8623 -2.0572 -1.9584
   84SOL    HW2  252   0.429   1.570   2.725  0.8299  0.1827  1.2511
   85SOL     OW  253   0.132   2.282   1.357 -0.0199  0.4962  0.4741
   85SOL    HW1  254   0.038   2.311   1.372  2.5285 -2.4338 -1.3165
   85SOL    HW2  255   0.191   2.366   1.366 -2.1151 -1.3944 -0.0614
   86SOL     OW  256   2.415   2.319   1.576  0.5804 -0.2795 -0.3996
   86SOL    HW1  257   2.342   2.249   1.550  0.6796 -2.2991 -1.7854
   86SOL    HW2  258   2.409   2.405   1.523  0.0992  3.0025  0.9058
   87SOL     OW  259   2.710   2.244   0.290  0.0350 -0.4222 -0.0764
   87SOL    HW1  260   2.645   2.190   0.339 -0.5447  0.5588 -2.6151
   87SOL    HW2  261   2.724   2.194   0.205  0.5601  0.2201  0.9601
   88SOL     OW  262   0.427   1.545   1.074  0.2658 -0.0600 -0.2626
   88SOL    HW1  263   0.389   1.628   1.124  0.5828  1.6286  0.9522
   88SOL    HW2  264   0.499   1.503   1.133  2.2585 -2.6881  1.9195
   89SOL     OW  265   1.085   2.830   1.847 -0.8382 -0.1097 -0.2954
   89SOL    HW1  266   1.043   2.794   1.760 -0.5469 -0.9039  2.5013
   89SOL    HW2  267   1.108   2.930   1.826  0.5532  1.7784 -0.3110
   90SOL     OW  268   3.096   1.744   1.402 -0.0037 -0.7048  0.1414
   90SOL    HW1  269   3.002   1.710   1.426 -1.9374 -0.1093 -2.2309
   90SOL    HW2  270   0.028   1.678   1.352  0.6955 -0.3516 -1.5163
   91SOL     OW  271   1.521   1.996   1.127 -0.0351 -0.5644 -0.6873
   91SOL    HW1  272   1.429   1.967   1.088  1.8608 -0.9210  0.3705
   91SOL    HW2  273   1.532   1.955   1.217  0.1642 -0.5555 -2.5336
   92SOL     OW  274   2.461   2.564   1.466  0.1333  0.2559 -0.0509
   92SOL    HW1  275   2.442   2.653   1.511 -1.2520  0.3493 -1.1243
   92SOL    HW2  276   2.544   2.579   1.412 -1.4906 -2.6541 -0.7564
   93SOL     OW  277   2.736   1.677   2.651  0.0202 -0.3112 -0.2924
   93SOL    HW1  278   2.719   1.613   2.573  1.3696 -2.3585  0.2425
   93SOL    HW2  279   2.813   1.735   2.629 -1.2549 -1.8254  2.4309
   94SOL     OW  280   2.676   2.851   2.049  0.3416 -0.3409  0.3858
   94SOL    HW1  281   2.690   2.816   2.146 -1.9091 -2.3694  1.3483
   94SOL    HW2  282   2.628   2.783   1.986 -2.2218 -0.2531 -2.7024
   95SOL     OW  283   1.591   0.164   1.627 -0.1224  0.5540 -0.1694
   95SOL    HW1  284   1.627   0.247   1.673 -0.6356  1.6373 -0.9403
   95SOL    HW2  285   1.652   0.113   1.560 -0.3052  0.2335 -1.0424
   96SOL     OW  286   2.904   2.792   1.547 -0.3670  0.2049  0.1775
   96SOL    HW1  287   2.878   2.874   1.494  2.2345  0.7729  3.2196
   96SOL    HW2  288   2.989   2.746   1.517 -1.4405 -2.0299 -0.7119
   97SOL     OW  289   2.264   0.254   1.560 -0.2246 -0.1829 -0.2722
   97SOL    HW1  290   2.209   0.204   1.628 -2.0432  1.2877 -1.6457
   97SOL    HW2  291   2.329   0.316   1.602  0.5820 -0.2493 -0.8500
   98SOL     OW  292   1.296   2.434   1.617 -0.1514 -0.1845 -0.2890
   98SOL    HW1  293   1.288   2.519   1.667  1.8461 -0.8019 -1.3514
   98SOL    HW2  294   1.397   2.413   1.609  1.8517 -1.1100 -0.5237
   99SOL     OW  295   0.038   0.035   1.849  0.0964  0.4275 -0.4492
   99SOL    HW1  296   0.039   3.071   1.804  0.8544  0.4569  1.3659
   99SOL    HW2  297   0.017   0.012   1.948  0.7986  0.2361  1.6952
  100SOL     OW  298   2.983   1.154   2.324  0.2572  0.0542  0.1347
  100SOL    HW1  299   2.986   1.251   2.292 -2.6575 -2.3017  1.1906
  100SOL    HW2  300   2.963   1.141   2.422 -1.1623 -0.7774 -0.3072
  101SOL     OW  301   1.779   0.664   0.309 -0.1289  0.8479 -0.0519
  101SOL    HW1  302   1.839   0.615   0.366 -2.6080  1.8686 -4.4550
  101SOL    HW2  303   1.713   0.605   0.264  3.1298  5.1119  3.4546
  102SOL     OW  304   3.106   0.616   1.277  0.2237 -0.4740  0.4915
  102SOL    HW1  305   3.077   0.578   1.183 -1.2856  0.9346 -0.7026
  102SOL    HW2  306   0.030   0.706   1.275  1.3080 -0.7726 -0.4942
  103SOL     OW  307   2.399   0.811   2.765  0.2362 -0.0684  0.0536
  103SOL    HW1  308   2.386   0.723   2.822 -0.1358 -1.6280  1.8242
  103SOL    HW2  309   2.339   0.882   2.800 -0.8693 -2.8246 -1.2124
  104SOL     OW  310   0.084   0.039   2.313  0.5336  0.2965  0.1090
  104SOL    HW1  311   0.039   0.015   2.400  0.3835 -1.1843  1.1692
  104SOL    HW2  312   0.184   0.045   2.329 -3.1081  0.1740  1.8066
  105SOL     OW  313   2.217   1.147   1.721  0.2046  0.0949 -0.0524
  105SOL    HW1  314   2.178   1.108   1.636 -1.6466  1.0347 -0.7209
  105SOL    HW2  315   2.149   1.212   1.764 -2.3733  0.3727 -1.1138
  106SOL     OW  316   1.240   3.067   0.699 -0.2231  0.3376  0.7346
  106SOL    HW1  317   1.254   0.041   0.710 -0.4686 -2.3327  0.7758
  106SOL    HW2  318   1.224   3.021   0.791  1.5223  0.5560 -2.1501
  107SOL     OW  319   0.121   1.507   0.900 -0.0119  0.8952 -0.0588
  107SOL    HW1  320   0.091   1.584   0.960 -2.1597  1.7075  0.3989
  107SOL    HW2  321   0.206   1.534   0.849  0.2103 -1.4917  3.6366
  108SOL     OW  322   0.335   0.059   2.421  0.1706  0.0307  0.3030
  108SOL    HW1  323   0.275   0.040   2.500  2.3310 -1.2804 -1.7493
  108SOL    HW2  324   0.396   0.130   2.461  0.9142 -0.5447  0.1350
  109SOL     OW  325   2.461   0.220   0.510  0.3505  0.3989  0.6660
  109SOL    HW1  326   2.492   0.310   0.482  0.6222  1.6663  0.5357
  109SOL    HW2  327   2.515   0.146   0.470 -0.4630  1.2743 -1.7891
  110SOL     OW  328   0.241   2.422   2.762 -0.3552  0.4154  1.7419
  110SOL    HW1  329   0.166   2.410   2.684 -3.1589 -0.4718  0.4078
  110SOL    HW2  330   0.336   2.452   2.728  2.4460  2.3002 -0.1054
  111SOL     OW  331   1.760   2.892   1.992 -0.3061 -0.7596  0.0484
  111SOL    HW1  332   1.679   2.910   1.931 -2.2129  0.9507  2.1065
  111SOL    HW2  333   1.780   2.973   2.054 -0.8708 -0.4180  2.0890
  112SOL     OW  334   2.081   2.543   2.941 -0.7316 -0.0678 -0.0062
  112SOL    HW1  335   2.047   2.450   2.971  0.4398 -0.4649 -0.0349
  112SOL    HW2  336   2.050   2.615   3.012  1.8923  2.6631  3.4520
  113SOL     OW  337   2.645   2.000   1.758 -0.0285  0.2102 -0.2149
  113SOL    HW1  338   2.654   1.961   1.848 -0.9551  0.1257 -1.7451
  113SOL    HW2  339   2.704   2.075   1.735  1.0101 -1.7696 -1.0934
  114SOL     OW  340   2.527   0.890   1.054  0.2859 -0.3971 -0.1797
  114SOL    HW1  341   2.423   0.886   1.051 -0.0400 -1.1782  2.6927
  114SOL    HW2  342   2.560   0.829   0.983 -4.1649  1.4550  0.9634
  115SOL     OW  343   0.149   1.784   2.886 -0.0382  0.5006  0.1682
  115SOL    HW1  344   0.246   1.758   2.912  0.7022  0.2238  1.0510
  115SOL    HW2  345   0.119   1.881   2.903 -1.2206  1.9818  1.6254
  116SOL     OW  346   0.301   1.389   2.070 -0.1916  0.2196 -0.4391
  116SOL    HW1  347   0.385   1.399   2.007 -0.9822 -2.0049 -2.5007
  116SOL    HW2  348   0.214   1.383   2.017  1.0073  0.8225  1.1906
  117SOL     OW  349   2.495   0.174   0.997  0.6321  0.5649  0.1388
  117SOL    HW1  350   2.431   0.109   1.047 -0.3522 -2.0180  1.6951
  117SOL    HW2  351   2.466   0.192   0.902 -0.4847  0.6002  0.3506
  118SOL     OW  352   0.499   2.116   1.630  0.4101  0.2762 -0.1667
  118SOL    HW1  353   0.526   2.101   1.534 -0.1561 -0.4183  2.7838
  118SOL    HW2  354   0.553   2.057   1.695 -0.4969 -2.8059  4.9123
  119SOL     OW  355   1.676   2.078   0.435  0.0962  0.2136  0.4229
  119SOL    HW1  356   1.757   2.138   0.447  0.1853 -0.0278 -0.1030
  119SOL    HW2  357   1.698   1.978   0.425  1.9587 -0.8653 -0.3668
  120SOL     OW  358   0.538   1.669   2.584  0.1047 -0.4108 -0.3154
  120SOL    HW1  359   0.549   1.736   2.662  0.5139  0.9214  0.6288
  120SOL    HW2  360   0.616   1.677   2.519 -2.4139 -0.4262 -1.8164
  121SOL     OW  361   2.233   2.158   1.451  0.2706  0.2646 -0.0950
  121SOL    HW1  362   2.256   2.058   1.472  0.0283 -1.0396  1.7468
  121SOL    HW2  363   2.213   2.168   1.355 -0.7098  1.0459 -0.0375
  122SOL     OW  364   2.215   1.890   2.221 -0.5782 -0.3671  0.1719
  122SOL    HW1  365   2.280   1.839   2.275 -2.6422  0.1849 -0.5140
  122SOL    HW2  366   2.264   1.908   2.136 -1.2318 -0.7416  2.3517
  123SOL     OW  367   0.002   2.925   0.854  0.4941 -0.2471 -0.0980
  123SOL    HW1  368   3.057   2.873   0.801  1.6394 -0.2140 -1.4914
  123SOL    HW2  369   3.100   3.023   0.856 -0.5178 -1.4344  1.7358
  124SOL     OW  370   1.725   0.625   2.366  0.5514 -0.6204 -0.0147
  124SOL    HW1  371   1.674   0.696   2.309 -3.6379  2.7815  0.1640
  124SOL    HW2  372   1.806   0.580   2.328 -1.6794 -2.3912 -2.1741
  125SOL     OW  373   0.307   1.256   0.231 -0.3215 -0.1309 -0.2763
  125SOL    HW1  374   0.316   1.311   0.144  0.8927 -1.0930  1.5964
  125SOL    HW2  375   0.266   1.168   0.203 -0.4931  0.9992  0.4714
  126SOL     OW  376   2.532   2.143   0.462  0.1907  0.1610 -0.5535
  126SOL    HW1  377   2.450   2.188   0.418 -0.5174  2.1782  0.3606
  126SOL    HW2  378   2.518   2.148   0.564 -0.9052 -1.0846  2.2202
  127SOL     OW  379   0.258   1.748   1.183 -0.5724  0.3443  0.3076
  127SOL    HW1  380   0.166   1.737   1.139 -1.9401 -0.4051  1.8359
  127SOL    HW2  381   0.248   1.721   1.283  1.0315 -1.6758 -2.9802
  128SOL     OW  382   0.744   0.653   0.038 -0.1708 -0.1440  0.1626
  128SOL    HW1  383   0.719   0.611   3.075 -0.2838 -0.8182  2.9819
  128SOL    HW2  384   0.779   0.749   0.034  2.2549 -0.4157 -0.0035
  129SOL     OW  385   2.464   1.476   0.826 -0.4997 -0.5367  0.2083
  129SOL    HW1  386   2.538   1.408   0.804  1.6407  0.9822  3.3082
  129SOL    HW2  387   2.375   1.455   0.784 -0.0573 -0.9472 -2.7707
  130SOL     OW  388   2.174   1.757   1.199  0.2280  0.2387 -0.7853
  130SOL    HW1  389   2.185   1.838   1.141 -1.8102 -1.2742 -2.6741
  130SOL    HW2  390   2.111   1.683   1.166  1.8142 -0.4343  2.2839
  131SOL     OW  391   2.966   0.931   2.831  0.4891  0.6634  0.4088
  131SOL    HW1  392   2.906   0.869   2.887  0.0060 -0.5379 -1.2196
  131SOL    HW2  393   3.039   0.978   2.886  1.4524  0.5607 -1.6652
  132SOL     OW  394   2.862   1.669   1.868 -0.1142  0.1011  0.0179
  132SOL    HW1  395   2.938   1.736   1.864 -1.4678 -1.3065 -0.8417
  132SOL    HW2  396   2.893   1.581   1.911 -0.6766 -0.2886  0.9746
  133SOL     OW  397   3.103   0.912   0.723  0.4546 -0.7656  0.5143
  133SOL    HW1  398   0.069   0.877   0.754  1.9105 -0.8794  0.7269
  133SOL    HW2  399   3.032   0.843   0.747  0.7653  1.6409  0.3779
  134SOL     OW  400   0.205   1.031   0.152  0.3344 -0.3118 -0.2037
  134SOL    HW1  401   0.139   0.959   0.162  0.5367  2.4481  0.6895
  134SOL    HW2  402   0.291   1.002   0.100  1.4217 -0.9627 -1.1288
  135SOL     OW  403   2.002   1.637   0.786 -0.2720 -0.2801  0.3858
  135SOL    HW1  404   2.027   1.540   0.770 -1.3034  2.9836  0.6379
  135SOL    HW2  405   1.949   1.677   0.705 -2.1493  1.6621 -2.8266
  136SOL     OW  406   2.021   1.403   1.184  0.3447 -0.3442  0.2500
  136SOL    HW1  407   1.988   1.408   1.282  1.7555 -3.1717  2.4757
  136SOL    HW2  408   1.976   1.482   1.132 -3.1187  2.2711 -0.8131
  137SOL     OW  409   2.542   1.732   0.783  0.0936 -0.3556 -0.6157
  137SOL    HW1  410   2.500   1.638   0.779  2.3716  1.1953 -2.5434
  137SOL    HW2  411   2.525   1.782   0.872  0.1298 -1.0220 -0.5121
  138SOL     OW  412   1.487   0.583   2.055 -0.1030  0.4722  0.5162
  138SOL    HW1  413   1.579   0.604   2.094 -1.6163 -0.8822 -2.2718
  138SOL    HW2  414   1.465   0.635   1.972 -1.9356 -1.3894  1.6434
  139SOL     OW  415   2.106   0.079   3.049 -0.1326 -0.2938  0.0241
  139SOL    HW1  416   2.174   0.122   2.983  2.3056 -0.7894 -0.4986
  139SOL    HW2  417   2.114   0.115   0.021  0.8867 -1.5428  0.6714
  140SOL     OW  418   1.332   2.115   2.455  0.1690 -0.2371 -0.8172
  140SOL    HW1  419   1.377   2.024   2.471  0.0651 -1.5912  0.0181
  140SOL    HW2  420   1.379   2.166   2.377 -1.8131  0.1218  0.7136
  141SOL     OW  421   1.192   1.293   1.811  0.1989  0.1549 -0.6104
  141SOL    HW1  422   1.195   1.247   1.719  0.8724 -2.1267  0.1470
  141SOL    HW2  423   1.092   1.299   1.852 -6.5464  0.1240 -2.4083
  142SOL     OW  424   2.519   0.182   0.016  0.2332  0.3043 -0.0237
  142SOL    HW1  425   2.489   0.176   0.113 -0.4165 -0.7725 -0.6871
  142SOL    HW2  426   2.487   0.098   3.092 -0.2971  0.3364  1.4442
  143SOL     OW  427   0.673   2.494   2.827 -0.2803  0.2180 -0.2193
  143SOL    HW1  428   0.664   2.518   2.927 -1.3118 -0.9503  0.0920
  143SOL    HW2  429   0.702   2.575   2.770  0.3098  0.9231  0.9422
  144SOL     OW  430   0.863   2.893   1.990 -0.0633 -0.1800  0.2541
  144SOL    HW1  431   0.881   2.886   2.089 -1.3959  1.0070  0.6473
  144SOL    HW2  432   0.946   2.873   1.933 -0.6979  1.0758 -1.2508
  145SOL     OW  433   2.477   1.549   0.472  0.6953 -0.0829  0.5745
  145SOL    HW1  434   2.490   1.566   0.373  1.8564  0.2619  0.9807
  145SOL    HW2  435   2.572   1.528   0.507 -3.5380 -2.3604  0.9806
  146SOL     OW  436   2.735   2.867   2.797  0.9480 -0.4841 -0.1727
  146SOL    HW1  437   2.728   2.970   2.792 -0.2906 -0.2579  1.6391
  146SOL    HW2  438   2.713   2.836   2.891  4.8870  0.0592  0.2622
  147SOL     OW  439   2.785   2.741   0.934  0.2522 -0.2877 -0.3311
  147SOL    HW1  440   2.818   2.766   1.027 -0.6094  2.3309 -0.6499
  147SOL    HW2  441   2.684   2.731   0.941  1.8451 -0.0703  0.4648
  148SOL     OW  442   1.756   0.182   3.029 -0.2906 -0.2632 -0.1615
  148SOL    HW1  443   1.751   0.150   0.004  1.5215  1.6788 -0.9125
  148SOL    HW2  444   1.838   0.244   3.013  0.2580 -0.9123  0.6584
  149SOL     OW  445   0.964   1.298   2.825 -0.5321  0.2544 -0.3634
  149SOL    HW1  446   0.965   1.255   2.916 -1.5539 -0.6450 -4.0628
  149SOL    HW2  447   1.056   1.290   2.783  0.6510 -1.4006  0.8538
  150SOL     OW  448   1.141   2.682   0.688  0.3195  0.7085  0.0693
  150SOL    HW1  449   1.119   2.762   0.631  1.4142 -0.3281 -0.3817
  150SOL    HW2  450   1.113   2.598   0.643  0.6371 -1.0149 -0.1645
  151SOL     OW  451   0.281   2.113   0.054 -0.2503 -0.3457  0.3463
  151SOL    HW1  452   0.290   2.012   0.066  0.9262  0.0565 -1.3752
  151SOL    HW2  453   0.306   2.142   3.085  3.1524 -1.6596 -0.0659
  152SOL     OW  454   0.208   1.168   0.512 -0.3975 -0.1555 -0.5563
  152SOL    HW1  455   0.249   1.206   0.431 -2.3078  1.9174  1.5243
  152SOL    HW2  456   0.130   1.222   0.537  1.8179 -1.8469 -2.0442
  153SOL     OW  457   2.629   2.535   3.003  0.6789 -0.9590 -0.2843
  153SOL    HW1  458   2.639   2.504   3.099 -0.1036 -1.0282 -4.1934
  153SOL    HW2  459   2.658   2.463   2.941 -1.4346 -1.3813  4.6166
  154SOL     OW  460   0.450   0.229   1.142 -0.3402 -0.1766 -0.2938
  154SOL    HW1  461   0.428   0.165   1.066  2.5895 -0.5155  1.1641
  154SOL    HW2  462   0.436   0.187   1.228  1.3689  1.3672 -1.3955
  155SOL     OW  463   3.064   2.068   1.033 -0.4396 -0.5389 -0.0237
  155SOL    HW1  464   3.087   2.026   0.943 -1.8344  0.2891 -0.6032
  155SOL    HW2  465   3.045   1.995   1.102  2.2929 -1.9429  1.9122
  156SOL     OW  466   2.292   2.327   3.020  0.4934  0.3598  0.3371
  156SOL    HW1  467   2.288   2.274   3.110 -2.5942 -0.8715  0.0614
  156SOL    HW2  468   2.306   2.428   3.035 -0.0914  0.0119  0.4343
  157SOL     OW  469   0.863   2.562   1.042 -0.1729  0.4277  0.6916
  157SOL    HW1  470   0.779   2.506   1.018 -0.0530 -1.6849 -0.5284
  157SOL    HW2  471   0.831   2.651   1.084  1.6574  2.3808 -2.7303
  158SOL     OW  472   2.049   0.741   2.745  0.2926  0.0076 -0.3674
  158SOL    HW1  473   2.020   0.711   2.841  0.3256 -1.8965  0.3605
  158SOL    HW2  474   1.974   0.740   2.678 -1.6863  1.1695 -0.1900
  159SOL     OW  475   0.934   0.304   2.507 -0.0518  0.3278  0.3163
  159SOL    HW1  476   0.942   0.258   2.596 -0.7127 -1.2298 -2.5089
  159SOL    HW2  477   1.030   0.309   2.466  2.1135  0.3249 -1.8969
  160SOL     OW  478   0.905   1.909   0.508  0.1614  0.5121  0.4974
  160SOL    HW1  479   0.885   1.900   0.606 -0.4098  0.3245 -2.8952
  160SOL    HW2  480   0.964   1.837   0.476 -3.1860  2.0054 -0.9907
  161SOL     OW  481   2.975   2.155   3.059  0.2630  0.6780  0.0913
  161SOL    HW1  482   3.034   2.147   0.018 -0.9719 -0.4845 -0.7656
  161SOL    HW2  483   2.949   2.253   3.049 -0.9908  0.8523  1.3298
  162SOL     OW  484   0.578   2.465   0.994 -0.4137  0.4168 -0.4384
  162SOL    HW1  485   0.502   2.399   0.979  0.1663  1.8579 -1.2545
  162SOL    HW2  486   0.547   2.550   1.035 -2.3236 -0.2662 -1.8922
  163SOL     OW  487   2.480   0.797   0.002  0.6774 -0.6038  0.2733
  163SOL    HW1  488   2.475   0.763   0.100 -0.3182  0.8040 -1.7591
  163SOL    HW2  489   2.390   0.790   3.076 -1.3002  0.5693  0.2328
  164SOL     OW  490   0.067   2.742   0.563 -0.0141 -0.1962  0.3452
  164SOL    HW1  491   3.114   2.688   0.593  0.3424  1.0411 -0.2706
  164SOL    HW2  492   0.063   2.778   0.469 -1.4394  0.1912  0.2485
  165SOL     OW  493   2.523   0.536   1.333  0.3319 -0.4497  0.3178
  165SOL    HW1  494   2.524   0.503   1.433  0.8440 -1.7400 -1.5080
  165SOL    HW2  495   2.428   0.554   1.314  2.4641 -1.3442 -0.5211
  166SOL     OW  496   2.114   0.280   1.099 -0.1868  0.3852 -0.1067
  166SOL    HW1  497   2.120   0.336   1.012  0.3819 -1.0333 -0.0379
  166SOL    HW2  498   2.089   0.339   1.177 -2.2665 -1.3535  0.4176
  167SOL     OW  499   0.281   0.659   1.452  0.3213  0.3073  0.4846
  167SOL    HW1  500   0.247   0.609   1.535 -0.0312  0.6770 -2.2437
  167SOL    HW2  501   0.244   0.753   1.442 -1.4063 -0.1641  1.5991
  168SOL     OW  502   2.697   3.104   2.099  0.1741 -0.1684  0.2286
  168SOL    HW1  503   2.615   0.002   2.157 -0.5738 -3.1859  0.0031
  168SOL    HW2  504   2.690   3.009   2.069 -0.1855  0.7580  1.4419
  169SOL     OW  505   3.005   1.538   0.722 -0.1588  0.1365  0.0479
  169SOL    HW1  506   3.087   1.524   0.780 -1.1630 -0.3800  1.6217
  169SOL    HW2  507   2.921   1.550   0.783  0.7703  1.0998  1.3076
  170SOL     OW  508   2.932   0.661   1.501 -0.1014 -0.5914  0.3462
  170SOL    HW1  509   3.003   0.632   1.432  1.7083 -1.4229  0.1539
  170SOL    HW2  510   2.903   0.580   1.558  1.0265 -0.2165 -0.1653
  171SOL     OW  511   1.060   2.301   1.629 -0.0711  0.3323 -0.3443
  171SOL    HW1  512   1.134   2.371   1.622  1.7599 -0.0561 -2.3222
  171SOL    HW2  513   1.039   2.278   1.725  0.4604  0.2955 -0.9475
  172SOL     OW  514   0.482   2.197   1.146 -0.6172  0.8730 -0.3871
  172SOL    HW1  515   0.575   2.206   1.106 -0.1441 -0.3380  0.7362
  172SOL    HW2  516   0.430   2.150   1.074 -2.5240  0.6567  1.6361
  173SOL     OW  517   1.198   0.137   0.178 -0.3682  0.2818 -0.0727
  173SOL    HW1  518   1.118   0.083   0.142 -2.2277 -0.1558  1.3068
  173SOL    HW2  519   1.257   0.185   0.112  2.1884 -0.5801 -1.4923
  174SOL     OW  520   0.822   2.689   2.604  0.2610  0.3000  0.1196
  174SOL    HW1  521   0.879   2.607   2.614 -1.1424 -0.1889  0.8323
  174SOL    HW2  522   0.876   2.767   2.572  0.0129  0.5741 -1.1130
  175SOL     OW  523   1.207   0.603   3.094  0.1327 -0.2624  0.4391
  175SOL    HW1  524   1.307   0.584   3.088  2.3355 -1.6046 -0.4754
  175SOL    HW2  525   1.167   0.630   3.006  0.2755 -0.4888  3.3266
  176SOL     OW  526   1.343   0.477   0.388  0.4862  0.4425 -0.4725
  176SOL    HW1  527   1.243   0.456   0.374 -2.3220 -0.6346  0.0181
  176SOL    HW2  528   1.375   0.402   0.453  1.0899 -2.1181 -0.7908
  177SOL     OW  529   1.346   0.910   1.061  0.2491 -0.3364 -0.7118
  177SOL    HW1  530   1.327   0.812   1.038  0.1675 -1.4008 -1.1367
  177SOL    HW2  531   1.278   0.971   1.017 -2.2716 -0.0006  1.5982
  178SOL     OW  532   2.522   1.887   2.579 -0.6893 -0.0389 -0.3674
  178SOL    HW1  533   2.599   1.840   2.632  0.1547  2.0244 -0.6283
  178SOL    HW2  534   2.473   1.954   2.641  1.2454  1.3270  1.3950
  179SOL     OW  535   0.554   2.754   2.559  0.1281 -0.5398 -0.4408
  179SOL    HW1  536   0.653   2.733   2.583 -1.4593  0.1813  2.2998
  179SOL    HW2  537   0.545   2.824   2.483  0.3951  0.5982 -2.3220
  180SOL     OW  538   1.689   1.832   1.796  0.2200 -0.0498 -0.0890
  180SOL    HW1  539   1.726   1.900   1.737 -0.1163 -0.9722  0.7502
  180SOL    HW2  540   1.751   1.826   1.877 -0.1572  0.8475  0.4096
  181SOL     OW  541   1.474   1.419   2.357  0.3737  0.0976 -0.4656
  181SOL    HW1  542   1.486   1.433   2.458 -1.4549 -0.4462 -0.6449
  181SOL    HW2  543   1.429   1.329   2.338 -0.3804 -0.6020  0.1713
  182SOL     OW  544   3.066   0.614   2.639  0.3195 -0.5126  0.5318
  182SOL    HW1  545   2.979   0.629   2.692 -1.0577  0.0863  2.1109
  182SOL    HW2  546   3.059   0.527   2.590  0.0640 -1.1329  0.9360
  183SOL     OW  547   1.389   0.088   2.650  0.3093  0.0358 -0.4057
  183SOL    HW1  548   1.404   0.151   2.567 -0.4106  1.3271 -0.0061
  183SOL    HW2  549   1.432   0.132   2.728  0.5809 -3.4629 -3.0036
  184SOL     OW  550   0.754   0.578   1.503 -0.4316  0.3084  0.0714
  184SOL    HW1  551   0.761   0.587   1.603 -0.4154 -0.3800 -1.6319
  184SOL    HW2  552   0.675   0.627   1.466  0.4480  2.4010 -1.9238
  185SOL     OW  553   2.712   1.373   0.774 -0.0692 -0.6488 -0.1086
  185SOL    HW1  554   2.727   1.451   0.838  0.4800 -0.7999  1.3924
  185SOL    HW2  555   2.779   1.298   0.792  1.8818  0.9334  1.3712
  186SOL     OW  556   0.575   1.820   2.828 -0.4280 -0.1651  0.0025
  186SOL    HW1  557   0.643   1.833   2.903  2.6565 -0.5007 -1.8897
  186SOL    HW2  558   0.534   1.910   2.795 -1.5510  1.7777 -1.1553
  187SOL     OW  559   2.478   1.355   0.203  0.0227 -0.1578 -0.1357
  187SOL    HW1  560   2.531   1.335   0.281  1.4954  1.6358  1.0099
  187SOL    HW2  561   2.527   1.320   0.119  1.3776 -0.7892 -5.1182
  188SOL     OW  562   0.069   2.336   0.662 -0.3630  0.6230 -0.7642
  188SOL    HW1  563   0.151   2.316   0.603 -3.3074  1.6230 -0.6079
  188SOL    HW2  564   0.011   2.401   0.623  0.6452 -2.5585  2.0013
  189SOL     OW  565   2.639   0.903   0.340 -0.2285 -0.7926  0.1075
  189SOL    HW1  566   2.684   0.916   0.250  1.3925 -1.6364  1.9781
  189SOL    HW2  567   2.688   0.953   0.414 -1.2313  2.0397  0.7402
  190SOL     OW  568   1.329   1.645   2.284 -0.4786  0.1566  0.2016
  190SOL    HW1  569   1.375   1.554   2.276  0.1032  0.3533 -0.9454
  190SOL    HW2  570   1.239   1.641   2.331  0.8958  0.6471  1.6685
  191SOL     OW  571   2.520   0.475   1.593  0.2411  0.5609 -0.4126
  191SOL    HW1  572   2.573   0.390   1.619  0.9552 -5.7283  2.3193
  191SOL    HW2  573   2.531   0.544   1.669 -0.9099 -2.1142  1.2650
  192SOL     OW  574   2.144   0.109   1.798 -0.0066  0.4587 -0.2448
  192SOL    HW1  575   2.131   0.011   1.818  1.1688  3.4627  0.7866
  192SOL    HW2  576   2.236   0.127   1.841  0.6380  0.0819 -0.2991
  193SOL     OW  577   1.004   0.660   0.357 -0.4115  0.5639 -0.8077
  193SOL    HW1  578   0.993   0.574   0.302 -1.0933  0.5305 -0.0629
  193SOL    HW2  579   0.919   0.716   0.351  0.7089 -0.3117 -0.1233
  194SOL     OW  580   0.955   2.858   1.394 -0.5162  0.1309 -0.4797
  194SOL    HW1  581   1.012   2.867   1.311  1.1984 -2.0837  1.6240
  194SOL    HW2  582   0.920   2.945   1.430  1.3209 -0.7592 -2.8920
  195SOL     OW  583   2.244   0.903   1.063  0.0365  0.1221  0.0070
  195SOL    HW1  584   2.254   0.981   1.003  0.7291 -1.2350  2.2349
  195SOL    HW2  585   2.164   0.926   1.127 -0.6130  2.0745  0.2132
  196SOL     OW  586   1.762   2.393   1.973 -0.4664 -0.4116  0.3880
  196SOL    HW1  587   1.663   2.367   1.995 -1.0843 -1.8533 -0.4143
  196SOL    HW2  588   1.806   2.468   2.027  3.8210  0.1307  1.1683
  197SOL     OW  589   0.125   0.035   0.247  0.0649  0.7666 -0.3563
  197SOL    HW1  590   0.186   0.070   0.322 -3.3621 -2.3537  2.1375
  197SOL    HW2  591   0.178   0.006   0.160 -0.1406  1.4857 -1.6109
  198SOL     OW  592   1.319   1.179   0.761 -0.0565  0.0983  0.4179
  198SOL    HW1  593   1.289   1.270   0.724  2.2743  0.9148  1.6451
  198SOL    HW2  594   1.271   1.157   0.844  0.8261  0.3871 -0.9459
  199SOL     OW  595   2.922   0.954   2.136  0.1744 -0.2003  0.0984
  199SOL    HW1  596   2.932   0.874   2.195  0.8851  1.0371  0.2412
  199SOL    HW2  597   2.937   1.044   2.185  1.6294  0.0732  0.7102
  200SOL     OW  598   2.885   2.115   2.533  0.9779 -0.5198  0.2658
  200SOL    HW1  599   2.861   2.163   2.447 -1.3136  1.1506  0.7511
  200SOL    HW2  600   2.820   2.145   2.606  1.1498  0.4942 -1.5437
  201SOL     OW  601   2.602   0.184   1.338 -0.0883 -0.3093  0.5526
  201SOL    HW1  602   2.679   0.212   1.282 -0.4222 -2.4582  1.8586
  201SOL    HW2  603   2.516   0.222   1.299 -2.5484  1.5288  0.4703
  202SOL     OW  604   2.070   0.681   0.472 -0.3163  0.1517  0.2305
  202SOL    HW1  605   2.037   0.728   0.558 -0.3136  0.7311  2.9251
  202SOL    HW2  606   2.065   0.752   0.392 -0.9764  1.5709  0.2476
  203SOL     OW  607   1.712   2.084   2.190 -0.0719 -0.8641 -0.0705
  203SOL    HW1  608   1.640   2.016   2.171  0.8110 -0.4932  0.0465
  203SOL    HW2  609   1.796   2.038   2.220 -0.6370 -0.2340 -1.5968
  204SOL     OW  610   0.906   1.920   2.201  0.3867 -0.2011  0.3891
  204SOL    HW1  611   0.925   1.979   2.118 -0.6164 -0.0462 -0.5560
  204SOL    HW2  612   0.986   1.921   2.264 -1.5766 -0.4084  0.7715
  205SOL     OW  613   1.003   1.782   1.566  0.0500 -0.2325  0.3501
  205SOL    HW1  614   0.985   1.850   1.491 -1.0500  1.3186 -1.7868
  205SOL    HW2  615   1.092   1.792   1.617  0.8035 -0.3801 -2.5741
  206SOL     OW  616   3.079   0.418   3.024 -0.1047  0.2525 -0.1550
  206SOL    HW1  617   3.100   0.335   3.081 -0.6168  0.1368  0.4255
  206SOL    HW2  618   2.985   0.451   3.024 -0.4090 -0.5065  0.3427
  207SOL     OW  619   2.011   2.787   2.049 -0.4860 -0.3353  1.0356
  207SOL    HW1  620   1.927   2.840   2.026  2.1759 -2.3563  0.8601
  207SOL    HW2  621   2.059   2.764   1.963  2.2316  1.2315  2.4937
  208SOL     OW  622   0.534   2.036   1.393  0.7082 -0.2387  0.0939
  208SOL    HW1  623   0.532   2.045   1.291  0.3315 -0.5084  1.1382
  208SOL    HW2  624   0.520   1.939   1.428  0.2861  0.3756  0.1177
  209SOL     OW  625   1.520   0.992   2.451  0.3388 -0.5141  0.0449
  209SOL    HW1  626   1.448   1.050   2.493  1.1038  2.7120 -1.2542
  209SOL    HW2  627   1.521   1.017   2.354 -1.1041 -0.9974  1.0401
  210SOL     OW  628   2.025   0.985   1.194  0.2389  0.4834 -0.6279
  210SOL    HW1  629   2.018   1.071   1.141  1.8742  1.2135 -4.3661
  210SOL    HW2  630   1.938   0.961   1.244  1.2192 -1.5038  1.4503
  211SOL     OW  631   0.533   0.152   0.711  1.0265 -0.1923  0.4679
  211SOL    HW1  632   0.507   0.243   0.675  1.3663 -1.8801  0.0959
  211SOL    HW2  633   0.493   0.078   0.651  0.7261  0.9221  0.7084
  212SOL     OW  634   1.827   1.656   0.131  0.4103  0.0379  0.0461
  212SOL    HW1  635   1.798   1.559   0.119 -0.1187 -3.3722  1.2774
  212SOL    HW2  636   1.755   1.711   0.180  1.0551 -1.1476 -1.0235
  213SOL     OW  637   1.649   0.358   2.452  0.4966  0.3826  0.2253
  213SOL    HW1  638   1.680   0.388   2.544 -0.0233  0.9640 -2.1683
  213SOL    HW2  639   1.672   0.431   2.390 -0.5857 -2.4962 -1.5696
  214SOL     OW  640   1.749   1.403   2.252 -0.3432 -0.4372 -0.3119
  214SOL    HW1  641   1.807   1.457   2.317 -1.0187  0.9632 -0.5195
  214SOL    HW2  642   1.652   1.420   2.272 -1.3611 -0.5356 -2.1982
  215SOL     OW  643   0.270   1.840   0.439  0.0657 -0.4071 -0.1715
  215SOL    HW1  644   0.355   1.789   0.436  3.3386  0.8828 -1.1090
  215SOL    HW2  645   0.285   1.924   0.386  3.3694  3.3044 -0.2621
  216SOL     OW  646   0.527   2.787   2.138 -0.0625 -1.2353  0.0197
  216SOL    HW1  647   0.619   2.757   2.151 -0.9852 -0.6739  0.7045
  216SOL    HW2  648   0.461   2.718   2.174  0.4014 -1.1902 -1.7789
  217SOL     OW  649   2.424   1.122   0.466  1.1970  0.3275  0.1110
  217SOL    HW1  650   2.518   1.084   0.458  1.5052 -0.3783 -1.3847
  217SOL    HW2  651   2.365   1.083   0.391 -0.4651  0.0942 -1.0384
  218SOL     OW  652   1.894   1.796   1.967 -0.2966  0.3158  0.4061
  218SOL    HW1  653   1.940   1.890   1.963  0.0693 -0.2887 -2.8012
  218SOL    HW2  654   1.909   1.751   2.058 -0.3548 -0.0582 -1.2021
  219SOL     OW  655   2.037   1.338   0.041  0.1753  0.7427  0.0557
  219SOL    HW1  656   2.110   1.396   0.088  0.9477 -1.2564 -0.1701
  219SOL    HW2  657   1.969   1.392   3.116  2.4728 -1.9773  0.5979
  220SOL     OW  658   1.316   1.676   1.027 -0.1074 -0.2085 -0.1928
  220SOL    HW1  659   1.346   1.641   1.115 -0.0136 -1.7594  0.5687
  220SOL    HW2  660   1.384   1.646   0.954 -1.8653 -1.0341 -2.2663
  221SOL     OW  661   0.683   0.576   2.911  0.0812 -0.2369  0.2344
  221SOL    HW1  662   0.656   0.637   2.837  0.6335 -1.7412 -1.9581
  221SOL    HW2  663   0.642   0.487   2.909  1.6638  2.2459  0.3311
  222SOL     OW  664   0.909   1.646   1.208 -0.0454 -0.1329  0.1480
  222SOL    HW1  665   0.945   1.589   1.281  0.2075  4.3138 -2.1063
  222SOL    HW2  666   0.905   1.747   1.236 -0.1416  0.6985  0.7050
  223SOL     OW  667   1.612   3.015   2.684  0.5142 -0.0624 -0.1973
  223SOL    HW1  668   1.532   2.957   2.665 -1.9300  1.0375 -0.0128
  223SOL    HW2  669   1.580   3.112   2.681  0.1330 -0.6439  3.5598
  224SOL     OW  670   2.772   0.591   1.031 -0.5970 -0.2298  0.0511
  224SOL    HW1  671   2.700   0.521   1.008  1.4755 -0.4709 -0.7702
  224SOL    HW2  672   2.782   0.608   1.134  1.1524 -3.5119  0.9497
  225SOL     OW  673   1.003   0.665   1.382 -0.0442  0.0327  0.3194
  225SOL    HW1  674   0.983   0.725   1.302 -0.8226 -0.8442 -1.5369
  225SOL    HW2  675   0.919   0.629   1.422 -0.3916 -0.6231  1.8152
  226SOL     OW  676   1.714   1.950   2.915 -0.1935 -0.3179 -0.3078
  226SOL    HW1  677   1.628   1.902   2.888 -1.7362  0.5253 -2.0631
  226SOL    HW2  678   1.686   2.035   2.966  0.7685  1.3692 -0.6282
  227SOL     OW  679   1.222   1.895   1.380 -0.2969 -0.0655  0.4686
  227SOL    HW1  680   1.314   1.900   1.336  1.1126  0.3432  0.2969
  227SOL    HW2  681   1.212   1.809   1.430  1.3948  0.5968 -0.9837
  228SOL     OW  682   0.558   1.529   0.835 -0.2828 -0.2273 -0.1463
  228SOL    HW1  683   0.650   1.568   0.856  1.5442  2.0298  0.8649
  228SOL    HW2  684   0.499   1.528   0.917  1.1177  0.2285 -0.9464
  229SOL     OW  685   1.470   0.544   3.122  0.0123  0.0795 -0.4363
  229SOL    HW1  686   1.527   0.505   0.073  0.1205 -4.5341  0.4431
  229SOL    HW2  687   1.501   0.530   3.026 -0.1940 -0.8280 -0.0994
  230SOL     OW  688   1.119   0.457   2.245  0.2880 -0.1942  0.1685
  230SOL    HW1  689   1.173   0.381   2.203 -2.6287  1.5079  1.2586
  230SOL    HW2  690   1.136   0.460   2.345 -0.7321  0.4818  0.5577
  231SOL     OW  691   1.076   1.638   2.399  0.2258 -0.2422 -0.0188
  231SOL    HW1  692   1.111   1.627   2.493 -0.7356 -3.5711  0.4050
  231SOL    HW2  693   1.057   1.737   2.379 -1.3431  1.1160 -2.2289
  232SOL     OW  694   2.267   1.992   1.030 -0.8996 -0.7074  0.0904
  232SOL    HW1  695   2.240   1.962   0.936 -0.4325 -1.0700 -3.2197
  232SOL    HW2  696   2.371   1.988   1.048  1.9512 -0.9904  2.1655
  233SOL     OW  697   1.964   2.721   0.018 -0.2243  0.4261 -0.1593
  233SOL    HW1  698   1.867   2.729   3.115 -1.7251  1.3499 -1.6702
  233SOL    HW2  699   2.018   2.799   3.105  4.0227 -1.8662 -1.9939
  234SOL     OW  700   0.744   3.126   2.770 -0.4361 -0.1395 -0.1780
  234SOL    HW1  701   0.723   3.062   2.846 -1.1964  1.7932  0.6419
  234SOL    HW2  702   0.763   3.063   2.690 -1.4263 -0.2069 -0.8362
  235SOL     OW  703   2.405   2.953   2.722 -0.1687 -0.0953 -0.0886
  235SOL    HW1  704   2.489   2.990   2.768  0.9724  0.9278  0.7523
  235SOL    HW2  705   2.389   2.983   2.625  0.2900 -1.5567  3.0277
  236SOL     OW  706   2.546   2.172   2.192  0.4177 -0.1194 -0.3242
  236SOL    HW1  707   2.613   2.198   2.263 -3.8594  0.5158  1.6825
  236SOL    HW2  708   2.573   2.079   2.153  0.3291 -2.0683 -0.7515
  237SOL     OW  709   0.937   1.609   2.005 -0.4687  0.3141 -0.1358
  237SOL    HW1  710   1.015   1.656   2.056  1.8196  1.4011  2.1084
  237SOL    HW2  711   0.851   1.610   2.060 -0.5293 -0.3994 -1.7758
  238SOL     OW  712   2.049   0.142   2.516 -0.0950 -0.2257  0.0493
  238SOL    HW1  713   2.074   0.054   2.565  1.1157 -1.4893 -0.5159
  238SOL    HW2  714   2.120   0.173   2.446 -0.6315 -1.7009 -0.8777
  239SOL     OW  715   0.334   1.803   2.103  0.0316 -0.0884  0.2651
  239SOL    HW1  716   0.432   1.809   2.090 -2.3064  1.1212  1.3140
  239SOL    HW2  717   0.277   1.754   2.032 -0.4730  0.4441 -2.4970
  240SOL     OW  718   2.725   2.966   0.720 -0.3272 -0.7906  0.0171
  240SOL    HW1  719   2.780   2.880   0.742 -1.2208 -0.3516  1.9358
  240SOL    HW2  720   2.776   3.033   0.663  0.4397  1.1121 -0.5987
  241SOL     OW  721   1.897   1.728   0.560 -0.4986 -0.1155 -0.0712
  241SOL    HW1  722   1.936   1.820   0.542  0.8666  0.2309 -2.2750
  241SOL    HW2  723   1.798   1.738   0.546 -2.7542 -0.7999 -2.4124
  242SOL     OW  724   1.472   1.854   2.810 -0.0282 -0.1935  0.1233
  242SOL    HW1  725   1.530   1.797   2.751 -0.9565  2.3721  0.5664
  242SOL    HW2  726   1.375   1.815   2.806 -2.8895  1.5528 -0.2419
  243SOL     OW  727   0.614   2.546   2.354  0.4261 -0.0250  0.4016
  243SOL    HW1  728   0.683   2.603   2.297  1.6328  1.6331  0.7403
  243SOL    HW2  729   0.662   2.464   2.394 -1.1350  2.7928  1.2331
  244SOL     OW  730   2.268   0.133   2.837  0.7429 -0.1083 -0.0299
  244SOL    HW1  731   2.299   0.223   2.801  0.6660 -1.3507  0.0947
  244SOL    HW2  732   2.325   0.061   2.790 -0.5218 -0.7728 -1.6669
  245SOL     OW  733   1.440   2.967   0.538 -0.2484  0.1272 -0.1645
  245SOL    HW1  734   1.363   3.002   0.598  0.8181  3.5518 -1.6916
  245SOL    HW2  735   1.446   3.020   0.453 -1.3880 -0.2297  0.1578
  246SOL     OW  736   1.085   2.787   0.347 -0.4338  0.2125  0.2009
  246SOL    HW1  737   1.184   2.777   0.331 -1.6860  0.1605 -0.7779
  246SOL    HW2  738   1.059   2.848   0.423 -1.3454  2.2775  0.5207
  247SOL     OW  739   0.827   0.742   2.261 -0.3541 -0.1093 -0.1261
  247SOL    HW1  740   0.850   0.688   2.174 -0.4301 -1.7719 -0.6672
  247SOL    HW2  741   0.725   0.737   2.270  0.7808  2.1294  2.3825
  248SOL     OW  742   1.051   1.389   2.290 -0.1926  0.4177  0.4376
  248SOL    HW1  743   0.991   1.386   2.205  1.2349  0.5014 -1.0166
  248SOL    HW2  744   1.062   1.483   2.328  1.7872 -0.3685 -2.0423
  249SOL     OW  745   2.219   0.263   0.420 -0.6597  0.0208 -0.3150
  249SOL    HW1  746   2.299   0.225   0.472 -1.8577  1.3080  0.7128
  249SOL    HW2  747   2.159   0.319   0.481 -1.3050 -0.4830  3.1217
  250SOL     OW  748   0.781   3.046   0.535  0.5149 -0.2905  0.0779
  250SOL    HW1  749   0.739   2.975   0.601  2.0086 -1.5475  0.5482
  250SOL    HW2  750   0.754   0.014   0.554 -1.3813 -2.4259 -1.3845
  251SOL     OW  751   1.544   0.227   2.872 -0.4714 -0.4767  0.1106
  251SOL    HW1  752   1.548   0.327   2.865  0.4050  0.4784  1.0093
  251SOL    HW2  753   1.630   0.200   2.918 -2.5498  3.8356 -0.2778
  252SOL     OW  754   1.750   1.350   1.749 -0.2314 -0.1687  0.0129
  252SOL    HW1  755   1.788   1.349   1.843 -0.7853  0.4173 -0.0808
  252SOL    HW2  756   1.670   1.410   1.743  0.3826  0.0665  1.4628
  253SOL     OW  757   2.829   2.215   1.759 -0.5503 -0.1215  0.0893
  253SOL    HW1  758   2.802   2.220   1.858  1.4535  0.0853  2.8971
  253SOL    HW2  759   2.844   2.308   1.716  0.4889  2.5491  0.7463
  254SOL     OW  760   0.241   1.322   1.180  0.5454 -0.6931 -0.4218
  254SOL    HW1  761   0.324   1.261   1.194 -0.6138  0.6034 -0.6043
  254SOL    HW2  762   0.258   1.390   1.108 -0.3240 -0.7760 -0.0696
  255SOL     OW  763   0.958   0.854   1.185  0.1306 -0.2671 -0.8890
  255SOL    HW1  764   0.869   0.852   1.138  0.6062 -0.2495  2.6413
  255SOL    HW2  765   0.992   0.950   1.187  1.1647  2.2419  1.2883
  256SOL     OW  766   1.795   2.720   1.662  0.4776  0.0492 -0.0699
  256SOL    HW1  767   1.730   2.665   1.711 -0.7473 -0.8302  3.5482
  256SOL    HW2  768   1.878   2.667   1.633 -0.5785 -1.8881 -0.1004
  257SOL     OW  769   0.419   2.704   3.041  0.0498 -0.4559  0.5267
  257SOL    HW1  770   0.417   2.757   2.949 -1.3476  2.1623 -3.2309
  257SOL    HW2  771   0.489   2.746   3.108  1.8779  3.0523  4.3371
  258SOL     OW  772   0.789   2.687   2.191  0.2806  0.1749  0.1204
  258SOL    HW1  773   0.857   2.739   2.250 -0.9818  0.6078  1.5455
  258SOL    HW2  774   0.837   2.629   2.124 -0.1590  2.1314  1.2807
  259SOL     OW  775   1.309   3.089   2.215 -0.2343  0.4529 -0.0748
  259SOL    HW1  776   1.300   3.012   2.147  0.3347 -0.8102 -0.1109
  259SOL    HW2  777   1.389   3.083   2.271 -0.1487  0.5476 -4.0946
  260SOL     OW  778   1.841   0.472   1.098  0.6129 -0.4213 -0.2510
  260SOL    HW1  779   1.824   0.386   1.152  2.4231  1.8013  1.2749
  260SOL    HW2  780   1.938   0.482   1.077  1.6952 -0.1943  1.1691
  261SOL     OW  781   0.451   0.304   2.544 -0.3054 -0.0466 -0.2451
  261SOL    HW1  782   0.411   0.393   2.531 -1.5674 -0.7750  1.8652
  261SOL    HW2  783   0.468   0.271   2.641 -0.0343 -1.5818  1.4762
  262SOL     OW  784   2.914   2.443   2.146 -0.5242  0.0765  0.1931
  262SOL    HW1  785   2.910   2.523   2.213 -0.6521  1.5865 -0.7680
  262SOL    HW2  786   2.997   2.456   2.084  4.9503  0.5947  0.2426
  263SOL     OW  787   2.952   1.619   2.341 -0.2230 -0.3280 -0.8947
  263SOL    HW1  788   3.019   1.653   2.271 -1.8685  1.0905 -0.4703
  263SOL    HW2  789   2.946   1.689   2.415 -1.3228 -0.5107  0.1322
  264SOL     OW  790   0.664   0.972   0.693 -0.2449  0.2847  0.3136
  264SOL    HW1  791   0.562   0.969   0.677 -0.8961  0.7620 -0.0341
  264SOL    HW2  792   0.712   1.047   0.642 -0.1429 -1.8479 -1.6008
  265SOL     OW  793   0.815   2.157   0.457 -0.0390 -0.6966 -0.2483
  265SOL    HW1  794   0.844   2.062   0.491  2.3861 -2.1500 -2.4191
  265SOL    HW2  795   0.850   2.221   0.525 -0.9641  0.9872 -3.6514
  266SOL     OW  796   1.576   0.558   1.099 -0.3344  0.3047  0.5063
  266SOL    HW1  797   1.648   0.497   1.131 -0.8682 -1.3463  1.8396
  266SOL    HW2  798   1.524   0.499   1.032 -0.6933 -0.3469 -2.5214
  267SOL     OW  799   2.767   0.940   0.096  0.5013 -0.4619  0.5490
  267SOL    HW1  800   2.863   0.968   0.092 -2.4598 -0.2013 -0.7533
  267SOL    HW2  801   2.733   0.916   0.002 -2.1918 -0.6531 -2.1195
  268SOL     OW  802   1.867   0.349   0.299 -0.0657  0.7815  0.2518
  268SOL    HW1  803   1.848   0.350   0.396 -0.9313  0.0525 -0.0683
  268SOL    HW2  804   1.854   0.254   0.257 -0.6685 -0.5196 -0.8463
  269SOL     OW  805   2.135   0.969   2.804  0.3969  0.0287  0.0919
  269SOL    HW1  806   2.101   0.883   2.758 -1.2147  0.6943 -0.7432
  269SOL    HW2  807   2.132   0.961   2.903 -0.9217 -1.0581 -1.1430
  270SOL     OW  808   0.227   0.790   2.993  0.1113  0.7592 -0.4499
  270SOL    HW1  809   0.167   0.779   2.910 -0.2086  3.7720  1.1095
  270SOL    HW2  810   0.204   0.713   3.057  0.2920 -1.0961  0.6742
  271SOL     OW  811   2.925   0.733   0.340  0.4085 -0.9197  0.0583
  271SOL    HW1  812   2.902   0.814   0.284 -0.2782  2.0293 -0.8549
  271SOL    HW2  813   3.017   0.746   0.388  2.3233  0.3606 -0.9466
  272SOL     OW  814   0.060   2.044   2.906 -0.2391 -0.4267 -0.1279
  272SOL    HW1  815   0.018   2.066   2.812 -3.0174  2.7432 -2.1039
  272SOL    HW2  816   3.125   2.089   2.976  1.2839 -1.3403 -1.8807
  273SOL     OW  817   2.600   0.022   0.395 -0.1396 -0.4707  0.3150
  273SOL    HW1  818   2.544   3.120   0.318 -0.0282  1.7599 -0.2095
  273SOL    HW2  819   2.689   0.063   0.362  0.5169 -0.7442  0.2225
  274SOL     OW  820   0.485   2.089   0.692  0.0943 -0.3037 -0.4578
  274SOL    HW1  821   0.509   2.189   0.705 -1.0123 -2.1558  0.0777
  274SOL    HW2  822   0.525   2.059   0.604  0.8299  1.9629 -0.3105
  275SOL     OW  823   2.679   1.856   0.586  0.4377  0.5800 -0.2126
  275SOL    HW1  824   2.625   1.807   0.660 -0.4744 -2.0798  2.6584
  275SOL    HW2  825   2.765   1.804   0.563 -0.9404 -1.4594 -1.2061
  276SOL     OW  826   0.125   1.078   2.189 -0.0680  0.2329  0.1423
  276SOL    HW1  827   0.198   1.134   2.228  0.9657  0.0338 -2.8501
  276SOL    HW2  828   0.038   1.079   2.244 -2.7045  1.5034 -1.6892
  277SOL     OW  829   1.764   3.071   1.206 -0.0772  0.2525 -0.7971
  277SOL    HW1  830   1.780   2.971   1.184  0.1791 -1.2249  0.3226
  277SOL    HW2  831   1.741   3.120   1.121  1.4472 -0.0286  1.5851
  278SOL     OW  832   1.242   2.863   2.074 -0.3285 -0.1088 -0.3145
  278SOL    HW1  833   1.230   2.765   2.092 -1.8751 -0.0846 -2.5894
  278SOL    HW2  834   1.187   2.887   1.995 -0.9876 -2.0619 -0.1847
  279SOL     OW  835   1.530   1.920   0.671  0.1534  0.2131 -0.6114
  279SOL    HW1  836   1.495   2.011   0.640  0.3385 -1.7236  3.2511
  279SOL    HW2  837   1.565   1.861   0.600  0.3475  0.6163 -0.1709
  280SOL     OW  838   0.006   1.727   1.011 -0.1088  0.2582  0.2691
  280SOL    HW1  839   0.003   1.795   0.936 -0.6604 -0.0060  2.6963
  280SOL    HW2  840   3.041   1.712   1.054  0.1268  2.8950  0.9349
  281SOL     OW  841   3.121   0.768   2.408 -0.3553 -0.1167 -0.1035
  281SOL    HW1  842   3.046   0.745   2.344  0.3311 -1.6459  2.1307
  281SOL    HW2  843   3.106   0.719   2.496  0.2299 -0.1034 -0.0160
  282SOL     OW  844   0.849   1.157   0.598 -0.2082  0.0876 -0.0142
  282SOL    HW1  845   0.785   1.238   0.609 -0.1818 -0.5451  0.4770
  282SOL    HW2  846   0.887   1.166   0.505  0.0314  0.5156  1.2827
  283SOL     OW  847   1.861   2.392   0.212  0.3924  0.1876 -0.9681
  283SOL    HW1  848   1.801   2.460   0.252  4.2288 -0.6286 -1.7561
  283SOL    HW2  849   1.959   2.423   0.218 -0.1124 -0.3839  0.5498
  284SOL     OW  850   0.997   0.495   0.090 -0.8517 -0.6073  0.4805
  284SOL    HW1  851   0.924   0.562   0.075 -0.8792 -2.9412  0.3870
  284SOL    HW2  852   1.081   0.536   0.046 -2.7333 -1.1489 -1.7024
  285SOL     OW  853   2.285   1.220   2.758 -0.2955 -0.4353 -0.0037
  285SOL    HW1  854   2.233   1.307   2.768 -1.6581 -0.5319  3.8597
  285SOL    HW2  855   2.235   1.142   2.803 -1.9777 -0.1254 -1.9589
  286SOL     OW  856   1.483   2.516   1.193 -0.6191  0.5444  0.0014
  286SOL    HW1  857   1.399   2.466   1.217 -2.3716  1.0660  1.0382
  286SOL    HW2  858   1.474   2.620   1.186  1.0517  2.4775  1.1181
  287SOL     OW  859   0.958   0.990   0.800  0.2048  0.1211 -0.0347
  287SOL    HW1  860   0.930   0.904   0.758  0.0495 -1.6265 -1.4626
  287SOL    HW2  861   0.936   1.068   0.736 -1.0155 -1.2492  1.4103
  288SOL     OW  862   1.252   2.538   0.082 -0.3458 -0.0938 -0.6253
  288SOL    HW1  863   1.289   2.553   3.115 -0.7897 -1.7634  0.4199
  288SOL    HW2  864   1.285   2.611   0.150 -0.4841 -0.4747  3.6614
  289SOL     OW  865   0.297   1.450   1.436  0.1291  0.5677  0.0486
  289SOL    HW1  866   0.291   1.551   1.445 -2.2736  0.4188 -0.6265
  289SOL    HW2  867   0.286   1.412   1.344 -1.6598  2.1360  1.2727
  290SOL     OW  868   1.749   2.386   0.946  0.3147  0.1691  0.2260
  290SOL    HW1  869   1.686   2.332   1.000  0.8407  1.8319  0.2310
  290SOL    HW2  870   1.695   2.464   0.906 -2.5955  1.7638  0.6946
  291SOL     OW  871   2.010   2.940   3.000 -0.7856 -0.5558  0.2348
  291SOL    HW1  872   2.065   3.026   3.022  1.1416 -1.0564 -2.9397
  291SOL    HW2  873   1.920   2.967   2.969  1.8894 -1.3223 -0.2624
  292SOL     OW  874   0.952   0.575   2.069 -0.2546 -0.1481 -0.3078
  292SOL    HW1  875   1.023   0.633   2.020  1.9346  0.5847  0.5376
  292SOL    HW2  876   1.007   0.519   2.137  1.4837  0.6213  0.7841
  293SOL     OW  877   2.001   2.388   0.848  0.0343  0.6096 -0.0479
  293SOL    HW1  878   2.061   2.421   0.926  2.6974  1.2984 -1.1897
  293SOL    HW2  879   1.906   2.369   0.884 -0.5615 -2.5068  0.2610
  294SOL     OW  880   0.566   0.752   2.318  0.4017 -0.1531 -0.7092
  294SOL    HW1  881   0.510   0.680   2.366  3.0647  0.8407 -1.2114
  294SOL    HW2  882   0.553   0.849   2.347  0.2981  0.4492 -0.0726
  295SOL     OW  883   1.551   1.651   0.875 -0.0177 -0.0897  0.1691
  295SOL    HW1  884   1.632   1.602   0.839 -0.3051  0.0090  0.4389
  295SOL    HW2  885   1.573   1.683   0.972 -0.9263  1.2676  1.6938
  296SOL     OW  886   2.570   1.880   0.329 -0.2020  0.1513  0.4956
  296SOL    HW1  887   2.546   1.971   0.367  1.3183 -1.6076  1.1836
  296SOL    HW2  888   2.609   1.822   0.406  2.5440  0.4198  1.4250
  297SOL     OW  889   2.110   3.101   0.435 -0.3546  0.1818 -0.6875
  297SOL    HW1  890   2.173   3.125   0.514 -0.7516  0.4795 -3.4128
  297SOL    HW2  891   2.126   0.035   0.352  0.6609  0.0599 -3.9484
  298SOL     OW  892   0.977   2.455   2.622  0.2735 -0.0431  0.2640
  298SOL    HW1  893   0.959   2.382   2.691  0.9689 -2.1849 -0.9977
  298SOL    HW2  894   1.073   2.455   2.591  3.4019 -1.8313 -1.5137
  299SOL     OW  895   1.275   2.611   2.155  0.3185 -0.0370 -0.5927
  299SOL    HW1  896   1.315   2.621   2.250  0.1383  1.3751  1.0759
  299SOL    HW2  897   1.326   2.536   2.109 -0.0044  0.8498 -1.2169
  300SOL     OW  898   2.658   0.044   2.768 -0.4332 -0.4361  0.1097
  300SOL    HW1  899   2.681   0.103   2.848 -0.5073  0.6841  1.2158
  300SOL    HW2  900   2.641   0.102   2.689  2.0897 -1.9668  2.9236
  301SOL     OW  901   1.285   0.663   2.217  0.5538 -0.6091  0.3363
  301SOL    HW1  902   1.221   0.586   2.226 -2.1970  1.1167 -0.9152
  301SOL    HW2  903   1.366   0.638   2.164  0.9049 -0.7095 -1.5002
  302SOL     OW  904   2.728   2.811   0.220 -0.4793 -0.4514 -0.2612
  302SOL    HW1  905   2.629   2.803   0.244 -1.0280  2.7727  1.9028
  302SOL    HW2  906   2.789   2.858   0.291  1.6238 -1.7628  1.4383
  303SOL     OW  907   2.753   2.287   1.996 -0.4203 -0.4073 -0.4695
  303SOL    HW1  908   2.660   2.337   1.989 -4.6825  1.6630  0.4342
  303SOL    HW2  909   2.820   2.346   2.050  0.5416  2.3610  0.5297
  304SOL     OW  910   2.777   0.694   1.984 -0.1887 -0.0111 -0.4383
  304SOL    HW1  911   2.845   0.719   1.912 -0.3944 -2.3132  0.1773
  304SOL    HW2  912   2.804   0.740   2.072  1.5470 -0.8350 -1.0356
  305SOL     OW  913   0.633   1.736   1.339 -0.6088 -0.0878 -0.0497
  305SOL    HW1  914   0.651   1.646   1.295  2.6099  3.6536 -2.7883
  305SOL    HW2  915   0.590   1.728   1.435  0.9759  1.5205  2.0471
  306SOL     OW  916   0.048   1.152   1.924 -0.1576 -0.3922  0.4262
  306SOL    HW1  917   0.019   1.238   1.969 -1.5697 -2.3700 -0.7229
  306SOL    HW2  918   0.106   1.095   1.986  1.0754 -1.2311 -2.6160
  307SOL     OW  919   1.118   0.444   1.800  0.4486 -0.5677 -0.4431
  307SOL    HW1  920   1.120   0.544   1.827 -2.2804  1.8050  3.7076
  307SOL    HW2  921   1.090   0.434   1.704 -1.6755  0.1906 -0.7307
  308SOL     OW  922   2.884   0.921   1.259  0.0023 -0.9376  0.3759
  308SOL    HW1  923   2.940   0.928   1.347 -1.2528 -1.3632 -0.5695
  308SOL    HW2  924   2.841   0.829   1.253  1.6790  0.2011  1.3351
  309SOL     OW  925   2.241   1.131   0.933  0.4770 -0.3810  0.4843
  309SOL    HW1  926   2.142   1.155   0.937  1.7089  2.0400  1.1875
  309SOL    HW2  927   2.289   1.185   1.009  3.7387  1.4450  0.9961
  310SOL     OW  928   0.002   2.090   2.659  0.1268  0.2703  0.3366
  310SOL    HW1  929   0.053   2.005   2.637  1.1857 -1.1944 -0.0548
  310SOL    HW2  930   3.048   2.110   2.601  1.8575  0.6962  2.0039
  311SOL     OW  931   3.012   2.798   2.787 -0.6841 -0.1669  0.1740
  311SOL    HW1  932   2.913   2.818   2.787 -1.5209  0.9631 -1.0576
  311SOL    HW2  933   3.033   2.697   2.800  1.7037 -2.0138  0.4646
  312SOL     OW  934   2.246   2.149   0.101 -0.0541 -0.6108 -0.2822
  312SOL    HW1  935   2.302   2.064   0.098  0.6806 -1.0635 -1.2619
  312SOL    HW2  936   2.152   2.133   0.074  5.4474  0.7239 -0.2568
  313SOL     OW  937   2.484   3.011   0.587  0.2784  0.5367 -0.0676
  313SOL    HW1  938   2.546   2.967   0.659  0.9587  0.6992  0.8696
  313SOL    HW2  939   2.535   3.068   0.524 -1.8788 -0.0119  0.0306
  314SOL     OW  940   1.557   1.191   0.345  0.5508 -0.4407 -0.2578
  314SOL    HW1  941   1.582   1.095   0.363 -1.9278  0.5544  0.7849
  314SOL    HW2  942   1.469   1.193   0.295  2.4395  2.3045  0.5324
  315SOL     OW  943   1.446   2.716   1.954  0.1142 -0.0019  0.3460
  315SOL    HW1  944   1.396   2.718   2.044  0.6145 -1.0561  3.4164
  315SOL    HW2  945   1.471   2.809   1.922 -0.3923  0.0152  0.7987
  316SOL     OW  946   0.064   0.806   0.173 -0.1278  0.2349 -0.2661
  316SOL    HW1  947   0.080   0.713   0.131 -0.1142 -2.9591 -0.9534
  316SOL    HW2  948   0.047   0.789   0.275  0.1070  1.9864  4.0629
  317SOL     OW  949   0.449   3.016   0.293  0.1108 -0.0228 -0.5173
  317SOL    HW1  950   0.437   3.012   0.395 -1.3995  2.0956  3.2092
  317SOL    HW2  951   0.431   2.929   0.245  1.8274  2.6055 -1.3139
  318SOL     OW  952   2.321   2.551   0.821 -0.2546 -0.1206  0.0505
  318SOL    HW1  953   2.279   2.506   0.740 -1.0521 -0.0342 -0.2830
  318SOL    HW2  954   2.373   2.628   0.790 -0.0943  1.5312  0.5101
  319SOL     OW  955   1.050   1.689   3.078 -0.2910 -0.1733 -0.1368
  319SOL    HW1  956   0.957   1.707   3.106  2.0392  0.4499 -0.2381
  319SOL    HW2  957   1.047   1.657   2.984 -1.1127  2.8248 -1.3708
  320SOL     OW  958   0.355   2.365   2.074  0.2685 -0.0140 -0.0836
  320SOL    HW1  959   0.324   2.272   2.107 -2.5797 -2.7859  1.3365
  320SOL    HW2  960   0.315   2.384   1.982  0.1723 -2.0689  2.6986
  321SOL     OW  961   1.792   2.843   2.507  0.0987 -1.0347  0.0803
  321SOL    HW1  962   1.784   2.886   2.416  1.4884  0.1936  1.4734
  321SOL    HW2  963   1.742   2.897   2.576  0.3784  0.8689  0.6301
  322SOL     OW  964   3.041   1.401   2.206 -0.2304 -0.0152 -0.4297
  322SOL    HW1  965   0.004   1.436   2.167 -1.0840 -0.9197 -2.4574
  322SOL    HW2  966   2.998   1.477   2.257 -3.3294 -0.6154 -0.4351
  323SOL     OW  967   2.089   1.383   0.712  0.5720 -0.7986  0.4137
  323SOL    HW1  968   2.039   1.298   0.708  0.4267 -0.7316  1.6732
  323SOL    HW2  969   2.190   1.361   0.701 -0.9841  1.5684  0.5424
  324SOL     OW  970   3.007   3.051   2.517 -0.7149  0.1496  0.3516
  324SOL    HW1  971   2.998   3.122   2.590  2.7995 -0.2645  0.2620
  324SOL    HW2  972   3.071   2.980   2.554 -0.6705  0.2503 -0.8596
  325SOL     OW  973   1.372   0.696   2.737 -0.1024 -0.1018 -0.0344
  325SOL    HW1  974   1.373   0.695   2.635 -0.9144  3.4346  1.1690
  325SOL    HW2  975   1.281   0.715   2.774  2.3505 -1.0974  1.1850
  326SOL     OW  976   2.150   2.725   1.818  0.1575  0.0197 -0.1650
  326SOL    HW1  977   2.102   2.655   1.764 -0.2080  4.1967  1.6607
  326SOL    HW2  978   2.241   2.745   1.781 -0.5433 -0.2960 -0.4999
  327SOL     OW  979   2.174   0.114   0.209  0.3849  0.2895  0.1323
  327SOL    HW1  980   2.254   0.048   0.206  0.5268 -0.9209  1.0428
  327SOL    HW2  981   2.182   0.183   0.278 -1.0553 -1.6303 -0.1069
  328SOL     OW  982   0.207   1.237   2.471  0.4811 -0.0726 -0.0154
  328SOL    HW1  983   0.260   1.244   2.382  2.1690 -0.3295 -0.7444
  328SOL    HW2  984   0.166   1.142   2.486 -1.6316  2.8153 -0.3415
  329SOL     OW  985   2.082   2.974   1.741 -0.5118  0.2949  0.1378
  329SOL    HW1  986   1.982   2.963   1.751 -3.3161 -1.2063 -1.4512
  329SOL    HW2  987   2.130   2.886   1.768  1.7428 -2.1549 -0.1281
  330SOL     OW  988   2.936   1.388   1.196 -0.1819  0.1939  0.3054
  330SOL    HW1  989   2.846   1.346   1.165 -0.3996 -0.1246 -0.7099
  330SOL    HW2  990   3.007   1.319   1.182 -2.3066 -2.2724  2.3172
  331SOL     OW  991   0.733   1.729   2.413 -0.2367  0.1010 -0.1004
  331SOL    HW1  992   0.737   1.830   2.404 -0.3434  1.5092 -0.5776
  331SOL    HW2  993   0.777   1.677   2.339 -1.0650  1.0703  1.7735
  332SOL     OW  994   0.092   2.907   1.714  0.0569  0.0575 -0.1184
  332SOL    HW1  995   0.184   2.908   1.670 -0.6503  2.5977 -0.0975
  332SOL    HW2  996   0.015   2.869   1.662  3.3005  4.0490  1.6603
  333SOL     OW  997   2.044   2.871   1.068 -0.2872 -0.3182  0.0072
  333SOL    HW1  998   1.958   2.822   1.065  0.2804  0.7988  1.8550
  333SOL    HW2  999   2.025   2.971   1.067  0.4751  0.2681  0.3956
  334SOL     OW 1000   0.813   1.621   0.827 -0.2838  0.7244  0.2603
  334SOL    HW1 1001   0.820   1.621   0.725  0.1148  2.1242 -1.7727
  334SOL    HW2 1002   0.903   1.634   0.875  2.5290  4.0100  0.5505
  335SOL     OW 1003   0.197   2.569   3.011  0.2952 -0.1766  0.1025
  335SOL    HW1 1004   0.212   2.525   2.921 -0.2849  2.1808 -1.5169
  335SOL    HW2 1005   0.272   2.639   3.036  0.0192  3.9158 -0.9954
  336SOL     OW 1006   0.496   2.960   2.352 -0.3289 -0.6356 -0.6389
  336SOL    HW1 1007   0.438   3.039   2.358  1.2943  1.2599  0.2701
  336SOL    HW2 1008   0.491   2.918   2.257 -0.4776 -0.3910 -0.0528
  337SOL     OW 1009   2.472   2.236   2.854 -0.0647  0.2875 -0.0033
  337SOL    HW1 1010   2.400   2.295   2.898 -1.9760  0.9950  1.6109
  337SOL    HW2 1011   2.567   2.273   2.867  1.1462  0.8375 -0.1997
  338SOL     OW 1012   1.023   1.376   1.192 -0.2033  0.2142  0.0280
  338SOL    HW1 1013   1.037   1.382   1.093 -3.1640 -2.7101  3.0306
  338SOL    HW2 1014   1.093   1.434   1.241  2.3535 -0.4174  0.5546
  339SOL     OW 1015   0.076   0.701   1.855 -0.2470  0.1251  0.0821
  339SOL    HW1 1016   0.066   0.712   1.954 -1.6118 -0.7883 -1.7589
  339SOL    HW2 1017   3.110   0.726   1.813 -1.5287  0.7829  2.6030
  340SOL     OW 1018   1.365   2.719   0.246  0.8593 -0.0609 -0.8528
  340SOL    HW1 1019   1.425   2.710   0.324  0.6107  0.8265  2.1391
  340SOL    HW2 1020   1.383   2.796   0.188  0.0957 -3.0657  0.7510
  341SOL     OW 1021   1.977   1.186   0.999  0.1010 -0.2430  0.3149
  341SOL    HW1 1022   1.879   1.172   0.970  0.5326  1.0168  0.6908
  341SOL    HW2 1023   1.987   1.275   1.050 -0.3184 -0.2532 -0.8402
  342SOL     OW 1024   2.450   3.045   3.094 -0.3721 -0.0992 -0.2457
  342SOL    HW1 1025   2.388   2.980   3.047  1.0229 -0.5145  2.0249
  342SOL    HW2 1026   2.549   3.015   3.086  2.2018 -0.9929 -1.2772
  343SOL     OW 1027   1.245   2.161   1.433  0.1232 -0.1855  0.2735
  343SOL    HW1 1028   1.173   2.207   1.491 -2.8570  2.0993  2.1068
  343SOL    HW2 1029   1.234   2.060   1.424 -0.5979  0.4199 -2.2859
  344SOL     OW 1030   2.126   2.556   1.034  0.6185 -0.8468 -0.0934
  344SOL    HW1 1031   2.206   2.567   0.970 -0.1466 -0.6001  0.8233
  344SOL    HW2 1032   2.165   2.540   1.127 -0.1129 -3.0287 -2.8445
  345SOL     OW 1033   2.690   2.485   0.153  0.1564  0.2735 -0.1448
  345SOL    HW1 1034   2.690   2.397   0.210  0.8572  0.2537 -0.8107
  345SOL    HW2 1035   2.653   2.558   0.208  2.2567 -3.5332  1.2474
  346SOL     OW 1036   2.722   1.501   0.537  0.6129  0.0613 -0.6722
  346SOL    HW1 1037   2.790   1.577   0.519 -1.2367  1.3825 -1.4523
  346SOL    HW2 1038   2.713   1.482   0.638 -2.8157  0.1601  0.5104
  347SOL     OW 1039   2.036   2.348   1.538  0.0545  0.2324 -0.0304
  347SOL    HW1 1040   1.968   2.352   1.463 -2.3617 -1.1571  1.8317
  347SOL    HW2 1041   2.100   2.266   1.526  3.4675 -1.7779  0.3884
  348SOL     OW 1042   0.764   1.826   3.028  0.3532 -0.0908  0.2938
  348SOL    HW1 1043   0.839   1.893   3.042 -1.4872  0.3588 -0.1308
  348SOL    HW2 1044   0.729   1.794   3.115  0.8524  1.6374 -2.0937
  349SOL     OW 1045   2.628   1.462   1.686  0.1919 -0.1407 -0.0724
  349SOL    HW1 1046   2.624   1.486   1.786  1.4878  0.1410  3.0968
  349SOL    HW2 1047   2.630   1.541   1.624 -0.7191  2.2730  4.8323
  350SOL     OW 1048   2.894   2.431   0.917  0.3441  0.3518 -0.1576
  350SOL    HW1 1049   2.827   2.504   0.918 -2.1564 -2.0267 -0.0240
  350SOL    HW2 1050   2.988   2.461   0.898 -0.9543  2.0641  0.6255
  351SOL     OW 1051   0.412   0.368   2.167 -0.1218 -0.4988 -0.1253
  351SOL    HW1 1052   0.463   0.425   2.099 -2.0050  1.1712  1.9355
  351SOL    HW2 1053   0.443   0.276   2.189 -1.8809 -1.2872 -0.0352
  352SOL     OW 1054   0.520   1.864   1.125 -0.1628 -0.1031  0.1349
  352SOL    HW1 1055   0.580   1.817   1.197  1.4687  1.5259  1.3216
  352SOL    HW2 1056   0.417   1.853   1.142  0.0807 -2.7526 -2.3709
  353SOL     OW 1057   1.656   1.751   2.616  0.3812  0.0504 -0.0178
  353SOL    HW1 1058   1.702   1.782   2.529  1.3094  0.1634  1.3970
  353SOL    HW2 1059   1.708   1.682   2.668 -0.7502 -0.6974 -0.2382
  354SOL     OW 1060   1.199   0.681   1.029 -0.1956 -0.8265 -0.6145
  354SOL    HW1 1061   1.183   0.584   1.011  0.1780 -2.1168 -2.8843
  354SOL    HW2 1062   1.140   0.722   1.100 -1.0629  2.9954  3.1783
  355SOL     OW 1063   2.689   0.934   0.792 -0.3067  1.1441 -0.1647
  355SOL    HW1 1064   2.767   0.864   0.808  1.8272  0.4830 -0.4878
  355SOL    HW2 1065   2.724   1.029   0.798 -1.3941  1.4692  0.3421
  356SOL     OW 1066   2.472   1.780   2.319  0.8470  0.7838 -0.5484
  356SOL    HW1 1067   2.493   1.844   2.399 -0.6332  0.7163 -0.2483
  356SOL    HW2 1068   2.511   1.686   2.337 -2.2361 -1.3216  1.4985
  357SOL     OW 1069   0.411   2.441   1.276 -0.1103  0.1965  0.1854
  357SOL    HW1 1070   0.503   2.456   1.323  0.6182  0.2913  0.6473
  357SOL    HW2 1071   0.406   2.350   1.233 -0.0970  0.5151 -0.0295
  358SOL     OW 1072   2.554   0.926   1.760  0.4389  0.2094  0.4467
  358SOL    HW1 1073   2.563   0.917   1.661  0.5075  1.9648  1.5032
  358SOL    HW2 1074   2.634   0.951   1.811 -2.7681 -0.7830  1.3833
  359SOL     OW 1075   2.726   2.367   2.811 -1.2904 -0.2267  0.2202
  359SOL    HW1 1076   2.676   2.392   2.721 -3.2214 -1.4333 -2.5265
  359SOL    HW2 1077   2.769   2.275   2.807  2.1570  0.9532 -1.4177
  360SOL     OW 1078   1.930   0.682   0.760  0.1015 -0.0662  0.3176
  360SOL    HW1 1079   1.968   0.779   0.761  1.8027  1.1712  2.2552
  360SOL    HW2 1080   1.840   0.689   0.715  0.4621  2.0879  2.2513
  361SOL     OW 1081   2.347   0.259   1.262 -0.2571  0.3623 -0.0462
  361SOL    HW1 1082   2.297   0.251   1.351 -0.6285 -0.9199  4.9450
  361SOL    HW2 1083   2.292   0.241   1.179 -2.3081  0.5028 -1.4086
  362SOL     OW 1084   1.199   1.330   0.401  0.0374  0.5076  0.0824
  362SOL    HW1 1085   1.199   1.350   0.502 -1.7434  2.4855  0.8267
  362SOL    HW2 1086   1.185   1.418   0.347 -2.7009  2.5285 -2.0859
  363SOL     OW 1087   2.511   1.625   2.839 -0.0772 -0.0840  0.6971
  363SOL    HW1 1088   2.574   1.649   2.915 -0.4550 -0.7015 -1.2474
  363SOL    HW2 1089   2.571   1.623   2.757  0.5824 -0.3508  1.4864
  364SOL     OW 1090   0.761   0.315   1.381  0.5215  0.1608  1.0925
  364SOL    HW1 1091   0.771   0.398   1.436 -1.1476 -2.6519 -0.3807
  364SOL    HW2 1092   0.693   0.245   1.424  0.0097 -0.0478  0.1927
  365SOL     OW 1093   0.167   2.988   0.650  0.3644  0.3526  0.1197
  365SOL    HW1 1094   0.137   2.919   0.583 -1.4372  2.4931  0.9135
  365SOL    HW2 1095   0.118   2.974   0.735 -1.5856  0.9082 -1.0118
  366SOL     OW 1096   2.948   1.286   3.078  0.0775  0.6817  0.1197
  366SOL    HW1 1097   2.955   1.374   3.120  0.0337  0.1827 -0.5766
  366SOL    HW2 1098   3.005   1.221   0.008 -1.6611 -2.1657  2.6044
  367SOL     OW 1099   2.931   2.546   2.849 -0.0356 -0.4259  0.0394
  367SOL    HW1 1100   2.850   2.491   2.857  1.5100  1.1189 -0.2589
  367SOL    HW2 1101   2.987   2.545   2.934 -0.1218  0.8080 -2.6002
  368SOL     OW 1102   0.006   1.909   0.810  0.0545 -0.0722 -0.0290
  368SOL    HW1 1103   3.091   1.977   0.745 -1.2951  0.6778 -0.0381
  368SOL    HW2 1104   0.102   1.883   0.778 -0.4205  2.3239  0.1828
  369SOL     OW 1105   0.713   3.043   0.276 -0.1295  0.1739  0.6173
  369SOL    HW1 1106   0.613   3.018   0.265 -0.0552 -0.5918 -0.2127
  369SOL    HW2 1107   0.736   3.035   0.372 -2.2983 -0.6772 -3.8659
  370SOL     OW 1108   0.329   0.948   0.641  0.7967  0.0872  0.0345
  370SOL    HW1 1109   0.329   0.926   0.733 -0.0485  1.8492  1.1120
  370SOL    HW2 1110   0.273   1.035   0.630  1.7860  1.8077 -0.6973
  371SOL     OW 1111   1.865   2.925   0.730  0.5592 -0.0988 -0.1868
  371SOL    HW1 1112   1.908   2.836   0.729  0.7340  1.5543  0.0782
  371SOL    HW2 1113   1.866   2.965   0.636  1.9094 -0.0804 -1.5748
  372SOL     OW 1114   0.291   0.968   2.699 -0.0643  0.0623 -0.8304
  372SOL    HW1 1115   0.221   0.989   2.635  3.1771 -2.0734 -1.4049
  372SOL    HW2 1116   0.319   1.051   2.751 -2.1359 -0.2011 -0.3403
  373SOL     OW 1117   2.788   1.614   0.869 -0.4146  0.1244 -0.2016
  373SOL    HW1 1118   2.811   1.618   0.969  0.2527 -0.9927  0.6124
  373SOL    HW2 1119   2.719   1.688   0.859 -2.5238 -1.8227  1.1870
  374SOL     OW 1120   0.446   2.494   0.318 -0.3314 -0.7029  0.4813
  374SOL    HW1 1121   0.459   2.478   0.217  0.8415  1.1038  0.5972
  374SOL    HW2 1122   0.533   2.454   0.365  1.7937  1.5178 -2.0981
  375SOL     OW 1123   0.315   0.471   0.180 -0.2982 -0.3175 -0.1375
  375SOL    HW1 1124   0.388   0.538   0.207 -1.6156  3.1957  0.4729
  375SOL    HW2 1125   0.345   0.384   0.141 -0.2166  2.8186 -0.6747
  376SOL     OW 1126   0.425   2.793   1.871 -0.3603 -0.5495  0.0364
  376SOL    HW1 1127   0.453   2.797   1.969  0.9524 -0.0811 -0.6692
  376SOL    HW2 1128   0.431   2.888   1.834  0.1453 -0.9885 -0.7558
  377SOL     OW 1129   1.158   2.317   2.426  0.0540  0.1084  0.0010
  377SOL    HW1 1130   1.197   2.378   2.498 -0.8848 -0.5148 -2.6602
  377SOL    HW2 1131   1.202   2.227   2.433  3.0492 -0.9399  1.2579
  378SOL     OW 1132   1.164   0.744   0.565  0.3209  0.1889  0.1496
  378SOL    HW1 1133   1.101   0.709   0.488  0.8749 -0.0288 -0.5544
  378SOL    HW2 1134   1.230   0.823   0.540 -0.1495 -0.4980  1.6419
  379SOL     OW 1135   0.818   1.675   0.306 -0.0534  0.5603  0.6115
  379SOL    HW1 1136   0.822   1.727   0.395  2.1864 -1.2620 -0.1913
  379SOL    HW2 1137   0.831   1.578   0.318  3.0164  0.3500 -2.4992
  380SOL     OW 1138   0.063   1.816   1.641 -0.1212  0.7638 -0.0191
  380SOL    HW1 1139   0.025   1.785   1.550 -1.7649 -3.1553  2.1385
  380SOL    HW2 1140   0.112   1.907   1.629 -0.5106  4.0667  3.4090
  381SOL     OW 1141   0.195   1.070   1.665  0.4213  0.2313  0.4924
  381SOL    HW1 1142   0.122   1.107   1.723 -0.6228 -2.4306 -1.4871
  381SOL    HW2 1143   0.252   1.002   1.719  1.5357 -1.0350 -0.2567
  382SOL     OW 1144   2.434   2.209   0.729  0.0197  0.4677  0.4295
  382SOL    HW1 1145   2.350   2.260   0.706 -2.0105  0.5591  1.8505
  382SOL    HW2 1146   2.475   2.208   0.824  0.3422 -1.7122  2.3797
  383SOL     OW 1147   2.033   1.809   2.531  0.1104  0.1214 -0.5590
  383SOL    HW1 1148   2.101   1.738   2.516  2.2233  1.2413 -0.0683
  383SOL    HW2 1149   2.076   1.897   2.549 -0.4325  3.1303 -0.7404
  384SOL     OW 1150   0.731   2.005   2.389 -0.0370  0.0383 -0.0905
  384SOL    HW1 1151   0.680   2.090   2.361  2.4493 -0.7366 -0.4721
  384SOL    HW2 1152   0.780   1.979   2.305 -0.1090 -0.4306 -1.7171
  385SOL     OW 1153   2.823   2.193   1.023  0.1325 -0.1698 -0.3737
  385SOL    HW1 1154   2.843   2.269   0.963 -0.1851  3.5403  1.0019
  385SOL    HW2 1155   2.905   2.131   1.029 -0.8214  0.6203 -1.1288
  386SOL     OW 1156   1.624   0.876   0.206 -0.0488 -0.2601 -0.7194
  386SOL    HW1 1157   1.528   0.844   0.197 -2.3502  0.8757 -2.6342
  386SOL    HW2 1158   1.682   0.799   0.234  1.0853 -0.8788  0.4486
  387SOL     OW 1159   0.308   0.877   1.809  0.2342 -0.3336 -0.2916
  387SOL    HW1 1160   0.225   0.824   1.825 -1.7592 -3.1142 -0.2743
  387SOL    HW2 1161   0.344   0.892   1.904 -4.3196  2.9262  1.6107
  388SOL     OW 1162   2.443   0.847   2.280  0.0810 -0.3093 -0.6678
  388SOL    HW1 1163   2.449   0.920   2.213 -0.5480 -2.0610  2.3298
  388SOL    HW2 1164   2.386   0.877   2.356  5.0865 -0.2300  0.7925
  389SOL     OW 1165   1.539   1.063   2.190 -0.6629  0.2863  0.0463
  389SOL    HW1 1166   1.596   1.140   2.162 -0.6691  0.9987 -1.2304
  389SOL    HW2 1167   1.470   1.049   2.117  2.0087 -1.8288 -0.4636
  390SOL     OW 1168   1.941   2.736   0.306  0.2007 -0.3612  0.1263
  390SOL    HW1 1169   1.864   2.669   0.331  1.1969  0.0220  0.5027
  390SOL    HW2 1170   1.968   2.725   0.208  0.4641  2.9412 -0.1295
  391SOL     OW 1171   1.881   2.522   1.143 -0.1540  0.0159  0.2410
  391SOL    HW1 1172   1.968   2.558   1.104 -0.0714 -2.8016  1.5503
  391SOL    HW2 1173   1.818   2.478   1.076 -0.2846 -0.2147 -0.3272
  392SOL     OW 1174   3.013   2.395   1.385 -0.1670 -0.6168  0.0428
  392SOL    HW1 1175   3.008   2.495   1.406 -1.5962  1.5672 -1.4210
  392SOL    HW2 1176   2.933   2.365   1.332 -0.5956 -1.8468  0.7171
  393SOL     OW 1177   2.000   1.993   0.057 -0.3847 -0.0634 -0.2516
  393SOL    HW1 1178   2.028   1.913   0.114 -1.8024  1.3428  0.4729
  393SOL    HW2 1179   1.993   1.971   3.087  0.8726 -1.1228  2.2535
  394SOL     OW 1180   0.217   3.090   3.104  0.0334  0.0109  0.1764
  394SOL    HW1 1181   0.133   3.038   3.079 -2.0010  0.3646 -0.3889
  394SOL    HW2 1182   0.285   3.084   3.027  1.5362 -3.6278 -4.3223
  395SOL     OW 1183   1.408   1.120   1.421  0.4919 -0.0022 -0.0543
  395SOL    HW1 1184   1.464   1.182   1.358  0.8115  2.7495 -2.2674
  395SOL    HW2 1185   1.395   1.025   1.386  0.8190 -0.5091  1.0678
  396SOL     OW 1186   1.705   1.066   0.019  0.0160 -0.1940  0.5218
  396SOL    HW1 1187   1.757   1.131   0.079  0.6298 -0.9284 -1.2850
  396SOL    HW2 1188   1.648   0.997   0.073  0.2997  0.1715 -1.7779
  397SOL     OW 1189   0.196   0.717   2.680 -0.2495 -0.2868  0.4716
  397SOL    HW1 1190   0.095   0.715   2.664  1.0461  0.8382  2.6401
  397SOL    HW2 1191   0.233   0.814   2.695  0.8199  1.4690 -1.4174
  398SOL     OW 1192   1.033   0.261   2.953 -0.1598  0.1484 -0.2132
  398SOL    HW1 1193   0.942   0.270   3.002  0.5892 -2.7704  3.3182
  398SOL    HW2 1194   1.100   0.327   2.988 -1.2894 -0.6761  2.0493
  399SOL     OW 1195   2.385   2.842   1.832  0.1342 -0.4828 -0.2198
  399SOL    HW1 1196   2.467   2.891   1.799 -1.6105 -1.4780 -0.0166
  399SOL    HW2 1197   2.407   2.759   1.882 -0.6856  1.6610 -2.7166
  400SOL     OW 1198   0.260   1.662   2.457  0.2266 -0.3459 -0.2834
  400SOL    HW1 1199   0.345   1.610   2.450 -0.8739  2.1655 -1.6908
  400SOL    HW2 1200   0.268   1.736   2.392  0.0451  0.1129 -0.6218
  401SOL     OW 1201   0.538   0.195   2.776  0.3918 -0.5916 -0.1452
  401SOL    HW1 1202   0.543   0.258   2.856  1.7510  2.1375  2.0762
  401SOL    HW2 1203   0.615   0.132   2.757 -2.2120 -3.7837 -0.3560
  402SOL     OW 1204   0.265   2.161   1.767 -0.2669 -0.7522 -0.2730
  402SOL    HW1 1205   0.359   2.147   1.737 -0.1039  3.3031  1.0833
  402SOL    HW2 1206   0.254   2.257   1.794 -0.1800 -1.2419  1.6261
  403SOL     OW 1207   0.682   1.162   1.433 -0.2071  0.3630  0.1856
  403SOL    HW1 1208   0.685   1.055   1.440  0.1591 -0.1043  1.0346
  403SOL    HW2 1209   0.729   1.203   1.513 -2.5515  1.1344 -1.0523
  404SOL     OW 1210   2.883   2.502   1.692 -0.3060 -0.1643 -0.1730
  404SOL    HW1 1211   2.809   2.569   1.707 -0.1063 -1.5716  1.2080
  404SOL    HW2 1212   2.956   2.536   1.631  1.8587  1.1517  0.5501
  405SOL     OW 1213   2.962   0.218   1.807  0.0566  0.1121  0.2102
  405SOL    HW1 1214   3.038   0.149   1.799 -0.6356 -1.3630  2.3772
  405SOL    HW2 1215   2.967   0.268   1.896  1.4119  2.6454  1.7077
  406SOL     OW 1216   1.645   2.593   2.904  0.2630  0.4097  0.2082
  406SOL    HW1 1217   1.649   2.490   2.906 -1.3377  2.1729  0.9353
  406SOL    HW2 1218   1.668   2.622   2.809 -0.5130  0.6519  0.1571
  407SOL     OW 1219   1.793   1.600   1.542  0.2849  0.3068  0.7911
  407SOL    HW1 1220   1.835   1.509   1.515  0.4924 -2.1529 -0.2808
  407SOL    HW2 1221   1.722   1.591   1.611 -0.6638  1.1280 -2.2607
  408SOL     OW 1222   0.842   0.168   2.203  0.3937  0.5630 -0.6750
  408SOL    HW1 1223   0.765   0.192   2.264  2.4780 -2.3898 -1.4292
  408SOL    HW2 1224   0.918   0.132   2.267  2.3741 -2.8759  0.7388
  409SOL     OW 1225   2.969   2.547   0.582 -0.1396 -1.1257  0.1200
  409SOL    HW1 1226   2.908   2.469   0.604  1.0289  0.3487  1.0224
  409SOL    HW2 1227   2.967   2.567   0.482 -1.1235  0.5632  3.8477
  410SOL     OW 1228   2.364   1.781   0.582 -0.7619  0.3896  0.2913
  410SOL    HW1 1229   2.376   1.695   0.527 -2.0588 -0.8323 -1.1558
  410SOL    HW2 1230   2.430   1.784   0.659 -3.6516 -1.0305  2.4850
  411SOL     OW 1231   0.095   0.669   0.874 -0.0536 -0.3450  0.5667
  411SOL    HW1 1232   0.121   0.571   0.862  0.4228 -0.8771  0.0063
  411SOL    HW2 1233   0.159   0.727   0.924 -2.2004  0.6438  0.3639
  412SOL     OW 1234   1.685   0.665   0.619  0.8873  0.2497 -0.4570
  412SOL    HW1 1235   1.671   0.761   0.647 -1.3223 -2.3504  0.3961
  412SOL    HW2 1236   1.588   0.619   0.617  0.5502 -1.5733 -1.0031
  413SOL     OW 1237   0.715   0.407   1.126  0.1614  0.7573 -0.2027
  413SOL    HW1 1238   0.642   0.352   1.092 -0.8800  0.8804 -1.6961
  413SOL    HW2 1239   0.763   0.368   1.207 -0.6205  3.1279  1.0600
  414SOL     OW 1240   0.325   1.858   0.078  0.1496 -0.0865  0.5644
  414SOL    HW1 1241   0.361   1.821   3.113  1.7049 -0.6514 -1.2221
  414SOL    HW2 1242   0.335   1.789   0.152 -0.4622  0.8272 -0.2919
  415SOL     OW 1243   0.363   2.399   0.048 -0.0437 -0.0521 -0.5580
  415SOL    HW1 1244   0.320   2.325   0.095  2.4892  1.2636  0.9871
  415SOL    HW2 1245   0.300   2.460   3.121 -2.3307 -0.1020  0.0518
  416SOL     OW 1246   1.552   0.939   0.475 -0.3949 -0.4266  0.3209
  416SOL    HW1 1247   1.602   0.907   0.394  0.3393  0.5414 -1.5677
  416SOL    HW2 1248   1.606   0.926   0.561  0.8314 -0.6226  1.2938
  417SOL     OW 1249   0.382   0.742   0.471 -0.2015  0.6411  0.2906
  417SOL    HW1 1250   0.318   0.728   0.390 -0.9208  0.1495  0.5730
  417SOL    HW2 1251   0.375   0.835   0.517  0.4260  1.3829  1.9981
  418SOL     OW 1252   2.722   1.098   2.494 -0.2579  0.9338  0.3059
  418SOL    HW1 1253   2.690   1.159   2.416  0.3564 -2.2076  2.5155
  418SOL    HW2 1254   2.656   1.105   2.576  0.1671 -0.2333  0.1690
  419SOL     OW 1255   0.327   0.326   3.025  0.3479  0.3294 -0.3676
  419SOL    HW1 1256   0.270   0.258   3.077 -2.8917 -2.4820  3.3353
  419SOL    HW2 1257   0.277   0.365   2.948  1.5349 -1.0564 -0.3340
  420SOL     OW 1258   0.169   1.208   0.844  0.2218  0.1172 -0.2159
  420SOL    HW1 1259   0.160   1.309   0.855 -1.7229 -2.3490  1.2569
  420SOL    HW2 1260   0.188   1.193   0.745  1.3185 -1.3163 -0.5530
  421SOL     OW 1261   0.573   2.012   0.432 -0.0238 -0.1267  0.7014
  421SOL    HW1 1262   0.486   2.046   0.380 -5.7733  0.5047  1.0586
  421SOL    HW2 1263   0.648   2.081   0.419 -3.2729 -0.3755 -1.2379
  422SOL     OW 1264   2.750   0.681   1.294  0.1714  0.2922  0.0139
  422SOL    HW1 1265   2.823   0.652   1.363 -0.4433 -0.7166 -0.2022
  422SOL    HW2 1266   2.661   0.630   1.307 -0.1051  0.5899 -1.4741
  423SOL     OW 1267   1.686   1.698   1.304 -0.3914  0.2523  0.6520
  423SOL    HW1 1268   1.731   1.688   1.395  1.9554  1.6532  0.1585
  423SOL    HW2 1269   1.737   1.764   1.244 -1.3036 -0.9192 -0.1833
  424SOL     OW 1270   1.941   1.094   0.422  0.4555 -0.2144  0.3082
  424SOL    HW1 1271   1.974   1.001   0.400 -0.7235 -3.4934 -0.1803
  424SOL    HW2 1272   2.017   1.165   0.410  1.4842  1.1865  0.3816
  425SOL     OW 1273   3.060   0.006   2.094  0.0355 -0.6363 -0.5855
  425SOL    HW1 1274   3.122   0.011   2.174  1.5496  0.1685 -2.4646
  425SOL    HW2 1275   3.027   3.036   2.076 -0.6314 -0.6816  2.2019
  426SOL     OW 1276   2.584   2.741   2.623 -0.2213 -0.4889 -0.0334
  426SOL    HW1 1277   2.643   2.769   2.703 -1.6617  0.3609 -0.3885
  426SOL    HW2 1278   2.482   2.750   2.643 -3.0240  0.1991  0.6846
  427SOL     OW 1279   1.072   0.859   2.268  0.2085  0.3480 -0.1841
  427SOL    HW1 1280   0.989   0.804   2.270  1.8634  2.6302 -0.0179
  427SOL    HW2 1281   1.150   0.797   2.268 -1.6796 -0.4984 -1.1109
  428SOL     OW 1282   2.045   0.822   2.373  0.4883 -0.3247 -0.1413
  428SOL    HW1 1283   1.958   0.880   2.383 -0.6663  1.5625 -0.8329
  428SOL    HW2 1284   2.132   0.863   2.406 -1.2184 -0.9149 -2.7041
  429SOL     OW 1285   2.384   0.261   0.773 -0.1754 -0.3789 -0.1186
  429SOL    HW1 1286   2.387   0.240   0.675  0.1835  1.1648  1.8973
  429SOL    HW2 1287   2.344   0.354   0.796 -2.3359  1.7787  1.2079
  430SOL     OW 1288   2.274   1.342   2.089  0.5215  0.0871  0.6199
  430SOL    HW1 1289   2.231   1.269   2.141 -0.7057  2.4661 -4.2043
  430SOL    HW2 1290   2.240   1.334   1.988 -3.7023 -0.0007  0.6086
  431SOL     OW 1291   2.971   1.932   1.268 -0.3481  0.0360  0.3251
  431SOL    HW1 1292   2.906   1.988   1.325 -0.4681  0.0071  0.3153
  431SOL    HW2 1293   3.044   1.888   1.324  0.8034  1.1458  1.0533
  432SOL     OW 1294   1.630   2.861   2.263 -0.5943 -0.3844 -0.2549
  432SOL    HW1 1295   1.595   2.958   2.265  1.9223 -0.8632  0.7037
  432SOL    HW2 1296   1.673   2.846   2.174 -1.1093  0.5708  1.2048
  433SOL     OW 1297   1.506   2.966   1.818  0.1375  0.5341  0.2841
  433SOL    HW1 1298   1.503   2.942   1.718 -1.5725 -1.2698 -0.7994
  433SOL    HW2 1299   1.512   3.067   1.827  1.0313 -1.1579 -0.7255
  434SOL     OW 1300   0.130   2.312   2.337 -0.1916  0.0369 -0.0929
  434SOL    HW1 1301   0.094   2.249   2.267 -0.2314 -3.5747  1.1974
  434SOL    HW2 1302   0.120   2.405   2.300  1.3345 -2.8391 -1.5350
  435SOL     OW 1303   0.028   2.130   0.171 -0.3379 -0.1100  0.1031
  435SOL    HW1 1304   0.122   2.106   0.155 -0.9199 -0.5425 -0.9380
  435SOL    HW2 1305   3.112   2.058   0.234  0.9981 -0.8072 -1.1991
  436SOL     OW 1306   0.882   1.053   1.639 -0.3862 -0.0867 -0.3059
  436SOL    HW1 1307   0.939   1.006   1.571 -0.6270  1.3229 -0.1541
  436SOL    HW2 1308   0.859   1.000   1.718  3.1114  0.7667 -0.2952
  437SOL     OW 1309   0.684   0.234   2.411  0.3620 -0.1350  0.0495
  437SOL    HW1 1310   0.771   0.255   2.462  0.2516 -1.4466 -0.1691
  437SOL    HW2 1311   0.604   0.276   2.454  0.6054 -1.9666  2.4791
  438SOL     OW 1312   0.523   1.762   1.599  0.4964 -0.3738  0.4424
  438SOL    HW1 1313   0.567   1.832   1.661  2.3643 -1.9016 -1.0212
  438SOL    HW2 1314   0.564   1.671   1.608 -1.2551  3.0805 -1.3494
  439SOL     OW 1315   1.950   0.935   3.052 -0.2539 -0.7994  0.5567
  439SOL    HW1 1316   1.863   0.967   3.091  3.8164 -0.8140 -1.3662
  439SOL    HW2 1317   2.019   1.014   3.044  1.1617 -0.1462 -0.7478
  440SOL     OW 1318   0.938   0.975   0.220 -0.5518 -0.1090  0.0379
  440SOL    HW1 1319   1.031   0.943   0.246  0.4706  1.3401 -1.0121
  440SOL    HW2 1320   0.864   0.927   0.269 -0.8827  0.7255 -0.7329
  441SOL     OW 1321   0.533   2.394   1.636 -0.4887  0.5791 -0.1787
  441SOL    HW1 1322   0.630   2.397   1.672  1.3917  2.0146 -1.3718
  441SOL    HW2 1323   0.513   2.291   1.621  0.7578  0.6859 -3.9671
  442SOL     OW 1324   2.766   2.093   0.682 -0.5696  0.2155  0.4880
  442SOL    HW1 1325   2.729   2.105   0.774 -1.7415  2.0015 -0.6275
  442SOL    HW2 1326   2.722   2.012   0.636 -1.6384 -0.3914  0.4670
  443SOL     OW 1327   2.962   1.831   2.531  0.2555 -0.2533 -0.1520
  443SOL    HW1 1328   2.933   1.929   2.519 -0.8296  0.1402 -0.8096
  443SOL    HW2 1329   3.054   1.822   2.579  0.8552  0.8494  1.7333
  444SOL     OW 1330   1.318   1.168   0.224  0.5074  1.0093 -0.0929
  444SOL    HW1 1331   1.279   1.073   0.241  0.1492  0.1944 -1.9948
  444SOL    HW2 1332   1.280   1.229   0.299 -0.7329 -0.8432  3.0415
  445SOL     OW 1333   2.551   2.655   1.932 -0.2815 -0.1393  0.3415
  445SOL    HW1 1334   2.603   2.647   1.847 -0.6699  1.2323 -2.3074
  445SOL    HW2 1335   2.536   2.568   1.983  0.0045 -1.2313 -0.1432
  446SOL     OW 1336   2.894   1.692   0.534  0.0042 -0.4829  0.2821
  446SOL    HW1 1337   2.963   1.726   0.462  1.6893 -0.9128  2.5882
  446SOL    HW2 1338   2.946   1.631   0.606  0.6080 -3.3948  0.4147
  447SOL     OW 1339   0.868   2.374   1.418 -0.0571 -0.2152 -0.4447
  447SOL    HW1 1340   0.944   2.379   1.487  1.7672 -1.5486 -0.4917
  447SOL    HW2 1341   0.900   2.373   1.323 -3.3284 -0.8429  0.7034
  448SOL     OW 1342   1.318   1.555   1.799  0.5368  0.0343  0.1654
  448SOL    HW1 1343   1.280   1.609   1.879  0.1900  1.6211  0.8543
  448SOL    HW2 1344   1.279   1.460   1.798  1.7545  0.7259 -0.6254
  449SOL     OW 1345   3.099   2.158   2.155 -0.5820 -0.5641 -0.2603
  449SOL    HW1 1346   3.000   2.179   2.153  0.0536  2.4778 -0.1998
  449SOL    HW2 1347   0.009   2.141   2.057  3.4795  2.1047  0.8534
  450SOL     OW 1348   3.123   1.766   2.177  0.2460 -0.5195 -0.0763
  450SOL    HW1 1349   0.046   1.851   2.210 -0.0834  0.3895 -1.0014
  450SOL    HW2 1350   0.038   1.747   2.085 -0.9944 -0.2819 -2.1924
  451SOL     OW 1351   2.095   0.563   1.639  0.3492 -0.1708  0.2836
  451SOL    HW1 1352   2.157   0.626   1.593 -0.7112 -1.7258 -0.2792
  451SOL    HW2 1353   2.131   0.543   1.729 -0.4542  3.1994 -2.6106
  452SOL     OW 1354   1.015   1.357   0.922  0.1885  0.0618  0.2468
  452SOL    HW1 1355   0.926   1.316   0.911  0.9460 -1.3264  1.2030
  452SOL    HW2 1356   1.013   1.459   0.921 -0.7111  0.5873  0.0769
  453SOL     OW 1357   1.147   2.247   0.870 -0.3361 -1.0892 -0.2567
  453SOL    HW1 1358   1.112   2.327   0.927 -2.4043  0.7663 -2.1311
  453SOL    HW2 1359   1.247   2.226   0.884  0.7507 -0.5514 -2.5677
  454SOL     OW 1360   0.051   1.458   0.302  0.4709 -0.4580 -0.1478
  454SOL    HW1 1361   0.055   1.384   0.372 -0.2038 -1.5427  0.7516
  454SOL    HW2 1362   0.117   1.430   0.229  0.4504  2.4587 -1.9756
  455SOL     OW 1363   0.954   1.210   0.364  0.0818  0.2564 -0.2022
  455SOL    HW1 1364   0.935   1.130   0.305  0.9562 -0.3305  1.0616
  455SOL    HW2 1365   1.053   1.224   0.375  0.0731  0.5976 -0.2241
  456SOL     OW 1366   1.945   2.670   0.711 -0.7880  0.8834 -0.4616
  456SOL    HW1 1367   1.980   2.583   0.755 -0.3236  1.0883 -0.1885
  456SOL    HW2 1368   2.009   2.703   0.639  2.1567  0.8104  0.8852
  457SOL     OW 1369   1.729   3.031   2.931  0.0239  0.6044 -0.0326
  457SOL    HW1 1370   1.739   0.001   2.966  0.9825  1.7977  1.5604
  457SOL    HW2 1371   1.722   3.041   2.829 -1.9301 -0.4693 -1.6058
  458SOL     OW 1372   2.474   0.676   0.287 -0.1545 -0.4928 -0.0102
  458SOL    HW1 1373   2.385   0.624   0.284  2.8845 -2.0403 -1.0502
  458SOL    HW2 1374   2.473   0.764   0.336 -0.7726 -0.5952 -2.0076
  459SOL     OW 1375   2.195   0.209   2.292 -0.6177 -0.2127  0.1136
  459SOL    HW1 1376   2.151   0.236   2.208 -0.5368 -1.5627  0.3185
  459SOL    HW2 1377   2.301   0.233   2.291  2.8015  2.1123 -1.8920
  460SOL     OW 1378   2.830   0.598   2.792 -0.3832 -0.2677 -0.2960
  460SOL    HW1 1379   2.811   0.566   2.887 -1.4401 -0.9499  0.4721
  460SOL    HW2 1380   2.785   0.688   2.777  1.4994  0.4180  1.9237
  461SOL     OW 1381   0.048   2.494   0.889  0.0664  0.0684 -0.5118
  461SOL    HW1 1382   0.077   2.453   0.978 -0.8319  1.0942 -2.9438
  461SOL    HW2 1383   0.070   2.430   0.810 -0.4641  0.8824 -0.4562
  462SOL     OW 1384   2.869   2.772   1.209 -0.1234 -0.0841  0.1247
  462SOL    HW1 1385   2.838   2.846   1.271  0.6376  1.2516 -0.3947
  462SOL    HW2 1386   2.967   2.776   1.210 -1.3082  0.6069 -0.0626
  463SOL     OW 1387   2.278   1.693   0.083 -0.2922  0.3634 -0.1568
  463SOL    HW1 1388   2.341   1.777   0.079  2.5551 -0.4008 -0.0703
  463SOL    HW2 1389   2.284   1.639   3.123 -0.3219  1.9274 -1.8684
  464SOL     OW 1390   0.658   2.557   1.382 -0.0524 -0.5606  0.0963
  464SOL    HW1 1391   0.731   2.482   1.394  0.4247  1.3521 -0.1907
  464SOL    HW2 1392   0.669   2.609   1.293  0.7421  0.7764 -0.6093
  465SOL     OW 1393   1.089   0.145   1.608 -0.4773  0.0436  0.2701
  465SOL    HW1 1394   1.182   0.106   1.620  0.2357  1.4191 -2.1677
  465SOL    HW2 1395   1.039   0.171   1.697 -0.1483  1.1037 -2.0336
  466SOL     OW 1396   1.626   2.568   1.800  0.0708 -1.1041  0.1387
  466SOL    HW1 1397   1.680   2.510   1.866 -0.4046  1.0662 -0.0584
  466SOL    HW2 1398   1.551   2.622   1.853  0.4200  0.9191  0.5099
  467SOL     OW 1399   0.783   2.130   1.424 -0.0507 -0.7830  0.4599
  467SOL    HW1 1400   0.683   2.120   1.410 -0.3743  1.3465 -1.4495
  467SOL    HW2 1401   0.804   2.234   1.422 -1.5449  2.5958 -0.9352
  468SOL     OW 1402   2.716   1.535   2.438 -0.4700  0.3087  0.2421
  468SOL    HW1 1403   2.794   1.560   2.380 -1.4640  2.4089  1.0015
  468SOL    HW2 1404   2.676   1.446   2.408 -1.0089  0.1712  1.6789
  469SOL     OW 1405   0.831   1.887   0.772  0.2938 -0.0153 -0.4144
  469SOL    HW1 1406   0.754   1.940   0.819 -1.8404  1.6545  2.1418
  469SOL    HW2 1407   0.820   1.794   0.811  2.1326  1.2085  0.4748
  470SOL     OW 1408   1.862   1.288   2.032  0.0252  0.7280 -0.0698
  470SOL    HW1 1409   1.856   1.187   2.068  0.8325  0.4362  2.2551
  470SOL    HW2 1410   1.819   1.350   2.105 -1.2482 -0.0889 -0.6779
  471SOL     OW 1411   0.642   2.449   0.002  0.4026  0.7384  0.5433
  471SOL    HW1 1412   0.545   2.456   0.003  5.7524 -0.1582  1.4733
  471SOL    HW2 1413   0.672   2.353   3.097 -0.0236 -0.5122  0.1487
  472SOL     OW 1414   0.007   2.753   1.931 -0.0317 -0.1432 -0.6229
  472SOL    HW1 1415   3.076   2.809   1.996 -1.0157  2.6266 -0.0750
  472SOL    HW2 1416   0.049   2.809   1.853  2.2808  1.6441  2.9814
  473SOL     OW 1417   0.691   2.723   0.026  0.1666  0.4189  0.2374
  473SOL    HW1 1418   0.774   2.750   0.075 -0.5497 -0.1633 -0.1676
  473SOL    HW2 1419   0.690   2.621   0.019  1.4762 -2.0919 -0.6340
  474SOL     OW 1420   2.314   3.111   1.090  0.0031 -0.0911 -0.2421
  474SOL    HW1 1421   2.218   0.013   1.093  1.6151 -1.1365 -0.8811
  474SOL    HW2 1422   2.323   3.022   1.037  0.2839 -0.3486 -0.5174
  475SOL     OW 1423   1.779   3.015   1.699  0.0900 -0.5083  0.3176
  475SOL    HW1 1424   1.753   2.917   1.711 -0.3373  0.0722 -0.2624
  475SOL    HW2 1425   1.747   3.046   1.610  0.5009 -0.7351 -2.0346
  476SOL     OW 1426   0.627   1.301   0.712  0.6760  0.3226 -0.0470
  476SOL    HW1 1427   0.601   1.400   0.732 -0.5369  2.3102  1.4699
  476SOL    HW2 1428   0.648   1.244   0.792 -1.3789  1.6192 -2.2470
  477SOL     OW 1429   0.272   1.906   0.707  0.2866 -0.0172  0.1449
  477SOL    HW1 1430   0.344   1.978   0.710 -0.0005 -0.4326 -2.1627
  477SOL    HW2 1431   0.248   1.896   0.608 -0.4127  3.0747  0.7693
  478SOL     OW 1432   2.956   2.639   2.344 -0.2542 -0.1732  0.2824
  478SOL    HW1 1433   2.913   2.734   2.342  0.8893  0.1885 -0.7295
  478SOL    HW2 1434   2.950   2.600   2.438  1.0455 -0.3348 -0.7121
  479SOL     OW 1435   2.943   0.229   1.428  0.3991  0.0877 -0.3261
  479SOL    HW1 1436   2.974   0.147   1.477 -0.9114  0.0531 -1.9831
  479SOL    HW2 1437   2.952   0.316   1.475 -3.1726  1.7926  1.2717
  480SOL     OW 1438   2.885   2.397   3.103 -0.2447 -0.1554  0.3641
  480SOL    HW1 1439   2.972   2.452   3.117  1.1737  0.3199  1.8241
  480SOL    HW2 1440   2.810   2.426   0.040  0.6018 -0.7519 -0.8486
  481SOL     OW 1441   2.257   1.929   1.946  0.8688 -0.2153 -0.3196
  481SOL    HW1 1442   2.168   1.981   1.939 -0.1263 -1.4324 -0.2933
  481SOL    HW2 1443   2.295   1.957   1.853  3.2129  3.2714 -2.9273
  482SOL     OW 1444   1.793   2.281   2.630 -0.2920  0.1529 -0.0299
  482SOL    HW1 1445   1.826   2.190   2.650  1.1127  0.5132  2.2633
  482SOL    HW2 1446   1.772   2.299   2.530  0.2471  1.0562 -1.3635
  483SOL     OW 1447   0.732   1.544   2.162 -0.5533 -0.4547 -0.5770
  483SOL    HW1 1448   0.695   1.483   2.235 -3.6269  1.9212  1.3653
  483SOL    HW2 1449   0.677   1.632   2.155 -0.7212  1.8948 -0.5517
  484SOL     OW 1450   0.073   0.376   1.445 -0.0863 -0.1682 -0.9008
  484SOL    HW1 1451   0.069   0.440   1.364 -2.1745 -0.5947 -3.1454
  484SOL    HW2 1452   0.085   0.427   1.534 -1.1402  1.3388  2.3275
  485SOL     OW 1453   2.289   1.074   0.243  0.5015  0.1780 -0.2674
  485SOL    HW1 1454   2.368   1.056   0.179  0.2566 -0.0605  1.5942
  485SOL    HW2 1455   2.258   1.169   0.233  1.2708  1.0809 -0.5633
  486SOL     OW 1456   1.574   0.017   2.248  0.1709  0.6366  0.2416
  486SOL    HW1 1457   1.545   0.080   2.176  2.0723  0.9304  1.8318
  486SOL    HW2 1458   1.650   0.055   2.311  2.7578  0.8134  0.1464
  487SOL     OW 1459   0.857   1.889   1.346 -0.3576 -0.1416 -0.6193
  487SOL    HW1 1460   0.833   1.985   1.378 -0.6268  0.0305 -0.8887
  487SOL    HW2 1461   0.772   1.829   1.346  2.2523 -2.7640  1.2505
  488SOL     OW 1462   2.559   1.284   3.030 -0.3553 -0.4717  0.2771
  488SOL    HW1 1463   2.644   1.248   2.983  2.7597  0.6538 -1.7152
  488SOL    HW2 1464   2.518   1.364   2.978 -1.9023  0.2604 -1.3880
  489SOL     OW 1465   2.267   0.030   0.637 -0.0779 -0.5254  0.2606
  489SOL    HW1 1466   2.359   3.109   0.617  0.8830 -0.1960 -1.8382
  489SOL    HW2 1467   2.283   0.091   0.717 -1.6658 -0.8925  1.3957
  490SOL     OW 1468   1.208   2.754   2.856  0.1684  0.2953  1.0193
  490SOL    HW1 1469   1.272   2.702   2.911 -1.2189  2.0658 -1.4041
  490SOL    HW2 1470   1.132   2.782   2.919 -0.4975  0.9055  0.4873
  491SOL     OW 1471   1.149   1.113   0.967 -0.2369 -0.2252 -0.0992
  491SOL    HW1 1472   1.125   1.215   0.964 -0.7906  1.0365  0.5161
  491SOL    HW2 1473   1.074   1.060   0.923  1.8163  2.0307  2.2651
  492SOL     OW 1474   1.408   0.278   2.449  0.0074  0.4115 -0.2175
  492SOL    HW1 1475   1.502   0.321   2.453 -0.8662  1.6504  1.0429
  492SOL    HW2 1476   1.380   0.269   2.352 -0.6154  1.2268  2.5512
  493SOL     OW 1477   1.793   2.128   0.139  0.2164 -0.1884  0.4774
  493SOL    HW1 1478   1.807   2.215   0.193 -2.4063 -2.9267 -1.1064
  493SOL    HW2 1479   1.883   2.089   0.117 -0.8143  0.4362  0.2439
  494SOL     OW 1480   0.535   1.312   0.465  0.1229 -0.0026  0.2672
  494SOL    HW1 1481   0.470   1.379   0.425 -2.9758  3.9417  1.3363
  494SOL    HW2 1482   0.531   1.318   0.567 -2.3205  3.2655  3.4378
  495SOL     OW 1483   2.946   2.769   0.738  0.1821  0.7806  0.0291
  495SOL    HW1 1484   2.881   2.745   0.814 -1.1083  1.6772 -2.1640
  495SOL    HW2 1485   2.980   2.686   0.690  0.1194  0.2296  0.3947
  496SOL     OW 1486   2.672   0.253   1.614 -0.0606  0.0867 -0.3524
  496SOL    HW1 1487   2.662   0.217   1.520 -0.3264 -1.2191 -1.2251
  496SOL    HW2 1488   2.707   0.179   1.672 -1.7431  2.2600 -0.8706
  497SOL     OW 1489   2.345   1.241   2.462 -0.4961  0.6865 -0.1423
  497SOL    HW1 1490   2.339   1.270   2.561  1.0297 -3.1981  1.8112
  497SOL    HW2 1491   2.257   1.246   2.409 -1.2206 -0.5302  1.8769
  498SOL     OW 1492   0.627   1.999   0.898  0.1331 -0.0065  0.0502
  498SOL    HW1 1493   0.557   2.023   0.827 -0.9820 -0.0536 -0.5096
  498SOL    HW2 1494   0.586   1.937   0.965 -1.1881 -0.7661  0.0523
  499SOL     OW 1495   0.818   2.113   1.695  0.1370 -0.4399 -0.0990
  499SOL    HW1 1496   0.807   2.212   1.718 -1.4894  0.4094 -1.7733
  499SOL    HW2 1497   0.797   2.104   1.595  1.3233  0.5409 -1.5882
  500SOL     OW 1498   1.110   2.148   0.325  0.1989  0.0267 -0.2598
  500SOL    HW1 1499   1.054   2.125   0.401  0.7085  1.4248 -1.2852
  500SOL    HW2 1500   1.149   2.067   0.269  1.4885 -0.0507 -3.1266
  501SOL     OW 1501   2.352   3.000   1.329 -0.3100 -0.4773  0.3342
  501SOL    HW1 1502   2.261   3.000   1.370 -1.4138  0.0965 -0.1143
  501SOL    HW2 1503   2.347   3.058   1.247 -0.9749  0.0541  2.6605
  502SOL     OW 1504   2.879   0.442   1.646  0.3928  0.0154 -0.3059
  502SOL    HW1 1505   2.929   0.442   1.734  0.2292  0.6011 -1.0238
  502SOL    HW2 1506   2.809   0.368   1.641 -1.1338 -2.0280 -2.1084
  503SOL     OW 1507   2.783   0.983   1.887  0.3545 -0.0456 -0.0496
  503SOL    HW1 1508   2.809   0.974   1.991  0.4984 -0.2532 -0.4385
  503SOL    HW2 1509   2.765   1.083   1.863  3.8665  0.8696 -0.0781
  504SOL     OW 1510   1.415   0.729   1.811 -0.2470 -0.0506  0.1952
  504SOL    HW1 1511   1.469   0.725   1.724  2.9443 -0.8231 -2.6461
  504SOL    HW2 1512   1.407   0.828   1.841  2.8383  0.6366  1.3684
  505SOL     OW 1513   0.797   0.040   1.952  0.6788 -0.0882 -0.4316
  505SOL    HW1 1514   0.826   3.069   1.937  0.7944  1.7328 -0.4135
  505SOL    HW2 1515   0.817   0.076   2.047 -3.1243 -0.5200  0.0876
  506SOL     OW 1516   0.167   0.368   0.856  0.4301  0.1529 -0.5851
  506SOL    HW1 1517   0.147   0.346   0.762  0.2585 -1.3640  1.5748
  506SOL    HW2 1518   0.121   0.305   0.917  1.4504  1.4303 -0.5956
  507SOL     OW 1519   2.018   0.518   0.131 -0.2631  0.1748  0.3090
  507SOL    HW1 1520   2.118   0.522   0.162  1.7354 -1.3443 -2.4936
  507SOL    HW2 1521   1.966   0.451   0.193 -3.3635 -0.7001  2.4409
  508SOL     OW 1522   1.785   0.116   2.374  0.0634  0.0313 -0.6723
  508SOL    HW1 1523   1.729   0.193   2.410 -0.1625  0.8331 -1.0849
  508SOL    HW2 1524   1.876   0.114   2.421 -0.3029 -0.3148  0.9170
  509SOL     OW 1525   0.950   1.333   1.910  0.5938 -0.3075  0.1587
  509SOL    HW1 1526   0.956   1.426   1.949  0.2080 -0.7487  0.1917
  509SOL    HW2 1527   0.909   1.274   1.984 -2.5758 -1.7959  0.7076
  510SOL     OW 1528   2.826   1.164   0.891 -0.3754 -0.2516 -0.4135
  510SOL    HW1 1529   2.891   1.088   0.916  2.0456  0.0162 -2.7482
  510SOL    HW2 1530   2.795   1.213   0.976 -1.0958 -1.0707 -0.2365
  511SOL     OW 1531   1.979   2.262   1.234  0.0726  0.2407  0.2157
  511SOL    HW1 1532   1.951   2.360   1.221 -1.8057 -0.7898 -1.3404
  511SOL    HW2 1533   2.073   2.253   1.197  0.1613  0.6878 -0.7214
  512SOL     OW 1534   0.043   1.709   0.390 -0.5907 -0.1632 -0.1488
  512SOL    HW1 1535   0.048   1.607   0.384  0.9318 -0.4939  1.1503
  512SOL    HW2 1536   0.139   1.753   0.393  2.4181 -2.2864  1.2875
  513SOL     OW 1537   3.087   2.334   0.345 -0.1030  0.0432  0.1575
  513SOL    HW1 1538   0.008   2.256   0.299  0.0998  0.9677  0.4720
  513SOL    HW2 1539   3.003   2.313   0.393  1.4066 -0.7623 -1.4281
  514SOL     OW 1540   2.417   1.976   2.831  0.0745 -0.3894 -0.1479
  514SOL    HW1 1541   2.323   1.971   2.797  1.6802 -1.2693  0.1477
  514SOL    HW2 1542   2.444   2.074   2.841 -2.6226 -2.3757 -1.3373
  515SOL     OW 1543   2.109   1.304   0.384  0.0374 -0.8201  0.1348
  515SOL    HW1 1544   2.146   1.378   0.323 -1.5190  2.7059 -2.3615
  515SOL    HW2 1545   2.160   1.306   0.472  0.4078  1.5348  1.6994
  516SOL     OW 1546   1.848   3.105   0.499  0.9390 -0.2485  0.2483
  516SOL    HW1 1547   1.831   0.070   0.546  1.4067 -1.5071 -0.7764
  516SOL    HW2 1548   1.945   3.107   0.465 -1.0081 -1.0300 -0.9677
  517SOL     OW 1549   0.900   2.046   3.096 -0.1250 -0.0566 -0.5982
  517SOL    HW1 1550   0.902   2.077   0.073 -0.5070  0.9539  1.8532
  517SOL    HW2 1551   0.833   2.114   3.053 -0.4989  1.7863 -1.5991
  518SOL     OW 1552   0.572   0.525   1.957  0.0492 -0.5315 -0.5483
  518SOL    HW1 1553   0.652   0.466   1.980  0.5581  1.8240  0.9295
  518SOL    HW2 1554   0.600   0.608   1.903  1.7508 -1.5436 -2.6005
  519SOL     OW 1555   3.020   0.995   0.061  0.1928 -0.2890 -0.2271
  519SOL    HW1 1556   3.071   1.017   3.101  1.2101  2.2542 -0.8528
  519SOL    HW2 1557   3.056   0.918   0.112  1.6667 -1.4034  0.6105
  520SOL     OW 1558   2.718   1.723   1.642 -0.0653 -0.2740  0.2469
  520SOL    HW1 1559   2.774   1.686   1.715  0.1381  1.3624  0.1112
  520SOL    HW2 1560   2.688   1.818   1.658 -0.2508 -1.0194 -1.5892
  521SOL     OW 1561   0.369   2.590   2.266 -0.1189 -0.1320 -0.2964
  521SOL    HW1 1562   0.455   2.573   2.317 -2.2158  2.7501  1.6794
  521SOL    HW2 1563   0.349   2.510   2.206  0.0894 -0.1723  1.6967
  522SOL     OW 1564   1.874   3.106   2.131 -0.6752 -0.3878 -0.1024
  522SOL    HW1 1565   1.977   3.108   2.148  1.3880 -1.9884  2.1338
  522SOL    HW2 1566   1.830   0.021   2.214 -0.0265  1.9012  1.5550
  523SOL     OW 1567   1.871   2.021   1.307 -0.3980 -0.1991 -0.7047
  523SOL    HW1 1568   1.953   1.989   1.357 -1.1597  3.7059 -1.2403
  523SOL    HW2 1569   1.889   2.112   1.268  1.9863 -1.2291  2.6299
  524SOL     OW 1570   0.905   2.852   0.133 -0.3586  0.1980 -0.2868
  524SOL    HW1 1571   0.852   2.935   0.145  2.3776  0.8341 -0.3474
  524SOL    HW2 1572   0.978   2.836   0.201 -0.9288 -2.0414 -1.2025
  525SOL     OW 1573   2.930   0.366   0.207 -0.4171  0.6901  0.4951
  525SOL    HW1 1574   2.858   0.435   0.192 -0.8698  0.9215 -0.6408
  525SOL    HW2 1575   3.005   0.413   0.255 -0.8637 -2.9711  0.6936
  526SOL     OW 1576   0.647   2.910   0.732 -0.0650 -0.2436 -0.0172
  526SOL    HW1 1577   0.719   2.920   0.804 -1.7357  3.5314 -0.0263
  526SOL    HW2 1578   0.598   2.820   0.748  1.6192 -2.1643 -0.5039
  527SOL     OW 1579   2.543   1.884   1.000  0.2351 -0.1939 -0.4443
  527SOL    HW1 1580   2.584   1.857   1.091  1.4354 -1.3787 -0.3107
  527SOL    HW2 1581   2.536   1.986   0.986  0.0694  0.1064 -0.1317
  528SOL     OW 1582   2.887   0.444   2.372  0.1138  0.1032  0.1075
  528SOL    HW1 1583   2.977   0.400   2.356 -0.5883 -0.1105 -2.0112
  528SOL    HW2 1584   2.822   0.372   2.329 -0.3377 -3.5228  0.4328
  529SOL     OW 1585   1.278   1.555   2.609 -0.0196  1.0573 -0.1069
  529SOL    HW1 1586   1.361   1.560   2.557  1.5968  0.3628  2.9601
  529SOL    HW2 1587   1.270   1.631   2.677 -1.8624 -0.1250 -0.8925
  530SOL     OW 1588   1.980   1.108   2.578 -0.3398 -0.2077  0.3154
  530SOL    HW1 1589   1.925   1.051   2.516 -0.5814 -0.9844  1.5400
  530SOL    HW2 1590   2.020   1.055   2.654  0.7980 -0.2452  1.9887
  531SOL     OW 1591   0.954   1.839   2.628  0.0712  0.2618 -0.1280
  531SOL    HW1 1592   0.892   1.757   2.622 -1.4772  0.1493  0.0687
  531SOL    HW2 1593   0.958   1.885   2.718  2.6260  0.2643 -0.5264
  532SOL     OW 1594   1.888   1.463   0.454 -0.0155 -0.1716  0.1377
  532SOL    HW1 1595   1.960   1.403   0.421  0.2088 -2.1943  0.4510
  532SOL    HW2 1596   1.925   1.527   0.525  0.1472 -0.0836 -0.3225
  533SOL     OW 1597   0.333   0.137   1.854 -0.2878  0.5497  0.0085
  533SOL    HW1 1598   0.379   0.045   1.847 -1.7187  0.7697  0.9632
  533SOL    HW2 1599   0.230   0.126   1.852  2.0055  0.2789 -1.0182
  534SOL     OW 1600   0.729   2.881   2.955 -0.6281  0.0239 -0.3649
  534SOL    HW1 1601   0.714   2.835   3.044  2.2553 -0.3859 -2.2202
  534SOL    HW2 1602   0.828   2.871   2.928 -2.3403  1.6566 -1.8669
  535SOL     OW 1603   0.196   0.117   0.502 -0.3773 -0.0121 -0.1184
  535SOL    HW1 1604   0.296   0.122   0.483 -1.4192  1.9258  2.2983
  535SOL    HW2 1605   0.173   0.023   0.535  0.9101 -2.0449  3.4843
  536SOL     OW 1606   0.303   1.317   1.675 -0.4584  0.5331  0.7834
  536SOL    HW1 1607   0.250   1.235   1.642 -3.1673  0.2494 -1.4117
  536SOL    HW2 1608   0.329   1.382   1.599  0.3028  1.9460  1.1216
  537SOL     OW 1609   1.049   2.693   1.610  0.1990 -0.3785 -0.3518
  537SOL    HW1 1610   1.030   2.737   1.520  0.0455 -0.2106 -0.2281
  537SOL    HW2 1611   1.149   2.667   1.625  1.1389 -1.6348  0.4825
  538SOL     OW 1612   3.052   1.962   0.367  0.4253  0.0684 -0.0978
  538SOL    HW1 1613   3.106   1.872   0.365  0.4148 -0.4046 -1.2517
  538SOL    HW2 1614   3.054   2.001   0.462  1.6572 -1.6159 -1.0921
  539SOL     OW 1615   2.957   1.032   2.586  0.8346  0.4600  0.0124
  539SOL    HW1 1616   2.936   1.000   2.683 -0.5795  0.0791  2.6424
  539SOL    HW2 1617   2.870   1.043   2.534 -1.5778 -0.6828  4.1811
  540SOL     OW 1618   1.694   0.988   1.904 -0.6283 -0.1331  0.0071
  540SOL    HW1 1619   1.765   0.937   1.850 -1.7612  1.6288  2.1307
  540SOL    HW2 1620   1.600   0.974   1.865 -1.7453 -1.8213  0.4792
  541SOL     OW 1621   0.885   0.877   1.888 -0.0127 -0.6122 -0.4733
  541SOL    HW1 1622   0.804   0.825   1.860  1.1297 -1.3038  2.2169
  541SOL    HW2 1623   0.866   0.932   1.971 -0.6830 -2.2820  1.2059
  542SOL     OW 1624   2.375   0.391   3.046 -0.7608 -0.9029 -0.9167
  542SOL    HW1 1625   2.426   0.319   3.095 -0.7266  0.1013 -2.4037
  542SOL    HW2 1626   2.381   0.378   2.948  0.1519  2.1989  2.0444
  543SOL     OW 1627   1.164   0.009   3.017  0.2901 -0.1815 -0.4068
  543SOL    HW1 1628   1.136   0.099   2.973  0.3757 -0.2532 -1.3983
  543SOL    HW2 1629   1.243   3.091   2.975 -1.8847 -0.2132  1.7472
  544SOL     OW 1630   2.931   1.386   1.942  0.3415 -0.3066 -0.1106
  544SOL    HW1 1631   2.958   1.378   2.043  2.2623  0.0174  3.7996
  544SOL    HW2 1632   2.854   1.322   1.917  0.4683 -1.9673  2.8655
  545SOL     OW 1633   1.982   2.444   1.793  0.1261  0.0899 -0.1893
  545SOL    HW1 1634   1.902   2.413   1.847  0.8109  1.6147 -0.5155
  545SOL    HW2 1635   1.991   2.393   1.710  0.7164  0.3783 -2.0538
  546SOL     OW 1636   0.211   3.125   2.651  0.2195 -0.8083  0.2410
  546SOL    HW1 1637   0.151   3.042   2.643  0.8376 -0.7507  0.3580
  546SOL    HW2 1638   0.259   3.121   2.737  0.3037  0.2289 -1.4670
  547SOL     OW 1639   1.712   1.144   0.978 -0.3842 -0.2817  0.2912
  547SOL    HW1 1640   1.671   1.178   0.890  1.7209 -0.4741  1.0063
  547SOL    HW2 1641   1.689   1.046   0.994  2.2124  2.1373 -0.0065
  548SOL     OW 1642   1.755   1.816   2.350 -0.2753 -0.3776 -0.0488
  548SOL    HW1 1643   1.718   1.829   2.257  1.2762  3.3755  0.4431
  548SOL    HW2 1644   1.819   1.894   2.373  0.3210  2.2276 -0.8498
  549SOL     OW 1645   2.053   0.425   0.577  0.5629  0.5804 -0.8111
  549SOL    HW1 1646   2.063   0.512   0.527  0.4635  0.3605  0.8474
  549SOL    HW2 1647   2.038   0.452   0.675 -2.4718  3.5436  0.0950
  550SOL     OW 1648   2.191   1.849   0.786  0.0725 -0.2104 -0.1471
  550SOL    HW1 1649   2.265   1.821   0.722  1.1599 -1.9259  1.3948
  550SOL    HW2 1650   2.123   1.771   0.793 -0.4079 -0.7823 -1.2396
  551SOL     OW 1651   0.807   2.578   1.691 -0.3789  0.1504  0.7937
  551SOL    HW1 1652   0.886   2.625   1.645 -1.2173 -0.2906 -0.5302
  551SOL    HW2 1653   0.735   2.657   1.701  0.5857  0.1619  1.9627
  552SOL     OW 1654   0.039   2.347   2.579  0.0023  0.3958 -0.0373
  552SOL    HW1 1655   0.042   2.256   2.619  0.5620  2.1671 -1.2920
  552SOL    HW2 1656   0.059   2.334   2.478 -0.5024  0.5602  1.3767
  553SOL     OW 1657   0.148   0.122   0.997  0.3228  0.6258 -0.0498
  553SOL    HW1 1658   0.242   0.081   0.976  2.6494 -1.8690 -2.6587
  553SOL    HW2 1659   0.139   0.131   1.097 -0.5449 -1.7030  0.2361
  554SOL     OW 1660   2.379   2.056   1.742 -0.4067 -0.0100 -0.2473
  554SOL    HW1 1661   2.479   2.040   1.764  1.3926  0.3986 -1.6935
  554SOL    HW2 1662   2.373   2.159   1.748  0.2453 -0.5233  0.6860
  555SOL     OW 1663   1.401   2.189   1.860 -0.9713 -0.6905  0.7340
  555SOL    HW1 1664   1.424   2.096   1.841 -2.4327  3.6302  0.3731
  555SOL    HW2 1665   1.344   2.228   1.786  0.5827  1.0046  0.1594
  556SOL     OW 1666   1.240   1.800   1.680 -0.1394 -0.1006  0.2259
  556SOL    HW1 1667   1.312   1.863   1.711 -1.1265 -3.3445 -0.6693
  556SOL    HW2 1668   1.261   1.708   1.711 -0.5740 -0.6977 -2.0933
  557SOL     OW 1669   1.803   2.310   2.347 -0.2223  0.1760  0.1074
  557SOL    HW1 1670   1.888   2.355   2.309  0.2239  0.2040  1.6728
  557SOL    HW2 1671   1.781   2.234   2.287  0.6973  1.1523 -1.5633
  558SOL     OW 1672   0.678   2.815   1.780  1.0121 -0.1415  0.6041
  558SOL    HW1 1673   0.600   2.769   1.826 -3.0001  3.2373 -1.1671
  558SOL    HW2 1674   0.738   2.848   1.855  0.0043 -2.1533  1.4036
  559SOL     OW 1675   2.276   2.898   0.933 -0.5112  0.1289 -0.6858
  559SOL    HW1 1676   2.282   2.888   0.832 -2.2248 -1.3213 -1.2770
  559SOL    HW2 1677   2.183   2.866   0.968  1.2732 -1.7967  0.7738
  560SOL     OW 1678   1.809   2.436   0.553  0.0254 -0.3842 -0.1762
  560SOL    HW1 1679   1.844   2.470   0.642  1.7599  0.3088  0.4398
  560SOL    HW2 1680   1.851   2.346   0.537  0.0922 -0.5943  2.1998
  561SOL     OW 1681   1.056   0.284   0.561  0.2999 -0.1677 -0.6242
  561SOL    HW1 1682   1.089   0.314   0.468 -0.8711  0.3775 -0.5983
  561SOL    HW2 1683   0.962   0.247   0.559 -3.6154  1.1011 -0.7591
  562SOL     OW 1684   0.854   0.579   2.541  0.3852  0.0142 -0.5611
  562SOL    HW1 1685   0.894   0.492   2.504  0.0985  3.5266 -0.7877
  562SOL    HW2 1686   0.843   0.654   2.472  0.3938  0.7193 -3.7313
  563SOL     OW 1687   1.881   1.728   3.005 -0.7421  0.5292  0.0384
  563SOL    HW1 1688   1.825   1.813   3.010 -1.0122  1.6729  0.6953
  563SOL    HW2 1689   1.865   1.673   3.089 -0.1000 -3.4471  1.8205
  564SOL     OW 1690   2.355   1.119   1.358 -0.1787 -0.2244 -0.2562
  564SOL    HW1 1691   2.376   1.169   1.453  1.7157  0.1845  4.6113
  564SOL    HW2 1692   2.439   1.098   1.314  0.2498 -0.5758 -1.4246
  565SOL     OW 1693   0.931   0.554   2.800  0.1870  0.2827 -0.2196
  565SOL    HW1 1694   0.900   0.559   2.704 -1.2389  2.6773 -0.7594
  565SOL    HW2 1695   0.848   0.552   2.860 -3.3791  0.4424  3.7699
  566SOL     OW 1696   1.985   0.290   2.724 -0.1855 -0.0880 -0.2156
  566SOL    HW1 1697   2.010   0.227   2.648 -1.4786  1.9968  2.8051
  566SOL    HW2 1698   2.018   0.258   2.813  0.9196 -0.3375  1.0005
  567SOL     OW 1699   2.102   1.946   0.438  0.2069  0.1111  0.2598
  567SOL    HW1 1700   2.160   1.894   0.498 -6.7498  0.7404 -0.1806
  567SOL    HW2 1701   2.093   1.900   0.347  0.6383  1.0465 -1.4640
  568SOL     OW 1702   1.649   1.878   0.174  0.0328 -0.3079  0.3223
  568SOL    HW1 1703   1.673   1.979   0.184 -0.8794  1.5865 -2.4618
  568SOL    HW2 1704   1.576   1.863   0.107 -1.4298  0.5205 -0.2805
  569SOL     OW 1705   2.161   1.109   3.064 -0.6312 -0.1098 -0.3957
  569SOL    HW1 1706   2.133   1.196   3.103 -0.2810 -0.4499  1.1419
  569SOL    HW2 1707   2.264   1.098   3.055 -0.3051  0.6745 -0.6542
  570SOL     OW 1708   0.360   2.591   1.699 -0.5413 -0.4512  0.3898
  570SOL    HW1 1709   0.399   2.670   1.748  0.4335  3.6344 -1.8774
  570SOL    HW2 1710   0.435   2.524   1.667 -0.1082 -1.6896 -2.1982
  571SOL     OW 1711   0.483   0.863   2.019 -0.1820  0.1477  0.2360
  571SOL    HW1 1712   0.525   0.960   2.030  0.7404  2.8515 -0.2463
  571SOL    HW2 1713   0.484   0.810   2.106 -0.3761  0.1646 -0.7814
  572SOL     OW 1714   0.865   1.620   0.569 -0.1879 -0.3537  0.2526
  572SOL    HW1 1715   0.842   1.535   0.522  2.6384 -0.4368  2.4956
  572SOL    HW2 1716   0.965   1.637   0.547 -0.3073 -1.1087 -0.5236
  573SOL     OW 1717   1.602   2.151   3.051  0.3920  0.0852 -0.0848
  573SOL    HW1 1718   1.509   2.183   3.084  0.3142 -1.4293  1.2058
  573SOL    HW2 1719   1.661   2.145   0.009 -1.6834 -0.7815  1.1161
  574SOL     OW 1720   0.993   0.342   1.027 -0.2844  0.1528  0.2064
  574SOL    HW1 1721   0.998   0.330   1.127 -0.4184  0.7275  1.3743
  574SOL    HW2 1722   0.902   0.320   0.986  0.5858 -1.0567 -0.4935
  575SOL     OW 1723   0.297   1.008   1.396 -0.4690  0.6852 -0.1264
  575SOL    HW1 1724   0.279   1.038   1.490 -0.5292 -0.4496 -2.4077
  575SOL    HW2 1725   0.347   1.078   1.349 -0.1786 -5.2710 -2.6403
  576SOL     OW 1726   2.084   2.780   1.311 -0.3028 -0.3206  0.3913
  576SOL    HW1 1727   2.104   2.869   1.358 -0.4326  0.8745 -1.0527
  576SOL    HW2 1728   2.085   2.789   1.208  0.6060  0.7773  0.4642
  577SOL     OW 1729   1.020   1.033   2.086 -0.2102 -0.7293  0.5072
  577SOL    HW1 1730   1.100   1.070   2.034 -1.9420  1.4270 -2.2999
  577SOL    HW2 1731   1.048   0.971   2.164  3.3732  0.9391 -1.7817
  578SOL     OW 1732   1.829   0.731   2.601  0.1719 -0.3455  0.2109
  578SOL    HW1 1733   1.784   0.695   2.517 -2.1238 -0.5769 -2.7717
  578SOL    HW2 1734   1.765   0.795   2.645  1.4795  1.5792 -0.8507
  579SOL     OW 1735   2.031   2.631   1.558  0.1132 -0.0861  0.0821
  579SOL    HW1 1736   2.061   2.532   1.564  0.2532 -0.2643 -0.9842
  579SOL    HW2 1737   2.059   2.662   1.466 -0.4953 -1.4233 -0.4803
  580SOL     OW 1738   1.884   1.581   2.419  0.6840 -0.0757  0.2174
  580SOL    HW1 1739   1.947   1.562   2.495 -2.4300  2.3354 -2.2750
  580SOL    HW2 1740   1.846   1.675   2.422 -0.8523 -0.5622  0.8600
  581SOL     OW 1741   1.541   1.435   2.622 -0.1919  0.4083  0.0123
  581SOL    HW1 1742   1.614   1.493   2.657 -0.8999 -1.9341  0.0718
  581SOL    HW2 1743   1.503   1.374   2.696 -2.7073 -1.2512 -1.7275
  582SOL     OW 1744   0.872   1.648   1.760  0.0907  0.3521  0.1320
  582SOL    HW1 1745   0.909   1.641   1.856 -0.8312 -2.1636  0.1310
  582SOL    HW2 1746   0.897   1.735   1.707 -1.2639  1.1441  1.3354
  583SOL     OW 1747   1.836   1.140   1.605  0.1727  0.2926  0.2972
  583SOL    HW1 1748   1.762   1.067   1.584 -3.9883  0.1631 -1.4438
  583SOL    HW2 1749   1.803   1.216   1.671  0.4611  0.5984  1.3025
  584SOL     OW 1750   2.140   2.671   0.494  0.5228  0.2206  0.0292
  584SOL    HW1 1751   2.077   2.719   0.427 -1.3003  0.5699 -0.1847
  584SOL    HW2 1752   2.131   2.573   0.468 -1.2996  0.5292  2.4263
  585SOL     OW 1753   2.053   3.075   2.711  0.4120 -0.2034  0.2932
  585SOL    HW1 1754   2.084   2.987   2.671  1.1084  1.2735 -2.2764
  585SOL    HW2 1755   2.123   3.114   2.768 -0.0144 -0.7495 -0.4807
  586SOL     OW 1756   2.794   2.328   1.243  0.2271  0.0992 -0.0942
  586SOL    HW1 1757   2.737   2.264   1.291  0.5323  0.1326  2.2768
  586SOL    HW2 1758   2.841   2.288   1.161  0.3224 -0.8027  2.0733
  587SOL     OW 1759   1.291   2.008   0.184 -0.3125  0.4662  0.0994
  587SOL    HW1 1760   1.337   2.093   0.155 -1.0527  0.5102  1.8704
  587SOL    HW2 1761   1.286   1.936   0.102  0.5344 -2.9292 -2.1163
  588SOL     OW 1762   0.350   0.457   1.039 -0.0720  0.1822 -0.3268
  588SOL    HW1 1763   0.398   0.382   1.086 -0.6290 -0.7887 -0.0406
  588SOL    HW2 1764   0.295   0.423   0.960  2.1475  3.1559  1.4804
  589SOL     OW 1765   1.101   0.358   0.297 -0.1181 -0.0510  0.1689
  589SOL    HW1 1766   1.049   0.401   0.220  0.3871 -1.6266  2.0631
  589SOL    HW2 1767   1.145   0.273   0.260 -1.2932 -0.0283 -2.9227
  590SOL     OW 1768   1.539   0.494   2.838 -0.0338 -0.2338 -0.5565
  590SOL    HW1 1769   1.486   0.581   2.818 -1.9417 -0.1584  1.0131
  590SOL    HW2 1770   1.623   0.482   2.778  1.4160  2.4991 -4.0858
  591SOL     OW 1771   2.887   1.908   2.114 -0.2839  0.5775  0.4710
  591SOL    HW1 1772   2.903   1.927   2.017 -0.4795  0.0475  0.6282
  591SOL    HW2 1773   2.968   1.863   2.151 -1.0478 -1.6303  0.9497
  592SOL     OW 1774   2.288   1.565   2.271 -0.3908  0.5636  0.8567
  592SOL    HW1 1775   2.281   1.503   2.191 -0.8413  0.4649  2.5855
  592SOL    HW2 1776   2.337   1.646   2.246  0.4227  0.3875  1.9004
  593SOL     OW 1777   1.256   1.059   1.628 -0.0357  0.0830  0.1443
  593SOL    HW1 1778   1.322   1.106   1.563  1.0548 -0.0916 -0.3660
  593SOL    HW2 1779   1.180   1.015   1.575 -0.5517  2.0749  0.9479
  594SOL     OW 1780   2.763   1.142   2.915 -0.5965 -0.3186 -0.1954
  594SOL    HW1 1781   2.834   1.171   2.980 -2.7326 -1.1032 -1.8721
  594SOL    HW2 1782   2.793   1.059   2.871  1.4139  1.9120  0.5432
  595SOL     OW 1783   0.519   0.506   0.586  0.6985  0.3874 -0.0250
  595SOL    HW1 1784   0.463   0.581   0.555  4.4694 -1.2351 -2.0078
  595SOL    HW2 1785   0.536   0.519   0.685 -2.1208 -0.0504 -0.9353
  596SOL     OW 1786   3.123   1.183   1.256  0.3387 -0.1840  0.0759
  596SOL    HW1 1787   3.082   1.131   1.335  1.8200 -1.5723  0.3055
  596SOL    HW2 1788   0.065   1.244   1.299 -0.0054 -1.0281  1.2425
  597SOL     OW 1789   1.289   1.969   1.046  0.2827  0.0903 -0.2461
  597SOL    HW1 1790   1.295   1.868   1.027  0.4284 -0.1065 -1.6764
  597SOL    HW2 1791   1.199   2.000   1.077 -0.6052 -0.9259 -1.3757
  598SOL     OW 1792   0.449   3.024   1.735 -0.1673  0.4252  0.5583
  598SOL    HW1 1793   0.529   3.071   1.697 -2.6034 -2.1371  2.0038
  598SOL    HW2 1794   0.400   2.975   1.658 -2.1875 -0.5615 -2.0380
  599SOL     OW 1795   0.402   1.691   2.978  0.0478  0.3706 -0.5969
  599SOL    HW1 1796   0.412   1.591   2.947 -0.9518 -3.4748 -0.2129
  599SOL    HW2 1797   0.474   1.745   2.935 -0.6124 -0.6202 -0.2252
  600SOL     OW 1798   0.407   0.993   3.067  0.3869  0.1348  0.1388
  600SOL    HW1 1799   0.378   1.048   2.981 -1.2696 -1.0144  0.3990
  600SOL    HW2 1800   0.371   0.895   3.057  0.7388 -2.2115  1.2294
  601SOL     OW 1801   0.557   0.910   1.169 -0.2272 -0.0706 -0.4588
  601SOL    HW1 1802   0.607   0.919   1.083 -1.1062 -3.6141  0.8380
  601SOL    HW2 1803   0.503   0.827   1.173  2.6058  0.8405 -2.4108
  602SOL     OW 1804   0.911   0.098   0.221  0.2417 -0.2954 -0.0083
  602SOL    HW1 1805   0.935   0.139   0.309 -0.2985 -2.0601 -0.7133
  602SOL    HW2 1806   0.846   0.026   0.237  5.4181 -2.0070  0.0240
  603SOL     OW 1807   1.508   2.283   2.284 -0.2522 -0.3763  0.1527
  603SOL    HW1 1808   1.596   2.236   2.261  4.9429 -1.9491  1.3037
  603SOL    HW2 1809   1.519   2.352   2.356  3.4523 -0.3577 -0.9265
  604SOL     OW 1810   0.516   2.871   2.811 -0.3415  0.5008 -0.4810
  604SOL    HW1 1811   0.529   2.818   2.720 -2.7909 -0.2599 -1.5955
  604SOL    HW2 1812   0.605   2.869   2.863  0.3815 -0.4467  0.0771
  605SOL     OW 1813   2.410   1.276   1.585  0.0049 -0.4086  0.0656
  605SOL    HW1 1814   2.496   1.336   1.596  3.1250  2.9963 -1.9299
  605SOL    HW2 1815   2.368   1.252   1.678 -0.8377  2.5174  0.6854
  606SOL     OW 1816   1.028   1.571   2.825 -0.0249  0.7533  0.5154
  606SOL    HW1 1817   1.022   1.468   2.821  1.5953  2.0537 -1.3766
  606SOL    HW2 1818   0.943   1.611   2.793 -0.0066 -0.9155  1.6759
  607SOL     OW 1819   0.807   0.218   0.540  0.2772 -0.8769 -0.1838
  607SOL    HW1 1820   0.756   0.285   0.482 -1.3893 -0.0088 -0.6631
  607SOL    HW2 1821   0.758   0.228   0.632 -0.5642  1.9780 -1.1645
  608SOL     OW 1822   2.874   1.579   1.445 -0.8808 -0.1643 -0.4574
  608SOL    HW1 1823   2.803   1.591   1.519  2.2542  0.2318 -1.8118
  608SOL    HW2 1824   2.852   1.511   1.377  0.8394  2.0920  2.2835
  609SOL     OW 1825   2.337   0.539   0.881  0.1729  0.7971 -0.0423
  609SOL    HW1 1826   2.392   0.519   0.965 -3.1828  0.8729  0.6108
  609SOL    HW2 1827   2.379   0.609   0.826  0.0535 -1.1660  0.5854
  610SOL     OW 1828   0.233   2.545   1.468  0.7572 -0.6172  0.5083
  610SOL    HW1 1829   0.279   2.585   1.550 -0.6438  2.6228 -0.4879
  610SOL    HW2 1830   0.302   2.524   1.395  0.7991 -1.4845 -1.1609
  611SOL     OW 1831   1.344   1.730   0.263  0.7001 -0.5762  0.6135
  611SOL    HW1 1832   1.347   1.703   0.362  1.2106  0.6068 -0.5270
  611SOL    HW2 1833   1.301   1.823   0.252  1.9655  1.4101  1.9774
  612SOL     OW 1834   0.644   0.060   1.683  0.9473 -0.0227 -0.3095
  612SOL    HW1 1835   0.685   0.049   1.780  1.0547  2.4670  2.6525
  612SOL    HW2 1836   0.606   0.154   1.673 -2.2335 -0.3688  0.0914
  613SOL     OW 1837   0.615   2.332   0.723 -0.3157  0.3560  0.2106
  613SOL    HW1 1838   0.641   2.383   0.640 -0.5116  0.5508 -0.3199
  613SOL    HW2 1839   0.630   2.382   0.806  0.2419 -0.6969 -0.7567
  614SOL     OW 1840   2.139   3.070   2.192  0.1248  0.3288  0.0814
  614SOL    HW1 1841   2.169   0.012   2.259 -0.0516 -2.8397 -1.2608
  614SOL    HW2 1842   2.207   3.059   2.115  0.0264  0.0478 -1.3290
  615SOL     OW 1843   1.099   1.701   0.440 -0.7906 -0.0216 -0.0628
  615SOL    HW1 1844   1.118   1.655   0.349  0.1188 -0.0357  4.4238
  615SOL    HW2 1845   1.176   1.765   0.465  0.1829 -1.4993 -2.1233
  616SOL     OW 1846   1.463   1.600   0.505  0.1391 -0.5129  0.2695
  616SOL    HW1 1847   1.486   1.504   0.503  0.5191  1.9441 -0.5557
  616SOL    HW2 1848   1.407   1.617   0.588  0.9762  1.8234  0.9539
  617SOL     OW 1849   1.427   1.280   2.855 -0.3067 -0.0341 -0.0023
  617SOL    HW1 1850   1.506   1.216   2.865 -2.6294  0.5539  1.0221
  617SOL    HW2 1851   1.399   1.303   2.951  0.1311  0.5081  0.7774
  618SOL     OW 1852   0.784   0.374   2.010 -0.2198  0.1514  0.3688
  618SOL    HW1 1853   0.819   0.465   2.044  1.4655  1.5563  0.9629
  618SOL    HW2 1854   0.806   0.297   2.075  1.1176  0.6075 -0.7240
  619SOL     OW 1855   3.066   1.436   1.571  0.4161  0.3553 -0.4035
  619SOL    HW1 1856   2.983   1.493   1.548 -2.6301  1.2392  2.0807
  619SOL    HW2 1857   0.022   1.466   1.523  1.1196 -1.5467  0.4040
  620SOL     OW 1858   2.543   0.305   2.578  0.0122  0.1379  0.3597
  620SOL    HW1 1859   2.644   0.330   2.595  2.0023  2.0795 -0.6059
  620SOL    HW2 1860   2.526   0.310   2.478  1.1563 -0.7925  2.0577
  621SOL     OW 1861   2.145   1.956   2.804 -0.0253 -0.1872 -0.2633
  621SOL    HW1 1862   2.113   2.052   2.819 -1.8504 -1.5580  0.9252
  621SOL    HW2 1863   2.070   1.892   2.805 -1.0202  0.9700 -1.5672
  622SOL     OW 1864   1.124   0.760   2.846  0.1780  0.0400  0.4723
  622SOL    HW1 1865   1.046   0.694   2.823  0.9069 -1.5170  1.1028
  622SOL    HW2 1866   1.094   0.842   2.894  1.2665 -3.2297  2.3952
  623SOL     OW 1867   0.834   1.230   2.126  0.4344  0.4733  0.2940
  623SOL    HW1 1868   0.917   1.175   2.117  0.4571  1.2637 -0.8447
  623SOL    HW2 1869   0.824   1.264   2.226  2.7286 -1.1285  2.5638
  624SOL     OW 1870   2.834   0.170   0.363 -0.2198 -0.4434  0.1732
  624SOL    HW1 1871   2.874   0.223   0.284  0.1478 -0.8621 -2.0399
  624SOL    HW2 1872   2.864   0.210   0.450 -3.4218 -1.8136 -1.1959
  625SOL     OW 1873   1.019   2.479   0.556  0.3592 -0.5817  0.2409
  625SOL    HW1 1874   0.969   2.491   0.469  0.0792  1.3086  0.3986
  625SOL    HW2 1875   0.973   2.415   0.622  0.4703 -1.4923  0.8976
  626SOL     OW 1876   2.242   0.929   2.495  0.5918 -0.0421  0.2099
  626SOL    HW1 1877   2.287   0.891   2.577 -0.5992 -0.4165 -3.1707
  626SOL    HW2 1878   2.256   1.034   2.489  0.1136  0.7482  0.3024
  627SOL     OW 1879   1.354   2.094   2.758  0.2269  0.0682 -1.4443
  627SOL    HW1 1880   1.338   2.103   2.660  1.1388  0.9307  3.6563
  627SOL    HW2 1881   1.414   2.015   2.773  0.9030  0.1963 -0.1725
  628SOL     OW 1882   2.885   2.905   2.317  0.2088 -0.3637  0.4784
  628SOL    HW1 1883   2.791   2.869   2.338  0.6584 -2.1417  1.3989
  628SOL    HW2 1884   2.917   2.958   2.399 -1.0863  2.4503  2.8606
  629SOL     OW 1885   1.510   2.490   2.475 -0.3123 -0.5680 -0.1012
  629SOL    HW1 1886   1.463   2.569   2.427 -2.2630  1.4903 -1.7969
  629SOL    HW2 1887   1.583   2.523   2.539 -2.3390  3.9042  1.8075
  630SOL     OW 1888   1.047   3.120   2.302  0.5607  0.6677  0.4956
  630SOL    HW1 1889   1.061   3.112   2.401 -0.9526 -0.8218  1.2216
  630SOL    HW2 1890   1.135   3.101   2.252  0.7859  2.8869  2.1492
  631SOL     OW 1891   1.853   1.114   0.686  0.4697 -0.2828 -0.1974
  631SOL    HW1 1892   1.807   1.201   0.715 -0.1484 -0.2555  0.2152
  631SOL    HW2 1893   1.861   1.116   0.585  0.6920 -0.7457  1.5708
  632SOL     OW 1894   2.414   0.139   1.834 -0.3813  0.5800  0.1381
  632SOL    HW1 1895   2.469   0.212   1.881  1.7004 -1.7011  1.6027
  632SOL    HW2 1896   2.476   0.100   1.760  1.3635  0.0943 -4.4007
  633SOL     OW 1897   1.121   1.523   0.227 -0.2494  0.3567  0.7485
  633SOL    HW1 1898   1.205   1.552   0.176 -1.4515 -2.3386  0.7880
  633SOL    HW2 1899   1.052   1.524   0.155 -0.6684 -1.3675  0.4884
  634SOL     OW 1900   2.598   2.978   1.735 -0.0651 -0.0179  1.0942
  634SOL    HW1 1901   2.662   3.046   1.776 -1.4881 -0.9863 -0.6915
  634SOL    HW2 1902   2.575   2.997   1.636  0.7759 -0.5792 -0.7223
  635SOL     OW 1903   1.709   0.409   0.769 -0.2202  0.0218 -0.2217
  635SOL    HW1 1904   1.652   0.377   0.846  0.7529  1.9706  2.1171
  635SOL    HW2 1905   1.738   0.504   0.780 -1.9371  1.8461  0.1947
  636SOL     OW 1906   0.586   1.130   0.060 -0.4224 -0.7005 -0.1304
  636SOL    HW1 1907   0.518   1.056   0.038 -0.0284  4.1877 -1.1972
  636SOL    HW2 1908   0.556   1.220   0.015 -0.4242 -0.2577 -0.8814
  637SOL     OW 1909   2.747   2.085   0.066 -0.1751 -0.1069 -0.2285
  637SOL    HW1 1910   2.679   2.032   0.012 -0.6416  2.5544 -1.2074
  637SOL    HW2 1911   2.827   2.104   0.004 -3.0243  0.4276  1.6058
  638SOL     OW 1912   1.256   2.462   2.607 -0.2481  0.1513  0.0109
  638SOL    HW1 1913   1.338   2.490   2.547  0.8836  0.7069 -1.6497
  638SOL    HW2 1914   1.284   2.446   2.703 -1.4850 -1.8999  3.3801
  639SOL     OW 1915   1.679   1.982   0.904 -0.0679  0.9447 -0.0392
  639SOL    HW1 1916   1.616   2.012   0.974  3.4173  1.1243 -1.2899
  639SOL    HW2 1917   1.620   1.948   0.822 -0.1985 -1.3166  1.1665
  640SOL     OW 1918   2.223   2.893   0.312  0.0017 -0.3452 -0.1166
  640SOL    HW1 1919   2.187   2.800   0.289 -3.3179 -2.4024  2.6508
  640SOL    HW2 1920   2.159   2.950   0.365  2.8998 -2.9072  1.7364
  641SOL     OW 1921   2.783   0.481   3.041 -0.2466 -0.1808  0.2186
  641SOL    HW1 1922   2.766   0.516   0.012 -0.7826  1.1680 -0.7452
  641SOL    HW2 1923   2.726   0.403   3.010  3.0926  0.9785  0.5155
  642SOL     OW 1924   0.406   0.687   1.176 -0.5890 -0.1865  0.1792
  642SOL    HW1 1925   0.341   0.695   1.250 -1.2228 -0.8624 -4.2456
  642SOL    HW2 1926   0.400   0.604   1.129 -2.0642  1.4043  0.5614
  643SOL     OW 1927   0.615   1.438   2.355 -0.0751 -0.2038  0.1131
  643SOL    HW1 1928   0.618   1.338   2.367 -0.3225  0.7811 -0.7036
  643SOL    HW2 1929   0.616   1.479   2.446  0.2007 -1.8820 -0.9525
  644SOL     OW 1930   1.935   2.167   0.516 -0.1357 -0.2083  0.0273
  644SOL    HW1 1931   2.003   2.110   0.469 -0.1445 -0.8679 -0.3852
  644SOL    HW2 1932   1.930   2.134   0.611 -0.6209  1.0114 -4.0896
  645SOL     OW 1933   1.426   2.242   0.840 -0.0633 -0.1660  0.6251
  645SOL    HW1 1934   1.482   2.263   0.921  0.9563  0.6822  0.0387
  645SOL    HW2 1935   1.439   2.142   0.822 -1.5924 -0.4937  2.2434
  646SOL     OW 1936   0.290   2.197   2.895 -0.1987  0.1538  0.2758
  646SOL    HW1 1937   0.272   2.292   2.858  2.8361 -0.5907  1.5486
  646SOL    HW2 1938   0.203   2.137   2.900  2.0710  3.7842  2.9436
  647SOL     OW 1939   1.300   2.997   1.420 -0.1264 -0.3910  0.2358
  647SOL    HW1 1940   1.222   2.929   1.411 -0.9932 -2.3581 -0.0106
  647SOL    HW2 1941   1.298   3.062   1.346 -1.4337  1.0310  0.6372
  648SOL     OW 1942   1.244   0.399   1.021 -0.4923  0.0349 -0.8916
  648SOL    HW1 1943   1.249   0.401   1.126 -2.1101  0.6795  1.8512
  648SOL    HW2 1944   1.152   0.366   0.999  1.7651 -2.0255  0.1343
  649SOL     OW 1945   1.423   2.128   0.476  0.1508  0.1127 -0.4642
  649SOL    HW1 1946   1.378   2.131   0.384  0.3986 -2.9205  0.1892
  649SOL    HW2 1947   1.526   2.118   0.468  3.2725  2.6624  2.7762
  650SOL     OW 1948   2.386   1.698   2.021 -0.2654 -0.6669  0.6236
  650SOL    HW1 1949   2.362   1.796   1.987 -1.1383  1.6685 -1.1681
  650SOL    HW2 1950   2.303   1.639   2.005  2.6482 -2.0167 -1.2679
  651SOL     OW 1951   1.693   2.799   3.077 -0.2233  0.1224  0.2785
  651SOL    HW1 1952   1.719   2.885   3.026  1.8592 -0.6373 -1.1441
  651SOL    HW2 1953   1.682   2.721   3.011 -0.0492  0.1324 -0.8576
  652SOL     OW 1954   2.843   1.788   0.198  0.1020 -0.3588 -0.1920
  652SOL    HW1 1955   2.757   1.828   0.242 -1.0373  1.1873 -0.7719
  652SOL    HW2 1956   2.905   1.868   0.191  0.6541  0.3503  0.6264
  653SOL     OW 1957   2.901   0.057   1.176  0.0300  0.3455 -0.2220
  653SOL    HW1 1958   2.891   0.154   1.184  2.2804 -1.8598 -2.2426
  653SOL    HW2 1959   2.838   0.015   1.112 -0.2718  1.7851 -1.1187
  654SOL     OW 1960   2.721   2.732   1.717  0.2347 -0.2971 -0.3429
  654SOL    HW1 1961   2.806   2.752   1.659  2.0050  0.0855 -2.4725
  654SOL    HW2 1962   2.667   2.820   1.727  0.2355  1.2863 -1.2623
  655SOL     OW 1963   0.347   2.335   0.895  0.2744 -0.1202 -0.0524
  655SOL    HW1 1964   0.329   2.312   0.800 -2.2619  1.5499  2.3258
  655SOL    HW2 1965   0.269   2.315   0.956 -1.4512 -1.2306  0.6586
  656SOL     OW 1966   2.858   0.079   2.320  0.0038  0.2682  0.2626
  656SOL    HW1 1967   2.905   0.013   2.375  0.2524 -0.0461  0.1378
  656SOL    HW2 1968   2.805   0.036   2.247  0.1557  2.2891  4.2885
  657SOL     OW 1969   0.101   1.334   2.882 -0.4415 -0.3133 -0.0496
  657SOL    HW1 1970   0.105   1.362   2.785  1.9799  0.6116  1.6481
  657SOL    HW2 1971   0.070   1.415   2.938  2.2674  2.0937 -0.1426
  658SOL     OW 1972   2.628   1.780   1.264 -0.5127 -0.1638  0.6722
  658SOL    HW1 1973   2.621   1.854   1.331 -1.6016 -1.3076 -0.7472
  658SOL    HW2 1974   2.606   1.685   1.298 -0.9667  3.5989 -2.7998
  659SOL     OW 1975   1.534   2.914   0.153 -0.5318 -0.0717 -0.6169
  659SOL    HW1 1976   1.619   2.925   0.211  1.1981  0.4382 -1.5723
  659SOL    HW2 1977   1.562   2.853   0.073 -1.5087  0.3727  0.1852
  660SOL     OW 1978   1.731   1.418   0.081  0.0460 -0.1231 -0.4254
  660SOL    HW1 1979   1.767   1.329   0.120  2.0891 -0.7355  0.9659
  660SOL    HW2 1980   1.633   1.413   0.076  3.2494  2.7062  3.7471
  661SOL     OW 1981   0.146   2.262   1.069  0.2638  0.4577 -0.1677
  661SOL    HW1 1982   0.069   2.202   1.046 -0.2881  2.5640  0.5409
  661SOL    HW2 1983   0.143   2.281   1.166  1.2018  1.0586 -2.1085
  662SOL     OW 1984   0.138   0.582   0.016 -0.0158  0.4511 -0.0738
  662SOL    HW1 1985   0.079   0.522   3.083  1.0073 -1.3334  2.1138
  662SOL    HW2 1986   0.200   0.520   0.070 -1.5695  0.4476 -1.3010
  663SOL     OW 1987   1.958   1.637   1.044 -0.2063 -0.1187  0.0122
  663SOL    HW1 1988   1.983   1.634   0.940 -1.4628  0.0991 -1.3240
  663SOL    HW2 1989   1.905   1.720   1.067 -2.3823  2.3457 -0.9008
  664SOL     OW 1990   1.224   1.548   1.276  0.4572  0.1029 -0.1176
  664SOL    HW1 1991   1.324   1.525   1.266  1.7964  0.1725 -0.6131
  664SOL    HW2 1992   1.203   1.559   1.374 -0.8244 -0.6851 -3.6104
  665SOL     OW 1993   2.049   2.552   2.426  0.0940 -0.1094  0.8676
  665SOL    HW1 1994   2.054   2.649   2.397 -1.1002 -0.4184 -0.9977
  665SOL    HW2 1995   1.996   2.543   2.519 -1.2643 -2.4174  1.4928
  666SOL     OW 1996   3.110   2.922   3.018  0.1455  0.4493  0.2968
  666SOL    HW1 1997   3.086   2.865   2.940  2.4315  1.5708 -0.2638
  666SOL    HW2 1998   3.073   3.017   3.000 -0.9560 -2.8496 -0.3009
  667SOL     OW 1999   2.472   1.067   2.106 -0.8065  0.3074  0.0517
  667SOL    HW1 2000   2.412   1.048   2.027 -0.4898  0.2424 -0.2251
  667SOL    HW2 2001   2.513   1.162   2.115  0.0606 -0.6049  1.0319
  668SOL     OW 2002   0.472   0.991   2.454 -0.4583 -0.1019 -0.0321
  668SOL    HW1 2003   0.429   1.013   2.544 -1.6579  2.1450  0.7369
  668SOL    HW2 2004   0.408   0.939   2.391  1.3957  1.1277 -0.1797
  669SOL     OW 2005   2.124   2.082   2.522  0.1666 -0.2166 -0.1214
  669SOL    HW1 2006   2.206   2.126   2.479 -2.9915  1.8189 -1.3311
  669SOL    HW2 2007   2.100   2.126   2.613 -2.1156 -0.1283 -0.3429
  670SOL     OW 2008   2.560   1.316   2.093  0.4330  0.0878  0.0123
  670SOL    HW1 2009   2.610   1.393   2.044  1.6687  0.1254 -0.9516
  670SOL    HW2 2010   2.461   1.344   2.088  0.0810  0.4265 -1.0845
  671SOL     OW 2011   2.724   1.231   0.482 -0.1830  0.3543  0.6809
  671SOL    HW1 2012   2.824   1.198   0.490  0.5525 -0.4667 -0.2002
  671SOL    HW2 2013   2.716   1.331   0.496  2.1111 -0.2189 -2.4367
  672SOL     OW 2014   2.352   0.600   2.157  0.1108 -0.3129 -0.0461
  672SOL    HW1 2015   2.264   0.582   2.206  0.4133  1.6506 -0.0322
  672SOL    HW2 2016   2.401   0.684   2.184 -0.2078 -3.3305  0.4104
  673SOL     OW 2017   2.727   0.076   1.833  0.1087  0.5807  0.2895
  673SOL    HW1 2018   2.812   0.128   1.813  0.1880  0.1487  0.1473
  673SOL    HW2 2019   2.719   0.057   1.933  1.4597 -0.6151  0.2873
  674SOL     OW 2020   1.729   2.016   1.542 -0.0271 -0.2431 -0.3143
  674SOL    HW1 2021   1.780   2.003   1.456  0.1907 -1.1029  0.5229
  674SOL    HW2 2022   1.667   2.095   1.538 -0.3967  2.6075  0.4773
  675SOL     OW 2023   0.820   0.380   0.756 -0.4794 -0.0460 -0.2799
  675SOL    HW1 2024   0.743   0.446   0.776 -0.9378  1.1611 -0.7391
  675SOL    HW2 2025   0.910   0.420   0.744  0.5766 -0.1515 -0.7116
  676SOL     OW 2026   1.622   0.879   1.018 -0.2919 -0.3140 -0.7525
  676SOL    HW1 2027   1.529   0.889   1.055 -1.4554  0.0691  3.2511
  676SOL    HW2 2028   1.659   0.782   1.035 -0.1153 -0.3209  2.5140
  677SOL     OW 2029   2.592   1.299   2.355 -0.6459  0.4662 -0.0756
  677SOL    HW1 2030   2.600   1.312   2.255 -0.1425 -0.1177  0.2581
  677SOL    HW2 2031   2.502   1.260   2.385 -1.4325 -0.3171  0.6043
  678SOL     OW 2032   2.852   1.654   1.118 -0.3350  0.3736  0.3010
  678SOL    HW1 2033   2.885   1.566   1.161  0.4537 -0.4836  1.7969
  678SOL    HW2 2034   2.815   1.711   1.186  2.9452 -1.5234 -1.9576
  679SOL     OW 2035   2.374   2.599   3.062 -0.4747 -0.7179  0.3289
  679SOL    HW1 2036   2.325   2.681   3.032 -0.5193  1.7124  1.4366
  679SOL    HW2 2037   2.478   2.592   3.048  2.4183 -1.3705 -0.0844
  680SOL     OW 2038   0.248   2.071   2.061  0.2371  0.2856 -0.2003
  680SOL    HW1 2039   0.249   1.977   2.101 -0.0101 -0.7253 -0.9469
  680SOL    HW2 2040   0.191   2.069   1.976 -3.0026  0.7159 -1.3901
  681SOL     OW 2041   0.470   1.162   1.245  0.4856  0.1359  0.4918
  681SOL    HW1 2042   0.503   1.072   1.221 -0.7668  1.2114  0.4028
  681SOL    HW2 2043   0.515   1.202   1.330  0.7549  2.6457  1.8007
  682SOL     OW 2044   1.346   2.610   0.859  0.1603  0.1645 -0.2962
  682SOL    HW1 2045   1.407   2.550   0.806 -1.8791  1.4498  2.7295
  682SOL    HW2 2046   1.265   2.638   0.807  1.0172 -1.1857 -1.7522
  683SOL     OW 2047   2.322   1.350   0.570 -0.0129 -0.1398 -0.3829
  683SOL    HW1 2048   2.369   1.268   0.529  0.6319 -1.1660 -1.6330
  683SOL    HW2 2049   2.373   1.428   0.531  3.5485 -4.3234  0.8087
  684SOL     OW 2050   0.555   2.075   1.996 -0.1102  0.0610  0.8635
  684SOL    HW1 2051   0.594   2.167   2.002 -0.2224 -2.7802 -0.8403
  684SOL    HW2 2052   0.456   2.065   2.025 -0.7786 -1.4089  1.2927
  685SOL     OW 2053   2.071   1.795   0.222  0.5036 -0.1589  0.5122
  685SOL    HW1 2054   2.151   1.753   0.174 -0.7576  0.3992 -0.3882
  685SOL    HW2 2055   1.987   1.733   0.216 -2.2744 -2.0296 -0.8396
  686SOL     OW 2056   0.283   0.863   0.964 -0.8287  0.2171  0.2962
  686SOL    HW1 2057   0.220   0.941   0.987  0.7347  0.9873  0.0297
  686SOL    HW2 2058   0.346   0.833   1.040  2.0429  1.1996 -0.6648
  687SOL     OW 2059   1.102   2.290   2.982 -0.5528  0.5647  0.0423
  687SOL    HW1 2060   1.074   2.331   3.070 -1.0222 -1.1438  0.8297
  687SOL    HW2 2061   1.023   2.273   2.920 -2.0012 -1.2692 -1.5008
  688SOL     OW 2062   2.606   1.546   1.957  0.0822  0.1922 -0.4810
  688SOL    HW1 2063   2.689   1.606   1.935  1.1416  0.6920 -0.5755
  688SOL    HW2 2064   2.530   1.602   2.004 -2.2001  2.7895  2.1494
  689SOL     OW 2065   2.153   0.531   1.911  0.1134 -0.5494  0.3947
  689SOL    HW1 2066   2.252   0.534   1.943  0.3193 -0.8975 -0.4893
  689SOL    HW2 2067   2.115   0.625   1.913  0.5598 -3.1613 -0.9672
  690SOL     OW 2068   2.153   1.008   1.487 -0.0789  0.2894  0.0744
  690SOL    HW1 2069   2.078   0.992   1.424  3.1922 -3.0957 -1.1284
  690SOL    HW2 2070   2.231   1.053   1.438  1.9805  2.0644  0.1062
  691SOL     OW 2071   0.626   1.931   1.785 -0.6883  0.2816 -0.2318
  691SOL    HW1 2072   0.587   1.993   1.861  1.3169  0.5920  2.4233
  691SOL    HW2 2073   0.720   1.967   1.763  1.3350  1.1499  0.0540
  692SOL     OW 2074   2.011   0.165   1.466  0.0537 -0.0675 -0.0074
  692SOL    HW1 2075   1.970   0.177   1.558  3.1464  0.1993 -2.7177
  692SOL    HW2 2076   2.099   0.222   1.458 -1.9036 -0.3240  0.6757
  693SOL     OW 2077   0.649   1.165   2.376  0.4623  0.1172 -0.1194
  693SOL    HW1 2078   0.736   1.114   2.406  0.0200 -0.7581  1.2390
  693SOL    HW2 2079   0.563   1.107   2.386 -2.9325 -2.0451  0.7440
  694SOL     OW 2080   1.784   2.789   1.155  0.6593  0.2622  0.0283
  694SOL    HW1 2081   1.810   2.696   1.190  0.8831 -2.0459  0.7436
  694SOL    HW2 2082   1.722   2.777   1.073 -1.7076  0.6607  1.1273
  695SOL     OW 2083   1.291   1.156   2.025  0.2509  0.2716  0.3740
  695SOL    HW1 2084   1.301   1.195   2.119  2.9676 -0.2092 -1.9684
  695SOL    HW2 2085   1.269   1.229   1.953  3.3990  0.3828  1.7754
  696SOL     OW 2086   1.601   2.914   0.766  0.3459  0.4618 -0.0623
  696SOL    HW1 2087   1.541   2.954   0.693  1.2522  0.0919  2.1417
  696SOL    HW2 2088   1.694   2.887   0.734 -0.8150  1.3294 -1.2006
  697SOL     OW 2089   1.240   0.206   0.733 -0.0113 -0.4863  0.4028
  697SOL    HW1 2090   1.224   0.279   0.801  0.5495 -0.3190 -2.8648
  697SOL    HW2 2091   1.175   0.221   0.655  0.6690 -0.6750  2.1905
  698SOL     OW 2092   1.830   0.987   2.368  0.8647 -0.2943 -0.5134
  698SOL    HW1 2093   1.818   0.997   2.266 -1.5282 -2.8690  0.0776
  698SOL    HW2 2094   1.734   0.978   2.400 -3.0631 -1.9205 -0.8682
  699SOL     OW 2095   1.490   1.509   1.212  0.0310 -0.3356  0.2945
  699SOL    HW1 2096   1.516   1.416   1.220 -1.6520  2.6456 -1.6289
  699SOL    HW2 2097   1.563   1.565   1.255 -0.2526 -3.1887  1.1777
  700SOL     OW 2098   1.557   0.168   0.374 -0.5742 -0.2853  0.2668
  700SOL    HW1 2099   1.487   0.096   0.349 -1.5759 -2.0053 -1.2588
  700SOL    HW2 2100   1.531   0.214   0.460 -0.2621 -0.3285 -0.2633
  701SOL     OW 2101   0.537   0.299   1.638 -0.4762  0.8750  0.1770
  701SOL    HW1 2102   0.501   0.358   1.561  1.5363  0.1475 -1.4737
  701SOL    HW2 2103   0.463   0.294   1.706 -0.0278  2.3681 -1.7993
  702SOL     OW 2104   1.386   3.099   0.314  0.1540 -0.2448  0.6397
  702SOL    HW1 2105   1.307   0.036   0.299  0.3073 -0.0818  1.5465
  702SOL    HW2 2106   1.417   3.048   0.228  0.1786 -2.5173 -1.8564
  703SOL     OW 2107   2.652   2.772   2.369  0.0468  0.3740 -0.0643
  703SOL    HW1 2108   2.613   2.766   2.464  0.0446  3.0314 -2.1272
  703SOL    HW2 2109   2.606   2.699   2.316  0.2298  0.7258 -0.0986
  704SOL     OW 2110   0.900   2.268   0.713 -0.1224  0.1094  0.3611
  704SOL    HW1 2111   0.800   2.260   0.730 -1.3653  1.3747  0.3481
  704SOL    HW2 2112   0.947   2.228   0.791 -2.4190 -1.6696 -0.7373
  705SOL     OW 2113   0.109   0.705   2.118 -0.2045 -0.2526 -0.3469
  705SOL    HW1 2114   0.190   0.661   2.161  1.2907  1.3180 -1.4760
  705SOL    HW2 2115   0.034   0.689   2.183 -0.7673  3.0594 -2.1407
  706SOL     OW 2116   1.749   0.118   0.193  0.0977  0.9088 -0.2032
  706SOL    HW1 2117   1.769   0.016   0.203  0.6639 -0.4485 -1.4271
  706SOL    HW2 2118   1.669   0.152   0.244  1.7504 -2.5839  0.0053
  707SOL     OW 2119   1.449   1.852   2.456 -0.3807  0.0685  0.4000
  707SOL    HW1 2120   1.518   1.821   2.522 -0.8689  2.7778 -4.8208
  707SOL    HW2 2121   1.414   1.782   2.392 -0.6112  1.2811 -1.3205
  708SOL     OW 2122   2.882   2.037   1.550  0.4107  0.6875  0.1839
  708SOL    HW1 2123   2.870   2.095   1.631  0.6996  1.0412  3.3658
  708SOL    HW2 2124   2.974   1.990   1.553 -0.3400 -1.9907  1.6519
  709SOL     OW 2125   1.938   0.232   1.725  0.3340  0.0579 -0.0654
  709SOL    HW1 2126   2.020   0.183   1.753 -2.7441  1.2799  0.6592
  709SOL    HW2 2127   1.864   0.227   1.793  1.5980 -1.4644  4.2045
  710SOL     OW 2128   2.830   3.002   1.368  0.2827 -0.5543  0.0720
  710SOL    HW1 2129   2.732   3.022   1.395  1.5310  0.7422  0.8713
  710SOL    HW2 2130   2.866   3.075   1.304  0.8036 -1.5446 -0.1536
  711SOL     OW 2131   0.232   2.358   0.436 -0.2692 -0.6571 -0.5880
  711SOL    HW1 2132   0.311   2.414   0.396  1.0741  0.9126 -1.2245
  711SOL    HW2 2133   0.141   2.386   0.397  0.7326  0.5451 -0.5347
  712SOL     OW 2134   0.600   2.216   2.355 -0.2522 -0.1525  0.5591
  712SOL    HW1 2135   0.512   2.234   2.399  1.3969  0.7623 -2.1138
  712SOL    HW2 2136   0.676   2.263   2.411  0.0461  0.5280 -1.0321
  713SOL     OW 2137   2.016   0.670   2.996  0.2334 -0.3342  0.2351
  713SOL    HW1 2138   1.993   0.593   3.057 -1.0553  0.2730 -0.1920
  713SOL    HW2 2139   1.976   0.759   3.028  0.7920  1.9922 -1.9920
  714SOL     OW 2140   1.253   1.905   0.535  0.6357 -0.4667 -0.3088
  714SOL    HW1 2141   1.208   1.951   0.614  1.3424 -4.3655  3.7658
  714SOL    HW2 2142   1.319   1.969   0.488 -0.9017 -2.5599 -0.5410
  715SOL     OW 2143   1.866   0.232   0.625  0.5688  0.4021  0.0340
  715SOL    HW1 2144   1.801   0.299   0.677 -3.7036  0.9302  0.2285
  715SOL    HW2 2145   1.949   0.285   0.596  1.6925  2.3098  1.8295
  716SOL     OW 2146   0.651   0.772   1.825 -0.2190  0.3432 -0.1125
  716SOL    HW1 2147   0.595   0.817   1.898 -0.3324 -1.5043  2.0036
  716SOL    HW2 2148   0.601   0.762   1.732 -0.7884 -0.7685  0.0156
  717SOL     OW 2149   0.157   0.469   2.819  0.3637 -0.0393  0.9464
  717SOL    HW1 2150   0.173   0.557   2.769  0.4520  2.2227  2.7135
  717SOL    HW2 2151   0.080   0.487   2.884  0.2350  1.0750  2.2028
  718SOL     OW 2152   1.219   0.920   0.268  0.0420  0.3276 -0.1360
  718SOL    HW1 2153   1.232   0.942   0.368 -0.4222  0.0931 -3.5055
  718SOL    HW2 2154   1.268   0.839   0.245 -1.1704  2.1010  1.6268
  719SOL     OW 2155   2.717   1.673   3.023 -0.3162  0.2067  0.1073
  719SOL    HW1 2156   2.800   1.640   2.971  0.5173  1.1930  0.1763
  719SOL    HW2 2157   2.747   1.678   3.122 -0.4284 -1.2700 -0.0920
  720SOL     OW 2158   1.411   0.858   1.339 -0.5162  0.5408 -0.2873
  720SOL    HW1 2159   1.414   0.875   1.239  0.4772 -0.4446  0.1641
  720SOL    HW2 2160   1.428   0.758   1.357  0.5319  1.9020 -1.8507
  721SOL     OW 2161   2.822   0.568   0.539  0.2578  0.2233  0.3863
  721SOL    HW1 2162   2.883   0.601   0.466  3.4039 -1.1335  1.8771
  721SOL    HW2 2163   2.810   0.645   0.609  0.6864  0.9896  1.3582
  722SOL     OW 2164   1.222   1.763   2.782 -0.2124 -0.1420 -0.2814
  722SOL    HW1 2165   1.176   1.854   2.796  0.7313 -1.5607 -1.5666
  722SOL    HW2 2166   1.150   1.691   2.797  0.2632 -2.0039 -2.1618
  723SOL     OW 2167   0.765   0.843   0.375  0.1086  0.0633  0.6072
  723SOL    HW1 2168   0.687   0.907   0.351 -0.7909 -0.8764 -1.2598
  723SOL    HW2 2169   0.777   0.821   0.474 -0.3272 -1.2339 -0.4129
  724SOL     OW 2170   1.041   2.107   1.863  0.2569  0.0995 -0.4082
  724SOL    HW1 2171   0.984   2.086   1.784 -1.2792  1.6381 -0.6987
  724SOL    HW2 2172   0.985   2.158   1.932 -0.4034 -0.5957 -0.9329
  725SOL     OW 2173   3.064   0.984   1.448 -0.3781 -0.2164 -0.4874
  725SOL    HW1 2174   3.119   0.894   1.430 -0.1046  0.4292 -1.7666
  725SOL    HW2 2175   3.084   1.027   1.539  1.8086 -0.9930 -0.5260
  726SOL     OW 2176   1.751   2.940   0.302  0.4319  0.6260 -0.4408
  726SOL    HW1 2177   1.759   2.995   0.392  0.0454  1.1955 -1.3003
  726SOL    HW2 2178   1.818   2.861   0.303 -0.0690 -0.8719 -2.1237
  727SOL     OW 2179   1.276   1.078   2.552 -0.3513  0.0766  0.0130
  727SOL    HW1 2180   1.279   1.154   2.618  2.3389 -0.9846 -1.0191
  727SOL    HW2 2181   1.202   1.013   2.577 -0.2729  3.1695 -1.0249
  728SOL     OW 2182   1.164   2.785   1.239 -0.1085  0.1820 -0.0207
  728SOL    HW1 2183   1.168   2.708   1.172 -0.3920  0.2632  1.7718
  728SOL    HW2 2184   1.257   2.811   1.257 -1.0762  2.2460 -1.9078
  729SOL     OW 2185   1.491   0.601   1.354  0.2789 -0.7597 -0.4115
  729SOL    HW1 2186   1.457   0.525   1.407 -0.4665 -0.8154 -0.3520
  729SOL    HW2 2187   1.531   0.579   1.262  0.3225 -2.5766 -0.8265
  730SOL     OW 2188   0.886   2.223   2.047  0.6482 -0.2091  0.2137
  730SOL    HW1 2189   0.940   2.303   2.094  0.9126  1.7712  0.3385
  730SOL    HW2 2190   0.792   2.251   2.024  2.8078  1.1113 -0.9174
  731SOL     OW 2191   0.480   0.160   0.424 -0.2185 -0.0217  0.6947
  731SOL    HW1 2192   0.565   0.218   0.410  0.8091 -1.3466 -2.0699
  731SOL    HW2 2193   0.491   0.075   0.373  2.0859  0.6235  0.1783
  732SOL     OW 2194   0.587   0.332   2.995 -0.0846 -0.2877  0.2046
  732SOL    HW1 2195   0.658   0.328   3.072  0.9501 -0.2779  1.7932
  732SOL    HW2 2196   0.490   0.323   3.024 -1.9891  0.4210  0.6267
  733SOL     OW 2197   1.228   2.300   1.198  0.2622 -0.5891 -0.4953
  733SOL    HW1 2198   1.247   2.254   1.290  0.7291  2.2314 -0.0709
  733SOL    HW2 2199   1.125   2.327   1.195 -1.8975  0.5330 -0.1556
  734SOL     OW 2200   2.909   2.484   2.577  0.0313 -0.5211  0.0478
  734SOL    HW1 2201   2.991   2.429   2.581  0.3267  0.1425 -2.5598
  734SOL    HW2 2202   2.889   2.523   2.667 -0.0953 -0.7897 -0.5879
  735SOL     OW 2203   0.783   2.923   0.973 -0.4578 -0.1474  0.6424
  735SOL    HW1 2204   0.824   3.011   1.009  1.6701  1.4431 -0.4149
  735SOL    HW2 2205   0.851   2.861   0.939 -0.3005  3.0153  0.2777
  736SOL     OW 2206   1.627   1.090   2.886 -0.0484 -0.2608 -0.0341
  736SOL    HW1 2207   1.624   1.008   2.826  0.5756 -0.0124 -1.1703
  736SOL    HW2 2208   1.658   1.068   2.980  1.2072 -0.2616 -2.3826
  737SOL     OW 2209   0.068   0.318   0.613  0.9991 -0.2208 -0.1166
  737SOL    HW1 2210   0.112   0.243   0.555  0.7057 -0.6267  1.2996
  737SOL    HW2 2211   3.091   0.316   0.608 -1.1847 -0.4927  1.4887
  738SOL     OW 2212   2.678   2.572   1.283  0.0997 -0.3166 -0.2561
  738SOL    HW1 2213   2.726   2.486   1.255 -0.9325  0.1185 -0.5791
  738SOL    HW2 2214   2.735   2.655   1.262 -1.7180 -1.6171 -0.3369
  739SOL     OW 2215   1.502   2.699   0.488 -0.0363  0.0031  0.2953
  739SOL    HW1 2216   1.470   2.792   0.517 -0.6115  0.5802 -0.6182
  739SOL    HW2 2217   1.518   2.643   0.569  1.1745  1.9378 -2.4809
  740SOL     OW 2218   1.659   0.087   1.009  0.4576 -0.1961  0.1310
  740SOL    HW1 2219   1.565   0.052   0.986 -1.9578  1.3187  2.1984
  740SOL    HW2 2220   1.723   0.077   0.933 -0.6558 -0.7489  0.0481
  741SOL     OW 2221   2.078   0.495   0.913  0.0294 -0.0378  0.1136
  741SOL    HW1 2222   2.180   0.516   0.923  2.8682  3.1295  1.5370
  741SOL    HW2 2223   2.028   0.575   0.870 -0.4034 -1.4205 -0.4401
  742SOL     OW 2224   1.395   2.394   2.042  0.0993  0.1108 -0.1355
  742SOL    HW1 2225   1.429   2.353   2.128 -1.2971 -0.8431 -0.2076
  742SOL    HW2 2226   1.406   2.327   1.965 -0.6564  1.7423 -1.4178
  743SOL     OW 2227   2.516   0.388   1.942  0.2913 -0.3764  0.7148
  743SOL    HW1 2228   2.482   0.481   1.917  3.0693  1.1942 -0.9796
  743SOL    HW2 2229   2.603   0.397   1.995 -0.4574 -0.4284 -1.0022
  744SOL     OW 2230   2.280   0.645   1.301  0.1525  0.5313  0.2807
  744SOL    HW1 2231   2.278   0.683   1.394  0.4476  2.0234 -0.7524
  744SOL    HW2 2232   2.287   0.720   1.234 -3.0171 -1.4226 -0.5230
  745SOL     OW 2233   2.095   1.357   1.893  0.0318 -0.0726 -0.1389
  745SOL    HW1 2234   2.014   1.320   1.949 -1.2772 -0.1372  0.9011
  745SOL    HW2 2235   2.093   1.457   1.883  1.0011 -3.5570  1.2414
  746SOL     OW 2236   1.212   1.410   0.679  0.0459  0.3924 -0.2017
  746SOL    HW1 2237   1.260   1.498   0.691  0.3460 -0.8117 -1.9623
  746SOL    HW2 2238   1.152   1.392   0.756  4.3475 -1.5136  0.0344
  747SOL     OW 2239   1.624   1.259   1.255  0.0899  0.0792  0.4718
  747SOL    HW1 2240   1.647   1.216   1.166  1.0397 -1.9541 -0.1097
  747SOL    HW2 2241   1.687   1.223   1.323  0.0456 -0.4280 -1.7392
  748SOL     OW 2242   2.963   3.103   0.582 -0.0717  0.1304 -0.2549
  748SOL    HW1 2243   2.961   0.046   0.509  2.8098 -1.0217 -1.1472
  748SOL    HW2 2244   3.010   0.008   0.665  1.1855  0.8756  0.0457
  749SOL     OW 2245   2.978   0.283   2.072 -0.1264  0.2933 -0.6088
  749SOL    HW1 2246   2.990   0.180   2.075  2.9470 -0.2466  2.9009
  749SOL    HW2 2247   3.033   0.321   2.151  1.6547 -0.9256  0.4111
  750SOL     OW 2248   1.749   0.029   1.456  0.3904 -1.2148 -0.2569
  750SOL    HW1 2249   1.840   0.073   1.465 -0.3600 -1.0126 -3.0298
  750SOL    HW2 2250   1.756   3.104   1.370 -2.0614  0.6489  0.9068
  751SOL     OW 2251   2.915   0.301   0.632  0.0377  0.6102 -0.4542
  751SOL    HW1 2252   2.852   0.378   0.618 -0.0736 -0.1358 -0.8100
  751SOL    HW2 2253   2.917   0.276   0.731  0.7597 -0.1907 -2.5198
  752SOL     OW 2254   0.370   2.661   1.112 -0.7169 -0.4370 -0.3341
  752SOL    HW1 2255   0.362   2.584   1.172 -0.3483  0.6145 -0.9593
  752SOL    HW2 2256   0.287   2.676   1.053 -0.8461 -1.4274 -0.7030
  753SOL     OW 2257   1.354   0.341   1.944  0.1119  0.2013 -0.5185
  753SOL    HW1 2258   1.259   0.349   1.907  1.1823 -0.9195  1.8331
  753SOL    HW2 2259   1.393   0.432   1.970 -2.5923 -1.3848 -1.7554
  754SOL     OW 2260   1.324   2.681   1.709 -0.0304  0.2198 -0.9784
  754SOL    HW1 2261   1.389   2.731   1.649  1.8905 -0.2663 -0.1260
  754SOL    HW2 2262   1.357   2.685   1.804  1.1107 -0.8256 -1.0166
  755SOL     OW 2263   2.969   1.128   0.622 -0.6332 -0.2763 -0.4287
  755SOL    HW1 2264   2.908   1.159   0.695  2.3805  1.3599 -1.2346
  755SOL    HW2 2265   3.027   1.050   0.647 -2.5523  2.7193 -0.2501
  756SOL     OW 2266   2.262   1.673   2.733  0.5863  0.2441  0.0376
  756SOL    HW1 2267   2.359   1.659   2.769  2.0608  0.6462  0.3111
  756SOL    HW2 2268   2.229   1.766   2.733  2.6625 -1.8982 -1.4710
  757SOL     OW 2269   1.856   0.050   0.836  0.5337 -0.3817  0.3500
  757SOL    HW1 2270   1.834   0.111   0.762  1.8078 -2.0275  0.3587
  757SOL    HW2 2271   1.865   3.081   0.796 -1.6354 -0.8427 -2.5763
  758SOL     OW 2272   1.008   2.759   0.893 -0.2194  0.4189  0.6084
  758SOL    HW1 2273   0.995   2.678   0.955 -0.8949 -1.6812  0.0877
  758SOL    HW2 2274   1.065   2.735   0.810 -1.3467 -0.1487 -1.3736
  759SOL     OW 2275   3.039   0.541   1.042 -0.6989 -0.6487  0.1182
  759SOL    HW1 2276   3.096   0.585   0.971 -0.0544  1.5516  0.4308
  759SOL    HW2 2277   2.937   0.554   1.027 -0.7041 -0.6012 -1.1282
  760SOL     OW 2278   2.273   1.305   1.161  0.4492  0.2645  0.0442
  760SOL    HW1 2279   2.292   1.234   1.228  2.0403  0.9039 -1.2175
  760SOL    HW2 2280   2.180   1.341   1.172  0.6253  2.6183 -0.0831
  761SOL     OW 2281   0.674   0.892   0.936 -0.1224 -0.2331 -0.4339
  761SOL    HW1 2282   0.667   0.923   0.837  1.0584  2.3494 -0.6144
  761SOL    HW2 2283   0.725   0.810   0.938 -0.3271  2.2116 -1.7989
  762SOL     OW 2284   2.067   1.875   1.445  0.8590  0.1183 -0.8105
  762SOL    HW1 2285   2.100   1.814   1.369  1.0555  1.0463  0.1451
  762SOL    HW2 2286   2.071   1.816   1.533  1.0069 -0.5642  1.7058
  763SOL     OW 2287   1.248   1.686   2.022  0.0072  0.0631 -0.0643
  763SOL    HW1 2288   1.279   1.678   2.118 -1.4590  2.5931  0.2662
  763SOL    HW2 2289   1.233   1.784   1.996  1.3018  3.4127  0.8784
  764SOL     OW 2290   0.106   1.970   2.312 -0.0303  0.0004 -0.0615
  764SOL    HW1 2291   0.049   2.030   2.248  0.5945 -1.9315  2.0478
  764SOL    HW2 2292   0.201   2.001   2.322  0.7654 -0.0051  1.5556
  765SOL     OW 2293   0.751   2.765   1.197  0.2603 -0.1709  0.0354
  765SOL    HW1 2294   0.797   2.794   1.279 -0.2071 -0.8517 -0.7764
  765SOL    HW2 2295   0.742   2.837   1.125 -0.7335  0.5842 -0.8329
  766SOL     OW 2296   0.891   2.275   2.806  0.3319  0.1905 -0.1060
  766SOL    HW1 2297   0.836   2.209   2.752  0.9066 -0.7214  1.2535
  766SOL    HW2 2298   0.830   2.351   2.830 -0.4549  1.6332 -0.8058
  767SOL     OW 2299   1.600   0.870   2.676 -0.5162 -0.0219  0.3706
  767SOL    HW1 2300   1.519   0.827   2.708  1.7564  2.6877  1.5019
  767SOL    HW2 2301   1.576   0.939   2.604  0.3848  1.3254  0.0231
  768SOL     OW 2302   1.383   2.594   2.978 -0.7573 -0.6436  0.1796
  768SOL    HW1 2303   1.485   2.613   2.971  2.3475  0.9341 -0.5970
  768SOL    HW2 2304   1.376   2.496   2.967  2.3532  2.1503 -1.6418
  769SOL     OW 2305   0.003   2.680   1.475  0.4739 -0.2355  0.3588
  769SOL    HW1 2306   3.123   2.747   1.397 -2.4214  2.1192 -0.2542
  769SOL    HW2 2307   0.093   2.630   1.476  1.9744 -3.2082  0.9940
  770SOL     OW 2308   0.976   0.120   2.741 -0.2850  0.1902 -0.2474
  770SOL    HW1 2309   0.888   0.081   2.771  0.4954 -0.7093  3.3062
  770SOL    HW2 2310   1.004   0.199   2.802 -0.1643 -1.0506 -0.0745
  771SOL     OW 2311   0.790   2.962   2.515 -0.2643 -0.6363  0.3959
  771SOL    HW1 2312   0.700   2.988   2.472 -1.9353 -0.3230 -0.3755
  771SOL    HW2 2313   0.869   2.957   2.451  2.2844  0.0542 -1.2953
  772SOL     OW 2314   2.329   3.067   2.013 -0.2313 -0.5215  0.1368
  772SOL    HW1 2315   2.373   0.015   1.961  0.6063  0.2568  0.7186
  772SOL    HW2 2316   2.345   2.976   1.976 -1.6715  1.5270  0.1292
  773SOL     OW 2317   0.773   2.355   1.811  0.1552  0.6025 -0.7933
  773SOL    HW1 2318   0.789   2.440   1.763 -4.2972 -0.7484  1.1073
  773SOL    HW2 2319   0.704   2.356   1.887 -2.4848  0.0210  1.8480
  774SOL     OW 2320   1.296   0.247   2.193  0.0889 -0.2672  0.5371
  774SOL    HW1 2321   1.287   0.143   2.196  1.6726  0.7487 -2.1687
  774SOL    HW2 2322   1.336   0.267   2.102 -1.7861  1.3034 -0.7572
  775SOL     OW 2323   2.251   2.812   2.977  0.3440  0.1145 -0.5243
  775SOL    HW1 2324   2.163   2.854   2.972  2.5398 -2.4662  0.3208
  775SOL    HW2 2325   2.294   2.814   2.888 -2.8983  3.0674  2.0409
  776SOL     OW 2326   1.910   0.478   2.222 -0.3568  0.0943  0.7167
  776SOL    HW1 2327   1.995   0.504   2.272 -1.1381 -0.9992 -1.7251
  776SOL    HW2 2328   1.930   0.402   2.160 -1.7657  0.1239 -1.3266
  777SOL     OW 2329   2.694   0.834   2.370  0.1194  0.0146  0.0163
  777SOL    HW1 2330   2.707   0.928   2.413  0.6042 -0.6866 -1.3741
  777SOL    HW2 2331   2.599   0.823   2.337  0.0302 -0.5238  0.3117
  778SOL     OW 2332   2.127   0.559   2.355 -0.2061 -0.5447  0.2509
  778SOL    HW1 2333   2.090   0.657   2.344  0.8702 -0.2548  1.1633
  778SOL    HW2 2334   2.165   0.540   2.445 -0.1135  2.5567 -1.7736
  779SOL     OW 2335   0.028   0.245   0.090  0.1392  0.0676  0.4255
  779SOL    HW1 2336   3.074   0.280   0.144  0.4455 -2.8461 -0.8578
  779SOL    HW2 2337   0.067   0.163   0.140 -0.2259 -0.2306 -3.2247
  780SOL     OW 2338   2.350   0.375   2.745 -0.4984 -0.1311  0.0353
  780SOL    HW1 2339   2.438   0.355   2.694  0.5338  0.0346 -0.7423
  780SOL    HW2 2340   2.284   0.428   2.687  0.5481  0.1257  0.5585
  781SOL     OW 2341   0.348   2.889   1.515 -0.2497 -0.6840 -0.3388
  781SOL    HW1 2342   0.326   2.925   1.424 -2.7844 -2.0955  0.4356
  781SOL    HW2 2343   0.442   2.849   1.516  3.0990  0.3048  1.0885
  782SOL     OW 2344   1.717   2.591   0.357 -0.2633 -0.1760 -0.1749
  782SOL    HW1 2345   1.632   2.644   0.374  1.4627 -1.7790  2.4273
  782SOL    HW2 2346   1.750   2.531   0.435  1.5042 -0.3836  0.1865
  783SOL     OW 2347   0.676   1.550   1.608 -0.1180 -0.0793  0.0983
  783SOL    HW1 2348   0.756   1.584   1.660  1.1916  1.2123 -0.4758
  783SOL    HW2 2349   0.681   1.451   1.585 -2.0033 -0.0520  1.1905
  784SOL     OW 2350   1.641   0.789   2.185  0.5740  0.0065  0.1297
  784SOL    HW1 2351   1.602   0.883   2.185 -2.7337  1.3256 -1.6856
  784SOL    HW2 2352   1.726   0.791   2.122 -1.2433 -1.9040  0.4810
  785SOL     OW 2353   2.797   0.270   0.888  0.0061 -0.3822  0.1501
  785SOL    HW1 2354   2.794   0.325   0.971  1.6849 -0.5117 -1.2637
  785SOL    HW2 2355   2.703   0.254   0.853  0.1838  1.8870 -0.3576
  786SOL     OW 2356   1.783   0.240   1.253  0.0392 -1.2411  0.4575
  786SOL    HW1 2357   1.883   0.222   1.240 -0.0693  1.6469  0.3757
  786SOL    HW2 2358   1.734   0.162   1.218 -0.1522  0.7012  2.6014
  787SOL     OW 2359   1.351   0.077   1.226  0.4509 -0.0465 -0.2804
  787SOL    HW1 2360   1.346   0.174   1.210  0.1791 -0.4626  0.6386
  787SOL    HW2 2361   1.431   0.040   1.176  0.4116  3.3839  1.3115
  788SOL     OW 2362   0.038   0.781   0.437  0.1089  0.4923 -0.4307
  788SOL    HW1 2363   0.094   0.858   0.480 -0.5610 -1.8037 -0.7029
  788SOL    HW2 2364   0.069   0.689   0.465 -0.6530  0.6365  2.0542
  789SOL     OW 2365   0.582   1.121   2.043  0.1230  0.3938  0.6072
  789SOL    HW1 2366   0.685   1.144   2.060  5.5247 -1.3705  0.4513
  789SOL    HW2 2367   0.542   1.183   1.971  0.3335 -2.0159  1.3910
  790SOL     OW 2368   0.410   0.614   2.516 -0.2766 -0.4213 -0.4616
  790SOL    HW1 2369   0.494   0.643   2.570 -0.3858 -2.0903  2.0203
  790SOL    HW2 2370   0.322   0.644   2.563  0.1860 -1.6955 -0.0476
  791SOL     OW 2371   2.237   0.525   0.312  0.7422 -0.2735  0.0572
  791SOL    HW1 2372   2.237   0.427   0.340  3.0568 -1.4796  0.5775
  791SOL    HW2 2373   2.170   0.581   0.360  0.2767 -1.7780 -0.5748
  792SOL     OW 2374   1.022   0.235   1.320  0.1751  0.1848  0.1077
  792SOL    HW1 2375   0.925   0.266   1.322  0.2479  2.2934 -0.7617
  792SOL    HW2 2376   1.057   0.199   1.411  2.1908 -2.3200  2.5102
  793SOL     OW 2377   0.303   2.964   1.274  0.2053  0.4812 -0.1420
  793SOL    HW1 2378   0.381   2.952   1.215  0.0641  0.9778  2.2423
  793SOL    HW2 2379   0.221   2.919   1.238  2.2642  1.6317  1.2907
  794SOL     OW 2380   0.291   0.550   2.297 -0.1808  0.2417 -0.2385
  794SOL    HW1 2381   0.330   0.571   2.389 -3.4483  0.2296  2.0825
  794SOL    HW2 2382   0.345   0.478   2.248  1.3366 -0.2433  1.2127
  795SOL     OW 2383   0.488   2.470   2.613 -0.2609  0.1032 -0.2083
  795SOL    HW1 2384   0.522   2.541   2.549  0.2124  1.9990 -1.9033
  795SOL    HW2 2385   0.535   2.474   2.702  1.1131 -0.0377  0.9875
  796SOL     OW 2386   2.152   0.512   2.639  0.2113  0.0559 -0.5743
  796SOL    HW1 2387   2.126   0.608   2.683 -1.4818  5.1840  1.0708
  796SOL    HW2 2388   2.089   0.440   2.678  1.9491 -4.7382 -0.1001
  797SOL     OW 2389   2.804   2.125   2.803  0.1994  0.8494 -0.3971
  797SOL    HW1 2390   2.859   2.111   2.890  1.5891 -0.0341  1.1607
  797SOL    HW2 2391   2.763   2.037   2.769 -2.4165  0.1369  1.6304
  798SOL     OW 2392   0.166   0.535   1.659  0.0416 -0.2640 -0.1205
  798SOL    HW1 2393   0.215   0.471   1.721 -0.8441  2.0928 -2.7461
  798SOL    HW2 2394   0.101   0.588   1.712 -1.1834 -0.8863 -2.6516
  799SOL     OW 2395   0.767   0.430   1.737 -0.1059 -0.6496  0.1321
  799SOL    HW1 2396   0.764   0.381   1.823 -0.4041  2.7421  0.8365
  799SOL    HW2 2397   0.683   0.400   1.685  1.0144 -0.7175 -0.7919
  800SOL     OW 2398   3.007   2.611   0.330  0.0978  0.3363  0.0028
  800SOL    HW1 2399   2.974   2.667   0.251  0.6066 -0.0217 -0.9451
  800SOL    HW2 2400   3.043   2.525   0.300 -0.4408 -2.3567  1.0479
  801SOL     OW 2401   1.794   1.866   1.121 -0.3886  0.2647  0.0500
  801SOL    HW1 2402   1.749   1.913   1.043  0.5229  3.3768 -0.8589
  801SOL    HW2 2403   1.822   1.935   1.185  0.3509 -3.3451 -2.1877
  802SOL     OW 2404   0.663   0.413   0.363  0.1782  0.0852  0.0796
  802SOL    HW1 2405   0.593   0.439   0.433 -2.0336  0.1008  1.2250
  802SOL    HW2 2406   0.644   0.474   0.283  1.4952 -0.4763 -0.1197
  803SOL     OW 2407   1.265   1.231   2.321  0.2711  0.0117  0.2278
  803SOL    HW1 2408   1.252   1.150   2.383  0.0914 -3.5774 -1.0780
  803SOL    HW2 2409   1.180   1.291   2.324 -0.4785  0.4778  0.9887
  804SOL     OW 2410   1.922   2.046   0.759 -0.9423 -0.1596 -0.0821
  804SOL    HW1 2411   1.831   2.053   0.806 -0.0155  2.7189 -0.1678
  804SOL    HW2 2412   1.999   2.035   0.824 -0.7880 -0.6659  1.2498
  805SOL     OW 2413   0.461   2.047   2.738  0.5503 -0.0296  0.5546
  805SOL    HW1 2414   0.411   2.107   2.802 -0.4981  0.0536 -0.0764
  805SOL    HW2 2415   0.420   2.054   2.648  2.6545 -0.0426  0.3397
  806SOL     OW 2416   0.693   2.481   0.507  0.2040 -0.1642  0.0229
  806SOL    HW1 2417   0.641   2.566   0.529  0.8976 -2.1050 -0.0624
  806SOL    HW2 2418   0.758   2.500   0.433 -0.7101 -1.8352  0.6326
  807SOL     OW 2419   2.555   1.116   2.709 -0.2189 -0.1180 -0.1921
  807SOL    HW1 2420   2.617   1.157   2.779  2.1531 -0.0987  1.0318
  807SOL    HW2 2421   2.465   1.169   2.712 -1.2302  0.4189  0.5808
  808SOL     OW 2422   1.573   2.250   1.080 -0.4109  0.4022  0.1705
  808SOL    HW1 2423   1.546   2.159   1.113 -2.5841  1.5530 -2.1202
  808SOL    HW2 2424   1.554   2.317   1.152  2.1285  0.3351  2.1700
  809SOL     OW 2425   0.157   0.569   0.529  0.1206  0.0580  0.0109
  809SOL    HW1 2426   0.252   0.592   0.558  0.0295 -4.4453 -0.6176
  809SOL    HW2 2427   0.133   0.472   0.553  1.3789 -2.6810  1.0797
  810SOL     OW 2428   1.348   1.578   0.046 -0.2145  0.4839  0.3961
  810SOL    HW1 2429   1.358   1.627   3.082  0.6227  1.1075  1.4165
  810SOL    HW2 2430   1.355   1.636   0.132 -2.2838 -0.5179  1.1741
  811SOL     OW 2431   1.444   2.793   1.214 -0.3795 -0.9425 -0.2204
  811SOL    HW1 2432   1.494   2.817   1.295 -3.2834 -0.3529 -0.0397
  811SOL    HW2 2433   1.447   2.861   1.138 -0.4859 -0.8966 -2.2310
  812SOL     OW 2434   1.470   2.984   1.004 -0.0294  0.5771 -0.1937
  812SOL    HW1 2435   1.520   2.945   0.923  0.8908 -0.0740 -0.1715
  812SOL    HW2 2436   1.368   2.976   0.984  0.7929 -1.8807 -1.0179
  813SOL     OW 2437   1.156   3.087   1.820 -0.2658 -0.3150  0.4139
  813SOL    HW1 2438   1.108   0.047   1.841  0.2000 -0.6050 -0.9773
  813SOL    HW2 2439   1.230   3.115   1.754 -2.5496 -0.0086  1.3124
  814SOL     OW 2440   1.006   2.594   2.021  0.1800 -0.0684  0.1189
  814SOL    HW1 2441   0.956   2.645   1.946  1.1812  1.8871  0.8813
  814SOL    HW2 2442   1.104   2.564   1.993  1.0016 -2.4050  1.7751
  815SOL     OW 2443   0.383   3.095   2.875  0.3641 -0.2683  0.1203
  815SOL    HW1 2444   0.430   3.001   2.868 -1.7321  1.5945  0.3962
  815SOL    HW2 2445   0.441   0.040   2.831  0.5482 -0.2232 -0.5027
  816SOL     OW 2446   2.428   1.064   0.016  0.2927  0.0533 -0.1835
  816SOL    HW1 2447   2.482   1.135   3.093  1.9203 -0.2451  0.0919
  816SOL    HW2 2448   2.483   0.976   0.011  1.1380  2.8121  1.1446
  817SOL     OW 2449   2.774   2.290   2.357  0.0091 -0.0036  0.0822
  817SOL    HW1 2450   2.789   2.361   2.431  1.4578  1.0469  0.7432
  817SOL    HW2 2451   2.804   2.330   2.272 -3.3372 -0.0430  2.0359
  818SOL     OW 2452   0.783   1.409   0.402  0.4650  0.0004  0.0589
  818SOL    HW1 2453   0.685   1.378   0.432  3.6837 -1.0956  2.5440
  818SOL    HW2 2454   0.856   1.337   0.398  0.9803  1.5528  0.0986
  819SOL     OW 2455   1.850   1.288   2.734 -0.1359 -0.0056  0.2211
  819SOL    HW1 2456   1.909   1.239   2.669  0.6450  0.9879  1.0286
  819SOL    HW2 2457   1.782   1.215   2.769 -2.8507 -0.7009  1.9145
  820SOL     OW 2458   0.614   1.060   0.327 -0.3437 -0.3326  0.3543
  820SOL    HW1 2459   0.569   1.123   0.392 -3.1642 -0.0548  0.9632
  820SOL    HW2 2460   0.593   1.090   0.234 -1.3634 -0.2256  3.8731
  821SOL     OW 2461   0.498   2.910   1.037 -0.3788 -0.7925  0.1090
  821SOL    HW1 2462   0.589   2.892   0.997 -0.3131 -0.6394  2.3553
  821SOL    HW2 2463   0.457   2.826   1.076 -0.5254  0.6707 -0.4822
  822SOL     OW 2464   2.091   2.204   2.854  0.4619 -0.1900  0.0579
  822SOL    HW1 2465   2.175   2.216   2.903  0.5225  1.6517 -0.4670
  822SOL    HW2 2466   2.013   2.250   2.900 -1.0810  1.1748  2.0313
  823SOL     OW 2467   1.193   0.455   2.508 -0.4475  0.0184  0.6236
  823SOL    HW1 2468   1.265   0.387   2.507 -3.0519  1.0109 -1.9446
  823SOL    HW2 2469   1.223   0.546   2.546 -0.5789 -0.3623  0.3272
  824SOL     OW 2470   2.379   2.796   1.560 -0.3014  0.5952  0.5493
  824SOL    HW1 2471   2.354   2.842   1.646  0.2643  0.0043  0.1916
  824SOL    HW2 2472   2.344   2.841   1.475 -0.5585 -1.6873 -2.0700
  825SOL     OW 2473   0.386   1.979   2.434 -0.1222  0.1412  0.0914
  825SOL    HW1 2474   0.484   1.942   2.432  2.6825 -1.3463  0.3987
  825SOL    HW2 2475   0.393   2.080   2.446  2.2388  1.0932 -0.1315
  826SOL     OW 2476   1.616   0.473   0.210 -0.0331 -0.0260 -0.2027
  826SOL    HW1 2477   1.694   0.408   0.201 -1.4346 -0.8747  0.5603
  826SOL    HW2 2478   1.544   0.439   0.274 -1.9697  0.0716 -2.3648
  827SOL     OW 2479   0.130   1.712   1.907  0.7503 -0.1740  0.4031
  827SOL    HW1 2480   0.117   1.610   1.913 -2.7754 -0.0053 -1.7969
  827SOL    HW2 2481   0.135   1.737   1.807  0.0231 -1.2374 -1.0005
  828SOL     OW 2482   0.174   0.172   1.273 -0.2462  0.7510 -0.1224
  828SOL    HW1 2483   0.126   0.235   1.337  0.7648 -0.6288  0.6564
  828SOL    HW2 2484   0.263   0.155   1.321  1.5594 -1.2549 -0.0556
  829SOL     OW 2485   1.114   1.895   2.386  0.6205  0.0138  0.2886
  829SOL    HW1 2486   1.206   1.939   2.390 -1.7583 -2.2262 -0.5457
  829SOL    HW2 2487   1.056   1.900   2.469  0.7476  0.4614 -1.7930
  830SOL     OW 2488   0.654   0.893   1.432  0.1552  0.2417 -0.1496
  830SOL    HW1 2489   0.602   0.887   1.347  0.7271 -0.1766  0.7151
  830SOL    HW2 2490   0.604   0.852   1.507  0.4088 -0.0794 -2.5066
  831SOL     OW 2491   2.918   1.517   2.861  0.0403 -0.5251  0.0305
  831SOL    HW1 2492   2.904   1.521   2.758  1.8788  0.9971 -3.7472
  831SOL    HW2 2493   2.957   1.427   2.891 -0.0589 -1.1810 -1.1749
  832SOL     OW 2494   1.341   2.360   2.867  0.2254  0.3582  0.2381
  832SOL    HW1 2495   1.246   2.333   2.896 -1.2449 -2.8037  0.9767
  832SOL    HW2 2496   1.376   2.281   2.817  0.2114  1.2746  3.0602
  833SOL     OW 2497   0.351   0.412   1.813 -0.4957 -0.2898 -0.6279
  833SOL    HW1 2498   0.425   0.461   1.862  0.5986  1.1417  2.3309
  833SOL    HW2 2499   0.336   0.324   1.864 -1.7940 -0.1888 -1.1927
  834SOL     OW 2500   0.126   0.847   1.261  0.0841 -0.5115 -0.0780
  834SOL    HW1 2501   0.185   0.916   1.310 -1.7381 -0.0610  0.8388
  834SOL    HW2 2502   0.157   0.843   1.159  0.1703 -0.8567 -3.2623
  835SOL     OW 2503   2.577   0.465   0.436 -0.0361  0.2508  0.0494
  835SOL    HW1 2504   2.661   0.498   0.485  0.3261  0.7047 -3.0345
  835SOL    HW2 2505   2.540   0.540   0.380  3.0961 -0.0626 -1.0368
  836SOL     OW 2506   0.834   2.196   0.200 -0.2043  0.2553 -0.5169
  836SOL    HW1 2507   0.902   2.272   0.198  0.9763 -1.5536  0.7303
  836SOL    HW2 2508   0.830   2.150   0.294 -0.6161 -2.3583  0.1035
  837SOL     OW 2509   1.650   1.786   0.425  0.1295  0.6497  0.3733
  837SOL    HW1 2510   1.635   1.826   0.327  0.0513 -1.5811 -4.1622
  837SOL    HW2 2511   1.598   1.698   0.445 -1.4590 -1.2943 -0.8070
  838SOL     OW 2512   1.862   1.035   2.102 -0.2560  0.1242  0.5713
  838SOL    HW1 2513   1.939   0.971   2.066  0.6393 -0.3820  0.9150
  838SOL    HW2 2514   1.776   1.019   2.051  2.6845 -0.4503  1.9191
  839SOL     OW 2515   1.213   1.298   2.710 -0.0853  0.4732 -0.6092
  839SOL    HW1 2516   1.300   1.298   2.770  1.1234 -1.7708  1.3404
  839SOL    HW2 2517   1.218   1.377   2.644  3.5371  1.1072  1.2313
  840SOL     OW 2518   0.871   1.285   0.066  0.2831 -0.3700  0.1490
  840SOL    HW1 2519   0.897   1.330   0.154 -0.4691 -0.2450 -0.4937
  840SOL    HW2 2520   0.791   1.226   0.092  0.5068 -0.3538  0.4123
  841SOL     OW 2521   1.385   2.222   0.059  0.3292  0.0695 -0.0658
  841SOL    HW1 2522   1.393   2.285   0.140  1.5725 -0.2709 -3.0810
  841SOL    HW2 2523   1.299   2.235   0.010  2.9372 -0.2707 -0.7340
  842SOL     OW 2524   0.068   0.452   0.294 -0.7770  0.2106  0.4533
  842SOL    HW1 2525   0.097   0.500   0.378 -0.5571 -0.9973 -2.9923
  842SOL    HW2 2526   0.147   0.438   0.234  1.3943 -0.3310 -0.4125
  843SOL     OW 2527   0.545   0.565   0.865 -0.3614  0.1087  0.3888
  843SOL    HW1 2528   0.618   0.625   0.910  0.9954  0.5542  0.3103
  843SOL    HW2 2529   0.478   0.535   0.935  0.8731  1.3746  0.0185
  844SOL     OW 2530   2.294   2.480   2.512 -0.5317 -0.2965 -0.3201
  844SOL    HW1 2531   2.200   2.487   2.472 -3.3279 -0.0399  2.2107
  844SOL    HW2 2532   2.309   2.544   2.588 -0.9032 -0.8740 -0.0227
  845SOL     OW 2533   3.066   2.495   1.914  0.3231  0.8850 -0.3544
  845SOL    HW1 2534   3.105   2.590   1.927 -0.1877  2.9880 -0.9387
  845SOL    HW2 2535   2.992   2.486   1.845  3.8500  0.4948 -0.0893
  846SOL     OW 2536   2.110   1.252   2.341  0.3004 -0.2363  0.1945
  846SOL    HW1 2537   2.112   1.338   2.401  1.5918  0.0275 -1.8500
  846SOL    HW2 2538   2.038   1.189   2.367 -1.4892  2.8516 -0.9168
  847SOL     OW 2539   2.751   0.434   2.040 -0.7320 -0.5519 -0.7266
  847SOL    HW1 2540   2.760   0.530   2.004  2.0511  1.6090  0.6038
  847SOL    HW2 2541   2.846   0.396   2.053  1.4996 -0.1117 -2.5109
  848SOL     OW 2542   2.697   2.801   3.062  0.2024 -0.0835 -0.0600
  848SOL    HW1 2543   2.709   2.816   0.036 -0.9978 -1.2200  0.7429
  848SOL    HW2 2544   2.707   2.702   3.040 -2.0899 -0.6065  0.6961
  849SOL     OW 2545   0.428   3.025   0.581 -0.3387  0.0873  0.8435
  849SOL    HW1 2546   0.492   2.964   0.632  1.3462 -0.2203 -0.0735
  849SOL    HW2 2547   0.332   2.999   0.612  0.8890 -0.4314 -2.6121
  850SOL     OW 2548   0.887   2.558   0.315 -0.2155  0.0410 -0.2818
  850SOL    HW1 2549   0.943   2.643   0.324 -0.5146  1.7421 -1.0999
  850SOL    HW2 2550   0.922   2.498   0.236  1.5916 -2.7673 -1.4055
  851SOL     OW 2551   1.765   0.453   2.685  0.7106  0.0266 -0.3307
  851SOL    HW1 2552   1.788   0.554   2.679 -0.6128 -0.6920 -0.2201
  851SOL    HW2 2553   1.852   0.397   2.671 -3.0112  2.6722  0.6065
  852SOL     OW 2554   1.707   2.608   2.632  0.1463  0.1877 -0.2804
  852SOL    HW1 2555   1.796   2.559   2.623  2.0947  0.3741 -0.2085
  852SOL    HW2 2556   1.700   2.695   2.586  0.4935 -1.9595 -0.5428
  853SOL     OW 2557   3.079   2.568   0.008 -0.4037  0.7511 -0.1145
  853SOL    HW1 2558   0.053   2.577   3.108 -1.0794  0.0619 -2.0325
  853SOL    HW2 2559   3.054   2.655   0.058  0.7722  3.5215  2.6376
  854SOL     OW 2560   1.330   0.749   2.485  0.2716 -0.8449 -0.0037
  854SOL    HW1 2561   1.317   0.707   2.396  0.8278  0.8741  1.5746
  854SOL    HW2 2562   1.411   0.809   2.476 -2.0858  1.3546 -4.0670
  855SOL     OW 2563   0.336   2.660   0.592 -0.3091 -0.0516 -0.2944
  855SOL    HW1 2564   0.345   2.673   0.489  1.4421  0.7177  1.7506
  855SOL    HW2 2565   0.239   2.664   0.622 -1.0123  0.0347 -0.4676
  856SOL     OW 2566   0.238   2.688   2.509  0.1292  0.3582 -0.7273
  856SOL    HW1 2567   0.226   2.625   2.429 -0.9953  1.1106  2.1692
  856SOL    HW2 2568   0.336   2.717   2.525  0.2786  1.6350  1.4406
  857SOL     OW 2569   1.344   0.016   1.643  0.6981  0.0651 -0.1818
  857SOL    HW1 2570   1.340   3.077   1.563 -2.1466 -1.7708  0.4703
  857SOL    HW2 2571   1.431   0.061   1.658 -2.2976  0.7099 -1.1017
  858SOL     OW 2572   0.159   2.054   1.548 -0.1278  0.7292  0.0114
  858SOL    HW1 2573   0.171   2.113   1.466  1.6053 -0.0436  1.2498
  858SOL    HW2 2574   0.194   2.105   1.629 -0.4552 -0.5295  0.5189
  859SOL     OW 2575   2.195   2.385   1.991  0.4643 -0.2844  0.4991
  859SOL    HW1 2576   2.129   2.431   1.927  0.6557  0.1009 -0.4160
  859SOL    HW2 2577   2.142   2.370   2.077 -4.4943 -0.1900  0.4334
  860SOL     OW 2578   1.461   0.316   0.599 -0.2177  0.1181 -0.1780
  860SOL    HW1 2579   1.532   0.354   0.661  0.1715  0.2043  0.0574
  860SOL    HW2 2580   1.379   0.283   0.644  0.4954 -0.0973 -1.0016
  861SOL     OW 2581   2.881   0.736   0.846 -0.1324  0.3788 -0.1727
  861SOL    HW1 2582   2.811   0.682   0.898 -1.8806 -0.4659 -1.1916
  861SOL    HW2 2583   2.948   0.788   0.902  0.7164 -0.4010  0.1011
  862SOL     OW 2584   1.886   0.728   2.087 -0.7563 -0.6758 -0.0483
  862SOL    HW1 2585   1.877   0.632   2.126  0.9255  0.5609 -0.6743
  862SOL    HW2 2586   1.979   0.745   2.046  1.2052  0.7376  1.7492
  863SOL     OW 2587   0.776   0.634   0.976  0.2183 -0.1164 -0.0595
  863SOL    HW1 2588   0.841   0.597   0.909 -1.4990 -2.1507 -0.3255
  863SOL    HW2 2589   0.750   0.567   1.047  3.8659  0.6500 -0.0665
  864SOL     OW 2590   2.951   2.887   2.063  0.4501  0.0881 -0.0772
  864SOL    HW1 2591   2.861   2.886   2.024  1.4744  0.4192  2.5580
  864SOL    HW2 2592   2.939   2.880   2.169  2.5749  0.7825  0.2058
  865SOL     OW 2593   1.104   0.876   2.597  0.4199  0.1671  0.3985
  865SOL    HW1 2594   1.172   0.816   2.555 -1.0533 -0.2565  2.1242
  865SOL    HW2 2595   1.083   0.833   2.685  3.7617 -1.4146  0.3149
  866SOL     OW 2596   2.884   2.911   0.414 -0.1965  0.3427 -0.2109
  866SOL    HW1 2597   2.922   2.973   0.484 -2.2780 -2.4907  0.5525
  866SOL    HW2 2598   2.887   2.814   0.444 -0.7943  0.3334  0.0509
  867SOL     OW 2599   2.989   2.802   0.117  0.0365  0.2303  0.2025
  867SOL    HW1 2600   2.895   2.827   0.138 -1.1496  1.8020  0.8467
  867SOL    HW2 2601   3.030   2.859   0.038  0.6173  0.9971 -1.7633
  868SOL     OW 2602   1.860   1.195   0.184 -0.0510  0.5102 -0.0851
  868SOL    HW1 2603   1.942   1.247   0.160 -0.8613 -2.3082  0.3732
  868SOL    HW2 2604   1.865   1.155   0.278 -2.3512 -1.4385  0.6627
  869SOL     OW 2605   3.042   2.099   0.617 -0.2776 -0.3336  0.3746
  869SOL    HW1 2606   2.940   2.124   0.623  0.0806  0.8961 -0.1594
  869SOL    HW2 2607   3.100   2.177   0.639  2.2084 -0.8918 -1.5029
  870SOL     OW 2608   2.259   2.172   0.384 -0.2244 -0.4377 -0.1521
  870SOL    HW1 2609   2.222   2.081   0.402  2.2049  1.3824 -1.9079
  870SOL    HW2 2610   2.260   2.178   0.284  2.8852  1.6566  0.1705
  871SOL     OW 2611   0.756   1.174   0.930  0.6691  0.6530  0.1081
  871SOL    HW1 2612   0.744   1.070   0.908 -1.0246 -1.9354 -1.2753
  871SOL    HW2 2613   0.760   1.183   1.034  1.9619  1.0680  0.7217
  872SOL     OW 2614   1.236   1.956   1.979 -0.1429 -0.0865  0.4672
  872SOL    HW1 2615   1.163   2.002   1.919 -1.5026  0.0902 -5.8581
  872SOL    HW2 2616   1.307   2.025   2.007 -3.1023 -1.6999 -3.2809
  873SOL     OW 2617   0.635   2.345   2.077 -0.9128 -0.6306 -0.2225
  873SOL    HW1 2618   0.660   2.303   2.169 -0.4823  1.2800 -0.8054
  873SOL    HW2 2619   0.536   2.379   2.065 -1.3710 -1.1738 -0.9868
  874SOL     OW 2620   0.830   0.038   1.133  0.1983  0.8442 -0.0125
  874SOL    HW1 2621   0.766   0.016   1.214 -0.3429  1.2144  1.0807
  874SOL    HW2 2622   0.782   0.100   1.063  1.1867 -1.8663 -2.9013
  875SOL     OW 2623   2.904   0.333   1.186 -0.1880 -0.1538 -0.1502
  875SOL    HW1 2624   2.978   0.377   1.138  0.9481 -1.5264 -1.3803
  875SOL    HW2 2625   2.923   0.315   1.287  3.4468 -0.1157 -0.6842
  876SOL     OW 2626   0.542   0.627   0.211  0.3784 -0.2416 -0.3099
  876SOL    HW1 2627   0.541   0.705   0.270  1.3048 -1.9693 -0.5478
  876SOL    HW2 2628   0.615   0.635   0.137  3.1151 -0.7553  0.9659
  877SOL     OW 2629   0.432   0.414   1.417 -0.4589  0.7257 -0.2282
  877SOL    HW1 2630   0.496   0.405   1.335  3.5481 -1.5220  4.0791
  877SOL    HW2 2631   0.351   0.464   1.398  0.3712  1.7907 -2.3757
  878SOL     OW 2632   2.472   2.811   0.314 -1.1472  0.4273  0.7061
  878SOL    HW1 2633   2.375   2.840   0.306  1.7264  1.5674 -0.4907
  878SOL    HW2 2634   2.490   2.828   0.414 -0.5524 -0.2893 -3.4229
  879SOL     OW 2635   2.594   1.508   1.355  0.0854  0.5344 -0.2693
  879SOL    HW1 2636   2.561   1.475   1.264  2.3010 -1.3526 -0.1761
  879SOL    HW2 2637   2.512   1.534   1.404  0.7414 -0.0794 -3.1705
  880SOL     OW 2638   1.529   2.500   0.690  0.0505 -0.1358  0.3029
  880SOL    HW1 2639   1.616   2.456   0.665 -1.7770 -0.0504 -1.4527
  880SOL    HW2 2640   1.445   2.449   0.653  0.4778 -1.6875 -2.0660
  881SOL     OW 2641   1.056   2.369   0.163  0.2714 -0.3951 -0.6511
  881SOL    HW1 2642   1.122   2.445   0.153  1.8062 -1.6978 -1.6745
  881SOL    HW2 2643   1.093   2.292   0.217 -0.2054 -0.5840 -2.1761
  882SOL     OW 2644   1.793   0.927   1.315  0.2208 -0.1817  0.1336
  882SOL    HW1 2645   1.806   0.828   1.288 -3.1432 -2.1801  1.4616
  882SOL    HW2 2646   1.730   0.940   1.394 -0.3907  2.1465  1.4004
  883SOL     OW 2647   1.578   0.712   1.587 -0.0996  0.0987  0.7682
  883SOL    HW1 2648   1.673   0.682   1.614  0.2955  1.0050  0.4145
  883SOL    HW2 2649   1.555   0.680   1.493 -0.5747 -3.7501  0.0135
  884SOL     OW 2650   2.749   0.579   0.199 -0.6191 -0.3353 -0.0268
  884SOL    HW1 2651   2.649   0.597   0.215 -1.8096 -2.8960 -1.6220
  884SOL    HW2 2652   2.806   0.632   0.262  2.2682 -2.2105  0.6380
  885SOL     OW 2653   1.261   1.833   3.102 -0.9702 -0.2617  0.2074
  885SOL    HW1 2654   1.181   1.764   3.102 -3.0886 -0.5844  0.0693
  885SOL    HW2 2655   1.276   1.870   3.012  0.8730  1.1679  0.9103
  886SOL     OW 2656   1.763   1.555   2.781  0.2529  0.0749  0.0200
  886SOL    HW1 2657   1.790   1.604   2.866 -0.6527  3.9744  1.8158
  886SOL    HW2 2658   1.789   1.458   2.776 -2.5949  0.8733  0.2144
  887SOL     OW 2659   1.430   0.383   1.515 -0.6662 -0.1085 -0.6804
  887SOL    HW1 2660   1.357   0.445   1.553  0.2770  0.0201  2.0134
  887SOL    HW2 2661   1.449   0.302   1.573  0.2416 -1.9648 -0.1683
  888SOL     OW 2662   2.546   0.665   1.823 -0.5460  0.3854  0.1155
  888SOL    HW1 2663   2.612   0.657   1.897  1.0690 -2.0205 -1.9854
  888SOL    HW2 2664   2.543   0.766   1.807 -0.3611 -3.0663 -1.2739
  889SOL     OW 2665   0.123   2.728   0.981 -0.1068  0.1067 -0.4740
  889SOL    HW1 2666   0.097   2.646   0.925  2.9133 -0.1387 -1.1108
  889SOL    HW2 2667   0.092   2.821   0.939 -1.7219  4.0932 -2.3205
  890SOL     OW 2668   2.348   2.568   0.203 -0.3289  0.2960 -0.3300
  890SOL    HW1 2669   2.355   2.594   0.102 -0.0235 -0.2186  0.6678
  890SOL    HW2 2670   2.408   2.624   0.260 -1.0323  2.7268  0.7201
  891SOL     OW 2671   0.712   1.389   2.765  0.0234  0.0859  0.0839
  891SOL    HW1 2672   0.810   1.361   2.770 -0.8426  0.3900  0.0129
  891SOL    HW2 2673   0.651   1.322   2.712 -1.4375  0.7952 -3.5595
  892SOL     OW 2674   0.005   3.068   1.199 -0.2734 -0.1767 -0.3148
  892SOL    HW1 2675   0.074   0.001   1.242  0.7489 -0.4946 -1.9328
  892SOL    HW2 2676   3.048   3.124   1.175  1.2539 -1.3835 -1.4502
  893SOL     OW 2677   1.268   0.364   1.289  0.8896 -0.1125 -0.3022
  893SOL    HW1 2678   1.329   0.378   1.372  0.1849 -1.1471 -0.3166
  893SOL    HW2 2679   1.177   0.324   1.314 -3.2799 -0.7776 -1.1142
  894SOL     OW 2680   2.456   0.782   0.774  0.8099 -0.1514 -0.6977
  894SOL    HW1 2681   2.386   0.860   0.762 -1.5601  0.9438 -2.1172
  894SOL    HW2 2682   2.549   0.819   0.772 -0.5072 -0.2162  0.4371
  895SOL     OW 2683   1.966   1.999   2.298  0.1218 -0.0193 -0.5716
  895SOL    HW1 2684   1.984   2.055   2.379 -0.4521 -0.3523  1.0938
  895SOL    HW2 2685   2.044   1.938   2.270 -1.1581  0.4055 -0.0512
  896SOL     OW 2686   1.543   0.155   2.015 -0.7721  0.2539 -0.5216
  896SOL    HW1 2687   1.486   0.231   1.979  0.0372 -1.9147  1.6211
  896SOL    HW2 2688   1.619   0.131   1.954 -1.6833 -4.1287  0.1802
  897SOL     OW 2689   0.604   1.791   2.063 -0.3182 -0.1201 -0.0838
  897SOL    HW1 2690   0.603   1.802   1.963  0.7931 -0.5198  0.0770
  897SOL    HW2 2691   0.642   1.868   2.116  0.9812  0.3424 -0.0041
  898SOL     OW 2692   2.489   2.556   2.302  0.3847  0.2354  0.5318
  898SOL    HW1 2693   2.415   2.552   2.374  1.1766  0.7470 -0.7656
  898SOL    HW2 2694   2.477   2.486   2.230  1.9063  1.0802 -1.5245
  899SOL     OW 2695   1.108   1.118   1.279 -0.6684  0.7241  0.1897
  899SOL    HW1 2696   1.081   1.213   1.263  0.0509 -0.3868  1.0681
  899SOL    HW2 2697   1.206   1.108   1.252  1.5060  3.8139  1.1369
  900SOL     OW 2698   1.721   2.338   2.890 -0.0416  0.1465  0.2551
  900SOL    HW1 2699   1.660   2.266   2.930 -0.6958 -3.3628 -1.1009
  900SOL    HW2 2700   1.736   2.327   2.787 -0.3743  0.7038 -3.6134
  901SOL     OW 2701   0.742   2.088   2.669  0.1131 -0.1642 -0.4636
  901SOL    HW1 2702   0.642   2.070   2.692  1.1485  0.3670  0.8826
  901SOL    HW2 2703   0.764   2.061   2.576 -2.4448 -0.3525  0.7245
  902SOL     OW 2704   2.239   1.468   0.205 -0.3317  0.1205  0.3852
  902SOL    HW1 2705   2.249   1.564   0.172  1.3904  3.7408 -0.8558
  902SOL    HW2 2706   2.333   1.419   0.212  1.0268 -0.0977  1.3125
  903SOL     OW 2707   2.095   0.862   0.255  0.4621  0.6352 -0.1465
  903SOL    HW1 2708   2.146   0.949   0.236 -0.6486  0.2873  0.7169
  903SOL    HW2 2709   2.062   0.812   0.173 -1.6885 -2.0715 -0.3252
  904SOL     OW 2710   0.813   0.935   2.694 -0.0471  0.1270 -0.4324
  904SOL    HW1 2711   0.855   0.979   2.611 -0.1979  2.2219 -1.8145
  904SOL    HW2 2712   0.870   0.948   2.780 -0.3355 -0.9256 -1.0079
  905SOL     OW 2713   2.530   0.429   1.062  0.1134  0.2751  0.0356
  905SOL    HW1 2714   2.508   0.331   1.042 -1.6032 -0.4926  0.0538
  905SOL    HW2 2715   2.551   0.443   1.161  0.1928 -0.9384  3.0098
  906SOL     OW 2716   2.557   2.166   0.981  0.0020 -0.7707  0.1657
  906SOL    HW1 2717   2.520   2.264   0.997 -1.1114  1.8379  0.4464
  906SOL    HW2 2718   2.651   2.168   1.017  1.0729  0.5688  1.1665
  907SOL     OW 2719   1.419   0.604   0.640  0.2511 -0.2887 -0.3101
  907SOL    HW1 2720   1.412   0.546   0.556  0.1162 -1.4938 -0.7192
  907SOL    HW2 2721   1.339   0.670   0.628 -2.1467  0.7944  0.9538
  908SOL     OW 2722   2.116   3.014   1.465 -0.1221  0.0433 -0.0888
  908SOL    HW1 2723   2.073   3.105   1.452  0.6285 -1.1634  1.1358
  908SOL    HW2 2724   2.114   2.990   1.561  1.0526  3.6011  0.6840
  909SOL     OW 2725   2.598   0.879   1.467  0.4302  0.2329 -0.4870
  909SOL    HW1 2726   2.667   0.812   1.423  4.0432  0.8726 -2.8025
  909SOL    HW2 2727   2.534   0.906   1.395  2.1695  0.3726  1.2714
  910SOL     OW 2728   1.423   2.731   2.352 -0.1547  0.1253 -0.2888
  910SOL    HW1 2729   1.349   2.799   2.342 -1.8184 -2.9555  0.2440
  910SOL    HW2 2730   1.517   2.772   2.332  0.6353  0.7851  0.9715
  911SOL     OW 2731   2.051   0.299   2.028  0.6234 -0.2659 -0.0619
  911SOL    HW1 2732   2.029   0.234   1.952 -1.3540 -2.6270 -0.3625
  911SOL    HW2 2733   2.076   0.389   1.994  0.1351 -0.9933  1.9591
  912SOL     OW 2734   2.377   1.920   1.527  0.3982  0.1235 -0.3665
  912SOL    HW1 2735   2.474   1.940   1.498 -2.6371  0.0154 -0.1831
  912SOL    HW2 2736   2.361   1.969   1.610 -2.5700 -1.2308 -3.8179
  913SOL     OW 2737   2.626   1.982   1.428 -0.7751 -0.0999 -0.2103
  913SOL    HW1 2738   2.624   2.085   1.417 -0.8268  0.2023  1.6152
  913SOL    HW2 2739   2.694   1.961   1.496 -2.9057  3.3048 -0.3717
  914SOL     OW 2740   2.201   1.438   1.514 -0.5956  0.4028 -0.3485
  914SOL    HW1 2741   2.246   1.526   1.489 -0.9093 -0.0551 -1.6180
  914SOL    HW2 2742   2.263   1.365   1.550  2.2395 -0.4382  1.4230
  915SOL     OW 2743   0.784   1.247   1.186  0.1984  0.0601  0.3244
  915SOL    HW1 2744   0.754   1.185   1.264  1.4719 -1.4168  0.5360
  915SOL    HW2 2745   0.871   1.291   1.208 -0.2921  1.3571  0.0744
  916SOL     OW 2746   2.294   2.568   1.246 -0.1819  0.5697 -0.2873
  916SOL    HW1 2747   2.353   2.530   1.322  0.7990 -0.8129 -0.2163
  916SOL    HW2 2748   2.246   2.652   1.271 -0.1115  0.6866 -2.3299
  917SOL     OW 2749   2.413   1.926   0.117  0.8148 -0.6648  0.3702
  917SOL    HW1 2750   2.474   1.924   0.198  0.5914  0.1176 -1.4302
  917SOL    HW2 2751   2.471   1.922   0.036  0.1048 -0.0313  1.4108
  918SOL     OW 2752   1.975   2.490   2.668  0.3958  0.7109  0.0316
  918SOL    HW1 2753   1.937   2.392   2.674 -1.5671 -3.6783  0.0658
  918SOL    HW2 2754   2.023   2.520   2.754 -0.4260  0.1597 -0.7176
  919SOL     OW 2755   1.445   1.952   1.754 -0.3972  0.2177  0.2618
  919SOL    HW1 2756   1.544   1.924   1.775 -0.7177 -0.3276  0.2222
  919SOL    HW2 2757   1.451   2.021   1.678 -0.2956 -1.8359  0.9974
  920SOL     OW 2758   2.968   0.158   2.715  0.1009 -0.4225 -0.8927
  920SOL    HW1 2759   3.059   0.192   2.680  2.4040  2.5697 -2.4978
  920SOL    HW2 2760   2.890   0.211   2.679  1.8820 -0.0291 -0.3093
  921SOL     OW 2761   2.698   0.288   2.275  0.3231  0.1512  0.4597
  921SOL    HW1 2762   2.747   0.201   2.290 -2.9612  1.9076  0.4017
  921SOL    HW2 2763   2.706   0.325   2.182 -1.7293 -2.0767  1.7842
  922SOL     OW 2764   2.103   2.443   0.317  0.3459 -0.3433 -0.4779
  922SOL    HW1 2765   2.174   2.464   0.247 -1.2479 -1.6008  1.6516
  922SOL    HW2 2766   2.134   2.360   0.370  0.1977 -2.0750 -2.9849
  923SOL     OW 2767   0.319   2.099   0.354 -0.7699 -0.0829  0.2879
  923SOL    HW1 2768   0.331   2.103   0.256  1.8446  1.7741  3.0438
  923SOL    HW2 2769   0.316   2.193   0.389  0.6640 -1.8401 -2.2358
  924SOL     OW 2770   0.823   0.266   0.035  0.0605  0.2356  0.4976
  924SOL    HW1 2771   0.829   0.191   0.106  0.5709 -2.6863  0.4267
  924SOL    HW2 2772   0.880   0.345   0.052 -1.6182  1.6680 -0.5394
  925SOL     OW 2773   2.303   1.004   0.701  0.0970 -0.1620 -0.6473
  925SOL    HW1 2774   2.354   1.048   0.621  1.2945  0.2396  2.2848
  925SOL    HW2 2775   2.303   1.053   0.792 -1.5947  2.6622  1.5434
  926SOL     OW 2776   2.946   0.954   0.999 -0.0298  0.1905 -0.4565
  926SOL    HW1 2777   2.916   0.945   1.097 -1.0649  0.2299  0.0439
  926SOL    HW2 2778   3.044   0.966   0.988  0.1658 -2.1637  0.2484
  927SOL     OW 2779   0.042   1.071   2.968  0.2639  0.3325 -0.8291
  927SOL    HW1 2780   0.129   1.013   2.969  2.3173  0.9314  0.5560
  927SOL    HW2 2781   0.071   1.164   2.946  0.3560 -0.9513  0.1476
  928SOL     OW 2782   0.030   0.334   2.281 -0.4584  0.0896 -0.3932
  928SOL    HW1 2783   0.115   0.392   2.277 -2.8184 -0.8123  1.8457
  928SOL    HW2 2784   0.053   0.236   2.310 -1.3374 -0.5719 -1.1882
  929SOL     OW 2785   0.017   2.798   1.233 -0.0871 -0.3424 -0.3279
  929SOL    HW1 2786   0.015   2.896   1.222 -0.6715 -1.7811  1.8788
  929SOL    HW2 2787   0.040   2.748   1.147 -1.8746 -0.3166 -0.9092
  930SOL     OW 2788   2.021   1.684   1.652 -0.7954  0.2676  0.1842
  930SOL    HW1 2789   2.059   1.591   1.639 -0.0415  0.0988 -1.4371
  930SOL    HW2 2790   1.931   1.676   1.607  2.4055 -0.5286  0.5341
  931SOL     OW 2791   1.313   1.666   0.708 -0.0211  0.2321  0.0873
  931SOL    HW1 2792   1.401   1.648   0.753 -0.7329  0.5322  1.3112
  931SOL    HW2 2793   1.276   1.760   0.719 -0.4832  1.0624 -2.7410
  932SOL     OW 2794   2.713   1.283   1.099  0.9399  0.0633 -0.2344
  932SOL    HW1 2795   2.671   1.205   1.154 -1.3820 -0.4038  0.4764
  932SOL    HW2 2796   2.641   1.357   1.087 -1.2639  2.9813  0.9292
  933SOL     OW 2797   2.294   1.677   1.440  0.3446  0.5874  0.6170
  933SOL    HW1 2798   2.287   1.695   1.339  1.1427  3.4973  2.7205
  933SOL    HW2 2799   2.309   1.767   1.487  1.0992 -0.2001 -1.7609
  934SOL     OW 2800   1.696   2.821   1.406 -0.3242  0.0809 -0.4325
  934SOL    HW1 2801   1.753   2.777   1.473 -1.2005  0.9664 -4.9088
  934SOL    HW2 2802   1.742   2.814   1.316  0.0510  1.2281 -0.0079
  935SOL     OW 2803   0.328   1.621   0.723  0.3652  0.1754 -0.1718
  935SOL    HW1 2804   0.317   1.726   0.747  2.0823  2.2113  1.5209
  935SOL    HW2 2805   0.413   1.581   0.760 -0.0785  0.5367 -1.4234
  936SOL     OW 2806   3.120   1.318   0.565 -0.0040  0.2307 -0.6632
  936SOL    HW1 2807   3.062   1.234   0.594  1.8144 -2.0632  0.0605
  936SOL    HW2 2808   3.089   1.405   0.608  0.7443  1.5709  1.0309
  937SOL     OW 2809   1.632   2.661   0.934 -0.1247 -0.5589  0.1788
  937SOL    HW1 2810   1.544   2.608   0.941  1.8313 -1.5642 -1.4748
  937SOL    HW2 2811   1.632   2.714   0.845 -0.7397  0.9811  1.8144
  938SOL     OW 2812   2.472   2.416   1.021 -0.4372 -0.0230  0.1338
  938SOL    HW1 2813   2.420   2.455   0.943 -0.2224 -1.5366 -1.4099
  938SOL    HW2 2814   2.463   2.466   1.111 -0.4744 -2.4472  0.8996
  939SOL     OW 2815   0.593   2.075   0.115 -0.5243  0.0121 -0.1564
  939SOL    HW1 2816   0.678   2.111   0.151 -3.1932  1.2367 -2.6229
  939SOL    HW2 2817   0.582   1.978   0.142 -0.6852  1.0111 -0.7716
  940SOL     OW 2818   3.060   0.074   2.964 -0.8166  0.4893  0.4792
  940SOL    HW1 2819   3.114   0.144   3.014  0.4710  1.4458 -0.2748
  940SOL    HW2 2820   3.029   0.106   2.868  1.5001 -0.3105 -0.7046
  941SOL     OW 2821   1.326   0.247   3.085  0.6432  0.2182  0.3763
  941SOL    HW1 2822   1.302   0.151   3.075 -1.8965  2.2660 -0.5167
  941SOL    HW2 2823   1.412   0.270   3.044 -0.8741  0.8829  1.6342
  942SOL     OW 2824   0.964   1.516   1.446 -0.3747 -0.2738 -0.1230
  942SOL    HW1 2825   0.928   1.458   1.519  1.4889  0.6779 -0.7905
  942SOL    HW2 2826   0.959   1.611   1.487 -2.5812 -1.1436  0.7657
  943SOL     OW 2827   1.930   1.380   1.473 -0.5032  0.3335  0.5680
  943SOL    HW1 2828   1.894   1.300   1.523  3.4504  1.8630  0.2277
  943SOL    HW2 2829   2.022   1.400   1.501 -1.7541  0.7513 -1.8302
  944SOL     OW 2830   1.831   0.607   1.608  0.0622  0.2702 -0.4867
  944SOL    HW1 2831   1.781   0.533   1.557 -0.6855  0.3776 -1.5985
  944SOL    HW2 2832   1.924   0.576   1.639 -0.2221  1.7861 -0.5143
  945SOL     OW 2833   3.077   0.067   0.846 -0.3560 -0.3524 -0.4414
  945SOL    HW1 2834   2.995   0.114   0.874  3.4291  0.1578 -1.4102
  945SOL    HW2 2835   0.020   0.089   0.912 -2.2784  1.9749 -4.6957
  946SOL     OW 2836   0.473   0.777   1.616 -0.4333  0.6014  0.0673
  946SOL    HW1 2837   0.403   0.731   1.559  1.7813 -0.8060  0.4814
  946SOL    HW2 2838   0.425   0.820   1.690 -0.3436  0.2682 -0.3864
  947SOL     OW 2839   0.514   2.650   0.773  0.2011 -0.2774  0.4103
  947SOL    HW1 2840   0.432   2.654   0.706  0.3889 -1.7661  0.5380
  947SOL    HW2 2841   0.506   2.588   0.855  0.3200  0.9159  0.9887
  948SOL     OW 2842   2.758   1.238   1.768  0.1478  0.5043 -0.4488
  948SOL    HW1 2843   2.713   1.319   1.724  1.6436 -1.1381  3.5978
  948SOL    HW2 2844   2.835   1.194   1.715  2.1260 -2.2053  0.7059
  949SOL     OW 2845   0.523   1.248   2.621  0.4925  0.0560 -0.2453
  949SOL    HW1 2846   0.575   1.198   2.545 -1.5854  0.1678  1.8521
  949SOL    HW2 2847   0.432   1.283   2.587 -1.0550 -2.3177 -2.5536
  950SOL     OW 2848   0.986   0.593   0.799 -0.3304 -0.3049 -0.4304
  950SOL    HW1 2849   1.039   0.633   0.876 -0.0732 -1.3599  1.3679
  950SOL    HW2 2850   1.022   0.613   0.708  1.2310 -2.8309  1.1916
  951SOL     OW 2851   0.983   2.420   2.234 -0.7332  0.2925 -0.0317
  951SOL    HW1 2852   1.019   2.494   2.171 -0.4875 -0.3524  0.4138
  951SOL    HW2 2853   1.058   2.385   2.290 -1.3388  0.8457 -0.9222
  952SOL     OW 2854   0.628   1.797   0.163  0.4151  0.5173  0.0668
  952SOL    HW1 2855   0.701   1.753   0.217 -2.1414 -0.2882 -0.3714
  952SOL    HW2 2856   0.547   1.739   0.157  0.3466  0.7456 -1.6449
  953SOL     OW 2857   2.120   2.828   2.284  0.5690 -0.3538  0.0136
  953SOL    HW1 2858   2.123   2.932   2.272 -0.6709  2.7644  0.9177
  953SOL    HW2 2859   2.087   2.787   2.196 -1.9425 -0.1380 -1.1375
  954SOL     OW 2860   1.594   1.206   0.757 -0.1369 -0.4727 -0.2520
  954SOL    HW1 2861   1.600   1.268   0.671 -0.3363 -0.8746 -1.9043
  954SOL    HW2 2862   1.497   1.181   0.780 -2.4151 -0.6443  1.7937
  955SOL     OW 2863   0.366   2.251   2.461 -0.0959 -0.0168  0.3912
  955SOL    HW1 2864   0.301   2.286   2.394 -1.9632  1.2774  1.0741
  955SOL    HW2 2865   0.393   2.326   2.526  2.4178  0.4509  1.8356
  956SOL     OW 2866   1.721   0.394   1.469  0.3843  0.3947  0.4094
  956SOL    HW1 2867   1.625   0.366   1.490 -4.1448 -0.0056  0.0245
  956SOL    HW2 2868   1.757   0.337   1.391  0.5256 -0.1786  2.4090
  957SOL     OW 2869   1.864   2.010   2.670 -0.0327 -0.0032 -0.0903
  957SOL    HW1 2870   1.903   1.928   2.623 -1.5232  1.5767 -0.1774
  957SOL    HW2 2871   1.804   1.985   2.749 -0.0345 -0.5549 -1.1633
  958SOL     OW 2872   0.960   2.335   1.168 -0.2054  0.0662 -0.0365
  958SOL    HW1 2873   0.920   2.261   1.115  0.5726  0.8054  1.1872
  958SOL    HW2 2874   0.944   2.431   1.128 -0.4614 -0.6662  1.7478
  959SOL     OW 2875   1.930   2.331   3.051  0.1021  0.6458  0.1925
  959SOL    HW1 2876   1.900   2.327   0.026 -1.8822 -0.3092  2.0222
  959SOL    HW2 2877   1.846   2.335   2.994 -1.7183 -0.0592  0.9932
  960SOL     OW 2878   0.087   0.245   2.642  0.4665  0.0471  0.1218
  960SOL    HW1 2879   0.141   0.162   2.657  0.7405 -2.5819 -0.0105
  960SOL    HW2 2880   0.126   0.329   2.681  0.9994  2.2441 -1.4156
  961SOL     OW 2881   0.885   1.040   2.444 -0.0401  0.2119  0.0841
  961SOL    HW1 2882   0.976   1.055   2.486 -3.3552  2.4934  1.3428
  961SOL    HW2 2883   0.883   0.958   2.383  0.9632  1.2721 -0.6120
  962SOL     OW 2884   1.077   1.194   3.047 -0.4700 -0.0047 -0.2753
  962SOL    HW1 2885   1.170   1.229   3.065 -1.2121  3.2321  0.9319
  962SOL    HW2 2886   1.011   1.236   3.108  2.6993 -0.8994 -1.2736
  963SOL     OW 2887   2.567   1.899   3.028  0.3589 -0.4362  0.4453
  963SOL    HW1 2888   2.625   1.813   3.010  0.6806 -1.0330  0.8022
  963SOL    HW2 2889   2.505   1.924   2.950  1.8492  0.6770  1.6299
  964SOL     OW 2890   1.203   2.526   1.075  0.5272 -0.2180 -0.1985
  964SOL    HW1 2891   1.270   2.563   1.007  1.6868 -0.3969 -0.6902
  964SOL    HW2 2892   1.228   2.432   1.103  1.0017  2.0332  1.5120
  965SOL     OW 2893   1.041   1.617   0.970 -0.3628  0.6400 -0.0386
  965SOL    HW1 2894   0.992   1.639   1.058  0.0544 -0.1946  1.2925
  965SOL    HW2 2895   1.140   1.632   0.980  1.8818  1.1846 -0.9775
  966SOL     OW 2896   0.088   1.567   3.035 -0.2655  0.7361 -0.0114
  966SOL    HW1 2897   0.102   1.643   2.965  0.1991  2.0741  3.0823
  966SOL    HW2 2898   3.120   1.576   3.085  1.9354  1.9422  1.9483
  967SOL     OW 2899   1.761   0.090   1.883 -0.1366  0.1026 -0.0821
  967SOL    HW1 2900   1.790   0.069   1.978  0.8608  0.8244  1.1288
  967SOL    HW2 2901   1.779   0.011   1.823 -0.5129  1.6920 -1.3520
  968SOL     OW 2902   1.678   0.908   0.745  0.0829  0.8217  0.2603
  968SOL    HW1 2903   1.676   0.904   0.845 -2.4044  1.7230 -0.9640
  968SOL    HW2 2904   1.752   0.972   0.716  0.4743 -2.1823  0.3891
  969SOL     OW 2905   0.363   1.226   2.260  0.2561 -0.0602  0.1250
  969SOL    HW1 2906   0.455   1.182   2.245 -1.5110 -3.5093  0.0296
  969SOL    HW2 2907   0.341   1.292   2.188  0.6295 -0.0345  0.5784
  970SOL     OW 2908   2.499   1.461   1.106  0.4457  0.1616  0.4992
  970SOL    HW1 2909   2.413   1.412   1.128  1.4485  1.4090  2.6739
  970SOL    HW2 2910   2.496   1.501   1.017  0.7711 -0.4725  5.9488
  971SOL     OW 2911   0.402   0.085   1.365  0.6593  0.5473  0.0036
  971SOL    HW1 2912   0.502   0.064   1.387 -0.6566  0.1101 -0.7686
  971SOL    HW2 2913   0.360   3.123   1.357  1.2673  1.6693 -0.3481
  972SOL     OW 2914   0.619   0.705   2.666 -0.2353  0.2907 -0.2898
  972SOL    HW1 2915   0.663   0.794   2.684  1.9948  1.6956 -0.4947
  972SOL    HW2 2916   0.686   0.646   2.617  0.6135  1.1246 -1.3139
  973SOL     OW 2917   0.092   1.041   1.028 -0.0228 -0.1516 -0.1328
  973SOL    HW1 2918   0.056   1.084   1.114  1.0770 -0.1280  1.9852
  973SOL    HW2 2919   0.114   1.118   0.965 -0.4351 -1.4694 -1.1062
  974SOL     OW 2920   2.334   0.970   1.892  0.1988  0.1988  0.4419
  974SOL    HW1 2921   2.275   1.022   1.831  0.5023 -1.8123  1.4833
  974SOL    HW2 2922   2.425   0.956   1.846  1.0660  0.9882 -2.4185
  975SOL     OW 2923   2.387   3.094   0.231  0.1665  0.6548 -0.2148
  975SOL    HW1 2924   2.391   3.046   0.141 -0.8947 -1.2702  2.2434
  975SOL    HW2 2925   2.361   3.023   0.303  0.5419  2.9622  1.4403
  976SOL     OW 2926   3.013   1.179   1.662 -0.3188 -0.3592  0.0008
  976SOL    HW1 2927   3.049   1.258   1.610 -0.4539  0.2637 -1.0297
  976SOL    HW2 2928   3.059   1.164   1.753 -0.5129 -0.5885  1.4755
  977SOL     OW 2929   1.021   2.873   3.016  0.2040  0.0065  0.1299
  977SOL    HW1 2930   1.070   2.962   3.018 -0.0855 -1.7052  0.5599
  977SOL    HW2 2931   0.976   2.857   3.106 -0.5098 -1.1393 -1.1043
  978SOL     OW 2932   0.375   1.634   0.185 -0.2800  0.9595 -0.0614
  978SOL    HW1 2933   0.344   1.551   0.131 -2.2446 -0.5551  2.1103
  978SOL    HW2 2934   0.385   1.599   0.280 -1.7791 -0.1640  0.5519
  979SOL     OW 2935   1.502   1.909   1.372 -0.1961  0.0739  0.3241
  979SOL    HW1 2936   1.523   1.988   1.428 -1.9129 -0.1765 -0.9595
  979SOL    HW2 2937   1.559   1.831   1.397 -1.8967  3.4335 -0.7469
  980SOL     OW 2938   0.507   1.367   1.842 -0.1836  0.0158 -0.9301
  980SOL    HW1 2939   0.587   1.394   1.787 -0.5894  1.6950 -0.4520
  980SOL    HW2 2940   0.426   1.342   1.788 -0.9944 -1.2349  0.4818
  981SOL     OW 2941   2.991   1.570   0.115  0.4752 -0.0869  0.3366
  981SOL    HW1 2942   2.936   1.652   0.137 -0.5977  0.0681 -0.5322
  981SOL    HW2 2943   3.064   1.558   0.184  0.4512  0.2322 -1.7060
  982SOL     OW 2944   2.555   2.446   2.610  0.1653  0.9081 -0.2511
  982SOL    HW1 2945   2.467   2.412   2.572 -3.9756 -1.3413  0.8075
  982SOL    HW2 2946   2.564   2.549   2.602 -1.5971  3.7182  3.0138
  983SOL     OW 2947   1.227   0.567   1.532  0.4164  0.0089  0.7291
  983SOL    HW1 2948   1.252   0.633   1.608  0.5741  3.1509  1.1808
  983SOL    HW2 2949   1.154   0.603   1.471 -0.3985  0.7808 -2.1370
  984SOL     OW 2950   1.138   3.108   2.558  0.7015  0.6403 -0.4782
  984SOL    HW1 2951   1.228   0.020   2.587  0.5460 -0.9270 -0.0289
  984SOL    HW2 2952   1.061   0.029   2.613 -3.2813 -0.0518 -0.5727
  985SOL     OW 2953   1.564   2.407   1.581 -0.2959 -0.0717  0.1452
  985SOL    HW1 2954   1.583   2.451   1.670  0.3813  0.3704 -1.3570
  985SOL    HW2 2955   1.616   2.455   1.503 -1.0797  0.1411 -1.2108
  986SOL     OW 2956   2.472   0.019   2.247 -0.1138  0.7136 -0.3460
  986SOL    HW1 2957   2.408   0.014   2.172  2.7648 -2.2004  0.1985
  986SOL    HW2 2958   2.440   0.095   2.310 -2.1622  1.9620 -0.4112
  987SOL     OW 2959   2.440   0.339   2.252 -0.0992  0.6588 -0.1332
  987SOL    HW1 2960   2.543   0.326   2.266  0.3453 -1.0110  2.1294
  987SOL    HW2 2961   2.418   0.430   2.210  0.2174  1.9608 -2.8845
  988SOL     OW 2962   2.679   0.806   2.690 -0.5457  0.0525  0.5801
  988SOL    HW1 2963   2.576   0.806   2.689  1.7310 -1.5454 -1.1017
  988SOL    HW2 2964   2.708   0.817   2.594  0.9405 -0.8551 -0.8873
  989SOL     OW 2965   2.296   2.168   2.307 -0.3247 -0.0479  0.1277
  989SOL    HW1 2966   2.261   2.077   2.286  0.0137 -0.2867  0.2409
  989SOL    HW2 2967   2.398   2.167   2.288  3.2550 -1.3255 -0.2330
  990SOL     OW 2968   0.310   1.160   2.879 -0.2405 -0.0105 -0.2467
  990SOL    HW1 2969   0.233   1.223   2.879  1.3696  1.0051 -1.0524
  990SOL    HW2 2970   0.398   1.208   2.887 -0.9047 -0.1983 -2.6956
  991SOL     OW 2971   0.784   1.638   2.754 -0.9300  0.2485  0.1441
  991SOL    HW1 2972   0.754   1.542   2.736 -1.4243  0.3802 -0.7843
  991SOL    HW2 2973   0.711   1.700   2.786  3.7424  0.1932 -1.1522
  992SOL     OW 2974   3.031   1.915   1.855  0.0399 -0.2905 -0.0803
  992SOL    HW1 2975   3.064   2.009   1.889  0.0338 -0.7410 -1.9895
  992SOL    HW2 2976   3.095   1.890   1.780  0.2994 -1.3697  0.6263
  993SOL     OW 2977   0.398   0.048   0.930 -0.2400  0.0021 -0.3408
  993SOL    HW1 2978   0.436   3.081   0.939  1.0929  1.6904 -2.1110
  993SOL    HW2 2979   0.414   0.089   0.841 -0.3393 -2.7161  4.7097
  994SOL     OW 2980   0.273   1.712   1.460  0.5162 -0.0364  0.3511
  994SOL    HW1 2981   0.352   1.766   1.495 -0.0191 -0.8509 -0.1815
  994SOL    HW2 2982   0.200   1.703   1.534 -0.6930  0.0099  1.8853
  995SOL     OW 2983   2.158   1.473   2.494  0.0878  0.5930 -0.3178
  995SOL    HW1 2984   2.208   1.498   2.572 -0.2927 -3.2089 -1.6482
  995SOL    HW2 2985   2.219   1.484   2.416  0.2842 -1.2659  0.6904
  996SOL     OW 2986   2.129   1.443   2.797  0.0371 -0.4028  0.4794
  996SOL    HW1 2987   2.150   1.542   2.785  0.1477 -1.3554 -0.1703
  996SOL    HW2 2988   2.029   1.424   2.797 -4.5153  2.4185 -0.8436
  997SOL     OW 2989   1.949   0.942   1.776 -0.3315  0.4869  0.3639
  997SOL    HW1 2990   1.924   0.943   1.680 -0.2937  0.2658  0.7908
  997SOL    HW2 2991   1.975   1.040   1.793 -0.5799  1.0032  0.3557
  998SOL     OW 2992   2.255   2.220   1.167  0.1859  0.3028 -0.0758
  998SOL    HW1 2993   2.239   2.130   1.116 -1.3474 -1.4535  0.6681
  998SOL    HW2 2994   2.332   2.281   1.137 -0.4794 -0.5841 -0.5117
  999SOL     OW 2995   2.189   2.331   0.646  0.1972  0.1697  0.4188
  999SOL    HW1 2996   2.199   2.258   0.576  0.9098  1.3881  1.8738
  999SOL    HW2 2997   2.106   2.329   0.707 -0.5360  0.7436 -0.0506
 1000SOL     OW 2998   1.093   2.809   2.567 -0.3302 -0.1983 -0.1167
 1000SOL    HW1 2999   1.111   2.910   2.562 -0.7743  1.8370 -1.7268
 1000SOL    HW2 3000   1.136   2.755   2.642  1.1182 -2.2441  0.2442
   3.12573   3.12573   3.12573
