1000 SPC/Fw water molecules t= 497.00000 step= 497000
 3000
    1SOL     OW    1   2.908   2.764   1.089  0.5320  0.6063 -0.2294
    1SOL    HW1    2   2.976   2.835   1.062 -0.3440  2.5719  1.1803
    1SOL    HW2    3   2.952   2.674   1.067 -0.0291 -1.6798  0.1460
    2SOL     OW    4   2.872   2.575   2.930 -0.1817  0.6244  0.3085
    2SOL    HW1    5   2.957   2.619   2.971  0.9456 -0.0319 -1.3258
    2SOL    HW2    6   2.894   2.480   2.909  1.6961  4.5783 -1.1940
    3SOL     OW    7   1.137   1.959   0.236  0.1839  0.4668 -0.5251
    3SOL    HW1    8   1.098   1.905   0.315  0.8345  1.1705 -0.0725
    3SOL    HW2    9   1.144   2.056   0.263 -0.3647  0.8039  1.9183
    4SOL     OW   10   1.429   2.671   2.721  0.2175 -0.4267  0.0662
    4SOL    HW1   11   1.439   2.727   2.636  0.5384 -0.7333 -2.1965
    4SOL    HW2   12   1.511   2.611   2.736  0.4252 -1.6856  2.6528
    5SOL     OW   13   1.884   0.069   2.925  0.6156  0.1905 -0.5478
    5SOL    HW1   14   1.953   0.002   2.881  0.7367  1.0091 -3.1004
    5SOL    HW2   15   1.927   0.124   2.997  2.6566 -1.2618 -0.3416
    6SOL     OW   16   0.082   1.564   0.943  0.1579  0.7861  0.1325
    6SOL    HW1   17   0.063   1.468   0.961 -0.7592  0.8699 -0.5408
    6SOL    HW2   18   0.127   1.567   0.849  4.0522  0.5169 -0.2551
    7SOL     OW   19   1.044   1.810   0.444  0.3420 -0.4246 -0.4246
    7SOL    HW1   20   1.013   1.713   0.429  1.4031  1.0213 -0.0687
    7SOL    HW2   21   1.089   1.820   0.538  1.2228  0.9816  2.2476
    8SOL     OW   22   0.185   0.607   0.291  1.0782  0.0244  0.1560
    8SOL    HW1   23   0.123   0.524   0.297 -0.5307 -1.1075  0.0348
    8SOL    HW2   24   0.140   0.685   0.338 -0.9936  0.1097 -3.1490
    9SOL     OW   25   3.046   2.642   1.648  0.4549  0.1634  0.0851
    9SOL    HW1   26   0.015   2.683   1.734 -1.5367 -2.0434 -0.2384
    9SOL    HW2   27   3.061   2.715   1.571  1.7985  1.6554  1.3854
   10SOL     OW   28   1.447   1.663   0.275 -0.4335 -0.1431 -0.3928
   10SOL    HW1   29   1.465   1.680   0.175 -1.7727  3.0493 -0.8992
   10SOL    HW2   30   1.424   1.746   0.330 -0.8742 -0.2146 -0.3994
   11SOL     OW   31   1.950   0.260   1.537 -0.5872 -0.4018 -0.0867
   11SOL    HW1   32   2.009   0.290   1.456  2.6108  0.1933  2.0642
   11SOL    HW2   33   1.860   0.314   1.540 -1.1685  1.0854  0.0337
   12SOL     OW   34   0.334   0.770   2.208  0.1947 -0.1249  0.3774
   12SOL    HW1   35   0.270   0.748   2.283 -1.7410 -2.6214 -2.2046
   12SOL    HW2   36   0.367   0.681   2.169 -0.1241  1.8869  0.2060
   13SOL     OW   37   1.922   0.462   0.021  0.1401  0.2087  0.1467
   13SOL    HW1   38   1.913   0.509   0.111  1.1575  1.2635 -2.2265
   13SOL    HW2   39   2.013   0.485   3.058 -1.3569  0.7414  0.8821
   14SOL     OW   40   2.232   2.400   0.014 -0.2732  0.1745  0.4814
   14SOL    HW1   41   2.170   2.335   0.059  1.9397  1.3365  1.1780
   14SOL    HW2   42   2.191   2.446   3.006  2.1034  0.4614  0.2091
   15SOL     OW   43   2.610   2.962   0.074  0.0842 -0.3299 -0.2014
   15SOL    HW1   44   2.645   2.880   0.124 -1.6760  1.9881 -2.8128
   15SOL    HW2   45   2.508   2.977   0.081  0.0555  0.5679  0.1204
   16SOL     OW   46   0.081   0.689   1.257 -0.3389 -0.5652 -0.1114
   16SOL    HW1   47   0.088   0.658   1.350 -1.2150  0.5493 -3.6701
   16SOL    HW2   48   0.165   0.749   1.225  3.0512  0.3156  0.1915
   17SOL     OW   49   0.815   0.227   0.961  0.3587  0.1321 -0.0504
   17SOL    HW1   50   0.777   0.322   0.935 -0.5046  0.6739  1.2035
   17SOL    HW2   51   0.912   0.236   0.989  0.0485 -2.1542 -0.1671
   18SOL     OW   52   2.776   0.284   0.648 -0.0977 -0.4336  0.0800
   18SOL    HW1   53   2.790   0.189   0.685 -2.2572 -1.1134  0.7265
   18SOL    HW2   54   2.864   0.326   0.612  2.4998  2.6011  0.4615
   19SOL     OW   55   2.041   1.963   0.981 -0.1262 -0.1721  0.1500
   19SOL    HW1   56   2.141   1.975   0.983 -3.8405  0.6674  1.0610
   19SOL    HW2   57   2.007   1.869   0.964 -1.7053 -3.8469  1.7189
   20SOL     OW   58   2.142   1.577   2.077 -0.4858  0.1733 -0.3930
   20SOL    HW1   59   2.154   1.603   2.176  0.0273  0.1435  1.4654
   20SOL    HW2   60   2.128   1.661   2.022  1.5818  0.8036 -0.1135
   21SOL     OW   61   1.065   0.333   0.385  0.1687  0.0900  0.6252
   21SOL    HW1   62   1.022   0.303   0.300  1.6466  3.1138  0.2642
   21SOL    HW2   63   1.144   0.394   0.374 -0.6454  1.3490 -0.1904
   22SOL     OW   64   2.218   1.068   2.934  0.0618 -0.9230  0.9095
   22SOL    HW1   65   2.304   1.012   2.928  1.2771 -2.0865 -2.6887
   22SOL    HW2   66   2.131   1.012   2.928  0.3996 -0.2908 -1.9478
   23SOL     OW   67   0.076   0.219   2.165  0.6615  0.0564 -0.3559
   23SOL    HW1   68   0.126   0.134   2.163 -4.3479  3.0513  2.2730
   23SOL    HW2   69   0.117   0.286   2.225  0.3916 -1.2147 -0.9711
   24SOL     OW   70   2.166   2.258   1.087  0.2997 -0.3987 -0.1421
   24SOL    HW1   71   2.170   2.360   1.094 -1.2096 -0.3829 -0.4611
   24SOL    HW2   72   2.115   2.214   1.161 -0.7816 -3.2032  0.9128
   25SOL     OW   73   1.407   0.254   0.138 -0.0467  0.1173 -0.1401
   25SOL    HW1   74   1.317   0.203   0.116 -4.2455 -0.4560 -1.3588
   25SOL    HW2   75   1.487   0.186   0.140  2.3993 -0.5924  0.5245
   26SOL     OW   76   1.438   2.757   2.975  0.4832  0.0253 -0.6302
   26SOL    HW1   77   1.459   2.687   3.042  2.1109  2.1963 -0.8851
   26SOL    HW2   78   1.434   2.717   2.884  1.8465 -0.3703  0.3194
   27SOL     OW   79   0.811   0.690   1.412 -0.0887  0.6807 -0.1628
   27SOL    HW1   80   0.778   0.594   1.421 -1.6553  0.5342 -0.6442
   27SOL    HW2   81   0.732   0.754   1.414  1.9678  0.3251  1.4995
   28SOL     OW   82   0.703   1.912   1.447  0.1983 -0.6134 -0.0933
   28SOL    HW1   83   0.734   1.843   1.380  0.7832  1.2542  0.9132
   28SOL    HW2   84   0.761   1.906   1.532  1.1534  1.6534  1.1130
   29SOL     OW   85   2.496   0.460   0.484 -0.2754  0.3155 -0.0915
   29SOL    HW1   86   2.565   0.520   0.430  2.2811 -1.3910  1.5880
   29SOL    HW2   87   2.530   0.450   0.581 -0.7261  1.7311  0.7947
   30SOL     OW   88   1.469   0.139   1.638  0.2399 -0.0791 -0.3841
   30SOL    HW1   89   1.392   0.141   1.703  1.2405  2.4826  1.2076
   30SOL    HW2   90   1.431   0.137   1.545 -0.3599 -1.0208  3.0267
   31SOL     OW   91   1.065   0.254   1.260  0.0867  0.0291  0.4259
   31SOL    HW1   92   1.092   0.342   1.304 -0.5496  0.3281 -0.8236
   31SOL    HW2   93   0.981   0.222   1.305  0.9935 -1.2396 -0.2905
   32SOL     OW   94   2.197   0.896   2.199 -0.2796 -0.0578  0.0675
   32SOL    HW1   95   2.272   0.956   2.225 -1.5727 -0.5394 -1.6634
   32SOL    HW2   96   2.231   0.841   2.120 -0.4572 -3.1829  0.9408
   33SOL     OW   97   2.363   2.578   2.674  0.9375 -0.2071  0.1810
   33SOL    HW1   98   2.385   2.509   2.741 -0.3243 -0.0357 -0.3744
   33SOL    HW2   99   2.322   2.541   2.589 -2.7091  0.9471  0.3770
   34SOL     OW  100   2.022   1.009   0.102 -0.0290 -0.0885 -0.5268
   34SOL    HW1  101   2.115   1.031   0.137 -1.2206 -0.2909  1.4408
   34SOL    HW2  102   2.024   0.975   0.006 -1.9361  2.0313 -0.5938
   35SOL     OW  103   2.890   1.004   1.156 -0.1235 -0.0581 -0.2192
   35SOL    HW1  104   2.903   0.940   1.080  2.7464  0.6974 -1.3811
   35SOL    HW2  105   2.897   1.104   1.133  1.4032  0.8889 -0.3451
   36SOL     OW  106   1.998   2.297   2.506 -0.0900  0.1935 -0.1770
   36SOL    HW1  107   1.923   2.311   2.433 -0.4067 -1.2700 -2.3366
   36SOL    HW2  108   2.058   2.217   2.473  1.2122 -4.0835  0.2927
   37SOL     OW  109   1.632   3.001   2.258 -0.2748 -0.1020 -0.3136
   37SOL    HW1  110   1.677   2.956   2.177 -1.1641  3.5744  0.3269
   37SOL    HW2  111   1.684   2.996   2.346 -0.2810  0.1417 -1.1310
   38SOL     OW  112   1.193   1.630   2.430 -0.4950 -0.5646  0.0508
   38SOL    HW1  113   1.163   1.677   2.513  0.7286 -1.9370 -2.2068
   38SOL    HW2  114   1.225   1.699   2.365 -0.9754  1.7420 -1.3312
   39SOL     OW  115   1.697   0.354   1.564  0.0241  0.3328 -0.1931
   39SOL    HW1  116   1.666   0.439   1.608  1.2117 -1.8709 -0.4800
   39SOL    HW2  117   1.629   0.279   1.583  2.7005  0.0083 -1.3987
   40SOL     OW  118   0.557   2.027   0.430 -0.3727 -0.2398 -0.1258
   40SOL    HW1  119   0.536   2.019   0.328  0.3741  2.6962  1.1118
   40SOL    HW2  120   0.586   2.121   0.456  0.1512 -0.4623 -3.9565
   41SOL     OW  121   2.359   2.409   1.547 -0.0711 -0.0289  0.1893
   41SOL    HW1  122   2.383   2.436   1.451  0.4697  2.4645  1.0360
   41SOL    HW2  123   2.419   2.329   1.577  1.5514  0.4624  0.8661
   42SOL     OW  124   2.482   2.541   0.595  0.0998  0.0522  0.4539
   42SOL    HW1  125   2.495   2.626   0.536  3.6336  3.4689 -3.9110
   42SOL    HW2  126   2.443   2.465   0.532  1.6929  0.1052 -1.4238
   43SOL     OW  127   0.805   1.843   1.957 -0.4807 -0.1337  0.1181
   43SOL    HW1  128   0.816   1.942   1.982 -0.7241  2.5618 -0.8270
   43SOL    HW2  129   0.853   1.772   2.013 -0.0258 -0.7872  2.1261
   44SOL     OW  130   1.784   2.876   1.197  0.2321  0.3353  0.0934
   44SOL    HW1  131   1.750   2.974   1.203 -0.7066  0.4128 -1.1103
   44SOL    HW2  132   1.725   2.820   1.141  0.6091 -0.0784 -2.6642
   45SOL     OW  133   3.017   2.533   2.298  0.3890  0.2793 -0.5849
   45SOL    HW1  134   2.973   2.476   2.375 -0.5349  0.1473 -0.1137
   45SOL    HW2  135   0.020   2.594   2.333 -2.1041  0.0381  1.5285
   46SOL     OW  136   0.905   2.712   1.791 -0.2014 -0.0354  0.1461
   46SOL    HW1  137   0.850   2.627   1.793  1.7913  0.3677  0.2566
   46SOL    HW2  138   0.863   2.768   1.719 -0.0432 -0.0069 -0.7368
   47SOL     OW  139   0.178   2.178   0.594 -0.1384 -0.1526  0.0298
   47SOL    HW1  140   0.203   2.150   0.497  0.6561 -2.8944 -1.5806
   47SOL    HW2  141   0.174   2.099   0.653 -1.2304  0.6539  1.7228
   48SOL     OW  142   0.757   2.848   1.582 -0.2131  0.8910  0.6911
   48SOL    HW1  143   0.669   2.811   1.613  2.5005 -2.8079  0.4526
   48SOL    HW2  144   0.759   2.950   1.616 -0.0486  1.7765  1.9080
   49SOL     OW  145   0.562   0.096   0.087  0.1854  0.5247 -0.1472
   49SOL    HW1  146   0.529   0.167   0.023  0.9275 -1.0244 -0.8675
   49SOL    HW2  147   0.510   0.010   0.067  1.9389 -2.2652 -1.1553
   50SOL     OW  148   1.585   1.151   0.692  0.2211 -0.0273  0.0922
   50SOL    HW1  149   1.516   1.082   0.731  3.1668 -0.0689 -0.4919
   50SOL    HW2  150   1.678   1.134   0.724 -2.6838 -1.3324 -1.8507
   51SOL     OW  151   1.795   3.021   0.867  0.4172  0.0196  0.0064
   51SOL    HW1  152   1.777   2.930   0.822 -0.3173 -3.7263 -0.9506
   51SOL    HW2  153   1.709   0.004   0.880 -0.3427 -2.7170 -1.5955
   52SOL     OW  154   0.659   1.678   1.038 -0.2499 -0.3094  0.3490
   52SOL    HW1  155   0.702   1.688   0.946 -1.4059 -2.6241  0.2971
   52SOL    HW2  156   0.615   1.582   1.049 -1.9640  0.3701  1.4709
   53SOL     OW  157   0.115   0.769   2.820  0.5332  0.0604  0.2803
   53SOL    HW1  158   0.100   0.776   2.921  0.0062  3.3678 -0.3190
   53SOL    HW2  159   0.028   0.748   2.773  0.1909  0.8515  0.2040
   54SOL     OW  160   2.188   1.951   2.805 -0.5037 -0.1317 -0.5850
   54SOL    HW1  161   2.174   1.919   2.901 -2.0572  1.0804  2.2349
   54SOL    HW2  162   2.250   2.031   2.803  3.3680 -1.2051  2.5289
   55SOL     OW  163   2.669   2.138   1.339 -0.2714 -0.0554  0.0849
   55SOL    HW1  164   2.581   2.112   1.294 -4.8992 -0.3620 -0.6850
   55SOL    HW2  165   2.653   2.167   1.432 -0.9675 -2.3217 -0.8897
   56SOL     OW  166   1.785   1.143   1.442 -0.2351 -0.4761 -0.2737
   56SOL    HW1  167   1.888   1.153   1.441 -0.5567  0.9609  0.4388
   56SOL    HW2  168   1.733   1.232   1.436 -1.0930  2.6517 -2.9753
   57SOL     OW  169   2.405   1.939   0.787 -0.0810 -0.6239 -0.1434
   57SOL    HW1  170   2.365   1.943   0.882 -1.6246  1.7093  1.6298
   57SOL    HW2  171   2.504   1.968   0.789  2.8629  0.5550 -0.0740
   58SOL     OW  172   1.871   0.179   2.262 -0.0097  0.6734  0.1381
   58SOL    HW1  173   1.952   0.198   2.320  1.5413  1.9148  0.6473
   58SOL    HW2  174   1.904   0.144   2.172  3.7487 -0.9114  0.0768
   59SOL     OW  175   1.479   0.381   2.457 -0.4096 -0.4502  0.1124
   59SOL    HW1  176   1.525   0.296   2.426  1.2455  0.4461  1.2193
   59SOL    HW2  177   1.517   0.466   2.413  1.2812  2.8443  1.6586
   60SOL     OW  178   1.887   1.779   2.981  0.3311 -0.2792 -0.2489
   60SOL    HW1  179   1.875   1.695   2.928 -1.0529 -0.3440  2.7090
   60SOL    HW2  180   1.822   1.850   2.942 -1.3834  1.1455  1.6551
   61SOL     OW  181   0.379   2.231   3.033  0.2257  0.0363  0.1292
   61SOL    HW1  182   0.361   2.212   2.933 -3.7060 -2.5518 -1.1346
   61SOL    HW2  183   0.299   2.282   3.067 -1.1207  0.4783  1.5083
   62SOL     OW  184   1.489   2.545   1.183 -0.4945  0.7234 -0.0332
   62SOL    HW1  185   1.468   2.445   1.190  1.1380 -2.5732 -1.0920
   62SOL    HW2  186   1.471   2.595   1.270  0.2037 -0.6980  0.6672
   63SOL     OW  187   0.381   1.827   0.542 -0.4263 -0.0731  0.0295
   63SOL    HW1  188   0.442   1.744   0.547  0.7880 -1.0107 -1.2202
   63SOL    HW2  189   0.439   1.904   0.508  0.4568 -1.2224  0.8044
   64SOL     OW  190   1.805   1.762   2.559 -0.0321  0.2585  0.1455
   64SOL    HW1  191   1.904   1.736   2.585  1.2813  1.3312  0.0638
   64SOL    HW2  192   1.795   1.761   2.458 -1.3792 -0.7727 -1.6283
   65SOL     OW  193   1.922   1.911   1.585 -0.1145  0.2348 -0.2841
   65SOL    HW1  194   1.820   1.908   1.568 -1.4194  1.0920  1.1735
   65SOL    HW2  195   1.980   1.892   1.503  0.8445  0.4059 -1.7109
   66SOL     OW  196   2.564   0.138   0.533 -0.3260  0.0373 -0.1150
   66SOL    HW1  197   2.624   0.211   0.574 -1.6456  0.5923  1.1305
   66SOL    HW2  198   2.508   0.109   0.608 -1.0989  1.9326 -0.3277
   67SOL     OW  199   2.163   2.536   1.104 -0.2353 -0.2032 -0.1375
   67SOL    HW1  200   2.084   2.588   1.150 -2.4691 -0.5530 -0.8133
   67SOL    HW2  201   2.202   2.586   1.022  1.3462 -0.4954 -1.2305
   68SOL     OW  202   2.648   2.608   1.401 -0.3404 -0.2276  0.0687
   68SOL    HW1  203   2.591   2.622   1.482  1.0336 -1.9688 -0.3882
   68SOL    HW2  204   2.681   2.701   1.374 -0.7163  0.7985 -0.6781
   69SOL     OW  205   2.588   2.563   2.877  0.2836  0.3612 -0.6360
   69SOL    HW1  206   2.685   2.590   2.888 -0.1881  1.4750  0.2583
   69SOL    HW2  207   2.532   2.622   2.937  0.3389  3.5673  0.0055
   70SOL     OW  208   1.289   1.846   2.302 -0.2615 -0.1438  0.5071
   70SOL    HW1  209   1.239   1.937   2.297 -1.1880 -0.3448 -1.0874
   70SOL    HW2  210   1.383   1.855   2.343  1.2171 -2.6083  1.6010
   71SOL     OW  211   1.111   2.102   1.797 -0.4475  0.0051 -0.9085
   71SOL    HW1  212   1.023   2.122   1.836  1.1389 -1.2548 -1.5980
   71SOL    HW2  213   1.187   2.149   1.848 -1.1177  0.5747  0.7586
   72SOL     OW  214   2.675   0.987   1.524  0.4518  0.0703  0.1868
   72SOL    HW1  215   2.769   1.012   1.549 -0.1619 -1.0274 -0.0830
   72SOL    HW2  216   2.615   0.940   1.594 -1.8168 -0.4862  0.1483
   73SOL     OW  217   0.501   2.057   2.337 -0.8986 -0.4930 -0.2326
   73SOL    HW1  218   0.587   2.034   2.289 -2.8514  1.0550  0.6372
   73SOL    HW2  219   0.438   2.100   2.270 -0.3057  1.3614  0.2899
   74SOL     OW  220   0.890   0.174   2.485  0.6661  0.3092  0.0053
   74SOL    HW1  221   0.915   0.075   2.500 -0.8610  0.8028  0.6542
   74SOL    HW2  222   0.915   0.202   2.393 -3.8901 -0.6773  1.3073
   75SOL     OW  223   1.096   2.681   0.708  0.0269 -0.9259  0.0188
   75SOL    HW1  224   1.187   2.677   0.751 -0.8416 -2.4295  1.4336
   75SOL    HW2  225   1.099   2.667   0.610  0.8672  0.5800  3.4516
   76SOL     OW  226   0.404   1.171   2.439  0.1078  0.5491  1.0539
   76SOL    HW1  227   0.481   1.214   2.489 -0.1398  1.2697 -2.5832
   76SOL    HW2  228   0.318   1.215   2.469 -0.2218 -1.8925  0.3968
   77SOL     OW  229   0.659   2.514   0.677  0.0470  0.1418 -0.1349
   77SOL    HW1  230   0.573   2.507   0.728 -2.4485 -0.1723  0.7412
   77SOL    HW2  231   0.713   2.597   0.707 -0.2306  1.3439  0.4897
   78SOL     OW  232   2.593   1.031   2.730  0.0905  0.3971  0.0446
   78SOL    HW1  233   2.555   0.935   2.730 -0.4144  0.0597  2.5957
   78SOL    HW2  234   2.519   1.098   2.711  1.7226  0.4367  1.0140
   79SOL     OW  235   0.844   1.468   2.258 -0.2294 -0.3306 -0.0869
   79SOL    HW1  236   0.795   1.529   2.319  0.8860 -2.1172 -1.8673
   79SOL    HW2  237   0.897   1.527   2.191 -0.4956  1.6348 -4.0750
   80SOL     OW  238   2.254   1.012   1.371  0.1902  0.0013 -0.1202
   80SOL    HW1  239   2.320   0.980   1.296  2.4394  1.4666 -1.5380
   80SOL    HW2  240   2.265   0.942   1.444  2.8798  2.3841 -2.3008
   81SOL     OW  241   2.177   1.120   2.595  0.2185 -0.5586  0.0204
   81SOL    HW1  242   2.144   1.106   2.687  0.0596  1.3615  1.3114
   81SOL    HW2  243   2.155   1.036   2.535 -1.5611 -0.6659 -0.5766
   82SOL     OW  244   2.405   1.991   1.471 -0.5116 -0.1018 -0.5488
   82SOL    HW1  245   2.331   2.062   1.464  1.1018 -0.1179 -2.4920
   82SOL    HW2  246   2.368   1.899   1.453  0.7629  1.0682 -1.8135
   83SOL     OW  247   1.656   2.940   0.580 -0.2429 -0.7153  0.0801
   83SOL    HW1  248   1.596   2.967   0.655 -0.8860 -1.6865  0.1038
   83SOL    HW2  249   1.622   2.982   0.497  1.0021 -2.2686  1.2670
   84SOL     OW  250   0.913   0.494   0.689  0.2487  0.2478  0.6907
   84SOL    HW1  251   0.990   0.430   0.693 -1.8120  0.1060  2.1170
   84SOL    HW2  252   0.881   0.522   0.780  1.5987  0.6711 -2.1022
   85SOL     OW  253   2.443   1.685   1.075  0.0028 -0.5305 -0.0119
   85SOL    HW1  254   2.542   1.695   1.106 -1.1526 -1.4977  1.2744
   85SOL    HW2  255   2.395   1.604   1.115  1.0200 -0.4089  0.4960
   86SOL     OW  256   0.526   0.666   1.119 -0.2529  0.3242 -0.2871
   86SOL    HW1  257   0.500   0.671   1.218 -0.2523 -2.9910  1.0729
   86SOL    HW2  258   0.445   0.642   1.064 -0.2842 -0.4714  1.8974
   87SOL     OW  259   0.095   1.883   2.512  0.7518  0.5739  0.1461
   87SOL    HW1  260   0.146   1.880   2.429 -1.7220 -0.5632 -0.1814
   87SOL    HW2  261   0.003   1.837   2.504 -1.8778  0.0187  0.8769
   88SOL     OW  262   0.358   0.057   2.906 -0.1451 -0.7567  0.5870
   88SOL    HW1  263   0.441   0.079   2.849 -0.0105 -0.7547 -1.1235
   88SOL    HW2  264   0.302   3.063   2.853 -2.1244 -1.1539 -1.2561
   89SOL     OW  265   1.543   0.783   0.943  0.3799 -0.6011  0.2937
   89SOL    HW1  266   1.559   0.883   0.972  0.1028  2.2148  2.1940
   89SOL    HW2  267   1.442   0.760   0.945 -0.1305  1.2321  1.0614
   90SOL     OW  268   0.049   0.966   1.646  0.7715  0.4785 -0.2043
   90SOL    HW1  269   0.115   0.921   1.582  0.8958 -0.6265  0.5667
   90SOL    HW2  270   0.019   0.901   1.719  1.8006 -2.0107 -0.4386
   91SOL     OW  271   1.943   2.579   0.724  0.6190 -0.3145 -0.1648
   91SOL    HW1  272   1.974   2.519   0.649 -0.6301 -1.5650 -0.0695
   91SOL    HW2  273   1.915   2.514   0.797  1.8554 -2.7035  1.6705
   92SOL     OW  274   1.802   2.299   0.405 -0.0524  0.1447 -0.2042
   92SOL    HW1  275   1.894   2.325   0.438  0.4571  2.3150  1.5796
   92SOL    HW2  276   1.724   2.332   0.465 -1.2108 -1.1978 -1.4140
   93SOL     OW  277   0.328   1.337   0.177 -0.5800 -0.2771  0.4439
   93SOL    HW1  278   0.319   1.250   0.228  2.6125  1.3081 -2.4485
   93SOL    HW2  279   0.329   1.416   0.237 -2.5811 -0.8222 -3.0787
   94SOL     OW  280   0.776   2.048   1.076 -0.6118  0.1767  0.4766
   94SOL    HW1  281   0.865   2.089   1.099 -0.9484  1.4005  1.4046
   94SOL    HW2  282   0.711   2.118   1.038  1.7503 -0.6780 -1.2854
   95SOL     OW  283   0.545   0.923   0.123  0.9063  0.1033 -0.0530
   95SOL    HW1  284   0.593   1.001   0.163 -2.3219  0.2293 -2.3980
   95SOL    HW2  285   0.518   0.857   0.194 -4.5126  1.9383 -0.3934
   96SOL     OW  286   1.178   2.486   2.398  0.1317  0.1643  0.7128
   96SOL    HW1  287   1.113   2.562   2.402 -0.7307 -0.1284 -0.0538
   96SOL    HW2  288   1.169   2.437   2.312 -3.0789 -0.1008 -0.2841
   97SOL     OW  289   2.579   0.873   0.359  0.0146  0.6802  0.6056
   97SOL    HW1  290   2.486   0.882   0.311 -0.9976  3.6380 -2.3242
   97SOL    HW2  291   2.641   0.945   0.323 -1.4836  0.5352  2.2146
   98SOL     OW  292   0.215   1.811   1.893 -0.1536 -0.1723  0.0150
   98SOL    HW1  293   0.207   1.879   1.821  3.4858 -1.0892  2.3255
   98SOL    HW2  294   0.279   1.843   1.965  1.6319 -0.4454 -1.0363
   99SOL     OW  295   0.212   0.658   1.897 -0.1562  0.1250  0.0975
   99SOL    HW1  296   0.285   0.609   1.951  1.9440 -1.6117  0.1812
   99SOL    HW2  297   0.247   0.737   1.843  1.0761 -0.0425  0.5282
  100SOL     OW  298   1.902   0.675   2.448 -0.1058 -0.0819 -0.3804
  100SOL    HW1  299   1.881   0.607   2.377  0.8959  0.9057 -0.0884
  100SOL    HW2  300   1.824   0.739   2.462 -0.2176  1.7929  3.3266
  101SOL     OW  301   0.793   0.437   2.094 -0.1865  0.0401 -0.0634
  101SOL    HW1  302   0.886   0.470   2.112  1.4627 -1.9102 -1.3339
  101SOL    HW2  303   0.754   0.392   2.176 -1.4763 -0.7364 -0.3895
  102SOL     OW  304   0.248   0.438   1.701  0.7872 -0.3968  0.4059
  102SOL    HW1  305   0.324   0.501   1.723 -2.7799  0.7400 -0.1555
  102SOL    HW2  306   0.260   0.355   1.763 -1.6897 -0.9754 -0.2993
  103SOL     OW  307   0.304   0.559   0.019  0.2767  0.2100 -0.1813
  103SOL    HW1  308   0.259   0.544   0.109  0.4030 -0.5565  0.8573
  103SOL    HW2  309   0.371   0.636   0.020 -3.3211  0.6870 -0.2803
  104SOL     OW  310   0.570   2.712   1.724  0.0986 -0.4966 -0.2318
  104SOL    HW1  311   0.500   2.647   1.695 -0.9756 -2.1007 -0.6005
  104SOL    HW2  312   0.619   2.678   1.811 -0.1462  2.1387 -1.1109
  105SOL     OW  313   2.489   2.654   2.001  0.4489 -0.0525 -0.5881
  105SOL    HW1  314   2.574   2.618   1.963 -0.7064 -0.6197 -1.5033
  105SOL    HW2  315   2.469   2.745   1.966  1.9747 -1.1134 -0.9057
  106SOL     OW  316   0.544   2.918   0.813  0.4606 -0.6206  0.3665
  106SOL    HW1  317   0.572   3.013   0.840 -2.1389  1.7091 -2.5231
  106SOL    HW2  318   0.576   2.895   0.724  1.9837  1.6553  2.8765
  107SOL     OW  319   0.091   1.277   1.017  0.2613  0.3697 -0.1376
  107SOL    HW1  320   0.017   1.273   1.087  0.8409  2.3237 -0.8437
  107SOL    HW2  321   0.186   1.286   1.054 -0.8003  1.0754  0.3733
  108SOL     OW  322   0.278   2.473   1.164  0.1939  0.0625 -0.0715
  108SOL    HW1  323   0.267   2.444   1.068  0.0343  2.6833 -0.4663
  108SOL    HW2  324   0.285   2.388   1.222  0.0449  0.2257  2.8647
  109SOL     OW  325   1.225   2.826   0.143  0.1610 -0.0099 -0.6479
  109SOL    HW1  326   1.328   2.830   0.137 -0.1017 -2.1310 -1.3904
  109SOL    HW2  327   1.202   2.729   0.168 -1.5772  0.9547  0.4704
  110SOL     OW  328   1.476   1.965   0.501  0.8564  0.2539  0.2386
  110SOL    HW1  329   1.507   2.026   0.425  2.8150 -0.8799  0.2617
  110SOL    HW2  330   1.411   2.009   0.567 -0.9049  2.5633  1.7066
  111SOL     OW  331   1.754   2.901   2.043 -0.4807  0.3063 -0.1743
  111SOL    HW1  332   1.758   2.830   1.967  0.4800  1.1664 -1.6593
  111SOL    HW2  333   1.848   2.938   2.055 -0.9644 -0.2538  1.4057
  112SOL     OW  334   1.957   2.499   2.673 -0.8378 -0.0158 -0.2549
  112SOL    HW1  335   1.980   2.421   2.612  3.6487  1.7977 -0.6302
  112SOL    HW2  336   1.985   2.580   2.623 -2.6581 -0.4854 -1.9202
  113SOL     OW  337   2.573   1.929   2.051  0.5096 -0.0939  0.7531
  113SOL    HW1  338   2.564   2.008   2.121 -2.3806 -1.7530  1.3821
  113SOL    HW2  339   2.505   1.936   1.974 -0.9003  1.5874 -0.4834
  114SOL     OW  340   0.114   1.227   1.605 -0.4238  0.0444 -0.2826
  114SOL    HW1  341   0.098   1.131   1.633 -0.4315  0.4286 -1.4255
  114SOL    HW2  342   0.044   1.295   1.646 -1.4130  1.3772  1.8605
  115SOL     OW  343   0.031   0.821   0.015  0.1419  0.2340 -0.1950
  115SOL    HW1  344   3.059   0.756   0.080 -3.0847  0.0412 -1.2681
  115SOL    HW2  345   0.119   0.858   0.054  0.4367  1.7454 -2.0768
  116SOL     OW  346   2.726   0.396   2.963 -0.2092 -0.1148 -0.4885
  116SOL    HW1  347   2.719   0.462   2.888 -0.3067 -2.7731 -0.7498
  116SOL    HW2  348   2.727   0.302   2.930 -0.9943 -2.4489  0.6168
  117SOL     OW  349   2.924   2.740   0.652  0.2012  0.1734 -0.5303
  117SOL    HW1  350   2.936   2.690   0.564 -0.3740  0.8227 -1.6257
  117SOL    HW2  351   2.843   2.695   0.703  1.6569 -0.3233 -0.0185
  118SOL     OW  352   1.151   2.300   2.148  0.0723 -0.2879  0.3666
  118SOL    HW1  353   1.205   2.313   2.067 -2.1964 -0.3760  2.1531
  118SOL    HW2  354   1.049   2.296   2.127  1.3301  0.1002 -2.7862
  119SOL     OW  355   0.644   2.767   2.939  0.2969 -0.5067 -0.0124
  119SOL    HW1  356   0.714   2.696   2.957 -1.4456  1.0854 -0.6918
  119SOL    HW2  357   0.585   2.777   3.022 -0.8162 -2.0592  1.8138
  120SOL     OW  358   1.311   1.031   0.038  0.2226  0.0866  0.2298
  120SOL    HW1  359   1.306   0.979   0.126  1.2352  0.9789  0.6431
  120SOL    HW2  360   1.220   1.072   0.013 -2.0445 -0.0710  1.1729
  121SOL     OW  361   1.438   1.247   1.118 -0.0351 -0.3140 -0.3658
  121SOL    HW1  362   1.408   1.226   1.214 -0.6375 -2.0894  0.2611
  121SOL    HW2  363   1.451   1.347   1.107  0.1314 -3.9713  0.6331
  122SOL     OW  364   1.899   1.235   2.089  0.3726 -0.1011  0.0395
  122SOL    HW1  365   1.848   1.206   2.007 -2.0342  1.4211 -0.5046
  122SOL    HW2  366   1.918   1.158   2.152 -1.5975 -1.8936 -1.6833
  123SOL     OW  367   2.923   0.657   0.535 -0.6379 -0.0922 -0.2294
  123SOL    HW1  368   2.970   0.739   0.579  1.2929 -1.2437 -0.8678
  123SOL    HW2  369   2.972   0.571   0.552 -1.3348  1.1032 -0.6446
  124SOL     OW  370   0.781   0.566   2.825  1.1016 -0.2941 -0.5048
  124SOL    HW1  371   0.736   0.559   2.920 -0.1224 -1.3928  1.9362
  124SOL    HW2  372   0.707   0.556   2.755 -1.4348  0.3817 -1.0969
  125SOL     OW  373   0.534   2.938   2.562 -0.2727  0.0833 -0.2856
  125SOL    HW1  374   0.527   2.993   2.648 -0.9149  2.0726  1.1413
  125SOL    HW2  375   0.511   2.840   2.582  0.7314  0.6705  0.3044
  126SOL     OW  376   0.776   1.491   2.654 -0.5191 -0.7916 -0.2581
  126SOL    HW1  377   0.876   1.498   2.679  2.4600  0.8367  1.2806
  126SOL    HW2  378   0.764   1.554   2.574 -0.3469 -0.1797  1.1501
  127SOL     OW  379   1.185   2.892   1.265  0.0896 -0.1658  0.1737
  127SOL    HW1  380   1.130   2.939   1.336 -0.8113 -2.3976 -0.0945
  127SOL    HW2  381   1.143   2.892   1.175  0.7409 -0.9842  1.9523
  128SOL     OW  382   1.602   2.096   0.312  0.2850 -0.1204  0.0645
  128SOL    HW1  383   1.562   2.121   0.222 -3.0449 -0.9283  1.1660
  128SOL    HW2  384   1.648   2.177   0.358  1.2658  3.9292  2.9374
  129SOL     OW  385   1.858   1.649   1.246 -0.4527 -0.6651 -0.1162
  129SOL    HW1  386   1.896   1.615   1.157  1.2789 -0.0841 -3.6668
  129SOL    HW2  387   1.805   1.733   1.223 -1.3929  0.6239 -0.7205
  130SOL     OW  388   2.079   1.828   1.358 -0.1910  0.6995 -0.0213
  130SOL    HW1  389   2.149   1.775   1.415  6.7815  0.9172 -1.3880
  130SOL    HW2  390   2.013   1.758   1.317 -0.1058 -2.7926  1.5712
  131SOL     OW  391   1.179   2.908   2.071  0.1846 -0.1414  0.1875
  131SOL    HW1  392   1.267   2.868   2.093 -2.5396 -0.3992 -2.5939
  131SOL    HW2  393   1.109   2.833   2.084 -0.5470 -1.3183 -0.2741
  132SOL     OW  394   2.632   1.517   0.706  0.0894  0.0835  0.1144
  132SOL    HW1  395   2.608   1.500   0.611 -0.4171  1.5907  1.3457
  132SOL    HW2  396   2.553   1.555   0.757 -0.4208 -0.6869 -0.0217
  133SOL     OW  397   0.706   1.555   1.681  0.1010  0.0206  0.6193
  133SOL    HW1  398   0.724   1.462   1.728 -0.5933  0.1475 -0.2152
  133SOL    HW2  399   0.613   1.580   1.700  2.9019 -4.5617 -0.6823
  134SOL     OW  400   2.989   0.941   0.585 -0.4094  0.7654  0.1786
  134SOL    HW1  401   2.902   0.973   0.542  1.7690  0.5096 -2.6638
  134SOL    HW2  402   3.000   0.979   0.679 -0.1256 -2.4596  2.4528
  135SOL     OW  403   2.157   1.870   3.052 -0.7591  0.1154 -0.4782
  135SOL    HW1  404   2.221   1.792   3.048 -1.3886  1.7427 -0.7371
  135SOL    HW2  405   2.060   1.838   3.044 -1.6830 -0.2981  0.4155
  136SOL     OW  406   2.901   1.319   1.391  0.8569  0.2766  0.0449
  136SOL    HW1  407   2.923   1.238   1.449 -0.2659 -0.7153 -0.4631
  136SOL    HW2  408   2.797   1.326   1.375 -3.0098 -1.2784 -1.6149
  137SOL     OW  409   2.416   1.236   2.672 -0.0780  0.1454 -0.2169
  137SOL    HW1  410   2.334   1.207   2.618 -2.8935  1.1034 -0.1608
  137SOL    HW2  411   2.383   1.267   2.765  2.6420  1.4521 -0.1834
  138SOL     OW  412   0.106   0.442   1.023 -0.0465 -0.1615  0.3930
  138SOL    HW1  413   0.035   0.468   0.959  1.6626 -3.3222  1.6262
  138SOL    HW2  414   0.069   0.438   1.119  1.3646  2.2842  3.9108
  139SOL     OW  415   1.836   2.110   0.011  0.2483 -0.1168  0.7544
  139SOL    HW1  416   1.795   2.071   0.093  1.1311  2.0242  1.3958
  139SOL    HW2  417   1.810   2.061   2.995  0.0140 -1.1583 -1.3798
  140SOL     OW  418   0.919   1.188   0.969  0.3413  0.4109 -0.1279
  140SOL    HW1  419   0.987   1.263   0.986  3.0347  1.0864  0.8113
  140SOL    HW2  420   0.829   1.225   0.935 -1.9756 -0.5258  0.8830
  141SOL     OW  421   1.375   1.671   0.784  0.4385  0.3281 -0.4613
  141SOL    HW1  422   1.325   1.599   0.732  3.3868 -1.5004 -0.9170
  141SOL    HW2  423   1.474   1.688   0.753  1.6187 -0.9216 -1.5967
  142SOL     OW  424   0.879   1.029   1.200  0.1108  0.1665 -0.2977
  142SOL    HW1  425   0.869   1.101   1.129 -0.0874  2.8196 -1.5048
  142SOL    HW2  426   0.880   0.936   1.154  1.5769 -1.2182 -0.6394
  143SOL     OW  427   0.352   0.245   2.566  0.3115  0.2465  0.5547
  143SOL    HW1  428   0.436   0.291   2.540 -2.4703  0.9104  2.2531
  143SOL    HW2  429   0.294   0.305   2.625  2.1924  0.0059  1.3909
  144SOL     OW  430   2.187   0.075   0.325  0.2337 -0.5599  0.4205
  144SOL    HW1  431   2.277   0.114   0.297 -1.0414 -1.0905 -0.4468
  144SOL    HW2  432   2.111   0.135   0.291 -2.5955  1.9613 -0.6859
  145SOL     OW  433   2.091   2.963   2.838 -0.1223 -0.3037 -0.5290
  145SOL    HW1  434   2.065   2.980   2.742 -0.4433 -1.0919  1.4388
  145SOL    HW2  435   2.121   2.869   2.853  1.8144  2.0481  0.6081
  146SOL     OW  436   0.016   3.062   0.322 -0.1596 -0.2993  0.2998
  146SOL    HW1  437   0.119   3.037   0.321 -1.3542  0.2892 -2.4137
  146SOL    HW2  438   3.034   2.988   0.277  3.0236 -1.2899  0.7750
  147SOL     OW  439   2.110   1.132   0.463  0.4732 -0.2394 -0.0249
  147SOL    HW1  440   2.087   1.177   0.551 -1.0427  0.2697  1.8477
  147SOL    HW2  441   2.086   1.181   0.374  2.7933 -0.4437 -2.2999
  148SOL     OW  442   1.168   2.733   0.442 -0.5626  0.1510 -0.2890
  148SOL    HW1  443   1.142   2.822   0.411  1.5823 -0.1448  1.3843
  148SOL    HW2  444   1.187   2.673   0.360  0.7875 -1.0466 -1.0862
  149SOL     OW  445   1.310   0.724   2.449  0.0427  0.1610 -0.3165
  149SOL    HW1  446   1.236   0.657   2.474  0.5390  0.0816 -1.3656
  149SOL    HW2  447   1.362   0.743   2.531 -1.1773  0.3031 -0.5640
  150SOL     OW  448   1.126   2.818   2.562 -0.1454 -0.2979  0.3701
  150SOL    HW1  449   1.225   2.798   2.550  1.7895  1.9854  0.3022
  150SOL    HW2  450   1.101   2.836   2.660 -0.6172 -0.1403  0.8558
  151SOL     OW  451   0.311   1.036   2.947 -0.0351  0.2919  0.1168
  151SOL    HW1  452   0.402   0.990   2.939  0.9595 -2.1080  0.9416
  151SOL    HW2  453   0.278   1.011   3.038  1.6170 -1.7021  0.1392
  152SOL     OW  454   0.533   0.106   1.573 -0.3541  0.3802  0.3445
  152SOL    HW1  455   0.486   0.164   1.641  2.6342  0.4567 -1.5772
  152SOL    HW2  456   0.459   0.061   1.514 -0.3981 -1.8484  1.5997
  153SOL     OW  457   2.845   2.920   1.564  0.0401 -0.2293  0.9218
  153SOL    HW1  458   2.776   2.883   1.637 -0.9226 -0.2889  2.2295
  153SOL    HW2  459   2.857   3.021   1.570 -2.8576  3.9720  1.8041
  154SOL     OW  460   2.292   0.247   2.027 -0.2797  0.0617  0.3507
  154SOL    HW1  461   2.308   0.264   1.931 -2.9706 -1.8015  1.8890
  154SOL    HW2  462   2.295   0.338   2.075 -1.8057 -0.6995  1.1839
  155SOL     OW  463   0.744   1.138   0.252 -0.1215 -0.0310 -0.4908
  155SOL    HW1  464   0.814   1.092   0.193  2.1548 -1.4365  0.8203
  155SOL    HW2  465   0.694   1.205   0.195  0.5518  0.3870  1.8098
  156SOL     OW  466   2.174   1.468   0.363  0.0195  0.0127  0.1948
  156SOL    HW1  467   2.182   1.440   0.464  2.5915 -0.4254  1.7767
  156SOL    HW2  468   2.082   1.427   0.332 -2.1152 -0.6401  1.3078
  157SOL     OW  469   0.873   1.938   0.143  0.4800  0.1308  0.2286
  157SOL    HW1  470   0.837   1.843   0.151  1.7596  0.9130  0.2264
  157SOL    HW2  471   0.969   1.941   0.169 -3.2777  1.3582 -0.7561
  158SOL     OW  472   1.926   0.852   1.826  0.0008  0.5336  0.4386
  158SOL    HW1  473   1.932   0.767   1.766  0.1663 -1.2840 -1.4045
  158SOL    HW2  474   1.923   0.827   1.924 -0.9483  0.2456 -2.6892
  159SOL     OW  475   0.369   0.085   0.566 -0.6927 -0.9800  0.4961
  159SOL    HW1  476   0.323   0.000   0.591  1.3296 -0.6548  0.5826
  159SOL    HW2  477   0.408   0.088   0.470  6.1446 -2.4135  0.6053
  160SOL     OW  478   2.351   1.263   1.501 -0.6220  0.6591  0.0305
  160SOL    HW1  479   2.311   1.176   1.459 -1.2642 -1.6819 -0.4459
  160SOL    HW2  480   2.348   1.259   1.603 -0.2747  0.0453  0.5581
  161SOL     OW  481   0.235   3.024   0.034  0.0720  0.0535  0.4938
  161SOL    HW1  482   0.142   3.062   0.014  2.2394 -2.8543 -1.0769
  161SOL    HW2  483   0.298   3.072   3.043 -1.0367 -0.1626  0.5297
  162SOL     OW  484   3.012   0.783   2.448  0.3994  0.0452  0.2732
  162SOL    HW1  485   3.010   0.884   2.472 -0.0678  1.2241  2.3940
  162SOL    HW2  486   2.938   0.730   2.499 -1.5404 -0.6253 -2.7956
  163SOL     OW  487   2.837   2.731   2.689 -0.3140  0.0862  0.2286
  163SOL    HW1  488   2.857   2.669   2.767 -1.0167 -0.1494 -2.5917
  163SOL    HW2  489   2.737   2.744   2.684  2.3019  0.0371  2.9414
  164SOL     OW  490   2.711   2.085   0.456  0.0679  0.4931 -0.3250
  164SOL    HW1  491   2.614   2.072   0.471  1.9086 -0.2741 -0.3364
  164SOL    HW2  492   2.745   2.173   0.498 -0.2352  0.6197  1.7205
  165SOL     OW  493   1.078   0.703   1.487  0.3929  0.0910  0.3815
  165SOL    HW1  494   1.147   0.720   1.414  0.5858 -2.4830  0.7411
  165SOL    HW2  495   0.992   0.758   1.470  2.2744  2.1481 -1.1729
  166SOL     OW  496   2.987   0.350   0.497  0.3068 -0.1758 -0.2278
  166SOL    HW1  497   0.016   0.368   0.493  1.0042  0.1014 -0.5257
  166SOL    HW2  498   2.948   0.328   0.401  0.6562  0.9162 -2.1997
  167SOL     OW  499   1.993   0.608   1.064 -0.1779 -0.2188 -0.4150
  167SOL    HW1  500   2.040   0.678   1.003  0.4095 -1.6863 -0.8141
  167SOL    HW2  501   2.048   0.592   1.148 -0.4853 -1.6967 -0.2990
  168SOL     OW  502   1.040   0.502   2.153 -0.0503  0.3832  0.3637
  168SOL    HW1  503   1.140   0.489   2.175  3.0516 -0.5135  1.6118
  168SOL    HW2  504   0.997   0.559   2.224  1.7022  1.0236 -0.6801
  169SOL     OW  505   1.187   1.920   1.434 -0.2365  0.1385  0.2754
  169SOL    HW1  506   1.161   1.855   1.357  0.3693 -2.7498 -1.3239
  169SOL    HW2  507   1.122   1.911   1.513 -1.1262 -1.3622 -0.6911
  170SOL     OW  508   0.037   2.805   1.443 -0.6674  0.2955 -0.5939
  170SOL    HW1  509   0.121   2.853   1.474 -1.6482 -0.4556  1.1848
  170SOL    HW2  510   3.068   2.855   1.359 -1.8596  1.5622 -2.5518
  171SOL     OW  511   2.692   0.583   2.302  0.4178 -0.0831  0.0316
  171SOL    HW1  512   2.697   0.550   2.398  1.2705  0.4388  1.7772
  171SOL    HW2  513   2.693   0.506   2.237 -1.1371  0.7867 -2.6469
  172SOL     OW  514   1.191   2.940   1.646  0.5804 -0.0331  0.5050
  172SOL    HW1  515   1.169   2.995   1.727  0.0541 -0.4205  1.6312
  172SOL    HW2  516   1.131   2.974   1.572  0.3205  1.6520  0.1062
  173SOL     OW  517   2.406   2.132   2.775  0.1446  0.0847 -0.1309
  173SOL    HW1  518   2.434   2.058   2.838  0.8840  0.2814 -1.2593
  173SOL    HW2  519   2.420   2.227   2.812 -0.7754  0.4345  1.4005
  174SOL     OW  520   1.546   0.999   0.359 -0.2080 -0.0453 -0.1974
  174SOL    HW1  521   1.530   1.094   0.399 -0.4839 -0.2295  1.0054
  174SOL    HW2  522   1.460   0.952   0.359 -0.2086  0.5576 -2.0333
  175SOL     OW  523   1.039   1.321   1.493  0.1678  0.0127  0.2674
  175SOL    HW1  524   1.099   1.307   1.577  0.7032  0.6238  1.7684
  175SOL    HW2  525   1.065   1.268   1.409  0.7044  0.7432  0.1706
  176SOL     OW  526   0.062   0.086   0.690  0.0009  0.1396 -0.1337
  176SOL    HW1  527   0.135   0.022   0.724  1.6609  0.1990 -3.5066
  176SOL    HW2  528   3.054   0.031   0.660  0.5929  0.2984 -2.3379
  177SOL     OW  529   2.754   1.117   2.936  0.6473 -0.4031  0.7116
  177SOL    HW1  530   2.850   1.083   2.937  0.1575 -1.4986 -0.1311
  177SOL    HW2  531   2.701   1.081   2.859  0.7406  0.2590  0.6304
  178SOL     OW  532   2.732   2.597   1.913  0.3125 -0.4402  0.0128
  178SOL    HW1  533   2.787   2.616   2.000  1.0148 -1.7172 -1.0272
  178SOL    HW2  534   2.793   2.559   1.847 -1.6743  1.0233  0.5106
  179SOL     OW  535   2.221   2.886   0.362 -0.1281  0.1555  0.9014
  179SOL    HW1  536   2.201   2.983   0.352 -1.0952 -0.5101 -1.0220
  179SOL    HW2  537   2.163   2.851   0.440 -0.9240 -1.1966 -1.3252
  180SOL     OW  538   1.935   0.823   0.720  0.3072  0.4164 -0.1321
  180SOL    HW1  539   1.933   0.720   0.719  0.4890 -2.3811 -0.8025
  180SOL    HW2  540   1.956   0.866   0.632  1.9561 -0.3223  2.0310
  181SOL     OW  541   2.972   0.414   2.392 -0.6949  0.5399 -0.8116
  181SOL    HW1  542   3.068   0.392   2.371 -2.1160 -0.3786 -0.7863
  181SOL    HW2  543   2.934   0.483   2.328 -0.2845  2.0933 -0.7725
  182SOL     OW  544   2.841   1.907   2.129 -0.1972 -0.0130 -0.0109
  182SOL    HW1  545   2.833   1.878   2.230  1.3633 -1.3820  3.4436
  182SOL    HW2  546   2.749   1.920   2.086 -0.3889  1.4837 -1.2872
  183SOL     OW  547   3.066   0.827   1.892  0.2606  0.3706  0.0323
  183SOL    HW1  548   0.035   0.870   1.973 -1.1340 -0.5006 -2.2326
  183SOL    HW2  549   0.032   0.734   1.891 -1.9720  0.9982  2.3753
  184SOL     OW  550   0.323   1.240   1.120  0.2122  0.1067 -0.0853
  184SOL    HW1  551   0.312   1.284   1.211 -1.2577 -2.4629 -3.4493
  184SOL    HW2  552   0.378   1.155   1.131  2.7492 -1.7304  1.3605
  185SOL     OW  553   2.969   2.496   1.142  0.3340 -0.1899  0.5437
  185SOL    HW1  554   3.056   2.507   1.093  0.2734  0.4893  2.0925
  185SOL    HW2  555   2.976   2.517   1.243 -0.8981  0.0315 -0.2025
  186SOL     OW  556   1.707   2.819   2.981  0.1925  0.0082  0.0270
  186SOL    HW1  557   1.609   2.788   2.991 -1.4950  1.1020 -1.8286
  186SOL    HW2  558   1.718   2.913   2.947  1.0590 -2.4869 -0.5741
  187SOL     OW  559   0.133   1.203   0.673  0.1583  0.4019  0.7017
  187SOL    HW1  560   0.108   1.114   0.712  0.6857  0.4880 -0.7185
  187SOL    HW2  561   0.234   1.209   0.660  1.5108 -3.3997  1.3977
  188SOL     OW  562   1.897   1.775   0.181  0.0708  0.3469 -0.0063
  188SOL    HW1  563   1.914   1.764   0.080  1.1930 -0.6850 -2.9924
  188SOL    HW2  564   1.894   1.876   0.207 -1.1127  0.7755  0.7330
  189SOL     OW  565   0.158   1.614   0.017  0.1317 -0.4108  0.3416
  189SOL    HW1  566   0.098   1.561   0.082  1.3325 -1.5159  1.8092
  189SOL    HW2  567   0.191   1.549   3.016 -0.6252 -1.9108  0.1144
  190SOL     OW  568   2.485   0.292   2.469 -0.5150  0.0185 -0.0357
  190SOL    HW1  569   2.480   0.243   2.561 -0.2585 -0.1474  0.6880
  190SOL    HW2  570   2.464   0.233   2.390  0.1252  2.7045  1.4303
  191SOL     OW  571   0.775   1.060   1.842 -0.0978 -0.8232 -0.2969
  191SOL    HW1  572   0.792   0.999   1.919  0.1302  1.0693  1.1266
  191SOL    HW2  573   0.828   1.020   1.759 -2.1391 -0.7198  0.2078
  192SOL     OW  574   2.182   0.974   1.775  0.1251  0.5481 -0.0641
  192SOL    HW1  575   2.103   0.926   1.821 -0.3091 -1.9844 -4.4926
  192SOL    HW2  576   2.215   0.905   1.705  0.5834 -2.7389 -4.4573
  193SOL     OW  577   1.003   2.821   1.044  0.3042 -0.0135  0.3889
  193SOL    HW1  578   0.913   2.857   1.075  0.2613  0.2729  1.9491
  193SOL    HW2  579   1.010   2.826   0.944 -4.3481 -0.8470 -0.4564
  194SOL     OW  580   1.439   1.737   1.390 -0.3669 -0.0254  0.6621
  194SOL    HW1  581   1.434   1.691   1.301 -1.0151 -1.4691 -0.4560
  194SOL    HW2  582   1.377   1.692   1.456 -0.5878 -2.9850 -2.2727
  195SOL     OW  583   1.780   0.596   0.892  0.2451 -0.8667 -0.1733
  195SOL    HW1  584   1.709   0.664   0.912 -0.1226 -0.6386  0.8026
  195SOL    HW2  585   1.869   0.607   0.946  4.0438 -0.5215  1.9593
  196SOL     OW  586   1.197   1.786   2.065  0.1162  0.0060  0.5400
  196SOL    HW1  587   1.239   1.853   1.998 -0.1938  2.2140  0.7991
  196SOL    HW2  588   1.234   1.801   2.156 -0.5659 -0.6132 -2.6829
  197SOL     OW  589   2.568   3.015   2.862 -0.6445  0.4645  0.4012
  197SOL    HW1  590   2.577   2.928   2.807 -0.8212 -0.5183 -1.1204
  197SOL    HW2  591   2.572   2.993   2.961 -1.5435  1.3856  0.2907
  198SOL     OW  592   2.996   0.595   0.867  0.1753  0.1993  0.4629
  198SOL    HW1  593   0.005   0.571   0.803 -2.1890  0.4060 -2.4776
  198SOL    HW2  594   2.911   0.621   0.816 -0.5059 -2.3599 -2.3080
  199SOL     OW  595   0.470   1.914   1.100 -0.2340 -0.1066  0.1585
  199SOL    HW1  596   0.556   1.867   1.072  2.2257 -0.9386  0.4836
  199SOL    HW2  597   0.483   2.012   1.099  1.1258  0.0966 -0.3771
  200SOL     OW  598   2.819   1.809   0.025  0.0771  0.8106  0.0991
  200SOL    HW1  599   2.813   1.902   0.060 -0.7330 -2.5376 -0.6494
  200SOL    HW2  600   2.735   1.757   0.055 -1.1984 -1.6576 -0.5769
  201SOL     OW  601   1.262   2.560   1.437  0.4587  0.0405 -0.1726
  201SOL    HW1  602   1.360   2.580   1.442  0.2646 -0.2851  0.5720
  201SOL    HW2  603   1.236   2.522   1.528 -0.3804  0.4808 -0.6312
  202SOL     OW  604   1.019   2.804   2.825 -0.1904  0.4161 -0.8691
  202SOL    HW1  605   1.029   2.892   2.876 -0.8762  1.9242  1.9379
  202SOL    HW2  606   1.025   2.720   2.883 -0.0266  0.0333  1.9554
  203SOL     OW  607   1.393   3.021   2.994  0.6341  0.3409  0.6401
  203SOL    HW1  608   1.356   0.006   2.912 -2.1815  1.1345 -0.3557
  203SOL    HW2  609   1.394   2.920   2.980  0.0117  2.1826  1.3717
  204SOL     OW  610   0.325   1.672   1.386  0.2489  0.5189  0.1201
  204SOL    HW1  611   0.333   1.644   1.293 -0.3439  0.4886  5.1014
  204SOL    HW2  612   0.354   1.594   1.443  2.7239 -2.1139 -2.7493
  205SOL     OW  613   1.720   1.050   1.973  0.2314 -0.3162  0.3032
  205SOL    HW1  614   1.761   0.956   1.960  0.6186 -1.0194  1.6599
  205SOL    HW2  615   1.621   1.040   1.952 -1.3381  0.3728  0.0050
  206SOL     OW  616   3.050   1.836   2.980  0.4191 -0.5288  0.6328
  206SOL    HW1  617   0.048   1.776   3.027  2.4906  1.9040  2.6356
  206SOL    HW2  618   2.952   1.818   3.016 -1.2941 -0.8079 -0.9370
  207SOL     OW  619   0.471   2.155   1.902 -0.2008 -0.4713  0.0252
  207SOL    HW1  620   0.525   2.074   1.873  0.2810 -1.5225  0.2743
  207SOL    HW2  621   0.412   2.193   1.829 -1.4405  1.8692  0.7810
  208SOL     OW  622   0.580   2.155   0.793  0.7030  0.1825  0.2520
  208SOL    HW1  623   0.509   2.204   0.737 -2.0030  0.7464 -1.2266
  208SOL    HW2  624   0.568   2.179   0.894 -0.5763  2.0486  1.6789
  209SOL     OW  625   1.002   2.680   2.362  0.5301 -0.2065 -0.0776
  209SOL    HW1  626   1.012   2.699   2.262 -1.2730 -0.1012 -1.7105
  209SOL    HW2  627   1.051   2.742   2.426 -0.5520 -0.4172 -0.6606
  210SOL     OW  628   2.683   1.391   1.659  0.5318  0.1074  0.0076
  210SOL    HW1  629   2.648   1.475   1.702  2.1491  0.8106 -0.6240
  210SOL    HW2  630   2.687   1.321   1.736  2.7221  2.4708 -1.2506
  211SOL     OW  631   1.277   0.193   1.894 -0.0777 -0.1208 -0.0089
  211SOL    HW1  632   1.208   0.119   1.907 -1.3752  0.0216  1.6793
  211SOL    HW2  633   1.314   0.212   1.989 -3.1398 -1.5313  3.2664
  212SOL     OW  634   1.812   2.687   1.845 -0.2566 -0.1986 -0.2204
  212SOL    HW1  635   1.761   2.599   1.828 -1.8169 -0.9551 -0.8938
  212SOL    HW2  636   1.830   2.731   1.757  2.0789 -2.1251  3.1900
  213SOL     OW  637   3.030   0.147   1.737 -0.2387 -0.5013 -0.3159
  213SOL    HW1  638   2.971   0.200   1.678 -3.3115  1.5592  1.4048
  213SOL    HW2  639   0.016   0.207   1.794 -2.2775 -2.3152 -0.1209
  214SOL     OW  640   1.034   2.140   1.052 -0.0447  0.0925  0.4738
  214SOL    HW1  641   1.060   2.102   1.141 -0.5708 -0.1800 -3.4985
  214SOL    HW2  642   1.116   2.167   1.001 -1.0917 -0.9087 -0.6571
  215SOL     OW  643   2.605   2.264   0.797 -0.8643 -0.2807  0.4181
  215SOL    HW1  644   2.515   2.310   0.817 -0.3061 -0.3991  0.9431
  215SOL    HW2  645   2.675   2.309   0.850 -2.9960 -0.5568  1.0267
  216SOL     OW  646   0.346   0.834   1.741 -0.1638  0.1835  0.3272
  216SOL    HW1  647   0.348   0.937   1.750 -0.8123  0.5840  1.0043
  216SOL    HW2  648   0.303   0.807   1.652  1.8923  0.1454 -0.3250
  217SOL     OW  649   2.342   0.086   1.642 -0.0082 -0.1463 -0.0097
  217SOL    HW1  650   2.275   0.085   1.562 -0.2144 -2.0703 -2.0546
  217SOL    HW2  651   2.389   3.068   1.639  2.3695  1.0558  1.6010
  218SOL     OW  652   1.720   2.438   1.722 -0.2070  0.9864 -0.3350
  218SOL    HW1  653   1.662   2.393   1.654  3.0226  2.7645 -0.1711
  218SOL    HW2  654   1.718   2.389   1.812 -0.7665  0.6172  0.5976
  219SOL     OW  655   1.789   2.388   2.991 -0.2041 -0.0315 -0.1293
  219SOL    HW1  656   1.889   2.405   2.990 -1.5667 -1.6092  2.2586
  219SOL    HW2  657   1.768   2.312   3.053  1.2701 -1.3370 -1.6263
  220SOL     OW  658   1.498   3.023   0.363  0.2772  0.5247  0.0080
  220SOL    HW1  659   1.501   0.008   0.280  1.9518 -0.9255  0.8732
  220SOL    HW2  660   1.473   2.925   0.334 -1.2352 -3.2678 -0.7805
  221SOL     OW  661   0.306   2.275   1.372  0.0071  0.0392  0.1428
  221SOL    HW1  662   0.213   2.271   1.416 -3.4988 -0.8063  0.1281
  221SOL    HW2  663   0.377   2.320   1.433 -0.9205  1.2464  1.1883
  222SOL     OW  664   1.964   2.660   1.239 -0.5345 -0.6652  0.7494
  222SOL    HW1  665   1.922   2.752   1.253 -0.7480  0.1170 -0.0079
  222SOL    HW2  666   2.042   2.654   1.306  1.5975  1.0310 -0.6623
  223SOL     OW  667   1.367   0.469   1.476 -0.0692 -0.5367  0.2041
  223SOL    HW1  668   1.319   0.415   1.551 -2.8937  2.0329 -0.5505
  223SOL    HW2  669   1.306   0.546   1.442 -1.3579 -0.1190 -0.1152
  224SOL     OW  670   0.010   2.287   1.403  0.3370  0.5018 -0.4208
  224SOL    HW1  671   0.011   2.386   1.389  1.3498 -1.7870  0.4455
  224SOL    HW2  672   3.009   2.259   1.470 -0.8616 -3.2283 -0.5093
  225SOL     OW  673   2.613   1.997   1.086  0.7122 -0.3993  0.4163
  225SOL    HW1  674   2.562   2.082   1.114 -1.6387  1.4598 -0.6076
  225SOL    HW2  675   2.651   1.996   0.992  0.5668 -0.6929  1.2743
  226SOL     OW  676   1.507   2.154   0.057  0.4019  0.2781  0.5296
  226SOL    HW1  677   1.465   2.062   0.025  0.3858 -2.3081 -1.4882
  226SOL    HW2  678   1.440   2.229   0.047 -0.2999  0.5324  2.6699
  227SOL     OW  679   1.832   1.364   0.684  0.1993  0.4196  0.4007
  227SOL    HW1  680   1.784   1.445   0.727  1.3391 -3.3963  0.9369
  227SOL    HW2  681   1.835   1.283   0.746  1.0903 -0.5657 -1.3273
  228SOL     OW  682   1.962   0.896   0.449 -0.0958 -0.5260 -0.0591
  228SOL    HW1  683   2.034   0.839   0.404  1.0431 -0.8779  1.2192
  228SOL    HW2  684   1.999   0.992   0.456  0.4700  3.8112  2.5341
  229SOL     OW  685   2.667   1.198   1.874  0.2279  0.1959 -0.0497
  229SOL    HW1  686   2.568   1.186   1.891 -2.0341  0.7371  0.3798
  229SOL    HW2  687   2.721   1.112   1.874 -0.6864  1.3882  1.4682
  230SOL     OW  688   0.279   0.932   1.237 -0.2127 -0.8885 -0.5603
  230SOL    HW1  689   0.220   1.003   1.194  2.2160  1.6581 -1.5903
  230SOL    HW2  690   0.377   0.962   1.244  0.9275  0.0994 -0.0522
  231SOL     OW  691   1.784   0.421   2.679 -0.2615 -0.0584 -0.1197
  231SOL    HW1  692   1.721   0.434   2.757  0.1153  2.1236 -1.7121
  231SOL    HW2  693   1.873   0.460   2.696  1.5907  1.9758  1.0922
  232SOL     OW  694   0.002   1.753   1.153 -0.2148  0.0097 -0.2444
  232SOL    HW1  695   0.014   1.691   1.231 -0.4834  0.9806  0.6854
  232SOL    HW2  696   0.045   1.703   1.071 -0.9367  0.4457 -2.4532
  233SOL     OW  697   1.653   2.869   2.695  0.4947 -0.2523 -0.6142
  233SOL    HW1  698   1.693   2.825   2.779  2.4109 -2.0744 -1.8940
  233SOL    HW2  699   1.613   2.960   2.714  0.8735  0.2924  1.7493
  234SOL     OW  700   1.518   2.641   1.461 -0.3743 -0.2579  0.0960
  234SOL    HW1  701   1.502   2.730   1.506  2.3664  0.0495 -1.7569
  234SOL    HW2  702   1.616   2.613   1.479  1.3111 -0.8253 -1.4020
  235SOL     OW  703   0.788   1.367   1.482 -0.1015 -0.2668 -0.2920
  235SOL    HW1  704   0.772   1.464   1.518 -0.4432  0.4085  0.4657
  235SOL    HW2  705   0.892   1.344   1.477  2.6333 -0.1152  0.7770
  236SOL     OW  706   0.459   2.718   2.716 -0.1809 -0.0033  0.2154
  236SOL    HW1  707   0.446   2.617   2.699 -2.2384 -0.7813  1.5974
  236SOL    HW2  708   0.530   2.734   2.785 -1.8141  1.3618 -1.5719
  237SOL     OW  709   0.404   0.028   2.048  0.2453  0.6582 -0.3106
  237SOL    HW1  710   0.494   0.029   2.101 -0.2337  0.9971 -0.7991
  237SOL    HW2  711   0.388   3.007   2.004 -0.1569 -0.2599 -0.2654
  238SOL     OW  712   0.733   0.482   0.469  0.4691  0.8733 -0.0393
  238SOL    HW1  713   0.711   0.390   0.428  0.0600 -0.1239  1.4218
  238SOL    HW2  714   0.796   0.469   0.548  1.0183  2.2848 -0.6209
  239SOL     OW  715   2.511   0.789   2.704 -0.1331 -0.2657 -0.4645
  239SOL    HW1  716   2.472   0.797   2.611  0.2798  0.6141 -0.6079
  239SOL    HW2  717   2.433   0.773   2.772  1.0187 -2.2259 -0.2558
  240SOL     OW  718   2.914   2.182   0.940 -0.1835  0.0021  0.1550
  240SOL    HW1  719   2.898   2.091   0.898  0.9201  0.2810  2.3389
  240SOL    HW2  720   2.927   2.179   1.044 -2.8615 -0.5715 -2.4379
  241SOL     OW  721   1.148   1.819   0.687 -0.4979  0.9745 -0.0195
  241SOL    HW1  722   1.217   1.749   0.715 -2.2367 -3.3351  0.1699
  241SOL    HW2  723   1.183   1.914   0.681 -1.3129 -3.1066 -1.5906
  242SOL     OW  724   0.830   0.132   0.631  0.5114  0.2092  0.2484
  242SOL    HW1  725   0.904   0.203   0.633 -0.7033  0.2710 -2.6278
  242SOL    HW2  726   0.734   0.168   0.638 -0.1117 -0.4320  1.5472
  243SOL     OW  727   0.306   0.315   1.266 -0.9303 -0.0259 -0.1102
  243SOL    HW1  728   0.209   0.342   1.270 -1.6252  0.7093  0.7830
  243SOL    HW2  729   0.331   0.284   1.175 -1.6186  2.0728  1.4123
  244SOL     OW  730   0.691   2.854   0.577  0.3197  0.0524 -0.5621
  244SOL    HW1  731   0.735   2.790   0.643  1.4441 -0.5505  0.9470
  244SOL    HW2  732   0.752   2.920   0.522  0.2419  3.2311 -4.6383
  245SOL     OW  733   2.720   1.072   0.234  0.4929  0.0289  0.2354
  245SOL    HW1  734   2.746   0.985   0.177 -0.8758 -2.0130 -0.3880
  245SOL    HW2  735   2.762   1.152   0.191 -0.5751  1.0154  0.9355
  246SOL     OW  736   0.478   2.720   1.462 -0.0489  0.3216  0.1410
  246SOL    HW1  737   0.426   2.806   1.494 -1.2187  3.6199 -1.2188
  246SOL    HW2  738   0.490   2.729   1.357  2.0068 -2.9320 -0.5742
  247SOL     OW  739   0.810   0.088   1.962 -0.2119  0.0066 -0.0528
  247SOL    HW1  740   0.767   0.048   2.049 -1.2558 -0.8662  1.1689
  247SOL    HW2  741   0.765   0.172   1.933  0.8855  1.3470  1.7400
  248SOL     OW  742   0.416   1.891   2.061  0.0160 -0.1716 -0.6857
  248SOL    HW1  743   0.469   1.951   1.996 -1.1540 -1.5398 -0.0814
  248SOL    HW2  744   0.474   1.814   2.094  0.0530 -1.1653  2.7684
  249SOL     OW  745   1.010   2.115   0.587  0.1073 -0.4149  0.3456
  249SOL    HW1  746   0.925   2.069   0.612 -2.5446  1.5634  2.3399
  249SOL    HW2  747   1.011   2.207   0.630  1.2317  2.5746  1.4974
  250SOL     OW  748   0.662   3.025   2.142  0.8777  0.1301  0.2771
  250SOL    HW1  749   0.630   2.925   2.132 -2.6763 -2.9210  4.0552
  250SOL    HW2  750   0.638   3.059   2.230  0.4966 -2.4644 -2.3397
  251SOL     OW  751   2.600   1.905   1.688 -0.1419 -0.1373  0.7682
  251SOL    HW1  752   2.530   1.862   1.745  2.0790  1.4524  0.5601
  251SOL    HW2  753   2.619   1.840   1.616 -1.4396  0.5789  0.9662
  252SOL     OW  754   1.278   0.382   1.718 -0.4796  0.7742 -0.0749
  252SOL    HW1  755   1.200   0.448   1.739 -0.9908 -0.1579  0.8678
  252SOL    HW2  756   1.292   0.311   1.795 -0.8160 -2.4814  3.0840
  253SOL     OW  757   2.459   1.710   2.498 -1.2241  0.8074 -0.1334
  253SOL    HW1  758   2.470   1.638   2.421 -2.3044 -2.0632 -0.3162
  253SOL    HW2  759   2.426   1.795   2.454  2.2889 -0.2343 -1.6874
  254SOL     OW  760   0.504   1.082   0.869 -0.0642 -0.6148  0.0262
  254SOL    HW1  761   0.562   1.162   0.848 -0.7089  0.0084 -0.7190
  254SOL    HW2  762   0.552   1.015   0.928 -4.0384  0.1609 -0.3491
  255SOL     OW  763   0.018   2.393   1.790 -0.4846 -0.5859  0.0175
  255SOL    HW1  764   3.019   2.341   1.838 -0.5939 -0.0367  1.1137
  255SOL    HW2  765   3.054   2.468   1.733 -0.3961 -0.3159  1.7509
  256SOL     OW  766   0.277   3.002   0.307 -0.1572  0.3119 -0.2001
  256SOL    HW1  767   0.260   2.985   0.210 -1.3017 -1.6597  0.7642
  256SOL    HW2  768   0.363   2.956   0.332 -3.4725  1.2881 -1.3311
  257SOL     OW  769   1.231   2.301   2.604 -0.0270 -0.5972  0.3033
  257SOL    HW1  770   1.295   2.227   2.568 -2.2300 -1.5667  1.0752
  257SOL    HW2  771   1.172   2.352   2.534  0.6495 -0.7074 -1.1106
  258SOL     OW  772   1.852   1.894   2.032  0.1420  0.0697 -0.3485
  258SOL    HW1  773   1.752   1.888   2.036  2.7062  1.8320  0.7273
  258SOL    HW2  774   1.885   1.827   1.964 -2.4376 -0.7606 -1.1196
  259SOL     OW  775   0.636   0.659   2.120  1.0046  0.0083  0.2259
  259SOL    HW1  776   0.682   0.748   2.130 -3.8170 -2.1756  0.2403
  259SOL    HW2  777   0.695   0.582   2.140 -1.9358  0.9701  1.6650
  260SOL     OW  778   2.522   0.998   3.048 -0.2135 -0.3748 -0.1224
  260SOL    HW1  779   2.555   0.905   3.022 -1.4527  0.0039  0.5669
  260SOL    HW2  780   2.607   1.060   3.049  1.1051  0.8652  2.8921
  261SOL     OW  781   0.903   1.015   0.731 -0.0830 -0.0779 -0.3618
  261SOL    HW1  782   0.966   1.029   0.654 -1.5332  0.0650  0.4471
  261SOL    HW2  783   0.928   1.081   0.805  1.3053 -0.6447 -1.9751
  262SOL     OW  784   1.799   2.208   2.303 -0.3909  0.3567 -0.1117
  262SOL    HW1  785   1.701   2.234   2.294 -0.2632 -0.8477  1.7415
  262SOL    HW2  786   1.847   2.210   2.213 -0.4122 -1.1999  1.2412
  263SOL     OW  787   0.968   2.427   1.072 -0.4217 -0.1635 -0.3125
  263SOL    HW1  788   1.059   2.470   1.082 -2.1031  0.1721 -0.7544
  263SOL    HW2  789   0.972   2.328   1.098  0.4420  0.3718 -0.9616
  264SOL     OW  790   2.925   1.912   0.777  0.1001  0.0000  0.2297
  264SOL    HW1  791   3.024   1.934   0.767 -0.3240  0.7203  0.3281
  264SOL    HW2  792   2.908   1.810   0.783  0.1769 -1.9964 -2.3375
  265SOL     OW  793   1.780   1.399   2.618  0.4675  0.5147  0.0428
  265SOL    HW1  794   1.815   1.462   2.546  0.8708  1.5127 -0.0795
  265SOL    HW2  795   1.800   1.305   2.594  0.2892  1.8096  2.6275
  266SOL     OW  796   1.566   1.896   2.112  0.1644 -0.1506  0.2247
  266SOL    HW1  797   1.479   1.861   2.076  0.1427  2.2105  0.4738
  266SOL    HW2  798   1.576   1.875   2.215  1.8074 -1.1041 -0.7078
  267SOL     OW  799   1.815   0.442   2.287  0.1246  0.0954 -0.5486
  267SOL    HW1  800   1.815   0.340   2.292 -1.3098 -1.8517 -0.2969
  267SOL    HW2  801   1.721   0.479   2.301  0.4547 -0.2136  0.2849
  268SOL     OW  802   0.819   0.946   2.916 -0.4750  0.2656  0.2318
  268SOL    HW1  803   0.877   0.941   2.834  2.0031 -1.0730  2.6028
  268SOL    HW2  804   0.742   0.882   2.912  0.2860 -0.7745 -0.0807
  269SOL     OW  805   3.020   2.110   2.186  0.6258  0.2504  0.3636
  269SOL    HW1  806   0.039   2.066   2.190  0.2811  1.6696  1.3376
  269SOL    HW2  807   2.944   2.046   2.173 -1.2382 -1.1324 -0.5041
  270SOL     OW  808   0.027   1.497   0.220  0.5159  0.1933  0.2475
  270SOL    HW1  809   3.058   1.403   0.204 -0.9955 -0.7944  1.0776
  270SOL    HW2  810   3.028   1.557   0.256  1.7960 -0.1450 -1.6087
  271SOL     OW  811   0.740   0.237   0.364 -0.2206  0.4956  0.7783
  271SOL    HW1  812   0.777   0.153   0.414 -1.6847 -0.7125 -0.8359
  271SOL    HW2  813   0.775   0.248   0.269  3.5157 -0.0006 -0.1180
  272SOL     OW  814   2.929   0.216   0.262  0.2723 -0.0845 -0.1597
  272SOL    HW1  815   2.848   0.186   0.204 -2.4525 -0.0717 -0.7763
  272SOL    HW2  816   2.990   0.138   0.287 -1.6011  0.7596 -1.2903
  273SOL     OW  817   0.325   2.791   2.207 -0.1880 -0.0699 -0.1656
  273SOL    HW1  818   0.418   2.759   2.220 -1.5173 -0.3073 -3.6482
  273SOL    HW2  819   0.323   2.809   2.107 -1.6393 -0.2647 -1.3328
  274SOL     OW  820   3.059   0.183   1.462  0.6607 -0.3079 -0.6335
  274SOL    HW1  821   0.003   0.151   1.556  3.2495 -0.7710  0.6842
  274SOL    HW2  822   3.035   0.104   1.400  0.7955 -0.3558 -2.5647
  275SOL     OW  823   1.069   1.752   1.243  0.5273  0.0596 -0.2951
  275SOL    HW1  824   0.968   1.755   1.242  3.3378  1.2371  0.3625
  275SOL    HW2  825   1.090   1.747   1.147 -1.7444 -1.2232  0.7914
  276SOL     OW  826   0.386   1.405   2.008 -0.0908 -0.0524 -0.2007
  276SOL    HW1  827   0.368   1.415   1.908  4.1260  0.1792 -2.0934
  276SOL    HW2  828   0.302   1.427   2.059  1.7294  1.5983 -0.1195
  277SOL     OW  829   1.295   2.282   1.920 -0.3065  0.1352 -0.0646
  277SOL    HW1  830   1.315   2.356   1.855 -2.1827  0.0113  1.5347
  277SOL    HW2  831   1.373   2.235   1.966  0.5466  0.3892  1.7910
  278SOL     OW  832   1.879   2.893   2.388 -0.2027 -0.3273 -0.3143
  278SOL    HW1  833   1.801   2.823   2.386 -0.5776  0.7824 -0.3147
  278SOL    HW2  834   1.932   2.882   2.302  3.7387 -0.3377  0.7711
  279SOL     OW  835   1.457   1.334   2.998 -0.4199  0.0811 -0.0190
  279SOL    HW1  836   1.508   1.248   3.019  3.2919  0.9722 -0.1654
  279SOL    HW2  837   1.522   1.409   2.978  0.0131  1.0623  0.3402
  280SOL     OW  838   1.198   0.747   1.113 -0.0654  0.3356  0.0360
  280SOL    HW1  839   1.202   0.840   1.075  3.0903 -1.7573 -1.6242
  280SOL    HW2  840   1.231   0.688   1.040 -2.2914 -0.6182  2.1683
  281SOL     OW  841   2.637   0.454   1.961  0.6955 -0.0794  0.0714
  281SOL    HW1  842   2.672   0.415   2.048  0.3067 -0.3217 -1.9653
  281SOL    HW2  843   2.560   0.394   1.923 -1.3139  4.3743 -3.5489
  282SOL     OW  844   0.265   2.966   0.752  0.1831  1.0539 -0.3663
  282SOL    HW1  845   0.234   2.870   0.728  0.2497 -1.0933 -1.0292
  282SOL    HW2  846   0.356   2.959   0.792  0.5449 -3.0979 -2.0207
  283SOL     OW  847   1.158   2.315   1.568 -0.4585  0.2799 -0.6434
  283SOL    HW1  848   1.123   2.258   1.649  1.6721 -1.9522  0.3272
  283SOL    HW2  849   1.136   2.272   1.474  0.8118 -0.2892 -2.2761
  284SOL     OW  850   2.143   2.685   1.443  0.5249  0.4673  0.0262
  284SOL    HW1  851   2.106   2.608   1.495 -0.2688  0.6095 -0.3547
  284SOL    HW2  852   2.242   2.662   1.426 -1.1895  2.4857  1.2835
  285SOL     OW  853   0.808   1.799   1.206  0.2852  0.0345  0.9530
  285SOL    HW1  854   0.731   1.750   1.169 -0.0721 -0.5262  0.9200
  285SOL    HW2  855   0.829   1.885   1.153 -1.6704  2.5937 -0.4357
  286SOL     OW  856   0.077   2.742   1.866 -1.0385 -0.1043  0.5948
  286SOL    HW1  857   0.040   2.802   1.942 -1.8110  2.7647  0.1977
  286SOL    HW2  858   0.119   2.659   1.896 -0.1552  4.1445 -2.8749
  287SOL     OW  859   0.656   0.932   0.675  0.3162  0.0458  0.2018
  287SOL    HW1  860   0.757   0.933   0.687 -0.7183  0.6593 -0.4475
  287SOL    HW2  861   0.608   0.972   0.750  0.8763 -0.4299 -1.9081
  288SOL     OW  862   1.240   2.117   2.911 -0.4626  0.1250 -0.1162
  288SOL    HW1  863   1.314   2.182   2.882 -0.8978  0.1768 -0.8909
  288SOL    HW2  864   1.272   2.028   2.936 -1.2689  1.2462  0.1924
  289SOL     OW  865   1.873   1.181   2.414  0.1628 -0.3372  0.6464
  289SOL    HW1  866   1.883   1.279   2.392 -0.5968 -1.0303  0.5979
  289SOL    HW2  867   1.923   1.121   2.350 -1.4606  2.8929 -2.4989
  290SOL     OW  868   2.022   1.870   0.539  0.3811  0.0424  0.2357
  290SOL    HW1  869   2.086   1.820   0.474  0.0594 -3.1252 -0.9636
  290SOL    HW2  870   1.936   1.875   0.490 -0.5210  2.7085 -0.4832
  291SOL     OW  871   1.380   0.819   2.919  0.0047 -0.1289  0.1780
  291SOL    HW1  872   1.363   0.906   2.964  0.5970  0.8972 -1.0627
  291SOL    HW2  873   1.467   0.783   2.960  0.9044 -0.1756 -0.9358
  292SOL     OW  874   2.030   1.670   0.724  0.6211  0.1916  0.1850
  292SOL    HW1  875   2.056   1.578   0.689  1.2059 -1.0080 -0.9543
  292SOL    HW2  876   2.034   1.742   0.649 -0.7751 -0.0809 -1.0882
  293SOL     OW  877   1.685   0.089   1.345  0.1290 -0.1834 -0.1107
  293SOL    HW1  878   1.719   0.179   1.311 -1.4065 -1.4954 -0.2721
  293SOL    HW2  879   1.587   0.094   1.365  1.1607  3.9868 -1.2121
  294SOL     OW  880   2.789   0.871   0.084  0.8673  0.4384 -0.0985
  294SOL    HW1  881   2.729   0.840   0.010  2.5199 -4.0459  1.2620
  294SOL    HW2  882   2.844   0.796   0.119 -0.1998 -1.3033  2.3987
  295SOL     OW  883   2.131   1.745   2.374 -0.0414  0.1135  0.8599
  295SOL    HW1  884   2.219   1.780   2.352 -1.0394  0.3885 -0.7812
  295SOL    HW2  885   2.102   1.756   2.475  0.4545  1.1591  1.6476
  296SOL     OW  886   1.577   1.823   0.949 -0.5923 -0.1472 -0.2754
  296SOL    HW1  887   1.509   1.759   0.990  0.9091 -1.6903 -2.4665
  296SOL    HW2  888   1.641   1.861   1.018  2.0943  1.0626 -2.2208
  297SOL     OW  889   0.328   0.587   2.809  0.1437 -0.3303 -0.5875
  297SOL    HW1  890   0.253   0.657   2.801 -0.6851 -1.3186  3.0422
  297SOL    HW2  891   0.322   0.559   2.910 -1.1931  1.2357  3.5992
  298SOL     OW  892   1.555   2.831   1.771  0.3353 -0.0832 -0.1821
  298SOL    HW1  893   1.513   2.868   1.684  4.3470  0.3796  1.2399
  298SOL    HW2  894   1.653   2.814   1.747  0.4145 -0.6246  0.2856
  299SOL     OW  895   1.106   0.571   2.552 -0.0376 -0.0472 -0.0779
  299SOL    HW1  896   1.080   0.601   2.645  0.9089  0.0801 -0.0457
  299SOL    HW2  897   1.118   0.469   2.548 -0.8155 -2.0831 -1.0040
  300SOL     OW  898   2.170   1.540   0.082  0.6023  0.1992 -0.0859
  300SOL    HW1  899   2.167   1.524   0.183 -2.5037  0.1955 -1.4855
  300SOL    HW2  900   2.092   1.487   0.040  0.6105 -3.3792  1.7109
  301SOL     OW  901   2.091   0.258   2.408  0.1065  0.0099 -0.3891
  301SOL    HW1  902   2.143   0.186   2.457 -0.5881 -0.2364 -1.6900
  301SOL    HW2  903   2.163   0.326   2.384  0.0100  0.5323 -1.2809
  302SOL     OW  904   2.481   1.578   2.781 -0.2893 -0.0335 -0.2061
  302SOL    HW1  905   2.580   1.554   2.802  0.9397  1.9021 -1.5431
  302SOL    HW2  906   2.474   1.646   2.701  1.4401 -1.1345 -1.3960
  303SOL     OW  907   0.194   2.419   2.199 -0.4485 -0.0600 -0.0930
  303SOL    HW1  908   0.102   2.424   2.241 -0.2707  0.4888  0.2492
  303SOL    HW2  909   0.231   2.325   2.198  0.7830 -0.7459  0.0401
  304SOL     OW  910   2.857   0.922   0.912 -0.0658  0.1281  0.3186
  304SOL    HW1  911   2.795   1.006   0.905  1.2398  1.5200 -1.0510
  304SOL    HW2  912   2.806   0.834   0.887 -1.1115 -0.1876 -1.0290
  305SOL     OW  913   0.083   0.305   1.912 -0.3362 -0.2200 -0.2407
  305SOL    HW1  914   0.037   0.397   1.914 -0.6794  2.0181 -2.4343
  305SOL    HW2  915   0.063   0.251   1.998  0.0657 -4.5002  1.6574
  306SOL     OW  916   1.657   2.025   0.743  0.2695 -0.2432  0.1912
  306SOL    HW1  917   1.631   1.929   0.776 -1.0568 -0.2048  0.3559
  306SOL    HW2  918   1.613   2.030   0.648 -1.3497 -1.1789 -4.4166
  307SOL     OW  919   3.052   3.026   1.259  0.7910 -0.4576 -0.2848
  307SOL    HW1  920   2.966   3.070   1.228  4.3865  2.5794  2.0772
  307SOL    HW2  921   0.045   3.029   1.180  0.3769  1.1128 -1.4592
  308SOL     OW  922   2.925   1.793   2.429  0.4016 -0.2886  0.4724
  308SOL    HW1  923   2.889   1.740   2.346  0.9540  2.6863 -3.8951
  308SOL    HW2  924   2.869   1.780   2.511  2.4451 -1.2554  1.5779
  309SOL     OW  925   0.417   1.867   2.687  0.1663 -0.0103  0.7101
  309SOL    HW1  926   0.455   1.842   2.781  2.0036  1.3505 -0.3335
  309SOL    HW2  927   0.316   1.854   2.684  1.7793 -1.5873  0.5140
  310SOL     OW  928   2.278   0.740   2.848 -0.2478 -0.0128  0.5773
  310SOL    HW1  929   2.194   0.762   2.791 -0.2410 -1.8290  0.7896
  310SOL    HW2  930   2.264   0.659   2.908  1.1333  0.8483  0.7060
  311SOL     OW  931   1.854   1.223   0.005  0.2865  0.2884  0.6297
  311SOL    HW1  932   1.756   1.221   3.048  0.2600  0.0114  0.9002
  311SOL    HW2  933   1.896   1.132   0.016  1.0135 -1.2051  1.7276
  312SOL     OW  934   1.059   1.158   2.073  0.1033 -0.0877  0.2400
  312SOL    HW1  935   0.998   1.201   2.135 -0.8255 -2.3054 -0.0128
  312SOL    HW2  936   1.019   1.062   2.052  2.0496 -0.6982 -0.2916
  313SOL     OW  937   0.861   3.024   0.437 -0.0325 -0.2548 -0.2801
  313SOL    HW1  938   0.872   0.015   0.514  2.1045  0.1374  0.4345
  313SOL    HW2  939   0.952   3.015   0.389  2.1068 -1.5078  1.6824
  314SOL     OW  940   0.415   1.877   1.528 -0.2725  0.1287 -0.5667
  314SOL    HW1  941   0.391   1.804   1.464 -0.9438 -0.1169 -0.1671
  314SOL    HW2  942   0.517   1.900   1.529  0.9488  2.9767 -1.9326
  315SOL     OW  943   1.397   2.086   1.519 -0.0832 -0.0225 -0.2540
  315SOL    HW1  944   1.447   2.041   1.595  1.5555 -0.5428  0.7033
  315SOL    HW2  945   1.324   2.026   1.481  0.5322 -0.1423 -2.3443
  316SOL     OW  946   0.418   2.602   0.204  0.5159 -0.5532 -0.1659
  316SOL    HW1  947   0.518   2.608   0.213  3.0439 -3.2519  1.3294
  316SOL    HW2  948   0.376   2.540   0.272 -1.1898  1.0135  0.5821
  317SOL     OW  949   2.553   0.383   1.010  0.1771  0.6586 -0.5959
  317SOL    HW1  950   2.461   0.344   1.026 -2.4825  1.5457  1.6108
  317SOL    HW2  951   2.590   0.409   1.101  0.6365  2.0383  1.6378
  318SOL     OW  952   1.001   2.428   0.577  0.0002  0.0387  0.0662
  318SOL    HW1  953   1.009   2.459   0.672  0.4360 -0.2784 -0.1060
  318SOL    HW2  954   0.908   2.453   0.537 -2.1002  1.5743  0.8852
  319SOL     OW  955   1.201   0.322   2.809 -0.0866  0.2535 -0.0068
  319SOL    HW1  956   1.105   0.332   2.773  0.4327  0.3716 -1.0282
  319SOL    HW2  957   1.204   0.333   2.906 -0.7283 -0.6486 -1.0651
  320SOL     OW  958   2.268   1.556   1.739 -0.6763 -0.6283  0.5188
  320SOL    HW1  959   2.342   1.483   1.736  1.0335  2.0190  0.6256
  320SOL    HW2  960   2.175   1.523   1.765 -2.0278 -1.6611  3.7023
  321SOL     OW  961   3.012   2.912   2.872 -0.3498 -0.4313  0.0160
  321SOL    HW1  962   2.980   3.001   2.909 -0.2932  0.5876 -2.2580
  321SOL    HW2  963   2.946   2.881   2.798 -1.8942  0.1259 -2.2007
  322SOL     OW  964   2.422   0.920   1.169 -0.0645  0.0831  0.6139
  322SOL    HW1  965   2.408   0.858   1.086  0.4457  0.3629 -0.4390
  322SOL    HW2  966   2.515   0.901   1.198 -0.9795 -0.9016 -0.4896
  323SOL     OW  967   2.164   1.752   0.345 -0.4254  0.4894  0.0739
  323SOL    HW1  968   2.108   1.708   0.268 -0.1306  1.3402 -0.6982
  323SOL    HW2  969   2.227   1.678   0.383  3.2659 -2.6229 -0.4572
  324SOL     OW  970   2.813   0.306   1.314 -0.1136  0.6767  0.3386
  324SOL    HW1  971   2.818   0.211   1.291  1.6569  2.4491 -2.0161
  324SOL    HW2  972   2.884   0.353   1.253  1.7185 -0.5688 -1.7080
  325SOL     OW  973   2.687   2.644   0.782  0.2490 -0.3659  0.4917
  325SOL    HW1  974   2.727   2.556   0.806 -1.5011  0.7172  0.5988
  325SOL    HW2  975   2.612   2.639   0.710 -2.0085  1.3964 -0.3262
  326SOL     OW  976   1.391   2.716   0.623  0.5352  0.1745  0.9404
  326SOL    HW1  977   1.337   2.719   0.534 -1.9934  1.9035  0.4909
  326SOL    HW2  978   1.491   2.694   0.606  1.9358 -0.3492 -1.6442
  327SOL     OW  979   2.187   2.390   0.300 -0.4563  0.2692 -0.3494
  327SOL    HW1  980   2.125   2.321   0.254 -2.7392 -0.6812  0.0761
  327SOL    HW2  981   2.173   2.475   0.251 -1.0605 -0.2604 -0.2620
  328SOL     OW  982   2.406   2.273   1.918 -0.2799 -0.1292 -0.5129
  328SOL    HW1  983   2.497   2.280   1.967  0.2067  1.5285  1.0043
  328SOL    HW2  984   2.373   2.364   1.883  2.5979 -1.8369  0.6116
  329SOL     OW  985   0.391   2.343   0.650  0.0590  0.1205  0.5486
  329SOL    HW1  986   0.376   2.430   0.700  0.0485  1.8100 -0.1322
  329SOL    HW2  987   0.305   2.289   0.654  0.6185 -0.3636  0.9685
  330SOL     OW  988   2.338   0.831   1.540  0.3902  0.4095  0.0222
  330SOL    HW1  989   2.416   0.852   1.603 -0.7068  0.4550 -0.3334
  330SOL    HW2  990   2.371   0.758   1.473  0.6434 -2.1432 -2.6758
  331SOL     OW  991   2.404   1.628   0.808  0.2707 -0.3597 -0.5213
  331SOL    HW1  992   2.428   1.654   0.907 -0.5698  0.8219 -0.6728
  331SOL    HW2  993   2.379   1.708   0.750 -3.8318 -0.2082 -1.4847
  332SOL     OW  994   0.080   2.544   1.356  0.1906 -0.3406  0.3798
  332SOL    HW1  995   0.175   2.533   1.316  1.4672  2.7332 -0.9952
  332SOL    HW2  996   0.066   2.643   1.392 -1.4213  1.9442  1.1011
  333SOL     OW  997   2.884   1.602   1.439  0.0737  0.4786 -0.5673
  333SOL    HW1  998   2.979   1.639   1.455  1.3327 -1.0144  2.7827
  333SOL    HW2  999   2.889   1.497   1.437 -0.0951  1.1024 -0.5849
  334SOL     OW 1000   0.405   0.469   1.465  0.2546 -0.6819 -0.2920
  334SOL    HW1 1001   0.352   0.455   1.555 -0.3777 -1.9984  1.6348
  334SOL    HW2 1002   0.367   0.411   1.388 -0.0775  0.1955 -1.2610
  335SOL     OW 1003   2.631   1.588   1.838  0.3856 -0.0163  0.3198
  335SOL    HW1 1004   2.720   1.623   1.806  0.0636  0.0193  1.7248
  335SOL    HW2 1005   2.556   1.656   1.825 -1.0513 -1.7109 -1.6547
  336SOL     OW 1006   1.792   2.945   0.180 -0.0760  0.2875  0.0707
  336SOL    HW1 1007   1.839   2.951   0.269 -0.0098  0.6968  0.3980
  336SOL    HW2 1008   1.823   2.867   0.128 -2.0110  1.5957  1.0837
  337SOL     OW 1009   0.678   0.429   1.394 -0.4874 -0.6687 -0.5852
  337SOL    HW1 1010   0.704   0.379   1.308  2.2779  2.3516 -0.1024
  337SOL    HW2 1011   0.579   0.419   1.414 -3.1526  0.5299 -0.7115
  338SOL     OW 1012   1.814   2.413   0.890  0.4370  0.4085  0.3357
  338SOL    HW1 1013   1.831   2.315   0.894 -1.2661 -0.3797 -0.2952
  338SOL    HW2 1014   1.771   2.447   0.973 -1.3257  1.4656 -0.2533
  339SOL     OW 1015   0.334   1.642   1.094  0.1365  0.0017  0.2086
  339SOL    HW1 1016   0.262   1.630   1.023 -1.4564 -1.8151 -1.2486
  339SOL    HW2 1017   0.382   1.732   1.089  1.5191 -2.6580 -0.8544
  340SOL     OW 1018   0.150   3.037   2.245  0.3593 -0.0657  0.6170
  340SOL    HW1 1019   0.240   3.009   2.207  1.1895 -1.2526 -1.0909
  340SOL    HW2 1020   0.145   3.037   2.351 -0.8322 -0.0525  4.9039
  341SOL     OW 1021   2.546   1.255   0.498  0.0501  0.0157 -0.0125
  341SOL    HW1 1022   2.551   1.355   0.474  1.5509  2.2499 -0.0464
  341SOL    HW2 1023   2.640   1.215   0.486  0.7962  1.8992 -0.7038
  342SOL     OW 1024   1.861   1.998   0.324  0.0998  0.3851 -0.2718
  342SOL    HW1 1025   1.759   1.997   0.329 -0.3911  0.4792  0.6517
  342SOL    HW2 1026   1.894   2.095   0.325 -1.6494  1.2621 -0.8132
  343SOL     OW 1027   1.899   0.557   0.653 -0.1993  0.7018 -0.6896
  343SOL    HW1 1028   1.847   0.562   0.742 -0.1450 -0.5339 -2.7735
  343SOL    HW2 1029   1.865   0.482   0.591 -0.0746 -2.5843  2.1335
  344SOL     OW 1030   2.319   0.293   2.947 -0.1142 -0.0740 -0.6346
  344SOL    HW1 1031   2.380   0.320   3.024  1.7544  0.2819 -1.8602
  344SOL    HW2 1032   2.278   0.205   2.979  0.4912 -0.1784  0.3731
  345SOL     OW 1033   1.266   0.161   1.073  0.1720 -0.5033  0.3463
  345SOL    HW1 1034   1.218   0.087   1.020 -0.3368 -2.1155 -2.5725
  345SOL    HW2 1035   1.221   0.171   1.167  0.4166  0.4198  0.4369
  346SOL     OW 1036   2.065   2.444   1.595  0.2534 -0.6294  0.3361
  346SOL    HW1 1037   2.014   2.391   1.662  0.1628  1.7049  2.5642
  346SOL    HW2 1038   2.166   2.431   1.611  0.6983  0.5710  1.3176
  347SOL     OW 1039   2.797   0.039   0.757  0.2488 -0.7928 -0.2819
  347SOL    HW1 1040   2.842   3.067   0.678 -2.2952  1.3190 -2.8812
  347SOL    HW2 1041   2.772   3.035   0.824  0.3110 -0.3616  0.2917
  348SOL     OW 1042   0.519   1.037   1.244 -0.4242  0.0317 -0.0030
  348SOL    HW1 1043   0.571   0.994   1.169  2.2443 -0.8647  0.1338
  348SOL    HW2 1044   0.566   1.117   1.285 -3.7533 -0.5756  1.7593
  349SOL     OW 1045   2.190   0.050   3.045 -0.8153 -0.1064 -0.5160
  349SOL    HW1 1046   2.153   3.071   2.964  0.6994  0.1407  0.2371
  349SOL    HW2 1047   2.116   0.091   0.028  3.3179 -0.0903  0.0104
  350SOL     OW 1048   2.776   2.027   0.166 -0.8624  0.4785  0.3862
  350SOL    HW1 1049   2.768   2.060   0.259 -0.7464 -0.3503 -0.6571
  350SOL    HW2 1050   2.753   2.105   0.108  1.1965  2.0024 -1.9788
  351SOL     OW 1051   1.057   0.360   1.007  0.1925  0.5773 -0.6113
  351SOL    HW1 1052   1.143   0.311   0.981 -0.0212  0.0597  0.5171
  351SOL    HW2 1053   1.051   0.344   1.110 -1.4644  2.3420 -0.4905
  352SOL     OW 1054   1.931   2.103   2.741  0.3399  0.3687  0.2117
  352SOL    HW1 1055   2.013   2.043   2.764  3.0015 -0.6916 -0.9349
  352SOL    HW2 1056   1.947   2.147   2.649  0.9328  1.6270  0.2497
  353SOL     OW 1057   0.856   0.567   0.213  0.1347 -0.3332 -0.7864
  353SOL    HW1 1058   0.795   0.553   0.134  4.6759 -0.9169  5.5706
  353SOL    HW2 1059   0.810   0.587   0.303 -1.1607  1.0316  0.6069
  354SOL     OW 1060   0.763   1.926   2.944  0.2186  0.1417  0.0285
  354SOL    HW1 1061   0.671   1.877   2.926 -6.1275 -0.5849 -0.3647
  354SOL    HW2 1062   0.769   1.955   3.039  0.5001 -0.5043  1.4271
  355SOL     OW 1063   2.904   2.679   2.112 -0.1842  0.3648 -0.1793
  355SOL    HW1 1064   2.948   2.616   2.181  0.7752  2.2502 -0.3981
  355SOL    HW2 1065   2.938   2.770   2.134 -0.8036 -1.6802 -1.3498
  356SOL     OW 1066   2.721   0.709   0.796  0.0081  0.9908  0.2181
  356SOL    HW1 1067   2.649   0.779   0.797 -0.3964 -2.3662  2.5832
  356SOL    HW2 1068   2.687   0.615   0.781  0.3510  1.7168  1.0744
  357SOL     OW 1069   2.310   0.285   1.036 -0.1887  0.2902 -0.4806
  357SOL    HW1 1070   2.356   0.239   1.115 -1.7504 -0.9042 -0.9132
  357SOL    HW2 1071   2.212   0.299   1.058 -2.2466 -0.6389 -0.7582
  358SOL     OW 1072   1.432   2.886   1.555 -0.1634  0.3398  0.2722
  358SOL    HW1 1073   1.439   2.913   1.459 -2.0572  0.0971  1.2192
  358SOL    HW2 1074   1.343   2.908   1.596  2.3994 -0.3450  0.3071
  359SOL     OW 1075   2.969   2.399   2.529  0.1557  0.0545 -0.5283
  359SOL    HW1 1076   2.989   2.302   2.508  1.6437  1.7058 -1.8391
  359SOL    HW2 1077   3.035   2.442   2.601  1.0116  2.6719  1.4950
  360SOL     OW 1078   0.650   1.285   1.268  0.0772 -0.3518  0.6911
  360SOL    HW1 1079   0.695   1.323   1.352 -0.1310  0.9406 -0.6135
  360SOL    HW2 1080   0.644   1.350   1.192  1.0804 -1.1034 -0.5495
  361SOL     OW 1081   2.487   2.776   0.482 -0.0992  0.4112 -0.3068
  361SOL    HW1 1082   2.408   2.802   0.427 -2.7558 -1.2164 -0.5235
  361SOL    HW2 1083   2.559   2.843   0.483  0.3863  1.4605  1.8707
  362SOL     OW 1084   0.027   2.790   0.847 -0.3162  0.5471  0.0802
  362SOL    HW1 1085   0.060   2.694   0.869  1.9048  3.3774  3.2703
  362SOL    HW2 1086   3.028   2.787   0.772 -1.3168  3.0898  2.7765
  363SOL     OW 1087   0.796   1.552   0.774 -0.0664  0.2288 -0.4353
  363SOL    HW1 1088   0.860   1.483   0.729 -0.8175 -2.1100  2.7632
  363SOL    HW2 1089   0.839   1.646   0.786 -1.5633 -1.3053  1.0523
  364SOL     OW 1090   1.096   1.414   1.056 -0.2721  0.2697 -0.6066
  364SOL    HW1 1091   1.035   1.480   1.099 -0.4025  0.5815  1.8102
  364SOL    HW2 1092   1.154   1.361   1.119 -2.8430 -1.0766 -1.6478
  365SOL     OW 1093   2.412   1.771   0.524 -0.0489 -0.0747  0.4585
  365SOL    HW1 1094   2.387   1.830   0.603  0.2184  3.1163 -0.1565
  365SOL    HW2 1095   2.481   1.822   0.473 -0.3559  0.1075 -0.5374
  366SOL     OW 1096   2.857   1.582   1.006 -0.0813  0.1392 -0.3485
  366SOL    HW1 1097   2.956   1.573   1.031  0.6648  2.6559 -2.8605
  366SOL    HW2 1098   2.811   1.657   1.064  1.7177  1.7189  0.5118
  367SOL     OW 1099   2.168   1.911   1.906  0.2732 -0.2070  0.3880
  367SOL    HW1 1100   2.086   1.858   1.881  1.4482  2.3766 -0.7505
  367SOL    HW2 1101   2.185   1.989   1.841  1.6093  1.0049 -0.0725
  368SOL     OW 1102   2.673   0.921   1.266 -0.1458 -0.3810 -0.4135
  368SOL    HW1 1103   2.676   0.944   1.366 -1.5260 -2.0702 -0.5375
  368SOL    HW2 1104   2.760   0.948   1.221 -2.9131 -0.2345 -1.9865
  369SOL     OW 1105   2.145   2.664   0.194  0.6817  0.1246 -0.3931
  369SOL    HW1 1106   2.176   2.745   0.246  0.5854 -0.7501 -0.1987
  369SOL    HW2 1107   2.061   2.685   0.141  2.2808 -0.3506  4.8707
  370SOL     OW 1108   2.664   2.476   1.156  0.4047  0.0932 -0.0516
  370SOL    HW1 1109   2.642   2.513   1.247 -1.4814  0.2031  0.8068
  370SOL    HW2 1110   2.760   2.455   1.142 -0.0843 -1.1099  1.0226
  371SOL     OW 1111   0.733   1.668   2.471 -0.5641  0.7364 -0.1507
  371SOL    HW1 1112   0.790   1.753   2.448  0.6554  1.0769  0.1553
  371SOL    HW2 1113   0.636   1.703   2.463 -0.1598 -0.2413 -0.9036
  372SOL     OW 1114   0.892   1.264   0.446 -0.2504  0.0105  0.2744
  372SOL    HW1 1115   0.817   1.221   0.391  2.4650 -0.8078 -0.0589
  372SOL    HW2 1116   0.984   1.225   0.434  1.5954  0.4549 -0.2886
  373SOL     OW 1117   1.190   2.574   0.185 -0.2100  0.1932 -0.2759
  373SOL    HW1 1118   1.193   2.509   0.261 -0.7519  3.8909 -1.0410
  373SOL    HW2 1119   1.118   2.541   0.117  0.2488 -2.0350 -1.1260
  374SOL     OW 1120   0.400   1.749   0.104 -0.0710  0.2197  0.1757
  374SOL    HW1 1121   0.309   1.715   0.078  4.0548  0.1983  0.6992
  374SOL    HW2 1122   0.438   1.674   0.166  0.1685 -0.1351  1.6795
  375SOL     OW 1123   0.973   1.632   2.084  0.4780 -0.2869 -0.0715
  375SOL    HW1 1124   1.050   1.700   2.083 -0.3008 -0.1473  0.2364
  375SOL    HW2 1125   0.999   1.548   2.031 -0.1094  0.9847  0.1995
  376SOL     OW 1126   0.889   2.473   1.621 -0.6008 -0.1030  0.0056
  376SOL    HW1 1127   0.991   2.464   1.627 -0.9427  0.3314  0.3118
  376SOL    HW2 1128   0.860   2.555   1.569 -3.1655  0.1203  0.0262
  377SOL     OW 1129   2.306   1.314   2.218 -0.3392  0.0193  0.1410
  377SOL    HW1 1130   2.248   1.337   2.298  0.2722  1.6499  0.2736
  377SOL    HW2 1131   2.253   1.319   2.130 -0.8057  0.4433  2.2828
  378SOL     OW 1132   1.217   0.333   2.499  0.0839  0.3436 -0.9554
  378SOL    HW1 1133   1.185   0.280   2.419  2.9697  0.2111  0.8074
  378SOL    HW2 1134   1.319   0.349   2.503 -0.7411 -0.3436 -0.4887
  379SOL     OW 1135   1.539   0.717   0.671 -0.2067  0.3130 -0.6332
  379SOL    HW1 1136   1.615   0.735   0.609 -1.7422  0.0433  0.9226
  379SOL    HW2 1137   1.560   0.738   0.771 -1.5319  0.5244  0.4798
  380SOL     OW 1138   0.006   1.983   1.447 -0.1935 -0.4443  0.1218
  380SOL    HW1 1139   0.023   2.079   1.422 -2.8125  0.1589 -0.3143
  380SOL    HW2 1140   2.980   1.974   1.466 -1.4362 -0.8101 -1.9981
  381SOL     OW 1141   1.629   1.686   1.650 -0.5002  0.4542  0.1458
  381SOL    HW1 1142   1.598   1.619   1.716  0.5170  1.4261  0.2600
  381SOL    HW2 1143   1.558   1.695   1.572 -0.1997 -1.1329  0.0262
  382SOL     OW 1144   2.986   0.398   2.746 -0.4930  0.0344  0.5316
  382SOL    HW1 1145   2.960   0.328   2.681  2.3278 -1.5523 -0.5631
  382SOL    HW2 1146   2.985   0.369   2.844 -0.0314 -1.2676  0.5460
  383SOL     OW 1147   1.508   1.399   2.605  0.1642  0.0650  0.2100
  383SOL    HW1 1148   1.460   1.312   2.626  2.2637 -1.8288 -1.3781
  383SOL    HW2 1149   1.606   1.388   2.637 -1.4364 -2.2468  0.7487
  384SOL     OW 1150   1.188   2.583   1.007 -0.8547  0.4051  0.1797
  384SOL    HW1 1151   1.124   2.659   1.024  0.2561 -0.1751  1.3233
  384SOL    HW2 1152   1.283   2.604   1.039 -0.5119  0.3650 -3.7252
  385SOL     OW 1153   1.992   2.049   1.227  0.0373 -0.1233 -0.0515
  385SOL    HW1 1154   2.016   2.029   1.132 -1.4051  0.5531 -0.9583
  385SOL    HW2 1155   2.051   1.980   1.281  1.6290 -1.1779 -0.0594
  386SOL     OW 1156   2.203   2.155   1.466  0.2214 -0.3306  0.5929
  386SOL    HW1 1157   2.104   2.129   1.468 -0.9237  0.8530  0.4491
  386SOL    HW2 1158   2.217   2.254   1.443 -1.6449 -0.3434 -0.2301
  387SOL     OW 1159   0.556   2.232   1.046  0.2384 -0.3700 -1.0179
  387SOL    HW1 1160   0.586   2.290   1.124 -0.9483 -3.3885  3.3930
  387SOL    HW2 1161   0.455   2.213   1.055  0.0874  3.1835 -2.5468
  388SOL     OW 1162   2.809   0.922   1.859  0.3055 -0.2799  0.2661
  388SOL    HW1 1163   2.729   0.894   1.911  1.4136 -1.1797 -3.0208
  388SOL    HW2 1164   2.898   0.899   1.900  2.8413 -1.8227  0.4549
  389SOL     OW 1165   1.783   1.304   1.143  0.4026  0.0933  0.3361
  389SOL    HW1 1166   1.788   1.393   1.093  2.7190 -1.9287  0.0684
  389SOL    HW2 1167   1.726   1.312   1.231  0.4699  0.9034  2.0821
  390SOL     OW 1168   0.859   2.126   1.899 -0.6355  0.2610 -0.4268
  390SOL    HW1 1169   0.859   2.192   1.974  3.1056 -0.4107 -1.3791
  390SOL    HW2 1170   0.809   2.150   1.819 -0.6240 -1.4580  0.1768
  391SOL     OW 1171   0.859   1.935   2.476 -0.1833  0.0685 -0.2380
  391SOL    HW1 1172   0.781   1.958   2.536 -0.3799 -0.5413 -1.4678
  391SOL    HW2 1173   0.944   1.986   2.499 -0.6557  0.5364 -0.7077
  392SOL     OW 1174   2.906   2.809   2.442 -0.1929 -0.6305 -0.1950
  392SOL    HW1 1175   2.878   2.780   2.535  1.2170 -0.5287 -0.4866
  392SOL    HW2 1176   3.007   2.790   2.430  2.5607 -3.7574 -0.1559
  393SOL     OW 1177   1.894   3.003   0.453  0.2975  0.0368 -0.1371
  393SOL    HW1 1178   1.812   2.978   0.509  1.8124 -0.5042 -0.7215
  393SOL    HW2 1179   1.979   2.963   0.494 -2.9633  0.5880  1.1794
  394SOL     OW 1180   0.617   0.688   2.420 -0.6175 -0.1102  0.0875
  394SOL    HW1 1181   0.571   0.760   2.368  4.2159 -0.3084 -1.0214
  394SOL    HW2 1182   0.696   0.652   2.367  0.6391  1.3009  2.3851
  395SOL     OW 1183   0.433   1.440   1.539 -0.4972 -0.2842 -0.0312
  395SOL    HW1 1184   0.536   1.438   1.535  1.2547  0.3535  0.5283
  395SOL    HW2 1185   0.397   1.417   1.635 -0.5883  0.1090  1.9681
  396SOL     OW 1186   1.440   1.588   2.017 -0.0436 -0.1156 -0.6819
  396SOL    HW1 1187   1.396   1.526   2.087  0.4507 -2.2831  3.3062
  396SOL    HW2 1188   1.540   1.578   2.027  2.4083 -0.6425 -4.0527
  397SOL     OW 1189   0.572   0.585   2.661 -0.1787 -0.4515 -0.3924
  397SOL    HW1 1190   0.581   0.630   2.567  0.5138  3.5166 -3.0208
  397SOL    HW2 1191   0.478   0.584   2.700  1.3024  0.1770 -0.1375
  398SOL     OW 1192   0.319   2.173   2.774 -0.2983  0.6399  0.0208
  398SOL    HW1 1193   0.387   2.170   2.696  0.5307  0.5875  0.1917
  398SOL    HW2 1194   0.264   2.093   2.753  2.8523 -0.2172  1.2528
  399SOL     OW 1195   0.168   1.930   2.205 -0.2290 -0.1404 -0.2471
  399SOL    HW1 1196   0.261   1.907   2.173  0.3165  3.4247  1.7768
  399SOL    HW2 1197   0.113   1.840   2.204  0.0573 -3.4849  0.3251
  400SOL     OW 1198   2.601   0.190   1.726 -0.5287 -0.7802  0.1586
  400SOL    HW1 1199   2.507   0.186   1.688  1.4971 -0.6083 -0.1643
  400SOL    HW2 1200   2.674   0.234   1.665  2.6754  1.6372  0.9336
  401SOL     OW 1201   0.754   1.671   0.235 -0.2473  0.0674 -0.3911
  401SOL    HW1 1202   0.824   1.609   0.281  2.9448 -0.1910 -0.8359
  401SOL    HW2 1203   0.735   1.742   0.307 -0.0211 -1.3376 -1.0004
  402SOL     OW 1204   0.222   2.511   1.940  0.2373 -0.2365  0.1891
  402SOL    HW1 1205   0.152   2.461   1.892 -0.1924  2.2408  1.6551
  402SOL    HW2 1206   0.207   2.506   2.043 -2.6361 -0.9232 -0.2550
  403SOL     OW 1207   0.737   0.911   2.118 -0.4556  0.1165  0.3695
  403SOL    HW1 1208   0.820   0.922   2.171 -4.9202  1.2231 -1.0879
  403SOL    HW2 1209   0.653   0.939   2.171  0.4790 -0.0799 -1.3598
  404SOL     OW 1210   1.592   2.278   1.520  0.3052 -0.4393 -1.0235
  404SOL    HW1 1211   1.662   2.260   1.451 -2.3518 -2.6702 -0.6547
  404SOL    HW2 1212   1.518   2.206   1.513 -2.9441  0.6413  0.3912
  405SOL     OW 1213   2.466   2.348   2.957  0.4408 -0.3183  0.9023
  405SOL    HW1 1214   2.530   2.426   2.948  3.2677  2.9768 -0.9858
  405SOL    HW2 1215   2.390   2.371   3.018  0.5147 -0.2333  0.2584
  406SOL     OW 1216   0.673   1.249   2.626  0.0366  0.0924  0.5684
  406SOL    HW1 1217   0.595   1.236   2.687  1.6747  1.9224 -0.4005
  406SOL    HW2 1218   0.718   1.337   2.652 -0.3597  1.8893 -0.3935
  407SOL     OW 1219   2.228   2.720   2.855 -0.0630 -0.1590 -0.2006
  407SOL    HW1 1220   2.281   2.686   2.777 -0.6683 -0.7923 -1.5984
  407SOL    HW2 1221   2.288   2.719   2.936  0.6026 -1.2218  0.8278
  408SOL     OW 1222   2.674   2.521   0.348 -0.0392 -0.1966 -0.0504
  408SOL    HW1 1223   2.698   2.473   0.261 -2.3767  0.1438 -1.7809
  408SOL    HW2 1224   2.686   2.465   0.432 -0.7405 -0.5128 -0.2157
  409SOL     OW 1225   2.346   1.158   0.342  0.3099  0.1576  0.1368
  409SOL    HW1 1226   2.424   1.168   0.408  0.2372  0.9808  1.3690
  409SOL    HW2 1227   2.261   1.150   0.399 -0.5211  0.1921  1.4097
  410SOL     OW 1228   2.846   1.662   0.745 -0.0178  0.8767 -0.7549
  410SOL    HW1 1229   2.761   1.611   0.718 -1.3778 -0.9463 -0.0728
  410SOL    HW2 1230   2.860   1.648   0.849 -0.1400 -0.1128  3.0783
  411SOL     OW 1231   0.458   1.491   0.792 -0.0790 -0.1294 -0.0080
  411SOL    HW1 1232   0.493   1.461   0.884  0.6257 -2.2964 -1.4925
  411SOL    HW2 1233   0.418   1.415   0.739 -1.0285  1.3451 -0.9958
  412SOL     OW 1234   2.117   2.289   0.762  0.5759  0.3752  0.4080
  412SOL    HW1 1235   2.104   2.275   0.858  0.3359  0.4923 -3.3399
  412SOL    HW2 1236   2.143   2.203   0.711  2.1957 -0.0156  0.4733
  413SOL     OW 1237   1.461   1.036   1.878  0.1893 -0.4484 -0.1829
  413SOL    HW1 1238   1.403   1.033   1.794  0.2573 -0.5472 -0.5214
  413SOL    HW2 1239   1.407   1.050   1.961  6.4702 -1.1609 -1.5183
  414SOL     OW 1240   2.942   2.857   0.171  0.2205  0.3883  0.2663
  414SOL    HW1 1241   2.986   2.801   0.097  0.2602 -3.1451  1.2118
  414SOL    HW2 1242   2.839   2.844   0.170  0.4104 -0.6906  2.4426
  415SOL     OW 1243   1.007   1.910   1.621 -0.1556 -0.2298 -0.6321
  415SOL    HW1 1244   1.026   1.984   1.692 -0.9909  2.1242 -0.0417
  415SOL    HW2 1245   0.974   1.826   1.667 -0.0954  1.3089  0.6119
  416SOL     OW 1246   2.696   2.470   2.571 -0.0081  0.3646  0.4007
  416SOL    HW1 1247   2.796   2.488   2.562  1.3108 -1.3612  1.3328
  416SOL    HW2 1248   2.651   2.497   2.659  1.0088  1.1543  0.5967
  417SOL     OW 1249   2.560   0.402   1.329 -0.4398 -0.3141  0.2501
  417SOL    HW1 1250   2.515   0.313   1.318 -0.5474  3.0345  1.0606
  417SOL    HW2 1251   2.661   0.397   1.331  1.6479  2.7707 -0.0674
  418SOL     OW 1252   2.725   0.129   0.117  0.2479  0.0743  0.5010
  418SOL    HW1 1253   2.688   0.036   0.102  0.2469 -0.9354  1.6170
  418SOL    HW2 1254   2.653   0.195   0.119  2.0991 -0.0486  0.6638
  419SOL     OW 1255   0.021   1.471   1.245 -0.1241 -0.4911  0.5375
  419SOL    HW1 1256   3.030   1.405   1.276  1.1448  2.5907 -0.8339
  419SOL    HW2 1257   0.117   1.437   1.257  0.4600  0.6816  0.4504
  420SOL     OW 1258   0.266   1.372   3.007 -0.4707 -0.0740  0.1915
  420SOL    HW1 1259   0.285   1.357   0.039  0.8391 -1.5902  1.4120
  420SOL    HW2 1260   0.351   1.348   2.952  2.6342  2.2649  3.6460
  421SOL     OW 1261   2.286   2.508   2.424  0.1339 -0.3598 -0.8212
  421SOL    HW1 1262   2.227   2.427   2.424  2.2008  0.9148 -0.1439
  421SOL    HW2 1263   2.256   2.580   2.359 -1.9802  1.4771 -2.3327
  422SOL     OW 1264   0.340   0.836   2.579 -0.0930  0.2982  0.0024
  422SOL    HW1 1265   0.375   0.921   2.529  2.0468  0.9256 -1.0649
  422SOL    HW2 1266   0.275   0.856   2.655 -0.8505 -3.0796 -0.2601
  423SOL     OW 1267   1.285   2.078   0.675  0.0663  0.4080 -0.1215
  423SOL    HW1 1268   1.282   2.115   0.768 -2.6569 -3.0695  0.7165
  423SOL    HW2 1269   1.210   2.103   0.610  1.4231  0.5283 -1.6725
  424SOL     OW 1270   0.942   1.690   1.740  0.2088  0.2031  0.1972
  424SOL    HW1 1271   0.906   1.725   1.830 -0.2914  0.4672 -0.5537
  424SOL    HW2 1272   0.876   1.623   1.708  0.7843  3.3366  0.8804
  425SOL     OW 1273   2.519   2.359   2.411 -0.2662  0.5053 -0.2318
  425SOL    HW1 1274   2.590   2.396   2.474  0.5102 -1.0544  0.4098
  425SOL    HW2 1275   2.439   2.422   2.400 -1.9041  1.3518 -0.5125
  426SOL     OW 1276   1.613   1.063   1.022  0.0884 -0.5849 -0.2996
  426SOL    HW1 1277   1.667   1.025   1.099  0.9423  2.7710 -1.1225
  426SOL    HW2 1278   1.552   1.139   1.055 -0.7716 -2.2799 -0.5720
  427SOL     OW 1279   0.238   1.550   2.667  0.0712 -0.3478 -0.3952
  427SOL    HW1 1280   0.293   1.550   2.751 -0.1023 -0.7391  0.0678
  427SOL    HW2 1281   0.227   1.457   2.623  2.5213 -0.7786  0.9871
  428SOL     OW 1282   0.963   1.545   0.374 -0.0401 -0.1988  0.0521
  428SOL    HW1 1283   1.060   1.540   0.346 -1.5496  0.1810 -1.2423
  428SOL    HW2 1284   0.947   1.478   0.445  2.2877  1.0547 -1.4854
  429SOL     OW 1285   0.116   2.612   0.444  0.5934  0.0670  0.0588
  429SOL    HW1 1286   0.179   2.537   0.415  0.3982  1.2484  1.8857
  429SOL    HW2 1287   0.027   2.619   0.390 -0.6289  0.1841 -0.4532
  430SOL     OW 1288   0.632   2.344   2.020 -0.7566  0.2880 -0.1434
  430SOL    HW1 1289   0.568   2.404   2.076 -2.0980  0.5596 -2.0369
  430SOL    HW2 1290   0.585   2.281   1.951  0.9431 -1.7860 -1.8446
  431SOL     OW 1291   3.053   1.007   0.252  0.4362  0.0347 -0.2800
  431SOL    HW1 1292   0.036   0.942   0.310 -0.1493 -0.6766 -1.5927
  431SOL    HW2 1293   3.005   0.955   0.180  0.7400  1.5677 -1.3639
  432SOL     OW 1294   1.656   2.543   2.792 -0.1452  0.5896 -0.0773
  432SOL    HW1 1295   1.696   2.497   2.878  0.1095  2.8084 -0.6654
  432SOL    HW2 1296   1.736   2.566   2.730  4.0237 -0.3557 -1.1598
  433SOL     OW 1297   1.200   2.398   0.822  0.8317 -0.2570  0.0208
  433SOL    HW1 1298   1.107   2.362   0.806 -1.2364 -1.0730 -0.9690
  433SOL    HW2 1299   1.193   2.467   0.899 -0.5945 -2.1995 -0.5506
  434SOL     OW 1300   1.572   1.840   2.378 -0.1266 -0.4381 -0.2048
  434SOL    HW1 1301   1.572   1.858   2.480 -0.8736  0.2342 -3.0116
  434SOL    HW2 1302   1.595   1.745   2.361  0.9034  2.5095  0.4364
  435SOL     OW 1303   2.258   0.699   0.154  0.5305  0.3005  0.3990
  435SOL    HW1 1304   2.285   0.795   0.129  0.6862  1.0278  0.1535
  435SOL    HW2 1305   2.185   0.703   0.222  0.0076  1.5496 -3.0385
  436SOL     OW 1306   0.468   2.479   2.187 -0.3278 -0.0897  0.4458
  436SOL    HW1 1307   0.373   2.454   2.166  4.3228 -0.4743  1.5146
  436SOL    HW2 1308   0.501   2.460   2.284  1.3179 -0.4258  0.0044
  437SOL     OW 1309   2.108   2.935   1.589 -0.2206  0.2653  0.2559
  437SOL    HW1 1310   2.098   2.844   1.540 -0.8040 -2.8646  2.1148
  437SOL    HW2 1311   2.030   2.991   1.574  0.1557 -0.9123 -0.7058
  438SOL     OW 1312   0.128   1.793   0.527  0.1068  0.1112 -0.3649
  438SOL    HW1 1313   0.228   1.811   0.528  0.9369 -1.0280  3.1372
  438SOL    HW2 1314   0.085   1.828   0.444  1.0664 -2.4380 -0.4663
  439SOL     OW 1315   0.089   2.989   1.010 -0.3337 -0.1534  0.1041
  439SOL    HW1 1316   0.093   0.004   0.957 -0.8967  1.3377 -3.1352
  439SOL    HW2 1317   0.068   2.908   0.944  0.0263  2.1962  0.5565
  440SOL     OW 1318   2.605   2.702   2.263  0.2224 -0.6677 -0.2658
  440SOL    HW1 1319   2.691   2.656   2.301 -0.9946  0.0213  0.2198
  440SOL    HW2 1320   2.574   2.666   2.171  1.1083  1.1239  2.1545
  441SOL     OW 1321   0.126   0.820   0.446  0.4167 -0.4972 -0.0238
  441SOL    HW1 1322   0.201   0.788   0.506 -0.9301  2.1582 -1.0331
  441SOL    HW2 1323   0.058   0.868   0.504 -0.9954 -0.0474 -0.5253
  442SOL     OW 1324   1.533   2.269   2.332 -0.0860 -0.0096 -1.0768
  442SOL    HW1 1325   1.504   2.208   2.411  0.0748 -0.1779  1.1552
  442SOL    HW2 1326   1.520   2.366   2.358  0.3991  0.7372 -0.4875
  443SOL     OW 1327   0.704   3.006   2.805 -0.6584  0.0990  0.3865
  443SOL    HW1 1328   0.773   3.005   2.733  3.1610  1.2867 -2.3995
  443SOL    HW2 1329   0.709   2.928   2.869  0.7854 -0.0903 -0.9165
  444SOL     OW 1330   1.413   1.655   2.676 -0.2297  0.8083 -0.0945
  444SOL    HW1 1331   1.320   1.688   2.657 -0.7559 -1.4604  0.7216
  444SOL    HW2 1332   1.430   1.568   2.628  1.0518  2.4620 -0.7536
  445SOL     OW 1333   0.376   0.174   1.031  0.4618  0.3239 -0.7204
  445SOL    HW1 1334   0.287   0.168   0.983 -0.1705 -1.9990 -1.5038
  445SOL    HW2 1335   0.450   0.136   0.975 -2.1994  0.9909  3.8985
  446SOL     OW 1336   1.827   1.053   0.817 -0.2644 -0.2007 -0.1610
  446SOL    HW1 1337   1.772   1.065   0.902  2.8211  0.3796 -2.0758
  446SOL    HW2 1338   1.850   0.955   0.791 -1.6738 -0.3603 -2.9977
  447SOL     OW 1339   2.931   0.706   0.242 -0.3426 -0.3968  0.5946
  447SOL    HW1 1340   2.903   0.611   0.212 -1.6993 -0.2355 -0.8511
  447SOL    HW2 1341   2.939   0.710   0.343 -0.3747 -1.3518  0.7250
  448SOL     OW 1342   2.313   1.934   1.047 -0.1162  0.1636  0.3811
  448SOL    HW1 1343   2.336   1.836   1.084  0.8206 -6.0540  1.8134
  448SOL    HW2 1344   2.370   2.001   1.100 -0.9699  1.4104  1.3166
  449SOL     OW 1345   0.879   1.378   2.946  0.1289  0.2392 -0.0865
  449SOL    HW1 1346   0.942   1.377   2.866  1.6538 -1.1985  1.3879
  449SOL    HW2 1347   0.865   1.474   2.964  3.2067 -1.6369  0.5803
  450SOL     OW 1348   2.065   2.730   2.506 -0.1730 -0.0036  0.1212
  450SOL    HW1 1349   1.986   2.788   2.476  0.8669  2.8723  0.5137
  450SOL    HW2 1350   2.151   2.782   2.504 -1.4655  1.5842  3.3220
  451SOL     OW 1351   2.376   0.775   2.474 -1.0018  0.0267  0.3811
  451SOL    HW1 1352   2.418   0.794   2.380 -2.2036 -1.9226  1.2045
  451SOL    HW2 1353   2.277   0.804   2.478  1.5649  1.2139  1.6489
  452SOL     OW 1354   1.639   1.366   1.374 -0.3649 -0.3324  0.5106
  452SOL    HW1 1355   1.687   1.447   1.406 -1.0034 -0.0394  0.2510
  452SOL    HW2 1356   1.550   1.366   1.421 -0.8431 -0.3568 -0.0447
  453SOL     OW 1357   1.625   0.389   1.961  0.0410  0.0575  0.5353
  453SOL    HW1 1358   1.649   0.290   1.967  2.1967 -0.3430 -0.5211
  453SOL    HW2 1359   1.617   0.416   1.863 -2.2936 -0.1981 -1.8327
  454SOL     OW 1360   2.996   1.015   2.924  0.4027  0.0797  0.0093
  454SOL    HW1 1361   3.002   0.990   2.827 -0.7720  1.3303  0.5540
  454SOL    HW2 1362   3.035   0.945   2.990  2.4146 -1.6092  2.4632
  455SOL     OW 1363   2.302   1.722   1.481 -0.3418 -0.4019 -0.3803
  455SOL    HW1 1364   2.316   1.653   1.404  2.5772  0.8784 -2.3929
  455SOL    HW2 1365   2.292   1.681   1.573 -1.2221 -0.3455 -0.6761
  456SOL     OW 1366   1.793   2.807   1.604 -0.8402  0.2731 -0.0135
  456SOL    HW1 1367   1.804   2.754   1.517 -1.3250 -0.4100 -1.5196
  456SOL    HW2 1368   1.813   2.910   1.593  0.7015  2.4550  2.3982
  457SOL     OW 1369   1.289   0.070   0.520  0.1546 -0.1270  0.4766
  457SOL    HW1 1370   1.314   0.148   0.579 -0.5586  1.0485  1.1920
  457SOL    HW2 1371   1.360   0.048   0.449 -1.6166 -1.2343  2.3717
  458SOL     OW 1372   2.937   3.004   0.558 -0.0693 -1.1219 -0.2567
  458SOL    HW1 1373   2.946   2.908   0.579  0.9576  4.2341 -0.8287
  458SOL    HW2 1374   3.002   3.033   0.482  2.7225 -0.4586 -1.3258
  459SOL     OW 1375   2.080   1.131   0.746  0.3241 -0.5810  0.5847
  459SOL    HW1 1376   2.147   1.057   0.751 -1.5159 -0.9529 -0.5551
  459SOL    HW2 1377   1.994   1.116   0.799 -0.5854  1.9124 -0.2150
  460SOL     OW 1378   0.883   2.418   2.380 -0.0598 -0.0737 -0.3670
  460SOL    HW1 1379   0.914   2.516   2.385 -2.7397  0.5213  0.7835
  460SOL    HW2 1380   0.894   2.381   2.476  1.5914  0.6951  1.3345
  461SOL     OW 1381   0.490   1.770   2.915 -0.3630 -0.5359 -0.7147
  461SOL    HW1 1382   0.511   1.676   2.888  0.0423  1.5219 -1.3508
  461SOL    HW2 1383   0.466   1.771   3.011  0.9291 -0.7016 -1.3778
  462SOL     OW 1384   2.411   2.055   0.432  0.1157 -0.4476  0.3959
  462SOL    HW1 1385   2.346   2.055   0.508  2.8779  0.2704 -1.2045
  462SOL    HW2 1386   2.359   2.036   0.342 -1.6903 -1.6115 -0.5500
  463SOL     OW 1387   2.870   0.470   0.118  0.2257 -0.3516 -0.3774
  463SOL    HW1 1388   2.818   0.468   0.032 -0.6087 -1.0618  1.0550
  463SOL    HW2 1389   2.865   0.376   0.157 -2.2596 -0.0878 -0.3470
  464SOL     OW 1390   0.369   1.330   0.605 -0.1591  0.0654  0.4345
  464SOL    HW1 1391   0.312   1.391   0.548 -0.6825  0.0551  1.7263
  464SOL    HW2 1392   0.441   1.279   0.552  1.5724 -0.4988  0.2613
  465SOL     OW 1393   2.185   0.091   1.391 -0.2425  0.0812 -0.0441
  465SOL    HW1 1394   2.117   0.018   1.382 -0.7623 -1.1791 -0.3592
  465SOL    HW2 1395   2.135   0.173   1.358 -1.2490 -1.6152 -0.5006
  466SOL     OW 1396   2.234   3.066   0.755 -0.3012 -0.2576  0.0267
  466SOL    HW1 1397   2.247   2.964   0.755 -0.8027 -0.6820  1.7788
  466SOL    HW2 1398   2.311   0.042   0.796 -1.1289  0.7432 -0.9163
  467SOL     OW 1399   2.928   0.635   2.169  0.8141  0.4394 -0.2121
  467SOL    HW1 1400   2.833   0.637   2.212 -2.0807 -3.1753  2.5140
  467SOL    HW2 1401   2.961   0.727   2.161 -0.9650 -0.1657  0.5178
  468SOL     OW 1402   2.862   0.110   2.191  0.1204 -0.1937 -1.0233
  468SOL    HW1 1403   2.958   0.133   2.208 -0.5447  1.1905  3.0736
  468SOL    HW2 1404   2.844   0.081   2.092  0.0583  1.4289 -0.5782
  469SOL     OW 1405   0.750   3.059   1.706  0.2026 -0.1392  0.1064
  469SOL    HW1 1406   0.766   0.023   1.802 -0.8113 -1.5886 -1.8929
  469SOL    HW2 1407   0.666   0.035   1.665  0.0230  2.1651  1.8592
  470SOL     OW 1408   2.840   0.770   1.626  0.2770 -0.4103  0.4202
  470SOL    HW1 1409   2.867   0.814   1.533 -0.1009 -1.5111 -2.5687
  470SOL    HW2 1410   2.814   0.836   1.703 -1.2685  1.4488  2.1289
  471SOL     OW 1411   2.752   1.663   2.589 -0.8539 -0.3574  0.2804
  471SOL    HW1 1412   2.769   1.650   2.688 -1.2099 -1.3154 -3.6181
  471SOL    HW2 1413   2.655   1.645   2.573 -1.0882  0.6094  2.6594
  472SOL     OW 1414   0.732   1.827   0.451 -1.0182 -0.1398  0.1176
  472SOL    HW1 1415   0.832   1.850   0.463  0.5929  2.8493  0.1861
  472SOL    HW2 1416   0.674   1.910   0.464 -5.3069  0.1638  1.1533
  473SOL     OW 1417   1.512   2.175   2.078  0.3770 -0.1807 -0.1191
  473SOL    HW1 1418   1.528   2.073   2.075  1.6449  2.8325 -2.0392
  473SOL    HW2 1419   1.522   2.216   2.170 -3.0710 -1.1511 -0.0731
  474SOL     OW 1420   0.750   2.737   2.412  0.4645 -0.2393  0.7965
  474SOL    HW1 1421   0.846   2.707   2.391 -3.0355 -1.7147  0.0744
  474SOL    HW2 1422   0.732   2.713   2.507  0.6079  0.0376 -0.1542
  475SOL     OW 1423   0.691   1.968   2.678  0.6046 -0.5788  0.0183
  475SOL    HW1 1424   0.598   1.945   2.709  0.5661  1.0676  2.5633
  475SOL    HW2 1425   0.743   1.974   2.765 -2.5284  1.9964  0.5802
  476SOL     OW 1426   0.660   0.456   0.980 -0.3680  0.3945 -0.5264
  476SOL    HW1 1427   0.604   0.513   1.051 -2.7521  0.0127  2.1072
  476SOL    HW2 1428   0.615   0.462   0.887 -2.0884 -0.5183 -3.1208
  477SOL     OW 1429   1.806   2.252   1.339  0.0291 -0.7468 -0.4432
  477SOL    HW1 1430   1.796   2.317   1.261 -0.2046 -2.4774 -0.0767
  477SOL    HW2 1431   1.877   2.181   1.321  0.7026  1.0793  1.3234
  478SOL     OW 1432   0.180   0.410   2.656  0.7053  0.3671  0.2678
  478SOL    HW1 1433   0.088   0.405   2.695 -0.3524 -1.4594  3.0842
  478SOL    HW2 1434   0.231   0.476   2.711  0.3733 -3.5065 -0.9401
  479SOL     OW 1435   1.044   0.538   1.261 -0.2204  0.2849 -0.2618
  479SOL    HW1 1436   1.014   0.585   1.344  1.3490 -1.3071 -1.5446
  479SOL    HW2 1437   1.083   0.599   1.193  2.6729  0.2307  1.9057
  480SOL     OW 1438   2.785   2.364   0.172 -0.1728 -0.2498 -0.6143
  480SOL    HW1 1439   2.742   2.314   0.100 -0.8689  0.6985  0.9088
  480SOL    HW2 1440   2.877   2.331   0.197  0.0515  2.0596 -1.7671
  481SOL     OW 1441   0.102   0.567   1.494  0.0078  0.1435  0.0510
  481SOL    HW1 1442   0.165   0.503   1.539  0.1525  0.5046 -4.0567
  481SOL    HW2 1443   0.013   0.555   1.542  2.5011 -0.4115  0.6592
  482SOL     OW 1444   0.987   2.984   1.472  0.3210  0.4340 -0.0140
  482SOL    HW1 1445   0.920   3.049   1.431 -1.4120 -2.2259 -0.8925
  482SOL    HW2 1446   0.931   2.909   1.516  1.1128 -0.9637  0.1263
  483SOL     OW 1447   3.054   1.343   2.321  0.8293  0.0147 -0.7077
  483SOL    HW1 1448   3.031   1.247   2.286 -1.9104 -0.0456 -0.5246
  483SOL    HW2 1449   2.962   1.379   2.361 -0.9270  0.1025  1.8256
  484SOL     OW 1450   1.519   1.390   1.713  0.3052  0.4038  0.4095
  484SOL    HW1 1451   1.447   1.373   1.780  0.0268  0.9841 -1.7004
  484SOL    HW2 1452   1.603   1.339   1.744 -0.1944 -1.1104 -0.1170
  485SOL     OW 1453   0.134   2.729   2.381  0.5063  0.2101  0.1379
  485SOL    HW1 1454   0.160   2.711   2.478  1.4078 -1.6727  0.3468
  485SOL    HW2 1455   0.212   2.760   2.323 -0.2942  2.2845 -2.6427
  486SOL     OW 1456   1.134   0.006   0.915  0.2457  0.3461  0.1149
  486SOL    HW1 1457   1.196   3.038   0.845 -2.3015 -1.6287 -0.3526
  486SOL    HW2 1458   1.048   3.032   0.899  2.6656 -0.3553 -1.6791
  487SOL     OW 1459   1.434   0.349   0.961 -0.1673  0.0353  0.1990
  487SOL    HW1 1460   1.532   0.329   0.934  2.9849 -0.8289 -0.9738
  487SOL    HW2 1461   1.386   0.280   1.018  1.5366  1.6939 -0.0034
  488SOL     OW 1462   2.431   1.183   0.728  0.2246 -0.1982  0.2565
  488SOL    HW1 1463   2.459   1.214   0.634  0.1173  1.5716  1.3465
  488SOL    HW2 1464   2.509   1.170   0.793 -1.0097  1.5347  1.3864
  489SOL     OW 1465   1.323   0.717   1.336 -0.4522 -0.6180 -0.3332
  489SOL    HW1 1466   1.412   0.762   1.352 -0.9133  1.2009 -1.9203
  489SOL    HW2 1467   1.285   0.732   1.242 -3.7321  0.0315 -0.1831
  490SOL     OW 1468   1.017   0.679   2.788 -0.7346 -0.2647 -0.1415
  490SOL    HW1 1469   1.076   0.670   2.870  1.9072  1.9710  2.0763
  490SOL    HW2 1470   0.920   0.653   2.803 -0.5371  0.6689 -0.3812
  491SOL     OW 1471   0.908   2.349   0.831 -0.0988  0.6644  0.3222
  491SOL    HW1 1472   0.918   2.398   0.918 -0.4844 -0.5799 -2.7455
  491SOL    HW2 1473   0.820   2.301   0.818 -2.2141 -4.7051 -1.9315
  492SOL     OW 1474   1.214   1.599   1.833 -0.5008 -0.4040  0.1644
  492SOL    HW1 1475   1.147   1.669   1.814 -1.6446 -2.4594  1.1045
  492SOL    HW2 1476   1.259   1.632   1.917 -2.0326 -2.0934  2.5805
  493SOL     OW 1477   0.493   1.540   0.294 -0.4382  0.3280  0.3060
  493SOL    HW1 1478   0.481   1.571   0.386  2.7489 -1.3246 -2.3626
  493SOL    HW2 1479   0.588   1.512   0.270  2.8602  0.0655 -0.5600
  494SOL     OW 1480   2.058   2.771   0.578  0.0859  0.1240 -0.0160
  494SOL    HW1 1481   1.990   2.715   0.627 -1.0617 -0.3298  1.7754
  494SOL    HW2 1482   2.124   2.810   0.649 -1.0350 -2.6159  1.8306
  495SOL     OW 1483   0.200   1.481   2.222 -0.4002 -0.6818  0.1263
  495SOL    HW1 1484   0.114   1.432   2.257 -1.3194 -0.9974 -0.0913
  495SOL    HW2 1485   0.255   1.516   2.300 -1.0096 -3.0995 -1.4963
  496SOL     OW 1486   0.439   2.445   2.746  0.1492 -0.8044  0.1166
  496SOL    HW1 1487   0.520   2.387   2.723  0.4811  0.5628  2.4997
  496SOL    HW2 1488   0.361   2.388   2.762  0.5732  0.0024 -1.0767
  497SOL     OW 1489   1.751   1.402   0.410 -0.2656  0.7653  0.8431
  497SOL    HW1 1490   1.750   1.494   0.372  0.3544 -0.4474  0.9422
  497SOL    HW2 1491   1.776   1.400   0.508 -0.9389 -2.1933 -2.5790
  498SOL     OW 1492   2.935   2.641   0.379  0.4216 -0.3222 -0.1836
  498SOL    HW1 1493   2.937   2.705   0.293 -0.3487 -0.2523 -1.8585
  498SOL    HW2 1494   2.849   2.589   0.393  0.5127  1.0762 -0.1159
  499SOL     OW 1495   2.286   2.810   0.704 -0.7321 -0.1696 -0.1906
  499SOL    HW1 1496   2.371   2.800   0.643  0.8368  0.2537 -0.2257
  499SOL    HW2 1497   2.291   2.751   0.786  0.5417  2.3887  1.6054
  500SOL     OW 1498   0.236   0.373   2.349  0.0821 -0.7062  0.1632
  500SOL    HW1 1499   0.241   0.475   2.350  1.3712 -0.8490 -0.3040
  500SOL    HW2 1500   0.271   0.331   2.436 -1.2530 -1.2399 -1.5058
  501SOL     OW 1501   1.784   2.564   1.486  0.3167  0.2932  0.5790
  501SOL    HW1 1502   1.827   2.500   1.413 -0.6021  2.3127 -2.1184
  501SOL    HW2 1503   1.782   2.522   1.577 -1.0227  0.9254 -3.8738
  502SOL     OW 1504   2.936   0.093   2.648  0.2308  0.2354  0.0095
  502SOL    HW1 1505   3.035   0.108   2.634 -1.4027  0.6390 -2.7569
  502SOL    HW2 1506   2.887   0.038   2.578 -1.8581 -0.3650  0.8199
  503SOL     OW 1507   1.820   2.616   2.223 -0.1443 -0.3300 -0.1461
  503SOL    HW1 1508   1.739   2.642   2.167 -1.9169  1.3337 -2.2563
  503SOL    HW2 1509   1.795   2.585   2.316 -1.1353  0.1543  1.7946
  504SOL     OW 1510   2.035   0.355   1.817 -0.3291 -0.3181 -0.5158
  504SOL    HW1 1511   2.001   0.297   1.744 -1.6586  0.7213  2.1518
  504SOL    HW2 1512   2.129   0.389   1.805 -0.4630 -1.0975  0.9659
  505SOL     OW 1513   2.633   1.411   1.115 -0.1882  0.1171  0.3076
  505SOL    HW1 1514   2.684   1.494   1.098  0.7692  2.8679 -0.6832
  505SOL    HW2 1515   2.624   1.389   1.216  2.1828  1.0269  1.5603
  506SOL     OW 1516   0.112   1.623   1.716 -0.3375 -0.0476  0.0862
  506SOL    HW1 1517   0.096   1.674   1.628 -2.2353 -1.0587 -1.3663
  506SOL    HW2 1518   0.119   1.683   1.798 -2.3757 -2.0240  1.2045
  507SOL     OW 1519   0.627   2.326   1.300 -0.4747 -0.6994 -0.2298
  507SOL    HW1 1520   0.669   2.407   1.246  1.1421  2.9650 -2.5034
  507SOL    HW2 1521   0.602   2.350   1.391 -2.6958  1.3245 -0.3702
  508SOL     OW 1522   0.402   0.556   2.049  0.2871 -0.1910 -0.2683
  508SOL    HW1 1523   0.497   0.600   2.053 -0.5191 -1.9569  0.4682
  508SOL    HW2 1524   0.398   0.459   2.083 -0.7309  2.0038 -0.6162
  509SOL     OW 1525   1.571   2.579   2.090  0.1280  0.2949  0.6232
  509SOL    HW1 1526   1.521   2.595   2.001 -0.8332  0.2661  0.6414
  509SOL    HW2 1527   1.636   2.502   2.068 -0.0295 -0.0222  0.2854
  510SOL     OW 1528   2.150   1.371   2.473 -0.6137 -0.3051  0.3552
  510SOL    HW1 1529   2.150   1.427   2.559 -1.3959  4.0134  1.0421
  510SOL    HW2 1530   2.135   1.272   2.497  0.9671  0.5598 -2.0659
  511SOL     OW 1531   1.250   0.995   1.019  0.2854  0.2852  0.8881
  511SOL    HW1 1532   1.256   1.019   1.116 -0.1604 -0.4554 -0.7803
  511SOL    HW2 1533   1.194   1.056   0.965  1.6796 -2.4593  0.1145
  512SOL     OW 1534   3.022   1.588   0.565  0.4397 -0.5287  0.5826
  512SOL    HW1 1535   2.955   1.605   0.639 -0.2333  0.7736  2.5343
  512SOL    HW2 1536   0.020   1.665   0.562  1.6460  1.7364 -1.9669
  513SOL     OW 1537   1.202   2.114   2.327 -0.0932 -0.6276 -0.7087
  513SOL    HW1 1538   1.151   2.128   2.417 -1.8534 -0.3146  4.0756
  513SOL    HW2 1539   1.184   2.184   2.254  1.9474  1.4826 -1.2603
  514SOL     OW 1540   0.283   2.188   1.106 -0.0056  0.5982  0.4829
  514SOL    HW1 1541   0.223   2.114   1.069 -0.1726 -2.1318 -0.4009
  514SOL    HW2 1542   0.282   2.184   1.207  0.7259 -2.4946  2.3992
  515SOL     OW 1543   1.771   0.696   1.522  0.6182 -0.4489  0.1198
  515SOL    HW1 1544   1.727   0.769   1.577  0.4658 -1.0098  4.1746
  515SOL    HW2 1545   1.714   0.672   1.443 -2.3192  0.6742  0.4153
  516SOL     OW 1546   2.176   0.550   3.018 -0.1291 -0.4895 -0.1156
  516SOL    HW1 1547   2.226   0.471   2.979  0.2023  1.0257  2.7581
  516SOL    HW2 1548   2.229   0.605   0.015 -0.9703 -1.6817 -2.5011
  517SOL     OW 1549   1.041   1.754   2.935  0.4105 -0.7119 -0.7531
  517SOL    HW1 1550   1.066   1.679   2.998 -0.4166  3.0692  0.8763
  517SOL    HW2 1551   0.939   1.768   2.948 -4.4436 -3.5934  0.5475
  518SOL     OW 1552   1.439   2.597   1.870 -0.3851 -0.4375 -0.1207
  518SOL    HW1 1553   1.457   2.688   1.831 -3.7828 -0.9896 -3.0805
  518SOL    HW2 1554   1.424   2.525   1.801  1.5258 -0.1613 -0.8674
  519SOL     OW 1555   2.065   0.009   0.989  0.3007  0.4461 -0.2438
  519SOL    HW1 1556   2.143   3.069   0.927  1.5908 -0.3779  1.4682
  519SOL    HW2 1557   1.976   3.054   0.948  0.3853  1.4261  1.0997
  520SOL     OW 1558   2.592   1.657   2.109  0.1831 -0.7250 -0.2198
  520SOL    HW1 1559   2.608   1.633   2.012  1.1003  0.5934 -0.5895
  520SOL    HW2 1560   2.554   1.753   2.111 -3.5000  1.1675 -0.9012
  521SOL     OW 1561   2.606   0.742   3.002  0.1400  0.2770 -0.1310
  521SOL    HW1 1562   2.610   0.686   2.921  2.0282  2.1012 -0.0187
  521SOL    HW2 1563   2.569   0.694   0.011  1.0362  0.6047 -3.3850
  522SOL     OW 1564   0.709   0.888   2.569  0.3274  0.0237  0.6235
  522SOL    HW1 1565   0.683   0.793   2.538 -2.5651 -0.7685  0.0324
  522SOL    HW2 1566   0.687   0.952   2.498 -0.2961 -1.5701 -0.3911
  523SOL     OW 1567   0.308   2.413   0.374  0.1499  0.7406  0.1185
  523SOL    HW1 1568   0.373   2.383   0.446  1.3860  2.0326 -0.2992
  523SOL    HW2 1569   0.263   2.334   0.334  2.9180  0.3068  0.7478
  524SOL     OW 1570   2.049   2.533   2.920 -0.1527 -0.0497  0.1855
  524SOL    HW1 1571   1.991   2.513   2.836 -1.6258 -3.3516 -2.3525
  524SOL    HW2 1572   2.122   2.598   2.897 -2.3285  0.8066  0.4733
  525SOL     OW 1573   2.637   0.602   1.724 -0.2391  0.3994 -0.1241
  525SOL    HW1 1574   2.717   0.663   1.703 -0.6502  3.3422  1.3581
  525SOL    HW2 1575   2.654   0.534   1.800 -1.5791  2.0481  1.7881
  526SOL     OW 1576   1.114   2.993   0.338 -0.3852  0.4842  0.1785
  526SOL    HW1 1577   1.177   2.967   0.262  0.7721 -0.6752  1.0389
  526SOL    HW2 1578   1.161   3.056   0.403 -0.8957 -1.2474 -0.4830
  527SOL     OW 1579   2.105   0.169   0.603  0.2216  0.2089  0.2425
  527SOL    HW1 1580   2.149   0.102   0.668  0.3582 -0.4528  2.0251
  527SOL    HW2 1581   2.133   0.146   0.503  2.6594 -0.7899 -1.3333
  528SOL     OW 1582   1.662   0.994   2.773 -0.6622 -0.7593 -0.0203
  528SOL    HW1 1583   1.659   0.923   2.845 -3.8844 -0.1878 -2.8927
  528SOL    HW2 1584   1.569   1.027   2.753 -1.9862  3.3474  0.6093
  529SOL     OW 1585   1.676   1.387   2.161 -0.1081 -0.6217 -0.1340
  529SOL    HW1 1586   1.613   1.307   2.158 -1.3514  0.7942 -0.6405
  529SOL    HW2 1587   1.776   1.369   2.142  2.7450 -1.4502 -2.6753
  530SOL     OW 1588   2.425   2.729   3.038  0.2910 -0.0874 -0.1278
  530SOL    HW1 1589   2.423   2.659   0.045 -1.4109 -1.3627  2.6791
  530SOL    HW2 1590   2.417   2.825   0.003  2.4483 -0.1776 -1.5063
  531SOL     OW 1591   1.879   1.560   2.835  0.5576 -0.3082 -0.3019
  531SOL    HW1 1592   1.946   1.490   2.871  0.6873 -4.5273  0.1529
  531SOL    HW2 1593   1.836   1.533   2.746 -2.9407  0.8799  0.1661
  532SOL     OW 1594   1.499   0.350   1.279 -0.4166  0.1571  0.1956
  532SOL    HW1 1595   1.451   0.380   1.193 -0.8238  2.9562 -0.5930
  532SOL    HW2 1596   1.453   0.397   1.359 -1.0063 -0.6715  0.5488
  533SOL     OW 1597   0.503   0.741   3.025  0.5188  0.5438 -0.4344
  533SOL    HW1 1598   0.528   0.817   0.017 -0.0214  2.5690 -0.4607
  533SOL    HW2 1599   0.505   0.767   2.924  0.8827  3.2406  1.2345
  534SOL     OW 1600   1.673   0.814   2.960  0.2940  0.3456  0.2407
  534SOL    HW1 1601   1.739   0.744   2.924 -1.1794  1.1829  0.8298
  534SOL    HW2 1602   1.697   0.830   3.058 -1.5554 -1.1710  2.2931
  535SOL     OW 1603   0.751   2.282   2.863 -0.1957  0.2655 -0.2306
  535SOL    HW1 1604   0.682   2.306   2.938 -1.3047  1.1555  3.3520
  535SOL    HW2 1605   0.820   2.209   2.888  2.2458  0.4905 -0.7943
  536SOL     OW 1606   0.815   3.027   0.157 -0.1557  0.0936 -0.0690
  536SOL    HW1 1607   0.821   3.039   0.257  1.2002  1.9173 -0.7837
  536SOL    HW2 1608   0.732   3.069   0.123  0.1149 -1.1442  1.7958
  537SOL     OW 1609   1.975   0.184   0.092  0.1988  0.9195 -0.0001
  537SOL    HW1 1610   1.898   0.160   0.152 -0.4973 -1.3514  1.9672
  537SOL    HW2 1611   1.961   0.277   0.051 -0.2886 -1.7752 -1.6837
  538SOL     OW 1612   2.450   2.537   0.156 -0.1832  0.0405  0.0652
  538SOL    HW1 1613   2.364   2.481   0.144 -0.6447  0.8673 -0.5478
  538SOL    HW2 1614   2.472   2.525   0.254  2.7292 -0.4928 -0.3437
  539SOL     OW 1615   2.745   1.388   3.003  0.3596  0.6366  0.1267
  539SOL    HW1 1616   2.727   1.288   2.979 -0.8923 -0.2656  1.0959
  539SOL    HW2 1617   2.779   1.393   0.028 -1.1474  0.3645  0.1546
  540SOL     OW 1618   1.018   2.693   2.070  0.2328 -0.0183  0.4683
  540SOL    HW1 1619   0.956   2.714   1.986 -1.6993  3.9767 -1.4185
  540SOL    HW2 1620   1.086   2.624   2.050 -1.7111  0.8332  0.5465
  541SOL     OW 1621   2.299   2.887   2.420  0.2915 -0.7603  0.5521
  541SOL    HW1 1622   2.259   2.980   2.436  1.9601 -0.2557 -0.7377
  541SOL    HW2 1623   2.395   2.882   2.454 -0.5320 -0.9079  0.6468
  542SOL     OW 1624   0.683   0.521   0.004 -0.0604 -0.0001  0.4837
  542SOL    HW1 1625   0.648   0.424   3.069 -2.6050 -1.1586 -1.2476
  542SOL    HW2 1626   0.603   0.584   3.059 -2.2040  2.7556  0.4407
  543SOL     OW 1627   0.297   0.922   0.809 -0.4237 -0.2556 -0.4669
  543SOL    HW1 1628   0.209   0.956   0.844 -3.0248 -0.4257 -0.8969
  543SOL    HW2 1629   0.375   0.987   0.831  0.9207 -2.4899 -0.9604
  544SOL     OW 1630   2.420   0.641   1.323 -0.2803  0.0625  0.0071
  544SOL    HW1 1631   2.488   0.568   1.309  1.8514 -1.5564  0.6303
  544SOL    HW2 1632   2.454   0.729   1.291 -0.8575 -0.2081 -0.9160
  545SOL     OW 1633   1.177   1.611   0.043  0.1532 -0.3914 -0.7187
  545SOL    HW1 1634   1.274   1.643   0.053  0.2066  1.0615  0.3795
  545SOL    HW2 1635   1.160   1.522   0.095 -1.2160 -0.1752 -1.3486
  546SOL     OW 1636   2.386   2.910   1.522 -0.0583 -0.3008  0.8967
  546SOL    HW1 1637   2.284   2.929   1.529 -1.5199  1.0263 -0.2636
  546SOL    HW2 1638   2.395   2.818   1.563 -0.1454 -0.4281  0.4073
  547SOL     OW 1639   1.471   2.545   2.357 -0.1766 -0.3602  0.7152
  547SOL    HW1 1640   1.509   2.548   2.261 -1.6480  1.4825  0.7012
  547SOL    HW2 1641   1.369   2.526   2.357 -1.0499 -2.2492  1.0031
  548SOL     OW 1642   1.486   0.737   2.668  0.5246 -0.0927  0.4868
  548SOL    HW1 1643   1.435   0.790   2.740 -0.1217  2.8489  0.4075
  548SOL    HW2 1644   1.471   0.635   2.683  2.3431 -2.1579  0.8801
  549SOL     OW 1645   2.112   0.685   0.381  0.3911  0.3090  0.2043
  549SOL    HW1 1646   2.019   0.644   0.365 -0.2458 -0.8763  0.3341
  549SOL    HW2 1647   2.174   0.625   0.429 -0.8504 -1.5656 -1.0352
  550SOL     OW 1648   2.503   1.535   0.438  0.2492  0.7357  0.5974
  550SOL    HW1 1649   2.478   1.627   0.475 -0.3597 -2.6914  0.4773
  550SOL    HW2 1650   2.450   1.514   0.355 -2.5168  0.4549  0.9419
  551SOL     OW 1651   1.861   3.053   1.545 -0.0750 -0.0027  0.6359
  551SOL    HW1 1652   1.899   0.076   1.562  0.8520  1.2569 -1.2141
  551SOL    HW2 1653   1.805   3.056   1.459 -2.3257  0.4272  0.6563
  552SOL     OW 1654   1.349   0.101   2.774 -0.6915 -0.2679 -0.2823
  552SOL    HW1 1655   1.305   0.192   2.753  0.1734 -2.9576 -1.8773
  552SOL    HW2 1656   1.450   0.105   2.753  0.9273 -0.1116  2.0659
  553SOL     OW 1657   0.698   2.600   1.940 -0.4596 -0.5973  0.1711
  553SOL    HW1 1658   0.706   2.644   2.034  0.6597  1.2361  0.7696
  553SOL    HW2 1659   0.667   2.502   1.948  0.1139  0.5473 -1.8398
  554SOL     OW 1660   0.301   2.971   1.174 -0.6382 -0.6195 -0.6022
  554SOL    HW1 1661   0.224   2.964   1.106 -1.3512  1.7343 -0.6700
  554SOL    HW2 1662   0.348   2.883   1.199  0.5801 -1.9146 -0.5831
  555SOL     OW 1663   2.490   1.489   2.301  0.1490 -0.4376 -0.5172
  555SOL    HW1 1664   2.510   1.561   2.229  0.9676  0.7421 -1.1244
  555SOL    HW2 1665   2.425   1.416   2.272  0.8746  1.6138  0.8484
  556SOL     OW 1666   1.172   0.666   3.016  0.3991  0.5269  0.1442
  556SOL    HW1 1667   1.254   0.710   2.982 -2.8165 -0.8831  1.8581
  556SOL    HW2 1668   1.179   0.567   3.037  0.5074 -0.4728 -0.0249
  557SOL     OW 1669   0.317   2.173   2.163  0.1171  0.4226  0.3249
  557SOL    HW1 1670   0.352   2.166   2.067 -0.3220 -0.1162  1.7459
  557SOL    HW2 1671   0.251   2.102   2.182  1.0247 -0.2800 -0.8398
  558SOL     OW 1672   1.989   0.907   2.920 -0.0588 -0.1204 -0.9280
  558SOL    HW1 1673   1.948   0.818   2.940  0.2074 -1.0453 -2.0480
  558SOL    HW2 1674   1.947   0.947   2.838  0.9286  1.6891 -0.2344
  559SOL     OW 1675   2.001   1.507   1.706  0.4859 -0.1320 -0.4768
  559SOL    HW1 1676   1.951   1.537   1.622 -2.1563 -1.7935 -0.1303
  559SOL    HW2 1677   1.990   1.407   1.710  0.0488  1.3829  0.9783
  560SOL     OW 1678   1.646   0.605   2.092  0.4389  0.5050  0.2246
  560SOL    HW1 1679   1.597   0.671   2.032 -2.1430  0.5420  1.6421
  560SOL    HW2 1680   1.641   0.514   2.049 -1.8010 -0.0441  1.3733
  561SOL     OW 1681   2.740   0.175   2.803 -0.0949  0.2434  0.1937
  561SOL    HW1 1682   2.686   0.093   2.825  0.8976  1.1806 -1.4873
  561SOL    HW2 1683   2.819   0.154   2.741 -0.0106 -0.0122 -1.5387
  562SOL     OW 1684   1.249   1.611   1.563 -0.3011  0.2330 -0.3407
  562SOL    HW1 1685   1.247   1.593   1.659 -1.1724  3.3052 -1.3087
  562SOL    HW2 1686   1.160   1.632   1.524 -1.3166 -1.0734  1.3931
  563SOL     OW 1687   1.207   0.111   0.035 -0.7255 -0.1080 -0.5163
  563SOL    HW1 1688   1.128   0.060   0.001 -2.1599  0.0823  1.5904
  563SOL    HW2 1689   1.289   0.061   0.005  0.5588 -0.0613  1.6799
  564SOL     OW 1690   0.331   2.732   0.588 -0.4991 -0.9726  0.9156
  564SOL    HW1 1691   0.394   2.788   0.534 -1.6484 -1.9808 -0.4898
  564SOL    HW2 1692   0.254   2.694   0.530 -0.6690 -0.5074 -1.1422
  565SOL     OW 1693   0.740   2.537   1.169  0.0688  0.1747  0.1143
  565SOL    HW1 1694   0.753   2.619   1.230 -1.5858  2.7023 -0.2707
  565SOL    HW2 1695   0.833   2.493   1.155  2.2767 -0.0240 -1.8926
  566SOL     OW 1696   1.156   3.062   2.299  0.1136  0.2316  0.0996
  566SOL    HW1 1697   1.081   0.059   2.289 -1.1628 -2.7516  1.2046
  566SOL    HW2 1698   1.178   3.011   2.213  0.4760 -0.6775  0.2660
  567SOL     OW 1699   2.011   0.296   1.037 -0.2901  0.2844 -0.6450
  567SOL    HW1 1700   2.017   0.373   0.971  0.0784  3.1193  1.2673
  567SOL    HW2 1701   1.995   0.210   0.990 -1.6827  3.3216 -0.0165
  568SOL     OW 1702   1.619   1.751   0.584  0.1928  0.0538  0.2461
  568SOL    HW1 1703   1.665   1.725   0.496  1.9822 -1.1883 -1.5180
  568SOL    HW2 1704   1.575   1.844   0.574 -0.5805  2.4461 -0.7924
  569SOL     OW 1705   2.010   0.482   2.070  0.1257 -0.0917 -0.1955
  569SOL    HW1 1706   2.006   0.412   1.996  0.6556 -0.5901 -1.8253
  569SOL    HW2 1707   1.949   0.458   2.153 -3.0544  0.3922  2.2568
  570SOL     OW 1708   3.040   2.930   2.053 -0.0988  0.6046  0.9527
  570SOL    HW1 1709   2.954   2.983   2.033  1.6015 -0.3147 -1.0086
  570SOL    HW2 1710   0.031   2.979   2.117  1.4502 -2.7450  3.5919
  571SOL     OW 1711   0.607   0.070   1.212  0.2533 -0.0215 -0.1454
  571SOL    HW1 1712   0.552   0.081   1.294  1.6295  0.9528 -0.3389
  571SOL    HW2 1713   0.562   0.121   1.134 -0.0046  1.0726 -2.6955
  572SOL     OW 1714   0.479   2.452   1.532 -0.3772  0.1293  0.1348
  572SOL    HW1 1715   0.466   2.547   1.501  2.2437  0.3329  1.2131
  572SOL    HW2 1716   0.461   2.447   1.632  0.0291  4.4382 -1.6586
  573SOL     OW 1717   1.154   1.094   2.556 -0.5094  0.0132 -0.3083
  573SOL    HW1 1718   1.122   1.185   2.529  0.4649 -3.5311  3.8633
  573SOL    HW2 1719   1.085   1.053   2.624 -0.2033 -2.3970 -1.6247
  574SOL     OW 1720   2.185   2.268   2.084  0.0501 -0.4278  0.2167
  574SOL    HW1 1721   2.265   2.265   2.021  0.0254 -0.0646  1.8591
  574SOL    HW2 1722   2.149   2.365   2.097 -2.9688  2.1437 -3.3845
  575SOL     OW 1723   1.287   2.953   0.708 -0.1650  0.3329  0.3412
  575SOL    HW1 1724   1.271   3.029   0.642 -2.1322 -1.4925  0.0476
  575SOL    HW2 1725   1.301   2.860   0.669 -0.8261 -0.9490  1.2080
  576SOL     OW 1726   1.328   0.638   0.878  0.1979  0.0701  0.0758
  576SOL    HW1 1727   1.331   0.652   0.779  0.8227 -2.4017  2.0331
  576SOL    HW2 1728   1.368   0.548   0.899 -0.6785  0.6668 -0.8113
  577SOL     OW 1729   2.230   1.973   0.218  0.7089  0.2176 -0.2599
  577SOL    HW1 1730   2.211   1.941   0.124 -2.0666 -1.9679  0.6817
  577SOL    HW2 1731   2.201   1.901   0.287 -0.4366  0.6267  0.4390
  578SOL     OW 1732   2.128   0.599   1.316 -0.1736 -0.2090  0.2000
  578SOL    HW1 1733   2.228   0.598   1.315 -1.8094 -1.3469 -1.5162
  578SOL    HW2 1734   2.086   0.686   1.355 -1.0140 -1.3603  1.1656
  579SOL     OW 1735   1.629   1.078   2.458  0.7099  0.0633 -0.7915
  579SOL    HW1 1736   1.569   1.129   2.390 -3.2504 -0.6271 -2.4393
  579SOL    HW2 1737   1.726   1.115   2.458  3.0910  0.5920  1.3090
  580SOL     OW 1738   1.282   0.967   1.683 -0.4817 -0.4597 -0.8620
  580SOL    HW1 1739   1.362   0.958   1.619  1.1490  1.6098 -1.4973
  580SOL    HW2 1740   1.211   0.892   1.672  1.6036  0.8701  1.8149
  581SOL     OW 1741   0.053   1.034   0.879  0.2970  0.3769  0.4203
  581SOL    HW1 1742   3.043   0.994   0.915  1.8136  1.9535 -0.2649
  581SOL    HW2 1743   0.058   1.128   0.915  1.1908 -0.7405 -1.0152
  582SOL     OW 1744   2.960   0.511   1.933  0.7676  0.4507 -0.1595
  582SOL    HW1 1745   2.867   0.489   1.908  1.0429  0.7261  1.7895
  582SOL    HW2 1746   2.958   0.557   2.022  1.5788 -0.7714 -0.2254
  583SOL     OW 1747   2.771   0.956   2.522  0.0947  0.0868  0.2674
  583SOL    HW1 1748   2.752   1.027   2.448  0.5276  1.4608 -3.4010
  583SOL    HW2 1749   2.713   0.981   2.603  1.9171 -0.1545 -0.5961
  584SOL     OW 1750   2.031   2.406   0.536 -0.2023  0.0838 -0.1010
  584SOL    HW1 1751   2.036   2.357   0.628  0.2167 -2.9944  2.2740
  584SOL    HW2 1752   2.116   2.396   0.481 -0.0518 -0.0803  0.0851
  585SOL     OW 1753   0.133   2.274   0.098  0.3549  0.2890 -0.1090
  585SOL    HW1 1754   0.104   2.220   0.014 -2.2885 -0.0382 -1.0088
  585SOL    HW2 1755   0.046   2.299   0.150 -1.6388 -1.1664 -0.1864
  586SOL     OW 1756   1.863   1.729   2.287  1.0932  0.5764  0.1679
  586SOL    HW1 1757   1.830   1.799   2.218 -1.3146  2.8858 -2.4651
  586SOL    HW2 1758   1.962   1.734   2.304 -0.5518  1.6538  0.0270
  587SOL     OW 1759   2.210   1.549   2.783 -0.6302  0.2029 -0.2243
  587SOL    HW1 1760   2.311   1.533   2.785  0.1903 -0.4781 -0.7479
  587SOL    HW2 1761   2.167   1.485   2.848  1.1195  1.5325 -0.1975
  588SOL     OW 1762   2.528   2.969   1.290  0.0591 -0.4284  0.0466
  588SOL    HW1 1763   2.481   2.964   1.381  0.1801  0.1025  2.9442
  588SOL    HW2 1764   2.618   2.923   1.298 -1.3797 -0.1733  0.5074
  589SOL     OW 1765   0.564   0.263   0.661  0.2152  0.6984  0.3208
  589SOL    HW1 1766   0.476   0.219   0.623 -4.8512  0.4867  0.4548
  589SOL    HW2 1767   0.550   0.359   0.700  0.2840 -0.9081 -1.0550
  590SOL     OW 1768   2.442   2.201   1.129  0.0909  0.1852  0.2992
  590SOL    HW1 1769   2.348   2.226   1.089 -4.1172 -1.6998  0.3392
  590SOL    HW2 1770   2.501   2.283   1.122 -0.2209  2.2169 -0.7334
  591SOL     OW 1771   1.268   2.155   0.928  0.1394  0.3923 -0.2404
  591SOL    HW1 1772   1.366   2.135   0.955 -2.0456  2.2068  0.8040
  591SOL    HW2 1773   1.264   2.250   0.896  0.9786  1.2964 -1.3135
  592SOL     OW 1774   1.111   1.190   1.255 -0.0037 -0.1743 -0.3296
  592SOL    HW1 1775   1.050   1.113   1.225  1.9894 -0.1096 -2.0825
  592SOL    HW2 1776   1.196   1.170   1.311  1.9000 -1.0522  1.1347
  593SOL     OW 1777   1.050   2.672   1.301  0.0229  0.7369 -0.4518
  593SOL    HW1 1778   1.111   2.616   1.364  0.5082 -0.1111  0.9882
  593SOL    HW2 1779   1.098   2.760   1.281  0.4730  0.3520  3.0983
  594SOL     OW 1780   0.776   1.607   3.012  0.4359 -0.3564 -0.6961
  594SOL    HW1 1781   0.703   1.596   2.944  0.3875 -0.1248  2.8825
  594SOL    HW2 1782   0.733   1.654   0.022  1.5789  1.8404 -0.5078
  595SOL     OW 1783   1.382   1.402   1.485 -0.5506  0.0781 -0.5510
  595SOL    HW1 1784   1.436   1.372   1.567  0.4817  1.0135  1.5368
  595SOL    HW2 1785   1.333   1.489   1.508 -2.0457 -1.5156  0.6270
  596SOL     OW 1786   2.774   1.242   2.104  0.1418 -0.5212 -0.1615
  596SOL    HW1 1787   2.719   1.241   2.018  2.9283  0.1381 -0.6512
  596SOL    HW2 1788   2.851   1.314   2.089  2.0954  0.8496  0.0527
  597SOL     OW 1789   1.383   2.394   1.677  0.0139 -0.1185  0.1772
  597SOL    HW1 1790   1.286   2.374   1.647 -0.4226 -1.1107  0.0980
  597SOL    HW2 1791   1.453   2.356   1.609  0.0711  0.0344  0.2788
  598SOL     OW 1792   2.350   1.485   1.337 -0.1546  0.4092  0.0350
  598SOL    HW1 1793   2.342   1.406   1.401  1.8077  0.3446 -1.4748
  598SOL    HW2 1794   2.310   1.469   1.248 -0.9791  1.3486  2.3045
  599SOL     OW 1795   0.865   2.622   2.661 -0.1204  0.2135  0.1444
  599SOL    HW1 1796   0.927   2.685   2.704  0.8193  1.5653 -0.2576
  599SOL    HW2 1797   0.779   2.628   2.719  0.1970  2.3270 -0.0148
  600SOL     OW 1798   3.032   2.300   0.317 -0.5234 -0.0261 -0.3416
  600SOL    HW1 1799   0.011   2.211   0.333  2.3717 -1.0502  3.6228
  600SOL    HW2 1800   2.991   2.342   0.403 -0.5232 -0.3525  1.3604
  601SOL     OW 1801   0.505   0.714   1.397 -0.0050  0.3032  0.6118
  601SOL    HW1 1802   0.529   0.785   1.467  0.7645  3.7477 -0.4510
  601SOL    HW2 1803   0.499   0.624   1.438 -3.4005  1.8709 -0.8551
  602SOL     OW 1804   0.830   0.113   1.403  0.0879 -0.8972 -0.2389
  602SOL    HW1 1805   0.788   0.167   1.478  0.3889 -0.2095 -1.7567
  602SOL    HW2 1806   0.765   0.100   1.325  0.2355  0.6740 -0.6961
  603SOL     OW 1807   0.193   2.957   2.776  0.0474 -0.0249 -0.0329
  603SOL    HW1 1808   0.200   2.869   2.731 -0.9958  0.9369 -0.5908
  603SOL    HW2 1809   0.104   2.962   2.830 -0.0962  2.5357  2.3643
  604SOL     OW 1810   1.640   3.070   1.782 -0.3184 -0.0264 -0.1175
  604SOL    HW1 1811   1.574   0.056   1.731  0.2036  0.9307 -0.9955
  604SOL    HW2 1812   1.613   2.973   1.779  0.4876  2.3295  0.6203
  605SOL     OW 1813   1.340   1.302   1.934  0.0750 -0.0801  0.1012
  605SOL    HW1 1814   1.396   1.237   1.985  0.3372 -3.2169 -1.5553
  605SOL    HW2 1815   1.299   1.375   1.995  1.7614 -0.2213 -1.3966
  606SOL     OW 1816   1.889   2.690   0.047 -0.3545  0.1893 -0.5006
  606SOL    HW1 1817   1.928   2.620   3.059 -0.0040  1.4524 -0.2753
  606SOL    HW2 1818   1.819   2.742   3.063 -1.8973 -4.8913  0.2845
  607SOL     OW 1819   0.632   0.054   2.410 -0.1757  0.1961  0.4598
  607SOL    HW1 1820   0.581   3.058   2.470 -0.2198 -0.2023  0.0147
  607SOL    HW2 1821   0.699   0.104   2.466  0.6926 -1.0470 -2.6545
  608SOL     OW 1822   2.969   2.337   2.048 -0.4379  0.6030 -0.6750
  608SOL    HW1 1823   2.976   2.426   2.091  1.0179  2.7732 -3.5939
  608SOL    HW2 1824   2.983   2.266   2.117  0.6529 -1.0250  1.3913
  609SOL     OW 1825   0.697   1.188   2.950  0.1401 -0.3312 -0.2558
  609SOL    HW1 1826   0.765   1.268   2.951  0.0465  1.2699  0.3900
  609SOL    HW2 1827   0.748   1.099   2.937 -0.4656  0.6293  0.1327
  610SOL     OW 1828   0.609   2.636   0.956  0.8118 -0.3015  0.2748
  610SOL    HW1 1829   0.633   2.732   0.934 -0.3601  1.0256 -1.1144
  610SOL    HW2 1830   0.673   2.596   1.024 -1.3626 -1.7713  2.0120
  611SOL     OW 1831   0.955   1.364   0.678  0.1394  0.2891  0.0484
  611SOL    HW1 1832   1.010   1.297   0.730 -3.0205  1.8346  1.4106
  611SOL    HW2 1833   0.924   1.323   0.588 -0.9071  0.6183 -1.1582
  612SOL     OW 1834   2.211   2.056   0.654 -0.1765 -0.1539 -0.2838
  612SOL    HW1 1835   2.142   1.985   0.631 -0.9430 -0.2989 -0.5773
  612SOL    HW2 1836   2.292   2.021   0.705 -0.7526 -0.0999  2.1717
  613SOL     OW 1837   1.717   1.668   0.341  0.5558 -0.5247 -0.1006
  613SOL    HW1 1838   1.788   1.702   0.277 -2.7726 -0.6853  1.5663
  613SOL    HW2 1839   1.621   1.671   0.303  0.2646  0.2812 -2.1753
  614SOL     OW 1840   2.740   0.439   2.536 -0.6026  0.0859  0.1415
  614SOL    HW1 1841   2.821   0.406   2.488 -0.5355 -1.1295  1.2756
  614SOL    HW2 1842   2.656   0.380   2.527 -0.8904 -1.5961  0.4913
  615SOL     OW 1843   0.553   1.112   0.521 -1.0807  0.2630 -0.1759
  615SOL    HW1 1844   0.594   1.127   0.430  0.7130 -0.0588 -1.3422
  615SOL    HW2 1845   0.600   1.039   0.572 -1.7978  1.9502  0.0014
  616SOL     OW 1846   1.431   1.102   2.632  0.3473  0.7403  0.3946
  616SOL    HW1 1847   1.340   1.082   2.582  0.5333  0.2885 -2.4607
  616SOL    HW2 1848   1.512   1.088   2.569  0.0310  1.4092 -0.6689
  617SOL     OW 1849   1.289   0.863   0.266 -0.0641  0.0182  0.0764
  617SOL    HW1 1850   1.201   0.821   0.239 -2.5292  1.9387  0.5560
  617SOL    HW2 1851   1.364   0.797   0.280 -0.0073  0.3603  2.0318
  618SOL     OW 1852   2.982   1.857   1.881  0.1245 -0.0847 -0.0407
  618SOL    HW1 1853   0.010   1.866   1.905  3.5724  1.5062  2.5166
  618SOL    HW2 1854   2.931   1.849   1.967 -1.9283  0.8960 -0.8065
  619SOL     OW 1855   2.689   2.002   0.813  0.1179 -0.0838 -0.0840
  619SOL    HW1 1856   2.778   1.963   0.790 -0.2504 -0.6384 -1.0019
  619SOL    HW2 1857   2.666   2.095   0.771 -1.1001  4.0830  1.1524
  620SOL     OW 1858   2.774   0.054   1.202  0.8920 -0.3552 -0.6313
  620SOL    HW1 1859   2.772   0.115   1.119  1.1469  1.0696 -0.4574
  620SOL    HW2 1860   2.690   0.003   1.217  1.5860  2.8595  0.3347
  621SOL     OW 1861   0.306   1.700   0.797  0.0325 -0.5705 -0.4161
  621SOL    HW1 1862   0.360   1.614   0.814 -2.0874 -0.9199 -2.4768
  621SOL    HW2 1863   0.330   1.746   0.707  2.5860 -2.6474 -3.3552
  622SOL     OW 1864   0.476   1.646   1.814  0.0960  0.5341  0.0152
  622SOL    HW1 1865   0.378   1.666   1.843 -2.5401 -2.1774 -1.3553
  622SOL    HW2 1866   0.532   1.624   1.897 -0.5621  0.9359  0.2449
  623SOL     OW 1867   2.240   2.748   2.196 -0.4888  0.6313  0.4910
  623SOL    HW1 1868   2.326   2.715   2.162  0.4727  2.5005  2.2040
  623SOL    HW2 1869   2.247   2.788   2.292  1.2195  0.2533 -1.5407
  624SOL     OW 1870   0.477   2.004   0.167 -0.0337 -0.1763  0.4431
  624SOL    HW1 1871   0.472   2.067   0.085  0.7255  1.7022  2.4468
  624SOL    HW2 1872   0.481   1.903   0.144 -0.6390  3.0397  0.3990
  625SOL     OW 1873   0.720   1.935   2.240 -0.2831  0.0251  0.3347
  625SOL    HW1 1874   0.791   1.928   2.312 -2.8406 -1.6407  0.1997
  625SOL    HW2 1875   0.685   1.844   2.207 -0.7656 -0.0282  0.6009
  626SOL     OW 1876   0.023   2.712   3.053  0.7118 -0.1999  0.5572
  626SOL    HW1 1877   0.105   2.659   3.048 -2.9281  1.9848  1.4852
  626SOL    HW2 1878   0.020   2.789   2.983  1.3166  0.0044 -1.7995
  627SOL     OW 1879   1.547   1.534   2.350 -0.5045  0.2737  0.8984
  627SOL    HW1 1880   1.610   1.488   2.284 -1.8949 -0.7123 -1.6339
  627SOL    HW2 1881   1.553   1.486   2.440  0.0722 -0.3449 -0.1306
  628SOL     OW 1882   1.125   2.202   0.343  0.0774 -0.7966 -0.0145
  628SOL    HW1 1883   1.083   2.184   0.434 -2.4382  0.0184  3.5145
  628SOL    HW2 1884   1.173   2.294   0.345  2.3342 -1.5949  2.1749
  629SOL     OW 1885   0.915   0.917   2.321  0.4935 -0.1392 -0.4213
  629SOL    HW1 1886   0.845   0.987   2.357 -1.2383 -0.3945  0.6667
  629SOL    HW2 1887   1.009   0.952   2.333 -2.5022  0.5832 -3.3109
  630SOL     OW 1888   2.808   2.498   1.661  0.3682 -0.3982  0.8806
  630SOL    HW1 1889   2.754   2.516   1.582  0.6513 -1.7106  2.7244
  630SOL    HW2 1890   2.891   2.556   1.656  0.2289  1.1727 -1.6016
  631SOL     OW 1891   1.394   0.995   0.752  0.0050 -0.1093 -0.1320
  631SOL    HW1 1892   1.360   0.907   0.705  2.1517 -3.2207 -0.2173
  631SOL    HW2 1893   1.378   0.987   0.850  2.4672 -0.3450 -1.4204
  632SOL     OW 1894   2.258   0.488   2.164  0.5150  0.4044  0.0638
  632SOL    HW1 1895   2.257   0.494   2.262 -2.3819  0.2964 -0.4962
  632SOL    HW2 1896   2.163   0.491   2.131  0.9272  1.5667  1.5522
  633SOL     OW 1897   1.967   1.338   0.245 -0.1007  0.4028 -0.4139
  633SOL    HW1 1898   1.892   1.358   0.309  2.4733 -0.2437  1.0106
  633SOL    HW2 1899   1.931   1.292   0.158 -0.2704 -1.2765 -2.5256
  634SOL     OW 1900   0.188   1.901   0.251 -0.3420  0.0652 -0.3425
  634SOL    HW1 1901   0.269   1.843   0.223  2.8546 -0.5011  0.0641
  634SOL    HW2 1902   0.102   1.866   0.215  0.6499  1.2563  3.0483
  635SOL     OW 1903   2.829   1.611   2.259 -0.1473  0.1805 -0.0283
  635SOL    HW1 1904   2.815   1.526   2.312  0.6604  0.9449 -4.8687
  635SOL    HW2 1905   2.741   1.635   2.208 -1.9205  2.0619 -0.1735
  636SOL     OW 1906   0.323   1.616   2.411  0.4360  0.1890  0.8248
  636SOL    HW1 1907   0.243   1.638   2.467  0.5328 -0.7109 -2.0107
  636SOL    HW2 1908   0.404   1.664   2.452  0.1262  1.5002 -2.6206
  637SOL     OW 1909   0.203   2.162   0.321  0.3164  0.2378  0.2502
  637SOL    HW1 1910   0.198   2.058   0.311  0.7640 -0.8070 -0.3159
  637SOL    HW2 1911   0.184   2.214   0.238  0.2797 -1.1496  0.8278
  638SOL     OW 1912   2.384   2.387   0.791 -0.2273 -0.4747 -0.3175
  638SOL    HW1 1913   2.433   2.427   0.709 -0.5434 -1.6203  3.6288
  638SOL    HW2 1914   2.286   2.372   0.775 -0.0641  0.1895 -2.8870
  639SOL     OW 1915   1.059   0.756   0.176 -0.3587 -0.5283 -0.5005
  639SOL    HW1 1916   0.994   0.690   0.223  2.1497 -0.1379  0.2306
  639SOL    HW2 1917   1.079   0.729   0.085  0.3001 -0.2382  1.0284
  640SOL     OW 1918   2.228   2.117   1.774  0.2256 -0.6593 -0.4132
  640SOL    HW1 1919   2.324   2.137   1.799  0.8771  0.0141 -0.6308
  640SOL    HW2 1920   2.217   2.133   1.676  0.0756 -1.4592  0.6354
  641SOL     OW 1921   2.755   2.836   1.309 -0.4871 -0.0338 -0.2085
  641SOL    HW1 1922   2.803   2.866   1.394 -2.5362  0.5208 -1.8983
  641SOL    HW2 1923   2.814   2.786   1.245 -0.8006 -0.3044  0.8957
  642SOL     OW 1924   0.815   1.072   1.483 -0.1368  0.3049  0.0665
  642SOL    HW1 1925   0.831   1.032   1.393 -0.7300  1.6237 -0.6813
  642SOL    HW2 1926   0.818   1.175   1.490 -1.1970 -0.0424  2.0433
  643SOL     OW 1927   0.503   1.205   2.179  0.3297  0.0869 -0.3111
  643SOL    HW1 1928   0.454   1.179   2.263  1.3031  0.2064  0.7134
  643SOL    HW2 1929   0.437   1.263   2.119 -2.0858  0.7164  0.4454
  644SOL     OW 1930   0.985   0.252   2.247  0.0251 -0.4012  0.0378
  644SOL    HW1 1931   1.012   0.350   2.235 -0.8521  0.3882  1.7133
  644SOL    HW2 1932   0.924   0.217   2.176  2.0758 -0.5708 -2.6341
  645SOL     OW 1933   2.045   1.189   1.405  0.7250  0.1428  0.0021
  645SOL    HW1 1934   2.119   1.133   1.373 -2.7238  1.0991  0.2384
  645SOL    HW2 1935   2.025   1.269   1.347 -0.2909 -1.5398  2.8447
  646SOL     OW 1936   1.507   2.798   0.188 -0.2173  0.1376  0.6888
  646SOL    HW1 1937   1.603   2.814   0.222 -0.3408 -1.9074  1.6455
  646SOL    HW2 1938   1.493   2.700   0.163 -2.7714  0.0241  0.7865
  647SOL     OW 1939   1.737   2.766   0.755 -0.5496 -0.1474 -0.1704
  647SOL    HW1 1940   1.805   2.687   0.743  2.4428 -1.1785 -0.5955
  647SOL    HW2 1941   1.711   2.807   0.668 -0.8933 -0.4795 -0.0612
  648SOL     OW 1942   0.412   2.715   1.173  0.3013  0.2912  0.3286
  648SOL    HW1 1943   0.368   2.627   1.205 -0.0890  1.6832  0.0108
  648SOL    HW2 1944   0.503   2.698   1.130  0.6499 -1.7478  0.4924
  649SOL     OW 1945   1.015   2.309   0.058  0.4775  0.6351  0.5466
  649SOL    HW1 1946   0.981   2.264   3.044  1.9630  1.6609 -1.8251
  649SOL    HW2 1947   0.973   2.278   0.144  1.0009  2.0676 -0.9397
  650SOL     OW 1948   2.447   1.327   0.159 -0.1447  0.2487  0.5614
  650SOL    HW1 1949   2.539   1.341   0.197 -1.9654 -0.8177  1.8777
  650SOL    HW2 1950   2.404   1.260   0.219 -0.7752  1.1402 -3.2756
  651SOL     OW 1951   2.561   2.141   2.205  0.1135 -0.5238 -0.6719
  651SOL    HW1 1952   2.600   2.207   2.136 -0.4953 -0.3381  0.1576
  651SOL    HW2 1953   2.573   2.171   2.303  3.2209 -0.8143  0.3642
  652SOL     OW 1954   2.741   2.324   0.570  0.4647  0.1975 -0.3637
  652SOL    HW1 1955   2.700   2.323   0.662 -2.2127 -0.5364  0.9230
  652SOL    HW2 1956   2.841   2.345   0.585  2.6737 -0.8910  1.4576
  653SOL     OW 1957   2.658   1.704   1.470 -0.5383  0.4174 -0.1474
  653SOL    HW1 1958   2.588   1.636   1.448  1.2645 -4.0207 -0.0198
  653SOL    HW2 1959   2.753   1.663   1.450 -1.8943 -0.2900  0.0972
  654SOL     OW 1960   1.068   1.199   0.013 -0.4348 -0.3323 -0.0175
  654SOL    HW1 1961   1.020   1.114   0.036  1.6001  0.3213  0.2170
  654SOL    HW2 1962   1.008   1.265   3.036 -1.6416  1.0139 -0.2269
  655SOL     OW 1963   1.234   1.488   0.659  0.0162 -0.1393 -0.1005
  655SOL    HW1 1964   1.175   1.417   0.700 -0.3093  0.3344 -1.8539
  655SOL    HW2 1965   1.232   1.479   0.559 -0.8924  3.7102  0.0035
  656SOL     OW 1966   1.404   2.328   2.817  0.5230 -0.0667  0.0501
  656SOL    HW1 1967   1.504   2.324   2.801  0.6344  0.4581  0.0702
  656SOL    HW2 1968   1.344   2.324   2.731 -1.9401 -1.3976 -2.4820
  657SOL     OW 1969   2.076   1.394   0.620  0.6075  0.1644 -0.2831
  657SOL    HW1 1970   1.979   1.364   0.629  1.4752 -1.1149 -1.8182
  657SOL    HW2 1971   2.140   1.345   0.682  2.0256  0.7945  0.4374
  658SOL     OW 1972   2.224   2.845   1.881  0.0372  0.3342  0.5691
  658SOL    HW1 1973   2.187   2.754   1.881  0.2589  4.0651  0.5276
  658SOL    HW2 1974   2.190   2.882   1.786 -1.5465  2.3392 -2.1107
  659SOL     OW 1975   2.783   1.606   0.403 -1.1877 -0.6812  0.7210
  659SOL    HW1 1976   2.863   1.629   0.463 -1.2425 -1.1755 -2.8044
  659SOL    HW2 1977   2.702   1.673   0.419 -1.4553  0.7835  4.7629
  660SOL     OW 1978   1.266   0.827   0.586  0.9387 -0.0552 -0.5277
  660SOL    HW1 1979   1.177   0.780   0.561  0.7624  0.5001 -1.5374
  660SOL    HW2 1980   1.345   0.776   0.554 -1.9535 -0.3491  0.4596
  661SOL     OW 1981   1.625   0.554   0.097  0.2190  0.5407 -0.1657
  661SOL    HW1 1982   1.556   0.516   0.028 -2.2469 -0.5972 -0.0128
  661SOL    HW2 1983   1.719   0.523   0.070  2.4589  2.5186 -0.7527
  662SOL     OW 1984   0.485   0.200   0.330  0.3800 -0.2469 -0.0556
  662SOL    HW1 1985   0.512   0.172   0.233  0.2849 -0.7091 -2.3425
  662SOL    HW2 1986   0.570   0.212   0.388 -2.0975 -0.9882  0.5708
  663SOL     OW 1987   1.021   2.526   2.977 -0.0987 -0.4326  0.6577
  663SOL    HW1 1988   1.023   2.438   3.024  0.9401 -0.0697  0.5400
  663SOL    HW2 1989   1.087   2.533   2.900  1.4251  2.2973 -0.1198
  664SOL     OW 1990   0.760   2.926   1.112 -0.2825 -0.0940 -0.0102
  664SOL    HW1 1991   0.697   3.007   1.118 -0.2969  0.2725  0.6147
  664SOL    HW2 1992   0.735   2.867   1.188 -0.9405 -0.3786 -1.5824
  665SOL     OW 1993   1.520   0.003   0.797 -0.2386  0.6678  0.1635
  665SOL    HW1 1994   1.432   3.024   0.776 -1.0114  0.3855 -1.7990
  665SOL    HW2 1995   1.501   0.101   0.793  4.1127 -1.7561 -0.5455
  666SOL     OW 1996   0.897   2.352   2.637 -0.8293  0.2178 -0.2473
  666SOL    HW1 1997   0.851   2.343   2.729  2.0250 -1.2298 -1.0770
  666SOL    HW2 1998   0.959   2.435   2.632 -0.0361 -2.4349  1.1998
  667SOL     OW 1999   2.803   0.303   1.574  0.0940 -0.4145 -0.0681
  667SOL    HW1 2000   2.860   0.390   1.593  2.2531 -1.3133 -1.2853
  667SOL    HW2 2001   2.793   0.288   1.473  1.1789  0.5103 -0.8737
  668SOL     OW 2002   0.442   0.232   1.816  0.3140  0.1449 -0.1851
  668SOL    HW1 2003   0.539   0.248   1.845  1.9332 -2.9518  1.2583
  668SOL    HW2 2004   0.392   0.167   1.883  1.8744 -1.1384  3.9865
  669SOL     OW 2005   1.451   2.943   1.223 -0.1111  0.0136  0.4886
  669SOL    HW1 2006   1.353   2.913   1.239  0.9374  0.7352 -1.2335
  669SOL    HW2 2007   1.506   2.870   1.179  0.0578 -1.8900 -1.0659
  670SOL     OW 2008   1.497   2.558   0.089  0.3367  0.1688  0.2744
  670SOL    HW1 2009   1.398   2.529   0.091 -0.6908 -0.6670 -1.0998
  670SOL    HW2 2010   1.550   2.471   0.087 -0.1010 -1.9099 -1.0239
  671SOL     OW 2011   0.452   1.246   2.860 -0.0948 -0.6868 -0.5398
  671SOL    HW1 2012   0.385   1.173   2.882  1.2226 -1.5063 -1.3380
  671SOL    HW2 2013   0.543   1.225   2.899 -3.3734  0.4688 -1.9377
  672SOL     OW 2014   2.047   0.588   2.698 -0.0409  0.4769 -0.4335
  672SOL    HW1 2015   2.122   0.530   2.659  3.7103  0.2352 -0.7351
  672SOL    HW2 2016   1.989   0.615   2.621 -1.2405 -0.6807 -0.3343
  673SOL     OW 2017   0.071   2.003   1.063 -0.1213 -0.2343  0.2905
  673SOL    HW1 2018   0.031   2.077   1.116 -2.0339 -3.9511  1.8713
  673SOL    HW2 2019   0.054   1.911   1.108 -0.8352 -1.9014  0.0357
  674SOL     OW 2020   1.747   2.094   1.809 -0.8663 -0.1558 -0.2968
  674SOL    HW1 2021   1.766   2.101   1.911  5.1415 -0.0996  1.6489
  674SOL    HW2 2022   1.831   2.127   1.770 -0.1543 -0.2628 -2.2065
  675SOL     OW 2023   1.217   1.667   0.997  0.2735  0.6581  0.0048
  675SOL    HW1 2024   1.283   1.666   0.921 -0.9949  0.6418 -0.4290
  675SOL    HW2 2025   1.170   1.577   0.994 -0.9133  1.7182 -0.6051
  676SOL     OW 2026   2.116   0.804   0.927 -0.7919  0.3744 -0.5702
  676SOL    HW1 2027   2.047   0.819   0.850  1.5138  1.7569 -0.2852
  676SOL    HW2 2028   2.202   0.855   0.896  1.1409  2.4315 -1.5403
  677SOL     OW 2029   2.437   0.173   0.282 -0.6199  0.4974  0.3089
  677SOL    HW1 2030   2.458   0.203   0.375  1.0286 -0.4807 -3.5756
  677SOL    HW2 2031   2.473   0.239   0.211  3.1396  0.0399 -1.5548
  678SOL     OW 2032   2.511   1.185   1.066 -0.3518 -0.0074 -0.2389
  678SOL    HW1 2033   2.570   1.263   1.098  1.0351 -0.4743  2.6430
  678SOL    HW2 2034   2.514   1.109   1.132 -1.6914 -2.1619 -0.0895
  679SOL     OW 2035   2.547   0.351   0.104  0.3787 -0.1081 -0.1638
  679SOL    HW1 2036   2.519   0.442   0.138 -1.1452  0.9057 -0.1924
  679SOL    HW2 2037   2.615   0.362   0.028  1.3174  2.8847 -0.0479
  680SOL     OW 2038   0.593   1.704   2.158  0.1971 -0.5073 -0.5039
  680SOL    HW1 2039   0.626   1.639   2.088 -1.6108  0.8924  0.7721
  680SOL    HW2 2040   0.550   1.649   2.234 -1.1825 -1.6435 -0.0436
  681SOL     OW 2041   2.563   2.205   1.613 -0.1154 -0.0799 -0.2503
  681SOL    HW1 2042   2.612   2.240   1.698 -0.6802  1.8723  3.6455
  681SOL    HW2 2043   2.552   2.105   1.601  1.2911  0.7101 -0.4865
  682SOL     OW 2044   0.510   1.802   2.449 -0.4526  0.0259 -0.4487
  682SOL    HW1 2045   0.508   1.882   2.383  0.0211 -0.4422 -0.4800
  682SOL    HW2 2046   0.489   1.836   2.541 -0.8538  2.0481 -0.3873
  683SOL     OW 2047   2.813   1.935   1.459  0.0621 -0.8679 -0.7112
  683SOL    HW1 2048   2.761   1.848   1.442 -1.7692 -0.8319  1.0614
  683SOL    HW2 2049   2.770   2.021   1.423 -0.4841  2.6846  0.8068
  684SOL     OW 2050   2.859   1.667   1.715 -0.2729 -0.2223 -0.0537
  684SOL    HW1 2051   2.915   1.735   1.764 -0.6964 -1.4637 -0.7322
  684SOL    HW2 2052   2.901   1.635   1.631  0.4605 -2.9884  0.2342
  685SOL     OW 2053   0.645   0.891   1.032 -0.3079  0.0421 -0.5458
  685SOL    HW1 2054   0.595   0.818   1.088 -1.3999  1.7745  2.0326
  685SOL    HW2 2055   0.727   0.854   0.984 -0.4479  0.5292  0.3306
  686SOL     OW 2056   0.153   0.047   2.541  0.0148  0.1985  0.2586
  686SOL    HW1 2057   0.204   0.138   2.546 -1.8206  0.7069  0.6557
  686SOL    HW2 2058   0.189   3.059   2.616  1.0890  0.5087 -2.3987
  687SOL     OW 2059   0.578   1.898   1.826 -0.0825  0.1489  0.3127
  687SOL    HW1 2060   0.530   1.832   1.772 -1.5164  0.1548  0.1210
  687SOL    HW2 2061   0.658   1.853   1.867  0.3537 -1.0538  1.1797
  688SOL     OW 2062   2.316   0.317   1.775 -0.1187 -0.6800  0.7712
  688SOL    HW1 2063   2.329   0.225   1.734 -0.6527 -1.0907  0.7770
  688SOL    HW2 2064   2.337   0.389   1.707 -1.6437 -3.7583  0.4941
  689SOL     OW 2065   2.349   0.930   0.817  0.1163 -0.1625  0.3294
  689SOL    HW1 2066   2.422   0.867   0.847 -2.1050  0.0896  3.5529
  689SOL    HW2 2067   2.391   0.981   0.737  0.7488 -0.6444  0.9069
  690SOL     OW 2068   2.674   0.660   1.130 -0.4682  0.4073 -0.1416
  690SOL    HW1 2069   2.758   0.606   1.126 -2.4036  2.0165  1.3916
  690SOL    HW2 2070   2.688   0.739   1.188 -0.4397 -4.9238  0.5694
  691SOL     OW 2071   0.518   1.117   1.721 -0.1800  0.2361  0.4738
  691SOL    HW1 2072   0.540   1.185   1.648  1.4350  0.9430 -0.9220
  691SOL    HW2 2073   0.604   1.106   1.775 -1.1683  2.7064  0.6990
  692SOL     OW 2074   0.820   1.359   1.834  0.0708  0.2607 -0.2586
  692SOL    HW1 2075   0.913   1.368   1.874 -0.8250 -0.7062 -3.7009
  692SOL    HW2 2076   0.800   1.260   1.822  1.9339 -2.3107 -2.4548
  693SOL     OW 2077   0.604   0.817   1.857  0.0322 -0.2717  0.2673
  693SOL    HW1 2078   0.646   0.872   1.934  0.5678 -0.0881  1.5329
  693SOL    HW2 2079   0.506   0.808   1.868  2.6831  2.1892 -0.0392
  694SOL     OW 2080   1.531   2.130   1.030  0.3353  0.1112 -0.1129
  694SOL    HW1 2081   1.628   2.143   1.060  1.8012 -2.8683  0.2797
  694SOL    HW2 2082   1.532   2.046   0.976 -0.1128  4.4170  0.9923
  695SOL     OW 2083   2.912   0.560   1.134 -0.3342 -0.7655 -0.7530
  695SOL    HW1 2084   2.929   0.588   1.041 -1.5081  0.4558  0.8007
  695SOL    HW2 2085   2.989   0.582   1.203  0.4125 -0.7027  1.0077
  696SOL     OW 2086   0.659   2.274   0.514  0.3515  0.4335  0.4710
  696SOL    HW1 2087   0.718   2.354   0.488  0.8014 -0.8018  2.0258
  696SOL    HW2 2088   0.602   2.299   0.595 -2.2096 -2.7560 -0.2153
  697SOL     OW 2089   1.740   0.949   1.641  0.2750 -0.4267  0.1325
  697SOL    HW1 2090   1.777   1.028   1.587  0.0076  2.1243  2.4222
  697SOL    HW2 2091   1.812   0.920   1.705 -2.6105  1.4757 -2.9985
  698SOL     OW 2092   1.817   1.559   1.492  0.6018  0.0413  0.2613
  698SOL    HW1 2093   1.764   1.627   1.553  0.1205  3.9271  0.0885
  698SOL    HW2 2094   1.835   1.601   1.401  0.0812 -1.9812  3.3407
  699SOL     OW 2095   0.184   0.657   2.398  0.2141 -0.4150 -0.0527
  699SOL    HW1 2096   0.085   0.675   2.395 -1.3020 -2.5405 -2.4213
  699SOL    HW2 2097   0.234   0.690   2.477 -1.6264 -0.6856 -0.5323
  700SOL     OW 2098   1.662   2.398   0.614 -0.6875  0.3993  0.2700
  700SOL    HW1 2099   1.716   2.397   0.700 -2.6474  0.7515 -0.8968
  700SOL    HW2 2100   1.559   2.401   0.627  1.4269 -0.5823 -1.6901
  701SOL     OW 2101   2.969   1.403   2.012 -0.2512 -0.2844 -0.3074
  701SOL    HW1 2102   3.032   1.393   2.091  0.8292 -2.6111 -0.5885
  701SOL    HW2 2103   3.020   1.446   1.938 -1.0266  1.5906 -0.7609
  702SOL     OW 2104   0.585   0.179   2.800 -0.1644  0.2944  0.0260
  702SOL    HW1 2105   0.635   0.092   2.813 -1.6218  0.4040 -1.4825
  702SOL    HW2 2106   0.596   0.213   2.702 -1.2303  1.5575  0.1301
  703SOL     OW 2107   1.867   0.646   2.888 -0.0747 -0.0186 -0.3190
  703SOL    HW1 2108   1.874   0.567   2.952  0.3466 -0.5865  0.2334
  703SOL    HW2 2109   1.944   0.635   2.822 -0.8560 -2.2736  1.1890
  704SOL     OW 2110   2.893   1.270   1.097  0.4360 -0.4145 -0.6606
  704SOL    HW1 2111   2.883   1.276   0.996  2.0808 -1.0481  0.4307
  704SOL    HW2 2112   2.824   1.330   1.138  0.9312 -0.6298 -1.6100
  705SOL     OW 2113   2.409   1.776   1.846 -0.7990  0.5338  0.3823
  705SOL    HW1 2114   2.339   1.829   1.904 -2.9281  0.2465  2.5654
  705SOL    HW2 2115   2.359   1.692   1.808 -2.9514 -0.4271 -0.3270
  706SOL     OW 2116   0.119   2.535   0.926 -0.3155 -0.0365 -0.0334
  706SOL    HW1 2117   0.207   2.572   0.891  1.4373  0.0311  1.6499
  706SOL    HW2 2118   0.088   2.459   0.865  1.5942  0.2310 -2.1173
  707SOL     OW 2119   1.034   2.958   3.068  0.1045 -0.1228  0.8307
  707SOL    HW1 2120   0.948   2.967   0.053 -1.1991 -1.3723  0.6697
  707SOL    HW2 2121   1.105   2.913   0.043 -1.7393  2.7907 -0.6128
  708SOL     OW 2122   0.799   2.148   1.371 -0.8448 -0.0592 -0.8616
  708SOL    HW1 2123   0.728   2.202   1.327  0.0078 -1.0325  0.3079
  708SOL    HW2 2124   0.755   2.059   1.394  0.6346  0.0783 -1.0757
  709SOL     OW 2125   2.224   0.061   2.546 -0.6487 -0.5484 -0.0120
  709SOL    HW1 2126   2.131   0.052   2.575  1.7153 -0.1482 -0.4930
  709SOL    HW2 2127   2.282   0.063   2.629  0.0270  1.9822  0.2646
  710SOL     OW 2128   1.181   2.537   2.731 -0.1054  0.3660  0.0539
  710SOL    HW1 2129   1.190   2.449   2.680 -1.1601 -0.6861  0.6118
  710SOL    HW2 2130   1.271   2.586   2.748 -0.3463 -0.7825  2.9678
  711SOL     OW 2131   1.066   2.085   2.631 -0.5552  0.0805  0.4108
  711SOL    HW1 2132   1.129   2.164   2.618 -0.1340  0.6961 -2.0584
  711SOL    HW2 2133   1.005   2.111   2.707  1.2243 -1.7970 -0.1116
  712SOL     OW 2134   0.967   2.122   2.905 -0.4027 -0.3283 -0.5276
  712SOL    HW1 2135   1.069   2.129   2.902  0.6299 -1.3562 -2.5799
  712SOL    HW2 2136   0.932   2.027   2.908  0.2802 -0.0255 -2.6703
  713SOL     OW 2137   0.941   0.900   1.710  0.2223 -0.2597 -0.0769
  713SOL    HW1 2138   0.924   0.919   1.609 -0.9766 -0.4662 -3.1768
  713SOL    HW2 2139   0.909   0.803   1.727 -2.7385  0.0017 -0.2996
  714SOL     OW 2140   1.657   1.934   1.412  0.4935 -0.0470 -0.7428
  714SOL    HW1 2141   1.616   2.019   1.454  0.4487 -0.4172  0.0920
  714SOL    HW2 2142   1.587   1.861   1.401 -2.5485 -1.1539  2.7122
  715SOL     OW 2143   0.183   0.317   0.546  0.1715 -0.1106  0.0945
  715SOL    HW1 2144   0.133   0.239   0.587  0.3729 -2.2439  0.8477
  715SOL    HW2 2145   0.273   0.282   0.508  0.1821  2.6455  0.7225
  716SOL     OW 2146   0.687   2.712   0.250 -0.0624  0.1111 -0.1324
  716SOL    HW1 2147   0.714   2.651   0.171 -0.7710 -3.0268  1.5336
  716SOL    HW2 2148   0.712   2.808   0.242  1.3549  1.4187 -3.1319
  717SOL     OW 2149   0.245   0.318   0.214 -0.2173  0.0579  0.0470
  717SOL    HW1 2150   0.327   0.273   0.265  1.5669 -1.7833  1.3101
  717SOL    HW2 2151   0.173   0.254   0.195  1.9685  2.2435 -1.5838
  718SOL     OW 2152   1.784   2.461   1.181 -0.1556 -0.3460 -0.2943
  718SOL    HW1 2153   1.709   2.516   1.210  1.6042  0.0327 -0.4765
  718SOL    HW2 2154   1.868   2.511   1.188 -1.9652 -0.2595 -0.0161
  719SOL     OW 2155   0.033   2.304   0.790  0.7620  0.0312  0.2119
  719SOL    HW1 2156   0.099   2.245   0.740  1.5273 -1.5191 -0.3584
  719SOL    HW2 2157   3.040   2.243   0.837 -0.4443 -2.0037  0.4288
  720SOL     OW 2158   1.183   1.247   0.790  0.1941  0.1533  0.6282
  720SOL    HW1 2159   1.281   1.274   0.823  0.3003  2.4049 -1.0733
  720SOL    HW2 2160   1.194   1.170   0.720 -0.6368  2.1626 -0.4939
  721SOL     OW 2161   0.906   0.565   0.943 -0.2151 -0.5741 -0.3159
  721SOL    HW1 2162   0.818   0.524   0.977  1.9789 -0.0178  0.7583
  721SOL    HW2 2163   0.985   0.519   0.983  0.3888 -0.6172  0.6111
  722SOL     OW 2164   1.365   1.153   1.363 -0.0783  0.2050 -0.4396
  722SOL    HW1 2165   1.357   1.237   1.420 -1.2446 -0.9910 -0.0351
  722SOL    HW2 2166   1.428   1.082   1.401 -0.6799 -1.3124  0.7933
  723SOL     OW 2167   0.696   0.317   1.869 -0.2434  0.2880 -0.2458
  723SOL    HW1 2168   0.764   0.353   1.800 -1.0543  2.9339 -1.1774
  723SOL    HW2 2169   0.709   0.372   1.954  0.9194  0.2147  1.2043
  724SOL     OW 2170   1.949   1.760   1.832 -0.5742 -0.4033 -0.0114
  724SOL    HW1 2171   1.957   1.663   1.800  3.1074  0.9955 -1.1708
  724SOL    HW2 2172   1.903   1.815   1.766  0.0143  1.4248  0.4964
  725SOL     OW 2173   0.800   2.737   1.333 -0.2435 -0.0765 -0.4776
  725SOL    HW1 2174   0.902   2.726   1.309  0.0071  1.7990  1.2865
  725SOL    HW2 2175   0.794   2.772   1.427 -2.6824  0.9903 -0.3893
  726SOL     OW 2176   1.478   0.670   0.306 -0.7567  0.1145 -0.3078
  726SOL    HW1 2177   1.540   0.689   0.385 -0.8696 -3.5354  0.9828
  726SOL    HW2 2178   1.530   0.624   0.226 -2.4130 -3.8196 -1.6401
  727SOL     OW 2179   1.434   2.272   1.240  0.2306 -0.4510  0.2138
  727SOL    HW1 2180   1.466   2.208   1.163  1.2292 -1.6823 -3.2965
  727SOL    HW2 2181   1.377   2.218   1.307 -0.9516 -3.2118 -0.6118
  728SOL     OW 2182   1.488   0.142   2.329  0.4643  0.1198  0.0178
  728SOL    HW1 2183   1.550   0.071   2.301 -0.4215 -0.2528  0.9336
  728SOL    HW2 2184   1.421   0.108   2.400  0.6683  0.5296  0.6982
  729SOL     OW 2185   2.277   1.397   0.807  0.1123  0.4098 -0.2063
  729SOL    HW1 2186   2.319   1.311   0.772  2.6056 -4.5865  1.3243
  729SOL    HW2 2187   2.328   1.481   0.790  1.7027 -1.6535 -1.0237
  730SOL     OW 2188   1.912   1.051   2.696 -0.0928 -0.2685  0.1612
  730SOL    HW1 2189   1.915   1.049   2.591  0.4301  0.9194 -4.1170
  730SOL    HW2 2190   1.814   1.042   2.727 -1.7365 -1.2145 -0.0619
  731SOL     OW 2191   0.336   0.047   1.381 -0.3923  0.1171  0.6336
  731SOL    HW1 2192   0.288   0.134   1.386 -0.6302 -0.4651  1.4065
  731SOL    HW2 2193   0.322   0.011   1.284 -0.9798 -0.2743 -0.1197
  732SOL     OW 2194   1.711   0.567   1.261  0.2550 -0.0752 -0.5167
  732SOL    HW1 2195   1.780   0.551   1.194 -0.5002 -0.2424  1.6145
  732SOL    HW2 2196   1.685   0.479   1.305  3.1664 -0.4170 -1.1347
  733SOL     OW 2197   1.062   1.413   1.953 -0.0885 -0.2312 -0.1218
  733SOL    HW1 2198   1.113   1.448   1.875 -2.9925  0.8178 -0.4388
  733SOL    HW2 2199   1.085   1.315   1.974 -0.1239 -3.2126 -0.9725
  734SOL     OW 2200   2.623   1.834   0.353 -0.2055  0.7211  1.0027
  734SOL    HW1 2201   2.637   1.803   0.261 -0.6981  5.3551 -0.1580
  734SOL    HW2 2202   2.683   1.912   0.385  0.2259 -2.1496 -0.3702
  735SOL     OW 2203   0.417   0.740   0.281 -0.3298 -0.3662 -0.4660
  735SOL    HW1 2204   0.335   0.677   0.290  0.4520  0.0033 -1.5524
  735SOL    HW2 2205   0.475   0.727   0.363 -0.1117 -0.3072  0.1482
  736SOL     OW 2206   1.830   2.627   0.317  0.9123 -0.3787  0.0982
  736SOL    HW1 2207   1.903   2.583   0.369  0.2028  0.5057 -2.7642
  736SOL    HW2 2208   1.843   2.621   0.214  0.8614  0.7491  0.0981
  737SOL     OW 2209   1.064   2.132   1.314 -0.8529  0.3164 -0.0755
  737SOL    HW1 2210   0.962   2.125   1.321  1.0591 -1.3174  0.9331
  737SOL    HW2 2211   1.113   2.054   1.370  3.8366 -0.4675  1.5906
  738SOL     OW 2212   1.956   3.060   2.599  0.0503  0.5588 -0.5039
  738SOL    HW1 2213   1.919   0.082   2.596  2.8077  1.7779  1.6064
  738SOL    HW2 2214   1.914   3.002   2.523 -0.6043 -2.7854 -0.5732
  739SOL     OW 2215   1.715   2.273   2.665  0.6004 -0.6174  0.0786
  739SOL    HW1 2216   1.798   2.227   2.701 -2.5310 -0.0258  0.6656
  739SOL    HW2 2217   1.738   2.371   2.659  1.5405 -1.1770 -1.0320
  740SOL     OW 2218   1.930   2.159   2.065  0.7474  0.0601  0.1850
  740SOL    HW1 2219   1.929   2.064   2.039 -0.3340  0.6181  1.8022
  740SOL    HW2 2220   2.025   2.188   2.076 -3.9470  0.1180 -1.6108
  741SOL     OW 2221   2.472   2.106   2.503 -0.0085 -0.1677 -0.3960
  741SOL    HW1 2222   2.484   2.206   2.485  0.2647  1.0049  1.8353
  741SOL    HW2 2223   2.420   2.094   2.591 -0.1169 -1.3821  1.3687
  742SOL     OW 2224   1.039   1.456   2.685 -0.0133  0.5667 -0.4638
  742SOL    HW1 2225   1.100   1.390   2.740  1.3390 -3.7393  0.2629
  742SOL    HW2 2226   1.069   1.456   2.589  0.4593  0.4682 -0.9188
  743SOL     OW 2227   1.248   1.294   2.789 -0.2245 -0.4884 -0.5498
  743SOL    HW1 2228   1.287   1.218   2.732 -0.5638 -1.6333  0.9270
  743SOL    HW2 2229   1.319   1.323   2.853  2.9885 -1.4495  1.1859
  744SOL     OW 2230   2.031   2.968   1.262  0.2465 -0.4835 -0.0699
  744SOL    HW1 2231   1.936   2.942   1.236 -0.6646  0.6655 -2.6219
  744SOL    HW2 2232   2.074   3.012   1.180 -3.0712 -0.7910  0.7167
  745SOL     OW 2233   2.598   0.928   0.706  0.4163  0.5364  0.1749
  745SOL    HW1 2234   2.612   0.905   0.607  1.0167  0.2949  1.1501
  745SOL    HW2 2235   2.639   1.018   0.736 -2.5835 -2.2249  2.5129
  746SOL     OW 2236   2.691   1.755   1.170  0.3077  0.3692 -0.3421
  746SOL    HW1 2237   2.692   1.767   1.270  1.0343  0.3638 -2.5618
  746SOL    HW2 2238   2.668   1.845   1.126 -0.0231 -0.9072  2.3265
  747SOL     OW 2239   1.589   0.043   0.126  0.4640 -0.3216 -0.2663
  747SOL    HW1 2240   1.665   3.048   0.142  0.3247  0.2740 -0.5882
  747SOL    HW2 2241   1.547   0.014   0.035  1.2917  0.7604 -2.1643
  748SOL     OW 2242   0.609   1.303   0.115  0.8182  0.0903 -0.0471
  748SOL    HW1 2243   0.649   1.269   0.030 -0.6783 -1.8949  1.9873
  748SOL    HW2 2244   0.507   1.308   0.106  0.4955 -1.1118 -0.1298
  749SOL     OW 2245   2.596   0.819   2.303  0.6452  0.8349  0.1736
  749SOL    HW1 2246   2.635   0.721   2.306  0.5697 -0.3922  0.1783
  749SOL    HW2 2247   2.648   0.879   2.362 -0.1817 -1.6020 -2.1159
  750SOL     OW 2248   0.830   0.660   1.775 -0.0510  0.5529 -0.1518
  750SOL    HW1 2249   0.751   0.703   1.817  2.1181 -1.5266  0.5499
  750SOL    HW2 2250   0.801   0.572   1.731 -2.1382 -2.9707 -1.6710
  751SOL     OW 2251   2.328   2.515   1.829 -0.1812 -0.1454 -0.4084
  751SOL    HW1 2252   2.227   2.519   1.822 -2.6185 -1.2025  0.2146
  751SOL    HW2 2253   2.368   2.568   1.902  1.7189 -0.7454 -1.9867
  752SOL     OW 2254   2.028   1.653   1.014 -0.7240  0.0381 -0.2382
  752SOL    HW1 2255   2.106   1.596   1.048  1.0145 -0.5351  0.0903
  752SOL    HW2 2256   2.035   1.657   0.910  0.9918 -1.0627 -1.8259
  753SOL     OW 2257   1.033   0.897   1.973 -0.1298 -0.0821 -0.0330
  753SOL    HW1 2258   1.005   0.899   1.875  0.4710 -2.5595  0.4720
  753SOL    HW2 2259   1.129   0.858   1.973  2.8071  1.4036 -1.1655
  754SOL     OW 2260   0.773   2.514   0.430 -0.1227 -0.1108  0.2724
  754SOL    HW1 2261   0.744   2.585   0.363 -0.3097 -1.8883  0.1378
  754SOL    HW2 2262   0.712   2.514   0.512 -0.4907 -0.9748  2.8954
  755SOL     OW 2263   2.724   2.888   0.913  0.1059  0.2297  0.7015
  755SOL    HW1 2264   2.704   2.796   0.875  1.1660  0.0665  3.0131
  755SOL    HW2 2265   2.757   2.884   1.007  0.3882  1.2846  1.8226
  756SOL     OW 2266   2.357   1.894   2.359 -0.1483  0.1283 -0.4954
  756SOL    HW1 2267   2.393   1.971   2.412 -2.8228 -1.9136 -1.7609
  756SOL    HW2 2268   2.320   1.930   2.272  1.2183 -2.5081 -0.6576
  757SOL     OW 2269   0.122   3.013   1.703 -0.2241 -0.5764 -0.3901
  757SOL    HW1 2270   0.067   2.946   1.753  0.3576  0.8591  0.4163
  757SOL    HW2 2271   0.082   0.036   1.720 -0.6367  0.6268 -0.7337
  758SOL     OW 2272   0.498   2.877   0.414  0.4872  0.6168 -0.4525
  758SOL    HW1 2273   0.562   2.870   0.498  0.5920 -2.2812  2.4596
  758SOL    HW2 2274   0.536   2.818   0.344 -0.2131  2.4466 -0.4984
  759SOL     OW 2275   2.050   1.292   1.155 -0.0124 -0.2187 -0.6351
  759SOL    HW1 2276   1.948   1.290   1.146 -2.3243 -0.8456 -0.5190
  759SOL    HW2 2277   2.088   1.214   1.101  0.5484 -0.5121  2.4323
  760SOL     OW 2278   1.493   0.954   1.495 -0.2895  0.4509 -0.0861
  760SOL    HW1 2279   1.535   0.901   1.422  1.0143  0.3801  1.3669
  760SOL    HW2 2280   1.568   0.988   1.556 -1.4016  2.8776 -0.1257
  761SOL     OW 2281   2.049   0.351   1.292  0.5369  0.3096  0.4493
  761SOL    HW1 2282   2.086   0.447   1.293  1.8699  1.6204 -0.9093
  761SOL    HW2 2283   2.012   0.327   1.199  2.0622  0.3937 -1.2103
  762SOL     OW 2284   1.781   0.357   0.499  0.9469  0.6390  0.4015
  762SOL    HW1 2285   1.789   0.289   0.420 -0.1192 -0.1996 -1.3733
  762SOL    HW2 2286   1.815   0.314   0.586  2.9830 -0.7010 -1.1169
  763SOL     OW 2287   0.823   0.412   1.656 -0.2160 -0.0017 -0.0692
  763SOL    HW1 2288   0.770   0.424   1.569 -0.9570  1.6455 -1.5194
  763SOL    HW2 2289   0.903   0.350   1.643 -1.6201  1.2657  0.3981
  764SOL     OW 2290   2.229   1.998   2.143 -0.1443 -0.6451  0.1565
  764SOL    HW1 2291   2.197   1.957   2.056  1.0509  0.3717 -0.6725
  764SOL    HW2 2292   2.246   2.102   2.134  0.0070 -0.3437 -0.7825
  765SOL     OW 2293   2.983   1.295   2.701 -0.1442  0.3353 -0.1647
  765SOL    HW1 2294   2.924   1.347   2.635 -1.7031 -0.2072  0.4401
  765SOL    HW2 2295   2.969   1.333   2.794  0.8250  1.4373 -2.1966
  766SOL     OW 2296   2.965   0.676   2.731 -0.3190  0.1273  0.0469
  766SOL    HW1 2297   2.975   0.572   2.738  0.0640 -2.1521  0.0088
  766SOL    HW2 2298   2.875   0.702   2.773  0.1875  0.2323  0.0359
  767SOL     OW 2299   0.425   2.467   1.784 -0.2215  0.0605 -0.2740
  767SOL    HW1 2300   0.372   2.502   1.865 -1.0605  2.2445  2.7314
  767SOL    HW2 2301   0.386   2.377   1.756  0.2896  1.3253 -1.6200
  768SOL     OW 2302   0.935   0.988   0.100  0.0750  0.0297  0.1631
  768SOL    HW1 2303   0.959   0.904   0.152  0.6252  1.2076 -2.7088
  768SOL    HW2 2304   0.891   0.967   0.011  0.5655 -1.9985  0.8226
  769SOL     OW 2305   1.206   2.442   0.416 -0.0943  0.3680  0.2263
  769SOL    HW1 2306   1.120   2.447   0.471 -0.1708 -0.1589  1.2658
  769SOL    HW2 2307   1.288   2.442   0.478  0.1485 -0.5248  0.5950
  770SOL     OW 2308   1.067   3.061   1.895  0.0556 -0.8123  0.3824
  770SOL    HW1 2309   0.979   0.026   1.921  2.2073 -1.3429  3.2290
  770SOL    HW2 2310   1.096   2.989   1.959  0.5684 -0.1440  2.6892
  771SOL     OW 2311   0.836   2.732   0.769  0.5370  0.5106  0.3733
  771SOL    HW1 2312   0.918   2.678   0.778 -3.6080  0.1408  2.6145
  771SOL    HW2 2313   0.859   2.832   0.778 -0.0798 -1.6543  2.3902
  772SOL     OW 2314   2.520   0.616   0.167 -0.5012 -0.2755  0.1848
  772SOL    HW1 2315   2.579   0.620   0.251 -1.0908  0.8714  0.5993
  772SOL    HW2 2316   2.424   0.641   0.187 -0.6314 -2.2517  4.6915
  773SOL     OW 2317   2.214   0.608   1.773  0.5545 -0.0949 -0.1671
  773SOL    HW1 2318   2.264   0.604   1.683  2.9024  0.4601 -1.6829
  773SOL    HW2 2319   2.113   0.617   1.757 -1.5265  0.7200 -2.7740
  774SOL     OW 2320   0.319   0.729   0.620 -0.1137  0.0174  0.6372
  774SOL    HW1 2321   0.412   0.715   0.574  0.6181 -0.0133 -1.6226
  774SOL    HW2 2322   0.331   0.800   0.690 -0.9711 -0.5682 -0.0256
  775SOL     OW 2323   1.687   0.346   0.893 -0.4857  0.2156 -0.1438
  775SOL    HW1 2324   1.715   0.443   0.907 -1.1456 -3.7037 -1.5189
  775SOL    HW2 2325   1.760   0.281   0.852  0.0593 -3.1354 -0.3988
  776SOL     OW 2326   2.029   2.918   2.145 -0.3067 -0.1655 -0.2236
  776SOL    HW1 2327   2.118   2.865   2.127  1.8447 -1.9485 -0.3210
  776SOL    HW2 2328   2.043   3.015   2.118  0.4930  1.5832 -0.0347
  777SOL     OW 2329   1.229   1.504   0.380 -0.2630  0.2068  0.0000
  777SOL    HW1 2330   1.295   1.580   0.353  0.1144 -0.4072 -1.5232
  777SOL    HW2 2331   1.257   1.420   0.330 -0.9040  0.4565 -0.8190
  778SOL     OW 2332   0.458   2.840   0.070 -0.0468  0.4989  0.1658
  778SOL    HW1 2333   0.423   2.774   0.141  1.4479  0.2041  2.0333
  778SOL    HW2 2334   0.393   2.915   0.060  0.3103 -0.0319 -0.7936
  779SOL     OW 2335   0.206   1.501   0.440  0.0281  0.1068  0.2847
  779SOL    HW1 2336   0.169   1.513   0.347 -1.5740  0.1198  1.8780
  779SOL    HW2 2337   0.136   1.531   0.503  1.1513  0.0541  0.0645
  780SOL     OW 2338   1.664   0.132   2.020  0.3046  0.1812  0.0427
  780SOL    HW1 2339   1.647   0.094   2.108 -0.0591  0.5775 -1.1994
  780SOL    HW2 2340   1.664   0.068   1.944 -0.0235  3.3181  1.4031
  781SOL     OW 2341   1.740   1.896   1.148 -0.2039  1.1731  0.3635
  781SOL    HW1 2342   1.818   1.957   1.116  3.3737  1.7517  0.7294
  781SOL    HW2 2343   1.715   1.913   1.247  1.4847  1.4029  1.5358
  782SOL     OW 2344   2.070   2.539   2.139  0.1788  0.3867 -0.3706
  782SOL    HW1 2345   1.980   2.576   2.169 -2.2539 -0.5536  0.1802
  782SOL    HW2 2346   2.135   2.612   2.168 -0.7316 -0.7966 -1.7042
  783SOL     OW 2347   1.577   0.544   1.696 -0.2909  0.4873  0.0344
  783SOL    HW1 2348   1.483   0.544   1.650  0.2463  2.0097 -1.6272
  783SOL    HW2 2349   1.573   0.614   1.770 -0.3041 -0.6347  1.3933
  784SOL     OW 2350   1.516   0.735   1.884 -0.5879 -0.1850 -0.2209
  784SOL    HW1 2351   1.549   0.826   1.853  0.6481 -2.3383 -0.2697
  784SOL    HW2 2352   1.423   0.730   1.920  1.4194 -0.4996  1.7048
  785SOL     OW 2353   1.713   0.803   0.459  0.5810 -0.4460  0.3530
  785SOL    HW1 2354   1.651   0.877   0.423  1.3780  1.9673  0.8468
  785SOL    HW2 2355   1.810   0.823   0.444 -3.0820  1.4769 -1.6001
  786SOL     OW 2356   2.783   1.114   0.490  0.2378 -0.6475 -0.5678
  786SOL    HW1 2357   2.783   1.095   0.390  0.0396 -0.0349 -0.9440
  786SOL    HW2 2358   2.850   1.184   0.516  0.2517  0.7390  1.0546
  787SOL     OW 2359   1.460   1.712   0.002 -0.0212  0.2585 -0.5575
  787SOL    HW1 2360   1.509   1.660   3.001  0.0571  0.4377  0.2674
  787SOL    HW2 2361   1.397   1.789   3.042  1.0261  0.5518 -1.2814
  788SOL     OW 2362   2.238   1.148   1.016 -0.0673  0.2114  0.3243
  788SOL    HW1 2363   2.334   1.163   1.045  0.4993 -0.8513  2.7696
  788SOL    HW2 2364   2.237   1.095   0.933  1.3083  1.1545  0.0514
  789SOL     OW 2365   0.034   1.701   2.183 -0.2879 -0.2822 -0.3947
  789SOL    HW1 2366   0.102   1.626   2.199 -0.0965  0.6302 -1.3153
  789SOL    HW2 2367   3.012   1.667   2.204  1.4065  1.8656 -0.1740
  790SOL     OW 2368   0.892   2.974   2.535 -0.0155  0.1893  0.4546
  790SOL    HW1 2369   0.829   2.939   2.459 -2.8876 -3.1445 -3.6493
  790SOL    HW2 2370   0.984   2.927   2.538  1.9931  0.7020 -2.8278
  791SOL     OW 2371   0.104   2.491   2.800  0.0190  0.3847  0.1374
  791SOL    HW1 2372   0.154   2.499   2.886 -4.3953  0.7432  0.4456
  791SOL    HW2 2373   0.018   2.433   2.805 -2.5405 -2.6216 -0.0796
  792SOL     OW 2374   1.400   0.302   2.123 -0.3598  0.0702 -0.4397
  792SOL    HW1 2375   1.419   0.242   2.203 -1.1064 -0.3463 -0.3030
  792SOL    HW2 2376   1.478   0.332   2.060  2.3318  1.5552 -2.5844
  793SOL     OW 2377   2.569   2.906   2.434  0.3664  0.0614  0.1787
  793SOL    HW1 2378   2.584   2.831   2.368 -0.0365  0.0747 -0.7668
  793SOL    HW2 2379   2.652   2.968   2.445  0.5247 -2.6312 -1.1875
  794SOL     OW 2380   0.411   0.297   2.155  0.3802  0.1436  0.0504
  794SOL    HW1 2381   0.333   0.308   2.224 -0.1795 -1.0555  1.1553
  794SOL    HW2 2382   0.414   0.209   2.107  1.6616  0.7381  0.2434
  795SOL     OW 2383   2.744   1.401   0.227 -0.3916 -0.5388 -0.2163
  795SOL    HW1 2384   2.833   1.348   0.244  0.9582 -2.9098  0.8037
  795SOL    HW2 2385   2.759   1.487   0.272  2.4076 -2.1729 -0.2950
  796SOL     OW 2386   2.725   2.069   2.601  0.4881 -0.6467  0.5200
  796SOL    HW1 2387   2.798   2.063   2.535  0.9705 -0.9999  2.3749
  796SOL    HW2 2388   2.630   2.068   2.554 -1.4264 -0.7026 -2.2335
  797SOL     OW 2389   3.013   1.793   0.220  0.0234 -0.1381  0.3507
  797SOL    HW1 2390   2.944   1.769   0.149 -2.8830 -1.5756 -0.5232
  797SOL    HW2 2391   2.980   1.861   0.286  2.9368  1.0418 -0.3196
  798SOL     OW 2392   0.481   0.531   1.784 -0.4776 -0.2029 -0.1256
  798SOL    HW1 2393   0.449   0.622   1.823  0.3335 -0.7573  2.9756
  798SOL    HW2 2394   0.524   0.472   1.854 -1.2151 -1.0724  1.2387
  799SOL     OW 2395   2.693   1.117   2.331 -0.5297 -0.5573 -0.3823
  799SOL    HW1 2396   2.711   1.141   2.239 -0.1326 -0.1899 -0.2659
  799SOL    HW2 2397   2.652   1.201   2.378  0.0507 -0.1298 -1.6305
  800SOL     OW 2398   3.014   2.419   0.560 -0.0058 -0.5315  0.4359
  800SOL    HW1 2399   3.051   2.374   0.644  0.1435  1.1154  0.5996
  800SOL    HW2 2400   3.069   2.500   0.534  0.2617  1.0820 -2.4972
  801SOL     OW 2401   0.870   0.821   0.940  0.0918 -0.7705 -0.0676
  801SOL    HW1 2402   0.943   0.859   0.883 -3.6271  0.1437 -0.1555
  801SOL    HW2 2403   0.884   0.714   0.944  1.8121 -2.2522 -1.6394
  802SOL     OW 2404   1.804   2.098   0.944 -0.2905 -0.3944  0.0964
  802SOL    HW1 2405   1.889   2.041   0.928  1.3887 -0.6220  3.3174
  802SOL    HW2 2406   1.730   2.086   0.874  0.3349  1.9136  0.1020
  803SOL     OW 2407   2.982   1.315   0.567 -0.5169 -0.2488  0.4373
  803SOL    HW1 2408   3.059   1.268   0.614 -0.6896 -0.1572 -0.8492
  803SOL    HW2 2409   2.998   1.411   0.540  1.0221 -0.6435 -0.9243
  804SOL     OW 2410   1.394   2.430   0.641 -0.2514  0.1246  0.1605
  804SOL    HW1 2411   1.328   2.386   0.705 -0.6086 -2.6462 -1.4649
  804SOL    HW2 2412   1.375   2.530   0.632 -2.0267 -1.2824  2.0664
  805SOL     OW 2413   1.467   2.122   2.590  0.5612  0.3038 -0.1681
  805SOL    HW1 2414   1.549   2.171   2.627  0.6071 -2.8145  1.7850
  805SOL    HW2 2415   1.484   2.020   2.593  2.5705 -0.9457  0.2732
  806SOL     OW 2416   1.418   0.111   1.367 -0.1569  0.3284  0.4764
  806SOL    HW1 2417   1.441   0.204   1.334  2.1740 -0.6448 -3.3132
  806SOL    HW2 2418   1.403   0.039   1.298 -0.2648  0.4638 -0.2631
  807SOL     OW 2419   1.790   0.150   0.292  0.4686  0.7230 -0.0401
  807SOL    HW1 2420   1.707   0.107   0.254 -0.7248  3.9631  0.5674
  807SOL    HW2 2421   1.852   0.081   0.340 -1.6106  0.0121  0.0614
  808SOL     OW 2422   0.561   1.493   2.818 -0.1230 -0.2223  0.3001
  808SOL    HW1 2423   0.518   1.399   2.816  0.7174 -2.0418  2.0370
  808SOL    HW2 2424   0.638   1.506   2.747 -0.2502  2.9364  0.4564
  809SOL     OW 2425   3.020   1.266   2.995  0.3111 -0.4695  0.0777
  809SOL    HW1 2426   0.042   1.309   2.982  1.8912  0.1651 -1.1057
  809SOL    HW2 2427   3.012   1.173   2.952  1.3737  0.5469 -1.0869
  810SOL     OW 2428   2.674   0.583   2.765  0.4216 -0.1756 -0.2728
  810SOL    HW1 2429   2.614   0.666   2.734 -1.8744  2.4142  0.2212
  810SOL    HW2 2430   2.708   0.522   2.691  0.2257 -2.0024  2.0251
  811SOL     OW 2431   2.078   2.617   1.888  0.1610 -0.0554 -0.1657
  811SOL    HW1 2432   1.983   2.643   1.860  0.3835  0.4921 -0.4083
  811SOL    HW2 2433   2.076   2.603   1.989 -1.5288  0.7937 -1.4519
  812SOL     OW 2434   1.071   0.262   0.655 -0.5585 -0.1244  0.2721
  812SOL    HW1 2435   1.163   0.250   0.701  1.5328  1.5074  1.4632
  812SOL    HW2 2436   1.086   0.282   0.554  3.9110 -0.0886  0.9461
  813SOL     OW 2437   1.957   0.617   1.718  0.2165 -0.6442 -0.0833
  813SOL    HW1 2438   1.908   0.593   1.634  1.2918  0.6453 -0.7267
  813SOL    HW2 2439   1.952   0.545   1.787 -0.9481  0.0280 -1.6195
  814SOL     OW 2440   2.055   0.951   1.146 -0.1516 -0.6723  0.0994
  814SOL    HW1 2441   2.093   0.918   1.061 -1.0929  0.0985 -1.9027
  814SOL    HW2 2442   2.117   1.021   1.196  1.4577  2.6611  3.3383
  815SOL     OW 2443   0.564   0.688   0.510 -0.1102 -0.7773 -0.3057
  815SOL    HW1 2444   0.621   0.757   0.556  0.0050 -0.7121  0.1710
  815SOL    HW2 2445   0.620   0.600   0.494  0.7883  0.1430 -0.2906
  816SOL     OW 2446   2.401   2.331   0.457 -0.3410 -0.0253 -0.5410
  816SOL    HW1 2447   2.425   2.234   0.473 -0.5306  0.0657 -0.3322
  816SOL    HW2 2448   2.317   2.338   0.395 -0.2178  1.5384  1.5065
  817SOL     OW 2449   2.802   2.435   0.895 -0.2341  0.2181  0.2563
  817SOL    HW1 2450   2.880   2.373   0.910 -2.8210  1.5249  0.6776
  817SOL    HW2 2451   2.766   2.475   0.981 -0.2537 -1.6278 -0.2826
  818SOL     OW 2452   1.753   0.900   0.125 -0.2891 -0.2476  0.0270
  818SOL    HW1 2453   1.834   0.960   0.156  2.4379  0.5167 -1.1658
  818SOL    HW2 2454   1.686   0.894   0.202  1.3340 -1.1470 -1.0143
  819SOL     OW 2455   0.504   0.508   0.776  0.1011 -0.1831 -0.4062
  819SOL    HW1 2456   0.435   0.544   0.846 -1.3528  0.5024 -0.5812
  819SOL    HW2 2457   0.488   0.542   0.680  1.4346 -0.1160 -2.0071
  820SOL     OW 2458   2.002   0.818   1.403 -0.5237 -0.3456 -0.2038
  820SOL    HW1 2459   1.998   0.883   1.326  0.1863  0.5582 -1.2669
  820SOL    HW2 2460   1.917   0.783   1.441  2.9599 -0.0095  3.2415
  821SOL     OW 2461   2.745   0.192   0.988 -0.8606 -0.0009  0.0450
  821SOL    HW1 2462   2.672   0.267   0.986  1.8128  2.1439 -1.2187
  821SOL    HW2 2463   2.759   0.149   0.897  1.4209  0.7216 -1.1516
  822SOL     OW 2464   0.896   2.316   2.109  0.4702  0.6356  0.7362
  822SOL    HW1 2465   0.905   2.374   2.194 -1.5734 -0.4304 -0.3863
  822SOL    HW2 2466   0.795   2.318   2.086  0.0604  1.9109  0.8251
  823SOL     OW 2467   2.919   1.123   1.574  0.8507 -0.1511  0.3990
  823SOL    HW1 2468   3.004   1.071   1.595  0.5717  1.9092 -0.1431
  823SOL    HW2 2469   2.887   1.162   1.659  0.3049 -2.0333  0.1743
  824SOL     OW 2470   0.583   2.447   2.429 -0.4036  0.3707 -0.4278
  824SOL    HW1 2471   0.542   2.363   2.473 -0.9839 -2.1378 -0.2982
  824SOL    HW2 2472   0.682   2.444   2.419 -1.5374 -1.9893  1.3419
  825SOL     OW 2473   1.617   1.535   2.918 -0.0417  0.3834 -0.0670
  825SOL    HW1 2474   1.574   1.539   2.823 -0.4188 -0.2628 -0.1086
  825SOL    HW2 2475   1.718   1.543   2.909  0.2992  0.4423 -1.4824
  826SOL     OW 2476   0.771   2.208   0.220  0.2329 -0.6239 -0.5078
  826SOL    HW1 2477   0.768   2.219   0.321 -0.1667 -0.6307 -1.7363
  826SOL    HW2 2478   0.797   2.113   0.200 -0.5884  2.1413  1.3205
  827SOL     OW 2479   0.264   1.388   1.756 -0.0537 -0.1748 -0.0150
  827SOL    HW1 2480   0.222   1.474   1.721 -2.9299 -1.4410 -0.2476
  827SOL    HW2 2481   0.210   1.315   1.716 -0.0825  1.3774  0.9714
  828SOL     OW 2482   0.069   1.731   1.476 -0.0449  0.4985  0.4388
  828SOL    HW1 2483   0.040   1.822   1.442 -0.9976  1.3143  1.0507
  828SOL    HW2 2484   0.161   1.706   1.436 -2.4722 -0.5206 -1.2506
  829SOL     OW 2485   2.954   2.351   2.821  0.3055 -0.4459 -0.5319
  829SOL    HW1 2486   2.944   2.286   2.898 -1.1735  2.1471  0.6326
  829SOL    HW2 2487   2.874   2.334   2.758  1.2329  0.2359 -3.1361
  830SOL     OW 2488   1.053   0.635   0.496 -0.5104  0.3501  0.9000
  830SOL    HW1 2489   0.993   0.598   0.570  0.5135 -1.3013  0.1837
  830SOL    HW2 2490   1.040   0.578   0.416  0.5820  0.4047 -0.8955
  831SOL     OW 2491   2.659   2.203   3.051 -0.4451  0.0161 -0.1030
  831SOL    HW1 2492   2.685   2.154   2.965 -1.3115 -0.4495  0.2380
  831SOL    HW2 2493   2.564   2.235   3.041  2.1131  1.2224  1.5364
  832SOL     OW 2494   1.616   2.628   0.472 -0.2997  0.1507 -0.0467
  832SOL    HW1 2495   1.680   2.640   0.393 -0.2923  0.4000 -0.7063
  832SOL    HW2 2496   1.637   2.547   0.529 -1.2679 -0.9426  2.1414
  833SOL     OW 2497   0.267   1.127   1.924 -0.4603  0.0826  0.3298
  833SOL    HW1 2498   0.265   1.227   1.933 -1.6583  0.3672 -1.8458
  833SOL    HW2 2499   0.337   1.097   1.858  0.0689  0.3295 -1.2985
  834SOL     OW 2500   2.218   0.439   0.416 -0.4419  0.1443  0.1176
  834SOL    HW1 2501   2.316   0.464   0.445  2.1033  0.3875 -1.6371
  834SOL    HW2 2502   2.174   0.374   0.477  2.0592  0.9049  0.8813
  835SOL     OW 2503   2.327   0.709   1.994 -0.0016  0.0161 -0.0786
  835SOL    HW1 2504   2.291   0.666   1.909 -0.7981  2.0158 -1.5390
  835SOL    HW2 2505   2.323   0.637   2.067  0.9388  0.9089  1.1191
  836SOL     OW 2506   0.914   1.809   0.852 -0.4657 -0.5658 -0.2340
  836SOL    HW1 2507   0.974   1.844   0.779  0.2535  1.5451 -1.6154
  836SOL    HW2 2508   0.941   1.842   0.944  3.5035 -2.5779 -3.5429
  837SOL     OW 2509   2.416   1.055   1.921 -0.3412  0.2306  0.1887
  837SOL    HW1 2510   2.332   1.015   1.877 -2.0615  0.9960 -1.2079
  837SOL    HW2 2511   2.434   1.019   2.016 -0.5441  0.1681 -1.7763
  838SOL     OW 2512   3.013   1.022   2.634  0.0769 -0.1542  0.2712
  838SOL    HW1 2513   2.926   0.988   2.597  2.0576  1.0819  2.2482
  838SOL    HW2 2514   3.015   1.127   2.633 -1.9358  3.1494  0.7771
  839SOL     OW 2515   3.066   0.056   3.063 -0.4109 -0.2069 -0.0748
  839SOL    HW1 2516   3.055   0.155   3.038  0.1566  0.5187 -2.0649
  839SOL    HW2 2517   2.999   0.030   0.065  0.3982 -0.2710  1.8410
  840SOL     OW 2518   2.843   1.447   2.468  0.4345 -0.2213 -0.0601
  840SOL    HW1 2519   2.759   1.396   2.494 -0.0413  1.0258 -0.5519
  840SOL    HW2 2520   2.840   1.544   2.501 -2.4782  0.8456  3.3830
  841SOL     OW 2521   0.504   2.192   2.582  0.1706  0.4444 -0.7421
  841SOL    HW1 2522   0.500   2.123   2.505  0.2309  0.6463 -1.1887
  841SOL    HW2 2523   0.595   2.191   2.627 -0.2373  2.0579  1.6217
  842SOL     OW 2524   0.607   0.101   0.881  0.0666  0.0134 -0.1824
  842SOL    HW1 2525   0.698   0.139   0.900 -1.2386 -0.2262 -0.6663
  842SOL    HW2 2526   0.565   0.159   0.804 -0.7447  1.3458 -3.5278
  843SOL     OW 2527   3.020   1.413   1.723 -0.8401  0.1811 -0.1973
  843SOL    HW1 2528   3.070   1.502   1.710  0.3525 -0.1888  0.4880
  843SOL    HW2 2529   2.921   1.438   1.727 -0.7096 -1.8312 -0.9318
  844SOL     OW 2530   2.084   2.069   2.377  0.2992  0.1281  0.0870
  844SOL    HW1 2531   1.990   2.062   2.341 -2.5318 -1.8576 -2.3010
  844SOL    HW2 2532   2.147   2.030   2.309 -0.0114  2.7595  1.1207
  845SOL     OW 2533   1.691   2.671   2.482 -0.3795 -0.1714  0.0266
  845SOL    HW1 2534   1.604   2.621   2.457 -0.5880 -0.7723 -1.0660
  845SOL    HW2 2535   1.685   2.740   2.557 -0.7161  0.6763  0.7639
  846SOL     OW 2536   2.599   1.650   0.107  0.2016  0.4411  0.1054
  846SOL    HW1 2537   2.511   1.659   0.054  1.6109  1.0360 -0.8331
  846SOL    HW2 2538   2.618   1.557   0.142  3.2871  0.9536 -1.5014
  847SOL     OW 2539   2.451   0.132   2.722 -0.0655  0.2382  0.0258
  847SOL    HW1 2540   2.503   0.061   2.776 -0.2744  0.0881 -2.0994
  847SOL    HW2 2541   2.425   0.215   2.769 -0.7223 -1.9182 -1.9814
  848SOL     OW 2542   1.863   0.569   0.285  0.4422 -0.2811 -0.4226
  848SOL    HW1 2543   1.857   0.508   0.368 -1.1826  2.1606  0.7143
  848SOL    HW2 2544   1.786   0.635   0.281  0.0970 -0.1594 -1.1435
  849SOL     OW 2545   0.910   0.310   2.736  0.4957  0.5552  0.4751
  849SOL    HW1 2546   0.877   0.262   2.658 -0.5196  0.0075 -0.4397
  849SOL    HW2 2547   0.885   0.410   2.729  1.6146 -1.7629 -2.1780
  850SOL     OW 2548   3.056   0.376   3.029  0.2064 -0.0216 -0.3398
  850SOL    HW1 2549   0.080   0.414   3.027 -3.0138 -0.0364 -1.0602
  850SOL    HW2 2550   2.994   0.436   0.014  0.5346  1.7596  0.1386
  851SOL     OW 2551   0.227   1.327   1.372 -0.1989 -0.3612  0.2881
  851SOL    HW1 2552   0.158   1.265   1.419 -0.5871  0.3492 -0.6775
  851SOL    HW2 2553   0.296   1.361   1.438  0.5034 -1.3366 -3.0034
  852SOL     OW 2554   1.253   0.720   1.977  0.0631 -0.2745 -0.4093
  852SOL    HW1 2555   1.219   0.653   1.912 -1.9159  0.3935  0.3899
  852SOL    HW2 2556   1.249   0.685   2.070 -0.4247 -1.0357 -2.1708
  853SOL     OW 2557   2.052   1.354   2.910  0.0253 -0.4855  0.8132
  853SOL    HW1 2558   2.140   1.321   2.949  1.1555 -0.4034 -0.7316
  853SOL    HW2 2559   1.975   1.290   2.935 -1.8600 -0.5988 -0.7056
  854SOL     OW 2560   1.174   1.227   1.697 -0.3250  0.0802  0.1491
  854SOL    HW1 2561   1.231   1.252   1.776 -0.6539  0.4014 -1.1642
  854SOL    HW2 2562   1.185   1.130   1.678 -0.7201  2.3693  0.5628
  855SOL     OW 2563   0.263   2.244   1.716  0.8985  0.2571  0.0607
  855SOL    HW1 2564   0.175   2.283   1.737  2.4283 -0.5549 -0.8286
  855SOL    HW2 2565   0.251   2.156   1.664 -0.4563  0.0390 -1.9950
  856SOL     OW 2566   1.096   1.377   2.395 -0.1770 -0.4292 -0.1250
  856SOL    HW1 2567   1.002   1.383   2.351 -0.7427  2.0348 -1.3360
  856SOL    HW2 2568   1.134   1.474   2.406  0.7732 -1.5404  1.0391
  857SOL     OW 2569   0.958   0.937   2.685  0.0646  0.5662 -0.0955
  857SOL    HW1 2570   0.859   0.936   2.656  2.5942 -0.7664 -2.4476
  857SOL    HW2 2571   1.000   0.843   2.700 -0.2451  4.2544  0.7216
  858SOL     OW 2572   0.293   2.917   1.528 -0.1877 -0.1212  0.1415
  858SOL    HW1 2573   0.307   2.991   1.461  2.2903  0.1185  3.5203
  858SOL    HW2 2574   0.238   2.948   1.604 -1.3996 -0.1925 -1.1798
  859SOL     OW 2575   2.431   0.173   0.820  0.6328  0.0108 -0.0152
  859SOL    HW1 2576   2.480   0.245   0.770 -2.0420  0.1517 -0.3996
  859SOL    HW2 2577   2.380   0.213   0.899  1.6535 -3.0066 -1.2693
  860SOL     OW 2578   0.611   0.869   1.585  0.2132 -0.0603 -0.9170
  860SOL    HW1 2579   0.616   0.852   1.685  1.1626  1.8510 -2.6639
  860SOL    HW2 2580   0.651   0.959   1.568  0.3934 -1.4031  1.7605
  861SOL     OW 2581   1.588   0.793   1.309  0.2812 -0.2897 -0.4700
  861SOL    HW1 2582   1.608   0.696   1.272  1.7534 -0.4657 -1.8623
  861SOL    HW2 2583   1.654   0.855   1.264  0.4601  0.7728 -0.7552
  862SOL     OW 2584   0.597   2.713   2.193  0.0479  0.6248  0.3281
  862SOL    HW1 2585   0.551   2.621   2.185 -0.5438 -1.1474  0.9740
  862SOL    HW2 2586   0.648   2.729   2.284  3.0626  0.2320  1.1657
  863SOL     OW 2587   2.402   0.140   1.244  0.0324  0.1384  0.1004
  863SOL    HW1 2588   2.458   0.055   1.250 -0.9648  0.9336  0.6005
  863SOL    HW2 2589   2.328   0.135   1.316  1.2828  1.2305 -0.5494
  864SOL     OW 2590   2.567   2.814   2.695 -0.3631 -0.2180  0.0046
  864SOL    HW1 2591   2.512   2.730   2.697 -0.3730  2.4656 -1.1356
  864SOL    HW2 2592   2.555   2.858   2.604 -2.7037 -0.5344  1.0304
  865SOL     OW 2593   1.312   1.065   2.103  0.3311  0.6195 -0.1711
  865SOL    HW1 2594   1.286   1.005   2.186 -0.2564 -2.5728  1.2183
  865SOL    HW2 2595   1.222   1.111   2.087  2.1520 -2.4264  1.2038
  866SOL     OW 2596   2.323   2.639   0.901  0.2341  0.2441 -0.7936
  866SOL    HW1 2597   2.374   2.670   0.986  2.4592 -0.3762  0.7967
  866SOL    HW2 2598   2.371   2.563   0.859 -2.3466  1.1098  2.1175
  867SOL     OW 2599   2.485   2.714   1.105  0.5586 -0.0362  0.0239
  867SOL    HW1 2600   2.466   2.817   1.107 -2.5306  0.8009 -1.3634
  867SOL    HW2 2601   2.583   2.679   1.108  4.3705 -0.9693  0.7358
  868SOL     OW 2602   2.614   1.374   1.395  0.8949 -0.2195  0.1748
  868SOL    HW1 2603   2.660   1.371   1.486 -0.9561  0.6364 -0.2896
  868SOL    HW2 2604   2.512   1.352   1.412 -0.6363 -1.3302  1.6722
  869SOL     OW 2605   2.142   1.326   1.989  0.5162 -0.3561  0.4898
  869SOL    HW1 2606   2.138   1.422   2.014 -2.2830 -2.0807  1.3976
  869SOL    HW2 2607   2.056   1.286   2.020 -1.4037 -0.6119  1.0750
  870SOL     OW 2608   1.442   1.370   0.777 -0.0441  0.1573 -0.2581
  870SOL    HW1 2609   1.500   1.311   0.719 -0.2141  0.5126 -0.5478
  870SOL    HW2 2610   1.371   1.417   0.728  1.5447 -0.8448  1.0874
  871SOL     OW 2611   2.323   1.275   1.792  0.1081  0.1162 -0.0366
  871SOL    HW1 2612   2.366   1.192   1.824  1.5863  2.8868  0.7873
  871SOL    HW2 2613   2.247   1.302   1.857 -0.1489 -0.0289  2.8581
  872SOL     OW 2614   1.453   1.216   2.281  0.4965  0.3069  0.1097
  872SOL    HW1 2615   1.413   1.312   2.285 -1.8535  1.1632 -0.7277
  872SOL    HW2 2616   1.405   1.157   2.213  3.3610  0.3088 -1.8132
  873SOL     OW 2617   1.439   1.608   1.156  0.8439  0.2315  0.0327
  873SOL    HW1 2618   1.346   1.623   1.113 -2.4944 -0.1725 -1.8476
  873SOL    HW2 2619   1.506   1.568   1.089  0.8367 -0.6670  1.5803
  874SOL     OW 2620   1.596   1.499   0.965 -0.0596  0.3241 -0.0161
  874SOL    HW1 2621   1.665   1.541   0.908 -4.0906  0.5161 -0.6238
  874SOL    HW2 2622   1.526   1.453   0.909  1.1326 -0.3854  0.4095
  875SOL     OW 2623   2.312   0.501   2.454 -0.0645 -0.0465 -0.0322
  875SOL    HW1 2624   2.356   0.591   2.462 -2.9213 -1.5783 -2.1119
  875SOL    HW2 2625   2.385   0.430   2.467  2.9004  0.1247  1.6425
  876SOL     OW 2626   1.138   1.065   0.559 -0.6160 -0.6103  0.1817
  876SOL    HW1 2627   1.191   0.976   0.558  1.3191 -1.7778  1.8246
  876SOL    HW2 2628   1.171   1.122   0.478 -0.8185 -0.2589  1.8607
  877SOL     OW 2629   1.856   0.193   0.729 -0.1132  0.0904 -0.4602
  877SOL    HW1 2630   1.958   0.193   0.719 -1.8265  0.4046 -3.7086
  877SOL    HW2 2631   1.820   0.100   0.751  1.1998  2.7876 -0.7957
  878SOL     OW 2632   2.924   1.932   0.462 -0.3862  0.2835 -0.6537
  878SOL    HW1 2633   2.952   1.926   0.563  0.3818  1.1696  2.3866
  878SOL    HW2 2634   2.857   2.003   0.442 -0.9406 -0.9636 -0.3099
  879SOL     OW 2635   2.806   2.061   1.757 -0.2827 -0.4288 -0.8073
  879SOL    HW1 2636   2.868   2.003   1.805 -1.4144  0.7779 -2.2634
  879SOL    HW2 2637   2.735   2.002   1.720  1.1481 -0.3610 -1.0278
  880SOL     OW 2638   0.705   1.278   0.838 -0.5042 -0.3140 -0.9182
  880SOL    HW1 2639   0.736   1.220   0.762  0.1669  0.6235  1.0984
  880SOL    HW2 2640   0.728   1.375   0.817  1.7168 -2.7920 -3.2624
  881SOL     OW 2641   1.407   0.475   2.700  0.0124 -0.2616  0.4362
  881SOL    HW1 2642   1.315   0.435   2.715 -0.6611 -0.4521 -1.2175
  881SOL    HW2 2643   1.442   0.446   2.606 -1.0715  1.6945  0.9747
  882SOL     OW 2644   2.678   0.641   0.393 -0.0626  0.4319 -0.2764
  882SOL    HW1 2645   2.646   0.737   0.375 -0.6479 -1.7515 -0.5499
  882SOL    HW2 2646   2.751   0.639   0.467 -0.9428  1.2758  1.6543
  883SOL     OW 2647   1.670   0.815   2.506  0.6149  0.0954  0.0334
  883SOL    HW1 2648   1.615   0.784   2.587 -1.9212 -1.9918  0.8425
  883SOL    HW2 2649   1.652   0.914   2.492 -1.6624  2.5929 -2.7470
  884SOL     OW 2650   0.366   2.839   1.925  0.1620 -0.1289  0.2215
  884SOL    HW1 2651   0.279   2.833   1.871 -0.7129  0.5698  0.6454
  884SOL    HW2 2652   0.453   2.824   1.873 -0.0949 -1.7451  1.2291
  885SOL     OW 2653   1.886   0.757   2.082 -0.1796 -0.3655  0.4297
  885SOL    HW1 2654   1.948   0.683   2.104 -0.1209  2.7977  0.4051
  885SOL    HW2 2655   1.793   0.720   2.085  2.8872  3.6583 -3.6355
  886SOL     OW 2656   1.661   0.098   2.750 -0.4550  0.1744  0.2194
  886SOL    HW1 2657   1.704   0.139   2.668 -1.0511  1.5069 -0.4649
  886SOL    HW2 2658   1.737   0.071   2.815  2.9012 -1.8587  3.3430
  887SOL     OW 2659   1.032   0.238   1.639  0.7486  0.5355 -0.2364
  887SOL    HW1 2660   1.105   0.256   1.706  0.0404 -0.1828 -1.0364
  887SOL    HW2 2661   1.041   0.146   1.595  0.8637 -1.1687  0.7259
  888SOL     OW 2662   2.406   0.499   1.585 -0.4098 -0.4552 -0.1956
  888SOL    HW1 2663   2.487   0.531   1.635  1.0099 -0.2514  1.0204
  888SOL    HW2 2664   2.434   0.477   1.487  0.8981 -0.9142 -1.4851
  889SOL     OW 2665   1.341   0.265   0.713  0.4606 -0.7629  0.5354
  889SOL    HW1 2666   1.370   0.332   0.645  1.8972 -0.8290  0.1858
  889SOL    HW2 2667   1.360   0.304   0.806 -0.3559 -0.2249  1.7901
  890SOL     OW 2668   1.325   2.820   0.939 -0.2406  0.4697  0.5443
  890SOL    HW1 2669   1.421   2.797   0.960 -2.7141 -0.0600  1.4330
  890SOL    HW2 2670   1.314   2.869   0.851 -1.6981  1.2998  0.9308
  891SOL     OW 2671   2.965   1.270   0.174 -0.3274  0.1342 -0.0862
  891SOL    HW1 2672   2.988   1.270   0.073  1.3529 -0.8137 -4.3856
  891SOL    HW2 2673   2.994   1.181   0.216 -0.1205 -1.9946  0.6230
  892SOL     OW 2674   1.910   1.469   2.379  0.2448 -0.0424  0.0221
  892SOL    HW1 2675   2.014   1.456   2.386  2.2400  1.9158 -0.5872
  892SOL    HW2 2676   1.883   1.559   2.333 -0.2199  3.7108 -0.6211
  893SOL     OW 2677   2.371   2.514   1.302  0.2598  0.1222 -0.6799
  893SOL    HW1 2678   2.304   2.511   1.228  1.6431  0.0703  1.4084
  893SOL    HW2 2679   2.438   2.587   1.284 -0.2607 -0.2057  0.5576
  894SOL     OW 2680   0.323   0.601   0.964  0.5799 -0.2638  0.1911
  894SOL    HW1 2681   0.254   0.531   0.999  0.8687 -0.5582  0.8072
  894SOL    HW2 2682   0.270   0.689   0.940 -4.5555 -0.2755 -0.4530
  895SOL     OW 2683   2.972   2.126   2.455  0.7287 -0.2736  0.0909
  895SOL    HW1 2684   2.987   2.128   2.354 -0.0264 -0.5221  1.8513
  895SOL    HW2 2685   3.006   2.036   2.487 -2.2685  2.2700  0.8558
  896SOL     OW 2686   1.322   0.033   2.507  0.6462  0.0328 -0.5038
  896SOL    HW1 2687   1.295   0.028   2.604  0.6668 -1.1295 -1.3555
  896SOL    HW2 2688   1.246   0.023   2.440 -0.6305  0.7846 -0.5855
  897SOL     OW 2689   0.206   1.994   1.665  0.3753  0.1500  1.0312
  897SOL    HW1 2690   0.125   2.006   1.598  0.0777 -1.5473 -1.0553
  897SOL    HW2 2691   0.289   1.960   1.617 -0.4297  3.0492  0.2270
  898SOL     OW 2692   0.785   2.225   1.636 -0.8689 -0.0932  0.0743
  898SOL    HW1 2693   0.788   2.196   1.535  2.2884 -0.3957  0.8532
  898SOL    HW2 2694   0.821   2.319   1.645  2.8478  0.5154 -0.3475
  899SOL     OW 2695   1.918   0.010   1.825  0.1495  0.5318 -0.2266
  899SOL    HW1 2696   1.821   0.031   1.802 -1.2279  2.9577  1.7953
  899SOL    HW2 2697   1.958   3.011   1.771  1.2322  0.1985  0.8087
  900SOL     OW 2698   1.523   1.263   0.474  0.3632  0.3816  0.0232
  900SOL    HW1 2699   1.595   1.329   0.443 -2.8328 -1.3691 -0.7445
  900SOL    HW2 2700   1.554   1.212   0.560  1.6021 -3.6723 -0.4887
  901SOL     OW 2701   1.207   0.955   2.327  0.1211  0.2743 -0.0501
  901SOL    HW1 2702   1.185   1.027   2.387  0.0542 -0.4050 -1.5114
  901SOL    HW2 2703   1.218   0.867   2.375 -1.6261 -0.8027  0.5207
  902SOL     OW 2704   0.122   1.949   0.796 -0.1378 -0.1457  0.5389
  902SOL    HW1 2705   0.181   1.868   0.799  1.6140  1.9293  1.2171
  902SOL    HW2 2706   0.102   1.987   0.889  0.1282  0.9844 -2.3821
  903SOL     OW 2707   2.404   1.070   2.213 -0.1223 -0.4922 -0.2543
  903SOL    HW1 2708   2.352   1.158   2.226 -1.4168  5.0537  0.9787
  903SOL    HW2 2709   2.499   1.071   2.257  3.7267 -0.2160  0.0791
  904SOL     OW 2710   1.254   1.881   3.057 -0.1679 -0.2856  0.7544
  904SOL    HW1 2711   1.182   1.824   3.006 -1.4429  0.7118 -2.4251
  904SOL    HW2 2712   1.214   1.918   0.071 -0.4384 -0.6099 -0.5287
  905SOL     OW 2713   2.056   0.097   2.057 -0.1066  0.2197  0.2292
  905SOL    HW1 2714   2.018   0.068   1.965 -1.1703  1.4949  0.4346
  905SOL    HW2 2715   2.131   0.169   2.045  1.5572  2.5065 -0.5532
  906SOL     OW 2716   0.779   2.541   0.035 -0.1700  0.3234 -0.2575
  906SOL    HW1 2717   0.715   2.461   0.032  1.0309  0.3809  1.7739
  906SOL    HW2 2718   0.865   2.504   3.069  2.0808  0.9792 -2.8706
  907SOL     OW 2719   0.384   2.593   0.834  0.4681  0.0721 -0.6780
  907SOL    HW1 2720   0.466   2.607   0.893 -1.8923 -0.0290 -0.7053
  907SOL    HW2 2721   0.392   2.652   0.757  2.2338 -2.6585  4.2817
  908SOL     OW 2722   1.152   2.619   1.708  0.0609 -0.4883 -0.0041
  908SOL    HW1 2723   1.060   2.659   1.710 -1.1055  1.8116  0.5085
  908SOL    HW2 2724   1.220   2.690   1.680  1.0176 -1.7890 -1.4993
  909SOL     OW 2725   1.785   0.963   1.216  0.3369  0.1815 -0.4122
  909SOL    HW1 2726   1.871   0.962   1.165  0.9294  1.5193 -1.0336
  909SOL    HW2 2727   1.795   1.016   1.298  1.2142 -3.2710 -2.2137
  910SOL     OW 2728   0.885   0.279   0.159  0.1056 -0.3793  0.0795
  910SOL    HW1 2729   0.916   0.378   0.151 -0.4508  0.5630 -2.0951
  910SOL    HW2 2730   0.883   0.241   0.064 -0.4460  0.3234 -1.1139
  911SOL     OW 2731   0.453   0.336   3.029 -0.0791  0.6061  0.0016
  911SOL    HW1 2732   0.437   0.281   2.944  1.3315  0.0364  1.6783
  911SOL    HW2 2733   0.385   0.407   3.053 -1.9569  0.4393 -1.6380
  912SOL     OW 2734   0.152   1.954   2.793 -0.4131 -0.8318 -0.3542
  912SOL    HW1 2735   0.110   1.931   2.702  1.8490  2.5734 -0.8928
  912SOL    HW2 2736   0.102   1.908   2.868  0.6373  2.1747 -2.4553
  913SOL     OW 2737   2.354   2.946   0.092  0.0154 -0.0780  0.2079
  913SOL    HW1 2738   2.314   3.034   0.062  0.2759 -0.4847  0.7683
  913SOL    HW2 2739   2.334   2.927   0.190  1.0789 -1.2394 -1.3948
  914SOL     OW 2740   1.310   1.436   2.231  0.7311  0.0277  0.4255
  914SOL    HW1 2741   1.357   1.508   2.289 -0.6014  1.2351  2.1000
  914SOL    HW2 2742   1.233   1.396   2.284  0.5589 -0.6465 -1.2474
  915SOL     OW 2743   2.700   2.239   1.938 -0.7037  0.3361 -0.1612
  915SOL    HW1 2744   2.781   2.283   1.979  0.0455 -0.9477  0.5167
  915SOL    HW2 2745   2.737   2.176   1.866  1.1969 -1.3733  0.3237
  916SOL     OW 2746   3.045   1.120   2.189 -0.0231  0.2656 -0.0218
  916SOL    HW1 2747   0.040   1.061   2.137  0.1630 -0.0789 -0.9351
  916SOL    HW2 2748   2.956   1.124   2.132  0.3238  0.8071 -1.0841
  917SOL     OW 2749   1.316   0.462   0.291  0.0211 -0.4755 -0.1618
  917SOL    HW1 2750   1.384   0.535   0.320  2.2017  2.1643 -1.2123
  917SOL    HW2 2751   1.358   0.397   0.224  0.1790 -2.3798 -0.6952
  918SOL     OW 2752   1.439   2.786   2.177 -0.2912 -0.2295  0.1481
  918SOL    HW1 2753   1.492   2.724   2.119 -0.7331  1.3437 -0.2001
  918SOL    HW2 2754   1.492   2.871   2.194 -2.0902 -0.6308  0.4595
  919SOL     OW 2755   1.709   2.364   2.001  0.2404 -0.5827  0.3996
  919SOL    HW1 2756   1.638   2.288   2.005 -1.7954 -2.0142 -2.1742
  919SOL    HW2 2757   1.795   2.328   2.040  0.3501  1.4745 -0.2993
  920SOL     OW 2758   0.262   0.923   0.121  0.1726 -0.0897 -0.1861
  920SOL    HW1 2759   0.262   1.003   0.189  0.2311  1.9380 -2.1068
  920SOL    HW2 2760   0.328   0.852   0.147  0.4442  1.6622  1.0860
  921SOL     OW 2761   2.128   0.828   2.436  0.2995  0.4154 -0.1570
  921SOL    HW1 2762   2.055   0.753   2.427 -0.6734 -0.9473  2.1675
  921SOL    HW2 2763   2.162   0.860   2.343  1.3625  1.1230 -2.9420
  922SOL     OW 2764   1.158   1.780   2.647  0.3132  0.1777  0.1589
  922SOL    HW1 2765   1.152   1.871   2.602 -0.3422  3.7062 -1.2112
  922SOL    HW2 2766   1.100   1.771   2.730  1.2799 -0.2972  0.2358
  923SOL     OW 2767   0.773   1.221   2.174 -0.3922  0.1246 -0.1246
  923SOL    HW1 2768   0.676   1.204   2.155 -0.2564  0.2977 -1.0235
  923SOL    HW2 2769   0.795   1.322   2.175  2.5698  0.6158  0.3886
  924SOL     OW 2770   0.025   2.147   2.954 -0.1547 -0.0980  0.2067
  924SOL    HW1 2771   0.083   2.126   2.873 -2.4752  1.1092 -1.5275
  924SOL    HW2 2772   3.052   2.062   2.985  0.1802  1.4751  0.6081
  925SOL     OW 2773   1.749   1.622   0.779 -1.1078  0.0441 -0.5251
  925SOL    HW1 2774   1.706   1.647   0.694 -0.6245 -2.3852 -0.5033
  925SOL    HW2 2775   1.827   1.687   0.795  1.4667 -0.0650  0.9703
  926SOL     OW 2776   1.789   0.191   2.533 -0.2769  0.0337  0.1842
  926SOL    HW1 2777   1.802   0.181   2.431  0.9685 -0.3044 -1.6861
  926SOL    HW2 2778   1.773   0.288   2.563 -2.5482  2.5104  0.4007
  927SOL     OW 2779   2.463   2.671   1.612  0.3206 -0.0333  0.4636
  927SOL    HW1 2780   2.531   2.712   1.678 -0.4846 -0.8558  2.1597
  927SOL    HW2 2781   2.418   2.591   1.656  0.2696  1.0887 -0.0619
  928SOL     OW 2782   0.523   0.876   2.777  0.5017 -0.1996 -0.1301
  928SOL    HW1 2783   0.440   0.839   2.730 -1.3198  0.2199  1.1553
  928SOL    HW2 2784   0.596   0.897   2.710 -2.2538 -1.4215  0.7820
  929SOL     OW 2785   0.109   0.191   0.939 -0.0295  0.5799 -0.1616
  929SOL    HW1 2786   0.093   0.169   0.845 -3.3302  0.2223  4.1185
  929SOL    HW2 2787   0.110   0.290   0.958  0.1438 -2.5967 -0.1814
  930SOL     OW 2788   2.591   3.059   1.887  0.3616 -0.8919  0.6388
  930SOL    HW1 2789   2.499   3.049   1.936  0.1928 -0.3136  1.7002
  930SOL    HW2 2790   2.590   0.080   1.838  1.0340 -0.7196  0.9261
  931SOL     OW 2791   2.353   1.307   2.976  0.2229  0.0087 -0.1559
  931SOL    HW1 2792   2.379   1.326   0.005  1.7247 -2.1009  1.8716
  931SOL    HW2 2793   2.317   1.213   2.974  0.0508  0.7239 -0.3209
  932SOL     OW 2794   2.694   1.134   0.885  0.0429  0.7382 -0.0106
  932SOL    HW1 2795   2.626   1.162   0.951  2.4108  2.0270 -0.7504
  932SOL    HW2 2796   2.748   1.215   0.853  1.3842  0.6253  1.0036
  933SOL     OW 2797   2.872   2.249   1.562 -0.5259  0.2203 -0.1260
  933SOL    HW1 2798   2.866   2.175   1.625 -0.8685  1.7590 -0.4621
  933SOL    HW2 2799   2.828   2.331   1.595  0.9735 -3.6363 -0.8958
  934SOL     OW 2800   0.866   3.000   0.832  0.6880 -0.0140 -0.1881
  934SOL    HW1 2801   0.807   3.020   0.909 -0.2082  0.6625  1.1769
  934SOL    HW2 2802   0.854   3.057   0.751  0.7399  0.2064  1.2567
  935SOL     OW 2803   2.677   0.325   2.194 -0.2784  0.3522  0.4672
  935SOL    HW1 2804   2.743   0.248   2.183  1.9789  1.7082  1.4021
  935SOL    HW2 2805   2.589   0.294   2.234 -0.8168 -0.8631 -0.9667
  936SOL     OW 2806   2.954   0.516   1.645 -0.6468 -0.1834 -0.3545
  936SOL    HW1 2807   2.914   0.607   1.631  0.1725 -1.9337 -0.2679
  936SOL    HW2 2808   2.980   0.499   1.742  1.0143 -0.6022 -0.3818
  937SOL     OW 2809   1.762   1.246   1.765 -0.1029 -0.6548  0.3949
  937SOL    HW1 2810   1.861   1.243   1.743 -1.3322  1.1589  0.3524
  937SOL    HW2 2811   1.730   1.168   1.824 -0.8639 -1.4839  0.3900
  938SOL     OW 2812   0.625   2.308   0.029 -0.3297 -0.2778 -0.3417
  938SOL    HW1 2813   0.526   2.274   0.021 -3.5162 -0.6913 -1.3298
  938SOL    HW2 2814   0.673   2.271   0.116  0.1121  1.3427  1.5945
  939SOL     OW 2815   1.517   0.442   2.958 -0.1335 -0.4853  0.2471
  939SOL    HW1 2816   1.490   0.344   2.978  0.2018 -2.0505 -1.8336
  939SOL    HW2 2817   1.471   0.474   2.875  4.5592 -0.4216 -1.7134
  940SOL     OW 2818   1.586   2.776   1.042 -0.0216  0.5279 -0.4236
  940SOL    HW1 2819   1.560   2.677   1.049 -1.4571  0.1346  1.8417
  940SOL    HW2 2820   1.653   2.785   0.967 -1.7798  0.3065  3.0417
  941SOL     OW 2821   1.311   1.925   1.864 -0.1055  0.0154  0.1118
  941SOL    HW1 2822   1.391   1.933   1.801 -0.7933  0.1323 -1.5539
  941SOL    HW2 2823   1.224   1.969   1.835  1.9346 -0.0649 -0.5642
  942SOL     OW 2824   2.811   2.073   2.854  0.0405 -0.0472  0.3278
  942SOL    HW1 2825   2.830   1.974   2.866  1.8028  0.5641  0.3968
  942SOL    HW2 2826   2.778   2.095   2.760  1.9422  1.2662 -0.6251
  943SOL     OW 2827   2.671   2.826   1.753 -0.0879  0.1473  0.0170
  943SOL    HW1 2828   2.653   2.910   1.807  2.1553 -1.5546 -1.3309
  943SOL    HW2 2829   2.705   2.747   1.813  0.4081 -3.7765 -1.4872
  944SOL     OW 2830   1.737   1.986   2.866  0.0279  0.1655 -0.8790
  944SOL    HW1 2831   1.669   1.957   2.800  0.0098 -0.4364  1.5828
  944SOL    HW2 2832   1.811   2.044   2.817 -0.8326 -2.8254 -0.7835
  945SOL     OW 2833   2.942   2.163   1.199  0.2928 -0.3803 -0.3377
  945SOL    HW1 2834   2.860   2.112   1.226 -1.8562 -1.0952  1.7570
  945SOL    HW2 2835   2.976   2.220   1.273  1.3020  1.3495 -0.2494
  946SOL     OW 2836   1.570   1.106   3.060 -0.3752  0.2048  0.1295
  946SOL    HW1 2837   1.640   1.045   0.031 -0.6247 -0.7886  2.2137
  946SOL    HW2 2838   1.479   1.080   0.014  3.6427 -1.5665 -1.0123
  947SOL     OW 2839   0.143   0.961   2.073  0.1976  0.4255 -0.1256
  947SOL    HW1 2840   0.196   1.028   2.017 -0.3270  0.8297  1.7689
  947SOL    HW2 2841   0.208   0.908   2.130 -0.0256 -0.4214 -0.7757
  948SOL     OW 2842   0.266   1.119   0.338  0.2111  0.1730  0.6084
  948SOL    HW1 2843   0.178   1.155   0.376 -1.6327 -2.1999 -0.1880
  948SOL    HW2 2844   0.330   1.080   0.404 -2.2395  2.2498  2.2102
  949SOL     OW 2845   0.609   0.330   2.547 -0.4420 -0.1512 -0.4346
  949SOL    HW1 2846   0.624   0.400   2.619 -0.0300 -0.1370 -1.6341
  949SOL    HW2 2847   0.657   0.359   2.465 -2.6755 -1.9160  2.6614
  950SOL     OW 2848   0.035   0.376   1.297  0.2576 -0.2241  0.3914
  950SOL    HW1 2849   0.011   0.294   1.357 -0.2299  2.2940  0.4975
  950SOL    HW2 2850   0.071   0.452   1.352  0.0135  0.1790  0.9016
  951SOL     OW 2851   0.206   1.062   2.700 -0.1915  0.0911  0.1915
  951SOL    HW1 2852   0.108   1.036   2.696 -2.6158 -1.2144 -1.2982
  951SOL    HW2 2853   0.245   1.032   2.790 -0.6083 -1.3129 -2.0950
  952SOL     OW 2854   1.977   2.158   1.703 -0.2289 -0.1253  0.2783
  952SOL    HW1 2855   1.951   2.069   1.666 -1.3398  0.3168 -0.1512
  952SOL    HW2 2856   2.061   2.153   1.763  0.9583 -0.2664  0.6937
  953SOL     OW 2857   0.261   2.571   3.015  0.3882 -0.2781 -0.1912
  953SOL    HW1 2858   0.337   2.538   2.953  2.1724 -1.2981  3.6254
  953SOL    HW2 2859   0.302   2.601   0.031  1.5813 -0.2678 -1.2622
  954SOL     OW 2860   2.477   0.732   0.958 -0.1109  0.1841 -0.9653
  954SOL    HW1 2861   2.563   0.712   1.014  1.1494 -0.6457  3.1287
  954SOL    HW2 2862   2.404   0.662   0.970 -1.1153  2.1965  2.9253
  955SOL     OW 2863   1.276   1.330   0.139 -0.3042 -0.1344 -0.4004
  955SOL    HW1 2864   1.349   1.354   0.073 -0.9422  0.3938  1.6697
  955SOL    HW2 2865   1.198   1.289   0.086 -1.6281 -1.6040  0.4904
  956SOL     OW 2866   0.896   0.656   2.348 -0.6195  0.3986 -0.0619
  956SOL    HW1 2867   0.902   0.754   2.318 -2.7921 -2.4438 -0.5067
  956SOL    HW2 2868   0.951   0.633   2.427  1.2840 -0.3418  1.6026
  957SOL     OW 2869   0.650   0.313   2.277 -0.0364  0.4363  0.5384
  957SOL    HW1 2870   0.655   0.228   2.338  1.4648 -0.7601  1.0456
  957SOL    HW2 2871   0.560   0.310   2.232 -1.3083 -1.0285  3.0304
  958SOL     OW 2872   0.806   2.020   0.713  0.0448 -0.3110  0.0511
  958SOL    HW1 2873   0.849   1.980   0.796  0.5988  0.6633  1.4403
  958SOL    HW2 2874   0.713   2.059   0.737 -1.6043 -1.1697  1.4634
  959SOL     OW 2875   2.592   0.830   2.041 -0.2747  0.4991  0.3668
  959SOL    HW1 2876   2.515   0.765   2.011 -0.6985 -0.2897  0.9906
  959SOL    HW2 2877   2.592   0.825   2.142 -0.5410 -1.8159 -0.2633
  960SOL     OW 2878   0.181   1.301   2.515 -0.0412  0.2842 -0.2285
  960SOL    HW1 2879   0.114   1.297   2.438 -0.6855 -1.5445  0.7435
  960SOL    HW2 2880   0.145   1.248   2.601  1.3847  0.2311  2.1474
  961SOL     OW 2881   0.571   1.632   0.554  0.2179 -0.1118  0.0839
  961SOL    HW1 2882   0.649   1.694   0.529  1.7275  2.8436  1.6402
  961SOL    HW2 2883   0.582   1.591   0.648 -1.6204  0.9837 -0.6235
  962SOL     OW 2884   0.510   1.441   1.055 -0.4946  0.3596  0.3962
  962SOL    HW1 2885   0.474   1.346   1.057 -1.0076  0.5002  0.6986
  962SOL    HW2 2886   0.447   1.509   1.096  2.6451 -0.8650  1.1677
  963SOL     OW 2887   1.298   2.334   0.028 -0.2024 -0.2832  0.7029
  963SOL    HW1 2888   1.319   2.348   3.002 -1.6912 -2.7159 -2.1179
  963SOL    HW2 2889   1.199   2.328   0.049  2.2616  1.3732 -0.2250
  964SOL     OW 2890   0.193   2.685   2.647  0.3454 -0.0067  0.4304
  964SOL    HW1 2891   0.288   2.712   2.670 -2.0811 -0.3196  0.8800
  964SOL    HW2 2892   0.149   2.624   2.711  1.0911  3.9250 -1.7607
  965SOL     OW 2893   2.765   1.621   2.851  0.6856 -0.0098  0.2617
  965SOL    HW1 2894   2.754   1.532   2.902 -0.5986  0.6014  0.3764
  965SOL    HW2 2895   2.782   1.692   2.920 -2.0139  0.6630 -2.8255
  966SOL     OW 2896   2.617   1.327   2.484 -0.8025  0.6119 -0.0242
  966SOL    HW1 2897   2.568   1.373   2.406  1.0939 -1.5062  0.3389
  966SOL    HW2 2898   2.554   1.294   2.558  0.2395 -1.0566 -0.3061
  967SOL     OW 2899   1.500   0.473   0.556 -0.0526 -0.6896 -0.1052
  967SOL    HW1 2900   1.588   0.427   0.568 -0.4136  0.5749  1.8296
  967SOL    HW2 2901   1.498   0.568   0.601 -1.2707  4.2795 -2.9744
  968SOL     OW 2902   2.692   2.961   0.434  0.6923 -0.8991  0.2070
  968SOL    HW1 2903   2.780   2.999   0.466 -1.8610  0.8420 -0.4375
  968SOL    HW2 2904   2.627   3.039   0.426 -0.9345  1.5811 -0.1296
  969SOL     OW 2905   0.504   0.935   2.331 -0.2852 -0.6722  0.1908
  969SOL    HW1 2906   0.453   0.863   2.281  1.0580  0.5489  1.9234
  969SOL    HW2 2907   0.444   1.013   2.367 -2.3051 -0.6567 -0.6482
  970SOL     OW 2908   2.078   1.756   2.636  0.5541  0.0384  0.5795
  970SOL    HW1 2909   2.102   1.840   2.685  0.4673 -1.1968 -1.2154
  970SOL    HW2 2910   2.142   1.681   2.662  1.8097  0.9952  3.2628
  971SOL     OW 2911   2.836   0.045   1.938 -1.0486 -0.3546  0.6716
  971SOL    HW1 2912   2.879   0.096   1.863 -1.0748 -0.6737  0.3289
  971SOL    HW2 2913   2.742   0.016   1.905  1.2226 -0.1465  0.4731
  972SOL     OW 2914   0.113   0.552   0.672 -0.6636 -0.0537  0.3271
  972SOL    HW1 2915   0.133   0.462   0.639 -1.4342  1.3811 -0.2888
  972SOL    HW2 2916   0.196   0.615   0.665  1.7262  1.6954 -1.3127
  973SOL     OW 2917   2.812   3.059   2.419 -0.5641  0.3173 -0.1872
  973SOL    HW1 2918   2.848   2.962   2.413  1.8369 -1.7554  1.1001
  973SOL    HW2 2919   2.842   0.043   2.340 -1.5825 -0.9033 -0.5314
  974SOL     OW 2920   2.960   0.845   1.378 -0.0692 -0.0461 -0.1068
  974SOL    HW1 2921   2.938   0.921   1.313  0.8022  0.4761  2.7872
  974SOL    HW2 2922   3.052   0.806   1.361 -0.8811 -0.0321 -2.2915
  975SOL     OW 2923   1.418   2.818   2.496 -0.4215 -0.0899  0.1834
  975SOL    HW1 2924   1.417   2.918   2.479 -1.4125  3.4909  0.3238
  975SOL    HW2 2925   1.450   2.766   2.413  0.9908 -0.1278 -1.9742
  976SOL     OW 2926   2.024   1.225   1.667 -0.0298  0.9677  0.1778
  976SOL    HW1 2927   2.026   1.199   1.567  2.0364  0.6018 -3.5181
  976SOL    HW2 2928   2.103   1.181   1.719  0.5633 -2.6689  2.0929
  977SOL     OW 2929   2.697   2.774   0.228  0.7543  0.0731  0.1202
  977SOL    HW1 2930   2.669   2.681   0.273  0.9671  1.9567  1.4367
  977SOL    HW2 2931   2.699   2.844   0.305  3.0929 -0.6325  1.2067
  978SOL     OW 2932   1.968   1.000   2.228  0.3797  0.5786  0.8132
  978SOL    HW1 2933   2.066   0.967   2.223  1.6238 -3.0131 -1.2066
  978SOL    HW2 2934   1.902   0.931   2.186 -1.3489  1.2510  0.7888
  979SOL     OW 2935   0.775   1.111   2.429 -0.0490 -0.3621  0.0166
  979SOL    HW1 2936   0.753   1.146   2.334  1.4688 -1.2134  0.2976
  979SOL    HW2 2937   0.747   1.181   2.501  4.6661 -0.4599 -1.9961
  980SOL     OW 2938   1.578   1.874   2.634  0.4731  0.3369 -0.4756
  980SOL    HW1 2939   1.524   1.787   2.653  2.6414  2.3580 -1.2206
  980SOL    HW2 2940   1.679   1.848   2.628  1.0370 -2.7243 -0.0505
  981SOL     OW 2941   1.087   0.568   1.743 -0.4003  0.5992  0.0164
  981SOL    HW1 2942   1.081   0.616   1.656 -2.6431 -0.3521 -2.9747
  981SOL    HW2 2943   0.996   0.580   1.793 -0.4495  1.7398  1.5532
  982SOL     OW 2944   0.918   0.169   2.984 -0.0360  0.4484 -0.1463
  982SOL    HW1 2945   0.910   0.232   2.907 -1.0428  0.8374  1.3843
  982SOL    HW2 2946   0.893   0.075   2.964 -2.7238 -0.7029 -0.7313
  983SOL     OW 2947   2.334   0.956   0.147 -0.8143  0.0206  0.0646
  983SOL    HW1 2948   2.410   0.966   0.076  2.2343 -0.5457  1.6822
  983SOL    HW2 2949   2.317   1.041   0.200  3.4502  2.4447 -1.6427
  984SOL     OW 2950   1.146   0.394   0.031 -0.4512 -0.3749 -0.2455
  984SOL    HW1 2951   1.147   0.442   0.121  0.8614 -0.8436  2.2172
  984SOL    HW2 2952   1.162   0.294   0.045 -0.4907  1.3743  1.1091
  985SOL     OW 2953   1.264   2.592   2.108  0.1151 -0.4224 -0.3503
  985SOL    HW1 2954   1.329   2.653   2.161  0.4152  0.3678  2.8139
  985SOL    HW2 2955   1.315   2.558   2.027 -0.3575 -0.5050  0.1786
  986SOL     OW 2956   2.362   3.057   2.012 -0.4507  0.1458  0.0010
  986SOL    HW1 2957   2.315   0.073   2.001  0.9508  0.6262 -0.4849
  986SOL    HW2 2958   2.293   2.979   2.002 -0.5925  1.1633  0.6132
  987SOL     OW 2959   2.223   1.460   1.073 -0.6317  0.2711  0.4231
  987SOL    HW1 2960   2.255   1.429   0.978  1.2526 -2.3981 -1.4118
  987SOL    HW2 2961   2.166   1.383   1.103 -1.3144  1.2358 -0.6060
  988SOL     OW 2962   2.523   0.868   1.725  0.3891  0.4470  0.4928
  988SOL    HW1 2963   2.545   0.770   1.713  1.4857 -0.3703 -0.9512
  988SOL    HW2 2964   2.482   0.884   1.816 -0.2872 -1.7753  1.7974
  989SOL     OW 2965   2.072   2.194   0.162  0.2455  0.0474  0.1426
  989SOL    HW1 2966   1.989   2.154   0.117  2.6637 -0.8635 -1.8007
  989SOL    HW2 2967   2.140   2.121   0.181  1.7930 -2.5014 -0.5206
  990SOL     OW 2968   1.300   0.549   2.225 -0.0437 -0.3502 -0.1022
  990SOL    HW1 2969   1.331   0.613   2.297  0.4066 -0.3114  1.5262
  990SOL    HW2 2970   1.360   0.471   2.214  0.8265  0.0443 -1.5214
  991SOL     OW 2971   1.267   1.221   0.388 -0.4611  0.3422  0.3252
  991SOL    HW1 2972   1.364   1.222   0.421  0.7083 -2.6082 -0.4168
  991SOL    HW2 2973   1.262   1.238   0.284 -1.0255  2.3111 -1.8556
  992SOL     OW 2974   0.230   0.821   1.498 -0.0535  0.3572  0.7250
  992SOL    HW1 2975   0.278   0.864   1.421 -1.0956 -0.3355  0.6724
  992SOL    HW2 2976   0.221   0.720   1.493  1.3170 -3.0522 -4.9074
  993SOL     OW 2977   2.465   0.142   2.258 -0.5319  0.3066  0.5546
  993SOL    HW1 2978   2.417   0.132   2.167 -1.6547 -0.5630 -2.3266
  993SOL    HW2 2979   2.464   0.053   2.302  1.4028 -0.6740 -1.7526
  994SOL     OW 2980   1.546   1.950   1.706  0.1204  0.3674  0.4042
  994SOL    HW1 2981   1.590   1.860   1.685 -2.5568  1.8178  1.6167
  994SOL    HW2 2982   1.619   2.015   1.741  2.5508 -0.3710 -0.5218
  995SOL     OW 2983   2.485   1.948   2.980  0.0129  0.0762 -1.0216
  995SOL    HW1 2984   2.467   1.849   3.003  2.2904  2.5628 -1.0684
  995SOL    HW2 2985   2.494   1.999   3.068  3.6180  1.2702 -1.7435
  996SOL     OW 2986   2.375   1.661   3.028  0.8180 -0.3181 -0.1420
  996SOL    HW1 2987   2.303   1.606   0.005  1.5376 -1.1158  0.5765
  996SOL    HW2 2988   2.417   1.606   2.956 -1.5571  0.0758  1.1567
  997SOL     OW 2989   1.595   0.594   2.359  0.4858 -0.2035 -0.1215
  997SOL    HW1 2990   1.611   0.614   2.258  2.2945  2.6778 -1.1411
  997SOL    HW2 2991   1.613   0.672   2.421  1.7749  0.6756 -0.9597
  998SOL     OW 2992   2.591   0.457   0.761  0.1622 -0.4958 -0.1654
  998SOL    HW1 2993   2.665   0.404   0.726  0.1211  1.6443  0.4224
  998SOL    HW2 2994   2.561   0.422   0.847  0.8020  1.2618 -1.1131
  999SOL     OW 2995   2.849   1.341   0.836  0.2543  0.1497 -0.3707
  999SOL    HW1 2996   2.834   1.441   0.857 -0.1563 -0.9998 -0.6885
  999SOL    HW2 2997   2.898   1.327   0.746  3.1418  0.5992 -2.0703
 1000SOL     OW 2998   0.645   1.505   1.987  0.2372 -0.3072 -0.2021
 1000SOL    HW1 2999   0.710   1.440   1.939  3.3558 -3.1132  1.2901
 1000SOL    HW2 3000   0.555   1.459   1.989  1.0496 -0.3004 -2.8221
   3.07157   3.07157   3.07157
