1000 SPC/Fw water molecules
 3000
    1SOL     OW    1   1.417   3.117   0.270 -0.4522  0.0621  0.0375
    1SOL    HW1    2   1.373   3.210   0.266 -1.3283  3.2807  0.3003
    1SOL    HW2    3   1.376   3.065   0.349 -1.2940 -1.7364 -0.0379
    2SOL     OW    4   1.655   0.783   1.647  0.7141 -0.3646  0.2891
    2SOL    HW1    5   1.741   0.764   1.595  0.6636 -1.2988 -0.8270
    2SOL    HW2    6   1.661   0.869   1.702 -1.5159  2.1833  1.1709
    3SOL     OW    7   0.709   0.099   2.600 -0.0663  0.0346 -0.1615
    3SOL    HW1    8   0.720   0.195   2.631 -1.0278  3.3134 -0.9936
    3SOL    HW2    9   0.661   0.042   2.669  1.1923 -1.3244 -3.0567
    4SOL     OW   10   1.730   1.840   3.234  0.2129 -0.1501 -0.1747
    4SOL    HW1   11   1.764   1.932   3.203  0.5580  0.9263 -1.2072
    4SOL    HW2   12   1.689   1.854   3.327  0.6820 -0.7913 -0.3141
    5SOL     OW   13   0.869   1.363   2.217 -0.5846  0.2732 -0.1543
    5SOL    HW1   14   0.878   1.262   2.220 -0.8455 -3.3294 -1.1012
    5SOL    HW2   15   0.962   1.405   2.209 -1.0915  0.6467  1.2250
    6SOL     OW   16   2.585   1.061   2.437 -0.2279 -0.0250 -0.0978
    6SOL    HW1   17   2.644   1.015   2.505 -1.0089 -2.3543  2.1108
    6SOL    HW2   18   2.546   0.991   2.374  0.4323  0.0537  0.3552
    7SOL     OW   19   0.016   0.957   1.442 -0.0883 -0.7327  0.6351
    7SOL    HW1   20  -0.042   1.040   1.457  1.2093 -1.1522  0.8354
    7SOL    HW2   21   0.110   0.977   1.410 -0.7230  0.4570 -1.4936
    8SOL     OW   22   2.450   2.759   2.152 -0.5048 -0.3304 -0.0897
    8SOL    HW1   23   2.433   2.781   2.053  1.0661  2.0478  0.3232
    8SOL    HW2   24   2.471   2.846   2.204 -1.0489  0.5482 -0.0855
    9SOL     OW   25   0.115   2.898   0.340  0.1471  0.0630 -0.5107
    9SOL    HW1   26   0.050   2.856   0.407  0.1655  0.6268  0.4994
    9SOL    HW2   27   0.195   2.835   0.324 -0.1328  2.2708  1.2707
   10SOL     OW   28   0.083   2.660   2.705  0.2729 -0.2350 -0.3207
   10SOL    HW1   29   0.133   2.744   2.678 -0.6907  1.7887 -0.7882
   10SOL    HW2   30   0.142   2.577   2.694  1.8617 -1.1418  1.1763
   11SOL     OW   31   0.199   1.962   0.128  0.1786 -0.0626  0.4777
   11SOL    HW1   32   0.273   1.891   0.131 -2.8719 -0.0470  1.9646
   11SOL    HW2   33   0.162   1.973   0.223 -1.5060  2.4481  2.7311
   12SOL     OW   34   2.512   3.206   0.482 -0.2223  0.1741  0.0320
   12SOL    HW1   35   2.593   3.264   0.460 -1.7914 -3.3154  0.0020
   12SOL    HW2   36   2.494   3.149   0.399 -3.7596  1.5406 -0.3253
   13SOL     OW   37   0.263   0.485   2.822 -0.0311 -0.3390  0.0597
   13SOL    HW1   38   0.186   0.418   2.817 -1.9857  1.2944  0.7426
   13SOL    HW2   39   0.225   0.579   2.815 -0.1742  0.6092  0.3156
   14SOL     OW   40   1.421   0.765   1.479 -0.4708 -0.2536 -0.5315
   14SOL    HW1   41   1.505   0.761   1.537 -0.1903 -1.2994  0.0298
   14SOL    HW2   42   1.449   0.751   1.382 -1.6987 -0.5298  0.1546
   15SOL     OW   43   0.697   1.499   2.391  0.0451  0.3566 -0.7670
   15SOL    HW1   44   0.639   1.561   2.333  1.4341 -0.5737  0.6362
   15SOL    HW2   45   0.763   1.451   2.330  1.3298 -1.3313  1.7231
   16SOL     OW   46   1.941   0.923   2.992  0.3966  0.2677  0.2824
   16SOL    HW1   47   1.841   0.937   3.005 -1.5025  0.9729 -1.8677
   16SOL    HW2   48   1.960   0.919   2.891  2.2772 -0.8209 -2.5282
   17SOL     OW   49   0.157   2.627   2.249  0.2765  0.0282  0.4160
   17SOL    HW1   50   0.117   2.706   2.300  1.6785 -1.3918  0.3129
   17SOL    HW2   51   0.083   2.584   2.192  0.0366 -1.2014  0.7816
   18SOL     OW   52   1.596   1.303   0.893  0.3080 -0.8490  0.0615
   18SOL    HW1   53   1.635   1.209   0.878 -1.9410 -0.8463 -0.9965
   18SOL    HW2   54   1.498   1.310   0.862 -0.0201 -1.3127 -1.5867
   19SOL     OW   55   0.153   1.169   1.842 -0.3192 -0.2868  0.5785
   19SOL    HW1   56   0.226   1.224   1.795 -0.3699  0.0219 -1.0154
   19SOL    HW2   57   0.197   1.117   1.917  1.8823 -0.1301 -0.1172
   20SOL     OW   58   1.953   2.235   2.878  0.0227  0.3348 -0.0752
   20SOL    HW1   59   1.922   2.324   2.837  2.4985  0.8088 -0.3567
   20SOL    HW2   60   1.996   2.245   2.970  2.6115  0.4550  1.1976
   21SOL     OW   61   1.813   1.779   1.111 -0.5424  1.0068 -0.1758
   21SOL    HW1   62   1.885   1.839   1.151  0.6220 -1.3396  3.3727
   21SOL    HW2   63   1.831   1.681   1.132 -1.5216 -0.4363 -1.6451
   22SOL     OW   64   2.121   2.443   1.527  0.3712 -0.1301 -0.1009
   22SOL    HW1   65   2.034   2.398   1.551 -2.0849 -0.8000 -0.5099
   22SOL    HW2   66   2.111   2.490   1.436  0.7473  0.4777  0.4551
   23SOL     OW   67   2.884   1.189   1.433  0.0800  0.0526 -0.3346
   23SOL    HW1   68   2.897   1.091   1.462  1.0433  0.9715  2.1837
   23SOL    HW2   69   2.842   1.194   1.340 -2.0062 -0.9843  1.3724
   24SOL     OW   70   2.179   1.552   1.843  0.3515  0.6937  0.4247
   24SOL    HW1   71   2.121   1.631   1.872 -1.9750 -0.0848 -0.9222
   24SOL    HW2   72   2.244   1.530   1.918 -0.1860  0.6793  0.2539
   25SOL     OW   73   1.878   3.150   2.777  0.5910  0.2100  0.6962
   25SOL    HW1   74   1.945   3.226   2.795 -2.7152 -3.6971 -1.2286
   25SOL    HW2   75   1.824   3.174   2.694  1.0496  0.0680  1.1782
   26SOL     OW   76   0.400   2.890   0.687 -0.0344  0.4865  0.5891
   26SOL    HW1   77   0.488   2.918   0.733  2.7278 -0.4967 -1.1154
   26SOL    HW2   78   0.416   2.813   0.622  0.2597  1.2530 -0.0520
   27SOL     OW   79   1.305   1.328   0.803 -0.3877 -0.3202  0.2128
   27SOL    HW1   80   1.288   1.284   0.894 -2.1102  1.3004  0.8827
   27SOL    HW2   81   1.220   1.375   0.773  0.0069 -0.8311 -0.0621
   28SOL     OW   82   2.077   2.582   1.273 -0.8465  0.2990  0.1337
   28SOL    HW1   83   2.154   2.589   1.207  0.7848  1.5702  1.2944
   28SOL    HW2   84   1.984   2.576   1.229  0.2304  0.0778  0.4656
   29SOL     OW   85   2.326   3.007   2.515 -0.1454 -0.2701 -0.2045
   29SOL    HW1   86   2.413   2.989   2.564  0.4201  1.9573 -2.3455
   29SOL    HW2   87   2.250   2.965   2.568 -2.6445 -0.4610 -2.0171
   30SOL     OW   88   0.117   2.976   2.007  0.0100  0.0347 -0.2039
   30SOL    HW1   89   0.020   2.947   2.023 -0.0921 -0.0214  0.0446
   30SOL    HW2   90   0.133   3.055   2.069 -0.5844  0.8919 -1.4655
   31SOL     OW   91   3.199   1.935   2.536 -0.9502 -0.4987  0.2132
   31SOL    HW1   92   3.265   1.981   2.600  1.0362 -2.0962 -0.3837
   31SOL    HW2   93   3.242   1.899   2.452 -3.7059  1.0609 -0.1212
   32SOL     OW   94   1.102   2.658   2.413 -0.4337 -0.6096 -0.1274
   32SOL    HW1   95   1.025   2.647   2.480  0.2471  1.4012  2.5614
   32SOL    HW2   96   1.190   2.629   2.454  0.4495  0.3199 -0.0209
   33SOL     OW   97   0.020   0.563   0.034 -0.3860 -0.0475 -0.8847
   33SOL    HW1   98   0.038   0.659   0.003  0.3117  3.3068  2.0984
   33SOL    HW2   99   0.099   0.505   0.006  0.3388  1.5558 -0.7135
   34SOL     OW  100   2.962   0.171   0.093 -0.6217  0.5973  0.0391
   34SOL    HW1  101   3.032   0.111   0.136  1.3274  0.6105 -1.6134
   34SOL    HW2  102   2.884   0.118   0.052 -0.1540 -0.8968  0.9793
   35SOL     OW  103   3.089   2.950   1.783  0.3894 -0.1134  0.3888
   35SOL    HW1  104   3.123   2.920   1.874 -0.7658 -0.7057 -3.7095
   35SOL    HW2  105   3.134   3.039   1.760 -2.2304 -0.3741 -0.8678
   36SOL     OW  106   2.469   3.303   2.895 -0.3705  0.3261 -0.0475
   36SOL    HW1  107   2.383   3.250   2.913  1.4636  0.9834 -0.4641
   36SOL    HW2  108   2.542   3.233   2.882  0.1463  2.5096  2.3399
   37SOL     OW  109   1.934   2.761   0.096  0.1765 -0.2409 -0.3169
   37SOL    HW1  110   1.918   2.749  -0.004  1.5900  1.0489 -0.0506
   37SOL    HW2  111   1.865   2.822   0.141 -0.6277  2.4008  0.0946
   38SOL     OW  112   0.506   0.178   0.751 -0.2054  0.5128 -0.2138
   38SOL    HW1  113   0.467   0.263   0.709  0.4196  2.6698  0.3702
   38SOL    HW2  114   0.560   0.130   0.679  1.6307 -0.2391  1.2528
   39SOL     OW  115   1.195   1.970   2.329 -0.3025  0.2863 -0.1676
   39SOL    HW1  116   1.116   1.977   2.393 -1.3307  3.1885 -1.4763
   39SOL    HW2  117   1.238   2.059   2.309 -1.7204 -0.3233  2.3855
   40SOL     OW  118   3.327   1.038   0.212  0.2586  0.1013 -0.0257
   40SOL    HW1  119   3.237   1.070   0.248 -1.5479  0.4782 -1.1863
   40SOL    HW2  120   3.367   1.109   0.150 -0.9048 -0.4420 -2.8624
   41SOL     OW  121   1.768   0.041   2.296  0.2109  0.2365  0.3693
   41SOL    HW1  122   1.684   0.094   2.325  0.3707  1.4491  0.4230
   41SOL    HW2  123   1.746  -0.016   2.216  3.7485 -1.7690 -2.3582
   42SOL     OW  124   2.649   0.136   1.181  0.4677  0.4252  0.7604
   42SOL    HW1  125   2.743   0.137   1.142  2.1268 -1.0545 -0.0896
   42SOL    HW2  126   2.635   0.050   1.234 -1.1872 -0.2575  2.5817
   43SOL     OW  127   1.672   0.260   1.282  0.3074  0.8518  0.2581
   43SOL    HW1  128   1.721   0.232   1.368  0.9971  0.6652 -1.6314
   43SOL    HW2  129   1.688   0.190   1.209 -0.5767 -1.5445 -1.4551
   44SOL     OW  130   0.323   0.957   3.273 -0.0411  0.1833 -0.8719
   44SOL    HW1  131   0.409   0.904   3.262 -1.2474 -1.3303  3.0961
   44SOL    HW2  132   0.326   1.022   3.352 -1.0477 -0.0494  1.5809
   45SOL     OW  133   0.686   1.641   1.857  0.2883  0.4087  0.1718
   45SOL    HW1  134   0.730   1.634   1.766  0.4067  2.7114 -0.8450
   45SOL    HW2  135   0.685   1.551   1.906 -1.1019 -0.5423 -0.0257
   46SOL     OW  136   2.424   2.445   1.854 -0.0213 -0.4646  0.5382
   46SOL    HW1  137   2.379   2.355   1.876 -1.3027 -2.7697  1.0663
   46SOL    HW2  138   2.524   2.450   1.873 -1.2045  2.8356  0.7469
   47SOL     OW  139   0.390   1.971   1.544  0.4099  0.1498 -0.1183
   47SOL    HW1  140   0.399   1.998   1.446 -0.6210 -1.2059  1.0970
   47SOL    HW2  141   0.347   2.044   1.601  2.4337 -0.0786 -0.4817
   48SOL     OW  142   1.186   3.003   2.896  0.1593 -0.1346  0.1425
   48SOL    HW1  143   1.159   2.921   2.840  0.1005 -1.5783  1.2466
   48SOL    HW2  144   1.102   3.048   2.932  0.2200 -0.7214  0.1526
   49SOL     OW  145   2.947   1.788   2.037 -0.9097  0.4199  0.4536
   49SOL    HW1  146   2.908   1.840   1.958 -1.1901  1.1809 -1.0740
   49SOL    HW2  147   2.940   1.688   2.021 -0.4703 -1.6284  1.4215
   50SOL     OW  148   0.979   3.114   0.397  0.2554 -0.5852  0.2782
   50SOL    HW1  149   1.042   3.137   0.475  2.3842  1.7097  2.2502
   50SOL    HW2  150   0.955   3.205   0.354  1.1348 -1.7562  0.7288
   51SOL     OW  151   1.249   0.212   0.967  0.3391 -0.3132  0.1971
   51SOL    HW1  152   1.296   0.229   0.880 -1.2226  2.7973 -0.7210
   51SOL    HW2  153   1.286   0.127   1.011  2.3429  0.4800 -2.1744
   52SOL     OW  154   0.168   0.882   0.694 -0.2880 -0.2650  0.2526
   52SOL    HW1  155   0.122   0.872   0.603  0.6823 -0.4718  0.4349
   52SOL    HW2  156   0.227   0.966   0.690 -0.1593 -0.1472 -1.2381
   53SOL     OW  157   1.076   0.186   3.033  0.2032  0.1127 -0.4256
   53SOL    HW1  158   1.148   0.138   3.088  0.6561  1.5841 -2.0265
   53SOL    HW2  159   1.036   0.121   2.964  1.4124  4.2067 -2.2803
   54SOL     OW  160   2.284   0.542   2.332  0.1395  0.6394 -0.1891
   54SOL    HW1  161   2.316   0.541   2.428 -1.2405 -2.7732 -2.1662
   54SOL    HW2  162   2.254   0.448   2.305 -0.7478  1.2047  2.9284
   55SOL     OW  163   2.736   0.020   0.398 -0.1572  0.4833 -0.4188
   55SOL    HW1  164   2.811  -0.014   0.460 -0.1393 -0.3981 -1.5019
   55SOL    HW2  165   2.768   0.013   0.302  0.2915 -1.4382 -2.6727
   56SOL     OW  166   0.872   0.400   2.391  0.6189  0.0746 -0.0077
   56SOL    HW1  167   0.796   0.391   2.325 -1.5166 -1.3627  0.9088
   56SOL    HW2  168   0.918   0.309   2.399 -1.0633  0.7806 -0.7975
   57SOL     OW  169   1.873   1.068   2.486 -0.6203 -0.4492 -0.0208
   57SOL    HW1  170   1.838   1.164   2.492  3.0850  0.6848  0.1502
   57SOL    HW2  171   1.926   1.058   2.399  0.4067  2.1511  0.4711
   58SOL     OW  172   0.251   0.951   2.114  0.3981 -0.5806  0.0746
   58SOL    HW1  173   0.294   1.033   2.155  2.9009  0.4294 -0.2228
   58SOL    HW2  174   0.234   0.886   2.192 -1.0062  2.1959  0.0534
   59SOL     OW  175   0.940   2.918   2.052  0.2413 -0.2665 -0.0968
   59SOL    HW1  176   0.844   2.909   2.083  2.4393 -0.4050  0.4050
   59SOL    HW2  177   0.997   2.912   2.137 -0.6741  1.1780  0.9476
   60SOL     OW  178   2.344   2.824   0.339  0.1043 -0.1161  0.6539
   60SOL    HW1  179   2.264   2.845   0.399  0.5066 -1.9654 -1.9861
   60SOL    HW2  180   2.349   2.724   0.311 -0.6200 -1.0983  1.1083
   61SOL     OW  181   1.564   2.850   0.398  0.1723  0.3228  0.0516
   61SOL    HW1  182   1.474   2.882   0.434 -0.6699  1.0729  1.0465
   61SOL    HW2  183   1.582   2.752   0.423  0.4268  1.7860 -0.8444
   62SOL     OW  184   2.390   2.805   3.212 -0.4778 -0.1594  0.7917
   62SOL    HW1  185   2.415   2.707   3.231  0.0581 -0.1409  1.2211
   62SOL    HW2  186   2.321   2.836   3.282 -1.7026  1.4320  0.7738
   63SOL     OW  187   2.837   1.006   0.664 -0.2160 -0.0955  0.3073
   63SOL    HW1  188   2.811   0.982   0.568  1.3526 -0.1990  1.9928
   63SOL    HW2  189   2.937   0.990   0.679 -2.2545 -1.3740 -0.6366
   64SOL     OW  190   1.722   1.104   0.082  0.2445 -0.0919  0.0242
   64SOL    HW1  191   1.729   1.201   0.112  0.8410  0.2536 -0.0288
   64SOL    HW2  192   1.623   1.077   0.081 -0.3036  2.0922  0.8606
   65SOL     OW  193   0.471   2.644   1.843  0.3135  0.3945 -0.0869
   65SOL    HW1  194   0.451   2.705   1.761  1.1567 -1.9939  1.1433
   65SOL    HW2  195   0.417   2.684   1.920 -1.3462 -1.9596 -0.5395
   66SOL     OW  196   1.087   1.388   1.398 -0.1435 -0.9709 -0.1160
   66SOL    HW1  197   1.117   1.290   1.391  1.5217 -2.4300  1.3996
   66SOL    HW2  198   1.097   1.434   1.307  2.7223  0.5189  0.7312
   67SOL     OW  199   2.700   2.026   2.110  0.4061 -1.1632  0.0455
   67SOL    HW1  200   2.754   2.011   2.025  1.8380 -1.2778 -1.7195
   67SOL    HW2  201   2.709   1.950   2.178  0.3181 -1.3449  1.1430
   68SOL     OW  202   1.297   1.852   1.894  0.1077 -0.0724  0.2912
   68SOL    HW1  203   1.294   1.782   1.819  1.6013 -0.0776 -2.4119
   68SOL    HW2  204   1.235   1.828   1.971 -0.7612 -0.3441  0.0023
   69SOL     OW  205   2.895   0.440   0.082  0.0032  0.5566  0.1912
   69SOL    HW1  206   2.806   0.446   0.034  1.9954 -1.9453 -1.2966
   69SOL    HW2  207   2.922   0.341   0.097  1.5244  0.9834 -0.8804
   70SOL     OW  208   2.360   1.245   2.436 -0.5583  0.5179  0.5668
   70SOL    HW1  209   2.441   1.182   2.439 -1.0328 -0.5362  0.9170
   70SOL    HW2  210   2.305   1.228   2.521 -1.7017 -0.9779  0.4166
   71SOL     OW  211   1.132   2.266   0.735 -0.5840 -0.2997 -0.8229
   71SOL    HW1  212   1.198   2.229   0.668 -1.4229 -4.2107 -0.1150
   71SOL    HW2  213   1.181   2.337   0.791 -0.2129  0.0051 -0.5146
   72SOL     OW  214   2.435   1.884   0.675  0.1063 -0.9341  0.2223
   72SOL    HW1  215   2.493   1.969   0.680 -2.1966  0.7043  2.4592
   72SOL    HW2  216   2.377   1.872   0.757  1.2327  0.9623  1.6138
   73SOL     OW  217   1.154   0.979   0.575 -0.3403  0.7430 -0.1286
   73SOL    HW1  218   1.083   1.035   0.623 -0.4294  0.2749 -0.3667
   73SOL    HW2  219   1.111   0.908   0.517  0.2171 -0.0410 -0.0064
   74SOL     OW  220   2.866   2.305   2.366 -0.1775  0.2137  0.4131
   74SOL    HW1  221   2.885   2.206   2.388  1.5921  0.4955  0.5277
   74SOL    HW2  222   2.883   2.331   2.269  2.0156 -0.5711  3.0484
   75SOL     OW  223   1.825   1.775   2.121  0.3628  0.1690  0.0319
   75SOL    HW1  224   1.727   1.748   2.107 -1.2444 -3.2023 -1.1685
   75SOL    HW2  225   1.861   1.725   2.203 -1.7559  1.0850  0.9057
   76SOL     OW  226   1.342   1.691   1.209 -0.5167 -0.5846  0.3139
   76SOL    HW1  227   1.266   1.649   1.152 -1.0391 -2.0165 -1.4426
   76SOL    HW2  228   1.394   1.757   1.150 -0.5947  2.5570 -2.8125
   77SOL     OW  229   2.537   0.972   1.852  0.2027 -0.1177 -0.0088
   77SOL    HW1  230   2.458   0.997   1.910 -1.2679 -2.7755 -2.7205
   77SOL    HW2  231   2.557   0.871   1.853  0.2299  0.3563 -2.8898
   78SOL     OW  232   1.788   0.678   0.332  0.3215  0.2808  0.5262
   78SOL    HW1  233   1.804   0.739   0.251 -2.0116  0.4915 -0.0791
   78SOL    HW2  234   1.698   0.701   0.376  0.3567 -0.2748 -1.2218
   79SOL     OW  235   1.116   1.787   2.115 -0.1271  0.2011 -0.6132
   79SOL    HW1  236   1.139   1.850   2.193 -0.8691 -0.9468 -0.6337
   79SOL    HW2  237   1.020   1.799   2.082  0.8704  0.7125  1.3001
   80SOL     OW  238   1.064   0.402   1.546  0.1597 -0.2154  0.2285
   80SOL    HW1  239   1.093   0.500   1.537 -0.0086 -0.1828  1.0546
   80SOL    HW2  240   1.073   0.374   1.642  0.7265  1.6109 -1.1606
   81SOL     OW  241   0.318   2.716   0.253 -0.6928  0.3430  0.1567
   81SOL    HW1  242   0.391   2.726   0.182 -2.3960  0.5098 -2.0586
   81SOL    HW2  243   0.366   2.696   0.342  0.6825 -2.3580 -0.7488
   82SOL     OW  244   1.147   0.274   1.848  0.1019  0.7454  0.5913
   82SOL    HW1  245   1.151   0.298   1.948 -0.1146  1.0205 -1.1274
   82SOL    HW2  246   1.240   0.283   1.808  1.0637 -0.2023 -3.0899
   83SOL     OW  247   0.465   2.431   1.077 -0.5504 -0.0824 -0.1637
   83SOL    HW1  248   0.391   2.500   1.060  0.0722 -0.0401 -1.3167
   83SOL    HW2  249   0.423   2.338   1.085  1.6620 -0.6821  2.6820
   84SOL     OW  250   2.705   1.339   1.029 -0.2412 -0.5937  0.5670
   84SOL    HW1  251   2.717   1.260   1.093 -1.1697 -1.1488 -1.4932
   84SOL    HW2  252   2.761   1.322   0.945 -1.7126 -2.1509  1.6740
   85SOL     OW  253   2.429   2.064   1.231 -0.0957  0.2063 -0.0206
   85SOL    HW1  254   2.369   2.024   1.304  1.6237  1.2341  2.0642
   85SOL    HW2  255   2.498   1.992   1.209 -2.0522 -0.9176  0.1361
   86SOL     OW  256   1.321   2.294   2.349 -0.2723  0.0995  0.0116
   86SOL    HW1  257   1.252   2.348   2.297 -0.0265  1.3505 -2.6831
   86SOL    HW2  258   1.412   2.285   2.303 -1.6375  1.2820 -0.2114
   87SOL     OW  259   2.452   1.399   0.931 -0.1101  0.5133  0.0777
   87SOL    HW1  260   2.461   1.467   0.853  2.4217  0.1870 -1.2582
   87SOL    HW2  261   2.543   1.373   0.968  0.8426  2.3985  1.5973
   88SOL     OW  262   0.506   3.141   1.058  0.8414 -0.2752  0.4705
   88SOL    HW1  263   0.448   3.207   1.006  0.6723  0.2848 -0.2727
   88SOL    HW2  264   0.549   3.184   1.140 -1.9373  0.7159 -0.5700
   89SOL     OW  265   0.596   1.243   1.607  0.4416 -0.3932  0.0565
   89SOL    HW1  266   0.697   1.240   1.625 -0.4349  0.3475 -0.2914
   89SOL    HW2  267   0.570   1.164   1.547  2.9870  0.3752  0.7370
   90SOL     OW  268   2.906   1.939   0.395  0.1455 -0.2024 -0.3379
   90SOL    HW1  269   2.883   2.032   0.432  2.2975 -1.5599 -0.0549
   90SOL    HW2  270   3.008   1.929   0.386 -2.1544  0.3352 -1.4056
   91SOL     OW  271   0.820   2.081   1.032  0.0383 -0.4220 -0.2388
   91SOL    HW1  272   0.785   2.176   1.053 -2.2613 -2.2915 -3.2791
   91SOL    HW2  273   0.784   2.017   1.103 -0.1922 -1.3104 -0.3584
   92SOL     OW  274   2.285   3.230   2.080  0.5243  0.0297  0.0136
   92SOL    HW1  275   2.378   3.261   2.110  1.3977 -1.5580 -1.0957
   92SOL    HW2  276   2.226   3.194   2.156  0.2810 -0.8889 -3.1646
   93SOL     OW  277   0.664   2.094   3.017 -0.2750  0.1478 -0.2370
   93SOL    HW1  278   0.686   2.087   3.117  1.8932  2.4808  1.6090
   93SOL    HW2  279   0.569   2.062   3.000 -1.1869 -1.9999  1.3449
   94SOL     OW  280   2.554   3.292   2.200 -0.4938 -0.0079  0.5676
   94SOL    HW1  281   2.554   3.366   2.271  1.4049  0.2127 -0.3407
   94SOL    HW2  282   2.608   3.321   2.118 -1.2103  0.1625 -0.9200
   95SOL     OW  283   2.070   0.027   1.920  0.7635 -0.2617 -0.1584
   95SOL    HW1  284   2.089   0.127   1.904  3.0020 -1.1375 -0.8517
   95SOL    HW2  285   2.141  -0.023   1.974 -0.7124  1.5078 -3.0798
   96SOL     OW  286   0.750   0.826   2.320 -0.0477  0.1762 -0.0216
   96SOL    HW1  287   0.697   0.843   2.406  1.3680  1.2092 -0.8770
   96SOL    HW2  288   0.765   0.914   2.270 -2.9198  2.0772 -1.3017
   97SOL     OW  289   2.164   3.160   1.611  0.3854 -0.3132  0.0976
   97SOL    HW1  290   2.077   3.203   1.643  1.7828 -1.2475  0.3278
   97SOL    HW2  291   2.145   3.074   1.558 -1.3889 -1.5859  0.0209
   98SOL     OW  292   1.836   2.372   1.710  0.3075  0.1908  0.0001
   98SOL    HW1  293   1.867   2.423   1.794  1.2029  0.5833  2.9451
   98SOL    HW2  294   1.814   2.276   1.733  1.6683  0.2996 -1.4928
   99SOL     OW  295   0.401   0.768   1.164  0.1440  0.2727 -0.0632
   99SOL    HW1  296   0.344   0.852   1.152 -1.3493  0.9181 -2.7619
   99SOL    HW2  297   0.454   0.755   1.078  0.3919 -1.4386  4.8888
  100SOL     OW  298   3.215   2.168   2.118  0.4406 -0.3365 -0.3052
  100SOL    HW1  299   3.169   2.078   2.130 -0.3635  1.6476 -1.1218
  100SOL    HW2  300   3.292   2.174   2.185 -3.1917  1.4223  0.9773
  101SOL     OW  301   1.183   0.392   0.033 -0.3295 -0.6234 -0.1514
  101SOL    HW1  302   1.273   0.345   0.045  0.3044 -2.4696 -0.9231
  101SOL    HW2  303   1.166   0.424  -0.062  2.1413  0.2180  0.2307
  102SOL     OW  304   3.048   0.125   1.340 -0.4353  0.8924  0.0883
  102SOL    HW1  305   3.130   0.186   1.339  0.7935 -4.3686  0.9791
  102SOL    HW2  306   2.979   0.163   1.407 -2.2311 -0.2801 -1.5211
  103SOL     OW  307   0.169   3.182   2.727 -0.0695 -0.1832  0.2892
  103SOL    HW1  308   0.186   3.273   2.682 -0.7569  0.2509  0.5658
  103SOL    HW2  309   0.069   3.172   2.749 -0.6285  0.9152  1.7840
  104SOL     OW  310   0.164   2.617   1.316  0.0748 -0.2596 -0.5491
  104SOL    HW1  311   0.088   2.672   1.354  1.1958  0.5589  0.4369
  104SOL    HW2  312   0.254   2.658   1.342 -2.7217  0.2403 -1.4685
  105SOL     OW  313   0.540   1.643   2.209  0.1843  0.6040 -0.6819
  105SOL    HW1  314   0.483   1.563   2.181 -3.4009  0.5421  3.6617
  105SOL    HW2  315   0.489   1.729   2.185  0.0622 -0.1441 -1.8206
  106SOL     OW  316   2.852   2.973   0.590  0.1701 -0.2510  0.5485
  106SOL    HW1  317   2.837   2.954   0.689 -2.0045  1.8403 -0.7199
  106SOL    HW2  318   2.874   3.071   0.579 -1.2278  0.6535  0.1930
  107SOL     OW  319   0.732   1.230   1.014  0.0697  0.5183 -0.4097
  107SOL    HW1  320   0.690   1.254   1.105  1.3481  1.6564  2.2754
  107SOL    HW2  321   0.820   1.182   1.030 -0.8133  0.3330  0.8368
  108SOL     OW  322   3.171   1.223   2.339 -0.2088  0.2738  0.3787
  108SOL    HW1  323   3.127   1.316   2.338  3.3932  0.0530 -0.3672
  108SOL    HW2  324   3.272   1.225   2.347 -0.1453  3.7042  1.3882
  109SOL     OW  325   2.210   2.856   0.083  0.5551 -0.2358  0.6737
  109SOL    HW1  326   2.112   2.827   0.084  1.5575  0.1598 -0.4479
  109SOL    HW2  327   2.254   2.847   0.175  0.4915 -0.9147 -2.0598
  110SOL     OW  328   0.267   2.351   0.058  0.5069  0.3237 -0.0602
  110SOL    HW1  329   0.217   2.275   0.012  0.5619 -0.6321 -1.5184
  110SOL    HW2  330   0.203   2.416   0.106 -0.8694 -1.6165 -1.6162
  111SOL     OW  331   2.906   1.059   2.927 -0.1553 -0.4198  0.0683
  111SOL    HW1  332   2.885   1.083   2.830  0.4845 -0.5179  1.4528
  111SOL    HW2  333   2.814   1.054   2.974  1.7664 -0.3338  1.6812
  112SOL     OW  334   2.413   2.826   1.882  0.1709 -0.0607  0.7339
  112SOL    HW1  335   2.398   2.925   1.859 -0.7720 -1.2004 -0.9584
  112SOL    HW2  336   2.350   2.763   1.835  0.5816 -3.2123 -1.3991
  113SOL     OW  337   2.386   2.052   2.869 -0.2653  0.0784  0.1400
  113SOL    HW1  338   2.397   1.954   2.897 -0.3645 -1.3169 -0.4744
  113SOL    HW2  339   2.430   2.061   2.777  1.5094 -1.6193  1.4646
  114SOL     OW  340   0.669   3.293   0.599 -0.0290  0.0041  0.1234
  114SOL    HW1  341   0.657   3.204   0.645 -0.7243  2.1714 -0.0853
  114SOL    HW2  342   0.754   3.337   0.636  1.3174 -0.7113  2.4237
  115SOL     OW  343   0.112   1.842   3.135  0.1969 -0.3551  0.5121
  115SOL    HW1  344   0.089   1.933   3.174  1.1961  2.3931  1.2770
  115SOL    HW2  345   0.210   1.820   3.154  1.1798 -0.9273 -0.3557
  116SOL     OW  346   3.102   1.441   1.801  0.1723  0.3358  0.0875
  116SOL    HW1  347   3.140   1.347   1.789 -0.4753  0.2156 -0.0064
  116SOL    HW2  348   3.167   1.498   1.857  3.2046  0.1073  1.7663
  117SOL     OW  349   2.264   0.213   1.604  0.1541 -0.5608 -0.7393
  117SOL    HW1  350   2.305   0.129   1.564 -2.6833  0.9597 -0.3704
  117SOL    HW2  351   2.178   0.243   1.556 -1.3129  1.7751 -0.7314
  118SOL     OW  352   2.990   2.376   2.611  0.1073  0.3660  0.4090
  118SOL    HW1  353   2.940   2.345   2.527  0.2951 -0.8555 -3.0633
  118SOL    HW2  354   3.056   2.449   2.588 -0.2946 -1.1544  1.1265
  119SOL     OW  355   0.424   1.749   1.853 -0.5620 -0.6774 -0.0952
  119SOL    HW1  356   0.416   1.808   1.771  0.0603  0.0735 -0.5947
  119SOL    HW2  357   0.519   1.711   1.857  0.9939  2.1870 -1.3463
  120SOL     OW  358   0.248   1.528   1.889  0.8737 -0.0500 -0.4390
  120SOL    HW1  359   0.272   1.459   1.817 -0.0715 -0.6448 -0.6805
  120SOL    HW2  360   0.307   1.610   1.874  0.3734  0.8827 -0.6166
  121SOL     OW  361   1.684   1.043   0.829  0.3447 -0.6788  0.0643
  121SOL    HW1  362   1.607   0.986   0.794  0.3715  0.2328  1.4680
  121SOL    HW2  363   1.770   1.014   0.782  1.8380  2.4194 -2.3163
  122SOL     OW  364   2.660   2.538   2.919 -0.1152  0.4176 -0.1161
  122SOL    HW1  365   2.602   2.608   2.871  1.2927 -0.9756 -0.4042
  122SOL    HW2  366   2.599   2.460   2.940  1.5064 -0.9284 -0.0331
  123SOL     OW  367   3.258   0.458   0.507 -0.4824 -0.6512  0.2415
  123SOL    HW1  368   3.235   0.471   0.606  1.2294  2.2080  2.5415
  123SOL    HW2  369   3.237   0.364   0.473 -1.1142 -0.7329 -1.8741
  124SOL     OW  370   1.748   1.378   0.178  0.1220 -0.7640 -0.0514
  124SOL    HW1  371   1.788   1.371   0.273  1.4403 -0.6655 -0.1965
  124SOL    HW2  372   1.811   1.434   0.122  1.3740 -0.8875 -0.9886
  125SOL     OW  373   3.310   0.862   2.475  0.1985  0.5723 -0.4934
  125SOL    HW1  374   3.367   0.908   2.546 -0.6676 -0.9604 -0.0925
  125SOL    HW2  375   3.372   0.816   2.409  0.2466  0.9322 -0.5412
  126SOL     OW  376   3.004   3.056   0.200  0.3217  0.1108 -0.1592
  126SOL    HW1  377   2.991   3.016   0.106  0.6402 -0.3174 -0.5532
  126SOL    HW2  378   3.003   2.979   0.268  0.0821 -1.0445 -0.2501
  127SOL     OW  379   2.989   1.966   3.312  0.8737 -0.3034  0.2494
  127SOL    HW1  380   2.895   1.990   3.343 -0.7750  0.4069  3.1255
  127SOL    HW2  381   3.005   1.867   3.330  0.0749  3.4291  0.2041
  128SOL     OW  382   0.970   1.125   0.711  0.3758 -0.5212 -0.2740
  128SOL    HW1  383   0.873   1.144   0.685 -0.3444 -1.2033 -1.2036
  128SOL    HW2  384   0.977   1.131   0.813 -0.6295  1.4083  1.4237
  129SOL     OW  385   2.284   2.177   1.021  0.3199  0.5490  0.1992
  129SOL    HW1  386   2.335   2.140   1.103  2.3592  0.4545 -2.5045
  129SOL    HW2  387   2.227   2.256   1.048  0.2701 -0.9940 -0.4302
  130SOL     OW  388   2.047   0.964   0.226  0.2043  0.0102  0.2652
  130SOL    HW1  389   2.136   0.923   0.197 -0.9303  0.6457 -2.0558
  130SOL    HW2  390   1.967   0.918   0.180  0.9691 -0.3571  0.0695
  131SOL     OW  391   0.061   1.806   2.847 -0.1425 -0.1461  0.3679
  131SOL    HW1  392  -0.033   1.770   2.831  2.2365 -1.2373  0.3682
  131SOL    HW2  393   0.084   1.810   2.946  2.9975  1.5051  2.1856
  132SOL     OW  394   1.377   1.261   1.936 -0.2113  0.7688  0.5180
  132SOL    HW1  395   1.354   1.166   1.907 -0.2224 -0.1503  0.8330
  132SOL    HW2  396   1.294   1.320   1.924  3.0816  2.4505 -2.7348
  133SOL     OW  397   0.442   1.179   0.924 -0.2540  0.2524  0.0594
  133SOL    HW1  398   0.543   1.168   0.936  3.5544 -2.5404 -2.3257
  133SOL    HW2  399   0.411   1.267   0.968 -0.5423 -1.7002 -0.7151
  134SOL     OW  400   0.040   1.491   0.151 -0.1831  0.2408  0.4441
  134SOL    HW1  401   0.052   1.394   0.123  0.4127  0.5943  3.3752
  134SOL    HW2  402   0.008   1.546   0.071 -1.6251 -0.2590  0.5972
  135SOL     OW  403   1.824   0.852   0.107 -0.1761  0.6116 -0.2650
  135SOL    HW1  404   1.787   0.947   0.097  0.6926 -2.5514  1.4642
  135SOL    HW2  405   1.788   0.791   0.033  2.1413  1.8513 -1.8550
  136SOL     OW  406   2.325   2.239   1.560 -0.4828 -0.3175 -0.7737
  136SOL    HW1  407   2.349   2.218   1.657  1.4378 -0.9050  2.0705
  136SOL    HW2  408   2.256   2.315   1.554  2.3819  0.7417  0.9281
  137SOL     OW  409   2.492   2.652   0.744  1.2420 -0.0106  0.1588
  137SOL    HW1  410   2.458   2.730   0.803  0.4527  1.5211  1.0098
  137SOL    HW2  411   2.525   2.686   0.654 -2.0907  2.1584 -1.2404
  138SOL     OW  412   2.589   0.328   1.927 -0.3912 -0.4065 -0.0085
  138SOL    HW1  413   2.618   0.231   1.917 -0.0115  0.5229  0.6060
  138SOL    HW2  414   2.539   0.358   1.842  0.6529  1.4083 -0.7571
  139SOL     OW  415   2.985   2.856   2.916 -0.0167 -0.0025  0.6714
  139SOL    HW1  416   2.915   2.800   2.966 -2.6781 -0.9116  3.6691
  139SOL    HW2  417   2.964   2.849   2.816 -0.7147 -1.4981  1.2617
  140SOL     OW  418   1.598   2.042   2.834 -0.0990  0.1817  0.3120
  140SOL    HW1  419   1.596   2.141   2.807 -1.3847  3.6664  1.4444
  140SOL    HW2  420   1.657   1.987   2.770 -0.9401  1.1657 -1.2539
  141SOL     OW  421   1.570   1.533   2.710  0.0069 -0.7740  0.0111
  141SOL    HW1  422   1.536   1.445   2.670 -3.1308  2.0652  1.4411
  141SOL    HW2  423   1.620   1.510   2.795  0.8917  2.6004  1.6327
  142SOL     OW  424   2.236   2.570   2.212  0.1915 -0.6005  0.1384
  142SOL    HW1  425   2.238   2.476   2.171  1.6237 -1.3897  0.4280
  142SOL    HW2  426   2.321   2.624   2.195  2.3239  1.6981 -0.6527
  143SOL     OW  427   1.111   2.741   0.532  0.4215 -0.5859  0.2657
  143SOL    HW1  428   1.158   2.720   0.620  0.2374 -0.2246  2.9679
  143SOL    HW2  429   1.065   2.661   0.487 -1.0047 -2.2684 -2.6758
  144SOL     OW  430   0.893   2.898   0.589 -0.5066 -0.4749 -0.5795
  144SOL    HW1  431   0.886   2.975   0.524 -0.8770 -2.3065  2.5939
  144SOL    HW2  432   0.976   2.843   0.566  1.9529 -3.1506 -1.7714
  145SOL     OW  433   1.956   2.414   3.310 -0.5333  0.6157 -0.3499
  145SOL    HW1  434   1.857   2.396   3.286  1.1039  2.7539  2.7267
  145SOL    HW2  435   1.980   2.512   3.299 -0.0074 -2.4488  1.4132
  146SOL     OW  436   1.904   2.563   0.321  0.2002 -0.2152  0.5200
  146SOL    HW1  437   1.920   2.631   0.246 -0.1607  0.5611  1.0739
  146SOL    HW2  438   1.927   2.466   0.296  0.1067  1.7132  2.4284
  147SOL     OW  439   0.396   1.865   2.116 -0.3036 -0.6860 -0.7455
  147SOL    HW1  440   0.390   1.830   2.021 -0.9860  0.8213  1.7776
  147SOL    HW2  441   0.448   1.953   2.115  0.6778  2.2209  0.0793
  148SOL     OW  442   1.315   0.042   0.250 -0.2515  0.0985 -0.3075
  148SOL    HW1  443   1.364   0.118   0.205  2.5407 -1.5289  2.2754
  148SOL    HW2  444   1.233   0.011   0.196 -0.5370 -0.2585 -0.5867
  149SOL     OW  445   0.492   2.259   0.208 -0.1789  0.1850  0.1293
  149SOL    HW1  446   0.577   2.293   0.162 -0.2468  0.4850 -2.0620
  149SOL    HW2  447   0.410   2.285   0.153 -0.0174 -0.8645 -1.2835
  150SOL     OW  448   0.425   2.753   1.357  0.2738 -0.1769 -0.1235
  150SOL    HW1  449   0.527   2.739   1.361  0.2830 -0.5540  0.9750
  150SOL    HW2  450   0.408   2.813   1.275 -2.8797 -1.6058 -1.8989
  151SOL     OW  451   0.385   1.792   3.176 -0.5253 -0.0667 -0.5798
  151SOL    HW1  452   0.430   1.717   3.124  2.5380  0.6707 -0.7620
  151SOL    HW2  453   0.397   1.776   3.276  0.5461 -0.6524  0.2454
  152SOL     OW  454   3.245   2.086   0.994  0.4850 -0.1100 -0.0752
  152SOL    HW1  455   3.280   2.019   0.925 -1.0147 -0.4405  3.2962
  152SOL    HW2  456   3.145   2.074   1.011  0.1790 -2.0780  1.6249
  153SOL     OW  457   1.691   2.510   0.726 -0.0939  0.6192 -0.6250
  153SOL    HW1  458   1.779   2.462   0.709  0.7600 -1.8855  2.2335
  153SOL    HW2  459   1.621   2.440   0.755 -0.7591  2.4900 -1.9759
  154SOL     OW  460   0.915   3.275   1.575  0.0531  0.1231  0.4602
  154SOL    HW1  461   0.942   3.176   1.574  1.3564 -1.1234  1.2380
  154SOL    HW2  462   0.813   3.283   1.580  1.9777 -1.9852  1.3783
  155SOL     OW  463   2.853   2.200   0.494  0.4469 -0.3789  0.3783
  155SOL    HW1  464   2.928   2.255   0.537 -0.2611 -0.9322  1.2163
  155SOL    HW2  465   2.801   2.262   0.430 -0.3852  0.3035 -1.0127
  156SOL     OW  466   2.702   2.166   0.112 -0.0703 -0.3379 -0.5481
  156SOL    HW1  467   2.656   2.212   0.034 -2.8915 -0.2328 -1.7773
  156SOL    HW2  468   2.709   2.235   0.188  0.9161  3.2393  0.9131
  157SOL     OW  469   0.569   0.165   2.090  0.4311 -0.7280 -0.4718
  157SOL    HW1  470   0.602   0.259   2.118 -0.5479  0.0204 -0.7774
  157SOL    HW2  471   0.535   0.119   2.174 -2.6740  2.9953 -1.4375
  158SOL     OW  472   1.074   0.661   1.228 -0.1625 -0.1172 -0.1519
  158SOL    HW1  473   1.133   0.595   1.178 -4.0163 -2.9029 -1.4518
  158SOL    HW2  474   1.112   0.663   1.323 -0.8251  1.6710  2.1519
  159SOL     OW  475   2.079   1.098   3.170  0.4509  0.0235 -0.4843
  159SOL    HW1  476   2.034   1.034   3.103 -0.8254  1.2751 -0.0355
  159SOL    HW2  477   2.010   1.118   3.242  0.1329  3.8332 -2.0893
  160SOL     OW  478   1.419   1.893   0.568 -0.6795 -0.1127  0.1016
  160SOL    HW1  479   1.486   1.822   0.539  0.0454 -0.5999 -1.5907
  160SOL    HW2  480   1.325   1.864   0.538  0.2966 -2.4348 -0.1741
  161SOL     OW  481   3.004   1.904   2.979  0.0811  0.6147 -0.2010
  161SOL    HW1  482   3.011   1.983   2.913 -2.4934 -1.8212  0.0807
  161SOL    HW2  483   3.007   1.939   3.074 -2.2586  0.7035  2.3840
  162SOL     OW  484   3.293   2.432   1.218  0.1938 -0.3387 -0.1094
  162SOL    HW1  485   3.366   2.491   1.260 -0.8730 -0.9439  0.9416
  162SOL    HW2  486   3.329   2.336   1.219  0.8626 -1.2082 -0.9685
  163SOL     OW  487   0.630   0.900   2.833 -0.3842  0.1276  0.2734
  163SOL    HW1  488   0.716   0.948   2.859 -0.5034 -0.6797  1.2312
  163SOL    HW2  489   0.619   0.819   2.894  1.1621 -0.5349 -3.3863
  164SOL     OW  490   0.428   2.838   2.950  0.4259 -0.3052  0.0315
  164SOL    HW1  491   0.367   2.807   3.025 -2.4657 -3.2514  2.1084
  164SOL    HW2  492   0.407   2.935   2.924 -0.6076 -2.8387  1.4396
  165SOL     OW  493   2.546   1.094   1.594 -0.3897 -0.0088 -0.7204
  165SOL    HW1  494   2.550   1.048   1.686 -3.3783  0.9851 -2.7184
  165SOL    HW2  495   2.596   1.183   1.596  2.5876  1.9276  0.7216
  166SOL     OW  496   2.262   1.988   1.451 -0.6414  0.3870 -0.3516
  166SOL    HW1  497   2.285   2.078   1.494  0.2881 -0.6129 -0.0958
  166SOL    HW2  498   2.308   1.913   1.502  2.1901 -0.3687  1.4821
  167SOL     OW  499   0.068   0.838   3.305 -0.4386  0.5871  0.3375
  167SOL    HW1  500   0.025   0.892   3.379 -1.0992  0.2509 -0.2211
  167SOL    HW2  501   0.163   0.875   3.292  0.4080  1.4105  0.2794
  168SOL     OW  502   2.375   0.455   2.867  0.0707 -0.3380  0.3123
  168SOL    HW1  503   2.287   0.457   2.814 -0.8652  0.8693 -1.1546
  168SOL    HW2  504   2.386   0.367   2.918 -4.9197 -0.5930  0.3215
  169SOL     OW  505   0.587   1.328   0.032 -0.4140  0.5131 -0.0277
  169SOL    HW1  506   0.568   1.388   0.113 -0.4141 -0.2016 -0.5499
  169SOL    HW2  507   0.525   1.346  -0.047 -1.5636  0.8441 -1.1966
  170SOL     OW  508   1.320   0.990   1.602  0.1518 -0.3884 -0.7527
  170SOL    HW1  509   1.350   0.905   1.554 -0.3146  1.2787  1.4661
  170SOL    HW2  510   1.393   1.062   1.599 -1.2074  1.0155 -1.5272
  171SOL     OW  511   1.744   2.921   1.115 -0.0958  0.3014 -0.0705
  171SOL    HW1  512   1.726   2.862   1.198  1.6515 -0.4152  0.7579
  171SOL    HW2  513   1.717   2.878   1.027 -0.9406  0.4572 -2.2936
  172SOL     OW  514   1.082   0.052   2.158 -0.0147 -0.8065  0.1284
  172SOL    HW1  515   1.003   0.019   2.101  0.9550 -2.8438 -1.5065
  172SOL    HW2  516   1.161  -0.012   2.145 -1.9446 -0.5801 -1.2512
  173SOL     OW  517   0.899   2.724   1.045 -0.0198 -0.6638  0.1761
  173SOL    HW1  518   0.906   2.810   0.991  0.6707  1.2827 -0.9506
  173SOL    HW2  519   0.800   2.700   1.055 -0.7387  2.1079  0.0381
  174SOL     OW  520   2.291   0.148   0.279 -0.1434 -0.3283 -0.5642
  174SOL    HW1  521   2.197   0.176   0.309  1.6536  0.5269  1.4510
  174SOL    HW2  522   2.289   0.053   0.242 -0.8417  0.2499  0.9473
  175SOL     OW  523   1.040   1.482   0.754 -0.4599  0.2778  0.5229
  175SOL    HW1  524   1.055   1.584   0.756 -0.0239  0.5701 -1.5153
  175SOL    HW2  525   0.947   1.462   0.790  1.2376  0.6634  1.8010
  176SOL     OW  526   1.064   1.976   1.089 -0.4725  0.3506 -0.5838
  176SOL    HW1  527   1.141   2.040   1.113 -0.3197  0.3796  0.3663
  176SOL    HW2  528   0.980   2.025   1.057  1.1871 -1.7758 -0.1093
  177SOL     OW  529   1.391   1.017   1.215 -0.0691 -0.1341 -0.6311
  177SOL    HW1  530   1.403   0.916   1.198 -4.5344 -0.2277 -0.5220
  177SOL    HW2  531   1.476   1.054   1.259  1.2507 -0.9056  0.0824
  178SOL     OW  532   2.499   1.591   0.722  0.0891  0.0964 -0.2538
  178SOL    HW1  533   2.484   1.689   0.700 -2.4748  0.9172  2.6364
  178SOL    HW2  534   2.492   1.533   0.638  0.8039 -1.4616  0.8272
  179SOL     OW  535   1.063   3.043   3.255  0.0218 -0.0851 -0.4894
  179SOL    HW1  536   1.024   2.999   3.338  0.0103  1.4638 -1.3998
  179SOL    HW2  537   1.148   2.998   3.222  0.2357  0.3352 -1.4993
  180SOL     OW  538   1.884   1.285   1.780 -0.2015  0.4380  0.2216
  180SOL    HW1  539   1.829   1.367   1.751 -1.8354 -1.1194  0.6119
  180SOL    HW2  540   1.980   1.314   1.796 -0.2458  2.6340  2.0614
  181SOL     OW  541   0.864   1.038   1.706 -0.3361 -0.1514 -0.3905
  181SOL    HW1  542   0.864   0.936   1.712 -1.2926  0.1610  2.3606
  181SOL    HW2  543   0.922   1.078   1.781 -2.4227 -0.7929 -2.6058
  182SOL     OW  544   3.068   1.097   0.004  0.4912 -0.1633 -0.0752
  182SOL    HW1  545   3.131   1.113  -0.074 -0.8647  2.0652  3.0140
  182SOL    HW2  546   3.022   1.181   0.040 -1.0319 -1.2079  0.3744
  183SOL     OW  547   2.052   0.076   2.351 -0.0200 -0.4648 -0.1303
  183SOL    HW1  548   2.091  -0.017   2.341 -1.9980 -1.2300  2.8114
  183SOL    HW2  549   1.951   0.075   2.335 -0.2349 -0.5948 -1.0680
  184SOL     OW  550   1.071   0.846   0.999 -0.4083  0.6453  0.2613
  184SOL    HW1  551   1.023   0.787   0.931  2.2365  1.3515  3.4555
  184SOL    HW2  552   1.075   0.797   1.088 -0.5538  1.4734 -2.4848
  185SOL     OW  553   2.215   1.222   0.558  0.1020 -1.0910 -0.0325
  185SOL    HW1  554   2.256   1.202   0.650  2.5317  1.8427  0.3149
  185SOL    HW2  555   2.167   1.313   0.561 -0.6078  0.2221  1.1364
  186SOL     OW  556   0.317   2.399   0.471  0.1435  0.3071  0.5764
  186SOL    HW1  557   0.332   2.341   0.554  1.5981  0.5759 -0.1922
  186SOL    HW2  558   0.359   2.357   0.387 -1.2997 -0.3135  4.1896
  187SOL     OW  559   1.848   1.775   2.913 -0.5882  0.8099  0.2344
  187SOL    HW1  560   1.837   1.828   2.827  0.2478 -0.5732 -0.0425
  187SOL    HW2  561   1.839   1.837   2.993 -2.9336 -0.9984 -1.1073
  188SOL     OW  562   1.474   3.165   1.537  0.2715 -0.8247 -0.0912
  188SOL    HW1  563   1.445   3.262   1.544  1.5941  2.4187 -0.6472
  188SOL    HW2  564   1.397   3.101   1.557  0.1795  0.0336  0.4372
  189SOL     OW  565   3.094   1.507   2.641 -0.1402  0.0956  0.0923
  189SOL    HW1  566   3.097   1.596   2.692 -1.3893  3.0410  0.4334
  189SOL    HW2  567   3.014   1.453   2.673  0.9455  1.8681 -3.3472
  190SOL     OW  568   1.105   2.905   2.287 -0.3180  0.0362 -0.3119
  190SOL    HW1  569   1.099   2.811   2.327 -1.0364 -1.9112 -1.8324
  190SOL    HW2  570   1.203   2.937   2.288 -1.4736  2.2687 -0.3941
  191SOL     OW  571   2.566   0.958   1.344  0.0312  0.2407  0.0389
  191SOL    HW1  572   2.469   0.932   1.319  1.0445 -2.8894 -5.3118
  191SOL    HW2  573   2.569   1.008   1.433  0.2934  0.7422  0.8857
  192SOL     OW  574   2.125   0.567   1.148 -0.1759 -0.5231  0.1065
  192SOL    HW1  575   2.216   0.522   1.139  1.3704  1.4856 -2.6194
  192SOL    HW2  576   2.060   0.530   1.076  3.5544 -0.9750 -3.2187
  193SOL     OW  577   0.937   0.045   0.287  0.0033 -0.0320 -0.7670
  193SOL    HW1  578   0.932   0.120   0.216  1.3052 -2.4504  0.3771
  193SOL    HW2  579   0.913   0.085   0.377 -0.0655 -2.1922 -1.5553
  194SOL     OW  580   1.828   2.539   1.081 -0.1718  0.1580 -0.3617
  194SOL    HW1  581   1.786   2.610   1.021  0.1552 -2.0109  1.1823
  194SOL    HW2  582   1.755   2.486   1.131  0.1607 -0.6732 -0.1943
  195SOL     OW  583   2.592   0.935   0.797 -0.0320 -0.4484  0.2414
  195SOL    HW1  584   2.672   0.971   0.745  0.8357  1.5964 -3.4411
  195SOL    HW2  585   2.520   1.006   0.802 -0.9700 -3.0935 -0.6081
  196SOL     OW  586   1.091   2.581   1.923  0.4230 -0.4575 -0.3854
  196SOL    HW1  587   1.109   2.544   1.829 -0.0196 -2.4099 -2.0105
  196SOL    HW2  588   0.993   2.589   1.948 -1.2967 -0.2857 -4.5142
  197SOL     OW  589   2.888   0.307   2.577 -0.1150 -0.0475 -0.3363
  197SOL    HW1  590   2.828   0.389   2.573 -1.3967 -4.7364 -1.5791
  197SOL    HW2  591   2.824   0.226   2.576 -0.6485 -1.3162 -0.0898
  198SOL     OW  592   2.341   1.644   0.308 -0.1916  0.1073  0.2604
  198SOL    HW1  593   2.419   1.664   0.246  1.4580 -1.2222 -2.0382
  198SOL    HW2  594   2.268   1.588   0.263  1.3253 -3.6971  0.0173
  199SOL     OW  595   2.570   0.692   1.883 -0.4935  0.2022  0.1125
  199SOL    HW1  596   2.547   0.660   1.978  0.5400  0.0577  2.5185
  199SOL    HW2  597   2.557   0.616   1.817  1.9492 -1.2548 -2.4907
  200SOL     OW  598   1.947   3.126   3.216  0.1834  0.0153 -0.4961
  200SOL    HW1  599   1.891   3.191   3.273  0.1139 -1.1481  0.6417
  200SOL    HW2  600   2.046   3.141   3.234  0.4719  0.2848 -2.3228
  201SOL     OW  601   2.878   0.248   1.525 -0.1448 -0.3627 -0.1870
  201SOL    HW1  602   2.795   0.206   1.566  0.6264  0.2892 -0.0805
  201SOL    HW2  603   2.850   0.341   1.493 -0.9971 -0.9651  0.8534
  202SOL     OW  604   2.938   3.252   0.577  0.1928 -0.1082 -0.6031
  202SOL    HW1  605   2.912   3.313   0.655  2.0041 -0.8258  4.0867
  202SOL    HW2  606   3.040   3.237   0.580  1.8022 -0.6290 -1.5620
  203SOL     OW  607   1.605   1.685   0.494 -0.0248  0.3063  0.4171
  203SOL    HW1  608   1.632   1.614   0.562  1.4218  1.7896 -3.1228
  203SOL    HW2  609   1.672   1.763   0.488 -0.0201 -2.2803  2.3825
  204SOL     OW  610   0.153   1.901   2.365 -0.4415 -0.2006  0.0130
  204SOL    HW1  611   0.127   1.998   2.347  1.9906  1.0279  0.3916
  204SOL    HW2  612   0.218   1.870   2.292 -1.7891 -1.4519  0.7746
  205SOL     OW  613   0.523   0.728   0.918  0.2366  0.1874  0.2900
  205SOL    HW1  614   0.600   0.659   0.925  0.2645 -3.9133  0.9857
  205SOL    HW2  615   0.441   0.688   0.872  1.2418  0.8698  1.3362
  206SOL     OW  616   0.388   1.068   2.809 -0.0725  0.5986 -0.1534
  206SOL    HW1  617   0.408   1.157   2.763  1.3222  0.6701 -1.2625
  206SOL    HW2  618   0.473   1.011   2.819  0.9466  1.9393  2.0433
  207SOL     OW  619   1.464   2.496   1.666 -0.0177 -0.8600  0.2496
  207SOL    HW1  620   1.503   2.508   1.759  1.9342  0.5101  2.3290
  207SOL    HW2  621   1.415   2.408   1.660 -0.2400 -0.7536 -6.3891
  208SOL     OW  622   2.473   0.343   1.101 -0.5234  0.2018  0.3355
  208SOL    HW1  623   2.537   0.276   1.144 -2.7034 -0.2454  0.0231
  208SOL    HW2  624   2.408   0.301   1.034 -0.8120 -2.6654 -0.5341
  209SOL     OW  625   2.076   1.059   0.919  0.3881  0.1439 -0.0168
  209SOL    HW1  626   2.070   0.987   0.991  0.4427 -0.2696 -0.7719
  209SOL    HW2  627   2.015   1.030   0.842 -2.7217 -0.5876  0.5017
  210SOL     OW  628   2.322   1.163   0.812 -0.1024 -0.7992  0.3374
  210SOL    HW1  629   2.244   1.126   0.867  1.3754  0.0783  1.8117
  210SOL    HW2  630   2.361   1.242   0.864 -2.3693 -1.8226 -4.1921
  211SOL     OW  631   0.945   3.087   3.001  0.2320 -0.2962  0.5452
  211SOL    HW1  632   0.869   3.021   2.980  0.0318  1.9306 -0.4268
  211SOL    HW2  633   0.975   3.082   3.098  1.5259 -0.5247  0.5340
  212SOL     OW  634   1.998   1.880   0.657 -0.0851  0.0619  0.0122
  212SOL    HW1  635   2.039   1.932   0.736  1.4878  0.1665  0.9267
  212SOL    HW2  636   2.070   1.863   0.587  0.0564  4.2524 -0.9732
  213SOL     OW  637   2.462   3.063   0.249  0.0585 -0.6149 -0.5579
  213SOL    HW1  638   2.431   2.967   0.269  0.7762 -0.0228 -0.2085
  213SOL    HW2  639   2.507   3.074   0.157  0.2667  0.5244  1.3001
  214SOL     OW  640   1.356   2.559   2.501 -0.5869 -0.2218 -0.0179
  214SOL    HW1  641   1.449   2.595   2.479 -2.0978 -1.3875  1.6538
  214SOL    HW2  642   1.353   2.465   2.459 -2.8706 -1.2033  0.2457
  215SOL     OW  643   0.367   1.418   1.059 -0.4305 -0.8650  0.4326
  215SOL    HW1  644   0.274   1.429   1.101 -0.6989  2.2486  2.4111
  215SOL    HW2  645   0.395   1.506   1.014 -0.5216 -1.0827 -1.5218
  216SOL     OW  646   0.111   0.101   2.580 -0.2296 -0.2315  0.3660
  216SOL    HW1  647   0.144   0.169   2.512  1.4528  0.7604 -3.7176
  216SOL    HW2  648   0.048   0.032   2.538 -1.6174 -0.3517  0.5512
  217SOL     OW  649   3.125   1.609   1.563 -0.1090 -0.3430  0.6513
  217SOL    HW1  650   3.223   1.598   1.535  0.4050  1.0175  1.0405
  217SOL    HW2  651   3.102   1.543   1.638 -1.6313 -0.4070  2.7455
  218SOL     OW  652   0.745   2.580   1.847  0.0175 -0.1948  0.3905
  218SOL    HW1  653   0.647   2.607   1.850 -0.5495 -1.3299 -2.3672
  218SOL    HW2  654   0.764   2.503   1.911 -1.2879 -1.9148  0.3064
  219SOL     OW  655   2.324   2.077   3.146 -0.6172 -0.4682 -0.1562
  219SOL    HW1  656   2.345   2.076   3.046  0.8512  1.9672  0.7816
  219SOL    HW2  657   2.340   1.986   3.189 -0.0993 -2.0462 -0.8361
  220SOL     OW  658   1.968   0.223   0.052 -0.1624  0.1863  0.3424
  220SOL    HW1  659   2.042   0.209  -0.017 -1.6338  1.2510 -0.2992
  220SOL    HW2  660   1.926   0.315   0.033 -1.0869  0.4384 -2.4408
  221SOL     OW  661   3.070   1.148   0.332  0.0822  0.1123  0.1379
  221SOL    HW1  662   3.045   1.052   0.306  0.0598  0.0118 -1.0768
  221SOL    HW2  663   3.038   1.212   0.259 -0.0521 -0.9224 -1.8687
  222SOL     OW  664   1.703   1.496   0.697 -0.1966 -0.4884 -0.6741
  222SOL    HW1  665   1.668   1.429   0.764 -1.8643  2.4328 -0.9046
  222SOL    HW2  666   1.761   1.566   0.745  0.0330 -0.0913 -1.8555
  223SOL     OW  667   0.858   0.307   3.171 -0.0889  0.3648 -0.0797
  223SOL    HW1  668   0.932   0.264   3.114  1.4023  1.0261  2.7377
  223SOL    HW2  669   0.858   0.407   3.152  0.4784  0.3899  1.1826
  224SOL     OW  670   1.068   3.108   1.225 -0.1020 -0.5005  0.1025
  224SOL    HW1  671   1.068   3.207   1.250 -0.0158  0.1507 -2.4596
  224SOL    HW2  672   0.984   3.063   1.260 -1.5731 -0.3711  1.2780
  225SOL     OW  673   0.982   0.148   2.408  0.2489 -0.0326 -0.2843
  225SOL    HW1  674   1.015   0.098   2.325  3.3683  2.0641  0.2498
  225SOL    HW2  675   0.914   0.088   2.455 -0.1494  2.0664  0.2614
  226SOL     OW  676   1.363   1.701   0.867 -0.0793 -0.1673  0.2359
  226SOL    HW1  677   1.436   1.773   0.859 -1.5201  0.2870 -1.6472
  226SOL    HW2  678   1.411   1.613   0.851  0.0792 -5.0206 -1.3686
  227SOL     OW  679   0.173   2.453   1.583 -0.0421 -0.0529 -0.0466
  227SOL    HW1  680   0.186   2.471   1.484 -0.7744 -1.0934 -1.2355
  227SOL    HW2  681   0.206   2.359   1.605  1.1731  0.3294  0.6212
  228SOL     OW  682   0.098   2.024   0.384  0.2169 -0.1530 -0.0512
  228SOL    HW1  683   0.073   2.118   0.351  1.9634  1.2854  0.3115
  228SOL    HW2  684   0.172   2.028   0.453 -2.0111 -0.3795 -1.7209
  229SOL     OW  685   2.623   0.240   3.208  0.4769  0.2227  0.4933
  229SOL    HW1  686   2.691   0.273   3.137  0.3565  1.6125 -1.2658
  229SOL    HW2  687   2.660   0.160   3.258  1.1196 -1.8307 -0.8625
  230SOL     OW  688   2.794   0.932   0.401  0.5004  1.0009  0.1228
  230SOL    HW1  689   2.860   0.916   0.324 -2.8929  0.1183  0.6021
  230SOL    HW2  690   2.724   0.997   0.367  1.5622  0.4035  0.0932
  231SOL     OW  691   1.768   1.912   0.491  1.0312  0.5285 -0.0267
  231SOL    HW1  692   1.850   1.900   0.551  0.6399 -0.6658 -3.6781
  231SOL    HW2  693   1.763   2.009   0.459 -0.5693  2.5994  0.4823
  232SOL     OW  694   1.921   2.154   1.097 -0.1524  0.4078 -0.0542
  232SOL    HW1  695   1.979   2.228   1.057 -2.0948  1.9720 -2.3847
  232SOL    HW2  696   1.974   2.068   1.102  2.2258 -1.8945  1.7403
  233SOL     OW  697   0.637   3.106   2.006  0.5886 -0.5305  0.2390
  233SOL    HW1  698   0.697   3.189   2.008 -0.2475  1.9276 -0.2635
  233SOL    HW2  699   0.620   3.089   1.907 -0.4964 -1.1779  1.7027
  234SOL     OW  700   0.746   0.391   2.648 -0.3589 -0.2866  0.2693
  234SOL    HW1  701   0.792   0.401   2.556  0.5769 -1.3875 -0.6425
  234SOL    HW2  702   0.803   0.443   2.715 -1.8231 -1.9297  0.9562
  235SOL     OW  703   2.812   1.163   2.060  0.4099  0.5375 -0.5398
  235SOL    HW1  704   2.900   1.116   2.083 -0.6311  0.2958  0.3614
  235SOL    HW2  705   2.748   1.100   2.012  0.5688 -1.8945  1.1744
  236SOL     OW  706   1.735   2.992   1.510  0.7643 -0.4944  0.4067
  236SOL    HW1  707   1.808   3.030   1.449  0.0979 -0.8698  2.2152
  236SOL    HW2  708   1.658   3.058   1.518 -0.4111 -1.5138 -1.2043
  237SOL     OW  709   0.450   1.803   2.756 -0.6041 -0.2505 -0.1734
  237SOL    HW1  710   0.523   1.847   2.701 -0.9478  2.2106 -0.9305
  237SOL    HW2  711   0.373   1.767   2.699 -2.3064  1.0962  2.5141
  238SOL     OW  712   1.272   1.011   2.333  0.0463 -0.8253 -0.0604
  238SOL    HW1  713   1.339   1.062   2.274  0.5741  0.2463 -0.8569
  238SOL    HW2  714   1.211   0.950   2.277 -2.6035  4.4839 -0.0123
  239SOL     OW  715   0.920   1.812   2.669 -0.5637 -0.4169 -1.2082
  239SOL    HW1  716   0.905   1.843   2.766 -2.3792 -1.0026  0.2607
  239SOL    HW2  717   0.951   1.889   2.608 -1.2775 -5.0206 -1.4978
  240SOL     OW  718   2.583   2.784   0.507  0.0230  0.2910 -0.2572
  240SOL    HW1  719   2.502   2.816   0.453  0.4482 -2.6248 -1.7990
  240SOL    HW2  720   2.643   2.863   0.531 -0.9150 -0.7763 -1.7833
  241SOL     OW  721   0.346   1.138   0.145  0.2523  0.6313  0.3095
  241SOL    HW1  722   0.345   1.097   0.240 -0.5484  0.4650 -0.2165
  241SOL    HW2  723   0.427   1.199   0.132  1.7646 -1.0787  3.8153
  242SOL     OW  724   1.650   3.141   1.794 -0.2873  0.3431  0.2382
  242SOL    HW1  725   1.584   3.154   1.718  1.6490 -3.2388 -0.8978
  242SOL    HW2  726   1.683   3.044   1.795  2.0858 -0.7193 -0.8073
  243SOL     OW  727   1.296   2.792   1.945 -0.2652 -0.1521 -0.3000
  243SOL    HW1  728   1.246   2.881   1.938  0.6647  2.4783 -0.8026
  243SOL    HW2  729   1.227   2.716   1.943 -0.5640 -0.0083  2.7948
  244SOL     OW  730   2.503   0.638   2.694  0.0877  0.3206 -0.3379
  244SOL    HW1  731   2.465   0.732   2.699  0.3102 -1.4841 -0.2477
  244SOL    HW2  732   2.460   0.575   2.762  0.1250  0.4563 -1.6969
  245SOL     OW  733   1.633   2.406   1.238  0.6968 -0.6492  0.3614
  245SOL    HW1  734   1.645   2.438   1.334 -0.3253  3.4423 -0.6086
  245SOL    HW2  735   1.577   2.321   1.238 -1.2330 -2.5888 -2.1100
  246SOL     OW  736   1.427   0.259   0.038 -0.3447 -0.4527 -0.6161
  246SOL    HW1  737   1.495   0.296   0.106  1.2359 -3.5768  1.7438
  246SOL    HW2  738   1.467   0.274  -0.054 -2.5167  0.3634  1.8339
  247SOL     OW  739   1.862   0.366   2.062 -0.0504 -0.3908 -0.1358
  247SOL    HW1  740   1.937   0.368   1.992 -0.9352  1.5299  0.8712
  247SOL    HW2  741   1.869   0.288   2.128  1.4973  1.4205 -0.6700
  248SOL     OW  742   0.012   2.609   1.750  0.1119 -0.0360  0.2531
  248SOL    HW1  743   0.054   2.702   1.749 -0.4232 -1.5839  1.5521
  248SOL    HW2  744   0.064   2.540   1.694 -1.4621  2.7583 -1.3401
  249SOL     OW  745   0.588   0.284   0.399 -0.5904 -0.8107  0.7619
  249SOL    HW1  746   0.487   0.293   0.416  0.4288  0.6293  1.3215
  249SOL    HW2  747   0.605   0.189   0.364  0.3702 -4.5058  0.4010
  250SOL     OW  748   2.581   0.188   2.373 -0.2156  0.8103 -0.1191
  250SOL    HW1  749   2.507   0.228   2.432 -2.8566  3.3202  0.1529
  250SOL    HW2  750   2.617   0.257   2.307  0.1422 -0.2130  0.5760
  251SOL     OW  751   1.430   0.732   3.320  0.0021  0.0005  0.1405
  251SOL    HW1  752   1.412   0.677   3.405 -1.8883 -0.6212 -1.1982
  251SOL    HW2  753   1.358   0.717   3.249 -0.6519  0.4205  2.7669
  252SOL     OW  754   1.699   2.683   2.431 -0.0675 -0.4654  0.0570
  252SOL    HW1  755   1.786   2.709   2.480 -0.0146 -0.7752 -1.1521
  252SOL    HW2  756   1.672   2.754   2.363 -1.2356 -1.1365 -0.9630
  253SOL     OW  757   3.015   2.828   0.400  0.1650  0.8726 -0.4033
  253SOL    HW1  758   2.952   2.874   0.466 -3.4295  0.3580 -1.2539
  253SOL    HW2  759   3.104   2.808   0.446  0.4107 -1.6976  1.9238
  254SOL     OW  760   2.279   1.083   1.522  0.4537 -0.1760 -0.6706
  254SOL    HW1  761   2.247   1.173   1.489 -3.4242 -0.1595  0.0434
  254SOL    HW2  762   2.377   1.095   1.550  3.3610  2.7961  0.9162
  255SOL     OW  763   0.971   3.002   1.580 -0.0555 -0.1995 -0.9134
  255SOL    HW1  764   0.919   2.992   1.491  2.8680 -1.4441  4.5866
  255SOL    HW2  765   0.926   2.941   1.648  2.6976  1.6892  0.6977
  256SOL     OW  766   2.562   1.789   1.816 -0.0714 -0.1310  0.0380
  256SOL    HW1  767   2.505   1.780   1.731 -0.1278  0.6509  0.0453
  256SOL    HW2  768   2.650   1.837   1.798  0.9674 -0.7145  0.1642
  257SOL     OW  769   0.488   2.606   2.798  0.4262  0.1039 -0.1362
  257SOL    HW1  770   0.537   2.545   2.863 -0.7912  0.7798 -0.4824
  257SOL    HW2  771   0.455   2.693   2.840 -0.1667  1.3072 -0.9279
  258SOL     OW  772   0.629   2.671   1.083  0.0748 -0.3712 -0.4475
  258SOL    HW1  773   0.567   2.745   1.050 -0.2562 -1.2264  0.6798
  258SOL    HW2  774   0.581   2.579   1.078  0.1817 -1.7033 -1.2479
  259SOL     OW  775   1.571   0.464   2.898  0.3128  0.0476  0.2615
  259SOL    HW1  776   1.671   0.458   2.919 -2.4640 -1.6603 -2.4663
  259SOL    HW2  777   1.548   0.557   2.863  0.6305  0.4847  0.3835
  260SOL     OW  778   0.343   0.383   1.393 -0.4095 -0.5935  0.5733
  260SOL    HW1  779   0.436   0.423   1.406  1.1508 -2.7837 -0.9645
  260SOL    HW2  780   0.332   0.349   1.297 -0.8719  1.3122 -0.3687
  261SOL     OW  781   1.321   0.051   2.548  0.4782  0.0836  0.1205
  261SOL    HW1  782   1.289  -0.043   2.574 -0.4588 -0.6721  0.8732
  261SOL    HW2  783   1.240   0.112   2.545 -0.9610 -0.1554 -0.0793
  262SOL     OW  784   1.296   3.188   2.119  0.5252 -0.0699  0.0193
  262SOL    HW1  785   1.321   3.125   2.197 -0.3797 -0.9477  0.0058
  262SOL    HW2  786   1.256   3.136   2.041 -0.1857  1.6064 -0.8163
  263SOL     OW  787   0.714   2.327   0.049 -0.0755  0.3039  0.1164
  263SOL    HW1  788   0.791   2.389   0.025  2.7904 -0.0102 -1.5008
  263SOL    HW2  789   0.722   2.235   0.006 -0.8722 -2.5477 -0.8625
  264SOL     OW  790   1.544   1.910   1.106 -0.5326  0.4265  0.1889
  264SOL    HW1  791   1.635   1.867   1.127 -1.4280  0.8033  0.1322
  264SOL    HW2  792   1.533   1.918   1.005 -0.5276 -3.5603  0.7309
  265SOL     OW  793   0.975   2.525   0.398  0.4669  0.9818 -0.0310
  265SOL    HW1  794   1.049   2.465   0.359 -1.4211  0.0867 -1.5518
  265SOL    HW2  795   0.902   2.464   0.436 -0.8452 -0.2052  3.1820
  266SOL     OW  796   2.973   0.954   1.104  0.4224 -0.0989  0.1000
  266SOL    HW1  797   2.915   0.890   1.051 -3.5413  1.4849  0.0412
  266SOL    HW2  798   3.029   0.905   1.175 -0.3716 -1.4612  1.6584
  267SOL     OW  799   0.276   1.559   0.297 -0.0076 -0.1440 -0.0500
  267SOL    HW1  800   0.244   1.567   0.394 -1.6296 -0.2294  1.4728
  267SOL    HW2  801   0.194   1.535   0.239 -1.7013 -0.6516  3.4638
  268SOL     OW  802   1.405   0.599   0.244 -0.6698  0.4374  0.3350
  268SOL    HW1  803   1.304   0.596   0.260  0.5063  2.1826 -0.6420
  268SOL    HW2  804   1.443   0.657   0.320 -1.7622  0.2594 -0.3143
  269SOL     OW  805   2.786   0.751   2.382  0.0764  0.6330  0.5810
  269SOL    HW1  806   2.785   0.819   2.458  1.8783  1.3126  1.8301
  269SOL    HW2  807   2.876   0.763   2.335 -1.1968 -1.4229 -1.1698
  270SOL     OW  808   2.846   1.263   0.789 -0.2755  0.1806  0.0048
  270SOL    HW1  809   2.847   1.330   0.712 -1.1019 -0.8159  0.9785
  270SOL    HW2  810   2.831   1.171   0.747  1.6440  2.5234 -2.6800
  271SOL     OW  811   0.194   1.254   2.441  0.1591  0.1625 -0.4397
  271SOL    HW1  812   0.250   1.217   2.363  2.8642  0.2005  1.5575
  271SOL    HW2  813   0.170   1.350   2.418  0.0567 -1.8360  0.1430
  272SOL     OW  814   2.721   2.442   1.958  0.2376 -0.1069 -0.1742
  272SOL    HW1  815   2.665   2.469   2.039 -0.9837  3.1754 -0.4057
  272SOL    HW2  816   2.804   2.391   1.991  0.2847 -0.5878  0.1193
  273SOL     OW  817   0.238   2.736   3.156 -0.6753 -0.2411  0.6587
  273SOL    HW1  818   0.300   2.659   3.183 -1.3365 -0.1470 -0.5301
  273SOL    HW2  819   0.160   2.706   3.098  0.4482 -0.7388 -1.1141
  274SOL     OW  820   0.883   2.416   0.804 -0.8700 -0.0086  0.3744
  274SOL    HW1  821   0.902   2.450   0.898  1.7741  0.4213 -1.9186
  274SOL    HW2  822   0.962   2.362   0.767  2.7050 -1.6885  0.7542
  275SOL     OW  823   1.575   2.296   2.696  0.3922 -0.0268 -0.0323
  275SOL    HW1  824   1.611   2.333   2.607  1.5275 -1.2075 -0.4681
  275SOL    HW2  825   1.473   2.283   2.692  1.6688 -0.6537  0.2675
  276SOL     OW  826   3.098   1.923   2.219 -0.1749  0.2571 -0.1192
  276SOL    HW1  827   3.038   1.871   2.153  0.4659  0.2115  0.8105
  276SOL    HW2  828   3.037   1.962   2.291  1.3550  0.0781 -2.9632
  277SOL     OW  829   2.317   0.211   0.903 -0.1391 -0.4725  0.0270
  277SOL    HW1  830   2.391   0.219   0.832  0.6992  0.2620  2.4600
  277SOL    HW2  831   2.224   0.224   0.863 -0.8169  1.0338  1.0290
  278SOL     OW  832   1.548   0.020   2.717  0.0426 -0.5070  0.0469
  278SOL    HW1  833   1.466   0.046   2.662 -0.7734 -0.1804 -3.0454
  278SOL    HW2  834   1.522   0.002   2.815 -2.6886  0.2478  1.3654
  279SOL     OW  835   1.262   2.925   1.112  0.2979  0.2485  0.8200
  279SOL    HW1  836   1.266   2.839   1.167  0.7557  1.9261  1.8183
  279SOL    HW2  837   1.196   2.993   1.153  1.1215 -0.1162  1.1868
  280SOL     OW  838   1.347   1.179   0.527 -0.0141 -0.1544 -0.1711
  280SOL    HW1  839   1.279   1.103   0.539  0.1357 -0.8214 -1.3470
  280SOL    HW2  840   1.350   1.231   0.615 -1.7905 -0.4836  0.4949
  281SOL     OW  841   2.233   1.858   0.480  0.3052  0.4454 -0.4255
  281SOL    HW1  842   2.307   1.874   0.548 -0.7709 -1.1783  0.3894
  281SOL    HW2  843   2.263   1.784   0.415  3.8802  0.9956 -0.6210
  282SOL     OW  844   3.069   1.539   0.602 -0.0321 -0.0392 -0.2413
  282SOL    HW1  845   2.978   1.581   0.585  1.7372 -0.7801  0.1092
  282SOL    HW2  846   3.137   1.559   0.529  0.9561 -2.8975 -0.9134
  283SOL     OW  847   1.879   2.732   3.157  0.0749  0.7346 -0.5375
  283SOL    HW1  848   1.812   2.668   3.113  1.0692  5.0027 -0.2846
  283SOL    HW2  849   1.891   2.817   3.101 -0.5467 -0.4630  2.2029
  284SOL     OW  850   0.463   0.460   2.618  0.0595 -0.1713 -0.3493
  284SOL    HW1  851   0.559   0.436   2.643 -0.5299 -0.8327  2.7522
  284SOL    HW2  852   0.404   0.453   2.701 -0.7235 -0.9651  1.4132
  285SOL     OW  853   2.153   1.488   0.190  0.1280  0.2248 -0.7165
  285SOL    HW1  854   2.134   1.494   0.090 -0.6718  2.8667 -0.1445
  285SOL    HW2  855   2.141   1.391   0.221 -2.1681  2.4800  0.0793
  286SOL     OW  856   1.090   2.081   1.807  0.3613 -0.0168 -0.3487
  286SOL    HW1  857   1.163   2.015   1.833  0.6896  0.2950 -0.5377
  286SOL    HW2  858   1.117   2.137   1.725  1.3648 -0.3208  1.2202
  287SOL     OW  859   1.908   3.075   1.296 -0.1403  0.2575 -0.0080
  287SOL    HW1  860   1.853   3.034   1.220  1.1168  0.5803 -1.6281
  287SOL    HW2  861   1.940   3.168   1.269  0.5369  0.2768  1.9971
  288SOL     OW  862   0.601   2.845   2.106 -0.3273  0.3376 -0.3185
  288SOL    HW1  863   0.616   2.942   2.077 -2.4339  0.3470 -0.0484
  288SOL    HW2  864   0.503   2.816   2.092  3.1389  0.8049 -0.4539
  289SOL     OW  865   3.306   1.885   0.801  0.3150  0.0714 -0.8006
  289SOL    HW1  866   3.261   1.795   0.821  2.8314  2.3690  0.4661
  289SOL    HW2  867   3.250   1.941   0.736  2.8119 -0.1364 -1.6606
  290SOL     OW  868   0.794   2.364   2.030  0.1872 -0.4387  0.1980
  290SOL    HW1  869   0.820   2.271   1.994  0.5164 -1.4196 -0.5849
  290SOL    HW2  870   0.799   2.365   2.131 -2.8291 -0.3130  0.6914
  291SOL     OW  871   2.028   0.216   0.328  0.3319 -0.5599 -0.6059
  291SOL    HW1  872   1.982   0.299   0.369 -0.9136  0.7830 -1.1790
  291SOL    HW2  873   2.004   0.210   0.229 -1.9379  3.0013  1.1083
  292SOL     OW  874   0.653   0.352   1.679 -0.6387  0.4282  0.7195
  292SOL    HW1  875   0.577   0.292   1.713 -0.7548 -1.9516 -1.5763
  292SOL    HW2  876   0.733   0.347   1.743 -0.8334  0.3570  2.0751
  293SOL     OW  877   2.358   1.463   1.204  0.2414  0.1706 -0.1945
  293SOL    HW1  878   2.445   1.491   1.248  0.8727 -1.2131  1.0994
  293SOL    HW2  879   2.371   1.434   1.106  2.0975 -2.2965  0.1380
  294SOL     OW  880   0.420   0.348   2.367 -0.5408  0.0218 -0.3365
  294SOL    HW1  881   0.346   0.394   2.315 -0.7505  0.3086  0.0094
  294SOL    HW2  882   0.426   0.390   2.460  0.6282  1.8437 -1.2159
  295SOL     OW  883   1.093   1.558   0.324  0.0425  0.2427  0.6980
  295SOL    HW1  884   1.165   1.488   0.304  2.4656 -3.3780 -2.3529
  295SOL    HW2  885   1.025   1.510   0.384 -2.2661  1.3931  0.0738
  296SOL     OW  886   2.013   1.183   1.264  0.4814 -0.6919 -0.1295
  296SOL    HW1  887   2.010   1.228   1.173  0.5695 -4.7364  1.7672
  296SOL    HW2  888   2.077   1.233   1.327 -1.4393 -2.0542  0.8470
  297SOL     OW  889   1.970   0.898   2.694  0.0741  0.3050  0.3994
  297SOL    HW1  890   2.069   0.886   2.679 -0.3197 -2.5171 -0.2168
  297SOL    HW2  891   1.935   0.963   2.623 -3.2131 -0.3665  1.3699
  298SOL     OW  892   0.957   0.559   2.793  0.0163  0.1802  0.1509
  298SOL    HW1  893   1.014   0.512   2.863 -0.7959  0.9026 -0.3129
  298SOL    HW2  894   1.009   0.609   2.720  1.1345 -1.5096 -0.0181
  299SOL     OW  895   1.428   0.374   2.217 -0.3280  0.1683  0.6797
  299SOL    HW1  896   1.331   0.366   2.187 -4.5849 -1.2363  0.3405
  299SOL    HW2  897   1.434   0.443   2.292  1.2245 -1.0126 -0.1114
  300SOL     OW  898   2.702   0.055   1.981  0.7106 -0.3870 -0.3613
  300SOL    HW1  899   2.687  -0.010   1.903  4.1355 -0.3776 -0.5926
  300SOL    HW2  900   2.795   0.097   1.974 -0.1994  1.3470  0.1613
  301SOL     OW  901   1.963   0.898   1.805  0.1458 -0.0233 -0.1761
  301SOL    HW1  902   1.881   0.957   1.794 -1.0367 -1.7777 -2.1681
  301SOL    HW2  903   1.990   0.898   1.904  3.0282  0.4443  0.2162
  302SOL     OW  904   0.734   3.031   2.660  0.7815 -0.2066 -0.4930
  302SOL    HW1  905   0.660   3.002   2.595 -1.0979 -1.6976  2.6924
  302SOL    HW2  906   0.823   3.032   2.610  0.4779  1.3598 -1.8173
  303SOL     OW  907   1.777   2.095   1.817 -0.3128  0.1121  0.4068
  303SOL    HW1  908   1.838   2.062   1.743  1.9508  0.9093 -2.7711
  303SOL    HW2  909   1.680   2.066   1.797  4.3435 -0.1804 -2.3455
  304SOL     OW  910   0.213   3.080   0.743  0.6198 -0.3961  0.6646
  304SOL    HW1  911   0.282   3.006   0.725 -1.2682 -0.1652 -0.0394
  304SOL    HW2  912   0.124   3.037   0.770 -1.8760 -3.1944 -1.4225
  305SOL     OW  913   1.537   0.748   0.448  0.2849 -0.2309  0.3261
  305SOL    HW1  914   1.542   0.850   0.432 -1.6445  0.4975 -1.5096
  305SOL    HW2  915   1.519   0.727   0.546  2.5011 -2.6970 -0.7574
  306SOL     OW  916   0.405   1.762   0.132 -0.0539 -0.5738 -0.5661
  306SOL    HW1  917   0.500   1.785   0.167 -0.9904 -0.1881  0.1267
  306SOL    HW2  918   0.357   1.690   0.187  3.6760 -1.8751  1.1015
  307SOL     OW  919   0.613   1.080   1.929  0.4390  0.1654 -0.2430
  307SOL    HW1  920   0.649   1.101   1.836 -0.5057  0.6415  1.6009
  307SOL    HW2  921   0.572   0.986   1.923  0.3651  3.2765 -2.1915
  308SOL     OW  922   0.761   0.180   1.218  0.0725  0.0511 -0.0641
  308SOL    HW1  923   0.704   0.218   1.143 -1.4532 -1.1017 -2.3778
  308SOL    HW2  924   0.771   0.251   1.291 -1.7776  1.5671 -0.6011
  309SOL     OW  925   2.282   0.834   0.115  0.0054 -0.0194  0.4438
  309SOL    HW1  926   2.369   0.787   0.139  2.9723 -1.8721  0.2745
  309SOL    HW2  927   2.305   0.902   0.043 -1.8198 -0.3047 -0.1025
  310SOL     OW  928   1.232   1.163   0.084 -0.2634  0.1029 -0.0554
  310SOL    HW1  929   1.179   1.205   0.008  1.4254 -1.0754  1.4327
  310SOL    HW2  930   1.243   1.236   0.156  0.2667 -0.5050 -2.3035
  311SOL     OW  931   1.855   2.474   2.762  0.5100 -0.1993 -0.3453
  311SOL    HW1  932   1.780   2.440   2.701 -0.7709  0.9787  2.0161
  311SOL    HW2  933   1.907   2.544   2.708  0.6989 -1.7888  1.6668
  312SOL     OW  934   2.236   3.241   3.247  0.2614 -0.0960  0.5873
  312SOL    HW1  935   2.209   3.338   3.227  1.6519  3.7082 -0.2593
  312SOL    HW2  936   2.235   3.231   3.348  1.7796  3.5300  2.0740
  313SOL     OW  937   0.399   0.440   0.664 -0.0951  0.1566  0.1449
  313SOL    HW1  938   0.343   0.502   0.723  1.8376 -1.0052 -0.1409
  313SOL    HW2  939   0.471   0.491   0.611  0.3816 -1.7037 -2.4780
  314SOL     OW  940   2.779   1.414   3.135 -0.1845  0.6787  0.0409
  314SOL    HW1  941   2.809   1.347   3.065 -0.8433 -0.3172  0.0805
  314SOL    HW2  942   2.824   1.505   3.115  0.7476  0.2761 -1.7660
  315SOL     OW  943   2.048   0.917   2.076  0.2060 -0.3654 -0.3281
  315SOL    HW1  944   2.058   0.843   2.147 -2.1643 -1.3428  1.5234
  315SOL    HW2  945   2.015   1.004   2.120  0.0871  0.4665 -2.0382
  316SOL     OW  946   0.039   0.932   0.941 -0.1969 -0.6003 -0.3017
  316SOL    HW1  947  -0.040   0.996   0.935  0.2347 -1.7832  1.1530
  316SOL    HW2  948   0.075   0.916   0.846 -0.0122  0.0721  0.5747
  317SOL     OW  949   0.465   0.332   0.098  0.0467 -0.4487  0.2433
  317SOL    HW1  950   0.450   0.296   0.193  0.0375  2.9044  0.2070
  317SOL    HW2  951   0.531   0.271   0.049  0.3944  0.4185 -2.7194
  318SOL     OW  952   2.830   3.051   1.460 -0.3181  0.3082 -0.3771
  318SOL    HW1  953   2.834   2.965   1.405 -1.0688 -1.9596  0.4911
  318SOL    HW2  954   2.816   3.033   1.559  1.4095 -2.8425 -0.5949
  319SOL     OW  955   1.329   1.901   0.212  0.1070  0.4001 -0.2195
  319SOL    HW1  956   1.304   1.995   0.183  1.3495 -0.7752 -0.9653
  319SOL    HW2  957   1.277   1.877   0.297 -1.3163 -1.6981  0.3227
  320SOL     OW  958   0.710   2.308   1.154  0.2765  0.1112 -0.4845
  320SOL    HW1  959   0.718   2.319   1.255  1.5965 -2.9888 -0.7431
  320SOL    HW2  960   0.625   2.359   1.126 -0.6117  0.3533 -1.0496
  321SOL     OW  961   2.386   2.495   2.638 -0.6032  0.0081 -0.4685
  321SOL    HW1  962   2.302   2.519   2.584  2.8094 -0.0776 -0.3530
  321SOL    HW2  963   2.461   2.478   2.570 -1.3566  0.7671 -2.4506
  322SOL     OW  964   3.167   2.695   2.532  0.0243 -0.5299  0.4013
  322SOL    HW1  965   3.233   2.676   2.607 -1.4139 -1.3459 -3.9503
  322SOL    HW2  966   3.095   2.752   2.578  1.0755 -1.0457  2.0529
  323SOL     OW  967   2.965   0.391   0.949 -0.2865 -0.3431  0.1351
  323SOL    HW1  968   3.046   0.425   0.897  0.8022 -2.2124  0.2587
  323SOL    HW2  969   2.879   0.415   0.899 -4.0035 -4.7364 -0.1061
  324SOL     OW  970   2.728   1.901   2.552 -0.2701  0.4400 -0.2841
  324SOL    HW1  971   2.713   1.859   2.460 -0.8455 -2.8553  0.8857
  324SOL    HW2  972   2.709   1.832   2.625 -2.4299 -2.7433  0.5652
  325SOL     OW  973   1.752   0.496   2.500 -0.4991 -0.0037  0.0444
  325SOL    HW1  974   1.773   0.560   2.577  0.7071 -0.3448 -0.5782
  325SOL    HW2  975   1.784   0.528   2.410 -1.5538 -0.5716 -0.0257
  326SOL     OW  976   3.091   2.334   0.626  0.6695  0.1677  0.0937
  326SOL    HW1  977   3.054   2.379   0.711  0.9163  2.0333 -0.4509
  326SOL    HW2  978   3.172   2.387   0.595  0.0466 -0.8314  0.3786
  327SOL     OW  979   2.754   0.004   3.323 -0.2325 -0.1578  0.3735
  327SOL    HW1  980   2.677  -0.064   3.332  1.1314  2.3870  1.2179
  327SOL    HW2  981   2.829  -0.040   3.270 -0.9127  2.7189 -2.1106
  328SOL     OW  982   0.955   0.659   0.820  0.0908 -0.0731 -0.0761
  328SOL    HW1  983   0.906   0.685   0.734  0.5200  0.9198  0.0656
  328SOL    HW2  984   1.045   0.621   0.793  3.9014 -0.0197 -0.0219
  329SOL     OW  985   2.214   0.866   1.690 -0.0369  0.1578 -0.2844
  329SOL    HW1  986   2.125   0.880   1.740  4.2688 -0.4493 -3.2683
  329SOL    HW2  987   2.237   0.948   1.633  1.0424 -2.0327  0.3739
  330SOL     OW  988   1.406   0.278   0.668 -0.1695  0.3134  0.1115
  330SOL    HW1  989   1.362   0.369   0.676 -2.3588  1.8285 -0.8018
  330SOL    HW2  990   1.496   0.297   0.623  2.2897  0.4862 -0.8084
  331SOL     OW  991   0.562   2.101   2.112 -0.3359 -0.9330  0.0193
  331SOL    HW1  992   0.634   2.106   2.039 -5.0334 -0.1558  2.9451
  331SOL    HW2  993   0.521   2.190   2.141 -0.5158 -1.0144 -1.4258
  332SOL     OW  994   2.403   2.141   1.816  0.2119 -0.2574  0.1050
  332SOL    HW1  995   2.369   2.067   1.877  1.4935  3.8144 -3.6858
  332SOL    HW2  996   2.503   2.130   1.811  2.0667 -3.3085  0.3146
  333SOL     OW  997   3.120   3.292   0.987  0.7163 -0.1587  0.4164
  333SOL    HW1  998   3.042   3.346   1.024 -0.1240  1.6824  3.5462
  333SOL    HW2  999   3.163   3.343   0.910 -1.3146 -1.4048  0.0807
  334SOL     OW 1000   3.118   1.752   1.115 -0.2566 -0.3055 -0.5669
  334SOL    HW1 1001   3.213   1.753   1.154 -1.0376 -0.6821  0.2505
  334SOL    HW2 1002   3.123   1.712   1.021 -0.7915 -2.4147  1.6467
  335SOL     OW 1003   0.591   3.243   2.780  0.2009  0.8616  0.4069
  335SOL    HW1 1004   0.513   3.200   2.828 -1.3469 -2.5821 -2.6282
  335SOL    HW2 1005   0.650   3.169   2.739  1.0640 -1.7958 -1.0629
  336SOL     OW 1006   0.151   2.901   1.717  0.5725  0.5764  0.5077
  336SOL    HW1 1007   0.097   2.954   1.648 -1.0857  0.4265  0.4866
  336SOL    HW2 1008   0.139   2.941   1.811  0.3029  0.4322  2.2100
  337SOL     OW 1009   0.964   2.038   2.494 -0.4569  0.2165 -0.7815
  337SOL    HW1 1010   0.973   2.121   2.551  0.5276 -1.2531  1.6069
  337SOL    HW2 1011   0.878   2.042   2.437  0.3188  1.4016 -0.7512
  338SOL     OW 1012   1.256   3.123   2.641 -0.1714 -0.1591  0.2502
  338SOL    HW1 1013   1.348   3.086   2.613  1.4688 -1.5069  1.6970
  338SOL    HW2 1014   1.235   3.098   2.738 -0.4433  0.3560 -0.6114
  339SOL     OW 1015   3.290   1.623   3.248  0.3354  0.3422 -0.0916
  339SOL    HW1 1016   3.289   1.550   3.175 -1.6974 -0.9549  0.7922
  339SOL    HW2 1017   3.340   1.706   3.216 -0.0466  0.2347  1.7170
  340SOL     OW 1018   2.095   0.573   1.438 -0.8115 -0.1094 -0.0265
  340SOL    HW1 1019   2.107   0.575   1.337  1.1592  2.2640  0.0838
  340SOL    HW2 1020   2.185   0.592   1.482  2.6369  0.2567  0.4838
  341SOL     OW 1021   2.034   1.327   1.002 -0.1849  0.3257  0.1776
  341SOL    HW1 1022   2.065   1.395   0.933 -0.6778 -0.6745  2.0405
  341SOL    HW2 1023   2.047   1.232   0.967  1.4595  0.1786 -0.6540
  342SOL     OW 1024   2.393   2.355   2.885  0.1715  0.2521 -0.0270
  342SOL    HW1 1025   2.396   2.254   2.875  0.9272 -1.2254  1.5713
  342SOL    HW2 1026   2.392   2.394   2.790 -0.0895 -0.4615 -0.8122
  343SOL     OW 1027   3.230   2.845   1.147 -0.6540  0.7904  0.4092
  343SOL    HW1 1028   3.213   2.762   1.089  2.2438  0.3983  0.0798
  343SOL    HW2 1029   3.237   2.816   1.244 -0.9150  0.3906 -1.0445
  344SOL     OW 1030   2.820   2.935   0.881  0.0444 -0.2361 -0.1063
  344SOL    HW1 1031   2.750   2.974   0.943  1.0403  0.2357 -3.3056
  344SOL    HW2 1032   2.916   2.958   0.911 -2.4615  2.6759  0.2590
  345SOL     OW 1033   2.690   2.362   0.322  0.1080  0.3489  0.3997
  345SOL    HW1 1034   2.590   2.351   0.341  1.3363 -0.1934 -0.7568
  345SOL    HW2 1035   2.716   2.461   0.318  0.4365 -2.0226  3.0760
  346SOL     OW 1036   1.161   2.472   2.204 -0.0854 -0.0108 -0.7281
  346SOL    HW1 1037   1.127   2.545   2.268 -0.5474 -0.5811  2.0792
  346SOL    HW2 1038   1.147   2.501   2.108  0.3966 -2.6885 -1.7152
  347SOL     OW 1039   1.834   2.103   2.423  0.0968 -0.1844 -0.0884
  347SOL    HW1 1040   1.799   2.195   2.448  2.1730  1.9210  3.3140
  347SOL    HW2 1041   1.817   2.085   2.324 -0.6626 -1.3815 -0.4686
  348SOL     OW 1042   0.454   2.012   1.268  0.4011  0.5720 -0.5306
  348SOL    HW1 1043   0.414   2.085   1.208  0.2468  1.2500 -1.3449
  348SOL    HW2 1044   0.555   2.011   1.254  3.0142 -0.5504 -1.5923
  349SOL     OW 1045   1.726   1.502   1.708 -1.0588  0.3830  0.6265
  349SOL    HW1 1046   1.776   1.584   1.675  0.3919  0.3651 -1.9600
  349SOL    HW2 1047   1.639   1.488   1.655 -0.8697 -1.4807  0.8897
  350SOL     OW 1048   2.410   2.367   0.663  0.0626 -0.5790 -0.1672
  350SOL    HW1 1049   2.312   2.358   0.689  1.3589  0.4148 -0.6942
  350SOL    HW2 1050   2.441   2.457   0.700 -2.6044 -0.1792  1.8386
  351SOL     OW 1051   0.472   0.164   1.813  0.1319  0.1595  0.4390
  351SOL    HW1 1052   0.505   0.160   1.910  0.6352 -1.1548 -1.6691
  351SOL    HW2 1053   0.370   0.162   1.816 -1.4691 -1.6573 -1.2133
  352SOL     OW 1054   0.624   1.183   0.346  0.1197  0.1808 -0.1833
  352SOL    HW1 1055   0.595   1.279   0.328  1.1292 -1.1630  2.4833
  352SOL    HW2 1056   0.662   1.137   0.263 -1.2889  0.1313  0.2326
  353SOL     OW 1057   0.786   1.545   2.992  0.6753  0.7791 -0.7197
  353SOL    HW1 1058   0.831   1.632   2.965 -1.0024 -1.1262 -1.0145
  353SOL    HW2 1059   0.808   1.463   2.934 -2.4790 -1.3882 -1.3870
  354SOL     OW 1060   1.907   2.490   1.957  0.1331 -0.0288 -0.2718
  354SOL    HW1 1061   1.933   2.586   1.927  4.1198  1.3664  0.8662
  354SOL    HW2 1062   1.982   2.445   2.008 -0.9645 -1.5711 -1.2020
  355SOL     OW 1063   2.439   0.888   3.007 -0.1940  0.6455  0.0860
  355SOL    HW1 1064   2.448   0.790   3.036 -0.0930  0.3744 -4.0385
  355SOL    HW2 1065   2.405   0.892   2.911  1.5364  1.2150 -2.0199
  356SOL     OW 1066   0.752   2.322   1.446  0.7595  0.0921  0.3118
  356SOL    HW1 1067   0.786   2.414   1.477 -0.6915  2.5295 -1.1822
  356SOL    HW2 1068   0.705   2.273   1.522  4.3211  1.1942  0.5244
  357SOL     OW 1069   0.181   0.183   1.869  0.0495 -0.1182 -0.4811
  357SOL    HW1 1070   0.135   0.137   1.948  0.7481 -2.9873  0.7679
  357SOL    HW2 1071   0.188   0.284   1.879  0.9397 -0.3968 -0.7999
  358SOL     OW 1072   2.766   2.117   1.615  0.0300 -0.2832  0.0312
  358SOL    HW1 1073   2.766   2.050   1.538  0.9712  0.9834  0.2442
  358SOL    HW2 1074   2.769   2.212   1.576 -1.0313 -2.9448 -0.9443
  359SOL     OW 1075   2.364   2.019   2.369 -0.5436  0.3377 -0.6498
  359SOL    HW1 1076   2.271   2.046   2.403 -1.3615 -0.1047  0.7054
  359SOL    HW2 1077   2.400   2.093   2.308  0.0387 -0.2527 -0.2344
  360SOL     OW 1078   1.435   2.923   0.894  0.4346 -0.5096 -0.2295
  360SOL    HW1 1079   1.376   2.923   0.977 -1.7537  0.9254  1.9971
  360SOL    HW2 1080   1.447   3.017   0.856  0.6817 -0.3667 -0.3282
  361SOL     OW 1081   2.233   3.209   0.191 -0.0371 -0.1224 -0.2532
  361SOL    HW1 1082   2.146   3.165   0.220 -0.9303  0.7965  2.8370
  361SOL    HW2 1083   2.315   3.156   0.220 -2.6792 -1.5759 -0.3847
  362SOL     OW 1084   1.920   0.782   1.538 -0.3564  0.0282  0.0793
  362SOL    HW1 1085   1.954   0.815   1.628 -2.6907  2.4875 -1.3109
  362SOL    HW2 1086   1.977   0.703   1.506 -0.5543  0.9560 -0.8756
  363SOL     OW 1087   1.897   1.623   2.352  0.1066 -0.5685  0.0028
  363SOL    HW1 1088   1.817   1.648   2.412  3.1106  1.6973  1.0857
  363SOL    HW2 1089   1.981   1.619   2.410 -0.1012 -0.6459  1.8768
  364SOL     OW 1090   0.622   0.643   1.651  0.8598  0.5330  0.2480
  364SOL    HW1 1091   0.622   0.542   1.662 -2.3999  2.0980  0.6996
  364SOL    HW2 1092   0.595   0.669   1.556 -1.7510 -1.4556 -0.6976
  365SOL     OW 1093   0.992   0.815   3.008 -0.4825 -0.4796  0.6623
  365SOL    HW1 1094   0.976   0.778   2.915 -0.5195  0.4485 -2.3063
  365SOL    HW2 1095   0.972   0.916   3.008  2.8732  1.8975 -1.7337
  366SOL     OW 1096   2.443   1.245   2.882 -0.7145  0.3418 -0.3742
  366SOL    HW1 1097   2.512   1.192   2.933 -1.1231  0.6291 -0.7040
  366SOL    HW2 1098   2.372   1.275   2.950  1.1107  3.0209 -0.8486
  367SOL     OW 1099   0.021   2.840   2.387 -0.1702 -0.0680 -0.1517
  367SOL    HW1 1100  -0.051   2.786   2.437 -0.2388 -2.0032  0.3298
  367SOL    HW2 1101  -0.021   2.911   2.327  2.0835 -0.4838 -2.0951
  368SOL     OW 1102   3.213   1.194   1.497 -0.2524  0.0842 -0.1639
  368SOL    HW1 1103   3.119   1.210   1.463 -2.0370  0.5419 -2.3477
  368SOL    HW2 1104   3.212   1.194   1.600  3.8496  0.1452 -0.0370
  369SOL     OW 1105   0.438   3.162   2.301  0.6695  0.0127 -0.0835
  369SOL    HW1 1106   0.488   3.135   2.215 -1.3194  1.8730 -2.2155
  369SOL    HW2 1107   0.467   3.253   2.334 -0.3923  3.9475  3.3727
  370SOL     OW 1108   2.979   0.262   0.590  0.0063  0.0984  0.4139
  370SOL    HW1 1109   2.917   0.335   0.555 -3.5997  1.9926  1.0808
  370SOL    HW2 1110   2.935   0.202   0.661  0.4075 -1.2598  0.6068
  371SOL     OW 1111   0.841   2.553   1.576 -0.6628  0.5682 -0.5805
  371SOL    HW1 1112   0.942   2.536   1.589 -0.0650  1.0338 -0.3773
  371SOL    HW2 1113   0.792   2.563   1.665  0.2176 -2.9070  2.9929
  372SOL     OW 1114   2.401   0.290   2.561  0.2507  0.2470  0.3396
  372SOL    HW1 1115   2.419   0.355   2.638 -1.6178 -0.6394  1.0492
  372SOL    HW2 1116   2.304   0.258   2.573 -1.5609  1.1321 -3.1740
  373SOL     OW 1117   0.170   2.422   0.849 -0.2499  0.2221 -0.5947
  373SOL    HW1 1118   0.201   2.497   0.913  0.8352 -0.2497  0.6342
  373SOL    HW2 1119   0.090   2.377   0.893  0.0414  0.4270  0.2847
  374SOL     OW 1120   3.116   0.354   2.416  0.2374 -0.2011 -0.1311
  374SOL    HW1 1121   3.033   0.326   2.469 -0.2734 -0.4278  0.3825
  374SOL    HW2 1122   3.176   0.404   2.482 -0.1790 -1.2297 -1.1181
  375SOL     OW 1123   0.627   0.675   3.032  0.5782 -0.2564  0.2371
  375SOL    HW1 1124   0.563   0.595   3.022  2.9172  1.0856 -0.9302
  375SOL    HW2 1125   0.718   0.643   3.067  0.0203  0.1023  1.3643
  376SOL     OW 1126   3.110   2.525   1.872  0.2459  0.1729 -0.1888
  376SOL    HW1 1127   3.196   2.553   1.821  1.7113 -0.3887  1.5904
  376SOL    HW2 1128   3.026   2.543   1.818 -0.7288 -1.2678  1.0760
  377SOL     OW 1129   1.159   0.445   2.961 -0.7092 -0.0353  0.4154
  377SOL    HW1 1130   1.130   0.351   2.989 -2.3164 -1.3701  0.7633
  377SOL    HW2 1131   1.222   0.440   2.880 -2.0556 -1.5173 -0.6366
  378SOL     OW 1132   3.233   1.159   3.079  0.6870 -0.3827 -0.1702
  378SOL    HW1 1133   3.313   1.101   3.056  1.6201  0.8927  0.1805
  378SOL    HW2 1134   3.152   1.128   3.026 -1.5943 -2.4570  0.7619
  379SOL     OW 1135   1.509   0.711   2.773  0.4118  0.0380 -0.1696
  379SOL    HW1 1136   1.444   0.694   2.696 -2.4883 -2.1780  0.4285
  379SOL    HW2 1137   1.474   0.784   2.838  0.1538  0.8441 -0.7907
  380SOL     OW 1138   0.265   2.197   1.698 -0.1972 -0.4300 -0.3994
  380SOL    HW1 1139   0.327   2.249   1.761  0.3205 -3.0867  2.1360
  380SOL    HW2 1140   0.174   2.191   1.743 -1.0474  0.7088 -0.0697
  381SOL     OW 1141   3.305   1.439   3.038  0.1362  0.7900 -0.5804
  381SOL    HW1 1142   3.337   1.451   2.942  2.5106 -0.1821 -0.3800
  381SOL    HW2 1143   3.278   1.341   3.053 -1.7239  1.0305  0.9556
  382SOL     OW 1144   2.124   2.357   0.721 -0.2786 -0.1791  0.0599
  382SOL    HW1 1145   2.041   2.307   0.684 -1.3939 -2.2283 -0.7787
  382SOL    HW2 1146   2.113   2.362   0.823 -3.3832  1.5805  2.8420
  383SOL     OW 1147   0.667   1.819   0.235 -0.4023 -0.4839  0.3740
  383SOL    HW1 1148   0.751   1.827   0.180  1.7810  1.6609  1.6310
  383SOL    HW2 1149   0.686   1.750   0.309  0.9819  3.1699 -1.9412
  384SOL     OW 1150   0.886   2.625   2.600 -0.4557  0.0402 -0.0699
  384SOL    HW1 1151   0.789   2.655   2.583 -0.6402  2.0523 -0.6947
  384SOL    HW2 1152   0.883   2.525   2.621 -0.8566  2.3712  1.9041
  385SOL     OW 1153   2.597   2.129   0.690  0.1559 -0.2954 -0.5744
  385SOL    HW1 1154   2.536   2.211   0.688 -0.8276 -0.3986 -0.9778
  385SOL    HW2 1155   2.681   2.143   0.633 -0.0330  0.4885 -1.5644
  386SOL     OW 1156   2.589   0.597   1.059 -0.3228 -0.1710  0.0123
  386SOL    HW1 1157   2.554   0.505   1.088 -0.1809  0.5436 -1.9397
  386SOL    HW2 1158   2.548   0.627   0.970  1.3370  2.3908 -0.5119
  387SOL     OW 1159   0.740   1.074   2.182 -0.0826  0.3743  0.3394
  387SOL    HW1 1160   0.677   1.107   2.255 -0.6285  0.6172 -2.8259
  387SOL    HW2 1161   0.689   1.078   2.093 -1.5316  1.6760 -0.0700
  388SOL     OW 1162   1.116   1.596   2.684 -0.3415  0.4867  0.4290
  388SOL    HW1 1163   1.036   1.658   2.674 -3.0726  0.4795  1.9773
  388SOL    HW2 1164   1.205   1.645   2.676 -0.3317  1.1417 -0.0401
  389SOL     OW 1165   1.119   1.377   1.907 -0.3873 -0.2152  0.3696
  389SOL    HW1 1166   1.071   1.287   1.915 -0.3112  3.3547  0.0364
  389SOL    HW2 1167   1.090   1.430   1.826 -1.1882 -3.2183 -1.6310
  390SOL     OW 1168   0.030   3.295   1.126  0.2659  0.0899 -0.4386
  390SOL    HW1 1169  -0.064   3.284   1.089  0.7455  1.3088 -0.9103
  390SOL    HW2 1170   0.081   3.365   1.072 -2.4824  1.8852 -1.1290
  391SOL     OW 1171   1.669   1.360   1.170 -0.4166  0.1974  0.0572
  391SOL    HW1 1172   1.644   1.340   1.072 -0.5201 -1.0102 -0.9325
  391SOL    HW2 1173   1.753   1.416   1.183 -0.5548 -0.1028 -2.8333
  392SOL     OW 1174   3.133   3.308   0.213  0.4934 -0.3977 -0.1781
  392SOL    HW1 1175   3.222   3.287   0.169 -1.7407 -1.1853  0.2893
  392SOL    HW2 1176   3.077   3.222   0.222  1.2458  0.4690 -0.9168
  393SOL     OW 1177   1.694   2.344   3.234  0.1630 -0.3551  0.6633
  393SOL    HW1 1178   1.705   2.246   3.208  1.6427 -1.3804  1.6630
  393SOL    HW2 1179   1.615   2.350   3.299 -0.7400  0.5662  0.3491
  394SOL     OW 1180   0.020   2.662   2.990 -0.4433 -0.3724 -0.0711
  394SOL    HW1 1181   0.039   2.656   2.890  2.3919 -0.5502 -1.7239
  394SOL    HW2 1182  -0.048   2.590   3.013 -1.8809 -1.5313  0.3906
  395SOL     OW 1183   0.161   0.151   0.965  0.1599 -1.0135 -0.6706
  395SOL    HW1 1184   0.208   0.234   1.003 -0.3948 -0.1261  3.1451
  395SOL    HW2 1185   0.229   0.081   0.933 -1.7030 -0.7283 -0.4265
  396SOL     OW 1186   2.360   0.625   0.544  0.0053 -0.5454 -0.5497
  396SOL    HW1 1187   2.279   0.601   0.485 -4.2815 -0.8591 -1.8648
  396SOL    HW2 1188   2.446   0.594   0.498 -0.9212 -3.9419 -1.8790
  397SOL     OW 1189   0.165   0.758   2.787 -0.1848  0.8176  0.5939
  397SOL    HW1 1190   0.114   0.773   2.876  2.0328 -0.3304 -0.8916
  397SOL    HW2 1191   0.159   0.845   2.734  1.0511 -1.8212  0.3044
  398SOL     OW 1192   0.635   0.165   3.265  0.2152  0.1537 -0.4290
  398SOL    HW1 1193   0.569   0.157   3.187 -2.6179 -4.1580 -1.4518
  398SOL    HW2 1194   0.721   0.215   3.239  0.9691 -2.1220  1.2857
  399SOL     OW 1195   2.209   0.292   2.251 -0.0580  0.4087 -0.7741
  399SOL    HW1 1196   2.153   0.214   2.288 -0.6657  1.7491 -0.8411
  399SOL    HW2 1197   2.235   0.274   2.154  0.2592 -1.6401  1.3473
  400SOL     OW 1198   1.057   2.348   3.114 -0.2265 -0.3058  0.0847
  400SOL    HW1 1199   1.072   2.369   3.016  0.0744  1.5215  1.0540
  400SOL    HW2 1200   1.032   2.433   3.165 -1.0830 -0.0054 -0.1508
  401SOL     OW 1201   0.358   1.315   2.665  0.0284  0.6077 -0.2951
  401SOL    HW1 1202   0.303   1.291   2.582  1.1407  1.0669  0.3771
  401SOL    HW2 1203   0.299   1.370   2.727 -0.3229  2.7719  0.9128
  402SOL     OW 1204   0.127   0.090   0.408 -0.1016 -0.0771  0.3238
  402SOL    HW1 1205   0.127  -0.006   0.444 -0.7254  0.8022 -2.6842
  402SOL    HW2 1206   0.032   0.129   0.417 -3.0579 -2.4187  1.0624
  403SOL     OW 1207   0.330   1.325   1.685  0.1662  0.8001  0.5246
  403SOL    HW1 1208   0.427   1.297   1.671 -1.3590  2.8186  1.7157
  403SOL    HW2 1209   0.276   1.327   1.599 -1.4957 -0.0463 -0.4352
  404SOL     OW 1210   2.473   2.710   2.797  0.6735 -0.1118  0.3171
  404SOL    HW1 1211   2.402   2.759   2.852 -0.4760 -0.8275 -1.0251
  404SOL    HW2 1212   2.428   2.636   2.741 -1.8387 -0.9832  0.6003
  405SOL     OW 1213   0.224   0.479   2.203 -0.8852 -0.1514  0.2796
  405SOL    HW1 1214   0.150   0.413   2.229 -0.1679 -0.2011 -3.1246
  405SOL    HW2 1215   0.232   0.480   2.101 -1.1898  1.6296 -1.6352
  406SOL     OW 1216   1.348   1.633   3.113 -0.0387 -0.0730 -0.1162
  406SOL    HW1 1217   1.413   1.704   3.078  1.5917 -0.9961 -1.2532
  406SOL    HW2 1218   1.344   1.640   3.215 -1.9467  2.0806  0.8451
  407SOL     OW 1219   2.152   0.453   2.708  0.0246  0.2484 -0.2531
  407SOL    HW1 1220   2.127   0.361   2.670  2.8654 -0.2816  0.7009
  407SOL    HW2 1221   2.070   0.510   2.727  1.2576 -2.4067 -1.8949
  408SOL     OW 1222   0.483   2.952   2.509  0.4896  0.6622  0.6954
  408SOL    HW1 1223   0.392   2.930   2.550  0.5893 -0.4047  1.3215
  408SOL    HW2 1224   0.473   3.020   2.434 -1.5878  1.6559  0.5883
  409SOL     OW 1225   3.270   2.762   1.413 -0.2866 -0.1872  0.4189
  409SOL    HW1 1226   3.296   2.855   1.449  0.2202 -1.7967 -2.3272
  409SOL    HW2 1227   3.193   2.724   1.467  1.0478  2.0158 -1.7650
  410SOL     OW 1228   3.190   1.887   0.412  0.1383  0.4511  0.2410
  410SOL    HW1 1229   3.279   1.934   0.392  1.0810  0.0267 -0.1188
  410SOL    HW2 1230   3.205   1.786   0.410  0.2908 -0.9279  0.1502
  411SOL     OW 1231   2.661   0.128   1.650  1.0864  0.4662  0.1780
  411SOL    HW1 1232   2.571   0.171   1.636  0.0254 -0.2884 -0.0001
  411SOL    HW2 1233   2.650   0.034   1.690  2.4409 -3.0867  0.2454
  412SOL     OW 1234   2.437   0.416   1.694  0.3243 -0.1615  0.2508
  412SOL    HW1 1235   2.373   0.341   1.663 -2.1700  2.7856 -0.5828
  412SOL    HW2 1236   2.409   0.502   1.648 -0.0787 -0.0875 -1.3981
  413SOL     OW 1237   3.271   0.473   2.612 -0.6153 -0.1926 -0.4046
  413SOL    HW1 1238   3.296   0.570   2.632  0.6655 -1.0726 -0.7755
  413SOL    HW2 1239   3.311   0.412   2.684 -0.7071 -4.2586 -0.7525
  414SOL     OW 1240   2.927   1.523   0.314 -0.6748 -0.0441  0.1376
  414SOL    HW1 1241   2.887   1.444   0.365  0.6936  0.2398 -2.5237
  414SOL    HW2 1242   2.904   1.606   0.368  0.7492  0.6079  1.0866
  415SOL     OW 1243   0.861   2.697   0.173  0.3742  0.0485 -0.3370
  415SOL    HW1 1244   0.908   2.789   0.176  0.5344  2.1444 -0.4074
  415SOL    HW2 1245   0.883   2.645   0.258  2.2560  2.1269 -0.6431
  416SOL     OW 1246   1.591   2.907   2.812  0.3356  0.2525  1.0455
  416SOL    HW1 1247   1.539   2.841   2.870 -2.7709  0.9090  1.2937
  416SOL    HW2 1248   1.681   2.936   2.851 -0.8199  0.4327  0.0874
  417SOL     OW 1249   0.280   1.069   1.355 -0.3226 -0.1606 -0.4711
  417SOL    HW1 1250   0.273   1.053   1.253  0.5851 -3.1637  1.2703
  417SOL    HW2 1251   0.373   1.052   1.392  1.5900  1.2302 -0.0128
  418SOL     OW 1252   2.852   0.090   0.780 -0.2700  0.4324 -0.4078
  418SOL    HW1 1253   2.760   0.045   0.775  0.3010 -1.4803  0.9151
  418SOL    HW2 1254   2.874   0.110   0.877  0.8415  1.2533 -1.8805
  419SOL     OW 1255   0.292   0.017   0.191  0.1808  0.1665 -0.6881
  419SOL    HW1 1256   0.233   0.053   0.267  2.5434 -1.8384  1.6451
  419SOL    HW2 1257   0.387   0.000   0.224  0.7629  2.1896  0.8211
  420SOL     OW 1258   0.131   1.298   1.427 -0.0147  0.4452  0.2896
  420SOL    HW1 1259   0.189   1.219   1.397 -1.9083  0.8353 -1.3194
  420SOL    HW2 1260   0.038   1.262   1.451  1.4088 -0.9445 -0.3493
  421SOL     OW 1261   1.918   2.828   0.711  0.1371 -0.4974 -0.0695
  421SOL    HW1 1262   1.955   2.742   0.670  2.4217  0.1339 -0.8773
  421SOL    HW2 1263   1.828   2.811   0.757  1.0959 -0.6064 -1.8263
  422SOL     OW 1264   0.195   0.422   1.638  0.4225  0.1101 -0.4556
  422SOL    HW1 1265   0.255   0.401   1.557  1.2109  0.8499 -0.8990
  422SOL    HW2 1266   0.119   0.484   1.609 -0.7129 -1.6025 -0.5329
  423SOL     OW 1267   1.119   1.496   2.172  0.3692 -0.6107  0.1222
  423SOL    HW1 1268   1.132   1.452   2.080  2.6300 -1.0156  0.0324
  423SOL    HW2 1269   1.122   1.598   2.163  2.9450  4.8971  0.1459
  424SOL     OW 1270   1.871   2.256   0.655  0.3527  0.6916 -0.1180
  424SOL    HW1 1271   1.835   2.230   0.563 -1.6198  0.7284  0.3200
  424SOL    HW2 1272   1.825   2.204   0.730  0.7350  1.7647  1.9662
  425SOL     OW 1273   3.097   3.122   2.211  0.5654 -0.2075  0.5893
  425SOL    HW1 1274   2.999   3.114   2.239 -0.1884  1.9475  2.5159
  425SOL    HW2 1275   3.109   3.194   2.138 -2.9778  0.0274 -1.3599
  426SOL     OW 1276   0.369   3.112   2.912  0.0770  0.0404  0.1743
  426SOL    HW1 1277   0.335   3.119   3.008  2.3659  0.1697  0.6197
  426SOL    HW2 1278   0.293   3.137   2.849 -3.1898 -0.2396 -2.4506
  427SOL     OW 1279   1.117   3.282   0.073 -0.2783  0.0816  0.4689
  427SOL    HW1 1280   1.037   3.310   0.131  0.6584 -0.7894 -1.4422
  427SOL    HW2 1281   1.090   3.201   0.016  4.2028  0.8282 -1.8367
  428SOL     OW 1282   3.056   0.535   1.642 -0.3323 -0.7173  0.2690
  428SOL    HW1 1283   3.069   0.440   1.678 -2.4790 -1.9611 -0.1787
  428SOL    HW2 1284   2.985   0.535   1.568  2.0581 -0.8391  1.0290
  429SOL     OW 1285   2.241   3.181   0.588 -0.4479 -0.1569 -0.5428
  429SOL    HW1 1286   2.202   3.094   0.548  1.5395  1.1364 -1.9196
  429SOL    HW2 1287   2.336   3.198   0.555 -1.9008 -0.1217 -2.3529
  430SOL     OW 1288   1.179   1.456   2.954  0.4237 -0.7382 -0.1431
  430SOL    HW1 1289   1.239   1.518   3.010 -1.0812  1.1044  1.1467
  430SOL    HW2 1290   1.155   1.502   2.866 -1.6583 -1.2872  0.4678
  431SOL     OW 1291   2.971   2.425   1.284  0.5838 -0.1278 -0.3721
  431SOL    HW1 1292   3.072   2.434   1.274  3.1571  2.5357  0.6762
  431SOL    HW2 1293   2.939   2.382   1.197 -1.6342 -0.7937 -0.8136
  432SOL     OW 1294   1.707   2.547   3.027 -0.1363 -0.9154  0.3315
  432SOL    HW1 1295   1.750   2.518   2.940 -0.7591  2.6627 -0.5109
  432SOL    HW2 1296   1.697   2.472   3.096 -0.3260  0.6423 -0.3899
  433SOL     OW 1297   1.331   0.425   2.749  0.2978 -0.9502  0.1343
  433SOL    HW1 1298   1.337   0.449   2.650  0.0017 -1.5359 -0.2354
  433SOL    HW2 1299   1.422   0.418   2.798 -0.8572 -2.0756 -0.7080
  434SOL     OW 1300   1.380   2.991   2.309 -0.3644 -0.2174  0.0371
  434SOL    HW1 1301   1.410   3.003   2.407  0.5000 -0.6819 -0.0898
  434SOL    HW2 1302   1.464   2.955   2.262 -1.4721  0.1810 -0.0104
  435SOL     OW 1303   0.275   0.059   3.245 -0.2783 -0.0125 -0.3750
  435SOL    HW1 1304   0.293   0.051   3.346 -0.0165  1.6353 -1.1215
  435SOL    HW2 1305   0.202   0.129   3.230  1.6357  0.7204  1.9026
  436SOL     OW 1306   0.639   1.345   2.612  0.0821 -0.4507 -0.0298
  436SOL    HW1 1307   0.539   1.347   2.637  0.5233  1.9180  1.7359
  436SOL    HW2 1308   0.661   1.412   2.538  2.4043  1.5976  1.5330
  437SOL     OW 1309   1.279   2.629   2.766  0.2084 -0.0452 -0.2623
  437SOL    HW1 1310   1.318   2.604   2.675 -0.4451  0.2565 -2.5699
  437SOL    HW2 1311   1.207   2.702   2.756  0.0885 -0.2246  0.8429
  438SOL     OW 1312   0.646   0.928   0.728 -0.3299  0.4228 -0.1795
  438SOL    HW1 1313   0.597   0.881   0.804 -0.5604 -0.1883 -2.8701
  438SOL    HW2 1314   0.705   0.859   0.682  1.8977  2.8629 -0.9869
  439SOL     OW 1315   3.262   1.632   2.237  0.4984  0.7314  0.4066
  439SOL    HW1 1316   3.189   1.573   2.277 -0.9326 -0.4075 -3.3764
  439SOL    HW2 1317   3.234   1.730   2.228 -2.6131  0.4832 -1.1870
  440SOL     OW 1318   3.051   0.831   2.975 -0.1892 -0.2262 -0.7386
  440SOL    HW1 1319   3.014   0.763   2.909 -0.4831  1.5337 -1.8820
  440SOL    HW2 1320   3.006   0.922   2.965 -1.3238  0.4835  0.3330
  441SOL     OW 1321   0.677   1.959   1.541 -0.0056 -0.7435  0.0620
  441SOL    HW1 1322   0.577   1.946   1.544 -0.8177 -1.6795 -0.4472
  441SOL    HW2 1323   0.698   2.044   1.594 -1.2135  1.4080  0.5908
  442SOL     OW 1324   2.084   1.538   0.804  0.4936  0.3551  0.1387
  442SOL    HW1 1325   2.090   1.509   0.707 -0.9263  0.1152  0.4265
  442SOL    HW2 1326   1.999   1.592   0.821 -0.7137 -1.5332  0.3550
  443SOL     OW 1327   2.579   2.287   3.221 -0.3128  0.3133 -0.6250
  443SOL    HW1 1328   2.517   2.220   3.176  3.5172 -0.0910 -0.5225
  443SOL    HW2 1329   2.672   2.292   3.178  0.4018  0.5803  0.9052
  444SOL     OW 1330   1.857   1.572   3.199  0.2388 -0.3590  0.1114
  444SOL    HW1 1331   1.810   1.660   3.217 -0.6623 -0.3385 -1.6335
  444SOL    HW2 1332   1.831   1.532   3.108 -0.5112 -1.0129  0.5358
  445SOL     OW 1333   0.454   2.357   2.166  0.8646  0.3296 -0.1318
  445SOL    HW1 1334   0.517   2.435   2.187 -0.7457 -1.3897  4.6831
  445SOL    HW2 1335   0.378   2.357   2.234 -2.8328 -2.6013  2.0156
  446SOL     OW 1336   1.024   1.111   1.933  0.6812  0.3694  0.3764
  446SOL    HW1 1337   1.115   1.067   1.915 -1.5613  1.2904 -3.3056
  446SOL    HW2 1338   0.977   1.071   2.012 -0.7785  0.9811 -1.4857
  447SOL     OW 1339   0.795   0.723   0.592 -0.3265  0.5015 -0.6833
  447SOL    HW1 1340   0.717   0.669   0.553 -2.0443 -0.1746 -1.2668
  447SOL    HW2 1341   0.865   0.750   0.521  1.6415  0.9152  1.1614
  448SOL     OW 1342   1.459   1.130   2.170 -0.3157 -0.0769  0.7256
  448SOL    HW1 1343   1.423   1.191   2.096  1.0183 -3.5636 -1.8964
  448SOL    HW2 1344   1.551   1.093   2.145  0.8330  2.1215  0.2830
  449SOL     OW 1345   0.184   1.730   2.601  0.2282 -0.3538  0.0923
  449SOL    HW1 1346   0.145   1.769   2.688 -0.5072 -0.4403 -0.5078
  449SOL    HW2 1347   0.174   1.798   2.526  2.2689 -4.2200 -0.2615
  450SOL     OW 1348   2.362   1.514   2.073 -0.1265 -0.1620  0.0540
  450SOL    HW1 1349   2.353   1.587   2.144  1.2890  2.1627  1.3822
  450SOL    HW2 1350   2.457   1.510   2.033 -0.9530  1.3088 -4.1748
  451SOL     OW 1351   2.557   1.558   1.464 -0.3161  0.2904 -0.0116
  451SOL    HW1 1352   2.596   1.481   1.518  2.0846 -0.9952 -0.9616
  451SOL    HW2 1353   2.609   1.576   1.378 -0.3148 -0.2838  0.1147
  452SOL     OW 1354   0.831   1.070   1.433  0.2972  0.5687  0.2741
  452SOL    HW1 1355   0.850   1.057   1.533  2.1438 -0.2731  1.7345
  452SOL    HW2 1356   0.918   1.089   1.385 -1.3393  2.1826 -2.1244
  453SOL     OW 1357   0.318   2.186   1.089  0.2936 -0.0469 -0.0673
  453SOL    HW1 1358   0.229   2.189   1.140  0.5675 -2.5690 -0.4322
  453SOL    HW2 1359   0.317   2.160   0.991  0.0900 -1.1008  1.4602
  454SOL     OW 1360   1.293   1.348   0.299 -0.2283 -0.2245  0.1306
  454SOL    HW1 1361   1.376   1.407   0.285 -0.6127  0.4235  0.0357
  454SOL    HW2 1362   1.310   1.289   0.381  1.2083 -3.4193 -3.8330
  455SOL     OW 1363   1.954   0.503   0.887 -0.3278 -0.7888  0.1918
  455SOL    HW1 1364   1.958   0.405   0.855 -0.4349 -1.4978 -1.4588
  455SOL    HW2 1365   1.987   0.569   0.818 -0.3331 -0.0102  1.5188
  456SOL     OW 1366   1.971   3.096   0.280 -0.0152 -0.3133  0.0168
  456SOL    HW1 1367   1.905   3.025   0.245  1.6225 -0.2621 -2.4514
  456SOL    HW2 1368   1.927   3.187   0.296 -0.1012  0.6806 -0.0578
  457SOL     OW 1369   2.246   1.258   2.177  0.1505 -0.2574  0.5024
  457SOL    HW1 1370   2.279   1.345   2.134  0.8460 -0.4015 -1.9990
  457SOL    HW2 1371   2.286   1.250   2.271  0.0868  1.3546  1.0912
  458SOL     OW 1372   2.738   0.551   2.573  0.1945 -0.3089  0.0723
  458SOL    HW1 1373   2.647   0.579   2.613 -2.1851  0.8607 -0.6327
  458SOL    HW2 1374   2.755   0.609   2.490 -0.3768 -0.4685  0.4628
  459SOL     OW 1375   2.655   1.694   2.793 -0.6877  0.4855 -0.0334
  459SOL    HW1 1376   2.728   1.700   2.863 -0.7203  1.2318 -2.7438
  459SOL    HW2 1377   2.644   1.598   2.759  1.2330 -3.1269 -0.9697
  460SOL     OW 1378   1.049   0.967   2.709 -0.3196 -0.6136  0.0657
  460SOL    HW1 1379   1.086   1.034   2.641 -0.0763  1.1265  0.6109
  460SOL    HW2 1380   1.054   1.005   2.803  0.4196  0.4079 -0.3869
  461SOL     OW 1381   0.093   2.531   0.195  0.0336 -0.4104 -0.0656
  461SOL    HW1 1382   0.168   2.594   0.224  2.6550 -3.1886  3.5008
  461SOL    HW2 1383   0.007   2.582   0.178  0.2857 -0.3318  1.0660
  462SOL     OW 1384   1.505   3.024   2.571 -0.7020  0.1469 -0.0244
  462SOL    HW1 1385   1.531   2.970   2.654 -0.1710 -0.6428  4.3955
  462SOL    HW2 1386   1.578   3.092   2.550 -0.5952 -1.3289  0.7550
  463SOL     OW 1387   2.252   2.307   2.104 -0.4063 -0.1602  0.3368
  463SOL    HW1 1388   2.186   2.229   2.107 -1.3075 -0.4455 -1.9834
  463SOL    HW2 1389   2.345   2.274   2.128 -1.9814  0.6095  0.2583
  464SOL     OW 1390   2.786   2.653   0.835 -0.2529 -0.4666 -0.2654
  464SOL    HW1 1391   2.688   2.632   0.813 -1.7113  1.0696  0.8779
  464SOL    HW2 1392   2.803   2.752   0.852 -1.7900 -1.4936 -0.9578
  465SOL     OW 1393   0.001   0.160   1.594  0.1715 -0.1208  0.0492
  465SOL    HW1 1394   0.046   0.104   1.520  3.1757  0.1291 -0.7258
  465SOL    HW2 1395   0.071   0.191   1.660  0.7837 -0.2728 -0.8295
  466SOL     OW 1396   1.468   2.714   2.979 -0.1094  0.1393 -0.3695
  466SOL    HW1 1397   1.547   2.653   3.003  0.5456  1.8881 -2.1674
  466SOL    HW2 1398   1.400   2.675   2.914  0.3251  1.3282  1.9699
  467SOL     OW 1399   0.005   2.259   0.269  0.5051  0.1116 -0.2271
  467SOL    HW1 1400  -0.066   2.235   0.199  3.6462 -0.8636  1.3473
  467SOL    HW2 1401   0.033   2.356   0.256  0.6519  0.8424 -1.8780
  468SOL     OW 1402   2.248   2.502   3.072 -0.0049  0.0567 -0.2331
  468SOL    HW1 1403   2.300   2.448   3.002  1.8558 -1.7649 -2.0029
  468SOL    HW2 1404   2.171   2.552   3.028  0.1679 -0.2118  0.6840
  469SOL     OW 1405   0.951   2.016   0.779 -0.0240  0.5740 -0.1775
  469SOL    HW1 1406   0.894   2.039   0.860  0.0833  0.4597 -0.8373
  469SOL    HW2 1407   1.007   2.095   0.749 -1.1318  2.0229  0.2314
  470SOL     OW 1408   2.119   0.738   0.723  0.2906  0.0237 -0.1866
  470SOL    HW1 1409   2.189   0.700   0.659  0.7013  0.9991  0.4758
  470SOL    HW2 1410   2.155   0.774   0.811 -1.8002 -4.2894 -0.8959
  471SOL     OW 1411   0.336   2.019   0.563  0.6085  0.6486  0.0067
  471SOL    HW1 1412   0.415   2.018   0.498 -0.2340  0.6350  2.5568
  471SOL    HW2 1413   0.340   2.103   0.623 -0.2504 -1.4207 -0.4136
  472SOL     OW 1414   2.837   2.315   3.130 -0.5518 -0.2234 -0.3814
  472SOL    HW1 1415   2.898   2.358   3.199  0.9320 -1.5020 -1.4038
  472SOL    HW2 1416   2.871   2.333   3.035  0.4117 -1.1312  2.9134
  473SOL     OW 1417   1.541   1.921   0.826 -0.1962  0.6347  0.0461
  473SOL    HW1 1418   1.618   1.988   0.827  3.3806 -1.0215 -0.1251
  473SOL    HW2 1419   1.501   1.921   0.731  0.0251 -3.8055  2.4567
  474SOL     OW 1420   3.066   0.505   1.244 -0.1807 -0.0004 -0.3134
  474SOL    HW1 1421   3.039   0.480   1.149  0.3229 -0.1177  2.4576
  474SOL    HW2 1422   3.133   0.437   1.281  1.2428  0.8721  2.2747
  475SOL     OW 1423   3.131   3.300   1.994  0.8039  0.7634 -0.4832
  475SOL    HW1 1424   3.141   3.264   1.900 -2.9749  1.4528  2.2250
  475SOL    HW2 1425   3.064   3.378   1.986  0.5821  2.2229  0.8782
  476SOL     OW 1426   0.605   0.301   0.998 -0.8251  0.0123  0.3101
  476SOL    HW1 1427   0.656   0.388   0.976  2.0794  1.9480 -1.7986
  476SOL    HW2 1428   0.586   0.251   0.910 -0.1665  0.6953 -0.8871
  477SOL     OW 1429   1.303   2.677   1.258  0.0073  0.3670  0.2356
  477SOL    HW1 1430   1.294   2.681   1.360 -0.8924  0.7478 -0.9342
  477SOL    HW2 1431   1.401   2.655   1.242 -0.9518  0.6213  1.4060
  478SOL     OW 1432   1.288   2.895   0.102 -0.2683  0.2061  0.2505
  478SOL    HW1 1433   1.306   2.905   0.002 -1.4028 -0.9133 -0.2189
  478SOL    HW2 1434   1.345   2.961   0.154  0.5624  0.5990 -1.4857
  479SOL     OW 1435   2.749   1.258   2.324 -0.0830 -0.3483 -0.0787
  479SOL    HW1 1436   2.682   1.192   2.367 -2.2318  0.0707  0.7416
  479SOL    HW2 1437   2.776   1.229   2.230  0.2243  0.1913  1.9066
  480SOL     OW 1438   2.920   2.425   2.881  0.0979 -0.3784 -0.0867
  480SOL    HW1 1439   2.943   2.403   2.783 -1.6137 -0.2731 -0.6024
  480SOL    HW2 1440   2.829   2.472   2.885  1.9852 -1.2343 -0.5647
  481SOL     OW 1441   1.749   2.873   1.776  0.6336  0.7646  0.4154
  481SOL    HW1 1442   1.834   2.827   1.809  0.2396  1.2628 -2.9333
  481SOL    HW2 1443   1.754   2.898   1.676 -2.1712  0.8336  2.7202
  482SOL     OW 1444   1.670   2.405   2.457  0.1548 -0.1829  1.2774
  482SOL    HW1 1445   1.636   2.366   2.369  2.1692 -0.0535  2.0937
  482SOL    HW2 1446   1.687   2.505   2.448 -1.7069 -2.1844  2.3082
  483SOL     OW 1447   1.304   2.910   3.141 -0.1572  0.4932 -0.1655
  483SOL    HW1 1448   1.266   2.950   3.054  0.2883  0.5655 -2.4359
  483SOL    HW2 1449   1.368   2.836   3.111 -1.6612  2.0881  1.5346
  484SOL     OW 1450   2.632   3.209   1.778 -0.3720  0.2591 -0.0876
  484SOL    HW1 1451   2.539   3.167   1.790  2.5461 -0.7622 -2.2978
  484SOL    HW2 1452   2.698   3.132   1.762 -1.0970 -0.6381  1.1731
  485SOL     OW 1453   2.142   0.571   0.373  0.1954  0.7146  0.0049
  485SOL    HW1 1454   2.113   0.656   0.325 -0.3539 -0.9347  1.4305
  485SOL    HW2 1455   2.062   0.517   0.407 -1.5707 -0.8920 -3.0171
  486SOL     OW 1456   2.560   2.933   2.656  0.1063  0.1518 -0.5903
  486SOL    HW1 1457   2.604   3.002   2.718  0.7992 -0.2364 -1.3508
  486SOL    HW2 1458   2.533   2.847   2.704 -0.7850  2.6627  0.5693
  487SOL     OW 1459   1.306   0.909   0.801 -0.1025  0.1604 -0.0546
  487SOL    HW1 1460   1.255   0.941   0.718  0.0263  1.9393 -1.2250
  487SOL    HW2 1461   1.240   0.900   0.879 -0.5919 -0.8494 -1.7678
  488SOL     OW 1462   2.888   3.139   2.550 -0.9936  0.3477 -0.3640
  488SOL    HW1 1463   2.863   3.120   2.453  0.6399 -2.1870  1.1928
  488SOL    HW2 1464   2.844   3.228   2.573  0.0352 -0.6882  2.2502
  489SOL     OW 1465   1.293   2.959   0.476 -0.4751  0.1333  0.2366
  489SOL    HW1 1466   1.250   3.033   0.532 -3.2642  0.1061 -0.4151
  489SOL    HW2 1467   1.231   2.877   0.479 -0.2902 -2.6061  0.2704
  490SOL     OW 1468   1.695   0.712   3.236  0.3541 -0.0568 -0.5179
  490SOL    HW1 1469   1.710   0.763   3.150 -0.9582  1.7337  1.4945
  490SOL    HW2 1470   1.597   0.713   3.268  0.4789  0.3715  0.8272
  491SOL     OW 1471   1.000   0.050   1.323  0.5223 -0.7367  0.4732
  491SOL    HW1 1472   0.917   0.092   1.281 -0.8669  4.7593  2.1996
  491SOL    HW2 1473   0.981   0.018   1.419 -4.3461 -1.2209 -1.0427
  492SOL     OW 1474   1.747   2.936   0.208 -0.4968  0.0199 -0.1725
  492SOL    HW1 1475   1.681   2.908   0.281  0.5708 -0.3103 -0.6763
  492SOL    HW2 1476   1.691   2.996   0.149 -1.5472  3.0286  1.5765
  493SOL     OW 1477   1.097   2.100   3.230 -0.0610  0.2995  0.4770
  493SOL    HW1 1478   1.123   2.038   3.153 -0.4491 -2.2880  0.5105
  493SOL    HW2 1479   1.078   2.193   3.191  1.1964 -0.1814  0.0573
  494SOL     OW 1480   0.829   0.320   0.539  0.0889  0.2890  0.2904
  494SOL    HW1 1481   0.740   0.310   0.488 -2.5743 -0.3287 -2.1396
  494SOL    HW2 1482   0.873   0.409   0.517  0.2224 -0.1616 -0.1808
  495SOL     OW 1483   2.965   0.187   1.964 -1.0521  0.0390 -0.0369
  495SOL    HW1 1484   3.002   0.225   1.877 -1.5378  2.3954  0.1776
  495SOL    HW2 1485   2.965   0.262   2.034  1.2458  1.0922 -1.0106
  496SOL     OW 1486   2.498   2.056   2.620  0.7525  0.0967  0.4711
  496SOL    HW1 1487   2.447   2.045   2.532 -0.7612 -1.2835 -0.2829
  496SOL    HW2 1488   2.590   2.014   2.605 -1.3868 -0.7315 -1.2562
  497SOL     OW 1489   1.684   1.245   2.939 -1.0890  0.7642 -0.0828
  497SOL    HW1 1490   1.763   1.305   2.916 -0.9863 -0.6616  1.8061
  497SOL    HW2 1491   1.616   1.291   3.000  0.4647 -0.1496  0.7357
  498SOL     OW 1492   0.820   3.008   1.346 -0.0138 -0.1512  0.2219
  498SOL    HW1 1493   0.751   3.078   1.318  0.6621 -1.9799  2.3465
  498SOL    HW2 1494   0.777   2.916   1.346  0.1915  3.5577 -3.0782
  499SOL     OW 1495   0.062   2.166   1.201 -0.3861  0.5150  0.1791
  499SOL    HW1 1496   0.006   2.136   1.120 -0.4723 -0.8085 -0.1428
  499SOL    HW2 1497   0.043   2.101   1.277 -0.6469 -0.2103 -1.2661
  500SOL     OW 1498   0.730   2.905   2.916  0.1489 -0.0613  0.3542
  500SOL    HW1 1499   0.634   2.874   2.932 -0.4513 -0.9703  0.9614
  500SOL    HW2 1500   0.741   2.945   2.822 -2.5442 -0.7190 -1.3140
  501SOL     OW 1501   1.805   3.323   0.037 -0.2275 -0.1565 -0.2232
  501SOL    HW1 1502   1.861   3.408   0.044  1.1289 -1.7081  2.3688
  501SOL    HW2 1503   1.752   3.303   0.122  2.2526 -0.0231  1.3008
  502SOL     OW 1504   3.258   0.126   0.807 -0.2751  0.2980 -0.0709
  502SOL    HW1 1505   3.222   0.214   0.771  0.0926 -2.3036  0.6153
  502SOL    HW2 1506   3.345   0.142   0.859  0.1641  1.0134  0.1473
  503SOL     OW 1507   2.137   3.140   2.329  0.1393 -0.1051 -0.0987
  503SOL    HW1 1508   2.205   3.100   2.392  1.0852 -1.7814 -1.2309
  503SOL    HW2 1509   2.049   3.089   2.343 -0.8921  0.3174  1.8268
  504SOL     OW 1510   2.630   1.557   1.975 -0.4677  0.1669 -0.2898
  504SOL    HW1 1511   2.605   1.641   1.922  0.3371 -0.5989 -1.0911
  504SOL    HW2 1512   2.692   1.494   1.923  2.4548 -0.4388 -2.2287
  505SOL     OW 1513   1.869   3.014   2.398  0.2984 -0.5570 -0.2011
  505SOL    HW1 1514   1.822   3.082   2.457 -1.4688 -2.1591 -2.5515
  505SOL    HW2 1515   1.807   2.982   2.323  0.8360  0.4847  1.9800
  506SOL     OW 1516   0.208   0.746   2.318  0.4567  0.1241  0.0182
  506SOL    HW1 1517   0.213   0.654   2.275  1.5072  0.3560 -2.1494
  506SOL    HW2 1518   0.269   0.742   2.400  0.8915  4.0201 -1.6750
  507SOL     OW 1519   1.892   0.443   0.429  0.5076 -1.0554  0.8029
  507SOL    HW1 1520   1.854   0.530   0.391  1.6357  0.0078  2.1945
  507SOL    HW2 1521   1.817   0.396   0.478 -0.9178  0.8422 -0.0578
  508SOL     OW 1522   2.252   0.532   1.958  0.1345 -0.1564 -0.0076
  508SOL    HW1 1523   2.237   0.615   1.901 -2.7989  0.9388 -0.7194
  508SOL    HW2 1524   2.335   0.543   2.018  0.4529  2.4039 -0.2209
  509SOL     OW 1525   0.711   2.061   3.296 -0.1962 -0.4015 -0.1691
  509SOL    HW1 1526   0.794   2.020   3.341  2.0507 -1.8394  0.5393
  509SOL    HW2 1527   0.631   2.020   3.341  2.2772 -0.5212 -1.8721
  510SOL     OW 1528   0.271   1.008   1.085  0.3410  1.3119  0.0953
  510SOL    HW1 1529   0.186   0.984   1.034 -0.3972 -2.5532  1.3116
  510SOL    HW2 1530   0.331   1.061   1.022 -0.6896  0.8320  0.4325
  511SOL     OW 1531   1.632   1.118   1.321 -0.1227 -0.5931  0.2798
  511SOL    HW1 1532   1.711   1.053   1.313 -1.8330 -0.4750  0.2942
  511SOL    HW2 1533   1.650   1.206   1.273 -1.0927 -0.0927  3.2809
  512SOL     OW 1534   0.367   2.258   0.708  0.6659 -0.5722 -1.0904
  512SOL    HW1 1535   0.310   2.320   0.765 -2.2674 -0.0056 -2.1207
  512SOL    HW2 1536   0.467   2.279   0.718  1.4499 -1.5281 -3.1815
  513SOL     OW 1537   0.260   2.615   1.044 -0.2869 -0.0839  0.4242
  513SOL    HW1 1538   0.213   2.610   1.136 -0.1146 -1.5847  0.5622
  513SOL    HW2 1539   0.279   2.713   1.021 -0.6472 -1.5434 -2.7839
  514SOL     OW 1540   0.646   2.301   0.701  0.0600 -0.1451 -0.3248
  514SOL    HW1 1541   0.716   2.348   0.759  1.3725  1.3075 -1.4989
  514SOL    HW2 1542   0.689   2.259   0.617  1.5310  0.9107 -1.1455
  515SOL     OW 1543   3.207   0.330   3.238 -1.0245 -0.1938  0.2162
  515SOL    HW1 1544   3.126   0.299   3.291  0.3813 -1.1665 -2.1274
  515SOL    HW2 1545   3.254   0.412   3.281 -0.1319 -1.7011 -1.7341
  516SOL     OW 1546   2.343   3.306   1.450 -0.1539  0.6120 -0.1124
  516SOL    HW1 1547   2.283   3.246   1.506  0.0818 -2.6348  0.3902
  516SOL    HW2 1548   2.310   3.305   1.354  0.5980  0.5131  1.3805
  517SOL     OW 1549   1.858   1.697   0.826  0.2037 -0.1608  0.0537
  517SOL    HW1 1550   1.897   1.768   0.764 -1.3075  1.2347  0.1750
  517SOL    HW2 1551   1.831   1.735   0.918 -0.3940  1.2412  0.8998
  518SOL     OW 1552   1.939   3.043   0.890 -0.0742  0.3050  0.1672
  518SOL    HW1 1553   1.893   3.005   0.973  0.9741  0.0085  0.3312
  518SOL    HW2 1554   1.940   2.971   0.817 -0.7690  0.8849  0.4914
  519SOL     OW 1555   3.146   2.691   0.135  0.0015  0.0899  0.1336
  519SOL    HW1 1556   3.108   2.717   0.226  0.2306  3.6167  0.0027
  519SOL    HW2 1557   3.157   2.771   0.073 -1.2795  1.6748  1.3514
  520SOL     OW 1558   2.417   1.746   2.297  0.2700 -0.5904  0.7868
  520SOL    HW1 1559   2.391   1.838   2.333  2.6807 -0.3953  2.0659
  520SOL    HW2 1560   2.400   1.675   2.369  2.8771  2.1103  3.3950
  521SOL     OW 1561   1.598   3.179   2.076  0.7659  0.1620  0.2124
  521SOL    HW1 1562   1.619   3.177   1.976  0.8360 -3.0799 -0.1400
  521SOL    HW2 1563   1.502   3.210   2.089 -0.8259  0.6535  1.0951
  522SOL     OW 1564   0.327   2.773   2.057  0.0908 -0.0679 -0.0237
  522SOL    HW1 1565   0.280   2.714   2.125  0.8031 -1.3241 -0.1486
  522SOL    HW2 1566   0.262   2.846   2.029  2.1444 -0.3323 -1.1723
  523SOL     OW 1567   0.623   2.593   2.282  0.4431 -0.0259 -0.5010
  523SOL    HW1 1568   0.611   2.632   2.376  0.9683  0.3138 -0.5384
  523SOL    HW2 1569   0.628   2.673   2.219  0.5764  0.5767 -0.0666
  524SOL     OW 1570   2.410   2.327   0.385  0.4327  0.0456 -0.0032
  524SOL    HW1 1571   2.342   2.256   0.361 -0.0373 -1.2274  0.6171
  524SOL    HW2 1572   2.412   2.342   0.487 -1.4255 -5.1145  2.3104
  525SOL     OW 1573   2.860   0.695   2.791  0.4221  0.6656 -0.1042
  525SOL    HW1 1574   2.832   0.634   2.714  0.9257  0.3289 -2.7757
  525SOL    HW2 1575   2.816   0.661   2.877  0.2265  0.1747  0.4079
  526SOL     OW 1576   0.443   2.655   0.496 -0.0700  0.4277  0.0462
  526SOL    HW1 1577   0.540   2.651   0.530  0.0330  2.5966  1.2322
  526SOL    HW2 1578   0.402   2.562   0.501  1.2683  1.8872 -2.0045
  527SOL     OW 1579   3.116   1.166   0.968  0.1271 -0.3960  0.2060
  527SOL    HW1 1580   3.045   1.209   0.910 -0.1292 -2.7685 -0.0963
  527SOL    HW2 1581   3.072   1.095   1.027 -1.2603  0.6477  1.3978
  528SOL     OW 1582   1.213   1.425   2.461  0.1292  0.0445 -0.2645
  528SOL    HW1 1583   1.187   1.453   2.366  0.6952  2.0551 -0.6462
  528SOL    HW2 1584   1.168   1.489   2.527 -2.4259  0.6366  0.2949
  529SOL     OW 1585   0.917   1.435   0.502  0.3747 -0.0258 -0.2108
  529SOL    HW1 1586   0.972   1.444   0.589 -1.5803  0.8033 -0.4457
  529SOL    HW2 1587   0.883   1.338   0.500 -0.0177  0.2737  0.1781
  530SOL     OW 1588   1.491   0.597   1.804  0.3972  0.3042 -0.4127
  530SOL    HW1 1589   1.555   0.656   1.750 -0.1715 -1.1437 -1.3760
  530SOL    HW2 1590   1.544   0.535   1.866 -1.0000 -0.8256  1.7301
  531SOL     OW 1591   1.200   2.399   0.285 -0.3126 -0.8065  0.3292
  531SOL    HW1 1592   1.215   2.476   0.219  1.5240 -0.2403  0.3286
  531SOL    HW2 1593   1.284   2.391   0.341 -3.3709  0.4620 -0.2630
  532SOL     OW 1594   2.819   0.920   2.599 -0.3467 -0.2003 -0.0165
  532SOL    HW1 1595   2.834   0.855   2.675 -0.6148  1.2221 -0.3449
  532SOL    HW2 1596   2.910   0.966   2.580 -1.9487 -2.1385 -0.5430
  533SOL     OW 1597   0.033   0.293   2.276  0.4078 -0.5416 -0.4515
  533SOL    HW1 1598  -0.058   0.308   2.320 -3.8136  0.0326 -0.5063
  533SOL    HW2 1599   0.032   0.215   2.208 -1.6684 -0.9048  1.9704
  534SOL     OW 1600   2.408   0.214   3.020 -0.0924 -0.3178  0.1901
  534SOL    HW1 1601   2.481   0.224   3.091 -5.1273  1.1752 -0.8547
  534SOL    HW2 1602   2.428   0.129   2.967 -1.6688 -3.4548 -0.3758
  535SOL     OW 1603   0.243   0.409   3.282 -0.0114  0.1970  0.2010
  535SOL    HW1 1604   0.317   0.378   3.346 -3.0595 -0.2945  0.4292
  535SOL    HW2 1605   0.281   0.431   3.192 -2.1519 -2.7376  1.4415
  536SOL     OW 1606   1.183   2.232   1.200  0.1556 -0.5050  0.2753
  536SOL    HW1 1607   1.108   2.205   1.265  1.1939  0.3993 -0.3212
  536SOL    HW2 1608   1.168   2.325   1.161 -0.9507 -0.0037  0.8173
  537SOL     OW 1609   2.999   2.745   1.583  0.2666  0.2262 -0.4439
  537SOL    HW1 1610   3.035   2.813   1.650  1.3212  0.4324  2.2080
  537SOL    HW2 1611   2.939   2.678   1.633 -1.6893 -2.8788  2.9093
  538SOL     OW 1612   0.703   2.662   0.604  0.5575  0.5745  0.0560
  538SOL    HW1 1613   0.747   2.591   0.663  3.3443 -1.6573 -0.3961
  538SOL    HW2 1614   0.759   2.748   0.598 -2.2868 -1.8785  0.3773
  539SOL     OW 1615   1.971   1.395   2.667  0.5811  0.9756  0.5771
  539SOL    HW1 1616   1.894   1.365   2.607  1.4815 -0.9855  0.6093
  539SOL    HW2 1617   2.027   1.469   2.625 -0.4158  0.3599  1.2833
  540SOL     OW 1618   2.014   0.658   3.090  0.4276 -0.5904 -0.1283
  540SOL    HW1 1619   2.060   0.644   3.181 -1.0603  0.9620  3.3440
  540SOL    HW2 1620   2.000   0.756   3.066 -0.3400 -0.9943  0.9568
  541SOL     OW 1621   1.189   1.161   2.555  0.2184  0.6818  0.4298
  541SOL    HW1 1622   1.218   1.099   2.479  0.8584  0.8482  0.2215
  541SOL    HW2 1623   1.188   1.259   2.523 -0.5160  0.9758  3.2831
  542SOL     OW 1624   1.574   2.773   1.986  0.1014  0.1823  0.0262
  542SOL    HW1 1625   1.474   2.780   1.969 -4.2328 -0.3525 -1.0427
  542SOL    HW2 1626   1.627   2.808   1.906 -1.1087  0.7080 -0.5795
  543SOL     OW 1627   0.550   3.015   3.264  0.0053  0.2719  0.3769
  543SOL    HW1 1628   0.604   2.997   3.181 -1.3262 -0.6887  0.4106
  543SOL    HW2 1629   0.458   3.052   3.238 -0.6501  2.0218  1.1483
  544SOL     OW 1630   0.065   2.182   2.332 -0.2516 -0.4449  0.1866
  544SOL    HW1 1631   0.010   2.184   2.417  2.6350  2.6800 -1.2522
  544SOL    HW2 1632   0.135   2.257   2.344 -0.2674  2.6487  2.2455
  545SOL     OW 1633   1.508   2.016   1.760  0.6075 -0.3399 -0.0959
  545SOL    HW1 1634   1.473   2.032   1.665  0.2531  0.2902 -2.2208
  545SOL    HW2 1635   1.442   1.965   1.821  1.0403  0.3162 -0.3724
  546SOL     OW 1636   3.002   0.260   2.828 -0.5249 -0.3931 -0.1378
  546SOL    HW1 1637   2.971   0.282   2.733 -0.0564  0.9271  1.1252
  546SOL    HW2 1638   3.099   0.288   2.837  2.1171  0.7433 -2.3192
  547SOL     OW 1639   1.745   3.262   0.850 -0.0722  0.4883 -0.3758
  547SOL    HW1 1640   1.738   3.305   0.943 -1.3723 -0.5594 -0.1837
  547SOL    HW2 1641   1.817   3.190   0.854  1.3491 -0.6668  1.1684
  548SOL     OW 1642   1.458   2.360   0.086  0.1695 -0.5861 -0.1762
  548SOL    HW1 1643   1.399   2.276   0.088  1.8897  1.6956 -0.7415
  548SOL    HW2 1644   1.406   2.444   0.067  0.1667  2.5139 -2.4057
  549SOL     OW 1645   2.127   0.614   0.023 -0.7241 -0.0403 -0.2887
  549SOL    HW1 1646   2.180   0.534   0.057 -3.9149  0.0262  1.0471
  549SOL    HW2 1647   2.174   0.701   0.051  1.8472 -1.1431  1.6825
  550SOL     OW 1648   2.748   1.976   0.922  0.2223 -0.3697  0.1101
  550SOL    HW1 1649   2.687   2.041   0.875 -0.1571  0.4299  0.7065
  550SOL    HW2 1650   2.812   1.939   0.851 -0.5039  1.4328  0.6851
  551SOL     OW 1651   1.225   0.253   1.372  0.3077  0.6805  0.0670
  551SOL    HW1 1652   1.164   0.310   1.431  0.5875 -0.7219  1.0287
  551SOL    HW2 1653   1.167   0.180   1.330  0.5731  1.6324 -3.6090
  552SOL     OW 1654   0.408   1.987   2.966  0.4786 -0.1973  0.6353
  552SOL    HW1 1655   0.418   1.925   2.885  0.6532  2.9549 -1.1812
  552SOL    HW2 1656   0.391   1.931   3.050 -1.6379  0.2950 -0.3043
  553SOL     OW 1657   2.736   2.610   0.026 -0.2813 -0.3496  0.2660
  553SOL    HW1 1658   2.641   2.581   0.006 -2.1507  1.2771 -0.5675
  553SOL    HW2 1659   2.741   2.632   0.125  3.4994 -0.1537  0.4653
  554SOL     OW 1660   2.137   1.583   1.571 -0.1325 -0.3672 -0.0952
  554SOL    HW1 1661   2.165   1.553   1.664  1.4102  2.9677  1.0633
  554SOL    HW2 1662   2.049   1.635   1.578  2.3503 -0.6776  2.2223
  555SOL     OW 1663   0.607   2.698   2.551  0.3790 -0.6805  0.4654
  555SOL    HW1 1664   0.563   2.658   2.633 -2.8133  4.0667  2.3096
  555SOL    HW2 1665   0.564   2.790   2.533  1.1706  1.0196  1.7009
  556SOL     OW 1666   1.534   1.165   1.584 -0.4858  0.0653 -0.6556
  556SOL    HW1 1667   1.571   1.149   1.490  2.3629  1.2635  1.0878
  556SOL    HW2 1668   1.511   1.263   1.599 -0.0100 -1.8065  0.3518
  557SOL     OW 1669   1.562   3.178   1.246 -0.4889  0.3702 -0.2420
  557SOL    HW1 1670   1.580   3.084   1.210  1.5114 -0.6782  0.5070
  557SOL    HW2 1671   1.527   3.176   1.342  2.5773 -2.3283 -1.4128
  558SOL     OW 1672   0.582   0.892   2.546  0.4225 -0.2426  0.2913
  558SOL    HW1 1673   0.499   0.832   2.541 -1.0015 -1.2235  3.0140
  558SOL    HW2 1674   0.613   0.893   2.644  1.7161 -1.8637 -0.3107
  559SOL     OW 1675   1.017   2.934   0.178 -0.2483  0.5908 -0.4802
  559SOL    HW1 1676   0.997   2.998   0.257  0.5522 -0.5999 -0.5970
  559SOL    HW2 1677   1.117   2.913   0.166 -0.4878 -0.9353 -0.0831
  560SOL     OW 1678   1.764   2.187   0.404  0.2688  0.5497  0.8464
  560SOL    HW1 1679   1.835   2.223   0.340  0.8253  0.6511  0.1529
  560SOL    HW2 1680   1.674   2.233   0.389 -0.7379  0.0690 -0.4879
  561SOL     OW 1681   1.155   3.162   0.618 -0.0904 -0.3110  0.1659
  561SOL    HW1 1682   1.217   3.242   0.603  0.4574 -2.6428 -0.1210
  561SOL    HW2 1683   1.117   3.171   0.712 -0.8597  2.2810 -1.1277
  562SOL     OW 1684   0.585   1.139   2.408 -0.0519  0.2288 -0.2795
  562SOL    HW1 1685   0.613   1.208   2.478  0.5410  1.0567 -1.7004
  562SOL    HW2 1686   0.581   1.052   2.462 -0.3677 -1.6476  0.4974
  563SOL     OW 1687   1.306   2.224   2.644  0.0718 -0.3665  0.4141
  563SOL    HW1 1688   1.301   2.225   2.542  0.1024 -0.6564 -0.8312
  563SOL    HW2 1689   1.302   2.127   2.675 -1.5899  0.9828 -1.8904
  564SOL     OW 1690   2.683   0.707   1.310 -0.3392  0.0840  0.1222
  564SOL    HW1 1691   2.648   0.664   1.225  0.7916 -0.9084  0.3931
  564SOL    HW2 1692   2.642   0.800   1.321 -0.1177  2.5225 -0.2228
  565SOL     OW 1693   1.558   1.023   0.381 -0.2869 -0.1737 -1.1566
  565SOL    HW1 1694   1.531   1.016   0.283  1.0130 -0.0635 -1.5553
  565SOL    HW2 1695   1.497   1.086   0.435 -0.0703 -2.7331  0.1577
  566SOL     OW 1696   2.614   2.945   3.117 -0.3154 -0.3212  0.1087
  566SOL    HW1 1697   2.685   2.872   3.109 -1.3678  1.2464 -0.9342
  566SOL    HW2 1698   2.529   2.897   3.145 -0.4141  1.0421 -0.3026
  567SOL     OW 1699   2.056   0.844   1.115  0.3144 -0.4248  0.1192
  567SOL    HW1 1700   1.980   0.875   1.176 -0.9490 -2.8412  0.9461
  567SOL    HW2 1701   2.078   0.746   1.129 -0.5472  1.3685  2.0850
  568SOL     OW 1702   1.255   1.147   2.842  0.6711  0.0857 -0.3602
  568SOL    HW1 1703   1.247   1.236   2.891 -0.5533  1.1482  0.1945
  568SOL    HW2 1704   1.243   1.153   2.741 -0.8980  4.1483  0.1114
  569SOL     OW 1705   2.277   1.739   0.879  0.5393  0.1174  0.5359
  569SOL    HW1 1706   2.205   1.670   0.853 -0.5939 -0.7864 -3.1193
  569SOL    HW2 1707   2.365   1.693   0.904 -1.8340 -1.9777  3.2149
  570SOL     OW 1708   2.726   2.764   2.466  0.1972  0.1352 -0.3774
  570SOL    HW1 1709   2.659   2.830   2.506  2.6469 -2.5468 -0.0090
  570SOL    HW2 1710   2.739   2.787   2.368  1.0965  0.6219  0.5601
  571SOL     OW 1711   0.005   2.196   1.806 -0.3126  0.0035 -0.1857
  571SOL    HW1 1712  -0.067   2.203   1.734  0.7724 -0.7673  1.1040
  571SOL    HW2 1713  -0.037   2.184   1.897 -1.1597 -1.1856 -0.3358
  572SOL     OW 1714   1.135   2.386   2.799  0.2545 -0.0354  0.2845
  572SOL    HW1 1715   1.180   2.478   2.805  1.4890 -0.3803 -0.3121
  572SOL    HW2 1716   1.198   2.321   2.751  1.7819  2.2235  0.1413
  573SOL     OW 1717   1.688   2.495   1.497  0.3907 -0.2323 -0.1761
  573SOL    HW1 1718   1.601   2.506   1.551 -1.0857 -2.6338 -1.4067
  573SOL    HW2 1719   1.758   2.457   1.562  0.2966  1.6664  0.0948
  574SOL     OW 1720   1.252   2.986   1.631 -0.3436  0.6857  0.0847
  574SOL    HW1 1721   1.158   2.995   1.591  0.7843  2.3060 -0.9041
  574SOL    HW2 1722   1.248   3.003   1.731  0.4779 -1.5200  0.7051
  575SOL     OW 1723   0.739   0.552   0.977  0.0289 -0.1762  0.2798
  575SOL    HW1 1724   0.818   0.585   0.921 -0.7318 -1.0754 -1.5931
  575SOL    HW2 1725   0.757   0.569   1.077  0.1127  0.8538  1.5721
  576SOL     OW 1726   2.340   0.656   1.565  0.3035 -0.0686  0.0230
  576SOL    HW1 1727   2.297   0.731   1.620  0.3300  1.2556  1.7065
  576SOL    HW2 1728   2.390   0.697   1.487  2.2828 -0.3230  0.6176
  577SOL     OW 1729   2.158   0.164   3.167  0.0484  0.1356 -0.0858
  577SOL    HW1 1730   2.240   0.197   3.114 -3.2434 -0.7853 -0.7822
  577SOL    HW2 1731   2.078   0.184   3.106  1.0810  0.5787 -2.0188
  578SOL     OW 1732   1.807   2.054   2.119  0.3401 -0.3948  0.2477
  578SOL    HW1 1733   1.809   1.951   2.121  0.5418  0.2224  1.3829
  578SOL    HW2 1734   1.795   2.082   2.022 -0.0548  2.3476  0.0738
  579SOL     OW 1735   0.918   1.737   1.088  0.3854 -0.3249  0.0250
  579SOL    HW1 1736   0.979   1.818   1.081 -2.3860 -0.6892 -0.8564
  579SOL    HW2 1737   0.851   1.730   1.011 -1.8081  0.5510 -1.3693
  580SOL     OW 1738   1.273   0.059   3.196  0.1525 -0.2361 -0.0784
  580SOL    HW1 1739   1.216   0.011   3.267 -3.4111  0.7944  0.2261
  580SOL    HW2 1740   1.339   0.126   3.239 -0.7174 -0.9829 -1.8889
  581SOL     OW 1741   1.270   0.995   1.877  0.6257  0.1398 -0.0648
  581SOL    HW1 1742   1.302   0.911   1.926  0.3076 -0.8869  0.0690
  581SOL    HW2 1743   1.283   0.985   1.775 -0.8986 -1.4163  2.4543
  582SOL     OW 1744   0.334   0.365   1.052 -0.6971 -0.5624 -0.2369
  582SOL    HW1 1745   0.315   0.455   1.010 -1.8541  1.5207  0.4173
  582SOL    HW2 1746   0.431   0.337   1.038 -0.0435  2.3166 -0.8059
  583SOL     OW 1747   0.837   2.095   1.923 -1.4688  0.0850  0.5213
  583SOL    HW1 1748   0.826   2.002   1.964 -1.4632 -0.6655  2.8321
  583SOL    HW2 1749   0.929   2.101   1.877 -0.7092 -1.6915  2.9665
  584SOL     OW 1750   2.757   2.650   0.319  0.1408  0.2351  0.2575
  584SOL    HW1 1751   2.847   2.692   0.343 -2.6141 -0.0511 -0.7402
  584SOL    HW2 1752   2.690   2.687   0.387  3.0951 -1.1920  1.0045
  585SOL     OW 1753   2.472   0.618   3.074 -0.0880 -0.5079  0.7026
  585SOL    HW1 1754   2.462   0.569   3.163 -0.1963  0.3181  1.5928
  585SOL    HW2 1755   2.433   0.559   3.000  1.5981  1.6460  3.1379
  586SOL     OW 1756   0.539   1.450   0.287 -0.3231 -0.1377  0.1454
  586SOL    HW1 1757   0.595   1.517   0.340 -1.4792 -0.2913  4.2440
  586SOL    HW2 1758   0.442   1.485   0.294  1.6760 -0.2757 -0.1318
  587SOL     OW 1759   1.882   2.222   1.375  0.3758  0.0422  0.2242
  587SOL    HW1 1760   1.896   2.189   1.279 -0.4136 -0.3353  0.5191
  587SOL    HW2 1761   1.812   2.297   1.381 -1.8711 -1.8677  1.1668
  588SOL     OW 1762   0.571   0.707   1.375  0.1395  0.1807 -0.2665
  588SOL    HW1 1763   0.658   0.675   1.331 -1.2494  0.2565 -3.5655
  588SOL    HW2 1764   0.499   0.727   1.305  1.2409  0.4917 -0.2042
  589SOL     OW 1765   2.218   3.118   0.873 -0.1237 -0.2480  0.3886
  589SOL    HW1 1766   2.235   3.148   0.777 -1.0292  1.0735 -0.4869
  589SOL    HW2 1767   2.120   3.094   0.884 -0.4094  1.9276  0.5749
  590SOL     OW 1768   1.846   1.062   0.438  0.4930 -0.3677 -0.0211
  590SOL    HW1 1769   1.913   1.034   0.367 -2.5651  0.3651  0.9207
  590SOL    HW2 1770   1.748   1.043   0.412 -0.2613  1.2086  1.2413
  591SOL     OW 1771   2.501   2.213   2.185  0.2037  0.6057 -0.1178
  591SOL    HW1 1772   2.579   2.152   2.156  0.2553  0.8477  3.1469
  591SOL    HW2 1773   2.542   2.306   2.187  0.0196 -1.1048  0.9954
  592SOL     OW 1774   1.457   2.150   1.252  0.0379  0.1431 -0.2563
  592SOL    HW1 1775   1.491   2.070   1.199 -3.1361 -0.9344  0.3308
  592SOL    HW2 1776   1.363   2.179   1.223 -1.2494  0.7462 -2.0045
  593SOL     OW 1777   0.616   2.996   0.841  0.4657 -0.2722  0.4091
  593SOL    HW1 1778   0.716   2.979   0.855 -0.4128  0.5520  0.6409
  593SOL    HW2 1779   0.581   3.051   0.921  1.9772  2.0322 -1.2446
  594SOL     OW 1780   3.066   1.053   2.536 -0.1698 -0.1877 -0.2105
  594SOL    HW1 1781   3.092   1.118   2.462  2.2036 -0.1275 -1.7195
  594SOL    HW2 1782   3.132   0.976   2.547  1.9820  0.9594 -3.1702
  595SOL     OW 1783   3.219   3.234   0.636  0.5170 -0.3660  0.1274
  595SOL    HW1 1784   3.297   3.216   0.572 -1.1764 -1.1447  0.0195
  595SOL    HW2 1785   3.242   3.318   0.690  2.0194  0.4523 -0.6228
  596SOL     OW 1786   3.324   0.601   1.559 -0.4627 -0.0281  0.4507
  596SOL    HW1 1787   3.346   0.686   1.611 -1.3594  1.3278 -0.8891
  596SOL    HW2 1788   3.228   0.573   1.579 -0.3395 -0.2935 -0.2938
  597SOL     OW 1789   2.837   1.293   0.442 -0.2604 -0.2764 -0.9298
  597SOL    HW1 1790   2.911   1.225   0.428 -0.8758  1.3231 -1.7408
  597SOL    HW2 1791   2.747   1.251   0.413 -1.2629  0.3328 -0.0827
  598SOL     OW 1792   0.649   0.403   2.221  0.2720 -0.4705  0.1267
  598SOL    HW1 1793   0.645   0.495   2.177 -0.8185  0.7798 -1.3845
  598SOL    HW2 1794   0.565   0.390   2.278 -1.1512  0.2977  0.8925
  599SOL     OW 1795   2.716   1.897   0.186  0.6680  0.1807 -0.0089
  599SOL    HW1 1796   2.698   1.992   0.156  0.8275  0.9405 -0.2194
  599SOL    HW2 1797   2.784   1.903   0.262 -2.3845 -1.5743 -1.3010
  600SOL     OW 1798   0.925   0.937   0.171 -0.0563 -0.4937  0.4194
  600SOL    HW1 1799   1.009   0.986   0.141 -0.4341 -1.3733  0.6155
  600SOL    HW2 1800   0.841   0.990   0.145  0.6944 -1.4305 -1.5215
  601SOL     OW 1801   1.463   0.998   0.112 -0.8440  0.3137 -1.1474
  601SOL    HW1 1802   1.378   1.052   0.096 -0.1338  1.1225  1.9402
  601SOL    HW2 1803   1.454   0.908   0.065  1.8685  0.9779 -0.4973
  602SOL     OW 1804   1.079   3.309   1.807  0.6367 -0.2714 -0.0843
  602SOL    HW1 1805   1.114   3.403   1.821  0.6241  4.2619  1.1442
  602SOL    HW2 1806   1.022   3.304   1.721 -0.4625 -0.7025  2.5442
  603SOL     OW 1807   1.010   3.022   2.537 -0.0225 -0.2999  0.3635
  603SOL    HW1 1808   1.090   3.078   2.567 -0.1624  0.2176  1.1467
  603SOL    HW2 1809   1.026   2.991   2.441 -2.5106  1.1361  2.1525
  604SOL     OW 1810   0.038   0.069   2.098  0.1383  0.1660  0.5321
  604SOL    HW1 1811   0.087  -0.005   2.150  1.3599  2.0289  2.1402
  604SOL    HW2 1812  -0.051   0.036   2.062 -0.7972 -0.3157 -1.3722
  605SOL     OW 1813   2.813   2.990   1.742 -0.7126 -0.0006  1.2217
  605SOL    HW1 1814   2.766   2.918   1.797  0.1319  0.4057  0.7057
  605SOL    HW2 1815   2.915   2.985   1.756 -0.6933  3.0632 -0.5862
  606SOL     OW 1816   0.044   2.043   2.710  0.1738  0.1498 -0.0350
  606SOL    HW1 1817   0.054   1.958   2.766 -2.0398 -2.4537  0.6461
  606SOL    HW2 1818   0.110   2.115   2.744  0.2376  1.4845 -2.9333
  607SOL     OW 1819   0.879   0.102   0.699  0.3238 -0.0122 -0.8021
  607SOL    HW1 1820   0.869   0.189   0.645 -0.3114 -0.0779  1.1995
  607SOL    HW2 1821   0.916   0.120   0.792  0.5124 -1.5659  2.3290
  608SOL     OW 1822   1.759   1.915   2.649  0.2921  0.8753 -0.7247
  608SOL    HW1 1823   1.734   1.828   2.599  2.0864  1.1151  0.3027
  608SOL    HW2 1824   1.798   1.982   2.582 -1.7960  2.7914  1.5638
  609SOL     OW 1825   3.255   0.322   1.357 -0.4778  0.3626 -0.0049
  609SOL    HW1 1826   3.328   0.388   1.325  3.1264 -0.1542 -0.6684
  609SOL    HW2 1827   3.291   0.278   1.441  0.3919 -0.3424  0.0884
  610SOL     OW 1828   0.971   2.580   3.279 -0.5292  0.2877  0.0544
  610SOL    HW1 1829   0.922   2.615   3.196  3.2595  1.1197  4.1896
  610SOL    HW2 1830   0.926   2.620   3.362 -1.5063 -2.0838  2.9353
  611SOL     OW 1831   2.070   1.462   0.530 -0.2698  0.5664  0.4944
  611SOL    HW1 1832   2.105   1.519   0.453  1.0634 -0.1460 -0.1419
  611SOL    HW2 1833   1.980   1.431   0.491  0.2672  0.4446  0.5271
  612SOL     OW 1834   1.069   2.812   2.714 -0.0162  0.1877 -0.8477
  612SOL    HW1 1835   1.051   2.892   2.653  3.0968  2.0169  0.2871
  612SOL    HW2 1836   1.001   2.738   2.699  0.5649  1.1383  0.7854
  613SOL     OW 1837   1.255   2.161   0.122 -0.2284 -0.0580  0.5575
  613SOL    HW1 1838   1.205   2.228   0.182 -1.3629 -3.1004 -2.6522
  613SOL    HW2 1839   1.194   2.143   0.041 -3.2727  0.8682  1.1693
  614SOL     OW 1840   2.832   2.546   1.721 -0.3356 -0.2796  0.4049
  614SOL    HW1 1841   2.809   2.495   1.636 -0.1033 -2.4028  3.2451
  614SOL    HW2 1842   2.790   2.503   1.804  1.4081  0.4020  1.4743
  615SOL     OW 1843   2.682   1.382   0.051  0.0991  0.2959 -0.7120
  615SOL    HW1 1844   2.712   1.402  -0.045 -2.1191 -0.1963 -1.3546
  615SOL    HW2 1845   2.629   1.295   0.057 -0.9559 -0.4018 -0.5288
  616SOL     OW 1846   1.758   0.028   0.566 -0.0490 -0.3946 -1.0818
  616SOL    HW1 1847   1.732  -0.008   0.658 -0.8675  1.8720 -2.1365
  616SOL    HW2 1848   1.860   0.033   0.561  0.4368  1.0285  1.1283
  617SOL     OW 1849   0.507   1.608   2.991 -0.1674  0.0792 -0.1872
  617SOL    HW1 1850   0.487   1.664   2.908 -1.7161  2.8055  2.2316
  617SOL    HW2 1851   0.606   1.582   2.993  1.8176  1.1281  0.4114
  618SOL     OW 1852   0.528   0.792   1.889  0.1517 -0.0170  0.2002
  618SOL    HW1 1853   0.426   0.787   1.885  0.8741 -0.1438 -0.8279
  618SOL    HW2 1854   0.562   0.745   1.805 -1.1827  2.2158  0.0465
  619SOL     OW 1855   3.049   1.038   2.152  0.2975  0.1642  0.0649
  619SOL    HW1 1856   3.096   1.109   2.210 -0.6542  0.0314 -0.2090
  619SOL    HW2 1857   3.042   0.951   2.204 -1.6722  0.4702 -2.6165
  620SOL     OW 1858   2.337   1.015   3.243  0.1856  0.2661 -0.2396
  620SOL    HW1 1859   2.379   0.971   3.162 -0.3763 -2.3973 -1.2751
  620SOL    HW2 1860   2.245   1.055   3.223 -0.9504  1.0196  0.6869
  621SOL     OW 1861   2.616   3.220   1.325  0.1919  0.4220 -0.0630
  621SOL    HW1 1862   2.689   3.173   1.379 -1.4736  0.6597  0.5975
  621SOL    HW2 1863   2.536   3.243   1.384  2.0958  0.3108 -1.9915
  622SOL     OW 1864   1.818   0.597   2.237 -0.2804 -0.2270 -0.4174
  622SOL    HW1 1865   1.828   0.522   2.168 -0.3231  1.3190 -1.0225
  622SOL    HW2 1866   1.741   0.655   2.203  1.7235 -0.4258 -1.5358
  623SOL     OW 1867   1.624   1.006   2.600 -0.1454 -0.1546 -0.0545
  623SOL    HW1 1868   1.716   1.022   2.555  0.5875  0.0250  4.0795
  623SOL    HW2 1869   1.625   1.032   2.698 -0.2504 -0.3904  3.8640
  624SOL     OW 1870   2.036   0.057   0.565 -0.4392 -0.0504 -0.3060
  624SOL    HW1 1871   2.045   0.108   0.477  1.9498  1.5063 -2.6604
  624SOL    HW2 1872   2.109  -0.014   0.573  0.9854 -0.2696  0.8863
  625SOL     OW 1873   0.725   1.637   0.439  0.3873 -0.3690  0.3314
  625SOL    HW1 1874   0.792   1.561   0.456  0.2888 -1.1209 -1.6742
  625SOL    HW2 1875   0.734   1.709   0.511 -0.5704 -1.0623  0.2721
  626SOL     OW 1876   1.758   1.317   2.483 -0.4207 -0.5961 -0.3211
  626SOL    HW1 1877   1.766   1.348   2.386  3.8063 -0.6079  1.8622
  626SOL    HW2 1878   1.659   1.324   2.507  0.8774  0.2101  1.8636
  627SOL     OW 1879   0.892   0.603   1.973 -0.3793 -0.0363 -0.4093
  627SOL    HW1 1880   0.969   0.647   2.023 -1.8628  0.7409  0.7349
  627SOL    HW2 1881   0.801   0.619   2.019 -0.0110  0.3264  2.5568
  628SOL     OW 1882   2.254   0.874   2.459 -0.7308  0.4549  0.0379
  628SOL    HW1 1883   2.174   0.830   2.412 -0.2199 -2.7365 -0.6298
  628SOL    HW2 1884   2.331   0.884   2.394 -4.1878 -0.2270 -0.3402
  629SOL     OW 1885   0.831   1.469   3.263  0.1317 -0.4126 -0.4671
  629SOL    HW1 1886   0.813   1.501   3.168  3.0850  3.2038  0.1099
  629SOL    HW2 1887   0.752   1.417   3.303  0.1470  0.5378 -1.5971
  630SOL     OW 1888   1.479   0.550   2.435 -0.1111 -0.0959 -0.5807
  630SOL    HW1 1889   1.471   0.652   2.430 -0.6668 -1.8780 -2.9278
  630SOL    HW2 1890   1.572   0.519   2.463 -1.4569  1.1749 -2.3552
  631SOL     OW 1891   2.791   0.793   0.956 -0.9630 -0.4400  0.2078
  631SOL    HW1 1892   2.744   0.717   1.005  3.2407 -2.4463 -0.0776
  631SOL    HW2 1893   2.724   0.853   0.906 -3.3422 -0.9651 -2.6502
  632SOL     OW 1894   2.928   1.890   0.738 -0.6869 -0.3756  0.0551
  632SOL    HW1 1895   2.910   1.817   0.669  1.6974 -1.5787 -2.3924
  632SOL    HW2 1896   3.005   1.952   0.705 -1.5079 -1.0879  0.5783
  633SOL     OW 1897   0.765   1.405   0.805  0.0555  0.1982  0.6508
  633SOL    HW1 1898   0.754   1.352   0.892 -0.4561  0.3656  2.7971
  633SOL    HW2 1899   0.736   1.350   0.724 -0.4803  3.0286 -1.7911
  634SOL     OW 1900   1.677   3.263   0.289 -0.6059 -0.4348 -0.3317
  634SOL    HW1 1901   1.593   3.206   0.281 -1.1600 -1.0436  2.4867
  634SOL    HW2 1902   1.694   3.296   0.384 -1.6533  3.1699 -1.4142
  635SOL     OW 1903   2.138   0.293   1.871 -1.1432 -0.1080  0.4557
  635SOL    HW1 1904   2.178   0.269   1.781 -2.0376 -0.1599 -0.0245
  635SOL    HW2 1905   2.180   0.381   1.906 -0.6888 -1.8303 -0.5382
  636SOL     OW 1906   1.481   0.714   0.739 -0.2777 -0.4456 -0.4362
  636SOL    HW1 1907   1.422   0.792   0.769 -0.8095  1.0471 -0.1282
  636SOL    HW2 1908   1.549   0.702   0.813 -1.2719  0.0176  1.6846
  637SOL     OW 1909   2.134   1.569   3.151 -0.1881  0.0726 -0.1323
  637SOL    HW1 1910   2.140   1.617   3.061 -0.1838  0.2865  1.5047
  637SOL    HW2 1911   2.036   1.567   3.184 -0.0942 -0.1816  1.1785
  638SOL     OW 1912   0.963   3.333   2.864  0.1230  0.6290  0.0477
  638SOL    HW1 1913   0.952   3.242   2.911 -1.2699  1.5131  0.8187
  638SOL    HW2 1914   0.892   3.338   2.790 -1.2527 -1.2040  0.9376
  639SOL     OW 1915   1.166   2.219   1.566  0.2248 -0.3277  1.3035
  639SOL    HW1 1916   1.093   2.199   1.499 -0.2166  0.0618  0.1296
  639SOL    HW2 1917   1.249   2.161   1.547  1.6730 -2.7921  0.0054
  640SOL     OW 1918   0.462   0.148   3.051 -0.4405  0.3281 -0.6696
  640SOL    HW1 1919   0.388   0.110   3.112 -2.3128  1.4073 -0.8483
  640SOL    HW2 1920   0.484   0.087   2.973 -1.1300  2.7125 -2.2985
  641SOL     OW 1921   0.381   0.729   0.335  0.2084 -0.2076 -0.0991
  641SOL    HW1 1922   0.286   0.692   0.335 -2.1857 -1.4251 -1.7187
  641SOL    HW2 1923   0.381   0.828   0.358  1.1482  0.4570  0.1094
  642SOL     OW 1924   0.333   1.767   1.201 -0.1399  0.2575  0.1196
  642SOL    HW1 1925   0.377   1.857   1.222  0.3860  0.6131  4.1642
  642SOL    HW2 1926   0.369   1.728   1.114 -2.3207 -0.3252  0.5320
  643SOL     OW 1927   0.883   1.891   2.930 -0.6866  0.0696  0.2684
  643SOL    HW1 1928   0.818   1.962   2.964 -0.4000 -1.7333 -1.8102
  643SOL    HW2 1929   0.975   1.914   2.969 -1.2187 -0.9937 -1.6501
  644SOL     OW 1930   1.653   2.580   0.454 -0.7992  0.8836  0.1423
  644SOL    HW1 1931   1.742   2.583   0.405  1.0959 -0.3778  0.7282
  644SOL    HW2 1932   1.666   2.567   0.554  0.6142 -0.9170  0.2140
  645SOL     OW 1933   1.110   2.494   1.645  0.0280 -0.3154  0.1814
  645SOL    HW1 1934   1.131   2.397   1.620  0.2534  1.2671  1.7350
  645SOL    HW2 1935   1.170   2.562   1.598 -1.8531  1.4786 -0.2613
  646SOL     OW 1936   0.554   2.742   0.060 -0.4082  0.0862  0.3287
  646SOL    HW1 1937   0.644   2.718   0.102  0.1966  1.3494  1.1458
  646SOL    HW2 1938   0.550   2.838   0.023  0.5255 -1.1872 -2.6706
  647SOL     OW 1939   0.152   3.195   2.251  0.3148 -0.2751 -0.0325
  647SOL    HW1 1940   0.096   3.199   2.336  0.5116 -3.0435 -0.8029
  647SOL    HW2 1941   0.251   3.180   2.274 -0.6807  0.7779 -2.4646
  648SOL     OW 1942   2.755   1.114   1.189 -0.3633 -0.1728  0.7651
  648SOL    HW1 1943   2.834   1.056   1.159  3.4268 -0.9899  0.1341
  648SOL    HW2 1944   2.684   1.058   1.236  0.0643  0.6162  0.5360
  649SOL     OW 1945   2.296   2.874   2.952  0.1905 -0.4512 -0.7637
  649SOL    HW1 1946   2.323   2.842   3.045  2.0322 -1.2340  1.3829
  649SOL    HW2 1947   2.278   2.975   2.949 -1.9093 -1.3396  2.0399
  650SOL     OW 1948   2.982   2.350   2.060  0.0611  0.2078  0.3570
  650SOL    HW1 1949   3.045   2.272   2.081 -1.2712  1.0149 -0.3190
  650SOL    HW2 1950   3.023   2.419   1.997  0.2585 -2.5341  1.9217
  651SOL     OW 1951   1.156   1.921   3.012  0.5109  0.0667 -0.0439
  651SOL    HW1 1952   1.210   1.953   2.931 -1.6790  0.7313  1.1411
  651SOL    HW2 1953   1.203   1.840   3.053  1.9639  1.6316 -1.3466
  652SOL     OW 1954   0.525   0.084   2.374 -0.1557 -0.3642 -0.6486
  652SOL    HW1 1955   0.479   0.176   2.375  1.1665  0.0956  1.4743
  652SOL    HW2 1956   0.597   0.083   2.447 -1.1716  0.5915  1.7941
  653SOL     OW 1957   2.142   1.982   0.873 -0.3319 -0.6261  0.3185
  653SOL    HW1 1958   2.188   1.893   0.892  1.8496 -1.1020  1.0582
  653SOL    HW2 1959   2.192   2.059   0.918  0.6670  0.3413 -3.0832
  654SOL     OW 1960   2.483   3.017   2.279 -0.1698 -0.2714  0.1267
  654SOL    HW1 1961   2.427   3.022   2.364 -0.2995 -0.5894 -2.7438
  654SOL    HW2 1962   2.503   3.114   2.255 -0.5614  0.0881  1.7319
  655SOL     OW 1963   2.601   2.306   1.019 -0.4960 -0.1941 -0.3398
  655SOL    HW1 1964   2.569   2.396   1.057 -0.4853  1.1913  1.9157
  655SOL    HW2 1965   2.522   2.257   0.981 -1.8416 -1.5402  1.0915
  656SOL     OW 1966   2.904   1.659   3.096  0.2171 -0.2660 -0.3682
  656SOL    HW1 1967   2.938   1.740   3.044 -1.0940  1.9175 -1.2625
  656SOL    HW2 1968   2.942   1.664   3.191  0.2031  0.4998  2.3779
  657SOL     OW 1969   0.082   1.324   0.698  0.3062  0.7482 -0.3366
  657SOL    HW1 1970   0.001   1.287   0.646 -1.0860  1.7629 -0.2020
  657SOL    HW2 1971   0.057   1.352   0.793 -2.6566  3.3430  3.2051
  658SOL     OW 1972   1.246   1.802   1.442 -0.0427 -0.0308  0.2589
  658SOL    HW1 1973   1.290   1.761   1.360 -0.9848 -0.4045 -2.0940
  658SOL    HW2 1974   1.145   1.799   1.434 -1.1424  0.1039 -1.4917
  659SOL     OW 1975   1.388   0.105   1.560  0.2868  0.4006  0.1012
  659SOL    HW1 1976   1.400   0.168   1.639 -1.7640 -1.8940 -0.1073
  659SOL    HW2 1977   1.336   0.144   1.480 -0.6003 -2.1516  0.2978
  660SOL     OW 1978   2.725   0.469   0.760  0.4972 -0.0308  0.2239
  660SOL    HW1 1979   2.650   0.529   0.795 -1.3629  0.3416 -1.6389
  660SOL    HW2 1980   2.771   0.513   0.680  1.1980 -0.8505  1.4462
  661SOL     OW 1981   0.561   2.047   0.377  0.4243  0.5040  0.2046
  661SOL    HW1 1982   0.597   1.967   0.325 -0.0158 -0.6556 -2.9987
  661SOL    HW2 1983   0.530   2.124   0.316 -0.0155 -0.2040  0.6003
  662SOL     OW 1984   2.455   0.890   2.258  0.3354  0.6145 -0.2633
  662SOL    HW1 1985   2.496   0.800   2.231  0.0541  0.9317  2.5577
  662SOL    HW2 1986   2.411   0.932   2.175  1.6295 -0.5007 -3.7639
  663SOL     OW 1987   1.913   1.518   1.165  0.4304 -0.3348  0.0817
  663SOL    HW1 1988   1.950   1.446   1.101  3.5023 -0.0750 -0.2475
  663SOL    HW2 1989   1.990   1.561   1.217 -0.0966  2.1480  2.8920
  664SOL     OW 1990   0.638   3.257   1.298  0.3947  0.0104  0.2567
  664SOL    HW1 1991   0.682   3.344   1.268  1.5933 -0.1263  1.9557
  664SOL    HW2 1992   0.627   3.262   1.399 -1.8030  1.8062  1.2089
  665SOL     OW 1993   1.517   0.278   3.118 -0.0356  0.4494 -0.0540
  665SOL    HW1 1994   1.588   0.204   3.103  2.9723 -0.0934  1.1123
  665SOL    HW2 1995   1.522   0.344   3.039  0.0289 -0.8159  1.0994
  666SOL     OW 1996   0.980   0.661   2.363  0.0313 -0.1552 -0.1605
  666SOL    HW1 1997   0.945   0.567   2.380  1.4702 -1.0343 -1.4433
  666SOL    HW2 1998   0.898   0.721   2.352 -3.0293 -0.6303  2.6226
  667SOL     OW 1999   1.473   1.447   1.587 -0.5391  0.5871  0.3165
  667SOL    HW1 2000   1.408   1.513   1.630  1.1280  1.0014 -1.0257
  667SOL    HW2 2001   1.456   1.450   1.486  0.3032 -0.3766  0.0451
  668SOL     OW 2002   0.367   1.184   2.234 -0.2069 -0.2152  0.2841
  668SOL    HW1 2003   0.449   1.168   2.293  0.7214  1.2914 -1.2407
  668SOL    HW2 2004   0.366   1.278   2.192  3.1425  2.2900 -0.1808
  669SOL     OW 2005   2.789   2.722   3.096 -0.0334 -0.0471 -0.4119
  669SOL    HW1 2006   2.747   2.653   3.032 -1.0930  1.1971 -1.5153
  669SOL    HW2 2007   2.786   2.691   3.193 -0.9831 -0.7350  0.1481
  670SOL     OW 2008   2.822   1.385   1.855  0.2033 -0.3151 -0.2471
  670SOL    HW1 2009   2.918   1.411   1.832 -0.2907  0.0735  0.4003
  670SOL    HW2 2010   2.821   1.309   1.923  2.8996  0.7623  2.0189
  671SOL     OW 2011   3.141   2.045   0.640 -0.1571 -0.1399  0.1762
  671SOL    HW1 2012   3.130   2.147   0.634 -0.9121 -0.4241  1.5135
  671SOL    HW2 2013   3.161   2.005   0.548 -0.9504 -0.6603  0.7405
  672SOL     OW 2014   1.705   1.033   2.064 -0.5198  0.0534  0.7430
  672SOL    HW1 2015   1.791   1.074   2.100 -1.4886 -1.0490  1.2647
  672SOL    HW2 2016   1.704   1.043   1.961 -1.4551  0.4475  0.1083
  673SOL     OW 2017   3.138   2.214   1.610  0.1338 -0.4120 -0.1716
  673SOL    HW1 2018   3.079   2.296   1.617 -0.0512 -0.1705 -0.4817
  673SOL    HW2 2019   3.106   2.155   1.532  0.9781 -0.8852  0.1906
  674SOL     OW 2020   0.664   2.208   1.701  0.2596  0.1714 -0.4037
  674SOL    HW1 2021   0.727   2.179   1.777  0.6846 -2.1130  0.1858
  674SOL    HW2 2022   0.587   2.258   1.745 -2.2709 -0.0448 -1.6670
  675SOL     OW 2023   3.121   0.811   1.305  0.5651  0.2577 -0.3441
  675SOL    HW1 2024   3.209   0.844   1.346 -0.6212 -0.1448  0.5304
  675SOL    HW2 2025   3.122   0.711   1.289  0.0617  1.2102 -2.7065
  676SOL     OW 2026   3.134   0.944   1.889  0.3468 -0.0823 -0.0830
  676SOL    HW1 2027   3.111   0.977   1.983  0.3757 -0.2653 -0.2400
  676SOL    HW2 2028   3.071   0.866   1.867 -2.6576  1.6468  0.3653
  677SOL     OW 2029   2.228   1.226   2.679  0.0281  0.4504 -0.3636
  677SOL    HW1 2030   2.137   1.270   2.693 -0.6762 -0.9307  2.0700
  677SOL    HW2 2031   2.291   1.246   2.757  1.3984  2.6349  0.8258
  678SOL     OW 2032   2.692   1.581   1.218 -0.2330  0.2713 -1.1770
  678SOL    HW1 2033   2.702   1.506   1.149  1.0953  0.5769  0.5418
  678SOL    HW2 2034   2.785   1.607   1.254 -2.1731 -1.2485  2.4071
  679SOL     OW 2035   0.155   2.943   0.022  0.2543  0.3738  0.6496
  679SOL    HW1 2036   0.180   2.864  -0.038  2.1195 -1.2445 -0.5900
  679SOL    HW2 2037   0.153   2.912   0.119  1.3144  1.2012 -1.9095
  680SOL     OW 2038   0.049   1.756   1.229  0.5048 -0.1539 -0.1104
  680SOL    HW1 2039   0.149   1.762   1.207 -1.9018  0.0719  0.6161
  680SOL    HW2 2040   0.023   1.829   1.296 -1.4324 -0.0173 -0.1657
  681SOL     OW 2041   0.981   0.125   0.960 -0.3225  1.2858  0.5593
  681SOL    HW1 2042   0.929   0.152   1.042  0.5828  1.8609  1.1342
  681SOL    HW2 2043   1.073   0.170   0.971 -1.3048 -1.9934 -0.4064
  682SOL     OW 2044   2.219   2.605   1.749 -0.1184 -0.1630 -0.3899
  682SOL    HW1 2045   2.293   2.548   1.791  0.6553 -0.0410 -3.1088
  682SOL    HW2 2046   2.188   2.554   1.666  0.1252  1.9276  0.2469
  683SOL     OW 2047   2.846   1.939   1.817 -0.3581 -0.2703  0.2353
  683SOL    HW1 2048   2.815   2.013   1.754 -0.8461  0.3504  1.9573
  683SOL    HW2 2049   2.936   1.905   1.781 -3.3122  0.6188  1.5200
  684SOL     OW 2050   3.297   1.574   1.952 -0.5806  0.3645 -0.2760
  684SOL    HW1 2051   3.293   1.594   2.052  0.3508  2.1395  0.5282
  684SOL    HW2 2052   3.395   1.559   1.926 -0.7124 -3.0648  0.9421
  685SOL     OW 2053   1.512   1.517   0.264 -0.0922  0.2282  0.1422
  685SOL    HW1 2054   1.542   1.579   0.340 -0.2951 -1.4048  3.1046
  685SOL    HW2 2055   1.595   1.467   0.232 -0.3392  0.8411 -2.2569
  686SOL     OW 2056   3.105   0.632   2.074  0.0899  0.4545 -0.2101
  686SOL    HW1 2057   3.204   0.615   2.055 -0.0304  0.4910  0.0290
  686SOL    HW2 2058   3.048   0.666   1.995 -0.2686  2.1341  1.6480
  687SOL     OW 2059   1.693   0.061   3.108  0.2135  0.3311 -0.2407
  687SOL    HW1 2060   1.623   0.001   3.063 -2.5080 -2.4131 -0.1071
  687SOL    HW2 2061   1.725   0.021   3.196  0.3890  1.7536  0.2474
  688SOL     OW 2062   1.330   1.969   2.778 -0.4029  0.3894 -0.7906
  688SOL    HW1 2063   1.333   1.878   2.732  2.3781  1.1032 -0.9168
  688SOL    HW2 2064   1.423   1.997   2.810 -1.6367  1.2974  2.3584
  689SOL     OW 2065   2.387   1.749   1.577  0.2840 -0.3257  0.2048
  689SOL    HW1 2066   2.297   1.701   1.589 -0.7864  1.7123 -2.9882
  689SOL    HW2 2067   2.454   1.686   1.532 -0.1913 -0.6642 -2.0338
  690SOL     OW 2068   2.521   2.315   1.363  0.7261  0.4217 -0.5282
  690SOL    HW1 2069   2.456   2.299   1.440 -0.2197 -0.6147  0.0877
  690SOL    HW2 2070   2.514   2.237   1.298  0.0261  1.3354 -0.3094
  691SOL     OW 2071   0.237   1.796   0.726  0.5938 -0.6711 -0.5289
  691SOL    HW1 2072   0.276   1.870   0.668  1.3171  1.6117  0.7860
  691SOL    HW2 2073   0.147   1.830   0.762 -1.6268 -2.1547 -2.7969
  692SOL     OW 2074   2.963   3.233   3.165  0.1230 -0.4286 -0.9180
  692SOL    HW1 2075   3.065   3.244   3.171  0.9787 -1.2264  1.2296
  692SOL    HW2 2076   2.934   3.277   3.077 -0.8558 -0.8436  2.4901
  693SOL     OW 2077   0.331   1.453   2.153  0.3022 -0.0150 -0.3482
  693SOL    HW1 2078   0.295   1.477   2.060  1.5079 -0.3655 -0.3207
  693SOL    HW2 2079   0.267   1.487   2.225 -0.6477 -4.1665 -3.7596
  694SOL     OW 2080   2.682   0.384   2.177  0.6025  0.1114 -0.8127
  694SOL    HW1 2081   2.783   0.392   2.181 -1.5140 -1.3459  0.0965
  694SOL    HW2 2082   2.649   0.362   2.082  2.2134 -0.9890 -2.4688
  695SOL     OW 2083   1.598   0.792   2.170  0.0196  0.7383  0.5869
  695SOL    HW1 2084   1.559   0.810   2.264 -1.8345  0.2574 -1.6746
  695SOL    HW2 2085   1.641   0.876   2.133 -0.0782 -1.7125  0.8679
  696SOL     OW 2086   2.362   3.108   1.824 -0.4405 -0.3966  0.6319
  696SOL    HW1 2087   2.329   3.154   1.909 -1.3451 -0.1004  0.9324
  696SOL    HW2 2088   2.294   3.130   1.752 -3.4592 -3.0196 -0.1275
  697SOL     OW 2089   1.137   0.817   2.178 -0.0910  0.0991  0.1710
  697SOL    HW1 2090   1.097   0.749   2.242 -3.1487 -0.9250  1.9987
  697SOL    HW2 2091   1.212   0.774   2.124  0.8646 -1.2429  0.8634
  698SOL     OW 2092   2.415   1.785   2.935  0.9616 -0.0267 -0.4231
  698SOL    HW1 2093   2.497   1.750   2.884  1.6713  1.4495 -1.7596
  698SOL    HW2 2094   2.416   1.755   3.034  0.9718 -0.3328  0.2302
  699SOL     OW 2095   2.606   1.158   0.340 -0.1975  0.0646 -0.1592
  699SOL    HW1 2096   2.524   1.115   0.384  1.6974 -2.9606  0.5266
  699SOL    HW2 2097   2.591   1.158   0.239 -0.6495  0.8804  1.4680
  700SOL     OW 2098   1.357   3.301   1.049  0.0959 -0.5723  0.4662
  700SOL    HW1 2099   1.390   3.258   0.962  2.6839  0.1468 -2.6342
  700SOL    HW2 2100   1.411   3.267   1.129  1.0877  0.0300 -0.6032
  701SOL     OW 2101   3.185   0.518   0.811  0.1857 -0.2480 -0.4284
  701SOL    HW1 2102   3.126   0.601   0.797 -0.1208 -2.8029 -1.0225
  701SOL    HW2 2103   3.261   0.545   0.872  0.9343  0.3663 -2.3113
  702SOL     OW 2104   1.688   2.771   1.346 -0.4975  0.0080 -0.2809
  702SOL    HW1 2105   1.700   2.677   1.385 -1.6264 -0.0688  0.5320
  702SOL    HW2 2106   1.703   2.846   1.414  0.3666 -0.3279  0.8559
  703SOL     OW 2107   0.082   0.555   1.292 -0.4788  0.4330 -0.0178
  703SOL    HW1 2108   0.049   0.584   1.384  3.0651  0.9028 -2.0957
  703SOL    HW2 2109   0.184   0.553   1.296  1.0686  3.6850  0.5254
  704SOL     OW 2110   1.151   3.056   1.912 -0.5397  0.8381  0.0064
  704SOL    HW1 2111   1.126   3.146   1.871  0.7052 -0.1532 -0.9165
  704SOL    HW2 2112   1.069   3.012   1.955 -1.1484  0.5171 -0.8317
  705SOL     OW 2113   0.070   2.121   3.283  0.4804 -0.5112 -0.6316
  705SOL    HW1 2114   0.121   2.061   3.349  2.1933  0.9947  2.7126
  705SOL    HW2 2115  -0.021   2.146   3.322  1.6515 -2.1398  1.5392
  706SOL     OW 2116   0.080   0.619   0.333  0.1035 -0.0905 -0.1124
  706SOL    HW1 2117   0.061   0.588   0.237 -1.0697  0.8540 -1.7284
  706SOL    HW2 2118   0.029   0.557   0.397 -2.0326  1.3422  0.1642
  707SOL     OW 2119   2.117   2.801   2.104  0.4223  0.4196 -0.0609
  707SOL    HW1 2120   2.148   2.711   2.145  0.9406  1.4141  0.0833
  707SOL    HW2 2121   2.167   2.882   2.140  0.1502 -0.9665 -1.3017
  708SOL     OW 2122   0.629   3.265   1.593 -0.0491 -0.0327 -0.5913
  708SOL    HW1 2123   0.621   3.175   1.641  0.2183 -0.5984 -2.9446
  708SOL    HW2 2124   0.578   3.334   1.647  0.8601 -2.3717  0.5553
  709SOL     OW 2125   0.244   0.786   1.890 -0.5025  0.3730  0.4602
  709SOL    HW1 2126   0.171   0.809   1.823 -1.0171 -1.1738 -0.4104
  709SOL    HW2 2127   0.238   0.853   1.968  3.2185  0.9623  3.1220
  710SOL     OW 2128   0.265   0.641   0.825 -0.4216 -0.2567 -0.1306
  710SOL    HW1 2129   0.189   0.628   0.892 -1.2656  2.8430  1.8981
  710SOL    HW2 2130   0.244   0.722   0.768  0.8421  0.5933 -1.2404
  711SOL     OW 2131   2.573   2.506   2.185  0.4809  0.1823  0.5330
  711SOL    HW1 2132   2.590   2.498   2.287 -2.0682  2.6310 -0.3567
  711SOL    HW2 2133   2.534   2.599   2.170  2.0541  0.0489  0.1913
  712SOL     OW 2134   0.205   2.911   2.596 -0.5228  0.1647  0.2257
  712SOL    HW1 2135   0.190   3.002   2.639  0.6986  2.0050 -3.5369
  712SOL    HW2 2136   0.142   2.894   2.517 -0.2306  1.3924 -2.7607
  713SOL     OW 2137   2.531   0.236   0.709  0.1824  0.0666 -0.0698
  713SOL    HW1 2138   2.598   0.305   0.743 -0.1480 -1.4898  1.2927
  713SOL    HW2 2139   2.520   0.238   0.608  1.0332 -1.4504  1.0851
  714SOL     OW 2140   1.848   1.498   2.905  0.1367  0.6392  0.0966
  714SOL    HW1 2141   1.852   1.601   2.905 -1.8878  0.3013  2.9066
  714SOL    HW2 2142   1.905   1.463   2.828 -1.3685  0.4431 -0.7611
  715SOL     OW 2143   0.048   0.643   1.005 -0.2237 -0.2022 -0.1860
  715SOL    HW1 2144   0.049   0.613   1.103  0.1281 -1.6582  0.0106
  715SOL    HW2 2145   0.033   0.744   1.002  0.5086  0.7814  0.4193
  716SOL     OW 2146   0.866   0.757   1.729  0.6160 -0.2761  0.2561
  716SOL    HW1 2147   0.779   0.722   1.687  0.3391  0.0680  2.1686
  716SOL    HW2 2148   0.888   0.704   1.814  0.0476 -1.5426 -0.0805
  717SOL     OW 2149   1.482   0.842   2.423  0.6234 -0.0279  0.0435
  717SOL    HW1 2150   1.536   0.897   2.491  2.2634 -0.1633  0.4591
  717SOL    HW2 2151   1.397   0.893   2.399 -0.0270 -2.0065 -0.7550
  718SOL     OW 2152   1.340   0.025   0.559  0.0917  0.4894 -0.5604
  718SOL    HW1 2153   1.360   0.118   0.597  1.0490  2.5357  0.5383
  718SOL    HW2 2154   1.335   0.043   0.459 -0.5074  1.0753  3.0744
  719SOL     OW 2155   3.232   2.965   2.970 -0.0773  0.3253 -0.6878
  719SOL    HW1 2156   3.137   2.930   2.956  2.2331 -1.3990  1.7672
  719SOL    HW2 2157   3.295   2.889   2.992  0.8710  1.0630  1.6273
  720SOL     OW 2158   1.589   0.402   1.984 -0.9263  0.5183  0.6763
  720SOL    HW1 2159   1.534   0.392   2.070 -1.1878 -1.0623  1.3038
  720SOL    HW2 2160   1.687   0.388   2.007  0.6313 -0.6310  0.1687
  721SOL     OW 2161   0.107   3.028   1.190 -0.1727 -0.3415  0.0877
  721SOL    HW1 2162   0.084   3.123   1.160  1.2570  1.1056  0.7925
  721SOL    HW2 2163   0.030   2.966   1.163  0.1607 -2.3535  1.4598
  722SOL     OW 2164   0.938   1.105   2.986 -0.5570  0.4212  0.5139
  722SOL    HW1 2165   0.898   1.177   2.927  0.7377 -2.5532  0.7706
  722SOL    HW2 2166   0.980   1.150   3.068 -0.8800  0.9848 -1.2257
  723SOL     OW 2167   2.202   1.335   1.411 -0.1554 -0.0317 -0.8439
  723SOL    HW1 2168   2.261   1.366   1.334 -0.1177  0.8449 -1.4917
  723SOL    HW2 2169   2.175   1.410   1.475  0.2830  2.6925 -2.1700
  724SOL     OW 2170   0.983   2.018   0.370  0.2733 -0.0805 -0.3732
  724SOL    HW1 2171   1.044   1.946   0.408 -1.4125 -1.5123  3.0049
  724SOL    HW2 2172   0.968   2.003   0.269 -1.4665  2.6925 -3.3914
  725SOL     OW 2173   0.021   0.841   1.705 -0.0152  0.2744  0.0351
  725SOL    HW1 2174   0.020   0.891   1.616 -2.0931  0.0728  0.3447
  725SOL    HW2 2175  -0.050   0.882   1.767  1.7417  1.0003  1.2047
  726SOL     OW 2176   2.565   1.122   0.059  0.6654  0.0254  0.0938
  726SOL    HW1 2177   2.474   1.107   0.014 -0.7658 -2.8151  2.5159
  726SOL    HW2 2178   2.618   1.034   0.054 -0.7465  0.7143  0.5790
  727SOL     OW 2179   2.362   0.916   2.715  0.2168  0.0891 -0.2335
  727SOL    HW1 2180   2.361   1.016   2.732 -0.7707 -0.4152  2.7854
  727SOL    HW2 2181   2.324   0.889   2.623  0.5407 -1.8667  1.6668
  728SOL     OW 2182   1.946   2.039   1.582  0.3654  0.3848 -0.2935
  728SOL    HW1 2183   2.046   2.025   1.570 -3.0403 -0.1064 -1.0653
  728SOL    HW2 2184   1.914   2.103   1.508 -1.6633 -1.2933 -1.9309
  729SOL     OW 2185   1.971   1.164   2.189 -0.0313 -0.1709 -0.4673
  729SOL    HW1 2186   1.909   1.246   2.198  0.9297  2.3977  0.9444
  729SOL    HW2 2187   2.067   1.197   2.188  0.3784  0.0506  0.4248
  730SOL     OW 2188   1.492   0.708   1.205  0.2578 -0.3418 -0.3625
  730SOL    HW1 2189   1.480   0.609   1.225  2.2526 -0.3864  0.6618
  730SOL    HW2 2190   1.554   0.714   1.124 -0.6865 -1.6577  2.5424
  731SOL     OW 2191   0.574   0.827   3.274  0.3755  0.3480  0.1473
  731SOL    HW1 2192   0.595   0.788   3.183 -1.9441 -1.8298 -0.2516
  731SOL    HW2 2193   0.572   0.754   3.346  2.0633 -1.4608  0.1351
  732SOL     OW 2194   0.398   1.026   0.409  0.0609 -0.0725  0.8513
  732SOL    HW1 2195   0.489   1.073   0.400 -3.7301 -2.0634 -1.9299
  732SOL    HW2 2196   0.355   1.052   0.498  1.6176 -0.9552 -0.0757
  733SOL     OW 2197   1.431   1.770   2.364 -0.0675  0.2305 -0.0299
  733SOL    HW1 2198   1.354   1.836   2.353  0.2898  2.9880  1.2270
  733SOL    HW2 2199   1.467   1.738   2.274  1.8912  0.5558  2.5807
  734SOL     OW 2200   0.430   2.538   3.237 -0.8624 -0.2711  0.5621
  734SOL    HW1 2201   0.482   2.605   3.293 -2.1312 -0.6446  0.5014
  734SOL    HW2 2202   0.380   2.463   3.286 -1.6752  2.5716 -1.3239
  735SOL     OW 2203   2.928   0.146   1.081  0.4257 -0.3321 -0.4883
  735SOL    HW1 2204   2.967   0.136   1.175  0.9141  0.5108  0.6756
  735SOL    HW2 2205   2.942   0.240   1.042 -1.3307  1.5158  1.6277
  736SOL     OW 2206   2.123   1.598   2.552 -0.2798 -0.2822 -0.1444
  736SOL    HW1 2207   2.216   1.570   2.521  3.7400  0.1940 -1.6602
  736SOL    HW2 2208   2.134   1.663   2.630 -0.5024 -0.3265  0.4300
  737SOL     OW 2209   0.038   0.869   0.445  0.5743  0.1876  0.0495
  737SOL    HW1 2210   0.032   0.935   0.368  0.4647  0.0307 -0.5813
  737SOL    HW2 2211   0.050   0.775   0.407  1.3398 -0.4889  1.1479
  738SOL     OW 2212   0.968   2.161   1.370  0.1314  0.2655 -0.1293
  738SOL    HW1 2213   0.931   2.078   1.324  0.2488 -0.7720  0.7250
  738SOL    HW2 2214   0.892   2.226   1.392  1.5583 -0.4698  0.4178
  739SOL     OW 2215   1.952   2.778   2.545  0.5616 -0.1487 -0.3489
  739SOL    HW1 2216   1.987   2.797   2.640  1.1773 -0.5240  1.8010
  739SOL    HW2 2217   1.935   2.865   2.495 -0.0416  0.9254  2.8019
  740SOL     OW 2218   2.500   2.532   1.162  0.4018  0.0984 -0.0884
  740SOL    HW1 2219   2.512   2.479   1.249 -1.5197 -0.0587 -0.0047
  740SOL    HW2 2220   2.543   2.624   1.175 -0.3131  3.1113 -2.4119
  741SOL     OW 2221   2.520   0.672   0.150  0.2060 -0.8464  0.2281
  741SOL    HW1 2222   2.507   0.597   0.081  1.1379  0.2171 -0.0858
  741SOL    HW2 2223   2.545   0.627   0.238 -1.4444 -0.3539 -1.0547
  742SOL     OW 2224   1.226   2.597   0.097  0.1024 -0.2541  0.2293
  742SOL    HW1 2225   1.146   2.591   0.033 -0.1612 -0.2064 -1.1415
  742SOL    HW2 2226   1.253   2.695   0.107  0.3828  0.0692 -0.3234
  743SOL     OW 2227   2.785   1.524   2.231 -0.8906  0.7653  0.4315
  743SOL    HW1 2228   2.734   1.537   2.144 -1.1216  2.2446 -0.0030
  743SOL    HW2 2229   2.766   1.434   2.274  0.1041  1.0023 -0.4721
  744SOL     OW 2230   3.189   0.177   0.425 -0.1415 -0.1013  0.0319
  744SOL    HW1 2231   3.108   0.199   0.484  0.1586 -2.7604  1.2449
  744SOL    HW2 2232   3.162   0.110   0.353 -1.2320  2.5863 -0.1861
  745SOL     OW 2233   2.797   1.923   1.404  0.6832 -0.2533  0.2079
  745SOL    HW1 2234   2.840   1.829   1.397  1.5102  3.6482 -4.0878
  745SOL    HW2 2235   2.728   1.924   1.328  1.4841 -0.3842  2.9437
  746SOL     OW 2236   1.164   1.796   0.467 -0.5475  0.2209 -0.4041
  746SOL    HW1 2237   1.137   1.783   0.565  1.0825 -1.5123  1.6057
  746SOL    HW2 2238   1.146   1.715   0.407 -1.3745 -3.0816  0.1738
  747SOL     OW 2239   1.279   1.663   1.683 -0.5792  0.3639 -0.4727
  747SOL    HW1 2240   1.287   1.718   1.597  1.9482 -0.0805  0.0312
  747SOL    HW2 2241   1.195   1.603   1.683 -1.0918 -3.1305  3.2110
  748SOL     OW 2242   0.297   3.120   3.184 -0.1092  0.6516 -0.1539
  748SOL    HW1 2243   0.238   3.059   3.243 -2.9377 -1.4675 -1.3307
  748SOL    HW2 2244   0.284   3.218   3.209 -1.1559  1.9449  3.3006
  749SOL     OW 2245   0.268   1.139   3.063 -0.1130  0.8381  0.1369
  749SOL    HW1 2246   0.283   1.066   3.133 -3.0579  0.4304 -2.4882
  749SOL    HW2 2247   0.301   1.109   2.970 -0.5256  1.6681 -0.6860
  750SOL     OW 2248   1.726   1.065   1.772 -0.0771  0.3276  0.6443
  750SOL    HW1 2249   1.650   1.095   1.711  1.1697 -0.8872  1.8286
  750SOL    HW2 2250   1.792   1.143   1.777  1.0547  1.8725 -0.6433
  751SOL     OW 2251   3.127   0.969   0.657  0.3986 -0.0057  0.4936
  751SOL    HW1 2252   3.193   0.922   0.595  1.1770  1.8867  1.2153
  751SOL    HW2 2253   3.142   1.070   0.655  0.8738 -1.2528  1.0730
  752SOL     OW 2254   3.073   3.010   0.974  0.3692  0.4698  0.1842
  752SOL    HW1 2255   3.089   3.111   0.984 -1.8953 -0.8940  2.0523
  752SOL    HW2 2256   3.123   2.957   1.047 -0.1412 -0.3446  2.4969
  753SOL     OW 2257   0.725   2.736   1.366  0.1845  0.0092 -0.2366
  753SOL    HW1 2258   0.768   2.675   1.436 -3.6238 -1.1107  0.5949
  753SOL    HW2 2259   0.727   2.695   1.273 -0.0713  0.0470  0.9960
  754SOL     OW 2260   3.181   2.904   2.062 -0.5355 -0.4733  0.4299
  754SOL    HW1 2261   3.150   2.985   2.116 -1.9707 -0.3054  0.8319
  754SOL    HW2 2262   3.147   2.818   2.106 -0.3719 -0.3130 -0.0245
  755SOL     OW 2263   2.682   0.878   0.021  0.2548 -0.2732  0.7513
  755SOL    HW1 2264   2.765   0.836  -0.022  1.0920 -0.5732  1.3428
  755SOL    HW2 2265   2.633   0.802   0.068  0.0098  2.3765  0.9049
  756SOL     OW 2266   1.972   2.299   0.240  0.3510 -0.4295  0.7913
  756SOL    HW1 2267   1.975   2.327   0.142  0.2788  1.5829 -0.5126
  756SOL    HW2 2268   2.049   2.241   0.271 -1.6524  0.9660  0.6623
  757SOL     OW 2269   2.839   0.599   0.534 -0.0457 -0.0296 -0.2257
  757SOL    HW1 2270   2.815   0.692   0.499 -2.5115  0.0111 -1.3491
  757SOL    HW2 2271   2.936   0.603   0.562 -0.5350 -0.7289 -1.6615
  758SOL     OW 2272   2.319   1.016   2.046  0.0045  0.1803  0.4335
  758SOL    HW1 2273   2.230   0.968   2.031  0.8994  1.5742 -1.9085
  758SOL    HW2 2274   2.300   1.110   2.082 -0.4332  0.3516  0.1892
  759SOL     OW 2275   2.868   0.526   1.433 -0.0702  0.3128  0.1194
  759SOL    HW1 2276   2.790   0.585   1.403  0.5665 -3.4747  0.0424
  759SOL    HW2 2277   2.940   0.519   1.360  1.7682  0.5214  1.7209
  760SOL     OW 2278   0.596   1.547   1.541  0.0843 -0.4839  0.1500
  760SOL    HW1 2279   0.505   1.590   1.524  1.1830 -2.8591 -0.1924
  760SOL    HW2 2280   0.587   1.450   1.571  3.5356 -2.3565 -2.8296
  761SOL     OW 2281   0.850   0.672   0.101  0.0799 -0.2305  0.5128
  761SOL    HW1 2282   0.753   0.648   0.122  1.7386  2.2606  0.0305
  761SOL    HW2 2283   0.872   0.769   0.126 -1.1219 -0.6837 -1.3941
  762SOL     OW 2284   0.759   1.930   1.265  0.2348  0.4963  0.1771
  762SOL    HW1 2285   0.801   1.841   1.237 -1.9718 -0.5788  0.4766
  762SOL    HW2 2286   0.737   1.929   1.365 -0.6936 -0.5540 -0.3643
  763SOL     OW 2287   1.364   0.750   2.008 -0.0414 -0.7683 -0.2665
  763SOL    HW1 2288   1.388   0.691   1.928  4.0202 -1.2471 -0.3567
  763SOL    HW2 2289   1.443   0.762   2.073 -1.7537  2.7868 -1.1368
  764SOL     OW 2290   3.246   3.231   3.156  0.3815  0.5755 -0.3131
  764SOL    HW1 2291   3.293   3.226   3.246 -1.5507 -1.3275  2.1427
  764SOL    HW2 2292   3.260   3.142   3.107  0.2231 -1.5262 -1.4331
  765SOL     OW 2293   0.789   0.024   2.003  0.5530  0.4703  0.2074
  765SOL    HW1 2294   0.709   0.078   2.037  2.1837 -0.3904 -0.3896
  765SOL    HW2 2295   0.832   0.069   1.923  1.4958 -0.1867  2.3033
  766SOL     OW 2296   2.952   2.041   2.444  0.5592  0.3476  0.2717
  766SOL    HW1 2297   2.867   2.000   2.486 -0.7699 -2.4596 -0.4439
  766SOL    HW2 2298   3.040   2.013   2.487 -1.0606  1.2150 -0.1690
  767SOL     OW 2299   1.477   1.324   2.549 -0.2956 -0.0076 -0.2050
  767SOL    HW1 2300   1.469   1.223   2.559 -0.2279 -2.8814 -0.5857
  767SOL    HW2 2301   1.393   1.364   2.506 -0.6130  1.8206 -2.0254
  768SOL     OW 2302   1.613   1.891   0.152  0.3039  0.4053  0.3268
  768SOL    HW1 2303   1.512   1.893   0.172 -2.8316  3.1147  3.4312
  768SOL    HW2 2304   1.661   1.894   0.241  2.4296 -0.1811  1.0304
  769SOL     OW 2305   0.433   1.674   0.948  0.3191  0.1613  0.5463
  769SOL    HW1 2306   0.376   1.711   0.872 -1.0474  0.7059  2.1977
  769SOL    HW2 2307   0.532   1.685   0.923  1.7078  3.1662  1.9355
  770SOL     OW 2308   1.790   0.672   2.716  0.1891  0.1637  0.1104
  770SOL    HW1 2309   1.850   0.756   2.709 -1.1266  1.2406 -2.3732
  770SOL    HW2 2310   1.693   0.699   2.735  4.2396  0.6798  3.4473
  771SOL     OW 2311   2.722   0.073   2.585  0.0047 -0.0335 -0.0859
  771SOL    HW1 2312   2.676   0.111   2.501 -0.4019 -1.0572 -1.9161
  771SOL    HW2 2313   2.658   0.058   2.663 -3.1415  0.8137 -0.8818
  772SOL     OW 2314   2.692   1.794   2.294  0.4321 -0.0062 -0.3134
  772SOL    HW1 2315   2.591   1.777   2.284  0.6428  1.0261  0.2104
  772SOL    HW2 2316   2.745   1.710   2.272  0.3068 -1.0644  0.8894
  773SOL     OW 2317   1.044   1.522   1.640  0.1643  0.8954 -0.5350
  773SOL    HW1 2318   1.059   1.467   1.555 -2.2140  0.0889  1.6488
  773SOL    HW2 2319   0.967   1.587   1.625 -0.7139  0.7459  1.5161
  774SOL     OW 2320   1.234   0.697   3.090  0.0710 -0.0734 -0.2430
  774SOL    HW1 2321   1.225   0.604   3.048  3.2722 -0.0829 -0.8998
  774SOL    HW2 2322   1.148   0.751   3.076 -1.0275  2.0562 -1.3796
  775SOL     OW 2323   1.520   2.346   0.366  0.1890 -0.0562  0.3465
  775SOL    HW1 2324   1.558   2.438   0.393  3.1020 -1.2498 -1.9569
  775SOL    HW2 2325   1.511   2.353   0.264 -0.5289  0.8684 -0.2375
  776SOL     OW 2326   3.222   1.185   1.773 -0.9823 -0.4178 -0.0273
  776SOL    HW1 2327   3.321   1.189   1.799 -0.6602  0.6600 -0.3033
  776SOL    HW2 2328   3.178   1.102   1.812  0.9715  0.1552 -1.3998
  777SOL     OW 2329   2.638   2.488   2.454  0.1721 -0.5378  0.4404
  777SOL    HW1 2330   2.677   2.581   2.473 -1.6243  0.0192  0.6772
  777SOL    HW2 2331   2.713   2.420   2.443  0.3545  1.1029  1.6953
  778SOL     OW 2332   1.803   1.392   2.213  0.0212  0.3862  0.5438
  778SOL    HW1 2333   1.741   1.407   2.134  1.1583 -0.7428  2.2624
  778SOL    HW2 2334   1.846   1.478   2.249  0.5706  0.2783 -1.4514
  779SOL     OW 2335   3.161   1.248   0.585 -0.0696  0.0627 -0.1680
  779SOL    HW1 2336   3.119   1.339   0.604 -0.3155 -3.2183 -0.4365
  779SOL    HW2 2337   3.139   1.217   0.490  0.0512 -0.5560  0.8695
  780SOL     OW 2338   2.238   3.164   2.972 -0.5806  0.5652  0.7608
  780SOL    HW1 2339   2.166   3.219   2.925  0.2672  0.8455  1.2951
  780SOL    HW2 2340   2.235   3.181   3.073  0.6047 -1.7990  1.1154
  781SOL     OW 2341   2.939   1.680   1.333  0.3121  0.5564 -0.7386
  781SOL    HW1 2342   3.002   1.705   1.257  0.2031 -2.4512 -1.5447
  781SOL    HW2 2343   2.995   1.650   1.413  0.6883  0.1047 -0.3837
  782SOL     OW 2344   3.147   2.458   3.057 -0.0611 -0.6042  0.3727
  782SOL    HW1 2345   3.104   2.477   3.148 -0.8158 -0.5182 -0.0611
  782SOL    HW2 2346   3.075   2.448   2.985 -1.3445 -1.2876  0.3899
  783SOL     OW 2347   0.726   1.684   0.862  0.1878  0.1210  0.4494
  783SOL    HW1 2348   0.734   1.585   0.836 -0.0349  1.8965 -1.4052
  783SOL    HW2 2349   0.737   1.744   0.780 -0.2468  1.0819  1.7959
  784SOL     OW 2350   2.479   1.464   0.481 -0.1554 -0.5507  0.1814
  784SOL    HW1 2351   2.504   1.379   0.431  0.4276  0.4795  1.3469
  784SOL    HW2 2352   2.428   1.524   0.415 -0.5411 -0.0532  0.3244
  785SOL     OW 2353   2.111   2.952   0.479  0.1873 -0.4218 -0.0303
  785SOL    HW1 2354   2.057   2.997   0.405 -0.0327 -1.0141  1.3594
  785SOL    HW2 2355   2.049   2.908   0.546 -0.4116 -1.0096 -3.8234
  786SOL     OW 2356   0.739   2.154   2.751  0.1694 -0.6439  0.0181
  786SOL    HW1 2357   0.698   2.076   2.700  0.6142  0.9892 -0.0382
  786SOL    HW2 2358   0.716   2.141   2.851  2.3697  1.2192 -2.3786
  787SOL     OW 2359   1.442   0.427   1.261 -0.1546  0.2609 -0.0970
  787SOL    HW1 2360   1.531   0.377   1.263  2.7880 -0.4286  0.7301
  787SOL    HW2 2361   1.372   0.367   1.304  0.4467  2.2196  1.7452
  788SOL     OW 2362   0.690   1.066   0.085 -0.0853  0.0750  0.0747
  788SOL    HW1 2363   0.649   0.990   0.029  3.0700  2.2145  4.2440
  788SOL    HW2 2364   0.664   1.157   0.047  0.6781  0.0877 -2.1512
  789SOL     OW 2365   3.048   2.052   1.380 -0.2013  0.3159  0.4709
  789SOL    HW1 2366   2.963   2.007   1.413 -1.7983  0.3011 -1.0523
  789SOL    HW2 2367   3.043   2.074   1.281  1.5856  0.6806  0.3594
  790SOL     OW 2368   1.528   0.150   2.366 -0.1714  0.9064  0.2247
  790SOL    HW1 2369   1.452   0.116   2.426 -0.4931 -1.5835 -2.3265
  790SOL    HW2 2370   1.490   0.229   2.314 -0.8000 -3.1359  1.4799
  791SOL     OW 2371   1.090   0.578   0.220 -0.0528  0.2221  0.9623
  791SOL    HW1 2372   1.132   0.503   0.164  1.8798 -0.2335 -0.6506
  791SOL    HW2 2373   1.000   0.606   0.181  2.0541 -2.6510  0.2718
  792SOL     OW 2374   1.412   0.316   1.764 -0.0578 -0.3403  0.2573
  792SOL    HW1 2375   1.414   0.413   1.731  0.3971  1.2599 -0.5395
  792SOL    HW2 2376   1.476   0.307   1.844  0.2263  0.0642 -0.7763
  793SOL     OW 2377   1.060   3.189   0.898  0.3320 -0.2669  0.0795
  793SOL    HW1 2378   1.019   3.282   0.909  0.4241  3.1904 -2.3426
  793SOL    HW2 2379   1.118   3.167   0.979  1.9352 -2.3848 -0.7975
  794SOL     OW 2380   0.698   1.392   1.987 -0.4276 -0.9087 -0.2866
  794SOL    HW1 2381   0.648   1.305   1.974 -0.6657 -0.1727 -1.8324
  794SOL    HW2 2382   0.755   1.393   2.073  2.5689 -0.2403  3.9113
  795SOL     OW 2383   0.155   1.529   2.372  0.0658 -0.5921  0.3758
  795SOL    HW1 2384   0.074   1.567   2.323  1.2947  0.4272 -1.4729
  795SOL    HW2 2385   0.180   1.590   2.450  3.2326  0.2565  3.3416
  796SOL     OW 2386   2.022   1.780   1.906  0.2282 -0.3159  0.2998
  796SOL    HW1 2387   2.095   1.848   1.926  1.8558  1.1241  0.2592
  796SOL    HW2 2388   1.951   1.777   1.979 -0.8932  1.9894  0.0056
  797SOL     OW 2389   0.052   0.289   2.795  0.0149  0.1315 -0.3481
  797SOL    HW1 2390   0.074   0.215   2.727  2.4185 -1.6305 -0.4706
  797SOL    HW2 2391   0.027   0.247   2.885  2.7557  0.2509 -0.0092
  798SOL     OW 2392   3.281   2.490   2.110  0.7192 -0.3720 -0.0352
  798SOL    HW1 2393   3.250   2.512   2.014  0.3737 -1.7902 -1.2020
  798SOL    HW2 2394   3.277   2.388   2.124 -1.4957  2.0517  0.7900
  799SOL     OW 2395   2.997   2.497   3.309  0.5169  0.2140  0.4577
  799SOL    HW1 2396   3.060   2.554   3.366 -0.6070  0.0728  0.2290
  799SOL    HW2 2397   2.901   2.531   3.325  1.2736 -1.7892 -1.3204
  800SOL     OW 2398   1.115   1.759   0.748  0.2761  0.2946 -0.1904
  800SOL    HW1 2399   1.067   1.845   0.775  1.2019  1.4597 -3.1571
  800SOL    HW2 2400   1.203   1.746   0.801 -0.8386 -1.0094 -0.5960
  801SOL     OW 2401   3.019   0.734   0.784  0.0746 -0.7043 -0.3469
  801SOL    HW1 2402   3.060   0.819   0.748 -3.0876 -0.9758 -3.7639
  801SOL    HW2 2403   2.937   0.750   0.844 -1.7754 -1.2648  0.4253
  802SOL     OW 2404   2.841   1.706   0.522  0.1974  0.0078  0.0172
  802SOL    HW1 2405   2.848   1.796   0.474 -1.1201 -0.5448 -1.2805
  802SOL    HW2 2406   2.742   1.689   0.536 -0.7110 -0.5225  2.4675
  803SOL     OW 2407   1.819   2.077   3.108 -0.1954  0.2489 -0.2738
  803SOL    HW1 2408   1.791   2.099   3.013  1.5022 -0.6069  0.7979
  803SOL    HW2 2409   1.912   2.117   3.125 -1.9824  0.7406  0.4556
  804SOL     OW 2410   2.194   2.114   0.315 -0.0580 -0.0800 -0.3042
  804SOL    HW1 2411   2.190   2.043   0.389  0.3325  1.9347  0.4949
  804SOL    HW2 2412   2.227   2.071   0.229 -0.9136  1.8422 -2.3862
  805SOL     OW 2413   3.126   1.761   2.761 -0.4194  0.5750 -0.0722
  805SOL    HW1 2414   3.078   1.805   2.840 -2.1700  2.3331  0.0281
  805SOL    HW2 2415   3.134   1.826   2.682 -1.5029 -0.4343  1.3011
  806SOL     OW 2416   0.322   0.298   0.428  0.5277 -0.2255  0.5109
  806SOL    HW1 2417   0.315   0.349   0.517 -0.1737 -2.3740  1.9699
  806SOL    HW2 2418   0.248   0.227   0.422 -1.9013 -0.4333 -0.2960
  807SOL     OW 2419   2.626   1.427   2.711  0.0755 -0.1091  0.4878
  807SOL    HW1 2420   2.563   1.365   2.764 -0.8536 -1.7427  0.8589
  807SOL    HW2 2421   2.705   1.373   2.674  0.0010 -0.5629  0.9026
  808SOL     OW 2422   0.161   1.569   0.561 -0.5070  0.7206 -0.1820
  808SOL    HW1 2423   0.144   1.481   0.611  1.1479 -0.2806  1.2237
  808SOL    HW2 2424   0.192   1.645   0.622 -4.3348  1.0338  0.0757
  809SOL     OW 2425   2.752   0.605   3.042 -0.0087  0.1995 -0.0339
  809SOL    HW1 2426   2.805   0.658   3.113  1.4436  0.7889 -1.4106
  809SOL    HW2 2427   2.651   0.618   3.054 -0.8683  0.5053 -1.6952
  810SOL     OW 2428   0.999   0.788   0.400  0.1954  0.1453 -0.3974
  810SOL    HW1 2429   1.046   0.706   0.361 -1.8207  0.3717  1.1621
  810SOL    HW2 2430   0.964   0.850   0.327 -0.9712 -2.4405  1.9594
  811SOL     OW 2431   1.678   2.760   0.871 -0.2301  0.2092 -0.1709
  811SOL    HW1 2432   1.588   2.809   0.870 -0.9192 -0.4735  0.7298
  811SOL    HW2 2433   1.671   2.672   0.817 -0.1660  0.9226  2.4527
  812SOL     OW 2434   0.842   2.852   1.792  0.1503 -0.4854  0.5920
  812SOL    HW1 2435   0.810   2.755   1.801 -1.4980  1.3244 -2.7815
  812SOL    HW2 2436   0.886   2.880   1.880 -2.0438 -1.7156 -1.5695
  813SOL     OW 2437   1.152   0.319   2.129  0.2631  0.2052  0.4304
  813SOL    HW1 2438   1.132   0.220   2.147  4.6188 -1.8583 -0.1124
  813SOL    HW2 2439   1.088   0.378   2.182 -1.6591  2.2399 -1.1458
  814SOL     OW 2440   1.448   3.280   2.989 -0.0775 -0.1640 -0.0887
  814SOL    HW1 2441   1.386   3.328   3.055  0.0703 -1.3477 -1.4599
  814SOL    HW2 2442   1.419   3.185   2.969  1.5583  0.8257 -0.0157
  815SOL     OW 2443   0.660   0.660   2.110 -0.3568 -0.0567 -0.2110
  815SOL    HW1 2444   0.604   0.712   2.042 -0.6733  4.4292  1.0909
  815SOL    HW2 2445   0.679   0.725   2.187 -1.1465 -1.3104 -1.3414
  816SOL     OW 2446   2.468   0.459   3.309 -0.0066  0.4815  0.5293
  816SOL    HW1 2447   2.394   0.433   3.374  0.1990 -0.7834 -2.3924
  816SOL    HW2 2448   2.522   0.376   3.280 -1.0394 -2.3573 -0.9682
  817SOL     OW 2449   1.924   0.206   3.017  0.2303 -0.0548  0.1477
  817SOL    HW1 2450   1.903   0.300   2.985 -1.9508  1.6639  1.5560
  817SOL    HW2 2451   1.842   0.153   3.048  0.0663 -0.5901 -0.4203
  818SOL     OW 2452   2.274   0.414   0.171  0.4142 -0.0110 -0.0136
  818SOL    HW1 2453   2.287   0.316   0.199  0.2791 -0.4931  0.9881
  818SOL    HW2 2454   2.237   0.467   0.250  2.1568 -0.8586 -2.3809
  819SOL     OW 2455   2.554   1.665   0.120  0.0357 -0.1263 -0.1729
  819SOL    HW1 2456   2.616   1.744   0.141  0.3469  0.9382  1.7640
  819SOL    HW2 2457   2.608   1.580   0.107  0.1627  0.8191 -1.2172
  820SOL     OW 2458   3.153   2.191   0.050 -0.4093  0.0894 -0.7515
  820SOL    HW1 2459   3.096   2.273   0.035 -2.5724 -0.6331  2.0873
  820SOL    HW2 2460   3.098   2.107   0.028  0.6524 -0.0439  4.0583
  821SOL     OW 2461   0.412   2.832   1.637  0.2182  0.6210  0.1449
  821SOL    HW1 2462   0.316   2.858   1.660  0.0148  1.5352  0.7576
  821SOL    HW2 2463   0.412   2.804   1.539 -0.1364 -1.7934  1.8501
  822SOL     OW 2464   2.948   2.862   2.617  0.2105  0.2068  0.7816
  822SOL    HW1 2465   2.942   2.963   2.606 -0.3751 -0.0812  1.2182
  822SOL    HW2 2466   2.872   2.813   2.569 -2.2902 -0.0661  0.2888
  823SOL     OW 2467   1.716   3.223   2.542 -0.1673  0.3289  0.4169
  823SOL    HW1 2468   1.736   3.285   2.464 -3.6749  3.0410 -2.4663
  823SOL    HW2 2469   1.658   3.279   2.607 -0.1105  1.0026 -1.3867
  824SOL     OW 2470   2.633   1.874   1.166  0.7473 -0.6727 -0.3384
  824SOL    HW1 2471   2.670   1.908   1.076 -0.1590  0.0604  1.0334
  824SOL    HW2 2472   2.639   1.772   1.171  1.8261  1.3636 -1.4703
  825SOL     OW 2473   3.058   2.102   2.790  1.0017 -0.2921 -0.1860
  825SOL    HW1 2474   3.018   2.177   2.734 -0.2516 -1.1293 -1.1512
  825SOL    HW2 2475   3.159   2.119   2.785  1.3140  1.7367  2.8571
  826SOL     OW 2476   3.062   1.482   2.359 -0.0843 -0.0701 -0.4840
  826SOL    HW1 2477   2.969   1.503   2.323 -1.1293 -2.3771 -0.1313
  826SOL    HW2 2478   3.068   1.495   2.460 -1.0790 -0.3909 -1.3753
  827SOL     OW 2479   2.695   2.783   1.891 -0.1372  0.1903  0.2260
  827SOL    HW1 2480   2.724   2.697   1.844  0.0576  0.7417  1.2578
  827SOL    HW2 2481   2.592   2.791   1.889  0.8543  0.3906 -2.7792
  828SOL     OW 2482   3.185   3.217   1.721 -0.4867  0.2835  0.1165
  828SOL    HW1 2483   3.140   3.211   1.629 -0.5087 -2.3298  0.8676
  828SOL    HW2 2484   3.261   3.283   1.713  2.0610  0.7971 -1.0932
  829SOL     OW 2485   2.110   2.058   2.477  0.5764 -0.1352 -0.1016
  829SOL    HW1 2486   2.012   2.077   2.456 -1.3455  2.7776  0.3037
  829SOL    HW2 2487   2.123   2.051   2.579 -0.5619 -0.1830 -0.4310
  830SOL     OW 2488   1.679   0.707   0.958  0.1289  0.4879  0.3041
  830SOL    HW1 2489   1.747   0.631   0.953  0.1216 -0.3748 -1.0365
  830SOL    HW2 2490   1.726   0.797   0.969 -0.5365 -1.0099  0.1049
  831SOL     OW 2491   3.182   1.630   0.854  0.2588  0.1856 -0.2637
  831SOL    HW1 2492   3.232   1.548   0.889 -0.1017 -1.6455 -1.3463
  831SOL    HW2 2493   3.132   1.602   0.768  0.5296  1.2131  0.4069
  832SOL     OW 2494   1.634   2.496   2.024  0.1261 -0.4182 -0.4390
  832SOL    HW1 2495   1.607   2.594   2.020 -1.9597 -2.2838  2.4381
  832SOL    HW2 2496   1.733   2.487   1.999  1.6135 -3.0849  1.3865
  833SOL     OW 2497   3.291   3.216   2.471 -0.3704 -0.6079  0.0365
  833SOL    HW1 2498   3.216   3.204   2.403 -0.6923  1.9025  2.8483
  833SOL    HW2 2499   3.266   3.184   2.565  0.5782  2.6349  0.1921
  834SOL     OW 2500   1.170   1.113   1.383  0.1480  0.3583 -0.0304
  834SOL    HW1 2501   1.200   1.078   1.474 -0.7818 -0.0834  1.4971
  834SOL    HW2 2502   1.237   1.079   1.313 -0.1103  1.5691  2.8737
  835SOL     OW 2503   0.005   0.816   3.019  0.2800  0.4501 -0.1905
  835SOL    HW1 2504  -0.097   0.816   3.004 -2.4550  0.6224 -0.2426
  835SOL    HW2 2505   0.026   0.817   3.118 -0.2822  0.7671 -0.7809
  836SOL     OW 2506   1.112   2.540   1.107  0.0502  0.0171  0.3915
  836SOL    HW1 2507   1.031   2.602   1.090 -1.2749 -0.4154 -2.2692
  836SOL    HW2 2508   1.177   2.588   1.169 -0.5658  1.4194 -0.8950
  837SOL     OW 2509   2.297   0.888   1.322 -0.1247 -0.2207 -0.4013
  837SOL    HW1 2510   2.223   0.885   1.253 -0.8248  0.4171  1.6761
  837SOL    HW2 2511   2.266   0.953   1.396 -0.4284  0.2851 -1.4034
  838SOL     OW 2512   1.527   1.832   3.038 -0.0828 -0.1749 -0.2401
  838SOL    HW1 2513   1.600   1.829   3.109  1.1420 -0.8380  2.9723
  838SOL    HW2 2514   1.553   1.905   2.972 -2.1600 -0.8090 -0.4824
  839SOL     OW 2515   0.606   2.472   3.020 -0.2899  0.7503 -0.2009
  839SOL    HW1 2516   0.632   2.374   3.018  1.8457  0.1538 -0.8408
  839SOL    HW2 2517   0.543   2.496   3.097  0.3560  0.8408 -1.0302
  840SOL     OW 2518   0.824   2.654   3.055 -0.2386  0.3635  0.3662
  840SOL    HW1 2519   0.747   2.589   3.038 -0.4760 -0.8678 -0.4285
  840SOL    HW2 2520   0.809   2.740   3.004  0.3710  0.2751  0.7857
  841SOL     OW 2521   2.063   2.214   3.136  0.2294  0.5596 -0.0195
  841SOL    HW1 2522   2.157   2.176   3.150 -0.0227  0.9525 -1.4049
  841SOL    HW2 2523   2.050   2.289   3.205  3.5770 -4.0036  0.3210
  842SOL     OW 2524   1.666   0.968   3.013  0.1916 -0.2669  0.4781
  842SOL    HW1 2525   1.679   1.068   2.993 -0.4615  0.8880 -2.9167
  842SOL    HW2 2526   1.570   0.936   2.998 -1.6562  0.9189 -2.9546
  843SOL     OW 2527   1.470   3.200   0.811  0.0023  0.8001  0.0131
  843SOL    HW1 2528   1.570   3.224   0.819 -0.6878  0.6400  1.0769
  843SOL    HW2 2529   1.433   3.240   0.726  0.7973 -0.8006  0.2573
  844SOL     OW 2530   2.665   3.102   2.879 -0.5674 -0.2206  0.0689
  844SOL    HW1 2531   2.643   3.046   2.962 -0.2800 -0.0126 -1.4171
  844SOL    HW2 2532   2.757   3.146   2.881  0.6723  1.1417  0.1248
  845SOL     OW 2533   3.088   3.184   1.462  0.6941  0.2971  0.3321
  845SOL    HW1 2534   3.086   3.272   1.410 -0.4173  1.2263  0.4000
  845SOL    HW2 2535   2.998   3.135   1.457 -0.6796  2.0986 -1.1296
  846SOL     OW 2536   0.247   2.394   2.383  0.2571 -0.3044 -0.4966
  846SOL    HW1 2537   0.222   2.484   2.342 -0.0442  2.9123 -0.3163
  846SOL    HW2 2538   0.264   2.407   2.482  1.6066 -0.2660  1.1019
  847SOL     OW 2539   1.790   0.168   1.544  0.3555  0.2764  0.3027
  847SOL    HW1 2540   1.698   0.187   1.583  0.6660  0.7294  1.2607
  847SOL    HW2 2541   1.832   0.090   1.596 -1.5775 -0.8198  1.3147
  848SOL     OW 2542   3.069   0.651   0.095  0.2532 -0.6843 -0.4105
  848SOL    HW1 2543   3.166   0.621   0.083  0.8590  0.1023 -1.5604
  848SOL    HW2 2544   3.006   0.571   0.101  1.4381 -3.2368  2.1724
  849SOL     OW 2545   0.560   0.623   0.135  0.3644 -0.3159  0.0462
  849SOL    HW1 2546   0.494   0.664   0.202  0.6915  0.0121 -0.8608
  849SOL    HW2 2547   0.535   0.526   0.115  0.1511 -0.1021  0.4992
  850SOL     OW 2548   0.359   2.911   1.136 -0.7931  0.0362  0.1963
  850SOL    HW1 2549   0.266   2.949   1.154  1.2271 -1.6455  1.7895
  850SOL    HW2 2550   0.417   2.987   1.100 -0.9787  2.4489  0.2532
  851SOL     OW 2551   2.086   0.200   2.605  0.3970  0.2472 -0.2648
  851SOL    HW1 2552   1.988   0.221   2.627 -3.3077  0.3133  1.1951
  851SOL    HW2 2553   2.090   0.153   2.514 -0.6796 -0.2779  0.7344
  852SOL     OW 2554   1.671   1.689   2.504 -0.1186  0.1284 -0.3488
  852SOL    HW1 2555   1.644   1.624   2.579 -0.9355  0.5010  1.3678
  852SOL    HW2 2556   1.590   1.718   2.448 -1.9043 -0.5629 -1.5161
  853SOL     OW 2557   0.113   3.156   0.493  0.3048 -0.4231 -0.0064
  853SOL    HW1 2558   0.117   3.076   0.429 -2.7674  1.2847  2.0161
  853SOL    HW2 2559   0.164   3.132   0.578 -0.2265  0.2287 -1.3888
  854SOL     OW 2560   2.607   3.303   0.746 -0.7415 -0.2614  0.3446
  854SOL    HW1 2561   2.562   3.394   0.741 -1.3272  0.3065  2.9752
  854SOL    HW2 2562   2.570   3.247   0.670  2.6745 -1.3929 -2.7382
  855SOL     OW 2563   1.500   2.322   0.807 -0.1027  0.4110 -0.4782
  855SOL    HW1 2564   1.466   2.263   0.730 -0.0325 -1.5719 -0.6960
  855SOL    HW2 2565   1.422   2.370   0.852  1.8917  0.4240  3.5947
  856SOL     OW 2566   2.584   0.515   0.401 -0.0123 -0.1350  0.3087
  856SOL    HW1 2567   2.566   0.413   0.399  1.1286 -0.5760  0.7014
  856SOL    HW2 2568   2.678   0.532   0.434 -0.6501 -0.6116  1.1558
  857SOL     OW 2569   1.995   2.737   1.868 -0.1426 -0.0069 -0.3596
  857SOL    HW1 2570   2.032   2.774   1.956 -0.6608  0.0601 -0.5828
  857SOL    HW2 2571   2.071   2.699   1.812  0.9340 -1.5426 -3.4888
  858SOL     OW 2572   2.776   2.386   1.486 -0.3857  0.1400 -0.2007
  858SOL    HW1 2573   2.849   2.405   1.416 -1.0906  2.9218  1.9657
  858SOL    HW2 2574   2.685   2.370   1.442 -0.1307 -0.2847 -3.2328
  859SOL     OW 2575   1.233   2.741   0.797  0.3405  0.4684 -0.2712
  859SOL    HW1 2576   1.155   2.774   0.855  0.7401  0.7172  0.0388
  859SOL    HW2 2577   1.314   2.802   0.815 -1.9686 -0.2984 -1.6729
  860SOL     OW 2578   2.372   2.567   0.236  0.1355 -0.6171  0.2031
  860SOL    HW1 2579   2.384   2.480   0.287  0.4452  1.9240 -1.3123
  860SOL    HW2 2580   2.385   2.549   0.137  0.1891  1.7041  0.3540
  861SOL     OW 2581   2.269   2.560   1.016  0.3185  0.3470 -0.1101
  861SOL    HW1 2582   2.286   2.627   0.940  2.0864  0.5573 -0.8065
  861SOL    HW2 2583   2.355   2.545   1.069  1.3582  1.2582 -1.7288
  862SOL     OW 2584   1.892   2.975   2.986 -0.0233  0.4815 -0.2605
  862SOL    HW1 2585   1.882   3.041   2.908  0.0323 -2.4875 -0.6285
  862SOL    HW2 2586   1.909   3.027   3.073 -0.1012  2.6184  0.2341
  863SOL     OW 2587   0.578   0.015   0.327  0.1548  0.3256 -0.0287
  863SOL    HW1 2588   0.611  -0.026   0.415  1.1364  2.7595  0.8990
  863SOL    HW2 2589   0.623  -0.031   0.246  1.5590 -1.2495 -0.8714
  864SOL     OW 2590   2.815   2.812   2.187 -0.4083 -0.4779 -0.1567
  864SOL    HW1 2591   2.902   2.759   2.189  1.0499  1.9841  1.0301
  864SOL    HW2 2592   2.769   2.799   2.096 -0.0552  1.7796  1.2472
  865SOL     OW 2593   0.015   2.243   3.029 -0.4955  0.5230 -0.4096
  865SOL    HW1 2594   0.034   2.200   3.120 -0.6145 -2.6633 -0.1657
  865SOL    HW2 2595  -0.055   2.316   3.040  1.7061 -1.2435  2.3509
  866SOL     OW 2596   2.796   0.328   3.014  0.0363  0.3973  0.6628
  866SOL    HW1 2597   2.874   0.306   2.953  1.4135  3.0681  0.5047
  866SOL    HW2 2598   2.784   0.430   3.018  0.0309 -2.4020 -0.4574
  867SOL     OW 2599   3.232   3.153   2.761 -0.1266 -0.2522 -0.8749
  867SOL    HW1 2600   3.145   3.205   2.768  0.7678  0.1444 -0.9974
  867SOL    HW2 2601   3.230   3.082   2.835  1.1339  1.8403  1.3748
  868SOL     OW 2602   0.901   2.953   0.863 -1.0043 -0.2597 -0.1871
  868SOL    HW1 2603   0.954   3.038   0.881  1.8729  1.4524 -0.8849
  868SOL    HW2 2604   0.899   2.933   0.763  1.6046 -0.8374  2.4470
  869SOL     OW 2605   1.445   1.452   1.312 -0.2446  0.3392  0.3558
  869SOL    HW1 2606   1.411   1.542   1.277  1.3613  0.3847 -3.9387
  869SOL    HW2 2607   1.526   1.417   1.260 -2.2258  0.9825 -0.3872
  870SOL     OW 2608   2.054   1.897   1.232 -0.1302  0.0467  0.6892
  870SOL    HW1 2609   2.086   1.799   1.232  1.1967  0.9660 -0.7809
  870SOL    HW2 2610   2.102   1.956   1.299 -0.3063 -0.1628  1.2887
  871SOL     OW 2611   1.110   1.534   1.122  0.6087  0.4108  0.4109
  871SOL    HW1 2612   1.106   1.475   1.039  1.7976  1.1720  0.0405
  871SOL    HW2 2613   1.034   1.603   1.122 -1.1028  0.4369 -1.0370
  872SOL     OW 2614   1.232   0.568   0.802  0.3832 -0.6141 -0.5787
  872SOL    HW1 2615   1.316   0.616   0.769  0.4360 -2.9592  0.8203
  872SOL    HW2 2616   1.232   0.545   0.902 -1.4463  0.9085  3.9223
  873SOL     OW 2617   1.855   0.492   2.934 -0.4941 -0.4087 -0.4845
  873SOL    HW1 2618   1.912   0.544   3.001 -0.5236 -1.4375  2.6625
  873SOL    HW2 2619   1.840   0.549   2.851  0.2677  3.3024 -1.9242
  874SOL     OW 2620   0.578   1.327   1.226  0.3991 -0.4239  0.2801
  874SOL    HW1 2621   0.597   1.385   1.309  1.8631  0.8673 -1.0607
  874SOL    HW2 2622   0.496   1.358   1.173 -1.9926  3.3453  0.2440
  875SOL     OW 2623   2.979   2.967   3.267  0.4154  1.0498 -0.1580
  875SOL    HW1 2624   2.957   2.897   3.198  1.3715  0.3887  1.6384
  875SOL    HW2 2625   2.970   3.062   3.229  0.2917 -0.0637  1.1577
  876SOL     OW 2626   0.870   0.602   3.159 -0.1011 -0.4228  0.0756
  876SOL    HW1 2627   0.868   0.621   3.260  2.4209  2.1365 -1.5100
  876SOL    HW2 2628   0.924   0.673   3.110 -1.2151  1.5577  0.6399
  877SOL     OW 2629   0.002   3.020   1.479 -0.0780  0.3258 -0.5589
  877SOL    HW1 2630   0.059   3.041   1.397 -1.4057  0.5688 -1.2896
  877SOL    HW2 2631  -0.079   3.082   1.477  0.1935  1.0462  0.2937
  878SOL     OW 2632   2.122   2.045   2.762  0.0020 -0.5089  0.2622
  878SOL    HW1 2633   2.053   2.112   2.800 -0.0732  0.8659 -0.5202
  878SOL    HW2 2634   2.212   2.064   2.806  2.7916  1.0418 -2.3544
  879SOL     OW 2635   2.358   1.900   1.975  0.0893 -0.4494 -0.0728
  879SOL    HW1 2636   2.368   1.888   2.076  0.7302  4.0330 -1.0944
  879SOL    HW2 2637   2.429   1.849   1.921  1.2719  2.5278  1.4642
  880SOL     OW 2638   1.017   1.121   0.991  0.0734  0.5953 -0.0646
  880SOL    HW1 2639   1.102   1.167   1.026 -0.2120 -2.0220 -2.6077
  880SOL    HW2 2640   1.029   1.020   1.000  1.3575 -0.1717 -2.3381
  881SOL     OW 2641   1.364   1.660   0.059  0.0338 -0.6190  0.7732
  881SOL    HW1 2642   1.343   1.749   0.105  0.8676 -0.3892 -0.1967
  881SOL    HW2 2643   1.416   1.604   0.126  1.3463  1.2347 -1.5628
  882SOL     OW 2644   2.000   0.007   1.233 -0.1252 -0.6684 -0.6927
  882SOL    HW1 2645   2.012   0.081   1.301 -1.2732 -0.9033 -2.4175
  882SOL    HW2 2646   2.083  -0.001   1.172 -1.2715 -1.1795  1.6651
  883SOL     OW 2647   2.071   0.725   2.285  0.2638  0.3224 -0.2536
  883SOL    HW1 2648   1.980   0.679   2.277 -0.9718 -0.0719 -1.4804
  883SOL    HW2 2649   2.147   0.657   2.292 -0.1898 -4.8742  1.2397
  884SOL     OW 2650   2.910   0.757   3.221  0.2717 -0.1248  0.0716
  884SOL    HW1 2651   2.969   0.792   3.144  1.1935 -1.2209  1.5611
  884SOL    HW2 2652   2.970   0.722   3.296 -0.6485 -1.0400  3.7077
  885SOL     OW 2653   1.259   2.471   0.881  0.4294 -0.0714 -0.5881
  885SOL    HW1 2654   1.264   2.562   0.834  2.4185  2.8103  0.7373
  885SOL    HW2 2655   1.209   2.483   0.970  0.5723  1.0385  0.0479
  886SOL     OW 2656   1.396   0.903   2.943  0.5108  0.1970  1.0158
  886SOL    HW1 2657   1.335   0.845   2.999  0.9922 -1.1529  1.5769
  886SOL    HW2 2658   1.341   0.984   2.916 -1.0201 -0.5925 -1.4662
  887SOL     OW 2659   1.891   3.294   1.716 -0.5942 -0.1429  0.3850
  887SOL    HW1 2660   1.954   3.319   1.794  1.0999  1.7367 -2.9749
  887SOL    HW2 2661   1.812   3.239   1.749  0.2000 -1.6342 -0.5734
  888SOL     OW 2662   3.087   1.825   1.742  0.1871 -0.5131  0.2088
  888SOL    HW1 2663   3.161   1.811   1.810  1.1558 -1.1008 -1.6310
  888SOL    HW2 2664   3.096   1.755   1.666  0.5392 -0.8441 -1.3222
  889SOL     OW 2665   3.263   2.985   0.754 -0.4683  0.4194  0.3283
  889SOL    HW1 2666   3.198   2.968   0.831  0.9686 -1.0605  3.3950
  889SOL    HW2 2667   3.239   3.072   0.706  2.2082  0.0563 -0.6937
  890SOL     OW 2668   0.718   2.086   2.357 -0.0872 -0.2060  0.0693
  890SOL    HW1 2669   0.736   2.188   2.355  1.3028  0.7992 -1.0607
  890SOL    HW2 2670   0.659   2.065   2.276 -2.1421 -1.7400  1.5904
  891SOL     OW 2671   0.762   1.857   0.630 -0.2335  0.8038 -0.2740
  891SOL    HW1 2672   0.841   1.906   0.674  1.2653 -0.5904 -1.9480
  891SOL    HW2 2673   0.699   1.924   0.585  0.0871  0.0324  1.1479
  892SOL     OW 2674   2.862   2.791   1.339  0.3781  0.6439  0.6137
  892SOL    HW1 2675   2.909   2.769   1.428 -0.6878 -0.8369 -1.0607
  892SOL    HW2 2676   2.903   2.736   1.263  1.4532 -0.6475 -2.6029
  893SOL     OW 2677   0.227   0.501   1.906  0.7454 -0.5142 -0.5219
  893SOL    HW1 2678   0.225   0.469   1.808  1.6107  2.4440  1.8651
  893SOL    HW2 2679   0.238   0.602   1.909 -0.8389 -1.3737  1.0994
  894SOL     OW 2680   2.982   2.005   1.080 -0.6620 -0.0581  0.1661
  894SOL    HW1 2681   2.897   1.986   1.028  1.5232 -0.1867 -2.1980
  894SOL    HW2 2682   3.022   1.911   1.096  0.6831 -1.9189  0.5173
  895SOL     OW 2683   1.294   2.689   1.541  0.4889  0.2172  0.2545
  895SOL    HW1 2684   1.366   2.637   1.592  0.0959 -1.9308  0.9788
  895SOL    HW2 2685   1.287   2.786   1.575  0.2243 -0.7703 -2.0840
  896SOL     OW 2686   0.804   0.366   1.434 -0.0287  0.2536  0.4997
  896SOL    HW1 2687   0.740   0.360   1.514 -0.1156  2.2749  2.2093
  896SOL    HW2 2688   0.900   0.373   1.468 -3.1433  1.2247 -0.3515
  897SOL     OW 2689   1.277   1.234   1.070 -0.3465 -0.2855 -0.5662
  897SOL    HW1 2690   1.292   1.311   1.133 -1.6880  2.4959 -1.5600
  897SOL    HW2 2691   1.321   1.147   1.103 -0.4220  1.4682 -2.2858
  898SOL     OW 2692   0.872   0.344   1.852 -0.1394 -0.5195 -0.0622
  898SOL    HW1 2693   0.869   0.435   1.900 -2.8060  0.1245 -1.0629
  898SOL    HW2 2694   0.966   0.304   1.847  1.6612  2.0147  0.3523
  899SOL     OW 2695   1.597   0.389   0.223  0.4938 -0.2992  0.2112
  899SOL    HW1 2696   1.686   0.424   0.185  1.2012 -1.2098 -1.2098
  899SOL    HW2 2697   1.530   0.467   0.234  0.8573  1.6605 -0.1030
  900SOL     OW 2698   1.109   0.711   2.617 -0.1393 -0.0191  0.0382
  900SOL    HW1 2699   1.089   0.806   2.649  0.0677 -2.1497 -2.0349
  900SOL    HW2 2700   1.076   0.699   2.520 -1.2785 -1.8462 -2.8991
  901SOL     OW 2701   0.783   2.188   0.482 -0.6471 -0.4107  0.2810
  901SOL    HW1 2702   0.867   2.139   0.449 -2.4968 -4.6686 -1.7533
  901SOL    HW2 2703   0.702   2.144   0.438 -0.8062  0.0941 -0.8990
  902SOL     OW 2704   1.986   0.222   0.795 -0.1348 -0.2516  0.3766
  902SOL    HW1 2705   2.004   0.168   0.709  1.4081  1.5492  0.4763
  902SOL    HW2 2706   1.916   0.171   0.849 -2.7415 -0.3417  0.9974
  903SOL     OW 2707   0.041   1.483   2.750 -0.3554  0.2151 -0.1075
  903SOL    HW1 2708   0.091   1.560   2.707 -1.2889 -0.8813 -1.1237
  903SOL    HW2 2709  -0.049   1.475   2.704 -0.6532 -0.2984  1.4466
  904SOL     OW 2710   1.821   1.351   0.454  0.1985  0.5683  0.3459
  904SOL    HW1 2711   1.771   1.388   0.534 -1.3334 -0.6932 -2.1537
  904SOL    HW2 2712   1.833   1.249   0.461  0.7010  0.5629  1.4396
  905SOL     OW 2713   2.102   2.948   1.447  0.2595  0.0260  0.1464
  905SOL    HW1 2714   2.033   2.988   1.382  1.2090 -3.9907 -2.4797
  905SOL    HW2 2715   2.117   2.851   1.424  1.6507  1.3204  0.4999
  906SOL     OW 2716   2.406   2.864   0.909  0.1919  0.1855  0.1420
  906SOL    HW1 2717   2.348   2.947   0.899  0.0141  1.3031 -0.4258
  906SOL    HW2 2718   2.460   2.871   0.995  0.8496  1.6390 -1.7619
  907SOL     OW 2719   2.388   1.037   0.446  0.5938 -0.1025  0.1795
  907SOL    HW1 2720   2.352   0.943   0.456 -1.3389  1.3927  0.7338
  907SOL    HW2 2721   2.320   1.105   0.485 -1.2940 -1.1500  2.6256
  908SOL     OW 2722   2.036   0.284   1.466 -0.2803 -0.3981 -0.0511
  908SOL    HW1 2723   2.038   0.386   1.457 -1.3745 -0.3429  0.4929
  908SOL    HW2 2724   1.941   0.259   1.496 -0.2851 -1.4604 -2.1543
  909SOL     OW 2725   2.620   3.071   1.079 -0.0033  0.1861  0.3657
  909SOL    HW1 2726   2.592   3.132   1.001  0.6305 -1.0626 -1.6073
  909SOL    HW2 2727   2.620   3.123   1.167  3.2616 -1.8491 -0.7749
  910SOL     OW 2728   2.480   0.591   2.139  0.3172 -0.2553 -0.6808
  910SOL    HW1 2729   2.406   0.583   2.209 -0.8820  0.3828  0.2910
  910SOL    HW2 2730   2.558   0.528   2.158  0.3816  0.6882  0.7004
  911SOL     OW 2731   2.055   0.024   2.844 -1.2199  0.0374 -0.0577
  911SOL    HW1 2732   2.009   0.088   2.909  2.9240  0.0090  0.5500
  911SOL    HW2 2733   2.088   0.076   2.762 -1.3889  0.4610  2.8175
  912SOL     OW 2734   0.559   1.004   1.434 -0.4141  0.3703 -0.3733
  912SOL    HW1 2735   0.655   1.034   1.415 -2.7337  0.6725 -0.3464
  912SOL    HW2 2736   0.552   0.902   1.427 -0.2509  1.4198  0.3983
  913SOL     OW 2737   2.615   2.806   1.184  0.6685 -0.5758 -0.6895
  913SOL    HW1 2738   2.615   2.901   1.148  1.2369 -1.9241  1.1028
  913SOL    HW2 2739   2.692   2.794   1.249  0.3144  3.5577  0.5916
  914SOL     OW 2740   1.240   0.478   1.074  0.0521 -0.2493  0.2329
  914SOL    HW1 2741   1.322   0.475   1.136  1.1577 -1.3715 -0.4141
  914SOL    HW2 2742   1.223   0.383   1.040 -2.2987  2.3476  0.2237
  915SOL     OW 2743   0.348   1.697   1.476 -0.1275 -0.0205  0.4600
  915SOL    HW1 2744   0.340   1.698   1.374  1.7039  0.0405  1.0201
  915SOL    HW2 2745   0.355   1.791   1.517 -4.4062 -1.4084 -1.3966
  916SOL     OW 2746   2.056   2.392   1.002  0.3530 -0.2184  0.4539
  916SOL    HW1 2747   2.135   2.457   1.008 -0.2708 -0.3128  0.2326
  916SOL    HW2 2748   1.971   2.444   1.025 -1.8020 -0.5961 -4.2771
  917SOL     OW 2749   2.162   2.580   2.487 -0.1817  0.3121  0.0250
  917SOL    HW1 2750   2.181   2.571   2.387  0.0564 -1.9934  0.7687
  917SOL    HW2 2751   2.084   2.645   2.500 -1.6129  0.3737 -1.7669
  918SOL     OW 2752   2.180   1.767   2.767 -0.0711 -0.2381 -0.1558
  918SOL    HW1 2753   2.265   1.765   2.824 -0.8106 -0.8740 -0.1539
  918SOL    HW2 2754   2.142   1.862   2.762 -0.5057 -0.3763 -1.3792
  919SOL     OW 2755   0.802   0.585   1.252  0.1089 -0.2442 -0.1833
  919SOL    HW1 2756   0.802   0.506   1.316 -1.8565  0.8205 -0.2057
  919SOL    HW2 2757   0.897   0.624   1.243  0.2183  2.1627 -0.8139
  920SOL     OW 2758   3.056   0.797   2.294  0.5838  0.1209 -0.5422
  920SOL    HW1 2759   3.079   0.730   2.219 -0.5801  0.3887 -2.6727
  920SOL    HW2 2760   3.132   0.800   2.361  1.2441 -0.5438  0.0735
  921SOL     OW 2761   2.701   1.334   1.594  0.0696 -0.4582  0.2346
  921SOL    HW1 2762   2.776   1.293   1.535  1.0183 -0.5968 -2.8858
  921SOL    HW2 2763   2.740   1.357   1.685 -2.4116 -1.5997 -1.1809
  922SOL     OW 2764   2.987   2.461   0.863  0.2375 -0.4515  0.0838
  922SOL    HW1 2765   2.948   2.397   0.932  2.1201  0.0666  0.7706
  922SOL    HW2 2766   2.912   2.531   0.849 -1.9529  1.0633 -0.1606
  923SOL     OW 2767   0.043   2.501   0.595  0.5554 -0.0423  0.3355
  923SOL    HW1 2768   0.081   2.485   0.689 -0.2407  1.6514  1.5036
  923SOL    HW2 2769   0.109   2.475   0.520 -0.3630  1.3836 -1.1194
  924SOL     OW 2770   1.051   1.294   3.190  0.0830 -0.4250 -0.1721
  924SOL    HW1 2771   1.104   1.344   3.118 -0.0693  0.3597  1.7762
  924SOL    HW2 2772   0.979   1.353   3.232 -0.4788  1.1742  1.3055
  925SOL     OW 2773   3.303   1.390   0.950 -0.4673 -0.3320  0.3160
  925SOL    HW1 2774   3.355   1.413   1.035 -0.0098  1.6016  0.3105
  925SOL    HW2 2775   3.241   1.310   0.967 -0.7580  1.0717 -0.4409
  926SOL     OW 2776   0.121   0.021   1.387  0.0907 -0.2576  0.1844
  926SOL    HW1 2777   0.220   0.000   1.381  2.5273  1.2448 -0.6464
  926SOL    HW2 2778   0.081  -0.000   1.294 -2.2715 -0.5660  0.3791
  927SOL     OW 2779   0.657   1.926   2.599  0.1007 -0.2372  0.2068
  927SOL    HW1 2780   0.737   1.862   2.608 -2.6678  3.3860 -1.5735
  927SOL    HW2 2781   0.663   1.974   2.509  2.5097 -1.3652  0.9761
  928SOL     OW 2782   0.361   0.715   2.559 -0.0648 -0.1670 -0.1255
  928SOL    HW1 2783   0.406   0.624   2.572 -0.6540 -2.3188  2.9053
  928SOL    HW2 2784   0.300   0.732   2.639  0.9957  2.2573 -0.7000
  929SOL     OW 2785   2.878   2.285   1.057 -0.0873  0.0726  0.0282
  929SOL    HW1 2786   2.777   2.284   1.043 -0.6055  0.2142  1.3215
  929SOL    HW2 2787   2.909   2.188   1.064 -0.6233  0.9611  0.5236
  930SOL     OW 2788   1.824   0.258   2.644  0.1588 -0.5778 -0.0897
  930SOL    HW1 2789   1.746   0.207   2.686 -1.3448 -2.7089 -0.7825
  930SOL    HW2 2790   1.792   0.338   2.588 -1.6043  0.4652  0.3489
  931SOL     OW 2791   2.657   1.054   3.056  0.2839  0.1927 -0.1186
  931SOL    HW1 2792   2.668   1.062   3.157  0.8662 -0.1896  1.2315
  931SOL    HW2 2793   2.580   0.990   3.033 -1.9063  1.7254  0.3459
  932SOL     OW 2794   1.924   0.961   0.697  0.2107 -0.1414 -0.3073
  932SOL    HW1 2795   1.906   1.001   0.605  2.3570 -0.0401 -1.7372
  932SOL    HW2 2796   1.982   0.877   0.686 -1.0367  1.0507 -2.1581
  933SOL     OW 2797   2.513   0.666   0.792  0.0642  0.2901 -0.0772
  933SOL    HW1 2798   2.453   0.646   0.712 -1.9692  1.6056  0.5693
  933SOL    HW2 2799   2.540   0.764   0.791 -1.3044  0.7693 -0.3579
  934SOL     OW 2800   2.863   1.281   2.588  0.1247  0.3707 -0.0694
  934SOL    HW1 2801   2.934   1.207   2.590 -1.0077  1.2185  1.4502
  934SOL    HW2 2802   2.826   1.283   2.493  0.9235 -0.0728  1.7941
  935SOL     OW 2803   0.113   1.465   1.185 -0.0339  0.1052 -0.2725
  935SOL    HW1 2804   0.080   1.558   1.210  2.7040 -0.6571 -0.6942
  935SOL    HW2 2805   0.114   1.410   1.272 -1.7130  2.9231 -4.4413
  936SOL     OW 2806   0.047   3.209   0.078  0.3052  0.0096  0.4456
  936SOL    HW1 2807   0.069   3.110   0.072 -1.4736  1.8862  0.9706
  936SOL    HW2 2808   0.126   3.258   0.119 -1.6309  0.5859 -0.6244
  937SOL     OW 2809   3.087   2.682   2.220 -0.2236  0.5742  0.1388
  937SOL    HW1 2810   3.092   2.680   2.322  1.4330 -3.3412 -0.1702
  937SOL    HW2 2811   3.139   2.607   2.176  1.4020  1.0859 -1.8765
  938SOL     OW 2812   2.437   2.522   3.271  0.4341  0.5546 -0.1893
  938SOL    HW1 2813   2.491   2.436   3.262  0.4303 -2.6120 -2.1244
  938SOL    HW2 2814   2.357   2.516   3.208  0.5836  2.9313  0.9482
  939SOL     OW 2815   1.145   0.667   1.513 -0.1368 -0.0062  0.5577
  939SOL    HW1 2816   1.244   0.698   1.509  2.3326 -0.9494  0.3479
  939SOL    HW2 2817   1.087   0.730   1.569  1.1473 -0.0130  2.1869
  940SOL     OW 2818   2.539   3.142   3.310 -0.6329 -0.5082 -0.0829
  940SOL    HW1 2819   2.447   3.176   3.280 -1.9250  0.7714  1.5032
  940SOL    HW2 2820   2.576   3.072   3.244  0.0651  1.2318  2.0194
  941SOL     OW 2821   2.826   3.078   2.282 -0.2369  0.0785  0.2631
  941SOL    HW1 2822   2.743   3.132   2.256 -0.8630  1.7188 -1.3297
  941SOL    HW2 2823   2.818   2.982   2.247  0.3961  3.2829 -0.4439
  942SOL     OW 2824   1.742   0.020   1.120 -0.0168  0.0151  0.4271
  942SOL    HW1 2825   1.675  -0.040   1.169  1.8342 -0.8189 -2.3433
  942SOL    HW2 2826   1.836   0.015   1.161  0.4211  0.5136  0.6896
  943SOL     OW 2827   1.364   1.718   2.645 -0.0899 -0.0664 -0.1619
  943SOL    HW1 2828   1.438   1.658   2.685  1.1652  1.4176 -0.0205
  943SOL    HW2 2829   1.385   1.735   2.547  0.6907 -0.8006 -0.9650
  944SOL     OW 2830   2.908   0.915   1.455 -0.3137 -0.0318 -0.2751
  944SOL    HW1 2831   2.987   0.872   1.406 -1.2216  0.1226  4.4080
  944SOL    HW2 2832   2.832   0.849   1.443 -0.6096 -2.0087  2.0349
  945SOL     OW 2833   2.873   0.034   2.939 -1.0059 -0.1503 -0.2840
  945SOL    HW1 2834   2.790   0.084   2.966  1.4088  0.6641 -1.6896
  945SOL    HW2 2835   2.935   0.101   2.891  1.8927 -1.3032 -2.4183
  946SOL     OW 2836   0.069   1.562   1.509  0.4762 -0.5370  0.1423
  946SOL    HW1 2837   0.155   1.617   1.513 -1.1019  0.6286 -1.2101
  946SOL    HW2 2838   0.092   1.465   1.488 -2.1318  0.7513  0.8656
  947SOL     OW 2839   0.461   0.440   3.012 -0.1444 -0.4716 -0.4691
  947SOL    HW1 2840   0.476   0.340   3.026 -1.4677 -0.3328  2.8867
  947SOL    HW2 2841   0.388   0.456   2.941  0.5086  3.7042 -2.5054
  948SOL     OW 2842   2.144   1.632   1.284  0.3542  0.4977 -0.2177
  948SOL    HW1 2843   2.149   1.621   1.386 -0.4299  2.3244 -0.7986
  948SOL    HW2 2844   2.221   1.579   1.242 -2.1096  2.5401  1.0633
  949SOL     OW 2845   0.419   1.370   3.154 -0.3422 -0.3213 -0.2672
  949SOL    HW1 2846   0.430   1.448   3.088 -1.6174  0.5915 -0.5053
  949SOL    HW2 2847   0.357   1.298   3.115  0.5754 -2.1819  0.5693
  950SOL     OW 2848   0.617   3.014   1.729  0.2815 -0.3155  0.2144
  950SOL    HW1 2849   0.541   2.953   1.697 -3.3907  1.0495  0.1663
  950SOL    HW2 2850   0.701   2.958   1.747 -2.7606  1.1302 -1.2869
  951SOL     OW 2851   0.903   2.346   2.640  0.4454  0.3634  0.2190
  951SOL    HW1 2852   0.835   2.283   2.682  0.7310 -1.7667  0.9744
  951SOL    HW2 2853   0.983   2.358   2.702 -2.6445  1.3966  0.3327
  952SOL     OW 2854   0.709   1.179   0.620 -0.5880  0.3398  0.3773
  952SOL    HW1 2855   0.676   1.095   0.668  1.2494 -3.5131  1.4862
  952SOL    HW2 2856   0.677   1.182   0.522 -0.7116  0.8148 -0.8981
  953SOL     OW 2857   2.388   1.716   3.210  0.4439  0.1115  0.2055
  953SOL    HW1 2858   2.306   1.656   3.213  0.0801 -0.2750  2.1711
  953SOL    HW2 2859   2.448   1.700   3.291 -3.9786 -0.2304 -1.6052
  954SOL     OW 2860   1.650   0.286   0.500  0.0279  0.0827 -0.3688
  954SOL    HW1 2861   1.628   0.300   0.401 -2.8706  1.2079 -1.7824
  954SOL    HW2 2862   1.684   0.190   0.511  0.0055  3.3811  0.4588
  955SOL     OW 2863   0.943   1.680   0.107  0.5298 -0.3264  0.1137
  955SOL    HW1 2864   0.908   1.606   0.045 -0.4780 -1.2310  0.2309
  955SOL    HW2 2865   1.001   1.637   0.179  0.3550 -0.3243  3.1896
  956SOL     OW 2866   2.980   0.394   2.165 -0.2379 -0.1880  1.3191
  956SOL    HW1 2867   3.016   0.483   2.129  2.8916  1.4400 -0.7555
  956SOL    HW2 2868   3.024   0.369   2.255  0.8559  0.7846  0.9482
  957SOL     OW 2869   2.087   2.085   2.145 -0.1056  0.4472 -0.1154
  957SOL    HW1 2870   1.987   2.081   2.129 -0.2286  0.3830  0.9165
  957SOL    HW2 2871   2.115   2.049   2.237  3.5770  1.7933 -1.6891
  958SOL     OW 2872   1.873   0.950   1.306 -0.1201 -0.2556  0.1349
  958SOL    HW1 2873   1.927   1.036   1.300  0.9283 -0.4545 -1.6602
  958SOL    HW2 2874   1.888   0.901   1.395 -0.4501  0.8006  0.8165
  959SOL     OW 2875   1.577   2.299   2.214  0.6804 -0.5357 -0.0349
  959SOL    HW1 2876   1.620   2.213   2.181  1.2676  2.5208  1.2578
  959SOL    HW2 2877   1.584   2.376   2.146 -0.1540 -0.0896 -1.2420
  960SOL     OW 2878   0.850   1.332   2.808  0.4026  0.6112  0.1770
  960SOL    HW1 2879   0.936   1.356   2.758 -0.3623 -2.8463 -0.2102
  960SOL    HW2 2880   0.772   1.328   2.741 -1.7618  0.7933  1.6224
  961SOL     OW 2881   2.950   1.315   0.136 -0.0004  0.3014 -0.1793
  961SOL    HW1 2882   2.966   1.400   0.194  3.7879  2.1192 -1.5891
  961SOL    HW2 2883   2.855   1.320   0.096 -3.6309  0.0257  0.0185
  962SOL     OW 2884   0.940   1.955   0.086  0.4751 -0.2587  0.0911
  962SOL    HW1 2885   0.953   1.853   0.084 -1.9482 -0.4253  0.3547
  962SOL    HW2 2886   1.004   2.002   0.021 -2.9575 -2.2390  2.0780
  963SOL     OW 2887   3.031   1.685   0.015  0.1669  0.3335  0.6579
  963SOL    HW1 2888   2.999   1.639   0.100 -2.7572 -3.6697 -2.9560
  963SOL    HW2 2889   3.125   1.663  -0.017  2.5011 -0.2108 -1.1704
  964SOL     OW 2890   0.775   2.361   2.341 -0.0967  0.3741  0.3624
  964SOL    HW1 2891   0.828   2.374   2.426  3.0716  0.1485  0.0745
  964SOL    HW2 2892   0.723   2.447   2.321 -2.4371 -2.4438  0.5609
  965SOL     OW 2893   1.376   2.044   1.505 -0.1718 -0.4421 -0.3659
  965SOL    HW1 2894   1.421   2.083   1.422  2.8797 -0.6230  0.3498
  965SOL    HW2 2895   1.331   1.954   1.485  1.3877  0.3323  1.6163
  966SOL     OW 2896   3.265   1.605   0.408  0.0244  0.4026 -0.0266
  966SOL    HW1 2897   3.347   1.600   0.470 -2.2458 -0.6682 -1.7587
  966SOL    HW2 2898   3.279   1.565   0.316  0.2077  1.0804 -0.3410
  967SOL     OW 2899   2.058   2.833   2.799 -0.0898 -0.3965  0.1982
  967SOL    HW1 2900   1.990   2.877   2.862  0.4840  0.9571 -0.9546
  967SOL    HW2 2901   2.149   2.836   2.846 -2.7930 -1.3701 -2.2630
  968SOL     OW 2902   1.542   1.407   3.112 -0.2056  0.5841 -0.3252
  968SOL    HW1 2903   1.577   1.409   3.207 -0.8010  0.0362 -0.7162
  968SOL    HW2 2904   1.470   1.480   3.108 -1.3629  2.3924  1.3455
  969SOL     OW 2905   0.173   1.005   2.637  0.0400  0.2262  0.2083
  969SOL    HW1 2906   0.167   1.084   2.571 -0.1677 -0.0011 -1.1540
  969SOL    HW2 2907   0.247   1.022   2.706  1.6473  0.4371  1.4724
  970SOL     OW 2908   2.534   0.228   0.423  0.1989 -0.4344 -0.1988
  970SOL    HW1 2909   2.448   0.201   0.375  1.0174  1.8735 -0.2303
  970SOL    HW2 2910   2.611   0.160   0.414 -2.3991  1.9579 -1.0047
  971SOL     OW 2911   1.722   2.142   0.868  0.2953 -0.7736 -0.4345
  971SOL    HW1 2912   1.647   2.212   0.872  0.9694  0.6701 -1.8478
  971SOL    HW2 2913   1.775   2.143   0.956 -3.0199 -1.6497 -0.9106
  972SOL     OW 2914   0.226   2.207   2.855 -0.7158 -0.3043  0.2282
  972SOL    HW1 2915   0.150   2.226   2.921  0.8228 -3.6891 -2.5625
  972SOL    HW2 2916   0.294   2.143   2.895  1.1202 -1.1684  0.3587
  973SOL     OW 2917   0.572   0.572   0.478 -0.1413 -0.4310 -0.0389
  973SOL    HW1 2918   0.503   0.629   0.429 -2.1397  1.3734  0.3724
  973SOL    HW2 2919   0.589   0.483   0.431 -0.0619 -4.5900  2.8408
  974SOL     OW 2920   2.973   0.714   1.844 -0.8177  0.6475 -0.1415
  974SOL    HW1 2921   3.009   0.653   1.769  0.3112 -0.8717  1.7165
  974SOL    HW2 2922   2.872   0.723   1.843 -0.3341 -0.2862  2.8776
  975SOL     OW 2923   0.350   3.304   0.879 -0.4786  0.4279 -0.2502
  975SOL    HW1 2924   0.307   3.232   0.819  2.9811  1.0483  0.6822
  975SOL    HW2 2925   0.406   3.365   0.820 -0.0930  2.8479 -0.7977
  976SOL     OW 2926   0.822   1.702   1.577  0.2337 -0.1516 -0.3597
  976SOL    HW1 2927   0.747   1.636   1.549  0.1915 -1.1811 -0.1095
  976SOL    HW2 2928   0.795   1.800   1.575 -2.9518  0.3599  2.5361
  977SOL     OW 2929   1.398   2.184   0.584  0.1691  0.5670  0.3770
  977SOL    HW1 2930   1.438   2.231   0.503 -0.8477 -3.2409  2.1611
  977SOL    HW2 2931   1.408   2.082   0.575  3.5023 -0.9500  2.9944
  978SOL     OW 2932   0.105   1.231   0.042 -0.8130 -0.1126 -0.4575
  978SOL    HW1 2933   0.102   1.238  -0.059  0.7783  0.0035  1.4735
  978SOL    HW2 2934   0.198   1.205   0.077  1.7650 -3.2493  2.4518
  979SOL     OW 2935   2.123   1.232   0.286 -0.6069 -0.6090 -0.0896
  979SOL    HW1 2936   2.092   1.139   0.255  1.3374  1.0916  1.6949
  979SOL    HW2 2937   2.159   1.224   0.382  1.8181  4.1483 -4.9881
  980SOL     OW 2938   0.825   1.819   2.033 -0.5600 -0.1120  0.1450
  980SOL    HW1 2939   0.785   1.757   1.961  3.5608  0.9643  0.5716
  980SOL    HW2 2940   0.777   1.798   2.120  0.0084 -0.2451 -1.2227
  981SOL     OW 2941   2.392   1.523   2.484  0.5782 -0.6391  0.4099
  981SOL    HW1 2942   2.463   1.523   2.558 -0.1973 -1.6808 -4.1103
  981SOL    HW2 2943   2.383   1.423   2.457  1.8617 -0.3314  0.3474
  982SOL     OW 2944   0.449   2.355   1.858 -0.4031 -0.0526  0.0821
  982SOL    HW1 2945   0.448   2.455   1.836  0.4465 -0.0637 -2.2208
  982SOL    HW2 2946   0.444   2.348   1.959  0.7691 -0.3924  1.3049
  983SOL     OW 2947   1.654   2.937   2.204 -0.4499  0.1793  0.4231
  983SOL    HW1 2948   1.644   3.030   2.163  0.3575 -0.9324  0.4606
  983SOL    HW2 2949   1.640   2.865   2.132  0.1357  0.7695  1.0522
  984SOL     OW 2950   3.308   0.166   3.039  0.0378  0.0900 -0.4013
  984SOL    HW1 2951   3.275   0.232   3.109 -0.4568 -1.7967  1.5284
  984SOL    HW2 2952   3.288   0.071   3.069 -2.2777 -1.5250 -1.6585
  985SOL     OW 2953   1.605   1.454   1.967 -0.2052 -0.0664 -0.8285
  985SOL    HW1 2954   1.655   1.471   1.880 -1.4068  0.1106 -0.9764
  985SOL    HW2 2955   1.531   1.384   1.957 -0.9901  2.1801 -0.0855
  986SOL     OW 2956   1.868   0.491   0.016 -0.1966  0.4782  0.4415
  986SOL    HW1 2957   1.959   0.538   0.024 -2.9211 -1.4593 -1.6870
  986SOL    HW2 2958   1.800   0.546  -0.036 -0.0514 -0.9578  0.8928
  987SOL     OW 2959   0.272   2.443   2.687  0.5451  0.5752 -0.2027
  987SOL    HW1 2960   0.355   2.493   2.722  1.2596 -0.1273  0.5535
  987SOL    HW2 2961   0.262   2.358   2.743 -1.8184 -1.1343 -2.1794
  988SOL     OW 2962   3.084   0.261   1.707  0.2265  0.0681  0.5774
  988SOL    HW1 2963   3.173   0.222   1.673  0.9377 -0.3468  2.4348
  988SOL    HW2 2964   3.010   0.243   1.639 -0.0760  1.3948  0.9021
  989SOL     OW 2965   2.232   3.324   1.078  0.3674  0.1416 -0.2623
  989SOL    HW1 2966   2.239   3.245   1.012  3.2962 -0.9216 -1.6695
  989SOL    HW2 2967   2.274   3.403   1.028 -0.1609 -0.2142 -1.1228
  990SOL     OW 2968   3.004   0.910   0.203 -0.5778  0.3278  0.8603
  990SOL    HW1 2969   3.022   0.970   0.121  1.7466 -0.1299 -0.0221
  990SOL    HW2 2970   3.031   0.814   0.180  0.9492  1.5341 -1.8163
  991SOL     OW 2971   0.301   1.127   0.675 -0.5667 -0.8349  0.0974
  991SOL    HW1 2972   0.230   1.199   0.674 -2.4909 -0.2940 -1.8652
  991SOL    HW2 2973   0.363   1.139   0.755  2.8629  1.6568 -0.2678
  992SOL     OW 2974   1.917   1.742   1.646 -0.2800 -1.4560 -0.2096
  992SOL    HW1 2975   1.902   1.834   1.604  1.1382  1.6837  3.1255
  992SOL    HW2 2976   1.949   1.756   1.742 -0.9869  3.2233 -0.7029
  993SOL     OW 2977   3.181   2.601   1.027  0.3876  0.3764 -0.1618
  993SOL    HW1 2978   3.216   2.531   1.093  0.3432  1.5534 -2.1909
  993SOL    HW2 2979   3.117   2.557   0.961 -0.1737  2.1714 -0.0405
  994SOL     OW 2980   3.316   1.977   1.401  0.3059  0.6163 -0.0026
  994SOL    HW1 2981   3.216   1.999   1.397 -1.0292 -0.6331 -0.3253
  994SOL    HW2 2982   3.348   1.984   1.497 -2.1397  4.5287 -1.3977
  995SOL     OW 2983   2.231   1.310   3.048  0.2437  0.3858 -0.1236
  995SOL    HW1 2984   2.175   1.234   3.086  0.3457 -2.0445 -0.1258
  995SOL    HW2 2985   2.203   1.400   3.087  0.9466  2.8186 -0.0894
  996SOL     OW 2986   1.990   2.589   0.593  0.2087  0.6506 -0.3215
  996SOL    HW1 2987   1.967   2.578   0.494  1.2151 -0.4055  1.3442
  996SOL    HW2 2988   2.047   2.513   0.631  0.6749  1.8710  1.3836
  997SOL     OW 2989   1.551   1.705   2.083  0.0710 -0.6800 -0.0249
  997SOL    HW1 2990   1.490   1.757   2.020 -0.1925  2.1365 -3.9503
  997SOL    HW2 2991   1.564   1.610   2.046 -1.9068 -0.3113 -2.0007
  998SOL     OW 2992   3.272   2.781   0.537  0.2221  0.2917 -0.1303
  998SOL    HW1 2993   3.302   2.687   0.563 -0.6324 -0.0369 -0.4950
  998SOL    HW2 2994   3.273   2.842   0.620 -0.3697  0.5673  0.6825
  999SOL     OW 2995   0.660   3.248   0.082 -0.2610  0.2489 -0.1521
  999SOL    HW1 2996   0.630   3.166   0.032  2.0479  0.6366 -0.5382
  999SOL    HW2 2997   0.659   3.333   0.024  0.2633 -0.6090  0.7152
 1000SOL     OW 2998   0.953   0.239   0.093 -0.1798 -0.4621 -0.2847
 1000SOL    HW1 2999   1.041   0.290   0.086  2.8680 -1.2735 -0.8692
 1000SOL    HW2 3000   0.904   0.255   0.005 -2.2024  1.6986  3.4500
   3.33447   3.33447   3.33447
