1000 SPC/Fw water molecules
3000
    1SOL  OW       1   0.782   2.665   0.686 -0.5189 -0.1532  0.0202
    1SOL  HW1      2   0.760   2.566   0.660 -2.2084  1.5125 -1.2522
    1SOL  HW2      3   0.799   2.677   0.789 -2.3226  0.9501  2.9437
    2SOL  OW       4   1.237   0.522   1.718  0.3664 -0.2652  0.0552
    2SOL  HW1      5   1.293   0.576   1.779  0.3997 -0.5902 -3.0149
    2SOL  HW2      6   1.229   0.432   1.756 -0.9337  1.1548 -0.4867
    3SOL  OW       7   0.565   2.782   2.384 -0.2186  0.2319 -0.2563
    3SOL  HW1      8   0.547   2.884   2.384  2.7384  0.0568  1.5092
    3SOL  HW2      9   0.591   2.749   2.475 -1.4101  0.3822  1.0635
    4SOL  OW      10   2.315   2.027   3.025 -0.5023  0.4655 -0.4367
    4SOL  HW1     11   2.397   2.072   3.070  0.4903 -0.3233  3.8437
    4SOL  HW2     12   2.336   2.017   2.926 -2.9587  1.6812  1.5177
    5SOL  OW      13   1.666   1.711   2.266 -0.3482 -0.3987  0.0577
    5SOL  HW1     14   1.679   1.723   2.365  0.4749  1.0534 -0.9310
    5SOL  HW2     15   1.710   1.632   2.219 -1.2664  0.8147 -2.6706
    6SOL  OW      16   2.545   0.756   2.255 -0.3630  0.0746 -0.3536
    6SOL  HW1     17   2.484   0.766   2.173  2.2412 -0.8962  0.5919
    6SOL  HW2     18   2.533   0.835   2.319  1.7698 -0.2712  2.2914
    7SOL  OW      19   0.130   1.491   0.373  0.1203 -0.3224 -0.7825
    7SOL  HW1     20   0.151   1.444   0.466 -1.0093 -2.5308  0.9117
    7SOL  HW2     21   0.106   1.592   0.389  0.0435 -1.9581 -2.2221
    8SOL  OW      22   2.711   1.910   2.774 -0.5385 -0.3783 -0.0066
    8SOL  HW1     23   2.646   1.842   2.818 -1.1735 -0.3160  0.4210
    8SOL  HW2     24   2.741   1.974   2.846  2.0419  0.2431  2.0919
    9SOL  OW      25   2.267   0.032   0.145 -0.1346 -0.5663  0.1209
    9SOL  HW1     26   2.346   0.095   0.151 -3.1089 -1.3819 -0.5862
    9SOL  HW2     27   2.274   3.077   0.056  1.5391  2.2436  0.8480
   10SOL  OW      28   2.099   2.631   2.150  0.3857 -0.0496  0.3805
   10SOL  HW1     29   2.045   2.661   2.234 -0.1480 -1.6957  1.2764
   10SOL  HW2     30   2.137   2.537   2.162 -0.8410 -1.7634 -3.2798
   11SOL  OW      31   3.055   1.692   0.068 -0.4304 -0.1098 -0.3656
   11SOL  HW1     32   3.037   1.764   0.133  0.8761 -6.9351  0.2306
   11SOL  HW2     33   2.995   1.707   3.086 -0.0497 -2.2323 -0.9281
   12SOL  OW      34   2.343   0.972   0.007 -0.1533  0.2970 -0.4063
   12SOL  HW1     35   2.257   0.963   3.049 -0.7604 -0.3715 -0.1799
   12SOL  HW2     36   2.395   0.882   0.000 -0.3708  3.0464  0.2620
   13SOL  OW      37   3.059   0.590   2.606 -0.3284 -0.2252 -0.2294
   13SOL  HW1     38   3.020   0.599   2.512 -0.9920  0.6163  2.8490
   13SOL  HW2     39   3.000   0.529   2.658 -0.1987 -0.1704 -1.8220
   14SOL  OW      40   1.006   1.204   0.625 -0.4808  0.1752  0.2023
   14SOL  HW1     41   0.968   1.156   0.543  1.1833 -0.1700 -0.4037
   14SOL  HW2     42   1.055   1.290   0.594  0.3897  1.8913 -1.0417
   15SOL  OW      43   0.629   1.569   3.015  0.3275  0.6290  0.2303
   15SOL  HW1     44   0.727   1.593   3.018  1.4726  0.2883 -1.2491
   15SOL  HW2     45   0.578   1.606   3.095  0.4281  1.4281 -1.4431
   16SOL  OW      46   1.528   1.485   1.904  0.1946  0.1200 -0.3513
   16SOL  HW1     47   1.617   1.496   1.955  2.2798 -2.2414 -0.5333
   16SOL  HW2     48   1.460   1.423   1.954 -3.4854 -2.8515 -0.8709
   17SOL  OW      49   0.704   2.394   2.525  0.4137  0.0701 -0.2055
   17SOL  HW1     50   0.711   2.316   2.588  0.6449  0.8800  1.0517
   17SOL  HW2     51   0.761   2.473   2.553  1.6998 -2.3867  0.7920
   18SOL  OW      52   0.974   0.425   0.704  0.4691 -0.2145  0.2116
   18SOL  HW1     53   0.924   0.501   0.651 -0.5409 -0.8125  0.9192
   18SOL  HW2     54   0.961   0.329   0.668 -1.3225  2.8253 -0.1638
   19SOL  OW      55   0.301   0.263   1.328 -0.2888  0.0650 -0.5974
   19SOL  HW1     56   0.259   0.207   1.406 -1.2681  0.0201  0.9480
   19SOL  HW2     57   0.390   0.214   1.308 -1.8968 -0.9412  0.2524
   20SOL  OW      58   2.705   2.565   2.483 -0.7887 -0.4098  0.6079
   20SOL  HW1     59   2.622   2.557   2.426  1.2979  0.7581 -0.0835
   20SOL  HW2     60   2.688   2.559   2.583 -0.0329  0.8558 -1.8507
   21SOL  OW      61   2.426   1.060   1.180 -0.3596 -0.0266 -0.4420
   21SOL  HW1     62   2.475   0.991   1.128 -1.1142  0.6613  0.8122
   21SOL  HW2     63   2.457   1.155   1.161 -0.0458 -0.8071 -0.2328
   22SOL  OW      64   2.177   0.593   0.926 -0.6867  0.2243  0.1037
   22SOL  HW1     65   2.204   0.683   0.906  1.1524 -2.6489  1.1767
   22SOL  HW2     66   2.199   0.561   1.022 -0.2366 -0.4351  0.7251
   23SOL  OW      67   1.857   0.071   0.083  0.4670  0.3437  0.1775
   23SOL  HW1     68   1.855   0.170   0.053 -0.4954  0.4625  0.2906
   23SOL  HW2     69   1.861   0.064   0.184  2.7172 -0.1740 -2.0033
   24SOL  OW      70   2.424   2.213   0.493 -0.0032  0.6045 -0.1968
   24SOL  HW1     71   2.423   2.221   0.598 -1.3890 -0.1608  0.3179
   24SOL  HW2     72   2.359   2.277   0.452  2.3132 -1.2217  0.3057
   25SOL  OW      73   2.429   1.598   2.691  0.3727  0.2699 -0.4468
   25SOL  HW1     74   2.409   1.645   2.604  0.8579 -2.0563 -0.7479
   25SOL  HW2     75   2.344   1.564   2.732  0.5722  0.7195  1.5130
   26SOL  OW      76   2.926   2.250   1.366  0.0350 -0.0517 -0.3277
   26SOL  HW1     77   2.912   2.253   1.468  0.2989 -0.3387  2.0396
   26SOL  HW2     78   2.992   2.320   1.331  1.3990  0.2077 -0.6795
   27SOL  OW      79   1.596   1.707   1.797 -0.1973 -0.1831  0.2374
   27SOL  HW1     80   1.567   1.612   1.828  0.7443 -0.9515 -0.7551
   27SOL  HW2     81   1.560   1.780   1.858  1.4078  2.6474 -0.5684
   28SOL  OW      82   1.819   2.545   2.772  0.5344 -0.1869 -0.2552
   28SOL  HW1     83   1.769   2.521   2.856  0.1287  1.3961  0.4043
   28SOL  HW2     84   1.843   2.642   2.771  1.3173  1.0619  1.5623
   29SOL  OW      85   0.978   0.484   1.140 -0.5954  0.6029  0.2191
   29SOL  HW1     86   1.034   0.524   1.218  2.8181  1.7247  0.2834
   29SOL  HW2     87   1.034   0.480   1.050 -0.4311 -0.0847  0.0058
   30SOL  OW      88   2.979   0.711   1.751 -0.2675 -0.0220  0.2522
   30SOL  HW1     89   2.912   0.634   1.748  1.2315 -2.0098  0.2600
   30SOL  HW2     90   3.075   0.688   1.718 -0.3712  0.1539  1.0080
   31SOL  OW      91   2.031   2.011   2.386  0.5045  0.0548  0.0413
   31SOL  HW1     92   2.086   1.963   2.312  1.8120 -1.1920 -1.0301
   31SOL  HW2     93   1.980   1.943   2.444 -0.3561 -0.4580  3.6615
   32SOL  OW      94   0.942   2.709   2.164 -0.1677 -0.2122 -0.4535
   32SOL  HW1     95   0.992   2.795   2.198 -0.4946  1.7266  1.3887
   32SOL  HW2     96   0.927   2.717   2.064  0.4714  0.9057  0.5551
   33SOL  OW      97   0.767   0.773   0.122 -0.6133 -0.1238 -0.0684
   33SOL  HW1     98   0.705   0.700   0.168  1.4374 -2.4364  0.5174
   33SOL  HW2     99   0.866   0.775   0.158  1.8801  0.4548  0.4515
   34SOL  OW     100   3.069   1.851   0.649 -0.1255 -0.4246  0.3098
   34SOL  HW1    101   3.065   1.828   0.746 -0.0316 -0.8899 -3.9023
   34SOL  HW2    102   3.025   1.783   0.592 -0.8284  1.0064  2.1095
   35SOL  OW     103   2.615   3.000   1.907  0.0018  0.7992  0.1558
   35SOL  HW1    104   2.550   3.069   1.867 -0.6308  2.1080 -1.9512
   35SOL  HW2    105   2.601   2.906   1.870  0.6718  1.8452 -1.1070
   36SOL  OW     106   2.572   2.753   1.788 -0.0865 -0.0372 -0.3436
   36SOL  HW1    107   2.598   2.661   1.834 -0.4625  0.2340  2.4169
   36SOL  HW2    108   2.595   2.754   1.689 -0.9518  0.1310  0.2465
   37SOL  OW     109   2.301   2.567   2.602 -0.0743  0.4987 -0.3943
   37SOL  HW1    110   2.292   2.507   2.527  0.7868  0.7032  0.2669
   37SOL  HW2    111   2.285   2.666   2.572 -1.3977  0.4175  3.4444
   38SOL  OW     112   0.023   2.417   1.302  0.0766 -0.0240 -0.2088
   38SOL  HW1    113   0.117   2.375   1.296  0.1970 -0.3932  1.0071
   38SOL  HW2    114   0.028   2.510   1.340  0.7400 -1.8601 -0.7966
   39SOL  OW     115   1.442   2.578   2.299 -0.4992 -0.1998  0.0075
   39SOL  HW1    116   1.456   2.477   2.311  0.2772  2.2652  0.3434
   39SOL  HW2    117   1.369   2.615   2.362  2.3950  1.4680 -1.6421
   40SOL  OW     118   0.200   2.268   0.376  0.1464 -0.0789 -0.1858
   40SOL  HW1    119   0.151   2.203   0.441 -0.1543 -0.0013  0.5844
   40SOL  HW2    120   0.202   2.362   0.420  0.4878  0.0138  0.7531
   41SOL  OW     121   0.669   2.615   2.201 -0.3107  0.6258  0.4244
   41SOL  HW1    122   0.772   2.638   2.196  0.4438 -1.5842  1.5027
   41SOL  HW2    123   0.620   2.679   2.263 -0.9373 -2.1559 -0.0355
   42SOL  OW     124   2.572   2.880   1.056  0.2203 -0.0494  0.0413
   42SOL  HW1    125   2.518   2.818   0.991 -0.2852  0.1042  0.8446
   42SOL  HW2    126   2.627   2.936   0.993 -0.2450 -0.8864  0.0460
   43SOL  OW     127   1.160   0.632   1.317 -0.0620 -0.6007  0.4546
   43SOL  HW1    128   1.107   0.707   1.358  1.3515 -1.8050 -1.2046
   43SOL  HW2    129   1.211   0.671   1.237 -0.4016 -0.0144 -0.9109
   44SOL  OW     130   1.018   1.117   2.367 -0.1738 -0.2239  0.6884
   44SOL  HW1    131   0.927   1.162   2.374  0.0075  0.9995  0.6357
   44SOL  HW2    132   1.082   1.171   2.421 -2.9086 -0.9822 -2.1578
   45SOL  OW     133   2.480   1.125   1.615 -0.1617  0.0034 -0.9011
   45SOL  HW1    134   2.534   1.088   1.534  0.8114 -0.1084  0.1795
   45SOL  HW2    135   2.387   1.083   1.615 -1.7418 -1.6161  1.6277
   46SOL  OW     136   0.396   2.207   2.179 -0.1126 -0.3174  0.2787
   46SOL  HW1    137   0.497   2.228   2.197 -0.9229  1.0075 -2.5640
   46SOL  HW2    138   0.335   2.229   2.258  0.0094 -1.7671 -1.4411
   47SOL  OW     139   2.272   2.317   1.123 -0.3713 -0.0566  0.0593
   47SOL  HW1    140   2.269   2.216   1.129 -3.0291 -1.8186 -0.0783
   47SOL  HW2    141   2.354   2.344   1.176 -1.1107  0.0213 -0.3493
   48SOL  OW     142   2.159   3.032   2.437  0.3105 -0.7739 -0.1517
   48SOL  HW1    143   2.186   3.063   2.343 -1.9876 -1.9975  1.4414
   48SOL  HW2    144   2.150   0.020   2.497 -0.6352  0.4044 -0.3073
   49SOL  OW     145   2.549   0.936   0.949 -0.1218  0.0677  0.1287
   49SOL  HW1    146   2.629   0.902   1.005 -0.7122  1.2999 -0.5994
   49SOL  HW2    147   2.556   1.028   0.915 -0.7639 -6.0288  1.5641
   50SOL  OW     148   1.388   2.597   0.696 -0.9737  0.2257 -0.1714
   50SOL  HW1    149   1.332   2.660   0.755  1.1819 -0.8189 -1.0273
   50SOL  HW2    150   1.336   2.576   0.615  0.4076  1.6850  2.1501
   51SOL  OW     151   1.105   1.341   0.258 -0.0670 -0.1713 -0.4389
   51SOL  HW1    152   1.170   1.391   0.195 -0.2974 -1.2271 -3.0225
   51SOL  HW2    153   1.104   1.377   0.354  1.2832  1.4007  1.3733
   52SOL  OW     154   0.155   0.159   3.027  0.3585  0.0482 -0.0718
   52SOL  HW1    155   0.178   0.174   0.026 -3.5962 -3.9415 -1.9021
   52SOL  HW2    156   0.166   0.246   2.974  1.5859  1.2367 -2.1439
   53SOL  OW     157   0.806   3.033   2.309  0.1024  0.1543  0.3123
   53SOL  HW1    158   0.826   3.009   2.217 -1.6847 -0.3826  2.7501
   53SOL  HW2    159   0.729   0.004   2.318 -0.3493  2.0200 -2.0606
   54SOL  OW     160   1.380   0.907   2.296  0.6146 -0.2702 -0.0325
   54SOL  HW1    161   1.287   0.896   2.338 -1.4558 -0.6870 -0.1341
   54SOL  HW2    162   1.429   0.977   2.348 -3.4607  1.0239 -2.4699
   55SOL  OW     163   0.368   0.076   0.617 -0.3359 -0.4366  0.2392
   55SOL  HW1    164   0.376   0.169   0.577  1.0611 -0.3442 -2.6157
   55SOL  HW2    165   0.448   0.025   0.586 -2.1305  2.3818 -0.7015
   56SOL  OW     166   2.970   0.148   2.647 -0.0890 -0.1393 -0.0531
   56SOL  HW1    167   2.963   0.046   2.630  0.9078  0.6153  1.1655
   56SOL  HW2    168   2.919   0.212   2.585  0.8066  2.3047 -0.1614
   57SOL  OW     169   2.296   1.360   1.884 -0.5043 -0.4085 -0.0886
   57SOL  HW1    170   2.197   1.360   1.858  0.6125 -0.1794  1.0529
   57SOL  HW2    171   2.302   1.352   1.987  2.2423 -1.0023  1.4822
   58SOL  OW     172   0.724   0.856   0.522 -0.0051  0.2211  0.0839
   58SOL  HW1    173   0.753   0.953   0.490 -1.0880 -1.5516  0.8242
   58SOL  HW2    174   0.666   0.872   0.604 -0.2315  0.5447 -0.0493
   59SOL  OW     175   1.463   2.378   2.682  0.1910  0.2183  0.2106
   59SOL  HW1    176   1.530   2.448   2.651 -0.0955 -1.7135 -1.2052
   59SOL  HW2    177   1.507   2.308   2.739 -1.2932 -0.7229 -1.9782
   60SOL  OW     178   2.020   2.847   0.742 -0.7310  0.0919 -0.0881
   60SOL  HW1    179   2.013   2.788   0.661 -0.7482 -0.6360 -0.1197
   60SOL  HW2    180   1.929   2.869   0.780 -1.5389  0.1594  0.9569
   61SOL  OW     181   1.027   3.021   1.079 -0.1454 -0.2170 -0.0998
   61SOL  HW1    182   0.930   2.996   1.070  2.1406 -0.6033  1.1031
   61SOL  HW2    183   1.044   0.027   1.069 -0.5194  1.7239 -1.3628
   62SOL  OW     184   2.020   0.130   2.873 -0.1375  0.3033  0.2177
   62SOL  HW1    185   2.035   0.209   2.936 -2.0214 -0.9439 -0.6406
   62SOL  HW2    186   1.961   0.149   2.795 -1.6265 -3.4551  1.7588
   63SOL  OW     187   3.021   1.437   0.189 -0.0477  0.2353 -0.0026
   63SOL  HW1    188   3.017   1.529   0.145 -0.5351 -2.1745  0.7118
   63SOL  HW2    189   0.001   1.431   0.253 -2.7739 -0.7910  0.9938
   64SOL  OW     190   1.697   1.840   0.940  0.2875  0.1851  0.1955
   64SOL  HW1    191   1.707   1.739   0.925 -0.0413 -0.4964  0.0878
   64SOL  HW2    192   1.602   1.876   0.944 -1.0744  3.8431  0.6251
   65SOL  OW     193   0.453   1.318   1.613  0.6509  0.3623 -0.0469
   65SOL  HW1    194   0.414   1.243   1.551 -0.3362  0.7745 -0.0923
   65SOL  HW2    195   0.511   1.276   1.683 -0.9283  0.7276 -2.9526
   66SOL  OW     196   0.280   0.073   0.880  0.4204 -0.3582 -0.1155
   66SOL  HW1    197   0.333   0.056   0.795  0.0846  1.5181 -3.0670
   66SOL  HW2    198   0.252   0.172   0.884  0.6122  2.4308  0.2323
   67SOL  OW     199   2.875   2.607   0.719  0.2049 -0.3489 -0.0404
   67SOL  HW1    200   2.815   2.606   0.798  0.0046  1.2399  0.1904
   67SOL  HW2    201   2.915   2.699   0.705 -1.3542  1.2243 -2.3462
   68SOL  OW     202   0.718   2.942   1.616  0.5849  0.4216 -0.0731
   68SOL  HW1    203   0.812   2.977   1.617 -0.0466 -1.5425  1.8538
   68SOL  HW2    204   0.717   2.856   1.678  0.9696 -2.3018 -0.3632
   69SOL  OW     205   2.535   1.190   0.848  0.1799 -0.0731  0.1620
   69SOL  HW1    206   2.555   1.178   0.748  1.2154 -1.7007 -2.9725
   69SOL  HW2    207   2.478   1.271   0.874  0.2852 -0.0930  1.6988
   70SOL  OW     208   2.157   1.873   2.735  0.2605  0.1934 -0.2052
   70SOL  HW1    209   2.229   1.944   2.720  1.0984 -0.9853  2.0790
   70SOL  HW2    210   2.204   1.795   2.787 -0.9285 -1.5216 -2.5766
   71SOL  OW     211   0.434   2.543   0.687  0.0422 -0.0304  0.3387
   71SOL  HW1    212   0.520   2.497   0.672 -1.1258 -1.5614  0.1732
   71SOL  HW2    213   0.451   2.643   0.685  0.6158  1.9649  0.8866
   72SOL  OW     214   2.499   1.963   0.685  0.0396  0.0963 -0.0703
   72SOL  HW1    215   2.505   2.063   0.700  1.0318 -2.5628 -1.1133
   72SOL  HW2    216   2.585   1.920   0.722  0.8515  0.7773 -4.1679
   73SOL  OW     217   1.735   1.587   0.876 -0.8986 -0.0151  0.0433
   73SOL  HW1    218   1.725   1.513   0.947 -0.7976 -1.9737 -0.4630
   73SOL  HW2    219   1.833   1.595   0.842  0.1290  0.3114 -0.8125
   74SOL  OW     220   2.166   1.572   2.149 -0.2922  0.5439 -0.2124
   74SOL  HW1    221   2.225   1.631   2.091  1.6394 -0.8053 -0.6813
   74SOL  HW2    222   2.224   1.498   2.186  0.1322  3.1589  1.6350
   75SOL  OW     223   2.097   0.781   1.136  0.2140 -0.1601  0.1765
   75SOL  HW1    224   2.016   0.760   1.074  0.8976  0.6172  2.5264
   75SOL  HW2    225   2.160   0.848   1.088  1.0109 -0.6377  0.2883
   76SOL  OW     226   1.967   1.238   1.033  0.1727  0.4563 -0.5497
   76SOL  HW1    227   2.027   1.191   1.097  0.2729  0.9993 -2.2989
   76SOL  HW2    228   1.908   1.306   1.079 -3.1471 -1.3171 -0.0921
   77SOL  OW     229   0.491   3.026   2.434 -0.2329 -0.2048 -0.2699
   77SOL  HW1    230   0.536   0.009   2.384  1.0515 -0.8389  0.7698
   77SOL  HW2    231   0.445   3.054   2.523  0.1849 -1.7343 -1.5849
   78SOL  OW     232   2.984   2.774   1.551 -0.0107 -0.6569 -0.7452
   78SOL  HW1    233   3.042   2.783   1.468  1.0397 -0.5710  1.5415
   78SOL  HW2    234   3.028   2.701   1.616  0.9006 -2.8720  1.8999
   79SOL  OW     235   0.648   0.902   3.005 -0.5566  0.2536  0.0770
   79SOL  HW1    236   0.710   0.974   2.971 -0.9921  1.3734  0.5812
   79SOL  HW2    237   0.688   0.841   3.078 -1.1777  1.3970 -0.5341
   80SOL  OW     238   0.849   0.660   2.917  0.0136 -0.5259  0.1113
   80SOL  HW1    239   0.790   0.594   2.870  1.0692 -0.8613  2.0877
   80SOL  HW2    240   0.873   0.737   2.852  0.3790  2.1378 -3.4848
   81SOL  OW     241   2.784   1.480   2.977 -0.2177  0.0153  0.3331
   81SOL  HW1    242   2.855   1.408   3.002  2.0471  0.6888 -1.4847
   81SOL  HW2    243   2.738   1.465   2.887  1.2902  0.2260 -2.1704
   82SOL  OW     244   1.367   2.627   2.003 -0.0030 -0.0346  0.8477
   82SOL  HW1    245   1.336   2.557   1.937 -0.5386 -0.3519 -0.7880
   82SOL  HW2    246   1.362   2.584   2.093  1.9248  1.4651 -0.3251
   83SOL  OW     247   0.382   1.770   0.776 -0.0830 -0.0327  0.2382
   83SOL  HW1    248   0.362   1.869   0.794 -0.6874 -0.5776  0.4822
   83SOL  HW2    249   0.432   1.750   0.691  1.0132  1.5012  2.1522
   84SOL  OW     250   3.008   2.924   2.130  0.4978 -0.5820  0.0379
   84SOL  HW1    251   2.994   2.855   2.203 -0.9802  0.4966 -2.0043
   84SOL  HW2    252   3.023   2.872   2.043 -0.8185  0.6338 -0.2391
   85SOL  OW     253   1.725   2.908   1.800 -0.3672  0.5302 -0.4763
   85SOL  HW1    254   1.708   2.823   1.855  0.0480 -0.8224  0.7602
   85SOL  HW2    255   1.817   2.950   1.822  2.2418  1.2350 -0.1667
   86SOL  OW     256   0.438   2.302   0.026 -0.0345 -0.1664  0.1952
   86SOL  HW1    257   0.482   2.323   3.030  1.5134 -0.6896 -0.7781
   86SOL  HW2    258   0.346   2.340   0.047 -2.5071  1.4140 -0.3026
   87SOL  OW     259   2.318   0.430   0.758  0.4842 -0.4337  0.7292
   87SOL  HW1    260   2.307   0.328   0.747 -2.0182  0.1330  0.0469
   87SOL  HW2    261   2.236   0.467   0.810  1.8928 -1.2826 -0.2805
   88SOL  OW     262   0.722   2.485   1.134 -0.9264  0.3888 -0.4858
   88SOL  HW1    263   0.740   2.444   1.224  0.8832  0.5842  0.8724
   88SOL  HW2    264   0.661   2.421   1.080 -1.4663 -0.4729  0.3523
   89SOL  OW     265   1.414   2.078   1.219  0.0248 -0.2019  0.2093
   89SOL  HW1    266   1.418   2.025   1.307 -0.3993 -1.3528  1.9666
   89SOL  HW2    267   1.345   2.157   1.219  3.1191 -0.6395 -0.2789
   90SOL  OW     268   0.853   1.676   0.220  0.6757  0.4124 -0.2829
   90SOL  HW1    269   0.843   1.573   0.224 -1.6880 -1.3525 -2.2868
   90SOL  HW2    270   0.852   1.704   0.121  0.4200 -0.0019  1.4409
   91SOL  OW     271   0.391   1.286   1.194 -0.6584  0.0442  0.1199
   91SOL  HW1    272   0.363   1.301   1.100  0.7124 -0.0063  1.5201
   91SOL  HW2    273   0.477   1.344   1.218 -1.5805 -0.1394  0.0660
   92SOL  OW     274   0.854   0.463   0.352 -0.1040  0.5557 -0.1080
   92SOL  HW1    275   0.876   0.413   0.263 -0.4784  0.3806  0.8988
   92SOL  HW2    276   0.934   0.496   0.400 -3.8970 -2.0460 -1.6894
   93SOL  OW     277   2.923   1.307   1.457  0.2865  0.0330 -0.4892
   93SOL  HW1    278   2.848   1.240   1.454  0.6640 -1.3435  0.4283
   93SOL  HW2    279   2.929   1.356   1.364  0.7279 -1.8312  1.1786
   94SOL  OW     280   0.815   2.427   2.941  0.9276  0.5196  0.2537
   94SOL  HW1    281   0.727   2.370   2.943 -2.2454 -3.7673  0.8416
   94SOL  HW2    282   0.799   2.515   2.989  0.1103 -4.4697  0.2864
   95SOL  OW     283   2.473   0.141   2.203 -0.8125  0.3894 -0.5353
   95SOL  HW1    284   2.452   0.183   2.292 -3.0365  1.2293  1.3311
   95SOL  HW2    285   2.523   0.209   2.141  4.3561  2.0858 -1.6880
   96SOL  OW     286   1.157   1.521   2.969  0.5532 -0.4497  0.7933
   96SOL  HW1    287   1.090   1.446   2.994 -0.6863  0.9615  0.8568
   96SOL  HW2    288   1.199   1.566   3.048 -3.1772 -0.9690 -2.3471
   97SOL  OW     289   2.520   0.639   1.290 -0.1526  0.0779  0.4321
   97SOL  HW1    290   2.441   0.664   1.351 -0.4561  1.3182 -0.4528
   97SOL  HW2    291   2.487   0.602   1.202  1.7688 -0.6178 -0.8685
   98SOL  OW     292   1.457   0.642   1.073  0.1784  0.9796  0.6859
   98SOL  HW1    293   1.477   0.594   0.988 -0.2364  0.4782  0.5157
   98SOL  HW2    294   1.373   0.707   1.071  0.3686  1.3645  0.8144
   99SOL  OW     295   3.012   1.840   1.389  0.0291 -0.0820 -0.1709
   99SOL  HW1    296   2.991   1.926   1.344  0.1201  0.0847 -1.0445
   99SOL  HW2    297   3.054   1.859   1.482  1.8072 -0.1297  0.5942
  100SOL  OW     298   0.979   1.097   2.088  0.1345  0.4487 -0.0846
  100SOL  HW1    299   0.991   1.117   2.185 -1.2137 -2.0753  0.1033
  100SOL  HW2    300   1.015   1.172   2.025  0.1611 -0.9418 -2.0843
  101SOL  OW     301   1.552   2.632   0.178 -0.1926  0.3428 -0.3294
  101SOL  HW1    302   1.566   2.561   0.249 -0.6431  0.1475 -1.8256
  101SOL  HW2    303   1.601   2.619   0.092 -2.0319 -0.6899  1.6713
  102SOL  OW     304   0.441   2.483   1.781  0.1073  0.1137  0.5653
  102SOL  HW1    305   0.455   2.546   1.857  0.7615 -1.8710 -0.2742
  102SOL  HW2    306   0.515   2.412   1.775 -0.2200 -0.7439  0.4286
  103SOL  OW     307   0.002   2.303   2.957  0.2385 -0.0676  0.2583
  103SOL  HW1    308   3.039   2.379   2.918 -1.7964  1.9592  3.4728
  103SOL  HW2    309   0.049   2.255   2.881 -0.5906  1.4056 -0.9318
  104SOL  OW     310   2.797   1.666   1.349  0.4039 -0.1081 -0.4970
  104SOL  HW1    311   2.735   1.706   1.420  0.8609 -0.6730 -2.7617
  104SOL  HW2    312   2.885   1.721   1.353  1.1522  0.2564  0.1246
  105SOL  OW     313   0.466   1.754   1.030 -0.0931  0.0817  0.0312
  105SOL  HW1    314   0.419   1.759   0.938 -1.0274  0.0121  2.3069
  105SOL  HW2    315   0.403   1.768   1.112 -0.9411 -1.8591 -2.9094
  106SOL  OW     316   0.545   1.504   2.372 -0.6977  0.3249  0.0751
  106SOL  HW1    317   0.451   1.545   2.358 -1.9602  0.7940  0.1696
  106SOL  HW2    318   0.580   1.516   2.469 -0.8295 -0.8326 -1.3097
  107SOL  OW     319   3.038   1.283   0.929  0.5557 -0.0393  0.0816
  107SOL  HW1    320   3.006   1.281   0.833 -1.3012 -2.9084  0.4390
  107SOL  HW2    321   2.975   1.239   0.998 -2.3009  0.2924  5.3690
  108SOL  OW     322   2.469   1.398   1.673 -0.7087 -0.2811  0.1448
  108SOL  HW1    323   2.488   1.300   1.647  0.8200  0.4869  0.2423
  108SOL  HW2    324   2.404   1.391   1.751 -2.8366 -2.0723 -0.2313
  109SOL  OW     325   2.329   2.532   2.872 -0.0286  0.7811  0.1391
  109SOL  HW1    326   2.304   2.541   2.772  1.4358 -0.5479 -0.9544
  109SOL  HW2    327   2.294   2.439   2.909 -2.0223 -0.8762  0.8347
  110SOL  OW     328   1.131   1.071   0.827 -0.7333 -0.3511 -0.1169
  110SOL  HW1    329   1.060   1.110   0.769 -1.5072  0.3219  0.3440
  110SOL  HW2    330   1.228   1.106   0.803  2.7064  3.1726  1.6337
  111SOL  OW     331   2.326   0.665   0.265 -0.3748  0.3605  0.3030
  111SOL  HW1    332   2.357   0.602   0.339  1.0217 -1.0846 -0.2122
  111SOL  HW2    333   2.321   0.609   0.179  0.8563  0.3665  1.0723
  112SOL  OW     334   0.824   2.482   1.657 -0.1493 -0.1604 -0.3340
  112SOL  HW1    335   0.907   2.514   1.712  0.2965  1.8246  0.4297
  112SOL  HW2    336   0.856   2.458   1.564 -2.5118  0.5542  0.3168
  113SOL  OW     337   2.712   2.818   2.734  0.4468  0.3213 -0.6224
  113SOL  HW1    338   2.667   2.725   2.736 -0.8013  2.4401 -0.2147
  113SOL  HW2    339   2.663   2.880   2.673  2.2395 -0.5641 -0.6200
  114SOL  OW     340   2.984   0.140   2.943  0.0600  0.1578  0.0613
  114SOL  HW1    341   3.077   0.147   2.985  1.3574 -0.4221  0.3903
  114SOL  HW2    342   2.990   0.146   2.841 -0.7902 -0.0008  0.5436
  115SOL  OW     343   2.633   1.434   2.758  0.0171 -0.0521 -0.1110
  115SOL  HW1    344   2.549   1.483   2.733  0.2288  0.6681 -0.0514
  115SOL  HW2    345   2.714   1.445   2.697 -0.9420  1.1644  0.5245
  116SOL  OW     346   0.545   1.685   1.918 -0.1352  0.1476  0.3061
  116SOL  HW1    347   0.584   1.711   1.828  1.0662 -0.9029  0.3824
  116SOL  HW2    348   0.587   1.599   1.954 -1.3382  2.8599 -0.0528
  117SOL  OW     349   2.093   0.150   1.492  0.2079 -0.5593  0.6862
  117SOL  HW1    350   2.115   0.230   1.435  1.2958 -1.0623  0.1976
  117SOL  HW2    351   2.056   0.065   1.438 -4.5444 -6.4727 -3.2158
  118SOL  OW     352   1.999   2.209   0.125  0.2557  0.3267  0.0653
  118SOL  HW1    353   1.949   2.131   0.172  2.2988 -0.6168 -0.0203
  118SOL  HW2    354   2.044   2.274   0.186 -0.4188 -0.3857  1.0674
  119SOL  OW     355   2.256   1.007   1.604  0.4107  0.3651  0.0930
  119SOL  HW1    356   2.178   1.040   1.545  1.2437  0.8951  0.8426
  119SOL  HW2    357   2.213   0.970   1.692 -0.8162 -0.9922  1.4731
  120SOL  OW     358   0.205   1.693   1.733  0.1934  0.2204  0.1204
  120SOL  HW1    359   0.198   1.602   1.692 -0.9549 -2.1516  0.2954
  120SOL  HW2    360   0.227   1.680   1.833  0.2499 -1.8160 -1.1459
  121SOL  OW     361   1.813   0.400   2.789 -0.1193 -0.3625 -0.8970
  121SOL  HW1    362   1.829   0.328   2.717 -1.5330 -0.5006  1.6482
  121SOL  HW2    363   1.904   0.444   2.820  2.3972 -0.0964  1.2825
  122SOL  OW     364   2.836   2.086   0.627  0.1867  0.2515  0.5411
  122SOL  HW1    365   2.789   2.160   0.572 -0.1045  0.2820 -0.9511
  122SOL  HW2    366   2.872   2.012   0.562  1.3310 -1.2729 -1.2860
  123SOL  OW     367   0.491   2.098   2.480 -0.0066 -0.0936  0.7344
  123SOL  HW1    368   0.418   2.155   2.432 -1.4678  2.2089  0.2739
  123SOL  HW2    369   0.445   2.023   2.529 -0.3697  2.6909 -2.2948
  124SOL  OW     370   2.459   2.487   0.710 -0.3954 -0.1714 -0.1418
  124SOL  HW1    371   2.467   2.396   0.755 -0.8414  1.0278  0.9401
  124SOL  HW2    372   2.367   2.503   0.666 -1.3217 -1.0791  0.7018
  125SOL  OW     373   2.565   2.591   0.288  0.0315  0.2303 -0.1112
  125SOL  HW1    374   2.630   2.674   0.286  0.7409  0.0257  1.6506
  125SOL  HW2    375   2.584   2.538   0.375  1.9933 -0.2799 -2.2269
  126SOL  OW     376   1.101   2.904   0.362 -0.0878  0.1345 -0.1780
  126SOL  HW1    377   1.192   2.954   0.356  2.1992  1.4820 -0.4096
  126SOL  HW2    378   1.044   2.925   0.281 -1.8277  0.6561  1.3005
  127SOL  OW     379   2.759   2.075   2.991 -0.3800  0.3087 -0.2026
  127SOL  HW1    380   2.669   2.102   3.037 -2.5464  0.8920 -0.6161
  127SOL  HW2    381   2.839   2.076   3.056  2.4601  0.3253  0.2550
  128SOL  OW     382   0.257   1.041   1.818  0.2283  0.3992  0.0800
  128SOL  HW1    383   0.309   0.972   1.762 -0.6346  0.8824 -0.5432
  128SOL  HW2    384   0.166   1.068   1.774 -1.1028  0.5015  1.6614
  129SOL  OW     385   3.038   0.755   0.360 -0.7767 -0.2682 -0.4901
  129SOL  HW1    386   3.025   0.859   0.373  1.1234 -0.3348 -0.7537
  129SOL  HW2    387   2.953   0.702   0.363  1.2121  2.1760 -1.3210
  130SOL  OW     388   0.868   1.091   0.415  0.2476  0.9342  0.1285
  130SOL  HW1    389   0.784   1.131   0.368 -2.5530 -0.7978  0.5084
  130SOL  HW2    390   0.933   1.060   0.349 -1.9389  3.2135  2.1992
  131SOL  OW     391   2.787   1.565   1.880  0.5213  0.1661 -0.2177
  131SOL  HW1    392   2.840   1.600   1.959 -0.7479  3.2378 -1.1791
  131SOL  HW2    393   2.822   1.609   1.796  1.6246  0.1985  0.5962
  132SOL  OW     394   1.051   1.330   1.964 -0.0185  0.0788  0.4273
  132SOL  HW1    395   0.969   1.391   1.972  1.3955 -0.1632  0.8619
  132SOL  HW2    396   1.128   1.372   1.906  1.1434  1.3438 -1.9608
  133SOL  OW     397   1.454   1.259   1.022  0.0925 -0.1113  0.7726
  133SOL  HW1    398   1.385   1.330   1.029  1.6010 -0.2816 -1.6068
  133SOL  HW2    399   1.543   1.309   1.036  1.9198  0.2647  0.2366
  134SOL  OW     400   3.048   0.623   2.931 -0.4281 -0.2211 -0.6237
  134SOL  HW1    401   0.037   0.645   2.876  1.3919  1.5304 -2.9921
  134SOL  HW2    402   2.992   0.709   2.959  0.0146  4.1625  2.0170
  135SOL  OW     403   0.345   1.208   3.033  0.1395  0.3106 -0.1812
  135SOL  HW1    404   0.256   1.194   2.984  0.3346 -0.5010  0.7659
  135SOL  HW2    405   0.328   1.257   0.026 -1.2556 -1.1313  1.2611
  136SOL  OW     406   2.455   1.909   0.946  0.3055 -0.3406  0.7292
  136SOL  HW1    407   2.441   1.934   0.848 -0.9375  1.4784  0.4781
  136SOL  HW2    408   2.415   1.819   0.969  0.2285  1.1677 -1.9957
  137SOL  OW     409   2.275   0.857   0.925  0.4784 -0.0470  0.4429
  137SOL  HW1    410   2.244   0.914   0.844  0.9183  3.3025 -0.6073
  137SOL  HW2    411   2.379   0.856   0.932  6.6274  0.2337  0.9190
  138SOL  OW     412   1.657   1.967   2.643  0.2668 -0.1997  0.4407
  138SOL  HW1    413   1.651   1.877   2.596 -0.3859 -1.2285 -0.3288
  138SOL  HW2    414   1.752   1.976   2.674  0.5183 -0.4381  0.9400
  139SOL  OW     415   2.224   2.879   0.260 -0.2509 -0.8998  0.4208
  139SOL  HW1    416   2.231   2.974   0.218  2.7336  0.6122 -0.0461
  139SOL  HW2    417   2.237   2.876   0.360  0.2674  1.2973 -1.3206
  140SOL  OW     418   2.902   1.453   1.237 -0.0535  0.4301  0.2842
  140SOL  HW1    419   2.857   1.425   1.148 -0.2738  1.2505 -4.5117
  140SOL  HW2    420   2.856   1.531   1.287 -0.3432  0.9669  3.5579
  141SOL  OW     421   1.566   2.299   1.687 -0.3631 -0.1572 -0.3595
  141SOL  HW1    422   1.511   2.363   1.633  1.1129 -2.0260  0.5220
  141SOL  HW2    423   1.600   2.335   1.775 -1.3798 -1.7724  0.6132
  142SOL  OW     424   1.904   0.150   2.631 -0.3711 -0.1418 -0.4353
  142SOL  HW1    425   1.822   0.122   2.579 -0.4081 -1.3954 -0.5726
  142SOL  HW2    426   1.986   0.148   2.572 -1.9085  1.1477  2.3703
  143SOL  OW     427   1.701   2.838   1.092 -0.1392  0.0796  0.0251
  143SOL  HW1    428   1.750   2.747   1.081  0.5790 -1.4401  2.6222
  143SOL  HW2    429   1.598   2.826   1.110 -0.6106 -0.5115 -0.3775
  144SOL  OW     430   2.987   2.045   1.205  0.2686 -0.0477  0.3953
  144SOL  HW1    431   2.959   2.123   1.269  1.7790 -3.6972  3.0508
  144SOL  HW2    432   3.067   2.081   1.151  0.5635 -0.4892 -0.1894
  145SOL  OW     433   2.398   2.753   2.996 -0.0985 -0.3124 -0.6005
  145SOL  HW1    434   2.379   2.739   0.001  2.2253  0.6515  1.9557
  145SOL  HW2    435   2.366   2.669   2.945 -0.0652 -1.1280 -1.5568
  146SOL  OW     436   2.329   1.776   0.321 -0.4575 -0.2318 -0.4806
  146SOL  HW1    437   2.402   1.713   0.358 -3.4029  0.9202  0.0961
  146SOL  HW2    438   2.241   1.751   0.373  2.7282  0.9569  0.6627
  147SOL  OW     439   1.971   2.043   1.963  0.1914  0.1798  0.0383
  147SOL  HW1    440   1.979   1.964   1.895  3.1971  4.7708 -2.3648
  147SOL  HW2    441   1.976   2.127   1.910  1.4956 -0.7961 -1.9387
  148SOL  OW     442   1.731   2.709   1.365  0.0760  0.2733  0.1057
  148SOL  HW1    443   1.824   2.715   1.327 -0.5363  0.1214 -0.1486
  148SOL  HW2    444   1.714   2.608   1.387 -1.0250  0.4115  0.4760
  149SOL  OW     445   1.510   1.411   1.482 -0.2337  0.2529  0.4801
  149SOL  HW1    446   1.433   1.416   1.412 -1.3329  1.1158 -2.1388
  149SOL  HW2    447   1.508   1.502   1.528 -0.5362 -0.3623 -0.2109
  150SOL  OW     448   2.300   2.444   1.472  0.2746  0.3928 -0.5376
  150SOL  HW1    449   2.216   2.389   1.458 -1.7757 -1.9308 -0.7606
  150SOL  HW2    450   2.377   2.415   1.413 -0.2370  0.3671  3.1118
  151SOL  OW     451   0.992   2.457   1.412  0.2777  0.3146 -0.5649
  151SOL  HW1    452   1.039   2.544   1.396  0.6744 -3.2130  2.2760
  151SOL  HW2    453   1.054   2.395   1.471 -1.2554  1.5347  0.7448
  152SOL  OW     454   2.682   2.250   1.200 -0.7577  0.2085 -0.1495
  152SOL  HW1    455   2.752   2.256   1.274  0.5595  1.6985  1.4358
  152SOL  HW2    456   2.652   2.155   1.186  0.9868  1.1064  2.1943
  153SOL  OW     457   1.078   2.544   1.714 -0.1226 -0.5845  0.7719
  153SOL  HW1    458   1.158   2.481   1.736  0.3100 -3.1266  1.6095
  153SOL  HW2    459   1.107   2.640   1.711  1.9799  0.3857 -3.6133
  154SOL  OW     460   2.205   0.129   0.984 -0.0845 -0.2246 -0.4124
  154SOL  HW1    461   2.259   0.071   1.051 -1.3285  1.5036  2.1408
  154SOL  HW2    462   2.238   0.125   0.884  0.5835  1.7210  0.6389
  155SOL  OW     463   0.043   1.528   1.011 -0.1135 -0.1673  0.4492
  155SOL  HW1    464   0.016   1.430   1.000 -1.6950  2.0511 -1.1970
  155SOL  HW2    465   0.048   1.551   1.108 -0.1904 -0.0968 -2.4869
  156SOL  OW     466   2.326   2.092   2.738 -0.0365  0.1301  0.3763
  156SOL  HW1    467   2.417   2.098   2.691 -0.1097  0.8379  1.1371
  156SOL  HW2    468   2.252   2.148   2.691  2.1305 -0.3760  0.6821
  157SOL  OW     469   0.181   0.539   1.920  0.4110  0.0091  0.7468
  157SOL  HW1    470   0.181   0.608   1.838  0.1007  1.7414 -2.8465
  157SOL  HW2    471   0.265   0.543   1.971 -0.5339 -0.8392 -1.1118
  158SOL  OW     472   1.853   2.908   1.525 -0.0108  0.1297  0.0572
  158SOL  HW1    473   1.849   2.823   1.474 -3.3125  2.3455  1.3132
  158SOL  HW2    474   1.832   2.890   1.624  1.4198 -1.5945 -1.9519
  159SOL  OW     475   1.761   0.798   2.162  0.2706  0.3754  0.7635
  159SOL  HW1    476   1.676   0.743   2.160 -2.4470  1.5328  0.2378
  159SOL  HW2    477   1.840   0.736   2.135 -0.0865 -0.5380 -1.1815
  160SOL  OW     478   1.533   1.260   2.230  0.1564  0.3740  0.1022
  160SOL  HW1    479   1.540   1.208   2.320 -0.9428 -0.4553  3.1472
  160SOL  HW2    480   1.626   1.265   2.191  1.0440  1.2529  0.5592
  161SOL  OW     481   0.682   1.932   2.350 -0.1365  0.2806  0.1724
  161SOL  HW1    482   0.625   2.002   2.398  2.1318 -1.9333 -2.0125
  161SOL  HW2    483   0.632   1.889   2.268 -0.3384  2.8945  1.2953
  162SOL  OW     484   0.579   3.025   0.840  0.0480  0.2197  0.2672
  162SOL  HW1    485   0.570   0.016   0.789 -0.5861 -1.1281 -0.0370
  162SOL  HW2    486   0.595   2.942   0.781  0.0703  1.5181  0.1657
  163SOL  OW     487   0.397   0.660   0.312  0.0943  0.1096 -0.0575
  163SOL  HW1    488   0.415   0.759   0.318  0.8985 -0.3911  1.1741
  163SOL  HW2    489   0.485   0.617   0.284  1.4033  1.0170 -0.0915
  164SOL  OW     490   0.424   2.883   0.405  0.0074 -0.3533  0.5937
  164SOL  HW1    491   0.355   2.879   0.477  1.1580  0.2675 -0.3462
  164SOL  HW2    492   0.445   2.791   0.367 -0.3918  1.5639 -1.4618
  165SOL  OW     493   0.420   0.727   1.239 -0.3262  0.2270 -0.3003
  165SOL  HW1    494   0.497   0.680   1.286  0.5457 -0.4683 -1.4087
  165SOL  HW2    495   0.443   0.809   1.180 -0.7549 -1.0176 -1.6242
  166SOL  OW     496   1.576   1.028   1.248  0.3792  0.1084  0.2303
  166SOL  HW1    497   1.487   1.069   1.222 -0.2411 -0.0682 -0.6635
  166SOL  HW2    498   1.559   0.947   1.307  2.9862  0.1210  1.8237
  167SOL  OW     499   0.080   0.058   1.178  0.2720 -0.4315 -0.3553
  167SOL  HW1    500   0.020   0.054   1.262  0.8963  1.3430  1.2343
  167SOL  HW2    501   0.180   0.074   1.187  0.2337 -0.2349 -1.6847
  168SOL  OW     502   2.073   0.549   2.844  0.8225  0.2416  0.1284
  168SOL  HW1    503   2.068   0.476   2.921 -1.5074 -0.2539  1.8341
  168SOL  HW2    504   2.145   0.619   2.855 -2.8412 -0.0367  0.8247
  169SOL  OW     505   0.808   1.383   0.757 -0.0021  0.1872  0.1381
  169SOL  HW1    506   0.825   1.486   0.746 -1.0230  4.7477  0.7138
  169SOL  HW2    507   0.878   1.329   0.705  0.7534  0.5158  1.0966
  170SOL  OW     508   1.839   1.593   1.394 -0.0305  0.2564  0.0064
  170SOL  HW1    509   1.859   1.690   1.416  0.8001  1.2540  1.8284
  170SOL  HW2    510   1.745   1.582   1.348 -3.6796  2.2780  0.2796
  171SOL  OW     511   1.429   0.029   0.592 -0.3775  0.0732 -0.2858
  171SOL  HW1    512   1.475   0.115   0.557 -1.5158 -1.2200 -1.7014
  171SOL  HW2    513   1.352   0.047   0.655  0.4644 -0.0184 -0.6155
  172SOL  OW     514   2.912   2.125   2.558  0.1985  0.5370  0.1493
  172SOL  HW1    515   2.901   2.203   2.491  1.8546 -0.6115 -0.6482
  172SOL  HW2    516   2.896   2.171   2.649  2.1621 -1.2399  2.1465
  173SOL  OW     517   0.815   2.687   0.964 -0.0764  0.1148  0.2477
  173SOL  HW1    518   0.815   2.781   1.007 -0.2644 -0.1127  0.5311
  173SOL  HW2    519   0.794   2.616   1.033  2.6793  1.1103  0.2989
  174SOL  OW     520   0.402   0.331   0.547  0.2920  0.5164 -0.0488
  174SOL  HW1    521   0.495   0.321   0.584 -2.6664  2.0189 -2.2560
  174SOL  HW2    522   0.376   0.431   0.561 -0.5422  0.3219  1.7008
  175SOL  OW     523   0.863   1.649   0.698 -0.0113 -0.2506  0.4106
  175SOL  HW1    524   0.965   1.659   0.689  3.5006 -0.7855 -0.4379
  175SOL  HW2    525   0.813   1.707   0.626 -0.4904  3.1672 -0.9137
  176SOL  OW     526   1.185   0.405   2.440 -0.4078 -0.1700  0.0880
  176SOL  HW1    527   1.258   0.452   2.500  0.2463  1.0981 -0.1121
  176SOL  HW2    528   1.165   0.310   2.468  0.6217  1.3072 -0.3771
  177SOL  OW     529   0.650   0.558   0.218 -0.1071 -0.0835  0.0584
  177SOL  HW1    530   0.612   0.486   0.154  0.6886  2.0220 -2.2749
  177SOL  HW2    531   0.727   0.522   0.273  0.7447 -1.9636  0.8707
  178SOL  OW     532   2.400   0.483   0.498 -0.2591 -0.6324 -0.0904
  178SOL  HW1    533   2.488   0.535   0.491  1.8609 -2.8429  2.0444
  178SOL  HW2    534   2.375   0.462   0.596  1.5858  1.2583 -1.0739
  179SOL  OW     535   1.050   2.111   1.069 -0.2072  0.3267 -0.5961
  179SOL  HW1    536   1.045   2.172   0.986  0.1480 -0.4091  0.5980
  179SOL  HW2    537   1.132   2.133   1.127  2.3536 -0.2830  1.0267
  180SOL  OW     538   0.801   1.657   1.359  0.3259 -0.2655 -0.3811
  180SOL  HW1    539   0.738   1.730   1.325  1.8833  0.0668  0.3174
  180SOL  HW2    540   0.754   1.586   1.415 -0.1409  1.7824 -0.4551
  181SOL  OW     541   0.508   0.378   2.256  0.2819 -0.1917  0.2790
  181SOL  HW1    542   0.409   0.401   2.272  1.9924 -0.7121 -0.8264
  181SOL  HW2    543   0.568   0.459   2.280  0.9239 -0.9747 -2.2366
  182SOL  OW     544   0.183   1.538   0.033  0.2280 -0.2176  0.0574
  182SOL  HW1    545   0.103   1.601   0.051 -1.7162 -0.4794 -0.0207
  182SOL  HW2    546   0.181   1.461   0.103  0.9852 -2.1934  0.2986
  183SOL  OW     547   0.488   0.484   1.382  0.0578 -0.2567 -0.2805
  183SOL  HW1    548   0.573   0.488   1.433 -2.4949  1.5647 -1.5673
  183SOL  HW2    549   0.417   0.442   1.444  2.1336  1.6036 -0.6510
  184SOL  OW     550   0.642   1.371   1.253 -0.3526 -0.7470 -0.0806
  184SOL  HW1    551   0.720   1.380   1.190 -0.3230  0.5178 -1.8207
  184SOL  HW2    552   0.661   1.388   1.351 -0.4068  3.9407  0.6432
  185SOL  OW     553   1.968   1.187   2.660  0.1989 -0.2700 -0.3017
  185SOL  HW1    554   1.997   1.267   2.608 -1.8092 -0.6780 -0.8064
  185SOL  HW2    555   1.878   1.195   2.708 -1.0080  0.1742  0.1175
  186SOL  OW     556   2.150   2.649   1.612 -0.4449  0.1457  0.3954
  186SOL  HW1    557   2.202   2.711   1.674  0.6000 -0.6200  1.5006
  186SOL  HW2    558   2.205   2.576   1.570 -1.9245 -2.1362 -0.7996
  187SOL  OW     559   1.436   1.899   1.942  0.1144  0.3158 -0.1558
  187SOL  HW1    560   1.370   1.823   1.924  1.3795 -1.1626 -0.8858
  187SOL  HW2    561   1.463   1.909   2.041 -0.1252  2.1830  1.5346
  188SOL  OW     562   1.389   0.673   1.899 -0.0651 -0.1819  0.4669
  188SOL  HW1    563   1.420   0.596   1.956 -2.7375 -2.3831 -1.2655
  188SOL  HW2    564   1.427   0.765   1.926  2.1693  0.9961 -0.5618
  189SOL  OW     565   2.378   1.701   2.456 -0.0664  0.2774 -0.7341
  189SOL  HW1    566   2.441   1.665   2.382 -0.2211  0.4320  0.9474
  189SOL  HW2    567   2.374   1.804   2.439 -0.2910  3.6811 -0.7620
  190SOL  OW     568   1.605   2.237   0.499 -0.1098 -0.0697  0.3096
  190SOL  HW1    569   1.566   2.329   0.507 -3.0935 -1.5542  0.0057
  190SOL  HW2    570   1.546   2.178   0.443 -0.1912 -1.4476 -1.1598
  191SOL  OW     571   3.014   0.743   0.993 -0.0507 -0.1488  0.2533
  191SOL  HW1    572   0.011   0.736   0.949 -0.3224 -1.4317  1.1235
  191SOL  HW2    573   3.004   0.663   1.055  2.8002  0.6265  0.8078
  192SOL  OW     574   2.056   0.704   1.794 -0.0554  0.3003 -0.0951
  192SOL  HW1    575   1.983   0.688   1.721 -4.1574 -1.4290  0.3526
  192SOL  HW2    576   2.145   0.657   1.777  0.3165 -1.1812  0.1546
  193SOL  OW     577   2.052   0.356   1.682 -0.0349 -0.3309  0.1458
  193SOL  HW1    578   2.037   0.311   1.591 -1.0224 -0.8449 -0.3956
  193SOL  HW2    579   2.135   0.412   1.680 -2.0933 -0.7262  3.7844
  194SOL  OW     580   1.777   0.993   2.342  0.1084  0.2271 -0.2006
  194SOL  HW1    581   1.858   1.038   2.312 -0.6174 -1.7428 -1.9691
  194SOL  HW2    582   1.759   0.916   2.276  1.9339 -0.6248 -0.4640
  195SOL  OW     583   2.971   0.143   0.539 -0.0424 -0.0429 -0.0818
  195SOL  HW1    584   2.904   0.120   0.466  0.4799 -3.5884 -0.4828
  195SOL  HW2    585   2.994   0.242   0.545 -1.6680  1.9363  1.0992
  196SOL  OW     586   1.388   0.001   1.377  0.0146 -0.1149 -0.1572
  196SOL  HW1    587   1.452   0.048   1.312  2.4169  0.0827 -1.0613
  196SOL  HW2    588   1.410   2.998   1.372 -2.1303 -5.5390  0.0244
  197SOL  OW     589   2.792   0.739   2.580  0.0822 -0.0013  0.6263
  197SOL  HW1    590   2.734   0.813   2.617  3.0447 -1.0432 -0.3329
  197SOL  HW2    591   2.812   0.669   2.655 -0.4311  2.5076  0.7706
  198SOL  OW     592   1.861   1.152   0.221 -0.2412  0.2919 -0.0591
  198SOL  HW1    593   1.908   1.106   0.295  1.5457  0.3367 -0.0327
  198SOL  HW2    594   1.926   1.205   0.163 -0.1079 -0.4692  2.2556
  199SOL  OW     595   2.137   0.957   1.846 -0.1862 -0.0251  0.0270
  199SOL  HW1    596   2.098   0.863   1.818 -0.6734  0.6037 -1.1812
  199SOL  HW2    597   2.061   1.033   1.840  0.4785  3.8999  1.6228
  200SOL  OW     598   2.003   1.131   2.299  0.4399 -0.0466  0.0404
  200SOL  HW1    599   2.085   1.071   2.304  0.3920  0.5664  0.0722
  200SOL  HW2    600   2.018   1.215   2.357  0.8253  0.9271  0.2223
  201SOL  OW     601   2.488   1.332   1.183  0.2949  0.1436  0.4456
  201SOL  HW1    602   2.441   1.373   1.267 -0.3674  2.6083  1.2067
  201SOL  HW2    603   2.440   1.359   1.093 -0.3161  0.7174 -3.0553
  202SOL  OW     604   2.034   0.734   0.293  0.0488 -0.0074  0.1041
  202SOL  HW1    605   2.132   0.726   0.313 -0.5542 -1.8660 -2.0497
  202SOL  HW2    606   1.973   0.672   0.343 -0.1839 -1.6900 -1.5341
  203SOL  OW     607   1.554   0.089   1.183  0.0307  0.3092 -0.3695
  203SOL  HW1    608   1.491   0.115   1.110  2.4025 -0.5255  0.1741
  203SOL  HW2    609   1.644   0.058   1.150 -1.1960  0.1347 -1.4848
  204SOL  OW     610   0.793   2.303   1.333  0.1219 -0.3311 -0.5993
  204SOL  HW1    611   0.816   2.206   1.305 -1.3962 -0.4366 -0.8395
  204SOL  HW2    612   0.875   2.359   1.363  0.4827  0.9221 -0.2863
  205SOL  OW     613   0.550   0.158   1.237  0.9747  0.0388 -0.0738
  205SOL  HW1    614   0.577   0.239   1.181 -3.0961 -1.5687  1.7288
  205SOL  HW2    615   0.494   0.094   1.177 -2.4825  0.2155 -1.8836
  206SOL  OW     616   0.163   0.959   0.697 -0.1830  0.2977 -0.0963
  206SOL  HW1    617   0.239   0.950   0.770  0.4489  0.7998  0.2581
  206SOL  HW2    618   0.201   0.990   0.610  1.7956  0.8514  2.1719
  207SOL  OW     619   1.381   2.729   1.561 -0.2744 -0.3433  0.1475
  207SOL  HW1    620   1.427   2.764   1.476  1.0080 -1.2440  2.8233
  207SOL  HW2    621   1.401   2.790   1.645  0.1660  1.1920  3.3498
  208SOL  OW     622   2.622   0.496   1.831  0.6095 -0.3319  0.0533
  208SOL  HW1    623   2.633   0.595   1.856  2.1397  0.2389  0.7257
  208SOL  HW2    624   2.599   0.485   1.729  1.3407 -3.0025 -0.3238
  209SOL  OW     625   0.303   1.039   0.473  0.1190 -0.2479  0.0454
  209SOL  HW1    626   0.248   1.043   0.385  1.8657  0.1260 -1.5623
  209SOL  HW2    627   0.379   0.976   0.455  1.2764 -1.1374  1.3381
  210SOL  OW     628   2.435   2.215   0.770 -0.1747  0.0890 -0.5055
  210SOL  HW1    629   2.331   2.220   0.773  2.5155  1.1984  0.3899
  210SOL  HW2    630   2.479   2.213   0.862  0.4340 -0.5937 -0.5989
  211SOL  OW     631   1.980   0.136   0.558  0.1791  0.4609  0.0990
  211SOL  HW1    632   1.923   0.128   0.472 -0.2108 -2.1563 -1.1264
  211SOL  HW2    633   2.043   0.052   0.564  3.7743 -3.5675 -2.0876
  212SOL  OW     634   2.773   0.583   1.314 -0.0064 -0.5268 -0.1266
  212SOL  HW1    635   2.792   0.513   1.385  3.0477  0.6225 -0.6979
  212SOL  HW2    636   2.672   0.602   1.304  0.1781  0.1536  1.8298
  213SOL  OW     637   0.127   2.147   2.732 -0.2299  0.1681 -0.1396
  213SOL  HW1    638   0.156   2.066   2.789  2.0669  0.3762 -1.2442
  213SOL  HW2    639   0.086   2.118   2.645  2.3908 -0.8113  0.4374
  214SOL  OW     640   2.273   3.002   2.981  0.2697  0.7030 -0.3444
  214SOL  HW1    641   2.169   3.001   2.971 -3.4766 -2.5116 -0.9324
  214SOL  HW2    642   2.314   2.916   2.956 -1.8807  1.3793  0.5842
  215SOL  OW     643   1.922   1.904   0.608  0.0767 -0.2710  0.5349
  215SOL  HW1    644   1.997   1.920   0.674 -1.1498 -0.9340  0.9056
  215SOL  HW2    645   1.859   1.989   0.622  0.3900  2.3353 -1.1264
  216SOL  OW     646   0.296   2.938   2.219  0.3326 -0.1700  0.2160
  216SOL  HW1    647   0.328   2.948   2.317 -2.9213 -1.9622  2.0922
  216SOL  HW2    648   0.249   3.025   2.189 -1.8459 -0.8432 -0.5010
  217SOL  OW     649   0.584   1.241   2.096 -0.1204 -0.2947  0.3484
  217SOL  HW1    650   0.654   1.210   2.161 -3.6045  0.6435 -0.2220
  217SOL  HW2    651   0.624   1.248   2.001  1.8588 -0.1431  0.6875
  218SOL  OW     652   1.859   2.571   1.984 -0.5726 -0.2127 -0.4533
  218SOL  HW1    653   1.776   2.631   2.004  1.6257  0.8595 -0.2152
  218SOL  HW2    654   1.944   2.620   2.022  0.7566  2.5948 -1.2792
  219SOL  OW     655   1.613   1.468   0.085  0.2508  0.4751 -0.0080
  219SOL  HW1    656   1.572   1.439   0.176  0.1479  2.6427  0.7465
  219SOL  HW2    657   1.560   1.431   0.010  0.4183  1.4588  2.0839
  220SOL  OW     658   1.292   1.493   0.133  0.1561 -0.2133 -0.3689
  220SOL  HW1    659   1.363   1.435   0.096 -0.9445  1.0241  0.7237
  220SOL  HW2    660   1.326   1.568   0.188 -1.0391  2.8317 -3.9590
  221SOL  OW     661   2.337   1.480   3.090 -0.1531 -0.2311 -0.0026
  221SOL  HW1    662   2.436   1.462   0.024 -2.7315  0.7807  0.5198
  221SOL  HW2    663   2.277   1.417   0.043  1.3012  3.1700  0.3727
  222SOL  OW     664   1.319   0.772   3.083  0.1905  0.4110  0.3483
  222SOL  HW1    665   1.350   0.712   3.007 -2.1962  2.4573 -0.4941
  222SOL  HW2    666   1.215   0.771   3.089  0.2766  1.0276 -1.1294
  223SOL  OW     667   0.669   2.400   0.672  0.8924  0.4444  0.0709
  223SOL  HW1    668   0.681   2.372   0.576  1.6304  1.2089 -1.2766
  223SOL  HW2    669   0.736   2.351   0.731  5.4468 -0.0420 -0.2404
  224SOL  OW     670   1.261   2.202   0.517 -0.5447  0.0627 -0.3441
  224SOL  HW1    671   1.336   2.166   0.449  0.7168 -0.8177 -2.2503
  224SOL  HW2    672   1.173   2.180   0.471  3.5135 -0.5300 -3.1342
  225SOL  OW     673   0.145   2.525   0.927  0.6058 -0.0178  0.0268
  225SOL  HW1    674   0.086   2.498   0.850  0.4669 -0.8997  0.9164
  225SOL  HW2    675   0.213   2.458   0.960  1.2489  1.8137 -0.8376
  226SOL  OW     676   0.599   1.947   2.845 -0.2404 -0.0482  0.2466
  226SOL  HW1    677   0.555   1.854   2.837  3.5572  1.9131  0.5178
  226SOL  HW2    678   0.582   1.992   2.935 -2.2522 -1.8508  1.2383
  227SOL  OW     679   0.895   2.041   1.277  0.6070 -0.0717 -0.0602
  227SOL  HW1    680   0.818   1.977   1.284 -0.1004  0.6455  2.2112
  227SOL  HW2    681   0.922   2.058   1.179 -2.0996 -0.8175  0.3129
  228SOL  OW     682   0.455   1.002   1.100  0.3760  0.5373  0.4684
  228SOL  HW1    683   0.424   1.094   1.134 -0.5258 -0.9545 -0.7167
  228SOL  HW2    684   0.557   0.988   1.092  1.0508  1.0787 -2.4444
  229SOL  OW     685   2.508   2.539   2.313 -0.5540  0.1734  0.2418
  229SOL  HW1    686   2.416   2.490   2.329 -1.0740 -2.2859  2.2121
  229SOL  HW2    687   2.490   2.632   2.268  0.7104  1.9926  0.3383
  230SOL  OW     688   0.188   1.177   0.922 -0.2153  0.3480 -0.4951
  230SOL  HW1    689   0.099   1.231   0.918 -2.7996  1.3494 -1.8099
  230SOL  HW2    690   0.165   1.091   0.974  1.6587  0.1124  1.6738
  231SOL  OW     691   2.017   1.301   0.054 -0.2111  0.5541  0.0464
  231SOL  HW1    692   2.055   1.261   3.066  0.2867  1.0155  0.8000
  231SOL  HW2    693   1.964   1.384   0.028 -0.0674  1.5681 -1.0818
  232SOL  OW     694   2.130   1.482   0.326 -0.0156 -0.4088  0.4476
  232SOL  HW1    695   2.114   1.548   0.401 -0.8986 -0.9337 -1.7945
  232SOL  HW2    696   2.116   1.528   0.236  0.8552 -1.3830  0.5036
  233SOL  OW     697   0.676   2.695   1.737  0.0574  0.0941  0.3469
  233SOL  HW1    698   0.725   2.619   1.692  0.2817 -0.6705  1.2852
  233SOL  HW2    699   0.586   2.669   1.770  0.4253 -0.2799  0.5292
  234SOL  OW     700   2.387   0.731   2.032 -0.0122  0.4680 -0.1221
  234SOL  HW1    701   2.331   0.815   2.035 -1.9658  0.0303 -1.2477
  234SOL  HW2    702   2.439   0.727   1.943  2.3524  1.5894  2.3587
  235SOL  OW     703   2.438   0.770   1.570 -0.1479  0.2650 -0.4443
  235SOL  HW1    704   2.502   0.828   1.523 -1.2272 -2.4702  1.2890
  235SOL  HW2    705   2.348   0.792   1.531 -0.4768 -1.3590  0.4760
  236SOL  OW     706   0.282   0.498   1.166 -0.0994 -0.2617 -0.1191
  236SOL  HW1    707   0.360   0.566   1.156  1.1708  1.2883 -1.0087
  236SOL  HW2    708   0.302   0.416   1.221  0.4398 -3.7212  2.8427
  237SOL  OW     709   0.918   0.662   0.580 -0.3495 -0.1286  0.2335
  237SOL  HW1    710   0.850   0.734   0.546 -0.7820  1.8991 -0.3602
  237SOL  HW2    711   1.013   0.700   0.588 -0.6236 -0.7103  0.8014
  238SOL  OW     712   2.533   1.761   2.901  0.4377 -0.0202  0.2468
  238SOL  HW1    713   2.491   1.759   2.991 -1.0001  1.6839  0.3955
  238SOL  HW2    714   2.489   1.697   2.835  1.7068  1.0574 -1.2546
  239SOL  OW     715   1.030   1.737   1.496  0.1951 -0.0565 -0.4326
  239SOL  HW1    716   1.073   1.823   1.460  1.0585  2.9810 -0.0338
  239SOL  HW2    717   0.948   1.718   1.437  0.8083 -2.2355  0.3104
  240SOL  OW     718   1.772   2.535   0.753 -0.3876 -0.3203  0.0230
  240SOL  HW1    719   1.766   2.638   0.745  0.0827  1.9216  0.5359
  240SOL  HW2    720   1.682   2.489   0.734  0.0169  1.4192  1.1594
  241SOL  OW     721   1.351   1.315   1.996 -0.4040  0.2898 -0.2211
  241SOL  HW1    722   1.391   1.303   2.090  0.6063  1.4942  3.6262
  241SOL  HW2    723   1.317   1.227   1.965  1.6493  2.2508  2.0271
  242SOL  OW     724   1.353   3.048   0.350 -0.6440  0.0596 -0.2081
  242SOL  HW1    725   1.428   2.990   0.305 -1.3738  3.4797  0.2387
  242SOL  HW2    726   1.382   3.071   0.444  0.7352 -1.6781  0.9949
  243SOL  OW     727   1.401   0.497   0.830  0.0199 -0.1559  0.0050
  243SOL  HW1    728   1.429   0.527   0.742  1.0216 -2.8526  1.4769
  243SOL  HW2    729   1.461   0.419   0.849 -1.0501 -0.9747  0.4890
  244SOL  OW     730   1.810   1.235   2.121 -0.5064  0.2205 -0.0663
  244SOL  HW1    731   1.785   1.157   2.062  2.1121 -0.4283  2.4407
  244SOL  HW2    732   1.895   1.213   2.180  0.7097 -1.1813  2.5121
  245SOL  OW     733   3.072   2.060   2.188 -0.0794 -0.1412  0.0260
  245SOL  HW1    734   2.996   2.022   2.128 -2.8456  0.6685  0.2096
  245SOL  HW2    735   0.067   2.026   2.153  1.6172 -1.8562 -0.5096
  246SOL  OW     736   0.848   2.632   2.607  0.7270  0.2451  0.1755
  246SOL  HW1    737   0.866   2.727   2.581 -1.3473 -0.9416  0.7762
  246SOL  HW2    738   0.766   2.633   2.673 -1.7274  2.1809  1.6042
  247SOL  OW     739   1.953   0.453   0.887  0.3762 -0.0271 -0.0141
  247SOL  HW1    740   2.030   0.516   0.892 -0.6748  0.1803 -4.5814
  247SOL  HW2    741   1.952   0.389   0.966 -1.5193 -0.6894 -0.8008
  248SOL  OW     742   2.764   2.912   0.839  0.2736  0.3274 -0.5513
  248SOL  HW1    743   2.809   2.864   0.918 -3.0114 -2.3373 -2.2375
  248SOL  HW2    744   2.813   2.996   0.810 -1.6320 -1.5616 -1.4259
  249SOL  OW     745   1.436   0.127   1.633  0.2802  0.1462  0.3988
  249SOL  HW1    746   1.406   0.111   1.537 -2.1040 -0.0852 -1.1116
  249SOL  HW2    747   1.366   0.183   1.682  0.4243 -0.4422  1.9676
  250SOL  OW     748   2.529   1.014   2.429  0.6416 -0.0425 -0.2428
  250SOL  HW1    749   2.598   1.059   2.368 -0.7760 -0.4670 -0.9179
  250SOL  HW2    750   2.564   0.979   2.518  2.6700  0.2751  0.3451
  251SOL  OW     751   1.262   2.067   2.887 -0.1244  0.3254 -0.2957
  251SOL  HW1    752   1.273   2.010   2.803 -0.2286 -0.4640  0.1596
  251SOL  HW2    753   1.181   2.037   2.945 -0.0398  0.2818  0.8955
  252SOL  OW     754   1.914   2.156   2.969 -0.1110 -0.2961 -0.7821
  252SOL  HW1    755   1.932   2.231   2.900  1.0851  1.7813  2.4585
  252SOL  HW2    756   1.979   2.160   3.052  0.5611 -1.1294  3.3316
  253SOL  OW     757   1.903   1.004   0.698  0.4310 -0.4224  0.3830
  253SOL  HW1    758   1.992   0.998   0.743 -0.9639  0.8961 -1.6586
  253SOL  HW2    759   1.845   1.082   0.737  1.6037 -1.1990  0.2568
  254SOL  OW     760   1.577   1.062   0.887 -0.2697  0.4389 -0.3454
  254SOL  HW1    761   1.526   1.133   0.942 -1.7527  1.3838  1.4144
  254SOL  HW2    762   1.579   0.969   0.926 -0.2389  0.2200 -1.8001
  255SOL  OW     763   1.329   0.118   2.294 -0.0364 -0.1869 -0.5607
  255SOL  HW1    764   1.366   0.148   2.384  0.2801  2.0023  0.1090
  255SOL  HW2    765   1.238   0.155   2.269  4.0933 -0.2228  0.5055
  256SOL  OW     766   2.638   2.040   1.920 -0.1659  0.8381 -0.1635
  256SOL  HW1    767   2.547   2.017   1.956  2.4351  3.0160 -0.1957
  256SOL  HW2    768   2.629   2.101   1.837 -0.0738  0.0250 -0.9543
  257SOL  OW     769   0.059   2.060   2.454  0.1433  0.0181 -0.0380
  257SOL  HW1    770   0.053   2.044   2.353 -1.2159 -1.0688  0.5360
  257SOL  HW2    771   3.061   2.068   2.495 -1.3265  1.8742  1.2907
  258SOL  OW     772   1.091   2.309   2.320  0.4669 -0.1989  0.2844
  258SOL  HW1    773   1.137   2.227   2.355  3.0352 -1.6303  2.2264
  258SOL  HW2    774   1.079   2.375   2.399  2.2454  1.6894  2.4076
  259SOL  OW     775   1.281   0.080   0.135 -0.0814 -0.3203 -0.1404
  259SOL  HW1    776   1.300   0.055   0.230 -1.0664  1.7564 -1.2128
  259SOL  HW2    777   1.200   0.027   0.099  4.1423  2.4884  3.2441
  260SOL  OW     778   2.952   2.751   1.899 -0.7742  0.3603  0.4401
  260SOL  HW1    779   2.904   2.679   1.949 -0.4285  3.9739 -0.1988
  260SOL  HW2    780   3.009   2.715   1.821 -0.0644 -1.2834 -0.7156
  261SOL  OW     781   0.703   0.318   0.540 -0.2809  0.5369  0.1856
  261SOL  HW1    782   0.759   0.361   0.468  0.2283  0.3203  1.3862
  261SOL  HW2    783   0.685   0.219   0.525  1.7893 -2.1943 -0.4215
  262SOL  OW     784   1.610   2.463   1.076  0.6091  0.2493 -0.3088
  262SOL  HW1    785   1.571   2.509   1.157 -2.1402  0.7668  0.4075
  262SOL  HW2    786   1.694   2.514   1.055  1.1262 -3.8714  0.2644
  263SOL  OW     787   1.006   2.901   1.334 -0.1989  0.2929 -0.3098
  263SOL  HW1    788   0.902   2.903   1.344 -1.4588 -1.2462  0.9440
  263SOL  HW2    789   1.038   2.940   1.246 -0.4813  0.2785  0.1389
  264SOL  OW     790   0.903   1.798   1.747 -0.4268  0.4777 -0.2103
  264SOL  HW1    791   0.947   1.769   1.661 -0.6007 -1.4028 -0.7710
  264SOL  HW2    792   0.954   1.879   1.781  0.9425 -0.0048 -4.8213
  265SOL  OW     793   0.999   1.789   1.015  0.0564  0.3970 -0.0206
  265SOL  HW1    794   1.009   1.885   1.050 -0.8700 -2.5936 -0.5627
  265SOL  HW2    795   0.903   1.785   0.979 -0.6992  1.4522  0.8886
  266SOL  OW     796   0.632   2.306   1.723  0.3990  0.0452  0.0704
  266SOL  HW1    797   0.710   2.370   1.707  1.9815 -0.6554  0.2871
  266SOL  HW2    798   0.667   2.222   1.770 -0.7180 -1.0907  0.5393
  267SOL  OW     799   0.504   1.056   0.097 -0.2892  0.3847  0.1148
  267SOL  HW1    800   0.562   1.002   0.034  0.0375  0.3896  0.7103
  267SOL  HW2    801   0.445   1.112   0.037  1.9591  2.2654  0.0164
  268SOL  OW     802   1.266   0.354   2.863 -0.5698 -0.3335  0.2898
  268SOL  HW1    803   1.214   0.272   2.832 -0.6100  0.9539 -1.6992
  268SOL  HW2    804   1.340   0.382   2.798 -0.2000  1.6020  0.3800
  269SOL  OW     805   2.415   1.483   1.425 -0.3494  0.3513 -0.2858
  269SOL  HW1    806   2.424   1.471   1.528 -1.3838 -0.0218  1.2459
  269SOL  HW2    807   2.316   1.473   1.403  1.7419  3.6213 -0.6357
  270SOL  OW     808   1.100   2.752   0.000  0.1448 -0.2848 -0.1211
  270SOL  HW1    809   1.178   2.702   0.043  4.0840  3.2578 -0.3838
  270SOL  HW2    810   1.105   2.736   2.995  0.0626 -0.3191  1.5415
  271SOL  OW     811   0.622   2.029   0.981 -0.2405  0.1403 -0.2083
  271SOL  HW1    812   0.657   2.010   1.076 -1.2906  0.5172  1.9229
  271SOL  HW2    813   0.525   1.998   0.967 -1.0200  0.1133  0.8806
  272SOL  OW     814   2.006   3.020   1.346 -0.1565 -0.1303 -0.2434
  272SOL  HW1    815   2.101   2.984   1.342 -0.1424  0.3678 -0.6253
  272SOL  HW2    816   1.946   2.962   1.406  1.1964 -0.1651  3.5939
  273SOL  OW     817   2.157   1.923   2.170 -0.1014  0.1281  0.4919
  273SOL  HW1    818   2.225   1.871   2.120  1.0344  0.2504  0.2456
  273SOL  HW2    819   2.083   1.957   2.108  0.0466  1.4913  0.1761
  274SOL  OW     820   1.546   1.596   2.756 -0.4554  0.0152 -0.1725
  274SOL  HW1    821   1.495   1.647   2.830  1.1027 -0.9303  1.4588
  274SOL  HW2    822   1.516   1.499   2.742  0.8513 -1.4749 -0.6696
  275SOL  OW     823   0.200   2.781   0.824 -0.2913 -0.3762 -0.2176
  275SOL  HW1    824   0.166   2.690   0.842  1.2273  2.6059 -1.6093
  275SOL  HW2    825   0.142   2.864   0.860  0.3381  3.1930  1.1261
  276SOL  OW     826   2.901   1.956   1.989 -0.1697 -0.3124  0.1324
  276SOL  HW1    827   2.814   2.001   1.967 -0.4312  0.6968  0.0783
  276SOL  HW2    828   2.890   1.852   1.993 -1.1498 -2.5175  0.6420
  277SOL  OW     829   1.820   3.090   1.132  0.3630  0.2259  0.5824
  277SOL  HW1    830   1.776   3.002   1.122  0.7895  1.3866 -1.6951
  277SOL  HW2    831   1.901   3.083   1.194 -0.4086  3.1708  1.1777
  278SOL  OW     832   2.120   0.909   2.991 -0.1686 -0.2989 -0.0226
  278SOL  HW1    833   2.162   0.851   2.919 -0.3441  0.0743  1.1595
  278SOL  HW2    834   2.025   0.878   3.022 -1.8140  1.8539  0.4274
  279SOL  OW     835   0.523   0.581   1.807  0.1603  0.0266 -0.3739
  279SOL  HW1    836   0.621   0.553   1.815  2.4273 -0.6325 -1.6438
  279SOL  HW2    837   0.487   0.614   1.897  0.8201  1.2047 -0.3794
  280SOL  OW     838   1.516   0.286   0.533  0.4686 -0.5035  0.2009
  280SOL  HW1    839   1.423   0.336   0.543 -0.8019  0.9207  1.3820
  280SOL  HW2    840   1.554   0.301   0.437 -0.8895 -1.5250 -1.2161
  281SOL  OW     841   1.869   1.502   3.075 -0.0836 -0.1543 -0.5079
  281SOL  HW1    842   1.780   1.516   0.026 -2.6954 -0.2525  2.3719
  281SOL  HW2    843   1.859   1.508   2.974 -1.1298  0.7349 -0.2865
  282SOL  OW     844   3.013   1.917   0.233 -0.2449 -0.3032  0.2298
  282SOL  HW1    845   2.933   1.908   0.296  1.4416  0.8432 -0.2205
  282SOL  HW2    846   2.992   1.994   0.170 -0.1299  1.1293  1.4282
  283SOL  OW     847   0.868   2.238   0.222 -0.2075  0.1969 -0.0300
  283SOL  HW1    848   0.925   2.299   0.163 -1.3243  1.1811 -0.2017
  283SOL  HW2    849   0.824   2.162   0.173  0.3324  1.2719  0.9858
  284SOL  OW     850   0.536   0.862   2.760  0.0901 -0.1090 -0.0345
  284SOL  HW1    851   0.580   0.866   2.850  0.4829 -0.7431 -1.1765
  284SOL  HW2    852   0.488   0.776   2.758  0.0963 -0.5384 -0.0041
  285SOL  OW     853   1.732   1.162   3.091  0.0723 -0.0988 -0.0594
  285SOL  HW1    854   1.782   1.174   0.082  0.3361 -0.6218 -1.3244
  285SOL  HW2    855   1.631   1.140   0.010 -3.3394  0.4820  2.1347
  286SOL  OW     856   1.070   0.800   0.883 -0.0457  0.2444  0.0373
  286SOL  HW1    857   0.967   0.769   0.886 -0.6954 -2.5188  1.0369
  286SOL  HW2    858   1.085   0.898   0.867  3.6843 -0.7754 -2.2346
  287SOL  OW     859   2.651   2.905   0.591  0.1338 -0.0513 -0.4433
  287SOL  HW1    860   2.721   2.893   0.518  2.3636 -1.1880  0.3159
  287SOL  HW2    861   2.688   2.895   0.684  0.0949  0.3086 -2.1160
  288SOL  OW     862   1.968   3.014   1.867  0.1246 -0.2455  0.4542
  288SOL  HW1    863   1.985   2.974   1.959  0.0356 -0.8744 -0.8839
  288SOL  HW2    864   2.041   2.995   1.802  0.2557 -0.3096  0.4817
  289SOL  OW     865   2.905   0.834   0.695 -0.0786  0.0565  0.2001
  289SOL  HW1    866   2.993   0.812   0.640 -0.0709  0.8767  0.5959
  289SOL  HW2    867   2.907   0.798   0.789  0.4857  0.8593  0.0709
  290SOL  OW     868   1.255   1.135   2.956  0.6325  0.1401  0.0884
  290SOL  HW1    869   1.204   1.172   2.870 -0.4647  2.4659  1.2775
  290SOL  HW2    870   1.339   1.075   2.931  1.0844  0.3327 -0.7104
  291SOL  OW     871   0.880   3.049   0.647 -0.2385 -0.2025 -0.2458
  291SOL  HW1    872   0.890   3.083   0.743 -0.0401 -1.4198 -0.2930
  291SOL  HW2    873   0.936   2.967   0.625  0.2144 -1.6137 -3.2856
  292SOL  OW     874   0.936   0.178   1.566 -0.1865 -0.3443  0.1566
  292SOL  HW1    875   1.005   0.185   1.491 -1.1252 -0.8195 -1.2445
  292SOL  HW2    876   0.845   0.165   1.520  3.0075 -0.0026 -1.2270
  293SOL  OW     877   1.987   1.526   1.134  0.2758  0.1125 -0.4241
  293SOL  HW1    878   1.925   1.596   1.165  0.4438  0.4649 -1.0764
  293SOL  HW2    879   2.025   1.546   1.042  0.4730  1.9060  0.6108
  294SOL  OW     880   0.406   0.628   2.066  0.2418  0.7634 -0.0359
  294SOL  HW1    881   0.431   0.603   2.160 -1.8230  1.6735 -1.7096
  294SOL  HW2    882   0.346   0.713   2.073 -1.0545 -0.2150 -0.2803
  295SOL  OW     883   0.850   2.603   0.313 -0.0395  0.0266 -0.1315
  295SOL  HW1    884   0.789   2.688   0.307  0.9259 -1.2203 -0.8759
  295SOL  HW2    885   0.804   2.530   0.374 -1.2922 -1.9499  1.4376
  296SOL  OW     886   1.543   0.864   0.395 -0.1306 -0.1747  0.2756
  296SOL  HW1    887   1.537   0.814   0.309 -2.0630 -0.4940  0.6549
  296SOL  HW2    888   1.613   0.823   0.458  1.4596 -2.3433  1.8491
  297SOL  OW     889   1.059   0.694   3.086  0.0132 -0.1235 -0.0443
  297SOL  HW1    890   0.984   0.669   3.023  0.0387 -0.5131  1.2050
  297SOL  HW2    891   1.033   0.704   0.086 -0.2246 -1.4766 -1.9887
  298SOL  OW     892   1.122   2.629   0.338  0.1115 -0.1088 -0.3130
  298SOL  HW1    893   1.123   2.733   0.353 -0.1063  3.0407  2.4835
  298SOL  HW2    894   1.021   2.611   0.330 -2.4530 -0.6673 -0.3860
  299SOL  OW     895   1.030   2.330   0.004  0.2928 -0.5117  0.3892
  299SOL  HW1    896   0.955   2.379   3.047 -2.6532 -0.2900 -1.5208
  299SOL  HW2    897   1.113   2.387   3.091 -2.0925 -1.8708  0.9055
  300SOL  OW     898   2.713   1.852   2.234 -0.7041  0.0969 -0.2263
  300SOL  HW1    899   2.753   1.851   2.327  1.8097 -1.2053 -0.4698
  300SOL  HW2    900   2.685   1.945   2.208  1.3592 -1.1579  1.2803
  301SOL  OW     901   2.320   1.743   1.999  0.0528 -0.3896 -0.3400
  301SOL  HW1    902   2.409   1.690   2.008 -2.1863  0.1284 -0.7509
  301SOL  HW2    903   2.303   1.766   1.901 -0.3003 -2.6298  0.8038
  302SOL  OW     904   1.245   1.615   1.588 -0.0118  0.3409  0.1913
  302SOL  HW1    905   1.346   1.638   1.563  1.8182  1.5175  1.0695
  302SOL  HW2    906   1.175   1.680   1.546 -2.8373  1.7621 -1.8505
  303SOL  OW     907   1.297   2.628   0.131 -0.3114  0.1886  0.4222
  303SOL  HW1    908   1.397   2.642   0.145  0.2667 -0.6939  1.9239
  303SOL  HW2    909   1.247   2.619   0.219 -0.2063  2.4544  1.7220
  304SOL  OW     910   2.278   0.154   0.708  0.1913 -0.2672 -0.0287
  304SOL  HW1    911   2.379   0.141   0.715 -0.1452 -0.1432 -0.8173
  304SOL  HW2    912   2.234   0.076   0.663  0.6668  2.6552  0.0102
  305SOL  OW     913   1.363   1.520   0.988 -0.1466 -0.6316 -0.3993
  305SOL  HW1    914   1.293   1.593   0.982  0.8343 -2.8779  0.0099
  305SOL  HW2    915   1.420   1.525   0.904  1.5223 -0.4464  3.5188
  306SOL  OW     916   0.346   2.020   0.886  0.7565 -0.0989 -0.1279
  306SOL  HW1    917   0.325   2.104   0.830 -0.5696 -1.0752 -0.5077
  306SOL  HW2    918   0.274   1.993   0.950  1.0399 -0.2030 -0.3251
  307SOL  OW     919   3.077   0.164   1.580 -0.0019  0.3445 -0.1731
  307SOL  HW1    920   2.975   0.159   1.597  1.4900  0.6695 -3.2723
  307SOL  HW2    921   0.018   0.251   1.613  0.9568  1.6783  0.0311
  308SOL  OW     922   2.746   2.770   0.175  0.1885 -0.3201 -0.1162
  308SOL  HW1    923   2.682   2.802   0.100 -0.5843  2.1055 -0.0503
  308SOL  HW2    924   2.824   2.721   0.139 -2.8735 -0.7828  2.0033
  309SOL  OW     925   1.538   2.145   2.809  0.4684 -0.0300  0.1167
  309SOL  HW1    926   1.593   2.083   2.746 -1.2538  0.1504  0.7544
  309SOL  HW2    927   1.462   2.092   2.847  1.9222  1.7907 -2.3003
  310SOL  OW     928   1.725   0.991   1.987 -0.3071 -0.1177 -0.3116
  310SOL  HW1    929   1.627   0.994   1.986  1.5642 -1.6685 -0.9872
  310SOL  HW2    930   1.748   0.913   2.045  0.2005  1.1627 -2.0894
  311SOL  OW     931   1.406   1.787   2.957  0.1981  0.4124 -0.0368
  311SOL  HW1    932   1.371   1.831   3.042  1.9867 -0.9259  0.6211
  311SOL  HW2    933   1.343   1.810   2.882  0.2076 -1.1439  0.7797
  312SOL  OW     934   1.649   1.838   0.566 -0.3116 -1.0961  0.3328
  312SOL  HW1    935   1.637   1.741   0.535 -1.8005 -0.4702 -0.0143
  312SOL  HW2    936   1.748   1.866   0.579 -0.7135 -0.3606  0.9746
  313SOL  OW     937   2.812   1.274   0.751  0.2914  0.2300 -0.3518
  313SOL  HW1    938   2.755   1.261   0.836 -0.0176  0.8623 -1.0174
  313SOL  HW2    939   2.799   1.193   0.696  2.5122 -0.5190  2.9740
  314SOL  OW     940   2.572   0.777   1.808 -0.0725  0.0435 -0.0607
  314SOL  HW1    941   2.503   0.780   1.727  0.3230  0.4670 -2.3025
  314SOL  HW2    942   2.619   0.867   1.806  0.4654  1.6789  3.0967
  315SOL  OW     943   1.322   1.925   2.409 -0.4868 -0.2924  0.0333
  315SOL  HW1    944   1.385   2.003   2.415  1.3806 -1.2839  1.1618
  315SOL  HW2    945   1.248   1.931   2.477 -0.5269  1.5258  0.3349
  316SOL  OW     946   2.765   1.382   0.271 -0.1428 -0.1289 -0.1906
  316SOL  HW1    947   2.867   1.387   0.254  1.5153  0.8267  1.1644
  316SOL  HW2    948   2.749   1.412   0.368  1.7518 -0.1706  0.7796
  317SOL  OW     949   1.119   1.429   0.509  0.1004 -0.5173 -0.4506
  317SOL  HW1    950   1.210   1.425   0.555 -1.3842  0.2774 -1.6305
  317SOL  HW2    951   1.083   1.523   0.530  0.7130  0.5452 -2.5803
  318SOL  OW     952   1.382   1.956   1.465 -0.1863 -0.4770  0.0752
  318SOL  HW1    953   1.417   1.967   1.560 -1.4519  0.9262  0.3628
  318SOL  HW2    954   1.282   1.970   1.448 -1.9270 -1.1983  0.9516
  319SOL  OW     955   0.878   0.926   2.777  0.0367 -0.0520 -0.5017
  319SOL  HW1    956   0.862   1.007   2.840 -0.5053 -0.6815  0.9782
  319SOL  HW2    957   0.828   0.941   2.687 -0.0163  0.6363 -1.8965
  320SOL  OW     958   0.289   1.832   1.238 -0.1907  0.4156 -0.4021
  320SOL  HW1    959   0.334   1.912   1.278  2.0793 -1.0004  1.1104
  320SOL  HW2    960   0.233   1.865   1.158 -3.4813 -1.4664 -0.7991
  321SOL  OW     961   2.292   2.937   1.364  0.1145 -0.1280  0.2953
  321SOL  HW1    962   2.366   2.916   1.432 -0.6993 -0.5305  0.9202
  321SOL  HW2    963   2.273   2.855   1.306 -1.3973 -1.3916 -0.8890
  322SOL  OW     964   0.566   2.271   1.440  0.2668  0.0630  0.2845
  322SOL  HW1    965   0.651   2.287   1.386  0.8371  0.3828 -0.1099
  322SOL  HW2    966   0.573   2.298   1.538  2.5348 -0.5982  0.3183
  323SOL  OW     967   0.420   0.014   0.211  0.9124  0.2947 -0.4468
  323SOL  HW1    968   0.389   3.067   0.302 -3.6027  0.0144  2.2388
  323SOL  HW2    969   0.385   0.109   0.208  0.8702 -1.3251  0.9141
  324SOL  OW     970   2.924   1.702   2.584  0.1513  0.4201 -0.0107
  324SOL  HW1    971   2.863   1.784   2.580  0.3199 -4.2528  0.7297
  324SOL  HW2    972   2.996   1.719   2.659  0.1138 -0.4259  3.1764
  325SOL  OW     973   0.266   0.858   2.064  0.1343 -0.0078 -0.3297
  325SOL  HW1    974   0.175   0.834   2.105  0.9603 -0.6871  1.6239
  325SOL  HW2    975   0.257   0.915   1.983  1.6735  1.3604  0.5411
  326SOL  OW     976   2.681   2.516   0.531  0.1510 -0.0706  0.1934
  326SOL  HW1    977   2.767   2.553   0.572  1.0805  0.3970 -0.2061
  326SOL  HW2    978   2.602   2.530   0.592  0.7480  0.3431 -0.0432
  327SOL  OW     979   0.224   0.360   2.859  0.2252 -0.3151 -0.0664
  327SOL  HW1    980   0.204   0.312   2.771  0.5901 -2.4104  1.3813
  327SOL  HW2    981   0.187   0.456   2.862 -1.0937 -2.6609  0.7673
  328SOL  OW     982   1.662   1.729   3.068 -0.1564  0.0178 -0.2344
  328SOL  HW1    983   1.573   1.741   3.020 -0.1298 -1.7604 -1.0243
  328SOL  HW2    984   1.660   1.649   0.038 -0.7231  0.5879  1.8921
  329SOL  OW     985   2.335   1.669   1.071  0.7319  0.2875  0.1686
  329SOL  HW1    986   2.424   1.673   1.121  0.8020 -0.1750  0.8236
  329SOL  HW2    987   2.324   1.578   1.033 -1.4025  2.8604 -0.3574
  330SOL  OW     988   0.682   0.012   0.239 -0.3728 -0.0278  0.0020
  330SOL  HW1    989   0.582   0.011   0.227  1.6408  1.8145 -0.9433
  330SOL  HW2    990   0.726   0.045   0.158 -1.2157  0.5446 -0.4943
  331SOL  OW     991   1.451   1.377   2.973  0.2736  0.0087  0.3676
  331SOL  HW1    992   1.363   1.423   2.939 -1.5226  0.5237 -0.1297
  331SOL  HW2    993   1.447   1.275   2.969 -0.4741  2.1312  2.5503
  332SOL  OW     994   2.536   0.501   1.582 -0.8923 -0.1551  0.1481
  332SOL  HW1    995   2.500   0.427   1.520 -0.4207  0.1322  0.1652
  332SOL  HW2    996   2.522   0.597   1.552  4.2737 -0.4337  2.1045
  333SOL  OW     997   3.061   0.413   0.524 -0.4554 -0.4236  0.1267
  333SOL  HW1    998   3.004   0.483   0.476  0.0960  1.0203 -2.1869
  333SOL  HW2    999   3.071   0.434   0.621 -1.3844  1.0649  1.8049
  334SOL  OW    1000   2.895   1.682   1.656 -0.4942  0.8294 -0.7111
  334SOL  HW1   1001   2.974   1.747   1.658 -1.6702 -4.1132 -1.2922
  334SOL  HW2   1002   2.902   1.603   1.586 -0.9927 -1.0158 -1.4045
  335SOL  OW    1003   1.926   0.539   0.449  0.4838  0.4233  0.8190
  335SOL  HW1   1004   2.007   0.485   0.477  0.1692  1.7572 -1.0877
  335SOL  HW2   1005   1.861   0.540   0.527  0.8825 -0.6858 -1.0341
  336SOL  OW    1006   0.249   0.066   1.551  0.2750 -0.2739 -0.1083
  336SOL  HW1   1007   0.181   0.119   1.607  0.9810 -1.9593  1.0498
  336SOL  HW2   1008   0.326   0.030   1.610  1.2752  2.0786  0.1869
  337SOL  OW    1009   0.945   2.223   2.714 -0.1349 -0.3290  0.1535
  337SOL  HW1   1010   0.855   2.176   2.695 -2.9559  1.4095 -0.6902
  337SOL  HW2   1011   0.952   2.254   2.812 -1.8900 -0.8653  2.3917
  338SOL  OW    1012   0.681   2.145   2.676 -0.3717 -0.1946 -0.0266
  338SOL  HW1   1013   0.677   2.059   2.733  1.3439  1.4511 -1.1512
  338SOL  HW2   1014   0.625   2.139   2.590  0.2684  0.2870 -1.1494
  339SOL  OW    1015   2.518   1.592   0.379  0.4462  0.1246 -0.0425
  339SOL  HW1   1016   2.492   1.490   0.375 -0.0555 -3.8234 -0.6274
  339SOL  HW2   1017   2.598   1.628   0.325 -2.6082 -1.2980  0.8371
  340SOL  OW    1018   1.402   0.477   2.093 -0.0471 -0.0902 -0.2513
  340SOL  HW1   1019   1.426   0.379   2.073  0.7337 -1.7793 -1.3564
  340SOL  HW2   1020   1.310   0.479   2.145  0.0363  1.7224  1.0660
  341SOL  OW    1021   1.300   2.084   2.180  0.5620 -0.0058 -0.6667
  341SOL  HW1   1022   1.219   2.027   2.170  1.3218 -1.6084  0.3022
  341SOL  HW2   1023   1.375   2.025   2.210 -0.5990 -0.5909  1.0158
  342SOL  OW    1024   0.258   2.251   2.397 -0.0165 -0.3230  0.4926
  342SOL  HW1   1025   0.187   2.182   2.422 -1.3930  0.1382  1.6922
  342SOL  HW2   1026   0.216   2.344   2.374 -0.5064  1.5415 -0.8201
  343SOL  OW    1027   0.322   3.062   2.929  0.0658 -0.2432  0.2292
  343SOL  HW1   1028   0.257   0.035   2.961  3.9546 -1.1150 -0.4443
  343SOL  HW2   1029   0.367   3.008   3.001 -0.2532  4.5405 -0.0711
  344SOL  OW    1030   3.090   2.439   0.680 -0.1925 -0.3439 -0.1697
  344SOL  HW1   1031   0.053   2.472   0.608 -2.5826 -1.8237  2.5813
  344SOL  HW2   1032   3.017   2.510   0.695  0.8984  1.1486  0.7727
  345SOL  OW    1033   2.912   2.296   0.260 -0.2255  0.2882 -0.0255
  345SOL  HW1   1034   2.967   2.384   0.272 -0.6144  1.9085 -1.1244
  345SOL  HW2   1035   2.853   2.280   0.340 -1.5683 -1.3773 -0.6743
  346SOL  OW    1036   1.145   1.648   2.145  0.3722  0.0127 -0.7352
  346SOL  HW1   1037   1.165   1.651   2.044 -0.0033 -1.7056  1.2935
  346SOL  HW2   1038   1.236   1.644   2.192  1.2109  0.3106 -1.6973
  347SOL  OW    1039   1.423   2.312   2.088  0.0064 -0.2091  0.1341
  347SOL  HW1   1040   1.488   2.334   2.166  1.7058 -0.6119  0.3527
  347SOL  HW2   1041   1.369   2.231   2.110  1.3324  0.0551 -1.3453
  348SOL  OW    1042   2.666   1.795   1.575 -0.6295 -0.0566 -0.2958
  348SOL  HW1   1043   2.741   1.740   1.619 -0.3507 -0.4486  0.0614
  348SOL  HW2   1044   2.686   1.895   1.576 -0.1417  0.6345 -2.5358
  349SOL  OW    1045   1.249   1.077   1.933  0.2853 -0.3192  0.2907
  349SOL  HW1   1046   1.221   1.102   1.838  0.7844 -0.9384 -0.3033
  349SOL  HW2   1047   1.164   1.058   1.985  2.2340 -1.5406 -0.3200
  350SOL  OW    1048   2.070   0.350   3.020  0.0319 -0.6989 -0.3607
  350SOL  HW1   1049   1.973   0.350   3.043  0.7712 -0.5387 -0.6826
  350SOL  HW2   1050   2.120   0.318   0.006 -2.3758 -0.0374 -1.2753
  351SOL  OW    1051   0.248   2.590   1.639 -0.2174 -0.0662  0.0212
  351SOL  HW1   1052   0.267   2.595   1.539 -0.7904 -0.8911 -0.4996
  351SOL  HW2   1053   0.321   2.549   1.694 -2.7764  0.9908  3.3039
  352SOL  OW    1054   0.282   1.917   0.490 -0.0346 -0.3332  0.4072
  352SOL  HW1   1055   0.344   1.994   0.470  1.1721 -0.0851 -0.3690
  352SOL  HW2   1056   0.191   1.952   0.526 -1.3499 -1.3999  0.9903
  353SOL  OW    1057   0.890   2.804   1.922  0.3993 -0.1942  0.0634
  353SOL  HW1   1058   0.978   2.804   1.873  0.8198 -0.8873  0.1181
  353SOL  HW2   1059   0.824   2.762   1.856  1.3142  0.7864 -2.5746
  354SOL  OW    1060   0.826   0.643   2.420  0.3377 -0.1270 -0.3470
  354SOL  HW1   1061   0.915   0.653   2.372  1.4236  2.1462 -0.4949
  354SOL  HW2   1062   0.810   0.730   2.473  0.2714 -1.8321  0.3664
  355SOL  OW    1063   1.772   0.368   2.342  0.3153 -0.5642 -0.7546
  355SOL  HW1   1064   1.759   0.401   2.244 -1.1801 -0.6157 -1.5944
  355SOL  HW2   1065   1.759   0.272   2.356  1.1318  4.6851 -1.4351
  356SOL  OW    1066   2.025   1.361   1.806  0.2738  0.0578  0.6176
  356SOL  HW1   1067   1.984   1.266   1.815 -0.5810  0.6276 -1.6600
  356SOL  HW2   1068   2.030   1.382   1.706  0.7686 -1.0432 -3.0861
  357SOL  OW    1069   1.033   0.188   0.551 -0.2377 -0.0586 -0.6570
  357SOL  HW1   1070   0.964   0.118   0.573 -1.2233  2.7309 -0.1175
  357SOL  HW2   1071   1.064   0.186   0.454  0.3872  1.5945 -0.5132
  358SOL  OW    1072   1.953   2.683   0.528  0.8676  0.2069  0.0886
  358SOL  HW1   1073   1.952   2.736   0.442  0.3309 -1.2905  0.2783
  358SOL  HW2   1074   1.907   2.591   0.527 -0.2436 -0.2924 -2.1022
  359SOL  OW    1075   2.590   2.130   2.658  0.0035  0.5861 -0.1973
  359SOL  HW1   1076   2.659   2.196   2.683 -0.9490 -2.1356 -1.7833
  359SOL  HW2   1077   2.619   2.036   2.689 -0.0835 -4.9899  0.7371
  360SOL  OW    1078   1.243   2.387   1.889  0.1593  0.0792 -0.0837
  360SOL  HW1   1079   1.162   2.409   1.950 -0.3203 -0.2254 -1.7620
  360SOL  HW2   1080   1.318   2.342   1.944  0.5623 -3.8148  2.2455
  361SOL  OW    1081   0.896   0.398   0.069 -0.2546  0.3037 -0.0564
  361SOL  HW1   1082   0.992   0.392   0.032 -0.3873  3.3363 -2.0058
  361SOL  HW2   1083   0.853   0.482   0.030  0.2026  0.2780  0.3540
  362SOL  OW    1084   0.534   0.942   1.528  0.6329 -0.2021  0.6167
  362SOL  HW1   1085   0.464   0.998   1.474 -0.1217  0.2240 -2.1782
  362SOL  HW2   1086   0.596   0.880   1.466  1.8792 -1.3604 -3.3844
  363SOL  OW    1087   2.448   2.705   0.882  0.8879 -0.2601 -0.4646
  363SOL  HW1   1088   2.438   2.626   0.823 -1.2558  0.5114 -0.1377
  363SOL  HW2   1089   2.354   2.752   0.896 -1.8469  3.3970  1.7745
  364SOL  OW    1090   0.623   1.243   1.813 -0.6590 -0.0449  0.4027
  364SOL  HW1   1091   0.706   1.296   1.788 -0.6654 -0.5056  0.9034
  364SOL  HW2   1092   0.641   1.144   1.791 -1.1395  1.6122 -1.3807
  365SOL  OW    1093   0.743   0.107   3.079 -0.1661 -0.1423 -0.3616
  365SOL  HW1   1094   0.659   0.102   3.017 -2.2048  1.6907 -1.1774
  365SOL  HW2   1095   0.825   0.090   3.019  1.3176 -1.7503 -0.9693
  366SOL  OW    1096   2.898   0.511   1.073  0.1687 -0.0181  0.5610
  366SOL  HW1   1097   2.983   0.471   1.113  1.4930 -1.5538 -0.9146
  366SOL  HW2   1098   2.844   0.563   1.144  0.1654 -0.8871 -2.5928
  367SOL  OW    1099   0.599   0.139   2.346 -0.0583 -0.4875  0.1429
  367SOL  HW1   1100   0.552   0.226   2.319  1.4110 -3.3044 -0.5894
  367SOL  HW2   1101   0.647   0.158   2.432  0.9292  1.1879 -1.0415
  368SOL  OW    1102   2.713   2.241   0.442  0.4026  0.0486  0.2392
  368SOL  HW1   1103   2.618   2.201   0.442 -1.4333 -1.8760  0.5208
  368SOL  HW2   1104   2.709   2.335   0.472  0.7498 -0.3126  1.1860
  369SOL  OW    1105   1.099   1.207   2.752  0.0202  0.0523  0.2163
  369SOL  HW1   1106   1.127   1.232   2.658  0.2667  0.6054  3.2910
  369SOL  HW2   1107   1.005   1.241   2.761 -0.3224 -0.9913  0.1119
  370SOL  OW    1108   0.746   3.028   2.762  0.1847 -0.2847 -0.1269
  370SOL  HW1   1109   0.740   2.942   2.817  2.2212 -0.0642 -1.5080
  370SOL  HW2   1110   0.672   0.000   2.778 -1.1860  0.6005 -0.0858
  371SOL  OW    1111   0.114   0.392   1.679 -0.2322 -0.4154  0.5198
  371SOL  HW1   1112   0.209   0.360   1.668 -0.7712  2.0397  0.9036
  371SOL  HW2   1113   0.108   0.462   1.757  2.3057  0.8164  1.9406
  372SOL  OW    1114   1.993   2.993   2.997 -0.4270 -0.1757  0.2422
  372SOL  HW1   1115   1.947   3.003   3.083  1.0899 -1.3716  0.9121
  372SOL  HW2   1116   2.008   3.081   2.947  2.6410 -2.0114  0.4161
  373SOL  OW    1117   2.981   2.855   0.618 -0.4210  0.2345 -0.0957
  373SOL  HW1   1118   2.937   2.853   0.527  0.0864  2.1049  0.7470
  373SOL  HW2   1119   3.004   2.953   0.632 -2.2954 -1.4318 -2.0054
  374SOL  OW    1120   2.336   1.351   2.188  0.8233  0.4148  0.3566
  374SOL  HW1   1121   2.418   1.308   2.148 -0.5258  0.4456  0.5272
  374SOL  HW2   1122   2.340   1.323   2.288  1.8962 -2.3096  0.5464
  375SOL  OW    1123   2.530   0.742   2.806 -0.2113 -0.2287 -0.3444
  375SOL  HW1   1124   2.562   0.658   2.760 -0.1261  1.0278  0.2960
  375SOL  HW2   1125   2.508   0.727   2.905  0.1947  0.3603  1.3998
  376SOL  OW    1126   0.220   2.289   1.847 -0.2724  0.1664  0.3076
  376SOL  HW1   1127   0.280   2.370   1.833  1.7702  1.2972  0.2696
  376SOL  HW2   1128   0.277   2.205   1.841 -1.5053  2.8848 -3.0912
  377SOL  OW    1129   2.589   0.240   2.582 -0.0961 -0.0772 -0.0312
  377SOL  HW1   1130   2.587   0.164   2.652  0.5078  0.1349  0.0675
  377SOL  HW2   1131   2.681   0.257   2.543  1.2474  1.9961  0.0283
  378SOL  OW    1132   2.991   1.350   2.413  0.0450 -0.1626 -0.0019
  378SOL  HW1   1133   3.090   1.374   2.426  2.0140 -0.4208 -2.7242
  378SOL  HW2   1134   2.979   1.252   2.381 -1.0119  0.0397 -0.3587
  379SOL  OW    1135   0.598   0.663   2.282 -0.0130  0.0500 -0.5796
  379SOL  HW1   1136   0.690   0.664   2.327 -1.1662  0.3011 -0.8099
  379SOL  HW2   1137   0.597   0.747   2.221  2.3016  1.1874 -2.7038
  380SOL  OW    1138   0.032   1.180   0.593  0.1398 -0.1966 -0.4015
  380SOL  HW1   1139   0.091   1.266   0.592  0.9219  1.4379  0.1015
  380SOL  HW2   1140   0.039   1.124   0.675  0.6247 -0.7178 -1.6985
  381SOL  OW    1141   2.982   2.125   0.051 -0.4841 -0.2728 -0.4728
  381SOL  HW1   1142   2.966   2.196   0.133 -0.4599  1.2686  1.7982
  381SOL  HW2   1143   3.020   2.179   3.072  1.7245 -1.1194 -2.1621
  382SOL  OW    1144   2.486   2.413   1.278  0.1289 -0.1165  0.3609
  382SOL  HW1   1145   2.549   2.345   1.235  0.4009 -0.0186 -0.6066
  382SOL  HW2   1146   2.514   2.511   1.254 -0.8370  2.0222  0.0791
  383SOL  OW    1147   1.070   2.588   0.947 -0.3421 -0.4506 -0.0952
  383SOL  HW1   1148   0.982   2.631   0.966  0.2569 -2.2794  1.7890
  383SOL  HW2   1149   1.135   2.653   0.905  0.7685  1.4969  1.6757
  384SOL  OW    1150   0.154   2.855   2.546 -0.5044  0.2919  0.0125
  384SOL  HW1   1151   0.121   2.922   2.476 -2.8993 -0.6019  1.6125
  384SOL  HW2   1152   0.196   2.774   2.498  2.3362 -1.1611 -0.5305
  385SOL  OW    1153   1.252   1.060   1.148  0.1083 -0.2089 -0.2015
  385SOL  HW1   1154   1.303   1.129   1.094 -0.1530  2.0246  0.3926
  385SOL  HW2   1155   1.188   1.101   1.219 -1.6935 -0.7086  2.1326
  386SOL  OW    1156   2.304   2.813   2.454  0.1935  0.1738 -0.0865
  386SOL  HW1   1157   2.241   2.891   2.434  1.0210 -2.0948 -0.9668
  386SOL  HW2   1158   2.341   2.777   2.366 -0.3683  0.5972  1.5041
  387SOL  OW    1159   1.193   1.131   1.678  0.1527 -0.6817  0.2486
  387SOL  HW1   1160   1.290   1.131   1.657  1.9404 -1.7958  1.0661
  387SOL  HW2   1161   1.146   1.217   1.644  1.2851  0.5069 -0.1556
  388SOL  OW    1162   0.768   1.249   2.356  0.5282  0.1759  0.1417
  388SOL  HW1   1163   0.814   1.340   2.357 -2.8780 -1.3571 -1.5198
  388SOL  HW2   1164   0.679   1.253   2.408 -2.5998 -0.3492  0.4593
  389SOL  OW    1165   0.866   1.559   1.908 -0.0034 -0.4686 -0.1016
  389SOL  HW1   1166   0.801   1.549   1.984 -0.1356  0.6115  0.4347
  389SOL  HW2   1167   0.903   1.651   1.896 -0.1258 -2.5883  2.8040
  390SOL  OW    1168   2.602   0.653   0.489  0.6505  0.0341  0.1378
  390SOL  HW1   1169   2.586   0.690   0.581 -0.1012 -0.3348 -5.0409
  390SOL  HW2   1170   2.617   0.725   0.420 -2.1027 -4.0048 -0.6404
  391SOL  OW    1171   1.947   1.676   2.632 -0.3212  0.5839  0.1284
  391SOL  HW1   1172   2.003   1.741   2.687 -0.0078 -0.8328 -0.6258
  391SOL  HW2   1173   2.009   1.647   2.556 -1.3243 -1.0885  1.1954
  392SOL  OW    1174   3.055   2.521   0.221 -0.2262 -0.2223 -0.5784
  392SOL  HW1   1175   0.037   2.462   0.202  2.2853 -0.1943 -1.1225
  392SOL  HW2   1176   3.092   2.593   0.282 -0.1886  1.5158  1.2847
  393SOL  OW    1177   0.904   2.053   2.316 -0.1642  0.1763 -0.3244
  393SOL  HW1   1178   0.882   2.117   2.238 -1.0200  1.1054 -0.1047
  393SOL  HW2   1179   0.823   1.994   2.326  0.8956 -0.3911  0.2483
  394SOL  OW    1180   3.087   2.428   1.925 -0.6698 -0.0584 -0.7470
  394SOL  HW1   1181   3.054   2.427   2.024 -1.2343 -0.5698  0.8858
  394SOL  HW2   1182   0.069   2.361   1.908  2.3037 -0.7384 -0.1686
  395SOL  OW    1183   0.035   0.409   1.173  0.2486 -0.8437  0.1501
  395SOL  HW1   1184   3.091   0.408   1.269 -2.4809 -0.1441  1.3519
  395SOL  HW2   1185   0.123   0.456   1.173 -1.8285  0.4559  1.8542
  396SOL  OW    1186   1.305   1.915   0.070  0.0295  0.3007 -0.1510
  396SOL  HW1   1187   1.213   1.948   0.093 -0.5446 -0.2940 -0.5884
  396SOL  HW2   1188   1.363   1.998   0.062 -1.1332 -0.6540  0.4397
  397SOL  OW    1189   0.498   0.640   2.547  0.5462 -0.0904 -0.6133
  397SOL  HW1   1190   0.552   0.685   2.473 -2.4915 -1.1517  0.6283
  397SOL  HW2   1191   0.393   0.649   2.541  1.3203  0.6061 -1.5189
  398SOL  OW    1192   0.825   2.633   0.030 -0.1489  0.3242 -0.2902
  398SOL  HW1   1193   0.804   2.607   0.127 -0.1471 -2.1663  2.0909
  398SOL  HW2   1194   0.914   2.676   0.020 -1.8285  0.8479 -1.7294
  399SOL  OW    1195   3.041   0.380   1.980  0.2005  0.4304 -0.0086
  399SOL  HW1   1196   0.027   0.436   1.995  0.7680 -2.6366 -0.1793
  399SOL  HW2   1197   2.996   0.348   2.066 -1.0756 -0.9961  0.0005
  400SOL  OW    1198   1.902   2.574   1.698  0.2141  0.3972 -0.0371
  400SOL  HW1   1199   1.886   2.586   1.796 -2.3508 -0.4705  0.5306
  400SOL  HW2   1200   1.999   2.603   1.671  0.6995 -1.7600  0.4016
  401SOL  OW    1201   3.039   1.417   2.140  0.4701 -0.0005  0.2520
  401SOL  HW1   1202   3.041   1.408   2.242 -1.0295  0.8175  0.8638
  401SOL  HW2   1203   2.973   1.491   2.117  0.1328  2.4368 -0.6753
  402SOL  OW    1204   1.023   0.761   0.242  0.1521 -0.0305  0.4361
  402SOL  HW1   1205   1.074   0.846   0.264 -1.0319 -1.0328 -0.0111
  402SOL  HW2   1206   1.061   0.691   0.300 -0.9065 -0.3937 -2.8938
  403SOL  OW    1207   0.733   2.043   0.728  0.0565  0.1684  0.0714
  403SOL  HW1   1208   0.827   2.088   0.732  0.8275  0.7219 -1.6157
  403SOL  HW2   1209   0.692   2.026   0.822 -2.8179  2.2255  1.3514
  404SOL  OW    1210   2.614   2.921   3.080  0.2591  0.1181 -0.1547
  404SOL  HW1   1211   2.694   2.942   3.026 -1.1432 -0.1429  4.7125
  404SOL  HW2   1212   2.540   2.871   3.030 -3.4291 -0.2804 -2.2870
  405SOL  OW    1213   0.144   0.246   2.633  0.5594 -0.0103  0.1058
  405SOL  HW1   1214   0.182   0.284   2.546  2.2391 -0.0706  3.2627
  405SOL  HW2   1215   0.050   0.204   2.618 -0.8324 -0.0039  1.9673
  406SOL  OW    1216   0.845   1.401   0.210  0.0522  0.1061  0.3442
  406SOL  HW1   1217   0.766   1.342   0.235 -2.4075 -1.4061 -2.2569
  406SOL  HW2   1218   0.936   1.380   0.251  0.4544 -2.7653  0.0282
  407SOL  OW    1219   2.874   2.984   1.699 -0.0667  0.0050  0.5365
  407SOL  HW1   1220   2.864   2.940   1.791  1.1548 -1.1501 -0.3439
  407SOL  HW2   1221   2.913   2.924   1.628 -1.1171 -0.0529 -1.5743
  408SOL  OW    1222   2.449   2.143   1.520 -0.0646  0.0920 -0.0096
  408SOL  HW1   1223   2.395   2.072   1.471  1.0890  1.6877 -2.0184
  408SOL  HW2   1224   2.399   2.222   1.555  0.5086  1.8578  1.9362
  409SOL  OW    1225   2.800   0.884   1.061 -0.3413  0.2039  0.4090
  409SOL  HW1   1226   2.801   0.864   1.162 -0.7908  1.2018 -0.0180
  409SOL  HW2   1227   2.873   0.827   1.018 -1.1109 -1.6982  0.5545
  410SOL  OW    1228   2.611   2.468   1.872 -0.3521  0.3360 -0.5992
  410SOL  HW1   1229   2.700   2.467   1.821  0.9411  2.5335  0.3863
  410SOL  HW2   1230   2.612   2.438   1.972 -0.8763 -0.0889  1.4280
  411SOL  OW    1231   2.305   0.311   1.885  0.6763  0.1136  0.8524
  411SOL  HW1   1232   2.210   0.270   1.892  0.2096 -1.3294 -2.1814
  411SOL  HW2   1233   2.337   0.365   1.959 -0.6107  0.0865  0.1992
  412SOL  OW    1234   1.805   2.448   2.406  0.0651  0.0355  0.5060
  412SOL  HW1   1235   1.833   2.356   2.373  2.3741 -0.4486  2.2831
  412SOL  HW2   1236   1.873   2.520   2.382  1.8244  2.3930  1.4114
  413SOL  OW    1237   0.605   0.141   2.788  0.1686 -0.1329 -0.1579
  413SOL  HW1   1238   0.534   0.103   2.727  1.7499 -0.0135  0.1527
  413SOL  HW2   1239   0.568   0.208   2.855 -0.9435  0.1794 -0.8383
  414SOL  OW    1240   2.320   1.762   0.686 -0.2341  0.1230  0.3314
  414SOL  HW1   1241   2.382   1.680   0.672 -1.6220 -1.0272  0.1032
  414SOL  HW2   1242   2.382   1.843   0.676  4.0658 -1.4006  0.2136
  415SOL  OW    1243   0.622   2.051   1.866 -0.3844 -0.2714  0.0598
  415SOL  HW1   1244   0.646   1.956   1.831 -1.9520  1.3451  0.7146
  415SOL  HW2   1245   0.668   2.080   1.953 -2.2101 -1.8085 -1.1580
  416SOL  OW    1246   0.678   2.340   2.240 -0.3884 -0.1367 -0.4038
  416SOL  HW1   1247   0.660   2.429   2.205 -0.7919 -1.6846  1.5614
  416SOL  HW2   1248   0.705   2.354   2.338  1.0079 -1.2820  1.6736
  417SOL  OW    1249   2.805   0.848   1.328  0.3997 -0.0829  0.3724
  417SOL  HW1   1250   2.791   0.747   1.321 -2.3068  1.0396  0.6763
  417SOL  HW2   1251   2.819   0.874   1.427  0.7076 -0.6178  1.1549
  418SOL  OW    1252   2.843   2.758   1.056  0.1311 -0.0008 -0.4054
  418SOL  HW1   1253   2.943   2.733   1.068  0.4184  2.6032 -1.1372
  418SOL  HW2   1254   2.788   2.684   1.013  0.0539  2.5260  1.5984
  419SOL  OW    1255   1.384   2.872   2.822  0.1205  0.1789 -0.8152
  419SOL  HW1   1256   1.444   2.831   2.746  0.0711  2.4768 -1.7516
  419SOL  HW2   1257   1.289   2.846   2.811  2.1778 -0.9096  0.7132
  420SOL  OW    1258   0.639   1.729   1.657  0.8737 -0.0632  0.4595
  420SOL  HW1   1259   0.648   1.643   1.605 -1.1454  3.0751  1.7373
  420SOL  HW2   1260   0.733   1.758   1.682  0.5739 -2.6471  2.3868
  421SOL  OW    1261   2.423   0.310   1.432 -0.5253 -0.3576 -0.3099
  421SOL  HW1   1262   2.331   0.349   1.436  1.9507 -1.9168 -0.5211
  421SOL  HW2   1263   2.451   0.275   1.339  1.9104  2.4889 -0.5090
  422SOL  OW    1264   2.328   2.843   1.765 -0.2861 -0.0741 -0.6216
  422SOL  HW1   1265   2.412   2.787   1.779 -0.8131 -1.8366  0.4406
  422SOL  HW2   1266   2.287   2.862   1.856  0.8746  0.8773  1.1311
  423SOL  OW    1267   0.801   0.929   1.987 -0.1723 -0.3306  0.1167
  423SOL  HW1   1268   0.869   0.994   2.034 -0.1891  0.7720  1.7843
  423SOL  HW2   1269   0.791   0.956   1.888  0.5386 -3.3195  1.1520
  424SOL  OW    1270   2.124   1.834   1.038  0.3470 -0.2259  0.0564
  424SOL  HW1   1271   2.033   1.815   1.085  2.4655  1.5356  0.3427
  424SOL  HW2   1272   2.187   1.757   1.067 -2.3907 -0.6248  1.9451
  425SOL  OW    1273   1.679   0.141   2.473  0.0236 -0.0375 -0.0384
  425SOL  HW1   1274   1.688   0.041   2.499  0.8941 -1.5534  2.0077
  425SOL  HW2   1275   1.585   0.178   2.490  1.1678  0.7169 -0.2434
  426SOL  OW    1276   0.319   0.261   0.171 -0.1731 -0.2822  0.5947
  426SOL  HW1   1277   0.389   0.330   0.139  0.3451 -2.1193  1.3899
  426SOL  HW2   1278   0.268   0.294   0.251  2.2228  0.8885 -2.0851
  427SOL  OW    1279   1.809   0.082   0.351  0.0868 -0.1874  0.1833
  427SOL  HW1   1280   1.735   0.153   0.356  3.4272  1.8705 -1.2761
  427SOL  HW2   1281   1.771   3.085   0.356  0.9665 -2.6819 -1.6828
  428SOL  OW    1282   1.787   1.200   0.830  0.2855  0.0954 -0.2058
  428SOL  HW1   1283   1.843   1.228   0.910 -0.5690  0.8563 -0.1643
  428SOL  HW2   1284   1.696   1.149   0.853 -0.8434 -0.7178 -0.4688
  429SOL  OW    1285   2.171   0.285   0.161 -0.2241 -0.1974  0.5805
  429SOL  HW1   1286   2.172   0.182   0.168  1.1378 -1.6570  0.2388
  429SOL  HW2   1287   2.160   0.326   0.253  0.8206 -1.2251 -0.2599
  430SOL  OW    1288   0.014   1.717   2.786 -0.6692  0.0773  0.1621
  430SOL  HW1   1289   3.051   1.730   2.869  0.0558  1.5436 -0.3934
  430SOL  HW2   1290   0.088   1.652   2.809 -0.9961  0.1523  0.0489
  431SOL  OW    1291   2.730   1.882   0.789 -0.2792 -0.2180  0.2583
  431SOL  HW1   1292   2.781   1.956   0.744 -0.0346  1.3357 -1.0143
  431SOL  HW2   1293   2.751   1.872   0.889 -0.3061 -0.1291  3.5407
  432SOL  OW    1294   1.108   2.801   1.770 -0.5006 -0.1349  0.0552
  432SOL  HW1   1295   1.193   2.828   1.823 -1.1931 -0.2628 -1.1407
  432SOL  HW2   1296   1.078   2.863   1.697  2.5452  1.7664  0.3691
  433SOL  OW    1297   1.000   1.564   1.204 -0.1699 -0.0672  0.2454
  433SOL  HW1   1298   0.925   1.604   1.261 -0.6932 -2.0050 -0.6678
  433SOL  HW2   1299   1.017   1.631   1.126  0.3895  0.4218 -0.5071
  434SOL  OW    1300   1.629   0.285   0.273 -0.1717  0.1028 -0.3144
  434SOL  HW1   1301   1.687   0.368   0.263  1.8377  0.4206  2.1814
  434SOL  HW2   1302   1.539   0.299   0.229 -2.3839 -0.9118  0.1844
  435SOL  OW    1303   0.354   2.731   0.071 -0.0213  0.2053  0.2187
  435SOL  HW1   1304   0.277   2.787   0.105 -0.6660 -1.1081  0.8571
  435SOL  HW2   1305   0.323   2.684   3.080  0.5686  0.0930 -2.3906
  436SOL  OW    1306   0.504   2.646   0.280  0.3465 -0.6070  0.0575
  436SOL  HW1   1307   0.456   2.643   0.187  0.5546 -1.1457 -1.7933
  436SOL  HW2   1308   0.508   2.550   0.315  0.4961 -0.7300 -1.8422
  437SOL  OW    1309   2.947   1.293   3.080  0.0145  0.7811  0.2757
  437SOL  HW1   1310   2.982   1.354   0.058 -0.3781  0.8633  0.1741
  437SOL  HW2   1311   3.020   1.272   3.012  0.1630 -2.2912  2.3319
  438SOL  OW    1312   0.546   0.983   2.360  0.1010 -0.1640  0.1213
  438SOL  HW1   1313   0.516   1.077   2.369 -1.8900 -2.2254 -0.5732
  438SOL  HW2   1314   0.557   0.947   2.265  1.5709  0.1267 -1.5640
  439SOL  OW    1315   2.202   1.623   2.869  0.1647  0.3816 -0.3914
  439SOL  HW1   1316   2.265   1.574   2.933  0.8106 -4.1484  0.7102
  439SOL  HW2   1317   2.106   1.625   2.909 -0.7730 -0.1408  0.9509
  440SOL  OW    1318   2.985   0.721   2.049 -0.4284  0.8698  0.5804
  440SOL  HW1   1319   2.896   0.683   2.070  0.9366  0.9622  1.8801
  440SOL  HW2   1320   3.013   0.706   1.951  1.3161  0.4141 -0.4627
  441SOL  OW    1321   3.088   1.027   1.636  0.2819  0.3338  0.5423
  441SOL  HW1   1322   3.002   0.971   1.629 -0.8378 -0.7256 -2.6955
  441SOL  HW2   1323   3.073   1.125   1.659 -1.4473 -0.9642 -0.0659
  442SOL  OW    1324   2.154   1.141   1.196  0.3315 -0.4308 -0.0391
  442SOL  HW1   1325   2.113   1.095   1.278  0.3001  0.4097  1.1586
  442SOL  HW2   1326   2.243   1.100   1.171  0.6274  2.9567  1.8650
  443SOL  OW    1327   2.445   1.727   0.061 -0.1676 -0.2971  0.4890
  443SOL  HW1   1328   2.402   1.802   0.116  0.7322 -0.2436 -0.0339
  443SOL  HW2   1329   2.394   1.640   0.080  2.6257  3.4058 -1.2722
  444SOL  OW    1330   2.131   1.604   2.424  0.1268 -0.1579  0.0824
  444SOL  HW1   1331   2.117   1.611   2.326  0.5110 -0.3479  1.7852
  444SOL  HW2   1332   2.226   1.648   2.443  1.3701  0.8551 -1.1682
  445SOL  OW    1333   0.730   1.720   0.951  0.3723 -0.7775  0.1095
  445SOL  HW1   1334   0.757   1.694   0.854  0.1178  1.6262 -2.0107
  445SOL  HW2   1335   0.627   1.732   0.961 -1.9610 -0.5036  0.8694
  446SOL  OW    1336   0.891   0.675   2.034 -0.4080 -0.2110 -0.2994
  446SOL  HW1   1337   0.844   0.765   2.027 -1.4197 -1.0549  1.4429
  446SOL  HW2   1338   0.931   0.675   2.126 -2.5888 -0.2361 -2.7430
  447SOL  OW    1339   2.938   0.024   0.789 -0.0795 -0.1831  0.6805
  447SOL  HW1   1340   2.957   0.066   0.697 -1.1663 -0.7491 -2.0614
  447SOL  HW2   1341   2.948   0.095   0.862 -1.0749 -1.6426  0.1425
  448SOL  OW    1342   1.837   0.719   1.623  0.5660 -0.1233 -0.3070
  448SOL  HW1   1343   1.882   0.760   1.539 -0.1456  0.8388  0.3655
  448SOL  HW2   1344   1.776   0.639   1.597  1.1182 -0.0811  1.1978
  449SOL  OW    1345   0.292   1.681   2.002  0.0019  0.3836 -0.7269
  449SOL  HW1   1346   0.260   1.594   2.051 -0.5352  1.0403  0.5042
  449SOL  HW2   1347   0.387   1.681   1.961 -0.0661  0.0776 -0.5873
  450SOL  OW    1348   1.055   2.031   1.891 -0.3171 -0.0191  0.2287
  450SOL  HW1   1349   1.073   1.973   1.972 -0.0049  1.4530 -1.2950
  450SOL  HW2   1350   1.011   2.112   1.920  3.1381 -2.7192 -4.3976
  451SOL  OW    1351   0.215   2.503   0.523 -0.3651 -0.2564 -0.7206
  451SOL  HW1   1352   0.290   2.539   0.589  0.4277  2.5477 -1.0429
  451SOL  HW2   1353   0.188   2.583   0.470  0.9766 -0.2003  2.1472
  452SOL  OW    1354   0.271   2.955   1.365  0.0244 -0.4489 -0.2579
  452SOL  HW1   1355   0.332   3.002   1.297 -0.1385  2.2665 -2.2689
  452SOL  HW2   1356   0.244   3.022   1.437 -1.5305 -3.3418  0.8223
  453SOL  OW    1357   0.038   2.973   0.928  0.2889 -0.6738  0.5860
  453SOL  HW1   1358   3.061   3.007   0.861 -0.5020  1.5134  1.6789
  453SOL  HW2   1359   0.051   3.046   1.001  2.3393  2.6014  1.1761
  454SOL  OW    1360   0.440   0.339   0.925 -0.3720  0.1719 -0.1920
  454SOL  HW1   1361   0.490   0.386   1.005  0.1721  0.0437 -1.7198
  454SOL  HW2   1362   0.339   0.336   0.931 -0.8759  0.1558  0.4323
  455SOL  OW    1363   1.834   2.431   0.381  0.0036 -0.1331  0.1356
  455SOL  HW1   1364   1.740   2.431   0.415  2.8249 -0.0674 -0.8343
  455SOL  HW2   1365   1.891   2.363   0.418 -2.1044  4.4528  0.1304
  456SOL  OW    1366   1.968   2.802   0.281  0.4425  0.0289  0.1263
  456SOL  HW1   1367   1.954   2.716   0.227 -1.9033 -0.2718 -0.8146
  456SOL  HW2   1368   2.058   2.844   0.262 -0.7321 -1.4046 -0.0260
  457SOL  OW    1369   2.698   2.570   0.925  0.5286 -0.0717  0.4252
  457SOL  HW1   1370   2.602   2.605   0.912  0.7205 -0.5334  0.4173
  457SOL  HW2   1371   2.695   2.473   0.943 -0.3997  1.7033  0.6124
  458SOL  OW    1372   2.845   0.920   1.655 -0.1967  0.5542 -0.5039
  458SOL  HW1   1373   2.885   0.839   1.708  1.3133 -2.2927  0.0407
  458SOL  HW2   1374   2.782   0.972   1.708  0.2284 -0.0081 -0.4441
  459SOL  OW    1375   0.323   1.204   2.062  0.3284 -0.5126 -0.1100
  459SOL  HW1   1376   0.317   1.169   1.971  0.8420  0.0077  3.2118
  459SOL  HW2   1377   0.420   1.213   2.090  2.1215  0.4630  0.8197
  460SOL  OW    1378   2.991   0.928   2.584 -0.1716 -0.2507 -0.7903
  460SOL  HW1   1379   2.925   0.851   2.574  2.1668 -2.7145 -1.5659
  460SOL  HW2   1380   3.065   0.911   2.653  1.8728  1.0470 -0.2525
  461SOL  OW    1381   0.523   2.057   3.067 -0.1713  0.2770  0.7616
  461SOL  HW1   1382   0.449   1.985   3.080  1.1062 -2.4397 -0.4965
  461SOL  HW2   1383   0.488   2.151   3.087  0.3034 -1.3275 -2.1319
  462SOL  OW    1384   1.628   2.716   0.544  0.0684  0.4271 -0.2818
  462SOL  HW1   1385   1.715   2.757   0.507  2.0543  0.2048  1.7005
  462SOL  HW2   1386   1.595   2.771   0.624 -0.4171 -1.0868 -1.0962
  463SOL  OW    1387   0.663   0.055   0.517 -0.1530 -0.7599  0.0440
  463SOL  HW1   1388   0.732   0.009   0.579  4.3349 -0.2647  0.3452
  463SOL  HW2   1389   0.677   0.020   0.422 -1.1663 -0.9510  1.1608
  464SOL  OW    1390   2.333   2.666   0.150 -0.3589  0.0749 -0.1580
  464SOL  HW1   1391   2.276   2.730   0.208 -1.4595  4.4381 -1.2555
  464SOL  HW2   1392   2.425   2.649   0.190 -1.3650  2.4246  2.6857
  465SOL  OW    1393   2.178   3.052   1.680 -0.3638 -0.3182 -0.1359
  465SOL  HW1   1394   2.148   0.025   1.618  0.5850 -0.6531  1.4252
  465SOL  HW2   1395   2.248   2.987   1.645  1.6034  2.5723 -1.2592
  466SOL  OW    1396   2.647   2.395   0.136 -0.3670  0.0818 -0.0249
  466SOL  HW1   1397   2.739   2.383   0.186  2.7001 -0.8064  1.0473
  466SOL  HW2   1398   2.595   2.471   0.179 -0.4208  1.6937  0.2553
  467SOL  OW    1399   2.848   2.969   2.928  0.2126 -0.4668  0.1638
  467SOL  HW1   1400   2.802   2.943   2.843  0.1204  0.5004  0.4138
  467SOL  HW2   1401   2.896   3.063   2.921  0.5306  1.4352  1.5791
  468SOL  OW    1402   2.769   1.878   0.364  0.2720 -0.3019  0.1650
  468SOL  HW1   1403   2.728   1.813   0.294 -1.2641  2.2478 -0.5364
  468SOL  HW2   1404   2.720   1.967   0.357 -2.4821  0.2998 -0.5820
  469SOL  OW    1405   0.181   0.670   0.946 -0.0500 -0.4435 -0.4861
  469SOL  HW1   1406   0.238   0.594   0.991 -0.4863 -4.8059 -0.3748
  469SOL  HW2   1407   0.245   0.741   0.902  0.0243 -1.5257  0.1330
  470SOL  OW    1408   1.203   0.058   0.762 -0.0704  0.4813 -0.3308
  470SOL  HW1   1409   1.148   0.121   0.706 -0.9783  1.1202  0.6346
  470SOL  HW2   1410   1.152   3.095   0.830 -0.4005 -1.7262  0.9605
  471SOL  OW    1411   1.216   0.776   0.660  0.1237 -0.0413 -0.1507
  471SOL  HW1   1412   1.286   0.706   0.673 -2.0535 -0.1356  0.5151
  471SOL  HW2   1413   1.170   0.795   0.746 -0.2533 -1.6412 -0.3237
  472SOL  OW    1414   1.515   1.685   1.552 -0.4870  0.7335 -0.4805
  472SOL  HW1   1415   1.555   1.688   1.648  2.9153 -2.9683 -1.4699
  472SOL  HW2   1416   1.504   1.776   1.512 -3.7205  2.2992 -0.7137
  473SOL  OW    1417   0.650   1.501   2.622 -0.8399 -0.0375  0.3494
  473SOL  HW1   1418   0.715   1.430   2.660  2.1920 -2.8307  0.8689
  473SOL  HW2   1419   0.579   1.539   2.684  3.7220 -0.4477 -1.2783
  474SOL  OW    1420   3.034   3.078   1.390  0.3888 -0.1961 -0.1506
  474SOL  HW1   1421   2.947   3.034   1.421  0.4456 -0.6687  1.7326
  474SOL  HW2   1422   3.080   0.026   1.470  0.1649  0.1436 -0.7011
  475SOL  OW    1423   1.885   1.217   1.537  0.1238  0.0879 -0.6874
  475SOL  HW1   1424   1.801   1.230   1.481 -0.2073 -1.5842  1.4267
  475SOL  HW2   1425   1.937   1.308   1.547  1.9384  3.8270 -2.3835
  476SOL  OW    1426   1.421   0.201   2.019 -0.0753 -0.2116  0.6021
  476SOL  HW1   1427   1.509   0.164   1.982  2.9028  0.5397 -0.3280
  476SOL  HW2   1428   1.396   0.165   2.111  0.1306  0.3658  0.3153
  477SOL  OW    1429   1.785   0.030   2.183  0.1138 -0.0143 -0.1161
  477SOL  HW1   1430   1.705   3.076   2.218  1.2512  0.7305 -0.9555
  477SOL  HW2   1431   1.768   0.063   2.087  0.7820  0.7291 -0.7300
  478SOL  OW    1432   1.731   0.036   1.428  0.2930 -0.3246  0.6882
  478SOL  HW1   1433   1.781   3.053   1.471  1.2140  1.2182  1.8305
  478SOL  HW2   1434   1.702   0.025   1.330 -0.2088 -0.9787  0.0574
  479SOL  OW    1435   1.778   1.873   1.676 -0.6168 -0.3060  0.3538
  479SOL  HW1   1436   1.875   1.862   1.707 -0.2530  0.3749 -0.5514
  479SOL  HW2   1437   1.719   1.802   1.717  0.6287  4.6868 -0.7639
  480SOL  OW    1438   2.832   0.556   2.782 -0.2050  0.0061 -0.3370
  480SOL  HW1   1439   2.765   0.501   2.840 -0.7707 -0.0861  0.1797
  480SOL  HW2   1440   2.903   0.603   2.835  2.0014  1.2459 -1.5582
  481SOL  OW    1441   1.969   0.554   1.393 -0.4154  0.0317 -0.3386
  481SOL  HW1   1442   1.950   0.646   1.354  0.2780 -0.6668  0.6212
  481SOL  HW2   1443   1.884   0.508   1.432 -4.2837 -2.3154  3.3339
  482SOL  OW    1444   2.362   1.932   1.335  0.1607  0.5604 -0.3974
  482SOL  HW1   1445   2.401   1.864   1.402 -1.7547  0.1910 -1.3652
  482SOL  HW2   1446   2.259   1.919   1.321 -0.4399  0.1759 -1.1001
  483SOL  OW    1447   0.991   1.843   0.365  0.0393  0.0138 -0.0569
  483SOL  HW1   1448   1.085   1.813   0.398 -2.5958  0.4130 -1.9444
  483SOL  HW2   1449   0.950   1.772   0.300 -0.9339 -1.1636  0.0229
  484SOL  OW    1450   1.910   2.715   2.337  0.2541 -0.1590 -0.1628
  484SOL  HW1   1451   1.933   2.787   2.409  0.3266 -0.1051  0.7537
  484SOL  HW2   1452   1.818   2.743   2.292 -1.0765  0.1777  2.2543
  485SOL  OW    1453   1.824   0.373   0.008 -0.0506  0.3855 -0.0582
  485SOL  HW1   1454   1.805   0.415   0.098  0.0383  3.1330 -2.1147
  485SOL  HW2   1455   1.748   0.398   3.045  1.9606  0.3490 -1.4131
  486SOL  OW    1456   2.416   2.769   2.218  0.1774 -0.2136  0.1183
  486SOL  HW1   1457   2.481   2.845   2.227 -0.8086 -0.4569 -1.3950
  486SOL  HW2   1458   2.358   2.788   2.134 -0.0621  1.3134  1.0105
  487SOL  OW    1459   1.834   0.189   0.785  0.1512  0.4810 -0.2954
  487SOL  HW1   1460   1.884   0.172   0.700 -2.7508 -3.7066 -0.2511
  487SOL  HW2   1461   1.888   0.203   0.868  2.1728  1.1265 -1.1779
  488SOL  OW    1462   0.958   1.367   3.058 -0.8571  0.3360  0.3498
  488SOL  HW1   1463   0.912   1.387   0.049  1.8805 -0.6719 -1.1388
  488SOL  HW2   1464   1.008   1.276   3.065  1.1644 -3.3338  1.2538
  489SOL  OW    1465   2.167   2.198   0.773  0.6022 -0.0764 -0.1582
  489SOL  HW1   1466   2.136   2.103   0.773  2.1331  0.3354 -3.1465
  489SOL  HW2   1467   2.085   2.263   0.788 -1.8885  0.1597 -2.7088
  490SOL  OW    1468   0.195   0.631   2.848 -0.0556  0.0355  0.1010
  490SOL  HW1   1469   0.241   0.711   2.889  1.3473 -0.5015  1.0491
  490SOL  HW2   1470   0.207   0.620   2.747 -0.5403 -2.6380 -1.1118
  491SOL  OW    1471   1.747   2.930   0.361 -0.6389 -0.4046 -0.1485
  491SOL  HW1   1472   1.831   2.893   0.323 -1.7977  1.2267 -2.6828
  491SOL  HW2   1473   1.664   2.905   0.308 -0.8352 -2.8876 -0.9405
  492SOL  OW    1474   1.430   1.944   0.967  0.4445 -0.7755 -0.5402
  492SOL  HW1   1475   1.431   2.016   0.899 -0.8813  2.1635  0.6598
  492SOL  HW2   1476   1.408   1.983   1.060  0.1468  0.4292  0.4993
  493SOL  OW    1477   2.952   2.264   0.819  0.2140  0.2519  0.1445
  493SOL  HW1   1478   3.015   2.325   0.767 -0.8867 -1.7283  2.4460
  493SOL  HW2   1479   2.891   2.211   0.758  0.4842  0.3366  1.3339
  494SOL  OW    1480   0.392   2.442   2.527 -0.0483  0.0219 -0.2166
  494SOL  HW1   1481   0.493   2.435   2.512 -0.5943 -2.8021 -0.8064
  494SOL  HW2   1482   0.348   2.365   2.474 -1.1065 -1.8456 -2.0115
  495SOL  OW    1483   2.153   0.360   0.434  0.7178 -0.1505 -0.4079
  495SOL  HW1   1484   2.245   0.389   0.466  2.0114 -2.8408  0.1519
  495SOL  HW2   1485   2.116   0.286   0.494  0.6428  2.9222  0.7535
  496SOL  OW    1486   2.865   0.027   2.028  0.0996  0.2652 -0.1058
  496SOL  HW1   1487   2.925   3.048   2.068 -0.7363  0.8746 -1.3328
  496SOL  HW2   1488   2.779   3.082   1.988 -0.9834 -1.5857  1.1045
  497SOL  OW    1489   1.197   2.310   1.498 -0.5862  0.1165  0.4032
  497SOL  HW1   1490   1.286   2.361   1.495  5.7220 -0.2602  0.7385
  497SOL  HW2   1491   1.188   2.250   1.577 -1.1954 -0.5397 -1.6529
  498SOL  OW    1492   0.552   2.793   0.650 -0.3514  0.2348 -0.2611
  498SOL  HW1   1493   0.536   2.827   0.554  1.0822  1.1348 -1.4491
  498SOL  HW2   1494   0.646   2.747   0.657 -2.4474 -0.8133  0.6648
  499SOL  OW    1495   2.528   0.809   0.710 -0.3011 -0.2899 -0.3073
  499SOL  HW1   1496   2.561   0.859   0.794  1.7127 -0.4502  4.6942
  499SOL  HW2   1497   2.493   0.873   0.637  0.4979  0.1346 -0.1265
  500SOL  OW    1498   1.136   0.917   2.717 -0.1628 -0.2689  0.2319
  500SOL  HW1   1499   1.047   0.918   2.765  3.3596 -0.1963 -2.6330
  500SOL  HW2   1500   1.186   1.003   2.714  0.3585  0.6074  0.3229
  501SOL  OW    1501   0.589   0.423   1.134 -0.3628 -0.1335  0.0736
  501SOL  HW1   1502   0.566   0.464   1.227  0.1953 -1.3614 -1.4742
  501SOL  HW2   1503   0.684   0.445   1.097  1.8256 -0.7270 -2.4349
  502SOL  OW    1504   0.551   2.305   2.864 -0.0974  0.0498 -0.1677
  502SOL  HW1   1505   0.596   2.248   2.795 -0.1365 -0.2571  0.5640
  502SOL  HW2   1506   0.462   2.329   2.827  1.0242 -0.9191 -1.6637
  503SOL  OW    1507   0.265   2.607   2.930 -0.1093 -0.0434  0.3375
  503SOL  HW1   1508   0.208   2.686   2.897  1.3634 -1.3849  2.4824
  503SOL  HW2   1509   0.277   2.535   2.862 -0.0333  3.0026  0.4072
  504SOL  OW    1510   1.433   2.454   1.530  0.7371 -0.0753  0.0109
  504SOL  HW1   1511   1.400   2.550   1.549  0.1114  1.3207  0.9465
  504SOL  HW2   1512   1.529   2.455   1.495 -1.2839  1.6507  1.2829
  505SOL  OW    1513   1.265   2.636   2.493 -0.2681 -0.4693  0.3373
  505SOL  HW1   1514   1.226   2.550   2.532  0.7527 -0.9430 -0.5686
  505SOL  HW2   1515   1.185   2.698   2.470  0.9617 -0.6506 -1.0502
  506SOL  OW    1516   1.243   2.361   2.838 -0.5111 -0.1655  0.2305
  506SOL  HW1   1517   1.317   2.375   2.770 -2.0343 -0.3373  1.6727
  506SOL  HW2   1518   1.241   2.265   2.870 -0.4911  0.8640  0.9677
  507SOL  OW    1519   1.176   0.586   0.413  0.4192  0.3295  0.0627
  507SOL  HW1   1520   1.180   0.522   0.499 -2.0541 -0.0556  3.3977
  507SOL  HW2   1521   1.264   0.583   0.361  2.6402 -0.2341 -2.3112
  508SOL  OW    1522   2.272   0.544   1.716  0.5293 -0.0656  0.1208
  508SOL  HW1   1523   2.286   0.465   1.779  2.6207 -0.0793  0.4016
  508SOL  HW2   1524   2.363   0.581   1.692  0.0501  1.4398  1.0624
  509SOL  OW    1525   1.061   0.145   2.203 -0.6720 -0.0799 -0.0618
  509SOL  HW1   1526   1.117   0.100   2.129 -1.0173 -0.5519  0.2030
  509SOL  HW2   1527   0.962   0.146   2.173 -0.8471  2.2318 -0.2527
  510SOL  OW    1528   1.266   0.403   1.467  0.2160  0.0022 -0.1380
  510SOL  HW1   1529   1.224   0.475   1.407 -0.4776 -0.3918  2.2148
  510SOL  HW2   1530   1.293   0.431   1.560 -2.3443 -0.6183  2.0567
  511SOL  OW    1531   0.642   1.202   0.302  0.1379  0.4141 -0.3906
  511SOL  HW1   1532   0.573   1.182   0.229 -0.4174  0.3268 -0.5286
  511SOL  HW2   1533   0.592   1.227   0.385 -0.6383 -0.0352  0.0796
  512SOL  OW    1534   0.975   1.534   2.648  0.3510 -0.3745 -0.3003
  512SOL  HW1   1535   0.934   1.596   2.584  0.3396 -1.9141 -0.0353
  512SOL  HW2   1536   1.072   1.558   2.662 -2.0034 -0.3234 -2.4302
  513SOL  OW    1537   1.160   2.345   0.830 -0.3669  0.3385 -0.3188
  513SOL  HW1   1538   1.257   2.369   0.812 -1.4031  0.8268 -0.1175
  513SOL  HW2   1539   1.103   2.420   0.867  0.8043 -3.5038 -0.0322
  514SOL  OW    1540   1.252   2.546   1.162  0.4455  0.0940 -0.1059
  514SOL  HW1   1541   1.182   2.534   1.088 -3.6080 -2.2744 -2.4163
  514SOL  HW2   1542   1.219   2.593   1.250 -1.7576  2.6711  1.7041
  515SOL  OW    1543   2.702   0.723   0.094 -0.5705  0.6602 -0.6666
  515SOL  HW1   1544   2.693   0.771   0.189  0.9823  2.1144  2.7410
  515SOL  HW2   1545   2.748   0.633   0.097 -1.1202  1.6926 -1.0616
  516SOL  OW    1546   2.220   2.833   2.009  0.6271  0.0378  0.5780
  516SOL  HW1   1547   2.175   2.751   2.044 -1.0858  2.3790  1.8451
  516SOL  HW2   1548   2.192   2.916   2.060  0.9144  0.4538 -1.6134
  517SOL  OW    1549   1.162   0.153   1.388  0.1529 -0.1297  0.2756
  517SOL  HW1   1550   1.227   0.077   1.377 -2.5011  2.4998  0.7070
  517SOL  HW2   1551   1.208   0.236   1.415 -1.0123 -2.2464 -1.1536
  518SOL  OW    1552   1.159   0.443   0.935 -0.3305  0.1323 -0.3898
  518SOL  HW1   1553   1.106   0.426   0.849 -0.4251 -0.2433  1.1212
  518SOL  HW2   1554   1.260   0.460   0.923  3.3002 -1.4806 -0.1029
  519SOL  OW    1555   2.472   0.239   0.171  0.2010 -0.0472 -0.5613
  519SOL  HW1   1556   2.472   0.335   0.144  0.3250 -2.9339  0.8311
  519SOL  HW2   1557   2.475   0.230   0.275 -0.8693 -1.8845  2.1455
  520SOL  OW    1558   1.652   2.373   1.938  0.6125  0.2863  0.1075
  520SOL  HW1   1559   1.706   2.453   1.962 -0.4902 -1.9475 -0.3211
  520SOL  HW2   1560   1.568   2.370   1.994 -0.7031 -0.8712 -2.6585
  521SOL  OW    1561   0.509   0.907   0.326  0.4193 -0.3091  0.0188
  521SOL  HW1   1562   0.533   0.979   0.254  2.3069 -1.8488 -1.8816
  521SOL  HW2   1563   0.590   0.879   0.374 -0.3062  1.3403  0.6363
  522SOL  OW    1564   1.310   2.890   1.920  0.1155 -0.3408 -0.6520
  522SOL  HW1   1565   1.386   2.919   1.861  0.7766 -0.7426  1.8118
  522SOL  HW2   1566   1.326   2.797   1.963 -0.6850 -0.9087  0.2517
  523SOL  OW    1567   0.125   2.476   2.302  0.4512  0.3204  0.3141
  523SOL  HW1   1568   0.173   2.551   2.254 -0.1234  0.2205  0.2460
  523SOL  HW2   1569   0.067   2.514   2.374  2.0141 -0.0332 -2.2223
  524SOL  OW    1570   2.846   0.568   0.379  0.5536  0.1862 -0.1142
  524SOL  HW1   1571   2.758   0.580   0.426 -1.6998 -0.4664 -2.4421
  524SOL  HW2   1572   2.834   0.508   0.301 -0.1824 -1.0474  1.3548
  525SOL  OW    1573   1.434   0.551   0.325 -0.4520  0.1540 -0.1306
  525SOL  HW1   1574   1.484   0.625   0.276 -2.1311  0.8009  1.2925
  525SOL  HW2   1575   1.422   0.471   0.269 -1.3100  1.0803  0.6648
  526SOL  OW    1576   1.424   0.099   0.956 -0.1047 -0.3796  0.0769
  526SOL  HW1   1577   1.510   0.147   0.917  1.9571  0.4538 -1.0619
  526SOL  HW2   1578   1.351   0.094   0.879  0.6137  3.7669 -2.4698
  527SOL  OW    1579   0.003   0.116   1.889 -0.1364  0.0163  0.1422
  527SOL  HW1   1580   3.079   0.217   1.888 -1.9255 -1.3170  0.9992
  527SOL  HW2   1581   3.015   0.065   1.895 -0.0907 -2.4379  1.1684
  528SOL  OW    1582   0.659   1.497   2.107  0.3008  0.3948  0.1912
  528SOL  HW1   1583   0.649   1.525   2.207  1.8531  2.7875  3.0128
  528SOL  HW2   1584   0.610   1.406   2.103 -0.0775 -1.1824  2.2542
  529SOL  OW    1585   0.151   0.594   0.229  0.6059 -0.6720  0.0506
  529SOL  HW1   1586   0.243   0.618   0.267 -1.6857 -1.1468 -0.0738
  529SOL  HW2   1587   0.084   0.651   0.274  2.2570  1.3813 -2.5440
  530SOL  OW    1588   0.819   0.708   1.100 -0.6609  0.1134 -0.2346
  530SOL  HW1   1589   0.873   0.628   1.116 -3.8187  0.1644  0.0985
  530SOL  HW2   1590   0.803   0.719   0.997  0.7283  2.1917 -3.2327
  531SOL  OW    1591   1.243   1.582   2.731 -0.4746 -0.0927 -0.5089
  531SOL  HW1   1592   1.294   1.497   2.706 -0.0082 -1.5266  1.1203
  531SOL  HW2   1593   1.203   1.566   2.823  1.1847 -1.7059  2.8595
  532SOL  OW    1594   2.569   1.122   3.050  0.3630  0.0530 -0.7151
  532SOL  HW1   1595   2.483   1.064   3.058 -1.0162 -0.3402 -0.0197
  532SOL  HW2   1596   2.558   1.218   3.085  0.2818  0.6108 -0.4631
  533SOL  OW    1597   2.645   2.406   2.135  0.1099  0.1826  0.0216
  533SOL  HW1   1598   2.725   2.471   2.133  0.6764  2.1932 -1.6461
  533SOL  HW2   1599   2.581   2.447   2.200  0.2192 -1.7561  2.9163
  534SOL  OW    1600   0.644   0.512   2.752 -0.2704 -0.2448  0.0653
  534SOL  HW1   1601   0.722   0.467   2.706 -1.9950  0.8740  0.3757
  534SOL  HW2   1602   0.589   0.567   2.686  0.1471  0.6865  1.6274
  535SOL  OW    1603   0.134   2.855   0.128 -0.2148  0.3534  0.2393
  535SOL  HW1   1604   0.062   2.853   0.050 -0.2989  0.4131 -3.0369
  535SOL  HW2   1605   0.128   2.935   0.186  1.3074 -0.9745 -0.7078
  536SOL  OW    1606   1.414   1.380   2.654 -0.0538  0.5052 -0.7223
  536SOL  HW1   1607   1.458   1.285   2.672  2.3652 -0.8232 -0.5677
  536SOL  HW2   1608   1.395   1.396   2.554 -0.7093  1.1957  1.0950
  537SOL  OW    1609   0.431   1.279   0.512 -0.2462 -0.0402 -0.0452
  537SOL  HW1   1610   0.485   1.252   0.593  0.8510 -3.7338  1.4424
  537SOL  HW2   1611   0.367   1.200   0.497 -0.0757 -2.3877  0.4615
  538SOL  OW    1612   0.220   2.106   0.135 -0.1896 -0.1515  0.2277
  538SOL  HW1   1613   0.213   2.195   0.086  1.6640 -1.6410  1.3693
  538SOL  HW2   1614   0.209   2.130   0.232 -2.4931  0.0712  0.3273
  539SOL  OW    1615   1.902   1.807   2.983  0.3687  0.1412  0.3049
  539SOL  HW1   1616   1.911   1.854   2.890  0.8784  0.5337  0.4144
  539SOL  HW2   1617   1.812   1.766   3.002  0.9373 -0.8043  0.5157
  540SOL  OW    1618   0.731   2.375   0.417 -0.1020  0.7674 -0.1512
  540SOL  HW1   1619   0.790   2.327   0.348  0.2225  0.3553  1.8624
  540SOL  HW2   1620   0.632   2.370   0.385 -0.1073 -0.6305 -1.4851
  541SOL  OW    1621   1.165   0.431   0.012  0.2892 -0.1521  0.0036
  541SOL  HW1   1622   1.122   0.523   0.007 -0.3770 -1.3953  1.4421
  541SOL  HW2   1623   1.200   0.406   3.014  0.5389 -0.2068  0.3301
  542SOL  OW    1624   0.259   0.477   2.327 -0.5035  0.5858  0.1979
  542SOL  HW1   1625   0.267   0.530   2.416 -1.2010  1.6186 -0.6049
  542SOL  HW2   1626   0.174   0.501   2.283  3.3038  1.4635  1.1469
  543SOL  OW    1627   3.074   2.126   1.791 -0.0773  0.5162  0.1211
  543SOL  HW1   1628   0.054   2.189   1.816 -1.8810 -1.3201  0.9903
  543SOL  HW2   1629   3.033   2.078   1.873 -0.3638  0.4096 -0.9479
  544SOL  OW    1630   2.386   2.414   1.751 -0.0690 -0.2451 -0.4277
  544SOL  HW1   1631   2.476   2.438   1.801  0.5388  2.6373 -0.4634
  544SOL  HW2   1632   2.380   2.452   1.656  0.6608 -0.7146 -1.1681
  545SOL  OW    1633   0.724   0.853   2.541 -0.2901 -0.4978  0.0380
  545SOL  HW1   1634   0.678   0.923   2.479  1.1444  1.7119 -2.5494
  545SOL  HW2   1635   0.672   0.837   2.625  0.6492  1.9557  0.8020
  546SOL  OW    1636   2.371   1.280   2.441  0.0141 -0.3916 -0.4685
  546SOL  HW1   1637   2.456   1.335   2.465  0.4901 -0.4542 -1.1914
  546SOL  HW2   1638   2.383   1.182   2.465 -0.5324  0.5737 -1.7666
  547SOL  OW    1639   0.283   2.306   1.057  0.8960  0.3814  0.0297
  547SOL  HW1   1640   0.370   2.271   1.016 -0.8114 -0.8709  3.9802
  547SOL  HW2   1641   0.305   2.334   1.153 -1.7157  3.4939 -3.1014
  548SOL  OW    1642   1.245   1.856   2.715 -0.5012 -0.3783  0.4753
  548SOL  HW1   1643   1.251   1.752   2.720  1.3220  0.9225  0.7300
  548SOL  HW2   1644   1.168   1.889   2.655 -0.6826  2.1875 -0.4691
  549SOL  OW    1645   0.074   3.064   0.271  0.7563  0.8477 -0.1829
  549SOL  HW1   1646   0.080   3.066   0.372 -1.0741  2.4600  0.5723
  549SOL  HW2   1647   0.059   0.065   0.235 -0.7657  1.1358 -0.9887
  550SOL  OW    1648   1.441   2.046   1.716 -0.4102 -0.8082  0.0640
  550SOL  HW1   1649   1.474   2.140   1.717 -0.1614  0.3653 -2.5929
  550SOL  HW2   1650   1.439   1.999   1.811  1.4419 -1.2090  0.1661
  551SOL  OW    1651   1.421   0.195   2.558 -0.4706 -0.1467 -0.5505
  551SOL  HW1   1652   1.444   0.140   2.641 -0.0746  0.1344 -0.6599
  551SOL  HW2   1653   1.410   0.293   2.589  1.9415  1.1960  1.2651
  552SOL  OW    1654   1.371   1.678   2.304  0.1772 -0.3468 -0.2450
  552SOL  HW1   1655   1.467   1.688   2.274 -0.5102 -0.5360 -0.3258
  552SOL  HW2   1656   1.342   1.762   2.353  2.9128 -0.9213 -0.1535
  553SOL  OW    1657   2.352   1.960   2.383  0.6246 -0.0986  0.2827
  553SOL  HW1   1658   2.273   1.977   2.314 -2.0832  1.8388 -1.3332
  553SOL  HW2   1659   2.424   2.032   2.371  0.9910  2.9817  2.9086
  554SOL  OW    1660   1.291   1.661   1.876 -0.2529 -0.3007 -0.0792
  554SOL  HW1   1661   1.368   1.591   1.897  2.0882 -2.8142 -0.4415
  554SOL  HW2   1662   1.265   1.660   1.776 -1.0130  0.5507 -4.2950
  555SOL  OW    1663   2.865   2.579   2.118 -0.2700  0.0371  0.2879
  555SOL  HW1   1664   2.888   2.644   2.192  0.5058 -1.4259 -1.0082
  555SOL  HW2   1665   2.926   2.499   2.127 -1.8571  2.9733  0.7346
  556SOL  OW    1666   0.740   0.973   1.056  0.0324  0.6270 -0.0866
  556SOL  HW1   1667   0.811   1.047   1.075  1.7127  3.8707  1.9750
  556SOL  HW2   1668   0.777   0.881   1.083 -1.2487 -1.3860  1.1541
  557SOL  OW    1669   1.212   2.763   0.800 -0.2220 -0.1774  0.3080
  557SOL  HW1   1670   1.245   2.851   0.844  2.6703  1.2583 -0.1548
  557SOL  HW2   1671   1.139   2.777   0.723  1.0960  1.2484 -2.7912
  558SOL  OW    1672   0.172   1.116   2.259  0.0019 -0.2469 -0.3210
  558SOL  HW1   1673   0.099   1.063   2.226  2.3667  0.7450 -1.2150
  558SOL  HW2   1674   0.237   1.138   2.185  0.8083 -1.1390  1.6731
  559SOL  OW    1675   1.398   1.715   0.255  0.0865  0.4938 -0.0130
  559SOL  HW1   1676   1.383   1.781   0.181 -2.9340 -0.3612 -2.6385
  559SOL  HW2   1677   1.475   1.747   0.315 -1.9616  0.1110  1.6193
  560SOL  OW    1678   1.383   1.141   0.702  0.1119  0.0557 -0.2367
  560SOL  HW1   1679   1.475   1.115   0.721 -4.6351  2.1412 -1.0989
  560SOL  HW2   1680   1.349   1.081   0.627  1.8018  1.3710  2.5953
  561SOL  OW    1681   1.284   2.463   0.471  0.1322 -0.0820  0.0631
  561SOL  HW1   1682   1.252   2.369   0.503  0.6569 -0.9735 -0.9876
  561SOL  HW2   1683   1.222   2.513   0.412  2.7685  0.2430 -1.4829
  562SOL  OW    1684   0.968   0.596   1.653  0.0530 -0.1500  0.6352
  562SOL  HW1   1685   0.969   0.698   1.669 -0.7833  2.9561  0.1989
  562SOL  HW2   1686   1.062   0.555   1.665  2.8053  1.6602 -0.7494
  563SOL  OW    1687   1.506   1.395   0.330  0.6395  0.3842  0.0808
  563SOL  HW1   1688   1.533   1.299   0.342 -3.1108 -0.2172  3.1205
  563SOL  HW2   1689   1.459   1.416   0.415 -0.2261 -1.5880  0.0855
  564SOL  OW    1690   3.088   1.313   1.689  0.0291 -0.1162  0.0688
  564SOL  HW1   1691   0.064   1.382   1.666 -2.9665 -0.9236  1.7248
  564SOL  HW2   1692   3.016   1.309   1.620  2.9813  5.3747  1.4970
  565SOL  OW    1693   1.480   1.605   0.747 -0.2488 -0.2644 -0.0412
  565SOL  HW1   1694   1.425   1.689   0.737 -0.7394  0.4344 -2.3476
  565SOL  HW2   1695   1.571   1.620   0.792 -0.6548 -1.1406 -1.3142
  566SOL  OW    1696   2.223   2.587   0.545 -0.2641  0.1922 -0.3439
  566SOL  HW1   1697   2.235   2.502   0.486  1.6316 -0.5234 -1.5058
  566SOL  HW2   1698   2.127   2.615   0.550  3.0743 -2.9127 -1.4562
  567SOL  OW    1699   1.256   0.806   1.093  0.7944 -0.2061 -0.1502
  567SOL  HW1   1700   1.192   0.786   1.014  0.8150 -0.9893 -0.6864
  567SOL  HW2   1701   1.254   0.906   1.114  0.4866  2.2546 -2.2127
  568SOL  OW    1702   0.491   1.129   2.743  0.5178 -0.5617 -0.1798
  568SOL  HW1   1703   0.553   1.171   2.811 -1.9765 -2.3262  0.0144
  568SOL  HW2   1704   0.501   1.030   2.730  1.7345  1.5735  1.9231
  569SOL  OW    1705   2.549   1.542   1.996  0.0032  0.2640 -0.0423
  569SOL  HW1   1706   2.642   1.544   1.952  3.2109  0.8483  0.8460
  569SOL  HW2   1707   2.496   1.466   1.958  1.5136 -1.5777 -0.1314
  570SOL  OW    1708   2.613   3.020   2.174 -0.0668 -0.2676  0.5161
  570SOL  HW1   1709   2.569   0.012   2.187  0.5491  0.1840 -2.4848
  570SOL  HW2   1710   2.622   2.997   2.074 -0.4579 -0.9367  0.8224
  571SOL  OW    1711   0.369   2.084   1.754  0.2897  0.1068  0.5537
  571SOL  HW1   1712   0.459   2.066   1.795 -0.3040  0.5633  0.3273
  571SOL  HW2   1713   0.351   2.019   1.679  0.4205 -0.1906 -0.6797
  572SOL  OW    1714   0.483   1.699   2.814 -0.3600 -0.5836  0.0672
  572SOL  HW1   1715   0.389   1.655   2.821 -1.3284 -1.0802  0.8591
  572SOL  HW2   1716   0.547   1.652   2.876  4.8545 -3.5051 -2.0860
  573SOL  OW    1717   1.489   2.769   2.599  0.2335  0.2889  0.0613
  573SOL  HW1   1718   1.544   2.680   2.598 -0.3336 -2.7687 -2.2867
  573SOL  HW2   1719   1.402   2.745   2.552  0.9677 -0.4908 -0.2983
  574SOL  OW    1720   1.796   0.446   2.083 -0.1544 -0.1593 -0.1430
  574SOL  HW1   1721   1.870   0.506   2.056 -1.8659 -0.7382 -1.2335
  574SOL  HW2   1722   1.768   0.387   2.006 -0.8760  1.9473 -1.5811
  575SOL  OW    1723   0.855   1.361   1.728  0.1482  0.0004  0.1555
  575SOL  HW1   1724   0.941   1.345   1.681  0.0525 -1.2997  2.0250
  575SOL  HW2   1725   0.864   1.439   1.796 -0.1476  3.5404  0.5481
  576SOL  OW    1726   0.215   1.444   2.088 -0.5733  0.1217 -0.2345
  576SOL  HW1   1727   0.254   1.351   2.083  1.2743  0.4803  0.7954
  576SOL  HW2   1728   0.117   1.433   2.067 -1.7919  0.1829  1.6072
  577SOL  OW    1729   0.530   0.618   0.814  0.4264 -0.0695 -0.0888
  577SOL  HW1   1730   0.538   0.515   0.824  0.1589 -1.5254  1.4304
  577SOL  HW2   1731   0.477   0.639   0.729 -2.0739 -2.4110  1.0344
  578SOL  OW    1732   2.514   2.187   2.392 -0.2285  0.3748 -0.1532
  578SOL  HW1   1733   2.562   2.150   2.476  1.6875 -0.8159  0.2620
  578SOL  HW2   1734   2.572   2.165   2.308  0.6864 -2.5292 -2.2073
  579SOL  OW    1735   1.694   1.393   1.100 -0.4202 -0.2672 -0.0053
  579SOL  HW1   1736   1.671   1.487   1.126 -0.0514  0.6323  2.3842
  579SOL  HW2   1737   1.701   1.339   1.189 -0.0555 -0.5232 -0.5339
  580SOL  OW    1738   1.843   0.949   2.604  0.4670  1.0595  0.5772
  580SOL  HW1   1739   1.817   0.947   2.502 -3.1875 -1.5423 -2.8559
  580SOL  HW2   1740   1.917   1.020   2.628 -2.9518  0.4607  0.7434
  581SOL  OW    1741   0.079   1.642   1.273 -0.4256  0.0544  0.3941
  581SOL  HW1   1742   3.091   1.699   1.278  0.4879  1.1521 -2.4922
  581SOL  HW2   1743   0.159   1.696   1.309  3.0313  0.5855  0.6250
  582SOL  OW    1744   1.014   2.807   0.619 -0.6764  0.0114  0.5290
  582SOL  HW1   1745   0.929   2.751   0.637 -0.0682 -2.1643 -0.1651
  582SOL  HW2   1746   1.025   2.837   0.520 -1.4142  3.0690  0.6606
  583SOL  OW    1747   0.169   1.324   2.462  0.3143 -0.0897  0.2011
  583SOL  HW1   1748   0.214   1.410   2.426 -0.0044 -0.5239  1.2695
  583SOL  HW2   1749   0.161   1.254   2.390 -0.4486  0.0770  2.2496
  584SOL  OW    1750   3.078   2.811   3.003  0.1430  0.3221  0.3783
  584SOL  HW1   1751   0.048   2.813   2.922  2.0810 -0.2034  0.0768
  584SOL  HW2   1752   2.994   2.861   2.981 -1.4926 -0.9205 -0.3304
  585SOL  OW    1753   1.981   0.996   0.431 -0.0806 -0.1141  0.3483
  585SOL  HW1   1754   1.954   1.002   0.530  0.3527  1.9290  1.3540
  585SOL  HW2   1755   1.988   0.900   0.398 -1.1727  0.5125  2.7738
  586SOL  OW    1756   0.085   1.755   0.391 -0.0797 -0.4390  0.7662
  586SOL  HW1   1757   0.174   1.792   0.429  0.5972  0.3717  0.9648
  586SOL  HW2   1758   0.049   1.825   0.328  1.3678 -0.2223 -0.0269
  587SOL  OW    1759   2.655   0.855   0.327  0.1274  0.4814 -0.0239
  587SOL  HW1   1760   2.694   0.951   0.319  0.2154  0.4382  1.1048
  587SOL  HW2   1761   2.560   0.859   0.303  2.4024  2.7911  0.6717
  588SOL  OW    1762   0.367   1.358   0.900 -0.6098 -0.2616 -0.0506
  588SOL  HW1   1763   0.312   1.273   0.900  0.0660 -1.0646 -0.7672
  588SOL  HW2   1764   0.322   1.439   0.861 -0.2146 -0.0591 -0.7770
  589SOL  OW    1765   2.820   2.928   1.275 -0.0955 -0.3068 -0.7731
  589SOL  HW1   1766   2.806   2.863   1.198  3.1312 -0.2657 -1.7341
  589SOL  HW2   1767   2.919   2.926   1.294 -4.9606 -1.7475  0.6694
  590SOL  OW    1768   1.135   1.048   0.250  0.0157  0.2039  0.2307
  590SOL  HW1   1769   1.199   1.043   0.326  0.6953  0.7170 -1.3735
  590SOL  HW2   1770   1.124   1.144   0.217  1.9325  0.6029 -4.2468
  591SOL  OW    1771   2.384   0.302   2.433  0.1330 -0.0505  0.7011
  591SOL  HW1   1772   2.391   0.401   2.407  0.0355 -0.4846 -1.0151
  591SOL  HW2   1773   2.460   0.268   2.492 -0.1102 -0.2051 -1.1156
  592SOL  OW    1774   1.674   0.263   1.580  0.3860 -0.4304 -0.1389
  592SOL  HW1   1775   1.579   0.228   1.615 -3.2282 -0.6970  4.3314
  592SOL  HW2   1776   1.714   0.188   1.528 -1.0432  0.4955 -1.5074
  593SOL  OW    1777   1.242   1.756   0.934  0.5210  0.1497 -0.1887
  593SOL  HW1   1778   1.305   1.837   0.953  0.2667  0.0709 -1.0724
  593SOL  HW2   1779   1.148   1.773   0.974  1.2525 -0.4949  1.6914
  594SOL  OW    1780   2.390   0.923   0.268 -0.0221 -0.1447 -0.0477
  594SOL  HW1   1781   2.372   0.951   0.170 -3.0291  3.0607  0.0019
  594SOL  HW2   1782   2.347   0.835   0.283 -0.2755  0.6593 -1.2552
  595SOL  OW    1783   2.570   2.018   1.152 -0.6170  0.0988 -0.3005
  595SOL  HW1   1784   2.516   1.965   1.227 -2.2550  0.8109  0.8175
  595SOL  HW2   1785   2.516   2.002   1.063  0.5083 -1.3876  0.1042
  596SOL  OW    1786   2.426   0.071   1.795  0.2448  0.0432  0.3458
  596SOL  HW1   1787   2.403   0.168   1.832 -0.2283  0.2274  1.1107
  596SOL  HW2   1788   2.342   0.012   1.787  0.0497  0.0979 -0.7054
  597SOL  OW    1789   3.056   0.462   0.061  0.4174  0.7097 -0.2136
  597SOL  HW1   1790   0.046   0.492   0.111  1.7187  0.4833  3.4447
  597SOL  HW2   1791   3.046   0.521   3.074  1.6462  1.9667  2.0622
  598SOL  OW    1792   2.831   0.292   2.457  0.1502  0.0503  0.1113
  598SOL  HW1   1793   2.857   0.246   2.375 -3.1143 -1.7402  2.2485
  598SOL  HW2   1794   2.841   0.392   2.459  2.4051  0.9940  0.6615
  599SOL  OW    1795   0.205   1.904   2.845 -0.0049  0.2621  0.4886
  599SOL  HW1   1796   0.237   1.890   2.942 -0.7597 -1.2718  2.9817
  599SOL  HW2   1797   0.113   1.848   2.833 -0.2980 -1.7910  0.4534
  600SOL  OW    1798   0.366   3.066   1.122 -0.4009  0.2383  0.2720
  600SOL  HW1   1799   0.387   2.970   1.107 -1.6358  3.5470  0.4769
  600SOL  HW2   1800   0.323   0.010   1.035 -1.4295  1.9489 -4.1014
  601SOL  OW    1801   2.120   1.926   0.784  0.0280  0.8176  0.2248
  601SOL  HW1   1802   2.106   1.889   0.879  0.6770 -1.6655 -1.4497
  601SOL  HW2   1803   2.183   1.865   0.732 -1.0360  0.3334  2.2093
  602SOL  OW    1804   1.538   2.346   2.335  0.0841  0.3585  0.0300
  602SOL  HW1   1805   1.514   2.267   2.396  2.6192 -0.3669  1.7680
  602SOL  HW2   1806   1.631   2.381   2.353  0.4448  0.3230  0.8352
  603SOL  OW    1807   0.209   2.746   1.878  0.2428 -0.1431 -0.4386
  603SOL  HW1   1808   0.180   2.839   1.849  1.3471  2.5733  0.2848
  603SOL  HW2   1809   0.203   2.673   1.805  1.6918 -1.6010  0.6240
  604SOL  OW    1810   2.863   0.252   2.180 -0.1822 -0.0124 -0.0786
  604SOL  HW1   1811   2.769   0.285   2.164 -1.2280  0.3900 -2.9148
  604SOL  HW2   1812   2.885   0.169   2.122  1.0469 -2.7981 -0.9812
  605SOL  OW    1813   2.535   0.174   1.188  0.4224  0.1581  0.6812
  605SOL  HW1   1814   2.455   0.101   1.187  0.1382 -0.6530 -0.7763
  605SOL  HW2   1815   2.623   0.133   1.153  0.7908  1.8840  0.3441
  606SOL  OW    1816   1.743   2.141   2.072  0.1339  0.1624 -0.0066
  606SOL  HW1   1817   1.727   2.219   2.010  0.6521 -1.7670 -0.6803
  606SOL  HW2   1818   1.825   2.087   2.043 -3.8621  2.1148  3.5727
  607SOL  OW    1819   0.347   2.368   1.311  0.3402 -0.4470 -0.3569
  607SOL  HW1   1820   0.426   2.325   1.358 -2.9691  2.1235 -0.0251
  607SOL  HW2   1821   0.347   2.469   1.333 -4.7109 -0.6190 -0.2065
  608SOL  OW    1822   2.158   2.362   2.164 -0.0512 -0.8457  0.1492
  608SOL  HW1   1823   2.194   2.336   2.072 -1.5465  2.0784  1.3665
  608SOL  HW2   1824   2.064   2.326   2.173  1.0201 -0.1426 -1.6681
  609SOL  OW    1825   1.646   2.558   2.583 -0.4543 -0.0337 -0.4948
  609SOL  HW1   1826   1.727   2.553   2.646  1.2950 -3.0322 -2.9924
  609SOL  HW2   1827   1.681   2.521   2.495 -1.4403  1.5073 -1.3117
  610SOL  OW    1828   0.457   2.042   0.285 -0.5318  0.0816 -0.2316
  610SOL  HW1   1829   0.515   1.962   0.265 -0.7948 -1.0783  1.0442
  610SOL  HW2   1830   0.380   2.038   0.219  0.4815 -2.8686 -1.3816
  611SOL  OW    1831   1.879   1.820   1.136 -0.3563 -0.6141  0.6292
  611SOL  HW1   1832   1.854   1.844   1.231  1.6205 -0.3019 -2.5753
  611SOL  HW2   1833   1.806   1.846   1.073  0.6008  0.1527 -2.3259
  612SOL  OW    1834   1.057   2.051   3.072  0.3316  0.1648 -0.3391
  612SOL  HW1   1835   1.056   2.152   3.075  1.8340  3.3229  1.0936
  612SOL  HW2   1836   0.969   2.007   0.010 -1.1538 -2.1330  0.3606
  613SOL  OW    1837   0.173   2.840   2.808 -0.3720 -0.4263 -0.0534
  613SOL  HW1   1838   0.243   2.913   2.823  2.9755 -0.2947 -0.5185
  613SOL  HW2   1839   0.154   2.845   2.710  1.6939  0.6580 -0.1980
  614SOL  OW    1840   1.794   0.319   1.828 -0.2420 -0.0917 -0.2206
  614SOL  HW1   1841   1.748   0.346   1.743  0.7058 -1.1700  3.1503
  614SOL  HW2   1842   1.891   0.338   1.819  1.6786  2.6324 -1.3702
  615SOL  OW    1843   1.315   0.711   2.716 -0.2741  0.0608 -0.1142
  615SOL  HW1   1844   1.282   0.802   2.692  2.9067  2.2209 -0.4185
  615SOL  HW2   1845   1.340   0.711   2.816  2.8498  1.1376  0.2825
  616SOL  OW    1846   0.094   2.954   1.758  0.1793  0.1188 -0.3775
  616SOL  HW1   1847   0.049   3.039   1.788  0.7839 -0.5192  0.1823
  616SOL  HW2   1848   0.105   2.938   1.659  2.9296 -1.6428 -0.4577
  617SOL  OW    1849   2.924   2.627   0.010  0.1697  0.0946 -0.1796
  617SOL  HW1   1850   2.977   2.702   3.057  0.8143 -0.1392 -0.4279
  617SOL  HW2   1851   2.979   2.579   0.081 -0.8288  0.4023  1.0100
  618SOL  OW    1852   0.573   0.886   2.114 -0.3022 -0.1103  0.0102
  618SOL  HW1   1853   0.662   0.905   2.064 -0.3507  2.0800  0.5809
  618SOL  HW2   1854   0.486   0.918   2.072 -0.8490  2.5669 -2.0412
  619SOL  OW    1855   1.105   1.367   1.582 -0.1678  0.4828 -0.6381
  619SOL  HW1   1856   1.160   1.447   1.614 -3.3189  0.0238 -2.1611
  619SOL  HW2   1857   1.115   1.361   1.484  2.7621 -0.8712  0.5204
  620SOL  OW    1858   1.680   0.876   2.788  0.1197  0.4462 -0.1097
  620SOL  HW1   1859   1.677   0.777   2.766 -2.3882  1.0436  0.6654
  620SOL  HW2   1860   1.725   0.926   2.714 -0.7303  0.8367  1.4696
  621SOL  OW    1861   2.598   2.962   1.453  0.3101  0.1566  0.5807
  621SOL  HW1   1862   2.647   2.982   1.365 -1.0857  1.3098  0.4005
  621SOL  HW2   1863   2.570   3.052   1.497  1.4967  1.5362  0.9282
  622SOL  OW    1864   1.716   2.470   1.482 -0.3457  0.5156 -0.1335
  622SOL  HW1   1865   1.742   2.505   1.575 -0.6380 -0.3313 -1.9220
  622SOL  HW2   1866   1.748   2.375   1.458  2.0662 -1.4175 -0.9125
  623SOL  OW    1867   1.080   0.529   2.747  0.3415  0.2608  0.2147
  623SOL  HW1   1868   1.147   0.456   2.753  1.2353  1.2585  4.4159
  623SOL  HW2   1869   1.123   0.616   2.770 -0.6731  0.4606  2.4574
  624SOL  OW    1870   1.942   0.214   1.024  0.2527  0.0672 -0.0075
  624SOL  HW1   1871   2.036   0.180   1.010  1.5717  1.6450 -1.3153
  624SOL  HW2   1872   1.895   0.144   1.084 -0.8961 -0.6384 -0.0794
  625SOL  OW    1873   1.421   2.127   0.769  0.3163 -0.4922 -0.1470
  625SOL  HW1   1874   1.357   2.151   0.693  0.4272 -1.4250  0.3930
  625SOL  HW2   1875   1.488   2.201   0.785  0.1252 -0.6939  2.1787
  626SOL  OW    1876   2.656   0.023   0.159 -0.0941  0.2242 -0.1469
  626SOL  HW1   1877   2.572   0.076   0.179  1.1516 -1.0902 -3.3994
  626SOL  HW2   1878   2.632   3.028   0.127 -0.2439 -0.1607 -0.6543
  627SOL  OW    1879   1.487   0.578   1.342 -0.2970 -0.3501  0.5558
  627SOL  HW1   1880   1.457   0.593   1.246 -1.3378  0.2435 -1.4355
  627SOL  HW2   1881   1.428   0.514   1.395  0.8013  1.4083 -0.9837
  628SOL  OW    1882   2.398   0.584   2.413  0.2431 -0.4113  0.1335
  628SOL  HW1   1883   2.457   0.638   2.350 -0.2996 -0.0074  3.0629
  628SOL  HW2   1884   2.324   0.646   2.443 -2.6134  2.1175  1.0829
  629SOL  OW    1885   3.043   1.760   0.911  0.0435 -0.0816  0.0341
  629SOL  HW1   1886   3.063   1.661   0.937  0.1212 -0.3293 -0.0869
  629SOL  HW2   1887   2.952   1.792   0.929  0.4779 -1.7058 -0.3863
  630SOL  OW    1888   0.519   2.960   0.009  0.2742  0.0013  0.0071
  630SOL  HW1   1889   0.472   2.871   0.022 -2.1891 -1.7480  1.0648
  630SOL  HW2   1890   0.495   3.026   0.081  1.3494  0.3685  1.1773
  631SOL  OW    1891   2.996   0.193   1.008 -0.1993  0.1300  0.3583
  631SOL  HW1   1892   3.070   0.150   1.067  2.7521  1.7274  1.0826
  631SOL  HW2   1893   3.012   0.291   1.007 -0.3904 -2.3523  1.3459
  632SOL  OW    1894   2.827   1.728   0.566 -0.1638 -0.1451 -0.0419
  632SOL  HW1   1895   2.808   1.794   0.489 -1.1922  1.8750 -0.2616
  632SOL  HW2   1896   2.791   1.771   0.649  0.0874 -0.0379 -4.1771
  633SOL  OW    1897   1.521   0.680   2.212 -0.2832 -0.5366  0.4802
  633SOL  HW1   1898   1.474   0.609   2.157 -3.0670  2.3037  1.5534
  633SOL  HW2   1899   1.465   0.766   2.234 -1.3177  1.8263  0.4754
  634SOL  OW    1900   1.439   2.743   1.070  0.1446  0.4642  0.1547
  634SOL  HW1   1901   1.391   2.651   1.082 -2.3002 -1.9939  1.1001
  634SOL  HW2   1902   1.392   2.791   0.997  3.7957  2.3057 -1.7282
  635SOL  OW    1903   2.042   1.304   0.510  0.2353  0.1664 -0.6156
  635SOL  HW1   1904   2.049   1.209   0.471 -0.0519 -0.3096 -1.8910
  635SOL  HW2   1905   2.052   1.377   0.434  0.0720 -1.7834  0.7548
  636SOL  OW    1906   1.471   0.608   0.582  0.6070  0.2799  0.3084
  636SOL  HW1   1907   1.534   0.688   0.590 -0.8180  2.1126  1.3904
  636SOL  HW2   1908   1.446   0.585   0.481 -1.5851 -0.2139 -2.4006
  637SOL  OW    1909   1.667   1.705   2.543 -0.3698  0.0728  0.6064
  637SOL  HW1   1910   1.601   1.660   2.608 -1.1248  2.2713 -1.0226
  637SOL  HW2   1911   1.761   1.678   2.572  0.3508 -2.9608  0.6694
  638SOL  OW    1912   0.714   2.811   0.296  0.1716 -0.5309 -0.2357
  638SOL  HW1   1913   0.627   2.757   0.289 -1.6054 -2.0377  0.4444
  638SOL  HW2   1914   0.697   2.909   0.272  0.6275 -1.7903 -1.5392
  639SOL  OW    1915   1.105   1.986   1.441  0.2886 -0.1608  0.2739
  639SOL  HW1   1916   1.124   2.039   1.527  0.1901  1.0470 -0.8598
  639SOL  HW2   1917   1.022   2.017   1.390 -1.1787  0.7146 -1.4838
  640SOL  OW    1918   0.684   1.464   1.543 -0.4419 -0.1949  0.6279
  640SOL  HW1   1919   0.755   1.440   1.607 -1.1750  3.2708  1.0262
  640SOL  HW2   1920   0.596   1.415   1.568 -0.7415 -1.0553  0.2656
  641SOL  OW    1921   0.572   1.234   0.748  0.0948 -0.1389  0.3755
  641SOL  HW1   1922   0.652   1.298   0.742  1.7002 -1.6514  1.8186
  641SOL  HW2   1923   0.502   1.271   0.813 -0.8657 -0.6302  0.0492
  642SOL  OW    1924   0.499   1.739   0.510 -0.3345  0.3660 -0.2968
  642SOL  HW1   1925   0.424   1.797   0.478  2.3467 -2.4881 -1.7605
  642SOL  HW2   1926   0.588   1.782   0.494  1.2101 -0.8408  1.9165
  643SOL  OW    1927   1.139   0.879   2.431  0.0610  0.6725 -0.0522
  643SOL  HW1   1928   1.132   0.894   2.532  1.9589  1.0181 -0.9867
  643SOL  HW2   1929   1.083   0.949   2.380 -0.6170  0.1480 -1.0197
  644SOL  OW    1930   1.514   2.891   0.212 -0.0029  0.0728  0.3720
  644SOL  HW1   1931   1.545   2.926   0.118 -1.0710  2.4695  0.7912
  644SOL  HW2   1932   1.520   2.791   0.211 -2.6894  0.4068 -0.7711
  645SOL  OW    1933   1.733   2.008   0.025 -0.2210  0.2738  0.0974
  645SOL  HW1   1934   1.802   2.065   3.077 -2.8558 -1.7493  2.4336
  645SOL  HW2   1935   1.738   1.910   3.091  2.0061 -2.9206 -1.6684
  646SOL  OW    1936   2.870   0.058   0.295  0.8968  0.0060  0.1317
  646SOL  HW1   1937   2.936   0.089   0.228  1.0030  3.3807 -1.0726
  646SOL  HW2   1938   2.778   0.049   0.253 -0.4294 -2.9721 -1.2272
  647SOL  OW    1939   2.607   0.337   2.072  0.2371  0.4500 -0.0875
  647SOL  HW1   1940   2.521   0.388   2.098 -0.7974 -0.1746  0.5425
  647SOL  HW2   1941   2.633   0.351   1.973 -1.8557  1.5518 -0.7941
  648SOL  OW    1942   3.081   0.442   0.811  0.2435  0.4676 -0.6331
  648SOL  HW1   1943   0.005   0.539   0.834  2.4515  0.2931  1.6134
  648SOL  HW2   1944   2.980   0.428   0.818  1.0174  1.2901  0.9447
  649SOL  OW    1945   2.297   2.390   2.385 -0.2923  0.3624 -0.1596
  649SOL  HW1   1946   2.248   2.354   2.302 -0.4716 -1.9412  0.3836
  649SOL  HW2   1947   2.370   2.325   2.407 -2.8405  1.2655 -2.1048
  650SOL  OW    1948   0.982   3.009   1.602  0.4318  0.1750  0.0276
  650SOL  HW1   1949   0.988   2.976   1.508 -0.0873  0.0667  4.5311
  650SOL  HW2   1950   0.989   0.016   1.600 -4.3865 -3.2649  1.2098
  651SOL  OW    1951   0.308   0.876   2.970 -0.1803  0.5605 -0.2550
  651SOL  HW1   1952   0.247   0.886   3.052  0.8434 -1.1047 -2.6828
  651SOL  HW2   1953   0.405   0.890   2.998  2.0532  1.2118  1.4037
  652SOL  OW    1954   1.067   2.954   2.234 -0.0703  0.3664  0.1486
  652SOL  HW1   1955   1.103   2.987   2.148 -1.0850 -0.3622  0.6893
  652SOL  HW2   1956   1.021   3.028   2.281 -0.9652 -2.1153 -1.0676
  653SOL  OW    1957   2.543   0.555   0.811  0.2427  0.0151  0.3422
  653SOL  HW1   1958   2.456   0.507   0.795 -0.4021  0.2816  0.2787
  653SOL  HW2   1959   2.528   0.652   0.779  0.5730  1.5276  0.1786
  654SOL  OW    1960   3.029   2.548   2.479 -0.0088 -0.2381 -0.1520
  654SOL  HW1   1961   2.967   2.469   2.463 -1.2695 -3.7682 -0.5558
  654SOL  HW2   1962   3.012   2.592   2.566  0.2475  0.8399  0.3039
  655SOL  OW    1963   2.949   2.751   2.314  0.7322  0.4257  0.4628
  655SOL  HW1   1964   2.972   2.685   2.386 -1.0938  0.3120  2.8273
  655SOL  HW2   1965   2.853   2.779   2.331  1.4834 -1.0035  1.0495
  656SOL  OW    1966   2.983   0.884   3.018  0.4348 -0.2714  0.4015
  656SOL  HW1   1967   2.913   0.913   3.082  0.0716 -1.7853  1.8607
  656SOL  HW2   1968   3.000   0.953   2.944 -0.5039  0.4349 -2.4433
  657SOL  OW    1969   0.612   1.827   0.229  0.1062  0.3722 -0.4192
  657SOL  HW1   1970   0.534   1.771   0.196 -2.5010 -0.0454 -1.1580
  657SOL  HW2   1971   0.683   1.774   0.278  0.9846 -3.2604  0.2153
  658SOL  OW    1972   1.925   2.888   2.103  0.3998  0.6398  0.5485
  658SOL  HW1   1973   1.952   2.826   2.182  1.3033  0.9090  1.5507
  658SOL  HW2   1974   1.877   2.972   2.135  1.4864  1.2298  0.5331
  659SOL  OW    1975   0.687   0.721   1.358 -0.1991 -0.3035  0.1241
  659SOL  HW1   1976   0.724   0.641   1.407  0.3095  0.6159 -0.7787
  659SOL  HW2   1977   0.745   0.749   1.282  0.2648  0.1299  1.6574
  660SOL  OW    1978   0.305   2.645   1.373  0.1879  0.1254  0.1845
  660SOL  HW1   1979   0.390   2.674   1.329 -1.7564  1.7423  0.6082
  660SOL  HW2   1980   0.248   2.735   1.375 -2.4150  0.5494  0.9472
  661SOL  OW    1981   2.559   1.624   2.250 -0.1612  0.0388  0.3293
  661SOL  HW1   1982   2.549   1.580   2.165  2.3502 -1.6546  2.5487
  661SOL  HW2   1983   2.601   1.715   2.239 -0.6342  1.2735 -1.1195
  662SOL  OW    1984   1.514   1.134   2.731  0.0220 -0.5596  0.2156
  662SOL  HW1   1985   1.472   1.050   2.778 -0.8958 -1.9203  1.1286
  662SOL  HW2   1986   1.603   1.163   2.769 -2.3661 -0.0632 -1.0284
  663SOL  OW    1987   2.129   0.392   2.219  0.0272 -0.4532 -0.0949
  663SOL  HW1   1988   2.115   0.425   2.313 -0.5677 -0.9742  0.8734
  663SOL  HW2   1989   2.077   0.307   2.201  2.6111  1.7861  0.2540
  664SOL  OW    1990   1.661   3.043   0.707 -0.0751 -0.4142 -0.8512
  664SOL  HW1   1991   1.728   0.024   0.718 -1.5435  0.0195 -2.0292
  664SOL  HW2   1992   1.584   3.071   0.645  0.8034  0.5548  0.6470
  665SOL  OW    1993   1.382   0.478   2.624  0.3182 -0.1988 -0.3685
  665SOL  HW1   1994   1.449   0.487   2.549  0.1133  0.5643 -1.0608
  665SOL  HW2   1995   1.349   0.566   2.669 -0.2353 -2.8192 -0.3393
  666SOL  OW    1996   3.057   1.004   2.100 -0.3222  0.2785  0.5751
  666SOL  HW1   1997   3.059   1.063   2.014 -0.3048  2.0451 -1.4871
  666SOL  HW2   1998   3.015   0.911   2.081  2.2580  0.3719 -0.4050
  667SOL  OW    1999   0.774   2.158   2.073 -0.2535 -0.0027 -0.1892
  667SOL  HW1   2000   0.835   2.209   2.012 -0.6410 -0.2562  0.5388
  667SOL  HW2   2001   0.728   2.222   2.140  1.3869 -0.2624 -2.5646
  668SOL  OW    2002   1.679   0.632   2.701 -0.2091 -0.2259  0.5375
  668SOL  HW1   2003   1.654   0.590   2.608 -2.4231  2.3539 -0.9273
  668SOL  HW2   2004   1.734   0.560   2.751  0.7737 -0.4768 -0.0488
  669SOL  OW    2005   2.819   2.514   1.691  0.1343  0.0425 -0.4690
  669SOL  HW1   2006   2.915   2.545   1.674  1.0387  1.1199  0.3049
  669SOL  HW2   2007   2.761   2.567   1.627  1.1419 -0.8226  1.2706
  670SOL  OW    2008   2.137   1.282   0.797  0.0163  0.1995 -0.1150
  670SOL  HW1   2009   2.093   1.289   0.704  0.4308  0.4306  0.1944
  670SOL  HW2   2010   2.076   1.242   0.867  0.3486  0.2628  1.6442
  671SOL  OW    2011   0.220   1.547   0.814  0.2555  0.7459  0.5333
  671SOL  HW1   2012   0.156   1.544   0.895  0.1494 -0.0591 -1.2902
  671SOL  HW2   2013   0.264   1.640   0.812  1.7901 -0.3910 -1.0337
  672SOL  OW    2014   1.496   0.636   2.915 -0.2980  0.2456 -0.2390
  672SOL  HW1   2015   1.527   0.646   2.820 -0.6596  0.1959  0.1417
  672SOL  HW2   2016   1.519   0.542   2.956  2.1382  0.3694 -0.7453
  673SOL  OW    2017   1.453   2.140   2.517 -0.2820  0.8680  0.9224
  673SOL  HW1   2018   1.524   2.071   2.551  0.1056 -1.0077  2.7827
  673SOL  HW2   2019   1.442   2.214   2.584 -1.1137 -0.4907 -1.6370
  674SOL  OW    2020   1.059   2.456   2.091 -0.2109  0.0664 -0.1528
  674SOL  HW1   2021   1.070   2.393   2.170 -0.5822  0.5414  1.3824
  674SOL  HW2   2022   1.062   2.549   2.126  2.2065 -2.1097  1.1902
  675SOL  OW    2023   2.569   0.994   1.407  0.2626  0.0869  0.3139
  675SOL  HW1   2024   2.507   1.013   1.328 -2.4734  0.7129 -2.3811
  675SOL  HW2   2025   2.659   0.953   1.373 -0.3145  1.2394 -0.1067
  676SOL  OW    2026   2.791   1.261   1.914 -0.2140  0.0582 -0.2374
  676SOL  HW1   2027   2.783   1.361   1.888  0.0955  5.9953  0.9939
  676SOL  HW2   2028   2.884   1.232   1.929 -1.8920  1.8548  0.8831
  677SOL  OW    2029   1.744   1.497   2.082 -0.0476  0.2515 -0.2265
  677SOL  HW1   2030   1.754   1.399   2.108  0.6252 -0.9284  1.3415
  677SOL  HW2   2031   1.828   1.542   2.046 -0.4719 -0.2730 -0.5133
  678SOL  OW    2032   1.020   0.909   1.684 -0.1487  0.1653 -0.1682
  678SOL  HW1   2033   1.041   0.859   1.776  0.2531 -3.6531  3.7049
  678SOL  HW2   2034   1.081   0.991   1.680 -1.7349  1.8453  0.7775
  679SOL  OW    2035   1.627   1.884   0.267  0.4720 -0.0612 -0.1936
  679SOL  HW1   2036   1.665   1.931   0.190 -1.1673  1.1063  3.1687
  679SOL  HW2   2037   1.707   1.840   0.307 -0.7577 -0.7226 -2.5403
  680SOL  OW    2038   0.210   1.379   0.607  0.2196 -0.0332  0.1041
  680SOL  HW1   2039   0.307   1.375   0.576 -1.5663  1.7590 -0.0660
  680SOL  HW2   2040   0.191   1.441   0.689 -0.1462  0.0390  0.6326
  681SOL  OW    2041   2.545   0.060   0.688  0.5188 -0.0664  0.1178
  681SOL  HW1   2042   2.607   0.120   0.750 -0.9875 -0.1365  2.0341
  681SOL  HW2   2043   2.592   3.076   0.651 -0.3805  2.5838 -0.0599
  682SOL  OW    2044   2.091   1.701   0.524 -0.3756 -0.3225 -0.1544
  682SOL  HW1   2045   2.010   1.753   0.547 -0.0189 -1.1494  1.6241
  682SOL  HW2   2046   2.170   1.712   0.590 -0.6661 -2.6518  0.1797
  683SOL  OW    2047   2.187   1.398   1.289  0.3412  0.1750  0.1138
  683SOL  HW1   2048   2.200   1.310   1.242 -1.7691  1.3265  0.0713
  683SOL  HW2   2049   2.111   1.451   1.244 -0.1483  1.1846  0.1635
  684SOL  OW    2050   1.167   2.105   1.670  0.1014 -0.4594 -0.1343
  684SOL  HW1   2051   1.271   2.093   1.664  3.0974  1.8987 -0.4650
  684SOL  HW2   2052   1.130   2.072   1.757 -1.4313 -0.5731  0.0617
  685SOL  OW    2053   2.802   0.473   0.826  0.2635  0.6938  0.0160
  685SOL  HW1   2054   2.826   0.495   0.925  0.7446 -1.3025  0.7375
  685SOL  HW2   2055   2.717   0.526   0.796 -1.5236  0.6237  1.3513
  686SOL  OW    2056   3.074   1.684   2.326  0.0284 -0.1992  0.5326
  686SOL  HW1   2057   3.004   1.672   2.402 -0.9108 -2.6322  1.0576
  686SOL  HW2   2058   0.070   1.712   2.362 -3.2383  1.8220  0.9739
  687SOL  OW    2059   1.497   0.099   3.039  0.2003  0.1907  0.0918
  687SOL  HW1   2060   1.565   0.024   3.062 -1.9922  2.1001 -0.3608
  687SOL  HW2   2061   1.415   0.088   3.094  3.1387 -0.5464  0.3109
  688SOL  OW    2062   1.661   2.987   0.008 -0.2175  0.0206 -0.3946
  688SOL  HW1   2063   1.667   2.923   3.022  0.0596 -1.5353 -0.9833
  688SOL  HW2   2064   1.747   3.031   0.037 -2.3171 -0.0881 -0.7298
  689SOL  OW    2065   2.035   1.049   1.419 -0.2896  0.7710 -0.0140
  689SOL  HW1   2066   1.976   1.099   1.481  0.3822 -0.3063 -1.6640
  689SOL  HW2   2067   1.996   0.958   1.393  0.7393  3.5172 -2.2443
  690SOL  OW    2068   1.603   1.114   0.313 -0.2059 -0.5850 -0.0226
  690SOL  HW1   2069   1.705   1.122   0.291 -2.3429 -0.3452 -2.1452
  690SOL  HW2   2070   1.582   1.021   0.349  0.9513  0.1552  0.5092
  691SOL  OW    2071   1.990   2.183   0.454 -0.0340 -0.3451  0.5759
  691SOL  HW1   2072   1.934   2.174   0.539 -0.4761 -0.2507 -1.2050
  691SOL  HW2   2073   2.004   2.092   0.401  0.3427 -0.9594 -2.2691
  692SOL  OW    2074   2.929   2.475   2.827 -0.1050 -0.1414  0.3936
  692SOL  HW1   2075   2.845   2.486   2.883  1.5105  1.3153 -0.1355
  692SOL  HW2   2076   2.949   2.558   2.767  2.6391 -0.1835  1.1389
  693SOL  OW    2077   0.786   1.689   2.446  0.1509 -0.1196  0.6063
  693SOL  HW1   2078   0.718   1.647   2.509 -0.3495 -1.3021  0.4852
  693SOL  HW2   2079   0.753   1.781   2.411  0.1175  2.4933 -1.1708
  694SOL  OW    2080   1.779   1.235   2.833 -0.2135 -0.2641  0.3055
  694SOL  HW1   2081   1.793   1.337   2.816 -0.7040 -0.8131  0.2489
  694SOL  HW2   2082   1.792   1.208   2.935 -0.0270 -2.4173  3.7997
  695SOL  OW    2083   2.196   0.763   2.492 -0.2153 -0.0952  0.1533
  695SOL  HW1   2084   2.209   0.850   2.441  1.2493  0.5104  0.4770
  695SOL  HW2   2085   2.100   0.750   2.523  0.6452  1.2152 -0.7307
  696SOL  OW    2086   1.969   0.658   2.601 -0.1119  0.5694 -0.2529
  696SOL  HW1   2087   2.009   0.613   2.680 -0.4727  0.8096 -0.0628
  696SOL  HW2   2088   1.893   0.725   2.624  1.8742  0.4506  1.0007
  697SOL  OW    2089   1.050   2.574   2.854 -0.2081  0.0294 -0.1708
  697SOL  HW1   2090   0.953   2.539   2.859  0.4258  0.1345 -0.7541
  697SOL  HW2   2091   1.124   2.505   2.842 -2.2086 -0.4577 -1.0625
  698SOL  OW    2092   1.439   0.938   2.896 -0.0590  0.3488  0.0097
  698SOL  HW1   2093   1.404   0.886   2.972  0.0982  1.0298  1.7450
  698SOL  HW2   2094   1.537   0.921   2.876 -3.3782  0.4829  2.5601
  699SOL  OW    2095   2.281   1.821   1.744  0.0044 -0.2772  0.0463
  699SOL  HW1   2096   2.335   1.772   1.670 -0.1554 -0.2159  0.9991
  699SOL  HW2   2097   2.328   1.911   1.763 -1.0097 -0.3887  1.4904
  700SOL  OW    2098   1.113   0.775   1.900  0.2659  0.6940  0.0379
  700SOL  HW1   2099   1.207   0.738   1.920  0.6874  0.4397  0.6561
  700SOL  HW2   2100   1.041   0.722   1.947  1.4959 -1.4787 -0.3510
  701SOL  OW    2101   2.570   0.071   2.778 -0.1821  0.3521 -0.3513
  701SOL  HW1   2102   2.632   0.088   2.853 -2.2457  1.5455 -0.7194
  701SOL  HW2   2103   2.476   0.089   2.801 -0.6990 -1.0674 -2.0130
  702SOL  OW    2104   1.285   2.963   0.971  0.5525 -0.1394 -0.2388
  702SOL  HW1   2105   1.342   3.043   1.000 -1.3535  2.3502 -0.6625
  702SOL  HW2   2106   1.200   2.962   1.026 -0.5725  0.1885 -1.3639
  703SOL  OW    2107   0.684   0.178   1.472  0.3359 -0.3972  0.7177
  703SOL  HW1   2108   0.636   0.146   1.551 -0.8676 -1.0637 -0.8685
  703SOL  HW2   2109   0.625   0.156   1.390  0.5901 -1.6278  3.2004
  704SOL  OW    2110   1.038   0.179   1.146 -0.3031  0.0914 -0.1351
  704SOL  HW1   2111   1.075   0.151   1.239  1.0394  0.3654  2.1050
  704SOL  HW2   2112   1.039   0.281   1.144 -0.6202  2.0611  0.0040
  705SOL  OW    2113   0.748   1.842   0.517 -0.5455  0.0819  0.4744
  705SOL  HW1   2114   0.829   1.851   0.457 -0.3098 -0.0465  0.6049
  705SOL  HW2   2115   0.734   1.923   0.579 -0.4136  0.6314  1.6861
  706SOL  OW    2116   2.949   1.085   2.343 -0.7300 -0.2871 -0.5215
  706SOL  HW1   2117   2.961   1.031   2.426 -0.9798  4.2146  0.8334
  706SOL  HW2   2118   2.963   1.035   2.256 -1.0871 -1.6755 -0.1481
  707SOL  OW    2119   2.388   2.056   1.789  0.1726 -0.2306  0.2286
  707SOL  HW1   2120   2.325   2.121   1.834  0.1891 -0.5466 -1.2090
  707SOL  HW2   2121   2.439   2.105   1.712  0.5633  1.9540  0.6800
  708SOL  OW    2122   1.034   0.173   2.477  0.1202 -0.4486  0.4206
  708SOL  HW1   2123   1.024   0.132   2.387  0.1577 -1.7663  2.0851
  708SOL  HW2   2124   0.942   0.175   2.524  2.2655 -0.5884 -3.0407
  709SOL  OW    2125   0.779   0.178   2.572 -0.0963  0.1661 -0.6287
  709SOL  HW1   2126   0.764   0.125   2.659 -1.1048 -1.7824  2.5589
  709SOL  HW2   2127   0.806   0.271   2.601 -1.3760  0.2909 -0.7431
  710SOL  OW    2128   3.076   0.490   1.448 -0.0341 -0.0990 -0.7865
  710SOL  HW1   2129   0.041   0.459   1.525 -0.7603 -0.6334 -0.8821
  710SOL  HW2   2130   2.982   0.452   1.464 -0.6361 -0.3744  2.7562
  711SOL  OW    2131   2.896   1.685   2.132 -0.2470 -0.2761 -0.3985
  711SOL  HW1   2132   2.826   1.740   2.177  3.1354  0.2210 -2.8661
  711SOL  HW2   2133   2.972   1.677   2.198 -0.1322  1.8285  0.2974
  712SOL  OW    2134   0.859   2.888   2.553  0.0513 -0.0183 -0.0877
  712SOL  HW1   2135   0.823   2.928   2.468  2.3986 -1.2525 -1.5767
  712SOL  HW2   2136   0.823   2.945   2.634 -1.0492  0.5640 -0.2834
  713SOL  OW    2137   0.393   0.829   1.716 -0.5788 -0.0193 -0.1086
  713SOL  HW1   2138   0.446   0.745   1.748  0.6064 -2.7904 -2.1938
  713SOL  HW2   2139   0.446   0.875   1.638  0.7213  0.5972 -0.1354
  714SOL  OW    2140   1.784   2.136   1.598  0.1907 -0.0158 -0.1728
  714SOL  HW1   2141   1.698   2.179   1.621 -0.8120  0.8419 -1.8061
  714SOL  HW2   2142   1.787   2.039   1.631 -1.4649  1.3955  0.4894
  715SOL  OW    2143   1.055   0.213   0.281 -0.6090  0.0080  0.0079
  715SOL  HW1   2144   0.988   0.156   0.234  0.5742  2.0589  1.7242
  715SOL  HW2   2145   1.118   0.246   0.205  0.1174 -0.5122 -0.1040
  716SOL  OW    2146   0.744   0.491   1.503  0.6135 -0.0955 -0.0022
  716SOL  HW1   2147   0.826   0.523   1.555  0.1757 -1.3228  1.1030
  716SOL  HW2   2148   0.760   0.396   1.477  1.9398  3.8976 -1.1140
  717SOL  OW    2149   0.273   0.924   2.442  0.0396  0.1441  0.4821
  717SOL  HW1   2150   0.372   0.920   2.420  0.4526 -0.5899 -1.0026
  717SOL  HW2   2151   0.231   1.005   2.406  0.6239 -0.7431  3.2238
  718SOL  OW    2152   1.136   3.076   2.010 -0.0677 -0.2371  0.0599
  718SOL  HW1   2153   1.089   0.024   1.935 -0.2495 -0.1881  1.4528
  718SOL  HW2   2154   1.218   3.019   1.985  0.4005 -1.0306  0.9402
  719SOL  OW    2155   0.532   0.060   1.673 -0.1673  0.9805 -0.3023
  719SOL  HW1   2156   0.579   3.068   1.657 -0.6519 -1.4778 -2.5478
  719SOL  HW2   2157   0.516   0.073   1.777  0.9819 -1.3702  0.6081
  720SOL  OW    2158   0.496   2.923   2.040  0.1831 -0.7986  0.1649
  720SOL  HW1   2159   0.503   2.828   2.014  1.2575  2.4409 -1.0170
  720SOL  HW2   2160   0.414   2.930   2.098  2.7973  3.8676  0.8698
  721SOL  OW    2161   0.355   2.269   0.744  0.4001 -0.0629 -0.0920
  721SOL  HW1   2162   0.417   2.230   0.670  2.1160 -3.2955 -2.5020
  721SOL  HW2   2163   0.334   2.365   0.722  1.3987  0.1440  0.5643
  722SOL  OW    2164   1.389   1.881   0.656 -0.0643  0.1655 -0.1950
  722SOL  HW1   2165   1.483   1.871   0.619 -0.1044 -1.4168 -0.3152
  722SOL  HW2   2166   1.384   1.970   0.701  0.7006 -2.2380 -0.0792
  723SOL  OW    2167   0.171   1.390   1.293  0.3319 -0.2767  0.6509
  723SOL  HW1   2168   0.255   1.367   1.241  0.5242  1.8343  1.1429
  723SOL  HW2   2169   0.147   1.489   1.281 -3.6942  3.0466 -0.7503
  724SOL  OW    2170   1.802   1.520   2.798  0.0906 -0.3037  0.0383
  724SOL  HW1   2171   1.855   1.584   2.735 -0.4210  1.2944 -1.9329
  724SOL  HW2   2172   1.701   1.535   2.788  2.4690  0.2460 -0.6500
  725SOL  OW    2173   0.782   0.459   1.830 -0.5859  0.7990  0.1865
  725SOL  HW1   2174   0.827   0.511   1.905  0.3429 -2.2185 -0.2985
  725SOL  HW2   2175   0.835   0.476   1.745 -0.5156  0.0272 -0.6427
  726SOL  OW    2176   0.181   0.315   0.929 -0.1136 -0.2412  0.1074
  726SOL  HW1   2177   0.122   0.369   0.866  1.0815  2.6682 -2.0331
  726SOL  HW2   2178   0.141   0.320   1.027 -0.6682 -0.0577  0.0732
  727SOL  OW    2179   1.607   0.356   2.942 -0.0242  0.3091  0.4348
  727SOL  HW1   2180   1.584   0.260   2.965 -0.2163 -1.9248  0.2430
  727SOL  HW2   2181   1.691   0.363   2.882  0.6739 -1.4521 -0.6108
  728SOL  OW    2182   2.662   2.136   2.174 -0.1437 -0.1440 -0.6475
  728SOL  HW1   2183   2.677   2.108   2.076  1.3818  0.3988 -1.6533
  728SOL  HW2   2184   2.675   2.238   2.178  0.0679 -0.4952 -0.1390
  729SOL  OW    2185   2.562   1.640   1.208 -0.5322 -0.3031 -0.4031
  729SOL  HW1   2186   2.536   1.551   1.252 -1.1172 -3.2368  0.5943
  729SOL  HW2   2187   2.650   1.665   1.250 -0.5543 -2.8491  1.3585
  730SOL  OW    2188   2.468   1.285   0.590  0.3305 -0.5877  0.0262
  730SOL  HW1   2189   2.482   1.374   0.634  1.0401 -0.1164  0.2184
  730SOL  HW2   2190   2.422   1.298   0.498 -0.8995  0.2752 -0.8015
  731SOL  OW    2191   3.020   1.039   0.387  0.0011  0.0490 -0.2990
  731SOL  HW1   2192   3.051   1.104   0.454 -0.3610  0.1200 -0.2848
  731SOL  HW2   2193   2.919   1.052   0.372  1.3053  0.9530  0.2338
  732SOL  OW    2194   2.868   0.549   2.399 -0.4603  0.4849  0.2966
  732SOL  HW1   2195   2.817   0.555   2.312  2.2062 -0.6758 -2.4864
  732SOL  HW2   2196   2.835   0.628   2.452  0.4556 -1.5535  2.2212
  733SOL  OW    2197   1.047   1.121   1.334 -0.1969  0.0473 -0.4313
  733SOL  HW1   2198   1.000   1.099   1.248  1.6713  2.5402  0.5216
  733SOL  HW2   2199   1.068   1.035   1.384  0.4180 -0.4996 -0.0547
  734SOL  OW    2200   0.515   2.143   0.567  0.5049  0.4942  0.1334
  734SOL  HW1   2201   0.599   2.127   0.621  3.7055 -0.1867 -0.5385
  734SOL  HW2   2202   0.533   2.134   0.470  0.8385  1.1187 -1.1422
  735SOL  OW    2203   2.811   0.382   1.506  0.0513  0.4028 -0.2188
  735SOL  HW1   2204   2.817   0.401   1.609  0.4794  1.2314  1.8905
  735SOL  HW2   2205   2.802   0.282   1.495  1.1334 -1.5661  0.9312
  736SOL  OW    2206   2.058   2.005   1.376 -0.5411  0.4478 -0.0609
  736SOL  HW1   2207   2.091   2.017   1.279 -1.9200 -0.6641  1.1240
  736SOL  HW2   2208   2.089   2.080   1.436 -3.5608 -1.0418  0.2988
  737SOL  OW    2209   2.577   1.392   0.057  0.0677 -1.0656 -0.2604
  737SOL  HW1   2210   2.644   1.448   3.094  2.0065  1.0931 -2.6363
  737SOL  HW2   2211   2.623   1.361   0.141 -0.6977  1.7461 -1.2034
  738SOL  OW    2212   1.889   0.726   0.989 -0.2823  0.8309 -0.5788
  738SOL  HW1   2213   1.789   0.764   0.983 -3.1094  0.4545 -0.8949
  738SOL  HW2   2214   1.897   0.639   0.938 -0.2533  2.5352 -0.9980
  739SOL  OW    2215   1.973   2.242   1.761  0.1167 -0.0975 -0.3537
  739SOL  HW1   2216   1.975   2.344   1.774 -1.3851 -1.4695  0.3456
  739SOL  HW2   2217   1.904   2.217   1.696  1.4073  1.2582 -0.4057
  740SOL  OW    2218   2.433   1.004   0.532  0.0694 -0.0931 -0.2532
  740SOL  HW1   2219   2.461   1.101   0.549 -1.3122 -0.8068  1.0737
  740SOL  HW2   2220   2.433   0.980   0.431 -0.6924 -1.7895  0.8017
  741SOL  OW    2221   1.890   2.828   2.806  0.1928  0.2657  0.3813
  741SOL  HW1   2222   1.797   2.857   2.837  0.0104 -1.9094 -0.7695
  741SOL  HW2   2223   1.953   2.875   2.869  0.2554 -1.8978  3.3209
  742SOL  OW    2224   2.151   2.198   2.569 -0.0548 -0.1411  0.1932
  742SOL  HW1   2225   2.202   2.262   2.508  0.3317  0.7104  0.3534
  742SOL  HW2   2226   2.100   2.121   2.520  0.4136 -1.1454 -1.8689
  743SOL  OW    2227   1.143   1.364   1.308 -0.0096  0.0155  0.6179
  743SOL  HW1   2228   1.096   1.448   1.269 -1.2539  2.3381 -1.7049
  743SOL  HW2   2229   1.081   1.282   1.307 -1.0111  0.0872 -0.3160
  744SOL  OW    2230   0.059   2.802   1.342  0.4177  0.1246  0.4276
  744SOL  HW1   2231   0.046   2.774   1.247  0.1968 -1.0019  1.1504
  744SOL  HW2   2232   0.127   2.878   1.348  1.6111 -1.6336 -0.2827
  745SOL  OW    2233   2.238   1.018   0.715 -0.2099  0.0446  0.3385
  745SOL  HW1   2234   2.247   1.112   0.755 -2.0030 -1.1002  0.9162
  745SOL  HW2   2235   2.290   1.005   0.633 -2.0113 -0.4728  0.9229
  746SOL  OW    2236   2.190   2.374   0.409 -0.0730  0.1831 -0.3814
  746SOL  HW1   2237   2.139   2.291   0.435 -0.6439 -1.3346  0.8220
  746SOL  HW2   2238   2.163   2.393   0.315  0.1942 -0.7484  0.1951
  747SOL  OW    2239   1.970   1.587   1.950  0.0206 -0.3163  0.1162
  747SOL  HW1   2240   1.977   1.504   1.888 -1.9286 -1.7157  0.9009
  747SOL  HW2   2241   2.029   1.578   2.031 -0.1017 -0.9745 -0.4034
  748SOL  OW    2242   2.950   2.996   2.547  0.0208  0.2508 -0.6237
  748SOL  HW1   2243   3.024   2.982   2.475 -0.2300  0.1600 -1.2314
  748SOL  HW2   2244   2.861   2.960   2.517 -0.4359 -0.2872 -0.0606
  749SOL  OW    2245   2.809   1.886   1.047  0.3565  0.2326 -0.2703
  749SOL  HW1   2246   2.883   1.922   1.105  0.6409 -1.0717  0.6047
  749SOL  HW2   2247   2.722   1.923   1.080  2.5763  1.3946 -2.7994
  750SOL  OW    2248   1.456   0.931   2.021  0.3716  0.5215 -0.2679
  750SOL  HW1   2249   1.382   0.992   1.987  0.2678 -2.1626  3.1226
  750SOL  HW2   2250   1.462   0.934   2.123 -2.4044  0.4354  1.2481
  751SOL  OW    2251   0.053   2.143   0.995 -0.1440  0.4904 -0.0723
  751SOL  HW1   2252   3.072   2.193   0.952 -1.0294 -2.1786  0.9314
  751SOL  HW2   2253   0.140   2.202   1.002 -1.3516 -1.6288 -0.7792
  752SOL  OW    2254   0.740   2.951   1.046 -0.1205 -0.6262 -0.4313
  752SOL  HW1   2255   0.684   2.993   0.972 -0.9017 -1.2843  0.7255
  752SOL  HW2   2256   0.706   2.984   1.139  0.5784  0.6192  1.4409
  753SOL  OW    2257   2.194   2.757   0.942  0.4568 -0.7987  0.3370
  753SOL  HW1   2258   2.122   2.805   0.884 -3.2039 -0.9272 -2.1287
  753SOL  HW2   2259   2.169   2.660   0.961  0.8402 -0.6935  1.4745
  754SOL  OW    2260   2.072   0.184   1.882  0.3536 -0.3882  0.7756
  754SOL  HW1   2261   2.026   0.097   1.848 -0.8318  2.6442 -0.9112
  754SOL  HW2   2262   2.069   0.250   1.797  0.6158  0.7609 -2.7605
  755SOL  OW    2263   2.250   0.699   1.372  0.4930  0.0534  0.4204
  755SOL  HW1   2264   2.212   0.744   1.287  0.4791 -0.2350  0.6134
  755SOL  HW2   2265   2.183   0.633   1.408 -0.8013 -2.4527  0.9993
  756SOL  OW    2266   2.373   2.849   0.540  0.2856 -0.1233  1.2116
  756SOL  HW1   2267   2.346   2.751   0.539  0.7082 -0.0134  0.3125
  756SOL  HW2   2268   2.472   2.862   0.567  1.6098 -0.2771 -0.9219
  757SOL  OW    2269   2.629   0.952   2.672  0.1771  0.2696  0.2059
  757SOL  HW1   2270   2.589   0.880   2.739 -0.3216 -2.3859 -0.1164
  757SOL  HW2   2271   2.654   1.037   2.722 -0.4669 -1.3588 -0.6748
  758SOL  OW    2272   1.713   0.509   1.510 -0.3929  0.3747 -0.6016
  758SOL  HW1   2273   1.691   0.408   1.525 -1.8390 -1.4669  0.7252
  758SOL  HW2   2274   1.643   0.546   1.443 -1.0610 -1.6220  0.5438
  759SOL  OW    2275   3.085   2.585   1.709  0.1491 -0.4336  0.4556
  759SOL  HW1   2276   0.092   2.577   1.689 -0.6343 -1.1073  1.4596
  759SOL  HW2   2277   3.071   2.528   1.793  1.0438  1.1992 -4.0807
  760SOL  OW    2278   1.895   2.237   2.255 -0.3666  0.4524 -0.1595
  760SOL  HW1   2279   1.933   2.154   2.311  1.0466 -2.6139  1.1872
  760SOL  HW2   2280   1.830   2.196   2.185 -0.3416  1.4064 -0.1156
  761SOL  OW    2281   0.499   1.238   2.478 -0.0383 -0.5807 -0.2614
  761SOL  HW1   2282   0.500   1.203   2.572 -0.0537  0.9389 -0.7385
  761SOL  HW2   2283   0.456   1.330   2.470  0.7734  0.3266  0.3110
  762SOL  OW    2284   2.871   2.242   1.644 -0.7269 -0.0210 -0.1066
  762SOL  HW1   2285   2.851   2.339   1.670 -0.2012 -0.7649 -0.9770
  762SOL  HW2   2286   2.960   2.203   1.676 -0.4365 -1.1794  0.5523
  763SOL  OW    2287   0.956   0.043   2.921 -0.2632 -0.0799 -0.4251
  763SOL  HW1   2288   1.028   0.081   2.865  1.3940 -0.2547 -0.5104
  763SOL  HW2   2289   0.884   0.003   2.862  2.1196  0.5863  0.8319
  764SOL  OW    2290   1.089   1.940   2.171  0.1495 -0.5447 -0.1010
  764SOL  HW1   2291   1.114   1.845   2.195  0.5501  0.0589  0.5755
  764SOL  HW2   2292   1.005   1.969   2.210  2.2952 -0.2376 -0.1982
  765SOL  OW    2293   0.555   2.678   1.260 -0.2399 -0.1433 -0.0258
  765SOL  HW1   2294   0.628   2.621   1.211 -2.0438  0.5303  0.2609
  765SOL  HW2   2295   0.492   2.728   1.196 -0.8379 -0.5700  0.2458
  766SOL  OW    2296   2.007   2.328   2.775  0.0935 -0.3896  0.1070
  766SOL  HW1   2297   1.967   2.416   2.742  0.7260  0.9956  2.4738
  766SOL  HW2   2298   2.055   2.282   2.698  0.9408 -2.5043  0.1157
  767SOL  OW    2299   1.127   1.315   2.512 -0.5568  0.5324  0.0075
  767SOL  HW1   2300   1.050   1.372   2.479  0.3012  0.4089  0.6680
  767SOL  HW2   2301   1.205   1.333   2.451  0.0802 -0.3992 -2.6826
  768SOL  OW    2302   1.836   1.729   0.318 -0.1758  0.4236  0.2488
  768SOL  HW1   2303   1.780   1.655   0.363  1.4979 -0.3953  0.0001
  768SOL  HW2   2304   1.898   1.684   0.256 -2.7480  1.7980  2.5542
  769SOL  OW    2305   0.659   1.867   1.233  0.3484 -0.0539 -0.1741
  769SOL  HW1   2306   0.580   1.912   1.285 -2.3560  0.2950  1.6259
  769SOL  HW2   2307   0.624   1.794   1.176  1.5713  4.6537  1.5599
  770SOL  OW    2308   1.601   0.531   2.484 -0.1535  0.0349 -0.4362
  770SOL  HW1   2309   1.661   0.458   2.440  1.9381 -0.8242  1.5964
  770SOL  HW2   2310   1.572   0.602   2.420  0.0484 -1.3308  1.3699
  771SOL  OW    2311   1.129   2.822   2.762 -0.0507 -0.3586 -0.2664
  771SOL  HW1   2312   1.095   2.729   2.750  2.0371  0.2163 -0.3931
  771SOL  HW2   2313   1.101   2.884   2.686 -1.1826  0.1370  0.5800
  772SOL  OW    2314   1.484   2.836   1.322 -0.4160 -0.2208 -0.3616
  772SOL  HW1   2315   1.432   2.813   1.237 -0.3739 -0.7692 -0.1150
  772SOL  HW2   2316   1.580   2.800   1.330  0.1024  0.5959 -1.5005
  773SOL  OW    2317   0.831   0.169   2.073 -0.4195  0.3578  0.2765
  773SOL  HW1   2318   0.796   0.073   2.062 -0.0480  1.8496 -0.0109
  773SOL  HW2   2319   0.761   0.242   2.055  0.9874  0.2772 -2.2548
  774SOL  OW    2320   0.843   0.436   2.600  0.1209 -0.1894  0.0510
  774SOL  HW1   2321   0.927   0.458   2.647 -2.3814 -1.1068  1.2648
  774SOL  HW2   2322   0.823   0.492   2.518 -0.4691 -1.1037 -2.0812
  775SOL  OW    2323   1.076   3.034   0.045  0.3500  0.6110 -0.3556
  775SOL  HW1   2324   1.104   2.941   0.020  1.2383 -1.1995  2.1996
  775SOL  HW2   2325   1.006   3.069   3.081  0.7294 -0.2196  2.3181
  776SOL  OW    2326   2.410   1.742   1.534 -0.9341 -0.2387  0.3156
  776SOL  HW1   2327   2.387   1.662   1.473  0.8435  1.0014  2.0327
  776SOL  HW2   2328   2.511   1.747   1.548  0.6167  1.1259 -0.5679
  777SOL  OW    2329   2.014   0.168   2.150 -0.5273  0.0766  0.3727
  777SOL  HW1   2330   1.921   0.131   2.171 -0.0229 -1.2279 -0.8172
  777SOL  HW2   2331   2.026   0.180   2.052  1.0886  0.8917  0.3670
  778SOL  OW    2332   1.456   1.140   1.668 -0.3479  0.2445 -0.1358
  778SOL  HW1   2333   1.548   1.093   1.670  1.3040 -0.3119 -1.5050
  778SOL  HW2   2334   1.464   1.228   1.620  1.8996  1.6431 -1.9623
  779SOL  OW    2335   2.958   1.104   2.788  0.3278 -0.0923 -0.4077
  779SOL  HW1   2336   2.996   1.056   2.708 -2.5947  0.4734  1.0917
  779SOL  HW2   2337   2.854   1.108   2.795 -1.7313 -2.5151  0.8829
  780SOL  OW    2338   2.721   2.932   2.393 -0.3255 -0.6859 -0.0395
  780SOL  HW1   2339   2.688   2.957   2.303 -0.1424  1.4077  1.8386
  780SOL  HW2   2340   2.640   2.910   2.449  1.0467  1.1951  0.4533
  781SOL  OW    2341   0.040   1.150   1.235  0.2797  0.1413  0.1211
  781SOL  HW1   2342   0.084   1.079   1.299 -2.4136 -1.8448  0.2592
  781SOL  HW2   2343   0.061   1.247   1.260 -0.5361 -0.2218 -0.2567
  782SOL  OW    2344   0.477   2.015   1.369 -0.2642  0.6275 -0.1998
  782SOL  HW1   2345   0.431   1.962   1.447 -2.1880  3.2718 -1.1647
  782SOL  HW2   2346   0.496   2.111   1.385 -0.8260 -3.1761 -3.0097
  783SOL  OW    2347   2.196   2.308   2.989  0.6667  0.2177  0.3218
  783SOL  HW1   2348   2.226   2.214   3.001 -0.8905  0.3945 -1.5555
  783SOL  HW2   2349   2.113   2.311   2.933 -0.2285 -1.9270  2.0411
  784SOL  OW    2350   2.823   1.464   2.565 -0.1183 -0.2585  0.3300
  784SOL  HW1   2351   2.851   1.565   2.568 -2.1012  0.2702  0.8487
  784SOL  HW2   2352   2.893   1.411   2.508  2.9394 -1.0447 -0.1834
  785SOL  OW    2353   1.415   0.053   2.777  0.3474  0.0839  1.1126
  785SOL  HW1   2354   1.403   3.050   2.797  1.2740  0.0823 -1.3541
  785SOL  HW2   2355   1.443   0.092   2.866  0.7486 -0.0759 -1.9298
  786SOL  OW    2356   1.634   0.841   1.032  0.0911 -0.2719  0.6022
  786SOL  HW1   2357   1.587   0.754   1.047  0.4670  2.2399 -2.7273
  786SOL  HW2   2358   1.624   0.904   1.113  0.5398  3.2246  4.0905
  787SOL  OW    2359   1.801   1.382   0.625 -0.1118 -0.5395 -0.0526
  787SOL  HW1   2360   1.899   1.376   0.589 -0.5538 -1.4168 -0.6734
  787SOL  HW2   2361   1.777   1.313   0.696  0.5328 -0.1117 -1.7960
  788SOL  OW    2362   2.751   1.047   0.606 -0.1262 -0.0958  0.6256
  788SOL  HW1   2363   2.727   1.033   0.505  0.2490  0.5655 -2.0609
  788SOL  HW2   2364   2.793   0.965   0.642 -2.0298  2.7944 -2.2654
  789SOL  OW    2365   2.030   2.726   1.367  0.4941  0.1314  0.1796
  789SOL  HW1   2366   2.098   2.702   1.296 -3.6296 -0.0840  2.6862
  789SOL  HW2   2367   2.066   2.710   1.463 -1.7941  0.7231  3.0068
  790SOL  OW    2368   1.253   0.255   1.793 -0.1990 -0.3713 -0.4236
  790SOL  HW1   2369   1.158   0.221   1.812 -2.8614 -1.2465 -1.7620
  790SOL  HW2   2370   1.311   0.215   1.868 -0.7456  0.0004 -0.4813
  791SOL  OW    2371   0.488   2.649   2.005 -0.4521 -0.0084  0.0263
  791SOL  HW1   2372   0.554   2.638   2.080 -1.1791  0.7542 -0.4013
  791SOL  HW2   2373   0.392   2.655   2.042 -0.9858 -1.5023  2.1876
  792SOL  OW    2374   2.663   0.422   2.972 -0.1783 -0.0340 -0.4373
  792SOL  HW1   2375   2.565   0.431   2.946  1.4059 -1.0832 -1.2774
  792SOL  HW2   2376   2.678   0.320   2.984 -1.7193  3.2457  0.7050
  793SOL  OW    2377   1.991   1.958   0.266 -0.5327  0.2343  0.2304
  793SOL  HW1   2378   2.041   1.919   0.180 -0.1599 -0.7993 -0.3144
  793SOL  HW2   2379   1.936   1.888   0.318 -1.5020  1.9204 -0.5237
  794SOL  OW    2380   0.713   2.900   1.337  0.5775 -0.7193  0.5061
  794SOL  HW1   2381   0.667   2.812   1.324 -1.8691  3.0687  1.7937
  794SOL  HW2   2382   0.711   2.928   1.434  1.9652 -2.4944 -0.0886
  795SOL  OW    2383   0.935   1.454   2.335 -0.0378  0.6278 -0.1214
  795SOL  HW1   2384   0.892   1.545   2.363  0.7927 -0.9156  0.4500
  795SOL  HW2   2385   1.010   1.459   2.269 -1.0118  0.7703 -0.2085
  796SOL  OW    2386   2.680   2.065   1.631 -0.5731  0.0456  0.2652
  796SOL  HW1   2387   2.754   2.137   1.634 -1.6697 -0.4365  3.5634
  796SOL  HW2   2388   2.599   2.093   1.580 -0.1915 -1.0831  0.6291
  797SOL  OW    2389   2.458   0.726   3.078 -0.1620 -0.2407  0.1817
  797SOL  HW1   2390   2.554   0.721   0.010  1.6530  1.8366  1.9271
  797SOL  HW2   2391   2.411   0.642   0.007  0.4738  2.0301  1.0928
  798SOL  OW    2392   0.984   1.117   1.054  0.8444 -0.1139 -0.0102
  798SOL  HW1   2393   1.048   1.100   0.976 -0.1152  0.6786 -1.6690
  798SOL  HW2   2394   0.932   1.203   1.029 -1.0570  1.8461 -3.5966
  799SOL  OW    2395   0.340   1.910   2.588 -0.4871 -0.3863  0.1938
  799SOL  HW1   2396   0.394   1.835   2.641  0.9349 -1.2957  0.4088
  799SOL  HW2   2397   0.262   1.941   2.644 -1.8956  1.7272  0.2474
  800SOL  OW    2398   1.740   2.825   0.829 -0.1707 -0.2399 -0.4025
  800SOL  HW1   2399   1.719   2.847   0.925  0.6952 -2.8315 -1.8492
  800SOL  HW2   2400   1.713   2.904   0.776  0.6414 -1.0294  0.5650
  801SOL  OW    2401   2.525   2.959   2.586  0.6800  0.8398 -0.2386
  801SOL  HW1   2402   2.429   2.931   2.559  0.0943 -1.0625  1.5168
  801SOL  HW2   2403   2.526   3.038   2.646  0.0659 -3.2873 -1.6121
  802SOL  OW    2404   3.087   1.864   1.655 -0.1915 -0.9067 -0.0800
  802SOL  HW1   2405   0.080   1.817   1.663 -1.0296  1.2620  0.3715
  802SOL  HW2   2406   3.091   1.955   1.695 -0.1650 -2.6702  2.0261
  803SOL  OW    2407   1.915   1.966   2.743  0.2035 -0.7446 -0.4048
  803SOL  HW1   2408   1.888   2.041   2.810  1.8581  3.0871 -0.1444
  803SOL  HW2   2409   2.018   1.944   2.757  0.5954  1.0428  1.0045
  804SOL  OW    2410   2.165   3.028   0.611  0.0489  0.5212  0.0708
  804SOL  HW1   2411   2.117   2.970   0.679  2.0931 -1.8717  0.9920
  804SOL  HW2   2412   2.254   2.981   0.586  2.6083  0.0971  0.4486
  805SOL  OW    2413   2.023   1.449   1.530  0.4947 -0.0374  0.6396
  805SOL  HW1   2414   1.948   1.499   1.483  1.7980 -2.8839 -2.2296
  805SOL  HW2   2415   2.089   1.422   1.460  1.0506  0.0689  1.1324
  806SOL  OW    2416   2.967   2.703   2.702 -0.6835  0.1512 -0.0052
  806SOL  HW1   2417   2.875   2.734   2.739 -0.7366  0.5824  0.0785
  806SOL  HW2   2418   3.014   2.785   2.662 -0.6391  0.5500 -3.6115
  807SOL  OW    2419   1.231   1.743   0.471  0.0329  0.2043 -0.1471
  807SOL  HW1   2420   1.298   1.792   0.529 -1.2853 -1.0917 -3.9693
  807SOL  HW2   2421   1.274   1.716   0.387  0.4783 -1.0848  1.9767
  808SOL  OW    2422   0.900   1.867   2.833 -0.1008  0.1952 -0.0184
  808SOL  HW1   2423   0.980   1.908   2.786 -1.9836 -2.9674 -0.0946
  808SOL  HW2   2424   0.812   1.903   2.802 -1.2759  0.8820 -0.8932
  809SOL  OW    2425   2.253   0.783   2.775 -0.1206  0.1065  0.2381
  809SOL  HW1   2426   2.353   0.764   2.777 -1.9057 -1.2011  1.8434
  809SOL  HW2   2427   2.218   0.789   2.678 -1.0031 -1.3852  1.0883
  810SOL  OW    2428   1.696   1.560   0.452  0.0099 -0.3648 -0.2469
  810SOL  HW1   2429   1.726   1.483   0.511  2.3436  0.9489  0.8798
  810SOL  HW2   2430   1.632   1.517   0.391  2.6433  0.7768  2.0313
  811SOL  OW    2431   2.513   0.223   0.445  0.0657  0.0228 -0.4704
  811SOL  HW1   2432   2.535   0.178   0.534 -1.2347  0.3442  2.3342
  811SOL  HW2   2433   2.497   0.323   0.463  1.7782  2.3533 -0.2320
  812SOL  OW    2434   1.843   2.618   1.023  0.2383  0.2617  0.1468
  812SOL  HW1   2435   1.829   2.633   0.923 -0.9090 -0.7850  0.3923
  812SOL  HW2   2436   1.927   2.563   1.039  1.2933 -0.4968  0.4948
  813SOL  OW    2437   0.603   0.306   2.019 -0.2271 -0.0653  0.3117
  813SOL  HW1   2438   0.600   0.382   1.954  0.8274  1.0027  2.3868
  813SOL  HW2   2439   0.559   0.328   2.107 -0.7689  0.7212  0.8709
  814SOL  OW    2440   1.367   2.396   3.088  0.3593 -0.0484 -0.6166
  814SOL  HW1   2441   1.343   2.478   0.048  0.2091  2.1061  1.5235
  814SOL  HW2   2442   1.322   2.401   2.996 -0.7138  0.1545 -0.5356
  815SOL  OW    2443   2.700   1.172   2.289 -0.1534 -0.5497  0.2988
  815SOL  HW1   2444   2.790   1.130   2.311  0.1636 -0.5779 -0.6633
  815SOL  HW2   2445   2.694   1.266   2.331  0.5795  5.4849  2.4477
  816SOL  OW    2446   1.634   2.793   2.920 -0.1169 -0.5341 -0.4827
  816SOL  HW1   2447   1.533   2.816   2.907 -0.0684 -3.2016  0.2659
  816SOL  HW2   2448   1.652   2.700   2.959  0.0557  0.8232  1.2388
  817SOL  OW    2449   1.801   0.787   0.140  0.2887 -0.1126 -0.1159
  817SOL  HW1   2450   1.888   0.781   0.195  1.5038  0.8173 -0.2428
  817SOL  HW2   2451   1.811   0.844   0.055 -1.4148 -0.2390  1.2800
  818SOL  OW    2452   1.378   0.325   0.179  0.2552  0.4100  0.2552
  818SOL  HW1   2453   1.327   0.380   0.110 -2.8475 -0.8233 -1.3561
  818SOL  HW2   2454   1.364   0.229   0.156 -0.2817 -0.2055  0.4077
  819SOL  OW    2455   1.830   0.918   3.011 -0.0631  0.2239 -0.1257
  819SOL  HW1   2456   1.817   1.013   3.044 -0.7183 -1.8198  1.2236
  819SOL  HW2   2457   1.786   0.899   2.923 -1.1393 -0.7509 -0.9057
  820SOL  OW    2458   0.225   1.314   0.186  0.3320  0.2403  0.5674
  820SOL  HW1   2459   0.202   1.213   0.188 -0.0516 -2.9143 -1.1117
  820SOL  HW2   2460   0.217   1.356   0.280  1.5944 -0.4077  0.4447
  821SOL  OW    2461   0.176   2.428   0.032 -1.1725 -0.6604  0.7027
  821SOL  HW1   2462   0.106   2.384   3.070  0.4463  1.3448 -0.8178
  821SOL  HW2   2463   0.217   2.501   3.066  1.5294 -3.1324 -0.8107
  822SOL  OW    2464   0.318   2.689   2.419  0.3036 -0.3001  0.6673
  822SOL  HW1   2465   0.334   2.591   2.430  1.5819  0.0831  0.2129
  822SOL  HW2   2466   0.410   2.737   2.418  2.7250  2.4671 -0.6360
  823SOL  OW    2467   1.910   2.560   0.154 -0.3447  0.0813 -0.1811
  823SOL  HW1   2468   1.900   2.514   0.243  0.0620  0.3495 -1.2333
  823SOL  HW2   2469   2.000   2.529   0.123  2.6389 -0.7914  3.2156
  824SOL  OW    2470   2.043   1.637   0.144 -0.5230 -0.5712  0.2068
  824SOL  HW1   2471   1.986   1.594   0.070 -1.6787 -3.7399  1.6351
  824SOL  HW2   2472   2.078   1.733   0.116  1.2083  1.8390  0.1480
  825SOL  OW    2473   2.724   2.505   3.000 -0.2626  0.3353  0.0711
  825SOL  HW1   2474   2.796   2.561   3.044 -0.2390 -0.5649 -1.3043
  825SOL  HW2   2475   2.665   2.467   3.071  0.3189  2.9791 -0.9872
  826SOL  OW    2476   1.679   0.987   1.642 -0.1957 -0.4875 -0.0431
  826SOL  HW1   2477   1.715   0.932   1.717  0.2310  1.5187  0.3176
  826SOL  HW2   2478   1.659   0.934   1.560 -1.6033  0.5373  3.4651
  827SOL  OW    2479   1.645   2.956   2.508  0.6825 -0.1026  0.2072
  827SOL  HW1   2480   1.743   2.929   2.520  2.3132  1.3106  1.5249
  827SOL  HW2   2481   1.591   2.877   2.555  1.9750  0.5033  3.2522
  828SOL  OW    2482   1.527   0.743   0.155  0.1042 -0.1811  0.1148
  828SOL  HW1   2483   1.475   0.763   0.073  2.0793  0.9730  1.5488
  828SOL  HW2   2484   1.627   0.770   0.148  0.0820 -1.3036 -0.4136
  829SOL  OW    2485   1.715   2.566   3.050  0.0640 -0.0829  0.1561
  829SOL  HW1   2486   1.696   2.464   3.044 -0.7685  0.8883 -1.1811
  829SOL  HW2   2487   1.803   2.583   0.012  5.5053  1.9713 -3.3766
  830SOL  OW    2488   1.369   1.483   1.252  0.2499  0.4077  0.1679
  830SOL  HW1   2489   1.372   1.510   1.154 -0.8624 -1.4243 -0.2687
  830SOL  HW2   2490   1.281   1.437   1.266 -0.7837  0.8256 -1.1943
  831SOL  OW    2491   1.049   2.008   2.579  0.2123  0.1154 -0.0885
  831SOL  HW1   2492   1.025   2.031   2.482  2.4363  1.4964 -1.7668
  831SOL  HW2   2493   1.019   2.088   2.637  1.4225  0.0504  0.2521
  832SOL  OW    2494   1.226   2.262   1.212  0.3785  0.0108  0.2204
  832SOL  HW1   2495   1.203   2.257   1.312  0.5328  0.3558  1.7904
  832SOL  HW2   2496   1.234   2.357   1.184  0.0883 -2.1221  0.0305
  833SOL  OW    2497   0.222   2.852   0.573  0.1955 -0.5586  0.4950
  833SOL  HW1   2498   0.235   2.817   0.669  3.4851 -0.9504  0.0868
  833SOL  HW2   2499   0.144   2.921   0.565  0.2606 -0.4607 -3.1197
  834SOL  OW    2500   0.746   0.993   1.705  0.4086  0.1341 -0.2480
  834SOL  HW1   2501   0.841   0.968   1.693 -0.1305  0.0048 -1.2650
  834SOL  HW2   2502   0.683   0.968   1.626 -0.1725 -0.1350 -1.4949
  835SOL  OW    2503   2.693   1.709   0.184 -0.2605 -0.2511  0.2056
  835SOL  HW1   2504   2.748   1.627   0.158  2.3407 -0.4644 -2.0220
  835SOL  HW2   2505   2.610   1.728   0.132  1.8645  2.3449 -0.3746
  836SOL  OW    2506   2.773   0.052   1.096  0.4681  0.2143 -0.2991
  836SOL  HW1   2507   2.797   3.067   1.151 -0.7706  0.5183 -0.5681
  836SOL  HW2   2508   2.855   0.111   1.091  0.6285 -1.5265  0.3128
  837SOL  OW    2509   1.480   1.129   0.055 -0.3360 -0.0734 -0.0665
  837SOL  HW1   2510   1.501   1.136   0.155  1.4270 -0.3538  1.5633
  837SOL  HW2   2511   1.381   1.108   0.034 -2.5315 -0.0212 -1.8090
  838SOL  OW    2512   1.682   2.303   2.983  0.2051 -0.0105  0.8999
  838SOL  HW1   2513   1.619   2.240   2.934  0.6035  0.0309 -3.2352
  838SOL  HW2   2514   1.765   2.257   3.018 -2.8983  0.7785 -1.1488
  839SOL  OW    2515   0.292   1.330   2.725 -0.2815  0.0876 -0.5223
  839SOL  HW1   2516   0.361   1.259   2.753 -0.7762  1.1933  1.2071
  839SOL  HW2   2517   0.245   1.310   2.638 -1.8705  2.3567 -0.2516
  840SOL  OW    2518   2.615   1.412   2.396  0.2040 -0.2944 -0.1379
  840SOL  HW1   2519   2.604   1.498   2.342 -1.7004  1.5120  0.2940
  840SOL  HW2   2520   2.695   1.428   2.465  0.7096  0.0726 -0.3559
  841SOL  OW    2521   2.237   0.383   1.103  0.3725 -0.1529  0.1142
  841SOL  HW1   2522   2.216   0.295   1.065  1.6176  5.3167  2.7779
  841SOL  HW2   2523   2.335   0.410   1.089  1.2916  1.1317  0.8056
  842SOL  OW    2524   0.844   1.363   2.796  0.3018  0.3652 -0.0501
  842SOL  HW1   2525   0.894   1.438   2.749  1.7187 -0.3701  0.2236
  842SOL  HW2   2526   0.842   1.375   2.893  1.0826 -1.7458 -2.6138
  843SOL  OW    2527   2.170   0.381   1.373  0.4298 -0.0214 -0.4939
  843SOL  HW1   2528   2.200   0.376   1.276 -0.6552  1.5467 -0.2589
  843SOL  HW2   2529   2.091   0.443   1.377 -1.2835 -0.1169  1.0525
  844SOL  OW    2530   2.314   0.157   2.839 -0.5152 -0.1102  0.3764
  844SOL  HW1   2531   2.223   0.204   2.814 -4.5699  0.0092 -0.1165
  844SOL  HW2   2532   2.297   0.068   2.883  1.0041  2.1310  0.7250
  845SOL  OW    2533   2.222   3.093   2.165  0.5638 -0.4510  0.6250
  845SOL  HW1   2534   2.314   0.040   2.153 -0.8119 -0.9399 -0.0213
  845SOL  HW2   2535   2.148   0.066   2.158 -1.8785  3.4864  1.3287
  846SOL  OW    2536   2.226   2.260   1.902  0.0271 -0.0271 -0.5522
  846SOL  HW1   2537   2.138   2.257   1.852  1.3760  1.4032 -1.7225
  846SOL  HW2   2538   2.295   2.316   1.849  1.8022  1.3242 -1.5254
  847SOL  OW    2539   0.382   0.337   1.678  0.5330  0.5691  0.5969
  847SOL  HW1   2540   0.450   0.265   1.699 -2.9852 -0.0458 -1.5863
  847SOL  HW2   2541   0.412   0.426   1.722  0.6316  1.7443  0.2378
  848SOL  OW    2542   0.369   0.880   0.864  0.3494  0.1667  0.3224
  848SOL  HW1   2543   0.375   0.922   0.960  3.1844 -0.1332  1.2733
  848SOL  HW2   2544   0.458   0.891   0.822 -0.8054 -0.9659  0.6152
  849SOL  OW    2545   0.127   0.932   2.724 -0.3950  0.4926  0.3197
  849SOL  HW1   2546   0.168   0.925   2.625  3.7235 -1.5284 -2.6174
  849SOL  HW2   2547   0.198   0.937   2.796  0.1667  1.7224 -0.1021
  850SOL  OW    2548   1.165   2.681   1.390  0.1994  0.0704  0.2341
  850SOL  HW1   2549   1.236   2.703   1.459  0.3266 -1.2270 -0.4980
  850SOL  HW2   2550   1.097   2.756   1.371  0.2722 -0.5151  0.4319
  851SOL  OW    2551   0.594   0.340   0.077 -0.0465 -0.1383 -0.3131
  851SOL  HW1   2552   0.538   0.350   3.089  1.4457  1.7446  1.6768
  851SOL  HW2   2553   0.682   0.296   0.056  0.1356  2.6016 -1.4627
  852SOL  OW    2554   1.540   1.934   2.188  0.9011 -0.0667 -0.4395
  852SOL  HW1   2555   1.610   1.859   2.204 -0.4619 -0.9763 -1.3741
  852SOL  HW2   2556   1.590   2.021   2.170  0.0597  0.3561 -1.2627
  853SOL  OW    2557   0.062   0.698   0.614 -0.3932 -0.3370 -0.0967
  853SOL  HW1   2558   0.094   0.774   0.661 -0.1982 -2.9107 -1.7416
  853SOL  HW2   2559   0.023   0.722   0.523  1.2637  0.3747  1.1232
  854SOL  OW    2560   0.205   1.442   1.595  0.1973  0.0716  0.1576
  854SOL  HW1   2561   0.215   1.419   1.495  1.8043  0.9109 -0.0077
  854SOL  HW2   2562   0.290   1.408   1.638 -0.3703  1.6914 -1.9433
  855SOL  OW    2563   1.015   0.157   1.852 -0.3848 -0.1902 -0.1677
  855SOL  HW1   2564   1.001   0.184   1.754  1.2556 -1.1382 -0.4027
  855SOL  HW2   2565   0.940   0.179   1.913  2.5199 -1.6238 -0.0042
  856SOL  OW    2566   0.230   0.664   2.534 -0.5845  0.5068 -0.0150
  856SOL  HW1   2567   0.137   0.643   2.567 -1.2123 -1.0300 -1.4083
  856SOL  HW2   2568   0.234   0.760   2.496 -0.3081  1.3712 -0.1936
  857SOL  OW    2569   2.518   0.498   2.649 -0.3466 -0.3574 -0.2113
  857SOL  HW1   2570   2.469   0.537   2.567  2.1972  1.7525 -0.1753
  857SOL  HW2   2571   2.541   0.398   2.640  2.0389 -0.0506 -0.9172
  858SOL  OW    2572   2.683   0.213   0.857  0.5587 -0.0763  0.1226
  858SOL  HW1   2573   2.720   0.159   0.935 -2.4099 -0.5129  2.0458
  858SOL  HW2   2574   2.720   0.308   0.844 -1.3039  2.3818  0.6860
  859SOL  OW    2575   1.920   0.819   1.333 -0.0213  0.0533  0.4472
  859SOL  HW1   2576   1.845   0.874   1.295 -0.1258  0.1912  1.4813
  859SOL  HW2   2577   1.989   0.793   1.260  3.4093 -0.1488  0.4346
  860SOL  OW    2578   0.428   1.645   0.144 -0.1620 -0.3361  0.4413
  860SOL  HW1   2579   0.455   1.588   0.225  2.1693 -1.4298 -0.3192
  860SOL  HW2   2580   0.341   1.612   0.111 -0.9339  0.2469 -1.2637
  861SOL  OW    2581   1.931   2.908   2.537 -0.1339 -0.3104 -0.1557
  861SOL  HW1   2582   2.020   2.947   2.508  0.1744 -1.8807 -1.5739
  861SOL  HW2   2583   1.930   2.872   2.632 -2.7599  0.9362  0.7387
  862SOL  OW    2584   0.884   1.671   3.039  0.3189 -0.3580  0.5094
  862SOL  HW1   2585   0.966   1.613   3.017 -0.4711  0.7923 -0.1424
  862SOL  HW2   2586   0.885   1.761   2.989 -0.3234  1.4399  0.8397
  863SOL  OW    2587   0.307   1.884   0.003  0.2231  0.2081  0.3307
  863SOL  HW1   2588   0.342   1.810   0.069  2.7519 -0.1578  1.6909
  863SOL  HW2   2589   0.244   1.947   0.057 -0.0307  0.0208 -2.3530
  864SOL  OW    2590   3.017   2.326   2.182  0.4403  0.4113 -0.1222
  864SOL  HW1   2591   3.034   2.229   2.158 -0.8830 -1.0315  2.0218
  864SOL  HW2   2592   3.089   2.365   2.240 -0.8163 -0.9732 -0.2421
  865SOL  OW    2593   0.113   2.716   0.368 -0.2862 -0.2326 -0.0331
  865SOL  HW1   2594   0.150   2.772   0.444 -0.6463 -1.0318  0.5599
  865SOL  HW2   2595   0.126   2.764   0.280 -1.8435 -0.9864  0.1013
  866SOL  OW    2596   2.369   0.484   0.027  0.8014 -0.4218 -0.2996
  866SOL  HW1   2597   2.372   0.459   3.026 -0.0526 -0.5121 -0.8644
  866SOL  HW2   2598   2.327   0.408   0.080 -0.2280  0.8441  1.4494
  867SOL  OW    2599   0.262   1.813   2.350 -0.2181 -0.1128 -0.2774
  867SOL  HW1   2600   0.242   1.883   2.278  0.0306 -1.7247 -0.0140
  867SOL  HW2   2601   0.291   1.858   2.442 -1.8009  2.5996  0.6975
  868SOL  OW    2602   0.772   2.030   0.094 -0.1377  0.1584 -0.1396
  868SOL  HW1   2603   0.703   2.065   0.031  0.5761 -1.8096  0.7955
  868SOL  HW2   2604   0.727   1.967   0.164  0.1662  1.9015  1.9227
  869SOL  OW    2605   1.112   0.873   1.428 -0.2484 -0.6015  0.0683
  869SOL  HW1   2606   1.087   0.873   1.529 -0.2457  0.0166  1.9857
  869SOL  HW2   2607   1.211   0.859   1.421  1.1325 -0.9078 -2.4322
  870SOL  OW    2608   2.729   1.347   1.055  0.1283  0.2545  0.2862
  870SOL  HW1   2609   2.792   1.266   1.068 -0.2794  0.2003  2.1206
  870SOL  HW2   2610   2.652   1.343   1.123  0.4105  0.4439 -0.0096
  871SOL  OW    2611   0.177   0.685   1.424 -0.5229  0.4288 -0.2969
  871SOL  HW1   2612   0.260   0.666   1.367 -2.1663  0.3913 -0.2227
  871SOL  HW2   2613   0.095   0.628   1.403 -0.4629  1.9810  0.4105
  872SOL  OW    2614   1.025   0.693   2.259 -0.1613 -0.1131 -0.0863
  872SOL  HW1   2615   1.086   0.752   2.312 -1.9373 -0.0360  0.5642
  872SOL  HW2   2616   1.080   0.615   2.222 -1.7347  2.5901 -0.0541
  873SOL  OW    2617   2.720   0.587   2.170  0.2841  0.1656  0.3150
  873SOL  HW1   2618   2.648   0.655   2.196  1.1368  2.9700  1.5440
  873SOL  HW2   2619   2.676   0.495   2.148 -2.0603 -3.5558  1.6559
  874SOL  OW    2620   0.253   1.561   2.859  0.1779 -0.1529 -0.3842
  874SOL  HW1   2621   0.260   1.476   2.802  0.1974 -1.1447 -0.2937
  874SOL  HW2   2622   0.232   1.535   2.958  0.2613  1.7387  0.7293
  875SOL  OW    2623   0.961   2.184   0.717  0.9238 -0.0280 -0.8809
  875SOL  HW1   2624   1.048   2.223   0.758  1.1690 -2.2891  2.6035
  875SOL  HW2   2625   0.974   2.172   0.615  1.2980 -0.1651  0.5749
  876SOL  OW    2626   0.367   0.061   2.674  0.7257 -0.2585  0.0696
  876SOL  HW1   2627   0.345   0.018   2.763  1.6949  1.9995  0.5161
  876SOL  HW2   2628   0.291   0.115   2.636 -1.7832 -0.9544 -1.0859
  877SOL  OW    2629   1.804   2.136   0.647  0.3012  0.2955 -0.5347
  877SOL  HW1   2630   1.775   2.174   0.737  0.2427  0.8970  0.4675
  877SOL  HW2   2631   1.733   2.153   0.573 -0.3698 -0.8794  0.8892
  878SOL  OW    2632   2.138   2.081   1.118 -0.3013  0.0021  0.2293
  878SOL  HW1   2633   2.152   1.991   1.072  1.7739 -0.3435 -1.6429
  878SOL  HW2   2634   2.065   2.131   1.074  1.0621  0.5959 -1.0034
  879SOL  OW    2635   2.110   2.308   1.347  0.8227 -0.1388 -0.3327
  879SOL  HW1   2636   2.163   2.340   1.268 -1.3760 -1.1045 -0.7747
  879SOL  HW2   2637   2.010   2.298   1.317 -2.0760 -0.2949 -0.8798
  880SOL  OW    2638   0.805   1.108   2.947 -0.5162 -0.0125 -0.1386
  880SOL  HW1   2639   0.889   1.112   3.010  2.0530  0.4886  0.6732
  880SOL  HW2   2640   0.756   1.194   2.935 -0.3707 -0.3065 -1.3271
  881SOL  OW    2641   1.843   2.235   1.352  0.4760 -0.2918 -0.2986
  881SOL  HW1   2642   1.834   2.190   1.441 -0.6090  0.2902 -4.1966
  881SOL  HW2   2643   1.760   2.213   1.295 -0.0180 -1.0432 -0.2058
  882SOL  OW    2644   1.583   0.290   0.802 -0.1738 -0.4880  0.1917
  882SOL  HW1   2645   1.678   0.262   0.801  0.0726 -0.7843  1.2525
  882SOL  HW2   2646   1.549   0.286   0.706  1.3548  2.7581  1.1652
  883SOL  OW    2647   1.616   2.700   2.002  0.0677  0.0830 -0.4855
  883SOL  HW1   2648   1.517   2.672   2.001 -1.0335  0.7414 -1.3157
  883SOL  HW2   2649   1.641   2.736   2.094 -0.6753 -3.1897 -0.6546
  884SOL  OW    2650   0.155   1.018   0.256 -0.1060  0.3849 -0.4338
  884SOL  HW1   2651   0.136   0.952   0.186  2.4475  1.5799  0.8933
  884SOL  HW2   2652   0.069   1.034   0.302 -1.4984  0.1490  0.7284
  885SOL  OW    2653   0.846   1.371   1.040 -0.4066 -0.5705 -0.7618
  885SOL  HW1   2654   0.885   1.458   1.080  2.0421  3.4217  2.4904
  885SOL  HW2   2655   0.831   1.377   0.940 -2.4748  1.5816  0.5753
  886SOL  OW    2656   1.766   0.514   0.688  0.3781  0.0094  0.3295
  886SOL  HW1   2657   1.675   0.465   0.687 -0.3011 -0.2948  0.4841
  886SOL  HW2   2658   1.824   0.479   0.764 -1.9691 -0.3582 -1.0790
  887SOL  OW    2659   2.537   0.095   1.552 -0.2168 -0.5380 -0.5930
  887SOL  HW1   2660   2.500   0.185   1.513  1.4376  3.3138  0.7482
  887SOL  HW2   2661   2.503   0.082   1.648  1.9596 -2.2835  1.5863
  888SOL  OW    2662   2.707   2.285   0.936  0.1948  0.4032 -0.4750
  888SOL  HW1   2663   2.802   2.264   0.904 -2.5613  0.7193  1.5610
  888SOL  HW2   2664   2.697   2.261   1.035  0.6708  0.9935  3.0678
  889SOL  OW    2665   0.477   2.375   0.310  0.7805  0.3465 -0.0547
  889SOL  HW1   2666   0.390   2.344   0.359 -1.3573  1.5409  0.0390
  889SOL  HW2   2667   0.474   2.324   0.219 -0.5353 -0.6603 -2.2724
  890SOL  OW    2668   2.087   1.535   0.872 -0.2882 -0.5514  0.0939
  890SOL  HW1   2669   2.090   1.437   0.845  1.2034 -0.5316  0.1871
  890SOL  HW2   2670   2.133   1.605   0.809 -0.3558  1.5727 -1.0050
  891SOL  OW    2671   1.137   1.655   0.703 -0.3090  0.1652 -0.0466
  891SOL  HW1   2672   1.176   1.680   0.610  2.0179 -1.5531  0.1546
  891SOL  HW2   2673   1.177   1.713   0.780  0.4482  0.8246  0.3660
  892SOL  OW    2674   2.241   2.705   1.206 -0.0049  0.5811 -0.2709
  892SOL  HW1   2675   2.243   2.735   1.106  0.0798  1.2719 -2.6252
  892SOL  HW2   2676   2.302   2.623   1.223  1.0123 -0.5212  0.3119
  893SOL  OW    2677   2.865   0.439   1.764  0.1655 -0.2548 -0.0879
  893SOL  HW1   2678   2.761   0.433   1.790 -2.1210  0.1956  1.1212
  893SOL  HW2   2679   2.925   0.396   1.831 -0.2531 -0.0698 -2.0040
  894SOL  OW    2680   0.550   2.300   0.991  0.7099  0.7893  0.2125
  894SOL  HW1   2681   0.546   2.334   0.896  1.3957 -0.6589  0.2034
  894SOL  HW2   2682   0.597   2.211   0.990 -0.2997  0.0929 -0.7739
  895SOL  OW    2683   1.467   2.962   1.705 -0.4214  0.0057 -0.2918
  895SOL  HW1   2684   1.561   2.923   1.715 -0.1239 -1.0257  1.0368
  895SOL  HW2   2685   1.472   3.061   1.671 -1.5155  0.4901  0.4559
  896SOL  OW    2686   2.077   1.180   2.929  0.4223  0.6287 -0.1910
  896SOL  HW1   2687   2.097   1.081   2.944  0.3476  3.2796  1.9211
  896SOL  HW2   2688   2.052   1.194   2.830  0.3544  0.3653  0.6037
  897SOL  OW    2689   2.369   0.461   2.106  0.5105 -0.0945  0.3933
  897SOL  HW1   2690   2.375   0.563   2.094 -0.2007  0.6727 -1.6505
  897SOL  HW2   2691   2.291   0.433   2.169 -2.4413 -1.1481  0.5671
  898SOL  OW    2692   0.366   1.142   1.423  0.0850  0.2854  0.2467
  898SOL  HW1   2693   0.270   1.109   1.427  0.1755 -1.5831  2.4452
  898SOL  HW2   2694   0.382   1.167   1.321  1.7463  1.7588 -1.7367
  899SOL  OW    2695   2.600   2.542   2.737 -0.4999  0.3894 -0.4351
  899SOL  HW1   2696   2.624   2.528   2.835 -0.5612  0.3943 -1.8077
  899SOL  HW2   2697   2.502   2.538   2.717  1.6174 -2.1011 -1.4586
  900SOL  OW    2698   0.170   0.196   2.287  0.5438 -0.1161  0.3676
  900SOL  HW1   2699   0.200   0.143   2.206  1.4371  1.2273 -1.0441
  900SOL  HW2   2700   0.184   0.295   2.271  1.2378  5.2257 -0.8140
  901SOL  OW    2701   2.120   1.866   0.038 -0.2908 -0.1998 -0.4261
  901SOL  HW1   2702   2.197   1.917   3.088 -1.8661 -2.8281 -0.0890
  901SOL  HW2   2703   2.041   1.858   3.074 -1.5838  1.1625  0.8877
  902SOL  OW    2704   1.932   2.310   0.827 -0.7216  0.2116  0.0193
  902SOL  HW1   2705   1.873   2.229   0.849  3.1852  1.4016 -0.0675
  902SOL  HW2   2706   1.886   2.392   0.787  2.1953  2.2102  0.6679
  903SOL  OW    2707   0.386   1.856   1.565 -0.2530  0.1183  0.3097
  903SOL  HW1   2708   0.320   1.817   1.629  0.9002  0.3061  1.9057
  903SOL  HW2   2709   0.475   1.811   1.577 -3.1188  3.0103 -0.0694
  904SOL  OW    2710   2.821   1.064   0.047 -0.1521  0.0292  0.1211
  904SOL  HW1   2711   2.733   1.079   0.003  1.1469  2.1789  0.4356
  904SOL  HW2   2712   2.882   1.144   0.019 -0.2168 -0.8288 -1.1329
  905SOL  OW    2713   2.138   2.486   0.970  0.4369  0.3860 -0.1148
  905SOL  HW1   2714   2.097   2.419   0.907 -0.2526 -0.2729  0.2507
  905SOL  HW2   2715   2.194   2.431   1.036  1.6161  2.3691  2.5497
  906SOL  OW    2716   1.551   2.496   0.429 -0.1138  0.3756  0.1058
  906SOL  HW1   2717   1.450   2.473   0.428 -0.2925  0.6807  3.7854
  906SOL  HW2   2718   1.572   2.576   0.487 -0.3459 -4.2276 -0.9164
  907SOL  OW    2719   0.009   0.580   2.265 -0.1582  0.0640 -0.1078
  907SOL  HW1   2720   3.026   0.543   2.318  0.1349 -0.4557  0.5176
  907SOL  HW2   2721   3.081   0.625   2.177  1.6514 -2.8797  1.7012
  908SOL  OW    2722   1.361   1.403   0.616 -0.3350  0.2522  0.3837
  908SOL  HW1   2723   1.350   1.314   0.666  2.3692 -2.4284 -1.6145
  908SOL  HW2   2724   1.407   1.474   0.672  1.0989  0.1698  0.0073
  909SOL  OW    2725   2.349   3.078   1.143 -0.3005  0.1073 -0.1776
  909SOL  HW1   2726   2.408   3.006   1.099  1.4616  0.4018 -1.9638
  909SOL  HW2   2727   2.322   3.048   1.240 -0.1468 -0.1017  1.2628
  910SOL  OW    2728   1.646   2.745   2.259 -0.5351 -0.4303  0.4783
  910SOL  HW1   2729   1.579   2.671   2.274  1.2651  1.9839  0.1404
  910SOL  HW2   2730   1.608   2.836   2.286 -0.0278 -0.9733 -1.9914
  911SOL  OW    2731   1.527   3.004   2.275 -0.2050 -0.1378 -0.4536
  911SOL  HW1   2732   1.557   3.009   2.374 -0.1534 -0.3961  1.2328
  911SOL  HW2   2733   1.438   3.058   2.265  1.3723  0.4201 -2.3039
  912SOL  OW    2734   0.323   0.606   0.579 -0.4371 -0.1438 -0.5602
  912SOL  HW1   2735   0.340   0.629   0.479 -0.2550  0.9210  0.6232
  912SOL  HW2   2736   0.226   0.610   0.605  2.1087  2.0645  1.1759
  913SOL  OW    2737   0.019   2.725   1.075  0.5796  0.2229  0.0520
  913SOL  HW1   2738   0.065   2.642   1.038  1.4808 -0.7599 -0.3872
  913SOL  HW2   2739   0.043   2.811   1.023 -0.8958 -3.1468 -0.2575
  914SOL  OW    2740   0.110   0.828   0.060 -0.1152  0.3763 -0.0970
  914SOL  HW1   2741   0.132   0.734   0.087 -0.4361  0.5485  2.8725
  914SOL  HW2   2742   0.018   0.832   0.019  0.1469  1.0782  0.6072
  915SOL  OW    2743   2.804   2.246   2.789 -0.0043 -0.0357  0.1162
  915SOL  HW1   2744   2.789   2.186   2.871  0.0343  1.7933 -0.1925
  915SOL  HW2   2745   2.850   2.327   2.827 -1.0756 -1.8290  2.4357
  916SOL  OW    2746   1.651   2.203   1.168  0.0659 -0.1509  0.2449
  916SOL  HW1   2747   1.626   2.295   1.133 -2.7926  3.0611 -2.3232
  916SOL  HW2   2748   1.561   2.148   1.180 -2.2617 -1.2780  0.2762
  917SOL  OW    2749   1.768   2.096   0.929  0.2999 -0.0086  0.3996
  917SOL  HW1   2750   1.740   2.126   1.022  0.4433 -2.8824 -2.0553
  917SOL  HW2   2751   1.756   1.993   0.926 -0.1092 -1.1605  0.4318
  918SOL  OW    2752   1.830   1.873   1.414  0.1853 -1.0049  0.4459
  918SOL  HW1   2753   1.807   1.876   1.512 -1.1500  0.1058 -0.6808
  918SOL  HW2   2754   1.924   1.917   1.398  3.0637  1.1423 -2.3949
  919SOL  OW    2755   1.540   2.400   0.811 -0.3205 -0.1371  0.3899
  919SOL  HW1   2756   1.495   2.479   0.760 -1.7055  2.2703 -1.3556
  919SOL  HW2   2757   1.567   2.421   0.905 -2.5049  1.4755 -1.4134
  920SOL  OW    2758   2.696   2.713   1.512 -0.4851 -0.3148 -0.2402
  920SOL  HW1   2759   2.789   2.730   1.486 -2.4378 -0.1011 -1.7247
  920SOL  HW2   2760   2.648   2.802   1.515  1.5576  0.6761 -1.8141
  921SOL  OW    2761   2.900   1.135   1.097  0.3718  0.0487 -0.0857
  921SOL  HW1   2762   2.855   1.044   1.072 -0.8221 -2.2026 -2.3407
  921SOL  HW2   2763   2.982   1.114   1.152 -1.2600  0.7640 -0.7469
  922SOL  OW    2764   0.032   2.093   0.576 -0.2961  0.0317  0.0923
  922SOL  HW1   2765   3.059   2.157   0.621 -2.1250  0.4906  0.3336
  922SOL  HW2   2766   3.091   1.997   0.592 -1.5666 -0.1057  1.0048
  923SOL  OW    2767   0.091   3.087   0.540 -0.0576  0.0048  0.4837
  923SOL  HW1   2768   0.178   0.029   0.568  0.1862 -1.1527 -0.0996
  923SOL  HW2   2769   0.023   0.066   0.526  0.7795 -1.5432 -0.7795
  924SOL  OW    2770   2.541   2.160   0.038 -0.0257  0.0070  0.2899
  924SOL  HW1   2771   2.501   2.101   0.110 -1.1669 -0.9225  0.5621
  924SOL  HW2   2772   2.587   2.244   0.067 -2.5258  0.7363 -1.5610
  925SOL  OW    2773   2.496   1.571   0.701 -0.4020  0.3932  0.7885
  925SOL  HW1   2774   2.552   1.584   0.785  1.1003 -1.5087  0.9395
  925SOL  HW2   2775   2.558   1.577   0.616  1.9892 -1.7299 -1.2599
  926SOL  OW    2776   2.805   0.109   1.579  0.0597 -0.0813 -0.6525
  926SOL  HW1   2777   2.821   0.020   1.632  1.7772 -0.8937  0.1108
  926SOL  HW2   2778   2.706   0.122   1.556 -0.8885 -0.2283 -1.0275
  927SOL  OW    2779   0.761   3.023   2.026 -0.0496 -0.5187 -0.1271
  927SOL  HW1   2780   0.833   2.955   1.992  1.2531 -0.6937 -1.3987
  927SOL  HW2   2781   0.673   2.971   2.032  1.3981 -0.2071 -0.1981
  928SOL  OW    2782   2.264   0.993   2.336  0.3282  0.0063 -0.3500
  928SOL  HW1   2783   2.356   1.001   2.378 -3.3596 -1.9979 -0.2691
  928SOL  HW2   2784   2.273   0.973   2.238  0.6697 -1.6773  4.6701
  929SOL  OW    2785   2.550   2.679   1.250  0.2358  0.1455 -0.2419
  929SOL  HW1   2786   2.618   2.669   1.329  0.5893 -0.0504  1.1885
  929SOL  HW2   2787   2.576   2.755   1.192 -1.3687 -3.4380  2.6294
  930SOL  OW    2788   2.301   0.983   2.069  0.2456  0.2624  0.1985
  930SOL  HW1   2789   2.246   0.999   1.983 -0.1307  3.2103  2.0162
  930SOL  HW2   2790   2.391   1.030   2.056  1.3897 -2.5335 -2.6600
  931SOL  OW    2791   1.362   1.408   2.395  0.1364 -0.1002 -0.3993
  931SOL  HW1   2792   1.349   1.505   2.371  3.6813 -0.8819 -0.7826
  931SOL  HW2   2793   1.424   1.362   2.328  1.1525 -0.6414 -2.0869
  932SOL  OW    2794   2.660   1.037   1.809 -0.2631 -0.5896 -0.0522
  932SOL  HW1   2795   2.584   1.069   1.755  2.8008 -1.8253  0.1398
  932SOL  HW2   2796   2.717   1.117   1.840 -1.2065 -1.1782  2.1926
  933SOL  OW    2797   2.501   0.421   1.073 -0.3181  0.3318 -0.4523
  933SOL  HW1   2798   2.517   0.323   1.090 -0.9856 -1.5315  1.9107
  933SOL  HW2   2799   2.541   0.460   0.992  0.3563 -0.9866  0.4621
  934SOL  OW    2800   1.551   1.085   2.454  0.1581  0.6803 -0.3386
  934SOL  HW1   2801   1.536   1.099   2.558  2.0452 -0.9668  1.4999
  934SOL  HW2   2802   1.644   1.051   2.426  2.7263 -3.1789 -0.1351
  935SOL  OW    2803   0.615   0.955   0.755 -0.5419 -0.4132 -0.1241
  935SOL  HW1   2804   0.679   0.908   0.818  1.1841  1.7706 -0.1094
  935SOL  HW2   2805   0.604   1.055   0.777  0.4215  3.2315 -3.2106
  936SOL  OW    2806   0.662   0.228   0.813 -0.1228 -0.4390  0.5750
  936SOL  HW1   2807   0.583   0.254   0.871  3.5959 -0.2241  0.7379
  936SOL  HW2   2808   0.664   0.293   0.732  2.1357  2.5154  0.5509
  937SOL  OW    2809   0.239   2.694   2.145  0.0710 -0.0016 -0.9410
  937SOL  HW1   2810   0.217   2.711   2.048  0.9476 -1.5188  1.1846
  937SOL  HW2   2811   0.264   2.781   2.192  3.0755 -0.6314 -1.3689
  938SOL  OW    2812   2.765   1.449   0.545 -0.0027 -0.3516  0.1438
  938SOL  HW1   2813   2.792   1.401   0.635  1.9513 -0.6973  0.8485
  938SOL  HW2   2814   2.792   1.548   0.555  3.6269 -0.3304 -3.1030
  939SOL  OW    2815   0.145   0.693   1.689 -0.3926  0.2144  0.0363
  939SOL  HW1   2816   0.165   0.672   1.589  0.2447  0.1980 -2.0259
  939SOL  HW2   2817   0.205   0.774   1.708  1.5201  2.9909  2.1649
  940SOL  OW    2818   1.012   2.105   0.443  0.4114  0.6730 -0.4381
  940SOL  HW1   2819   1.012   2.004   0.423 -0.0434 -1.8838 -0.1265
  940SOL  HW2   2820   0.978   2.154   0.363  1.2106 -2.8591  0.9497
  941SOL  OW    2821   2.006   0.431   2.454 -0.2853  0.3403  0.5605
  941SOL  HW1   2822   2.013   0.512   2.514  1.1844 -1.7967  1.3027
  941SOL  HW2   2823   1.913   0.421   2.410  0.4325 -0.8843  2.1631
  942SOL  OW    2824   1.914   1.107   1.816 -0.0418  0.0621 -0.4972
  942SOL  HW1   2825   1.852   1.063   1.887 -0.4829 -1.6368  2.1970
  942SOL  HW2   2826   1.869   1.133   1.730 -0.1748 -3.8464  0.3412
  943SOL  OW    2827   1.342   0.821   1.610 -0.7935 -0.5443 -0.2189
  943SOL  HW1   2828   1.328   0.728   1.637  1.2437  2.7209  0.3820
  943SOL  HW2   2829   1.345   0.884   1.690  0.8671 -2.1093 -0.8929
  944SOL  OW    2830   2.371   1.409   0.907 -0.6341 -0.2836 -0.8464
  944SOL  HW1   2831   2.276   1.375   0.885 -0.5905  1.4079 -0.5244
  944SOL  HW2   2832   2.400   1.477   0.836  0.3862 -0.0063  0.7413
  945SOL  OW    2833   0.583   2.672   2.673 -0.1886 -0.1681  0.4280
  945SOL  HW1   2834   0.487   2.643   2.657 -1.0603 -0.1780 -0.5209
  945SOL  HW2   2835   0.587   2.740   2.751 -2.4541 -0.1726 -2.1262
  946SOL  OW    2836   0.132   0.954   1.412  0.6633  0.3788  0.3738
  946SOL  HW1   2837   0.070   0.973   1.496 -2.1273  0.4601  0.1481
  946SOL  HW2   2838   0.146   0.857   1.394  3.3781 -0.3462  1.1574
  947SOL  OW    2839   2.418   0.414   2.873  0.2451  0.0847  0.1781
  947SOL  HW1   2840   2.380   0.315   2.862 -0.3766 -3.7481  0.6401
  947SOL  HW2   2841   2.426   0.461   2.783  0.3738  0.9475 -1.2247
  948SOL  OW    2842   1.621   1.632   1.209  0.0056  0.7173 -0.0420
  948SOL  HW1   2843   1.614   1.731   1.195 -2.6334 -2.1736  1.5662
  948SOL  HW2   2844   1.532   1.591   1.236  1.9694  0.4404  0.8592
  949SOL  OW    2845   0.052   1.250   2.916  0.1428  0.1392 -0.4960
  949SOL  HW1   2846   0.120   1.291   2.860  0.2813 -0.2545  1.9775
  949SOL  HW2   2847   3.089   1.192   2.855  0.2939  2.2490  0.5573
  950SOL  OW    2848   0.921   0.138   0.851 -0.6658 -0.1867 -0.5809
  950SOL  HW1   2849   0.830   0.171   0.833  2.6005  1.7414  0.6619
  950SOL  HW2   2850   0.967   0.194   0.923  1.8937  0.5208 -1.5003
  951SOL  OW    2851   1.665   0.113   1.939  0.1184 -0.0720 -0.4935
  951SOL  HW1   2852   1.646   0.033   1.875  0.4383 -3.4493 -0.0561
  951SOL  HW2   2853   1.710   0.197   1.887  2.6945  2.2708 -1.3515
  952SOL  OW    2854   2.764   1.891   2.505  0.4238 -0.0924  0.3110
  952SOL  HW1   2855   2.816   1.979   2.503 -0.2396  2.8688  1.6351
  952SOL  HW2   2856   2.721   1.889   2.597  2.6864  0.6775 -1.7523
  953SOL  OW    2857   2.877   1.744   2.949  0.0030 -0.1746  0.0839
  953SOL  HW1   2858   2.818   1.667   2.964 -0.2309  1.1340 -0.3819
  953SOL  HW2   2859   2.839   1.806   2.883  1.1769 -1.1028  1.0992
  954SOL  OW    2860   0.788   0.714   0.828 -0.6627 -0.0137 -0.2881
  954SOL  HW1   2861   0.691   0.684   0.832  1.0298  2.0252  2.9682
  954SOL  HW2   2862   0.829   0.689   0.740 -2.1616 -1.3269 -1.1373
  955SOL  OW    2863   0.579   1.313   2.947  0.1669  0.0334  0.5116
  955SOL  HW1   2864   0.488   1.282   2.971 -0.1918  1.7219 -0.1018
  955SOL  HW2   2865   0.589   1.403   2.982  0.6568 -3.9411  1.3894
  956SOL  OW    2866   0.478   0.071   1.923  0.0274 -0.4826 -0.1605
  956SOL  HW1   2867   0.540   0.146   1.959  0.6074 -0.0204  0.0938
  956SOL  HW2   2868   0.493   3.070   1.967  0.7207 -2.9354  0.1483
  957SOL  OW    2869   2.438   2.015   0.271 -0.4100 -0.2096 -0.5604
  957SOL  HW1   2870   2.392   1.933   0.305  1.0989  3.3635 -1.5940
  957SOL  HW2   2871   2.418   2.097   0.325  0.5846  0.5867  1.7447
  958SOL  OW    2872   1.153   0.476   2.170 -0.0655 -0.3241  0.2135
  958SOL  HW1   2873   1.129   0.448   2.270 -0.9912  1.0574  3.6609
  958SOL  HW2   2874   1.145   0.396   2.107 -2.9784 -1.6294  0.3218
  959SOL  OW    2875   2.861   2.340   2.403 -0.3961 -0.2821  0.2848
  959SOL  HW1   2876   2.788   2.411   2.421 -2.0606  0.4828  0.6225
  959SOL  HW2   2877   2.876   2.344   2.301  1.4092 -0.6513 -1.4694
  960SOL  OW    2878   0.938   2.299   1.909 -0.1498 -0.5518  0.1845
  960SOL  HW1   2879   0.993   2.355   1.979  0.1094  1.1602  2.2777
  960SOL  HW2   2880   0.959   2.334   1.818 -0.1972 -0.5101  1.0429
  961SOL  OW    2881   2.374   1.363   0.340 -0.4851  0.4867 -0.1644
  961SOL  HW1   2882   2.288   1.415   0.344  0.9101 -2.2594  2.8432
  961SOL  HW2   2883   2.366   1.294   0.266 -1.7884 -0.2229 -0.4917
  962SOL  OW    2884   1.702   0.780   0.598 -0.4602  0.1370  0.4940
  962SOL  HW1   2885   1.761   0.849   0.641 -1.0856  0.7907 -0.4132
  962SOL  HW2   2886   1.728   0.688   0.637 -0.7467 -1.7468 -0.5334
  963SOL  OW    2887   2.530   1.209   2.054  0.1589  0.7449 -0.6347
  963SOL  HW1   2888   2.584   1.184   2.142 -1.1956 -1.0553 -0.4388
  963SOL  HW2   2889   2.594   1.203   1.977 -0.4407 -1.3054  0.9577
  964SOL  OW    2890   1.453   2.088   0.335 -0.1039  0.2477 -1.0651
  964SOL  HW1   2891   1.450   2.116   0.241 -1.1830  0.0829  6.1070
  964SOL  HW2   2892   1.497   1.996   0.349  1.7096 -1.8286  3.0108
  965SOL  OW    2893   2.832   2.908   0.388  0.0727  0.2564 -0.3154
  965SOL  HW1   2894   2.870   2.992   0.348 -0.4004  0.5950 -0.3315
  965SOL  HW2   2895   2.784   2.853   0.315 -1.0923 -0.6740 -1.7027
  966SOL  OW    2896   0.260   1.560   2.349 -0.6244 -0.4747 -0.0396
  966SOL  HW1   2897   0.272   1.662   2.356 -1.2851  1.1158 -2.8178
  966SOL  HW2   2898   0.230   1.540   2.254 -0.3491  0.9320 -1.0777
  967SOL  OW    2899   1.152   0.147   2.726  0.1363  0.0690 -0.6301
  967SOL  HW1   2900   1.239   0.095   2.718 -1.3426 -2.4431 -0.9903
  967SOL  HW2   2901   1.100   0.156   2.640  1.2582 -1.0377  2.3225
  968SOL  OW    2902   1.768   0.526   0.242  0.1086  0.2115 -0.2018
  968SOL  HW1   2903   1.825   0.534   0.330  3.2684  1.3173 -1.2890
  968SOL  HW2   2904   1.766   0.613   0.194  0.4168  0.5444 -1.8995
  969SOL  OW    2905   3.094   1.207   1.947  0.3651 -0.3705 -0.4932
  969SOL  HW1   2906   0.011   1.241   1.852  0.4919  1.0031  0.2115
  969SOL  HW2   2907   3.074   1.277   2.020  0.3076 -0.8632  0.2300
  970SOL  OW    2908   0.018   0.212   0.186 -0.3489  0.0155  0.2388
  970SOL  HW1   2909   3.074   0.273   0.117 -1.3067 -1.0880 -0.5286
  970SOL  HW2   2910   0.071   0.252   0.259 -0.1795 -2.2229 -1.5985
  971SOL  OW    2911   1.251   0.367   0.600 -0.3533 -0.5834  0.1214
  971SOL  HW1   2912   1.240   0.404   0.691 -1.0050 -0.6442 -1.3229
  971SOL  HW2   2913   1.166   0.322   0.570  1.0760  1.8737  0.5554
  972SOL  OW    2914   0.056   3.027   2.334  0.1254 -0.0311  0.1216
  972SOL  HW1   2915   0.003   2.993   2.251 -1.6373 -0.4669 -1.1729
  972SOL  HW2   2916   0.063   0.034   2.328 -0.8832 -1.3089 -0.7513
  973SOL  OW    2917   0.478   0.343   2.926 -0.5932 -0.5405  0.6299
  973SOL  HW1   2918   0.379   0.350   2.894 -5.5292 -0.3859 -2.7340
  973SOL  HW2   2919   0.539   0.409   2.877  3.2518  0.8929 -0.7232
  974SOL  OW    2920   0.234   1.964   2.112 -0.8887 -0.0331  0.1348
  974SOL  HW1   2921   0.263   1.885   2.049 -0.4885 -1.7492 -2.1008
  974SOL  HW2   2922   0.313   2.025   2.124  1.5506 -1.6436  0.0915
  975SOL  OW    2923   2.718   0.151   3.008 -0.8169 -0.1583 -0.5750
  975SOL  HW1   2924   2.693   0.105   3.092 -1.2598  0.6927 -1.0913
  975SOL  HW2   2925   2.820   0.158   3.000 -2.5696  1.9093  0.4772
  976SOL  OW    2926   0.147   1.893   1.027  0.3492  0.1241  0.0354
  976SOL  HW1   2927   0.068   1.831   0.992 -0.5199  0.6259  0.6573
  976SOL  HW2   2928   0.112   1.988   1.010 -0.9969 -0.9324 -0.7959
  977SOL  OW    2929   2.175   2.454   0.129  0.4117 -0.0229 -0.2260
  977SOL  HW1   2930   2.188   2.403   0.044 -0.2119 -1.0757 -0.2331
  977SOL  HW2   2931   2.245   2.526   0.133 -4.0124 -3.6437 -0.8343
  978SOL  OW    2932   0.505   1.511   0.367  0.4968 -0.1438  0.2873
  978SOL  HW1   2933   0.481   1.429   0.417 -0.4166  3.0017  0.8692
  978SOL  HW2   2934   0.515   1.589   0.437  0.1701 -1.3288  0.4681
  979SOL  OW    2935   2.695   1.178   2.815 -0.2252  0.1047 -0.0108
  979SOL  HW1   2936   2.653   1.154   2.905 -0.5328  1.9819  1.9410
  979SOL  HW2   2937   2.672   1.272   2.786 -0.8541 -0.6221 -0.9892
  980SOL  OW    2938   1.061   2.447   2.568 -0.1751  0.2751  0.1009
  980SOL  HW1   2939   1.031   2.366   2.620  2.9866  2.6011 -3.2830
  980SOL  HW2   2940   0.985   2.513   2.570 -1.2186 -0.8746  0.4181
  981SOL  OW    2941   2.249   1.179   0.171 -0.3291  0.3207 -0.1039
  981SOL  HW1   2942   2.285   1.100   0.111 -0.3616 -0.4895 -2.2277
  981SOL  HW2   2943   2.163   1.211   0.134 -0.2040  0.1390 -1.0983
  982SOL  OW    2944   0.434   2.826   1.027  0.7574 -0.3323 -0.2662
  982SOL  HW1   2945   0.373   2.766   0.974  1.6113 -0.8972  0.4853
  982SOL  HW2   2946   0.498   2.874   0.971 -1.2125 -2.1124  2.1241
  983SOL  OW    2947   1.977   0.633   2.084  0.5371  0.0192 -0.4621
  983SOL  HW1   2948   2.010   0.671   1.995  0.0981 -0.8617  0.1837
  983SOL  HW2   2949   2.041   0.561   2.122 -1.9774  0.4200 -0.7573
  984SOL  OW    2950   2.798   0.476   0.113  0.0361 -0.1721 -0.2988
  984SOL  HW1   2951   2.736   0.446   0.040 -1.5158  1.9501  0.0733
  984SOL  HW2   2952   2.898   0.456   0.093  0.2329  0.4420  1.2039
  985SOL  OW    2953   2.137   0.209   2.507 -0.1004  0.0364  0.0214
  985SOL  HW1   2954   2.067   0.274   2.484  3.2952 -2.6591  1.1663
  985SOL  HW2   2955   2.233   0.240   2.488  2.6753  1.6961  2.8585
  986SOL  OW    2956   1.118   2.848   2.476  0.0203  0.2436  0.1306
  986SOL  HW1   2957   1.023   2.859   2.504 -0.0958  0.2648  0.4428
  986SOL  HW2   2958   1.136   2.885   2.383 -0.0926  0.2905  0.4303
  987SOL  OW    2959   0.534   1.808   2.171  0.3663 -0.1764  0.1363
  987SOL  HW1   2960   0.443   1.782   2.208 -0.8289  0.0030  0.3454
  987SOL  HW2   2961   0.553   1.776   2.081  1.5021  0.7716  0.9842
  988SOL  OW    2962   0.235   0.069   2.045  0.2332  0.3226  0.0916
  988SOL  HW1   2963   0.146   0.047   2.005  1.5368  0.9550  1.3823
  988SOL  HW2   2964   0.312   0.066   1.979  0.9324 -0.3085 -0.3913
  989SOL  OW    2965   0.183   0.294   0.403  0.4076 -0.0780 -0.4997
  989SOL  HW1   2966   0.270   0.301   0.452 -0.5522  1.1814 -2.3734
  989SOL  HW2   2967   0.110   0.340   0.453 -0.6850  0.5065 -0.5223
  990SOL  OW    2968   2.737   1.110   0.293 -0.4307 -0.3503  0.8660
  990SOL  HW1   2969   2.775   1.086   0.197  1.2581 -1.4041 -1.0538
  990SOL  HW2   2970   2.721   1.210   0.301 -0.3005 -0.7070 -0.0983
  991SOL  OW    2971   1.310   0.978   0.492 -0.5146 -0.4605 -0.4677
  991SOL  HW1   2972   1.249   0.909   0.536 -2.6542 -1.1690 -1.2599
  991SOL  HW2   2973   1.386   0.930   0.445  0.3091 -0.1039 -1.6363
  992SOL  OW    2974   2.011   1.826   1.800 -0.5602 -0.5306  0.2225
  992SOL  HW1   2975   1.992   1.743   1.861  0.0018  3.0536  0.1372
  992SOL  HW2   2976   2.102   1.826   1.759 -1.7815  4.0104 -2.6919
  993SOL  OW    2977   0.281   2.382   2.770 -0.1267  0.3316 -0.4544
  993SOL  HW1   2978   0.329   2.395   2.680 -1.4846  0.3173 -0.9853
  993SOL  HW2   2979   0.222   2.301   2.756 -0.7646 -0.0455 -1.8244
  994SOL  OW    2980   2.081   1.351   2.471 -0.5515 -0.0633  0.1280
  994SOL  HW1   2981   2.078   1.450   2.449 -0.0909 -1.3260  1.1868
  994SOL  HW2   2982   2.176   1.314   2.472 -1.1263 -1.0899  0.6412
  995SOL  OW    2983   1.032   1.112   3.090 -0.0749 -0.5311  0.0280
  995SOL  HW1   2984   1.039   1.044   0.069 -3.4015 -0.3681 -0.8654
  995SOL  HW2   2985   1.119   1.121   3.036  1.7142  0.1593 -0.5574
  996SOL  OW    2986   1.698   1.256   1.341 -0.4458  0.3759  0.4030
  996SOL  HW1   2987   1.620   1.303   1.389  0.7526 -0.5459 -1.2115
  996SOL  HW2   2988   1.672   1.162   1.309  2.3501 -0.1233 -1.3246
  997SOL  OW    2989   1.528   0.827   1.420 -0.0614  0.1063  0.3003
  997SOL  HW1   2990   1.463   0.835   1.502 -2.3715 -0.8409 -1.5907
  997SOL  HW2   2991   1.513   0.735   1.378 -0.1925  1.7084 -1.0739
  998SOL  OW    2992   2.636   1.590   0.942  0.2075 -0.1513 -0.1553
  998SOL  HW1   2993   2.604   1.642   1.026  1.2378  3.2795 -0.7085
  998SOL  HW2   2994   2.707   1.517   0.963  0.4200 -0.5817 -2.4981
  999SOL  OW    2995   0.667   2.814   2.907 -0.3989 -0.0204  0.6651
  999SOL  HW1   2996   0.736   2.763   2.961 -0.8274 -0.2745  1.7635
  999SOL  HW2   2997   0.620   2.881   2.964 -1.1025 -2.3030  0.1320
 1000SOL  OW    2998   1.475   2.149   0.059 -0.4157 -0.5738 -0.3822
 1000SOL  HW1   2999   1.449   2.242   0.017  1.2124  0.2232  2.9668
 1000SOL  HW2   3000   1.570   2.123   0.030 -1.3410 -0.1640  0.8583
    3.095540047     3.095540047     3.095540047     0.000000000     0.000000000     0.000000000     0.000000000     0.000000000     0.000000000
