1000 SPC/Fw water molecules t=   0.50000 step= 500
 2931
    1SOL     OW    1   2.472   0.336   2.621  0.0344  0.4183  0.2331
    1SOL    HW1    2   2.530   0.253   2.601 -2.6278  0.4809 -2.5741
    1SOL    HW2    3   2.511   0.406   2.687  0.7777 -0.2029  1.8925
    2SOL     OW    4   2.709   3.048   1.453 -0.4135  0.6132 -0.1115
    2SOL    HW1    5   2.770   3.082   1.376  0.6195  0.3373 -0.5957
    2SOL    HW2    6   2.631   3.118   1.467  0.5393  1.7960  2.0005
    3SOL     OW    7   2.733   2.597   0.391  0.1537 -0.1537  0.2561
    3SOL    HW1    8   2.690   2.501   0.400  1.8211 -2.4989  0.4666
    3SOL    HW2    9   2.781   2.622   0.483  1.1651  1.1742  0.0098
    4SOL     OW   10   1.317   1.489   2.357 -0.1285 -0.3130  0.2607
    4SOL    HW1   11   1.229   1.510   2.312 -1.8006 -0.7450  0.1966
    4SOL    HW2   12   1.312   1.439   2.444  0.3935 -0.1243  0.1048
    5SOL     OW   13   1.186   1.512   3.039 -0.1374 -0.0034  0.1955
    5SOL    HW1   14   1.256   1.572   3.082 -1.0322 -1.5112 -0.9542
    5SOL    HW2   15   1.086   1.540   3.062  0.2583 -0.9685  1.5576
    6SOL     OW   16   0.057   1.801   2.919  0.4581  0.4772 -0.2862
    6SOL    HW1   17   0.047   1.849   3.013  1.4228  2.6650  2.4473
    6SOL    HW2   18   0.070   1.699   2.941  1.4867  0.6829  0.0288
    7SOL     OW   19   2.591   0.906   1.165  0.7429  0.5827  0.2186
    7SOL    HW1   20   2.510   0.849   1.190 -1.4311 -1.0159 -1.0872
    7SOL    HW2   21   2.605   0.913   1.058  0.4280 -2.6945 -0.9087
    8SOL     OW   22   0.448   0.609   1.518  0.0373 -0.2805 -0.2536
    8SOL    HW1   23   0.492   0.534   1.576  1.0303 -0.2385 -2.3555
    8SOL    HW2   24   0.398   0.570   1.433  0.0945  0.4026 -1.7768
    9SOL     OW   25   1.156   0.931   2.280 -0.7127 -0.8763 -0.0365
    9SOL    HW1   26   1.211   1.017   2.251  3.4087  0.9354 -0.8281
    9SOL    HW2   27   1.097   0.897   2.201 -0.4028  0.8499  1.1631
   10SOL     OW   28   0.715   1.336   1.266 -0.4279 -0.4204 -0.0370
   10SOL    HW1   29   0.618   1.367   1.268 -0.7093  2.1870 -2.6137
   10SOL    HW2   30   0.774   1.423   1.243 -0.6438  1.0840 -0.0498
   11SOL     OW   31   2.379   2.699   0.937  0.1226 -0.0156 -0.1109
   11SOL    HW1   32   2.372   2.707   1.039  0.4907  0.3426 -0.3831
   11SOL    HW2   33   2.464   2.731   0.895 -0.0833  1.9374 -1.9542
   12SOL     OW   34   1.460   0.909   0.358  0.1283  0.9055 -0.1631
   12SOL    HW1   35   1.393   0.967   0.303 -0.9933  0.7709 -0.1387
   12SOL    HW2   36   1.455   0.807   0.336 -0.0139  1.0067 -0.8412
   13SOL     OW   37   2.536   0.661   1.815  0.3697  0.3506  0.2667
   13SOL    HW1   38   2.447   0.674   1.865  0.0341  0.4524  0.0711
   13SOL    HW2   39   2.513   0.639   1.716  1.2463 -1.5104 -0.0522
   14SOL     OW   40   1.965   0.061   0.705  0.6575  0.2958  0.5747
   14SOL    HW1   41   1.895   0.099   0.634 -0.0813  2.3929 -1.2877
   14SOL    HW2   42   1.932  -0.028   0.751 -1.2013  0.2742  2.3222
   15SOL     OW   43   1.946   2.015   2.830 -0.2469 -0.0421 -0.4770
   15SOL    HW1   44   1.922   2.107   2.869  1.2224  2.4254 -0.9961
   15SOL    HW2   45   1.877   1.977   2.758 -3.2179 -0.7589  0.2989
   16SOL     OW   46   1.597   1.733   3.065 -0.0229 -0.3924 -0.7555
   16SOL    HW1   47   1.596   1.630   3.054  0.2368 -1.3997 -2.4506
   16SOL    HW2   48   1.690   1.775   3.086 -0.0079 -0.0090  0.0868
   17SOL     OW   49   0.094   0.496   0.141  0.1831  0.0376  0.3965
   17SOL    HW1   50   0.183   0.516   0.089  0.4633 -2.1171 -0.5070
   17SOL    HW2   51   0.011   0.502   0.081 -0.4401  2.7165  0.9640
   18SOL     OW   52   0.981   2.917   2.165 -0.0041  0.1658 -0.7301
   18SOL    HW1   53   0.891   2.863   2.151  0.9952  0.6582  1.3360
   18SOL    HW2   54   1.058   2.884   2.110  0.5527  0.4434 -0.2209
   19SOL     OW   55   0.544   0.841   1.922  0.0182 -0.0948 -0.1323
   19SOL    HW1   56   0.553   0.817   2.020 -0.4256  0.2607  0.4467
   19SOL    HW2   57   0.624   0.819   1.864 -2.5901 -2.2804  1.7748
   20SOL     OW   58   0.166   2.806   0.822  0.3572 -0.2460 -0.4467
   20SOL    HW1   59   0.085   2.859   0.778  0.9971 -0.5960  0.0368
   20SOL    HW2   60   0.239   2.788   0.748 -1.3696 -0.0260 -0.9433
   21SOL     OW   61   2.772   0.195   2.100 -0.6620  0.2633 -0.5218
   21SOL    HW1   62   2.724   0.128   2.042  2.2772 -0.7627 -0.6875
   21SOL    HW2   63   2.840   0.147   2.157  0.7973  1.8014 -2.3915
   22SOL     OW   64   2.314   0.228   0.058  0.3859  0.2235  0.5509
   22SOL    HW1   65   2.332   0.130   0.085 -1.4281  2.4174 -0.7361
   22SOL    HW2   66   2.213   0.248   0.047 -1.9326  2.0237  1.6283
   23SOL     OW   67   2.759   0.628   0.653 -0.6386 -0.1870  0.1541
   23SOL    HW1   68   2.797   0.551   0.593 -1.4302 -0.7619  1.0423
   23SOL    HW2   69   2.741   0.714   0.592  1.9198  1.4049 -4.0169
   24SOL     OW   70   0.133   1.921   0.387 -0.5442 -0.4471  0.2667
   24SOL    HW1   71   0.086   1.970   0.309  0.1488  2.0788 -1.6350
   24SOL    HW2   72   0.233   1.927   0.368  0.3158  2.6648 -1.9476
   25SOL     OW   73   2.236   0.512   0.210 -0.3629  0.1614 -0.3612
   25SOL    HW1   74   2.280   0.584   0.272  3.3532  4.3634 -0.3457
   25SOL    HW2   75   2.257   0.538   0.109  0.8370  1.8666 -0.1120
   26SOL     OW   76   2.520   2.176   2.081  0.3136 -0.7525 -0.0653
   26SOL    HW1   77   2.584   2.221   2.154  0.2177 -0.0200  0.4952
   26SOL    HW2   78   2.564   2.097   2.034  0.6271 -2.9792 -0.1668
   27SOL     OW   79   0.622   2.951   0.142 -0.5524 -0.0993  0.5581
   27SOL    HW1   80   0.710   3.001   0.126 -0.6633 -2.3151 -1.5895
   27SOL    HW2   81   0.558   2.949   0.062 -0.5032  0.5413  0.7450
   28SOL     OW   82   1.580   0.177   0.299 -0.1001 -0.4528  0.5386
   28SOL    HW1   83   1.625   0.167   0.203 -2.6183 -0.7302 -0.3976
   28SOL    HW2   84   1.568   0.277   0.320  0.5779 -0.3509 -0.3954
   29SOL     OW   85   2.019   0.519   0.377 -0.9821 -0.2262  0.1044
   29SOL    HW1   86   1.983   0.612   0.380  0.8170 -3.5000 -2.0820
   29SOL    HW2   87   2.105   0.505   0.316  0.6544 -0.2636 -2.3498
   30SOL     OW   88   0.161   2.054   0.937 -0.0386  0.4576 -0.0405
   30SOL    HW1   89   0.164   2.057   0.833  3.2532  0.0190  1.1823
   30SOL    HW2   90   0.099   2.129   0.973  3.6677 -1.8651  1.7348
   31SOL     OW   91   2.122   3.090   2.301  0.0487 -0.4699  0.1484
   31SOL    HW1   92   2.124   3.080   2.404 -1.0100  3.5860 -0.0526
   31SOL    HW2   93   2.035   3.044   2.268 -0.1978 -1.6944 -0.2439
   32SOL     OW   94   2.957   0.198   0.217  0.8063  0.5979  0.8995
   32SOL    HW1   95   2.894   0.125   0.259 -0.8563 -0.8183 -0.5168
   32SOL    HW2   96   3.044   0.220   0.266 -1.4924 -0.3164 -0.5311
   33SOL     OW   97   0.910   0.335   0.533 -0.2716  0.4566  0.5857
   33SOL    HW1   98   0.886   0.243   0.505  1.3245 -0.8503 -0.2019
   33SOL    HW2   99   1.007   0.354   0.573 -0.4024  0.0208  2.8258
   34SOL     OW  100   0.375   2.851   1.022 -0.1799  0.3881  0.5955
   34SOL    HW1  101   0.323   2.792   0.951 -1.4488 -2.3043  3.4880
   34SOL    HW2  102   0.478   2.855   1.012  0.7634 -0.7266  0.3643
   35SOL     OW  103   0.033   0.176   1.868 -0.1124  1.0383 -0.0228
   35SOL    HW1  104   0.092   0.093   1.896  0.1389 -1.6013 -0.1914
   35SOL    HW2  105  -0.021   0.153   1.784 -1.9875  1.2002 -0.0698
   36SOL     OW  106   1.948   1.095   1.823  0.1304 -0.0456  0.3139
   36SOL    HW1  107   1.985   1.086   1.726  0.4946 -1.1403  0.1230
   36SOL    HW2  108   1.992   1.173   1.860 -0.3676 -2.4956 -1.0803
   37SOL     OW  109   1.199   0.186   0.953  0.5073 -0.1518 -0.1068
   37SOL    HW1  110   1.249   0.257   1.015 -0.2355 -0.5637 -2.1590
   37SOL    HW2  111   1.266   0.128   0.900 -1.2613 -0.2355 -0.5005
   38SOL     OW  112   1.066   2.743   2.403 -0.0667  0.6391 -0.0870
   38SOL    HW1  113   1.025   2.656   2.452 -1.9074 -0.5771  2.5291
   38SOL    HW2  114   0.999   2.819   2.403  2.2180 -1.6189  1.7057
   39SOL     OW  115   2.309   1.351   3.004 -0.6041  0.1439 -0.3025
   39SOL    HW1  116   2.403   1.310   3.028 -0.4162 -0.7294  2.3525
   39SOL    HW2  117   2.250   1.358   3.088  1.8426  0.9128 -0.4646
   40SOL     OW  118   2.139   2.516   2.512 -1.1992  0.4440 -0.2138
   40SOL    HW1  119   2.107   2.611   2.540  3.0515  0.4107  1.2499
   40SOL    HW2  120   2.073   2.460   2.459  2.4357 -0.9875 -0.9839
   41SOL     OW  121   2.945   0.706   2.749  0.2998 -0.8121 -0.2453
   41SOL    HW1  122   2.865   0.775   2.747  0.0360  3.4851  2.9006
   41SOL    HW2  123   2.917   0.605   2.722  0.0635 -1.6701  1.5256
   42SOL     OW  124   1.736   1.782   0.560 -0.1287 -0.2486  0.1691
   42SOL    HW1  125   1.705   1.687   0.539  0.4218  0.1851  1.4261
   42SOL    HW2  126   1.798   1.817   0.482 -1.5039  0.9303  0.1389
   43SOL     OW  127   0.469   1.727   1.137 -0.5446 -0.3359 -0.4742
   43SOL    HW1  128   0.490   1.632   1.163  0.9520 -2.1542 -4.4462
   43SOL    HW2  129   0.396   1.742   1.063  0.9757  2.3676 -0.9926
   44SOL     OW  130   1.817   2.477   3.037  0.2887 -0.2139 -0.5216
   44SOL    HW1  131   1.813   2.561   2.980 -0.3002 -5.0559  0.1689
   44SOL    HW2  132   1.893   2.477   3.106  1.3366 -1.0234 -3.2072
   45SOL     OW  133   0.299   1.899   2.601  0.2945  0.2281  0.1057
   45SOL    HW1  134   0.245   1.924   2.513  1.6377  0.6691 -1.6110
   45SOL    HW2  135   0.383   1.838   2.574  0.9507  1.2323  0.5544
   46SOL     OW  136   1.215   0.677   0.174  0.4123 -0.2325 -0.6928
   46SOL    HW1  137   1.287   0.752   0.171  0.2758 -1.2439 -0.2869
   46SOL    HW2  138   1.126   0.697   0.229 -1.0254 -0.5039 -1.2666
   47SOL     OW  139   0.194   2.437   1.633 -0.4808  0.1663 -0.3775
   47SOL    HW1  140   0.270   2.360   1.631 -1.3886  0.1652 -0.6049
   47SOL    HW2  141   0.131   2.438   1.553 -2.3244  0.8353 -1.5506
   48SOL     OW  142   2.613   0.609   0.156  0.5962 -0.2841 -0.0901
   48SOL    HW1  143   2.576   0.603   0.246 -0.4735 -1.1760 -0.4020
   48SOL    HW2  144   2.715   0.635   0.151  0.8774  1.8000 -2.4552
   49SOL     OW  145   0.371   0.787   1.706 -0.4074 -0.1015 -0.2830
   49SOL    HW1  146   0.425   0.795   1.793  1.0296 -1.6515 -1.1400
   49SOL    HW2  147   0.415   0.719   1.638  1.7250 -2.6848  0.1559
   50SOL     OW  148   1.669   1.134   0.316 -0.3958  0.4425 -0.2700
   50SOL    HW1  149   1.650   1.040   0.290 -1.0042  1.9273 -1.0336
   50SOL    HW2  150   1.608   1.161   0.395  1.4861 -1.3206 -4.0381
   51SOL     OW  151   2.971   1.918   0.289 -0.5332 -0.0693 -0.0523
   51SOL    HW1  152   2.918   1.863   0.218 -1.0924 -2.2284  1.3901
   51SOL    HW2  153   2.992   1.859   0.374  2.4742 -1.7373  0.7358
   52SOL     OW  154   0.794   1.940   0.495  0.7869 -0.2985 -0.8377
   52SOL    HW1  155   0.710   1.988   0.526  1.1172 -2.9900 -2.1989
   52SOL    HW2  156   0.820   1.857   0.556  0.9730 -0.7048  0.1707
   53SOL     OW  157   3.101   0.358   1.550  0.0060 -0.3070  0.1511
   53SOL    HW1  158   3.026   0.349   1.620  4.9097  2.0355 -0.3964
   53SOL    HW2  159   3.072   0.372   1.450 -0.5949  1.1610  0.5767
   54SOL     OW  160   1.761   0.446   3.079  0.0325 -0.1970  0.1041
   54SOL    HW1  161   1.803   0.401   3.161 -0.1366  0.3242 -1.1395
   54SOL    HW2  162   1.659   0.442   3.075 -2.5943  1.5310  0.6076
   55SOL     OW  163   0.752   2.927   0.593 -0.0256  0.0203  0.3467
   55SOL    HW1  164   0.708   3.017   0.574  2.2370  1.7982  1.0419
   55SOL    HW2  165   0.855   2.942   0.580  1.0909  0.3170  0.9852
   56SOL     OW  166   0.456   1.573   3.025 -0.0251  0.0353  0.1339
   56SOL    HW1  167   0.379   1.638   3.067 -1.0919  0.5120 -0.2523
   56SOL    HW2  168   0.419   1.482   3.004 -0.2007  3.9724  1.4830
   57SOL     OW  169   1.807   2.496   2.655 -0.0460  0.5074  0.1758
   57SOL    HW1  170   1.850   2.507   2.560  0.3402  0.7375 -0.5537
   57SOL    HW2  171   1.704   2.491   2.646  1.0325  1.7802  1.0960
   58SOL     OW  172   0.665   0.388   1.110 -0.1857  0.4679 -1.2344
   58SOL    HW1  173   0.626   0.470   1.063  0.1730  1.9737 -0.8431
   58SOL    HW2  174   0.595   0.311   1.125  0.9245 -3.7576  1.1942
   59SOL     OW  175   0.399   2.360   2.760  0.3499 -0.5662  0.0905
   59SOL    HW1  176   0.403   2.257   2.741  1.7564 -0.8442 -0.0419
   59SOL    HW2  177   0.479   2.393   2.817 -1.4598 -2.0009 -1.2973
   60SOL     OW  178   2.322   2.084   2.251  0.6150 -0.0948 -0.5155
   60SOL    HW1  179   2.396   2.127   2.192  1.8171 -0.4271  2.3194
   60SOL    HW2  180   2.322   2.105   2.353  0.1430 -0.6695  0.5476
   61SOL     OW  181   1.327   0.621   0.513 -0.8549 -0.3744  0.1110
   61SOL    HW1  182   1.253   0.673   0.560 -3.5221  0.1656 -0.2974
   61SOL    HW2  183   1.316   0.609   0.411 -0.4263 -0.8609 -1.6616
   62SOL     OW  184   2.664   1.801   2.977 -0.5241 -0.5532 -0.3455
   62SOL    HW1  185   2.672   1.711   3.026  2.3716  0.5517 -2.7544
   62SOL    HW2  186   2.742   1.807   2.906  1.3011 -1.7416 -3.1855
   63SOL     OW  187   0.557   0.885   0.158  0.4207  0.2831 -0.4545
   63SOL    HW1  188   0.501   0.973   0.172  0.4261 -0.0270  0.6541
   63SOL    HW2  189   0.644   0.896   0.218  0.2289 -1.7507 -0.7824
   64SOL     OW  190   0.060   0.535   2.541 -0.1678  0.5916  0.1416
   64SOL    HW1  191   0.123   0.530   2.624  0.6533  1.7405 -4.2451
   64SOL    HW2  192   0.055   0.630   2.508  0.2145 -0.9414  3.4281
   65SOL     OW  193   0.193   1.490   0.595 -0.3407 -0.4013 -0.8856
   65SOL    HW1  194   0.240   1.545   0.666  3.1763 -0.6753  0.3502
   65SOL    HW2  195   0.256   1.438   0.530  0.8642  0.0545 -2.6145
   66SOL     OW  196   2.516   0.454   0.622 -0.2061  0.4625 -0.0351
   66SOL    HW1  197   2.438   0.499   0.670  1.0358 -2.9666 -2.0259
   66SOL    HW2  198   2.507   0.352   0.619  0.8418 -0.3989  0.1592
   67SOL     OW  199   0.518   2.494   1.427  0.1526 -0.0407 -0.4599
   67SOL    HW1  200   0.559   2.458   1.516  0.8982  0.8057  0.3153
   67SOL    HW2  201   0.492   2.418   1.361  0.5169 -0.7592  1.4566
   68SOL     OW  202   0.998   1.102   2.446  0.2391  0.1624  0.5948
   68SOL    HW1  203   1.065   1.028   2.415  1.5248 -2.0167  0.5893
   68SOL    HW2  204   0.922   1.126   2.378 -2.2129  1.8013  2.1480
   69SOL     OW  205   0.753   2.778   2.157 -0.6720  0.1593  0.3148
   69SOL    HW1  206   0.787   2.688   2.188 -0.0496 -2.9589  1.2500
   69SOL    HW2  207   0.646   2.787   2.163 -1.7420  0.5289  0.9133
   70SOL     OW  208   0.648   0.294   2.705  0.1016 -0.2245 -0.3425
   70SOL    HW1  209   0.618   0.375   2.760 -0.7219  2.9763  0.1180
   70SOL    HW2  210   0.599   0.210   2.740 -3.1190 -1.1632 -0.6106
   71SOL     OW  211   1.092   1.789   0.327 -0.8092 -0.1152  0.2304
   71SOL    HW1  212   1.047   1.699   0.363 -1.3654 -4.4407  1.0825
   71SOL    HW2  213   1.094   1.803   0.224  0.4822  0.3084  0.7120
   72SOL     OW  214   1.773   0.122   2.028 -0.0897 -0.1604 -0.1976
   72SOL    HW1  215   1.850   0.141   1.965 -1.3984 -0.0475  2.5543
   72SOL    HW2  216   1.792   0.031   2.078  0.4347 -0.6129 -2.1801
   73SOL     OW  217   2.748   2.162   2.514  0.5750 -0.1808 -0.5801
   73SOL    HW1  218   2.738   2.063   2.480 -1.0928  1.8447  1.9844
   73SOL    HW2  219   2.806   2.176   2.601  2.1303 -1.5866  4.9176
   74SOL     OW  220   2.715   2.946   1.995 -0.0640 -0.4745  0.6576
   74SOL    HW1  221   2.641   2.950   2.068  1.4580  0.5948 -0.6023
   74SOL    HW2  222   2.808   2.964   2.045 -3.5059  3.8566 -0.8758
   75SOL     OW  223   0.937   0.769   1.012  0.9445 -0.0764  0.4350
   75SOL    HW1  224   0.848   0.820   0.995  1.0106 -1.3472 -2.2783
   75SOL    HW2  225   0.988   0.801   1.102  0.9331  1.0722 -0.8172
   76SOL     OW  226   1.735   1.248   2.568  0.0695  0.3291  0.0360
   76SOL    HW1  227   1.647   1.202   2.564  1.3036 -0.8693 -1.5475
   76SOL    HW2  228   1.731   1.343   2.618 -0.1741  0.5810 -1.0224
   77SOL     OW  229   2.909   0.970   0.975  0.3974 -0.1304  0.0506
   77SOL    HW1  230   2.899   0.870   0.952 -1.0131  1.9851  3.5619
   77SOL    HW2  231   2.935   0.995   1.070 -0.7943 -0.8970  0.1217
   78SOL     OW  232   2.051   1.417   1.538  0.0443 -0.3011 -0.0159
   78SOL    HW1  233   2.145   1.455   1.515  3.6148 -2.1422  0.8390
   78SOL    HW2  234   2.006   1.364   1.460  2.5851 -0.8767 -2.3176
   79SOL     OW  235   0.619   1.331   0.835  0.4774 -0.4311 -0.0249
   79SOL    HW1  236   0.517   1.340   0.849  0.4005 -1.8064  0.8306
   79SOL    HW2  237   0.640   1.308   0.739 -0.9714  1.8564  2.7841
   80SOL     OW  238   0.677   0.478   1.598  0.2604 -0.1879  0.5113
   80SOL    HW1  239   0.710   0.545   1.523  0.7329 -2.4117 -1.3082
   80SOL    HW2  240   0.727   0.384   1.591 -0.3440 -2.0817  0.2135
   81SOL     OW  241   1.054   1.356   2.595  0.0849 -0.5495  0.1363
   81SOL    HW1  242   1.058   1.256   2.591  4.9904  3.7263 -4.2269
   81SOL    HW2  243   0.994   1.393   2.520  0.4884 -0.1253 -2.4031
   82SOL     OW  244   0.981   2.958   1.500 -0.5484 -0.1389  0.0478
   82SOL    HW1  245   1.030   2.937   1.415 -0.2157  2.8776  0.6737
   82SOL    HW2  246   0.893   2.907   1.510 -0.0725 -1.8333  1.1928
   83SOL     OW  247   2.677   2.483   0.843  0.3012  0.1239  0.1459
   83SOL    HW1  248   2.605   2.407   0.833 -0.8209 -2.0963 -0.6896
   83SOL    HW2  249   2.642   2.583   0.822 -0.3082  0.3523  2.8416
   84SOL     OW  250   0.724   3.077   2.345 -0.5087  0.3458 -0.6175
   84SOL    HW1  251   0.664   3.067   2.428  2.3123 -0.5823 -1.6779
   84SOL    HW2  252   0.779   2.994   2.323  2.1251  0.3090  2.5724
   85SOL     OW  253   0.414   1.625   1.569 -0.5570 -0.3534 -0.0513
   85SOL    HW1  254   0.348   1.701   1.545 -0.9154 -1.2166  1.5401
   85SOL    HW2  255   0.399   1.606   1.669  0.3819 -2.6273 -0.0767
   86SOL     OW  256   0.346   0.965   1.493 -0.1752  0.2702 -0.1140
   86SOL    HW1  257   0.319   0.909   1.406  0.0424 -0.0496 -0.4637
   86SOL    HW2  258   0.365   0.903   1.576  0.9828 -1.5859  0.4561
   87SOL     OW  259   1.515   0.674   0.244  0.2788 -0.2810 -1.2235
   87SOL    HW1  260   1.616   0.708   0.257  3.1317 -1.1139  0.1509
   87SOL    HW2  261   1.485   0.657   0.144 -0.6639  0.7235 -0.3647
   88SOL     OW  262   1.544   1.362   0.223  0.0868  0.5211  0.5546
   88SOL    HW1  263   1.586   1.268   0.243 -1.4775 -2.7233 -0.8666
   88SOL    HW2  264   1.442   1.364   0.232 -0.4257 -2.8865  3.1655
   89SOL     OW  265   0.029   0.416   0.594 -0.4958  0.2489  0.7829
   89SOL    HW1  266   0.094   0.341   0.558  0.9689 -1.0751 -1.7868
   89SOL    HW2  267  -0.069   0.405   0.556 -0.3233 -0.0308 -0.6885
   90SOL     OW  268   0.924   1.572   3.029  0.0408 -0.4608  0.3681
   90SOL    HW1  269   0.854   1.558   3.107  2.5342 -0.0084  0.9339
   90SOL    HW2  270   0.878   1.603   2.943 -1.3944 -3.2762  2.1159
   91SOL     OW  271   1.276   1.458   1.837 -0.0567 -0.4561  0.0870
   91SOL    HW1  272   1.258   1.552   1.877  1.6864 -1.1033  1.3893
   91SOL    HW2  273   1.373   1.444   1.795 -0.7189 -0.3205  2.3448
   92SOL     OW  274   3.047   1.019   1.214 -0.0258 -0.7673  0.0558
   92SOL    HW1  275   3.113   1.096   1.198 -0.8641  0.7229 -0.4945
   92SOL    HW2  276   3.070   0.980   1.308  0.0025 -2.1720 -2.9036
   93SOL     OW  277   3.094   2.744   0.042  0.1870 -0.3899 -0.4187
   93SOL    HW1  278   3.094   2.758  -0.058 -2.3958  1.2289  0.7319
   93SOL    HW2  279   3.147   2.664   0.074 -2.1429 -1.4733  1.8998
   94SOL     OW  280   1.541   1.440   1.694  0.3118  0.6579  0.2452
   94SOL    HW1  281   1.623   1.400   1.639  0.9844  1.4447 -1.1246
   94SOL    HW2  282   1.566   1.508   1.768 -0.1791  1.5345 -0.4645
   95SOL     OW  283   1.314   2.518   2.995  0.3054  0.1692  0.2972
   95SOL    HW1  284   1.243   2.486   3.062 -0.2041  0.8652  0.7331
   95SOL    HW2  285   1.375   2.441   2.970 -1.6980  1.7415  0.8218
   96SOL     OW  286   0.556   2.013   1.263 -0.1278  0.0786  0.7989
   96SOL    HW1  287   0.502   2.042   1.182  0.7223 -2.3105 -0.6702
   96SOL    HW2  288   0.521   1.921   1.289 -1.8385 -0.2172 -1.4953
   97SOL     OW  289   0.363   1.568   2.488 -0.0422  0.4247 -0.6937
   97SOL    HW1  290   0.264   1.545   2.509  1.8420  1.4856 -0.7012
   97SOL    HW2  291   0.402   1.644   2.545  0.4580 -1.1411  0.3021
   98SOL     OW  292   1.941   1.590   1.265  0.0686 -0.2339 -0.1094
   98SOL    HW1  293   1.920   1.537   1.349 -2.0361  0.2507  1.2166
   98SOL    HW2  294   1.973   1.530   1.187 -2.0785  1.1773  2.5635
   99SOL     OW  295   2.473   2.095   1.403 -0.2696  0.1095 -1.0077
   99SOL    HW1  296   2.501   2.128   1.496  0.3767  1.5449 -1.5222
   99SOL    HW2  297   2.425   2.000   1.398  0.4539 -1.1661  1.0305
  100SOL     OW  298   2.310   0.392   2.063  0.0618  0.4636  0.1552
  100SOL    HW1  299   2.264   0.369   2.156 -1.6023 -1.0507  4.5735
  100SOL    HW2  300   2.414   0.381   2.070  1.5618  1.3872  0.4932
  101SOL     OW  301   0.398   1.488   0.260 -0.4822 -0.3117 -0.1395
  101SOL    HW1  302   0.449   1.535   0.337  1.0566  2.4698 -0.5453
  101SOL    HW2  303   0.434   1.521   0.169 -1.4882 -0.2055 -2.4442
  102SOL     OW  304   2.320   1.035   0.827  0.2684  0.1051 -0.0414
  102SOL    HW1  305   2.224   0.995   0.826 -0.5880 -3.5272 -0.2799
  102SOL    HW2  306   2.333   1.115   0.760 -0.5966 -1.2472  1.1063
  103SOL     OW  307   2.300   0.029   0.408 -0.5631 -0.2324  0.0608
  103SOL    HW1  308   2.354   0.097   0.351 -0.3647 -2.9525  1.3881
  103SOL    HW2  309   2.359  -0.044   0.450  1.0360 -0.0483 -1.1965
  104SOL     OW  310   0.089   1.759   2.183 -0.2653 -0.3807  0.7325
  104SOL    HW1  311   0.104   1.731   2.088  2.0193 -0.9438 -1.4134
  104SOL    HW2  312  -0.012   1.764   2.210 -1.1085  0.0297  3.5496
  105SOL     OW  313   1.235   2.027   0.818 -0.1952  0.6582  0.1826
  105SOL    HW1  314   1.165   2.052   0.745 -0.0749 -2.0121  0.0081
  105SOL    HW2  315   1.287   1.940   0.793  0.6059  0.7578  2.7358
  106SOL     OW  316   2.134   0.550   1.366  0.3338  0.1533 -0.1942
  106SOL    HW1  317   2.093   0.472   1.417 -1.2844  1.7749 -2.4810
  106SOL    HW2  318   2.116   0.642   1.407 -1.8224  0.2503 -1.2150
  107SOL     OW  319   1.786   2.994   1.097 -0.8387  0.1072 -0.0650
  107SOL    HW1  320   1.811   3.093   1.124  1.5911  1.6844  1.2158
  107SOL    HW2  321   1.749   2.939   1.177 -0.2315 -0.3951 -0.9590
  108SOL     OW  322   0.824   2.744   1.238  0.0552  0.0439 -0.2750
  108SOL    HW1  323   0.790   2.748   1.336 -1.6802  1.1202  1.2826
  108SOL    HW2  324   0.893   2.822   1.222 -0.8690  2.7616 -1.2484
  109SOL     OW  325   2.220   0.142   0.805  0.0410  0.1258 -0.1189
  109SOL    HW1  326   2.122   0.116   0.780 -2.1928  1.6531 -0.0982
  109SOL    HW2  327   2.236   0.150   0.907  0.8606  2.1950  0.8779
  110SOL     OW  328   0.435   2.794   2.705 -0.3148  0.1502  0.2024
  110SOL    HW1  329   0.454   2.828   2.607 -0.4419  1.8121  1.6264
  110SOL    HW2  330   0.513   2.734   2.746  0.4846 -0.2045  0.5717
  111SOL     OW  331   1.340   0.526   2.268 -0.2751  0.5278  0.4842
  111SOL    HW1  332   1.280   0.574   2.339 -1.6551  0.3186  2.2980
  111SOL    HW2  333   1.396   0.445   2.306 -2.8607 -1.2547 -3.5745
  112SOL     OW  334   1.738   0.522   1.468  0.2367 -0.0816  0.3056
  112SOL    HW1  335   1.714   0.505   1.371  1.0053 -1.1688  0.9722
  112SOL    HW2  336   1.707   0.440   1.526 -0.4297  1.1228  1.8147
  113SOL     OW  337   2.265   1.616   1.755 -0.0371  0.1732 -0.0289
  113SOL    HW1  338   2.328   1.539   1.716 -2.1198 -1.0316  0.2247
  113SOL    HW2  339   2.286   1.647   1.853 -3.0369 -0.7545  1.4070
  114SOL     OW  340   0.330   0.531   1.277  0.5813 -0.0981 -0.0440
  114SOL    HW1  341   0.315   0.628   1.238  0.0379 -1.8584  0.1748
  114SOL    HW2  342   0.318   0.459   1.200  1.1389 -0.2659 -0.5495
  115SOL     OW  343   2.666   1.638   1.257  0.7041 -0.0027  1.0894
  115SOL    HW1  344   2.668   1.537   1.264  0.3998 -0.5955  2.1346
  115SOL    HW2  345   2.714   1.675   1.169  0.0389 -0.6443 -0.7442
  116SOL     OW  346   1.793   1.036   0.724 -0.2865 -0.8448 -0.6297
  116SOL    HW1  347   1.699   0.991   0.722 -0.2903  0.5108  0.2572
  116SOL    HW2  348   1.794   1.138   0.739 -1.8615 -0.4497 -1.8173
  117SOL     OW  349   1.142   0.365   0.688  0.2741  0.6902 -0.1868
  117SOL    HW1  350   1.133   0.358   0.789 -0.1993 -0.2154  0.6424
  117SOL    HW2  351   1.185   0.455   0.658  1.8757 -0.6223 -0.7644
  118SOL     OW  352   1.106   1.142   1.081  0.0179  0.2839 -0.5762
  118SOL    HW1  353   1.077   1.061   1.131  2.6151  1.5584  1.3846
  118SOL    HW2  354   1.119   1.226   1.149 -0.0429 -0.0105  2.0807
  119SOL     OW  355   1.844   1.605   2.125 -0.1564 -0.3250 -0.0875
  119SOL    HW1  356   1.822   1.699   2.153  3.7654 -3.1744 -0.1209
  119SOL    HW2  357   1.952   1.593   2.116  2.1301  2.1626 -0.3231
  120SOL     OW  358   2.961   2.835   0.288  0.1990  0.1696 -0.8097
  120SOL    HW1  359   3.015   2.805   0.202 -1.7913  0.5671  0.9361
  120SOL    HW2  360   2.893   2.761   0.313 -1.3468 -1.5037  1.1669
  121SOL     OW  361   1.975   0.746   2.272  0.5374  0.2060  0.7896
  121SOL    HW1  362   2.037   0.813   2.220 -0.1944  0.9953  0.0246
  121SOL    HW2  363   1.976   0.652   2.235  1.5231  1.0648  0.7934
  122SOL     OW  364   2.696   2.661   1.270 -0.2527  0.3382  0.4418
  122SOL    HW1  365   2.717   2.593   1.195  0.6957  1.3690 -0.5328
  122SOL    HW2  366   2.595   2.645   1.309 -2.9921  2.2445 -2.0154
  123SOL     OW  367   1.728   0.069   1.702 -0.1293 -0.2056 -0.5588
  123SOL    HW1  368   1.760  -0.017   1.643  1.8134  0.9937 -1.0635
  123SOL    HW2  369   1.809   0.111   1.754 -0.2194 -1.2599 -0.4149
  124SOL     OW  370   0.119   0.452   1.084  0.1264 -0.2959  0.5571
  124SOL    HW1  371   0.108   0.534   1.145  1.4319 -6.1172 -0.3565
  124SOL    HW2  372   0.089   0.469   0.986 -1.5740 -3.0160  1.5896
  125SOL     OW  373   0.875   1.702   0.655 -0.2299 -0.4654  0.5156
  125SOL    HW1  374   0.975   1.696   0.636 -2.0020  1.4931  2.8302
  125SOL    HW2  375   0.834   1.623   0.709 -0.4520  0.0702  1.7129
  126SOL     OW  376   1.905   2.352   2.419  0.0657 -0.0989  0.1649
  126SOL    HW1  377   1.964   2.319   2.339 -1.2321  0.6562  0.3113
  126SOL    HW2  378   1.831   2.283   2.445  0.8609 -0.2938  0.6288
  127SOL     OW  379   0.801   0.928   0.282  0.3562 -0.0598  0.5643
  127SOL    HW1  380   0.850   0.959   0.369  0.9381 -2.8828  0.4271
  127SOL    HW2  381   0.850   0.843   0.241  1.2630  0.4485  2.1227
  128SOL     OW  382   0.942   0.203   1.354 -0.1675  0.1005 -0.3427
  128SOL    HW1  383   0.887   0.292   1.343 -0.1740  1.3528 -0.3805
  128SOL    HW2  384   0.882   0.122   1.339 -1.9408 -2.7196 -0.4507
  129SOL     OW  385   1.862   0.672   1.871 -0.4157  0.3578  0.2345
  129SOL    HW1  386   1.891   0.680   1.766  0.3558  1.9815 -4.4481
  129SOL    HW2  387   1.872   0.766   1.910 -0.4148 -0.9767 -2.5396
  130SOL     OW  388   1.332   2.219   0.999  0.3277  0.2958  0.4615
  130SOL    HW1  389   1.289   2.166   0.924 -1.0394  0.7641  0.6320
  130SOL    HW2  390   1.401   2.293   0.967  1.3485  2.4816  1.0974
  131SOL     OW  391   0.021   1.512   1.403 -0.4467 -0.6111 -0.0609
  131SOL    HW1  392  -0.042   1.429   1.404 -0.5771 -0.7586  1.3954
  131SOL    HW2  393   0.121   1.496   1.418 -1.2543  0.0796  2.3117
  132SOL     OW  394   2.005   2.394   0.510 -0.0761  0.4051 -0.2594
  132SOL    HW1  395   1.910   2.373   0.470  1.1939 -1.5407 -2.5296
  132SOL    HW2  396   2.011   2.395   0.611  2.0985  0.7257  0.1110
  133SOL     OW  397   1.890   2.283   2.875 -0.1332 -0.0121 -0.0992
  133SOL    HW1  398   1.855   2.363   2.930 -1.1675  0.4208  1.2846
  133SOL    HW2  399   1.909   2.301   2.775 -0.2564  0.3747  0.6734
  134SOL     OW  400   2.712   2.347   1.637 -0.1458  0.2146  0.0016
  134SOL    HW1  401   2.637   2.318   1.704 -1.4525 -1.3006 -0.9620
  134SOL    HW2  402   2.772   2.425   1.668  1.0233  0.4809 -0.8471
  135SOL     OW  403   0.723   1.548   2.620  0.0393 -0.4904  0.2604
  135SOL    HW1  404   0.672   1.462   2.659  1.7384 -2.0733  0.6186
  135SOL    HW2  405   0.786   1.525   2.542 -4.0122 -1.5381  6.5390
  136SOL     OW  406   1.221   2.035   0.425 -0.2251 -0.5439 -0.0390
  136SOL    HW1  407   1.162   2.110   0.466  0.0470 -0.6980 -0.9740
  136SOL    HW2  408   1.161   1.955   0.404  2.0472  1.2926 -3.2108
  137SOL     OW  409   0.407   1.127   2.110 -0.6746  0.1161 -0.1200
  137SOL    HW1  410   0.317   1.152   2.147 -0.3460  2.6665  0.9346
  137SOL    HW2  411   0.452   1.046   2.157 -2.0850 -0.7460 -1.8850
  138SOL     OW  412   2.440   1.504   0.217 -0.1576 -0.5275  0.5488
  138SOL    HW1  413   2.369   1.526   0.148  1.5631  1.3047  2.3730
  138SOL    HW2  414   2.437   1.407   0.251 -0.1849 -1.0149 -1.2070
  139SOL     OW  415   1.809   2.657   1.251 -0.4213  0.1815  0.1765
  139SOL    HW1  416   1.711   2.646   1.233 -1.5341  0.7475  1.3477
  139SOL    HW2  417   1.845   2.578   1.310  0.8876 -1.3765 -0.2433
  140SOL     OW  418   3.034   2.978   2.612  0.0022 -0.3963  0.5897
  140SOL    HW1  419   3.087   2.891   2.623 -1.3476 -0.7085  4.0015
  140SOL    HW2  420   3.099   3.058   2.592 -0.2301  0.9769 -1.6562
  141SOL     OW  421   1.227   1.706   1.611  0.4728  0.1390  0.0105
  141SOL    HW1  422   1.136   1.750   1.635  2.8256  0.2372  0.7582
  141SOL    HW2  423   1.253   1.632   1.674 -0.5411  2.4012 -0.5762
  142SOL     OW  424   1.584   0.608   2.178  0.0046 -0.3705 -0.1281
  142SOL    HW1  425   1.586   0.579   2.074  1.9078  1.0481 -0.4637
  142SOL    HW2  426   1.486   0.601   2.218 -1.4474  1.9410 -0.5656
  143SOL     OW  427   2.745   0.883   0.509  0.1315  0.2677 -0.3441
  143SOL    HW1  428   2.800   0.921   0.431 -0.1617 -0.2817 -0.5601
  143SOL    HW2  429   2.765   0.938   0.594 -2.2026 -3.4909  0.1188
  144SOL     OW  430   2.970   1.259   1.419 -0.5399  0.1479  0.6902
  144SOL    HW1  431   2.934   1.194   1.492 -1.1978 -1.5690 -1.1249
  144SOL    HW2  432   2.981   1.207   1.329  0.1900  1.3589  0.0443
  145SOL     OW  433   1.017   1.816   0.044  0.0329  0.3546 -0.2473
  145SOL    HW1  434   1.025   1.897  -0.024  1.0349  2.5291  0.6430
  145SOL    HW2  435   0.959   1.737   0.012 -1.2339  0.9793 -1.1395
  146SOL     OW  436   2.433   0.661   1.542  0.0497  0.7359 -0.4874
  146SOL    HW1  437   2.406   0.592   1.468  4.3285  0.0966  0.3763
  146SOL    HW2  438   2.377   0.742   1.536  0.9707 -2.1110  0.7706
  147SOL     OW  439   1.091   2.456   0.585  0.3841 -0.1877  0.0192
  147SOL    HW1  440   1.055   2.526   0.516 -0.7817 -0.1672 -1.0578
  147SOL    HW2  441   1.194   2.425   0.564  0.3233 -1.8672  1.2760
  148SOL     OW  442   1.646   1.452   3.093 -0.3330 -0.0872 -0.1053
  148SOL    HW1  443   1.665   1.404   3.005  2.0445  1.9980 -0.2209
  148SOL    HW2  444   1.594   1.396   3.165  0.1474 -0.9090  3.1121
  149SOL     OW  445   0.713   1.434   1.915 -0.1171 -0.7174 -0.2275
  149SOL    HW1  446   0.636   1.407   1.978  1.9277 -0.6053 -2.3493
  149SOL    HW2  447   0.732   1.367   1.842  0.4238  1.3007 -0.6725
  150SOL     OW  448   3.008   1.240   0.921  0.5496  0.0028  0.0079
  150SOL    HW1  449   3.075   1.238   1.001  1.0645 -0.7885  1.6038
  150SOL    HW2  450   2.966   1.146   0.910  0.1033  1.1986 -1.1001
  151SOL     OW  451   0.170   0.769   2.114 -0.0287 -0.2539  0.4164
  151SOL    HW1  452   0.168   0.848   2.040 -1.0758  1.7242  0.5389
  151SOL    HW2  453   0.244   0.696   2.090  0.2879 -3.3165  0.7383
  152SOL     OW  454   1.369   1.718   1.277 -0.0375  0.4331 -0.0822
  152SOL    HW1  455   1.371   1.795   1.350 -1.0626  0.6142  1.8000
  152SOL    HW2  456   1.279   1.723   1.225  1.5617  0.0197  1.6510
  153SOL     OW  457   0.035   1.519   0.172  0.4298  0.5296  0.7654
  153SOL    HW1  458   0.012   1.416   0.169  0.0505 -2.3750  1.3398
  153SOL    HW2  459   0.056   1.554   0.267  2.0330  1.9082  0.3293
  154SOL     OW  460   2.362   1.864   2.831  0.2063  0.3074  0.0163
  154SOL    HW1  461   2.401   1.770   2.818  0.0921  2.5123  0.2176
  154SOL    HW2  462   2.433   1.936   2.818 -0.9706 -0.8670  1.4843
  155SOL     OW  463   2.479   1.244   0.362 -0.0547 -0.4293 -0.2924
  155SOL    HW1  464   2.564   1.259   0.295  2.1002  0.1741 -1.2840
  155SOL    HW2  465   2.393   1.206   0.318 -2.0788  1.3337 -1.0444
  156SOL     OW  466   2.583   0.938   0.897  0.0770  0.2838  0.4533
  156SOL    HW1  467   2.490   0.972   0.872 -0.2976 -0.1562  2.3418
  156SOL    HW2  468   2.651   1.012   0.864  0.4998 -1.4477 -2.5952
  157SOL     OW  469   1.202   2.980   2.982  0.0682 -0.1721  0.8085
  157SOL    HW1  470   1.278   2.961   2.912  0.6601  0.3658  1.5630
  157SOL    HW2  471   1.210   3.078   3.021  1.6628 -0.5166 -2.4921
  158SOL     OW  472   0.998   1.879   1.977 -0.3136  0.2716  0.4552
  158SOL    HW1  473   1.054   1.964   1.988  1.2533 -0.3096  2.0306
  158SOL    HW2  474   0.920   1.884   2.045 -0.3978 -0.9403 -2.7607
  159SOL     OW  475   0.839   0.440   1.298 -0.0338  0.3287 -0.2498
  159SOL    HW1  476   0.811   0.531   1.340 -0.0959 -1.5416  2.4989
  159SOL    HW2  477   0.783   0.420   1.216  0.0666  0.3986  1.8117
  160SOL     OW  478   1.437   2.454   1.662 -0.4163 -0.9773  0.6826
  160SOL    HW1  479   1.467   2.550   1.624  1.5942 -1.1327  0.5871
  160SOL    HW2  480   1.503   2.373   1.647  0.0980 -0.2521  1.7010
  161SOL     OW  481   0.165   2.892   0.313 -0.7100  0.2206  0.0997
  161SOL    HW1  482   0.079   2.837   0.324 -2.3127 -3.3877  1.3310
  161SOL    HW2  483   0.153   2.988   0.259  2.6033  1.3922 -0.2894
  162SOL     OW  484   2.588   1.900   0.462  0.1993  0.4742 -0.4804
  162SOL    HW1  485   2.585   1.850   0.373  0.5349  3.3949  0.3619
  162SOL    HW2  486   2.568   1.846   0.546 -1.6380  2.1206  2.5428
  163SOL     OW  487   1.981   2.662   0.739  0.3857 -0.0722  0.5849
  163SOL    HW1  488   1.969   2.671   0.635  1.8096  0.9912  0.5086
  163SOL    HW2  489   2.075   2.618   0.764  0.2580  0.5739  2.4841
  164SOL     OW  490   3.037   0.262   1.261  0.1497 -0.6417 -0.7728
  164SOL    HW1  491   3.080   0.303   1.175 -0.6544 -0.0867  0.7559
  164SOL    HW2  492   3.094   0.184   1.300 -1.5330 -0.0852 -2.1413
  165SOL     OW  493   0.957   1.427   0.662 -0.6603  0.4792 -0.2400
  165SOL    HW1  494   0.917   1.466   0.749  1.1628  0.7077  1.9507
  165SOL    HW2  495   0.951   1.490   0.582 -0.9078  1.8293 -2.0268
  166SOL     OW  496   1.487   1.081   1.721 -0.3328  0.4465 -0.1242
  166SOL    HW1  497   1.422   1.022   1.783  0.1637  1.4621 -0.3898
  166SOL    HW2  498   1.574   1.116   1.769 -0.7410 -0.5855 -4.0829
  167SOL     OW  499   0.801   1.916   1.516 -0.7218 -0.0827 -0.5922
  167SOL    HW1  500   0.796   1.986   1.591  0.1055 -2.2417 -0.5925
  167SOL    HW2  501   0.735   1.837   1.529 -0.3510 -2.3899 -1.0356
  168SOL     OW  502   1.613   2.385   0.151  0.0443  0.0488 -0.6458
  168SOL    HW1  503   1.683   2.408   0.082  1.5772 -1.3187  1.3205
  168SOL    HW2  504   1.641   2.300   0.204  0.9750 -0.7068  1.0543
  169SOL     OW  505   0.235   2.620   2.216  0.3957 -0.5985 -0.0920
  169SOL    HW1  506   0.246   2.577   2.124 -1.9031  0.0534  2.0053
  169SOL    HW2  507   0.231   2.547   2.290 -4.3961  2.2603 -0.5247
  170SOL     OW  508   1.240   0.302   1.935  0.1490 -0.4177  0.0288
  170SOL    HW1  509   1.282   0.271   2.024  1.4138  0.5906  0.9839
  170SOL    HW2  510   1.203   0.220   1.880 -0.5865 -0.0067  0.3416
  171SOL     OW  511   0.211   0.803   2.401 -0.1543  0.7435 -0.3773
  171SOL    HW1  512   0.140   0.830   2.478  0.7823  1.2893  1.5017
  171SOL    HW2  513   0.175   0.829   2.306  1.2114  0.9779 -2.6930
  172SOL     OW  514   0.874   1.111   2.970  0.4269 -0.2087 -0.4155
  172SOL    HW1  515   0.962   1.147   3.013 -0.1757 -2.5283 -1.3222
  172SOL    HW2  516   0.875   1.121   2.867  0.9712 -3.0568  2.4156
  173SOL     OW  517   0.659   2.686   0.107  0.2966 -0.7928 -0.4165
  173SOL    HW1  518   0.652   2.791   0.116 -0.4604 -2.2064 -1.7996
  173SOL    HW2  519   0.571   2.637   0.108  2.1497 -0.6366  2.3429
  174SOL     OW  520   1.392   2.819   1.079 -0.0528 -0.0601  0.0145
  174SOL    HW1  521   1.436   2.906   1.044 -3.4381  0.3611  0.8572
  174SOL    HW2  522   1.339   2.775   1.004 -0.7612  0.4449 -0.9888
  175SOL     OW  523   0.437   0.047   1.641 -0.5999  0.4524 -0.3363
  175SOL    HW1  524   0.499   0.109   1.696 -1.5022 -2.1021  0.8705
  175SOL    HW2  525   0.352   0.101   1.609  0.6993  0.7652 -0.0731
  176SOL     OW  526   2.529   0.403   3.081  0.2458 -0.2528  0.5886
  176SOL    HW1  527   2.567   0.481   3.138  1.2051  1.6050 -0.8798
  176SOL    HW2  528   2.459   0.327   3.120 -0.6558 -4.4561  1.2071
  177SOL     OW  529   0.352   0.286   0.933 -0.1398  0.0046 -0.1870
  177SOL    HW1  530   0.402   0.243   1.007 -0.5655  1.2209 -2.0354
  177SOL    HW2  531   0.265   0.320   0.971  3.2540 -2.4038  2.1632
  178SOL     OW  532   0.033   2.714   2.608 -0.1083 -0.2226  0.6224
  178SOL    HW1  533  -0.034   2.641   2.635 -0.2822  0.7125 -0.2994
  178SOL    HW2  534   0.095   2.736   2.692  0.8658  2.8796 -0.9893
  179SOL     OW  535   0.010   1.702   1.183 -0.0556  0.2093 -0.2498
  179SOL    HW1  536  -0.073   1.754   1.174  2.6820 -3.0949  3.5717
  179SOL    HW2  537   0.017   1.644   1.267  1.6995 -0.6493  0.2435
  180SOL     OW  538   0.245   1.212   1.842 -0.8204  0.2640  0.7872
  180SOL    HW1  539   0.349   1.221   1.830  0.8625  1.2362 -0.7305
  180SOL    HW2  540   0.211   1.273   1.916  1.5661 -3.0766 -1.1198
  181SOL     OW  541   3.057   1.861   2.547 -0.1740  0.0070 -0.0030
  181SOL    HW1  542   3.142   1.904   2.512  1.0913 -0.2652  3.3112
  181SOL    HW2  543   2.962   1.871   2.488 -3.4548  1.5373 -3.1483
  182SOL     OW  544   2.305   1.279   1.159 -0.2151  0.3396  0.2810
  182SOL    HW1  545   2.236   1.226   1.105 -1.4054  0.7673 -1.6229
  182SOL    HW2  546   2.275   1.377   1.174 -0.1428  0.9402 -2.0074
  183SOL     OW  547   1.498   2.271   2.496  0.3946  0.3891  0.0965
  183SOL    HW1  548   1.424   2.199   2.511  1.4166 -1.1360  1.8460
  183SOL    HW2  549   1.602   2.239   2.519  4.4313  0.1633 -0.2549
  184SOL     OW  550   2.043   0.937   0.832 -0.0193  0.2499  0.4282
  184SOL    HW1  551   1.958   0.983   0.794 -0.7005  0.4435 -1.6517
  184SOL    HW2  552   2.016   0.844   0.874  1.6746 -0.6292 -0.6850
  185SOL     OW  553   1.591   2.688   2.078 -0.3056  0.0359 -0.3557
  185SOL    HW1  554   1.533   2.758   2.029  0.7070 -0.0083  1.3887
  185SOL    HW2  555   1.541   2.635   2.157 -3.0542  0.7697  0.6171
  186SOL     OW  556   0.069   2.212   1.722  0.3239 -0.0297 -0.1020
  186SOL    HW1  557   0.094   2.312   1.733  1.6991  0.8527  0.4699
  186SOL    HW2  558   0.143   2.149   1.694 -4.0426 -3.0869  1.8418
  187SOL     OW  559   1.383   0.712   1.682 -0.1883 -0.4256 -0.1482
  187SOL    HW1  560   1.443   0.755   1.603  2.8532 -0.5819  1.3660
  187SOL    HW2  561   1.401   0.748   1.777  2.0250 -2.3725  0.6097
  188SOL     OW  562   2.800   2.780   1.480 -0.0771 -0.8753 -0.7682
  188SOL    HW1  563   2.764   2.878   1.473 -2.4172 -1.8930 -2.5620
  188SOL    HW2  564   2.778   2.733   1.390  0.3175 -1.2023 -1.5298
  189SOL     OW  565   0.843   1.036   1.385  0.1877  0.5813 -0.2818
  189SOL    HW1  566   0.921   1.098   1.404 -0.1608 -1.6795  1.7753
  189SOL    HW2  567   0.800   1.041   1.290 -2.2990 -0.7940 -0.5098
  190SOL     OW  568   1.524   1.875   1.570  0.4956  0.5946 -0.5125
  190SOL    HW1  569   1.423   1.852   1.556 -0.0215 -3.4026 -0.8703
  190SOL    HW2  570   1.543   1.887   1.670  0.4560  1.2333 -1.3807
  191SOL     OW  571   0.968   0.747   1.562 -0.4418 -0.4707 -0.0629
  191SOL    HW1  572   1.007   0.652   1.575  1.2466  0.9828  2.3258
  191SOL    HW2  573   1.038   0.821   1.545  0.6211 -1.0253  0.2967
  192SOL     OW  574   1.846   2.300   1.124  0.2026 -0.5100 -0.0199
  192SOL    HW1  575   1.807   2.267   1.034  1.6774 -1.2495 -3.4234
  192SOL    HW2  576   1.935   2.353   1.108 -1.1278  1.4527 -0.8413
  193SOL     OW  577   0.506   0.611   0.400  0.0609  0.2789 -0.2821
  193SOL    HW1  578   0.479   0.541   0.470  0.4619 -1.8798  0.5022
  193SOL    HW2  579   0.547   0.561   0.316  1.8043  0.0266  0.9785
  194SOL     OW  580   0.293   0.846   1.270 -0.0271  0.3805 -0.4990
  194SOL    HW1  581   0.195   0.816   1.252  0.7070  3.3598 -0.4933
  194SOL    HW2  582   0.325   0.919   1.202  1.4796  0.2318 -1.8213
  195SOL     OW  583   0.977   2.934   0.430  0.4358 -0.0777  0.1484
  195SOL    HW1  584   0.988   2.834   0.415 -0.7295  0.0150  2.4437
  195SOL    HW2  585   1.058   2.989   0.437  0.7436 -0.7207  0.2171
  196SOL     OW  586   0.291   1.411   1.406 -0.5455 -0.2053  0.0107
  196SOL    HW1  587   0.353   1.468   1.469  2.2584 -1.4816  1.2112
  196SOL    HW2  588   0.270   1.313   1.446 -0.7492 -2.3072  0.1094
  197SOL     OW  589   0.933   2.048   0.224 -0.4470  0.0517  0.1933
  197SOL    HW1  590   0.897   2.025   0.318 -1.3545 -0.8780 -0.1140
  197SOL    HW2  591   0.970   1.962   0.178  1.2011 -1.2757  0.5411
  198SOL     OW  592   0.262   1.251   0.286  0.1578  0.1692  0.0517
  198SOL    HW1  593   0.162   1.237   0.251 -2.0031 -0.6689 -0.0525
  198SOL    HW2  594   0.298   1.346   0.282  2.0733  1.2165 -2.0154
  199SOL     OW  595   2.227   0.387   2.518 -0.2156  0.2255 -0.5613
  199SOL    HW1  596   2.144   0.349   2.569 -1.8683 -0.8264  0.7645
  199SOL    HW2  597   2.313   0.352   2.560 -3.1713  1.0247 -2.8961
  200SOL     OW  598   3.099   2.971   0.682 -0.1444 -0.0116 -0.8541
  200SOL    HW1  599   3.038   3.021   0.616 -2.4249 -2.7672 -0.2715
  200SOL    HW2  600   3.154   3.033   0.744  0.0761 -1.4375  1.9889
  201SOL     OW  601   1.109   0.737   0.643 -0.2058 -0.3957  0.0202
  201SOL    HW1  602   1.115   0.827   0.696 -1.7067 -1.4371 -0.9719
  201SOL    HW2  603   1.014   0.708   0.617  0.9322 -0.6098  2.9395
  202SOL     OW  604   0.495   1.249   1.761  0.3586 -0.1483  1.1551
  202SOL    HW1  605   0.502   1.259   1.654  0.6071 -3.0699 -0.0879
  202SOL    HW2  606   0.544   1.167   1.795 -1.1865  1.9426 -0.6415
  203SOL     OW  607   0.727   0.204   1.609  0.2859  0.3453 -0.3816
  203SOL    HW1  608   0.747   0.134   1.532  1.9370  0.9512  1.0725
  203SOL    HW2  609   0.806   0.230   1.673  1.8360 -0.1436 -0.6035
  204SOL     OW  610   2.100   1.836   3.007 -0.0634 -0.2301 -0.5446
  204SOL    HW1  611   2.111   1.730   3.000  4.9632 -0.6968  5.9481
  204SOL    HW2  612   2.071   1.877   2.919  0.9161  0.5849 -1.7796
  205SOL     OW  613   1.845   1.864   0.030 -0.0283  0.2252 -0.0348
  205SOL    HW1  614   1.942   1.859  -0.017  0.0440 -1.6742 -2.2372
  205SOL    HW2  615   1.803   1.957   0.021  1.4191 -0.1931  0.8646
  206SOL     OW  616   2.546   2.783   0.352 -0.7262 -0.3274 -0.5303
  206SOL    HW1  617   2.621   2.713   0.377  0.8397  1.2629  0.0874
  206SOL    HW2  618   2.584   2.848   0.274 -0.0017 -0.7690  1.4393
  207SOL     OW  619   0.591   1.773   2.913 -0.4647 -0.1017  0.3421
  207SOL    HW1  620   0.694   1.761   2.903 -2.7926  0.3134 -2.3188
  207SOL    HW2  621   0.541   1.700   2.969 -1.3398  2.5339  0.2928
  208SOL     OW  622   1.072   1.541   1.436  0.6975 -0.1255 -0.3627
  208SOL    HW1  623   1.008   1.585   1.360 -2.5871  1.2415  0.8134
  208SOL    HW2  624   1.138   1.611   1.481  2.4805  2.3165 -1.3369
  209SOL     OW  625   0.295   0.941   2.997 -0.5358  0.2169 -0.0293
  209SOL    HW1  626   0.318   0.864   2.931  1.5052  0.7171  0.2035
  209SOL    HW2  627   0.263   0.912   3.092 -1.7377 -0.1364  0.5139
  210SOL     OW  628   1.717   0.474   1.182 -0.1015  0.4545 -0.0901
  210SOL    HW1  629   1.680   0.569   1.155  0.5187  0.5033  0.3959
  210SOL    HW2  630   1.818   0.463   1.160  1.3179 -1.9731 -0.9066
  211SOL     OW  631   2.113   1.070   1.620 -0.2821  0.6001 -0.1118
  211SOL    HW1  632   2.192   1.048   1.688  0.0216 -1.4791 -0.3253
  211SOL    HW2  633   2.149   1.107   1.533 -2.7207 -1.0661  1.1970
  212SOL     OW  634   0.013   0.996   1.478  0.0132  0.2635 -0.6200
  212SOL    HW1  635   0.060   1.072   1.532  0.3517 -1.3714 -3.0557
  212SOL    HW2  636   0.021   0.905   1.528 -0.0034  2.5507  3.0142
  213SOL     OW  637   2.738   0.361   0.268  1.0559  0.6113 -0.3061
  213SOL    HW1  638   2.814   0.307   0.225 -2.3562 -0.1485 -0.0254
  213SOL    HW2  639   2.708   0.439   0.219  0.4752 -3.5912  1.7205
  214SOL     OW  640   2.183   0.274   2.288  0.1613  0.3512  0.5794
  214SOL    HW1  641   2.188   0.323   2.381  0.6269 -1.3356 -0.0157
  214SOL    HW2  642   2.142   0.179   2.300  1.1243 -0.2460  3.7975
  215SOL     OW  643   1.668   2.296   2.015 -0.1624  0.1250  0.0926
  215SOL    HW1  644   1.767   2.334   2.021 -0.0194  1.5601  1.2676
  215SOL    HW2  645   1.607   2.352   2.086  0.7557 -1.0712  0.0562
  216SOL     OW  646   2.206   0.550   0.696  0.0636 -0.2197  0.3517
  216SOL    HW1  647   2.170   0.463   0.651  0.1207 -2.4444  1.8993
  216SOL    HW2  648   2.250   0.615   0.624  0.2814 -0.8175  0.6635
  217SOL     OW  649   0.736   2.779   2.447 -0.2799 -0.1015  0.9450
  217SOL    HW1  650   0.778   2.694   2.483 -1.1752  1.4478 -2.3129
  217SOL    HW2  651   0.722   2.774   2.347  2.6161 -0.0835  2.6702
  218SOL     OW  652   1.903   1.396   0.066  0.6993  0.4223  0.1620
  218SOL    HW1  653   1.815   1.436   0.028 -0.5979 -1.8424 -1.1032
  218SOL    HW2  654   1.885   1.311   0.122 -2.3790 -1.6073  0.4778
  219SOL     OW  655   2.352   1.271   2.525 -0.0201  0.4581  0.4694
  219SOL    HW1  656   2.350   1.204   2.442  0.0651 -0.4890  2.1007
  219SOL    HW2  657   2.352   1.219   2.613 -3.0518  1.3064  0.3325
  220SOL     OW  658   1.529   1.019   1.220  0.2411 -0.5255 -0.5003
  220SOL    HW1  659   1.610   1.064   1.267  1.6911 -2.2003  2.7938
  220SOL    HW2  660   1.478   1.071   1.148 -2.4901  1.2373  0.7639
  221SOL     OW  661   1.359   1.112   2.212  0.4314 -0.0745 -0.6729
  221SOL    HW1  662   1.314   1.181   2.151  0.8884 -0.8900 -1.8640
  221SOL    HW2  663   1.454   1.080   2.182  0.9775 -2.0319  0.2169
  222SOL     OW  664   1.241   0.034   1.231  0.2933 -0.1589  0.4431
  222SOL    HW1  665   1.226   0.086   1.321  0.2084  3.1981  0.2312
  222SOL    HW2  666   1.278   0.099   1.161  0.8382 -2.0966 -2.6247
  223SOL     OW  667   2.884   0.860   2.026 -0.8701  0.2694  0.3015
  223SOL    HW1  668   2.922   0.859   2.123 -2.3563  1.1640  0.9760
  223SOL    HW2  669   2.926   0.926   1.956  1.8168 -3.4770 -0.2723
  224SOL     OW  670   1.487   0.952   2.772 -0.0387  0.2068 -0.4890
  224SOL    HW1  671   1.524   0.899   2.685  2.5447 -1.3825 -3.2687
  224SOL    HW2  672   1.489   1.060   2.762 -0.6103  0.5235 -0.2864
  225SOL     OW  673   2.983   2.756   2.879 -0.1903  0.1520  0.0669
  225SOL    HW1  674   2.958   2.664   2.831 -0.5736 -0.4653  0.6972
  225SOL    HW2  675   3.011   2.835   2.812 -0.0094  2.0245 -1.4518
  226SOL     OW  676   2.435   1.584   2.850 -0.3916  0.2302 -0.2881
  226SOL    HW1  677   2.463   1.586   2.751 -1.0764  0.1327  0.9746
  226SOL    HW2  678   2.362   1.513   2.872  1.0442  0.6581 -1.7937
  227SOL     OW  679   0.900   0.121   3.020  0.1286  0.2546  0.4761
  227SOL    HW1  680   0.893   0.025   3.065  0.2222 -3.6380 -1.8498
  227SOL    HW2  681   0.895   0.116   2.911 -4.9930  0.4689 -1.7880
  228SOL     OW  682   2.381   0.632   2.829 -0.3541 -0.2026  0.2779
  228SOL    HW1  683   2.334   0.655   2.739 -1.9633 -0.1415  0.5122
  228SOL    HW2  684   2.483   0.597   2.820  2.1231  2.9425  0.8081
  229SOL     OW  685   0.548   0.524   1.871  0.7348  0.3543  0.0506
  229SOL    HW1  686   0.543   0.479   1.777 -3.9929 -3.8378  2.5923
  229SOL    HW2  687   0.633   0.583   1.887 -0.8921  0.2489  1.9814
  230SOL     OW  688   1.912   1.227   2.157  0.4705 -0.5221  0.1029
  230SOL    HW1  689   1.969   1.237   2.070 -1.2279 -0.3914  0.0474
  230SOL    HW2  690   1.814   1.265   2.134 -3.0764 -1.0702 -0.7203
  231SOL     OW  691   0.636   0.979   3.002  0.1116 -0.4152 -0.1527
  231SOL    HW1  692   0.706   1.057   3.010 -0.9622  1.7637  1.5250
  231SOL    HW2  693   0.598   0.945   3.091  0.6543  2.5668  1.1519
  232SOL     OW  694   2.461   3.094   2.755 -0.3791  0.3549 -0.3220
  232SOL    HW1  695   2.510   3.031   2.823  0.6312  2.8830 -0.2095
  232SOL    HW2  696   2.484   3.076   2.656  0.8470 -0.0119  1.8932
  233SOL     OW  697   1.694   1.290   1.096 -0.1821  0.8013  0.0388
  233SOL    HW1  698   1.659   1.306   1.001 -0.2213 -1.9081  2.0933
  233SOL    HW2  699   1.789   1.241   1.098  1.9325 -0.7583  0.8480
  234SOL     OW  700   1.649   2.548   1.850 -0.8392 -0.1076  0.1971
  234SOL    HW1  701   1.622   2.595   1.937  1.8280  2.3023  0.0609
  234SOL    HW2  702   1.566   2.522   1.795 -0.2847  1.7375  0.0095
  235SOL     OW  703   0.041   3.015   2.903 -0.8695  0.7048  0.1507
  235SOL    HW1  704   0.108   3.080   2.862  0.5258  1.2683  0.8130
  235SOL    HW2  705  -0.020   3.047   2.979 -0.9155 -2.7684  0.1435
  236SOL     OW  706   2.867   0.693   0.119 -0.4733 -0.7204  0.6520
  236SOL    HW1  707   2.915   0.764   0.177 -1.0609  2.3069  2.8306
  236SOL    HW2  708   2.929   0.630   0.058  3.0308 -0.4711 -0.8426
  237SOL     OW  709   1.505   1.632   1.022  0.1224 -0.0162  0.4017
  237SOL    HW1  710   1.612   1.627   1.013 -0.4017  3.4253 -0.8969
  237SOL    HW2  711   1.465   1.638   1.114 -0.8388 -1.5963 -0.2955
  238SOL     OW  712   1.753   1.294   0.795  0.3604 -0.1356  0.5377
  238SOL    HW1  713   1.849   1.320   0.765 -2.1068  0.4204 -0.8770
  238SOL    HW2  714   1.680   1.347   0.749  3.3297 -1.5435  1.3609
  239SOL     OW  715   2.045   0.279   2.674 -0.6102  0.1764  0.5211
  239SOL    HW1  716   2.125   0.247   2.732 -2.9177  0.1927 -0.8486
  239SOL    HW2  717   1.971   0.324   2.731  0.9796 -0.7830 -1.1835
  240SOL     OW  718   0.911   0.679   0.258  0.8131 -0.5910 -0.0125
  240SOL    HW1  719   0.891   0.584   0.225  0.1534  0.6630  1.2995
  240SOL    HW2  720   0.864   0.684   0.355 -0.7016  1.0066  3.6808
  241SOL     OW  721   0.585   0.094   0.321 -0.0032 -0.2070 -0.1993
  241SOL    HW1  722   0.619   0.160   0.244  1.0814  2.0050 -0.5504
  241SOL    HW2  723   0.552   0.003   0.295  0.1120  2.9594  0.4361
  242SOL     OW  724   0.652   2.468   1.148 -0.1522  0.4528 -0.3459
  242SOL    HW1  725   0.605   2.505   1.236  1.3516 -2.3195  1.7276
  242SOL    HW2  726   0.733   2.525   1.121  2.0003  1.3472 -1.8126
  243SOL     OW  727   1.121   0.637   2.440  0.3635 -0.2066 -0.0604
  243SOL    HW1  728   1.058   0.722   2.408 -1.3868 -0.3438 -0.4797
  243SOL    HW2  729   1.061   0.557   2.478 -0.7096 -1.4299 -0.3247
  244SOL     OW  730   2.802   1.857   2.397  0.0843 -0.2259 -0.5872
  244SOL    HW1  731   2.817   1.841   2.298 -1.0944  0.5171  0.0528
  244SOL    HW2  732   2.706   1.825   2.425  1.4238 -0.2418 -1.4686
  245SOL     OW  733   2.485   0.707   2.146  0.3715 -0.3586  0.3253
  245SOL    HW1  734   2.525   0.780   2.208 -1.2389 -0.8237  0.7133
  245SOL    HW2  735   2.512   0.609   2.164  2.0026 -3.9544 -0.3768
  246SOL     OW  736   0.304   2.904   1.685 -0.3186  0.3729  0.5985
  246SOL    HW1  737   0.217   2.913   1.628 -1.2560 -0.4170 -2.3713
  246SOL    HW2  738   0.367   2.985   1.674  0.1953 -1.2994 -1.2385
  247SOL     OW  739   2.202   0.594   3.043  0.7849 -0.4893  0.1801
  247SOL    HW1  740   2.254   0.578   2.953  0.0993 -0.3680  0.5742
  247SOL    HW2  741   2.167   0.688   3.058  0.5419  0.5610 -0.7018
  248SOL     OW  742   2.153   1.859   1.619 -0.8172 -0.6984  0.1681
  248SOL    HW1  743   2.224   1.791   1.653  0.9562 -0.5418  1.2247
  248SOL    HW2  744   2.063   1.832   1.661 -0.7932 -1.6527 -1.5065
  249SOL     OW  745   1.933   2.002   1.954  0.1717 -0.4961  0.0375
  249SOL    HW1  746   1.943   1.924   1.887  1.2608 -0.9604  0.3238
  249SOL    HW2  747   2.022   2.032   1.995  1.8751  1.2122  0.8293
  250SOL     OW  748   1.067   0.733   1.865  0.7637  0.3170 -0.1887
  250SOL    HW1  749   1.086   0.675   1.949  1.2618 -1.0953 -2.3039
  250SOL    HW2  750   1.092   0.674   1.784  1.7950  1.0108  0.1596
  251SOL     OW  751   3.057   1.579   2.547 -0.2951 -0.2357 -0.1036
  251SOL    HW1  752   3.066   1.682   2.530 -3.9276  1.2611 -1.4397
  251SOL    HW2  753   2.966   1.538   2.517 -0.1914 -1.5208 -0.0157
  252SOL     OW  754   1.515   0.902   1.512  0.2061 -0.3133 -0.4937
  252SOL    HW1  755   1.551   0.941   1.422 -0.0990 -0.4930 -1.6972
  252SOL    HW2  756   1.506   0.972   1.586  2.6237  3.6320 -1.0446
  253SOL     OW  757   0.933   1.568   0.383 -0.0412 -0.3190  0.1768
  253SOL    HW1  758   0.996   1.489   0.403 -1.4338 -1.2995  1.0677
  253SOL    HW2  759   0.842   1.536   0.328 -0.3140 -2.8708  1.7703
  254SOL     OW  760   2.064   2.178   1.605  0.5837 -0.0385  0.0780
  254SOL    HW1  761   2.030   2.113   1.528  2.2201 -1.1732 -2.1535
  254SOL    HW2  762   1.993   2.216   1.669 -0.3321 -0.0621 -1.5002
  255SOL     OW  763   0.138   1.154   2.923  0.1701 -0.0689  0.1607
  255SOL    HW1  764   0.185   1.245   2.929 -3.6300 -2.9258 -2.0330
  255SOL    HW2  765   0.201   1.077   2.947  2.1078  0.9234  0.1192
  256SOL     OW  766   2.816   1.365   1.847 -0.2730  0.0882 -0.3726
  256SOL    HW1  767   2.765   1.452   1.868 -0.9882  0.0844 -0.3703
  256SOL    HW2  768   2.773   1.279   1.894  0.6025 -0.9948 -0.1206
  257SOL     OW  769   0.900   0.161   1.862 -0.1441 -0.5691 -0.7971
  257SOL    HW1  770   0.960   0.193   1.778  0.7592  0.1736 -0.6555
  257SOL    HW2  771   0.917   0.062   1.889  2.4813  0.6381 -1.7265
  258SOL     OW  772   2.985   1.283   0.435  0.1654 -0.0176  0.6348
  258SOL    HW1  773   2.921   1.365   0.428  1.2940  3.0229 -0.7332
  258SOL    HW2  774   3.040   1.290   0.525 -2.5235  1.3069 -1.3708
  259SOL     OW  775   0.449   2.926   2.991  0.5396  0.8827  0.3368
  259SOL    HW1  776   0.375   2.865   3.034 -1.1624 -2.2358  1.4433
  259SOL    HW2  777   0.509   2.869   2.928 -1.7500  1.2226 -1.9045
  260SOL     OW  778   2.704   0.867   2.744 -0.2592 -0.4129 -0.2630
  260SOL    HW1  779   2.621   0.822   2.699 -1.1408  0.2760 -0.0174
  260SOL    HW2  780   2.690   0.879   2.845  2.0048  2.1670 -0.2121
  261SOL     OW  781   2.731   1.369   1.316 -0.0378  0.2276 -0.1380
  261SOL    HW1  782   2.684   1.298   1.261 -0.8085  2.6644  1.3037
  261SOL    HW2  783   2.824   1.339   1.354 -1.5679  1.8912 -0.4904
  262SOL     OW  784   1.442   2.918   1.969 -0.7691  0.4164  0.0864
  262SOL    HW1  785   1.467   3.019   1.946 -1.0613  2.1227 -1.0772
  262SOL    HW2  786   1.341   2.903   1.955 -0.4019  2.4530 -1.4642
  263SOL     OW  787   0.855   0.773   2.303  0.2262 -0.6943  0.2733
  263SOL    HW1  788   0.826   0.673   2.294 -1.2614 -1.1245 -0.5775
  263SOL    HW2  789   0.899   0.813   2.214  0.7530  1.9884 -0.0591
  264SOL     OW  790   2.254   0.704   0.425 -0.3383  0.5302 -0.8882
  264SOL    HW1  791   2.154   0.698   0.417  1.4646  1.3560 -0.8173
  264SOL    HW2  792   2.292   0.795   0.431  4.2531 -3.6187 -1.3935
  265SOL     OW  793   0.906   2.277   2.672  0.3830  0.1537 -0.3222
  265SOL    HW1  794   0.944   2.330   2.755 -0.1563  1.9141 -1.5323
  265SOL    HW2  795   0.842   2.205   2.700 -2.8960  3.2566 -0.8742
  266SOL     OW  796   1.338   1.719   0.038 -0.1461  0.5045 -0.3312
  266SOL    HW1  797   1.304   1.783   0.112 -2.2559  0.4843  1.3891
  266SOL    HW2  798   1.438   1.736   0.013  1.9591 -1.3704 -0.7262
  267SOL     OW  799   1.042   3.060   2.396  0.1145 -0.2131 -0.3755
  267SOL    HW1  800   1.019   3.002   2.314  2.6011 -0.0613  0.4189
  267SOL    HW2  801   1.042   3.165   2.375 -4.8286  1.0490 -1.2492
  268SOL     OW  802   0.675   1.156   1.054 -0.1484 -0.1938  0.9557
  268SOL    HW1  803   0.683   1.218   1.140  1.6022 -0.1899 -2.0413
  268SOL    HW2  804   0.655   1.213   0.970 -2.4105  0.0881  0.2769
  269SOL     OW  805   2.441   2.428   1.580 -0.4432  0.1420 -0.6192
  269SOL    HW1  806   2.529   2.376   1.573  0.3628 -0.3839 -1.5498
  269SOL    HW2  807   2.419   2.449   1.677  0.9749 -0.9903  1.0783
  270SOL     OW  808   0.155   3.034   1.928 -0.6587  0.3837 -0.3064
  270SOL    HW1  809   0.220   2.980   1.868  3.1019  2.4852  1.8180
  270SOL    HW2  810   0.091   2.974   1.983  0.5643  0.0272  0.7909
  271SOL     OW  811   0.447   1.430   1.184  0.4726  0.4074 -0.4535
  271SOL    HW1  812   0.406   1.434   1.090 -0.6580 -0.9819 -1.1159
  271SOL    HW2  813   0.368   1.412   1.251  2.0127  2.2731 -0.1259
  272SOL     OW  814   1.941   2.920   1.929  1.0357 -0.1533 -0.0670
  272SOL    HW1  815   1.905   2.860   1.854 -1.3853  1.6705  2.7586
  272SOL    HW2  816   2.009   2.988   1.900  2.4314  1.1919 -0.5692
  273SOL     OW  817   1.392   1.422   2.835 -0.4163  0.1844  0.1250
  273SOL    HW1  818   1.317   1.471   2.780  0.8939  1.5006  3.0084
  273SOL    HW2  819   1.381   1.444   2.938 -0.6692 -0.9810 -0.5117
  274SOL     OW  820   1.148   0.548   2.053  0.0209  0.3921  0.4833
  274SOL    HW1  821   1.196   0.477   1.996  2.8345 -0.6451 -1.4781
  274SOL    HW2  822   1.196   0.557   2.146  0.2173 -1.4079 -0.9249
  275SOL     OW  823   0.623   2.077   1.955 -0.1245 -0.3131 -0.2735
  275SOL    HW1  824   0.588   2.173   1.939 -1.4269  0.8670 -0.8480
  275SOL    HW2  825   0.557   2.004   1.930  1.4124  2.2924 -1.8357
  276SOL     OW  826   2.174   0.909   2.745  0.1139 -0.4866  0.4035
  276SOL    HW1  827   2.114   0.883   2.662  0.6959 -0.6489  0.5973
  276SOL    HW2  828   2.145   0.871   2.832  3.8303 -0.2005  0.3115
  277SOL     OW  829   3.067   0.876   0.221  0.2758  0.1504  0.4150
  277SOL    HW1  830   3.153   0.883   0.162  1.1712  0.6435  1.7246
  277SOL    HW2  831   3.073   0.792   0.280  1.5374  0.9766 -2.2262
  278SOL     OW  832   0.218   0.300   2.978  0.4259  0.1175  0.4379
  278SOL    HW1  833   0.262   0.228   3.040 -0.3508 -2.7182  0.4791
  278SOL    HW2  834   0.230   0.394   3.013 -0.0892  3.7093  1.2629
  279SOL     OW  835   0.152   0.070   0.867 -0.6126  0.1944  0.3074
  279SOL    HW1  836   0.185   0.039   0.961  1.1682 -2.1043  0.1826
  279SOL    HW2  837   0.231   0.086   0.803  0.6653  0.9393  3.3972
  280SOL     OW  838   1.643   2.889   2.556  0.3753 -0.6063 -0.4082
  280SOL    HW1  839   1.712   2.962   2.528  1.9632 -1.1945 -0.8101
  280SOL    HW2  840   1.543   2.921   2.538 -2.1674 -1.4098  3.5467
  281SOL     OW  841   0.572   0.979   2.283  0.1423 -0.5398 -0.0234
  281SOL    HW1  842   0.559   0.886   2.234 -0.2646  2.2850 -0.6495
  281SOL    HW2  843   0.523   0.984   2.377 -0.3225 -0.8413 -0.3992
  282SOL     OW  844   1.697   2.383   0.503 -0.6715 -0.1468 -0.2768
  282SOL    HW1  845   1.658   2.305   0.446  3.2424 -1.4897 -0.5527
  282SOL    HW2  846   1.651   2.472   0.469  0.9277 -1.0379  1.4193
  283SOL     OW  847   1.191   0.947   0.833  0.0046 -0.5154  0.4585
  283SOL    HW1  848   1.209   0.874   0.909  2.7398  0.8397  3.0954
  283SOL    HW2  849   1.129   1.019   0.867 -2.7483  0.5761  0.5467
  284SOL     OW  850   2.379   2.789   2.309 -0.3121 -0.0405 -0.5957
  284SOL    HW1  851   2.416   2.856   2.238 -0.3081 -0.7624  0.7480
  284SOL    HW2  852   2.370   2.838   2.395  2.9525  0.2622  1.1578
  285SOL     OW  853   1.340   2.968   2.518  0.9441 -0.1190 -0.4708
  285SOL    HW1  854   1.333   2.995   2.415 -0.0664  0.1589  0.9786
  285SOL    HW2  855   1.258   2.994   2.578 -0.8687  2.1926  0.6609
  286SOL     OW  856   0.452   0.410   0.705 -0.2876  0.0629  0.3725
  286SOL    HW1  857   0.421   0.355   0.787  1.9035  0.3674 -0.3515
  286SOL    HW2  858   0.464   0.353   0.620 -1.4634 -0.3043  1.1650
  287SOL     OW  859   0.139   1.292   2.541  0.2366 -0.2092  0.1176
  287SOL    HW1  860   0.086   1.209   2.575  1.4582 -0.2673 -2.6466
  287SOL    HW2  861   0.082   1.374   2.532 -0.4756 -0.6275 -3.5970
  288SOL     OW  862   1.554   2.680   1.532 -0.7626 -0.4202  0.3861
  288SOL    HW1  863   1.644   2.715   1.553  0.6828  1.8588 -0.4400
  288SOL    HW2  864   1.518   2.692   1.438  0.7003  0.3170  2.8392
  289SOL     OW  865   0.688   2.700   0.804  0.0104 -0.5765  0.6040
  289SOL    HW1  866   0.728   2.773   0.743  0.9621  1.7912  0.8489
  289SOL    HW2  867   0.671   2.738   0.899  0.2856 -1.0535 -1.7067
  290SOL     OW  868   2.845   1.091   1.609 -0.3617 -0.4316  0.2983
  290SOL    HW1  869   2.778   1.138   1.668  0.2166 -0.8528 -0.6795
  290SOL    HW2  870   2.906   1.021   1.655  0.4794 -1.9981  0.7133
  291SOL     OW  871   1.963   0.045   0.087  0.0305  0.4962 -0.0799
  291SOL    HW1  872   1.983   0.055   0.188  2.7446  1.3504 -1.4549
  291SOL    HW2  873   2.018   0.107   0.027  1.4280  0.9428  0.5838
  292SOL     OW  874   2.986   1.169   3.028 -0.3383 -0.0005  0.2743
  292SOL    HW1  875   2.938   1.244   2.978  2.0277  0.4649  0.9792
  292SOL    HW2  876   3.086   1.169   2.993 -0.8484  2.1799 -0.2354
  293SOL     OW  877   0.612   2.136   0.138 -0.4807 -0.2335  0.0412
  293SOL    HW1  878   0.574   2.172   0.226  2.1556  0.9139  0.8769
  293SOL    HW2  879   0.717   2.137   0.132  1.5132 -1.9492 -1.8065
  294SOL     OW  880   1.687   2.191   1.749 -0.0678  0.7905 -0.3978
  294SOL    HW1  881   1.695   2.241   1.842  1.0130  4.8003 -1.2541
  294SOL    HW2  882   1.697   2.256   1.671  1.3696  2.7076 -0.0810
  295SOL     OW  883   1.036   0.994   0.437 -0.0021  0.2808 -0.1552
  295SOL    HW1  884   1.117   1.021   0.490  2.0929  0.1220 -0.8762
  295SOL    HW2  885   0.953   1.016   0.492  3.4690 -1.2051 -0.2008
  296SOL     OW  886   1.316   2.041   2.519 -0.9727 -0.1405  0.0712
  296SOL    HW1  887   1.316   2.042   2.412  1.3234 -0.6641  0.7232
  296SOL    HW2  888   1.297   1.951   2.557 -0.9442  2.9376  0.4245
  297SOL     OW  889   1.481   0.629   1.364 -0.3050  0.5275  0.0897
  297SOL    HW1  890   1.480   0.531   1.391 -0.0992 -0.0763  1.3200
  297SOL    HW2  891   1.530   0.693   1.428  1.3993 -1.1326  0.5025
  298SOL     OW  892   0.450   1.233   2.890  0.7187  0.8899  0.2866
  298SOL    HW1  893   0.469   1.169   2.966  0.1029 -1.5182 -2.4505
  298SOL    HW2  894   0.524   1.226   2.816  0.5269 -1.8687  2.0804
  299SOL     OW  895   0.475   0.281   1.429 -0.1554 -0.3922 -0.4362
  299SOL    HW1  896   0.524   0.313   1.340  1.1249  0.4334 -0.9522
  299SOL    HW2  897   0.535   0.267   1.518 -1.3610 -1.0626  0.8819
  300SOL     OW  898   1.206   1.802   2.896 -0.2427  0.6722  0.1014
  300SOL    HW1  899   1.158   1.711   2.875  0.7852 -1.3271 -0.8134
  300SOL    HW2  900   1.196   1.823   2.993  0.1645 -0.6406  0.4680
  301SOL     OW  901   0.458   0.278   0.480 -0.1702  0.3563  0.6889
  301SOL    HW1  902   0.363   0.238   0.490  1.1968 -3.4440 -1.8819
  301SOL    HW2  903   0.503   0.222   0.406  1.5499  0.0204  0.8493
  302SOL     OW  904   1.250   2.350   2.289 -0.0749  0.6420 -0.6623
  302SOL    HW1  905   1.178   2.345   2.358  3.7342  3.2259 -2.6423
  302SOL    HW2  906   1.263   2.255   2.242 -0.2438 -2.0776 -0.5208
  303SOL     OW  907   0.961   2.337   0.788 -0.1377  0.3233 -0.0219
  303SOL    HW1  908   1.025   2.374   0.710  3.0528  0.8637  0.1318
  303SOL    HW2  909   0.943   2.408   0.862  0.3233 -2.1743  2.7638
  304SOL     OW  910   0.148   2.058   0.637  0.0206  0.2596 -0.5269
  304SOL    HW1  911   0.155   1.991   0.556  1.2981 -2.2077  0.0302
  304SOL    HW2  912   0.084   2.134   0.627  0.5390 -2.0143  0.0553
  305SOL     OW  913   1.584   0.894   0.600 -0.1809  0.4103 -0.4577
  305SOL    HW1  914   1.533   0.896   0.513 -1.5214  0.9366 -0.9242
  305SOL    HW2  915   1.664   0.827   0.599  1.7752  0.7939  2.6672
  306SOL     OW  916   0.474   1.846   1.891 -0.4000  0.3911 -0.4723
  306SOL    HW1  917   0.549   1.778   1.861  1.5540 -3.0201  0.3482
  306SOL    HW2  918   0.414   1.808   1.967 -2.3717  1.3662  0.2482
  307SOL     OW  919   0.032   0.852   2.595  0.1725  0.2155 -0.3906
  307SOL    HW1  920   0.007   0.944   2.643  3.1602  2.9144  1.9149
  307SOL    HW2  921  -0.025   0.769   2.622  0.9208 -1.1010  1.6892
  308SOL     OW  922   1.531   2.676   2.861  0.1692  0.1379 -0.5660
  308SOL    HW1  923   1.539   2.611   2.776  1.9995  0.8460  2.9302
  308SOL    HW2  924   1.465   2.641   2.927  2.0385 -2.1903  1.4011
  309SOL     OW  925   1.240   0.076   1.771  0.1211 -0.0815  0.2258
  309SOL    HW1  926   1.341   0.065   1.796 -1.8909  1.8500  2.4509
  309SOL    HW2  927   1.221   0.139   1.693 -1.8132 -1.2957  1.8300
  310SOL     OW  928   1.473   2.550   0.693  0.9467  0.1257 -0.2091
  310SOL    HW1  929   1.474   2.611   0.773  3.5817 -1.3203 -2.1956
  310SOL    HW2  930   1.520   2.582   0.610  0.0784 -0.4676 -0.3028
  311SOL     OW  931   1.180   0.931   1.570  0.1992 -0.5557  0.5057
  311SOL    HW1  932   1.252   0.897   1.638  1.8628 -0.7979  0.6141
  311SOL    HW2  933   1.200   1.021   1.530  1.7352 -1.1847 -1.6071
  312SOL     OW  934   1.655   0.701   1.026  0.3160 -0.4202  0.1135
  312SOL    HW1  935   1.619   0.792   0.988 -1.1464 -1.5498  4.5908
  312SOL    HW2  936   1.614   0.621   0.979  1.4004  1.1107 -1.2075
  313SOL     OW  937   1.517   1.419   0.684 -0.5195  0.5032 -0.4016
  313SOL    HW1  938   1.434   1.450   0.738 -2.2191  0.2379  2.1458
  313SOL    HW2  939   1.503   1.329   0.635 -0.9092  0.0812 -0.2330
  314SOL     OW  940   2.983   3.060   0.026  0.4745  0.2957  0.8151
  314SOL    HW1  941   2.939   3.117   0.104 -1.7519 -0.7717 -0.2272
  314SOL    HW2  942   2.918   2.984  -0.001  0.6472  0.6399  0.3962
  315SOL     OW  943   1.224   0.221   2.779 -0.0394  0.0291  0.0268
  315SOL    HW1  944   1.193   0.148   2.710  3.5362  1.6577  0.1877
  315SOL    HW2  945   1.211   0.187   2.873  1.5724  0.0001  0.8979
  316SOL     OW  946   1.672   2.114   0.915 -0.7915  0.0875  0.2404
  316SOL    HW1  947   1.613   2.104   1.003  2.8114 -0.1486 -0.0781
  316SOL    HW2  948   1.656   2.204   0.863 -1.8796  0.8761 -1.0955
  317SOL     OW  949   1.119   0.717   2.849 -0.0354  0.0018  0.0260
  317SOL    HW1  950   1.045   0.761   2.907  0.2078 -0.9211  1.2484
  317SOL    HW2  951   1.091   0.630   2.794  1.7365  0.7426 -0.5842
  318SOL     OW  952   1.412   3.013   2.260 -0.9087 -0.4371  0.6863
  318SOL    HW1  953   1.396   3.113   2.231  0.7952  4.2333 -0.1262
  318SOL    HW2  954   1.449   2.958   2.182 -1.9776  1.4525 -5.2873
  319SOL     OW  955   0.650   2.404   2.906 -0.2021  0.4023 -0.0098
  319SOL    HW1  956   0.602   2.367   2.992  0.2267 -2.3151  0.9014
  319SOL    HW2  957   0.752   2.378   2.908  0.3714 -2.4716  0.2352
  320SOL     OW  958   1.637   2.180   0.341 -0.0481 -0.1486 -0.3821
  320SOL    HW1  959   1.740   2.177   0.338 -0.1664  2.4693  1.1959
  320SOL    HW2  960   1.592   2.111   0.408 -1.2835 -3.7099  2.2310
  321SOL     OW  961   1.627   2.644   0.485  0.7522  0.2764  0.0662
  321SOL    HW1  962   1.547   2.698   0.449  0.9035 -1.3464 -0.8342
  321SOL    HW2  963   1.717   2.699   0.499  2.2108 -0.0644 -2.1685
  322SOL     OW  964   2.565   1.119   2.285  0.6784  0.1663  0.7629
  322SOL    HW1  965   2.619   1.173   2.348 -1.8825 -1.6227  2.3138
  322SOL    HW2  966   2.578   1.018   2.294  1.3533  1.1694 -1.0655
  323SOL     OW  967   1.012   2.636   0.795 -0.2545 -0.1786  0.0183
  323SOL    HW1  968   1.024   2.608   0.696 -2.3874 -0.0651 -1.6098
  323SOL    HW2  969   0.979   2.734   0.808 -0.4595 -2.2009  1.0767
  324SOL     OW  970   0.232   2.465   2.486 -0.0325  0.1842  0.5558
  324SOL    HW1  971   0.276   2.414   2.565  2.7075 -0.5341 -2.6329
  324SOL    HW2  972   0.165   2.537   2.512  1.1802  0.6542  1.1246
  325SOL     OW  973   1.220   3.044   0.455  0.5769 -0.1105 -0.5282
  325SOL    HW1  974   1.244   3.087   0.363 -0.1173  0.3203 -0.7108
  325SOL    HW2  975   1.249   3.106   0.535  1.3613 -1.1056  1.9999
  326SOL     OW  976   2.477   0.762   3.059  0.2587  0.7315  0.4614
  326SOL    HW1  977   2.436   0.696   2.990  1.6188  0.6882 -1.4089
  326SOL    HW2  978   2.551   0.716   3.115  0.7693 -0.0654 -0.9681
  327SOL     OW  979   2.889   0.373   0.494  0.1652 -0.1912 -0.3343
  327SOL    HW1  980   2.842   0.368   0.400 -0.9426 -2.3154  0.7355
  327SOL    HW2  981   2.848   0.303   0.560 -1.6996 -1.4807  2.1017
  328SOL     OW  982   2.499   0.592   0.400  0.3230  0.9357 -0.0538
  328SOL    HW1  983   2.408   0.639   0.399  0.6232 -1.4153 -0.7168
  328SOL    HW2  984   2.518   0.529   0.484 -1.0743  1.2003  1.1035
  329SOL     OW  985   2.949   2.966   2.166  0.7605 -0.3198 -0.0187
  329SOL    HW1  986   2.991   2.901   2.236  0.4331 -0.5789 -0.3298
  329SOL    HW2  987   2.979   3.064   2.178 -1.3665  0.8706  0.8936
  330SOL     OW  988   0.531   0.196   1.885 -0.1051  0.3376 -0.3296
  330SOL    HW1  989   0.596   0.276   1.909  1.4076 -0.1986 -0.2227
  330SOL    HW2  990   0.548   0.118   1.956  1.9949 -0.4321 -0.6025
  331SOL     OW  991   2.927   1.934   1.119  0.3016 -0.2216 -0.2296
  331SOL    HW1  992   2.969   2.011   1.063  0.0834 -1.1460 -2.5330
  331SOL    HW2  993   2.860   1.960   1.194  0.4911 -0.5647  1.3821
  332SOL     OW  994   0.421   1.127   0.067  0.0601 -0.0607 -0.4260
  332SOL    HW1  995   0.383   1.052   0.004 -0.6115 -0.2474  0.1282
  332SOL    HW2  996   0.348   1.184   0.118  0.3808 -1.1196  5.0499
  333SOL     OW  997   2.863   1.046   0.312 -0.2825 -0.2711 -0.1359
  333SOL    HW1  998   2.897   1.121   0.376  1.2971 -0.9276  2.8877
  333SOL    HW2  999   2.941   1.001   0.257 -0.7954  1.0234 -1.1578
  334SOL     OW 1000   1.679   1.181   1.881 -0.3357 -0.0912  0.2789
  334SOL    HW1 1001   1.779   1.144   1.876  2.0793  0.3585 -1.6263
  334SOL    HW2 1002   1.666   1.272   1.926  1.3119 -0.6004 -0.7628
  335SOL     OW 1003   1.986   2.761   2.612  0.1805 -0.0296  0.0624
  335SOL    HW1 1004   1.915   2.744   2.682  2.4148  0.3494 -3.1278
  335SOL    HW2 1005   2.079   2.776   2.649 -3.0063 -2.4524 -0.6689
  336SOL     OW 1006   0.256   0.077   2.800 -0.5006 -0.2425  0.6792
  336SOL    HW1 1007   0.344   0.024   2.789  0.5648 -0.2645 -0.6212
  336SOL    HW2 1008   0.270   0.165   2.846  1.8462 -0.9162  0.4038
  337SOL     OW 1009   0.924   2.807   2.808  0.0251  0.0911  0.2670
  337SOL    HW1 1010   0.910   2.776   2.908 -2.1987  0.4459  2.9727
  337SOL    HW2 1011   1.005   2.761   2.765  1.2159 -1.1734  0.7031
  338SOL     OW 1012   0.036   1.001   0.699  0.1956  0.5213  0.1706
  338SOL    HW1 1013  -0.057   0.961   0.681  2.4000 -1.7044  2.2654
  338SOL    HW2 1014   0.045   1.106   0.696 -1.5185 -1.2004 -0.1216
  339SOL     OW 1015   1.694   1.388   2.085  0.9322 -0.1216 -0.1231
  339SOL    HW1 1016   1.594   1.422   2.081  0.6021 -0.9191  0.8154
  339SOL    HW2 1017   1.751   1.468   2.116 -3.1211 -0.9427 -2.3080
  340SOL     OW 1018   2.343   0.768   1.225  0.3514 -1.0706  0.0775
  340SOL    HW1 1019   2.240   0.775   1.202 -0.3091 -0.4993  0.0741
  340SOL    HW2 1020   2.397   0.705   1.165  1.9140  1.4699  0.7363
  341SOL     OW 1021   1.905   2.172   0.335  0.1447  0.5897  0.1260
  341SOL    HW1 1022   1.914   2.208   0.239 -0.6073 -1.0263  0.4069
  341SOL    HW2 1023   1.993   2.176   0.396 -0.1192 -1.2895 -0.4533
  342SOL     OW 1024   2.211   2.088   2.762  0.1334 -0.4246 -0.5384
  342SOL    HW1 1025   2.280   2.019   2.805  2.8338  0.3251  2.9771
  342SOL    HW2 1026   2.115   2.046   2.767  0.6566  0.4583  2.1267
  343SOL     OW 1027   0.339   0.790   2.762  0.7101  0.1165 -0.8806
  343SOL    HW1 1028   0.365   0.876   2.718  0.1533 -1.7440  2.7482
  343SOL    HW2 1029   0.405   0.710   2.754  1.4698 -1.8512  1.4531
  344SOL     OW 1030   1.931   1.427   0.456  0.1258 -0.6786 -0.4774
  344SOL    HW1 1031   1.933   1.358   0.382 -1.3266 -0.5824 -1.3801
  344SOL    HW2 1032   1.830   1.447   0.478 -2.1011  0.1247 -0.4629
  345SOL     OW 1033   1.393   2.275   2.906  0.0368 -0.1865 -0.1110
  345SOL    HW1 1034   1.309   2.226   2.866  0.1750 -1.2011  0.2124
  345SOL    HW2 1035   1.478   2.234   2.861 -1.3645 -3.7380  0.8786
  346SOL     OW 1036   2.306   0.896   1.469  0.0557  0.2058 -0.2059
  346SOL    HW1 1037   2.274   0.995   1.465  0.8721 -0.6029 -2.9054
  346SOL    HW2 1038   2.316   0.857   1.371  1.4144  1.6755 -0.2869
  347SOL     OW 1039   0.731   2.822   1.499 -0.0594 -0.7904 -0.5275
  347SOL    HW1 1040   0.699   2.776   1.586  0.5687  0.1007 -0.8285
  347SOL    HW2 1041   0.661   2.893   1.470 -0.3067  1.4110  0.7820
  348SOL     OW 1042   0.111   0.660   2.840  0.1321  0.3287 -0.2346
  348SOL    HW1 1043   0.019   0.710   2.825  4.1962 -0.0920 -4.1854
  348SOL    HW2 1044   0.190   0.714   2.799  0.3753 -0.8916  0.0356
  349SOL     OW 1045   1.831   0.416   2.793 -0.1937 -0.2336  0.1921
  349SOL    HW1 1046   1.801   0.503   2.747 -1.2507 -2.1484 -2.0259
  349SOL    HW2 1047   1.809   0.423   2.895  0.4145 -2.0116  0.2662
  350SOL     OW 1048   1.612   0.431   0.372 -0.5191  0.0852  0.0199
  350SOL    HW1 1049   1.687   0.448   0.439 -0.7824  3.8566 -1.6496
  350SOL    HW2 1050   1.558   0.517   0.344  1.8775  0.4707  1.0960
  351SOL     OW 1051   0.970   0.873   2.082  0.0758 -0.6038  0.7253
  351SOL    HW1 1052   0.934   0.976   2.083 -1.9035  2.0751  1.7979
  351SOL    HW2 1053   0.999   0.831   1.988  1.4576  1.1101 -0.3195
  352SOL     OW 1054   2.026   1.302   0.676  0.8135 -0.0361  0.9441
  352SOL    HW1 1055   1.986   1.337   0.581  0.5501  0.3237 -2.9983
  352SOL    HW2 1056   2.113   1.348   0.701  0.9292  2.2638 -0.2494
  353SOL     OW 1057   2.140   2.926   1.112 -0.0560  0.4773 -0.7338
  353SOL    HW1 1058   2.211   2.871   1.160 -1.2844  2.8522  1.3819
  353SOL    HW2 1059   2.096   2.873   1.038  2.2522  0.1322  1.0378
  354SOL     OW 1060   0.248   1.399   2.874  0.3824 -0.0114  0.7598
  354SOL    HW1 1061   0.229   1.463   2.787 -0.6574 -0.5973 -1.4946
  354SOL    HW2 1062   0.339   1.347   2.869 -1.9206 -1.5750 -1.3320
  355SOL     OW 1063   0.533   1.520   0.514 -0.3992  0.1858  0.1093
  355SOL    HW1 1064   0.537   1.624   0.522  0.1455  1.6099 -0.6275
  355SOL    HW2 1065   0.613   1.473   0.563  0.1816 -1.3478 -0.3568
  356SOL     OW 1066   0.945   0.311   2.098  0.2799 -0.9426 -0.1119
  356SOL    HW1 1067   1.009   0.387   2.060  0.2946  3.5914 -2.5577
  356SOL    HW2 1068   0.909   0.259   2.016  0.3564  0.5962 -0.9633
  357SOL     OW 1069   1.029   1.310   0.373  0.1972 -0.0424  0.5858
  357SOL    HW1 1070   0.980   1.249   0.299 -3.3576  2.5841 -1.2980
  357SOL    HW2 1071   1.045   1.261   0.466 -0.0507  1.2577  1.1885
  358SOL     OW 1072   1.661   1.504   0.474  0.8162  0.0751  0.3391
  358SOL    HW1 1073   1.603   1.478   0.559  0.5803 -1.8729 -0.0030
  358SOL    HW2 1074   1.608   1.491   0.386 -0.4429 -3.0124  1.9484
  359SOL     OW 1075   1.575   2.715   0.075  0.0417  0.5714 -0.2796
  359SOL    HW1 1076   1.586   2.625   0.020 -1.1607 -0.3743 -0.9060
  359SOL    HW2 1077   1.505   2.778   0.040  1.2375  1.0616 -0.6437
  360SOL     OW 1078   0.860   0.624   0.531  0.0481  0.1302  0.1952
  360SOL    HW1 1079   0.777   0.626   0.591  1.5709  0.4187  0.4945
  360SOL    HW2 1080   0.884   0.524   0.505 -1.5433 -0.1616  0.4976
  361SOL     OW 1081   1.241   1.385   0.678 -0.2255  0.1033  0.3264
  361SOL    HW1 1082   1.282   1.375   0.776  0.3208  0.7178  2.3227
  361SOL    HW2 1083   1.183   1.467   0.664  2.8502 -1.7491  0.8547
  362SOL     OW 1084   1.377   1.753   0.766 -0.6120 -0.1904  0.0934
  362SOL    HW1 1085   1.394   1.696   0.847  0.0811  0.7806 -0.4115
  362SOL    HW2 1086   1.458   1.820   0.747 -1.2855 -0.7597 -0.8504
  363SOL     OW 1087   1.221   1.276   2.052 -0.3654 -0.4607  0.2782
  363SOL    HW1 1088   1.235   1.354   2.118  3.1050 -0.0434  1.6243
  363SOL    HW2 1089   1.250   1.302   1.956 -0.2612 -1.8351  0.0686
  364SOL     OW 1090   0.545   2.345   1.922  0.3197 -0.2978  0.4658
  364SOL    HW1 1091   0.468   2.418   1.928 -0.1689 -0.2529  0.4435
  364SOL    HW2 1092   0.621   2.372   1.859  1.8602 -0.4881  0.4382
  365SOL     OW 1093   1.052   1.927   1.402 -0.2089 -0.3645  0.0351
  365SOL    HW1 1094   0.951   1.916   1.427  0.0810 -0.0888 -0.2678
  365SOL    HW2 1095   1.076   1.883   1.307 -0.2201 -2.7111  0.7081
  366SOL     OW 1096   2.815   2.052   0.495 -0.3502  0.0687  0.1970
  366SOL    HW1 1097   2.721   2.001   0.506  0.1746 -0.1264 -0.4234
  366SOL    HW2 1098   2.870   2.010   0.421  0.7239  0.7082  0.4262
  367SOL     OW 1099   0.813   1.165   0.154  0.0984 -0.6422  0.4701
  367SOL    HW1 1100   0.791   1.071   0.190  3.1555 -0.5069  1.6316
  367SOL    HW2 1101   0.836   1.174   0.055 -0.0747  3.8519  1.0765
  368SOL     OW 1102   1.517   0.579   0.726  0.1691  0.1193  0.5082
  368SOL    HW1 1103   1.434   0.602   0.663  0.7992  0.4349  0.6662
  368SOL    HW2 1104   1.608   0.627   0.701  0.2730 -0.7648 -0.8743
  369SOL     OW 1105   0.252   1.733   0.043 -0.2428 -0.4431 -0.0321
  369SOL    HW1 1106   0.272   1.813   0.101 -2.4269 -1.4122 -4.5258
  369SOL    HW2 1107   0.189   1.663   0.087 -0.0373  0.3444  2.9698
  370SOL     OW 1108   0.414   2.115   1.050  0.7510 -0.0837 -0.0286
  370SOL    HW1 1109   0.452   2.202   1.009  1.6734  0.5359  0.6161
  370SOL    HW2 1110   0.321   2.083   1.011  0.3151 -0.9883  0.7875
  371SOL     OW 1111   2.888   2.234   2.734 -0.3300  0.0558 -0.2959
  371SOL    HW1 1112   2.873   2.206   2.834 -0.2027  1.3117 -2.0266
  371SOL    HW2 1113   2.988   2.243   2.717  1.8294  1.7359  0.4185
  372SOL     OW 1114   1.046   1.916   0.969  1.0608  0.3680  1.0261
  372SOL    HW1 1115   0.954   1.931   0.922  1.4860  0.7282 -3.5867
  372SOL    HW2 1116   1.125   1.955   0.914  1.3910 -0.8258 -1.7182
  373SOL     OW 1117   1.972   1.996   0.890 -0.0108 -0.2712  0.3830
  373SOL    HW1 1118   2.034   1.986   0.971  0.5229 -0.1238 -0.5500
  373SOL    HW2 1119   1.879   2.026   0.916  0.9481 -0.4722  0.5797
  374SOL     OW 1120   1.806   0.464   0.554 -0.7797 -0.0796  0.1620
  374SOL    HW1 1121   1.815   0.418   0.649 -3.7969  0.4520 -3.1163
  374SOL    HW2 1122   1.884   0.474   0.494  0.1452  3.4796 -0.3316
  375SOL     OW 1123   2.367   2.161   1.144  0.1523 -0.1748  0.2324
  375SOL    HW1 1124   2.423   2.150   1.063 -0.4152 -1.0534  1.0858
  375SOL    HW2 1125   2.416   2.146   1.233 -0.9202 -1.2937  1.1456
  376SOL     OW 1126   3.009   0.610   1.412 -0.1955  0.2127  0.2910
  376SOL    HW1 1127   3.060   0.620   1.502 -0.8802 -1.0533  1.1570
  376SOL    HW2 1128   2.909   0.635   1.414 -1.6496  0.8147 -2.1609
  377SOL     OW 1129   2.265   2.827   0.350 -0.0560  0.4912  0.2967
  377SOL    HW1 1130   2.241   2.927   0.343 -0.9243 -1.9093 -1.0948
  377SOL    HW2 1131   2.363   2.810   0.370 -2.0983 -1.4806  1.8880
  378SOL     OW 1132   1.779   1.896   2.648 -0.3786 -0.7185  0.3840
  378SOL    HW1 1133   1.705   1.837   2.691 -0.0428  1.0018 -0.7164
  378SOL    HW2 1134   1.796   1.861   2.552 -0.0515 -2.7104  3.8864
  379SOL     OW 1135   0.876   0.111   2.757  0.2972  1.1339  0.2421
  379SOL    HW1 1136   0.838   0.013   2.737 -0.5501 -0.7936 -1.8946
  379SOL    HW2 1137   0.817   0.184   2.716 -1.1604 -0.0419  2.1712
  380SOL     OW 1138   1.523   1.157   0.557  0.0121  0.0675 -0.6919
  380SOL    HW1 1139   1.419   1.170   0.567 -0.7682 -0.2567  0.9387
  380SOL    HW2 1140   1.544   1.053   0.579 -0.6937  1.8871 -0.4941
  381SOL     OW 1141   1.294   1.188   1.546 -0.0144  0.0698  0.4142
  381SOL    HW1 1142   1.330   1.241   1.464 -0.6376 -1.2533  0.9530
  381SOL    HW2 1143   1.354   1.199   1.627 -0.3022 -0.5678  0.5430
  382SOL     OW 1144   1.768   0.799   0.267  0.1287  0.0939  0.1636
  382SOL    HW1 1145   1.816   0.783   0.175 -0.8153  0.8442  0.1968
  382SOL    HW2 1146   1.828   0.783   0.351 -1.6176 -0.3309  0.7479
  383SOL     OW 1147   2.568   0.968   1.507 -0.0823  0.0182  0.1802
  383SOL    HW1 1148   2.485   0.908   1.491  1.1189 -0.3784  0.0940
  383SOL    HW2 1149   2.647   0.943   1.438 -0.5645 -2.2620  0.1281
  384SOL     OW 1150   0.888   2.292   0.057  0.0998  0.2455 -0.2810
  384SOL    HW1 1151   0.828   2.373   0.091  1.5878  0.5055 -1.4315
  384SOL    HW2 1152   0.887   2.214   0.123  3.4209 -0.1843 -0.1249
  385SOL     OW 1153   3.010   2.005   1.788  0.1210 -0.3563  0.4776
  385SOL    HW1 1154   3.069   2.089   1.764  2.4769 -2.7570 -2.0148
  385SOL    HW2 1155   3.044   1.925   1.737  2.1811  1.5445  0.0602
  386SOL     OW 1156   0.431   1.139   0.478 -0.1229  0.2039  0.4351
  386SOL    HW1 1157   0.446   1.037   0.495  3.4812 -2.0494 -0.2861
  386SOL    HW2 1158   0.381   1.156   0.389  2.4243  1.3564  2.1082
  387SOL     OW 1159   1.003   0.299   1.641  0.3606  0.8101  0.1569
  387SOL    HW1 1160   1.050   0.388   1.650 -1.0244 -3.4830 -0.1593
  387SOL    HW2 1161   1.008   0.251   1.546 -1.2982 -1.9215 -0.0894
  388SOL     OW 1162   1.206   2.623   1.788  0.3391  0.2201 -0.2064
  388SOL    HW1 1163   1.214   2.611   1.685 -1.5403  0.6086 -0.7298
  388SOL    HW2 1164   1.248   2.538   1.835  2.0449  0.2230  3.4862
  389SOL     OW 1165   0.234   3.096   1.138 -0.1910 -0.2530 -0.0901
  389SOL    HW1 1166   0.161   3.109   1.211  1.9537 -2.3831  0.2185
  389SOL    HW2 1167   0.266   2.996   1.131  2.7248 -1.9332 -2.2021
  390SOL     OW 1168   1.058   0.898   1.233  0.0701  0.3663  0.0251
  390SOL    HW1 1169   1.150   0.859   1.253  1.0983  2.6994 -0.7865
  390SOL    HW2 1170   0.986   0.889   1.308 -1.8411  1.8828  1.6307
  391SOL     OW 1171   2.085   1.121   1.052 -0.6257 -0.6087 -0.3976
  391SOL    HW1 1172   1.993   1.080   1.066  2.1410  1.8266  0.3374
  391SOL    HW2 1173   2.131   1.094   0.968  1.5842 -0.6378 -0.0661
  392SOL     OW 1174   0.893   2.703   3.050  0.2576 -0.3333 -0.1207
  392SOL    HW1 1175   0.830   2.656   3.114 -0.3456  0.3523 -0.6225
  392SOL    HW2 1176   0.962   2.756   3.104 -1.1271  0.7734  0.0686
  393SOL     OW 1177   0.379   0.549   2.103  0.0788 -0.9618  0.3091
  393SOL    HW1 1178   0.281   0.509   2.108 -1.5290  2.0520  0.7451
  393SOL    HW2 1179   0.422   0.537   2.009 -0.5021  1.2277 -0.7538
  394SOL     OW 1180   2.898   1.843   2.795  0.8930  0.0884 -0.4737
  394SOL    HW1 1181   2.964   1.888   2.861  0.5983 -1.6141 -1.4142
  394SOL    HW2 1182   2.938   1.848   2.701  1.4436  4.5035  0.6105
  395SOL     OW 1183   1.578   1.932   0.733  0.6373  0.1045 -0.4242
  395SOL    HW1 1184   1.645   1.861   0.695 -1.8674  0.6584  0.9252
  395SOL    HW2 1185   1.629   2.009   0.787 -0.8405 -1.1527  0.6144
  396SOL     OW 1186   2.778   2.059   1.317 -0.3493  0.4004  0.2032
  396SOL    HW1 1187   2.786   2.051   1.422 -0.0009  2.7325  0.1246
  396SOL    HW2 1188   2.693   2.106   1.285 -1.9868 -1.3902 -0.6994
  397SOL     OW 1189   1.025   2.091   0.634  0.1280  0.1996 -0.3962
  397SOL    HW1 1190   0.942   2.065   0.575  0.7872 -0.3713  1.7177
  397SOL    HW2 1191   1.004   2.178   0.683  0.6368  2.7832 -0.9369
  398SOL     OW 1192   2.158   0.094   1.081  0.3075  0.0983  0.0134
  398SOL    HW1 1193   2.132  -0.004   1.102  0.1504 -1.1832  1.4325
  398SOL    HW2 1194   2.073   0.160   1.069  2.3413 -0.0785  0.5742
  399SOL     OW 1195   2.961   2.528   2.709 -0.5933 -0.2624  0.4124
  399SOL    HW1 1196   2.894   2.503   2.630 -1.1865  0.0744 -0.9903
  399SOL    HW2 1197   2.932   2.485   2.794  0.4075  0.7247 -1.2261
  400SOL     OW 1198   0.836   1.596   1.291 -0.7558 -0.0655  0.1355
  400SOL    HW1 1199   0.786   1.624   1.378 -0.7768 -2.4996 -0.3855
  400SOL    HW2 1200   0.843   1.668   1.221  1.2858 -0.0910  0.3573
  401SOL     OW 1201   1.810   0.138   1.268 -0.3176 -0.1115 -0.1142
  401SOL    HW1 1202   1.879   0.182   1.336  2.6566  0.9388  0.0721
  401SOL    HW2 1203   1.713   0.128   1.298  0.6934 -1.2289 -1.4077
  402SOL     OW 1204   1.315   0.132   3.047  0.0948  0.1708  0.3220
  402SOL    HW1 1205   1.400   0.132   2.992  1.4034  2.1126 -0.6732
  402SOL    HW2 1206   1.314   0.213   3.109 -2.1437  0.6288 -3.1160
  403SOL     OW 1207   2.332   1.805   0.955  0.5653 -0.0988 -0.0174
  403SOL    HW1 1208   2.426   1.796   0.991 -1.4785  0.0508 -1.2684
  403SOL    HW2 1209   2.268   1.869   1.009 -0.9060  2.0345 -1.9728
  404SOL     OW 1210   0.184   2.502   2.838 -0.6946 -0.0698  0.4579
  404SOL    HW1 1211   0.273   2.454   2.814 -0.4902  2.8805  0.4339
  404SOL    HW2 1212   0.191   2.606   2.817  0.0740 -0.8632 -1.7671
  405SOL     OW 1213   0.234   2.561   0.533  0.1188 -0.2442 -0.2198
  405SOL    HW1 1214   0.172   2.590   0.451 -2.0973  0.6655  0.1091
  405SOL    HW2 1215   0.305   2.638   0.556  0.7261  1.3319  0.4762
  406SOL     OW 1216   0.011   1.521   2.975 -0.6044  0.2127 -0.4335
  406SOL    HW1 1217   0.090   1.497   2.917 -1.5112 -2.0151 -1.4572
  406SOL    HW2 1218   0.035   1.521   3.076 -0.5798  1.0651 -0.4204
  407SOL     OW 1219   1.510   0.906   0.913  0.0098 -0.5909  0.2155
  407SOL    HW1 1220   1.441   0.888   0.837  1.3554  0.3872 -0.0335
  407SOL    HW2 1221   1.481   0.994   0.965  1.0133  1.2545  1.7641
  408SOL     OW 1222   1.523   2.406   0.964  0.4560 -0.2090  0.0216
  408SOL    HW1 1223   1.577   2.415   0.874  1.2950  2.6599  0.8479
  408SOL    HW2 1224   1.522   2.488   1.018  1.8274  0.9910  0.8199
  409SOL     OW 1225   0.674   0.853   0.671  0.3478  0.0572  0.1563
  409SOL    HW1 1226   0.601   0.883   0.606  0.4926 -0.5977  2.7927
  409SOL    HW2 1227   0.680   0.752   0.671 -0.5455 -0.9697  0.5312
  410SOL     OW 1228   1.292   2.025   1.484 -0.4672 -0.4256 -0.3488
  410SOL    HW1 1229   1.295   2.100   1.556 -1.5899  1.1848  3.0253
  410SOL    HW2 1230   1.198   1.978   1.479 -1.2335  4.4474  1.6101
  411SOL     OW 1231   2.381   1.832   0.023  0.1289 -0.3125 -0.6171
  411SOL    HW1 1232   2.299   1.846  -0.039 -0.3986  2.8186  0.2845
  411SOL    HW2 1233   2.469   1.810  -0.033 -0.3746 -0.8850 -0.1292
  412SOL     OW 1234   1.507   2.404   2.202 -0.2382 -0.0263  0.3113
  412SOL    HW1 1235   1.573   2.410   2.282 -0.2064  2.3708 -1.2210
  412SOL    HW2 1236   1.410   2.366   2.226 -2.9863  1.5256 -1.9030
  413SOL     OW 1237   3.023   0.257   2.978  0.2717 -0.2521  0.1948
  413SOL    HW1 1238   2.977   0.175   3.016  0.6372 -0.1528 -0.3669
  413SOL    HW2 1239   3.127   0.265   2.992  2.7899  0.4100  0.7685
  414SOL     OW 1240   1.770   1.387   1.339 -0.0911 -0.0623  0.2898
  414SOL    HW1 1241   1.730   1.484   1.349 -0.2823  0.3501  1.6060
  414SOL    HW2 1242   1.739   1.342   1.250 -0.9019  0.9147  2.5242
  415SOL     OW 1243   0.365   2.269   0.652 -0.1218 -0.0736 -0.3401
  415SOL    HW1 1244   0.340   2.366   0.608 -0.1965  2.0563 -2.7261
  415SOL    HW2 1245   0.290   2.198   0.645  0.9115 -3.2173 -1.7903
  416SOL     OW 1246   0.374   1.012   1.066  0.1477 -0.0704  0.6030
  416SOL    HW1 1247   0.330   0.959   0.989 -1.9497 -2.4136  1.6164
  416SOL    HW2 1248   0.470   1.050   1.048 -0.8558  1.5438  1.0284
  417SOL     OW 1249   2.128   2.350   1.912 -0.4805  0.3326  0.3624
  417SOL    HW1 1250   2.146   2.249   1.934 -1.1351  2.0359 -3.8268
  417SOL    HW2 1251   2.033   2.384   1.939  2.8218  1.2741  1.6864
  418SOL     OW 1252   1.139   0.498   1.320  0.3192  0.5143 -0.4328
  418SOL    HW1 1253   1.041   0.497   1.281  1.5297  0.4823 -1.9238
  418SOL    HW2 1254   1.202   0.447   1.264 -3.0423  2.0370  2.8228
  419SOL     OW 1255   0.990   0.377   3.040  0.6715  0.2743  0.5244
  419SOL    HW1 1256   1.002   0.417   2.944  2.3417 -0.2747  1.1188
  419SOL    HW2 1257   0.951   0.276   3.046 -1.4016 -0.0308 -1.1471
  420SOL     OW 1258   0.219   2.252   0.340 -0.1380  0.0362 -0.0269
  420SOL    HW1 1259   0.172   2.200   0.263  0.1231 -0.1630 -3.3366
  420SOL    HW2 1260   0.158   2.295   0.410  2.0176  1.2938  0.2225
  421SOL     OW 1261   0.323   3.094   0.667  0.5074 -0.3002  0.2309
  421SOL    HW1 1262   0.301   2.993   0.672 -0.9272  0.6658  1.0061
  421SOL    HW2 1263   0.426   3.101   0.656 -0.3977 -0.5473 -0.0411
  422SOL     OW 1264   0.922   2.496   1.030 -0.1270  0.0032 -0.0501
  422SOL    HW1 1265   0.953   2.569   0.961 -0.1876 -1.0513  2.7327
  422SOL    HW2 1266   0.976   2.493   1.118  1.8659  1.8482 -1.8987
  423SOL     OW 1267   0.049   0.716   1.202  0.2394 -0.2327  0.1291
  423SOL    HW1 1268  -0.006   0.683   1.289 -1.8744  0.1272  0.0375
  423SOL    HW2 1269  -0.006   0.778   1.147 -1.0052 -0.5605 -0.4617
  424SOL     OW 1270   1.013   2.162   2.095 -0.4225 -0.1054  0.1103
  424SOL    HW1 1271   1.022   2.264   2.080 -1.8404 -2.5840 -1.4247
  424SOL    HW2 1272   0.974   2.141   2.191 -1.6688  1.5371 -0.9682
  425SOL     OW 1273   1.992   1.413   1.051 -0.0358  0.3285 -0.4490
  425SOL    HW1 1274   2.041   1.325   1.052  1.8227  1.9343 -3.3969
  425SOL    HW2 1275   2.058   1.483   1.005 -0.5526  0.9551  0.3351
  426SOL     OW 1276   1.538   1.549   1.390 -0.2818  0.2795  0.5521
  426SOL    HW1 1277   1.470   1.607   1.335 -1.2068  0.0292  3.2393
  426SOL    HW2 1278   1.513   1.541   1.490 -0.5714 -3.2078 -2.5263
  427SOL     OW 1279   1.907   2.368   2.075 -0.1663  0.4712  0.3641
  427SOL    HW1 1280   1.957   2.288   2.126  0.2122 -2.5129 -2.0055
  427SOL    HW2 1281   1.939   2.461   2.101 -2.0360  1.4212  1.8776
  428SOL     OW 1282   0.895   3.024   0.127 -0.1267 -0.1721 -0.0184
  428SOL    HW1 1283   0.937   3.112   0.163 -2.4263 -2.9207  0.4697
  428SOL    HW2 1284   0.946   2.938   0.167  0.0143 -0.1744  0.5629
  429SOL     OW 1285   1.318   0.071   0.216  0.0320  0.2683 -0.1433
  429SOL    HW1 1286   1.401   0.117   0.265  0.4664  1.0728  1.3947
  429SOL    HW2 1287   1.333   0.057   0.118 -0.7756 -1.2851 -0.8557
  430SOL     OW 1288   2.803   1.507   0.351  0.0314 -0.4781 -0.2977
  430SOL    HW1 1289   2.802   1.583   0.274 -2.6816  1.5863  0.4582
  430SOL    HW2 1290   2.801   1.549   0.445  0.4041 -1.9931  0.4761
  431SOL     OW 1291   2.144   1.599   0.898 -0.3709  0.6154  0.3780
  431SOL    HW1 1292   2.212   1.674   0.918 -0.7382 -1.0061 -0.5610
  431SOL    HW2 1293   2.048   1.636   0.895 -0.0514  0.2211 -2.0489
  432SOL     OW 1294   2.919   2.281   1.224 -0.7638 -0.4168 -0.5331
  432SOL    HW1 1295   2.885   2.187   1.244  4.8822 -1.2893  0.6642
  432SOL    HW2 1296   2.951   2.328   1.303 -0.3065 -1.4541 -2.5151
  433SOL     OW 1297   1.823   0.361   0.798  0.3351 -0.2625  0.5592
  433SOL    HW1 1298   1.765   0.388   0.883 -1.7196  1.5762 -0.4408
  433SOL    HW2 1299   1.912   0.321   0.831 -1.1756  0.7792  1.7711
  434SOL     OW 1300   1.512   0.291   0.703 -0.0297 -0.0438  0.6033
  434SOL    HW1 1301   1.524   0.390   0.664 -2.4056  4.2775  0.0382
  434SOL    HW2 1302   1.545   0.285   0.801 -1.2520  1.4884 -2.2273
  435SOL     OW 1303   1.432   1.474   2.092 -0.1579 -0.8822  0.0599
  435SOL    HW1 1304   1.427   1.500   2.193 -1.8026  1.1631 -1.1878
  435SOL    HW2 1305   1.377   1.541   2.028 -1.2142  0.2783 -1.3581
  436SOL     OW 1306   1.656   2.651   2.432  0.0543  0.3336  0.1775
  436SOL    HW1 1307   1.657   2.743   2.489  0.4394  0.9306  3.3754
  436SOL    HW2 1308   1.618   2.571   2.487 -1.7231  0.1867 -2.1178
  437SOL     OW 1309   1.085   2.925   0.919 -0.1404 -0.3772  0.5695
  437SOL    HW1 1310   1.041   3.011   0.887  3.2779 -0.9818  0.3057
  437SOL    HW2 1311   1.135   2.931   1.009 -0.7542  2.2537 -0.9458
  438SOL     OW 1312   1.087   2.533   1.284  0.3255  0.2716  0.0311
  438SOL    HW1 1313   1.124   2.585   1.364 -1.2689  3.1488  1.4377
  438SOL    HW2 1314   1.056   2.435   1.312 -0.6861 -2.5118 -4.5231
  439SOL     OW 1315   0.731   1.745   1.033  0.7801  0.8459 -0.2960
  439SOL    HW1 1316   0.735   1.831   0.977 -2.9240  2.5332  0.4901
  439SOL    HW2 1317   0.656   1.741   1.104 -0.5225 -1.7952 -0.2262
  440SOL     OW 1318   1.031   2.425   2.036 -0.6135  1.0101 -0.3475
  440SOL    HW1 1319   1.005   2.490   1.955  0.3396  1.8922  0.6355
  440SOL    HW2 1320   1.136   2.421   2.050  2.0928 -0.4327 -0.8468
  441SOL     OW 1321   0.345   2.693   1.419  0.2154  0.2377  0.8065
  441SOL    HW1 1322   0.407   2.613   1.433 -0.0333 -0.9201 -0.6256
  441SOL    HW2 1323   0.358   2.723   1.321  0.7981  1.8378 -2.4364
  442SOL     OW 1324   2.228   0.638   2.606  0.1028 -0.3395 -0.2395
  442SOL    HW1 1325   2.242   0.538   2.578 -2.3309 -1.6681  1.0531
  442SOL    HW2 1326   2.136   0.682   2.573  1.1794  0.4962 -2.8631
  443SOL     OW 1327   1.268   2.670   2.225 -0.0991  0.4163 -0.6478
  443SOL    HW1 1328   1.313   2.580   2.258 -0.1320 -3.0791  0.5803
  443SOL    HW2 1329   1.174   2.687   2.269  0.8792  1.3855  0.7516
  444SOL     OW 1330   1.029   1.228   1.500  0.2117  0.1416 -0.1819
  444SOL    HW1 1331   1.120   1.240   1.544 -1.0716 -1.5724  1.1287
  444SOL    HW2 1332   0.957   1.284   1.539  4.4402 -1.3497 -2.2395
  445SOL     OW 1333   0.108   2.305   1.980 -1.0499 -0.2136 -0.8071
  445SOL    HW1 1334   0.096   2.264   1.885  1.0236  2.1213 -1.3595
  445SOL    HW2 1335   0.047   2.266   2.050 -4.3373  2.8201 -2.2837
  446SOL     OW 1336   0.151   1.950   2.383  0.1788 -0.3752 -0.3360
  446SOL    HW1 1337   0.110   2.045   2.376 -0.3011  0.0268  2.5147
  446SOL    HW2 1338   0.128   1.896   2.300  0.3060  0.9846  2.8965
  447SOL     OW 1339   1.260   1.681   1.968  0.0093 -0.0051 -0.3276
  447SOL    HW1 1340   1.175   1.739   1.978  0.9489  1.0449 -0.5949
  447SOL    HW2 1341   1.341   1.744   1.992 -1.0840  1.2524 -1.2951
  448SOL     OW 1342   0.182   1.440   2.034 -0.5347 -0.2282 -0.4817
  448SOL    HW1 1343   0.178   1.530   1.980 -1.7268 -1.0646  2.9832
  448SOL    HW2 1344   0.111   1.436   2.103  0.3453 -1.0311 -0.6563
  449SOL     OW 1345   1.854   2.924   0.814 -0.2965 -0.3388  0.3920
  449SOL    HW1 1346   1.851   2.923   0.919 -0.0848  1.9298  2.6722
  449SOL    HW2 1347   1.905   2.846   0.777 -0.4815  3.0619  2.0819
  450SOL     OW 1348   2.248   1.477   0.693 -0.0198 -0.2092 -0.2678
  450SOL    HW1 1349   2.197   1.521   0.773  1.1477  0.6404 -3.0137
  450SOL    HW2 1350   2.238   1.523   0.603 -2.8423 -1.7535 -0.6538
  451SOL     OW 1351   1.379   3.044   1.501  0.2256 -0.1562  0.5731
  451SOL    HW1 1352   1.300   3.104   1.523 -0.8026  0.2156 -1.1195
  451SOL    HW2 1353   1.406   2.986   1.586 -0.1520  2.8444 -4.1213
  452SOL     OW 1354   2.654   2.298   2.298 -0.1669  0.4167  0.1059
  452SOL    HW1 1355   2.612   2.391   2.307 -0.9962 -2.0838 -1.1744
  452SOL    HW2 1356   2.683   2.254   2.389 -0.4049 -0.6859  1.3635
  453SOL     OW 1357   2.467   2.659   3.088  0.0126  0.1843  0.9747
  453SOL    HW1 1358   2.380   2.700   3.118 -2.1999 -0.1790  1.0860
  453SOL    HW2 1359   2.465   2.611   2.992 -0.8416  0.5679 -0.4174
  454SOL     OW 1360   0.913   1.143   2.018  0.2589 -0.5825  0.0519
  454SOL    HW1 1361   0.923   1.102   1.925  1.4574  1.4398  1.5082
  454SOL    HW2 1362   0.991   1.204   2.039 -3.7565  0.9300  0.5226
  455SOL     OW 1363   0.666   2.675   2.834  0.1514  0.0415  0.3418
  455SOL    HW1 1364   0.764   2.705   2.831  3.0649  1.7980 -0.5898
  455SOL    HW2 1365   0.659   2.586   2.882 -2.2284  0.5534  0.2244
  456SOL     OW 1366   0.366   1.914   0.223  0.6784 -0.6774  0.0359
  456SOL    HW1 1367   0.471   1.908   0.213  1.5885 -1.1392 -0.2606
  456SOL    HW2 1368   0.314   1.988   0.169 -2.8195  0.0800  0.9602
  457SOL     OW 1369   0.407   2.785   0.651 -0.6179  0.0056  0.1924
  457SOL    HW1 1370   0.427   2.847   0.571  1.0913  1.6752 -1.9563
  457SOL    HW2 1371   0.491   2.750   0.700  0.6639  0.5726 -3.3747
  458SOL     OW 1372   2.825   0.028   1.217 -0.4767  0.3995 -0.0430
  458SOL    HW1 1373   2.881   0.113   1.224 -0.0351 -2.0916 -3.5109
  458SOL    HW2 1374   2.835  -0.027   1.129  0.3291 -1.4332  1.3264
  459SOL     OW 1375   2.209   2.528   0.796 -0.5695  0.6212  0.0598
  459SOL    HW1 1376   2.280   2.584   0.847 -2.2113  0.0115 -1.5546
  459SOL    HW2 1377   2.242   2.431   0.781 -2.1515  1.6854  2.6595
  460SOL     OW 1378   1.204   2.063   2.789  0.5238 -0.3815  0.0207
  460SOL    HW1 1379   1.244   2.088   2.696 -0.7234 -2.0914  0.1153
  460SOL    HW2 1380   1.208   1.961   2.805 -0.6148  0.8704  0.9434
  461SOL     OW 1381   0.425   2.092   2.730  0.5440 -0.1698  0.2297
  461SOL    HW1 1382   0.390   2.007   2.684  1.7824  2.4272  2.6674
  461SOL    HW2 1383   0.457   2.067   2.827  2.3033  0.2674 -1.4455
  462SOL     OW 1384   0.947   1.034   1.773  0.3030  0.6556  0.3802
  462SOL    HW1 1385   1.017   1.002   1.705 -0.7636 -2.0748 -0.0914
  462SOL    HW2 1386   0.891   1.111   1.737 -1.5924 -0.5549 -0.5576
  463SOL     OW 1387   0.459   0.876   0.493  0.0287  0.2952 -0.0186
  463SOL    HW1 1388   0.489   0.785   0.461 -0.5088  0.8093  2.5635
  463SOL    HW2 1389   0.356   0.880   0.505 -2.5405  3.2943 -2.0992
  464SOL     OW 1390   0.600   2.331   2.196  0.2002  0.2220 -0.2381
  464SOL    HW1 1391   0.558   2.379   2.278  0.1827 -2.6708 -2.0152
  464SOL    HW2 1392   0.556   2.358   2.105  0.5919 -2.5390  1.2053
  465SOL     OW 1393   0.257   0.901   0.843 -0.1156 -0.0026 -0.2619
  465SOL    HW1 1394   0.168   0.938   0.817  3.2243 -0.0389 -0.8649
  465SOL    HW2 1395   0.276   0.807   0.808 -0.0712  2.1614 -0.5441
  466SOL     OW 1396   1.375   1.141   1.014 -0.3000  0.1929  0.3309
  466SOL    HW1 1397   1.387   1.230   0.966  3.0415 -0.1092  1.6023
  466SOL    HW2 1398   1.277   1.123   1.039  0.9031  2.4316  1.5628
  467SOL     OW 1399   0.589   0.410   2.473  0.6203  0.4906 -0.0919
  467SOL    HW1 1400   0.538   0.493   2.501  0.0965 -1.2158 -0.4417
  467SOL    HW2 1401   0.614   0.343   2.551  1.5001  0.8681  0.8051
  468SOL     OW 1402   0.403   2.262   1.612 -0.2071  0.1800 -0.2227
  468SOL    HW1 1403   0.486   2.313   1.650  0.8090  0.5165 -2.0338
  468SOL    HW2 1404   0.407   2.238   1.510 -3.7759  1.2852  0.9624
  469SOL     OW 1405   1.433   1.304   1.308  0.4617  0.4573  0.7740
  469SOL    HW1 1406   1.470   1.247   1.227  2.6399 -1.6519 -0.5275
  469SOL    HW2 1407   1.487   1.390   1.329 -0.6168 -4.4179  0.2368
  470SOL     OW 1408   3.013   1.795   0.719 -0.1807  0.4961 -0.2800
  470SOL    HW1 1409   3.084   1.866   0.702  3.6198  0.8546 -0.3472
  470SOL    HW2 1410   3.038   1.730   0.791 -0.2847  2.7489 -0.4552
  471SOL     OW 1411   2.574   1.367   2.161  0.4742  0.0913 -0.2082
  471SOL    HW1 1412   2.550   1.276   2.207  1.0671  1.4607 -0.5020
  471SOL    HW2 1413   2.657   1.412   2.201 -1.1805  0.0730  1.6747
  472SOL     OW 1414   1.149   2.397   0.081  0.1893 -0.4575  0.6250
  472SOL    HW1 1415   1.222   2.386   0.153  0.3716 -0.4021  0.6234
  472SOL    HW2 1416   1.061   2.345   0.105  2.5618 -2.5504 -0.0834
  473SOL     OW 1417   1.105   1.486   1.028  0.0223 -0.0660  0.1861
  473SOL    HW1 1418   1.003   1.468   1.012  0.0260 -0.0680 -0.4907
  473SOL    HW2 1419   1.142   1.454   1.117 -1.6495  0.2925 -1.5031
  474SOL     OW 1420   0.668   1.273   0.549  0.2109 -0.9619  0.6584
  474SOL    HW1 1421   0.582   1.228   0.512 -1.4170  0.4086 -1.1389
  474SOL    HW2 1422   0.742   1.209   0.581  0.7684  0.3528 -1.3983
  475SOL     OW 1423   2.812   0.011   0.800  0.6769 -0.0926 -0.1164
  475SOL    HW1 1424   2.895   0.076   0.792  0.4420  0.3831  0.6779
  475SOL    HW2 1425   2.735   0.066   0.846  1.5962  1.9070 -0.3786
  476SOL     OW 1426   0.995   2.994   1.768  0.0560 -0.5988 -0.0420
  476SOL    HW1 1427   1.076   3.051   1.789 -3.6344  0.2644  0.9664
  476SOL    HW2 1428   0.988   2.979   1.666  1.1557  0.6243 -0.0375
  477SOL     OW 1429   1.469   0.320   2.404  0.2441 -0.0620  0.3832
  477SOL    HW1 1430   1.449   0.303   2.506 -0.1427 -0.4635  0.8867
  477SOL    HW2 1431   1.554   0.272   2.372 -0.0381  0.8596  1.9392
  478SOL     OW 1432   2.214   1.866   0.256  0.0758 -0.4705  0.0202
  478SOL    HW1 1433   2.156   1.787   0.275 -1.7764  3.7706  1.4557
  478SOL    HW2 1434   2.286   1.848   0.177  2.0710 -0.9984 -0.9964
  479SOL     OW 1435   1.255   0.961   2.937  0.3933 -0.2346  0.3318
  479SOL    HW1 1436   1.328   0.991   2.867 -0.8363  1.6078 -2.2515
  479SOL    HW2 1437   1.194   0.886   2.899 -1.5093  0.8771 -0.2987
  480SOL     OW 1438   2.649   2.342   0.382 -0.9155  0.1435 -0.3435
  480SOL    HW1 1439   2.616   2.257   0.438 -1.3519 -0.7677  1.7356
  480SOL    HW2 1440   2.588   2.363   0.301 -2.4356  1.1940 -0.0847
  481SOL     OW 1441   1.014   1.199   0.816 -0.4303 -0.4213 -0.4428
  481SOL    HW1 1442   1.015   1.288   0.760 -3.3968 -1.9717  1.7923
  481SOL    HW2 1443   1.031   1.212   0.922 -1.3682 -0.4037  0.9423
  482SOL     OW 1444   1.569   0.317   1.988 -0.5690  0.4983 -0.2104
  482SOL    HW1 1445   1.576   0.404   1.931  0.3810  0.6033  2.5371
  482SOL    HW2 1446   1.661   0.266   2.005  1.3001 -0.1020 -0.1835
  483SOL     OW 1447   0.175   2.326   1.238 -0.6639 -0.0479  0.3957
  483SOL    HW1 1448   0.135   2.406   1.290 -3.6708 -0.8727 -1.3397
  483SOL    HW2 1449   0.169   2.351   1.137  1.5192  0.6968 -1.2601
  484SOL     OW 1450   1.774   1.081   1.358  0.2587  0.4463  0.1841
  484SOL    HW1 1451   1.824   1.009   1.418  0.5480  1.2220  1.3845
  484SOL    HW2 1452   1.783   1.173   1.401  0.6287 -0.8731  0.2675
  485SOL     OW 1453   0.775   0.751   1.786  0.3281  0.3448 -0.7884
  485SOL    HW1 1454   0.739   0.778   1.697  1.0221 -1.7673 -1.6051
  485SOL    HW2 1455   0.875   0.767   1.794 -1.2078  2.0839  0.2201
  486SOL     OW 1456   0.839   1.849   2.426  0.3118  0.0048  0.0180
  486SOL    HW1 1457   0.879   1.864   2.525  1.9144  3.0456  1.5050
  486SOL    HW2 1458   0.801   1.939   2.394 -2.3260 -3.5711  0.5729
  487SOL     OW 1459   1.750   1.584   0.987 -0.7334  0.0056 -0.6703
  487SOL    HW1 1460   1.785   1.491   1.009 -0.2464  0.2640 -1.5777
  487SOL    HW2 1461   1.810   1.640   0.920 -1.7043 -0.4404  0.5236
  488SOL     OW 1462   2.988   0.865   2.309 -0.2517  0.3496  0.2760
  488SOL    HW1 1463   3.020   0.767   2.303 -3.5477 -0.6743 -1.5336
  488SOL    HW2 1464   2.913   0.875   2.377 -0.0332  0.6053  2.1469
  489SOL     OW 1465   2.786   0.376   1.245  0.2957  0.0570  0.5379
  489SOL    HW1 1466   2.752   0.365   1.342 -0.8591 -0.1376 -1.3155
  489SOL    HW2 1467   2.882   0.337   1.240 -0.4900  2.0008  1.7164
  490SOL     OW 1468   1.433   2.937   2.819 -0.4939  0.7827 -0.3247
  490SOL    HW1 1469   1.454   2.834   2.813 -0.7203 -0.0245 -1.6716
  490SOL    HW2 1470   1.414   2.976   2.722 -0.1384 -1.2603 -2.3209
  491SOL     OW 1471   1.732   1.488   2.678  0.2159  0.1337 -0.2179
  491SOL    HW1 1472   1.670   1.464   2.758 -0.5492  0.8802 -1.5271
  491SOL    HW2 1473   1.816   1.551   2.708 -0.8151 -0.5813  0.5787
  492SOL     OW 1474   0.575   2.075   0.615 -0.4428  0.2061 -0.1810
  492SOL    HW1 1475   0.590   2.049   0.713 -0.5117 -1.5836  1.7226
  492SOL    HW2 1476   0.525   2.169   0.600 -0.2119 -1.6815  0.4534
  493SOL     OW 1477   0.489   1.379   2.083  0.5654  0.2708 -0.4499
  493SOL    HW1 1478   0.397   1.424   2.082  1.3471  0.9178  0.7364
  493SOL    HW2 1479   0.489   1.274   2.063 -0.6015 -0.5762  0.3380
  494SOL     OW 1480   2.700   2.548   0.109  0.0143 -0.1903 -0.2310
  494SOL    HW1 1481   2.720   2.546   0.209 -0.5166 -0.8123  0.1177
  494SOL    HW2 1482   2.607   2.584   0.082  1.0554  0.2833 -1.2633
  495SOL     OW 1483   2.533   2.794   2.609  0.2955 -0.3493  0.3739
  495SOL    HW1 1484   2.481   2.700   2.614  0.0283 -1.5734  1.6375
  495SOL    HW2 1485   2.608   2.798   2.534  2.3311 -2.0934 -1.0122
  496SOL     OW 1486   2.009   2.301   0.823  0.6438 -0.2001  0.0100
  496SOL    HW1 1487   2.076   2.360   0.877 -1.3227  0.4321 -0.2257
  496SOL    HW2 1488   2.028   2.201   0.836  1.7873 -3.1138  1.4455
  497SOL     OW 1489   0.129   2.997   2.360 -0.5850  0.1341  0.1823
  497SOL    HW1 1490   0.129   3.059   2.446  1.3735  0.1681  1.4626
  497SOL    HW2 1491   0.186   3.040   2.283  1.9991  0.6350 -1.6788
  498SOL     OW 1492   1.173   1.357   1.250  0.6452 -1.0241  0.1468
  498SOL    HW1 1493   1.271   1.341   1.278 -0.0020 -1.2973 -1.4171
  498SOL    HW2 1494   1.113   1.410   1.321 -0.0180  2.4282  0.7920
  499SOL     OW 1495   0.635   1.778   0.284 -0.0686  0.3153 -0.7129
  499SOL    HW1 1496   0.686   1.706   0.231 -0.5867  0.4683  1.8858
  499SOL    HW2 1497   0.685   1.831   0.349  0.2580 -2.0822 -0.1999
  500SOL     OW 1498   1.458   2.872   1.715 -1.0011  0.3905 -0.6363
  500SOL    HW1 1499   1.467   2.856   1.817  0.0711 -0.7249  0.5283
  500SOL    HW2 1500   1.484   2.794   1.646 -0.9637  0.3688 -1.9157
  501SOL     OW 1501   0.795   1.134   2.253  0.0059  0.4205 -1.1256
  501SOL    HW1 1502   0.706   1.093   2.265  2.7823  1.5180 -0.6630
  501SOL    HW2 1503   0.830   1.129   2.153 -0.8672 -0.2625  1.1076
  502SOL     OW 1504   2.612   0.955   1.780 -0.2542  0.3493  0.2850
  502SOL    HW1 1505   2.628   0.955   1.674  0.1910  0.5132  0.8359
  502SOL    HW2 1506   2.601   0.857   1.815  1.4322 -0.2819  1.0038
  503SOL     OW 1507   1.298   0.153   0.614  0.0664  0.2221 -0.3236
  503SOL    HW1 1508   1.231   0.227   0.638 -1.0067  0.9353  1.2280
  503SOL    HW2 1509   1.392   0.186   0.643  1.9848  1.3629 -1.6482
  504SOL     OW 1510   3.018   2.337   1.492  0.3914  0.4341  0.1791
  504SOL    HW1 1511   2.956   2.418   1.505 -1.2059 -0.1223 -0.5758
  504SOL    HW2 1512   3.046   2.296   1.585 -1.3584 -1.9715  0.4386
  505SOL     OW 1513   2.258   1.163   1.406 -0.2038 -0.2597  0.2549
  505SOL    HW1 1514   2.262   1.192   1.301 -0.5640  0.9076 -1.5659
  505SOL    HW2 1515   2.353   1.185   1.446 -1.7995 -2.3168  1.2063
  506SOL     OW 1516   1.948   0.192   1.815  0.1772  0.2318 -0.2932
  506SOL    HW1 1517   2.020   0.124   1.781  0.7879 -1.5522 -1.8338
  506SOL    HW2 1518   1.985   0.283   1.852 -1.8938  2.0756 -0.9487
  507SOL     OW 1519   0.554   0.723   2.197 -0.1836 -0.0710 -0.2351
  507SOL    HW1 1520   0.488   0.645   2.161 -1.6221 -1.5021 -1.0237
  507SOL    HW2 1521   0.651   0.688   2.217 -3.1042 -0.4316 -1.0955
  508SOL     OW 1522   0.333   1.660   0.766  0.0346  0.1804  0.3562
  508SOL    HW1 1523   0.389   1.718   0.702  1.8128 -0.8363 -0.1313
  508SOL    HW2 1524   0.304   1.712   0.851 -0.8291  1.8563  2.5714
  509SOL     OW 1525   1.302   1.191   2.467 -0.1247 -0.0552  0.0537
  509SOL    HW1 1526   1.349   1.156   2.379 -1.1091 -1.1255 -0.3731
  509SOL    HW2 1527   1.201   1.181   2.471 -0.4147  1.3280 -2.2742
  510SOL     OW 1528   1.295   2.066   2.217 -1.0957  0.0519 -0.3352
  510SOL    HW1 1529   1.316   2.091   2.114  0.4869 -2.5590 -0.0338
  510SOL    HW2 1530   1.219   1.997   2.223  1.6529  0.3855  1.7308
  511SOL     OW 1531   3.023   2.726   1.254 -0.0917 -0.3824  0.0038
  511SOL    HW1 1532   3.028   2.726   1.148  1.7656 -0.1128 -3.3181
  511SOL    HW2 1533   2.922   2.730   1.291 -0.8706  0.5707  2.0917
  512SOL     OW 1534   2.380   0.423   1.380  0.3495  0.2719 -0.6999
  512SOL    HW1 1535   2.291   0.481   1.360 -1.0819  1.3412 -0.6218
  512SOL    HW2 1536   2.428   0.378   1.295 -2.5666 -0.5794 -1.4712
  513SOL     OW 1537   2.578   2.159   0.940 -0.4580  0.6250 -0.0120
  513SOL    HW1 1538   2.530   2.229   0.875 -0.1501 -2.3562 -1.6380
  513SOL    HW2 1539   2.678   2.146   0.916 -0.1394  0.6543 -2.6580
  514SOL     OW 1540   0.668   2.717   0.390 -0.1976  0.3588 -0.1263
  514SOL    HW1 1541   0.662   2.778   0.310  0.1695  1.4568  0.6791
  514SOL    HW2 1542   0.719   2.763   0.471 -0.8058 -0.7059  0.5396
  515SOL     OW 1543   1.921   1.373   2.404 -0.0906  0.3391 -0.3676
  515SOL    HW1 1544   1.948   1.318   2.314  1.4880 -0.0875 -0.8660
  515SOL    HW2 1545   1.828   1.338   2.434  0.2902 -1.4826 -1.1229
  516SOL     OW 1546   0.285   0.299   1.894  0.2008 -0.0273  0.1989
  516SOL    HW1 1547   0.371   0.247   1.868  1.5331  0.1650 -1.6711
  516SOL    HW2 1548   0.199   0.246   1.869  3.3131  0.9261 -1.7784
  517SOL     OW 1549   0.487   0.162   1.147 -0.4099 -0.5245 -0.2481
  517SOL    HW1 1550   0.551   0.121   1.216  1.2342 -1.4359 -0.4043
  517SOL    HW2 1551   0.394   0.109   1.141 -4.9676 -3.3187  0.5269
  518SOL     OW 1552   2.139   3.078   1.789 -0.7693  0.6223 -0.0674
  518SOL    HW1 1553   2.214   3.145   1.831  1.9497 -0.6577  4.3599
  518SOL    HW2 1554   2.172   3.019   1.711  0.4290 -4.0419 -1.0122
  519SOL     OW 1555   2.333   2.151   2.511 -0.3457 -0.0641 -0.2895
  519SOL    HW1 1556   2.259   2.127   2.582 -2.5233  1.3762  2.4467
  519SOL    HW2 1557   2.358   2.256   2.522 -1.1744  2.3925  0.5853
  520SOL     OW 1558   1.829   2.746   1.725 -0.2258 -0.4819  0.1803
  520SOL    HW1 1559   1.772   2.670   1.768 -1.5742 -1.8174 -1.0191
  520SOL    HW2 1560   1.912   2.713   1.662 -0.4311  2.3143 -0.4497
  521SOL     OW 1561   0.556   0.012   2.107 -0.0307 -0.4183  0.0328
  521SOL    HW1 1562   0.464   0.026   2.148  0.0179 -0.0922 -0.0563
  521SOL    HW2 1563   0.628   0.006   2.186  0.8642 -2.4650  1.2912
  522SOL     OW 1564   0.232   1.870   1.482 -0.0634 -0.0770  0.6844
  522SOL    HW1 1565   0.241   1.927   1.569  0.3216 -0.5324 -1.8997
  522SOL    HW2 1566   0.197   1.922   1.398 -2.1673 -0.6792  1.4223
  523SOL     OW 1567   2.179   2.920   1.522  0.1128 -0.1286 -0.6142
  523SOL    HW1 1568   2.246   2.850   1.560  2.9870  1.3156  1.8455
  523SOL    HW2 1569   2.116   2.877   1.455  3.7605  1.6464 -0.4494
  524SOL     OW 1570   0.185   2.776   2.817 -0.1695  0.0563  0.2395
  524SOL    HW1 1571   0.137   2.863   2.836  2.2598 -2.7932 -1.9688
  524SOL    HW2 1572   0.281   2.785   2.768  1.3466 -1.0134  0.4297
  525SOL     OW 1573   2.159   2.049   0.474  0.5565  0.2674 -0.9862
  525SOL    HW1 1574   2.147   1.997   0.569  2.9306 -1.6206  0.4309
  525SOL    HW2 1575   2.172   1.980   0.400  0.9512  0.6032 -0.1674
  526SOL     OW 1576   0.401   1.548   1.822 -0.1810  0.3108 -0.0372
  526SOL    HW1 1577   0.475   1.605   1.875  1.1673  2.9929  4.3327
  526SOL    HW2 1578   0.390   1.450   1.846 -0.9017 -2.5217 -0.8238
  527SOL     OW 1579   1.056   2.929   1.224  0.0554 -0.4384 -0.7418
  527SOL    HW1 1580   1.125   2.854   1.245 -0.7344  1.3052  0.1401
  527SOL    HW2 1581   1.098   3.021   1.226  1.2977 -2.7628  1.8385
  528SOL     OW 1582   1.367   2.354   0.552 -0.0384 -0.1705 -0.2906
  528SOL    HW1 1583   1.408   2.256   0.554  1.1903 -3.1014 -1.3615
  528SOL    HW2 1584   1.416   2.424   0.614 -1.1259 -3.1637 -1.6129
  529SOL     OW 1585   1.892   1.726   0.819  0.4082  0.0402 -0.0667
  529SOL    HW1 1586   1.867   1.714   0.719  0.2923 -1.0968 -3.0981
  529SOL    HW2 1587   1.924   1.825   0.839  1.9035  0.4635  0.7302
  530SOL     OW 1588   0.452   2.516   0.159  0.3664  0.9290 -0.1091
  530SOL    HW1 1589   0.480   2.474   0.244 -1.4995  2.6756 -1.9266
  530SOL    HW2 1590   0.451   2.447   0.081  0.6433  1.5699 -2.0365
  531SOL     OW 1591   1.843   0.996   1.072 -0.1529 -0.5307 -0.0412
  531SOL    HW1 1592   1.769   0.960   1.004 -2.4946 -3.4505  0.9152
  531SOL    HW2 1593   1.813   0.991   1.169 -0.2529  0.0738  1.5908
  532SOL     OW 1594   0.302   1.235   0.709 -0.6027  0.3267  0.0543
  532SOL    HW1 1595   0.341   1.201   0.620  0.2528 -0.6811 -1.3498
  532SOL    HW2 1596   0.281   1.155   0.772  0.6590 -2.0686 -1.4181
  533SOL     OW 1597   1.802   0.029   2.531 -0.5018 -0.4949  0.4857
  533SOL    HW1 1598   1.904   0.017   2.558  0.5567  0.9534 -0.5695
  533SOL    HW2 1599   1.760   0.104   2.587 -1.9465  1.1677  1.5173
  534SOL     OW 1600   0.205   0.189   1.526 -0.0195  0.8014  0.0620
  534SOL    HW1 1601   0.269   0.238   1.460 -0.3041 -0.6243 -0.3619
  534SOL    HW2 1602   0.126   0.247   1.557  1.7465 -2.0530  1.0171
  535SOL     OW 1603   1.847   0.314   0.215 -0.1625 -0.0118  0.6186
  535SOL    HW1 1604   1.897   0.364   0.286 -2.6270 -3.4153 -0.5922
  535SOL    HW2 1605   1.758   0.275   0.257 -0.9618 -0.1730 -1.5087
  536SOL     OW 1606   1.265   2.626   0.926  1.0799  0.1839  0.1927
  536SOL    HW1 1607   1.256   2.577   1.014  4.7571  1.0113  0.0867
  536SOL    HW2 1608   1.180   2.611   0.863 -0.2725 -1.8334  2.1118
  537SOL     OW 1609   0.910   0.212   2.370 -0.0514  0.1495  0.2443
  537SOL    HW1 1610   0.925   0.254   2.272 -2.1203  0.7842 -1.7535
  537SOL    HW2 1611   0.852   0.124   2.359  0.1870 -1.3457 -2.1808
  538SOL     OW 1612   1.673   2.352   1.520 -0.2352 -0.6490 -0.3761
  538SOL    HW1 1613   1.631   2.282   1.460 -0.4212 -1.3107  2.2597
  538SOL    HW2 1614   1.731   2.422   1.471 -0.9013  1.9732  0.5187
  539SOL     OW 1615   0.189   1.610   2.703 -0.1539 -0.3686 -0.2985
  539SOL    HW1 1616   0.097   1.580   2.657  2.8035 -2.4091  2.6002
  539SOL    HW2 1617   0.187   1.710   2.742  0.8581 -0.6312  0.2398
  540SOL     OW 1618   2.712   1.699   1.999 -0.1151  0.2193 -0.5061
  540SOL    HW1 1619   2.642   1.637   1.963  2.9881 -0.9860  1.0472
  540SOL    HW2 1620   2.683   1.793   1.998  0.9366 -2.1092 -1.2305
  541SOL     OW 1621   0.437   2.322   3.083 -0.5095  0.4465 -0.3058
  541SOL    HW1 1622   0.499   2.239   3.104  1.8458 -1.9433  2.6104
  541SOL    HW2 1623   0.345   2.302   3.030  0.1971  1.7423 -0.2536
  542SOL     OW 1624   2.230   2.581   0.482  0.3188 -0.3745 -0.0842
  542SOL    HW1 1625   2.217   2.670   0.433  0.9520 -1.4340 -1.4416
  542SOL    HW2 1626   2.139   2.526   0.489  1.2539  0.1493  1.6094
  543SOL     OW 1627   0.988   1.797   1.712 -0.0505 -0.0531  0.1432
  543SOL    HW1 1628   0.987   1.823   1.811 -0.7959  0.1490  1.0231
  543SOL    HW2 1629   0.935   1.865   1.651  1.3212 -0.6326 -1.6350
  544SOL     OW 1630   0.912   0.418   0.232  0.3709  0.2485  0.0206
  544SOL    HW1 1631   0.970   0.379   0.308 -1.1007  0.3165 -0.6048
  544SOL    HW2 1632   0.946   0.388   0.137 -2.1200 -3.3082  0.7044
  545SOL     OW 1633   1.145   1.716   0.603 -0.4835  0.2057 -0.1704
  545SOL    HW1 1634   1.232   1.739   0.660 -0.6071  1.8332  1.4197
  545SOL    HW2 1635   1.145   1.757   0.506 -0.7174  0.8249 -0.5310
  546SOL     OW 1636   2.655   1.544   0.022 -0.2426  0.0002 -0.5657
  546SOL    HW1 1637   2.628   1.500  -0.063 -2.1037  0.3282  4.2622
  546SOL    HW2 1638   2.609   1.495   0.103  0.3887 -0.7096  0.7993
  547SOL     OW 1639   0.536   0.027   2.782 -0.1123 -0.3577  0.0744
  547SOL    HW1 1640   0.595  -0.030   2.717 -0.1032 -2.0069  1.4672
  547SOL    HW2 1641   0.534  -0.006   2.881  3.4357  0.4209 -3.4476
  548SOL     OW 1642   2.093   0.830   3.033 -0.4592 -0.0996  0.0085
  548SOL    HW1 1643   1.998   0.788   3.031 -2.4076 -0.6222 -1.0230
  548SOL    HW2 1644   2.092   0.933   3.058  1.5879  0.0723 -0.3315
  549SOL     OW 1645   0.614   0.442   0.174  0.0624  0.8137  0.0664
  549SOL    HW1 1646   0.577   0.502   0.097 -3.2896  0.4280  1.1993
  549SOL    HW2 1647   0.717   0.440   0.187  2.5934 -0.9793  1.5479
  550SOL     OW 1648   2.567   2.872   2.868  0.0492 -0.4553 -0.8520
  550SOL    HW1 1649   2.561   2.794   2.932 -0.0432  0.4958 -2.0977
  550SOL    HW2 1650   2.564   2.838   2.773 -2.6396 -0.2482  4.1753
  551SOL     OW 1651   0.254   0.896   0.159  0.3556  0.6336  0.5655
  551SOL    HW1 1652   0.326   0.817   0.165  0.7188 -0.1132  2.6184
  551SOL    HW2 1653   0.245   0.946   0.249 -1.3954  1.8341 -0.1233
  552SOL     OW 1654   0.774   2.818   1.891 -0.3641  0.6189 -1.3073
  552SOL    HW1 1655   0.769   2.793   1.992  0.6622 -1.0242  0.7637
  552SOL    HW2 1656   0.858   2.884   1.863  2.4465 -0.5744 -1.5609
  553SOL     OW 1657   3.062   2.543   0.361 -0.0768 -0.3418 -0.2142
  553SOL    HW1 1658   3.015   2.448   0.351  1.1324 -2.8039 -1.4809
  553SOL    HW2 1659   3.020   2.611   0.429  1.5479  2.3692  0.6474
  554SOL     OW 1660   2.208   0.299   0.558  0.3866  0.4059 -0.0245
  554SOL    HW1 1661   2.257   0.270   0.468  2.7801 -0.0738 -0.2295
  554SOL    HW2 1662   2.203   0.226   0.628  1.3733  2.4952 -0.2805
  555SOL     OW 1663   0.411   2.917   2.427  0.0737 -0.0874 -0.1424
  555SOL    HW1 1664   0.309   2.912   2.435  0.1329 -1.8061  2.0007
  555SOL    HW2 1665   0.453   2.883   2.342  0.0909 -2.3417  0.8467
  556SOL     OW 1666   0.903   2.337   1.684  0.4883  1.2169  0.3731
  556SOL    HW1 1667   0.915   2.410   1.758  0.1340  0.8433  2.4118
  556SOL    HW2 1668   0.965   2.353   1.603  1.5493  2.2536  1.5686
  557SOL     OW 1669   0.135   2.104   0.117 -0.3980  0.0284 -0.1000
  557SOL    HW1 1670   0.046   2.057   0.088  0.0702 -2.1899 -1.7706
  557SOL    HW2 1671   0.167   2.182   0.049  2.4397  0.3212 -0.8914
  558SOL     OW 1672   2.970   2.276   0.321 -0.2556 -0.1148  0.0027
  558SOL    HW1 1673   2.888   2.247   0.377  0.6575 -2.6252 -0.3863
  558SOL    HW2 1674   2.958   2.268   0.215 -2.2075  1.2205  0.2457
  559SOL     OW 1675   0.427   2.250   1.348  0.0724  1.0308  0.1113
  559SOL    HW1 1676   0.341   2.253   1.292 -2.0045  1.3471  0.3946
  559SOL    HW2 1677   0.492   2.172   1.321 -1.8488 -1.0545  0.5448
  560SOL     OW 1678   2.093   1.127   3.096  0.0682 -0.0837 -0.2839
  560SOL    HW1 1679   1.996   1.140   3.065 -0.6891  0.5380  1.3983
  560SOL    HW2 1680   2.134   1.220   3.119  1.4378  1.7469 -2.1170
  561SOL     OW 1681   3.037   1.949   0.010 -0.8649  0.0889 -0.1159
  561SOL    HW1 1682   2.953   1.893   0.042 -1.1880 -3.2091  2.9954
  561SOL    HW2 1683   3.018   2.027  -0.053 -2.8727  2.2500 -1.1658
  562SOL     OW 1684   0.893   2.153   2.354  0.2837 -0.4112 -0.1903
  562SOL    HW1 1685   0.794   2.160   2.333 -0.2318 -1.3082  0.9425
  562SOL    HW2 1686   0.920   2.165   2.455 -1.2394 -0.4476 -2.6559
  563SOL     OW 1687   0.680   2.467   2.601  0.0953 -0.7402 -0.0473
  563SOL    HW1 1688   0.747   2.385   2.611  3.6930 -2.5031  1.5839
  563SOL    HW2 1689   0.683   2.533   2.678 -0.2901 -0.8463  0.4690
  564SOL     OW 1690   2.721   1.305   2.847  0.3560  0.1926  0.2091
  564SOL    HW1 1691   2.647   1.319   2.919  0.9985  2.1011  0.0955
  564SOL    HW2 1692   2.779   1.391   2.842  2.9314  0.3583 -0.8513
  565SOL     OW 1693   2.526   1.971   2.567  0.1974 -0.2577  0.0629
  565SOL    HW1 1694   2.440   2.031   2.548 -0.1879  1.7143  1.0091
  565SOL    HW2 1695   2.569   2.004   2.655 -0.3487  1.6814 -0.0682
  566SOL     OW 1696   1.963   2.868   1.332  0.8113  0.4063  0.1902
  566SOL    HW1 1697   1.925   2.779   1.297 -3.7711  1.7782  1.9868
  566SOL    HW2 1698   2.002   2.926   1.257 -0.6676 -1.0448  0.6695
  567SOL     OW 1699   2.418   0.115   2.199 -0.0934 -0.1251 -0.0739
  567SOL    HW1 1700   2.455   0.128   2.103 -1.9345 -0.9203 -1.3304
  567SOL    HW2 1701   2.312   0.124   2.203  2.0105 -0.9067  0.4198
  568SOL     OW 1702   1.509   1.822   0.341  0.4959 -0.3307 -0.7430
  568SOL    HW1 1703   1.452   1.890   0.282  0.8089 -2.8476  0.6630
  568SOL    HW2 1704   1.612   1.846   0.351  1.7054  0.9944  1.6077
  569SOL     OW 1705   0.283   0.622   0.792  0.8415  0.3891  0.2782
  569SOL    HW1 1706   0.338   0.549   0.739  0.5878 -1.1740 -4.1464
  569SOL    HW2 1707   0.183   0.596   0.820 -1.9853 -3.4532 -0.2973
  570SOL     OW 1708   0.631   0.778   2.839 -0.0497 -0.4047 -0.2146
  570SOL    HW1 1709   0.682   0.767   2.750 -0.6298  1.8541 -0.9167
  570SOL    HW2 1710   0.641   0.875   2.885  0.4137  1.5027  1.8083
  571SOL     OW 1711   0.846   3.065   1.123  0.4367  0.0348  0.3743
  571SOL    HW1 1712   0.870   3.109   1.033 -0.3612  0.6013  1.0611
  571SOL    HW2 1713   0.925   3.022   1.176  0.1479 -0.3726 -0.7443
  572SOL     OW 1714   1.557   2.628   1.174  0.1092 -0.0204  0.3026
  572SOL    HW1 1715   1.490   2.560   1.214 -1.4376  0.3105 -0.3244
  572SOL    HW2 1716   1.512   2.713   1.136  2.1639  2.3505  0.2503
  573SOL     OW 1717   2.948   0.438   2.072 -0.0205  0.6228 -0.5349
  573SOL    HW1 1718   2.899   0.347   2.083 -1.2660 -0.8700  0.5627
  573SOL    HW2 1719   2.883   0.501   2.028  0.1065 -0.5396  2.1573
  574SOL     OW 1720   0.213   1.786   1.005 -0.1526 -0.1144  0.1523
  574SOL    HW1 1721   0.213   1.890   0.989 -0.0943  1.4370 -1.6036
  574SOL    HW2 1722   0.133   1.747   1.062 -1.5105  0.7727 -0.5689
  575SOL     OW 1723   0.829   2.162   0.977 -0.6471  0.1441 -0.0892
  575SOL    HW1 1724   0.853   2.186   1.075 -0.7360  1.6760 -1.2397
  575SOL    HW2 1725   0.881   2.215   0.905 -1.3825 -0.9248  0.4128
  576SOL     OW 1726   2.929   2.904   1.717  0.3319  0.3209 -0.0474
  576SOL    HW1 1727   2.870   2.840   1.655  0.5847 -0.3225  0.9659
  576SOL    HW2 1728   2.934   3.005   1.680 -1.0683  1.0889 -1.9957
  577SOL     OW 1729   2.554   1.247   3.082 -0.1081  0.0038  0.0864
  577SOL    HW1 1730   2.565   1.143   3.048  0.1925 -1.1364 -1.4554
  577SOL    HW2 1731   2.614   1.274   3.164  0.4678  0.8464  0.5477
  578SOL     OW 1732   1.322   2.699   2.578  0.5859  0.5506  0.3576
  578SOL    HW1 1733   1.272   2.678   2.491  1.0985  0.0332  3.0550
  578SOL    HW2 1734   1.362   2.790   2.578  0.4060 -1.2686 -2.6768
  579SOL     OW 1735   0.120   2.495   0.144 -0.1491  0.3445 -0.7293
  579SOL    HW1 1736   0.066   2.504   0.233  0.5222  0.2906 -1.6167
  579SOL    HW2 1737   0.202   2.432   0.150  1.6999  1.3812 -1.8650
  580SOL     OW 1738   1.018   2.656   0.389  0.0639 -0.6304 -0.2220
  580SOL    HW1 1739   1.116   2.668   0.354 -0.3485 -0.2565  0.4995
  580SOL    HW2 1740   0.950   2.626   0.318  0.1385  0.9055  3.0220
  581SOL     OW 1741   1.239   2.636   1.519  0.5954 -0.0385  0.4412
  581SOL    HW1 1742   1.315   2.566   1.518 -0.3691 -2.4563  3.9237
  581SOL    HW2 1743   1.252   2.720   1.459  0.2587  1.6349  1.5691
  582SOL     OW 1744   1.503   0.077   1.852 -0.0740 -0.0647  0.0391
  582SOL    HW1 1745   1.524   0.149   1.925 -0.3068 -0.3271 -0.2940
  582SOL    HW2 1746   1.579   0.064   1.785  0.0493  0.5217  2.1675
  583SOL     OW 1747   2.476   2.975   0.548  0.2542 -0.2334 -0.1552
  583SOL    HW1 1748   2.519   2.901   0.488  0.9021 -2.7005  2.1927
  583SOL    HW2 1749   2.432   2.949   0.635  2.1912  0.5546 -3.7991
  584SOL     OW 1750   1.606   1.023   2.122  0.2568  0.3836 -0.5451
  584SOL    HW1 1751   1.655   1.066   2.040  0.6866  0.7215 -0.9305
  584SOL    HW2 1752   1.661   0.946   2.167 -0.7073  0.4343 -2.5799
  585SOL     OW 1753   2.087   2.626   2.870  0.6307 -0.5925 -0.2874
  585SOL    HW1 1754   2.114   2.530   2.874 -2.3016  4.6086 -0.5057
  585SOL    HW2 1755   1.983   2.635   2.864  1.3691 -0.1916 -0.9726
  586SOL     OW 1756   2.739   0.248   1.533 -0.0114 -0.4030 -1.0748
  586SOL    HW1 1757   2.783   0.316   1.604 -2.2253  0.1654 -0.9338
  586SOL    HW2 1758   2.645   0.228   1.568  0.4744 -1.2853  2.9930
  587SOL     OW 1759   1.963   1.626   2.730 -0.0732 -0.3957 -0.0686
  587SOL    HW1 1760   2.023   1.553   2.689 -3.2779 -1.0967  0.7395
  587SOL    HW2 1761   2.020   1.694   2.786  0.7510 -1.1523 -2.3222
  588SOL     OW 1762   0.506   2.717   2.214  0.5943  0.3431 -0.4416
  588SOL    HW1 1763   0.415   2.722   2.165 -0.0109  4.3504 -0.1399
  588SOL    HW2 1764   0.524   2.625   2.264 -0.6266 -0.3070 -0.4137
  589SOL     OW 1765   2.110   1.451   2.589 -0.3606  0.0402 -0.4048
  589SOL    HW1 1766   2.031   1.436   2.525 -0.2965 -0.9524  3.4138
  589SOL    HW2 1767   2.184   1.378   2.584  1.1054  0.5850  0.0515
  590SOL     OW 1768   2.355   1.687   2.001 -0.1539 -0.3021  0.5425
  590SOL    HW1 1769   2.421   1.609   2.021 -0.7987  0.1940 -2.0846
  590SOL    HW2 1770   2.347   1.756   2.078 -1.0563 -1.0876  0.6426
  591SOL     OW 1771   1.383   2.431   0.286 -0.5491 -0.1555 -0.3876
  591SOL    HW1 1772   1.475   2.417   0.240 -1.4377  0.5924 -0.6430
  591SOL    HW2 1773   1.382   2.405   0.388  1.0832 -1.5735 -3.1436
  592SOL     OW 1774   1.726   2.342   0.770  0.3727  0.5651  0.3598
  592SOL    HW1 1775   1.709   2.368   0.670 -0.6555 -0.5335 -2.7352
  592SOL    HW2 1776   1.828   2.334   0.795 -0.9288  0.8366 -0.1230
  593SOL     OW 1777   0.651   0.180   0.054 -0.2133  1.4236  0.1651
  593SOL    HW1 1778   0.743   0.141   0.037 -0.8900  0.1767  2.8276
  593SOL    HW2 1779   0.650   0.276   0.088  0.1842 -3.7233 -0.2164
  594SOL     OW 1780   0.921   1.927   2.686  0.1503 -0.4059  0.3036
  594SOL    HW1 1781   1.023   1.940   2.694  1.0501 -1.0385 -2.1471
  594SOL    HW2 1782   0.866   1.991   2.749  0.4760  0.4568 -0.9257
  595SOL     OW 1783   1.533   0.041   1.043  0.4611  0.1800 -0.8420
  595SOL    HW1 1784   1.626  -0.009   1.023  0.4879 -0.5080 -1.2284
  595SOL    HW2 1785   1.455  -0.003   0.985 -1.7317 -0.5228 -2.6630
  596SOL     OW 1786   3.095   1.426   2.235 -0.6075  0.2224 -0.2571
  596SOL    HW1 1787   2.999   1.453   2.227 -1.6879  0.8873 -2.4575
  596SOL    HW2 1788   3.131   1.394   2.329  1.7060  1.2945  0.2757
  597SOL     OW 1789   2.063   2.598   1.618 -0.1673  0.0545 -0.1369
  597SOL    HW1 1790   2.050   2.531   1.548 -0.2503  2.0016  1.3852
  597SOL    HW2 1791   2.145   2.577   1.673  0.8726  0.4577  1.1673
  598SOL     OW 1792   2.489   2.932   1.355 -0.7153  0.2470  0.7785
  598SOL    HW1 1793   2.573   2.972   1.401  0.7377  1.5548  2.0118
  598SOL    HW2 1794   2.517   2.860   1.286  0.0655 -1.3191  1.0048
  599SOL     OW 1795   2.902   0.377   2.461  0.3464  0.0939 -0.3538
  599SOL    HW1 1796   2.956   0.452   2.418 -2.2224 -0.0520 -0.4701
  599SOL    HW2 1797   2.801   0.378   2.435 -1.4048 -0.6319  2.3287
  600SOL     OW 1798   2.807   1.116   2.691 -0.1947  1.1136 -0.7416
  600SOL    HW1 1799   2.769   1.024   2.702 -1.0224  2.3207 -1.4437
  600SOL    HW2 1800   2.772   1.187   2.756  1.0238 -1.0118 -1.0133
  601SOL     OW 1801   3.019   1.238   2.015  1.0362  0.1163 -0.5891
  601SOL    HW1 1802   2.954   1.300   1.964  1.5664 -1.0412  2.0759
  601SOL    HW2 1803   3.073   1.296   2.087  1.6230 -0.0601  1.1442
  602SOL     OW 1804   1.484   1.710   2.353 -0.6303  0.0432  0.2195
  602SOL    HW1 1805   1.418   1.627   2.327 -1.8919 -1.5312 -1.0116
  602SOL    HW2 1806   1.582   1.679   2.379  2.1800  0.1684  2.2353
  603SOL     OW 1807   0.643   1.247   2.703  0.0694  0.3099 -0.2296
  603SOL    HW1 1808   0.573   1.231   2.626  0.2214 -0.8977 -0.7051
  603SOL    HW2 1809   0.731   1.198   2.697 -2.0956  1.6327  0.2275
  604SOL     OW 1810   2.407   0.971   0.143 -0.2466  0.4967  0.0631
  604SOL    HW1 1811   2.486   1.032   0.145  0.8698 -2.3386 -0.0312
  604SOL    HW2 1812   2.411   0.903   0.060  1.2776 -1.5671 -1.6500
  605SOL     OW 1813   2.676   1.156   1.946 -0.7276 -0.3252 -0.4870
  605SOL    HW1 1814   2.664   1.074   1.879  0.0297  0.1491  0.5803
  605SOL    HW2 1815   2.655   1.129   2.048  2.0706 -2.0305 -0.0173
  606SOL     OW 1816   1.514   2.520   2.628 -0.4923 -0.8222  0.0254
  606SOL    HW1 1817   1.446   2.599   2.607 -4.0101 -0.8591 -0.2386
  606SOL    HW2 1818   1.495   2.432   2.578  3.3225 -2.2845  2.6407
  607SOL     OW 1819   1.385   1.581   0.387  0.4880  0.1425 -0.2020
  607SOL    HW1 1820   1.328   1.613   0.468  0.6571 -0.3829 -2.3158
  607SOL    HW2 1821   1.439   1.663   0.350 -1.8050  2.2928 -0.2374
  608SOL     OW 1822   1.446   2.834   0.434  0.3928 -0.1489 -0.4946
  608SOL    HW1 1823   1.516   2.885   0.377  0.4408 -1.1810  1.3510
  608SOL    HW2 1824   1.360   2.888   0.452  0.4413 -1.0795 -1.8494
  609SOL     OW 1825   1.288   1.367   0.279 -0.3834  0.0069 -0.3716
  609SOL    HW1 1826   1.324   1.454   0.335 -0.3878  1.5312  2.2809
  609SOL    HW2 1827   1.187   1.353   0.288 -0.0495  0.9394 -0.7198
  610SOL     OW 1828   2.965   1.122   2.255  0.0672  0.1115  0.3527
  610SOL    HW1 1829   2.969   1.017   2.266  0.8055  1.1767  0.6779
  610SOL    HW2 1830   2.987   1.152   2.156 -2.8089  0.8359 -0.6040
  611SOL     OW 1831   2.520   0.299   1.152  0.2346  0.3766  0.4058
  611SOL    HW1 1832   2.475   0.219   1.205 -0.9263  0.3838  0.7326
  611SOL    HW2 1833   2.619   0.314   1.176  0.7868  2.0538  0.8471
  612SOL     OW 1834   0.814   2.233   1.254  0.3023  0.1294 -0.2082
  612SOL    HW1 1835   0.762   2.150   1.283  1.4343 -0.8790 -0.3750
  612SOL    HW2 1836   0.760   2.317   1.228  0.5025 -0.8901  1.6654
  613SOL     OW 1837   0.864   1.461   2.400 -0.7598 -0.3984  0.2970
  613SOL    HW1 1838   0.922   1.481   2.316  0.4945  0.3775  0.4371
  613SOL    HW2 1839   0.777   1.410   2.369  0.0200 -2.8589 -0.3074
  614SOL     OW 1840   1.660   1.604   1.875 -0.0537 -0.2479  0.2258
  614SOL    HW1 1841   1.640   1.706   1.878 -2.8089 -0.7681  0.3014
  614SOL    HW2 1842   1.717   1.572   1.956 -0.6345  1.1264  1.7376
  615SOL     OW 1843   0.826   1.269   1.691 -0.9618  0.2173  0.7752
  615SOL    HW1 1844   0.753   1.242   1.627  4.3301 -2.3190 -0.9834
  615SOL    HW2 1845   0.850   1.366   1.689 -2.7036  0.8812 -2.0340
  616SOL     OW 1846   1.090   1.606   2.239 -0.3813  0.1021  0.8099
  616SOL    HW1 1847   1.028   1.570   2.167  1.6545 -0.7743 -0.8069
  616SOL    HW2 1848   1.107   1.704   2.238 -0.6475 -0.9890 -1.0277
  617SOL     OW 1849   2.916   1.525   1.603 -0.0152  0.0412 -0.0662
  617SOL    HW1 1850   2.946   1.469   1.682  1.2548 -1.7660  0.2609
  617SOL    HW2 1851   2.996   1.535   1.533  0.8883  0.5127 -0.6436
  618SOL     OW 1852   1.894   2.087   1.351  0.0814 -0.1751 -0.1288
  618SOL    HW1 1853   1.864   2.159   1.282 -1.6785 -2.3564 -0.6548
  618SOL    HW2 1854   1.894   1.997   1.307 -0.3123  2.5687 -3.1558
  619SOL     OW 1855   1.749   0.501   2.384 -0.2950  0.5062  0.0149
  619SOL    HW1 1856   1.680   0.567   2.338 -0.7462 -2.4575 -2.8113
  619SOL    HW2 1857   1.717   0.403   2.386 -0.7802  1.4671 -0.5549
  620SOL     OW 1858   2.313   2.913   0.772  0.3293  0.3116 -0.1413
  620SOL    HW1 1859   2.218   2.941   0.759  0.6845  1.1916 -0.7441
  620SOL    HW2 1860   2.322   2.838   0.845 -0.4385  2.2214 -0.0151
  621SOL     OW 1861   2.144   1.813   1.332 -0.9148  0.0595 -0.8374
  621SOL    HW1 1862   2.168   1.823   1.435  1.1572  0.2489  0.8268
  621SOL    HW2 1863   2.086   1.732   1.313  0.0215  1.7211  1.0385
  622SOL     OW 1864   2.268   0.918   1.833  0.0655  0.1252 -0.2897
  622SOL    HW1 1865   2.354   0.910   1.781 -1.4513 -0.6198 -0.4878
  622SOL    HW2 1866   2.234   0.830   1.882 -0.2297 -2.4028 -0.0141
  623SOL     OW 1867   1.345   0.800   2.410  0.2319 -0.2645  0.4109
  623SOL    HW1 1868   1.267   0.732   2.417  2.1513  1.1191 -1.0089
  623SOL    HW2 1869   1.313   0.874   2.343 -1.4837 -3.3915  1.8144
  624SOL     OW 1870   0.566   0.675   3.093  0.5251  0.3862  0.3411
  624SOL    HW1 1871   0.599   0.698   2.993  0.7601 -0.6258  0.4930
  624SOL    HW2 1872   0.554   0.757   3.157 -1.1141 -0.1800  0.3409
  625SOL     OW 1873   2.783   1.740   0.998 -0.0444  0.0900 -0.2011
  625SOL    HW1 1874   2.696   1.801   0.984  0.1483  0.4036 -0.4458
  625SOL    HW2 1875   2.864   1.801   1.023 -0.7389 -0.1319  0.4294
  626SOL     OW 1876   0.616   2.680   1.708  0.0180  0.2633  0.2063
  626SOL    HW1 1877   0.674   2.743   1.769 -0.5297 -1.2767  0.4103
  626SOL    HW2 1878   0.518   2.682   1.734  2.0243  2.6709  1.9559
  627SOL     OW 1879   0.681   0.924   1.580  0.4601  0.8652  0.2215
  627SOL    HW1 1880   0.610   0.852   1.541 -0.4564 -2.5675 -1.1754
  627SOL    HW2 1881   0.746   0.966   1.511  1.9936 -0.3188  0.1069
  628SOL     OW 1882   2.490   0.174   0.671  0.3600 -0.1452 -0.6963
  628SOL    HW1 1883   2.482   0.141   0.574  1.0569 -0.8252  1.0989
  628SOL    HW2 1884   2.410   0.149   0.729 -0.6115 -3.4263 -0.2281
  629SOL     OW 1885   1.904   0.924   2.042  0.0827  0.3813  0.6346
  629SOL    HW1 1886   1.919   0.986   1.961  0.6289 -2.7640  0.3448
  629SOL    HW2 1887   1.905   0.978   2.131  1.2726  0.8005  1.7490
  630SOL     OW 1888   2.944   2.333   0.798 -0.1083 -0.0988  0.2411
  630SOL    HW1 1889   2.863   2.397   0.791 -1.6339 -1.8134  0.9828
  630SOL    HW2 1890   2.918   2.231   0.786 -1.0257  1.9934  0.4603
  631SOL     OW 1891   3.089   0.163   2.192  0.1225 -0.2883  0.1139
  631SOL    HW1 1892   3.043   0.195   2.282  1.3352  0.3412  0.2960
  631SOL    HW2 1893   3.081   0.221   2.109  0.2054 -0.6225  0.5751
  632SOL     OW 1894   2.465   2.599   0.632 -0.0910 -0.3448  0.2517
  632SOL    HW1 1895   2.511   2.686   0.674  2.8132  2.3221  1.7628
  632SOL    HW2 1896   2.377   2.613   0.577 -1.0894 -0.3858  0.9143
  633SOL     OW 1897   1.471   1.197   2.679 -0.2063  0.0581  0.1630
  633SOL    HW1 1898   1.442   1.278   2.734 -1.4876 -1.6208 -0.8202
  633SOL    HW2 1899   1.412   1.184   2.596  1.4477  3.8334  3.2112
  634SOL     OW 1900   0.624   1.999   0.902 -0.1684 -0.3084 -0.2222
  634SOL    HW1 1901   0.533   2.021   0.947 -1.3224 -1.9014 -0.0156
  634SOL    HW2 1902   0.695   2.066   0.939  0.0396  1.0349 -2.2738
  635SOL     OW 1903   2.991   2.354   0.064 -0.0514 -0.1569 -0.0396
  635SOL    HW1 1904   2.921   2.420   0.031 -0.4275 -1.1681  0.3231
  635SOL    HW2 1905   3.078   2.406   0.078 -1.4449 -1.2035 -1.8867
  636SOL     OW 1906   2.359   2.765   1.969 -0.0206 -0.2631 -0.4032
  636SOL    HW1 1907   2.355   2.866   1.952 -0.5597  2.2669 -1.3322
  636SOL    HW2 1908   2.295   2.733   2.046 -0.8480  2.2781 -0.8107
  637SOL     OW 1909   2.766   0.628   1.972 -0.2043 -0.1570 -0.3287
  637SOL    HW1 1910   2.680   0.644   1.913 -2.9956 -1.1151  0.7724
  637SOL    HW2 1911   2.805   0.715   1.999 -0.2718 -1.2787  0.2778
  638SOL     OW 1912   2.401   1.841   1.323  0.2988  0.3730 -0.1703
  638SOL    HW1 1913   2.300   1.808   1.314 -0.2582  0.3695  1.3000
  638SOL    HW2 1914   2.453   1.772   1.380 -2.1099 -0.8960  2.4889
  639SOL     OW 1915   1.298   2.195   1.714 -0.3887 -0.2915  0.2196
  639SOL    HW1 1916   1.323   2.298   1.702  0.9587  1.3049 -0.6331
  639SOL    HW2 1917   1.217   2.174   1.783 -1.5816  1.3501 -0.7686
  640SOL     OW 1918   0.216   1.192   1.542  0.6441 -0.2921  0.7909
  640SOL    HW1 1919   0.218   1.198   1.646 -1.0486  0.9453 -1.9254
  640SOL    HW2 1920   0.254   1.095   1.513  0.1306  0.6901 -1.1182
  641SOL     OW 1921   2.017   0.270   1.433  1.0499  0.0359  0.0113
  641SOL    HW1 1922   2.007   0.331   1.519  1.2842  0.4777 -0.5634
  641SOL    HW2 1923   2.087   0.196   1.448 -1.2049  0.4723 -0.2297
  642SOL     OW 1924   2.021   0.082   0.355 -0.0843 -0.1459 -0.7619
  642SOL    HW1 1925   2.122   0.066   0.380  0.2267 -5.2887 -1.4443
  642SOL    HW2 1926   1.956   0.096   0.435 -1.7054  1.3341 -0.6832
  643SOL     OW 1927   2.914   1.802   2.163 -0.1249 -0.4610 -0.1740
  643SOL    HW1 1928   2.866   1.754   2.085 -0.2292 -1.9868  0.4911
  643SOL    HW2 1929   2.930   1.903   2.136 -0.1642 -0.5249 -0.4461
  644SOL     OW 1930   2.298   2.408   1.214 -0.4131  0.3032 -0.0123
  644SOL    HW1 1931   2.311   2.313   1.171 -0.2750 -2.8280 -0.9372
  644SOL    HW2 1932   2.255   2.397   1.312  0.5947 -0.9001  2.1380
  645SOL     OW 1933   0.577   0.836   1.291  0.0054  0.1490  0.3792
  645SOL    HW1 1934   0.472   0.816   1.305 -0.7891  1.8199 -1.4575
  645SOL    HW2 1935   0.605   0.864   1.193 -2.3297  1.4446  0.1352
  646SOL     OW 1936   1.470   1.827   2.034 -0.4414  0.1987 -0.2403
  646SOL    HW1 1937   1.548   1.879   1.994 -0.8232  1.0977  1.8735
  646SOL    HW2 1938   1.468   1.832   2.138 -0.8682 -0.6819 -0.1760
  647SOL     OW 1939   0.838   1.097   0.642 -0.8171 -0.3246  0.1993
  647SOL    HW1 1940   0.909   1.144   0.702 -1.4745 -1.2467  0.2146
  647SOL    HW2 1941   0.798   1.016   0.690  0.2801  1.3542  0.6988
  648SOL     OW 1942   0.136   0.250   0.257 -0.4383 -0.8452 -0.8156
  648SOL    HW1 1943   0.152   0.176   0.190  1.0787 -0.7364  1.0004
  648SOL    HW2 1944   0.130   0.346   0.211  0.7209  0.1927  0.5095
  649SOL     OW 1945   3.021   0.202   0.832 -0.3278  0.3654  0.4534
  649SOL    HW1 1946   3.107   0.158   0.870  1.1288  1.4109 -0.7958
  649SOL    HW2 1947   3.037   0.293   0.792 -3.2017 -0.2801  1.0259
  650SOL     OW 1948   2.712   0.655   1.537  0.2443 -0.4262 -0.2245
  650SOL    HW1 1949   2.609   0.650   1.530 -0.9683 -0.0422 -1.3979
  650SOL    HW2 1950   2.750   0.740   1.483 -3.0439  1.3187 -1.2644
  651SOL     OW 1951   0.900   1.535   1.648  0.3561 -0.4814 -0.3953
  651SOL    HW1 1952   0.917   1.623   1.700  0.1061  0.3210 -0.5457
  651SOL    HW2 1953   0.976   1.524   1.580 -0.9597 -2.5276  1.9409
  652SOL     OW 1954   2.391   2.416   2.451  0.4554 -0.5828 -0.6402
  652SOL    HW1 1955   2.292   2.453   2.452  1.4072 -2.0653  2.5789
  652SOL    HW2 1956   2.441   2.439   2.361 -1.7091 -1.2033 -1.0491
  653SOL     OW 1957   2.707   1.278   0.221 -0.3689  0.8493  1.0194
  653SOL    HW1 1958   2.766   1.347   0.273 -0.8874  0.8258  3.4762
  653SOL    HW2 1959   2.746   1.181   0.220 -2.3379 -1.9234  0.8655
  654SOL     OW 1960   1.270   2.222   1.292 -0.2514  0.0208 -0.4718
  654SOL    HW1 1961   1.290   2.133   1.350  1.6577  2.3198  1.9496
  654SOL    HW2 1962   1.251   2.197   1.192 -1.3386 -0.3103 -0.3797
  655SOL     OW 1963   0.164   0.931   1.878 -0.0302  0.2089 -0.3469
  655SOL    HW1 1964   0.204   0.852   1.822 -0.0881 -1.7178  0.9394
  655SOL    HW2 1965   0.224   1.013   1.866  0.0915 -0.0266 -1.5106
  656SOL     OW 1966   2.555   2.517   2.645 -0.5764 -0.6618 -0.4762
  656SOL    HW1 1967   2.652   2.511   2.615 -0.2799  0.8315 -0.7581
  656SOL    HW2 1968   2.492   2.464   2.582  1.1974  3.1857 -0.6102
  657SOL     OW 1969   3.018   1.011   1.832 -0.0383  0.3013  0.5243
  657SOL    HW1 1970   3.006   1.103   1.881  3.6050 -2.7086  1.3009
  657SOL    HW2 1971   3.111   0.969   1.846  0.8250 -1.0352  2.6440
  658SOL     OW 1972   1.704   0.204   2.349 -0.3627  0.0269  0.5122
  658SOL    HW1 1973   1.745   0.115   2.395  2.7532  1.0186  2.3121
  658SOL    HW2 1974   1.748   0.219   2.259  2.5082  2.0532 -0.0273
  659SOL     OW 1975   1.381   0.629   2.788 -0.6261 -0.4018  0.3051
  659SOL    HW1 1976   1.423   0.693   2.718  3.2847  1.8796  2.6222
  659SOL    HW2 1977   1.294   0.668   2.818  2.4826  0.0910  0.0390
  660SOL     OW 1978   1.405   0.334   1.456  0.1254 -0.0315 -0.3224
  660SOL    HW1 1979   1.402   0.371   1.553  0.8697  0.2225  0.1772
  660SOL    HW2 1980   1.482   0.274   1.423 -3.1258  0.4514  0.3631
  661SOL     OW 1981   2.420   1.255   0.660 -0.3417 -0.3570  1.1297
  661SOL    HW1 1982   2.473   1.245   0.572  0.4202  0.0057 -2.1592
  661SOL    HW2 1983   2.330   1.310   0.637  1.1823  3.3399  0.8029
  662SOL     OW 1984   1.413   0.408   1.713 -0.4492 -0.0290  0.6538
  662SOL    HW1 1985   1.346   0.351   1.762  2.7306 -0.7428  1.0541
  662SOL    HW2 1986   1.420   0.502   1.753 -1.0356  1.8085  2.5120
  663SOL     OW 1987   0.863   1.522   2.124  0.1508  0.8198  0.1540
  663SOL    HW1 1988   0.813   1.610   2.135 -0.2152 -3.2737  1.8308
  663SOL    HW2 1989   0.822   1.463   2.044  2.5503 -2.0421 -0.5722
  664SOL     OW 1990   1.630   2.082   1.427  0.7930 -0.0673 -0.1784
  664SOL    HW1 1991   1.567   2.005   1.456 -1.9895 -1.4224 -1.0669
  664SOL    HW2 1992   1.733   2.056   1.421  0.2174 -0.5682  0.7906
  665SOL     OW 1993   2.310   0.642   1.962 -0.0309  0.3376  0.0875
  665SOL    HW1 1994   2.281   0.546   1.975 -0.5412 -0.7166 -0.9002
  665SOL    HW2 1995   2.374   0.681   2.039  0.4070 -0.8517 -0.6603
  666SOL     OW 1996   0.510   2.255   0.377  0.1416 -0.4093  0.5084
  666SOL    HW1 1997   0.549   2.336   0.429  0.3999  0.6105  0.5393
  666SOL    HW2 1998   0.409   2.245   0.395  0.7990  2.4128  0.8442
  667SOL     OW 1999   1.951   0.249   1.058  0.6149  0.7228  0.2150
  667SOL    HW1 2000   1.974   0.345   1.091 -2.0055  1.2985 -0.3402
  667SOL    HW2 2001   1.913   0.193   1.134 -0.3884 -1.0820  0.3199
  668SOL     OW 2002   1.999   0.497   1.129  0.1446 -0.9765  0.0816
  668SOL    HW1 2003   2.074   0.526   1.056 -0.0043 -2.4899 -1.3831
  668SOL    HW2 2004   2.032   0.530   1.221 -2.4200  0.7223  3.6225
  669SOL     OW 2005   3.049   2.191   1.001  1.0005 -0.5411 -0.3144
  669SOL    HW1 2006   3.005   2.262   0.933 -0.7544  4.5356 -1.2276
  669SOL    HW2 2007   3.011   2.200   1.096  0.6720  2.5198 -0.0995
  670SOL     OW 2008   2.878   2.326   2.123 -0.1933  0.0898  0.4644
  670SOL    HW1 2009   2.803   2.314   2.193  0.8615  1.7414  0.8133
  670SOL    HW2 2010   2.884   2.430   2.096 -2.7734 -0.5410  0.8168
  671SOL     OW 2011   1.785   1.782   1.513 -0.2306  0.4060 -1.0111
  671SOL    HW1 2012   1.820   1.734   1.428  1.1804 -1.1466  1.0302
  671SOL    HW2 2013   1.689   1.816   1.507 -0.2702  1.9560  1.3935
  672SOL     OW 2014   0.471   0.654   2.512 -0.1372 -0.1415 -0.6194
  672SOL    HW1 2015   0.475   0.636   2.407  1.1032 -0.4905 -0.4426
  672SOL    HW2 2016   0.389   0.710   2.528 -1.2505 -1.2475 -2.9100
  673SOL     OW 2017   0.111   1.244   1.128  0.6276 -0.5647  0.1537
  673SOL    HW1 2018   0.134   1.328   1.189  5.0011  0.3294  0.9812
  673SOL    HW2 2019   0.196   1.189   1.103 -2.0037 -1.7496 -0.5387
  674SOL     OW 2020   1.616   2.996   0.319 -0.5176  0.3885 -0.1777
  674SOL    HW1 2021   1.605   3.093   0.354 -0.9048  0.1656  0.0978
  674SOL    HW2 2022   1.648   2.993   0.223  2.1769  0.5561  5.1066
  675SOL     OW 2023   1.728   0.849   2.301 -0.6019 -0.1164 -0.1276
  675SOL    HW1 2024   1.828   0.824   2.300  0.9650 -1.0926  0.0426
  675SOL    HW2 2025   1.662   0.769   2.295  0.1662  0.3309 -0.7099
  676SOL     OW 2026   2.556   1.481   1.914 -0.0073  0.0429 -0.2578
  676SOL    HW1 2027   2.510   1.416   1.850 -0.5070  3.0223  2.4192
  676SOL    HW2 2028   2.567   1.440   2.010 -1.4529 -4.1157  1.0232
  677SOL     OW 2029   1.928   0.684   0.905 -0.1218 -0.3300  0.4975
  677SOL    HW1 2030   1.860   0.648   0.974 -2.2699  0.8915 -0.5005
  677SOL    HW2 2031   2.016   0.628   0.913 -0.7431  1.0010 -1.4406
  678SOL     OW 2032   0.083   0.743   1.621  0.1489  0.0233 -0.7779
  678SOL    HW1 2033   0.181   0.714   1.609 -1.9691 -0.8202 -0.9366
  678SOL    HW2 2034   0.029   0.683   1.690 -0.8341  1.1650  0.0294
  679SOL     OW 2035   2.576   1.170   1.186  0.2533 -0.2347  0.3749
  679SOL    HW1 2036   2.479   1.199   1.177  1.1296 -1.4028 -1.5856
  679SOL    HW2 2037   2.590   1.067   1.163  0.6015  0.9030  3.9935
  680SOL     OW 2038   2.834   0.457   1.711 -0.2085 -0.5908 -0.5082
  680SOL    HW1 2039   2.759   0.517   1.671 -0.8504  1.8475  0.3748
  680SOL    HW2 2040   2.913   0.510   1.742 -1.2878 -0.2151 -1.8487
  681SOL     OW 2041   2.961   0.056   1.585  0.0020 -0.0134  0.1772
  681SOL    HW1 2042   2.994   0.022   1.499 -1.3821 -0.1271 -0.2063
  681SOL    HW2 2043   2.883   0.119   1.571 -0.3819 -2.3779  0.6555
  682SOL     OW 2044   0.704   0.030   1.331  0.6753 -0.3751  0.0616
  682SOL    HW1 2045   0.631  -0.039   1.355 -1.5812 -1.3955  0.6671
  682SOL    HW2 2046   0.754   0.009   1.241 -0.6053  1.0216 -1.2635
  683SOL     OW 2047   1.380   0.177   2.145  0.2377  0.0541 -0.1164
  683SOL    HW1 2048   1.373   0.219   2.239 -1.4060 -1.7832  1.0454
  683SOL    HW2 2049   1.450   0.226   2.088 -0.1101  0.3741 -1.9095
  684SOL     OW 2050   1.461   2.092   0.546  0.1924 -0.0880  0.0359
  684SOL    HW1 2051   1.489   2.047   0.637  0.5388 -0.5220 -1.9508
  684SOL    HW2 2052   1.375   2.057   0.506 -0.0109  1.4623 -3.7963
  685SOL     OW 2053   2.210   2.064   1.960 -0.8257 -0.3000 -0.0237
  685SOL    HW1 2054   2.253   2.064   1.860  2.2025  0.6502 -3.5356
  685SOL    HW2 2055   2.283   2.066   2.034  1.0445  2.2517 -2.3213
  686SOL     OW 2056   1.454   1.823   2.823  0.3909  0.3492 -0.4148
  686SOL    HW1 2057   1.521   1.787   2.896  3.1198  3.5560  0.8827
  686SOL    HW2 2058   1.356   1.814   2.855  1.4213  1.1309 -1.0301
  687SOL     OW 2059   1.303   2.450   1.968  0.2242  0.7015 -0.1791
  687SOL    HW1 2060   1.344   2.387   1.903 -0.7288 -0.6790  2.3359
  687SOL    HW2 2061   1.369   2.471   2.048  1.1874 -0.3541  0.2092
  688SOL     OW 2062   2.016   1.517   1.783 -0.3256  0.1257  0.2399
  688SOL    HW1 2063   2.103   1.563   1.806  0.0329  0.1268  2.6253
  688SOL    HW2 2064   2.019   1.486   1.684  0.8238  0.9616 -0.1894
  689SOL     OW 2065   2.394   1.090   2.765  0.1539 -0.1356  0.2272
  689SOL    HW1 2066   2.303   1.042   2.768  1.6279  2.0754  1.4009
  689SOL    HW2 2067   2.446   1.094   2.855 -2.7808 -0.1150  0.2732
  690SOL     OW 2068   2.238   2.805   0.016 -0.2383 -0.0122 -0.3451
  690SOL    HW1 2069   2.168   2.761  -0.037 -0.6206 -0.4343  1.5806
  690SOL    HW2 2070   2.230   2.794   0.117 -0.8661  1.3510 -3.7966
  691SOL     OW 2071   2.571   0.394   2.103  0.0639 -0.0828  0.7273
  691SOL    HW1 2072   2.649   0.325   2.111  0.9923  0.3369  1.7193
  691SOL    HW2 2073   2.600   0.472   2.046 -1.3144 -1.0289  1.7790
  692SOL     OW 2074   2.674   1.207   0.803 -0.1103  0.1540 -0.6613
  692SOL    HW1 2075   2.593   1.252   0.753 -2.0239  2.4849  0.9385
  692SOL    HW2 2076   2.727   1.283   0.856 -0.6236 -0.4815  0.2064
  693SOL     OW 2077   2.857   2.997   0.549  0.0734 -0.3209  0.0033
  693SOL    HW1 2078   2.812   3.038   0.634  0.8711 -2.7920  0.4005
  693SOL    HW2 2079   2.845   3.051   0.462 -0.2335 -3.1650 -1.0208
  694SOL     OW 2080   2.421   2.199   0.107 -0.1924  0.4687 -0.3231
  694SOL    HW1 2081   2.432   2.296   0.133 -0.0983 -1.4904 -2.9690
  694SOL    HW2 2082   2.321   2.164   0.106  0.9340 -0.2236 -0.9552
  695SOL     OW 2083   0.493   2.977   1.424  0.9724  0.2260 -0.0411
  695SOL    HW1 2084   0.423   2.903   1.449 -0.7901  1.0717  0.7368
  695SOL    HW2 2085   0.503   3.050   1.499 -1.0012  3.1357 -2.3222
  696SOL     OW 2086   2.875   2.076   0.763  0.2022 -0.2561  0.2785
  696SOL    HW1 2087   2.891   1.980   0.798 -2.8368  1.7161  2.0138
  696SOL    HW2 2088   2.850   2.081   0.662  1.0574  0.2635  0.1963
  697SOL     OW 2089   1.663   1.907   1.837  0.2205  0.0389  0.7465
  697SOL    HW1 2090   1.762   1.883   1.816  0.5233 -2.3795  0.0140
  697SOL    HW2 2091   1.646   1.999   1.791  0.9777 -0.5387  1.3342
  698SOL     OW 2092   2.879   0.422   2.729  0.4763 -0.1052 -0.0676
  698SOL    HW1 2093   2.906   0.406   2.628 -0.8184 -1.5324  1.4472
  698SOL    HW2 2094   2.928   0.351   2.792 -1.6722 -1.0647 -0.6805
  699SOL     OW 2095   1.572   0.036   2.929  0.2286  0.0016  0.3879
  699SOL    HW1 2096   1.520  -0.047   2.894 -0.4127  3.2851 -1.2656
  699SOL    HW2 2097   1.622   0.087   2.849 -0.0034 -2.1511 -0.3847
  700SOL     OW 2098   1.031   2.294   1.424  0.9047  0.5908 -0.5694
  700SOL    HW1 2099   1.114   2.234   1.405 -0.3042  0.2378 -0.9875
  700SOL    HW2 2100   0.945   2.278   1.359 -1.1826 -0.3932 -1.4757
  701SOL     OW 2101   1.923   2.880  -0.006  0.0310 -0.3164  0.3670
  701SOL    HW1 2102   1.868   2.831   0.068 -1.9232  2.4248 -1.3733
  701SOL    HW2 2103   1.947   2.974   0.035 -0.3969 -2.1261 -0.2843
  702SOL     OW 2104   2.066   1.314   1.945 -0.1462  0.2052 -0.3318
  702SOL    HW1 2105   2.167   1.284   1.952  0.0813  2.8963 -1.6906
  702SOL    HW2 2106   2.054   1.388   1.870 -1.0148 -2.3503 -2.4229
  703SOL     OW 2107   1.947   0.887   1.471 -0.3540 -0.0887 -0.0678
  703SOL    HW1 2108   1.940   0.792   1.512  1.0662  0.9137 -0.9433
  703SOL    HW2 2109   2.000   0.948   1.538 -2.0332 -0.3595 -1.2937
  704SOL     OW 2110   0.294   2.029   1.696 -0.1883 -0.4015  0.9134
  704SOL    HW1 2111   0.345   1.967   1.769  2.4948 -2.2313  1.5423
  704SOL    HW2 2112   0.342   2.118   1.673 -1.7857 -1.6158  1.5739
  705SOL     OW 2113   2.482   1.546   0.870  0.5297  0.3337  0.3406
  705SOL    HW1 2114   2.421   1.476   0.830  2.2203  0.8842  2.3004
  705SOL    HW2 2115   2.577   1.514   0.899  1.0608  1.8462  0.8042
  706SOL     OW 2116   0.708   1.714   1.868  0.3449  0.3370  0.2682
  706SOL    HW1 2117   0.729   1.613   1.878 -0.0155  0.0521 -1.0874
  706SOL    HW2 2118   0.787   1.780   1.902 -0.6738 -0.4259  1.2946
  707SOL     OW 2119   2.304   1.197   1.956 -0.1666 -0.2581 -0.6359
  707SOL    HW1 2120   2.383   1.192   2.022  0.7825 -1.4392 -2.0322
  707SOL    HW2 2121   2.292   1.101   1.911 -1.4968 -2.0480 -0.4524
  708SOL     OW 2122   2.964   0.518   3.018 -0.0592  0.0121 -0.2430
  708SOL    HW1 2123   2.986   0.580   2.935 -3.6233  1.0604  0.3109
  708SOL    HW2 2124   2.957   0.411   3.002 -3.7991 -1.3215  2.1453
  709SOL     OW 2125   1.883   1.881   0.347 -0.4696 -0.3414 -0.1173
  709SOL    HW1 2126   1.923   1.975   0.364 -1.0851  0.6134 -2.7808
  709SOL    HW2 2127   1.858   1.867   0.245 -1.5432 -1.0953 -1.5792
  710SOL     OW 2128   1.728   1.622   2.419 -0.4371  0.0621 -0.6019
  710SOL    HW1 2129   1.811   1.590   2.371 -1.7546 -0.7329 -1.8815
  710SOL    HW2 2130   1.713   1.550   2.494  1.3987 -2.1266 -0.5456
  711SOL     OW 2131   2.576   2.903   1.018 -0.1347  0.0288  0.7635
  711SOL    HW1 2132   2.531   2.997   1.007  1.3418 -0.1771  0.0081
  711SOL    HW2 2133   2.680   2.906   1.035  0.1174 -2.6995  2.0908
  712SOL     OW 2134   1.407   2.126   1.963 -0.1013  0.1749  0.2058
  712SOL    HW1 2135   1.494   2.173   1.977 -0.2465 -1.8476  0.7398
  712SOL    HW2 2136   1.370   2.135   1.870  2.8851 -1.1277  0.7993
  713SOL     OW 2137   2.774   1.482   2.532 -0.0420 -0.3018 -0.1893
  713SOL    HW1 2138   2.788   1.382   2.507 -1.2802  0.6917 -0.3350
  713SOL    HW2 2139   2.680   1.487   2.575  0.7370 -2.4812 -1.5276
  714SOL     OW 2140   2.630   0.435   2.407  0.7825  0.1711 -0.0553
  714SOL    HW1 2141   2.567   0.421   2.488 -0.8640 -0.0818 -0.1712
  714SOL    HW2 2142   2.591   0.396   2.326  0.2211  2.2356  0.1565
  715SOL     OW 2143   1.547   2.105   1.155 -0.3946 -0.5215  0.1893
  715SOL    HW1 2144   1.456   2.160   1.145 -0.9930 -1.0757  0.7048
  715SOL    HW2 2145   1.576   2.096   1.252  0.3440  2.7158 -0.5794
  716SOL     OW 2146   1.203   0.157   1.486 -0.5130 -0.9394  0.6169
  716SOL    HW1 2147   1.117   0.163   1.422 -2.2194 -1.9303 -1.8058
  716SOL    HW2 2148   1.264   0.248   1.481  2.8892  4.0965  1.7094
  717SOL     OW 2149   1.135   0.526   1.599  0.0436  0.3971  0.2615
  717SOL    HW1 2150   1.202   0.599   1.635 -0.6578 -1.2278  0.7789
  717SOL    HW2 2151   1.158   0.505   1.500 -2.5400 -1.7841  1.2599
  718SOL     OW 2152   0.665   0.888   0.970 -0.3713  0.3899  0.1812
  718SOL    HW1 2153   0.647   0.902   0.868 -0.7507 -0.1358 -1.6334
  718SOL    HW2 2154   0.673   0.981   1.021  1.4656 -2.4769  0.8475
  719SOL     OW 2155   0.605   1.723   2.309  0.6272  0.2961  0.2265
  719SOL    HW1 2156   0.694   1.746   2.347  0.2118 -0.8684 -1.0870
  719SOL    HW2 2157   0.566   1.627   2.330 -0.1284  0.4710  1.6834
  720SOL     OW 2158   2.218   1.126   0.281 -0.0123  0.0666  0.0456
  720SOL    HW1 2159   2.261   1.054   0.214  1.1798 -3.6413 -0.3748
  720SOL    HW2 2160   2.176   1.080   0.364 -0.4480  1.9380  2.0440
  721SOL     OW 2161   2.238   3.034   2.059  0.0805  0.3634  0.3618
  721SOL    HW1 2162   2.174   3.003   1.988  1.1075  1.5749  0.7319
  721SOL    HW2 2163   2.202   3.067   2.152 -2.1776  0.3965  1.2718
  722SOL     OW 2164   2.315   1.639   0.461 -0.4672 -0.5615 -0.5504
  722SOL    HW1 2165   2.376   1.597   0.393 -1.2803  2.3528  1.0439
  722SOL    HW2 2166   2.219   1.658   0.430  1.0275 -0.3048  1.3077
  723SOL     OW 2167   2.673   2.705   1.908 -0.2024 -0.3554 -0.2574
  723SOL    HW1 2168   2.694   2.804   1.920 -0.4201 -1.5674 -1.1930
  723SOL    HW2 2169   2.576   2.686   1.931  1.1577 -1.0915 -0.7209
  724SOL     OW 2170   0.492   2.492   2.384  0.1991  0.0928  0.5068
  724SOL    HW1 2171   0.393   2.463   2.394  0.3564 -1.2160 -2.0946
  724SOL    HW2 2172   0.536   2.514   2.472 -0.2696 -2.1912 -1.0468
  725SOL     OW 2173   2.356   2.714   1.546 -0.1708 -0.1996 -0.6692
  725SOL    HW1 2174   2.410   2.787   1.505  0.2196 -2.0930 -2.0297
  725SOL    HW2 2175   2.401   2.626   1.567  0.5724  0.9020 -2.2424
  726SOL     OW 2176   2.464   2.309   0.719  0.3720 -0.2963  0.4686
  726SOL    HW1 2177   2.490   2.407   0.682  3.2807  1.2738 -0.1306
  726SOL    HW2 2178   2.424   2.248   0.648  1.2479  4.9011  2.8237
  727SOL     OW 2179   0.151   3.083   0.116  0.0343  0.2122 -0.0600
  727SOL    HW1 2180   0.242   3.098   0.065  2.4245 -1.2432  0.4885
  727SOL    HW2 2181   0.069   3.075   0.058  1.1275  0.4217  1.5118
  728SOL     OW 2182   2.897   0.685   0.876 -0.0329 -0.3055 -0.1712
  728SOL    HW1 2183   2.858   0.659   0.781  2.0013 -0.6076 -0.8025
  728SOL    HW2 2184   2.839   0.646   0.952  3.5321  0.0053  0.0594
  729SOL     OW 2185   0.030   2.535   0.738 -0.0979  0.3092 -0.1277
  729SOL    HW1 2186   0.067   2.476   0.818 -0.5445  0.8103 -1.8722
  729SOL    HW2 2187   0.110   2.553   0.675 -1.0643 -1.5375  0.9167
  730SOL     OW 2188   2.534   0.656   0.809  0.4825 -0.1436 -0.1215
  730SOL    HW1 2189   2.527   0.758   0.806 -0.8894 -2.2234 -1.7822
  730SOL    HW2 2190   2.622   0.627   0.753  0.5122  2.4787 -3.3959
  731SOL     OW 2191   0.013   2.175   2.423  0.3802  0.2385  0.0217
  731SOL    HW1 2192   0.037   2.245   2.497 -0.1811 -0.5051  0.2862
  731SOL    HW2 2193  -0.088   2.181   2.398 -0.1314 -1.9239 -0.5451
  732SOL     OW 2194   1.199   2.805   1.989  0.5539  0.2153 -0.2206
  732SOL    HW1 2195   1.241   2.753   2.067 -0.3226 -0.4032 -2.3825
  732SOL    HW2 2196   1.207   2.753   1.900 -0.2001  0.2237  0.2168
  733SOL     OW 2197   3.074   0.617   2.229 -0.0214  0.0960 -0.5600
  733SOL    HW1 2198   3.156   0.651   2.176  1.6991  0.2144 -1.8952
  733SOL    HW2 2199   3.026   0.541   2.178  0.4509  1.3606 -0.9495
  734SOL     OW 2200   1.444   0.356   2.681 -0.6604 -0.4495 -0.0239
  734SOL    HW1 2201   1.412   0.457   2.675 -0.0845  1.0861 -0.6932
  734SOL    HW2 2202   1.371   0.298   2.734 -2.0360 -0.8728  0.6713
  735SOL     OW 2203   2.901   2.620   2.271  0.4951  0.0894  0.1595
  735SOL    HW1 2204   2.880   2.625   2.166 -1.8900  0.4202  0.3018
  735SOL    HW2 2205   2.993   2.662   2.300 -3.7061  0.6621 -0.0627
  736SOL     OW 2206   0.921   0.450   2.512  0.1842  0.3685  0.5806
  736SOL    HW1 2207   0.828   0.481   2.543 -0.5990  2.9584 -0.5150
  736SOL    HW2 2208   0.925   0.357   2.459  0.2336 -2.4282 -2.4171
  737SOL     OW 2209   2.614   0.503   2.824 -0.2293  0.1113 -0.1503
  737SOL    HW1 2210   2.581   0.472   2.917  1.9455  1.4484  0.4760
  737SOL    HW2 2211   2.720   0.492   2.807  1.1107  2.4513 -1.5099
  738SOL     OW 2212   1.741   1.264   2.892  0.3074 -0.3978 -0.1618
  738SOL    HW1 2213   1.836   1.289   2.862 -0.0852  3.2027 -1.4621
  738SOL    HW2 2214   1.695   1.196   2.834 -1.3368 -1.0588  0.8398
  739SOL     OW 2215   1.779   0.703   0.665 -0.3709 -0.1381  0.0322
  739SOL    HW1 2216   1.840   0.707   0.750 -1.8050 -0.7623  2.3247
  739SOL    HW2 2217   1.784   0.611   0.610  0.6235  1.7806 -0.1224
  740SOL     OW 2218   1.919   1.947   2.376 -0.1878  0.1497  0.5314
  740SOL    HW1 2219   1.989   1.874   2.415  2.2400 -3.6796 -0.5316
  740SOL    HW2 2220   1.867   1.903   2.297 -0.4646 -2.2124 -0.3272
  741SOL     OW 2221   2.604   0.096   2.493 -0.2581  0.3488  0.7680
  741SOL    HW1 2222   2.706   0.078   2.493 -1.8046 -3.9044  0.9132
  741SOL    HW2 2223   2.567   0.121   2.398 -1.9011  1.5832 -1.3233
  742SOL     OW 2224   2.161   1.375   0.134 -0.0685 -0.3235  0.5723
  742SOL    HW1 2225   2.058   1.385   0.107  1.7574 -0.2956 -1.4982
  742SOL    HW2 2226   2.175   1.316   0.222 -2.9017  1.1125 -1.4599
  743SOL     OW 2227   1.767   0.625   2.616 -0.1445 -0.1547  0.1600
  743SOL    HW1 2228   1.756   0.566   2.532  0.3307 -2.1254 -2.0553
  743SOL    HW2 2229   1.681   0.690   2.624 -2.7845  1.5524  1.2715
  744SOL     OW 2230   2.699   2.014   0.039  0.3424  0.1909  0.4495
  744SOL    HW1 2231   2.628   2.018   0.115 -1.3997 -3.4593  2.9707
  744SOL    HW2 2232   2.691   1.925  -0.022 -1.3780 -0.3332  1.0891
  745SOL     OW 2233   2.172   2.653   2.165 -0.5491 -0.1927 -0.1087
  745SOL    HW1 2234   2.068   2.668   2.178 -1.7161 -0.3379 -2.5602
  745SOL    HW2 2235   2.223   2.680   2.254 -1.0024 -0.2211  2.6675
  746SOL     OW 2236   0.011   2.657   1.728 -0.0387 -0.3440  0.0172
  746SOL    HW1 2237   0.099   2.601   1.724 -0.3394 -1.4118 -1.3304
  746SOL    HW2 2238   0.002   2.717   1.812 -3.1862  1.7019  0.4268
  747SOL     OW 2239   0.004   1.770   1.646 -0.6721 -0.9283 -0.2091
  747SOL    HW1 2240  -0.081   1.728   1.619  0.0445  1.3568  1.1405
  747SOL    HW2 2241   0.073   1.793   1.571  0.3811 -0.6129  1.2903
  748SOL     OW 2242   1.831   2.730   2.901 -0.1634 -0.1926  0.2184
  748SOL    HW1 2243   1.877   2.786   2.976  1.3825  1.0236  1.7492
  748SOL    HW2 2244   1.740   2.766   2.873 -0.7876 -2.0495  3.0329
  749SOL     OW 2245   1.367   3.050   0.852 -0.3282  0.1896 -0.0824
  749SOL    HW1 2246   1.284   3.010   0.823  1.0059 -1.2314  1.9416
  749SOL    HW2 2247   1.447   3.022   0.784  0.7285  0.3078 -1.5916
  750SOL     OW 2248   2.292   0.190   1.876 -0.0062 -0.0853 -0.2506
  750SOL    HW1 2249   2.313   0.244   1.790 -0.0585 -1.4324  1.4275
  750SOL    HW2 2250   2.283   0.257   1.960  1.7474 -0.7901 -0.9314
  751SOL     OW 2251   0.786   2.098   2.849 -0.3218 -1.2795 -0.3083
  751SOL    HW1 2252   0.834   2.101   2.939 -0.5695  0.5704  1.6063
  751SOL    HW2 2253   0.685   2.091   2.859  0.0894 -1.7253 -3.2263
  752SOL     OW 2254   1.314   0.811   1.269  0.2535 -0.0522 -0.0746
  752SOL    HW1 2255   1.401   0.870   1.265  0.2422  0.8879  1.0217
  752SOL    HW2 2256   1.333   0.723   1.318 -0.0306  1.2893  0.6147
  753SOL     OW 2257   0.942   2.575   1.831  0.5965 -0.0917  0.2550
  753SOL    HW1 2258   1.038   2.615   1.810  0.9272 -0.1965  1.2601
  753SOL    HW2 2259   0.875   2.649   1.853  1.7277  0.4884  1.4200
  754SOL     OW 2260   1.153   1.239   3.049  0.1347 -0.4622 -0.0854
  754SOL    HW1 2261   1.221   1.171   3.010  2.7861 -0.9020 -0.5311
  754SOL    HW2 2262   1.187   1.340   3.052 -1.1435  1.7817 -0.1497
  755SOL     OW 2263   1.980   0.467   2.226 -0.0624  0.5639  0.5731
  755SOL    HW1 2264   2.057   0.394   2.243  2.2320 -3.0995 -1.0279
  755SOL    HW2 2265   1.912   0.473   2.302 -0.4079  0.4565 -0.9509
  756SOL     OW 2266   2.583   1.003   2.986 -0.1291 -0.8835 -0.3628
  756SOL    HW1 2267   2.682   0.972   2.993  1.2490 -0.8474  1.4482
  756SOL    HW2 2268   2.527   0.920   3.002  0.5533  1.5385  1.2908
  757SOL     OW 2269   0.134   0.491   1.991  0.2689  0.4847  0.5953
  757SOL    HW1 2270   0.201   0.419   1.953 -1.8177  1.6545  1.0236
  757SOL    HW2 2271   0.038   0.446   2.012 -1.8594 -4.8287  3.2633
  758SOL     OW 2272   2.197   0.091   1.509 -0.6987  0.1030  0.5107
  758SOL    HW1 2273   2.177  -0.009   1.520 -0.5810  0.3929  0.0255
  758SOL    HW2 2274   2.276   0.107   1.439 -0.6296 -1.7165 -1.2116
  759SOL     OW 2275   1.680   0.106   0.059 -0.4884  0.5731  0.0739
  759SOL    HW1 2276   1.647   0.086  -0.037  0.0188 -1.1259 -1.3202
  759SOL    HW2 2277   1.779   0.083   0.067 -1.5600 -0.0175 -1.3797
  760SOL     OW 2278   2.552   2.075   2.831 -0.7945 -0.3541 -0.0170
  760SOL    HW1 2279   2.618   2.008   2.874  0.2380  0.8415 -2.2190
  760SOL    HW2 2280   2.554   2.163   2.886 -1.2080  0.4579 -0.2021
  761SOL     OW 2281   1.914   1.800   1.756 -0.2537 -0.0345 -0.3554
  761SOL    HW1 2282   1.931   1.703   1.787  1.0800  0.9119 -0.0078
  761SOL    HW2 2283   1.855   1.801   1.673  1.1150  0.7969  0.8514
  762SOL     OW 2284   0.491   2.368   0.951 -0.0200  0.0514  0.0229
  762SOL    HW1 2285   0.538   2.348   0.856 -0.7264 -1.8265 -0.3969
  762SOL    HW2 2286   0.555   2.419   1.018  1.0607  1.5503  0.4090
  763SOL     OW 2287   2.103   1.568   2.990 -0.1189  0.3554  0.4578
  763SOL    HW1 2288   2.177   1.500   2.965 -0.1795 -0.9875  2.3836
  763SOL    HW2 2289   2.024   1.516   3.028  2.6509  0.2747 -2.5076
  764SOL     OW 2290   0.688   0.557   0.719 -0.2398 -0.7166  0.4364
  764SOL    HW1 2291   0.600   0.508   0.718 -1.0984  0.1545  0.8651
  764SOL    HW2 2292   0.751   0.533   0.800 -1.3246 -0.2508  0.1371
  765SOL     OW 2293   0.772   0.257   0.780 -0.3126 -0.4152  0.0974
  765SOL    HW1 2294   0.818   0.287   0.696 -0.9915 -1.9631 -1.2724
  765SOL    HW2 2295   0.791   0.331   0.861  0.0036  1.9676  2.3422
  766SOL     OW 2296   2.889   2.162   3.005  0.0657  0.2764 -0.3282
  766SOL    HW1 2297   2.808   2.126   3.062 -0.7160  0.5802  0.3693
  766SOL    HW2 2298   2.944   2.231   3.058 -3.0133 -1.1253 -0.9034
  767SOL     OW 2299   2.802   1.670   0.576 -0.2904  0.5549 -0.0544
  767SOL    HW1 2300   2.706   1.693   0.609  0.5261 -1.9819  0.2770
  767SOL    HW2 2301   2.870   1.719   0.632 -1.3880 -2.3100  1.6459
  768SOL     OW 2302   1.031   0.152   0.243  0.0508 -0.4537 -0.0968
  768SOL    HW1 2303   0.986   0.165   0.333  0.0885  3.9877  0.9121
  768SOL    HW2 2304   1.130   0.175   0.247 -0.6105 -0.7466  0.9474
  769SOL     OW 2305   1.125   1.870   2.326 -0.4285  0.8823  0.2217
  769SOL    HW1 2306   1.021   1.867   2.344  0.7335 -0.5293 -0.0724
  769SOL    HW2 2307   1.175   1.840   2.411  1.6331 -0.3591  0.6136
  770SOL     OW 2308   0.165   1.133   2.313  0.0521  0.1812  0.1179
  770SOL    HW1 2309   0.186   1.199   2.394  1.0706  0.0859  0.9505
  770SOL    HW2 2310   0.071   1.091   2.321 -0.4305 -1.2163 -0.2892
  771SOL     OW 2311   3.061   2.826   1.940  0.1570  0.4032  0.2928
  771SOL    HW1 2312   3.007   2.866   1.857  1.7449 -2.7589  1.8654
  771SOL    HW2 2313   2.997   2.821   2.019  0.5528  1.6438 -1.7472
  772SOL     OW 2314   2.295   0.206   2.856 -0.6291 -0.2861  0.2792
  772SOL    HW1 2315   2.368   0.142   2.816  0.0199  0.1648  1.1092
  772SOL    HW2 2316   2.319   0.239   2.949  0.4388 -1.5086 -2.2067
  773SOL     OW 2317   0.620   2.133   2.376  0.9620  0.0840 -0.0701
  773SOL    HW1 2318   0.610   2.222   2.317 -1.6715  0.6595  0.2086
  773SOL    HW2 2319   0.539   2.128   2.441 -3.3877  1.8920 -1.4395
  774SOL     OW 2320   2.121   3.087   2.591 -0.0854 -0.6607 -0.4274
  774SOL    HW1 2321   2.115   3.178   2.644  0.5421  2.8685 -0.1803
  774SOL    HW2 2322   2.149   3.006   2.648 -0.5849 -1.5891  0.0638
  775SOL     OW 2323   2.557   2.984   2.228 -0.0484 -0.0825  0.0126
  775SOL    HW1 2324   2.506   3.075   2.223  0.3065  1.8585 -0.8809
  775SOL    HW2 2325   2.598   2.973   2.324 -0.3327  3.4875  0.1895
  776SOL     OW 2326   3.087   1.264   0.190  0.1935 -0.4532  0.0383
  776SOL    HW1 2327   3.039   1.221   0.108  1.5321  0.7921  0.3938
  776SOL    HW2 2328   3.034   1.262   0.276  2.4696 -0.8045  0.5524
  777SOL     OW 2329   0.426   2.935   0.401 -0.0485 -0.3589 -0.5507
  777SOL    HW1 2330   0.326   2.933   0.375 -0.5112 -2.2294  0.4892
  777SOL    HW2 2331   0.478   2.878   0.334 -0.6532  0.0557 -1.3455
  778SOL     OW 2332   1.330   1.958   0.189 -0.4507  0.2993  0.0774
  778SOL    HW1 2333   1.289   1.982   0.287  1.2193  0.0794  3.6519
  778SOL    HW2 2334   1.349   2.042   0.130 -0.7446  2.3579  0.7796
  779SOL     OW 2335   0.187   0.898   0.458  0.1490  0.3300  0.2479
  779SOL    HW1 2336   0.129   0.809   0.451 -2.1515 -1.8596  0.9690
  779SOL    HW2 2337   0.153   0.952   0.537  0.9799 -3.2488 -1.1362
  780SOL     OW 2338   0.159   0.320   2.417 -0.2654  0.5161  0.1014
  780SOL    HW1 2339   0.126   0.415   2.438 -1.3121 -1.1448  0.2597
  780SOL    HW2 2340   0.251   0.317   2.368  1.6685  0.6758 -1.4915
  781SOL     OW 2341   0.674   1.649   1.510 -0.0903  0.1377  0.3070
  781SOL    HW1 2342   0.732   1.597   1.579 -0.6158 -2.3096 -1.2538
  781SOL    HW2 2343   0.573   1.648   1.532 -0.1535 -0.5546 -1.2978
  782SOL     OW 2344   2.598   0.145   0.929  0.2988  0.2021  0.2596
  782SOL    HW1 2345   2.564   0.191   0.844 -1.0741  1.8801 -0.2025
  782SOL    HW2 2346   2.574   0.200   1.008 -1.0538  0.5441 -1.3974
  783SOL     OW 2347   2.746   0.684   2.446 -0.0144  0.2886 -0.5205
  783SOL    HW1 2348   2.814   0.672   2.529  0.7842 -1.2074  0.2366
  783SOL    HW2 2349   2.683   0.595   2.434 -3.2359 -1.4687  0.6992
  784SOL     OW 2350   1.438   2.188   0.064  0.6704 -0.0122 -0.4630
  784SOL    HW1 2351   1.488   2.280   0.080  1.7231  2.6488  1.8787
  784SOL    HW2 2352   1.396   2.187  -0.030  4.4331 -0.0885  1.7803
  785SOL     OW 2353   2.068   0.302   3.098  0.5783 -0.6401  0.6589
  785SOL    HW1 2354   1.979   0.304   3.157  1.5039  1.9805  0.6362
  785SOL    HW2 2355   2.083   0.399   3.062 -1.4248  1.8368  0.3910
  786SOL     OW 2356   2.029   2.198   2.242  0.0611  0.3432  0.1724
  786SOL    HW1 2357   1.979   2.114   2.274  3.8454  0.1374 -3.0310
  786SOL    HW2 2358   2.117   2.171   2.184  2.4058 -1.3013 -0.1251
  787SOL     OW 2359   1.331   0.529   0.913  0.0635 -0.2689 -0.1101
  787SOL    HW1 2360   1.305   0.622   0.950  4.1199 -4.3642  0.8901
  787SOL    HW2 2361   1.406   0.533   0.837  0.5453 -1.4111 -0.7591
  788SOL     OW 2362   1.228   0.404   0.074 -0.2206 -0.1879  0.3131
  788SOL    HW1 2363   1.142   0.380   0.022 -0.7347  1.6019  3.3922
  788SOL    HW2 2364   1.219   0.502   0.103 -3.0987 -2.0628 -2.2996
  789SOL     OW 2365   2.554   0.090   1.904  0.0089  0.5687 -0.3179
  789SOL    HW1 2366   2.453   0.125   1.878 -0.2693  2.7234 -1.7984
  789SOL    HW2 2367   2.578  -0.008   1.893  1.2262  0.2467 -0.6468
  790SOL     OW 2368   2.623   2.768   0.772 -0.2572  0.5844  0.1304
  790SOL    HW1 2369   2.688   2.798   0.703 -1.1599 -0.4507 -2.0143
  790SOL    HW2 2370   2.613   2.842   0.844 -0.7638  1.5151 -0.6255
  791SOL     OW 2371   1.929   1.204   0.267 -0.2227  0.5977 -0.2135
  791SOL    HW1 2372   1.848   1.149   0.295  0.7685  0.3425 -1.4962
  791SOL    HW2 2373   2.014   1.156   0.285 -1.9928 -0.5961 -0.3586
  792SOL     OW 2374   0.396   1.759   2.134  0.6735 -0.0159  0.0668
  792SOL    HW1 2375   0.486   1.758   2.189  2.3559 -0.0812  0.8738
  792SOL    HW2 2376   0.315   1.736   2.196  0.6590  2.8340  3.1383
  793SOL     OW 2377   2.123   1.553   2.101  0.4952  0.7105  0.4333
  793SOL    HW1 2378   2.188   1.618   2.056  0.4444 -0.4379  2.1227
  793SOL    HW2 2379   2.134   1.455   2.073  2.6026  0.9567  0.3118
  794SOL     OW 2380   0.572   1.441   2.339  0.0370 -0.6841 -0.0151
  794SOL    HW1 2381   0.543   1.402   2.244 -2.1549  1.1955 -0.2167
  794SOL    HW2 2382   0.495   1.502   2.378 -0.0628 -0.9595  0.2585
  795SOL     OW 2383   2.532   2.261   1.810 -0.2985  0.1680 -0.0537
  795SOL    HW1 2384   2.538   2.242   1.916  0.3068  0.8845  1.9770
  795SOL    HW2 2385   2.453   2.205   1.767 -0.0632 -2.1946  0.1109
  796SOL     OW 2386   3.097   1.104   2.695  0.2336 -0.1308 -0.3120
  796SOL    HW1 2387   2.998   1.127   2.710 -0.4102  1.6666  0.1187
  796SOL    HW2 2388   3.146   1.124   2.786 -1.7505  1.9275  0.7348
  797SOL     OW 2389   0.772   0.679   1.399 -0.1535  0.2482 -0.0648
  797SOL    HW1 2390   0.837   0.733   1.460 -0.1376 -0.1747 -1.0601
  797SOL    HW2 2391   0.692   0.734   1.358 -1.4861 -3.0409 -0.7764
  798SOL     OW 2392   1.329   0.360   1.135 -0.7789 -0.2616 -0.5853
  798SOL    HW1 2393   1.398   0.392   1.212  0.1548 -1.3717  0.3669
  798SOL    HW2 2394   1.333   0.421   1.052 -0.9257 -3.7002  1.0017
  799SOL     OW 2395   1.969   2.722   1.015 -0.0930 -0.1561  0.8647
  799SOL    HW1 2396   1.895   2.683   1.081 -3.7441  0.0248  2.5912
  799SOL    HW2 2397   1.966   2.681   0.920  0.3418  0.2490 -1.2295
  800SOL     OW 2398   3.036   0.600   1.800 -0.3116  0.1556  0.2373
  800SOL    HW1 2399   3.007   0.675   1.869  1.7416 -0.2779  2.6476
  800SOL    HW2 2400   3.110   0.536   1.844 -0.4037  0.0001  1.2865
  801SOL     OW 2401   1.962   2.253   0.089  0.2325  0.2170 -0.2396
  801SOL    HW1 2402   1.902   2.212   0.018 -0.4473  1.7557 -0.0858
  801SOL    HW2 2403   2.059   2.222   0.075 -1.1287 -2.1681  2.4948
  802SOL     OW 2404   0.711   0.818   2.569  0.1171  0.2259  0.3578
  802SOL    HW1 2405   0.751   0.813   2.473  0.0414  1.2941 -1.8939
  802SOL    HW2 2406   0.612   0.784   2.568  2.4938  0.2916 -2.3548
  803SOL     OW 2407   0.957   0.051   0.886 -0.1659  0.1771 -0.0963
  803SOL    HW1 2408   1.037   0.112   0.926  0.1149 -2.3561  0.1424
  803SOL    HW2 2409   0.889   0.099   0.825  0.0643 -1.6095 -0.3302
  804SOL     OW 2410   0.272   0.034   2.161  0.0949  0.0330 -0.7899
  804SOL    HW1 2411   0.232   0.123   2.187 -0.3782 -1.9443  1.7155
  804SOL    HW2 2412   0.242  -0.005   2.073  1.7226  0.8299  0.4057
  805SOL     OW 2413   2.439   0.246   0.326 -0.1423  0.1308  0.7403
  805SOL    HW1 2414   2.536   0.271   0.306 -0.0882 -0.3779 -3.0386
  805SOL    HW2 2415   2.370   0.300   0.274 -2.3264  1.2168 -0.1260
  806SOL     OW 2416   0.632   2.392   1.656 -0.5393  0.5711 -0.0867
  806SOL    HW1 2417   0.643   2.496   1.659  0.8445  0.0261  1.1917
  806SOL    HW2 2418   0.725   2.348   1.646 -0.4014  0.9864 -4.1829
  807SOL     OW 2419   2.404   0.936   0.443  0.6243 -0.2416 -0.2177
  807SOL    HW1 2420   2.481   0.965   0.499  1.2350 -2.9264 -0.2616
  807SOL    HW2 2421   2.419   0.942   0.339 -2.3863  0.1143 -3.0846
  808SOL     OW 2422   0.522   2.039   2.968 -0.0250  0.3581  0.1451
  808SOL    HW1 2423   0.507   2.063   3.067  0.0635  0.0139 -2.1451
  808SOL    HW2 2424   0.544   1.935   2.958 -0.6565  0.4383 -0.5759
  809SOL     OW 2425   2.650   1.974   1.913  1.2158 -0.3308 -0.3027
  809SOL    HW1 2426   2.750   1.996   1.933 -2.4902 -0.4366  1.9549
  809SOL    HW2 2427   2.625   1.960   1.814  0.7441  1.3783  0.2167
  810SOL     OW 2428   2.104   1.048   0.541 -0.1769  0.0588 -0.7843
  810SOL    HW1 2429   2.185   1.006   0.590  1.8108 -0.4245 -1.8294
  810SOL    HW2 2430   2.063   1.129   0.600  0.1878  2.9074  2.9024
  811SOL     OW 2431   1.372   2.487   1.297  0.4308  0.9006 -0.3599
  811SOL    HW1 2432   1.404   2.389   1.303  2.2299 -0.6735 -2.0718
  811SOL    HW2 2433   1.270   2.492   1.271  0.7255 -1.2112 -1.6106
  812SOL     OW 2434   1.468   0.835   1.955  0.0158  0.4090  0.0811
  812SOL    HW1 2435   1.520   0.875   2.035 -1.0620  0.9715 -1.0630
  812SOL    HW2 2436   1.378   0.880   1.926  2.0143 -0.1907 -0.5565
  813SOL     OW 2437   1.743   2.146   2.468  0.0508  0.0842  0.2226
  813SOL    HW1 2438   1.816   2.074   2.486 -0.3532 -0.5048  0.4409
  813SOL    HW2 2439   1.680   2.134   2.384 -1.7299  2.3012 -2.7831
  814SOL     OW 2440   2.867   1.553   2.838 -0.0176 -0.5012  0.0130
  814SOL    HW1 2441   2.956   1.543   2.898  1.2243  1.6610  2.1108
  814SOL    HW2 2442   2.854   1.652   2.800 -1.6211  0.3372 -1.7783
  815SOL     OW 2443   2.218   2.831   2.747 -0.9433  0.2440  0.2487
  815SOL    HW1 2444   2.169   2.772   2.823 -3.6272 -0.8591  3.7870
  815SOL    HW2 2445   2.323   2.843   2.754  0.1986  0.3245 -1.0689
  816SOL     OW 2446   1.644   0.305   1.603 -0.1797  0.2735  0.7812
  816SOL    HW1 2447   1.670   0.212   1.643 -1.0543 -2.7452  1.0698
  816SOL    HW2 2448   1.581   0.360   1.658 -0.9562 -0.7345 -1.7466
  817SOL     OW 2449   0.420   1.223   2.524 -0.3299  0.0340  0.1251
  817SOL    HW1 2450   0.327   1.263   2.557 -0.4183 -2.1877  1.6427
  817SOL    HW2 2451   0.470   1.283   2.457 -0.7161 -1.0103  0.3644
  818SOL     OW 2452   1.952   0.805   0.480  0.1132 -0.7447 -0.2666
  818SOL    HW1 2453   2.007   0.895   0.485  2.2554  1.5919 -0.4921
  818SOL    HW2 2454   1.908   0.775   0.568 -1.9842 -1.2398 -1.3378
  819SOL     OW 2455   2.786   2.918   3.020  0.1709  0.1354  0.2915
  819SOL    HW1 2456   2.851   2.847   2.979 -0.0686 -1.4121 -0.6578
  819SOL    HW2 2457   2.709   2.943   2.955 -0.8419  2.0259  0.5011
  820SOL     OW 2458   1.241   1.125   0.605  0.3991 -0.3798  0.9118
  820SOL    HW1 2459   1.231   1.232   0.622  2.6893  3.6517  0.6030
  820SOL    HW2 2460   1.229   1.063   0.691 -4.0614  3.6183  2.3386
  821SOL     OW 2461   0.020   1.271   0.674 -0.2136  0.3795 -0.0441
  821SOL    HW1 2462  -0.023   1.265   0.771 -2.4338 -0.7124  0.6159
  821SOL    HW2 2463   0.098   1.342   0.671 -0.6985 -0.7867 -0.2242
  822SOL     OW 2464   2.547   1.734   2.418  0.4022 -0.0305  0.6214
  822SOL    HW1 2465   2.545   1.828   2.468 -1.2717  0.3923 -1.0357
  822SOL    HW2 2466   2.469   1.733   2.346 -2.1170 -2.7020 -1.1069
  823SOL     OW 2467   2.030   0.795   1.222  0.6510 -0.7248 -0.2563
  823SOL    HW1 2468   2.005   0.804   1.324  1.2157  2.2958  0.4014
  823SOL    HW2 2469   1.992   0.872   1.165 -1.1102 -1.1563 -1.6061
  824SOL     OW 2470   0.137   2.056   2.784 -0.4232  0.2868  0.1979
  824SOL    HW1 2471   0.092   1.973   2.832  1.3736 -1.8606  1.1341
  824SOL    HW2 2472   0.203   2.016   2.712  2.1123 -1.4225 -2.5844
  825SOL     OW 2473   1.281   1.096   0.256  0.0248 -0.3758  0.7654
  825SOL    HW1 2474   1.299   1.197   0.227 -2.5494  3.1388  3.4594
  825SOL    HW2 2475   1.209   1.096   0.334 -1.9139 -0.2404  3.3084
  826SOL     OW 2476   1.942   0.656   1.597 -0.1055  0.0637  0.2536
  826SOL    HW1 2477   2.008   0.590   1.642 -1.3764  0.5934  1.5249
  826SOL    HW2 2478   1.867   0.602   1.552  1.5014  0.6101 -0.0334
  827SOL     OW 2479   0.698   1.397   0.280  0.2681 -0.3386 -0.7000
  827SOL    HW1 2480   0.759   1.318   0.245 -3.3894 -2.8984  1.1264
  827SOL    HW2 2481   0.618   1.364   0.336  0.1993 -0.6381  0.0049
  828SOL     OW 2482   2.483   0.112   1.622  0.5191 -0.0511 -0.1162
  828SOL    HW1 2483   2.389   0.151   1.628  0.6859  2.4501 -3.0233
  828SOL    HW2 2484   2.494   0.021   1.654  1.7884  3.5209  1.2223
  829SOL     OW 2485   2.820   2.462   2.949  0.5850 -0.4054 -0.0797
  829SOL    HW1 2486   2.751   2.391   2.920  0.1847 -1.7387  0.2642
  829SOL    HW2 2487   2.785   2.531   3.018  1.3387  0.6871  1.8504
  830SOL     OW 2488   2.827   0.896   3.030  0.1222  0.7804 -0.8710
  830SOL    HW1 2489   2.882   0.972   3.070  0.9142  1.4031  0.5343
  830SOL    HW2 2490   2.824   0.810   3.087 -0.6082  0.6364 -0.4551
  831SOL     OW 2491   0.053   0.661   0.369  0.7449  0.3494  0.0068
  831SOL    HW1 2492  -0.006   0.592   0.420  0.0929  1.2294  1.7073
  831SOL    HW2 2493   0.102   0.605   0.292  1.8035 -1.5638 -1.6164
  832SOL     OW 2494   1.815   0.741   3.094 -0.1041  0.1805 -0.3346
  832SOL    HW1 2495   1.728   0.799   3.066 -2.1093 -0.2413 -2.4893
  832SOL    HW2 2496   1.791   0.639   3.086  1.0437 -0.9953 -1.4366
  833SOL     OW 2497   2.419   2.121   0.526 -0.0344  0.4321 -0.2529
  833SOL    HW1 2498   2.325   2.124   0.479 -0.1896 -0.5226 -0.1738
  833SOL    HW2 2499   2.472   2.034   0.515  0.1030 -1.6366  1.7978
  834SOL     OW 2500   0.184   0.186   0.515  0.2723 -0.1184 -0.9535
  834SOL    HW1 2501   0.210   0.093   0.542 -0.7015  5.7600 -2.4510
  834SOL    HW2 2502   0.174   0.199   0.414  0.8196 -1.8586  0.3657
  835SOL     OW 2503   2.359   1.564   1.133  0.0102  0.7140 -0.6080
  835SOL    HW1 2504   2.456   1.570   1.160 -4.2038 -1.0726 -0.2907
  835SOL    HW2 2505   2.356   1.579   1.032  3.2731  0.0158 -1.0641
  836SOL     OW 2506   1.576   0.837   2.544 -0.0875 -0.1341 -0.7663
  836SOL    HW1 2507   1.487   0.834   2.491  2.2144  2.1084 -0.9406
  836SOL    HW2 2508   1.656   0.859   2.483  0.2338 -0.3019  0.0721
  837SOL     OW 2509   1.749   0.142   0.547 -0.5077  0.4338 -0.0580
  837SOL    HW1 2510   1.704   0.159   0.638 -3.3753  1.0077 -0.8318
  837SOL    HW2 2511   1.697   0.192   0.475  1.5394 -3.5302 -0.8996
  838SOL     OW 2512   1.131   1.571   2.770 -0.3941 -0.0097  0.3873
  838SOL    HW1 2513   1.148   1.528   2.865  4.1035  0.2096  1.6900
  838SOL    HW2 2514   1.080   1.512   2.702 -1.9303  0.3746 -0.5507
  839SOL     OW 2515   1.601   0.292   0.987  0.6618 -0.3298  0.0827
  839SOL    HW1 2516   1.659   0.324   1.064  2.2241  0.1431 -1.6276
  839SOL    HW2 2517   1.557   0.199   1.006 -0.7164 -1.1517 -0.7461
  840SOL     OW 2518   2.463   2.941   1.718 -0.6059 -0.2677  0.4179
  840SOL    HW1 2519   2.397   2.864   1.723  3.1310  1.0878 -0.7545
  840SOL    HW2 2520   2.560   2.912   1.689 -0.4323 -2.6598 -1.6033
  841SOL     OW 2521   1.558   0.831   3.001 -0.1704 -0.0090 -0.3203
  841SOL    HW1 2522   1.483   0.856   3.065  3.6658  1.7477 -3.0368
  841SOL    HW2 2523   1.548   0.881   2.916 -0.9717  1.3069 -0.2587
  842SOL     OW 2524   0.815   1.511   0.906  0.8231  0.5792 -0.2630
  842SOL    HW1 2525   0.785   1.603   0.951 -0.7112  2.1357 -3.1936
  842SOL    HW2 2526   0.740   1.439   0.896 -0.3489  0.0306  1.3949
  843SOL     OW 2527   0.081   0.003   1.370 -0.3461  0.4526 -0.3193
  843SOL    HW1 2528   0.147   0.065   1.423 -1.4134 -0.4694 -0.9412
  843SOL    HW2 2529   0.067  -0.099   1.405 -1.7546  0.3663 -0.1301
  844SOL     OW 2530   0.785   2.474   0.242 -0.5311  0.4628 -0.2869
  844SOL    HW1 2531   0.760   2.449   0.338  0.9758 -1.9690  0.2708
  844SOL    HW2 2532   0.742   2.560   0.211 -1.2365  0.4856 -2.3396
  845SOL     OW 2533   1.662   2.889   1.323 -0.3248 -0.3047 -0.4794
  845SOL    HW1 2534   1.719   2.806   1.308  1.9646  0.4632 -1.3270
  845SOL    HW2 2535   1.672   2.926   1.422  2.2953  0.5072  2.2245
  846SOL     OW 2536   1.592   2.932   0.759 -0.3866 -0.1513  0.2365
  846SOL    HW1 2537   1.567   2.887   0.670  1.1327 -1.8056  0.7549
  846SOL    HW2 2538   1.694   2.919   0.783 -1.4721  1.1168  0.3475
  847SOL     OW 2539   2.058   1.665   0.369 -0.5110 -0.3429  0.0519
  847SOL    HW1 2540   2.013   1.579   0.354  0.0430 -0.0423  0.0772
  847SOL    HW2 2541   1.990   1.739   0.411  1.4608  2.8916 -1.7846
  848SOL     OW 2542   2.449   0.837   2.633 -0.0491 -0.1160 -0.0007
  848SOL    HW1 2543   2.447   0.928   2.686  1.4418 -0.0317  1.4425
  848SOL    HW2 2544   2.351   0.799   2.623  0.1311  0.7780  0.0236
  849SOL     OW 2545   2.569   0.869   2.375  0.4943 -0.2372  0.2201
  849SOL    HW1 2546   2.647   0.797   2.388  0.3485  1.1599 -1.3230
  849SOL    HW2 2547   2.500   0.876   2.451 -1.9905  0.7473 -1.6179
  850SOL     OW 2548   1.540   0.096   1.315 -0.8653  0.2491  0.2112
  850SOL    HW1 2549   1.533   0.067   1.213 -1.5593  1.0964 -0.1245
  850SOL    HW2 2550   1.482   0.029   1.373  0.4804 -0.2004  1.3862
  851SOL     OW 2551   0.442   1.814   0.566  0.3466  0.6215  0.2147
  851SOL    HW1 2552   0.483   1.909   0.579  1.1776  0.9336 -1.8173
  851SOL    HW2 2553   0.414   1.803   0.469  1.4561  0.2497 -1.5357
  852SOL     OW 2554   0.788   2.084   1.742 -0.2269 -0.0969 -0.4658
  852SOL    HW1 2555   0.837   2.172   1.719 -0.1271  0.5615  0.6977
  852SOL    HW2 2556   0.731   2.099   1.828 -0.5551  2.4488  1.4020
  853SOL     OW 2557   2.508   1.529   2.595  0.2415 -0.4337 -0.4355
  853SOL    HW1 2558   2.455   1.442   2.557 -2.5347 -2.6337 -1.6665
  853SOL    HW2 2559   2.519   1.614   2.529  0.1523 -0.5870 -1.6459
  854SOL     OW 2560   2.394   1.360   1.705 -0.1488  0.0670  0.0572
  854SOL    HW1 2561   2.475   1.312   1.657  2.4495 -0.3566  0.2192
  854SOL    HW2 2562   2.322   1.294   1.741 -0.2041 -0.4303 -2.1466
  855SOL     OW 2563   2.058   2.454   1.083 -0.3301 -0.0676  0.3807
  855SOL    HW1 2564   2.045   2.547   1.046 -1.0302 -0.7095 -0.6622
  855SOL    HW2 2565   2.151   2.436   1.126 -0.5314  0.9847 -0.4063
  856SOL     OW 2566   1.349   1.410   0.939 -0.2124  0.2552 -0.3105
  856SOL    HW1 2567   1.411   1.485   0.972  0.4649  0.2147  1.6667
  856SOL    HW2 2568   1.251   1.432   0.963 -1.5204  0.6953 -0.6364
  857SOL     OW 2569   3.029   2.714   0.989 -0.3053 -0.5739 -0.1326
  857SOL    HW1 2570   2.997   2.652   0.919  0.4294  0.9476 -0.3376
  857SOL    HW2 2571   3.122   2.762   0.965 -0.8701  1.5653 -2.1055
  858SOL     OW 2572   2.334   2.102   1.717 -0.0701 -0.1790  0.0856
  858SOL    HW1 2573   2.251   2.117   1.652 -3.8032  1.3825  0.9107
  858SOL    HW2 2574   2.412   2.038   1.687  0.0526  1.3689  0.8847
  859SOL     OW 2575   2.487   0.580   1.081  0.1879 -0.4221 -0.5353
  859SOL    HW1 2576   2.515   0.615   0.987 -2.4795 -0.2779 -2.1607
  859SOL    HW2 2577   2.482   0.478   1.089  1.2983  1.4914  0.3572
  860SOL     OW 2578   1.869   2.797   0.465  0.1949 -0.4488 -0.7516
  860SOL    HW1 2579   1.855   2.773   0.364  0.4084 -1.7117 -1.6822
  860SOL    HW2 2580   1.900   2.896   0.478  2.4014  4.6560  0.3965
  861SOL     OW 2581   1.008   2.410   2.871 -0.1428 -0.2346 -0.2248
  861SOL    HW1 2582   1.065   2.494   2.848  2.4983 -0.9112  2.6668
  861SOL    HW2 2583   1.018   2.386   2.969  4.1469 -0.8673 -0.5678
  862SOL     OW 2584   2.903   2.567   1.592 -0.8520  0.1531  0.1158
  862SOL    HW1 2585   2.987   2.601   1.650  0.0269  2.0788 -2.4729
  862SOL    HW2 2586   2.854   2.643   1.541  1.0917 -1.7796  0.7094
  863SOL     OW 2587   1.829   2.717   0.211  0.6886 -0.2423 -0.2009
  863SOL    HW1 2588   1.892   2.633   0.210  0.6396  1.9208 -1.9306
  863SOL    HW2 2589   1.733   2.697   0.171  1.7060 -3.2285 -2.8815
  864SOL     OW 2590   2.000   1.217   2.829 -0.1540  0.3631  0.4984
  864SOL    HW1 2591   1.998   1.176   2.732 -1.2325  0.8308 -1.9377
  864SOL    HW2 2592   2.087   1.195   2.876  1.8356 -3.1715  0.8301
  865SOL     OW 2593   2.167   1.918   0.703  0.4257 -0.7342 -0.0342
  865SOL    HW1 2594   2.236   1.896   0.775  0.1158 -0.0712  0.2333
  865SOL    HW2 2595   2.085   1.960   0.747  2.0203 -0.8326 -0.6902
  866SOL     OW 2596   2.847   2.940   1.009 -0.4908 -0.4673  0.1836
  866SOL    HW1 2597   2.857   2.999   0.925  1.5526  2.1727 -1.4032
  866SOL    HW2 2598   2.898   2.855   1.010  0.2757  1.8549 -1.9152
  867SOL     OW 2599   0.338   1.398   0.907 -0.1935 -0.9388 -0.3158
  867SOL    HW1 2600   0.315   1.350   0.821  2.6076 -0.7854 -2.4859
  867SOL    HW2 2601   0.318   1.503   0.897 -2.7002  1.4732 -2.7423
  868SOL     OW 2602   0.768   1.905   2.101  0.1369  0.7360  0.0613
  868SOL    HW1 2603   0.699   1.879   2.178 -2.4641 -0.0911  3.6908
  868SOL    HW2 2604   0.725   1.975   2.037 -0.5114  0.8616 -1.7129
  869SOL     OW 2605   2.566   1.955   1.650 -0.3289 -0.2896  0.8168
  869SOL    HW1 2606   2.657   2.005   1.624  0.6806  1.9969  0.6683
  869SOL    HW2 2607   2.558   1.858   1.624 -0.2110 -0.9694  1.8581
  870SOL     OW 2608   2.290   2.688   1.243  0.1379 -0.4357  0.0696
  870SOL    HW1 2609   2.301   2.587   1.247  0.9364 -0.0973  0.7567
  870SOL    HW2 2610   2.276   2.719   1.338  1.0554  0.2472  2.6791
  871SOL     OW 2611   0.032   2.304   0.544  0.0947 -0.0680  0.5197
  871SOL    HW1 2612  -0.022   2.350   0.616  0.9609  1.9229  1.5903
  871SOL    HW2 2613  -0.027   2.279   0.464 -0.1673  0.0004  2.1243
  872SOL     OW 2614   2.114   0.464   1.681 -0.2624  0.5133  0.2141
  872SOL    HW1 2615   2.079   0.455   1.779  0.0324 -0.0637  1.4188
  872SOL    HW2 2616   2.215   0.431   1.670  0.1912  0.5741  0.2424
  873SOL     OW 2617   1.737   2.132   3.077  0.3105  0.4518 -0.5856
  873SOL    HW1 2618   1.655   2.140   3.140  0.4254  4.5390 -0.6415
  873SOL    HW2 2619   1.720   2.151   2.973 -2.1392  0.2150 -1.5891
  874SOL     OW 2620   0.675   2.429   0.739  0.2217 -0.5466 -0.1816
  874SOL    HW1 2621   0.673   2.524   0.775 -0.7080 -0.7572  3.2425
  874SOL    HW2 2622   0.771   2.394   0.725 -1.4901 -1.3937  0.0365
  875SOL     OW 2623   2.268   1.551   1.415  0.0706  0.3263  0.0190
  875SOL    HW1 2624   2.352   1.560   1.473  0.2723 -1.0568  3.5994
  875SOL    HW2 2625   2.289   1.551   1.318  1.6606 -3.0950  3.2716
  876SOL     OW 2626   0.079   2.309   2.683 -0.0344  0.1287  0.2933
  876SOL    HW1 2627   0.082   2.220   2.727  1.7211  3.5235  0.6172
  876SOL    HW2 2628   0.091   2.394   2.748 -0.9270  0.0480  1.4419
  877SOL     OW 2629   2.920   2.661   0.584  0.3821  0.8622 -0.0470
  877SOL    HW1 2630   2.939   2.762   0.580  0.2129  2.6349 -0.5268
  877SOL    HW2 2631   2.988   2.607   0.645  1.3597  0.0781 -2.0273
  878SOL     OW 2632   2.816   1.496   2.234 -0.0380  0.3285 -0.4744
  878SOL    HW1 2633   2.798   1.579   2.173 -0.4152 -0.3361  0.8165
  878SOL    HW2 2634   2.778   1.506   2.330  0.7675 -0.9989  0.2075
  879SOL     OW 2635   2.390   0.085   1.274  0.2682 -0.0574 -0.6349
  879SOL    HW1 2636   2.431  -0.006   1.310 -0.0502 -2.3669  0.9107
  879SOL    HW2 2637   2.311   0.072   1.205  0.3407  1.1465 -0.3842
  880SOL     OW 2638   0.760   0.505   2.261  0.2683  0.1716  0.1878
  880SOL    HW1 2639   0.674   0.465   2.310 -1.3576 -2.5940  1.2724
  880SOL    HW2 2640   0.836   0.432   2.259  0.9172 -0.9107  0.7314
  881SOL     OW 2641   0.842   0.071   0.442  0.2787  0.1915  0.3513
  881SOL    HW1 2642   0.896  -0.015   0.412 -3.8117 -0.2978 -0.3396
  881SOL    HW2 2643   0.739   0.057   0.463 -0.6570 -0.8724  3.4161
  882SOL     OW 2644   2.717   1.672   1.706  0.1459  0.4220  0.4157
  882SOL    HW1 2645   2.778   1.620   1.644 -3.1175  0.9726  0.7556
  882SOL    HW2 2646   2.754   1.677   1.804  0.8556 -1.7462  2.3483
  883SOL     OW 2647   0.859   0.501   0.930  0.1895 -0.4950 -0.0703
  883SOL    HW1 2648   0.906   0.583   0.971  1.1977  0.7717 -0.9470
  883SOL    HW2 2649   0.796   0.462   1.001  1.8954  0.3522  0.1414
  884SOL     OW 2650   1.092   1.754   1.163  0.2426 -0.0514 -0.2535
  884SOL    HW1 2651   1.087   1.655   1.120 -0.1233 -0.5586  0.0443
  884SOL    HW2 2652   1.080   1.822   1.087  1.0805 -0.9519  0.5790
  885SOL     OW 2653   2.325   1.814   2.265 -0.4265 -0.2008  0.2553
  885SOL    HW1 2654   2.241   1.772   2.311  1.9963 -2.9118 -0.1259
  885SOL    HW2 2655   2.313   1.919   2.266  1.6438 -0.2812 -0.9935
  886SOL     OW 2656   2.607   0.333   1.809  0.1480 -0.1615 -0.0679
  886SOL    HW1 2657   2.603   0.232   1.832 -0.8577  0.4807  3.3011
  886SOL    HW2 2658   2.703   0.368   1.803 -2.5806  0.6100 -0.3128
  887SOL     OW 2659   0.129   2.063   1.293 -0.3730 -0.6116  0.0264
  887SOL    HW1 2660   0.150   2.022   1.204 -0.5555  1.1286  0.1764
  887SOL    HW2 2661   0.107   2.161   1.285  3.3976 -0.0877  1.4149
  888SOL     OW 2662   0.630   1.225   1.518 -0.1722  0.0024 -0.2504
  888SOL    HW1 2663   0.668   1.259   1.426  1.4354 -1.4079 -2.8058
  888SOL    HW2 2664   0.606   1.127   1.519 -1.0008  2.9860  2.7174
  889SOL     OW 2665   0.830   2.515   2.206 -0.1599 -0.3494 -0.4391
  889SOL    HW1 2666   0.753   2.446   2.195  1.3723 -3.0172  2.0023
  889SOL    HW2 2667   0.909   2.493   2.146  0.7662  0.0414  0.0347
  890SOL     OW 2668   2.381   2.505   0.260  0.6572 -0.0445  0.1996
  890SOL    HW1 2669   2.427   2.594   0.253  2.2534 -2.8010 -1.9617
  890SOL    HW2 2670   2.321   2.497   0.344  2.0415 -2.8747 -0.2059
  891SOL     OW 2671   2.511   1.720   0.648 -0.0066 -0.4323 -0.4169
  891SOL    HW1 2672   2.503   1.701   0.752  2.0322 -1.7756  0.7633
  891SOL    HW2 2673   2.425   1.687   0.598 -0.2591  1.7312 -0.4824
  892SOL     OW 2674   0.410   0.311   2.281 -0.7467 -0.5772  0.4899
  892SOL    HW1 2675   0.434   0.360   2.193 -0.1419 -4.0683  1.6294
  892SOL    HW2 2676   0.482   0.320   2.354 -1.4002  0.9148  1.5481
  893SOL     OW 2677   1.662   0.199   2.741 -0.3049 -0.3566 -0.1395
  893SOL    HW1 2678   1.741   0.269   2.757 -1.5324  2.8123 -0.3273
  893SOL    HW2 2679   1.576   0.245   2.708  1.0509  1.1075  2.1783
  894SOL     OW 2680   2.178   2.061   0.082  0.1309  0.2381 -0.3888
  894SOL    HW1 2681   2.141   2.010   0.002 -0.8286  1.3159  1.3578
  894SOL    HW2 2682   2.187   1.992   0.159 -0.5385  1.0670 -1.9872
  895SOL     OW 2683   2.793   1.429   0.892  0.1615  0.0694 -0.2868
  895SOL    HW1 2684   2.874   1.378   0.932 -1.4703 -0.4969 -1.0883
  895SOL    HW2 2685   2.804   1.528   0.893  0.9888  0.8220 -1.4005
  896SOL     OW 2686   1.852   1.846   1.203 -0.1751 -0.2578  0.0907
  896SOL    HW1 2687   1.873   1.744   1.190  1.4490 -0.2772  0.1625
  896SOL    HW2 2688   1.778   1.878   1.141 -1.7152  0.0220 -0.0473
  897SOL     OW 2689   0.281   0.573   3.053 -0.0786  0.4458 -0.1169
  897SOL    HW1 2690   0.215   0.597   2.980 -2.5311 -2.0812  1.6816
  897SOL    HW2 2691   0.376   0.609   3.034 -2.3756 -1.0063 -0.6396
  898SOL     OW 2692   0.661   2.840   1.038 -0.0662  0.8433  0.1705
  898SOL    HW1 2693   0.674   2.937   1.064 -1.3155  0.8219 -1.5295
  898SOL    HW2 2694   0.728   2.784   1.091  0.0028  0.2115 -0.5124
  899SOL     OW 2695   2.792   0.852   1.387 -0.4449 -0.1790 -0.4279
  899SOL    HW1 2696   2.762   0.865   1.291 -0.0647 -4.5855 -2.4599
  899SOL    HW2 2697   2.858   0.922   1.421 -2.3800  3.5436 -1.8161
  900SOL     OW 2698   0.992   2.483   2.499 -0.4725  0.3388 -0.6838
  900SOL    HW1 2699   0.917   2.480   2.423 -1.3973  0.8813 -4.5581
  900SOL    HW2 2700   0.977   2.404   2.560  2.0038  0.7961 -0.2045
  901SOL     OW 2701   1.903   2.435   1.362 -0.6778 -0.0398 -0.2408
  901SOL    HW1 2702   1.877   2.369   1.285 -0.0292 -2.9747 -0.5249
  901SOL    HW2 2703   2.004   2.415   1.394  1.1156 -1.6053 -2.6898
  902SOL     OW 2704   2.533   1.667   1.484  0.6033 -0.3413 -0.6745
  902SOL    HW1 2705   2.581   1.628   1.568 -2.9964 -0.5066 -0.3716
  902SOL    HW2 2706   2.598   1.673   1.402  1.8169  0.1665  0.0250
  903SOL     OW 2707   0.320   2.490   1.990 -0.1033  0.4265 -0.2752
  903SOL    HW1 2708   0.249   2.413   1.994 -2.4250  1.6889 -0.5033
  903SOL    HW2 2709   0.315   2.551   1.905 -1.7943  0.6475 -0.4120
  904SOL     OW 2710   1.991   0.783   2.563  0.0604 -0.0494 -0.2149
  904SOL    HW1 2711   1.908   0.740   2.604 -1.8545  1.5358 -0.8151
  904SOL    HW2 2712   1.985   0.786   2.458 -2.3692  0.9685 -0.0207
  905SOL     OW 2713   2.899   0.108   2.446  0.7271  0.4630  0.4728
  905SOL    HW1 2714   2.951   0.030   2.496  1.3128  2.2662  3.6794
  905SOL    HW2 2715   2.935   0.204   2.464  3.2092 -1.8520  0.9918
  906SOL     OW 2716   0.169   1.653   1.877 -0.2089 -0.2619 -0.0530
  906SOL    HW1 2717   0.116   1.689   1.791  2.9177 -0.0768 -2.2494
  906SOL    HW2 2718   0.274   1.637   1.853  0.2496  2.4171 -1.1002
  907SOL     OW 2719   0.200   2.421   0.969  0.2587 -0.3044 -0.3815
  907SOL    HW1 2720   0.296   2.386   0.947  0.0741 -0.2417  1.8836
  907SOL    HW2 2721   0.204   2.518   0.996 -0.6625 -0.7813  1.5627
  908SOL     OW 2722   2.817   3.080   0.295 -0.4054  0.6674  0.5832
  908SOL    HW1 2723   2.718   3.050   0.280 -1.2781 -1.8934 -0.0072
  908SOL    HW2 2724   2.884   2.996   0.288 -1.2925 -2.5667 -1.5707
  909SOL     OW 2725   0.839   1.066   2.680 -0.0242 -0.1008 -0.5924
  909SOL    HW1 2726   0.794   0.977   2.659  0.1999 -0.2702  0.9785
  909SOL    HW2 2727   0.908   1.097   2.608 -0.7705 -0.2091  1.7309
  910SOL     OW 2728   1.769   1.871   2.154  0.1926  0.4161 -0.7350
  910SOL    HW1 2729   1.826   1.927   2.087  1.4544  1.9101 -0.2743
  910SOL    HW2 2730   1.695   1.933   2.195 -0.5203  1.2920 -0.5323
  911SOL     OW 2731   1.821   2.971   1.549  0.8085 -0.2431  0.1446
  911SOL    HW1 2732   1.866   2.940   1.464 -1.2548 -3.4072  1.8688
  911SOL    HW2 2733   1.830   2.899   1.626  0.0605  0.0818  0.4469
  912SOL     OW 2734   2.849   1.032   0.714  0.2804  0.0118  0.1693
  912SOL    HW1 2735   2.864   0.982   0.803  0.7020 -0.7259  0.5629
  912SOL    HW2 2736   2.804   1.127   0.733  1.0797  0.3167  0.3797
  913SOL     OW 2737   2.553   1.231   1.527 -0.3333 -0.3344  0.0391
  913SOL    HW1 2738   2.564   1.127   1.523 -1.6423  2.2094  2.1842
  913SOL    HW2 2739   2.591   1.273   1.440 -1.0135  1.2078  0.2366
  914SOL     OW 2740   2.738   0.632   1.157 -0.1483  0.4674  0.1465
  914SOL    HW1 2741   2.768   0.532   1.181  0.9987 -1.2401  0.9154
  914SOL    HW2 2742   2.641   0.661   1.164  0.2491  1.1471  0.1875
  915SOL     OW 2743   1.227   0.768   1.035 -0.2647  0.0119 -0.1036
  915SOL    HW1 2744   1.272   0.789   1.127  0.2986 -0.6337 -1.6654
  915SOL    HW2 2745   1.124   0.735   1.049 -1.1533  2.7613 -0.6386
  916SOL     OW 2746   0.596   0.089   0.640  0.9995 -0.1953  0.0646
  916SOL    HW1 2747   0.659   0.119   0.718 -0.0096 -2.4908  0.0859
  916SOL    HW2 2748   0.577   0.161   0.563  0.1666 -0.6487 -2.1731
  917SOL     OW 2749   2.900   2.579   1.978  0.3237  0.0940 -0.2148
  917SOL    HW1 2750   2.811   2.627   1.962  0.1593 -0.1765 -0.1211
  917SOL    HW2 2751   2.967   2.593   1.904 -2.3777  1.8749  1.9646
  918SOL     OW 2752   1.037   2.059   3.002  0.3013 -0.1160  0.0758
  918SOL    HW1 2753   1.059   2.139   3.062  1.2583  1.3000 -0.4423
  918SOL    HW2 2754   1.076   2.066   2.904 -2.1158 -0.3630 -1.9368
  919SOL     OW 2755   0.834   1.696   2.816 -0.3179 -0.1976  0.7211
  919SOL    HW1 2756   0.877   1.767   2.752 -0.6089  3.2420  1.6882
  919SOL    HW2 2757   0.784   1.624   2.758  0.3281 -0.2654 -0.6513
  920SOL     OW 2758   1.264   1.772   2.556  0.3590  0.2209  0.2357
  920SOL    HW1 2759   1.351   1.753   2.507 -2.2424 -0.3839 -0.6165
  920SOL    HW2 2760   1.263   1.723   2.646 -2.2950  0.6366 -0.5971
  921SOL     OW 2761   1.127   0.003   2.635 -0.1335  0.2489  0.6541
  921SOL    HW1 2762   1.094  -0.025   2.536 -2.4530  0.1978 -1.3565
  921SOL    HW2 2763   1.045   0.022   2.693  3.1738 -1.1817  0.5124
  922SOL     OW 2764   2.163   2.383   2.787 -0.1207 -0.2745  0.6764
  922SOL    HW1 2765   2.183   2.278   2.791 -0.0142  1.8431  2.9616
  922SOL    HW2 2766   2.158   2.420   2.688  0.6500  2.9993 -0.5911
  923SOL     OW 2767   1.266   2.697   0.279 -0.2536 -0.3145 -0.0772
  923SOL    HW1 2768   1.348   2.751   0.318  1.9476 -0.9274  1.7312
  923SOL    HW2 2769   1.299   2.605   0.234 -0.0420 -1.6449 -0.9971
  924SOL     OW 2770   2.901   1.679   0.130  0.0337  0.4556 -0.5135
  924SOL    HW1 2771   2.818   1.630   0.084 -0.8563  2.3702 -0.9167
  924SOL    HW2 2772   2.988   1.622   0.137  1.9582  1.0147 -0.7211
  925SOL     OW 2773   0.037   2.858   1.497  0.1453 -0.5645 -0.5569
  925SOL    HW1 2774   0.027   2.786   1.573 -2.4853 -1.4101 -0.6718
  925SOL    HW2 2775  -0.019   2.835   1.415 -2.6987  0.0407 -0.0779
  926SOL     OW 2776   1.308   2.840   1.326 -0.0006  0.0984 -0.0905
  926SOL    HW1 2777   1.360   2.838   1.238  0.3577 -0.0813  3.6989
  926SOL    HW2 2778   1.324   2.930   1.377  2.3810  1.1418 -4.7791
  927SOL     OW 2779   0.345   2.653   1.743  0.3285  0.1689  0.2072
  927SOL    HW1 2780   0.297   2.588   1.674  0.3998 -1.9099 -0.3886
  927SOL    HW2 2781   0.328   2.757   1.717  3.0270  1.9994 -2.2863
  928SOL     OW 2782   1.604   2.084   2.233  0.5365  0.2064 -0.2108
  928SOL    HW1 2783   1.649   2.153   2.174  1.0295 -0.3202 -1.9570
  928SOL    HW2 2784   1.501   2.068   2.219 -0.3248  1.9368  0.7352
  929SOL     OW 2785   2.423   2.491   2.876  0.0505  0.2743  0.0486
  929SOL    HW1 2786   2.324   2.482   2.848  1.4273  1.0177  0.2521
  929SOL    HW2 2787   2.479   2.501   2.789  0.4497 -1.5449 -2.0285
  930SOL     OW 2788   2.144   1.955   1.095  0.0366  0.2585 -0.0607
  930SOL    HW1 2789   2.132   1.894   1.181 -0.9088  0.6122  0.6197
  930SOL    HW2 2790   2.196   2.042   1.122 -1.0306 -3.0369  0.4295
  931SOL     OW 2791   0.528   1.759   2.624  0.0984  0.3088  0.0886
  931SOL    HW1 2792   0.518   1.779   2.727  0.0774  2.5311 -0.1910
  931SOL    HW2 2793   0.602   1.691   2.595 -0.1973  2.8577 -0.6209
  932SOL     OW 2794   0.356   0.081   3.093  0.7505 -0.2730 -0.5379
  932SOL    HW1 2795   0.450   0.124   3.113  2.2128  1.4184  2.2137
  932SOL    HW2 2796   0.375  -0.013   3.056  1.9934  0.0767 -1.7672
  933SOL     OW 2797   0.925   0.843   2.995 -0.7017  0.2677  0.1349
  933SOL    HW1 2798   0.972   0.814   3.080  0.9100  0.4723 -0.2928
  933SOL    HW2 2799   0.883   0.939   2.996  0.7778 -0.9378 -0.4667
  934SOL     OW 2800   0.747   2.973   2.689  0.0466  0.3736 -0.9174
  934SOL    HW1 2801   0.730   2.907   2.606  1.4465 -0.6718  0.8674
  934SOL    HW2 2802   0.828   2.934   2.744 -0.3150  0.7268  3.7098
  935SOL     OW 2803   0.028   0.533   0.837 -0.7614 -0.2805  0.0304
  935SOL    HW1 2804   0.033   0.486   0.746  1.9144 -0.2251  1.4345
  935SOL    HW2 2805  -0.063   0.588   0.842 -2.4397  1.9839 -2.0102
  936SOL     OW 2806   1.083   2.830   0.086  0.1382 -0.0579 -0.3609
  936SOL    HW1 2807   1.126   2.871  -0.003  2.8030 -0.9017  1.1830
  936SOL    HW2 2808   1.157   2.794   0.146 -1.0324  1.7126  0.0356
  937SOL     OW 2809   1.890   2.665   2.096 -0.0008 -0.0089  0.3508
  937SOL    HW1 2810   1.790   2.670   2.119  0.1771  3.2856  0.0454
  937SOL    HW2 2811   1.912   2.734   2.021  2.1175  1.5911  2.2428
  938SOL     OW 2812   2.796   2.086   1.586 -0.3772 -0.3463  0.3838
  938SOL    HW1 2813   2.767   2.183   1.606  1.5071  1.7516 -2.2388
  938SOL    HW2 2814   2.871   2.051   1.645 -1.8761  0.7142  2.3090
  939SOL     OW 2815   2.787   1.219   2.437  0.0194 -0.6883 -0.4162
  939SOL    HW1 2816   2.858   1.181   2.370 -0.7883 -0.9119  1.2852
  939SOL    HW2 2817   2.773   1.160   2.525  0.7904 -1.0672 -0.1048
  940SOL     OW 2818   1.058   0.468   2.768  0.5216 -0.4792 -0.0723
  940SOL    HW1 2819   1.140   0.404   2.762  0.9898 -0.1597 -0.1096
  940SOL    HW2 2820   1.009   0.459   2.676  0.9052  1.8732  1.4915
  941SOL     OW 2821   0.027   2.770   2.290 -0.1635  0.1929  0.0801
  941SOL    HW1 2822   0.113   2.713   2.265 -1.3597  3.1495 -0.5128
  941SOL    HW2 2823   0.051   2.859   2.333  0.1337 -0.0521 -0.8955
  942SOL     OW 2824   0.112   0.086   2.566  0.5707  0.0241  0.2426
  942SOL    HW1 2825   0.182   0.087   2.641 -0.7351 -1.6736  0.1750
  942SOL    HW2 2826   0.115   0.177   2.518  2.1430 -0.5723 -0.0574
  943SOL     OW 2827   2.091   1.670   2.355 -0.1047 -0.5278  0.5778
  943SOL    HW1 2828   2.075   1.613   2.272  0.5578 -1.7284  0.7750
  943SOL    HW2 2829   2.082   1.610   2.435  0.1068 -0.5773 -0.9598
  944SOL     OW 2830   2.175   2.389   1.465  0.7767 -0.2016 -0.2692
  944SOL    HW1 2831   2.270   2.408   1.511 -0.6944  1.9055  0.9842
  944SOL    HW2 2832   2.141   2.299   1.512  0.3330 -1.1377  1.9539
  945SOL     OW 2833   0.690   1.576   0.090 -0.6618  0.1226  0.3707
  945SOL    HW1 2834   0.638   1.550   0.006  1.1161 -3.2513 -0.2201
  945SOL    HW2 2835   0.681   1.507   0.170 -0.1755  2.3317  0.8944
  946SOL     OW 2836   0.403   0.955   2.526 -0.2381 -0.5251  0.1138
  946SOL    HW1 2837   0.321   0.921   2.473 -2.4335 -1.7766  1.7187
  946SOL    HW2 2838   0.403   1.058   2.544 -1.8420  1.1089  1.6599
  947SOL     OW 2839   1.487   0.498   3.082  0.4446 -0.0625 -0.2534
  947SOL    HW1 2840   1.485   0.573   3.011  0.7568 -0.2731  1.8062
  947SOL    HW2 2841   1.398   0.460   3.108  3.9056  1.0122 -0.4944
  948SOL     OW 2842   1.865   3.006   2.181 -0.0452  0.3047 -0.1009
  948SOL    HW1 2843   1.899   2.969   2.085 -2.7887  0.0610 -1.2160
  948SOL    HW2 2844   1.858   2.931   2.252 -0.1027 -2.2241 -1.0964
  949SOL     OW 2845   0.619   2.478   0.487  0.5761  0.8787  0.2758
  949SOL    HW1 2846   0.633   2.572   0.451  2.3699 -1.3922  2.4443
  949SOL    HW2 2847   0.634   2.459   0.588 -0.7082  1.3517  1.1587
  950SOL     OW 2848   0.177   2.258   2.998  0.1309  0.2128  0.4153
  950SOL    HW1 2849   0.139   2.356   2.980  0.7497 -1.1684 -0.5133
  950SOL    HW2 2850   0.182   2.200   2.910  1.7908  0.3087  0.8707
  951SOL     OW 2851   1.169   2.625   2.780 -0.0252 -0.5747  0.1482
  951SOL    HW1 2852   1.228   2.589   2.856 -1.8896  0.7221  0.4081
  951SOL    HW2 2853   1.226   2.644   2.692  0.5501  1.4378  0.6913
  952SOL     OW 2854   0.033   1.649   0.417 -0.1547  0.1356  0.0016
  952SOL    HW1 2855   0.067   1.743   0.412 -2.2935 -4.4782 -0.5152
  952SOL    HW2 2856   0.058   1.592   0.501 -0.4016  0.7026  1.9856
  953SOL     OW 2857   2.562   1.746   0.208  0.0685 -0.6692 -0.9046
  953SOL    HW1 2858   2.547   1.647   0.209  0.2243  0.7526 -2.1267
  953SOL    HW2 2859   2.489   1.795   0.149  1.4310  2.6454  0.2100
  954SOL     OW 2860   2.192   0.601   0.954  0.4571 -0.0668  0.9466
  954SOL    HW1 2861   2.187   0.592   0.847  3.1246  1.8246 -2.1264
  954SOL    HW2 2862   2.292   0.602   0.988  1.5935  1.0309 -0.7020
  955SOL     OW 2863   0.120   2.562   1.398  0.3961 -0.0638  0.7653
  955SOL    HW1 2864   0.060   2.606   1.324 -0.1429  1.6668 -0.7883
  955SOL    HW2 2865   0.209   2.616   1.425  0.7450 -1.6089  2.2402
  956SOL     OW 2866   2.794   2.461   2.509 -0.0399 -0.0073 -0.5688
  956SOL    HW1 2867   2.789   2.355   2.506  0.3892 -1.9133  1.0209
  956SOL    HW2 2868   2.848   2.501   2.426  2.0217 -3.4004 -0.7242
  957SOL     OW 2869   1.564   2.095   2.774  0.1856 -0.0059  1.0436
  957SOL    HW1 2870   1.512   2.008   2.800  0.2120  0.4725  1.3393
  957SOL    HW2 2871   1.615   2.088   2.687 -1.4389  2.8720 -0.8884
  958SOL     OW 2872   2.590   2.297   2.970  0.1312 -0.2884  0.4955
  958SOL    HW1 2873   2.493   2.338   2.959 -2.3909 -0.9226  1.1282
  958SOL    HW2 2874   2.610   2.276   3.068 -0.8608 -0.4921  0.7357
  959SOL     OW 2875   0.310   2.796   0.076  0.1159 -0.6236 -0.5484
  959SOL    HW1 2876   0.247   2.847   0.144 -0.5980  0.5650  2.0497
  959SOL    HW2 2877   0.342   2.707   0.115  1.9114  2.3448  0.7071
  960SOL     OW 2878   2.008   0.446   1.932  0.5301  0.0039 -0.3314
  960SOL    HW1 2879   1.957   0.533   1.908  0.9051  1.1357  1.5336
  960SOL    HW2 2880   2.007   0.429   2.035  1.9446  0.3859 -1.8774
  961SOL     OW 2881   2.577   1.919   1.055 -0.1666  0.1513  0.1796
  961SOL    HW1 2882   2.564   2.012   1.014 -1.3792  0.0359 -0.4748
  961SOL    HW2 2883   2.529   1.914   1.146  0.7418  1.6808 -0.6052
  962SOL     OW 2884   1.316   0.906   0.083 -0.7295  0.0892 -0.2967
  962SOL    HW1 2885   1.295   0.937  -0.011  0.7143 -1.0408  1.6931
  962SOL    HW2 2886   1.289   0.977   0.152 -1.0195  2.6983 -0.3176
  963SOL     OW 2887   2.304   2.536   1.820  0.0261 -0.5773 -0.2804
  963SOL    HW1 2888   2.231   2.469   1.845  0.5266  1.8449 -1.1251
  963SOL    HW2 2889   2.337   2.603   1.896  2.3159  0.6095 -3.4083
  964SOL     OW 2890   2.380   0.362   1.666  0.0986  0.0672  0.6047
  964SOL    HW1 2891   2.473   0.374   1.720  0.6328 -1.4070  1.2952
  964SOL    HW2 2892   2.384   0.381   1.564 -0.3488 -1.9962  1.6296
  965SOL     OW 2893   2.591   2.985   0.166  0.5439  0.3721 -0.8582
  965SOL    HW1 2894   2.662   2.986   0.088  0.1721 -3.1464 -1.3401
  965SOL    HW2 2895   2.498   3.023   0.133  0.2707 -0.8937 -0.0340
  966SOL     OW 2896   2.525   2.536   2.242  0.1649 -0.3888  1.3592
  966SOL    HW1 2897   2.590   2.610   2.274 -0.2203  0.4680  0.8685
  966SOL    HW2 2898   2.447   2.570   2.177 -0.2797  1.0164 -1.0848
  967SOL     OW 2899   2.789   2.809   2.452 -0.0438 -0.4522  0.0883
  967SOL    HW1 2900   2.827   2.717   2.417 -0.4076 -0.4926  0.7675
  967SOL    HW2 2901   2.859   2.870   2.498 -0.5422  1.3914 -1.0645
  968SOL     OW 2902   1.935   1.065   2.615 -0.5074 -0.1017 -0.5102
  968SOL    HW1 2903   1.854   1.118   2.588 -0.0148 -1.2346 -1.4607
  968SOL    HW2 2904   1.937   0.975   2.563 -2.3902  0.9290  0.3685
  969SOL     OW 2905   2.745   2.453   1.110  0.1793 -0.3414  0.6187
  969SOL    HW1 2906   2.714   2.440   1.010  0.1184  1.3552 -0.9830
  969SOL    HW2 2907   2.818   2.386   1.141  0.8382  0.4986 -0.5426
  970SOL     OW 2908   1.094   2.108   1.859  0.2110  0.0674 -0.4229
  970SOL    HW1 2909   1.012   2.067   1.806 -1.6158 -0.3353 -0.9929
  970SOL    HW2 2910   1.073   2.143   1.955  1.0250 -1.1032 -0.4352
  971SOL     OW 2911   2.895   2.051   2.038 -0.0918 -0.2556  0.5704
  971SOL    HW1 2912   2.877   2.151   2.074 -0.6722 -0.3734 -0.2081
  971SOL    HW2 2913   2.950   2.047   1.945  0.8402 -1.0176  1.1025
  972SOL     OW 2914   1.974   2.494   0.234 -0.3719 -0.0401 -0.2616
  972SOL    HW1 2915   1.965   2.400   0.188  0.6253  2.7128 -2.0533
  972SOL    HW2 2916   1.991   2.479   0.332  3.1625 -0.8078 -1.9731
  973SOL     OW 2917   1.241   0.945   1.865 -0.2579  0.8207  0.3313
  973SOL    HW1 2918   1.197   0.852   1.885 -0.0687  1.0357 -1.1863
  973SOL    HW2 2919   1.170   1.017   1.859  2.5248  0.5188 -0.3279
  974SOL     OW 2920   1.580   0.592   1.904 -0.8976 -0.0550 -0.1853
  974SOL    HW1 2921   1.677   0.609   1.877  0.7670  0.0735 -0.7976
  974SOL    HW2 2922   1.530   0.683   1.913 -3.0375  2.8505 -0.9919
  975SOL     OW 2923   2.350   3.057   0.028  0.1264 -0.0451  0.5145
  975SOL    HW1 2924   2.314   2.961   0.010  0.3469  1.7851 -2.1266
  975SOL    HW2 2925   2.340   3.118  -0.055  1.8329 -0.5548 -0.4029
  976SOL     OW 2926   1.863   2.832   2.372 -0.1994 -0.7139  0.4972
  976SOL    HW1 2927   1.809   2.747   2.351  0.2672 -3.2658 -1.1096
  976SOL    HW2 2928   1.904   2.833   2.469  0.6366  0.2357  1.2560
  977SOL     OW 2929   0.536   0.596   0.975  0.4804  0.1197  0.6552
  977SOL    HW1 2930   0.440   0.608   0.931 -5.0885 -1.1076 -2.6843
  977SOL    HW2 2931   0.602   0.663   0.935  1.4622  0.0961 -2.0334
   3.10000   3.10000   3.10000
