1000 SPC/Fw water molecules t=   0.19000 step= 190
 2931
    1SOL     OW    1   2.536   0.332   2.549  0.6663 -0.2317 -0.4623
    1SOL    HW1    2   2.522   0.229   2.545 -3.7176 -0.4988 -1.0549
    1SOL    HW2    3   2.560   0.365   2.649 -2.6735  1.9703  2.1778
    2SOL     OW    4   2.715   3.020   1.416 -0.0996  0.1698 -0.2044
    2SOL    HW1    5   2.800   3.071   1.375  2.4586 -0.1234  1.8441
    2SOL    HW2    6   2.649   3.090   1.455  2.4431  1.2744 -4.0108
    3SOL     OW    7   2.743   2.585   0.400  0.4040  0.5963 -0.6308
    3SOL    HW1    8   2.709   2.488   0.389  1.0399 -0.3193  1.3944
    3SOL    HW2    9   2.804   2.593   0.482 -2.7493 -1.1560  2.4762
    4SOL     OW   10   1.339   1.466   2.345  0.2653  0.2617  0.8951
    4SOL    HW1   11   1.259   1.519   2.381  0.5488  0.4867  0.2786
    4SOL    HW2   12   1.340   1.370   2.379 -0.6686 -1.1491 -1.4822
    5SOL     OW   13   1.189   1.496   3.066  0.1640  0.0694 -0.0225
    5SOL    HW1   14   1.265   1.561   3.081  1.3022 -0.0366 -0.4681
    5SOL    HW2   15   1.096   1.541   3.075 -0.1833  0.4199 -2.5307
    6SOL     OW   16   0.098   1.859   2.940 -0.6513 -0.4930  0.2098
    6SOL    HW1   17   0.094   1.890   3.035 -1.1301 -2.6193 -2.6341
    6SOL    HW2   18   0.050   1.770   2.933 -1.0683  0.6613  1.2775
    7SOL     OW   19   2.600   0.805   1.157 -0.0258 -0.5177 -0.3914
    7SOL    HW1   20   2.507   0.790   1.206 -0.3233  3.0773 -0.7951
    7SOL    HW2   21   2.580   0.802   1.057 -0.3830  0.3440  3.1590
    8SOL     OW   22   0.458   0.676   1.534 -0.1528 -0.1968 -0.1357
    8SOL    HW1   23   0.530   0.610   1.554  0.0231  0.0418  0.2924
    8SOL    HW2   24   0.419   0.653   1.441 -0.4128 -0.4401  0.5305
    9SOL     OW   25   1.184   0.931   2.272 -0.2914  0.6946  0.1375
    9SOL    HW1   26   1.239   0.999   2.211 -0.7519 -1.0292  0.1368
    9SOL    HW2   27   1.120   0.882   2.213  2.2986 -2.4160 -1.5521
   10SOL     OW   28   0.644   1.346   1.257  0.5438  0.1128 -0.1367
   10SOL    HW1   29   0.552   1.363   1.211 -0.3571  1.3728 -0.5064
   10SOL    HW2   30   0.710   1.421   1.251 -2.3523 -3.0797 -0.0563
   11SOL     OW   31   2.316   2.581   0.936  0.4869  0.3396  0.1358
   11SOL    HW1   32   2.344   2.623   1.028  0.1452 -2.1351 -0.9982
   11SOL    HW2   33   2.355   2.486   0.932  2.0177 -2.0468  0.8826
   12SOL     OW   34   1.469   0.907   0.482  0.2771 -0.0393 -0.0655
   12SOL    HW1   35   1.375   0.938   0.452  0.6689 -0.2376 -1.0182
   12SOL    HW2   36   1.478   0.803   0.468  1.4284 -0.5436  1.4135
   13SOL     OW   37   2.477   0.650   1.807  0.2523 -0.2978  0.2528
   13SOL    HW1   38   2.385   0.667   1.852 -0.4324 -1.8782  1.1007
   13SOL    HW2   39   2.465   0.592   1.722  0.8250  0.4594  0.0655
   14SOL     OW   40   1.867   3.074   0.575  0.3332 -0.0129  0.7694
   14SOL    HW1   41   1.780   3.126   0.565  2.3762 -0.1448 -0.3084
   14SOL    HW2   42   1.871   3.027   0.666  0.8014  0.0246  0.3837
   15SOL     OW   43   1.956   2.046   2.846 -0.1687 -0.6446  0.4323
   15SOL    HW1   44   1.892   2.129   2.862  0.9237  1.3779 -0.9127
   15SOL    HW2   45   1.920   1.985   2.769  0.1293 -1.7145  2.9641
   16SOL     OW   46   1.587   1.712   0.065  0.5934 -0.0241 -0.2303
   16SOL    HW1   47   1.587   1.619   0.019  0.8795  0.0361 -2.5023
   16SOL    HW2   48   1.616   1.705   0.164 -2.6001 -1.7555  0.5959
   17SOL     OW   49   0.134   0.423   0.169 -0.2194  0.5016 -0.3209
   17SOL    HW1   50   0.186   0.451   0.084  2.0358 -0.3504  0.8532
   17SOL    HW2   51   0.036   0.402   0.143  0.3510  0.3054  1.7487
   18SOL     OW   52   1.108   2.870   2.145 -0.2641  0.4997  0.1718
   18SOL    HW1   53   1.028   2.905   2.095 -0.2734 -3.9873  2.0126
   18SOL    HW2   54   1.180   2.824   2.077  0.1071 -1.2579  0.3870
   19SOL     OW   55   0.510   1.001   1.930 -0.4806 -0.6021 -0.1107
   19SOL    HW1   56   0.475   1.028   2.025  0.6569 -0.5219  2.5500
   19SOL    HW2   57   0.612   0.978   1.926 -0.0872 -1.1496  0.0684
   20SOL     OW   58   0.254   2.754   0.872 -0.4004 -0.1342  0.4096
   20SOL    HW1   59   0.179   2.821   0.844 -1.8912  1.2607 -0.9199
   20SOL    HW2   60   0.323   2.738   0.800  0.3616  2.0821  0.7339
   21SOL     OW   61   2.791   0.219   2.152 -0.3361 -0.6570 -0.3065
   21SOL    HW1   62   2.859   0.170   2.094  3.1282 -0.5780  0.3263
   21SOL    HW2   63   2.751   0.155   2.223  2.3490 -3.4155  1.2598
   22SOL     OW   64   2.380   0.204   0.016 -0.1030 -0.0531  0.3666
   22SOL    HW1   65   2.400   0.100   0.009 -2.2950 -1.1873 -0.9677
   22SOL    HW2   66   2.272   0.220   0.014  0.6617  0.4977 -0.0528
   23SOL     OW   67   2.782   0.659   0.705  0.1840 -0.2243 -0.2931
   23SOL    HW1   68   2.791   0.574   0.652  0.8472  1.7626 -1.5435
   23SOL    HW2   69   2.787   0.746   0.646 -2.0608 -2.0986 -1.3461
   24SOL     OW   70   0.175   1.892   0.479  0.1760 -0.1482  0.1413
   24SOL    HW1   71   0.077   1.910   0.450 -0.0652  0.4198  1.6424
   24SOL    HW2   72   0.256   1.909   0.417  0.4990 -0.8771  1.9375
   25SOL     OW   73   2.252   0.522   0.190 -0.1527  0.2707 -0.2860
   25SOL    HW1   74   2.318   0.464   0.239 -1.4464 -2.5011  2.4280
   25SOL    HW2   75   2.262   0.509   0.093  4.1278 -1.2277  1.8574
   26SOL     OW   76   2.543   2.185   2.086 -0.5897  0.1653  0.1951
   26SOL    HW1   77   2.623   2.224   2.140  0.5358 -1.1282 -0.2224
   26SOL    HW2   78   2.579   2.118   2.011  0.6054 -3.3780  0.9963
   27SOL     OW   79   0.678   2.981   0.104 -0.0594  0.1634  0.3697
   27SOL    HW1   80   0.771   3.030   0.106 -0.4765  1.2669 -0.2109
   27SOL    HW2   81   0.638   2.964   0.008  2.8514 -0.2324 -0.0101
   28SOL     OW   82   1.499   0.228   0.213  0.3402  0.1314  0.5261
   28SOL    HW1   83   1.555   0.181   0.144 -0.1169 -1.5154  3.1386
   28SOL    HW2   84   1.557   0.291   0.276  0.1172 -3.2011  1.6046
   29SOL     OW   85   2.009   0.623   0.238  0.3080  0.6091 -0.3166
   29SOL    HW1   86   2.016   0.716   0.286 -0.3969  1.1376  0.8516
   29SOL    HW2   87   2.103   0.588   0.205 -0.7148  0.4823  0.9085
   30SOL     OW   88   0.190   2.048   0.943 -0.0163  0.6980  0.0706
   30SOL    HW1   89   0.187   2.055   0.843 -2.5108  0.7581 -0.9458
   30SOL    HW2   90   0.104   2.090   0.982 -3.2028 -1.7895 -0.4139
   31SOL     OW   91   2.027   0.048   2.322  0.2825  0.0838 -0.2905
   31SOL    HW1   92   2.062   0.031   2.416 -2.1822 -0.4242 -0.2081
   31SOL    HW2   93   1.966  -0.024   2.282  0.0497  0.6959  0.3696
   32SOL     OW   94   2.962   0.107   0.200 -0.6143  0.2339 -0.8777
   32SOL    HW1   95   2.919   0.030   0.257 -1.1625 -1.3132 -0.3192
   32SOL    HW2   96   3.063   0.116   0.212  1.2079  2.2855 -1.9544
   33SOL     OW   97   0.976   0.319   0.424  0.1109 -0.2215  0.3017
   33SOL    HW1   98   0.911   0.234   0.412 -3.1213  0.3323 -2.4139
   33SOL    HW2   99   1.051   0.313   0.490 -1.0839 -0.0398 -3.3243
   34SOL     OW  100   0.411   2.920   1.063  0.2398 -0.2020 -0.1385
   34SOL    HW1  101   0.365   2.861   0.994 -1.6141  0.9245  0.6837
   34SOL    HW2  102   0.512   2.916   1.056 -1.7660  2.7699 -1.4735
   35SOL     OW  103   0.072   0.004   1.805  0.3618  0.3133  0.4657
   35SOL    HW1  104   0.097  -0.101   1.796  0.3283  0.8144 -1.4454
   35SOL    HW2  105  -0.008   0.032   1.739 -1.5996  0.2327 -0.3956
   36SOL     OW  106   1.903   1.167   1.831  0.3613  0.2210 -0.1980
   36SOL    HW1  107   1.980   1.126   1.767  0.1753 -1.2566  1.1404
   36SOL    HW2  108   1.924   1.266   1.857 -0.6578 -0.2874  3.1991
   37SOL     OW  109   1.130   0.314   0.979 -0.1291 -0.1614 -0.4130
   37SOL    HW1  110   1.166   0.395   1.029 -1.4802 -0.7991 -0.1087
   37SOL    HW2  111   1.153   0.228   1.030  0.6844 -2.2657 -0.1028
   38SOL     OW  112   1.140   2.690   2.404 -0.0048  0.2225  0.3599
   38SOL    HW1  113   1.069   2.616   2.433 -0.5055  0.1571 -0.1644
   38SOL    HW2  114   1.093   2.762   2.354 -0.5339 -1.0919 -0.5484
   39SOL     OW  115   2.353   1.454   3.050 -0.0984 -0.4837 -0.2998
   39SOL    HW1  116   2.430   1.385   3.035  2.5459  0.0314 -0.6567
   39SOL    HW2  117   2.292   1.424   3.131 -1.9984 -2.7648  2.9603
   40SOL     OW  118   2.069   2.527   2.544 -0.3598 -0.3263 -0.1701
   40SOL    HW1  119   2.025   2.621   2.570 -1.5802  2.8810 -1.7625
   40SOL    HW2  120   1.997   2.463   2.496  0.4354 -4.0152 -1.1511
   41SOL     OW  121   2.915   0.673   2.762  0.4684  0.2760  0.0852
   41SOL    HW1  122   2.840   0.732   2.728 -1.5858  0.4054  1.5752
   41SOL    HW2  123   2.913   0.575   2.733  1.1390  0.1058 -0.8971
   42SOL     OW  124   1.769   1.750   0.586  0.5607 -0.0247  0.2147
   42SOL    HW1  125   1.749   1.651   0.570  2.3024 -1.8398 -0.3963
   42SOL    HW2  126   1.800   1.797   0.498  3.3220  0.8023  1.7021
   43SOL     OW  127   0.443   1.742   1.195  0.0925  0.2225 -0.6090
   43SOL    HW1  128   0.423   1.673   1.271 -1.4890  1.2998  0.4904
   43SOL    HW2  129   0.361   1.773   1.140  2.1018  1.6860  1.3603
   44SOL     OW  130   1.718   2.517   0.016  0.3093 -0.1562  0.2886
   44SOL    HW1  131   1.784   2.545  -0.059 -1.5530  0.5093 -0.1316
   44SOL    HW2  132   1.779   2.494   0.098 -1.3608  1.4379  0.9239
   45SOL     OW  133   0.367   1.913   2.493 -0.5783  0.2815  0.0684
   45SOL    HW1  134   0.270   1.916   2.453 -0.2417  1.0738  2.9219
   45SOL    HW2  135   0.402   1.813   2.514 -0.4687 -0.5937 -0.1881
   46SOL     OW  136   1.150   0.645   0.172  0.0116 -0.1457 -0.3126
   46SOL    HW1  137   1.210   0.730   0.157 -1.4661 -1.4932 -1.3639
   46SOL    HW2  138   1.050   0.673   0.182  0.7974 -2.1550  3.1807
   47SOL     OW  139   0.242   2.467   1.624  0.1216  0.4569  0.2963
   47SOL    HW1  140   0.301   2.389   1.606 -3.2136  0.4854  2.4123
   47SOL    HW2  141   0.205   2.510   1.531 -2.3388 -1.1979 -1.8778
   48SOL     OW  142   2.595   0.556   0.131 -0.4404 -0.4193  0.1465
   48SOL    HW1  143   2.562   0.592   0.227  1.5846  0.5510  2.0858
   48SOL    HW2  144   2.675   0.616   0.105 -4.5484 -0.5249  2.4574
   49SOL     OW  145   0.345   0.854   1.752 -0.5786  0.3549 -0.3925
   49SOL    HW1  146   0.423   0.894   1.810 -0.8974  1.8013  0.6791
   49SOL    HW2  147   0.379   0.774   1.692  0.3242  2.0638 -1.2666
   50SOL     OW  148   1.752   1.065   0.355 -0.0461  0.5187  0.3462
   50SOL    HW1  149   1.736   0.964   0.324 -2.3967 -3.6481 -0.4623
   50SOL    HW2  150   1.723   1.085   0.451 -2.0916  0.4311  0.2438
   51SOL     OW  151   3.003   1.903   0.390 -0.1235  0.1941  0.2530
   51SOL    HW1  152   3.031   1.947   0.300  0.5567  0.6635  1.4445
   51SOL    HW2  153   2.982   1.801   0.379  0.4964  0.8237 -0.3159
   52SOL     OW  154   0.817   1.965   0.490 -0.1538  0.0403  0.8106
   52SOL    HW1  155   0.732   2.024   0.519 -2.1411  0.8345  0.2212
   52SOL    HW2  156   0.843   1.892   0.560 -1.5479  0.6444 -0.0319
   53SOL     OW  157   3.080   0.349   1.509 -0.3585 -0.2098  0.2715
   53SOL    HW1  158   2.982   0.346   1.486  0.8217 -1.2589 -2.1638
   53SOL    HW2  159   3.123   0.446   1.508 -1.0976  2.6757  0.9409
   54SOL     OW  160   1.740   0.484   3.010 -0.3264 -0.0704 -0.1415
   54SOL    HW1  161   1.786   0.462   3.105 -0.4466 -1.0357  1.0917
   54SOL    HW2  162   1.632   0.480   3.018  0.7993 -1.0872  1.2957
   55SOL     OW  163   0.713   2.929   0.632 -0.0780 -0.3107 -0.1509
   55SOL    HW1  164   0.672   3.018   0.653  0.4170  1.7951 -4.1480
   55SOL    HW2  165   0.806   2.937   0.587 -2.2171  0.5975  0.9675
   56SOL     OW  166   0.494   1.544   3.055  0.0759  0.6665 -0.4898
   56SOL    HW1  167   0.436   1.595   3.127  1.1410 -1.0004  0.5896
   56SOL    HW2  168   0.444   1.467   3.016 -1.4204 -0.3561  1.1928
   57SOL     OW  169   1.771   2.376   2.625  0.3116 -0.0131  0.2924
   57SOL    HW1  170   1.819   2.375   2.534 -0.5950  1.5215 -1.1399
   57SOL    HW2  171   1.695   2.444   2.630  0.0764 -1.9667 -2.7854
   58SOL     OW  172   0.600   0.463   1.105  0.1144 -0.6117 -0.1780
   58SOL    HW1  173   0.532   0.535   1.083 -4.6743  0.0419  0.3911
   58SOL    HW2  174   0.544   0.382   1.122 -1.9075 -0.3666 -0.1599
   59SOL     OW  175   0.471   2.415   2.653 -0.3273  0.3400  0.6193
   59SOL    HW1  176   0.475   2.312   2.691  1.4830 -2.5124  0.9200
   59SOL    HW2  177   0.565   2.460   2.644 -0.4818 -0.6647  0.4442
   60SOL     OW  178   2.333   2.194   2.253  0.0807 -0.1970  0.2677
   60SOL    HW1  179   2.426   2.187   2.204  2.2258  0.4034 -0.0488
   60SOL    HW2  180   2.351   2.225   2.353 -2.0054  1.0384  1.1500
   61SOL     OW  181   1.374   0.580   0.430  0.3178 -0.2557  0.2707
   61SOL    HW1  182   1.275   0.617   0.447  0.0073  0.8716 -0.7555
   61SOL    HW2  183   1.396   0.563   0.329 -0.6064  0.3987 -0.5067
   62SOL     OW  184   2.659   1.874   3.097  0.1260 -0.5452 -0.3119
   62SOL    HW1  185   2.696   1.787   3.139  0.9782 -1.1215 -1.7931
   62SOL    HW2  186   2.672   1.891   2.993 -0.1903  1.1362 -0.0996
   63SOL     OW  187   0.521   0.798   0.163  0.0453  0.0070  0.4672
   63SOL    HW1  188   0.509   0.890   0.116 -0.2375 -0.2634 -1.4140
   63SOL    HW2  189   0.616   0.789   0.201  1.4253  0.1875  0.0417
   64SOL     OW  190   0.090   0.513   2.523  0.1877 -0.5594  0.1150
   64SOL    HW1  191   0.065   0.575   2.602 -0.6509 -3.0660  0.3155
   64SOL    HW2  192   0.054   0.556   2.438  1.6815 -1.2305 -1.1145
   65SOL     OW  193   0.183   1.452   0.635  0.1537  0.8519 -0.3357
   65SOL    HW1  194   0.167   1.532   0.699  0.9658  1.1314 -0.7004
   65SOL    HW2  195   0.281   1.443   0.605 -2.2879 -1.0803  1.9345
   66SOL     OW  196   2.476   0.376   0.692 -0.3926  0.4034  0.4567
   66SOL    HW1  197   2.394   0.430   0.683  0.6584  1.5158  2.1328
   66SOL    HW2  198   2.453   0.281   0.732 -0.0003  0.0602 -0.2366
   67SOL     OW  199   0.491   2.537   1.336  0.4186 -0.5347  0.0673
   67SOL    HW1  200   0.589   2.571   1.326 -0.6780  0.1939  0.1861
   67SOL    HW2  201   0.477   2.438   1.320  0.0608  1.9843  1.9290
   68SOL     OW  202   1.012   1.099   2.452  0.1957  0.0051 -0.4720
   68SOL    HW1  203   1.070   1.024   2.409 -0.3890  1.7787  1.9495
   68SOL    HW2  204   0.976   1.169   2.384  0.8848 -1.8216  0.3719
   69SOL     OW  205   0.783   2.700   2.159 -0.3338  0.1780 -0.2981
   69SOL    HW1  206   0.840   2.615   2.193  0.8735 -0.6622  2.1415
   69SOL    HW2  207   0.682   2.687   2.164  2.1564  0.0732  0.3361
   70SOL     OW  208   0.608   0.252   2.714 -0.1075  0.3327 -0.0842
   70SOL    HW1  209   0.551   0.292   2.790  0.5654  2.0096 -0.1277
   70SOL    HW2  210   0.573   0.159   2.677  1.0520 -1.6224  0.8027
   71SOL     OW  211   1.078   1.789   0.377 -0.3682 -0.6854 -0.4439
   71SOL    HW1  212   1.029   1.697   0.383 -0.5286  0.0798 -0.7292
   71SOL    HW2  213   1.089   1.821   0.283 -0.2666  1.8754  1.7147
   72SOL     OW  214   1.802   0.068   2.084  0.4499  0.0624  0.0844
   72SOL    HW1  215   1.862   0.095   2.003  3.8917  1.2619 -1.8473
   72SOL    HW2  216   1.832  -0.022   2.121  0.1569  0.3200 -1.5549
   73SOL     OW  217   2.829   2.219   2.519 -0.0977 -0.0428  0.2004
   73SOL    HW1  218   2.822   2.121   2.492 -1.5353  2.1725 -0.1303
   73SOL    HW2  219   2.856   2.230   2.623 -1.6468  1.8175 -0.6698
   74SOL     OW  220   2.734   3.018   2.049  0.9716 -0.0124 -0.2722
   74SOL    HW1  221   2.664   2.985   2.124 -0.4824  0.9142 -0.1984
   74SOL    HW2  222   2.830   3.012   2.090 -0.2628 -0.6699 -0.3704
   75SOL     OW  223   0.914   0.750   0.993  0.0961  0.2966  0.4307
   75SOL    HW1  224   0.819   0.787   0.969 -1.3984  2.4465 -0.7550
   75SOL    HW2  225   0.949   0.793   1.076  0.3578 -0.8652 -1.6039
   76SOL     OW  226   1.755   1.223   2.558 -0.1265  0.5720 -0.2039
   76SOL    HW1  227   1.651   1.221   2.548 -3.3710 -1.2574  2.0331
   76SOL    HW2  228   1.784   1.297   2.622 -0.1273 -1.4755  0.6750
   77SOL     OW  229   2.991   0.977   0.974  0.0305 -0.1187  0.3212
   77SOL    HW1  230   2.969   0.877   0.970 -1.1021  0.4760 -0.8846
   77SOL    HW2  231   3.071   0.999   1.038 -0.2856  1.5486 -0.2694
   78SOL     OW  232   1.972   1.397   1.478  0.1364  0.1000  0.0247
   78SOL    HW1  233   2.043   1.404   1.401 -2.7859 -0.8419 -0.4930
   78SOL    HW2  234   1.881   1.368   1.437  0.3824  0.5994  0.7599
   79SOL     OW  235   0.623   1.326   0.857 -0.7377 -0.3460 -0.2308
   79SOL    HW1  236   0.530   1.372   0.862 -1.9467 -0.1265  1.2902
   79SOL    HW2  237   0.627   1.257   0.786 -1.1320  2.0372 -1.3904
   80SOL     OW  238   0.652   0.488   1.605  0.3483 -0.0258  0.2210
   80SOL    HW1  239   0.729   0.543   1.569  0.6194 -0.5886  0.2902
   80SOL    HW2  240   0.658   0.389   1.569 -1.8968 -0.9052 -0.3233
   81SOL     OW  241   1.076   1.397   2.626 -0.4403 -0.3790  0.4883
   81SOL    HW1  242   1.046   1.380   2.721  0.0851 -0.8329  0.7889
   81SOL    HW2  243   1.000   1.403   2.550 -0.5635  0.3127 -2.0620
   82SOL     OW  244   0.899   3.011   1.517 -0.1197 -0.6703  0.2306
   82SOL    HW1  245   0.982   3.034   1.457  0.3449  0.9603 -3.5147
   82SOL    HW2  246   0.837   2.937   1.473 -1.3957 -2.9132 -0.0751
   83SOL     OW  247   2.761   2.435   0.799 -0.3058  0.4342 -0.0355
   83SOL    HW1  248   2.670   2.386   0.769 -1.5077 -0.6255 -1.1817
   83SOL    HW2  249   2.795   2.514   0.743  2.7773 -1.9970 -0.9139
   84SOL     OW  250   0.678   0.011   2.409  0.4692 -0.1007 -0.2246
   84SOL    HW1  251   0.642  -0.083   2.420  0.3335  2.1452 -2.4735
   84SOL    HW2  252   0.781   0.015   2.421  1.6367 -0.9795  1.2699
   85SOL     OW  253   0.407   1.646   1.478 -0.4686 -0.0530  0.0685
   85SOL    HW1  254   0.342   1.729   1.472  0.3381 -1.0917  1.4421
   85SOL    HW2  255   0.409   1.599   1.569  0.2770  1.0088 -2.6668
   86SOL     OW  256   0.351   1.020   1.480 -0.2149 -0.5306 -0.0894
   86SOL    HW1  257   0.319   0.968   1.396  0.7680 -1.6352  0.4029
   86SOL    HW2  258   0.424   0.963   1.527 -0.7152  0.0285  1.8772
   87SOL     OW  259   1.589   0.587   0.206  0.1101  0.6155 -0.3454
   87SOL    HW1  260   1.633   0.680   0.192  0.8306  0.1299  0.7725
   87SOL    HW2  261   1.559   0.536   0.122  0.9784 -0.2890  0.8203
   88SOL     OW  262   1.585   1.249   0.188  0.0342 -0.4103  0.3034
   88SOL    HW1  263   1.628   1.184   0.256 -1.7068 -1.4838 -0.3203
   88SOL    HW2  264   1.483   1.248   0.181 -0.7794  1.0856 -0.5760
   89SOL     OW  265   3.007   0.460   0.572  0.2006  0.1794 -0.0056
   89SOL    HW1  266   3.066   0.373   0.575 -1.4698  0.8729 -2.2338
   89SOL    HW2  267   2.912   0.432   0.560  3.7393 -0.8224  2.8724
   90SOL     OW  268   0.956   1.656   3.069  0.3736  0.0673  0.2003
   90SOL    HW1  269   0.877   1.651   3.136  0.1103 -0.2967 -0.8635
   90SOL    HW2  270   0.923   1.639   2.971 -2.0809 -0.2299  0.0065
   91SOL     OW  271   1.280   1.432   1.780  0.0869  0.2366 -0.0312
   91SOL    HW1  272   1.294   1.532   1.815 -1.5978  1.1184  0.4623
   91SOL    HW2  273   1.362   1.393   1.729 -0.7603 -0.2565 -1.0958
   92SOL     OW  274   0.087   1.055   1.175  0.4385 -0.2038  0.1017
   92SOL    HW1  275   0.186   1.067   1.139 -1.2119 -0.3678 -1.7248
   92SOL    HW2  276   0.085   1.023   1.274  0.8418 -1.3885 -3.0565
   93SOL     OW  277   0.058   2.839   0.032 -0.4312  0.3892  0.3651
   93SOL    HW1  278  -0.021   2.831  -0.036 -1.4998  0.1270 -1.3992
   93SOL    HW2  279   0.074   2.747   0.081 -1.0082 -0.6066  4.1581
   94SOL     OW  280   1.501   1.328   1.682  0.3579  0.4648  0.4638
   94SOL    HW1  281   1.501   1.223   1.686  0.2457  0.1811 -1.9289
   94SOL    HW2  282   1.587   1.380   1.718  1.9219  1.8585  1.3482
   95SOL     OW  283   1.372   2.481   2.909 -0.7216 -0.4082  0.7149
   95SOL    HW1  284   1.326   2.467   3.007 -1.0750  0.9438  1.6102
   95SOL    HW2  285   1.418   2.391   2.876  0.1075 -0.6980  0.7472
   96SOL     OW  286   0.514   2.024   1.230  0.0259 -0.4427  0.2010
   96SOL    HW1  287   0.520   2.061   1.130 -1.3884  0.7880 -0.7258
   96SOL    HW2  288   0.494   1.921   1.242  0.7748 -1.0667 -0.2718
   97SOL     OW  289   0.309   1.453   2.480  0.0386 -0.4325  0.0436
   97SOL    HW1  290   0.228   1.407   2.529  1.9452  3.2388  1.5144
   97SOL    HW2  291   0.353   1.528   2.538 -0.0621 -1.6287  0.8560
   98SOL     OW  292   2.055   1.704   1.298 -0.5728  0.3007  0.7770
   98SOL    HW1  293   2.011   1.650   1.220 -1.1793 -0.8087 -2.3131
   98SOL    HW2  294   2.095   1.649   1.373 -2.7053  0.5795 -1.0902
   99SOL     OW  295   2.468   2.155   1.321 -0.3742 -0.6681 -0.0805
   99SOL    HW1  296   2.464   2.180   1.422  3.7564  0.5675  0.3350
   99SOL    HW2  297   2.451   2.055   1.302 -0.1481  0.6648 -0.8787
  100SOL     OW  298   2.290   0.401   2.032 -0.4438 -0.4127 -0.2003
  100SOL    HW1  299   2.249   0.386   2.128  2.1567 -3.5648 -2.2610
  100SOL    HW2  300   2.393   0.400   2.033 -1.1787  1.8690  0.9909
  101SOL     OW  301   0.421   1.435   0.282 -0.3288  0.3493 -0.0182
  101SOL    HW1  302   0.458   1.502   0.352  0.3193 -0.9579 -0.6883
  101SOL    HW2  303   0.475   1.440   0.195  0.9562 -0.1226 -0.2932
  102SOL     OW  304   2.275   1.069   0.805  0.3961 -0.3255 -0.5060
  102SOL    HW1  305   2.212   0.990   0.771 -0.9344  0.5043  0.7755
  102SOL    HW2  306   2.314   1.127   0.732 -2.6838 -0.0752  0.4206
  103SOL     OW  307   2.294   0.083   0.406  0.7122  0.4283  0.3761
  103SOL    HW1  308   2.353   0.159   0.364 -0.6950  0.0327 -1.0399
  103SOL    HW2  309   2.341   0.013   0.470 -0.7345 -0.4661 -1.7875
  104SOL     OW  310   0.072   1.877   2.153  0.2907 -0.0937 -0.6433
  104SOL    HW1  311   0.112   1.860   2.057  0.3470  1.9653  0.0714
  104SOL    HW2  312  -0.027   1.902   2.138  0.9532 -1.0103 -0.0460
  105SOL     OW  313   1.114   1.971   0.844  0.0274  0.0017  0.0635
  105SOL    HW1  314   1.077   2.042   0.778  2.1693 -0.5109 -1.0115
  105SOL    HW2  315   1.159   1.893   0.795 -2.8951 -1.0741  1.3061
  106SOL     OW  316   2.049   0.459   1.342  0.1457 -0.3625 -0.4225
  106SOL    HW1  317   2.048   0.374   1.401 -1.4411 -0.0762  0.1047
  106SOL    HW2  318   1.996   0.541   1.379 -1.0944 -0.4004  0.2851
  107SOL     OW  319   1.809   3.022   1.101  0.3909 -0.1130 -0.0509
  107SOL    HW1  320   1.843   3.100   1.160 -0.7070  0.7028 -1.4138
  107SOL    HW2  321   1.797   2.933   1.150  0.0685 -1.2600 -0.8593
  108SOL     OW  322   0.751   2.643   1.307 -0.0327  0.2586  0.1726
  108SOL    HW1  323   0.722   2.699   1.395  1.0075 -1.5826  1.9091
  108SOL    HW2  324   0.843   2.596   1.315 -1.3948 -0.2222 -2.1073
  109SOL     OW  325   2.096   0.099   0.699  0.1646 -0.5634  0.4843
  109SOL    HW1  326   2.034   0.059   0.628 -0.4643  3.2129 -1.4807
  109SOL    HW2  327   2.060   0.088   0.796  0.0963  0.8190 -0.6629
  110SOL     OW  328   0.494   2.763   2.741 -0.1128  0.7327 -0.5052
  110SOL    HW1  329   0.495   2.779   2.642 -0.2610  0.6011 -0.5973
  110SOL    HW2  330   0.576   2.706   2.774 -2.8950  0.9762 -0.2504
  111SOL     OW  331   1.291   0.521   2.305  0.1767 -0.1563 -0.4432
  111SOL    HW1  332   1.220   0.562   2.368  0.0996  0.9810  0.5154
  111SOL    HW2  333   1.348   0.444   2.349  2.4063 -3.9820 -0.3662
  112SOL     OW  334   1.713   0.491   1.450  0.1459 -0.2750 -0.6732
  112SOL    HW1  335   1.699   0.458   1.351 -1.7030 -1.5553 -0.2256
  112SOL    HW2  336   1.701   0.410   1.515  0.6507  1.0285 -1.0819
  113SOL     OW  337   2.309   1.665   1.749  0.2668 -0.2820 -0.2888
  113SOL    HW1  338   2.380   1.596   1.728 -3.5825  0.8373 -0.0247
  113SOL    HW2  339   2.326   1.706   1.844  1.1495 -0.8012  1.2076
  114SOL     OW  340   0.378   0.576   1.282 -0.5228  0.3133  0.1977
  114SOL    HW1  341   0.346   0.672   1.260  0.8038  1.5011  0.2376
  114SOL    HW2  342   0.352   0.512   1.201 -2.3627  0.6165 -0.9955
  115SOL     OW  343   2.659   1.590   1.241 -0.7731  0.2395 -0.1754
  115SOL    HW1  344   2.675   1.484   1.250  1.8464  0.7275  1.6040
  115SOL    HW2  345   2.683   1.629   1.147  0.2058 -1.0166  0.2807
  116SOL     OW  346   1.826   1.058   0.762 -0.0595 -0.1998  0.4220
  116SOL    HW1  347   1.747   0.988   0.764  2.6596 -0.6461 -0.9125
  116SOL    HW2  348   1.799   1.156   0.750  2.3877  0.1239 -1.5634
  117SOL     OW  349   1.141   0.374   0.649  0.3522 -0.3682 -0.0670
  117SOL    HW1  350   1.119   0.355   0.750  1.9743 -2.1274  1.3781
  117SOL    HW2  351   1.200   0.456   0.634 -1.7619 -0.5844 -1.2669
  118SOL     OW  352   1.053   1.086   1.081  0.1976  0.0819  0.9503
  118SOL    HW1  353   1.065   1.003   1.143  0.3376 -2.4272  3.4565
  118SOL    HW2  354   1.097   1.167   1.122  0.1206 -0.7048  2.9053
  119SOL     OW  355   1.824   1.603   2.015 -0.1052  0.2087  0.2610
  119SOL    HW1  356   1.767   1.684   2.031 -1.3141  2.8457 -0.7632
  119SOL    HW2  357   1.924   1.613   2.050  0.6196 -1.7153 -0.0647
  120SOL     OW  358   2.945   2.783   0.316  0.0443  0.2262  0.6205
  120SOL    HW1  359   2.889   2.758   0.234  0.2751  2.8583  1.1334
  120SOL    HW2  360   3.013   2.708   0.351  1.9923 -2.1154 -1.4444
  121SOL     OW  361   2.025   0.756   2.182 -0.3080  0.2656 -0.1971
  121SOL    HW1  362   2.092   0.786   2.107 -2.3733  0.2753 -1.0167
  121SOL    HW2  363   2.004   0.656   2.174 -0.6113 -1.6841 -0.3162
  122SOL     OW  364   2.723   2.543   1.362  0.4070  0.0026  0.5432
  122SOL    HW1  365   2.752   2.548   1.261  0.8460 -1.0798 -1.0767
  122SOL    HW2  366   2.728   2.447   1.404  0.3473  3.5384 -0.5237
  123SOL     OW  367   1.728   0.032   1.683 -0.5480  0.0482  0.2316
  123SOL    HW1  368   1.730  -0.042   1.609 -0.8349  1.2202  1.5289
  123SOL    HW2  369   1.818   0.076   1.705  0.5762 -0.4581  1.5338
  124SOL     OW  370   0.177   0.498   1.039  0.3355 -0.6344  0.2265
  124SOL    HW1  371   0.149   0.591   1.087 -0.7074  0.6621  2.3805
  124SOL    HW2  372   0.128   0.501   0.941 -1.9011 -2.3530 -0.4356
  125SOL     OW  373   0.871   1.760   0.682 -0.2512  0.3764 -0.0331
  125SOL    HW1  374   0.972   1.755   0.666  1.3282 -1.4049  0.6658
  125SOL    HW2  375   0.840   1.680   0.740  0.0896  2.2475  0.0987
  126SOL     OW  376   1.896   2.372   2.389  0.7302  0.1272  0.2528
  126SOL    HW1  377   1.956   2.289   2.362  0.7785 -1.1888  0.6947
  126SOL    HW2  378   1.824   2.387   2.317  0.9492 -0.5876 -0.4881
  127SOL     OW  379   0.895   0.980   0.183 -0.9445  0.3372 -0.1916
  127SOL    HW1  380   0.939   1.026   0.265 -2.9914 -0.8750  1.1388
  127SOL    HW2  381   0.886   0.878   0.199  1.5108 -0.9178  0.5828
  128SOL     OW  382   0.997   0.164   1.474 -0.1911 -0.3120  0.0369
  128SOL    HW1  383   0.939   0.231   1.417  2.0498 -0.4055 -0.5099
  128SOL    HW2  384   0.942   0.081   1.511  1.0537 -1.4690  2.4803
  129SOL     OW  385   1.799   0.712   1.854  0.1287 -0.2737  0.7425
  129SOL    HW1  386   1.779   0.742   1.757  2.8930 -3.0743  2.7433
  129SOL    HW2  387   1.836   0.781   1.916  1.5604 -1.1436 -2.7373
  130SOL     OW  388   1.310   2.086   0.993  0.4875 -0.3076 -0.2087
  130SOL    HW1  389   1.246   2.036   0.927  1.4185 -3.3835 -1.9818
  130SOL    HW2  390   1.371   2.155   0.941  1.3995 -1.5303  2.0159
  131SOL     OW  391  -0.001   1.512   1.348  0.6964  0.0562  0.7493
  131SOL    HW1  392  -0.052   1.423   1.353  1.0401  2.1864 -0.1575
  131SOL    HW2  393   0.102   1.498   1.354  0.5394  0.5053 -2.0207
  132SOL     OW  394   1.921   2.505   0.530  0.3640  0.0066 -0.2205
  132SOL    HW1  395   1.819   2.508   0.541 -0.6225  2.3322  0.7205
  132SOL    HW2  396   1.964   2.487   0.623  1.0249  0.4584  1.2702
  133SOL     OW  397   1.819   2.288   2.912 -0.0952 -0.2680 -0.0834
  133SOL    HW1  398   1.788   2.331   3.002 -0.6640 -0.8219  3.2468
  133SOL    HW2  399   1.769   2.320   2.828  2.0246  0.4973 -0.2690
  134SOL     OW  400   2.641   2.361   1.611  0.2639 -0.3622 -0.1887
  134SOL    HW1  401   2.596   2.307   1.690 -0.3012  1.6084  0.9413
  134SOL    HW2  402   2.722   2.413   1.645  0.3108 -0.7359  1.3825
  135SOL     OW  403   0.728   1.527   2.554 -0.4068  0.2216  0.4034
  135SOL    HW1  404   0.699   1.432   2.595 -0.9415  1.3206 -1.1015
  135SOL    HW2  405   0.797   1.521   2.480  0.5708 -0.4530 -3.1939
  136SOL     OW  406   1.177   2.064   0.466  0.5762 -0.1142  0.3117
  136SOL    HW1  407   1.131   2.110   0.545 -1.3615 -2.0399  0.1968
  136SOL    HW2  408   1.116   1.994   0.424  0.7694 -0.7878  0.1471
  137SOL     OW  409   0.384   1.046   2.206 -0.1478  0.5364  0.3133
  137SOL    HW1  410   0.291   1.070   2.250 -1.6256  1.5339 -0.0120
  137SOL    HW2  411   0.411   0.950   2.214  1.1305  2.0676  1.4817
  138SOL     OW  412   2.455   1.481   0.280 -0.2404 -0.4886 -0.5599
  138SOL    HW1  413   2.361   1.478   0.241 -1.8269  0.9416 -0.8640
  138SOL    HW2  414   2.481   1.392   0.328  2.5916 -1.6937 -0.0132
  139SOL     OW  415   1.775   2.571   1.231  0.5318  0.7554 -0.0916
  139SOL    HW1  416   1.671   2.545   1.221 -0.7267  0.7210 -1.8273
  139SOL    HW2  417   1.820   2.513   1.302 -2.1275 -1.2520 -0.8846
  140SOL     OW  418   3.000   2.984   2.545 -0.0682 -0.2635 -0.0623
  140SOL    HW1  419   3.060   2.913   2.592  1.2411 -1.4686 -0.2856
  140SOL    HW2  420   3.066   3.055   2.504  1.2002 -1.5526  2.1428
  141SOL     OW  421   1.145   1.606   1.581  0.5279  0.6521 -0.5694
  141SOL    HW1  422   1.117   1.676   1.649 -0.8426  0.2569 -0.3886
  141SOL    HW2  423   1.229   1.560   1.610  0.5858  1.5547  0.0665
  142SOL     OW  424   1.555   0.614   2.266 -0.0944  0.1005  0.1583
  142SOL    HW1  425   1.585   0.595   2.171  1.5232 -2.0429  0.3236
  142SOL    HW2  426   1.453   0.598   2.289 -2.1000 -0.4088  2.2298
  143SOL     OW  427   2.791   0.875   0.522 -0.1367 -0.3523 -0.4421
  143SOL    HW1  428   2.818   0.927   0.435 -1.5427 -0.8991 -2.3009
  143SOL    HW2  429   2.830   0.927   0.602 -1.0229  0.7716 -1.9773
  144SOL     OW  430   3.002   1.266   1.365 -0.3883 -0.1344 -0.2283
  144SOL    HW1  431   3.009   1.226   1.459  0.8825 -0.6641 -1.2216
  144SOL    HW2  432   3.003   1.188   1.298 -0.2547 -2.4859  2.1812
  145SOL     OW  433   1.071   1.876   0.079  0.4373  0.5807 -0.2750
  145SOL    HW1  434   1.053   1.965   0.030 -1.1179 -0.8335  1.2252
  145SOL    HW2  435   1.028   1.791   0.032 -0.0100 -0.3086  2.2466
  146SOL     OW  436   2.545   0.662   1.463  0.0984 -0.3265 -0.2679
  146SOL    HW1  437   2.476   0.594   1.432 -3.7460  1.5114  1.5909
  146SOL    HW2  438   2.511   0.759   1.443 -3.1112  2.0517  0.9920
  147SOL     OW  439   1.053   2.578   0.605 -0.1193 -0.7023 -0.1422
  147SOL    HW1  440   1.026   2.630   0.518 -0.7194  1.2058  1.1287
  147SOL    HW2  441   1.143   2.532   0.599  0.0799 -0.5335  0.1854
  148SOL     OW  442   1.630   1.438   3.047 -0.2621  0.0879  0.6130
  148SOL    HW1  443   1.678   1.361   3.000 -0.6883 -0.1821  1.5328
  148SOL    HW2  444   1.603   1.405   3.142  1.6144 -0.3283 -0.5573
  149SOL     OW  445   0.654   1.403   1.965  0.4914  0.1477  0.0055
  149SOL    HW1  446   0.568   1.365   2.009  1.0390  0.1374  0.2748
  149SOL    HW2  447   0.689   1.342   1.888  2.8652  0.6447 -0.4094
  150SOL     OW  448   2.972   1.289   0.937  0.3735  0.0024 -0.2683
  150SOL    HW1  449   3.046   1.315   1.009  1.0128 -3.2984 -0.2825
  150SOL    HW2  450   2.935   1.195   0.947 -1.2191  0.4748 -2.1763
  151SOL     OW  451   0.170   0.764   2.086 -0.1050  0.4944  0.2095
  151SOL    HW1  452   0.186   0.843   2.025 -0.4136 -1.8703  1.1552
  151SOL    HW2  453   0.229   0.681   2.055 -1.9063  1.2216  0.5660
  152SOL     OW  454   1.406   1.754   1.280 -0.0390 -0.0280 -0.0009
  152SOL    HW1  455   1.413   1.839   1.339 -1.1924  0.4336 -0.9139
  152SOL    HW2  456   1.319   1.752   1.223 -1.6107  0.2984  0.4832
  153SOL     OW  457   0.070   1.517   0.181  0.3500  0.5060 -0.0314
  153SOL    HW1  458   0.050   1.413   0.177 -0.2942  2.2175  3.3386
  153SOL    HW2  459   0.085   1.546   0.279  4.6181 -1.4319  0.2133
  154SOL     OW  460   2.402   1.953   2.825  0.0345 -0.3446  0.2753
  154SOL    HW1  461   2.420   1.852   2.845  1.4875 -2.5978 -2.1476
  154SOL    HW2  462   2.425   1.980   2.726  0.7836 -1.1753 -1.8781
  155SOL     OW  463   2.517   1.218   0.405  0.2467 -0.5895 -0.4928
  155SOL    HW1  464   2.601   1.220   0.344 -1.7739 -2.4313  0.9988
  155SOL    HW2  465   2.477   1.123   0.405 -1.0219  1.8999 -0.2883
  156SOL     OW  466   2.543   0.969   0.881  0.2368 -0.8922 -0.3977
  156SOL    HW1  467   2.440   0.989   0.867 -2.6277  2.0508  3.4992
  156SOL    HW2  468   2.595   1.061   0.865  0.8971 -1.1963  3.6624
  157SOL     OW  469   1.340   3.009   3.078 -0.2707  0.5136 -0.5730
  157SOL    HW1  470   1.380   2.981   2.985 -2.7925  4.0271 -2.9830
  157SOL    HW2  471   1.303   3.105   3.076 -0.8489  1.5748 -1.7814
  158SOL     OW  472   1.056   1.882   2.008 -0.6201  0.7897 -0.1864
  158SOL    HW1  473   1.110   1.847   2.091  1.7431  0.6736 -2.0191
  158SOL    HW2  474   0.953   1.875   2.024  1.8156  3.3739  2.4560
  159SOL     OW  475   0.877   0.358   1.326 -0.1812 -0.0261  0.0102
  159SOL    HW1  476   0.837   0.452   1.357  0.2276  2.7533 -2.3136
  159SOL    HW2  477   0.838   0.330   1.232 -1.0570 -1.5497 -1.5938
  160SOL     OW  478   1.458   2.388   1.662  0.3362  0.2316  0.1538
  160SOL    HW1  479   1.450   2.460   1.586 -0.2685 -0.8471  1.7452
  160SOL    HW2  480   1.549   2.344   1.672  0.1595  0.2996  1.0935
  161SOL     OW  481   0.112   2.943   0.347  0.2573 -0.1539 -0.2214
  161SOL    HW1  482   0.025   2.893   0.374 -2.1867 -2.5415  1.4905
  161SOL    HW2  483   0.106   2.999   0.267  0.1530  0.4397  1.1930
  162SOL     OW  484   2.600   1.893   0.507 -0.2414  0.0536  0.2775
  162SOL    HW1  485   2.589   1.821   0.432  2.2155 -0.8260  2.5340
  162SOL    HW2  486   2.576   1.855   0.603 -0.9256  1.1047 -0.5065
  163SOL     OW  487   1.984   2.737   0.763  0.0447 -0.6381 -0.1425
  163SOL    HW1  488   1.950   2.758   0.668  1.2519 -1.7480  0.3745
  163SOL    HW2  489   2.033   2.646   0.764 -0.2270  1.4870  1.2237
  164SOL     OW  490   3.086   0.266   1.261 -0.3235  0.7698 -0.1156
  164SOL    HW1  491   3.145   0.301   1.185  0.7797  0.0297  0.9837
  164SOL    HW2  492   3.105   0.306   1.353 -1.7300  0.4000 -0.4660
  165SOL     OW  493   0.984   1.418   0.655 -0.3896  1.0629  0.7671
  165SOL    HW1  494   0.941   1.477   0.729 -0.3914 -1.2740  1.5533
  165SOL    HW2  495   0.970   1.465   0.562  1.2256  3.0636 -1.5001
  166SOL     OW  496   1.415   1.045   1.770  0.3775  0.0014 -0.1110
  166SOL    HW1  497   1.333   1.039   1.827  3.8483  0.3496 -1.7230
  166SOL    HW2  498   1.491   1.075   1.830  2.6358 -1.3318 -0.5858
  167SOL     OW  499   0.886   1.880   1.556 -0.1384  0.8261 -0.1503
  167SOL    HW1  500   0.849   1.960   1.609 -0.4670  0.5582  2.2197
  167SOL    HW2  501   0.812   1.810   1.533 -0.7608 -0.1880  1.4073
  168SOL     OW  502   1.503   2.367   0.138 -0.5038 -0.0764 -0.2434
  168SOL    HW1  503   1.568   2.422   0.076  1.8841  0.1579  0.5705
  168SOL    HW2  504   1.552   2.310   0.211 -1.4433 -0.5858  0.1128
  169SOL     OW  505   0.173   2.567   2.168  0.0905  0.5416  0.4492
  169SOL    HW1  506   0.236   2.493   2.127  0.5996 -0.1712 -0.4292
  169SOL    HW2  507   0.121   2.537   2.252 -1.6170 -2.7885 -0.9179
  170SOL     OW  508   1.268   0.289   1.881 -0.2438  0.3232 -0.3300
  170SOL    HW1  509   1.284   0.272   1.983 -1.2882  0.8789 -0.5279
  170SOL    HW2  510   1.248   0.202   1.832  0.1012  3.0801 -1.4463
  171SOL     OW  511   0.264   0.823   2.422  0.0848 -0.4891  0.2735
  171SOL    HW1  512   0.170   0.835   2.450  1.8112  2.8213  0.7592
  171SOL    HW2  513   0.268   0.763   2.336 -1.3221 -2.2231 -0.5440
  172SOL     OW  514   0.910   1.119   2.919  0.1311  0.1116  0.0286
  172SOL    HW1  515   1.012   1.119   2.946  3.3534 -0.9633  0.8550
  172SOL    HW2  516   0.893   1.086   2.823 -2.8139  0.3837 -1.1555
  173SOL     OW  517   0.666   2.708   0.152  0.2463  0.1085 -0.5072
  173SOL    HW1  518   0.664   2.813   0.134 -0.0353  1.2470  1.2049
  173SOL    HW2  519   0.569   2.668   0.163 -0.0079 -1.4004  2.5032
  174SOL     OW  520   1.328   2.748   1.048  0.2728  0.2822 -0.0973
  174SOL    HW1  521   1.341   2.818   0.971 -0.2802  0.2771  0.3457
  174SOL    HW2  522   1.288   2.655   1.012  2.3277 -0.2265 -0.8259
  175SOL     OW  523   0.373   0.010   1.709 -0.6700 -0.0168 -0.1351
  175SOL    HW1  524   0.448   0.064   1.758  2.4779  0.0696 -1.2085
  175SOL    HW2  525   0.294   0.075   1.689  1.0105  1.1800  1.8157
  176SOL     OW  526   2.592   0.363   3.046 -0.6269  0.1850  0.5526
  176SOL    HW1  527   2.596   0.431   3.126 -0.8347  1.6371  0.9370
  176SOL    HW2  528   2.511   0.304   3.067  0.4061 -0.3703 -0.7072
  177SOL     OW  529   0.382   0.376   0.876  0.0287  0.8190  0.3199
  177SOL    HW1  530   0.452   0.312   0.918 -0.0836  1.0463  1.0363
  177SOL    HW2  531   0.310   0.404   0.947 -1.9382 -0.8508  0.6770
  178SOL     OW  532   3.080   2.701   2.617 -0.6727  0.6394 -0.2869
  178SOL    HW1  533   3.004   2.643   2.662 -0.5243 -2.1704 -2.4483
  178SOL    HW2  534   3.162   2.727   2.680 -2.8428 -3.4880  2.2308
  179SOL     OW  535   0.021   1.721   1.166  0.0670 -0.4803 -0.1360
  179SOL    HW1  536  -0.058   1.779   1.130 -0.6972  3.2722 -0.6743
  179SOL    HW2  537  -0.003   1.628   1.216 -0.5971 -1.4590 -1.7688
  180SOL     OW  538   0.190   1.251   1.841  0.4371 -0.1402 -0.0708
  180SOL    HW1  539   0.291   1.246   1.796 -0.2153  0.1631 -1.9567
  180SOL    HW2  540   0.173   1.346   1.883 -0.5767  1.6602  1.8956
  181SOL     OW  541   2.987   1.818   2.524 -0.3967  0.0577  0.0480
  181SOL    HW1  542   3.069   1.872   2.491  4.7830 -2.3475  3.2663
  181SOL    HW2  543   2.902   1.838   2.462  3.4543 -0.6603  1.5447
  182SOL     OW  544   2.302   1.221   1.251  0.4677  0.4949 -0.1285
  182SOL    HW1  545   2.224   1.202   1.181 -1.7654 -0.1872  0.9281
  182SOL    HW2  546   2.347   1.315   1.238 -0.4893 -0.9515 -1.5438
  183SOL     OW  547   1.523   2.245   2.500 -0.5566  0.1281  0.1055
  183SOL    HW1  548   1.444   2.178   2.498 -2.6130 -0.2273 -0.9171
  183SOL    HW2  549   1.610   2.218   2.550 -1.7231  0.4892 -0.7047
  184SOL     OW  550   2.049   0.912   0.751  0.0048  0.1975  0.4383
  184SOL    HW1  551   1.955   0.959   0.745  2.2098 -0.3455 -1.5183
  184SOL    HW2  552   2.048   0.835   0.817  0.7959  2.9639 -1.6905
  185SOL     OW  553   1.676   2.736   2.112  0.3038 -0.2481 -0.3713
  185SOL    HW1  554   1.641   2.830   2.090 -2.0434 -0.3694 -0.5375
  185SOL    HW2  555   1.661   2.712   2.212  0.6430  1.0414 -1.5520
  186SOL     OW  556   0.122   2.250   1.733  0.1916 -0.0982  0.4452
  186SOL    HW1  557   0.150   2.347   1.708 -2.8350 -0.0431 -1.3951
  186SOL    HW2  558   0.200   2.185   1.728  1.9010  1.2185 -0.5850
  187SOL     OW  559   1.409   0.660   1.709  0.0266  0.1613 -0.1335
  187SOL    HW1  560   1.455   0.725   1.644 -0.6866 -1.5068  2.4239
  187SOL    HW2  561   1.401   0.701   1.805 -0.1762  0.0913 -0.6143
  188SOL     OW  562   2.760   2.754   1.531 -0.1326 -0.0340  0.0263
  188SOL    HW1  563   2.731   2.845   1.491 -3.3678 -0.1978 -1.1293
  188SOL    HW2  564   2.760   2.678   1.461 -1.0437 -0.7123  0.5372
  189SOL     OW  565   0.757   1.006   1.478  0.1704 -0.4806 -0.0420
  189SOL    HW1  566   0.829   1.081   1.474  2.4028 -0.4995  1.4278
  189SOL    HW2  567   0.755   0.950   1.391 -1.6139  1.3282  1.2267
  190SOL     OW  568   1.463   1.734   1.652 -0.3999 -0.7805 -0.5508
  190SOL    HW1  569   1.406   1.805   1.597 -2.3620  0.7792 -0.7834
  190SOL    HW2  570   1.547   1.777   1.694  1.2203 -1.0699  0.9659
  191SOL     OW  571   1.021   0.800   1.543  0.0425  0.2467 -0.1288
  191SOL    HW1  572   1.060   0.719   1.598 -2.5184  0.1890  0.6170
  191SOL    HW2  573   1.091   0.871   1.512 -0.8022 -0.7657  0.0638
  192SOL     OW  574   1.891   2.254   1.222 -0.1426  0.3623  0.4978
  192SOL    HW1  575   1.794   2.238   1.185 -3.6555  0.4266 -0.7054
  192SOL    HW2  576   1.951   2.310   1.154 -0.3744  1.2494 -1.0401
  193SOL     OW  577   0.521   0.555   0.323  0.3945  0.4541 -0.7287
  193SOL    HW1  578   0.498   0.465   0.369 -0.8795 -0.6229  1.3821
  193SOL    HW2  579   0.523   0.548   0.218  0.0957  0.8037  1.4378
  194SOL     OW  580   0.300   0.844   1.265 -0.2848 -0.0164  0.4685
  194SOL    HW1  581   0.203   0.813   1.253 -1.1296  0.2149 -0.2046
  194SOL    HW2  582   0.328   0.907   1.188 -2.2749 -0.4426 -0.4023
  195SOL     OW  583   0.945   2.934   0.483  0.0327  0.0041 -0.2087
  195SOL    HW1  584   0.955   2.841   0.431  1.9610 -1.9313 -1.4021
  195SOL    HW2  585   1.039   2.986   0.499  0.6148  2.6444  0.3640
  196SOL     OW  586   0.250   1.435   1.376  0.3994 -0.1679  0.6488
  196SOL    HW1  587   0.311   1.503   1.422 -1.1013  0.0492  2.0910
  196SOL    HW2  588   0.203   1.373   1.449  0.9533  0.4304  0.2037
  197SOL     OW  589   0.829   2.005   0.195  0.6094  0.0157 -0.5420
  197SOL    HW1  590   0.831   2.001   0.299  0.2302 -0.3254  0.4746
  197SOL    HW2  591   0.909   1.958   0.152 -0.5513  0.3245  1.4110
  198SOL     OW  592   0.285   1.206   0.248 -0.8254  0.6885 -0.4748
  198SOL    HW1  593   0.183   1.214   0.225  1.1446  2.5520  1.3701
  198SOL    HW2  594   0.326   1.302   0.271  1.0921  0.1149  2.1902
  199SOL     OW  595   2.278   0.389   2.514 -0.3847  0.0204  0.3706
  199SOL    HW1  596   2.237   0.359   2.608  1.4404 -2.2915  3.0684
  199SOL    HW2  597   2.379   0.370   2.508  0.1603  0.3803  0.2594
  200SOL     OW  598   3.093   2.879   0.796 -0.1156 -0.5432 -0.0537
  200SOL    HW1  599   3.030   2.889   0.717 -0.3088  3.2250 -1.2942
  200SOL    HW2  600   3.131   2.973   0.825  0.7395  1.6958 -0.7672
  201SOL     OW  601   1.144   0.688   0.538 -0.1157  0.2570  0.0082
  201SOL    HW1  602   1.137   0.763   0.603 -0.1767 -1.8192 -2.9094
  201SOL    HW2  603   1.053   0.658   0.498  0.2149  0.5904 -0.4477
  202SOL     OW  604   0.442   1.210   1.771 -0.3630  0.6855 -0.5330
  202SOL    HW1  605   0.492   1.218   1.681 -0.8143 -0.2559  1.6428
  202SOL    HW2  606   0.489   1.144   1.830  1.1272  3.4524  1.2112
  203SOL     OW  607   0.616   0.225   1.513  0.6456  0.4509 -0.0616
  203SOL    HW1  608   0.631   0.176   1.423 -2.8219  2.4211 -1.3541
  203SOL    HW2  609   0.606   0.170   1.600  0.3092  0.9906  2.9456
  204SOL     OW  610   2.073   1.866   3.025  0.1873  0.3543  0.1846
  204SOL    HW1  611   2.093   1.772   2.985 -0.2343  0.9183 -1.1102
  204SOL    HW2  612   2.036   1.922   2.948 -0.0738 -1.2773 -0.8058
  205SOL     OW  613   1.855   1.862   0.106 -0.1359 -0.4577 -0.3185
  205SOL    HW1  614   1.945   1.855   0.058 -2.9879 -1.6078  0.8415
  205SOL    HW2  615   1.785   1.912   0.054 -0.2100  1.1068  0.4820
  206SOL     OW  616   2.504   2.822   0.386  0.1936  0.3379 -0.0538
  206SOL    HW1  617   2.568   2.745   0.411 -0.5524 -0.5318  3.1834
  206SOL    HW2  618   2.537   2.878   0.307  0.2345 -0.4801 -0.4398
  207SOL     OW  619   0.562   1.726   2.857  0.2495 -0.1935  0.3745
  207SOL    HW1  620   0.662   1.719   2.841  0.9991 -2.0725  1.1080
  207SOL    HW2  621   0.528   1.665   2.937 -2.7474 -0.4214  1.6673
  208SOL     OW  622   1.025   1.467   1.396 -0.3534 -0.0200  0.6002
  208SOL    HW1  623   0.947   1.520   1.349  1.0492 -0.2483  2.2461
  208SOL    HW2  624   1.077   1.521   1.469  0.0195 -1.2029  0.7182
  209SOL     OW  625   0.145   0.934   3.080  0.2392 -0.1701 -0.2954
  209SOL    HW1  626   0.193   0.889   3.002 -2.0304  0.1284 -0.4235
  209SOL    HW2  627   0.178   0.891   3.173  4.0092  0.8191 -0.6751
  210SOL     OW  628   1.708   0.473   1.149 -0.1589  0.4239 -0.2673
  210SOL    HW1  629   1.663   0.558   1.112  0.5452  2.6782 -0.0756
  210SOL    HW2  630   1.814   0.471   1.123  0.7932  0.0006  0.2517
  211SOL     OW  631   2.113   1.036   1.682 -0.3535 -0.4348  0.4168
  211SOL    HW1  632   2.179   1.001   1.755  2.0709  1.9697 -1.1589
  211SOL    HW2  633   2.172   1.069   1.605 -0.0840 -1.1513 -4.5045
  212SOL     OW  634   0.030   1.011   1.449 -0.1591  0.4162  0.0818
  212SOL    HW1  635   0.080   1.102   1.462  0.9133  2.2960  1.2009
  212SOL    HW2  636   0.053   0.934   1.519  0.7934  0.2067 -0.8380
  213SOL     OW  637   2.709   0.305   0.257 -0.4194  0.2441  0.0263
  213SOL    HW1  638   2.795   0.251   0.222 -0.5852  1.4988 -1.5793
  213SOL    HW2  639   2.703   0.404   0.225 -1.8051  1.7057 -2.8891
  214SOL     OW  640   2.182   0.279   2.286  0.0967 -0.2950  0.1655
  214SOL    HW1  641   2.214   0.331   2.368  1.5467 -0.6967  0.1131
  214SOL    HW2  642   2.127   0.193   2.309  0.3290 -0.9679  0.1882
  215SOL     OW  643   1.667   2.299   2.049 -0.2050 -0.0365  0.3186
  215SOL    HW1  644   1.764   2.326   2.013 -1.2156  2.5815 -2.0278
  215SOL    HW2  645   1.626   2.355   2.126  1.2251  3.5414 -0.8732
  216SOL     OW  646   2.241   0.520   0.646  0.0931  0.0159 -0.1829
  216SOL    HW1  647   2.185   0.452   0.583 -0.9770 -3.1375 -2.4504
  216SOL    HW2  648   2.256   0.611   0.601  0.0844  0.1610 -0.3942
  217SOL     OW  649   0.759   2.805   2.414 -0.1810  0.6499  0.0095
  217SOL    HW1  650   0.738   2.719   2.463  1.1434 -0.6677  1.1685
  217SOL    HW2  651   0.783   2.794   2.314 -2.3434 -0.7468 -1.3966
  218SOL     OW  652   1.922   1.447   0.041 -0.0422 -0.0069  0.5363
  218SOL    HW1  653   1.841   1.487  -0.012  0.2480 -0.8739  2.7488
  218SOL    HW2  654   1.909   1.349   0.081  0.1037  1.8507  1.8595
  219SOL     OW  655   2.389   1.316   2.567  0.0987  0.2390 -0.5541
  219SOL    HW1  656   2.433   1.277   2.483  1.2627  1.5778  3.8659
  219SOL    HW2  657   2.379   1.248   2.645 -2.4512 -2.1801 -0.7846
  220SOL     OW  658   1.414   1.038   1.255  0.0340  0.0343  0.4755
  220SOL    HW1  659   1.518   1.036   1.278  0.1005 -0.0421 -2.2836
  220SOL    HW2  660   1.376   1.137   1.254 -1.3197 -0.6379  0.0794
  221SOL     OW  661   1.305   1.146   2.138 -0.1335  0.9930 -0.1648
  221SOL    HW1  662   1.267   1.236   2.100  1.0819  0.8520 -1.2099
  221SOL    HW2  663   1.402   1.126   2.111 -1.9953 -1.0093 -0.0725
  222SOL     OW  664   1.279   0.109   1.147 -0.5757 -1.0969  0.0876
  222SOL    HW1  665   1.344   0.088   1.067  0.9146 -0.3725  0.1401
  222SOL    HW2  666   1.330   0.128   1.234  1.5771  2.5614 -0.3992
  223SOL     OW  667   2.895   0.816   1.977  0.2570 -0.4988  0.2988
  223SOL    HW1  668   2.912   0.797   2.078  0.8239  0.1709 -0.0385
  223SOL    HW2  669   2.925   0.912   1.955  1.7849 -1.6402 -0.9578
  224SOL     OW  670   1.572   1.018   2.783 -0.0093 -0.6495 -0.1581
  224SOL    HW1  671   1.615   0.954   2.709 -0.7350  0.3740  1.8788
  224SOL    HW2  672   1.531   1.100   2.741 -0.3173 -2.2715  1.0584
  225SOL     OW  673   2.991   2.797   2.933  0.4735  0.3090  0.0317
  225SOL    HW1  674   2.948   2.725   2.874 -0.1280  2.3265 -1.1764
  225SOL    HW2  675   3.046   2.864   2.875 -0.0395 -3.7688 -0.8930
  226SOL     OW  676   2.452   1.674   2.854 -0.1596 -0.5224  0.4033
  226SOL    HW1  677   2.505   1.653   2.764  0.8229 -0.9235 -0.7088
  226SOL    HW2  678   2.419   1.589   2.905  2.2311 -3.8190  0.0824
  227SOL     OW  679   0.795   0.132   2.974  0.2904  0.1879 -0.1883
  227SOL    HW1  680   0.845   0.079   3.051  1.3420 -2.5122 -1.1125
  227SOL    HW2  681   0.845   0.134   2.884 -0.8615 -0.3180  1.1019
  228SOL     OW  682   2.358   0.562   2.787  0.0517  0.1760  0.1516
  228SOL    HW1  683   2.327   0.644   2.732  1.2800  1.7895  0.9948
  228SOL    HW2  684   2.458   0.545   2.785 -2.3431 -0.0465 -0.2989
  229SOL     OW  685   0.595   0.498   1.883 -0.3675 -0.1723  0.1549
  229SOL    HW1  686   0.613   0.487   1.777  1.4179  1.2914 -3.7398
  229SOL    HW2  687   0.633   0.585   1.927  0.1113  0.4652 -3.2502
  230SOL     OW  688   1.928   1.234   2.141 -0.4080  0.2838  0.4873
  230SOL    HW1  689   1.993   1.263   2.063 -0.0943  2.0719 -1.2727
  230SOL    HW2  690   1.831   1.265   2.121  0.5244 -1.6258 -3.3414
  231SOL     OW  691   0.623   1.047   2.953 -0.1437 -0.3164 -0.1370
  231SOL    HW1  692   0.718   1.083   2.961 -2.0056 -3.6650  2.3828
  231SOL    HW2  693   0.565   1.069   3.034  3.3037 -0.8220  0.6487
  232SOL     OW  694   2.548   0.039   2.744 -0.1828  0.2331  0.2671
  232SOL    HW1  695   2.561  -0.050   2.793  0.0118 -0.2840  1.5173
  232SOL    HW2  696   2.550   0.034   2.639 -0.1017  1.2523 -0.6133
  233SOL     OW  697   1.739   1.275   1.046  0.1621 -0.0954  0.2627
  233SOL    HW1  698   1.737   1.315   0.951 -3.2088  0.7652 -0.4883
  233SOL    HW2  699   1.804   1.193   1.063  0.0424 -0.8140 -2.1523
  234SOL     OW  700   1.628   2.637   1.863 -0.2461  0.4709 -0.8248
  234SOL    HW1  701   1.654   2.681   1.953  0.3397 -0.8250  1.0006
  234SOL    HW2  702   1.584   2.546   1.876  0.6922 -0.0991 -1.2891
  235SOL     OW  703   0.034   3.002   2.817  0.4666 -0.0263  0.2392
  235SOL    HW1  704   0.086   3.069   2.754 -1.6293 -0.2104 -2.3199
  235SOL    HW2  705  -0.036   3.054   2.873 -0.5637 -0.3150  0.7660
  236SOL     OW  706   2.818   0.691   0.032 -0.1100  0.7103  0.1640
  236SOL    HW1  707   2.859   0.750   0.110  0.0756  0.6240 -0.4491
  236SOL    HW2  708   2.883   0.622  -0.010 -2.6180 -0.2855  0.9965
  237SOL     OW  709   1.501   1.657   1.024 -0.1108 -0.1371 -0.1303
  237SOL    HW1  710   1.603   1.638   1.028 -1.5094 -2.6971 -0.4185
  237SOL    HW2  711   1.467   1.694   1.118  0.8830  0.2923  2.9517
  238SOL     OW  712   1.770   1.352   0.770  0.1831  0.1317 -0.2145
  238SOL    HW1  713   1.859   1.361   0.718 -0.4753  1.7997 -1.0764
  238SOL    HW2  714   1.682   1.377   0.721 -2.6395  3.1355  0.8923
  239SOL     OW  715   2.123   0.275   2.714 -0.2315 -0.4082  0.1503
  239SOL    HW1  716   2.189   0.242   2.786 -0.2124 -2.1014  0.0047
  239SOL    HW2  717   2.048   0.333   2.758 -1.6975  1.4271  2.0382
  240SOL     OW  718   0.863   0.695   0.206 -0.1697  0.0481 -0.3108
  240SOL    HW1  719   0.839   0.609   0.153 -1.5213 -1.4858 -0.0522
  240SOL    HW2  720   0.857   0.690   0.312 -1.2338 -2.4347 -2.9067
  241SOL     OW  721   0.567   0.036   0.323  0.7181 -0.4154 -0.8939
  241SOL    HW1  722   0.559   0.004   0.222  0.4125 -0.5604  1.3882
  241SOL    HW2  723   0.489   0.004   0.380  0.1357 -0.7063  3.0516
  242SOL     OW  724   0.697   2.397   1.105 -0.2399  0.2877 -0.1280
  242SOL    HW1  725   0.686   2.471   1.173 -0.0327 -1.7514 -1.1039
  242SOL    HW2  726   0.790   2.392   1.062  0.8791 -0.8708 -1.7561
  243SOL     OW  727   1.082   0.608   2.470 -0.2694 -0.1298 -0.3918
  243SOL    HW1  728   1.018   0.670   2.420  1.4867 -1.1397 -0.1940
  243SOL    HW2  729   1.032   0.527   2.513  1.2054 -0.3985 -1.7513
  244SOL     OW  730   2.804   1.965   2.382 -0.6715 -0.7496 -0.0885
  244SOL    HW1  731   2.856   1.945   2.293  1.4496 -0.8957 -1.1600
  244SOL    HW2  732   2.716   1.921   2.390  2.2151 -2.6352 -0.3676
  245SOL     OW  733   2.456   0.725   2.165  0.0906  0.4135  0.1678
  245SOL    HW1  734   2.457   0.787   2.248 -2.0800  2.6100 -0.3152
  245SOL    HW2  735   2.554   0.701   2.131  2.5809  3.1126  0.9636
  246SOL     OW  736   0.209   2.871   1.737 -0.1401 -0.1102 -0.0775
  246SOL    HW1  737   0.152   2.845   1.652  2.2563  2.1232 -0.5164
  246SOL    HW2  738   0.280   2.944   1.719 -0.7616  1.6566 -1.3583
  247SOL     OW  739   2.197   0.529   3.003  0.1302  0.0976 -0.1434
  247SOL    HW1  740   2.259   0.535   2.921 -2.0956 -3.1251 -0.7269
  247SOL    HW2  741   2.125   0.606   3.008 -1.1916  1.3549  0.5994
  248SOL     OW  742   2.173   1.901   1.615  0.0911  0.4322  0.3319
  248SOL    HW1  743   2.238   1.828   1.652  1.1298 -0.3057 -0.9444
  248SOL    HW2  744   2.074   1.873   1.628  0.4518 -0.6142 -0.4284
  249SOL     OW  745   2.004   1.919   1.946 -0.1764 -0.1315 -0.2831
  249SOL    HW1  746   1.986   1.886   1.850  0.5598 -0.3365  1.0146
  249SOL    HW2  747   2.087   1.984   1.958  0.0218 -0.5505  2.3682
  250SOL     OW  748   1.005   0.649   1.867  0.0111 -0.4010 -0.1819
  250SOL    HW1  749   1.060   0.600   1.946 -1.9288 -2.3093  2.6372
  250SOL    HW2  750   0.989   0.593   1.783 -2.5868 -0.3906  0.1588
  251SOL     OW  751   3.018   1.547   2.570 -0.4146  0.3599 -0.0710
  251SOL    HW1  752   2.997   1.649   2.553 -1.2627  0.4284 -0.8513
  251SOL    HW2  753   2.936   1.484   2.542  0.6291 -1.8379 -1.4775
  252SOL     OW  754   1.551   0.868   1.589  0.2314  0.7312 -0.0132
  252SOL    HW1  755   1.607   0.940   1.541 -0.6117 -0.1901 -0.3764
  252SOL    HW2  756   1.486   0.904   1.662 -1.7948  1.3545 -0.9741
  253SOL     OW  757   1.001   1.528   0.388 -0.1921 -0.1389  0.0642
  253SOL    HW1  758   1.074   1.507   0.329 -1.6052 -2.7622 -2.2094
  253SOL    HW2  759   0.914   1.491   0.342  0.1203  1.3157  0.5073
  254SOL     OW  760   1.984   2.147   1.598  0.0869  0.0376  0.0091
  254SOL    HW1  761   1.951   2.082   1.520  1.2696 -0.2261 -0.8609
  254SOL    HW2  762   1.910   2.165   1.666  0.1962 -1.4402  1.4534
  255SOL     OW  763   0.119   1.150   2.901 -0.8688  0.3827 -0.8345
  255SOL    HW1  764   0.175   1.234   2.910  1.4143 -0.8762 -1.7462
  255SOL    HW2  765   0.140   1.078   2.979  2.7579  1.1508  2.3475
  256SOL     OW  766   2.737   1.323   1.853  0.1174 -0.2090  0.6644
  256SOL    HW1  767   2.683   1.367   1.774 -1.2979  1.4087 -0.8704
  256SOL    HW2  768   2.684   1.246   1.897  0.8990 -1.1468  1.9118
  257SOL     OW  769   0.841   0.243   1.878 -0.0550 -0.1646  0.4106
  257SOL    HW1  770   0.880   0.311   1.809 -2.5158  0.0881  0.4172
  257SOL    HW2  771   0.865   0.145   1.857 -1.2059 -0.0397  0.1141
  258SOL     OW  772   2.947   1.257   0.423  0.2671 -0.6562 -0.1626
  258SOL    HW1  773   2.884   1.335   0.392 -0.1785  0.6469 -1.4168
  258SOL    HW2  774   2.985   1.272   0.516 -0.5950 -0.3530  0.8030
  259SOL     OW  775   0.514   2.878   2.990 -0.4949  0.3593 -0.0670
  259SOL    HW1  776   0.476   2.821   3.067 -1.0241 -0.0891 -2.6241
  259SOL    HW2  777   0.494   2.847   2.894  3.1367 -0.2508  1.9166
  260SOL     OW  778   2.643   0.732   2.708 -0.0881 -0.2699  0.7608
  260SOL    HW1  779   2.562   0.794   2.691 -2.0673 -0.5781  2.2038
  260SOL    HW2  780   2.627   0.635   2.742  1.8012 -1.4650 -0.8186
  261SOL     OW  781   2.705   1.316   1.302 -0.1894  0.1784 -0.2067
  261SOL    HW1  782   2.660   1.229   1.263 -0.3675 -1.3341 -0.7517
  261SOL    HW2  783   2.806   1.307   1.321  0.3245 -0.8600  0.6676
  262SOL     OW  784   1.486   2.940   2.036 -0.3685 -0.1209 -0.0921
  262SOL    HW1  785   1.484   3.019   1.967  0.3523 -1.2133 -0.6514
  262SOL    HW2  786   1.423   2.862   2.011 -2.5069  0.4902 -0.3628
  263SOL     OW  787   0.865   0.750   2.348 -0.7251 -0.0113 -0.0005
  263SOL    HW1  788   0.796   0.679   2.332  0.7103 -0.4823  1.5672
  263SOL    HW2  789   0.865   0.828   2.281 -0.1413 -1.3653 -0.3612
  264SOL     OW  790   2.274   0.774   0.515 -0.2239 -0.1759  0.2004
  264SOL    HW1  791   2.183   0.801   0.474 -2.0834 -0.6735  0.0481
  264SOL    HW2  792   2.340   0.859   0.512  2.4224  1.4535  0.3728
  265SOL     OW  793   0.868   2.330   2.691 -0.4991  0.3065  0.2251
  265SOL    HW1  794   0.924   2.386   2.755 -0.9330 -0.8779 -0.2404
  265SOL    HW2  795   0.818   2.253   2.749 -0.9092 -0.4221  2.7847
  266SOL     OW  796   1.311   1.739   0.021  0.4664 -0.1443  0.4393
  266SOL    HW1  797   1.228   1.783   0.060  2.0060 -2.7174 -1.3044
  266SOL    HW2  798   1.396   1.742   0.078 -0.1647 -2.4596 -1.5969
  267SOL     OW  799   1.094   0.030   2.326 -0.1835  0.0333  0.2987
  267SOL    HW1  800   1.105  -0.054   2.266 -2.1640 -0.9132 -0.8064
  267SOL    HW2  801   1.020   0.099   2.300 -1.1712  1.3551  3.8183
  268SOL     OW  802   0.588   1.125   1.079  0.2109  0.0242 -0.4135
  268SOL    HW1  803   0.627   1.155   1.167  0.5311 -1.4618  0.8177
  268SOL    HW2  804   0.586   1.207   1.011 -2.6468  1.7108 -1.8402
  269SOL     OW  805   2.461   2.571   1.571  0.3183 -0.4751  0.0122
  269SOL    HW1  806   2.523   2.486   1.574  0.1697 -1.4602  2.4540
  269SOL    HW2  807   2.397   2.578   1.654 -0.8209 -0.7491  1.8159
  270SOL     OW  808   0.297   2.778   2.020 -1.1893  0.4193 -0.0012
  270SOL    HW1  809   0.220   2.838   1.985 -0.3318  1.1092 -0.3347
  270SOL    HW2  810   0.263   2.684   2.054 -0.7934  0.3517  0.6672
  271SOL     OW  811   0.416   1.374   1.151  0.2835  0.2482  0.5894
  271SOL    HW1  812   0.377   1.359   1.054  0.2709  0.2483  1.0840
  271SOL    HW2  813   0.355   1.387   1.230 -0.3898 -2.5370 -0.8493
  272SOL     OW  814   1.985   2.846   1.911 -0.2442  0.3031  0.3120
  272SOL    HW1  815   1.915   2.828   1.842 -0.3606 -0.6887  0.6388
  272SOL    HW2  816   2.061   2.911   1.877  0.2451  2.7274  0.5552
  273SOL     OW  817   1.404   1.447   2.884  0.1771  0.0019 -0.6172
  273SOL    HW1  818   1.488   1.448   2.943 -1.2632  2.7936  0.2470
  273SOL    HW2  819   1.315   1.463   2.934 -0.2425  2.5285 -0.8820
  274SOL     OW  820   1.147   0.490   2.057  0.5201 -0.1654 -0.4150
  274SOL    HW1  821   1.176   0.404   1.997  0.3210  1.9060 -1.0679
  274SOL    HW2  822   1.211   0.509   2.136  2.5324  0.7255 -0.5625
  275SOL     OW  823   0.646   2.071   1.923 -0.2260  0.5743  0.0023
  275SOL    HW1  824   0.627   2.158   1.974  0.7188 -0.1871 -2.4081
  275SOL    HW2  825   0.568   2.015   1.898 -0.4477  1.4986  2.5507
  276SOL     OW  826   2.146   0.977   2.784  0.1133  0.6529  0.0162
  276SOL    HW1  827   2.071   1.009   2.718  0.8864  1.7094  1.0198
  276SOL    HW2  828   2.127   1.004   2.883  0.9124  2.4896  3.0807
  277SOL     OW  829   2.992   0.820   0.214 -0.1923  0.0854 -0.1320
  277SOL    HW1  830   3.060   0.845   0.137 -2.3853  1.8423 -1.6703
  277SOL    HW2  831   3.044   0.741   0.261  0.0263 -0.4969 -0.7841
  278SOL     OW  832   0.204   0.286   2.927 -0.1441 -0.3503  0.0536
  278SOL    HW1  833   0.247   0.216   2.984 -0.9988  1.2122  0.5360
  278SOL    HW2  834   0.225   0.387   2.945 -1.1657 -1.2066 -4.1265
  279SOL     OW  835   0.135  -0.002   0.878  0.1820 -0.2193  0.0118
  279SOL    HW1  836   0.155   0.040   0.973 -0.5029 -0.5852  0.5642
  279SOL    HW2  837   0.196   0.031   0.802  0.3077 -0.9870 -0.5657
  280SOL     OW  838   1.650   2.929   2.503 -0.5122  0.1049  0.1578
  280SOL    HW1  839   1.735   2.985   2.505 -0.1140 -3.0672 -0.9941
  280SOL    HW2  840   1.575   2.986   2.532  2.2630 -0.9140  1.0305
  281SOL     OW  841   0.635   0.973   2.323 -0.1250 -0.6325  0.4925
  281SOL    HW1  842   0.585   0.888   2.290 -0.5525 -1.9482 -1.5440
  281SOL    HW2  843   0.690   0.963   2.409  1.6141 -2.5242 -0.8825
  282SOL     OW  844   1.639   2.486   0.553 -0.0327 -0.4280 -0.2275
  282SOL    HW1  845   1.622   2.424   0.471 -2.0082 -0.1318 -0.0823
  282SOL    HW2  846   1.609   2.582   0.532 -3.4195 -0.9935  1.8683
  283SOL     OW  847   1.113   0.934   0.695  1.0000 -0.3613  0.2058
  283SOL    HW1  848   1.147   0.873   0.769  0.0454 -1.5207 -1.2444
  283SOL    HW2  849   1.055   1.013   0.736 -0.0742  2.4422  3.3046
  284SOL     OW  850   2.255   2.827   2.410  0.4464 -0.1964  0.3535
  284SOL    HW1  851   2.289   2.881   2.488  0.4999 -0.5143 -3.2484
  284SOL    HW2  852   2.278   2.868   2.320  1.1191 -2.4287 -2.7529
  285SOL     OW  853   1.401   3.050   2.547  0.3156  0.1489 -0.1345
  285SOL    HW1  854   1.423   3.067   2.449  0.6330  0.8317 -0.5417
  285SOL    HW2  855   1.309   3.101   2.572 -1.1608  0.3855  0.2207
  286SOL     OW  856   0.420   0.496   0.634  0.0691 -0.2210  0.3059
  286SOL    HW1  857   0.409   0.459   0.731  0.3078  3.0818 -2.0355
  286SOL    HW2  858   0.415   0.421   0.563  1.5153  2.4592  0.2477
  287SOL     OW  859   0.068   1.329   2.518  0.6510  0.3366 -0.3969
  287SOL    HW1  860   0.049   1.246   2.573  2.0444  2.0792 -2.9943
  287SOL    HW2  861   0.006   1.409   2.546  1.1238  0.0246  1.3985
  288SOL     OW  862   1.589   2.595   1.459 -0.2253  0.6970 -0.5394
  288SOL    HW1  863   1.695   2.592   1.471  1.4220  1.5618 -1.7571
  288SOL    HW2  864   1.559   2.614   1.363  1.1919  0.0409  4.3260
  289SOL     OW  865   0.649   2.727   0.822  0.6225  0.1467  0.1531
  289SOL    HW1  866   0.695   2.804   0.768  1.7460 -1.7788  0.1756
  289SOL    HW2  867   0.662   2.728   0.924 -1.5695  1.6508  0.7962
  290SOL     OW  868   2.962   1.233   1.684  0.3918 -0.3062 -0.3457
  290SOL    HW1  869   2.870   1.254   1.724 -0.6615  2.4396 -1.7120
  290SOL    HW2  870   3.013   1.158   1.741  1.2307 -1.4653  1.6886
  291SOL     OW  871   1.967   0.046   0.061 -0.3931  0.0730 -0.2569
  291SOL    HW1  872   1.998   0.018   0.156  0.3368  1.7432 -1.3755
  291SOL    HW2  873   2.035   0.112   0.014  0.1020  1.1448  1.1351
  292SOL     OW  874   2.969   1.161   3.067 -0.2189 -0.0659 -0.2349
  292SOL    HW1  875   2.895   1.207   3.013  0.0770 -1.0545 -0.8976
  292SOL    HW2  876   3.065   1.175   3.025  0.4881  1.2370 -0.1172
  293SOL     OW  877   0.574   2.057   0.167  0.6659 -0.3185  0.0691
  293SOL    HW1  878   0.530   2.121   0.239  0.0327  0.3488 -1.8984
  293SOL    HW2  879   0.677   2.035   0.180 -0.7431  1.8496  0.9635
  294SOL     OW  880   1.676   2.132   1.850  0.4875  0.2597 -0.1906
  294SOL    HW1  881   1.674   2.192   1.934 -0.1458 -0.1999 -0.3548
  294SOL    HW2  882   1.683   2.182   1.756 -0.6648  0.3388  1.1995
  295SOL     OW  883   0.955   1.187   0.419 -0.3770 -0.1927 -0.3952
  295SOL    HW1  884   1.050   1.183   0.463  3.9683 -1.0708 -0.0078
  295SOL    HW2  885   0.882   1.193   0.488 -1.5688 -1.6467 -0.3450
  296SOL     OW  886   1.276   2.084   2.532 -0.0784  0.1238 -0.0233
  296SOL    HW1  887   1.259   2.135   2.441  1.1304  0.5683  0.4490
  296SOL    HW2  888   1.314   1.991   2.510 -0.2067 -3.5025  3.9945
  297SOL     OW  889   1.526   0.708   1.341 -0.0881 -0.0370 -0.1877
  297SOL    HW1  890   1.573   0.640   1.402 -1.5589  0.3229  0.9722
  297SOL    HW2  891   1.499   0.794   1.393  0.2220 -1.1701 -0.8237
  298SOL     OW  892   0.521   1.286   2.838  0.0198 -0.6336  0.0987
  298SOL    HW1  893   0.565   1.208   2.889  0.8687  0.7049 -0.0228
  298SOL    HW2  894   0.581   1.325   2.761 -0.9787 -0.4788 -0.2806
  299SOL     OW  895   0.382   0.354   1.466  0.5151 -0.5498 -0.4095
  299SOL    HW1  896   0.389   0.439   1.406 -1.1026  1.3373 -0.2045
  299SOL    HW2  897   0.471   0.307   1.488  0.0095 -0.6317  0.1600
  300SOL     OW  898   1.228   1.785   2.862 -0.4541 -0.1648 -0.4827
  300SOL    HW1  899   1.245   1.702   2.800 -0.3410 -0.0931  1.0831
  300SOL    HW2  900   1.256   1.764   2.961  1.1477  1.2417  1.2961
  301SOL     OW  901   0.460   0.270   0.425  0.2609  0.1875  0.5126
  301SOL    HW1  902   0.358   0.248   0.439 -2.1870 -2.3163  2.5121
  301SOL    HW2  903   0.503   0.211   0.353 -1.7170 -0.4501 -0.4469
  302SOL     OW  904   1.197   2.292   2.351  0.5091  0.0969 -0.2013
  302SOL    HW1  905   1.132   2.358   2.385 -1.0084 -1.8318  0.1068
  302SOL    HW2  906   1.147   2.216   2.299  1.8918 -0.3333 -0.6206
  303SOL     OW  907   0.926   2.388   0.795 -0.0605 -0.2903 -0.0057
  303SOL    HW1  908   0.945   2.457   0.722 -1.8667  0.5474  1.4731
  303SOL    HW2  909   0.940   2.431   0.888 -0.8274  0.9327  0.4966
  304SOL     OW  910   0.077   2.041   0.681  0.5945  0.2013 -0.1175
  304SOL    HW1  911   0.126   1.972   0.616  1.7024  1.4045  2.6982
  304SOL    HW2  912   0.027   2.113   0.620 -4.3184  0.4116 -2.0186
  305SOL     OW  913   1.630   0.884   0.699 -0.1227  0.0917  0.0069
  305SOL    HW1  914   1.556   0.899   0.625  0.0184 -0.6243 -2.4542
  305SOL    HW2  915   1.696   0.816   0.657 -2.1996 -1.1914 -0.8981
  306SOL     OW  916   0.419   1.870   1.928  0.2853 -0.7322 -0.1390
  306SOL    HW1  917   0.490   1.812   1.874 -1.1875 -1.9049  1.0551
  306SOL    HW2  918   0.417   1.854   2.030 -1.1744 -1.4024  0.0588
  307SOL     OW  919   0.012   0.860   2.531  0.2767  0.2425  0.3259
  307SOL    HW1  920   0.021   0.958   2.566  1.6486 -0.5557 -1.6017
  307SOL    HW2  921  -0.073   0.819   2.571  2.3846 -2.8007 -0.1658
  308SOL     OW  922   1.569   2.693   2.821  0.0896  0.4964 -0.3074
  308SOL    HW1  923   1.583   2.658   2.724 -2.0004  3.0399  1.1213
  308SOL    HW2  924   1.483   2.651   2.867 -2.1420 -1.7657  1.3378
  309SOL     OW  925   1.246   0.029   1.802 -0.1746 -0.2530 -0.0273
  309SOL    HW1  926   1.336   0.006   1.844  0.3569 -2.1526 -2.3364
  309SOL    HW2  927   1.255   0.033   1.700  1.0459  0.0111 -3.6255
  310SOL     OW  928   1.315   2.684   0.734 -0.7664 -0.1355 -0.0162
  310SOL    HW1  929   1.296   2.772   0.789  4.4434 -0.8484  0.6062
  310SOL    HW2  930   1.371   2.707   0.646  0.9783  1.4073  1.6631
  311SOL     OW  931   1.220   0.954   1.436 -0.3764 -0.6250 -0.2101
  311SOL    HW1  932   1.288   0.938   1.357 -1.6437 -1.2166  1.5821
  311SOL    HW2  933   1.236   1.044   1.492  0.5176  1.1549  1.8705
  312SOL     OW  934   1.561   0.687   1.026  0.0790 -0.0437 -0.3207
  312SOL    HW1  935   1.523   0.783   1.038  0.0812  1.0490 -1.0400
  312SOL    HW2  936   1.494   0.625   0.976 -1.3612 -1.9028 -0.7737
  313SOL     OW  937   1.588   1.458   0.540 -0.5095 -0.0497  0.8973
  313SOL    HW1  938   1.498   1.493   0.496 -2.7305 -0.1687  1.0855
  313SOL    HW2  939   1.593   1.355   0.545 -1.8355 -1.1495 -1.1131
  314SOL     OW  940   2.922   0.064   3.005  0.1851 -0.8069 -0.0336
  314SOL    HW1  941   2.966   0.096   3.094  0.1538 -0.5538 -1.6583
  314SOL    HW2  942   2.864  -0.023   3.020 -2.1793  1.0084  2.3122
  315SOL     OW  943   1.245   0.232   2.772 -0.2236 -0.2986 -0.0209
  315SOL    HW1  944   1.213   0.162   2.705  1.5729 -1.5182  0.5728
  315SOL    HW2  945   1.276   0.186   2.862  3.7863 -0.2430 -0.6131
  316SOL     OW  946   1.680   2.062   0.914 -0.3497  0.1383 -0.2978
  316SOL    HW1  947   1.634   2.080   1.003 -0.3257 -0.9061  1.9326
  316SOL    HW2  948   1.699   2.157   0.867 -0.2292  0.0513 -1.4303
  317SOL     OW  949   1.149   0.716   2.825 -0.1842 -0.1648  0.3982
  317SOL    HW1  950   1.094   0.758   2.905 -1.3388  0.1784 -0.7414
  317SOL    HW2  951   1.110   0.622   2.806 -0.2046 -0.3269  0.8361
  318SOL     OW  952   1.402   3.077   2.264  0.0337 -0.1411  0.3039
  318SOL    HW1  953   1.316   3.125   2.231  2.1055 -0.6729  0.6794
  318SOL    HW2  954   1.460   3.033   2.194 -1.2268  0.7031  0.5290
  319SOL     OW  955   0.632   2.382   2.933 -0.2658 -0.2782  0.0902
  319SOL    HW1  956   0.541   2.350   2.964 -0.7365 -1.3447  1.2703
  319SOL    HW2  957   0.700   2.307   2.933 -1.4370 -0.9546  0.7513
  320SOL     OW  958   1.596   2.268   0.390  0.2145  0.2673 -0.0969
  320SOL    HW1  959   1.691   2.240   0.422 -0.4011 -1.1826 -2.7097
  320SOL    HW2  960   1.525   2.242   0.467  2.2076 -0.8798 -0.6553
  321SOL     OW  961   1.601   2.759   0.533  0.0210 -0.2827 -0.2273
  321SOL    HW1  962   1.511   2.797   0.489 -2.9268 -0.2783 -1.3143
  321SOL    HW2  963   1.685   2.821   0.520 -0.9821  0.9784  3.5591
  322SOL     OW  964   2.685   1.081   2.248 -0.4601  0.3288 -0.4055
  322SOL    HW1  965   2.745   1.093   2.336 -0.5894 -0.6440  3.5629
  322SOL    HW2  966   2.603   1.017   2.262 -0.4441  0.2922  0.9816
  323SOL     OW  967   1.030   2.699   0.859  0.0984 -0.0221 -0.1492
  323SOL    HW1  968   1.051   2.666   0.761  1.0529 -2.1704 -0.6625
  323SOL    HW2  969   1.015   2.800   0.862  0.3630  0.7243  0.4342
  324SOL     OW  970   0.093   2.508   2.452  0.4947 -0.2830 -0.3081
  324SOL    HW1  971   0.086   2.414   2.493 -0.0672 -0.7212  0.0310
  324SOL    HW2  972   0.039   2.583   2.505 -0.3520 -1.9166  3.1024
  325SOL     OW  973   1.194   3.073   0.475  0.6084  0.0202 -0.2687
  325SOL    HW1  974   1.215   3.119   0.383 -1.7497 -2.0571 -0.4451
  325SOL    HW2  975   1.220   3.118   0.562 -1.8119 -0.2640 -1.4366
  326SOL     OW  976   2.349   0.764   0.029  0.3467 -0.5997 -0.6572
  326SOL    HW1  977   2.246   0.749   0.013  0.8193 -1.6121  2.1275
  326SOL    HW2  978   2.397   0.682   0.071  2.0350  2.1702 -1.0765
  327SOL     OW  979   2.690   0.398   0.534  0.5110  0.0307 -0.0973
  327SOL    HW1  980   2.686   0.343   0.447 -0.2612  0.5188 -0.0432
  327SOL    HW2  981   2.609   0.384   0.602 -0.2087 -0.1542 -0.7120
  328SOL     OW  982   2.491   0.633   0.384 -0.8030 -0.5156  0.9771
  328SOL    HW1  983   2.405   0.679   0.421  0.5118 -1.2095 -2.1944
  328SOL    HW2  984   2.543   0.570   0.449  2.1514  2.7526 -1.0599
  329SOL     OW  985   2.976   2.960   2.154  0.5775  0.5776 -0.0082
  329SOL    HW1  986   3.033   2.913   2.227 -1.7221  0.2086 -0.9551
  329SOL    HW2  987   3.003   3.065   2.151  2.2989  0.2152  0.6466
  330SOL     OW  988   0.556   0.193   1.850  0.2861 -0.3595  0.5234
  330SOL    HW1  989   0.550   0.294   1.872  1.7348  0.3117 -0.4040
  330SOL    HW2  990   0.654   0.165   1.861  1.2745 -0.3395  0.0084
  331SOL     OW  991   2.928   1.901   1.104  0.1817  0.1102  0.3573
  331SOL    HW1  992   2.977   1.979   1.063 -0.1820 -2.0021  1.6383
  331SOL    HW2  993   2.864   1.933   1.181  0.5868 -1.0225  0.3860
  332SOL     OW  994   0.446   1.045   0.051 -0.0183  0.4581  0.2014
  332SOL    HW1  995   0.377   1.009  -0.016 -0.0214 -2.5281  0.1804
  332SOL    HW2  996   0.412   1.114   0.117 -0.5793 -2.2208 -1.9079
  333SOL     OW  997   2.858   1.057   0.257 -0.0990  0.0018 -0.0815
  333SOL    HW1  998   2.905   1.111   0.334  0.9596  1.0404  1.9927
  333SOL    HW2  999   2.911   0.972   0.225  2.6290  0.4769  0.2641
  334SOL     OW 1000   1.632   1.154   1.909 -0.3369 -0.3326 -0.4158
  334SOL    HW1 1001   1.714   1.125   1.847 -1.3347  2.5058  2.2783
  334SOL    HW2 1002   1.653   1.240   1.967  1.1159  0.1021 -0.1433
  335SOL     OW 1003   1.983   2.800   2.617 -0.4018 -0.0431  0.1066
  335SOL    HW1 1004   1.927   2.814   2.705 -2.1636  3.6861  1.9201
  335SOL    HW2 1005   2.059   2.872   2.599  1.5917  1.4609  0.3741
  336SOL     OW 1006   0.229   0.080   2.725  0.0338  0.2667  0.3512
  336SOL    HW1 1007   0.327   0.043   2.713 -0.8584  0.7655  0.6813
  336SOL    HW2 1008   0.214   0.153   2.796  1.5263  0.8495  0.4598
  337SOL     OW 1009   0.951   2.819   2.848 -0.2691  0.1834 -0.3505
  337SOL    HW1 1010   0.927   2.781   2.941  0.5238  2.2508 -2.4097
  337SOL    HW2 1011   1.038   2.779   2.809 -2.0394  0.8671 -0.3398
  338SOL     OW 1012   0.034   1.006   0.604  0.9335  0.1940 -0.0077
  338SOL    HW1 1013  -0.056   0.969   0.645 -1.3014 -0.1099  1.3962
  338SOL    HW2 1014   0.032   1.111   0.599 -3.1485  0.0215 -1.2139
  339SOL     OW 1015   1.682   1.367   2.078  0.1353 -0.5195  0.1429
  339SOL    HW1 1016   1.583   1.399   2.086  0.0506 -0.0157  0.8421
  339SOL    HW2 1017   1.750   1.445   2.067  1.0041  2.2218  0.9245
  340SOL     OW 1018   2.328   0.730   1.214  0.4823  0.3919 -0.2946
  340SOL    HW1 1019   2.240   0.766   1.175  1.1198 -0.8920 -1.5134
  340SOL    HW2 1020   2.370   0.648   1.159 -1.0376 -0.2173  0.1143
  341SOL     OW 1021   1.884   2.179   0.445  0.1942 -0.6944  0.4543
  341SOL    HW1 1022   1.901   2.196   0.346 -0.4199 -0.2052  0.8842
  341SOL    HW2 1023   1.968   2.184   0.502 -3.7266 -0.2190 -0.5973
  342SOL     OW 1024   2.208   2.153   2.799 -0.1553  0.5594 -0.7556
  342SOL    HW1 1025   2.276   2.075   2.831 -1.4050 -0.9554  1.3014
  342SOL    HW2 1026   2.113   2.126   2.818  0.1237  0.0018 -0.8906
  343SOL     OW 1027   0.337   0.890   2.860  0.3574 -0.0954 -0.5140
  343SOL    HW1 1028   0.333   0.953   2.775 -0.4827  2.8055 -1.0791
  343SOL    HW2 1029   0.439   0.864   2.882 -0.8973 -0.0909  1.9440
  344SOL     OW 1030   1.870   1.501   0.351  1.1298  0.2748 -0.0099
  344SOL    HW1 1031   1.839   1.410   0.316  1.1124 -0.2906  1.7096
  344SOL    HW2 1032   1.815   1.583   0.315  0.9602  0.4361  1.6901
  345SOL     OW 1033   1.403   2.195   2.857  0.0652 -0.2390 -0.4301
  345SOL    HW1 1034   1.313   2.170   2.810 -0.5376 -0.7627  0.5280
  345SOL    HW2 1035   1.488   2.167   2.803  0.0935  1.7128 -0.6279
  346SOL     OW 1036   2.429   0.897   1.405 -0.3814 -0.2002 -0.0957
  346SOL    HW1 1037   2.395   0.991   1.438 -0.0735 -0.6528 -0.1380
  346SOL    HW2 1038   2.368   0.854   1.333 -1.8622 -2.0812  1.4090
  347SOL     OW 1039   0.696   2.815   1.506  0.8962  0.0438  0.2449
  347SOL    HW1 1040   0.690   2.778   1.601  0.3401  2.1797 -0.7763
  347SOL    HW2 1041   0.614   2.878   1.486 -0.9386 -2.8492  1.1454
  348SOL     OW 1042   0.076   0.692   2.831  0.3695 -0.0373  0.5757
  348SOL    HW1 1043  -0.025   0.693   2.809 -0.3788  0.1074 -0.1228
  348SOL    HW2 1044   0.125   0.783   2.826 -1.0602  1.4355  0.5999
  349SOL     OW 1045   1.921   0.433   2.798 -0.0473 -0.7847  0.5826
  349SOL    HW1 1046   1.918   0.513   2.733 -0.9301 -0.6965 -0.6182
  349SOL    HW2 1047   1.864   0.454   2.882  0.2965  1.5141 -0.7856
  350SOL     OW 1048   1.644   0.385   0.375  0.0853 -0.0955  0.3078
  350SOL    HW1 1049   1.701   0.387   0.467  0.0749 -1.1382  1.9404
  350SOL    HW2 1050   1.609   0.475   0.334 -1.2184 -1.1882 -1.1075
  351SOL     OW 1051   0.907   0.940   2.145 -0.4008  0.1290 -0.2869
  351SOL    HW1 1052   0.931   1.030   2.097  1.3065 -0.4514  0.8978
  351SOL    HW2 1053   0.848   0.874   2.095 -1.1117 -0.3555  0.7760
  352SOL     OW 1054   1.981   1.381   0.579 -0.2041 -0.1884  0.2458
  352SOL    HW1 1055   1.946   1.425   0.497  2.4147 -1.7984  3.4959
  352SOL    HW2 1056   2.084   1.397   0.593 -0.7320  0.6425 -0.3102
  353SOL     OW 1057   2.129   2.832   1.173  0.1882  0.2096 -0.1914
  353SOL    HW1 1058   2.226   2.802   1.148  0.5313 -0.0729 -0.0307
  353SOL    HW2 1059   2.058   2.773   1.127 -0.3320 -1.8318  0.7911
  354SOL     OW 1060   0.283   1.359   2.910 -0.4002  0.3538 -0.0696
  354SOL    HW1 1061   0.255   1.435   2.843 -1.6349  0.7348  0.0302
  354SOL    HW2 1062   0.375   1.312   2.880  2.6696 -0.6801 -0.6210
  355SOL     OW 1063   0.466   1.486   0.573  0.2233 -0.0026  0.1197
  355SOL    HW1 1064   0.491   1.582   0.606 -0.6797 -0.4486 -0.3602
  355SOL    HW2 1065   0.550   1.424   0.567  1.1177  2.9323  0.4320
  356SOL     OW 1066   0.878   0.447   2.084  0.4467  0.3617  0.1654
  356SOL    HW1 1067   0.980   0.462   2.072 -0.5377 -0.1930 -0.2297
  356SOL    HW2 1068   0.837   0.384   2.016  0.0853 -0.2439 -0.1265
  357SOL     OW 1069   1.065   1.282   0.179 -0.1802 -0.0730  0.4764
  357SOL    HW1 1070   1.032   1.234   0.093  0.9951 -0.2790  2.1166
  357SOL    HW2 1071   1.004   1.261   0.256  0.8982  3.1345  0.7008
  358SOL     OW 1072   1.638   1.651   0.328  0.3233 -0.2984  0.6009
  358SOL    HW1 1073   1.633   1.557   0.374  1.8919  0.6516 -0.5012
  358SOL    HW2 1074   1.558   1.715   0.352  0.4297 -1.4192  0.1770
  359SOL     OW 1075   1.566   2.711   0.161  0.3270  0.3039  0.3773
  359SOL    HW1 1076   1.603   2.643   0.090 -2.8356 -2.1709  1.3587
  359SOL    HW2 1077   1.469   2.695   0.180 -1.9501  1.1355  0.9491
  360SOL     OW 1078   0.893   0.598   0.476  0.4421  0.1292  0.5331
  360SOL    HW1 1079   0.804   0.612   0.530  0.1593  1.0465  2.5134
  360SOL    HW2 1080   0.911   0.502   0.460 -2.3550  2.6857 -0.3172
  361SOL     OW 1081   1.252   1.377   0.644  0.0962  0.7587  0.1602
  361SOL    HW1 1082   1.298   1.399   0.736 -2.4762 -1.2721 -0.2870
  361SOL    HW2 1083   1.150   1.385   0.645  0.0652 -1.6483 -0.6350
  362SOL     OW 1084   1.394   1.760   0.773 -0.0374 -0.0109  0.3518
  362SOL    HW1 1085   1.393   1.727   0.873 -0.4220  0.1518  2.6152
  362SOL    HW2 1086   1.465   1.836   0.761 -2.3510  4.1525 -0.4495
  363SOL     OW 1087   1.140   1.356   2.018  0.1184  0.5527 -0.5957
  363SOL    HW1 1088   1.102   1.442   2.067 -1.0409  0.5876  0.0063
  363SOL    HW2 1089   1.184   1.376   1.925  1.7023 -0.5445  0.6152
  364SOL     OW 1090   0.591   2.332   1.984  0.2264 -0.1550 -0.4563
  364SOL    HW1 1091   0.490   2.345   1.972  1.0013  1.8956 -1.5466
  364SOL    HW2 1092   0.641   2.380   1.908 -0.6830  0.7000 -0.7663
  365SOL     OW 1093   1.131   1.876   1.423  0.0013  0.6089 -0.4105
  365SOL    HW1 1094   1.040   1.895   1.474 -0.4401 -0.1841  0.5229
  365SOL    HW2 1095   1.145   1.776   1.403 -0.0112  1.4620 -1.8822
  366SOL     OW 1096   2.792   2.052   0.462 -0.1140 -0.0571  0.2496
  366SOL    HW1 1097   2.708   1.993   0.469  1.1288  2.2848  0.6859
  366SOL    HW2 1098   2.880   1.995   0.443  0.4253 -1.9953 -1.0232
  367SOL     OW 1099   0.782   1.211   0.057 -0.2554 -0.0226  0.2835
  367SOL    HW1 1100   0.783   1.124   0.114  2.4260  2.5119  1.9868
  367SOL    HW2 1101   0.819   1.186  -0.039 -1.0108  2.4239 -1.2670
  368SOL     OW 1102   1.544   0.522   0.660  0.6551 -0.1776  0.5781
  368SOL    HW1 1103   1.486   0.555   0.581  1.4369 -0.6068 -0.2466
  368SOL    HW2 1104   1.645   0.511   0.641 -0.1338  0.1515  2.8312
  369SOL     OW 1105   0.303   1.682   0.093 -0.2390 -0.1975  0.0509
  369SOL    HW1 1106   0.291   1.779   0.122  0.2057  2.4654  0.0462
  369SOL    HW2 1107   0.217   1.619   0.111 -0.5409 -4.0756 -0.3806
  370SOL     OW 1108   0.462   2.131   0.974 -0.3639 -0.1131 -0.1946
  370SOL    HW1 1109   0.473   2.230   0.944 -0.9826 -0.7381  0.4595
  370SOL    HW2 1110   0.362   2.104   0.968 -0.5579 -1.1892 -1.1634
  371SOL     OW 1111   2.920   2.226   2.787 -0.2547  0.0308  0.0389
  371SOL    HW1 1112   2.940   2.205   2.882  2.2744 -1.1153 -1.8600
  371SOL    HW2 1113   3.009   2.243   2.730 -0.1164  0.2073 -1.5667
  372SOL     OW 1114   0.898   1.888   0.996 -0.1185 -0.1246 -0.0909
  372SOL    HW1 1115   0.844   1.977   0.991  1.5155 -0.5642 -2.9545
  372SOL    HW2 1116   0.983   1.899   0.938  0.1249 -1.6289  0.4249
  373SOL     OW 1117   1.942   1.975   0.937  0.0787  0.5902  0.1488
  373SOL    HW1 1118   2.005   2.017   1.008  3.3048  1.5872 -1.5054
  373SOL    HW2 1119   1.844   2.009   0.943 -0.3465 -0.1258  0.8408
  374SOL     OW 1120   1.825   0.405   0.577 -0.4377  0.0465  0.1139
  374SOL    HW1 1121   1.814   0.338   0.657 -2.1635  0.5184 -0.9011
  374SOL    HW2 1122   1.919   0.380   0.531  2.5848 -0.7438 -2.3601
  375SOL     OW 1123   2.467   2.283   1.077 -0.2948  0.1023  0.0689
  375SOL    HW1 1124   2.497   2.238   0.990  0.9041 -0.3875 -1.6116
  375SOL    HW2 1125   2.480   2.221   1.159  3.0386 -1.8038 -2.2372
  376SOL     OW 1126   3.082   0.635   1.427  0.0902 -0.0537 -0.3599
  376SOL    HW1 1127   3.132   0.705   1.484  0.0994  1.5901 -0.8176
  376SOL    HW2 1128   2.976   0.641   1.441  0.5102  0.0335 -1.4650
  377SOL     OW 1129   2.238   2.835   0.349  0.3859  0.3338  0.2524
  377SOL    HW1 1130   2.216   2.901   0.274  0.3614 -3.4019 -0.8745
  377SOL    HW2 1131   2.339   2.840   0.375  1.8897  0.7115  1.9840
  378SOL     OW 1132   1.893   1.858   2.665  0.2825  0.0539  0.1956
  378SOL    HW1 1133   1.923   1.767   2.712  0.1931 -2.6287  1.0170
  378SOL    HW2 1134   1.875   1.835   2.568  1.4509  1.2203 -0.7956
  379SOL     OW 1135   0.880   0.120   2.727 -0.0856 -0.4951  0.3709
  379SOL    HW1 1136   0.854   0.021   2.721 -0.2843  1.3535 -0.6697
  379SOL    HW2 1137   0.805   0.186   2.701  0.1705 -0.1954  0.5219
  380SOL     OW 1138   1.551   1.167   0.543 -0.2885  0.4383  0.2547
  380SOL    HW1 1139   1.524   1.100   0.470 -0.5695 -1.0195 -1.0395
  380SOL    HW2 1140   1.477   1.165   0.614  0.5548  0.8690 -0.1375
  381SOL     OW 1141   1.284   1.217   1.492 -0.3632 -0.0211 -0.4120
  381SOL    HW1 1142   1.315   1.278   1.414  0.8839 -2.0369 -0.4706
  381SOL    HW2 1143   1.299   1.259   1.586  1.4833 -0.6395  2.6296
  382SOL     OW 1144   1.785   0.804   0.267  0.3610 -0.0463  0.6986
  382SOL    HW1 1145   1.787   0.805   0.165 -1.3863 -4.7036 -0.8105
  382SOL    HW2 1146   1.849   0.739   0.313 -0.5833  2.0407  0.7896
  383SOL     OW 1147   2.678   0.997   1.565 -0.3053  0.0603  0.0191
  383SOL    HW1 1148   2.599   0.981   1.500 -3.2630 -0.5283 -1.4013
  383SOL    HW2 1149   2.769   0.990   1.509 -1.0680 -0.7200  0.0576
  384SOL     OW 1150   1.025   2.292   0.162 -0.2872  0.0169 -0.0157
  384SOL    HW1 1151   0.943   2.352   0.160  1.9636 -3.7411  2.1534
  384SOL    HW2 1152   1.011   2.215   0.233  1.0535 -2.5168  1.1409
  385SOL     OW 1153   3.015   2.056   1.709  0.2273  0.1412 -0.2775
  385SOL    HW1 1154   3.071   2.149   1.710 -1.6264  1.6090  1.4510
  385SOL    HW2 1155   3.060   1.970   1.670 -3.6206 -2.3722 -3.3027
  386SOL     OW 1156   0.456   1.078   0.428  0.4704 -0.2995 -0.1145
  386SOL    HW1 1157   0.452   0.975   0.420 -1.3682  3.0042 -0.4831
  386SOL    HW2 1158   0.382   1.122   0.373  0.0272 -0.2764  2.3605
  387SOL     OW 1159   0.976   0.375   1.674 -0.4516 -0.2790 -0.2135
  387SOL    HW1 1160   1.062   0.432   1.682  2.1962  2.1327  0.6900
  387SOL    HW2 1161   0.987   0.308   1.595 -1.6156 -0.6915  2.5206
  388SOL     OW 1162   1.257   2.592   1.776 -0.0307  0.2973  0.4222
  388SOL    HW1 1163   1.279   2.579   1.673  0.2460 -1.7592  0.1607
  388SOL    HW2 1164   1.296   2.510   1.829  0.0323  0.5557 -1.5288
  389SOL     OW 1165   0.273   0.041   1.140  0.3604  0.2186  0.2794
  389SOL    HW1 1166   0.236   0.026   1.233  0.1031 -1.3962 -0.9388
  389SOL    HW2 1167   0.325  -0.044   1.110 -0.6968  1.1544  1.5764
  390SOL     OW 1168   1.067   0.832   1.200 -0.7616 -0.2506  0.8777
  390SOL    HW1 1169   1.165   0.797   1.208  1.3373  1.1695 -1.1106
  390SOL    HW2 1170   1.026   0.854   1.294  0.3074  1.9214 -2.0300
  391SOL     OW 1171   2.135   1.173   1.017  0.3120  0.3219 -0.3659
  391SOL    HW1 1172   2.074   1.108   1.064  1.4792  0.8788 -0.1842
  391SOL    HW2 1173   2.192   1.129   0.943 -0.1731  0.4291 -2.5538
  392SOL     OW 1174   0.916   2.691   0.017 -0.0977 -0.0958 -0.0587
  392SOL    HW1 1175   0.838   2.705   0.088  0.2604 -1.9516  1.7668
  392SOL    HW2 1176   1.001   2.753   0.041  0.9316 -1.9626  2.4008
  393SOL     OW 1177   0.342   0.569   1.981  0.0012 -0.2153  0.1572
  393SOL    HW1 1178   0.279   0.519   1.918 -0.1602  0.4388 -0.5117
  393SOL    HW2 1179   0.442   0.550   1.956  1.8116 -1.3745 -0.0787
  394SOL     OW 1180   2.837   1.763   2.748  0.3390 -0.7958  0.0974
  394SOL    HW1 1181   2.907   1.783   2.680 -2.5133  1.3832  0.0433
  394SOL    HW2 1182   2.797   1.848   2.786 -0.7100  0.0341  0.4344
  395SOL     OW 1183   1.569   1.940   0.688  0.5858  0.0643 -0.3030
  395SOL    HW1 1184   1.632   1.872   0.637  2.1891 -2.2811 -3.4017
  395SOL    HW2 1185   1.623   1.977   0.772  1.7752 -0.9836  1.8249
  396SOL     OW 1186   2.773   2.024   1.307  0.2354  0.2493  0.0494
  396SOL    HW1 1187   2.771   2.079   1.395 -1.6433  2.3627 -4.0045
  396SOL    HW2 1188   2.684   1.971   1.296  0.1603 -0.1125 -0.3606
  397SOL     OW 1189   0.985   2.135   0.679  0.0972 -0.3044 -0.1610
  397SOL    HW1 1190   0.911   2.106   0.615  2.3899 -1.2482 -0.3042
  397SOL    HW2 1191   0.969   2.235   0.716 -1.8865  0.7249  3.0720
  398SOL     OW 1192   2.208   0.004   1.079 -0.6105  0.5517  0.2311
  398SOL    HW1 1193   2.160  -0.086   1.111  0.6997  0.2092  2.6374
  398SOL    HW2 1194   2.148   0.085   1.082 -1.1482 -0.2559 -3.5925
  399SOL     OW 1195   2.874   2.602   2.753  0.2950  0.2113 -0.5213
  399SOL    HW1 1196   2.826   2.571   2.669  2.4162  1.2188 -1.4189
  399SOL    HW2 1197   2.866   2.531   2.825 -1.4174 -0.2453  0.2322
  400SOL     OW 1198   0.809   1.583   1.288 -0.2948  0.2012 -0.1883
  400SOL    HW1 1199   0.774   1.624   1.374  0.1102 -0.3955  0.7435
  400SOL    HW2 1200   0.768   1.633   1.206 -2.9336 -1.8054 -0.8301
  401SOL     OW 1201   1.865   0.108   1.296  0.2583 -0.5368 -0.1311
  401SOL    HW1 1202   1.923   0.142   1.377  0.1404  0.1605 -0.4740
  401SOL    HW2 1203   1.772   0.077   1.332 -1.9135 -1.4276 -1.3349
  402SOL     OW 1204   1.349   0.188   3.035  0.3326  0.6614 -0.0018
  402SOL    HW1 1205   1.456   0.178   3.014  2.8671 -4.0980  0.0506
  402SOL    HW2 1206   1.318   0.282   3.074 -3.3927 -1.0493 -0.2028
  403SOL     OW 1207   2.265   1.802   1.001 -0.0849 -0.6928  0.2111
  403SOL    HW1 1208   2.363   1.819   1.026  0.7881 -3.0939  1.2955
  403SOL    HW2 1209   2.202   1.885   1.019  0.9238  1.1403 -0.8632
  404SOL     OW 1210   0.221   2.450   2.754  0.0768 -0.2832 -0.4398
  404SOL    HW1 1211   0.322   2.434   2.726  4.1859  1.1269  0.4753
  404SOL    HW2 1212   0.193   2.549   2.756 -0.8783 -0.2412  3.5478
  405SOL     OW 1213   0.201   2.523   0.569  0.6005 -0.4455  0.2849
  405SOL    HW1 1214   0.234   2.428   0.539  0.6718  1.9696 -1.6481
  405SOL    HW2 1215   0.279   2.588   0.599 -0.4557  0.1037  1.2349
  406SOL     OW 1216   0.019   1.584   2.996 -0.0590 -0.2707 -0.5776
  406SOL    HW1 1217   0.071   1.533   2.922 -0.8014 -2.2421  1.3134
  406SOL    HW2 1218   0.027   1.541   3.087 -0.1960 -0.2187 -0.1571
  407SOL     OW 1219   1.558   0.977   0.955 -0.1547  0.1206 -0.1281
  407SOL    HW1 1220   1.562   0.943   0.856  2.3506 -1.3181  1.5786
  407SOL    HW2 1221   1.473   1.036   0.969  0.4409 -0.6097 -2.9214
  408SOL     OW 1222   1.443   2.316   0.944 -0.4027  1.0861 -0.2161
  408SOL    HW1 1223   1.531   2.312   0.888 -2.4174 -0.6529  1.8643
  408SOL    HW2 1224   1.436   2.395   1.012  1.4060  0.4827  1.7739
  409SOL     OW 1225   0.626   0.874   0.675  0.1240  0.1648  0.2630
  409SOL    HW1 1226   0.544   0.873   0.605 -0.4757  2.1580 -1.9490
  409SOL    HW2 1227   0.675   0.778   0.671 -0.1095 -1.1993 -3.3972
  410SOL     OW 1228   1.365   1.994   1.504 -0.3779  0.2884 -0.0445
  410SOL    HW1 1229   1.339   2.088   1.545 -0.8874  0.2017  1.4951
  410SOL    HW2 1230   1.278   1.948   1.474 -1.0158 -3.8078 -1.9488
  411SOL     OW 1231   2.390   1.844   0.062 -0.4933 -0.0204 -0.0927
  411SOL    HW1 1232   2.318   1.886   0.001 -2.9560  1.7111  0.8545
  411SOL    HW2 1233   2.488   1.855   0.028 -2.3807  2.4225  1.3124
  412SOL     OW 1234   1.578   2.411   2.301 -0.6822 -0.2586 -0.3684
  412SOL    HW1 1235   1.579   2.513   2.315 -2.2176 -0.3051  3.3215
  412SOL    HW2 1236   1.549   2.350   2.383  0.5733 -0.0091  2.0154
  413SOL     OW 1237   3.032   0.294   2.854 -0.0392  0.2967 -0.0445
  413SOL    HW1 1238   2.973   0.221   2.895  0.0611 -2.1455  1.4173
  413SOL    HW2 1239   3.133   0.283   2.878  0.7706  0.8858  3.0942
  414SOL     OW 1240   1.757   1.313   1.319  0.3448 -0.2239 -0.0034
  414SOL    HW1 1241   1.690   1.389   1.327  3.9325 -2.0848 -0.7584
  414SOL    HW2 1242   1.772   1.283   1.222 -0.0651 -1.6207 -2.7266
  415SOL     OW 1243   0.274   2.259   0.716  0.4471  0.4593  0.4976
  415SOL    HW1 1244   0.248   2.351   0.736  1.7950 -1.3822 -2.1867
  415SOL    HW2 1245   0.207   2.194   0.677  0.8028 -2.0463 -0.3056
  416SOL     OW 1246   0.341   1.024   1.043 -0.2832  0.2890 -0.6142
  416SOL    HW1 1247   0.303   0.999   0.946 -1.4106 -1.8728 -0.4869
  416SOL    HW2 1248   0.423   1.085   1.036  0.0986 -4.3378 -1.8759
  417SOL     OW 1249   2.171   2.345   1.884  0.1635 -0.0415 -0.1396
  417SOL    HW1 1250   2.208   2.248   1.895  0.7771 -1.3544 -0.8503
  417SOL    HW2 1251   2.071   2.341   1.916 -0.2084  0.3463  0.5030
  418SOL     OW 1252   1.117   0.499   1.378 -0.5034 -0.5975  0.3711
  418SOL    HW1 1253   1.036   0.432   1.356  0.8981 -1.4406  0.6297
  418SOL    HW2 1254   1.193   0.505   1.302  2.1901 -0.1828 -3.2675
  419SOL     OW 1255   0.952   0.367   2.984  0.1844 -0.2698 -0.2073
  419SOL    HW1 1256   1.020   0.402   2.913 -1.1410  2.0631 -1.0447
  419SOL    HW2 1257   0.920   0.271   2.975  0.8382  0.0127 -1.2124
  420SOL     OW 1258   0.185   2.273   0.360  0.0168 -0.0277 -0.2636
  420SOL    HW1 1259   0.160   2.256   0.261  2.0434  0.9908  0.9533
  420SOL    HW2 1260   0.101   2.287   0.412  1.0869 -1.7654 -1.1242
  421SOL     OW 1261   0.332   0.068   0.689 -0.0613  0.2217 -0.0435
  421SOL    HW1 1262   0.343  -0.018   0.628 -0.7772  0.0557 -1.7397
  421SOL    HW2 1263   0.424   0.116   0.699  1.1767 -0.1310  1.6082
  422SOL     OW 1264   0.941   2.526   1.050  0.0249 -0.0943  0.2382
  422SOL    HW1 1265   0.944   2.617   1.002  0.9047  1.2329  0.2588
  422SOL    HW2 1266   0.968   2.523   1.154 -2.1870  0.3629  2.7620
  423SOL     OW 1267   0.047   0.715   1.163  0.0549  0.4198  0.5795
  423SOL    HW1 1268  -0.001   0.648   1.228 -0.1846 -1.0998 -1.6174
  423SOL    HW2 1269  -0.019   0.766   1.099 -2.6690  3.8845 -0.2896
  424SOL     OW 1270   0.971   2.132   2.233 -0.1132 -0.1068 -0.0530
  424SOL    HW1 1271   0.946   2.193   2.156 -1.4645  0.8774 -0.6055
  424SOL    HW2 1272   0.914   2.147   2.318  0.3528 -1.1939  0.0541
  425SOL     OW 1273   1.997   1.437   1.099 -0.4709  0.1137 -0.1303
  425SOL    HW1 1274   2.045   1.348   1.079  1.0672 -0.6456 -1.2212
  425SOL    HW2 1275   2.035   1.510   1.035  1.8946 -4.5534 -1.1583
  426SOL     OW 1276   1.546   1.544   1.386  0.7796  0.0603  0.2357
  426SOL    HW1 1277   1.503   1.628   1.346  0.9063  1.6651  0.9740
  426SOL    HW2 1278   1.549   1.546   1.488 -0.6070 -0.5213 -0.9997
  427SOL     OW 1279   1.945   2.350   2.037 -0.6137 -0.2039 -0.1162
  427SOL    HW1 1280   1.989   2.303   2.118 -0.8362 -0.1182 -0.4054
  427SOL    HW2 1281   1.948   2.458   2.048 -2.5036  3.6344  0.4027
  428SOL     OW 1282   0.917   3.087   0.060 -0.2820 -0.3449  0.4185
  428SOL    HW1 1283   0.959   3.162   0.117  2.0356  1.3204 -0.6059
  428SOL    HW2 1284   0.970   3.000   0.065 -1.7836  0.6021  0.6371
  429SOL     OW 1285   1.275   0.057   0.234  0.6261  0.4426  0.5674
  429SOL    HW1 1286   1.356   0.120   0.211 -1.1436 -2.4196 -1.4703
  429SOL    HW2 1287   1.282  -0.028   0.174 -1.2437 -1.4450 -0.9973
  430SOL     OW 1288   2.780   1.491   0.334 -0.1041  0.4279  0.1092
  430SOL    HW1 1289   2.712   1.550   0.286  1.7435 -2.2485 -0.0662
  430SOL    HW2 1290   2.805   1.531   0.429  2.2303 -0.0502  2.4153
  431SOL     OW 1291   2.109   1.613   0.903  0.4851 -0.2838 -0.8855
  431SOL    HW1 1292   2.178   1.675   0.954  0.3043  1.0687  0.9346
  431SOL    HW2 1293   2.022   1.666   0.879  2.1302  0.2368 -1.4754
  432SOL     OW 1294   2.895   2.265   1.219 -0.5121  0.4139 -0.4047
  432SOL    HW1 1295   2.855   2.169   1.237  2.8172  1.4514 -1.8876
  432SOL    HW2 1296   2.935   2.318   1.302 -0.7913  0.3176 -0.0439
  433SOL     OW 1297   1.852   0.257   0.809  0.1468 -0.0867  0.1176
  433SOL    HW1 1298   1.771   0.246   0.879  1.5242  0.2099  0.6119
  433SOL    HW2 1299   1.940   0.276   0.863  2.0625  0.6256 -0.2963
  434SOL     OW 1300   1.499   0.241   0.721  0.3062  0.3832 -0.3902
  434SOL    HW1 1301   1.514   0.342   0.689 -0.0586 -1.0537 -0.8274
  434SOL    HW2 1302   1.531   0.220   0.812  1.0280  0.5836 -0.0610
  435SOL     OW 1303   1.422   1.465   2.090 -0.2524  0.2613  0.1401
  435SOL    HW1 1304   1.386   1.459   2.189  0.3240  1.1540 -0.4868
  435SOL    HW2 1305   1.368   1.532   2.030  1.9054 -0.6623  1.2521
  436SOL     OW 1306   1.648   2.690   2.394 -0.2777  0.2078 -0.0451
  436SOL    HW1 1307   1.654   2.789   2.418  1.4082  0.1465 -1.5898
  436SOL    HW2 1308   1.599   2.637   2.467 -2.6681 -0.8175 -1.0531
  437SOL     OW 1309   0.985   2.960   0.891  0.1320  0.0340 -0.2422
  437SOL    HW1 1310   0.944   3.050   0.858  2.3195  1.8897  0.7837
  437SOL    HW2 1311   1.041   2.977   0.980 -2.5868 -1.4329  0.0908
  438SOL     OW 1312   0.993   2.518   1.316  0.3592 -0.1658  0.1929
  438SOL    HW1 1313   1.073   2.571   1.356 -0.3236  2.1879 -1.9043
  438SOL    HW2 1314   0.998   2.421   1.346 -0.3871  0.4134  0.9545
  439SOL     OW 1315   0.706   1.684   1.042  0.2648  0.3222 -0.2909
  439SOL    HW1 1316   0.774   1.764   1.036  0.4816  1.3544  0.2934
  439SOL    HW2 1317   0.612   1.708   1.082  0.6247  0.5122  0.3321
  440SOL     OW 1318   0.953   2.375   1.995 -0.2097  0.3456  0.3020
  440SOL    HW1 1319   0.912   2.441   1.931  0.3047 -2.2187 -0.1230
  440SOL    HW2 1320   1.015   2.306   1.946  0.4999  0.2091  2.3309
  441SOL     OW 1321   0.356   2.792   1.323  0.7859 -0.5540 -0.0088
  441SOL    HW1 1322   0.396   2.696   1.328  0.2095  0.6887 -1.7799
  441SOL    HW2 1323   0.358   2.829   1.223  0.8040  2.0823 -0.8167
  442SOL     OW 1324   2.236   0.686   2.558 -0.3397 -0.4538  0.0389
  442SOL    HW1 1325   2.259   0.590   2.526  2.3624 -1.2803  0.0921
  442SOL    HW2 1326   2.145   0.721   2.526  2.5080  0.7371 -1.3732
  443SOL     OW 1327   1.262   2.566   2.191 -0.2853 -0.0983 -0.5183
  443SOL    HW1 1328   1.244   2.465   2.217  0.3972 -0.1784 -1.3232
  443SOL    HW2 1329   1.232   2.633   2.266 -2.3081  1.0299 -0.6839
  444SOL     OW 1330   0.952   1.187   1.486  0.1678  0.2398  0.0314
  444SOL    HW1 1331   1.049   1.154   1.479  2.2838  1.1534 -0.0106
  444SOL    HW2 1332   0.939   1.285   1.452  1.2458  3.2140  0.0632
  445SOL     OW 1333   0.147   2.224   2.102  0.0972  0.6683  0.2284
  445SOL    HW1 1334   0.186   2.129   2.090  1.0592  1.2749 -0.3625
  445SOL    HW2 1335   0.101   2.239   2.190  2.0703 -1.6540  2.8510
  446SOL     OW 1336   0.116   1.945   2.408  0.3812 -0.0034 -0.1506
  446SOL    HW1 1337   0.101   2.047   2.396 -0.9764 -0.9183 -0.7529
  446SOL    HW2 1338   0.099   1.895   2.322  0.1453  1.3503  0.5280
  447SOL     OW 1339   1.302   1.671   1.911  0.1589  0.7918 -0.5153
  447SOL    HW1 1340   1.240   1.740   1.864  0.7639  3.6702  3.0686
  447SOL    HW2 1341   1.391   1.711   1.949 -0.4908  0.6305  0.5342
  448SOL     OW 1342   0.166   1.473   1.997  0.4293 -0.2188  0.0650
  448SOL    HW1 1343   0.171   1.567   1.955  0.1438  0.7311  0.6634
  448SOL    HW2 1344   0.096   1.465   2.081 -0.6954 -0.8238  0.6563
  449SOL     OW 1345   1.848   2.969   0.827 -0.4307 -0.4638 -0.5370
  449SOL    HW1 1346   1.846   3.016   0.923  0.3289  0.5448 -0.6336
  449SOL    HW2 1347   1.912   2.886   0.833  1.9112 -4.2035 -0.2661
  450SOL     OW 1348   2.242   1.492   0.686  0.1479 -0.2622  0.0640
  450SOL    HW1 1349   2.185   1.526   0.767  1.9244  1.5248  2.0595
  450SOL    HW2 1350   2.287   1.574   0.634  2.5799  0.4503 -1.5751
  451SOL     OW 1351   1.415   2.977   1.475  0.3957  0.1525 -0.8543
  451SOL    HW1 1352   1.361   3.056   1.516 -1.2523 -0.5876  1.9568
  451SOL    HW2 1353   1.455   2.914   1.545  0.5673  0.9334  0.2450
  452SOL     OW 1354   2.702   2.308   2.275 -0.5601  0.0038 -0.2194
  452SOL    HW1 1355   2.636   2.386   2.266  1.3236  1.7529 -0.5096
  452SOL    HW2 1356   2.710   2.283   2.375  0.6897  1.0584 -0.8531
  453SOL     OW 1357   2.453   2.654   0.011 -0.1719 -0.4247 -0.0279
  453SOL    HW1 1358   2.358   2.704   0.031  1.1405  1.8144  1.2922
  453SOL    HW2 1359   2.445   2.567  -0.045  0.4154  2.7086 -0.8145
  454SOL     OW 1360   0.912   1.187   2.002  0.3548  0.2799 -0.2640
  454SOL    HW1 1361   0.898   1.171   1.901  1.9038  1.1891 -0.4238
  454SOL    HW2 1362   0.995   1.249   2.016  0.7303  1.9078 -0.3337
  455SOL     OW 1363   0.699   2.621   2.818 -0.2311  0.1047 -0.0900
  455SOL    HW1 1364   0.801   2.645   2.829  2.9952 -0.3417 -2.7646
  455SOL    HW2 1365   0.688   2.530   2.865  2.1612 -0.1037  1.8464
  456SOL     OW 1366   0.304   1.928   0.218 -0.1227  0.0131  0.0118
  456SOL    HW1 1367   0.406   1.935   0.199 -0.2532 -1.2377 -0.7432
  456SOL    HW2 1368   0.254   2.018   0.195  1.4550  1.4044 -1.6629
  457SOL     OW 1369   0.418   2.673   0.659 -0.3438  0.9481  0.0903
  457SOL    HW1 1370   0.470   2.699   0.570 -1.4262  0.5962  0.8615
  457SOL    HW2 1371   0.481   2.622   0.721 -0.7797 -1.4754 -1.5678
  458SOL     OW 1372   2.927   0.020   1.276 -0.3823  0.0572  0.1798
  458SOL    HW1 1373   2.986   0.102   1.260 -0.2879 -1.9291  0.2278
  458SOL    HW2 1374   2.934  -0.056   1.204 -0.1996  0.0233  1.8170
  459SOL     OW 1375   2.143   2.529   0.722  0.2781  0.1928 -0.2863
  459SOL    HW1 1376   2.222   2.516   0.791  0.5478 -0.9365  0.7414
  459SOL    HW2 1377   2.186   2.573   0.639 -0.6304  1.2425 -1.8533
  460SOL     OW 1378   1.154   2.040   2.782 -0.2753 -0.3475 -0.7024
  460SOL    HW1 1379   1.178   2.066   2.685 -0.2106  1.4223 -0.6194
  460SOL    HW2 1380   1.186   1.942   2.811  0.4382 -0.7241  0.6888
  461SOL     OW 1381   0.468   2.138   2.732  0.3518  0.2155 -0.5380
  461SOL    HW1 1382   0.415   2.073   2.669 -3.8268 -2.5385 -1.4641
  461SOL    HW2 1383   0.514   2.083   2.810 -1.8016 -1.8316  1.6170
  462SOL     OW 1384   0.938   1.027   1.735 -0.0190 -0.2291  0.6219
  462SOL    HW1 1385   0.921   0.959   1.655  0.5585  0.5997 -1.1733
  462SOL    HW2 1386   0.890   1.121   1.723  0.6403  1.8442 -1.0174
  463SOL     OW 1387   0.423   0.800   0.477 -0.3237  0.3200 -0.0377
  463SOL    HW1 1388   0.449   0.710   0.428 -0.7007 -0.8616 -0.4748
  463SOL    HW2 1389   0.317   0.809   0.473  0.8439 -0.0081 -0.8704
  464SOL     OW 1390   0.577   2.363   2.284  0.7623  0.2463  0.0578
  464SOL    HW1 1391   0.526   2.426   2.347  1.3640  1.3965 -0.3865
  464SOL    HW2 1392   0.568   2.392   2.188  3.4685 -0.3865 -0.7999
  465SOL     OW 1393   0.236   0.974   0.787 -0.3311 -0.0385 -0.0992
  465SOL    HW1 1394   0.170   0.991   0.707 -0.7033  0.2688  0.5388
  465SOL    HW2 1395   0.260   0.871   0.804  2.5513  0.1589  0.3868
  466SOL     OW 1396   1.329   1.137   0.954  0.0943 -0.0201  1.1229
  466SOL    HW1 1397   1.324   1.242   0.961 -0.4978  0.4503  0.0776
  466SOL    HW2 1398   1.241   1.094   0.984 -0.1085  1.4814 -0.8351
  467SOL     OW 1399   0.639   0.478   2.555 -0.2846 -0.5073 -0.3814
  467SOL    HW1 1400   0.549   0.537   2.561 -1.3196  0.8064 -0.6003
  467SOL    HW2 1401   0.633   0.381   2.594  0.1577  0.4765  1.5740
  468SOL     OW 1402   0.444   2.268   1.565  0.4848 -0.3309  0.0938
  468SOL    HW1 1403   0.521   2.331   1.601  0.2504  1.1676  0.2721
  468SOL    HW2 1404   0.442   2.266   1.461  0.5183 -1.9660  0.1392
  469SOL     OW 1405   1.446   1.341   1.249  0.0274  0.2013 -0.3704
  469SOL    HW1 1406   1.515   1.299   1.180  1.8691  4.1464 -2.5248
  469SOL    HW2 1407   1.482   1.418   1.305 -0.9960 -0.7465 -1.4560
  470SOL     OW 1408   2.995   1.812   0.814  0.1565 -0.2596 -0.1933
  470SOL    HW1 1409   3.046   1.872   0.744  1.5695  2.1076  1.8070
  470SOL    HW2 1410   3.034   1.820   0.907 -1.2496 -0.3818 -2.1918
  471SOL     OW 1411   2.665   1.380   2.197 -0.6184  0.0071 -0.0180
  471SOL    HW1 1412   2.656   1.275   2.195  0.1799  1.6882 -0.7963
  471SOL    HW2 1413   2.757   1.407   2.237 -0.0829 -1.8892 -0.1299
  472SOL     OW 1414   1.217   2.439   0.034 -0.6219  0.4214 -0.4580
  472SOL    HW1 1415   1.282   2.471   0.108 -1.1915  2.0960  0.1369
  472SOL    HW2 1416   1.145   2.380   0.076  0.6275  1.0219 -0.3025
  473SOL     OW 1417   1.077   1.517   0.999  0.1788  0.3254 -0.2600
  473SOL    HW1 1418   0.995   1.526   0.939  1.6441 -0.1336 -0.0979
  473SOL    HW2 1419   1.064   1.452   1.078  0.5498 -0.6277  0.6422
  474SOL     OW 1420   0.627   1.280   0.489 -0.2920  0.4063  0.1532
  474SOL    HW1 1421   0.549   1.214   0.463  0.6617 -0.6538  0.0724
  474SOL    HW2 1422   0.695   1.219   0.539  0.2257  3.5537  0.7969
  475SOL     OW 1423   2.832   0.058   0.823 -0.5319  0.2118  0.0260
  475SOL    HW1 1424   2.883   0.149   0.817 -1.0858  0.4741  2.9650
  475SOL    HW2 1425   2.739   0.059   0.869  1.1324 -0.5852 -0.2631
  476SOL     OW 1426   0.947   3.050   1.822 -0.2399  0.3541  0.2117
  476SOL    HW1 1427   1.048   3.060   1.845  2.1491  2.3676 -0.6896
  476SOL    HW2 1428   0.926   3.046   1.721 -0.2209 -0.7545 -0.1387
  477SOL     OW 1429   1.437   0.328   2.440  0.0158  0.1184 -0.2892
  477SOL    HW1 1430   1.427   0.340   2.543 -1.4068  0.4362 -1.2581
  477SOL    HW2 1431   1.511   0.258   2.413  0.9724  0.1610 -2.1443
  478SOL     OW 1432   2.233   1.912   0.295 -0.4732 -0.3439 -0.5613
  478SOL    HW1 1433   2.170   1.849   0.347 -1.3222 -2.3128  1.4233
  478SOL    HW2 1434   2.282   1.863   0.216 -1.4163 -2.3385  2.3771
  479SOL     OW 1435   1.301   0.948   2.875  0.3704 -0.1378  0.4738
  479SOL    HW1 1436   1.393   0.959   2.832  0.5333 -2.2716  1.3104
  479SOL    HW2 1437   1.244   0.881   2.819  2.6815  2.4279  0.7050
  480SOL     OW 1438   2.701   2.307   0.420 -0.3402 -0.7418 -0.1905
  480SOL    HW1 1439   2.744   2.214   0.416  0.0277  1.2318 -1.4272
  480SOL    HW2 1440   2.600   2.302   0.421 -0.4448  2.0729  2.5531
  481SOL     OW 1441   0.961   1.147   0.815  0.2978  0.3115  0.7580
  481SOL    HW1 1442   0.953   1.244   0.785 -1.2855 -0.5404  1.2703
  481SOL    HW2 1443   0.983   1.139   0.920  1.8729  0.7164  0.8501
  482SOL     OW 1444   1.615   0.298   2.037  0.2345  0.1789 -0.2292
  482SOL    HW1 1445   1.637   0.397   2.011  0.5019 -0.7929  0.5370
  482SOL    HW2 1446   1.700   0.250   2.076  0.6642  0.4136  0.3989
  483SOL     OW 1447   0.117   2.366   1.202  0.4927 -0.5935 -0.5726
  483SOL    HW1 1448   0.115   2.420   1.289  1.9478 -0.4546  0.0969
  483SOL    HW2 1449   0.147   2.419   1.114  1.4111  0.1558  2.2833
  484SOL     OW 1450   1.711   1.063   1.476 -0.1137 -0.4132 -0.3434
  484SOL    HW1 1451   1.806   1.021   1.498  1.5931  0.1865 -1.0985
  484SOL    HW2 1452   1.717   1.158   1.436 -0.5968  2.5980  0.1831
  485SOL     OW 1453   0.747   0.748   1.945  0.1481  0.3016 -0.7987
  485SOL    HW1 1454   0.734   0.790   1.846 -0.5208  1.4363 -1.3156
  485SOL    HW2 1455   0.843   0.705   1.954  0.1572 -0.1952 -1.3850
  486SOL     OW 1456   0.885   1.889   2.442 -0.3725  0.4164  0.0879
  486SOL    HW1 1457   0.868   1.874   2.545  2.2573 -1.2328 -0.8638
  486SOL    HW2 1458   0.862   1.983   2.414 -0.1991 -0.5723  0.8148
  487SOL     OW 1459   1.766   1.587   1.055  0.4339 -0.0060  0.1502
  487SOL    HW1 1460   1.825   1.511   1.093  0.5662 -0.2734  1.5391
  487SOL    HW2 1461   1.802   1.624   0.966 -2.0218  0.9146  0.0712
  488SOL     OW 1462   2.938   0.792   2.239 -0.0618  0.1857 -1.0671
  488SOL    HW1 1463   3.028   0.747   2.264  0.7422  1.8247  0.7479
  488SOL    HW2 1464   2.863   0.781   2.311 -0.3346  0.6765 -1.1250
  489SOL     OW 1465   2.791   0.355   1.308 -0.5300 -0.0599  0.4103
  489SOL    HW1 1466   2.766   0.302   1.395  0.8325 -0.6570 -0.2889
  489SOL    HW2 1467   2.875   0.313   1.266 -1.4051 -2.4801 -0.7206
  490SOL     OW 1468   1.485   2.948   2.820  0.1439 -0.8143  0.0092
  490SOL    HW1 1469   1.529   2.856   2.801  1.1676  0.3298 -0.8922
  490SOL    HW2 1470   1.445   2.992   2.736 -0.2903 -1.8429  0.6916
  491SOL     OW 1471   1.807   1.444   2.725 -0.2352  0.1839  0.0320
  491SOL    HW1 1472   1.751   1.425   2.808  0.7321 -3.0167 -0.0362
  491SOL    HW2 1473   1.884   1.513   2.730 -1.7600  0.5538 -2.5064
  492SOL     OW 1474   0.614   2.087   0.584 -0.5158  0.0628 -0.0690
  492SOL    HW1 1475   0.649   2.105   0.681 -0.9265 -0.0744 -1.7597
  492SOL    HW2 1476   0.521   2.108   0.576  1.2805 -0.2986 -0.7675
  493SOL     OW 1477   0.408   1.327   2.078 -0.4030 -0.0958  0.2427
  493SOL    HW1 1478   0.337   1.387   2.026 -0.0687  0.4061 -1.7880
  493SOL    HW2 1479   0.365   1.253   2.135  0.6365 -0.2469  2.1677
  494SOL     OW 1480   2.697   2.642   0.151 -0.2370 -0.0499  0.1386
  494SOL    HW1 1481   2.704   2.629   0.253  0.3892  0.8022 -0.4904
  494SOL    HW2 1482   2.601   2.645   0.116  2.8888  2.0360 -0.1573
  495SOL     OW 1483   2.519   2.802   2.634  0.2037  0.0082 -0.3490
  495SOL    HW1 1484   2.537   2.698   2.643  0.1150  0.0353 -0.0607
  495SOL    HW2 1485   2.591   2.853   2.571 -0.2919  0.2779  0.8578
  496SOL     OW 1486   1.946   2.315   0.810 -0.2076  0.3037  0.6942
  496SOL    HW1 1487   1.999   2.330   0.897 -0.9574  0.3819  0.7299
  496SOL    HW2 1488   2.007   2.320   0.723  2.2960 -3.3301 -2.0307
  497SOL     OW 1489   0.270   2.994   2.357 -0.2630 -0.0700 -0.3974
  497SOL    HW1 1490   0.221   3.069   2.416  2.3374 -0.7479 -0.7107
  497SOL    HW2 1491   0.338   3.035   2.288 -0.4074 -0.7530  2.8647
  498SOL     OW 1492   1.163   1.333   1.211 -0.4531  0.3182  0.5342
  498SOL    HW1 1493   1.256   1.373   1.215  2.1127 -0.0659 -1.8584
  498SOL    HW2 1494   1.100   1.374   1.283 -1.7530 -0.1597 -1.1433
  499SOL     OW 1495   0.594   1.807   0.378 -0.1925  0.7847 -0.7455
  499SOL    HW1 1496   0.613   1.820   0.278  1.6508 -0.3182  1.3562
  499SOL    HW2 1497   0.678   1.827   0.432  0.6822  0.7714 -1.2955
  500SOL     OW 1498   1.515   2.807   1.662  0.6114  0.2499  0.0726
  500SOL    HW1 1499   1.540   2.767   1.757  2.0118 -1.3742  1.5360
  500SOL    HW2 1500   1.527   2.734   1.583 -1.0782  1.2081  0.8952
  501SOL     OW 1501   0.784   1.191   2.273  0.2933 -0.5433 -0.2411
  501SOL    HW1 1502   0.713   1.114   2.293  0.3705 -3.4382 -0.2052
  501SOL    HW2 1503   0.809   1.199   2.172 -3.2623 -3.3171 -0.7157
  502SOL     OW 1504   2.569   0.922   1.799  0.5524  0.2001 -0.1163
  502SOL    HW1 1505   2.630   0.938   1.722 -1.8482  0.5398 -0.1384
  502SOL    HW2 1506   2.546   0.819   1.810 -1.7939 -1.8821 -1.0559
  503SOL     OW 1507   1.250   0.119   0.687  0.1319 -0.2638 -0.2658
  503SOL    HW1 1508   1.211   0.208   0.653  2.2258  0.1791  2.0101
  503SOL    HW2 1509   1.351   0.138   0.709  1.0164  2.1510  1.9585
  504SOL     OW 1510   2.987   2.368   1.490  0.4754  0.0560  0.1718
  504SOL    HW1 1511   2.924   2.419   1.556 -0.1483  0.0895  1.9631
  504SOL    HW2 1512   3.057   2.310   1.541 -1.9476  1.5979  0.3623
  505SOL     OW 1513   2.316   1.142   1.499 -0.3411 -0.0121 -0.3339
  505SOL    HW1 1514   2.311   1.178   1.398  3.2018  0.7480  0.1771
  505SOL    HW2 1515   2.382   1.209   1.544  0.9665 -0.1340  0.7332
  506SOL     OW 1516   1.950   0.185   1.874  0.1238 -0.7809  0.1872
  506SOL    HW1 1517   2.048   0.151   1.896  2.1180 -1.5637  0.9532
  506SOL    HW2 1518   1.946   0.288   1.878 -2.1802  0.4148  1.0391
  507SOL     OW 1519   0.499   0.748   2.195  0.0977  0.0930  0.8032
  507SOL    HW1 1520   0.466   0.749   2.093  1.1967 -0.7378 -0.2049
  507SOL    HW2 1521   0.564   0.671   2.216 -1.2353  1.0956  0.7650
  508SOL     OW 1522   0.285   1.666   0.817 -0.5951 -0.0235  0.3023
  508SOL    HW1 1523   0.349   1.713   0.755 -2.3012 -0.5043 -1.1727
  508SOL    HW2 1524   0.271   1.725   0.903  1.5130 -0.2047 -2.6815
  509SOL     OW 1525   1.291   1.218   2.466 -0.0935  0.0698 -0.2973
  509SOL    HW1 1526   1.334   1.122   2.462  3.7486  2.1592 -0.9079
  509SOL    HW2 1527   1.191   1.224   2.503  1.9976 -0.5863  3.4625
  510SOL     OW 1528   1.327   2.039   2.237 -0.8876 -0.2580  0.0758
  510SOL    HW1 1529   1.339   2.060   2.136  0.0628  0.5398  1.4151
  510SOL    HW2 1530   1.250   1.974   2.260 -2.6915 -2.6294 -0.1192
  511SOL     OW 1531   2.999   2.657   1.348 -0.1348  0.3528 -0.1683
  511SOL    HW1 1532   2.984   2.680   1.247  0.6087 -0.0075 -1.2297
  511SOL    HW2 1533   2.921   2.612   1.398 -0.4261  0.7708 -1.5864
  512SOL     OW 1534   2.321   0.444   1.411  0.1559  0.0648  0.2026
  512SOL    HW1 1535   2.225   0.471   1.377 -1.5324  0.7002  1.9958
  512SOL    HW2 1536   2.381   0.391   1.345  0.4751 -0.8812  1.2398
  513SOL     OW 1537   2.523   2.089   0.876  0.1861 -0.5548 -0.4987
  513SOL    HW1 1538   2.491   2.156   0.804 -0.1412  1.2817  2.5842
  513SOL    HW2 1539   2.611   2.037   0.847 -1.3336 -1.4729 -0.3785
  514SOL     OW 1540   0.604   2.747   0.459  0.4840 -0.3107  0.7792
  514SOL    HW1 1541   0.637   2.761   0.359  0.6361 -3.0773 -0.0837
  514SOL    HW2 1542   0.654   2.812   0.522 -0.9756 -0.3810 -2.8237
  515SOL     OW 1543   1.944   1.335   2.409  0.0237  0.1416 -0.1373
  515SOL    HW1 1544   1.958   1.307   2.309 -2.3110  1.7715  1.5128
  515SOL    HW2 1545   1.859   1.287   2.450  0.5250 -2.1459 -0.9561
  516SOL     OW 1546   0.269   0.157   1.943 -0.0579 -0.3360 -0.2042
  516SOL    HW1 1547   0.373   0.149   1.935  0.6741 -1.7459 -2.7849
  516SOL    HW2 1548   0.214   0.094   1.884  0.0604  1.1244 -1.4684
  517SOL     OW 1549   0.460   0.221   1.123 -0.4649 -0.6800  0.7019
  517SOL    HW1 1550   0.542   0.171   1.173  1.1271 -1.1451 -1.6874
  517SOL    HW2 1551   0.371   0.160   1.117 -0.9360 -0.1264  2.1963
  518SOL     OW 1552   2.170   3.026   1.833 -0.2467 -0.3316 -0.2385
  518SOL    HW1 1553   2.193   3.129   1.820  1.5437 -1.8565 -0.7247
  518SOL    HW2 1554   2.179   2.975   1.744  0.9434  1.3530  0.4521
  519SOL     OW 1555   2.322   2.249   2.540  0.2304 -0.0975 -0.0832
  519SOL    HW1 1556   2.272   2.211   2.622  0.0070 -0.7928 -0.3548
  519SOL    HW2 1557   2.334   2.352   2.539  0.3621  0.1510  1.2211
  520SOL     OW 1558   1.797   2.670   1.657  0.9295  0.4288 -0.0644
  520SOL    HW1 1559   1.736   2.632   1.736 -0.3259  0.7290 -0.1578
  520SOL    HW2 1560   1.892   2.638   1.655 -0.8312  1.9156 -0.6719
  521SOL     OW 1561   0.648   0.068   2.134  0.2055 -0.0344  0.4508
  521SOL    HW1 1562   0.561   0.009   2.115 -3.0040 -0.8181  3.3945
  521SOL    HW2 1563   0.678   0.055   2.232 -2.5768  0.3372 -0.9679
  522SOL     OW 1564   0.231   1.935   1.485 -0.1330  0.4514 -0.1334
  522SOL    HW1 1565   0.245   1.994   1.567  0.9193  0.3164 -0.2849
  522SOL    HW2 1566   0.234   1.991   1.395  0.2530 -1.5921 -1.2337
  523SOL     OW 1567   2.221   2.913   1.563 -0.2470 -0.0376  0.2768
  523SOL    HW1 1568   2.311   2.871   1.524 -2.4868  1.4370 -0.1039
  523SOL    HW2 1569   2.148   2.878   1.502 -1.0138  0.6258  0.3966
  524SOL     OW 1570   0.215   2.754   2.772  0.2472  0.1277  0.4018
  524SOL    HW1 1571   0.192   2.848   2.808 -1.9965  3.3164  1.8685
  524SOL    HW2 1572   0.318   2.745   2.764 -1.4992 -0.9721  0.6667
  525SOL     OW 1573   2.202   2.094   0.509  0.2519 -0.3594 -0.3152
  525SOL    HW1 1574   2.173   2.043   0.591  1.6427  0.6002 -1.8923
  525SOL    HW2 1575   2.230   2.030   0.428 -0.5477 -0.7844 -0.4787
  526SOL     OW 1576   0.391   1.536   1.724  0.3993  0.0374  0.6562
  526SOL    HW1 1577   0.434   1.600   1.798  0.1212 -0.9023 -1.6904
  526SOL    HW2 1578   0.388   1.438   1.757 -1.0749 -1.4963 -1.2947
  527SOL     OW 1579   1.136   2.989   1.116 -0.6442 -0.3833  0.1807
  527SOL    HW1 1580   1.184   2.894   1.117 -3.0511 -0.0026 -0.0220
  527SOL    HW2 1581   1.195   3.076   1.136 -0.2733  0.4667 -1.3985
  528SOL     OW 1582   1.280   2.420   0.629 -0.0265 -0.1796 -0.0174
  528SOL    HW1 1583   1.342   2.331   0.625 -0.5127 -2.8513 -0.3911
  528SOL    HW2 1584   1.315   2.489   0.693  0.8974 -1.2953 -0.1926
  529SOL     OW 1585   1.844   1.726   0.853  0.1507  0.3830  0.2384
  529SOL    HW1 1586   1.795   1.703   0.762  0.8287 -0.5210  1.5364
  529SOL    HW2 1587   1.868   1.826   0.862  0.3920 -1.0306 -0.8205
  530SOL     OW 1588   0.394   2.485   0.190  0.4701 -0.7536  0.2110
  530SOL    HW1 1589   0.413   2.460   0.286  0.0177 -0.8320  1.0942
  530SOL    HW2 1590   0.408   2.404   0.124 -0.0978 -0.2878 -0.2409
  531SOL     OW 1591   1.850   1.027   1.048 -0.2236  0.0734 -0.5191
  531SOL    HW1 1592   1.847   1.040   0.944 -1.6710  0.4257 -0.1370
  531SOL    HW2 1593   1.760   0.981   1.076  0.5926 -0.9515 -0.6889
  532SOL     OW 1594   0.390   1.194   0.706 -0.3054 -0.2567  0.6686
  532SOL    HW1 1595   0.424   1.168   0.608  0.3164 -0.9080  1.8960
  532SOL    HW2 1596   0.358   1.115   0.765  1.0333  0.0096  0.4173
  533SOL     OW 1597   1.819   0.044   2.579  0.0726  0.7064 -0.7231
  533SOL    HW1 1598   1.918   0.064   2.568 -1.7582  1.2990 -1.9856
  533SOL    HW2 1599   1.779   0.112   2.648 -1.1372  1.1574  0.1571
  534SOL     OW 1600   0.201   0.179   1.563  0.2274 -0.2996  0.4275
  534SOL    HW1 1601   0.265   0.256   1.521  1.6630  2.2511 -2.1400
  534SOL    HW2 1602   0.109   0.219   1.593 -1.4070 -0.6255  2.5516
  535SOL     OW 1603   1.870   0.410   0.136 -0.0845 -0.0645 -0.3419
  535SOL    HW1 1604   1.917   0.467   0.204 -0.5499 -0.5770  2.5033
  535SOL    HW2 1605   1.796   0.353   0.188 -0.0676  0.0360  1.7160
  536SOL     OW 1606   1.208   2.501   0.983 -0.0994  0.0724  0.0937
  536SOL    HW1 1607   1.245   2.472   0.892 -1.9114  0.9280 -1.8411
  536SOL    HW2 1608   1.104   2.506   0.986  1.3790  0.4361  0.7464
  537SOL     OW 1609   0.874   0.259   2.282 -0.1070  0.0093 -0.0282
  537SOL    HW1 1610   0.903   0.337   2.228  0.3794 -1.4330  1.7516
  537SOL    HW2 1611   0.773   0.246   2.278  0.4313  3.2632 -2.1087
  538SOL     OW 1612   1.717   2.256   1.614 -0.3774  0.7141 -0.1457
  538SOL    HW1 1613   1.675   2.201   1.534  0.0165 -0.0543 -1.3204
  538SOL    HW2 1614   1.791   2.322   1.568  0.6039  1.2562  0.1426
  539SOL     OW 1615   0.164   1.555   2.747  0.3206  0.0325 -0.3453
  539SOL    HW1 1616   0.075   1.534   2.696 -1.7156  1.4427 -2.0957
  539SOL    HW2 1617   0.225   1.633   2.712 -0.5672  1.2422 -1.5323
  540SOL     OW 1618   2.660   1.788   2.152  0.3138 -0.0164  0.3273
  540SOL    HW1 1619   2.637   1.692   2.110  0.2562 -0.7351 -0.9152
  540SOL    HW2 1620   2.642   1.863   2.077  1.5259  0.5337 -3.5099
  541SOL     OW 1621   0.407   2.284   3.075  0.1246 -0.3403  0.3320
  541SOL    HW1 1622   0.441   2.214   3.142  1.1276  1.2640  1.4363
  541SOL    HW2 1623   0.331   2.248   3.018 -1.4744  1.7759 -0.7368
  542SOL     OW 1624   2.194   2.600   0.450 -0.2335  0.3673 -0.1029
  542SOL    HW1 1625   2.202   2.698   0.406 -2.3102  3.2681 -1.8111
  542SOL    HW2 1626   2.098   2.583   0.481 -0.1940 -0.7970 -1.4153
  543SOL     OW 1627   1.088   1.813   1.743 -0.4192  0.0780 -0.2867
  543SOL    HW1 1628   1.065   1.819   1.848 -1.5807 -3.0093  2.0498
  543SOL    HW2 1629   1.024   1.868   1.686  1.1458 -1.8111 -0.3913
  544SOL     OW 1630   0.836   0.434   0.108  0.4282 -0.1807  0.3254
  544SOL    HW1 1631   0.890   0.370   0.167 -0.7153 -1.3013 -0.7462
  544SOL    HW2 1632   0.866   0.430   0.006 -0.8381 -2.0129 -1.4342
  545SOL     OW 1633   1.158   1.762   0.633  0.2413  0.3399 -0.2920
  545SOL    HW1 1634   1.260   1.769   0.664  1.5317 -0.2363 -0.2902
  545SOL    HW2 1635   1.148   1.764   0.530  0.2781 -0.2632  0.3045
  546SOL     OW 1636   2.705   1.596   0.039 -0.8908  0.3018  0.4207
  546SOL    HW1 1637   2.763   1.583  -0.041  1.9177  1.7017  0.5491
  546SOL    HW2 1638   2.616   1.544   0.027 -1.6006  0.8172  1.2521
  547SOL     OW 1639   0.479   3.067   2.739  0.0991  0.6699  0.4316
  547SOL    HW1 1640   0.495   2.995   2.662 -0.4240 -1.0820 -0.7106
  547SOL    HW2 1641   0.526   3.059   2.828 -1.6833  0.5935 -1.5704
  548SOL     OW 1642   2.071   0.780   3.076  0.1007  0.1943  0.6262
  548SOL    HW1 1643   1.971   0.758   3.100 -1.1729  2.3710  0.3929
  548SOL    HW2 1644   2.065   0.865   3.025 -0.0871 -1.8245  2.2775
  549SOL     OW 1645   0.578   0.444   0.072 -0.4968 -0.4923  0.2455
  549SOL    HW1 1646   0.558   0.513  -0.006 -0.4779  1.2647 -1.1895
  549SOL    HW2 1647   0.683   0.451   0.096  2.5431 -0.1144  2.7624
  550SOL     OW 1648   2.522   2.869   2.905  0.1063  0.2426  0.4250
  550SOL    HW1 1649   2.497   2.785   2.966 -0.0275 -1.4265 -0.2800
  550SOL    HW2 1650   2.513   2.839   2.805 -0.2634 -0.6352 -0.2015
  551SOL     OW 1651   0.240   0.803   0.199 -0.3667 -0.7294  0.2156
  551SOL    HW1 1652   0.343   0.797   0.197 -2.3306  0.5114 -1.5133
  551SOL    HW2 1653   0.209   0.816   0.298  1.1847  1.2255  1.3400
  552SOL     OW 1654   0.843   2.797   1.907 -0.1213  0.1062  0.4365
  552SOL    HW1 1655   0.824   2.779   2.011  0.9094  0.0732 -1.7105
  552SOL    HW2 1656   0.881   2.889   1.883  0.2211 -3.3562 -0.9827
  553SOL     OW 1657   3.087   2.543   0.363 -0.3248 -0.0335  0.0581
  553SOL    HW1 1658   3.005   2.480   0.354  0.8380 -0.6390 -1.2223
  553SOL    HW2 1659   3.142   2.517   0.446  0.6684 -3.6443 -2.0707
  554SOL     OW 1660   2.129   0.319   0.504  0.9002  0.1105  0.0136
  554SOL    HW1 1661   2.189   0.304   0.419 -2.2180 -1.9926  0.1785
  554SOL    HW2 1662   2.103   0.235   0.552  1.4919  1.9037  0.8845
  555SOL     OW 1663   0.493   2.892   2.473 -0.2143  0.5648 -0.5567
  555SOL    HW1 1664   0.401   2.916   2.437 -1.6033  1.2455  3.1884
  555SOL    HW2 1665   0.537   2.814   2.421 -1.5670 -0.1081 -0.2927
  556SOL     OW 1666   0.961   2.338   1.628 -0.9311 -0.5490  0.0430
  556SOL    HW1 1667   0.981   2.429   1.674  2.9360 -2.3340 -2.6373
  556SOL    HW2 1668   1.035   2.309   1.563 -2.6256 -2.4162 -0.8212
  557SOL     OW 1669   0.168   2.152   0.107 -0.4154  0.1143  0.1063
  557SOL    HW1 1670   0.093   2.085   0.115 -0.8864  1.7983  0.5444
  557SOL    HW2 1671   0.174   2.186   0.011  4.6066 -1.6055  2.6412
  558SOL     OW 1672   2.917   2.342   0.262  0.0082  0.4034  0.2362
  558SOL    HW1 1673   2.813   2.340   0.277 -0.0334  0.0561  3.6193
  558SOL    HW2 1674   2.948   2.330   0.163 -1.1481  0.1943  2.4762
  559SOL     OW 1675   0.433   2.278   1.285 -0.0251 -0.1712 -0.2510
  559SOL    HW1 1676   0.333   2.310   1.279 -0.6766 -0.4320 -0.4061
  559SOL    HW2 1677   0.443   2.181   1.249  0.9743  1.2975 -0.9565
  560SOL     OW 1678   2.027   1.057   3.015 -0.2369  0.5117  0.3297
  560SOL    HW1 1679   2.034   1.139   2.950 -0.7204 -0.4402  0.2247
  560SOL    HW2 1680   1.989   1.082   3.110 -0.6581  3.5500 -1.7028
  561SOL     OW 1681   3.035   1.954   0.114  0.3531 -0.2232 -0.0190
  561SOL    HW1 1682   3.004   1.855   0.132 -0.2361  0.7365 -1.9446
  561SOL    HW2 1683   2.970   1.997   0.042 -0.5337  0.8369 -1.2131
  562SOL     OW 1684   0.818   2.184   2.450 -0.2722  0.0474  0.0631
  562SOL    HW1 1685   0.720   2.140   2.435  0.3960  0.2470 -3.6338
  562SOL    HW2 1686   0.837   2.213   2.546  2.6362  1.4350 -2.9368
  563SOL     OW 1687   0.728   2.537   2.532  0.6401 -0.1073 -0.3639
  563SOL    HW1 1688   0.730   2.437   2.501  4.2545 -2.3378  1.7781
  563SOL    HW2 1689   0.752   2.544   2.631  2.4008 -1.3146  1.2448
  564SOL     OW 1690   2.754   1.289   2.878 -0.0411 -0.4271 -0.0678
  564SOL    HW1 1691   2.663   1.285   2.926  0.2191  1.9417  0.0585
  564SOL    HW2 1692   2.795   1.384   2.881  0.2831 -1.5940 -0.8555
  565SOL     OW 1693   2.530   2.021   2.598 -0.2717  0.0173 -0.4031
  565SOL    HW1 1694   2.481   2.111   2.589 -0.1248 -0.0776  1.2691
  565SOL    HW2 1695   2.607   2.024   2.669  1.8186 -0.4938  0.7250
  566SOL     OW 1696   2.016   2.814   1.424  0.0144 -0.3952 -0.5636
  566SOL    HW1 1697   2.043   2.732   1.487 -0.3650 -1.6306 -1.0637
  566SOL    HW2 1698   2.064   2.813   1.332  2.2408  1.4875 -1.0064
  567SOL     OW 1699   2.446   0.140   2.219  0.8399  0.4736  0.5689
  567SOL    HW1 1700   2.464   0.133   2.115 -0.2425  0.4069 -1.6976
  567SOL    HW2 1701   2.367   0.205   2.237 -1.5984 -2.0227 -0.7982
  568SOL     OW 1702   1.422   1.798   0.460 -0.5358 -0.1390 -0.6556
  568SOL    HW1 1703   1.408   1.865   0.387 -0.7928 -0.8591 -1.9175
  568SOL    HW2 1704   1.459   1.839   0.552 -2.3174  2.6835 -0.2284
  569SOL     OW 1705   0.281   0.722   0.788 -0.3056 -0.6987  0.2025
  569SOL    HW1 1706   0.332   0.693   0.701 -1.3273 -0.9023  2.5197
  569SOL    HW2 1707   0.208   0.653   0.822  2.3638  4.6322  0.5950
  570SOL     OW 1708   0.622   0.798   2.826  0.3338 -0.2277 -0.1120
  570SOL    HW1 1709   0.675   0.787   2.738  1.3886 -2.7822  0.2292
  570SOL    HW2 1710   0.662   0.882   2.880  1.4591 -1.2579  0.4088
  571SOL     OW 1711   0.860   3.041   1.133  0.0336  0.0721 -0.1483
  571SOL    HW1 1712   0.857   3.118   1.066 -1.1879 -1.1720 -1.7543
  571SOL    HW2 1713   0.958   3.011   1.155 -0.3657 -0.6847  3.1705
  572SOL     OW 1714   1.510   2.565   1.193  0.3592 -0.3402  0.0617
  572SOL    HW1 1715   1.426   2.511   1.216 -0.0572  1.9150 -1.7685
  572SOL    HW2 1716   1.480   2.655   1.157  0.5596 -3.5465  1.9782
  573SOL     OW 1717   2.945   0.438   2.099  0.3262 -0.4935  0.2894
  573SOL    HW1 1718   2.894   0.352   2.138 -0.9053  1.4718  0.8869
  573SOL    HW2 1719   2.883   0.492   2.040 -1.3166 -2.3377  1.8780
  574SOL     OW 1720   0.242   1.800   1.049  0.4909  0.1569  0.5082
  574SOL    HW1 1721   0.227   1.891   1.005 -0.6790 -1.9208 -0.2252
  574SOL    HW2 1722   0.159   1.762   1.094  3.4353 -0.6907  0.6070
  575SOL     OW 1723   0.911   2.180   1.017  0.2483 -0.9371 -0.2455
  575SOL    HW1 1724   0.904   2.136   1.112  0.7561  0.4113 -0.0796
  575SOL    HW2 1725   1.006   2.186   0.982 -0.4762  0.5024  0.0923
  576SOL     OW 1726   2.893   2.897   1.704  0.4212 -0.0706 -0.0078
  576SOL    HW1 1727   2.834   2.842   1.635  2.8739 -0.2097 -4.0054
  576SOL    HW2 1728   2.923   2.992   1.665 -1.3300  1.6389  2.7139
  577SOL     OW 1729   2.540   1.251   3.062  0.3157  0.3612 -0.8030
  577SOL    HW1 1730   2.523   1.157   3.030 -0.0615  1.1520  2.2759
  577SOL    HW2 1731   2.589   1.244   3.155  0.1069  0.0116 -0.3237
  578SOL     OW 1732   1.336   2.788   2.579 -0.0103 -0.6334 -0.3037
  578SOL    HW1 1733   1.268   2.767   2.506 -0.6460 -0.1639 -1.5030
  578SOL    HW2 1734   1.387   2.881   2.561  1.8867  2.7343 -0.9181
  579SOL     OW 1735   0.136   2.578   0.150 -0.6642 -0.6254  0.2829
  579SOL    HW1 1736   0.077   2.562   0.234 -1.7804 -1.1216  1.1098
  579SOL    HW2 1737   0.231   2.530   0.156  0.2127  1.5622  0.2695
  580SOL     OW 1738   0.964   2.697   0.369  0.3726  0.3813 -0.2625
  580SOL    HW1 1739   1.054   2.710   0.323  0.6146  0.8006  0.5383
  580SOL    HW2 1740   0.907   2.618   0.333  2.8707 -1.0196  1.2282
  581SOL     OW 1741   1.289   2.570   1.478 -0.3871  0.3140 -0.1352
  581SOL    HW1 1742   1.280   2.517   1.391  0.6563 -0.4336  0.3498
  581SOL    HW2 1743   1.268   2.671   1.456 -1.3234  0.5944  2.1404
  582SOL     OW 1744   1.522   0.067   1.871 -0.2141 -0.2332 -0.0620
  582SOL    HW1 1745   1.537   0.140   1.938  1.1857  0.6623  0.0567
  582SOL    HW2 1746   1.606   0.055   1.808  4.3896 -1.5690 -1.6667
  583SOL     OW 1747   2.392   2.993   0.597  0.6576 -0.1224 -0.0004
  583SOL    HW1 1748   2.436   2.933   0.523  0.0727 -1.2490 -0.9204
  583SOL    HW2 1749   2.351   2.934   0.672 -0.3830  1.9283  1.9099
  584SOL     OW 1750   1.543   0.981   2.090  0.2334 -0.2501  0.4725
  584SOL    HW1 1751   1.588   1.054   2.033 -0.8822 -1.6888  1.0605
  584SOL    HW2 1752   1.579   0.976   2.184  1.6446 -0.1043 -1.9599
  585SOL     OW 1753   2.103   2.676   2.904  0.4779 -0.5685  0.5896
  585SOL    HW1 1754   2.150   2.598   2.864  2.3722 -0.0541 -1.1087
  585SOL    HW2 1755   2.001   2.678   2.888  2.0085 -0.0156 -0.5738
  586SOL     OW 1756   2.783   0.223   1.546  0.5190 -0.0846 -0.3123
  586SOL    HW1 1757   2.796   0.293   1.621 -0.9703 -1.5136  0.7957
  586SOL    HW2 1758   2.685   0.178   1.558 -4.1227  1.5880 -0.3026
  587SOL     OW 1759   2.015   1.614   2.733 -0.0409  0.0927 -0.0127
  587SOL    HW1 1760   2.066   1.542   2.670  0.0375 -2.0230 -2.0927
  587SOL    HW2 1761   2.065   1.614   2.828 -0.3986  1.5008 -1.2700
  588SOL     OW 1762   0.478   2.696   2.228 -0.0162 -0.2555  0.2515
  588SOL    HW1 1763   0.397   2.731   2.173  0.9872  1.0446 -1.9107
  588SOL    HW2 1764   0.457   2.616   2.289 -0.0504  0.9210 -0.9905
  589SOL     OW 1765   2.127   1.470   2.545 -0.4827  0.0713  0.2568
  589SOL    HW1 1766   2.066   1.407   2.487 -1.6548 -0.6537 -0.2209
  589SOL    HW2 1767   2.220   1.423   2.561  0.6468  1.1260 -0.1338
  590SOL     OW 1768   2.351   1.753   2.001 -0.0854 -0.2325  0.2825
  590SOL    HW1 1769   2.436   1.701   1.991 -0.1963  1.8893  2.3094
  590SOL    HW2 1770   2.345   1.798   2.096 -0.9194  2.1534  0.6722
  591SOL     OW 1771   1.320   2.489   0.312  0.3162  0.4209 -0.0952
  591SOL    HW1 1772   1.403   2.447   0.263  1.1388 -0.7210 -1.1228
  591SOL    HW2 1773   1.299   2.457   0.407 -1.4065  1.3590 -0.7729
  592SOL     OW 1774   1.677   2.317   0.779  0.4341 -0.0078 -0.2646
  592SOL    HW1 1775   1.634   2.385   0.712  0.7516 -1.1060  0.1383
  592SOL    HW2 1776   1.774   2.336   0.786 -0.9644  2.5535 -0.6697
  593SOL     OW 1777   0.528   0.228   3.005  0.0686 -0.6565  0.1740
  593SOL    HW1 1778   0.625   0.193   2.986  1.1995  0.2887 -0.7285
  593SOL    HW2 1779   0.524   0.305   3.072  3.7923  2.0800 -2.3001
  594SOL     OW 1780   0.910   1.902   2.752 -0.2318  0.7451 -0.4476
  594SOL    HW1 1781   1.011   1.925   2.738  0.7506  1.5313  1.9583
  594SOL    HW2 1782   0.853   1.977   2.789 -2.5166 -1.3297 -2.2121
  595SOL     OW 1783   1.556   3.085   1.008 -0.4172  0.4594  0.5733
  595SOL    HW1 1784   1.643   3.058   1.052  0.4776  1.1723 -1.4669
  595SOL    HW2 1785   1.558   3.044   0.912  0.7938  1.9466  0.9825
  596SOL     OW 1786   3.071   1.459   2.207 -0.0431  0.4590  0.5094
  596SOL    HW1 1787   3.015   1.544   2.230  0.1031 -0.7628 -0.6533
  596SOL    HW2 1788   3.103   1.415   2.297 -2.3807 -0.6271 -4.7640
  597SOL     OW 1789   2.069   2.619   1.617 -0.2893  0.9483  0.3565
  597SOL    HW1 1790   2.115   2.527   1.592  3.6284  0.0767 -2.3935
  597SOL    HW2 1791   2.128   2.680   1.683  3.3032 -0.3922  2.4922
  598SOL     OW 1792   2.592   2.895   1.197 -0.2787  0.3860 -0.4814
  598SOL    HW1 1793   2.661   2.934   1.265 -0.1878 -1.0627 -2.0563
  598SOL    HW2 1794   2.633   2.875   1.105 -0.2928  2.1217  2.0682
  599SOL     OW 1795   2.919   0.327   2.404  0.3398  0.4467  0.0795
  599SOL    HW1 1796   3.015   0.348   2.377  0.5075 -1.1791  0.3026
  599SOL    HW2 1797   2.853   0.404   2.379 -1.2541  0.6689 -2.6810
  600SOL     OW 1798   2.820   1.048   2.772 -0.0321 -0.1862  0.0729
  600SOL    HW1 1799   2.799   0.964   2.836 -1.1510 -0.2668  1.6572
  600SOL    HW2 1800   2.775   1.137   2.803 -1.1430 -0.5600 -2.4137
  601SOL     OW 1801   2.933   1.289   2.055  0.1024 -0.5274  0.4790
  601SOL    HW1 1802   2.848   1.317   2.006 -1.1991 -1.6058 -1.5007
  601SOL    HW2 1803   2.976   1.362   2.112 -0.8274 -2.2327 -0.7848
  602SOL     OW 1804   1.543   1.671   2.362 -0.5003 -0.3322  0.1962
  602SOL    HW1 1805   1.479   1.592   2.338  1.2035  3.6495  0.5453
  602SOL    HW2 1806   1.638   1.642   2.405 -0.9061  0.2050 -0.6946
  603SOL     OW 1807   0.710   1.258   2.599 -0.3749  0.6282 -0.3706
  603SOL    HW1 1808   0.627   1.242   2.531 -2.3060 -0.5652  1.3591
  603SOL    HW2 1809   0.762   1.170   2.621  1.5788 -0.6354  1.1176
  604SOL     OW 1810   2.374   1.002   0.176  0.3037 -0.5156  0.3242
  604SOL    HW1 1811   2.424   1.061   0.110 -1.5056 -0.8461 -2.2983
  604SOL    HW2 1812   2.356   0.909   0.130  1.8483  0.0005  0.9428
  605SOL     OW 1813   2.596   1.125   1.981  0.5254  0.5743 -0.2347
  605SOL    HW1 1814   2.592   1.045   1.917  0.8943  0.3554 -0.1101
  605SOL    HW2 1815   2.652   1.110   2.069  2.8138  0.9848 -1.9841
  606SOL     OW 1816   1.525   2.512   2.589  0.6350  0.3974  0.2076
  606SOL    HW1 1817   1.425   2.537   2.599  1.3193  0.5252 -0.2407
  606SOL    HW2 1818   1.527   2.411   2.557 -1.5231 -2.8202 -0.2043
  607SOL     OW 1819   1.343   1.538   0.412  0.2971 -0.2492  0.3981
  607SOL    HW1 1820   1.300   1.492   0.494 -2.8768  1.6728  2.3520
  607SOL    HW2 1821   1.337   1.643   0.420  2.1979  2.5352  1.5279
  608SOL     OW 1822   1.391   2.899   0.422  0.1553  0.0238  0.2950
  608SOL    HW1 1823   1.477   2.950   0.389  1.4135  2.0026  0.3854
  608SOL    HW2 1824   1.316   2.967   0.447 -3.1691 -0.0647 -2.3067
  609SOL     OW 1825   1.309   1.334   0.252 -0.0637  0.0954  0.1024
  609SOL    HW1 1826   1.331   1.414   0.316  0.7247  0.5561  0.0445
  609SOL    HW2 1827   1.206   1.332   0.227 -3.3533  0.2264  3.7973
  610SOL     OW 1828   2.994   1.059   2.264 -0.3365 -0.1743 -0.4945
  610SOL    HW1 1829   2.980   0.957   2.252 -0.0133 -0.9606  0.1741
  610SOL    HW2 1830   2.954   1.108   2.182 -0.4757 -0.6239 -0.4621
  611SOL     OW 1831   2.522   0.330   1.240 -0.2983  0.6138 -0.2021
  611SOL    HW1 1832   2.500   0.237   1.203  0.2119  0.3510  2.0646
  611SOL    HW2 1833   2.622   0.344   1.272  0.3244 -0.0810  0.1187
  612SOL     OW 1834   0.754   2.134   1.256 -0.4342 -0.5761  0.3297
  612SOL    HW1 1835   0.669   2.069   1.269  0.7558 -2.4647 -2.0602
  612SOL    HW2 1836   0.735   2.212   1.192 -2.3705  0.8888  0.0913
  613SOL     OW 1837   0.933   1.398   2.379 -0.6660  0.1173  0.9279
  613SOL    HW1 1838   0.951   1.466   2.302 -3.1476  0.0370 -1.0858
  613SOL    HW2 1839   0.871   1.319   2.343  1.6006  0.5776 -1.7601
  614SOL     OW 1840   1.664   1.543   1.773 -0.0382 -0.2526  0.4800
  614SOL    HW1 1841   1.601   1.607   1.723  0.6596  0.1226 -0.3171
  614SOL    HW2 1842   1.699   1.577   1.866  0.2430 -0.5251 -0.6130
  615SOL     OW 1843   0.786   1.265   1.745  0.3093  0.3006  0.7359
  615SOL    HW1 1844   0.730   1.228   1.663 -1.8468 -0.8511 -1.0291
  615SOL    HW2 1845   0.823   1.367   1.724  1.3067  1.1500 -0.2751
  616SOL     OW 1846   1.012   1.581   2.161  0.3278 -0.2864  0.7467
  616SOL    HW1 1847   0.975   1.593   2.060 -0.3715 -4.1038  0.1748
  616SOL    HW2 1848   1.051   1.667   2.208 -0.0764  1.6494 -0.6362
  617SOL     OW 1849   2.962   1.515   1.597 -0.1581 -0.1360  0.4981
  617SOL    HW1 1850   2.958   1.410   1.617 -1.2262 -1.9073 -2.6317
  617SOL    HW2 1851   2.991   1.532   1.497  1.2204  1.0313  1.3373
  618SOL     OW 1852   1.870   2.025   1.387 -0.1427  0.5536 -0.1501
  618SOL    HW1 1853   1.920   2.093   1.329 -1.4302 -0.0270 -0.9207
  618SOL    HW2 1854   1.822   1.946   1.331 -2.7712  0.7690  0.6472
  619SOL     OW 1855   1.735   0.436   2.378  0.4233  0.1095 -0.2072
  619SOL    HW1 1856   1.670   0.507   2.341  0.2859 -0.4256  2.7125
  619SOL    HW2 1857   1.707   0.336   2.381 -0.5448 -2.3749  0.1132
  620SOL     OW 1858   2.260   2.814   0.748  0.1703 -0.1562 -0.0033
  620SOL    HW1 1859   2.159   2.808   0.763 -0.8366  0.2165  1.3124
  620SOL    HW2 1860   2.309   2.733   0.790 -0.7478  1.6958  0.1616
  621SOL     OW 1861   2.191   1.928   1.348  0.5474 -0.2023 -0.2604
  621SOL    HW1 1862   2.191   1.937   1.453 -0.7038  0.8143  0.0166
  621SOL    HW2 1863   2.148   1.839   1.314  0.9444 -1.0951 -0.2170
  622SOL     OW 1864   2.303   0.950   1.857  0.4865  0.1461  0.0655
  622SOL    HW1 1865   2.403   0.953   1.833  2.7629  0.3902  1.0112
  622SOL    HW2 1866   2.261   0.854   1.878 -0.5743  0.7841 -1.6679
  623SOL     OW 1867   1.248   0.831   2.532 -0.1144 -0.0471  0.1460
  623SOL    HW1 1868   1.180   0.749   2.542 -2.9284 -0.9870  0.0641
  623SOL    HW2 1869   1.236   0.868   2.431  1.2762  2.4541 -0.4582
  624SOL     OW 1870   0.497   0.658   3.019  0.0336  0.2977  0.2674
  624SOL    HW1 1871   0.563   0.690   2.946 -2.3552  0.1144 -0.8413
  624SOL    HW2 1872   0.501   0.714   3.107  2.0464  1.2027  0.2824
  625SOL     OW 1873   2.732   1.710   0.996  0.5220  0.2319 -0.0652
  625SOL    HW1 1874   2.650   1.772   1.006  1.4509 -0.1107 -0.3239
  625SOL    HW2 1875   2.817   1.765   1.010 -1.3065 -0.0892 -0.0152
  626SOL     OW 1876   0.644   2.682   1.760  0.3284 -0.4254 -0.8174
  626SOL    HW1 1877   0.712   2.737   1.811 -0.0931  0.5772 -3.3296
  626SOL    HW2 1878   0.547   2.679   1.795  1.4503 -2.9636 -0.2132
  627SOL     OW 1879   0.669   0.823   1.679  0.6535  0.1033 -0.1787
  627SOL    HW1 1880   0.612   0.757   1.620  2.4522  2.4927 -0.5186
  627SOL    HW2 1881   0.708   0.901   1.621 -1.3733  0.9792 -0.1555
  628SOL     OW 1882   2.363   0.114   0.755  0.6132  0.6664 -0.1687
  628SOL    HW1 1883   2.392   0.034   0.692 -1.6895 -1.6665  0.6378
  628SOL    HW2 1884   2.263   0.138   0.735  3.2462 -0.9282 -0.1123
  629SOL     OW 1885   1.908   0.930   1.988  0.2827  0.1250  0.0146
  629SOL    HW1 1886   1.896   1.024   1.943  0.2539 -0.6359  1.9110
  629SOL    HW2 1887   1.976   0.943   2.065 -0.3750 -1.1043 -0.4896
  630SOL     OW 1888   2.904   2.204   0.795 -0.3173 -0.1014  0.6862
  630SOL    HW1 1889   2.854   2.297   0.808  0.6333  1.9126 -2.0201
  630SOL    HW2 1890   2.842   2.121   0.792 -2.6714  0.6311 -2.8926
  631SOL     OW 1891   3.046   0.107   2.076  0.3981 -0.2192  0.4018
  631SOL    HW1 1892   3.118   0.169   2.121 -1.2733  0.0329 -0.3836
  631SOL    HW2 1893   3.075   0.070   1.984  0.4818  0.2391  0.5257
  632SOL     OW 1894   2.407   2.579   0.644 -0.8361  0.1095  0.5616
  632SOL    HW1 1895   2.460   2.665   0.672  0.8764 -2.1981 -0.2001
  632SOL    HW2 1896   2.344   2.595   0.566 -2.1140 -2.1571 -0.4409
  633SOL     OW 1897   1.499   1.256   2.661  0.2886  0.2632  0.4264
  633SOL    HW1 1898   1.480   1.317   2.746 -0.1001 -0.0629  0.6021
  633SOL    HW2 1899   1.433   1.268   2.578 -0.2615 -0.5059 -1.1696
  634SOL     OW 1900   0.707   2.089   0.845 -0.2885 -0.6355 -0.3392
  634SOL    HW1 1901   0.616   2.088   0.896 -0.9505  2.1950  0.1211
  634SOL    HW2 1902   0.782   2.129   0.908 -0.0288 -2.2736  2.6661
  635SOL     OW 1903   3.074   2.385   0.024  0.0733 -0.0497  0.1767
  635SOL    HW1 1904   3.002   2.443  -0.026  0.8695  0.6476 -1.0324
  635SOL    HW2 1905   3.158   2.440   0.055  0.8776  0.2063  0.4345
  636SOL     OW 1906   2.369   2.702   2.068 -0.1389 -0.5330  0.1562
  636SOL    HW1 1907   2.345   2.805   2.077 -1.7199 -0.6540 -1.6983
  636SOL    HW2 1908   2.312   2.634   2.124  2.5875 -0.9747 -0.6128
  637SOL     OW 1909   2.700   0.587   1.978  0.4581  0.6518  0.1359
  637SOL    HW1 1910   2.621   0.605   1.911  2.6208  0.9753  2.3814
  637SOL    HW2 1911   2.769   0.665   1.964 -1.1406  2.0367  1.4844
  638SOL     OW 1912   2.459   1.864   1.318 -0.4364  0.0226 -0.5089
  638SOL    HW1 1913   2.367   1.908   1.339  0.2911  0.5151  0.9757
  638SOL    HW2 1914   2.477   1.794   1.393 -0.7180 -0.1173 -1.0780
  639SOL     OW 1915   1.247   2.203   1.635 -0.1481  0.1399  0.5935
  639SOL    HW1 1916   1.309   2.286   1.629  1.6787 -1.7093  2.1310
  639SOL    HW2 1917   1.237   2.165   1.728 -0.9122 -0.1559 -2.5406
  640SOL     OW 1918   0.179   1.242   1.543  0.0368 -0.3691 -0.2445
  640SOL    HW1 1919   0.158   1.254   1.644  0.2224 -1.8525  1.3730
  640SOL    HW2 1920   0.252   1.166   1.530  0.1772 -0.5614 -2.1504
  641SOL     OW 1921   1.977   0.246   1.525 -0.2610 -0.1484  0.3530
  641SOL    HW1 1922   1.902   0.291   1.584  0.1268 -1.6686 -0.1870
  641SOL    HW2 1923   2.054   0.205   1.576  0.9524 -1.0246 -0.2498
  642SOL     OW 1924   2.048   3.092   0.343 -0.2471  0.2880 -0.0972
  642SOL    HW1 1925   2.141   3.124   0.375 -1.5371  2.3040 -2.5504
  642SOL    HW2 1926   1.983   3.077   0.418  1.0555 -1.5221 -1.3225
  643SOL     OW 1927   2.910   1.934   2.127 -0.5072  0.0745  0.9774
  643SOL    HW1 1928   2.811   1.898   2.124 -0.6272 -0.0857  0.9195
  643SOL    HW2 1929   2.925   2.020   2.068 -2.0580  1.0272  1.5294
  644SOL     OW 1930   2.294   2.409   1.247 -0.0718  0.5411 -0.3001
  644SOL    HW1 1931   2.380   2.368   1.205 -2.7636 -0.6235  0.8617
  644SOL    HW2 1932   2.276   2.369   1.337  0.5391  0.0700 -2.5686
  645SOL     OW 1933   0.693   0.844   1.256 -0.2584  0.0841 -0.2361
  645SOL    HW1 1934   0.594   0.835   1.286  1.1349  2.2816 -0.5496
  645SOL    HW2 1935   0.691   0.879   1.159  1.0529 -0.4165 -1.0944
  646SOL     OW 1936   1.524   1.793   2.034 -0.2194  0.5463  0.2220
  646SOL    HW1 1937   1.586   1.838   1.965  2.2473 -0.2263  1.0013
  646SOL    HW2 1938   1.566   1.788   2.127  0.8405  0.1416 -1.1650
  647SOL     OW 1939   0.767   1.087   0.631  0.0909 -0.3357  0.3967
  647SOL    HW1 1940   0.841   1.102   0.701  0.7654  0.7630  1.3686
  647SOL    HW2 1941   0.713   0.998   0.649 -0.2448 -1.1048  2.1797
  648SOL     OW 1942   0.179   0.221   0.381  0.2164 -0.3305 -0.2651
  648SOL    HW1 1943   0.163   0.129   0.329 -0.6108 -1.7098 -1.1064
  648SOL    HW2 1944   0.178   0.301   0.312  0.3409 -0.3842 -0.8097
  649SOL     OW 1945   2.998   0.272   0.906 -0.1631 -0.1488 -0.4400
  649SOL    HW1 1946   3.061   0.289   0.824 -0.3854  0.3855 -3.0225
  649SOL    HW2 1947   3.007   0.338   0.983 -0.0806  1.5359 -0.9402
  650SOL     OW 1948   2.806   0.721   1.490  0.1710  0.0435  0.5741
  650SOL    HW1 1949   2.704   0.693   1.481  0.9808  0.2244  0.7858
  650SOL    HW2 1950   2.840   0.800   1.435  2.6916 -1.9186  4.0062
  651SOL     OW 1951   0.882   1.521   1.671 -0.4356 -0.4733  0.0712
  651SOL    HW1 1952   0.893   1.574   1.760  0.4352 -3.5148  0.8966
  651SOL    HW2 1953   0.970   1.514   1.620 -1.4209 -0.4215 -0.3929
  652SOL     OW 1954   2.350   2.523   2.503  0.9510 -0.6051 -0.1207
  652SOL    HW1 1955   2.253   2.556   2.524 -1.1858  1.1095  0.8278
  652SOL    HW2 1956   2.370   2.542   2.401 -0.6214 -1.4104 -1.2059
  653SOL     OW 1957   2.693   1.276   0.185 -0.0991  0.1504 -0.0018
  653SOL    HW1 1958   2.739   1.362   0.213  0.4787 -0.8138  1.8531
  653SOL    HW2 1959   2.755   1.194   0.198 -2.0223  0.1772  2.9800
  654SOL     OW 1960   1.226   2.107   1.247  0.2926  0.7715  0.7636
  654SOL    HW1 1961   1.279   2.074   1.323 -0.2572  0.2359 -0.7976
  654SOL    HW2 1962   1.271   2.092   1.155  0.3587 -0.2576  1.2964
  655SOL     OW 1963   0.193   0.989   1.933 -0.3525 -0.1762  0.1935
  655SOL    HW1 1964   0.251   0.943   1.862  0.8753  2.4857  0.8174
  655SOL    HW2 1965   0.205   1.091   1.937  0.0009 -0.2052 -0.6440
  656SOL     OW 1966   2.579   2.530   2.634 -0.0885  0.3253  0.0639
  656SOL    HW1 1967   2.656   2.514   2.565 -0.5434 -0.8212 -1.8698
  656SOL    HW2 1968   2.488   2.522   2.587 -1.1341  1.2628 -0.4590
  657SOL     OW 1969   3.022   1.054   1.901  0.1790  0.1029 -0.6801
  657SOL    HW1 1970   2.989   1.135   1.950  1.2512  0.9922 -5.0722
  657SOL    HW2 1971   3.120   1.026   1.927 -0.8748 -0.7117 -0.7400
  658SOL     OW 1972   1.651   0.181   2.368  0.1155  0.3710  0.8765
  658SOL    HW1 1973   1.679   0.123   2.450  0.1732 -0.2852 -0.5301
  658SOL    HW2 1974   1.686   0.142   2.274  0.7143 -2.3969 -1.1922
  659SOL     OW 1975   1.453   0.664   2.805  0.1828 -0.2510 -0.2870
  659SOL    HW1 1976   1.485   0.704   2.708  0.2673  1.8553 -1.1952
  659SOL    HW2 1977   1.349   0.667   2.817 -0.6015 -3.5837  0.7684
  660SOL     OW 1978   1.434   0.305   1.411  0.5879 -0.1811  0.1525
  660SOL    HW1 1979   1.445   0.330   1.514 -2.5440  3.4757 -0.9809
  660SOL    HW2 1980   1.517   0.264   1.370 -0.5006  0.6434 -1.1286
  661SOL     OW 1981   2.396   1.270   0.647  0.0627  0.3200 -0.1882
  661SOL    HW1 1982   2.460   1.257   0.565  0.1745  1.7642  0.6835
  661SOL    HW2 1983   2.333   1.345   0.634  1.5263 -1.5106 -2.3995
  662SOL     OW 1984   1.463   0.367   1.706  0.0602 -0.0149  0.3501
  662SOL    HW1 1985   1.384   0.329   1.762 -1.6760 -0.4933  2.2094
  662SOL    HW2 1986   1.472   0.473   1.706 -0.6954  0.5247 -1.4690
  663SOL     OW 1987   0.846   1.601   1.951  0.1375 -0.4078 -0.0718
  663SOL    HW1 1988   0.831   1.676   2.015  0.4409  0.4746 -2.1772
  663SOL    HW2 1989   0.776   1.525   1.968  0.2136  2.7937  1.2292
  664SOL     OW 1990   1.603   2.112   1.414 -0.3819 -0.3044 -0.2046
  664SOL    HW1 1991   1.519   2.066   1.461 -3.0223 -0.3188 -1.0938
  664SOL    HW2 1992   1.678   2.045   1.391 -0.4444  1.7677  2.2904
  665SOL     OW 1993   2.260   0.678   1.993  0.1062  0.2085 -0.2867
  665SOL    HW1 1994   2.240   0.575   1.998 -1.1026 -0.9525 -0.7496
  665SOL    HW2 1995   2.324   0.714   2.065 -1.6266 -0.1443 -1.4720
  666SOL     OW 1996   0.453   2.228   0.354 -0.4619  0.3312 -0.1708
  666SOL    HW1 1997   0.495   2.311   0.406 -0.4576 -0.4869  1.2090
  666SOL    HW2 1998   0.353   2.208   0.372  1.7046 -1.3021  1.6633
  667SOL     OW 1999   2.002   0.220   1.085 -0.4960 -0.2566 -0.4759
  667SOL    HW1 2000   2.027   0.322   1.088 -0.3251  1.3566 -1.3733
  667SOL    HW2 2001   1.930   0.198   1.161  0.1206 -0.3914  2.0933
  668SOL     OW 2002   1.990   0.500   1.083 -0.1039  0.0840  0.4493
  668SOL    HW1 2003   2.071   0.518   1.028 -0.4798  1.8303  1.1837
  668SOL    HW2 2004   2.013   0.509   1.186  2.7261  0.8141  1.1211
  669SOL     OW 2005   3.062   2.150   1.031  0.0603  0.1827 -0.1090
  669SOL    HW1 2006   2.999   2.158   0.946  0.4650 -0.7541  1.4625
  669SOL    HW2 2007   3.040   2.221   1.105  0.8658  1.3955 -0.1994
  670SOL     OW 2008   2.919   2.326   2.116  0.1028 -0.2499 -0.5545
  670SOL    HW1 2009   2.833   2.320   2.178 -0.3366  2.1026 -0.2184
  670SOL    HW2 2010   2.940   2.420   2.072 -0.3959  2.1905  2.1573
  671SOL     OW 2011   1.766   1.687   1.503  0.3621  0.3911 -0.6054
  671SOL    HW1 2012   1.710   1.728   1.426  2.7202  3.4907  2.0041
  671SOL    HW2 2013   1.791   1.588   1.481 -1.3197  1.1780 -0.8566
  672SOL     OW 2014   0.435   0.666   2.594 -0.3309 -0.3093 -0.6162
  672SOL    HW1 2015   0.389   0.712   2.518 -0.7411  0.0628  2.4001
  672SOL    HW2 2016   0.389   0.688   2.684 -0.7989  0.6190  3.2241
  673SOL     OW 2017   0.087   1.388   1.075  0.4539 -0.2052 -0.0516
  673SOL    HW1 2018   0.134   1.412   1.166  0.3945 -0.3392 -0.8813
  673SOL    HW2 2019   0.150   1.395   0.996 -2.0526  1.7401  1.3112
  674SOL     OW 2020   1.590   2.992   0.251  0.3316 -0.5812  0.4614
  674SOL    HW1 2021   1.631   3.066   0.186  0.4110  0.9135 -0.2043
  674SOL    HW2 2022   1.555   2.905   0.207  0.7437 -1.0121 -0.2128
  675SOL     OW 2023   1.654   0.856   2.332  0.5931  0.4544  0.1148
  675SOL    HW1 2024   1.761   0.853   2.337  1.6877 -0.4661 -1.0081
  675SOL    HW2 2025   1.611   0.769   2.292 -0.4297  0.9919 -0.5674
  676SOL     OW 2026   2.554   1.554   2.000 -0.3403 -0.5101  0.1172
  676SOL    HW1 2027   2.517   1.495   1.928  1.0137  0.5995 -1.1593
  676SOL    HW2 2028   2.598   1.496   2.078  4.2061  2.2904 -2.2254
  677SOL     OW 2029   1.857   0.725   0.884  0.1948 -0.2486  0.1208
  677SOL    HW1 2030   1.791   0.774   0.948  0.1367  1.5017  1.4882
  677SOL    HW2 2031   1.895   0.642   0.931 -0.2132 -0.8377 -1.1815
  678SOL     OW 2032   0.079   0.828   1.645  0.1922 -0.7345  0.0559
  678SOL    HW1 2033   0.159   0.864   1.700  0.5555  1.5737  0.7131
  678SOL    HW2 2034   0.032   0.754   1.701  0.8426 -0.7417  0.0759
  679SOL     OW 2035   2.559   1.082   1.206  0.5460  0.5828 -0.2231
  679SOL    HW1 2036   2.458   1.100   1.231 -1.0103  1.1521 -0.1290
  679SOL    HW2 2037   2.587   0.984   1.206  0.4625  3.3182 -0.1128
  680SOL     OW 2038   2.828   0.533   1.689  0.1995 -0.6222 -0.0449
  680SOL    HW1 2039   2.810   0.591   1.604  0.4731 -3.0078 -0.5119
  680SOL    HW2 2040   2.925   0.540   1.723  2.1097 -0.0883 -1.7227
  681SOL     OW 2041   2.989   0.019   1.550 -0.0786 -0.2242  0.3305
  681SOL    HW1 2042   3.045   0.011   1.461 -0.1083 -1.8392 -2.8724
  681SOL    HW2 2043   2.906   0.085   1.547  1.1852  2.8928 -0.5285
  682SOL     OW 2044   0.632   0.067   1.280  0.5766 -0.7607 -0.0774
  682SOL    HW1 2045   0.560   0.002   1.320  0.4343 -0.2197 -0.6017
  682SOL    HW2 2046   0.714   0.024   1.240 -0.6308  0.8273 -0.6651
  683SOL     OW 2047   1.380   0.251   2.147  0.4459 -0.6247 -0.0557
  683SOL    HW1 2048   1.380   0.274   2.242 -0.4615 -0.4508 -2.4859
  683SOL    HW2 2049   1.474   0.264   2.107  0.0729  0.5202 -0.1680
  684SOL     OW 2050   1.428   2.175   0.577 -0.0951  0.1863  0.0500
  684SOL    HW1 2051   1.473   2.095   0.624  1.8520 -0.0581 -1.8490
  684SOL    HW2 2052   1.344   2.144   0.521 -0.3976  1.2190 -0.8026
  685SOL     OW 2053   2.260   2.072   1.981  0.2454  0.1040 -0.1579
  685SOL    HW1 2054   2.334   2.000   1.974  1.5189  0.8071  0.5369
  685SOL    HW2 2055   2.251   2.101   2.080 -1.7130  0.1516  0.7588
  686SOL     OW 2056   1.556   1.882   2.950 -0.3651 -0.0073  0.1822
  686SOL    HW1 2057   1.579   1.819   3.031  0.7648 -0.6772 -2.1251
  686SOL    HW2 2058   1.469   1.860   2.901 -0.7463  1.3940  0.4350
  687SOL     OW 2059   1.369   2.399   1.953 -0.4778 -0.2489 -0.2775
  687SOL    HW1 2060   1.377   2.298   1.963  1.3139 -1.8271  2.7208
  687SOL    HW2 2061   1.376   2.446   2.046  1.8424  0.6721 -1.1452
  688SOL     OW 2062   2.081   1.484   1.725  0.4612 -0.0909  0.3807
  688SOL    HW1 2063   2.150   1.559   1.704  0.2196  1.9190  0.9307
  688SOL    HW2 2064   2.029   1.445   1.643 -0.0007  0.0552  1.2475
  689SOL     OW 2065   2.373   1.126   2.779  0.2107  0.3075 -0.1139
  689SOL    HW1 2066   2.273   1.088   2.784 -1.0207 -1.6937 -0.5377
  689SOL    HW2 2067   2.435   1.091   2.858  1.4370 -2.9616 -1.9809
  690SOL     OW 2068   2.205   2.745   0.071 -0.3011 -0.0218  0.2833
  690SOL    HW1 2069   2.157   2.731  -0.023 -1.1527 -0.5183  1.4343
  690SOL    HW2 2070   2.144   2.734   0.155  2.2444  3.1868 -3.7608
  691SOL     OW 2071   2.566   0.401   2.131  0.1761  0.4087  0.0002
  691SOL    HW1 2072   2.619   0.310   2.126 -1.9761  0.0306 -1.2261
  691SOL    HW2 2073   2.608   0.475   2.074  0.5424 -2.2662  1.9931
  692SOL     OW 2074   2.666   1.215   0.766 -0.0679  0.5721  0.2549
  692SOL    HW1 2075   2.586   1.232   0.706  1.5697 -1.4531  0.3852
  692SOL    HW2 2076   2.697   1.299   0.818 -1.7559  1.2172  1.3283
  693SOL     OW 2077   2.874   2.928   0.606 -0.1872  0.0807 -0.1691
  693SOL    HW1 2078   2.843   2.998   0.676 -4.5308 -0.3723 -1.6714
  693SOL    HW2 2079   2.856   2.968   0.511 -1.8925 -0.8875 -1.7842
  694SOL     OW 2080   2.384   2.228   0.146  0.0767  0.5981  0.7345
  694SOL    HW1 2081   2.382   2.326   0.171  0.3188  3.1265  0.3280
  694SOL    HW2 2082   2.290   2.186   0.137 -0.3928 -0.5102  0.4880
  695SOL     OW 2083   0.484   2.997   1.468 -0.6583  0.0126 -0.2659
  695SOL    HW1 2084   0.407   2.932   1.443 -0.1981  3.1499  0.2102
  695SOL    HW2 2085   0.464   3.048   1.554  0.2028 -2.0599 -2.0165
  696SOL     OW 2086   2.763   1.976   0.761  0.4059  0.1247 -0.1208
  696SOL    HW1 2087   2.824   1.896   0.768  0.4171 -0.5456 -1.3288
  696SOL    HW2 2088   2.747   1.998   0.661  0.0544 -0.7741 -1.5602
  697SOL     OW 2089   1.677   1.864   1.811  0.0835  0.2540  0.0426
  697SOL    HW1 2090   1.772   1.826   1.780  0.3694  1.1522  1.1075
  697SOL    HW2 2091   1.680   1.969   1.825  0.6305  1.0471  1.0810
  698SOL     OW 2092   2.918   0.428   2.657 -0.0050  0.0852 -0.3703
  698SOL    HW1 2093   2.945   0.403   2.563 -2.0233 -1.8312 -1.5179
  698SOL    HW2 2094   2.964   0.372   2.732  0.6517  1.8079  0.5395
  699SOL     OW 2095   1.589   0.081   2.926 -1.0875  0.1897  0.1765
  699SOL    HW1 2096   1.572  -0.016   2.898  0.7180 -0.0908  0.4160
  699SOL    HW2 2097   1.637   0.136   2.853 -1.4330 -1.1528 -0.0254
  700SOL     OW 2098   0.993   2.238   1.346 -0.0178 -0.3707  0.1028
  700SOL    HW1 2099   1.075   2.181   1.331  3.0211  0.5778  0.5069
  700SOL    HW2 2100   0.899   2.190   1.341 -2.5338  2.7371 -0.6965
  701SOL     OW 2101   1.914   2.861   0.047  0.1002 -0.8383  0.3014
  701SOL    HW1 2102   1.882   2.822   0.136 -1.7931  4.1685 -0.5641
  701SOL    HW2 2103   1.928   2.963   0.043 -1.4827  0.0501  3.3429
  702SOL     OW 2104   2.098   1.349   1.964  0.2998  0.1950 -0.1902
  702SOL    HW1 2105   2.189   1.306   1.983  0.0471  0.8410 -0.9804
  702SOL    HW2 2106   2.090   1.390   1.871 -0.1300  0.1188  1.5522
  703SOL     OW 2107   1.943   0.888   1.493 -0.4334  0.5890  0.7839
  703SOL    HW1 2108   1.946   0.783   1.496 -1.9822 -0.0430  1.2131
  703SOL    HW2 2109   2.008   0.932   1.557  0.9410 -0.8503  0.0831
  704SOL     OW 2110   0.319   2.066   1.724 -0.4069 -0.5068 -0.4897
  704SOL    HW1 2111   0.355   2.008   1.802 -0.7481 -0.1095 -3.0762
  704SOL    HW2 2112   0.393   2.126   1.678 -0.0117  3.1779  1.3990
  705SOL     OW 2113   2.443   1.432   0.911 -0.4724  0.4821  0.6463
  705SOL    HW1 2114   2.408   1.380   0.829 -1.5538 -0.5240  0.9827
  705SOL    HW2 2115   2.547   1.428   0.923 -0.9900  1.2250 -1.8520
  706SOL     OW 2116   0.615   1.706   1.813  0.6474 -0.2846  0.4731
  706SOL    HW1 2117   0.644   1.717   1.713 -0.0886  3.4923 -0.4024
  706SOL    HW2 2118   0.689   1.666   1.871 -2.0078  0.7617 -3.6536
  707SOL     OW 2119   2.336   1.219   1.985 -0.3011  0.0960  0.5703
  707SOL    HW1 2120   2.437   1.228   1.975 -0.4005  0.3001  1.5333
  707SOL    HW2 2121   2.308   1.120   1.972  0.4077  1.3404 -3.2692
  708SOL     OW 2122   3.011   0.496   3.071  0.3287 -0.8437  0.0303
  708SOL    HW1 2123   3.103   0.531   3.061 -0.8008  0.5255  0.1578
  708SOL    HW2 2124   2.989   0.428   3.001  1.3787 -0.3452  3.2781
  709SOL     OW 2125   1.873   1.899   0.381  0.1883 -0.0389 -0.2622
  709SOL    HW1 2126   1.880   2.000   0.409  2.7561  1.5592  2.8563
  709SOL    HW2 2127   1.874   1.884   0.275  0.5488  1.4555 -1.2336
  710SOL     OW 2128   1.769   1.569   2.450  0.8270  0.1404  0.1959
  710SOL    HW1 2129   1.830   1.512   2.390  2.2330 -0.6896 -2.5297
  710SOL    HW2 2130   1.760   1.526   2.546  1.1582  1.6021  0.6539
  711SOL     OW 2131   2.697   2.872   0.952 -0.0084  0.3985 -0.6815
  711SOL    HW1 2132   2.640   2.950   0.922  2.3246  0.0660  1.5847
  711SOL    HW2 2133   2.789   2.907   0.980 -1.7222  0.5600  1.4152
  712SOL     OW 2134   1.391   2.115   1.963  0.5553  0.1563  0.7277
  712SOL    HW1 2135   1.473   2.067   1.920  0.9855  1.7496 -2.9408
  712SOL    HW2 2136   1.306   2.115   1.908 -2.5718 -0.9953  0.8290
  713SOL     OW 2137   2.791   1.413   2.514  0.1108 -0.1350 -0.0851
  713SOL    HW1 2138   2.797   1.309   2.502 -2.2493 -0.6679  0.1370
  713SOL    HW2 2139   2.703   1.451   2.554 -2.1079 -0.5504 -0.4002
  714SOL     OW 2140   2.682   0.488   2.366  0.7411  0.8071  0.5121
  714SOL    HW1 2141   2.662   0.409   2.434 -3.0373  1.3930 -0.0411
  714SOL    HW2 2142   2.621   0.476   2.281 -3.6168 -0.6794 -0.2905
  715SOL     OW 2143   1.579   2.158   1.156 -0.1618 -0.0137 -0.1889
  715SOL    HW1 2144   1.512   2.221   1.104  0.9841  1.7990  3.3607
  715SOL    HW2 2145   1.562   2.146   1.258 -0.2494 -0.4938  0.2666
  716SOL     OW 2146   1.271   0.121   1.524 -0.0282  0.2314 -0.4547
  716SOL    HW1 2147   1.173   0.136   1.505 -0.7672  0.9167  0.0619
  716SOL    HW2 2148   1.340   0.189   1.492  2.8584 -1.6791  2.7039
  717SOL     OW 2149   1.169   0.579   1.635 -0.2657  0.1734 -0.0054
  717SOL    HW1 2150   1.265   0.601   1.669 -0.0333 -1.1602  0.2527
  717SOL    HW2 2151   1.171   0.544   1.533  2.9465  1.7416 -0.9115
  718SOL     OW 2152   0.659   0.876   0.960  0.2226 -0.5122  0.3415
  718SOL    HW1 2153   0.656   0.878   0.855  0.6291 -0.6438 -0.0613
  718SOL    HW2 2154   0.628   0.964   0.996 -1.2695  0.3243 -2.7415
  719SOL     OW 2155   0.692   1.724   2.262 -0.7575  0.0106  0.1583
  719SOL    HW1 2156   0.738   1.780   2.337  0.8652  0.4129  3.2164
  719SOL    HW2 2157   0.635   1.644   2.296  1.9063  0.9112 -1.1452
  720SOL     OW 2158   2.193   1.160   0.265  0.1612  0.4585  0.3207
  720SOL    HW1 2159   2.267   1.089   0.231 -0.2149  1.3592  1.4202
  720SOL    HW2 2160   2.161   1.147   0.362 -0.9284  2.4356 -0.5600
  721SOL     OW 2161   2.250   3.007   2.134 -0.3843  0.7878 -0.4520
  721SOL    HW1 2162   2.268   3.018   2.036 -0.0121 -1.3334  0.8154
  721SOL    HW2 2163   2.174   3.063   2.176  3.1108 -0.3743  0.5029
  722SOL     OW 2164   2.355   1.681   0.545 -0.2967 -0.4476  0.3635
  722SOL    HW1 2165   2.411   1.695   0.457  1.6500  0.3190 -1.7490
  722SOL    HW2 2166   2.266   1.736   0.547 -1.0433  1.6661 -0.1836
  723SOL     OW 2167   2.648   2.776   1.946 -0.0174  0.0151 -0.0734
  723SOL    HW1 2168   2.699   2.860   1.982  0.8852  1.6704  0.7261
  723SOL    HW2 2169   2.560   2.759   2.002 -1.5170  0.3188  0.1862
  724SOL     OW 2170   0.379   2.511   2.414 -0.1601  0.1775 -0.4200
  724SOL    HW1 2171   0.276   2.510   2.391 -0.8993  0.3442  0.6132
  724SOL    HW2 2172   0.393   2.490   2.512  2.8703  0.8641 -0.1388
  725SOL     OW 2173   2.464   2.846   1.444 -0.5556  0.3189  0.5779
  725SOL    HW1 2174   2.520   2.894   1.373  1.8986 -0.7576  2.3817
  725SOL    HW2 2175   2.484   2.742   1.459 -2.0930  2.3960  1.9514
  726SOL     OW 2176   2.529   2.332   0.687  0.2362  0.2067 -0.1574
  726SOL    HW1 2177   2.491   2.425   0.676  0.7229 -2.3071  1.2622
  726SOL    HW2 2178   2.519   2.272   0.602  1.8531 -1.8677 -2.9484
  727SOL     OW 2179   0.108   3.100   0.100 -0.0056  0.3818 -0.3261
  727SOL    HW1 2180   0.204   3.126   0.065 -0.0879  0.2019  0.0315
  727SOL    HW2 2181   0.080   3.007   0.060 -2.1289 -3.0032  0.4282
  728SOL     OW 2182   2.896   0.721   0.949  0.2091 -0.6853 -0.4640
  728SOL    HW1 2183   2.831   0.702   0.871  1.2428 -1.1229  1.8189
  728SOL    HW2 2184   2.861   0.675   1.036  0.7411 -0.6293 -0.4925
  729SOL     OW 2185   0.031   2.563   0.776  0.0640 -0.2192  0.3439
  729SOL    HW1 2186   0.074   2.525   0.863  2.2255 -0.9385  0.6547
  729SOL    HW2 2187   0.097   2.545   0.692 -0.0248 -2.1935 -4.2832
  730SOL     OW 2188   2.571   0.705   0.889 -0.0017 -0.2528  0.6387
  730SOL    HW1 2189   2.541   0.800   0.860 -0.9884  0.2757 -2.0481
  730SOL    HW2 2190   2.631   0.659   0.818  1.0286  0.2817 -0.1308
  731SOL     OW 2191   3.088   2.204   2.327 -0.1058 -0.2489  0.0817
  731SOL    HW1 2192   3.077   2.238   2.423  0.8284  0.4698 -0.6425
  731SOL    HW2 2193   3.007   2.227   2.262 -0.9624 -2.9013  0.8857
  732SOL     OW 2194   1.275   2.746   1.983 -0.1140 -0.2312  0.5006
  732SOL    HW1 2195   1.273   2.674   2.057 -0.3096 -0.6063  0.7906
  732SOL    HW2 2196   1.272   2.699   1.889  1.2053 -0.0182  0.5757
  733SOL     OW 2197   0.024   0.607   2.252  0.0006 -0.2623 -0.0161
  733SOL    HW1 2198   0.092   0.662   2.192  0.7439 -1.6373  0.6914
  733SOL    HW2 2199  -0.026   0.532   2.197  0.6715 -1.1383 -0.0209
  734SOL     OW 2200   1.465   0.408   2.718 -0.2970  0.0696  0.1057
  734SOL    HW1 2201   1.477   0.502   2.765 -2.9821  0.9867 -1.6404
  734SOL    HW2 2202   1.382   0.358   2.758  2.7149 -2.7221  1.3508
  735SOL     OW 2203   2.959   2.635   2.301 -0.1017  0.1612  0.1653
  735SOL    HW1 2204   2.938   2.610   2.200 -0.7298  2.8508 -1.6141
  735SOL    HW2 2205   3.041   2.695   2.317  2.9789 -0.4817 -1.1280
  736SOL     OW 2206   0.921   0.410   2.555  0.4568  0.1599 -0.1032
  736SOL    HW1 2207   0.824   0.446   2.568 -0.0219  4.0662  0.5251
  736SOL    HW2 2208   0.935   0.334   2.485  0.4710 -2.1601  2.1771
  737SOL     OW 2209   2.644   0.451   2.774 -0.4688 -0.3671  0.0397
  737SOL    HW1 2210   2.617   0.410   2.864 -3.3769 -1.2696  0.4208
  737SOL    HW2 2211   2.742   0.421   2.748 -2.2744  0.0984 -1.9971
  738SOL     OW 2212   1.745   1.224   2.941  0.0301 -0.0359  0.2986
  738SOL    HW1 2213   1.826   1.196   2.884 -2.0535  1.6454 -1.3515
  738SOL    HW2 2214   1.697   1.141   2.975 -0.6433  1.0320  1.2795
  739SOL     OW 2215   1.836   0.705   0.597  0.0997 -0.4386  0.1550
  739SOL    HW1 2216   1.879   0.745   0.686 -0.0724 -0.2705 -1.3855
  739SOL    HW2 2217   1.850   0.607   0.587  0.2628 -1.4597  0.6846
  740SOL     OW 2218   1.972   1.939   2.342  0.0868 -0.0851 -0.1286
  740SOL    HW1 2219   2.029   1.855   2.372 -2.2243  1.9819 -3.0454
  740SOL    HW2 2220   1.905   1.922   2.269  0.1289  1.5077  0.4652
  741SOL     OW 2221   2.537   0.047   2.464 -0.3851 -1.1859 -0.0101
  741SOL    HW1 2222   2.634   0.010   2.455 -0.9399 -2.5436 -1.6459
  741SOL    HW2 2223   2.494   0.071   2.371 -1.0431 -1.5856  0.7213
  742SOL     OW 2224   2.188   1.412   0.190 -0.3754 -0.5862 -0.1302
  742SOL    HW1 2225   2.085   1.422   0.191 -0.3322 -0.2576  0.7976
  742SOL    HW2 2226   2.211   1.317   0.224 -0.7854 -2.8647  1.0056
  743SOL     OW 2227   1.834   0.617   2.612 -0.2793 -0.1236  0.4856
  743SOL    HW1 2228   1.804   0.562   2.530  0.8534  0.2666  0.8804
  743SOL    HW2 2229   1.758   0.671   2.657  3.2743  1.4574 -0.4687
  744SOL     OW 2230   2.638   2.165   0.113  0.5392  0.0247 -0.8562
  744SOL    HW1 2231   2.532   2.184   0.128 -1.3714  3.2489 -6.0242
  744SOL    HW2 2232   2.662   2.065   0.114  2.1182  1.9722 -0.3450
  745SOL     OW 2233   2.186   2.532   2.218  0.5086  0.6911 -0.1474
  745SOL    HW1 2234   2.098   2.563   2.177  0.8394 -0.7981  1.2391
  745SOL    HW2 2235   2.171   2.514   2.322  0.6725  0.6078  0.1390
  746SOL     OW 2236   0.014   2.576   1.758  0.5874  0.2688 -0.1790
  746SOL    HW1 2237   0.101   2.567   1.705 -0.8943 -0.2549 -2.4520
  746SOL    HW2 2238   0.017   2.655   1.825  0.7006  1.8640 -1.9563
  747SOL     OW 2239   0.018   1.794   1.648  0.5895  0.2820  0.0455
  747SOL    HW1 2240  -0.037   1.707   1.656  0.6085 -1.8119 -2.7838
  747SOL    HW2 2241   0.085   1.800   1.566  0.9629 -2.0132 -2.4940
  748SOL     OW 2242   1.837   2.712   2.918  0.1494  0.3851 -0.3893
  748SOL    HW1 2243   1.851   2.782   3.002 -3.2499 -0.0813  0.7136
  748SOL    HW2 2244   1.742   2.719   2.872  1.8243  1.4750 -0.0917
  749SOL     OW 2245   1.307   2.942   0.836  0.5611  0.6270  0.6003
  749SOL    HW1 2246   1.223   2.992   0.805 -1.4651  3.1761 -2.3807
  749SOL    HW2 2247   1.394   2.984   0.799 -2.6333 -0.1409  0.9681
  750SOL     OW 2248   2.238   0.181   1.854 -0.6031 -0.3951 -0.0158
  750SOL    HW1 2249   2.257   0.234   1.768 -1.9848 -0.3145 -1.8010
  750SOL    HW2 2250   2.248   0.231   1.939 -0.8806 -0.1292 -0.7545
  751SOL     OW 2251   0.780   2.143   2.897 -0.0675 -0.4644 -0.5108
  751SOL    HW1 2252   0.858   2.118   2.964 -0.3268  2.3881  0.4942
  751SOL    HW2 2253   0.692   2.092   2.921 -1.3821 -0.0953  1.8780
  752SOL     OW 2254   1.335   0.803   1.168 -0.7837 -0.0628  0.1902
  752SOL    HW1 2255   1.351   0.906   1.182 -0.6324 -1.0525  0.2426
  752SOL    HW2 2256   1.409   0.750   1.220  2.2689  0.5963 -1.0236
  753SOL     OW 2257   0.970   2.563   1.782 -0.4812  0.1253  0.0065
  753SOL    HW1 2258   1.068   2.570   1.770 -2.4463 -0.4801  2.1110
  753SOL    HW2 2259   0.928   2.644   1.821 -0.1845 -2.6764  0.2092
  754SOL     OW 2260   1.178   1.150   2.990  0.2616 -0.2051 -0.1577
  754SOL    HW1 2261   1.228   1.073   2.935  0.1962 -0.2982  0.4028
  754SOL    HW2 2262   1.222   1.244   2.980 -0.0740 -0.4804 -0.2468
  755SOL     OW 2263   1.966   0.470   2.213  0.0807 -0.3556  0.0223
  755SOL    HW1 2264   2.038   0.390   2.226 -0.6654  0.3233  0.4371
  755SOL    HW2 2265   1.887   0.464   2.280 -2.4316  2.6971  0.8673
  756SOL     OW 2266   2.495   0.969   3.001 -0.1713  0.1220  0.1209
  756SOL    HW1 2267   2.600   0.963   3.006 -1.4404 -0.5870 -0.6981
  756SOL    HW2 2268   2.444   0.880   3.020  2.0463 -1.2554  1.7791
  757SOL     OW 2269   0.094   0.428   1.967 -0.4704 -0.1559  0.1484
  757SOL    HW1 2270   0.153   0.346   1.964 -1.3627 -3.4406 -3.2925
  757SOL    HW2 2271   0.016   0.419   2.035  1.9569  2.3425 -1.4203
  758SOL     OW 2272   2.280   0.073   1.490 -0.8045  0.4032  0.3332
  758SOL    HW1 2273   2.235  -0.011   1.526 -1.8438 -0.1669  1.3826
  758SOL    HW2 2274   2.279   0.074   1.388  0.0023 -2.4370  1.5162
  759SOL     OW 2275   1.702   0.086   0.065 -0.1303 -0.7638 -0.4276
  759SOL    HW1 2276   1.669   0.071  -0.036  1.7878 -1.8154 -3.8453
  759SOL    HW2 2277   1.806   0.074   0.073  0.9137  1.0579 -0.4990
  760SOL     OW 2278   2.704   2.012   2.851 -0.1595  0.2646 -0.1203
  760SOL    HW1 2279   2.604   2.040   2.873 -0.1033 -3.7885  0.7650
  760SOL    HW2 2280   2.763   2.091   2.821  0.0330  0.8135  0.0884
  761SOL     OW 2281   1.916   1.763   1.707 -0.1079 -0.4756  0.1534
  761SOL    HW1 2282   1.930   1.682   1.769  0.1926  0.5729  0.1566
  761SOL    HW2 2283   1.870   1.727   1.620 -0.5268  0.1409  2.1108
  762SOL     OW 2284   0.489   2.422   0.931  0.1220  0.0126 -0.2046
  762SOL    HW1 2285   0.535   2.426   0.840 -2.3316 -0.5160  0.7358
  762SOL    HW2 2286   0.554   2.409   1.011 -0.8485  0.3309  0.2005
  763SOL     OW 2287   2.127   1.602   2.985 -0.4821 -0.3321 -0.3636
  763SOL    HW1 2288   2.228   1.574   3.006  2.4639 -0.6526 -0.8935
  763SOL    HW2 2289   2.064   1.559   3.053 -1.0730 -0.2993  0.8337
  764SOL     OW 2290   0.666   0.600   0.669  0.0839  0.0974  0.2679
  764SOL    HW1 2291   0.566   0.567   0.650 -1.6318 -0.2750 -1.5906
  764SOL    HW2 2292   0.704   0.560   0.762  1.2691 -0.8948 -0.8030
  765SOL     OW 2293   0.815   0.326   0.714 -0.1740  0.6824 -0.0231
  765SOL    HW1 2294   0.845   0.354   0.621  1.7696 -0.3275 -3.4839
  765SOL    HW2 2295   0.833   0.399   0.789 -0.2631 -0.9546 -3.8868
  766SOL     OW 2296   2.914   2.166   3.056 -0.2421 -0.1816  0.3131
  766SOL    HW1 2297   2.815   2.193   3.057  1.5776 -1.3359 -1.6831
  766SOL    HW2 2298   2.977   2.240   3.093  2.1025 -0.0653  0.6714
  767SOL     OW 2299   2.834   1.599   0.574 -0.0162 -0.1544  0.4431
  767SOL    HW1 2300   2.748   1.632   0.621 -1.1419  0.6156 -0.8770
  767SOL    HW2 2301   2.920   1.646   0.612  0.1163  0.5887  1.6943
  768SOL     OW 2302   1.049   0.196   0.179  0.7887 -0.1894  0.0959
  768SOL    HW1 2303   1.021   0.254   0.261  2.1003 -1.5039  2.5705
  768SOL    HW2 2304   1.137   0.144   0.191 -0.1143  1.3547 -0.9770
  769SOL     OW 2305   1.134   1.816   2.285  0.1222  0.3651  0.2114
  769SOL    HW1 2306   1.048   1.847   2.327  1.4648 -2.9413 -1.3583
  769SOL    HW2 2307   1.210   1.807   2.360 -1.1547 -0.3050 -0.9266
  770SOL     OW 2308   0.178   1.156   2.335 -0.1906 -0.0755  0.4368
  770SOL    HW1 2309   0.191   1.210   2.425  0.7727  0.6147 -0.4009
  770SOL    HW2 2310   0.079   1.129   2.318 -0.7405 -0.2017 -0.2578
  771SOL     OW 2311   3.050   2.814   1.920 -0.3567  0.1125  0.6729
  771SOL    HW1 2312   2.983   2.835   1.842 -1.5709  2.5512 -0.7813
  771SOL    HW2 2313   3.056   2.890   1.993 -0.3248  2.7457  0.2868
  772SOL     OW 2314   2.352   0.235   2.844  0.0995  0.3504 -1.0017
  772SOL    HW1 2315   2.398   0.151   2.805 -0.6140 -0.0418 -0.2342
  772SOL    HW2 2316   2.368   0.248   2.949 -4.4221  0.8820  3.8499
  773SOL     OW 2317   0.583   2.062   2.418  0.3911 -0.2020  0.0090
  773SOL    HW1 2318   0.532   2.135   2.371 -0.0872 -0.7562  1.8503
  773SOL    HW2 2319   0.521   2.008   2.478 -1.1060 -1.7908  0.0555
  774SOL     OW 2320   2.129   0.013   2.590  0.2121  0.1835 -0.0394
  774SOL    HW1 2321   2.147   0.114   2.619 -0.3533 -0.6821  0.4199
  774SOL    HW2 2322   2.169  -0.045   2.665  1.6658  0.0917 -0.8530
  775SOL     OW 2323   2.559   2.914   2.236 -0.2721  0.3410  0.1465
  775SOL    HW1 2324   2.477   2.976   2.242 -1.9820  4.6352  1.1101
  775SOL    HW2 2325   2.609   2.902   2.324 -1.7338  0.4617 -1.0521
  776SOL     OW 2326   0.024   1.241   0.200  0.3991  0.1200 -0.2946
  776SOL    HW1 2327  -0.033   1.180   0.139 -2.4347  0.6447  1.2374
  776SOL    HW2 2328  -0.025   1.249   0.293 -1.1760 -1.7325  3.0076
  777SOL     OW 2329   0.397   2.973   0.491  0.1262 -0.2545 -0.1414
  777SOL    HW1 2330   0.303   2.930   0.463 -2.1638 -2.5855 -0.7023
  777SOL    HW2 2331   0.476   2.901   0.485  0.6047 -1.1261 -5.6438
  778SOL     OW 2332   1.390   2.010   0.265 -0.0269  0.2805 -0.0505
  778SOL    HW1 2333   1.305   2.052   0.311 -2.2990 -0.0276  1.0027
  778SOL    HW2 2334   1.419   2.052   0.173 -0.5946 -1.7810 -1.9958
  779SOL     OW 2335   0.147   0.804   0.466  0.1323 -0.3730 -0.0327
  779SOL    HW1 2336   0.091   0.717   0.476  1.7597  2.2119  3.2907
  779SOL    HW2 2337   0.103   0.884   0.510  0.9598  0.1814  1.3471
  780SOL     OW 2338   0.122   0.321   2.335 -0.1090 -0.2835 -0.0348
  780SOL    HW1 2339   0.139   0.398   2.405  2.1081 -0.1099  0.8672
  780SOL    HW2 2340   0.194   0.327   2.257  0.5548 -1.0680 -0.4715
  781SOL     OW 2341   0.688   1.662   1.522  0.7589  0.4619 -0.3433
  781SOL    HW1 2342   0.741   1.592   1.577  0.9133  0.6313 -1.0437
  781SOL    HW2 2343   0.588   1.635   1.509  0.2970  0.3384 -2.6015
  782SOL     OW 2344   2.576   0.045   0.918 -0.0291  0.5343 -0.0989
  782SOL    HW1 2345   2.494   0.059   0.856 -1.8316  0.7659  0.6295
  782SOL    HW2 2346   2.567   0.099   1.004 -2.1192 -1.8866  0.8369
  783SOL     OW 2347   2.752   0.732   2.457 -0.0474 -0.1505  0.4002
  783SOL    HW1 2348   2.728   0.730   2.555  1.1220 -2.8443 -0.7424
  783SOL    HW2 2349   2.734   0.639   2.418  0.0952 -1.4094  2.0647
  784SOL     OW 2350   1.427   2.121   0.026  0.0168  0.6980  0.0351
  784SOL    HW1 2351   1.422   2.226   0.047  2.6421  1.1878 -2.9089
  784SOL    HW2 2352   1.411   2.106  -0.071 -0.6568  0.2671  2.1947
  785SOL     OW 2353   2.084   0.292   3.086  0.0379  0.3502 -0.1536
  785SOL    HW1 2354   2.007   0.322   3.141 -0.2905 -0.8231  0.5080
  785SOL    HW2 2355   2.133   0.375   3.043 -0.8810  2.3491  1.2733
  786SOL     OW 2356   2.060   2.193   2.272  0.1167 -0.0498 -0.0855
  786SOL    HW1 2357   2.022   2.101   2.293 -1.3054 -1.7461  2.6364
  786SOL    HW2 2358   2.164   2.203   2.272 -1.8127 -1.1825 -0.8459
  787SOL     OW 2359   1.380   0.544   0.869 -0.2083  0.0244  0.0640
  787SOL    HW1 2360   1.307   0.606   0.836 -2.0374  1.7473 -0.9660
  787SOL    HW2 2361   1.450   0.528   0.791  1.1839  0.1167 -0.1405
  788SOL     OW 2362   1.221   0.423   0.015  0.9667 -0.3143 -0.1241
  788SOL    HW1 2363   1.160   0.384  -0.062 -2.2943  0.0348 -0.3221
  788SOL    HW2 2364   1.174   0.495   0.076  0.4882  0.0204 -0.2140
  789SOL     OW 2365   2.538   0.121   1.963 -0.6795  0.2191 -0.3347
  789SOL    HW1 2366   2.493   0.101   1.871 -1.6426  0.9023 -0.8517
  789SOL    HW2 2367   2.611   0.054   1.988  1.6611 -2.7782 -0.2694
  790SOL     OW 2368   2.624   2.767   0.702 -0.3858 -0.0098  0.1188
  790SOL    HW1 2369   2.689   2.827   0.649  0.9415  0.8917 -2.6723
  790SOL    HW2 2370   2.658   2.754   0.801 -0.2046 -0.4558 -2.2756
  791SOL     OW 2371   1.924   1.197   0.170  0.3316  0.0349  0.6916
  791SOL    HW1 2372   1.853   1.134   0.222 -1.3331 -0.0027 -0.5876
  791SOL    HW2 2373   2.018   1.191   0.220  1.0458  1.2042 -2.2292
  792SOL     OW 2374   0.428   1.776   2.185 -0.3176 -0.6035 -0.6377
  792SOL    HW1 2375   0.504   1.838   2.225  1.2529 -0.5552  2.5980
  792SOL    HW2 2376   0.453   1.678   2.210  0.6276 -0.1623 -0.9953
  793SOL     OW 2377   2.125   1.611   2.069  0.1258 -0.2955  0.3119
  793SOL    HW1 2378   2.201   1.663   2.020  1.2102  0.1880 -1.0450
  793SOL    HW2 2379   2.114   1.512   2.036  1.9966  0.9142 -0.1894
  794SOL     OW 2380   0.495   1.497   2.288  0.2826 -0.6322  0.0814
  794SOL    HW1 2381   0.488   1.453   2.197  0.4981  0.5513 -0.2760
  794SOL    HW2 2382   0.412   1.475   2.344  0.0971  0.1686  0.6017
  795SOL     OW 2383   2.495   2.243   1.812  0.2286  0.2058  0.2152
  795SOL    HW1 2384   2.445   2.223   1.903 -1.0896  1.3961 -3.1228
  795SOL    HW2 2385   2.471   2.177   1.735  0.5307  1.3122 -0.4947
  796SOL     OW 2386   3.075   1.098   2.667  0.2492 -0.2943 -0.9567
  796SOL    HW1 2387   2.976   1.080   2.701  1.7342 -1.9413 -2.4047
  796SOL    HW2 2388   3.145   1.104   2.745 -2.0779  3.0772 -0.0330
  797SOL     OW 2389   0.816   0.639   1.426  0.3570 -0.1144 -0.5121
  797SOL    HW1 2390   0.896   0.695   1.459  0.5797 -1.2422  1.2544
  797SOL    HW2 2391   0.750   0.691   1.370 -0.1042  0.2270  0.4151
  798SOL     OW 2392   1.318   0.437   1.188 -0.1983  0.0013  0.1332
  798SOL    HW1 2393   1.373   0.388   1.264  0.6180  0.5760  0.3349
  798SOL    HW2 2394   1.373   0.441   1.098  1.4768  2.0144 -1.3991
  799SOL     OW 2395   1.964   2.648   1.038 -0.2220 -0.1545 -0.3417
  799SOL    HW1 2396   1.900   2.624   1.119  2.3093 -0.4536  0.6213
  799SOL    HW2 2397   1.922   2.647   0.946  0.4151 -1.0368  0.0675
  800SOL     OW 2398   3.045   0.625   1.833 -0.3377  0.0280  0.8012
  800SOL    HW1 2399   2.987   0.686   1.893 -0.7457  0.9217  1.5861
  800SOL    HW2 2400   3.098   0.559   1.891 -1.0786  2.7282  1.8432
  801SOL     OW 2401   1.903   2.194   0.161 -0.1156  1.1027 -0.6496
  801SOL    HW1 2402   1.823   2.147   0.115  0.4658 -1.9361  0.2891
  801SOL    HW2 2403   1.993   2.140   0.137 -0.0534  0.2312 -2.0336
  802SOL     OW 2404   0.745   0.786   2.592 -0.6222 -0.2905 -0.0576
  802SOL    HW1 2405   0.808   0.765   2.507  0.0315  0.7704  0.1685
  802SOL    HW2 2406   0.657   0.735   2.594  2.7926 -1.6624 -0.1407
  803SOL     OW 2407   0.894   0.167   0.932  0.1799 -0.2074  0.1221
  803SOL    HW1 2408   0.970   0.224   0.966  1.8833 -2.2871 -2.0758
  803SOL    HW2 2409   0.844   0.214   0.854  0.3996 -0.0611 -0.9621
  804SOL     OW 2410   0.414   3.021   2.109 -0.3986  0.7174  0.4861
  804SOL    HW1 2411   0.336   3.068   2.063  0.1461  0.8601 -1.3224
  804SOL    HW2 2412   0.418   2.921   2.092  0.3962  1.3316  0.6298
  805SOL     OW 2413   2.433   0.268   0.277  0.0463 -0.6154 -0.4345
  805SOL    HW1 2414   2.538   0.273   0.278 -2.1709 -2.4492 -1.9059
  805SOL    HW2 2415   2.402   0.240   0.176 -0.7390 -1.4379 -0.6226
  806SOL     OW 2416   0.675   2.409   1.680 -0.3428  0.5637  0.3799
  806SOL    HW1 2417   0.661   2.514   1.686 -0.8424  1.7102 -2.9750
  806SOL    HW2 2418   0.768   2.376   1.645  0.2164 -1.0494 -0.0768
  807SOL     OW 2419   2.475   0.936   0.427 -0.4841  0.7954 -0.1814
  807SOL    HW1 2420   2.567   0.902   0.461 -1.8287  0.0065  1.5382
  807SOL    HW2 2421   2.453   0.914   0.327 -1.9786  2.9081  2.2057
  808SOL     OW 2422   0.575   2.010   2.983  0.1280  0.1611 -0.4013
  808SOL    HW1 2423   0.578   2.042   3.082 -2.4758  1.1173 -0.4402
  808SOL    HW2 2424   0.527   1.916   2.970  0.6339 -0.6290  0.9963
  809SOL     OW 2425   2.654   1.983   1.945 -0.6925 -0.3135  0.5429
  809SOL    HW1 2426   2.741   2.036   1.942 -0.9768  0.5158  1.6298
  809SOL    HW2 2427   2.619   1.954   1.851 -2.3540  1.5527 -0.9660
  810SOL     OW 2428   2.069   1.131   0.523 -0.5742 -0.2166 -0.3763
  810SOL    HW1 2429   2.089   1.074   0.603  0.7628  1.3642 -1.2120
  810SOL    HW2 2430   2.018   1.218   0.549  0.6076 -3.1530 -0.8333
  811SOL     OW 2431   1.272   2.409   1.234  0.0359  0.2937  0.7242
  811SOL    HW1 2432   1.243   2.312   1.257 -0.8081 -0.1298  2.2990
  811SOL    HW2 2433   1.243   2.442   1.140  2.4090  1.0132  0.3781
  812SOL     OW 2434   1.377   0.781   1.958  0.1431 -0.1122 -0.4809
  812SOL    HW1 2435   1.422   0.839   2.029  1.0237  1.7415 -1.6108
  812SOL    HW2 2436   1.290   0.823   1.924  0.8643  0.4845 -0.2966
  813SOL     OW 2437   1.743   2.067   2.478  0.5794  0.5372 -0.4922
  813SOL    HW1 2438   1.828   2.022   2.459 -2.4303  3.2049  0.0263
  813SOL    HW2 2439   1.682   2.077   2.392  0.0491 -1.6434  0.2639
  814SOL     OW 2440   2.851   1.538   2.903 -0.2067 -0.0904 -0.2320
  814SOL    HW1 2441   2.947   1.557   2.937 -1.9989 -0.7045  0.2898
  814SOL    HW2 2442   2.835   1.601   2.819  0.8760 -0.2857  0.3832
  815SOL     OW 2443   2.241   2.902   2.728  0.3369  0.2759 -0.2452
  815SOL    HW1 2444   2.189   2.814   2.744 -0.7722  0.2249  2.8556
  815SOL    HW2 2445   2.343   2.893   2.721 -0.8304  1.9072  0.3029
  816SOL     OW 2446   1.750   0.357   1.695 -0.0634 -0.0203  0.0546
  816SOL    HW1 2447   1.646   0.355   1.719 -0.1588 -2.4232 -2.3486
  816SOL    HW2 2448   1.810   0.377   1.776  0.1374  2.0557  1.7866
  817SOL     OW 2449   0.471   1.209   2.460  0.2920 -0.3379 -0.5805
  817SOL    HW1 2450   0.392   1.281   2.465  1.7629  0.2405  2.4812
  817SOL    HW2 2451   0.479   1.149   2.378 -1.5205 -1.2682 -0.7645
  818SOL     OW 2452   2.023   0.863   0.421  0.3362  0.0385  0.1704
  818SOL    HW1 2453   2.033   0.963   0.399  0.8675 -2.7529 -2.0307
  818SOL    HW2 2454   1.980   0.851   0.515  0.2572 -0.5965  1.0063
  819SOL     OW 2455   2.767   2.949   3.043  0.2236  0.2335  0.1369
  819SOL    HW1 2456   2.846   2.894   3.011 -1.5469 -0.2250  0.5410
  819SOL    HW2 2457   2.680   2.926   2.985  0.8749 -1.9800 -1.0962
  820SOL     OW 2458   1.209   1.121   0.523  0.5600 -0.1639 -0.4701
  820SOL    HW1 2459   1.218   1.211   0.575  1.7522 -2.0639 -1.0173
  820SOL    HW2 2460   1.167   1.051   0.582 -1.4875  2.3282  0.5446
  821SOL     OW 2461   3.065   1.280   0.657 -0.4499 -0.0493  0.2874
  821SOL    HW1 2462   3.011   1.302   0.743  1.4376  0.7789 -0.8745
  821SOL    HW2 2463   3.149   1.336   0.659  0.6781 -1.6183  0.4437
  822SOL     OW 2464   2.528   1.769   2.422 -0.3122  0.2947 -0.1414
  822SOL    HW1 2465   2.512   1.841   2.490  0.6311 -0.3371 -0.4308
  822SOL    HW2 2466   2.511   1.797   2.322 -0.7891  1.9917 -0.2292
  823SOL     OW 2467   2.035   0.896   1.203 -0.0171  0.1301  0.5485
  823SOL    HW1 2468   2.005   0.907   1.303 -1.4685 -3.4148 -0.6746
  823SOL    HW2 2469   1.961   0.922   1.135  1.2477 -2.2436 -0.9930
  824SOL     OW 2470   0.168   2.015   2.727 -0.1617  0.2517  0.0129
  824SOL    HW1 2471   0.152   1.961   2.814 -1.5786  0.9415 -0.4914
  824SOL    HW2 2472   0.175   1.959   2.638 -2.0626 -2.1925  0.9067
  825SOL     OW 2473   1.237   1.047   0.250 -0.1866 -0.4135 -0.4555
  825SOL    HW1 2474   1.238   1.066   0.348  1.2184  0.6553 -2.0114
  825SOL    HW2 2475   1.226   1.130   0.188  0.4100  0.5153  1.0007
  826SOL     OW 2476   1.935   0.621   1.531  0.4705 -0.1336 -0.1983
  826SOL    HW1 2477   2.005   0.566   1.590 -0.1962 -2.0559 -1.1027
  826SOL    HW2 2478   1.844   0.566   1.512 -0.4680  2.6089 -2.5775
  827SOL     OW 2479   0.754   1.416   0.293  0.1618  0.4675  0.5409
  827SOL    HW1 2480   0.760   1.358   0.209  1.4236  0.8975  0.5481
  827SOL    HW2 2481   0.706   1.367   0.375 -0.1492 -0.0064 -0.6681
  828SOL     OW 2482   2.555   0.087   1.576  0.1738 -0.5187 -0.0559
  828SOL    HW1 2483   2.452   0.116   1.560  0.5492  2.7420 -0.1729
  828SOL    HW2 2484   2.554   0.004   1.643  0.2146 -1.0881  0.2272
  829SOL     OW 2485   2.831   2.482   3.030  0.6591 -0.0860  0.3495
  829SOL    HW1 2486   2.757   2.410   3.000  0.7103 -1.6969  1.8746
  829SOL    HW2 2487   2.785   2.552   3.093  2.7037 -0.5898 -1.5080
  830SOL     OW 2488   2.782   0.966   3.036 -0.0647  0.0266  0.2911
  830SOL    HW1 2489   2.854   1.040   3.061  0.3283  0.9127  4.0855
  830SOL    HW2 2490   2.806   0.870   3.071  2.7120  0.6670 -1.7145
  831SOL     OW 2491  -0.000   0.587   0.364  0.5023 -0.2250 -0.4362
  831SOL    HW1 2492  -0.028   0.535   0.449  0.4440 -2.1522 -0.5340
  831SOL    HW2 2493   0.064   0.530   0.305  0.4473  0.6730  0.9816
  832SOL     OW 2494   1.779   0.739   3.093 -0.6833 -0.0468 -0.3887
  832SOL    HW1 2495   1.707   0.807   3.063 -0.1467 -2.9409 -1.0992
  832SOL    HW2 2496   1.769   0.646   3.045  0.4788  1.4945 -1.9800
  833SOL     OW 2497   2.464   2.154   0.499  0.2680  0.3535 -0.1444
  833SOL    HW1 2498   2.360   2.149   0.496 -0.9491  1.6399  0.8429
  833SOL    HW2 2499   2.517   2.061   0.497  0.0052 -1.9288 -2.4791
  834SOL     OW 2500   0.073   0.251   0.638 -0.4180  0.4739  0.3551
  834SOL    HW1 2501   0.128   0.194   0.702  3.5063 -2.4802 -1.9311
  834SOL    HW2 2502   0.106   0.241   0.535 -0.1461  0.2040 -1.5799
  835SOL     OW 2503   2.375   1.500   1.173 -0.9394 -0.4188 -0.2043
  835SOL    HW1 2504   2.465   1.548   1.194  0.1503 -0.4876  0.7201
  835SOL    HW2 2505   2.374   1.482   1.066  1.7463  0.0967 -0.2142
  836SOL     OW 2506   1.514   0.815   2.571  0.2217 -0.5055  0.3958
  836SOL    HW1 2507   1.410   0.812   2.564 -0.4763 -0.5021  1.9276
  836SOL    HW2 2508   1.561   0.837   2.481 -1.3409 -2.2073 -0.6385
  837SOL     OW 2509   1.577   0.040   0.508  0.9997  0.3027  0.1415
  837SOL    HW1 2510   1.545   0.117   0.570  0.1532  0.3050  2.4702
  837SOL    HW2 2511   1.552   0.059   0.412  2.4432  1.2455  0.6388
  838SOL     OW 2512   1.292   1.596   2.669 -0.1936 -0.1194  0.4028
  838SOL    HW1 2513   1.356   1.541   2.726 -1.9477  2.6910 -0.5909
  838SOL    HW2 2514   1.220   1.533   2.629  1.3594  1.9564 -1.8897
  839SOL     OW 2515   1.635   0.267   0.983  0.1860  0.5769  0.1331
  839SOL    HW1 2516   1.653   0.338   1.056  2.0398  0.8837  1.6596
  839SOL    HW2 2517   1.615   0.176   1.030 -0.0509  0.2086 -0.9499
  840SOL     OW 2518   2.540   2.964   1.722  0.1311 -0.1655 -0.0087
  840SOL    HW1 2519   2.494   2.908   1.652  0.7919  1.8046 -0.6613
  840SOL    HW2 2520   2.601   2.921   1.794 -2.3314  1.5119 -0.2772
  841SOL     OW 2521   1.568   0.909   3.055 -0.0176 -0.5973  0.0107
  841SOL    HW1 2522   1.483   0.882   3.103  0.8355 -0.3045 -0.3782
  841SOL    HW2 2523   1.561   0.955   2.957 -1.1840  3.4062 -2.0548
  842SOL     OW 2524   0.829   1.537   0.842  0.1069  0.3041  0.1843
  842SOL    HW1 2525   0.789   1.597   0.915  2.7430 -0.3169 -0.9087
  842SOL    HW2 2526   0.760   1.464   0.817  1.1337  2.2681  0.2793
  843SOL     OW 2527   0.198   3.053   1.395 -0.0830  0.2351 -0.4151
  843SOL    HW1 2528   0.196   3.128   1.473  0.4187  0.8132  1.5293
  843SOL    HW2 2529   0.158   2.965   1.433  0.2408 -0.4844 -0.3881
  844SOL     OW 2530   0.824   2.469   0.257 -0.4700 -0.5070 -0.1581
  844SOL    HW1 2531   0.755   2.434   0.327 -0.9014  0.1897  0.2844
  844SOL    HW2 2532   0.780   2.506   0.170  1.8420  0.4998 -1.2781
  845SOL     OW 2533   1.651   2.832   1.247  0.4354  0.2309  0.3516
  845SOL    HW1 2534   1.707   2.750   1.222  1.0339  0.8576 -0.9364
  845SOL    HW2 2535   1.660   2.871   1.342 -0.7364  0.8948 -3.1416
  846SOL     OW 2536   1.570   2.980   0.759 -0.1005 -0.6250 -0.6783
  846SOL    HW1 2537   1.574   3.012   0.658  1.1024  0.6317 -1.8446
  846SOL    HW2 2538   1.641   2.901   0.769  1.4500  0.1927 -1.0979
  847SOL     OW 2539   2.092   1.727   0.451  0.0459  0.1425 -0.5699
  847SOL    HW1 2540   2.079   1.625   0.438 -0.1366 -1.7443 -2.2658
  847SOL    HW2 2541   2.002   1.784   0.460  0.8228 -4.8277  1.6735
  848SOL     OW 2542   2.408   0.886   2.624 -0.0506  0.2052 -0.4439
  848SOL    HW1 2543   2.369   0.973   2.669 -1.1656  1.0659 -1.3932
  848SOL    HW2 2544   2.332   0.818   2.602 -0.8429  0.8192 -1.1535
  849SOL     OW 2545   2.527   0.895   2.378  0.1976 -0.5744 -0.4062
  849SOL    HW1 2546   2.611   0.847   2.407  2.7680 -0.8891 -1.0264
  849SOL    HW2 2547   2.462   0.911   2.459 -0.3255 -0.7226 -0.7070
  850SOL     OW 2548   1.572   0.043   1.301 -0.8024 -0.2234  0.8277
  850SOL    HW1 2549   1.561   0.006   1.207  1.3820  1.6292  3.6997
  850SOL    HW2 2550   1.506  -0.011   1.362 -0.4883  1.0529 -0.3015
  851SOL     OW 2551   0.528   1.748   0.650 -0.5899  0.4925 -0.2512
  851SOL    HW1 2552   0.595   1.803   0.700  0.5281  0.1566 -4.9188
  851SOL    HW2 2553   0.532   1.769   0.552 -0.9760 -1.8125 -0.2697
  852SOL     OW 2554   0.850   2.101   1.729 -0.0846 -0.4800  0.4243
  852SOL    HW1 2555   0.903   2.190   1.712  0.6715 -0.5809  2.2285
  852SOL    HW2 2556   0.768   2.109   1.796  2.0714  0.3438  0.8022
  853SOL     OW 2557   2.542   1.554   2.609  0.1205  0.0206 -0.1006
  853SOL    HW1 2558   2.483   1.469   2.592 -2.1747  2.4208  1.0955
  853SOL    HW2 2559   2.540   1.627   2.537  2.5882 -0.1276  0.6092
  854SOL     OW 2560   2.471   1.400   1.767 -0.1546 -0.2838 -0.1986
  854SOL    HW1 2561   2.517   1.382   1.675 -0.8752 -0.1975  2.6217
  854SOL    HW2 2562   2.421   1.317   1.804 -0.0149  0.1841  0.5562
  855SOL     OW 2563   2.084   2.397   1.069 -0.1441 -0.0272 -0.4699
  855SOL    HW1 2564   2.041   2.489   1.046  0.0164  0.7389 -3.0352
  855SOL    HW2 2565   2.167   2.410   1.130  0.2634  0.2225 -2.3616
  856SOL     OW 2566   1.336   1.433   0.917 -0.3162 -0.2439  0.0260
  856SOL    HW1 2567   1.421   1.489   0.938  0.1867  0.4410  0.7864
  856SOL    HW2 2568   1.246   1.488   0.940  0.3399  0.2136  2.9955
  857SOL     OW 2569   3.094   2.748   1.078  0.1817  0.1546 -0.3971
  857SOL    HW1 2570   3.064   2.712   0.987  1.0731 -0.0074 -2.1063
  857SOL    HW2 2571   3.191   2.788   1.080 -2.5581  1.3688  0.1085
  858SOL     OW 2572   2.405   2.073   1.612  0.0406  0.0004  0.9889
  858SOL    HW1 2573   2.307   2.048   1.631 -1.2054  2.5307  2.6854
  858SOL    HW2 2574   2.467   2.003   1.643 -0.3810 -0.3125 -2.4575
  859SOL     OW 2575   2.433   0.534   1.072  0.2799 -0.2963 -0.5049
  859SOL    HW1 2576   2.506   0.568   1.000  0.9595  0.1257 -3.7878
  859SOL    HW2 2577   2.475   0.469   1.144  1.0428 -0.5154  1.6490
  860SOL     OW 2578   1.897   2.801   0.519 -0.2531 -0.0357  0.4121
  860SOL    HW1 2579   1.897   2.745   0.432  1.2311 -1.2183  0.6271
  860SOL    HW2 2580   1.892   2.907   0.505  1.7713 -0.0022 -0.1453
  861SOL     OW 2581   0.989   2.506   2.873 -0.3141  0.0767  0.1730
  861SOL    HW1 2582   1.073   2.544   2.830 -1.0069  0.6376  1.0776
  861SOL    HW2 2583   0.976   2.549   2.966  0.4894 -0.7323  1.0321
  862SOL     OW 2584   2.850   2.527   1.681  0.3798 -0.0298 -0.7979
  862SOL    HW1 2585   2.947   2.547   1.722 -0.9310 -2.9959  1.0901
  862SOL    HW2 2586   2.811   2.617   1.649  0.3038 -0.1220 -0.7634
  863SOL     OW 2587   1.825   2.708   0.273 -0.1838 -0.2368 -0.1783
  863SOL    HW1 2588   1.865   2.618   0.242 -0.1279  0.2773 -1.8997
  863SOL    HW2 2589   1.725   2.719   0.252  2.3706  0.9983  3.4642
  864SOL     OW 2590   2.030   1.249   2.811 -0.0055 -0.0783  0.2838
  864SOL    HW1 2591   2.006   1.201   2.721  0.1886 -2.1488  1.5521
  864SOL    HW2 2592   2.089   1.333   2.807  0.9740  1.0386  3.6145
  865SOL     OW 2593   2.145   1.942   0.740  0.2674  0.0009 -0.1536
  865SOL    HW1 2594   2.217   1.885   0.788 -0.7151 -0.5890  1.8275
  865SOL    HW2 2595   2.057   1.950   0.800 -0.0411 -1.3927  2.7637
  866SOL     OW 2596   2.950   2.989   1.033 -0.0877  0.3108 -0.5693
  866SOL    HW1 2597   2.926   3.045   0.945  1.0839 -0.1865 -0.0515
  866SOL    HW2 2598   3.033   2.931   1.021 -0.5781 -1.8018 -2.4469
  867SOL     OW 2599   0.329   1.396   0.880  0.3904 -0.1233  0.1764
  867SOL    HW1 2600   0.329   1.333   0.794  1.0708  1.8505 -1.6770
  867SOL    HW2 2601   0.332   1.499   0.854  0.9925 -1.4137  2.6281
  868SOL     OW 2602   0.778   1.847   2.048  0.2885 -0.6981  0.1526
  868SOL    HW1 2603   0.741   1.806   2.136  4.5881  2.9235 -0.4965
  868SOL    HW2 2604   0.719   1.920   2.002 -0.2882 -1.7733 -0.9003
  869SOL     OW 2605   2.621   1.897   1.663  0.1437  0.4046  0.1636
  869SOL    HW1 2606   2.695   1.965   1.626 -0.9319 -0.9445  0.7507
  869SOL    HW2 2607   2.634   1.803   1.620 -1.6650 -1.8680 -0.4348
  870SOL     OW 2608   2.372   2.679   1.178 -0.5260 -0.1509  0.9798
  870SOL    HW1 2609   2.358   2.596   1.238 -2.0843 -1.3062 -1.9587
  870SOL    HW2 2610   2.450   2.745   1.198  2.2319  3.9094  1.6445
  871SOL     OW 2611   3.046   2.239   0.524  0.2246  0.0201 -0.8442
  871SOL    HW1 2612   3.000   2.247   0.620  1.7711  0.2072  0.7190
  871SOL    HW2 2613   2.976   2.251   0.448  1.9787 -1.1053 -0.3903
  872SOL     OW 2614   2.106   0.492   1.692  0.0923  0.2918  0.4903
  872SOL    HW1 2615   2.068   0.486   1.791 -0.1390 -1.3483 -0.4536
  872SOL    HW2 2616   2.189   0.433   1.687 -2.3022 -0.8353 -2.6068
  873SOL     OW 2617   1.713   2.071   3.101 -0.3091  0.5676 -0.1986
  873SOL    HW1 2618   1.611   2.064   3.090  0.6603  1.8080 -0.0149
  873SOL    HW2 2619   1.758   2.111   3.015 -1.3755 -0.7230 -0.2593
  874SOL     OW 2620   0.674   2.455   0.723 -0.0767 -0.4890  0.1921
  874SOL    HW1 2621   0.668   2.557   0.755  0.4828 -1.3978 -0.7285
  874SOL    HW2 2622   0.757   2.413   0.765  0.6211 -0.1597  1.0039
  875SOL     OW 2623   2.258   1.521   1.438 -0.4655 -0.7520 -0.3422
  875SOL    HW1 2624   2.339   1.565   1.490 -0.9262 -1.4350 -1.0950
  875SOL    HW2 2625   2.281   1.512   1.337 -3.4438 -1.8286 -0.9958
  876SOL     OW 2626   0.065   2.259   2.639 -0.5810 -0.1412  0.0357
  876SOL    HW1 2627   0.107   2.165   2.660  1.0712 -0.7574  1.7341
  876SOL    HW2 2628   0.110   2.339   2.694 -1.6972 -2.2129 -2.6903
  877SOL     OW 2629   2.895   2.630   0.643  0.5941  0.4207 -0.7264
  877SOL    HW1 2630   2.861   2.727   0.627 -1.8275  2.9654 -1.0452
  877SOL    HW2 2631   2.974   2.620   0.712  0.8495 -2.1715  1.1097
  878SOL     OW 2632   2.843   1.616   2.307  0.0280 -0.3755 -0.4378
  878SOL    HW1 2633   2.778   1.687   2.265 -0.5039 -2.6309 -0.3340
  878SOL    HW2 2634   2.808   1.560   2.388  1.6035 -0.6445 -0.9326
  879SOL     OW 2635   2.444   0.045   1.170 -0.3785 -0.1600  0.4779
  879SOL    HW1 2636   2.493  -0.037   1.205  1.5209  0.5130 -1.3909
  879SOL    HW2 2637   2.356   0.023   1.119  1.2828  0.9174 -2.0785
  880SOL     OW 2638   0.688   0.557   2.283  0.9370  0.4493  0.2605
  880SOL    HW1 2639   0.682   0.512   2.376  3.1485  1.5832  1.3487
  880SOL    HW2 2640   0.759   0.519   2.219 -1.6939 -2.7043 -1.3449
  881SOL     OW 2641   0.831   0.071   0.383 -0.6582 -0.3467  0.1218
  881SOL    HW1 2642   0.868  -0.020   0.409 -0.7177  1.1824 -0.7280
  881SOL    HW2 2643   0.732   0.076   0.349  2.0046  2.3094 -0.2125
  882SOL     OW 2644   2.694   1.612   1.709  0.3816  0.3176 -0.1352
  882SOL    HW1 2645   2.792   1.591   1.689 -0.5905  2.0675 -0.9171
  882SOL    HW2 2646   2.674   1.628   1.813  0.6855  2.5008 -0.1602
  883SOL     OW 2647   0.786   0.518   0.921  0.0158  0.1735  0.8988
  883SOL    HW1 2648   0.832   0.611   0.934  1.1253  0.3808  0.6508
  883SOL    HW2 2649   0.735   0.493   1.007 -1.2473  1.6841  2.2027
  884SOL     OW 2650   1.196   1.749   1.120 -0.1537  0.4608  0.2658
  884SOL    HW1 2651   1.157   1.657   1.093  0.1739  0.8442 -0.4187
  884SOL    HW2 2652   1.140   1.823   1.075 -4.1620  3.3578 -1.3702
  885SOL     OW 2653   2.351   1.898   2.220  0.5321 -0.2517 -0.8517
  885SOL    HW1 2654   2.293   1.860   2.298 -0.8974  0.5244 -1.7354
  885SOL    HW2 2655   2.350   2.000   2.227  1.3538 -2.2838 -0.4476
  886SOL     OW 2656   2.617   0.359   1.781  0.1019  0.5796 -0.2483
  886SOL    HW1 2657   2.655   0.288   1.843  0.6396 -1.3030  0.0734
  886SOL    HW2 2658   2.682   0.442   1.763 -1.3819  1.0133 -1.0250
  887SOL     OW 2659   0.159   2.082   1.254  0.0260  0.2352 -0.1416
  887SOL    HW1 2660   0.072   2.025   1.271 -0.6491 -1.3194 -1.0709
  887SOL    HW2 2661   0.136   2.173   1.206  1.2746  3.8522  0.0594
  888SOL     OW 2662   0.591   1.250   1.525  0.1688  0.0352 -1.0624
  888SOL    HW1 2663   0.618   1.304   1.433 -0.7884  1.6538 -0.0046
  888SOL    HW2 2664   0.587   1.150   1.504  0.0084 -0.7583 -2.2734
  889SOL     OW 2665   0.846   2.426   2.238  0.1768 -0.3360 -0.1727
  889SOL    HW1 2666   0.759   2.374   2.255  0.8023  0.3198 -1.2521
  889SOL    HW2 2667   0.886   2.416   2.144  1.2578 -2.1457 -0.5051
  890SOL     OW 2668   2.368   2.500   0.227 -0.3187 -0.5088 -0.7918
  890SOL    HW1 2669   2.387   2.561   0.150 -0.5797 -2.5214 -1.4251
  890SOL    HW2 2670   2.294   2.539   0.286  2.1183 -0.7980  0.0955
  891SOL     OW 2671   2.586   1.688   0.707 -0.4111 -0.0626  0.2797
  891SOL    HW1 2672   2.588   1.662   0.807  0.3261 -0.8934 -1.2752
  891SOL    HW2 2673   2.502   1.665   0.653  0.8539  3.8353 -2.4308
  892SOL     OW 2674   0.353   0.361   2.202 -0.1315  0.8644 -0.2660
  892SOL    HW1 2675   0.376   0.422   2.123 -0.2855  0.8352  0.5405
  892SOL    HW2 2676   0.438   0.314   2.246  0.7937  0.6102 -0.3743
  893SOL     OW 2677   1.705   0.260   2.739 -0.3009 -0.1227  0.4320
  893SOL    HW1 2678   1.797   0.301   2.766 -0.4459 -0.0154  4.3880
  893SOL    HW2 2679   1.624   0.320   2.724 -1.8057  1.3955  1.2217
  894SOL     OW 2680   2.146   2.092   0.094  0.2909 -0.1793 -0.1635
  894SOL    HW1 2681   2.151   2.018   0.018 -1.8677 -2.2713 -0.2008
  894SOL    HW2 2682   2.181   2.055   0.185  0.6179 -0.7313  1.5468
  895SOL     OW 2683   2.734   1.443   0.918 -0.3105 -0.6403  0.1975
  895SOL    HW1 2684   2.821   1.393   0.933 -1.3802 -2.0253  2.9356
  895SOL    HW2 2685   2.748   1.545   0.947  0.4545  0.1635 -1.3428
  896SOL     OW 2686   1.785   1.812   1.245  0.1203  0.3508  0.2089
  896SOL    HW1 2687   1.880   1.796   1.284 -1.0089  1.3656  0.0035
  896SOL    HW2 2688   1.756   1.739   1.176 -2.3871  1.1329 -1.5580
  897SOL     OW 2689   0.238   0.557   3.004 -0.4195 -0.6140 -0.2690
  897SOL    HW1 2690   0.191   0.636   2.953 -1.5723  2.6368 -0.7532
  897SOL    HW2 2691   0.334   0.580   3.025 -0.5191  1.9398  0.7606
  898SOL     OW 2692   0.699   2.814   1.081  0.2130  0.1582 -0.3924
  898SOL    HW1 2693   0.752   2.902   1.088  0.4406 -1.4849  1.0429
  898SOL    HW2 2694   0.692   2.767   1.176  0.0304 -2.2913 -1.9014
  899SOL     OW 2695   2.860   0.948   1.350  0.0068  0.1386  0.3378
  899SOL    HW1 2696   2.848   0.902   1.259 -1.9332 -1.8824 -1.6609
  899SOL    HW2 2697   2.956   0.990   1.366  2.7608  1.8608  0.8122
  900SOL     OW 2698   1.010   2.453   2.465 -0.1303 -0.3524 -0.1603
  900SOL    HW1 2699   0.942   2.443   2.386  0.1258  1.0460  2.1675
  900SOL    HW2 2700   0.965   2.417   2.553 -0.8370 -0.6735 -1.5550
  901SOL     OW 2701   1.874   2.414   1.449  0.2622  0.9826 -0.0579
  901SOL    HW1 2702   1.864   2.332   1.388 -0.5867  0.2811 -1.3221
  901SOL    HW2 2703   1.963   2.422   1.490 -0.6320 -1.3120 -1.9799
  902SOL     OW 2704   2.537   1.645   1.494  0.0295  0.5452 -0.6472
  902SOL    HW1 2705   2.585   1.624   1.581 -1.8183 -0.4905 -0.4375
  902SOL    HW2 2706   2.602   1.628   1.413 -0.2173 -2.3982  0.4670
  903SOL     OW 2707   0.328   2.406   1.996 -0.0425  0.2313  0.5429
  903SOL    HW1 2708   0.239   2.350   2.018 -1.4515  1.6066 -0.8974
  903SOL    HW2 2709   0.327   2.455   1.905  0.0964 -1.2708 -0.8794
  904SOL     OW 2710   1.999   0.826   2.473  0.4058 -0.4613 -0.3480
  904SOL    HW1 2711   1.940   0.749   2.504  1.2891 -1.3164 -0.2326
  904SOL    HW2 2712   2.040   0.819   2.379  0.5311  1.5045  0.7253
  905SOL     OW 2713   2.802   0.092   2.411  0.3602  0.0760 -0.2146
  905SOL    HW1 2714   2.874   0.018   2.420 -1.2386  1.4745  0.7574
  905SOL    HW2 2715   2.849   0.185   2.416 -0.2381 -0.9780  0.0056
  906SOL     OW 2716   0.189   1.738   1.899  0.0775  0.0144  0.1885
  906SOL    HW1 2717   0.141   1.745   1.811  1.9498  1.1150  1.5556
  906SOL    HW2 2718   0.260   1.811   1.912 -1.6104 -1.6218  0.2734
  907SOL     OW 2719   0.235   2.498   0.977 -0.0224  0.2768  0.4523
  907SOL    HW1 2720   0.323   2.446   0.967  0.0224  0.5896 -0.6738
  907SOL    HW2 2721   0.249   2.598   0.941  1.5548  2.2182 -0.3440
  908SOL     OW 2722   2.810   3.014   0.352 -0.5280 -0.2183 -0.2610
  908SOL    HW1 2723   2.716   3.029   0.307  0.4358  2.0658 -0.9742
  908SOL    HW2 2724   2.857   2.927   0.331  1.2474  1.6360 -0.0212
  909SOL     OW 2725   0.871   1.035   2.665 -0.5219 -0.0081  0.4294
  909SOL    HW1 2726   0.816   0.944   2.659 -0.3382 -3.0170 -0.7604
  909SOL    HW2 2727   0.923   1.057   2.576  0.3498 -1.2413 -0.1490
  910SOL     OW 2728   1.787   1.900   2.130 -0.4503  0.0619  0.5762
  910SOL    HW1 2729   1.860   1.908   2.054 -3.5307  0.7926  1.4277
  910SOL    HW2 2730   1.712   1.974   2.142  0.2867 -0.4783 -1.2074
  911SOL     OW 2731   1.761   2.915   1.486 -0.4027 -0.2181 -0.8186
  911SOL    HW1 2732   1.862   2.915   1.466  2.0466  2.6095  3.0566
  911SOL    HW2 2733   1.731   2.839   1.548  0.8617  0.9272  1.5771
  912SOL     OW 2734   2.876   1.007   0.745 -0.2784  0.7602  0.4077
  912SOL    HW1 2735   2.915   1.012   0.843  1.1706 -0.7876  0.2013
  912SOL    HW2 2736   2.814   1.085   0.726  2.3828 -0.8320  0.3905
  913SOL     OW 2737   2.615   1.273   1.574  0.4414  0.3736  0.1093
  913SOL    HW1 2738   2.650   1.183   1.615 -0.8957 -2.4988 -1.3356
  913SOL    HW2 2739   2.651   1.281   1.475  0.4795 -0.9072 -1.9045
  914SOL     OW 2740   2.831   0.604   1.189 -0.8227  0.0328 -0.3428
  914SOL    HW1 2741   2.832   0.509   1.240  0.0147 -1.8281  0.2436
  914SOL    HW2 2742   2.738   0.653   1.195 -1.0932  2.6559 -1.4892
  915SOL     OW 2743   1.201   0.761   0.892 -0.9234  0.8159 -0.0938
  915SOL    HW1 2744   1.268   0.751   0.971  1.0648  1.1663  0.9570
  915SOL    HW2 2745   1.103   0.739   0.919  0.2011  0.4422 -2.0041
  916SOL     OW 2746   0.630   0.100   0.650 -0.0576  0.3068 -0.7314
  916SOL    HW1 2747   0.699   0.159   0.691 -0.5037 -1.5749 -0.3821
  916SOL    HW2 2748   0.601   0.131   0.559  0.4465  0.4901  1.6901
  917SOL     OW 2749   2.896   2.599   2.017  0.6286 -0.5952 -0.2820
  917SOL    HW1 2750   2.800   2.629   1.978 -2.1764  0.8982 -0.4486
  917SOL    HW2 2751   2.969   2.671   1.990  0.1955  3.0972 -2.5255
  918SOL     OW 2752   1.019   2.106   3.028 -0.4333  0.2238 -0.2663
  918SOL    HW1 2753   1.058   2.174   3.100 -2.2342  2.4838  0.5944
  918SOL    HW2 2754   1.086   2.083   2.952  1.2564 -0.1644  2.4560
  919SOL     OW 2755   0.837   1.645   2.808  0.7591  0.1173 -0.3813
  919SOL    HW1 2756   0.859   1.742   2.766 -0.9789  1.1021  0.6777
  919SOL    HW2 2757   0.799   1.575   2.737  1.4642 -0.7914  0.9705
  920SOL     OW 2758   1.340   1.806   2.481 -0.5724 -0.2695  0.5374
  920SOL    HW1 2759   1.423   1.772   2.428 -0.0328 -0.9444 -0.4105
  920SOL    HW2 2760   1.335   1.754   2.568  0.6727 -0.8106  0.0335
  921SOL     OW 2761   1.141   0.045   2.602  0.3691 -0.1243 -0.0414
  921SOL    HW1 2762   1.138   0.019   2.501  1.1747  2.1101  1.5107
  921SOL    HW2 2763   1.051   0.075   2.639 -1.1124 -0.1797  0.7807
  922SOL     OW 2764   2.210   2.428   2.792 -0.1540 -0.5831 -0.1076
  922SOL    HW1 2765   2.181   2.341   2.829  1.0332  0.5284 -1.6835
  922SOL    HW2 2766   2.178   2.442   2.692  1.7762  0.6198  0.7643
  923SOL     OW 2767   1.225   2.732   0.278  0.7537 -0.2622 -0.4028
  923SOL    HW1 2768   1.282   2.796   0.341 -1.4679  0.3293 -0.1017
  923SOL    HW2 2769   1.266   2.635   0.273  3.2035  2.0806  2.7635
  924SOL     OW 2770   2.942   1.706   0.154 -0.1555 -0.0052 -0.1258
  924SOL    HW1 2771   2.851   1.669   0.140  2.6018  2.1319 -1.1480
  924SOL    HW2 2772   3.016   1.633   0.165  0.0467 -1.2119 -0.7804
  925SOL     OW 2773   0.041   2.834   1.522 -0.2977  0.4247 -0.4572
  925SOL    HW1 2774  -0.028   2.903   1.553  1.3660 -2.2847  1.7777
  925SOL    HW2 2775   0.007   2.769   1.450 -0.3815 -1.3187 -1.9201
  926SOL     OW 2776   1.275   2.788   1.307  0.2204  0.5699 -0.1500
  926SOL    HW1 2777   1.298   2.781   1.205  0.7199 -0.9056 -1.1962
  926SOL    HW2 2778   1.343   2.850   1.360  0.6137  0.5221  1.5994
  927SOL     OW 2779   0.361   2.629   1.787 -0.1605  0.3738 -0.3894
  927SOL    HW1 2780   0.307   2.578   1.713 -0.4395 -0.0149  0.4844
  927SOL    HW2 2781   0.330   2.727   1.790 -1.2279 -0.4957 -2.0080
  928SOL     OW 2782   1.603   2.087   2.233 -0.1617 -0.2738  0.0684
  928SOL    HW1 2783   1.613   2.170   2.172 -1.7002 -0.6892 -2.7360
  928SOL    HW2 2784   1.503   2.066   2.258 -1.1525 -1.8997 -1.4352
  929SOL     OW 2785   2.457   2.484   2.878 -0.5298 -0.0013 -0.2322
  929SOL    HW1 2786   2.363   2.464   2.845 -0.3353  0.3253  1.6317
  929SOL    HW2 2787   2.524   2.538   2.813  0.8013 -2.6085 -2.5017
  930SOL     OW 2788   2.177   2.070   1.113  0.3665 -0.2635  0.2790
  930SOL    HW1 2789   2.204   2.004   1.193 -0.6264  0.2064  0.7834
  930SOL    HW2 2790   2.219   2.161   1.117  0.3872 -2.4152  1.6856
  931SOL     OW 2791   0.476   1.664   2.593  0.0862  0.9887 -0.2860
  931SOL    HW1 2792   0.505   1.699   2.687  2.3668  0.0884  1.0196
  931SOL    HW2 2793   0.547   1.603   2.548  2.1023  0.3263  0.5726
  932SOL     OW 2794   0.372   0.039   0.042  0.2674 -0.3422  0.3449
  932SOL    HW1 2795   0.421   0.125   0.001  1.2834 -0.9843  1.5276
  932SOL    HW2 2796   0.425  -0.047   0.016  0.4504 -0.1797 -1.6841
  933SOL     OW 2797   1.021   0.822   3.047 -0.0867  0.0366 -0.1310
  933SOL    HW1 2798   1.112   0.806   3.091  0.3412 -0.3280  0.3086
  933SOL    HW2 2799   0.965   0.892   3.099  2.7571 -1.3608  1.7044
  934SOL     OW 2800   0.858   2.953   2.632 -0.9765 -0.1788 -0.0022
  934SOL    HW1 2801   0.810   2.900   2.564  0.5770 -1.3512  0.1339
  934SOL    HW2 2802   0.898   2.894   2.709 -1.0981 -1.8705  0.5852
  935SOL     OW 2803   0.037   0.553   0.802 -0.1514  0.3486  0.3086
  935SOL    HW1 2804   0.025   0.516   0.708 -1.3380 -3.5420 -0.0491
  935SOL    HW2 2805  -0.046   0.606   0.834  0.6599 -2.1187 -0.4402
  936SOL     OW 2806   1.122   2.873   0.056 -0.1655 -0.6462 -0.0599
  936SOL    HW1 2807   1.199   2.919   0.004  1.7378 -2.3509  0.2592
  936SOL    HW2 2808   1.154   2.824   0.144  0.1047 -0.1843  2.1797
  937SOL     OW 2809   1.949   2.609   2.063  0.5182  0.3797 -0.4171
  937SOL    HW1 2810   1.922   2.637   2.158 -2.1349  0.7279 -0.7799
  937SOL    HW2 2811   1.958   2.689   1.996  2.1804 -1.2565 -0.4658
  938SOL     OW 2812   2.764   2.123   1.563  0.5863 -0.3659  0.4373
  938SOL    HW1 2813   2.718   2.215   1.576  2.2438 -1.3668  0.4185
  938SOL    HW2 2814   2.854   2.111   1.618 -1.4414  0.5377  0.6000
  939SOL     OW 2815   2.822   1.135   2.467  0.3810  0.3052  0.1983
  939SOL    HW1 2816   2.909   1.101   2.421  0.5288 -0.6713  1.0352
  939SOL    HW2 2817   2.815   1.089   2.562  1.3954  0.9100  0.9892
  940SOL     OW 2818   1.087   0.461   2.763 -0.1625  0.1183  0.1083
  940SOL    HW1 2819   1.151   0.374   2.761 -1.7860 -0.1750 -1.9470
  940SOL    HW2 2820   1.018   0.454   2.686  1.0720 -0.5755 -2.1219
  941SOL     OW 2821   0.080   2.811   2.261 -0.2802 -0.2499 -0.4733
  941SOL    HW1 2822   0.112   2.716   2.228 -0.9628 -1.7591 -0.8709
  941SOL    HW2 2823   0.160   2.879   2.289 -0.2086  1.9807 -1.4973
  942SOL     OW 2824   0.099   0.079   2.477 -0.0223  0.2013  0.8110
  942SOL    HW1 2825   0.120   0.085   2.577  0.8712 -0.3307  0.3848
  942SOL    HW2 2826   0.097   0.175   2.436 -2.1277  0.0513  1.8659
  943SOL     OW 2827   2.118   1.715   2.361 -0.1627  0.0186  0.0696
  943SOL    HW1 2828   2.106   1.653   2.271  0.5892 -2.4803  0.0813
  943SOL    HW2 2829   2.123   1.652   2.443  1.0296  1.2238  2.5219
  944SOL     OW 2830   2.172   2.351   1.557  0.1580  0.0227 -0.3225
  944SOL    HW1 2831   2.243   2.343   1.627 -1.6161 -1.8238 -0.0037
  944SOL    HW2 2832   2.123   2.259   1.552 -1.7071 -0.4770 -1.8552
  945SOL     OW 2833   0.741   1.621   0.104  0.3469 -0.4345 -0.6661
  945SOL    HW1 2834   0.657   1.589   0.048 -2.0264 -0.6478 -1.3410
  945SOL    HW2 2835   0.756   1.565   0.190  0.7827  0.2461 -1.4244
  946SOL     OW 2836   0.319   1.029   2.612 -0.4906 -0.0967  0.4142
  946SOL    HW1 2837   0.285   0.953   2.551  1.6586  1.9591 -1.2061
  946SOL    HW2 2838   0.375   1.095   2.552  0.1084 -0.8728  0.5743
  947SOL     OW 2839   1.475   0.511   3.043 -0.4376 -0.0648  0.2245
  947SOL    HW1 2840   1.467   0.594   2.977  0.2088  1.3052 -1.5006
  947SOL    HW2 2841   1.380   0.475   3.075 -0.7284 -1.3716  2.5781
  948SOL     OW 2842   1.933   2.928   2.167 -0.2190  1.0239 -0.1793
  948SOL    HW1 2843   1.931   2.905   2.068  0.2898 -0.1762  1.5155
  948SOL    HW2 2844   1.943   2.838   2.226  1.3335  2.1749  1.1097
  949SOL     OW 2845   0.591   2.452   0.457  0.4989 -0.5671  0.5723
  949SOL    HW1 2846   0.597   2.553   0.439 -1.3418  0.0374 -4.3493
  949SOL    HW2 2847   0.618   2.421   0.555 -1.0522  0.8103 -0.0728
  950SOL     OW 2848   0.180   2.213   2.935  0.2813 -0.7916  0.1116
  950SOL    HW1 2849   0.119   2.294   2.905  1.1315  1.7846  1.5595
  950SOL    HW2 2850   0.174   2.142   2.864 -0.5105 -0.0258 -0.1875
  951SOL     OW 2851   1.194   2.677   2.794 -1.0515  0.0519  0.1646
  951SOL    HW1 2852   1.261   2.620   2.848 -0.4280 -1.2808  1.0894
  951SOL    HW2 2853   1.241   2.721   2.711 -0.7430 -1.0545  2.7686
  952SOL     OW 2854   0.070   1.607   0.422  0.8497 -0.2707  0.3273
  952SOL    HW1 2855   0.119   1.697   0.419  1.4150  0.2090  3.8482
  952SOL    HW2 2856   0.099   1.534   0.492 -0.4668 -0.6014 -1.9140
  953SOL     OW 2857   2.542   1.743   0.283  0.3249  0.5032 -0.2320
  953SOL    HW1 2858   2.515   1.644   0.264 -1.7993 -0.8186 -0.7629
  953SOL    HW2 2859   2.492   1.805   0.212  3.2763 -0.2078 -0.5602
  954SOL     OW 2860   2.201   0.547   0.919 -0.5748  0.3162 -0.4950
  954SOL    HW1 2861   2.220   0.540   0.818 -1.7743 -0.4494 -0.2984
  954SOL    HW2 2862   2.286   0.551   0.972 -2.4082 -0.6042  2.4229
  955SOL     OW 2863   0.162   2.579   1.401 -1.0441 -0.4891  0.0114
  955SOL    HW1 2864   0.059   2.581   1.388 -3.2040  0.6886 -0.8519
  955SOL    HW2 2865   0.217   2.664   1.377  0.3120 -2.6220 -1.6911
  956SOL     OW 2866   2.830   2.507   2.496  0.4814  0.2286 -0.0028
  956SOL    HW1 2867   2.857   2.408   2.504  0.5053  0.3916 -0.5736
  956SOL    HW2 2868   2.888   2.563   2.431  0.6376 -2.2084  1.0598
  957SOL     OW 2869   1.641   2.085   2.747 -0.0139 -0.2194  0.4156
  957SOL    HW1 2870   1.626   2.000   2.802  0.6801  0.6662 -1.3036
  957SOL    HW2 2871   1.713   2.063   2.671  1.9629  1.3537 -0.1935
  958SOL     OW 2872   2.648   2.291   2.954  0.1161 -0.2987 -0.6318
  958SOL    HW1 2873   2.560   2.337   2.919  0.9348 -3.3187  0.0941
  958SOL    HW2 2874   2.628   2.239   3.043  0.3202 -1.1759  1.7713
  959SOL     OW 2875   0.366   2.784   0.153 -0.7471 -0.4639 -0.0664
  959SOL    HW1 2876   0.284   2.822   0.207  0.5208 -1.5117 -0.5120
  959SOL    HW2 2877   0.385   2.687   0.171 -1.4344  0.3779 -0.1156
  960SOL     OW 2878   1.946   0.480   1.924  0.5893 -0.0764 -0.1228
  960SOL    HW1 2879   1.907   0.573   1.896  1.0402 -0.6074 -0.4289
  960SOL    HW2 2880   1.969   0.478   2.024 -0.4820 -1.9848  2.5984
  961SOL     OW 2881   2.523   1.876   1.053 -0.1879  0.0416  0.2540
  961SOL    HW1 2882   2.526   1.974   1.010 -0.5904  0.8103 -2.4176
  961SOL    HW2 2883   2.527   1.874   1.158  1.0488  0.3946 -0.2857
  962SOL     OW 2884   1.282   0.855   0.049 -0.2252 -0.0956  0.4444
  962SOL    HW1 2885   1.290   0.894  -0.052  0.3848  2.6373 -2.4978
  962SOL    HW2 2886   1.274   0.933   0.121 -1.4658  0.2346  0.6174
  963SOL     OW 2887   2.294   2.579   1.791 -0.3432  0.0218 -0.0264
  963SOL    HW1 2888   2.237   2.500   1.827 -2.0869 -1.9606  2.0255
  963SOL    HW2 2889   2.345   2.626   1.869 -1.0249  1.0572 -1.2749
  964SOL     OW 2890   2.343   0.349   1.678 -0.1251 -0.7442 -0.0696
  964SOL    HW1 2891   2.440   0.338   1.705 -0.4048 -1.5789 -0.1719
  964SOL    HW2 2892   2.331   0.369   1.578 -0.7571  1.3166 -2.1438
  965SOL     OW 2893   2.592   2.981   0.205 -0.0039 -0.6323 -0.4872
  965SOL    HW1 2894   2.673   2.962   0.145  0.3776  1.0207  0.2039
  965SOL    HW2 2895   2.518   3.024   0.149  0.0096 -0.9164  0.5200
  966SOL     OW 2896   2.501   2.476   2.253  0.3302 -0.1996 -0.3032
  966SOL    HW1 2897   2.513   2.559   2.196 -1.0199  0.0539  0.0307
  966SOL    HW2 2898   2.415   2.425   2.227  0.9024  0.2392 -0.6629
  967SOL     OW 2899   2.762   2.874   2.460  0.1843 -0.4130  0.3139
  967SOL    HW1 2900   2.808   2.786   2.439 -0.9706  1.5929 -1.9196
  967SOL    HW2 2901   2.830   2.942   2.499  0.0277  0.8889 -1.6120
  968SOL     OW 2902   1.954   1.044   2.615 -0.1220 -0.5394  0.4987
  968SOL    HW1 2903   1.884   1.105   2.564  1.0902  1.4884 -2.2887
  968SOL    HW2 2904   1.993   0.967   2.553 -0.1593  2.9681 -1.8116
  969SOL     OW 2905   2.821   2.578   1.105  0.5174  0.2827  0.0500
  969SOL    HW1 2906   2.774   2.628   1.029 -1.4695 -1.8093 -0.3435
  969SOL    HW2 2907   2.844   2.481   1.083 -1.2635  1.8317  2.2279
  970SOL     OW 2908   1.143   2.088   1.854  0.4020 -0.0755  0.4663
  970SOL    HW1 2909   1.138   2.019   1.936 -2.0586 -0.3774 -1.3464
  970SOL    HW2 2910   1.073   2.061   1.782 -2.3108  1.3308  0.5246
  971SOL     OW 2911   2.867   2.147   1.920 -0.6348 -0.7405 -0.2993
  971SOL    HW1 2912   2.888   2.238   1.964  2.4859 -1.0344 -0.7507
  971SOL    HW2 2913   2.927   2.117   1.841 -1.4032 -3.2716  0.0397
  972SOL     OW 2914   1.936   2.463   0.231 -0.2398  0.6646 -0.1528
  972SOL    HW1 2915   1.913   2.364   0.221  1.1714 -0.9880  1.6828
  972SOL    HW2 2916   1.996   2.473   0.319  1.4872 -2.6915 -0.3472
  973SOL     OW 2917   1.128   0.898   1.880  0.2621  0.0931 -0.2319
  973SOL    HW1 2918   1.082   0.804   1.870  1.5488  1.0379  1.5641
  973SOL    HW2 2919   1.066   0.964   1.830 -0.5012  0.2419  0.1830
  974SOL     OW 2920   1.596   0.578   1.980  0.0758  0.5160 -0.1591
  974SOL    HW1 2921   1.673   0.630   1.930 -1.0157 -0.6291 -1.7363
  974SOL    HW2 2922   1.499   0.600   1.944  0.5271  0.6233 -0.3346
  975SOL     OW 2923   2.397   3.033   3.092  0.0590 -0.0815 -0.3952
  975SOL    HW1 2924   2.326   2.971   3.129  0.3438 -0.7661 -1.5683
  975SOL    HW2 2925   2.455   2.978   3.021  2.0464 -0.5397 -0.6160
  976SOL     OW 2926   1.944   2.691   2.325 -0.0718 -0.2382 -0.0067
  976SOL    HW1 2927   1.853   2.673   2.376 -1.4497  1.5021 -1.3106
  976SOL    HW2 2928   2.011   2.736   2.389 -1.4769  1.0085 -1.4640
  977SOL     OW 2929   0.450   0.703   1.012  0.3023  0.3555 -0.0431
  977SOL    HW1 2930   0.375   0.709   0.935  2.6028  0.8414  0.2680
  977SOL    HW2 2931   0.525   0.773   0.995  0.2499  0.7733  0.2381
   3.10000   3.10000   3.10000
