1000 SPC/Fw water molecules t=   0.84000 step= 840
 2931
    1SOL     OW    1   2.495   0.347   2.632  0.3397  0.5902  1.1038
    1SOL    HW1    2   2.517   0.251   2.597  1.5258  0.0887  2.8001
    1SOL    HW2    3   2.554   0.385   2.710  0.2965 -0.4218  1.3142
    2SOL     OW    4   2.741   3.069   1.429 -0.3696 -0.8145  0.4274
    2SOL    HW1    5   2.814   3.093   1.355 -2.2557 -1.8020 -1.3940
    2SOL    HW2    6   2.695   3.155   1.471 -0.9178  2.8499 -2.1485
    3SOL     OW    7   2.714   2.604   0.367 -0.8634 -0.1605  0.1785
    3SOL    HW1    8   2.691   2.500   0.372 -0.9239  0.6768  0.4507
    3SOL    HW2    9   2.785   2.629   0.440 -0.5336 -1.9939  1.2354
    4SOL     OW   10   1.274   1.486   2.333 -0.4698  0.6294 -0.5266
    4SOL    HW1   11   1.185   1.542   2.319 -1.1103  3.1842 -1.2765
    4SOL    HW2   12   1.255   1.390   2.380  1.4931  0.6347  0.4574
    5SOL     OW   13   1.145   1.494   3.087  0.1539 -0.4041  0.2602
    5SOL    HW1   14   1.224   1.565   3.097  1.6541  0.0521 -0.4502
    5SOL    HW2   15   1.054   1.531   3.112  1.4689 -0.2511  0.1792
    6SOL     OW   16   0.130   1.843   2.948 -0.0032 -0.5525  0.5150
    6SOL    HW1   17   0.050   1.853   3.012  0.3142 -0.3266 -2.0721
    6SOL    HW2   18   0.216   1.803   2.993  3.6077 -1.7151 -2.6411
    7SOL     OW   19   2.612   0.917   1.122  0.2331 -0.2584 -0.7260
    7SOL    HW1   20   2.514   0.881   1.149 -0.8907  1.5781 -1.8910
    7SOL    HW2   21   2.602   0.954   1.023 -0.5016  2.8024 -1.3420
    8SOL     OW   22   0.393   0.623   1.546 -0.2928  0.0760  0.2260
    8SOL    HW1   23   0.487   0.588   1.580  0.3242 -0.1738  2.3586
    8SOL    HW2   24   0.368   0.571   1.462  1.7029 -1.9489  1.6805
    9SOL     OW   25   1.180   0.860   2.396  0.0318 -0.0837  0.6554
    9SOL    HW1   26   1.264   0.898   2.344 -0.4047 -0.7412 -3.8377
    9SOL    HW2   27   1.115   0.818   2.326 -0.2346  0.3229 -1.0226
   10SOL     OW   28   0.643   1.343   1.306 -0.0037  0.2736  0.1680
   10SOL    HW1   29   0.555   1.343   1.248  2.2475 -2.7334 -0.0398
   10SOL    HW2   30   0.688   1.433   1.312  1.1629 -0.6027 -0.0902
   11SOL     OW   31   2.353   2.732   0.832  0.0366 -0.3072 -0.0751
   11SOL    HW1   32   2.289   2.760   0.911 -1.9259 -3.2037  1.0733
   11SOL    HW2   33   2.455   2.719   0.853  0.7987 -0.8827  2.9814
   12SOL     OW   34   1.486   0.894   0.341  0.2423 -0.3415 -0.0014
   12SOL    HW1   35   1.431   0.968   0.299 -1.0444 -1.9264 -0.8916
   12SOL    HW2   36   1.516   0.820   0.275 -0.7059  2.5334 -2.6774
   13SOL     OW   37   2.476   0.659   1.779  0.2499 -0.0461 -0.1567
   13SOL    HW1   38   2.375   0.657   1.812  1.1964  2.6872 -0.6803
   13SOL    HW2   39   2.482   0.636   1.679 -0.4465  1.4270  0.1434
   14SOL     OW   40   1.875   0.044   0.738 -0.5788 -0.2843 -0.0346
   14SOL    HW1   41   1.819   0.083   0.662  0.6655  0.5785 -1.4061
   14SOL    HW2   42   1.828  -0.032   0.791 -0.0319 -0.1755  0.8846
   15SOL     OW   43   1.999   2.092   2.734 -0.0645  0.2710  0.0974
   15SOL    HW1   44   1.964   2.167   2.797 -0.1893 -2.0407  1.5628
   15SOL    HW2   45   1.923   2.037   2.690  0.2405 -1.0220 -2.0722
   16SOL     OW   46   1.613   1.727   2.963 -0.5941 -0.0813 -0.0651
   16SOL    HW1   47   1.633   1.627   2.985  1.4359 -0.0077 -2.3621
   16SOL    HW2   48   1.680   1.789   3.017  0.6154 -1.0354  2.6302
   17SOL     OW   49   0.137   0.519   0.217 -0.3418 -0.1637  0.2800
   17SOL    HW1   50   0.234   0.543   0.204 -0.0033 -0.6547 -2.9000
   17SOL    HW2   51   0.089   0.523   0.124 -0.4447 -1.0777  2.2171
   18SOL     OW   52   0.973   2.928   2.106  0.0745 -0.6324  0.4679
   18SOL    HW1   53   0.892   2.863   2.091 -3.5444 -2.0575  0.8382
   18SOL    HW2   54   1.047   2.918   2.034 -1.2826  2.2898  2.0548
   19SOL     OW   55   0.526   0.814   1.901 -0.2316  0.0362  0.3574
   19SOL    HW1   56   0.543   0.750   1.979  1.7398  0.2670  1.5232
   19SOL    HW2   57   0.612   0.864   1.869  5.1692 -0.4748 -1.9464
   20SOL     OW   58   0.203   2.699   0.829 -0.5644  0.1906 -0.4476
   20SOL    HW1   59   0.135   2.770   0.797 -0.6081 -0.7536 -0.4816
   20SOL    HW2   60   0.254   2.649   0.753  1.1822 -0.5675  1.3639
   21SOL     OW   61   2.741   0.209   2.102 -0.0408  0.0060  0.1249
   21SOL    HW1   62   2.695   0.156   2.025  0.1311 -0.9744 -2.1127
   21SOL    HW2   63   2.835   0.172   2.124  1.0964  1.2723  0.0230
   22SOL     OW   64   2.387   0.230   0.134 -0.1861  0.0362  0.1464
   22SOL    HW1   65   2.375   0.124   0.125 -0.5151 -1.9430  0.5214
   22SOL    HW2   66   2.296   0.278   0.112  1.3829  0.2504  3.0760
   23SOL     OW   67   2.783   0.656   0.648  0.3285 -0.1060  0.1361
   23SOL    HW1   68   2.823   0.582   0.591 -3.5839  1.4146 -0.7022
   23SOL    HW2   69   2.754   0.737   0.600 -0.5282 -0.7396  1.7466
   24SOL     OW   70   0.209   1.899   0.362  0.3495 -0.3786 -0.1932
   24SOL    HW1   71   0.157   1.964   0.301  1.6616 -0.1482 -0.2595
   24SOL    HW2   72   0.307   1.931   0.364 -2.8085 -0.5678  1.9815
   25SOL     OW   73   2.201   0.557   0.303  0.0515  0.2574 -1.0384
   25SOL    HW1   74   2.247   0.582   0.214 -0.3642 -0.6674  0.5599
   25SOL    HW2   75   2.254   0.472   0.341  0.2765  0.8082  0.5428
   26SOL     OW   76   2.522   2.089   2.084 -0.3813 -0.0237 -0.1499
   26SOL    HW1   77   2.578   2.160   2.134  0.4167  1.0114  2.2566
   26SOL    HW2   78   2.582   2.044   2.008  0.3835  1.2097  0.1226
   27SOL     OW   79   0.597   2.966   0.220 -0.1490 -0.2715 -0.3098
   27SOL    HW1   80   0.697   2.957   0.201 -0.3195  2.2331 -1.8556
   27SOL    HW2   81   0.548   2.984   0.131  1.8091 -1.4249 -0.4709
   28SOL     OW   82   1.562   0.154   0.273 -0.1436  0.0890 -0.2551
   28SOL    HW1   83   1.603   0.107   0.194  1.2017  0.8596  1.6521
   28SOL    HW2   84   1.594   0.253   0.282 -1.7721  0.0673  0.7939
   29SOL     OW   85   1.952   0.604   0.427 -0.3159  0.0915  0.1332
   29SOL    HW1   86   1.962   0.708   0.412  0.0301  2.3758 -0.8694
   29SOL    HW2   87   2.040   0.562   0.396 -0.7103  1.6561 -0.2037
   30SOL     OW   88   0.190   1.974   0.907 -0.0305 -0.3824 -0.4464
   30SOL    HW1   89   0.172   1.970   0.807  1.6039  1.1782 -2.8817
   30SOL    HW2   90   0.118   2.027   0.962 -0.7003  2.0741 -0.0961
   31SOL     OW   91   2.105   3.065   2.330 -0.5809 -0.0128  0.5059
   31SOL    HW1   92   2.093   3.105   2.428  4.8430  2.1226  0.6457
   31SOL    HW2   93   2.039   2.988   2.319 -0.4609 -1.2547  2.4879
   32SOL     OW   94   2.941   0.104   0.218 -0.7778 -0.1484  0.0413
   32SOL    HW1   95   2.929   0.009   0.244  3.2059  0.4589 -0.4219
   32SOL    HW2   96   3.039   0.141   0.230  0.9158 -0.4446 -1.3671
   33SOL     OW   97   0.954   0.291   0.613 -0.5070  0.2776 -0.0494
   33SOL    HW1   98   0.912   0.202   0.573 -0.0383 -0.2705 -1.4639
   33SOL    HW2   99   1.049   0.311   0.573  2.0993 -1.3656  0.7162
   34SOL     OW  100   0.288   2.781   1.101 -0.9248 -0.1058  0.4206
   34SOL    HW1  101   0.270   2.734   1.011 -0.2503 -1.8200 -1.3338
   34SOL    HW2  102   0.387   2.815   1.107  0.8029 -3.9168 -0.3491
   35SOL     OW  103   0.024   0.122   1.877  0.3787 -1.3832  0.4269
   35SOL    HW1  104   0.069   0.027   1.884  1.1861 -1.4698 -0.9823
   35SOL    HW2  105  -0.016   0.149   1.782 -2.7871  2.4849  1.1105
   36SOL     OW  106   1.928   1.169   1.744 -0.7189  0.3682  0.1627
   36SOL    HW1  107   1.932   1.129   1.647 -0.8483 -1.6253 -2.6381
   36SOL    HW2  108   2.007   1.235   1.773  0.1836 -0.6346 -1.7316
   37SOL     OW  109   1.184   0.151   0.942 -0.5453  0.2422 -0.1216
   37SOL    HW1  110   1.242   0.194   1.015 -1.1181 -3.2581  1.4544
   37SOL    HW2  111   1.226   0.167   0.847  2.2228  1.5225  1.0758
   38SOL     OW  112   1.071   2.780   2.481 -0.5605  0.1341  0.1468
   38SOL    HW1  113   1.042   2.692   2.443  2.3070  0.4276  1.0589
   38SOL    HW2  114   1.000   2.857   2.464 -2.1256 -0.4182 -2.2454
   39SOL     OW  115   2.300   1.396   3.035 -0.1183  0.2392  0.0987
   39SOL    HW1  116   2.385   1.336   3.039  0.2030 -0.2364  1.7600
   39SOL    HW2  117   2.230   1.364   3.101 -0.0786  1.9744 -1.2446
   40SOL     OW  118   2.058   2.478   2.548 -1.2304 -0.4051 -0.4810
   40SOL    HW1  119   2.027   2.576   2.566 -1.5518 -0.5381 -3.0393
   40SOL    HW2  120   1.987   2.409   2.514  1.1852 -2.0030  1.2629
   41SOL     OW  121   3.042   0.688   2.849 -0.1182  0.3320 -0.3845
   41SOL    HW1  122   3.031   0.781   2.814  4.2349  0.1912  3.2449
   41SOL    HW2  123   3.014   0.604   2.795 -1.1120  0.2499  0.3894
   42SOL     OW  124   1.777   1.717   0.480  0.5593 -0.2429  0.2675
   42SOL    HW1  125   1.723   1.625   0.483  0.1433  0.2487 -0.5666
   42SOL    HW2  126   1.774   1.761   0.382 -1.0478 -2.1314 -1.3387
   43SOL     OW  127   0.480   1.670   1.123  0.0691 -0.6245  0.6213
   43SOL    HW1  128   0.463   1.575   1.154 -0.6344  0.7409  0.8493
   43SOL    HW2  129   0.392   1.723   1.089 -0.9729 -1.1564 -3.1690
   44SOL     OW  130   1.795   2.501   3.056 -0.5498  0.2999 -0.6985
   44SOL    HW1  131   1.815   2.595   3.013 -0.6046  1.7710  1.1892
   44SOL    HW2  132   1.812   2.430   2.981  0.8083 -0.7982  0.6600
   45SOL     OW  133   0.439   1.938   2.601 -0.4416 -0.1077 -0.3687
   45SOL    HW1  134   0.371   1.908   2.529  2.3174  0.3378  0.9309
   45SOL    HW2  135   0.476   1.853   2.650  0.2250  1.0394 -0.2240
   46SOL     OW  136   1.251   0.700   0.198  0.2047 -0.4180 -0.0628
   46SOL    HW1  137   1.290   0.756   0.121  0.0521 -2.1412 -1.4010
   46SOL    HW2  138   1.167   0.741   0.239 -0.6648  3.5405  1.3954
   47SOL     OW  139   0.227   2.502   1.578 -0.3410  0.2020 -0.6625
   47SOL    HW1  140   0.215   2.403   1.612  2.8730 -2.5950 -2.8383
   47SOL    HW2  141   0.231   2.512   1.477 -0.5566  1.8353  2.9493
   48SOL     OW  142   2.620   0.640   0.132 -0.2818 -0.0913  0.2836
   48SOL    HW1  143   2.597   0.644   0.234  0.0214 -1.9449 -0.6855
   48SOL    HW2  144   2.723   0.638   0.114  3.0941 -0.3208 -1.4190
   49SOL     OW  145   0.319   0.810   1.740 -0.5958  0.3472  0.2746
   49SOL    HW1  146   0.403   0.816   1.803 -0.2609 -0.3506  2.1691
   49SOL    HW2  147   0.338   0.741   1.661 -2.8190 -0.2024  0.5066
   50SOL     OW  148   1.666   1.122   0.309  0.3303  0.5200  0.1563
   50SOL    HW1  149   1.658   1.022   0.276 -2.1332 -0.6480 -0.1275
   50SOL    HW2  150   1.617   1.146   0.401 -1.2353  1.8262  1.8535
   51SOL     OW  151   2.889   1.853   0.308 -0.2631 -1.0319 -0.2982
   51SOL    HW1  152   2.826   1.774   0.283 -1.3642  0.2027 -1.0591
   51SOL    HW2  153   2.951   1.832   0.382  0.4410 -0.1972  0.2782
   52SOL     OW  154   0.774   2.003   0.494 -0.2184  0.0814  0.1423
   52SOL    HW1  155   0.691   2.062   0.527 -1.8648  2.1329  0.9341
   52SOL    HW2  156   0.816   1.946   0.566  0.6445 -2.7793 -0.2574
   53SOL     OW  157   0.172   0.416   1.605  0.2415 -0.1741 -0.3423
   53SOL    HW1  158   0.252   0.479   1.631  0.9077  0.1132 -1.4895
   53SOL    HW2  159   0.109   0.464   1.535 -1.9344 -1.8664 -1.2974
   54SOL     OW  160   1.817   0.471   3.055 -0.0260  0.1047 -0.1913
   54SOL    HW1  161   1.860   0.466   3.151 -0.7705  2.1189  1.3314
   54SOL    HW2  162   1.715   0.472   3.055  1.7932 -1.7294  2.1734
   55SOL     OW  163   0.772   2.891   0.690  0.0475  0.6177 -0.1454
   55SOL    HW1  164   0.710   2.972   0.670  1.0520 -1.2955 -2.7309
   55SOL    HW2  165   0.870   2.919   0.668 -0.3519  0.6681  0.3676
   56SOL     OW  166   0.504   1.599   0.015  0.5220 -0.3541 -0.3540
   56SOL    HW1  167   0.408   1.627   0.011  0.5048 -2.0659  2.6676
   56SOL    HW2  168   0.520   1.509  -0.040 -0.0970 -0.3737 -0.1408
   57SOL     OW  169   1.733   2.506   2.496 -0.1496 -0.0767 -0.4394
   57SOL    HW1  170   1.781   2.429   2.452  2.7995  0.7864 -0.7928
   57SOL    HW2  171   1.627   2.495   2.518 -2.3359 -1.1616 -0.5263
   58SOL     OW  172   0.650   0.265   1.028 -0.0064 -0.3170 -0.1366
   58SOL    HW1  173   0.548   0.284   1.050 -0.9171 -1.1531  1.3165
   58SOL    HW2  174   0.683   0.171   1.062  5.1262 -2.8477 -1.2504
   59SOL     OW  175   0.446   2.450   2.746  0.0956  0.0026 -0.2875
   59SOL    HW1  176   0.474   2.353   2.737  0.4080  1.3417  2.2798
   59SOL    HW2  177   0.529   2.509   2.778  2.5186 -3.8046 -1.0212
   60SOL     OW  178   2.285   2.034   2.199 -0.0283 -0.1518  0.4888
   60SOL    HW1  179   2.381   2.051   2.152  3.3291 -1.2353 -3.3569
   60SOL    HW2  180   2.291   2.068   2.301 -2.6443  2.3037  1.3520
   61SOL     OW  181   1.339   0.628   0.503 -0.5012 -0.0035 -0.4629
   61SOL    HW1  182   1.270   0.699   0.539  1.0688 -0.0830 -0.7754
   61SOL    HW2  183   1.378   0.654   0.412  1.3360  0.9011  3.0283
   62SOL     OW  184   2.764   1.801   2.912 -0.6349  0.2371  0.4886
   62SOL    HW1  185   2.773   1.704   2.952 -1.1643 -1.5065 -1.5681
   62SOL    HW2  186   2.846   1.819   2.855  1.3086  1.4432  2.6438
   63SOL     OW  187   0.596   0.902   0.187 -0.2234 -0.4001  0.5508
   63SOL    HW1  188   0.603   0.971   0.106 -1.9356 -2.6079  1.2532
   63SOL    HW2  189   0.676   0.910   0.253 -1.9447  0.2012  1.7901
   64SOL     OW  190   0.104   0.483   2.476 -0.0608 -0.2302 -0.3826
   64SOL    HW1  191   0.193   0.495   2.530 -0.3372  2.4170  4.3829
   64SOL    HW2  192   0.077   0.561   2.422  0.3774  0.2274  0.4371
   65SOL     OW  193   0.160   1.491   0.554  0.0302  0.5172 -0.6372
   65SOL    HW1  194   0.205   1.549   0.633  2.3234 -0.2123  1.9714
   65SOL    HW2  195   0.217   1.498   0.466 -1.5183 -2.6141 -2.6445
   66SOL     OW  196   2.565   0.402   0.606  0.1803 -0.3498  0.3159
   66SOL    HW1  197   2.665   0.381   0.645  0.5058 -0.7418  1.0606
   66SOL    HW2  198   2.493   0.329   0.629  0.1360  0.9157  1.0061
   67SOL     OW  199   0.541   2.537   1.370  0.0062  0.5754  0.0848
   67SOL    HW1  200   0.570   2.547   1.468 -1.1345 -3.2909  2.4775
   67SOL    HW2  201   0.496   2.447   1.354  0.7177 -1.1313  0.1465
   68SOL     OW  202   1.014   1.093   2.462 -0.1037 -0.1555  0.3213
   68SOL    HW1  203   1.062   1.002   2.461 -1.6314 -0.1076  0.7843
   68SOL    HW2  204   0.947   1.106   2.384  0.8520 -0.5177  0.6651
   69SOL     OW  205   0.736   2.726   2.176  0.1319 -0.2704  0.0756
   69SOL    HW1  206   0.780   2.633   2.152  0.4331  0.7746 -1.3988
   69SOL    HW2  207   0.633   2.721   2.191 -2.2369  0.9569  2.7545
   70SOL     OW  208   0.517   0.316   2.691  0.0297 -0.2899 -0.3272
   70SOL    HW1  209   0.511   0.379   2.774  0.1293 -1.6262  0.8975
   70SOL    HW2  210   0.496   0.213   2.713 -2.2658 -1.1880  1.7057
   71SOL     OW  211   1.105   1.743   0.443  0.5286 -0.2200  0.7337
   71SOL    HW1  212   1.061   1.701   0.521  2.0160  0.8967 -1.3871
   71SOL    HW2  213   1.040   1.753   0.360 -2.6444 -0.1636  1.3082
   72SOL     OW  214   1.832   0.205   2.160 -0.5685  0.2764  0.3105
   72SOL    HW1  215   1.924   0.256   2.152 -1.0990  0.0656  1.5055
   72SOL    HW2  216   1.842   0.105   2.137 -0.9480 -0.5490 -0.9320
   73SOL     OW  217   2.818   2.178   2.422  0.2279  0.8663  0.3482
   73SOL    HW1  218   2.803   2.076   2.384 -2.5093 -2.9403 -0.2479
   73SOL    HW2  219   2.857   2.168   2.521 -2.2885  0.1875 -2.1599
   74SOL     OW  220   2.659   2.912   2.127 -0.5348  0.0810  0.2063
   74SOL    HW1  221   2.609   2.891   2.215 -0.3550 -0.6698 -1.0846
   74SOL    HW2  222   2.760   2.921   2.135  1.6379 -1.3304  0.6661
   75SOL     OW  223   0.907   0.773   1.108  0.1112  0.1983  0.1943
   75SOL    HW1  224   0.816   0.804   1.070  0.7984 -0.3608  3.0271
   75SOL    HW2  225   0.925   0.837   1.187  2.4841  1.0943 -3.4139
   76SOL     OW  226   1.693   1.188   2.504 -0.6938 -0.7275 -0.2208
   76SOL    HW1  227   1.602   1.137   2.514  2.6886 -2.2739 -0.9160
   76SOL    HW2  228   1.697   1.288   2.534  2.1268 -0.5532  2.1768
   77SOL     OW  229   2.984   0.928   0.951 -0.2189  0.1055 -0.5263
   77SOL    HW1  230   2.925   0.840   0.953 -4.4314 -0.2599 -0.1115
   77SOL    HW2  231   3.022   0.947   1.048  2.0515 -1.6541 -0.1920
   78SOL     OW  232   2.067   1.474   1.524 -0.5162  0.4990  0.6628
   78SOL    HW1  233   2.170   1.475   1.511 -1.6817 -0.0468  0.0388
   78SOL    HW2  234   2.016   1.521   1.447 -0.2477 -0.1533 -0.8208
   79SOL     OW  235   0.606   1.367   0.876 -0.4271 -0.1039 -0.1907
   79SOL    HW1  236   0.510   1.367   0.912 -0.2892 -1.9849  0.2373
   79SOL    HW2  237   0.613   1.330   0.777 -1.1736  0.9982  0.2885
   80SOL     OW  238   0.627   0.493   1.585  0.5800  0.6011  0.3436
   80SOL    HW1  239   0.702   0.541   1.527  0.7908 -0.4967 -2.0233
   80SOL    HW2  240   0.635   0.390   1.576 -3.9101  1.8214 -2.0239
   81SOL     OW  241   1.032   1.399   2.628 -0.3697  0.0708 -0.0326
   81SOL    HW1  242   1.101   1.319   2.633 -1.4710 -0.0449 -3.0697
   81SOL    HW2  243   0.955   1.385   2.561 -0.7339 -1.1500  1.8289
   82SOL     OW  244   1.006   2.937   1.505 -0.1496  0.3145  0.1953
   82SOL    HW1  245   1.027   2.982   1.414  0.9830 -0.0510 -0.0600
   82SOL    HW2  246   0.910   2.895   1.509 -1.0975 -0.5201  0.4226
   83SOL     OW  247   2.733   2.460   0.853 -0.1054 -0.3033  0.1039
   83SOL    HW1  248   2.666   2.399   0.794  2.3780  1.2091 -0.4753
   83SOL    HW2  249   2.738   2.555   0.814  1.4601  0.7134 -0.1543
   84SOL     OW  250   0.637   3.046   2.369  0.5503 -0.4162 -0.2133
   84SOL    HW1  251   0.544   3.008   2.409 -0.2524  0.9226 -1.6097
   84SOL    HW2  252   0.713   2.985   2.397 -0.9393  0.2314 -0.6144
   85SOL     OW  253   0.264   1.579   1.491 -0.4077  0.5059  0.0147
   85SOL    HW1  254   0.249   1.680   1.501 -2.1685  2.3027  0.0102
   85SOL    HW2  255   0.334   1.542   1.558  0.6534 -2.3657  0.0897
   86SOL     OW  256   0.400   1.000   1.535 -0.1715 -0.0528  0.0799
   86SOL    HW1  257   0.366   0.960   1.444  0.1143  0.5000  0.0240
   86SOL    HW2  258   0.369   0.946   1.619  2.2938  1.3503  0.4086
   87SOL     OW  259   1.582   0.671   0.208 -0.1845  0.5427  0.1074
   87SOL    HW1  260   1.658   0.741   0.202 -2.5998 -1.8026  0.7994
   87SOL    HW2  261   1.555   0.624   0.116 -2.2645  0.9763 -1.2558
   88SOL     OW  262   1.613   1.383   0.200 -0.2921 -0.2283  0.5196
   88SOL    HW1  263   1.635   1.281   0.207  2.6979 -0.2023  0.6634
   88SOL    HW2  264   1.512   1.398   0.216  2.2761 -0.2962 -0.0873
   89SOL     OW  265   0.004   0.438   0.582 -0.1413  0.6623  0.1182
   89SOL    HW1  266   0.072   0.359   0.575 -0.1106 -0.5282  2.8753
   89SOL    HW2  267  -0.095   0.402   0.595 -1.3156 -0.5236 -1.1432
   90SOL     OW  268   0.876   1.604   0.053  0.1601 -0.1466 -0.4450
   90SOL    HW1  269   0.819   1.546   0.119  0.3684 -2.0113  0.9737
   90SOL    HW2  270   0.841   1.603  -0.044 -2.2338 -1.0964  1.6762
   91SOL     OW  271   1.221   1.461   1.804 -0.4619  0.2915  0.3533
   91SOL    HW1  272   1.199   1.549   1.855  1.4571  1.2490  1.1477
   91SOL    HW2  273   1.318   1.463   1.773  0.9342  0.8587  0.8895
   92SOL     OW  274  -0.001   0.976   1.193 -0.2887  0.1328  0.0933
   92SOL    HW1  275   0.054   1.052   1.149 -2.5580  0.8074 -0.4401
   92SOL    HW2  276  -0.006   0.984   1.297 -1.0838  0.5508  0.7445
   93SOL     OW  277   0.007   2.710   3.067  0.1096  0.0448 -0.4847
   93SOL    HW1  278  -0.081   2.709   3.009  0.2730 -3.1383 -0.6017
   93SOL    HW2  279   0.022   2.629   3.132  1.3370 -1.1303 -1.6535
   94SOL     OW  280   1.485   1.498   1.745  0.1405  0.0233 -0.4274
   94SOL    HW1  281   1.553   1.423   1.728  0.2872  0.7075 -0.9882
   94SOL    HW2  282   1.515   1.572   1.816  1.7904 -1.5461  0.0875
   95SOL     OW  283   1.354   2.554   2.983 -0.2806 -0.2344 -0.3385
   95SOL    HW1  284   1.271   2.557   3.044 -0.6000 -1.3797 -0.2021
   95SOL    HW2  285   1.360   2.461   2.935 -0.8961  1.7034 -2.2848
   96SOL     OW  286   0.544   2.118   1.257  0.3227  0.4361 -0.4276
   96SOL    HW1  287   0.506   2.079   1.171  1.8665 -1.1115 -0.0601
   96SOL    HW2  288   0.570   2.048   1.328  1.6574 -1.3210  0.5759
   97SOL     OW  289   0.411   1.615   2.463  0.2181 -0.4606  0.4454
   97SOL    HW1  290   0.348   1.697   2.435 -0.7865  0.5078  0.9047
   97SOL    HW2  291   0.409   1.596   2.564  2.3707 -1.6511 -0.4714
   98SOL     OW  292   2.001   1.601   1.229  0.4713  0.2752 -0.3649
   98SOL    HW1  293   1.915   1.580   1.284  1.2861  0.1111 -2.0067
   98SOL    HW2  294   2.001   1.548   1.139  0.8855 -0.5465 -1.1409
   99SOL     OW  295   2.441   2.054   1.390  0.3532 -0.3919  0.1200
   99SOL    HW1  296   2.468   2.040   1.490  0.7539  0.1563  0.4162
   99SOL    HW2  297   2.423   1.962   1.342 -0.9645 -0.5835  0.2499
  100SOL     OW  298   2.352   0.306   2.111  0.6232  0.0848  0.4752
  100SOL    HW1  299   2.279   0.273   2.176  3.0195  1.0882 -1.5813
  100SOL    HW2  300   2.438   0.332   2.163 -0.3364  0.5864 -2.0041
  101SOL     OW  301   0.384   1.515   0.366  0.6364 -0.2653  1.1308
  101SOL    HW1  302   0.458   1.515   0.443  1.8871 -0.0246 -0.4819
  101SOL    HW2  303   0.383   1.603   0.312 -1.4486  0.2534  1.4926
  102SOL     OW  304   2.253   1.018   0.832  0.2073 -0.1396  0.7112
  102SOL    HW1  305   2.188   0.942   0.801 -1.6352  2.8492 -0.9741
  102SOL    HW2  306   2.309   1.065   0.755  3.4563  2.4655 -1.7096
  103SOL     OW  307   2.276   0.060   0.395 -0.1568 -0.0152 -0.0436
  103SOL    HW1  308   2.285   0.166   0.395  2.3098  3.2546  0.6909
  103SOL    HW2  309   2.368   0.020   0.421 -0.2923  1.2992  1.6362
  104SOL     OW  310   0.088   1.747   2.194 -0.3475 -0.1838  0.2975
  104SOL    HW1  311   0.143   1.711   2.110 -1.5510 -0.5841  1.7540
  104SOL    HW2  312  -0.005   1.789   2.174 -0.0378  2.5827  0.5074
  105SOL     OW  313   1.221   2.101   0.796 -0.1062 -0.1485  0.1115
  105SOL    HW1  314   1.127   2.116   0.753 -0.7176 -0.0837 -1.4486
  105SOL    HW2  315   1.262   2.005   0.783 -0.2467 -0.6126 -1.0408
  106SOL     OW  316   2.110   0.427   1.417 -0.3583 -0.0163 -0.4718
  106SOL    HW1  317   2.065   0.332   1.413 -1.4982  0.9421 -0.2582
  106SOL    HW2  318   2.096   0.468   1.512  1.5197  0.1972 -1.3900
  107SOL     OW  319   1.825   3.004   1.187  0.8047 -0.0275  0.1171
  107SOL    HW1  320   1.826   3.099   1.221  0.7758 -1.1732 -0.1499
  107SOL    HW2  321   1.743   2.948   1.224  2.7657 -0.0958  0.0701
  108SOL     OW  322   0.775   2.805   1.217 -0.6401  0.4747  0.3944
  108SOL    HW1  323   0.783   2.788   1.320  1.2436  0.9041  1.0129
  108SOL    HW2  324   0.867   2.817   1.170  0.9067 -2.1894 -0.6537
  109SOL     OW  325   2.142   0.121   0.733 -0.0490 -0.2739  0.7225
  109SOL    HW1  326   2.039   0.097   0.732 -1.4230  0.7541  1.5236
  109SOL    HW2  327   2.189   0.102   0.825  2.1459 -1.4907  0.2971
  110SOL     OW  328   0.463   2.846   2.776 -0.1834 -0.4724  0.5837
  110SOL    HW1  329   0.446   2.897   2.688  0.7738 -0.8625 -2.4731
  110SOL    HW2  330   0.554   2.802   2.781 -0.4166 -0.3947  1.8378
  111SOL     OW  331   1.310   0.577   2.334 -0.1631 -0.1096 -0.0438
  111SOL    HW1  332   1.220   0.596   2.382  2.3281  0.7313 -0.7644
  111SOL    HW2  333   1.353   0.487   2.370  0.5548  0.5139  3.1791
  112SOL     OW  334   1.735   0.559   1.439  0.0584 -0.0186 -0.1936
  112SOL    HW1  335   1.770   0.536   1.343  3.5303  0.0373 -0.0791
  112SOL    HW2  336   1.714   0.475   1.492 -1.4830  1.4588  2.3713
  113SOL     OW  337   2.269   1.679   1.782  0.1186  0.1015 -0.4916
  113SOL    HW1  338   2.336   1.616   1.731  2.1933 -0.3509 -0.5298
  113SOL    HW2  339   2.303   1.706   1.877  0.0559  0.6934 -0.2255
  114SOL     OW  340   0.362   0.521   1.247  0.6186 -0.3137  0.2864
  114SOL    HW1  341   0.419   0.576   1.179  1.2771  3.7695 -1.0173
  114SOL    HW2  342   0.260   0.536   1.242  0.0735  0.6181  0.3149
  115SOL     OW  343   2.767   1.572   1.263 -0.6104  0.2840 -0.0327
  115SOL    HW1  344   2.761   1.467   1.277  0.5508  1.9461  0.2360
  115SOL    HW2  345   2.736   1.600   1.172  0.6478 -1.9777  0.2833
  116SOL     OW  346   1.843   1.038   0.729 -0.2174  0.1075 -0.5718
  116SOL    HW1  347   1.763   0.994   0.672  0.0625  0.0796 -0.9038
  116SOL    HW2  348   1.824   1.139   0.747 -0.4246  0.2393  1.7674
  117SOL     OW  349   1.209   0.377   0.565  0.4857 -0.0158 -0.2969
  117SOL    HW1  350   1.200   0.426   0.650  2.7413 -2.6773 -1.0510
  117SOL    HW2  351   1.259   0.444   0.498  1.1920 -1.2426 -2.1605
  118SOL     OW  352   1.127   1.116   1.110  0.4980  0.5581  0.0471
  118SOL    HW1  353   1.088   1.044   1.187 -1.0916 -1.6592 -0.0151
  118SOL    HW2  354   1.167   1.199   1.157 -1.4867 -0.5674  0.9348
  119SOL     OW  355   1.807   1.625   2.140  0.4657  0.0563  0.0928
  119SOL    HW1  356   1.789   1.730   2.147 -0.6143 -0.3257  0.1067
  119SOL    HW2  357   1.903   1.608   2.157 -0.9541  1.1224  0.5355
  120SOL     OW  358   2.954   2.879   0.124 -0.1117 -0.2257 -0.4033
  120SOL    HW1  359   3.034   2.824   0.079  2.6109  1.0470 -1.3071
  120SOL    HW2  360   2.864   2.840   0.094  0.6623  2.3279  0.2534
  121SOL     OW  361   1.982   0.750   2.255 -0.0692 -0.1843 -0.6573
  121SOL    HW1  362   2.003   0.805   2.172 -2.0362  0.1957 -2.2647
  121SOL    HW2  363   1.988   0.645   2.241  1.7894  0.3680 -1.8897
  122SOL     OW  364   2.584   2.660   1.223 -0.1503 -0.1945  0.2725
  122SOL    HW1  365   2.653   2.590   1.201 -1.9438  1.1658  0.7033
  122SOL    HW2  366   2.515   2.669   1.150 -1.4159 -1.8317 -0.6393
  123SOL     OW  367   1.741   0.084   1.725 -0.2940 -0.1652 -0.3105
  123SOL    HW1  368   1.773  -0.002   1.683 -0.1119  0.7298  2.1352
  123SOL    HW2  369   1.812   0.127   1.791 -0.4848 -0.7118  1.3617
  124SOL     OW  370   0.107   0.472   1.100 -0.5805  0.2934  0.2927
  124SOL    HW1  371   0.083   0.562   1.144  2.8672  1.3928  0.1680
  124SOL    HW2  372   0.077   0.466   1.009 -1.3487 -1.1609  4.0032
  125SOL     OW  373   0.848   1.849   0.709  0.2214 -0.5564 -0.3392
  125SOL    HW1  374   0.943   1.810   0.736  1.5882 -0.3494  1.5868
  125SOL    HW2  375   0.799   1.903   0.783 -1.8768 -1.7582  0.3649
  126SOL     OW  376   1.869   2.286   2.444 -0.3519 -0.2180 -0.0669
  126SOL    HW1  377   1.939   2.252   2.371  1.9334  0.1144  1.4800
  126SOL    HW2  378   1.818   2.204   2.482 -0.1613 -1.6143 -0.0432
  127SOL     OW  379   0.980   0.898   0.251  0.4806  0.3389  0.0928
  127SOL    HW1  380   1.001   0.966   0.329  2.6057 -2.8624  1.9846
  127SOL    HW2  381   0.945   0.810   0.290  0.0455 -0.1509  0.1102
  128SOL     OW  382   0.906   0.234   1.384 -0.1318 -0.9333  0.3300
  128SOL    HW1  383   0.871   0.298   1.305  0.2188  3.7124  0.2363
  128SOL    HW2  384   0.906   0.131   1.354  2.0766  1.5529  1.2309
  129SOL     OW  385   1.833   0.699   1.897 -0.3546 -0.7016 -0.4480
  129SOL    HW1  386   1.825   0.709   1.798 -1.8757 -0.1746  0.2356
  129SOL    HW2  387   1.880   0.785   1.939 -0.1308  1.3358  2.0011
  130SOL     OW  388   1.363   2.229   1.007 -0.1870 -0.2715  0.3699
  130SOL    HW1  389   1.301   2.225   0.921 -0.5559 -0.4448 -1.5244
  130SOL    HW2  390   1.456   2.274   0.994  2.6659 -1.6730  0.7926
  131SOL     OW  391   3.065   1.450   1.391  0.2124  0.3700  0.5763
  131SOL    HW1  392   2.978   1.396   1.371  1.1221 -2.4791  1.3622
  131SOL    HW2  393   3.156   1.396   1.392  0.4757 -0.2195 -0.0663
  132SOL     OW  394   2.048   2.440   0.512  0.1191  0.2872 -0.1697
  132SOL    HW1  395   1.954   2.476   0.526  1.1867  2.2988  2.9301
  132SOL    HW2  396   2.072   2.364   0.585  1.2646 -0.2846 -0.2957
  133SOL     OW  397   1.868   2.328   2.849 -0.3735 -0.5484 -0.0509
  133SOL    HW1  398   1.833   2.310   2.753  3.4643  2.3178 -2.1650
  133SOL    HW2  399   1.971   2.354   2.856  0.3289  0.2261 -0.0631
  134SOL     OW  400   2.664   2.352   1.650 -0.1755  0.2774 -0.3065
  134SOL    HW1  401   2.598   2.327   1.729 -0.9499  0.1017 -0.2665
  134SOL    HW2  402   2.702   2.450   1.648 -0.1565  1.2077 -1.3467
  135SOL     OW  403   0.650   1.471   2.680 -0.6806 -0.6018 -0.2450
  135SOL    HW1  404   0.606   1.385   2.707  0.3756  3.8227 -2.0684
  135SOL    HW2  405   0.719   1.456   2.601  4.0273 -1.2008  2.3639
  136SOL     OW  406   1.195   2.005   0.409 -0.3662  0.7664  0.2453
  136SOL    HW1  407   1.147   2.065   0.481 -2.6788  3.2948  0.6095
  136SOL    HW2  408   1.178   1.901   0.429 -0.4527 -1.6727 -0.0844
  137SOL     OW  409   0.423   1.174   2.175 -0.2830  0.0185  0.2114
  137SOL    HW1  410   0.329   1.157   2.227  1.6809 -0.4229  0.4477
  137SOL    HW2  411   0.484   1.090   2.173  2.8460  3.6084  1.4511
  138SOL     OW  412   2.459   1.528   0.238  0.4330 -0.3796 -0.3377
  138SOL    HW1  413   2.367   1.487   0.221  1.9543  2.6603 -3.5803
  138SOL    HW2  414   2.520   1.468   0.293  1.9755 -2.0908 -2.1270
  139SOL     OW  415   1.858   2.595   1.281  0.0117  0.2295  0.1048
  139SOL    HW1  416   1.751   2.609   1.290 -1.2738 -2.8506  1.9175
  139SOL    HW2  417   1.891   2.503   1.313  0.1117 -1.2103  1.1230
  140SOL     OW  418   3.023   2.982   2.540 -0.0595  0.0397  0.0325
  140SOL    HW1  419   3.043   2.881   2.529 -2.4143  0.3452  0.3428
  140SOL    HW2  420   3.110   3.042   2.549 -1.1456  1.2398 -0.7002
  141SOL     OW  421   1.324   1.674   1.621  0.1790 -0.0830 -0.5488
  141SOL    HW1  422   1.220   1.680   1.644  0.0092  0.6587  1.4174
  141SOL    HW2  423   1.373   1.595   1.669  0.0971  1.8671  0.8516
  142SOL     OW  424   1.570   0.582   2.263  0.3784  0.2300 -0.1930
  142SOL    HW1  425   1.596   0.555   2.167  1.2191 -0.2613 -1.5837
  142SOL    HW2  426   1.467   0.601   2.284 -0.9727 -3.5658  0.0215
  143SOL     OW  427   2.720   0.897   0.524 -0.3371  0.1378 -0.1827
  143SOL    HW1  428   2.774   0.908   0.435 -2.5208 -0.1939 -0.7471
  143SOL    HW2  429   2.777   0.918   0.613 -0.7631 -0.0308 -0.4524
  144SOL     OW  430   2.928   1.152   1.451 -0.5753 -0.0529 -0.4349
  144SOL    HW1  431   2.900   1.160   1.549 -0.4841  0.1771  0.0257
  144SOL    HW2  432   2.998   1.074   1.449  1.2274  0.2983 -1.3903
  145SOL     OW  433   0.993   1.827   0.175 -0.3073 -0.4373  0.3192
  145SOL    HW1  434   1.036   1.886   0.101 -1.5639  1.0528 -0.2834
  145SOL    HW2  435   0.951   1.735   0.144  0.3011 -2.0194 -0.1445
  146SOL     OW  436   2.508   0.669   1.501  0.3156 -0.1178  0.2077
  146SOL    HW1  437   2.468   0.582   1.461 -1.0195  0.1134 -0.4852
  146SOL    HW2  438   2.456   0.760   1.484 -0.0966 -0.3516 -2.5552
  147SOL     OW  439   1.100   2.452   0.618 -0.1734  0.5103  0.2730
  147SOL    HW1  440   1.049   2.523   0.553 -2.3474 -1.8228  2.1664
  147SOL    HW2  441   1.198   2.419   0.590  0.3254 -1.4111 -0.0003
  148SOL     OW  442   1.639   1.476   3.053 -0.6278  0.8248 -0.2871
  148SOL    HW1  443   1.651   1.398   2.982  0.2121 -2.7317 -1.1541
  148SOL    HW2  444   1.614   1.448   3.151 -1.5762  3.0673  1.2215
  149SOL     OW  445   0.701   1.398   1.982 -0.5834 -0.2871  0.1502
  149SOL    HW1  446   0.609   1.372   2.022 -1.4213 -2.0234 -0.7799
  149SOL    HW2  447   0.712   1.363   1.886  0.4213  0.2452  0.2604
  150SOL     OW  448   3.020   1.234   0.942  0.0760 -0.2638 -0.1133
  150SOL    HW1  449   3.095   1.232   1.018 -2.0120 -1.5820  1.0692
  150SOL    HW2  450   3.002   1.136   0.908 -1.6298 -1.2374  3.5887
  151SOL     OW  451   0.189   0.732   2.136 -0.5056  0.4739 -0.5155
  151SOL    HW1  452   0.192   0.818   2.076  1.0728 -1.0855 -2.2910
  151SOL    HW2  453   0.226   0.652   2.081 -0.1248  0.1366 -0.2844
  152SOL     OW  454   1.430   1.768   1.285 -0.0353 -0.0301  0.1112
  152SOL    HW1  455   1.429   1.851   1.341 -0.3574 -0.0069  2.1568
  152SOL    HW2  456   1.339   1.757   1.230 -1.4249  0.0983  1.1249
  153SOL     OW  457   0.029   1.517   0.158  0.5048  0.3340 -0.0219
  153SOL    HW1  458   0.036   1.419   0.190  0.4944  0.6882  1.6091
  153SOL    HW2  459   0.032   1.582   0.239 -1.4432 -0.3320  1.3940
  154SOL     OW  460   2.391   1.870   2.777  0.2595 -0.2965  0.4558
  154SOL    HW1  461   2.389   1.770   2.804 -0.5349 -1.8749  2.1076
  154SOL    HW2  462   2.464   1.886   2.702  1.5356 -1.5902 -1.2782
  155SOL     OW  463   2.477   1.202   0.390 -0.0079 -0.1191 -0.5031
  155SOL    HW1  464   2.567   1.217   0.338 -0.5952 -0.8287 -1.1546
  155SOL    HW2  465   2.393   1.207   0.329  2.1195 -0.2323 -2.0420
  156SOL     OW  466   2.521   0.974   0.869 -0.2295  0.2996 -0.2962
  156SOL    HW1  467   2.417   0.985   0.867  1.7295  2.6853 -0.2603
  156SOL    HW2  468   2.573   1.046   0.812  1.1042 -0.4660 -0.8967
  157SOL     OW  469   1.290   2.928   3.025 -0.2439  0.0847  0.0373
  157SOL    HW1  470   1.334   2.909   2.934 -3.8012  2.5527  1.5927
  157SOL    HW2  471   1.299   3.024   3.056  1.0730 -1.2310  0.5423
  158SOL     OW  472   1.009   1.828   1.888 -0.1103  0.2160 -0.0541
  158SOL    HW1  473   1.035   1.928   1.876 -1.2197 -0.5613 -0.6111
  158SOL    HW2  474   0.925   1.818   1.956  0.0100 -0.1748  0.8455
  159SOL     OW  475   0.828   0.433   1.207  0.3457 -0.4844  0.4577
  159SOL    HW1  476   0.815   0.514   1.269 -0.6616 -0.2846  0.7567
  159SOL    HW2  477   0.741   0.404   1.151 -1.2124 -0.8421 -0.1824
  160SOL     OW  478   1.405   2.316   1.571  0.2263  0.7588 -0.4242
  160SOL    HW1  479   1.372   2.290   1.668 -0.1993 -2.4356 -0.7306
  160SOL    HW2  480   1.506   2.305   1.555 -1.5896  2.5536 -0.1593
  161SOL     OW  481   0.086   2.949   0.308 -0.7777  0.1561  0.9619
  161SOL    HW1  482  -0.006   2.910   0.307  3.0524 -2.3984  0.7089
  161SOL    HW2  483   0.107   3.019   0.234 -1.0103  0.3715 -0.9327
  162SOL     OW  484   2.536   1.893   0.485  0.7570 -0.4439  0.6583
  162SOL    HW1  485   2.562   1.852   0.388  2.0207 -1.5373 -0.8834
  162SOL    HW2  486   2.570   1.837   0.566  5.0480 -1.2120 -1.1635
  163SOL     OW  487   1.900   2.843   0.724  0.0407  0.3235  0.3233
  163SOL    HW1  488   1.906   2.880   0.628 -0.2950  2.8275  0.3967
  163SOL    HW2  489   1.955   2.759   0.739 -0.6856 -0.4129  0.1360
  164SOL     OW  490   3.061   0.258   1.219  0.2397  0.2542  0.3653
  164SOL    HW1  491   3.119   0.326   1.174 -0.7912 -2.1895 -0.6525
  164SOL    HW2  492   3.110   0.207   1.291 -1.8502  2.1970 -1.4768
  165SOL     OW  493   0.970   1.454   0.744  0.0229  0.0340 -0.2117
  165SOL    HW1  494   0.897   1.500   0.811 -0.4776  3.1861  3.2639
  165SOL    HW2  495   0.957   1.474   0.643  1.0453 -2.1767 -0.5029
  166SOL     OW  496   1.494   1.072   1.748  0.0058 -0.5578  0.3703
  166SOL    HW1  497   1.418   1.049   1.813 -1.3155 -0.3405  0.4993
  166SOL    HW2  498   1.560   1.137   1.794  3.6287 -2.0291 -1.2410
  167SOL     OW  499   0.721   1.938   1.451 -0.0988  0.3786 -0.3603
  167SOL    HW1  500   0.712   2.013   1.521  2.5972  1.8280 -0.1836
  167SOL    HW2  501   0.671   1.854   1.475 -1.3127  3.2657  0.5499
  168SOL     OW  502   1.650   2.391   0.137  0.6559 -0.0827  0.0333
  168SOL    HW1  503   1.712   2.428   0.062 -2.2385  2.2239 -0.3439
  168SOL    HW2  504   1.709   2.369   0.218 -1.2850 -2.5500  2.4427
  169SOL     OW  505   0.194   2.548   2.248  0.7377 -0.1582  0.4478
  169SOL    HW1  506   0.200   2.490   2.163  0.5704  0.7781  1.7072
  169SOL    HW2  507   0.243   2.500   2.326  0.3317  0.9227  3.3767
  170SOL     OW  508   1.128   0.238   2.007  0.1398 -0.4282  0.3206
  170SOL    HW1  509   1.209   0.225   2.074  2.0513 -0.9539  0.2657
  170SOL    HW2  510   1.135   0.191   1.917  0.3842  0.0937 -0.6202
  171SOL     OW  511   0.189   0.776   2.413 -0.7037  0.3034 -0.2555
  171SOL    HW1  512   0.121   0.831   2.472  1.6732  1.5024  0.1370
  171SOL    HW2  513   0.168   0.768   2.312 -0.9855 -0.3249  2.7517
  172SOL     OW  514   0.918   1.020   2.908  0.6138 -0.4042 -0.5114
  172SOL    HW1  515   0.970   1.107   2.928 -0.1723  0.0009 -0.6585
  172SOL    HW2  516   0.886   1.012   2.807 -0.6384 -0.8404 -1.1559
  173SOL     OW  517   0.650   2.686   0.137  0.5166 -0.3694  0.3318
  173SOL    HW1  518   0.672   2.789   0.132  3.5396  3.7505  0.5544
  173SOL    HW2  519   0.544   2.666   0.135 -1.9691  0.6097  0.7494
  174SOL     OW  520   1.470   2.842   1.070  0.4513 -0.3028 -0.7135
  174SOL    HW1  521   1.431   2.925   1.015  0.1668  3.3880 -0.6845
  174SOL    HW2  522   1.436   2.754   1.032  0.5503  1.1198  0.7299
  175SOL     OW  523   0.405  -0.000   1.630  0.2414 -0.0508 -0.6481
  175SOL    HW1  524   0.447   0.027   1.721  1.1233 -0.4826  0.3545
  175SOL    HW2  525   0.356   0.075   1.578 -1.3935  0.4832  2.2883
  176SOL     OW  526   2.613   0.397  -0.001  0.0733 -0.0569 -0.0272
  176SOL    HW1  527   2.620   0.498   0.031  1.8672 -0.4298  1.0913
  176SOL    HW2  528   2.579   0.335   0.071  1.3184  2.6209  2.9519
  177SOL     OW  529   0.356   0.306   1.007  0.2197 -0.0130 -0.4275
  177SOL    HW1  530   0.310   0.214   1.004 -2.8749 -0.4718 -0.4070
  177SOL    HW2  531   0.300   0.378   1.054 -1.8798  2.3192 -0.8327
  178SOL     OW  532   3.087   2.714   2.586  0.3086  0.7117 -0.5818
  178SOL    HW1  533   3.014   2.659   2.636  0.6167  3.0797  0.2836
  178SOL    HW2  534   3.175   2.722   2.639 -0.2076  1.3539  0.8133
  179SOL     OW  535   3.095   1.627   1.149 -0.3512  0.0478 -0.8110
  179SOL    HW1  536   3.007   1.685   1.157 -2.2582 -4.1773  0.4907
  179SOL    HW2  537   3.116   1.564   1.227 -0.2611  0.6643  1.7321
  180SOL     OW  538   0.188   1.221   1.866 -0.2898 -0.3169 -0.0022
  180SOL    HW1  539   0.291   1.225   1.850 -2.2416  1.0241 -1.9197
  180SOL    HW2  540   0.149   1.305   1.923 -0.7001  2.8170  3.8775
  181SOL     OW  541   3.020   1.849   2.502  0.8342  0.2779  0.0016
  181SOL    HW1  542   3.055   1.945   2.496 -2.3347 -1.2667  2.4270
  181SOL    HW2  543   2.922   1.835   2.467  0.9897 -0.4146  0.3061
  182SOL     OW  544   2.247   1.308   1.171  0.2598  0.2010 -0.1604
  182SOL    HW1  545   2.171   1.274   1.109  1.7133 -0.8511 -0.1358
  182SOL    HW2  546   2.260   1.411   1.161 -0.5573 -1.2185 -1.6890
  183SOL     OW  547   1.485   2.226   2.578 -0.0401  0.2472  0.7429
  183SOL    HW1  548   1.383   2.196   2.568 -0.0352  2.7893 -1.4717
  183SOL    HW2  549   1.552   2.155   2.567 -0.4416  1.5981 -0.1629
  184SOL     OW  550   2.042   0.839   0.775 -0.5261  0.1079 -0.2681
  184SOL    HW1  551   1.988   0.929   0.757 -3.1696 -0.3572 -3.1272
  184SOL    HW2  552   1.992   0.782   0.847 -3.9792 -1.3303 -0.5957
  185SOL     OW  553   1.617   2.775   2.064  0.6337 -0.5088 -0.1838
  185SOL    HW1  554   1.550   2.831   2.005  1.3165 -0.2394 -0.5596
  185SOL    HW2  555   1.625   2.823   2.155 -0.4778  1.6387 -1.2660
  186SOL     OW  556   0.102   2.190   1.644 -0.5423 -0.0328 -0.4833
  186SOL    HW1  557   0.074   2.251   1.724  1.7207  1.0957  0.6609
  186SOL    HW2  558   0.187   2.127   1.662 -0.0426  2.3655  0.8238
  187SOL     OW  559   1.299   0.770   1.668 -0.3522 -0.0187  0.1480
  187SOL    HW1  560   1.385   0.782   1.607 -0.1109  2.0073  2.2583
  187SOL    HW2  561   1.324   0.734   1.762  0.9327  1.9097 -1.1310
  188SOL     OW  562   2.755   2.790   1.428  0.1049  0.0069 -0.2047
  188SOL    HW1  563   2.769   2.893   1.427 -0.2118  0.6827 -2.0385
  188SOL    HW2  564   2.675   2.764   1.367  1.8843  1.9818 -0.2030
  189SOL     OW  565   0.942   1.207   1.402  0.3933 -0.2315  0.2786
  189SOL    HW1  566   1.013   1.248   1.459  0.4653 -1.1589 -2.0079
  189SOL    HW2  567   0.855   1.260   1.404  0.2956  0.1243 -0.3560
  190SOL     OW  568   1.465   1.894   1.588 -0.2652 -0.0809  0.2487
  190SOL    HW1  569   1.416   1.800   1.592  0.4439 -2.2571 -1.3921
  190SOL    HW2  570   1.447   1.949   1.677  3.2060  1.7282 -0.1096
  191SOL     OW  571   0.970   0.737   1.569  0.0679 -0.6240  0.5901
  191SOL    HW1  572   1.066   0.700   1.556 -0.6156  1.3347  0.5775
  191SOL    HW2  573   0.962   0.840   1.584  0.9550 -1.6785 -0.5242
  192SOL     OW  574   1.871   2.254   1.121  0.0248 -0.2732  0.0086
  192SOL    HW1  575   1.775   2.273   1.096  0.9150 -1.4343  0.1906
  192SOL    HW2  576   1.935   2.305   1.057 -0.0727 -0.7168 -0.8374
  193SOL     OW  577   0.585   0.580   0.464  0.0442 -0.5814  0.2738
  193SOL    HW1  578   0.521   0.507   0.489  1.6473  1.8213  2.5858
  193SOL    HW2  579   0.625   0.565   0.366  1.7857 -0.6825  0.2868
  194SOL     OW  580   0.336   0.860   1.287 -0.0340  0.4023 -0.0927
  194SOL    HW1  581   0.290   0.765   1.273 -3.8637  2.1735 -0.1101
  194SOL    HW2  582   0.347   0.912   1.198  0.4823  1.8586  0.2354
  195SOL     OW  583   1.010   2.884   0.545 -0.4753 -0.4472  0.2570
  195SOL    HW1  584   1.009   2.794   0.491  2.8431 -2.6713 -4.1494
  195SOL    HW2  585   1.109   2.906   0.573  0.4672  3.8702  0.4774
  196SOL     OW  586   0.216   1.333   1.369 -0.4622 -0.7219 -0.0457
  196SOL    HW1  587   0.232   1.427   1.410 -0.7989 -0.6012 -1.1238
  196SOL    HW2  588   0.191   1.261   1.441  1.3314 -1.2226  0.1450
  197SOL     OW  589   0.824   2.045   0.232 -0.1758  0.4460 -0.0857
  197SOL    HW1  590   0.818   2.035   0.337 -2.1769  0.0288  0.0249
  197SOL    HW2  591   0.884   1.968   0.195 -1.1447  1.6860  0.0000
  198SOL     OW  592   0.301   1.244   0.228 -0.1664  0.2174  0.4831
  198SOL    HW1  593   0.205   1.225   0.194 -0.9697 -0.9873  0.1790
  198SOL    HW2  594   0.311   1.340   0.278 -0.5375  0.5649  0.6897
  199SOL     OW  595   2.230   0.375   2.543  0.0069 -0.6252 -0.3420
  199SOL    HW1  596   2.158   0.342   2.605  0.5345  2.3981 -1.3023
  199SOL    HW2  597   2.328   0.353   2.576  1.2611 -2.2586 -0.0808
  200SOL     OW  598   0.026   2.947   0.748  0.0137 -0.2861  0.1753
  200SOL    HW1  599  -0.057   2.939   0.692 -0.1000  1.0260  0.6837
  200SOL    HW2  600   0.016   3.013   0.824  0.2837  0.0744 -0.9320
  201SOL     OW  601   1.087   0.764   0.619 -0.4875 -0.3844 -0.6711
  201SOL    HW1  602   1.095   0.799   0.717 -0.4061  0.6256  0.9911
  201SOL    HW2  603   1.004   0.700   0.614 -4.1376 -2.1939  1.6936
  202SOL     OW  604   0.465   1.155   1.842 -0.7200 -0.6825  0.7143
  202SOL    HW1  605   0.530   1.105   1.780 -0.3684 -0.5187  1.2566
  202SOL    HW2  606   0.469   1.137   1.944 -1.5290  0.8861 -1.8505
  203SOL     OW  607   0.657   0.203   1.547  0.0584 -0.1876 -0.3152
  203SOL    HW1  608   0.734   0.179   1.480 -0.9966 -1.0733 -1.8565
  203SOL    HW2  609   0.687   0.211   1.646 -1.6253 -0.4120 -2.3958
  204SOL     OW  610   2.061   1.856   2.929  0.3513 -0.4724 -0.4961
  204SOL    HW1  611   2.103   1.759   2.956  2.2602 -1.3158  0.0505
  204SOL    HW2  612   2.085   1.898   2.839 -0.6504  0.4044  2.0790
  205SOL     OW  613   1.827   1.867   3.063  0.0892 -0.3317  0.2813
  205SOL    HW1  614   1.923   1.860   3.019  1.7506 -2.5128 -2.1216
  205SOL    HW2  615   1.773   1.957   3.040  0.5987 -0.2261 -1.1999
  206SOL     OW  616   2.500   2.790   0.321  0.3804 -0.1327 -0.0464
  206SOL    HW1  617   2.568   2.722   0.354 -1.6052  1.6110 -0.0157
  206SOL    HW2  618   2.541   2.865   0.266  0.3274  0.9066  1.7899
  207SOL     OW  619   0.639   1.798   2.968  0.3240 -0.0602  0.3386
  207SOL    HW1  620   0.734   1.767   2.941  0.6063  2.0094  2.9887
  207SOL    HW2  621   0.603   1.744   3.046  1.0648 -0.0998 -1.0973
  208SOL     OW  622   1.121   1.571   1.392 -0.2585 -0.1139 -0.6541
  208SOL    HW1  623   1.158   1.635   1.318  0.2558  1.3036  1.4283
  208SOL    HW2  624   1.183   1.558   1.472 -1.2090 -2.1395 -3.3425
  209SOL     OW  625   0.237   0.959   3.080 -0.6671 -0.2786 -0.1129
  209SOL    HW1  626   0.223   0.901   2.995 -0.8888  0.2086 -1.8858
  209SOL    HW2  627   0.232   0.908   3.172  0.9802 -0.8736  0.6533
  210SOL     OW  628   1.794   0.538   1.183  0.3911 -0.4489 -0.0901
  210SOL    HW1  629   1.728   0.603   1.140 -0.5349  1.2838  0.1162
  210SOL    HW2  630   1.890   0.543   1.145 -0.9854 -0.9642  1.5143
  211SOL     OW  631   2.158   1.023   1.567 -0.2812  0.2731 -0.0785
  211SOL    HW1  632   2.212   0.978   1.646 -1.3022 -0.8191  2.6043
  211SOL    HW2  633   2.217   1.088   1.513 -1.8038 -2.3275 -1.6260
  212SOL     OW  634   0.014   0.963   1.474 -0.2011 -0.1652 -0.1071
  212SOL    HW1  635   0.073   1.027   1.529  2.1351 -1.8588 -0.1638
  212SOL    HW2  636   0.003   0.875   1.526  2.4328  0.7747 -0.3005
  213SOL     OW  637   2.844   0.276   0.377  0.1589 -0.6330  0.1583
  213SOL    HW1  638   2.874   0.208   0.304 -0.8162  0.4702  1.1790
  213SOL    HW2  639   2.775   0.335   0.337  4.9708 -4.8731 -0.4599
  214SOL     OW  640   2.170   0.242   2.306 -0.3061  0.1600  0.2689
  214SOL    HW1  641   2.202   0.291   2.393  0.4637  0.4461  0.5808
  214SOL    HW2  642   2.158   0.139   2.326 -0.7290 -1.2150 -4.5534
  215SOL     OW  643   1.622   2.275   2.139  0.3234 -0.1294 -0.0411
  215SOL    HW1  644   1.714   2.314   2.108 -0.7623 -1.8207 -0.4660
  215SOL    HW2  645   1.553   2.351   2.162 -2.1200  0.7915  0.3072
  216SOL     OW  646   2.193   0.661   0.643  0.3077 -0.2640 -0.1861
  216SOL    HW1  647   2.146   0.572   0.621 -0.3638  2.4696  0.7871
  216SOL    HW2  648   2.125   0.727   0.689 -0.3572  0.7585  1.1329
  217SOL     OW  649   0.765   2.795   2.435  0.1032  0.2392 -0.0901
  217SOL    HW1  650   0.759   2.696   2.465 -1.2529  0.9669 -1.0007
  217SOL    HW2  651   0.774   2.805   2.331 -1.4643 -2.7199  0.1520
  218SOL     OW  652   1.921   1.441   0.036 -0.0002 -0.2275 -0.4617
  218SOL    HW1  653   1.826   1.484   0.038  1.3398  0.7722  0.7688
  218SOL    HW2  654   1.925   1.344   0.061 -0.4622  3.9984 -1.2193
  219SOL     OW  655   2.368   1.296   2.532  0.0357  0.6461  0.1544
  219SOL    HW1  656   2.414   1.245   2.453  2.7297  1.0699 -2.0906
  219SOL    HW2  657   2.359   1.238   2.618  3.6374  0.0539 -0.0176
  220SOL     OW  658   1.527   1.060   1.235 -0.1366 -0.0759  0.3100
  220SOL    HW1  659   1.624   1.074   1.266 -1.6928  1.4966 -0.8102
  220SOL    HW2  660   1.503   1.092   1.140  2.7743  1.8609 -0.0347
  221SOL     OW  661   1.356   0.977   2.216  0.0180  0.2716 -0.2173
  221SOL    HW1  662   1.313   0.995   2.121  0.0099  0.0779  0.5507
  221SOL    HW2  663   1.455   0.945   2.203 -0.0759  0.1153 -0.4612
  222SOL     OW  664   1.132   0.016   1.177 -0.4160  0.0715 -0.5063
  222SOL    HW1  665   1.213   0.040   1.240 -0.7759  1.3355 -0.7471
  222SOL    HW2  666   1.134   0.045   1.080 -1.6252 -1.4818  1.2920
  223SOL     OW  667   2.733   0.891   2.019  0.1221  0.2246  0.3820
  223SOL    HW1  668   2.695   0.906   2.113  0.3931  2.3184 -0.2010
  223SOL    HW2  669   2.799   0.966   1.989  2.2053  1.1607 -0.5679
  224SOL     OW  670   1.540   1.016   2.776 -0.4597 -0.0143  0.4796
  224SOL    HW1  671   1.587   0.947   2.708  0.1620  0.9736 -1.5070
  224SOL    HW2  672   1.463   1.066   2.735  0.5315 -0.5709  0.5949
  225SOL     OW  673   2.919   2.777   2.872  0.2976 -0.1521 -0.0673
  225SOL    HW1  674   2.915   2.677   2.833  2.1733 -0.3189 -0.8146
  225SOL    HW2  675   2.990   2.841   2.835 -1.4071 -1.5922 -0.9814
  226SOL     OW  676   2.422   1.582   2.818  0.7713 -0.3539  0.5115
  226SOL    HW1  677   2.490   1.534   2.751 -0.6417  0.6594  0.0394
  226SOL    HW2  678   2.353   1.516   2.859 -2.4602 -1.3958  1.7353
  227SOL     OW  679   0.823   0.150   3.080  0.0715 -0.0988  0.9102
  227SOL    HW1  680   0.863   0.065   3.121  3.9777  1.4845  0.3341
  227SOL    HW2  681   0.827   0.163   2.977 -0.6166  3.4642  1.9687
  228SOL     OW  682   2.397   0.620   2.855 -0.4343  0.5368 -0.4048
  228SOL    HW1  683   2.325   0.620   2.776  1.6866  1.0265 -0.5001
  228SOL    HW2  684   2.476   0.555   2.843 -0.2042  1.1124 -0.2477
  229SOL     OW  685   0.634   0.414   1.861 -0.0148  0.5201 -0.3355
  229SOL    HW1  686   0.623   0.309   1.856  0.6427 -3.2672 -3.1457
  229SOL    HW2  687   0.658   0.450   1.762  0.7864 -2.3178 -4.9387
  230SOL     OW  688   1.888   1.147   2.112 -1.0078  0.4195 -0.2844
  230SOL    HW1  689   1.962   1.218   2.086 -2.2784 -2.8913  0.8256
  230SOL    HW2  690   1.797   1.197   2.111  0.4301 -1.0565 -0.8990
  231SOL     OW  691   0.681   1.013   3.032 -0.3863  0.6315  0.7566
  231SOL    HW1  692   0.772   1.019   2.978 -0.6055 -0.1910  1.5224
  231SOL    HW2  693   0.616   1.092   3.014 -0.1935 -1.9882 -0.6785
  232SOL     OW  694   2.370   0.004   2.827 -0.4511 -0.2443  0.3414
  232SOL    HW1  695   2.413  -0.086   2.852 -1.5084 -0.6981 -0.0321
  232SOL    HW2  696   2.411   0.046   2.742  0.0220 -0.1857  2.2977
  233SOL     OW  697   1.721   1.291   1.144 -0.2585  0.0769 -0.0556
  233SOL    HW1  698   1.723   1.303   1.042 -2.1998 -0.5321  0.5840
  233SOL    HW2  699   1.786   1.225   1.180 -0.4769  0.1617 -0.4885
  234SOL     OW  700   1.601   2.597   1.849 -0.4273 -0.3985 -0.1236
  234SOL    HW1  701   1.631   2.655   1.928  0.0394 -0.0307 -2.2964
  234SOL    HW2  702   1.512   2.541   1.863 -2.8724  0.5782 -2.1043
  235SOL     OW  703   0.012   2.980   2.870 -0.3755 -0.3631  0.0083
  235SOL    HW1  704   0.025   3.040   2.788 -2.5973  1.5750  0.5594
  235SOL    HW2  705  -0.059   3.014   2.933 -0.3873  1.1238 -1.6985
  236SOL     OW  706   2.919   0.724   0.072  0.9283 -0.5791 -0.0940
  236SOL    HW1  707   2.970   0.793   0.133 -1.3122  0.5583 -1.3713
  236SOL    HW2  708   2.973   0.638   0.050 -0.4917 -1.5871  0.3154
  237SOL     OW  709   1.519   1.716   1.026  0.2200 -0.1289 -0.1373
  237SOL    HW1  710   1.618   1.676   1.018  3.8330 -0.5158  1.2448
  237SOL    HW2  711   1.493   1.748   1.122 -0.1542 -0.0894 -1.4274
  238SOL     OW  712   1.756   1.287   0.873 -0.1009 -0.1450 -0.3561
  238SOL    HW1  713   1.828   1.346   0.908 -1.0546  0.2251  0.1434
  238SOL    HW2  714   1.698   1.332   0.799 -0.0236  1.1676 -0.5226
  239SOL     OW  715   2.054   0.264   2.714  0.3235  0.3420 -1.1643
  239SOL    HW1  716   2.113   0.231   2.794 -0.4126  0.2614  0.1148
  239SOL    HW2  717   1.976   0.324   2.742 -2.3943 -0.5448  0.1069
  240SOL     OW  718   0.908   0.627   0.337 -0.7123 -0.0596 -0.2786
  240SOL    HW1  719   0.945   0.537   0.285 -0.1882  0.0365 -3.0678
  240SOL    HW2  720   0.895   0.620   0.442 -3.2530 -0.6039 -0.8391
  241SOL     OW  721   0.603   0.105   0.371 -0.6361 -0.3565  0.7538
  241SOL    HW1  722   0.636   0.181   0.309 -0.6892 -2.2607  1.3382
  241SOL    HW2  723   0.593   0.008   0.326  0.6299  1.1475  1.5050
  242SOL     OW  724   0.662   2.522   1.114 -0.0276 -0.2750  0.0786
  242SOL    HW1  725   0.625   2.541   1.209  0.9573 -0.1200 -1.1476
  242SOL    HW2  726   0.736   2.588   1.089 -2.1452 -1.0922  1.2372
  243SOL     OW  727   1.083   0.581   2.492  0.1609 -0.0857  0.3747
  243SOL    HW1  728   1.005   0.643   2.459 -1.5607  1.3814 -1.7407
  243SOL    HW2  729   1.095   0.561   2.592  2.8429  1.1101 -1.2177
  244SOL     OW  730   2.789   1.897   2.315  0.2598 -0.3926 -0.4443
  244SOL    HW1  731   2.844   1.842   2.241 -0.3582  2.1115 -1.5460
  244SOL    HW2  732   2.696   1.852   2.342 -2.9090 -1.1254 -1.1105
  245SOL     OW  733   2.375   0.670   2.218 -0.8176  0.2997 -0.1199
  245SOL    HW1  734   2.440   0.729   2.276 -0.9245  0.1572 -1.7274
  245SOL    HW2  735   2.406   0.580   2.189 -0.6662  1.1180  1.9343
  246SOL     OW  736   0.207   2.909   1.695 -0.3488  0.3221  0.1539
  246SOL    HW1  737   0.143   2.878   1.614 -0.7892  1.4037 -1.5267
  246SOL    HW2  738   0.281   2.974   1.656  1.3052 -2.6670 -0.1327
  247SOL     OW  739   2.148   0.582   3.043  0.4970  0.6861 -0.0176
  247SOL    HW1  740   2.203   0.561   2.955 -1.9510 -1.0215  1.4968
  247SOL    HW2  741   2.129   0.682   3.060  0.0416 -2.5432 -3.5225
  248SOL     OW  742   2.153   1.841   1.588  0.4112 -0.1151  0.5283
  248SOL    HW1  743   2.229   1.794   1.641 -1.2512  1.5768 -0.3267
  248SOL    HW2  744   2.058   1.811   1.624 -0.8361  0.5077 -1.5290
  249SOL     OW  745   1.856   1.904   1.917 -0.4707  0.4015 -0.1627
  249SOL    HW1  746   1.882   1.831   1.846  2.5275 -1.7309  0.6900
  249SOL    HW2  747   1.929   1.981   1.923  0.2222 -0.6444  0.6604
  250SOL     OW  748   1.130   0.709   1.951 -0.0712  0.1282  0.8778
  250SOL    HW1  749   1.171   0.614   1.967  0.5769 -1.0856  2.3969
  250SOL    HW2  750   1.065   0.708   1.871  0.6395  1.2667 -0.2482
  251SOL     OW  751   0.015   1.565   2.513  0.3182 -0.0156 -0.3693
  251SOL    HW1  752   0.011   1.666   2.485 -1.0049 -1.2702  0.3112
  251SOL    HW2  753  -0.086   1.531   2.524 -0.9555  2.8383 -1.1715
  252SOL     OW  754   1.522   0.858   1.545 -0.1859 -0.0621  0.0721
  252SOL    HW1  755   1.623   0.843   1.514  0.3107 -1.7568 -0.6005
  252SOL    HW2  756   1.507   0.920   1.628 -2.1672 -1.9564 -1.9525
  253SOL     OW  757   0.889   1.529   0.498  1.3342 -0.6036  0.3262
  253SOL    HW1  758   0.929   1.443   0.460 -1.5343  2.9739  0.5121
  253SOL    HW2  759   0.791   1.547   0.461 -1.8730  0.3700  0.3018
  254SOL     OW  760   2.023   2.152   1.614 -0.0527  0.3676  0.4369
  254SOL    HW1  761   2.015   2.060   1.564 -0.8396  1.7465 -1.9042
  254SOL    HW2  762   1.935   2.183   1.663  0.4931 -1.6603 -0.7117
  255SOL     OW  763   0.128   1.158   2.879  0.6266 -0.0371 -0.3084
  255SOL    HW1  764   0.195   1.230   2.853 -0.2579 -1.8886 -0.8143
  255SOL    HW2  765   0.176   1.091   2.940 -2.2123  0.9034 -3.2265
  256SOL     OW  766   2.803   1.367   1.749  0.1622 -0.0077  0.1695
  256SOL    HW1  767   2.719   1.428   1.756  0.1186 -0.3438  0.9930
  256SOL    HW2  768   2.775   1.268   1.730 -0.3703  0.9244  0.3128
  257SOL     OW  769   0.813   0.211   1.797  0.3285 -0.1487  0.0508
  257SOL    HW1  770   0.862   0.290   1.760 -1.5935 -0.8991 -0.2015
  257SOL    HW2  771   0.865   0.121   1.796 -1.9455 -1.5876 -3.9957
  258SOL     OW  772   2.929   1.282   0.459  0.1230  0.1752 -0.3107
  258SOL    HW1  773   2.841   1.331   0.476 -0.5753 -1.8284 -3.2836
  258SOL    HW2  774   2.994   1.273   0.543  2.5546 -3.3792  1.1720
  259SOL     OW  775   0.472   2.965   3.043 -0.2367 -0.1165  0.7105
  259SOL    HW1  776   0.385   2.925   3.078  2.1311  1.2301 -0.3553
  259SOL    HW2  777   0.492   2.930   2.948 -0.4855  0.3928 -2.8374
  260SOL     OW  778   2.751   0.847   2.772 -0.7540 -0.0100  1.0053
  260SOL    HW1  779   2.655   0.807   2.756 -2.3140  1.1364 -2.5788
  260SOL    HW2  780   2.780   0.859   2.876  1.1111  1.3963 -0.5686
  261SOL     OW  781   2.750   1.307   1.292  0.0800  0.0942 -0.3789
  261SOL    HW1  782   2.681   1.265   1.228  3.3378 -2.4353  0.9169
  261SOL    HW2  783   2.812   1.244   1.345  1.0566  0.5283  3.0285
  262SOL     OW  784   1.421   2.984   2.024 -0.6362  0.1148 -0.4930
  262SOL    HW1  785   1.453   3.052   1.950  0.1978 -1.6300 -2.0363
  262SOL    HW2  786   1.322   2.946   2.011  0.3628 -2.0132 -1.5117
  263SOL     OW  787   0.867   0.709   2.337 -0.3646  0.7131 -0.4313
  263SOL    HW1  788   0.846   0.608   2.307  0.0854 -0.0533 -0.2294
  263SOL    HW2  789   0.905   0.778   2.265  1.7815 -0.7782 -0.0394
  264SOL     OW  790   2.194   0.843   0.333 -0.1220  0.2420  0.6628
  264SOL    HW1  791   2.202   0.746   0.365  2.2050 -3.4926  0.6702
  264SOL    HW2  792   2.291   0.878   0.308  3.7499  2.7997 -0.5520
  265SOL     OW  793   0.904   2.364   2.674  0.2312  0.5702 -0.2962
  265SOL    HW1  794   0.976   2.409   2.739  0.0452  0.9883  3.1313
  265SOL    HW2  795   0.877   2.267   2.708 -0.7400  2.9722 -0.4661
  266SOL     OW  796   1.339   1.691   0.002  0.2506 -0.3575 -0.2689
  266SOL    HW1  797   1.327   1.771   0.070 -0.4381 -0.1275  1.6798
  266SOL    HW2  798   1.426   1.703  -0.056  1.3567 -1.7241 -3.3366
  267SOL     OW  799   0.958   3.036   2.360  0.0161  0.0432  0.0055
  267SOL    HW1  800   0.988   2.993   2.269  0.3378  2.6854 -1.3668
  267SOL    HW2  801   0.883   3.104   2.348  0.1296 -0.3655  2.1748
  268SOL     OW  802   0.674   1.187   1.069 -0.3930  1.0548 -0.8290
  268SOL    HW1  803   0.675   1.236   1.163  0.1272  0.5967  2.8326
  268SOL    HW2  804   0.663   1.244   0.986 -0.3478 -0.2061  0.2641
  269SOL     OW  805   2.378   2.523   1.555 -0.5019  0.2377  0.1742
  269SOL    HW1  806   2.475   2.488   1.570  1.5871  1.7282  0.6600
  269SOL    HW2  807   2.329   2.539   1.647  0.7382 -2.0671  3.0958
  270SOL     OW  808   0.171   2.989   1.950  0.2867 -0.1752  0.6349
  270SOL    HW1  809   0.200   2.954   1.853  1.3803 -1.5545  0.2315
  270SOL    HW2  810   0.114   2.917   1.999 -2.2749  0.8782  1.6263
  271SOL     OW  811   0.413   1.369   1.166  0.5200  0.1574 -0.3475
  271SOL    HW1  812   0.352   1.362   1.080 -1.6992  0.2544 -1.1843
  271SOL    HW2  813   0.356   1.350   1.254 -1.7179  1.2371  2.3752
  272SOL     OW  814   1.973   2.861   1.929  0.8190  0.3558  0.0509
  272SOL    HW1  815   1.928   2.806   1.849 -0.8676 -1.8010 -4.1550
  272SOL    HW2  816   2.044   2.923   1.893  1.0550  0.2634  2.7817
  273SOL     OW  817   1.458   1.439   2.770 -0.0677 -0.3606 -0.0916
  273SOL    HW1  818   1.376   1.495   2.794  1.3083  1.2623  0.3600
  273SOL    HW2  819   1.497   1.379   2.843  0.5375 -0.3072  0.5561
  274SOL     OW  820   1.243   0.478   2.011 -0.5286  0.5148 -0.3435
  274SOL    HW1  821   1.195   0.384   2.002  0.1957  0.1112 -0.2374
  274SOL    HW2  822   1.276   0.487   2.111 -0.2320 -1.7030  3.2983
  275SOL     OW  823   0.596   2.096   1.876 -0.0554 -0.2856  0.4331
  275SOL    HW1  824   0.559   2.175   1.930 -2.1565 -1.1351  1.2252
  275SOL    HW2  825   0.540   2.008   1.903 -2.7984 -2.5861  1.2574
  276SOL     OW  826   2.169   0.882   2.779  0.2515 -0.3177 -0.6571
  276SOL    HW1  827   2.137   0.870   2.677 -1.4753 -1.0330 -2.5782
  276SOL    HW2  828   2.118   0.824   2.847 -0.2917 -0.1889 -2.1133
  277SOL     OW  829   3.079   0.883   0.225 -0.5301  0.7279 -0.3399
  277SOL    HW1  830   3.174   0.917   0.209  0.1715  0.4832  1.1989
  277SOL    HW2  831   3.071   0.821   0.310  1.7301 -2.1426 -1.1936
  278SOL     OW  832   0.233   0.285   0.009 -0.0642 -0.0469 -0.5949
  278SOL    HW1  833   0.332   0.255   0.021  2.4129 -0.3835  1.7388
  278SOL    HW2  834   0.222   0.390  -0.013 -0.4030  0.7236 -1.5239
  279SOL     OW  835   0.167   0.077   0.883  0.0883 -0.2444 -0.0835
  279SOL    HW1  836   0.172   0.001   0.953  0.9160 -2.8527 -0.4655
  279SOL    HW2  837   0.213   0.045   0.792 -2.5993  0.9559 -1.7388
  280SOL     OW  838   1.570   2.953   2.465 -0.0735 -0.2047 -0.9011
  280SOL    HW1  839   1.632   3.009   2.531 -1.0995  1.5723 -1.2386
  280SOL    HW2  840   1.485   3.001   2.430  1.6427 -0.1783 -2.9939
  281SOL     OW  841   0.560   0.932   2.213 -0.1470  0.1740 -0.5837
  281SOL    HW1  842   0.544   0.863   2.139 -1.1083  0.7298 -2.8213
  281SOL    HW2  843   0.505   0.920   2.300  1.3009 -0.5153  0.4259
  282SOL     OW  844   1.785   2.495   0.533  0.3589 -0.7099  0.2722
  282SOL    HW1  845   1.757   2.406   0.483  2.2566 -2.1342  1.3191
  282SOL    HW2  846   1.732   2.583   0.510 -0.3321  0.2670  1.9889
  283SOL     OW  847   1.127   0.919   0.863 -0.0084 -0.0209  0.4206
  283SOL    HW1  848   1.135   0.874   0.954 -2.4868  2.8233 -0.3043
  283SOL    HW2  849   1.070   1.007   0.863  0.1931 -1.9867  2.8183
  284SOL     OW  850   2.369   2.704   2.465 -0.5381  0.1932  0.5205
  284SOL    HW1  851   2.399   2.760   2.378  0.1177  2.1049 -0.7657
  284SOL    HW2  852   2.408   2.749   2.551 -2.7293  0.2389 -2.5553
  285SOL     OW  853   1.301   3.031   2.575 -0.5670  0.2083  0.5903
  285SOL    HW1  854   1.325   3.063   2.475  1.1968  1.3233 -2.1381
  285SOL    HW2  855   1.199   3.055   2.592  1.3807  0.2602 -0.0539
  286SOL     OW  856   0.453   0.471   0.779  0.0847  0.4093 -0.2073
  286SOL    HW1  857   0.436   0.406   0.856 -0.3159  0.5367  0.3267
  286SOL    HW2  858   0.468   0.419   0.693  1.2393 -0.8948 -0.4348
  287SOL     OW  859   0.121   1.284   2.531 -0.1124  0.3205 -0.4077
  287SOL    HW1  860   0.042   1.218   2.547 -1.6029 -0.1143  0.7037
  287SOL    HW2  861   0.118   1.378   2.574 -2.0383 -4.3389 -0.1620
  288SOL     OW  862   1.590   2.667   1.590  0.1716 -1.2817  0.2669
  288SOL    HW1  863   1.587   2.632   1.683  0.8873  0.9061 -0.4328
  288SOL    HW2  864   1.611   2.591   1.518  2.3058  1.7859  0.5532
  289SOL     OW  865   0.636   2.717   0.857  0.4693 -0.2479  0.4159
  289SOL    HW1  866   0.693   2.785   0.802  0.3730 -1.0548  0.9783
  289SOL    HW2  867   0.591   2.759   0.941 -0.1307  1.0137  2.8363
  290SOL     OW  868   2.782   1.101   1.695 -0.1326 -0.2918  0.0061
  290SOL    HW1  869   2.708   1.029   1.683  1.4005  1.3129 -0.8367
  290SOL    HW2  870   2.862   1.065   1.754  0.9812  0.8018 -0.9677
  291SOL     OW  871   1.992   0.076   0.064 -0.1580 -0.6275 -0.3686
  291SOL    HW1  872   2.016   0.034   0.158  0.7838  1.3834  0.2789
  291SOL    HW2  873   2.040   0.167   0.060  1.4636 -1.0107  2.9388
  292SOL     OW  874   3.006   1.190   3.045 -0.4717 -0.4097 -0.6216
  292SOL    HW1  875   2.922   1.223   2.992 -1.7180 -0.7313 -2.5134
  292SOL    HW2  876   3.092   1.185   2.988  1.6187 -1.6557 -0.5930
  293SOL     OW  877   0.569   2.134   0.162 -0.0458 -0.3050  0.4426
  293SOL    HW1  878   0.529   2.210   0.230 -0.8431 -0.4071  0.0754
  293SOL    HW2  879   0.664   2.107   0.186 -0.9295  1.7320 -0.1451
  294SOL     OW  880   1.807   2.219   1.764  0.4987  0.3712 -0.3165
  294SOL    HW1  881   1.813   2.302   1.826  2.0466  2.7602  0.5097
  294SOL    HW2  882   1.763   2.255   1.672  1.0715  2.6131 -1.4615
  295SOL     OW  883   0.983   1.043   0.517 -0.0266  0.3405 -0.1565
  295SOL    HW1  884   1.068   1.001   0.553 -3.1270  2.2921  0.5090
  295SOL    HW2  885   0.902   1.036   0.590 -1.3572 -1.0923 -1.1896
  296SOL     OW  886   1.249   2.123   2.530 -0.6630  0.0222  0.0245
  296SOL    HW1  887   1.197   2.141   2.440 -2.4408  0.4016 -1.8434
  296SOL    HW2  888   1.251   2.020   2.540  2.2625  2.4792 -3.9990
  297SOL     OW  889   1.438   0.626   1.357 -0.3781  0.2335 -0.2746
  297SOL    HW1  890   1.421   0.524   1.355  1.1486 -1.4992  0.5145
  297SOL    HW2  891   1.542   0.642   1.374  1.4208  0.0691  0.2634
  298SOL     OW  892   0.547   1.378   2.969  0.3643  0.3783  0.0551
  298SOL    HW1  893   0.505   1.295   3.021  0.0486  2.1082 -1.4735
  298SOL    HW2  894   0.587   1.337   2.881  0.4264 -3.9546 -1.7330
  299SOL     OW  895   0.505   0.285   1.299 -0.6154  0.2483  0.0280
  299SOL    HW1  896   0.488   0.387   1.273 -2.9168 -2.0107  0.2331
  299SOL    HW2  897   0.570   0.267   1.381  1.0931  0.9914  0.6604
  300SOL     OW  898   1.213   1.829   2.786 -0.1913 -0.8265 -1.0738
  300SOL    HW1  899   1.200   1.731   2.820  0.3764  0.1496  1.6323
  300SOL    HW2  900   1.317   1.848   2.768 -0.7891 -2.5452  3.5642
  301SOL     OW  901   0.452   0.350   0.499 -0.2358  0.2965  0.0064
  301SOL    HW1  902   0.355   0.320   0.507 -0.3831  3.4296  0.9829
  301SOL    HW2  903   0.514   0.275   0.467 -0.2315  0.8405 -0.8915
  302SOL     OW  904   1.233   2.473   2.352  0.3476  0.7472  0.1513
  302SOL    HW1  905   1.148   2.526   2.393  1.9115  3.3224 -0.0866
  302SOL    HW2  906   1.220   2.374   2.357 -1.1329 -0.1144 -0.6885
  303SOL     OW  907   0.954   2.386   0.843 -0.7293  0.7820  0.2794
  303SOL    HW1  908   1.016   2.401   0.760 -0.5509 -0.1426  2.2070
  303SOL    HW2  909   0.960   2.454   0.924  0.0469  0.2180 -1.2777
  304SOL     OW  910   0.099   2.014   0.636 -0.5070 -0.6909  0.2676
  304SOL    HW1  911   0.143   1.948   0.569 -2.2775 -0.0767 -1.5332
  304SOL    HW2  912   0.014   2.065   0.599 -0.9814  0.1876 -2.5761
  305SOL     OW  913   1.648   0.912   0.569 -0.0041 -0.9578  0.0267
  305SOL    HW1  914   1.568   0.913   0.500  0.8015 -0.0292  1.9271
  305SOL    HW2  915   1.665   0.820   0.614 -1.6456 -0.8209  0.2046
  306SOL     OW  916   0.439   1.869   1.917 -0.0529 -0.2567  0.2869
  306SOL    HW1  917   0.465   1.770   1.912 -1.7099  3.1661 -2.0173
  306SOL    HW2  918   0.430   1.907   2.016  0.8472  1.7594 -1.2805
  307SOL     OW  919   3.075   0.913   2.512  0.8116  0.0234 -0.0958
  307SOL    HW1  920   3.055   0.995   2.574  2.0025  2.8727  0.5780
  307SOL    HW2  921   3.003   0.837   2.519 -0.3123 -1.3385  0.5413
  308SOL     OW  922   1.563   2.661   2.803  0.2398  0.4552 -0.1884
  308SOL    HW1  923   1.561   2.597   2.716  0.7969 -2.5442 -2.3238
  308SOL    HW2  924   1.531   2.615   2.891  0.7726  0.9656 -0.6695
  309SOL     OW  925   1.236   0.138   1.779 -0.1244  0.8963  0.7162
  309SOL    HW1  926   1.330   0.091   1.787  1.2911 -0.5971  0.7765
  309SOL    HW2  927   1.203   0.149   1.681  0.7965 -0.0877  0.1899
  310SOL     OW  928   1.511   2.539   0.679 -0.1620 -0.0349  0.3350
  310SOL    HW1  929   1.492   2.573   0.778  0.9076 -0.8538  1.1289
  310SOL    HW2  930   1.558   2.612   0.621  0.3645 -1.9999  0.2859
  311SOL     OW  931   1.180   1.012   1.624  0.8635  0.1307 -0.1960
  311SOL    HW1  932   1.233   0.925   1.654 -0.3007  0.6043 -0.9965
  311SOL    HW2  933   1.234   1.077   1.565 -1.1103 -0.9160  0.5569
  312SOL     OW  934   1.612   0.691   1.063  0.4025  0.5324  0.0166
  312SOL    HW1  935   1.591   0.791   1.027 -1.6588  2.2538 -0.6063
  312SOL    HW2  936   1.525   0.632   1.065  1.2514 -1.6399  0.4934
  313SOL     OW  937   1.534   1.376   0.731 -0.4743  0.1071  0.6853
  313SOL    HW1  938   1.461   1.436   0.778 -0.5350  2.6572  1.4955
  313SOL    HW2  939   1.506   1.297   0.667  2.1238  1.7371 -0.1969
  314SOL     OW  940   2.938   0.042   3.006  0.4964  0.3467 -0.6337
  314SOL    HW1  941   2.942   0.060   3.108  1.4420  1.3842  1.6972
  314SOL    HW2  942   2.858  -0.022   2.980 -0.6694  2.1044 -1.0326
  315SOL     OW  943   1.236   0.211   2.789 -0.2345  0.0266 -0.3182
  315SOL    HW1  944   1.186   0.127   2.743 -0.7900 -2.4282 -0.8271
  315SOL    HW2  945   1.273   0.185   2.882 -3.5854 -0.5177 -2.4075
  316SOL     OW  946   1.713   2.037   0.843  0.0579 -0.1954 -0.1462
  316SOL    HW1  947   1.677   2.017   0.936 -0.6258  1.0253  0.4001
  316SOL    HW2  948   1.730   2.137   0.825  1.0355 -1.6623  0.3995
  317SOL     OW  949   1.120   0.649   2.885  0.5760  0.0826  0.3942
  317SOL    HW1  950   1.073   0.693   2.969 -0.7880  0.5367 -1.5267
  317SOL    HW2  951   1.051   0.608   2.827 -0.7187  0.9266  0.0337
  318SOL     OW  952   1.355   3.091   2.317  0.0911  0.2993  0.1037
  318SOL    HW1  953   1.333   3.190   2.302 -0.0668  0.5460  4.1583
  318SOL    HW2  954   1.377   3.036   2.230 -1.4555  0.2481  1.8673
  319SOL     OW  955   0.721   2.424   2.919 -0.6872 -0.4870 -0.1976
  319SOL    HW1  956   0.642   2.384   2.970  0.7570 -0.6525 -0.1770
  319SOL    HW2  957   0.814   2.390   2.950  0.4702 -1.2258  1.3881
  320SOL     OW  958   1.715   2.269   0.405  0.0093 -0.1082  0.1719
  320SOL    HW1  959   1.781   2.185   0.391 -0.9801  0.6227  2.4498
  320SOL    HW2  960   1.622   2.237   0.432 -1.5791  0.8965 -1.7006
  321SOL     OW  961   1.643   2.742   0.502 -0.4284  0.2700  0.2106
  321SOL    HW1  962   1.551   2.763   0.455 -1.1499 -0.6228 -2.1298
  321SOL    HW2  963   1.728   2.796   0.469 -1.7153  1.5364 -1.5465
  322SOL     OW  964   2.588   1.161   2.387 -0.1681 -0.0620 -0.3643
  322SOL    HW1  965   2.683   1.191   2.418 -0.8942 -1.9423 -0.8974
  322SOL    HW2  966   2.565   1.066   2.419  3.1985 -0.1329 -3.9659
  323SOL     OW  967   1.176   2.638   0.868  0.4942  0.0765  0.1265
  323SOL    HW1  968   1.142   2.575   0.792  0.0797 -0.2394 -0.5533
  323SOL    HW2  969   1.159   2.739   0.854 -1.2979 -0.3493  1.4620
  324SOL     OW  970   0.259   2.490   2.521  0.0714 -0.4582 -0.5222
  324SOL    HW1  971   0.303   2.512   2.613  2.9610  0.1374  1.0686
  324SOL    HW2  972   0.167   2.534   2.513 -1.2262  0.5217 -0.1940
  325SOL     OW  973   1.265   3.043   0.503  0.6398  0.5329 -0.2314
  325SOL    HW1  974   1.252   3.070   0.402 -0.5067  0.6193 -2.8271
  325SOL    HW2  975   1.299   3.122   0.560  1.0243  1.8718  0.1080
  326SOL     OW  976   2.458   0.779   3.068  0.6600  0.4998 -0.4632
  326SOL    HW1  977   2.398   0.716   3.011  0.6166  0.9430 -0.4731
  326SOL    HW2  978   2.516   0.728   3.136 -1.1129  1.0427  1.1744
  327SOL     OW  979   2.848   0.359   0.636  0.0247 -0.1412 -0.3107
  327SOL    HW1  980   2.849   0.309   0.541  1.7507 -1.1857  1.6582
  327SOL    HW2  981   2.910   0.308   0.704  1.3035  0.5382 -0.3694
  328SOL     OW  982   2.566   0.564   0.390  0.1678  0.0570 -0.0600
  328SOL    HW1  983   2.541   0.657   0.417  1.1813 -0.2641  0.7528
  328SOL    HW2  984   2.572   0.505   0.471  0.6301  1.2275 -0.3967
  329SOL     OW  985   2.970   2.933   2.131  0.0494 -0.9139  0.0491
  329SOL    HW1  986   3.045   2.880   2.176  0.2972  2.1442  2.3414
  329SOL    HW2  987   2.989   3.032   2.121 -0.2829 -2.9627 -3.6660
  330SOL     OW  988   0.579   0.142   1.892 -0.2487 -0.6719  0.1606
  330SOL    HW1  989   0.676   0.155   1.861 -3.5484  1.2648 -0.2248
  330SOL    HW2  990   0.575   0.077   1.976  1.1375  0.6259 -1.1980
  331SOL     OW  991   2.981   1.901   1.146  0.7806  0.0828  0.3979
  331SOL    HW1  992   3.028   1.979   1.095 -0.6072  2.2004  1.3556
  331SOL    HW2  993   2.887   1.923   1.191 -0.7611 -0.2774  1.3562
  332SOL     OW  994   0.427   1.160   3.091  0.0393  0.3161 -0.1553
  332SOL    HW1  995   0.386   1.068   3.066  1.4717 -2.5093  0.5268
  332SOL    HW2  996   0.392   1.202   3.184 -1.5418  0.2065 -0.8800
  333SOL     OW  997   2.888   1.057   0.341 -0.6087 -0.2265  0.1315
  333SOL    HW1  998   2.911   1.145   0.395  0.1554 -1.2478 -0.1598
  333SOL    HW2  999   2.971   1.022   0.285  0.7672  0.4584 -2.7711
  334SOL     OW 1000   1.680   1.261   1.840  0.3212  0.6726  0.0599
  334SOL    HW1 1001   1.764   1.215   1.804 -0.8883  1.3872  0.5760
  334SOL    HW2 1002   1.686   1.301   1.936 -1.3821  0.1781 -0.3850
  335SOL     OW 1003   2.005   2.728   2.599  0.0388 -0.3693  0.1068
  335SOL    HW1 1004   1.916   2.735   2.657  0.1926  0.5441 -0.9116
  335SOL    HW2 1005   2.077   2.798   2.637  1.8314 -1.6878 -0.7045
  336SOL     OW 1006   0.272   0.176   2.779 -0.3417  0.4629  0.3149
  336SOL    HW1 1007   0.347   0.181   2.850 -0.6499  0.4121 -0.3387
  336SOL    HW2 1008   0.193   0.244   2.801  0.5342  0.3724  2.3453
  337SOL     OW 1009   0.945   2.796   2.820 -0.7061  0.7673  0.4188
  337SOL    HW1 1010   0.937   2.752   2.914 -0.5444  1.1834  1.6256
  337SOL    HW2 1011   1.038   2.783   2.773 -0.6742  0.1258 -0.4637
  338SOL     OW 1012   0.010   1.025   0.616 -0.3585  0.1460 -0.1199
  338SOL    HW1 1013  -0.084   0.994   0.642  0.0985  1.5271  0.4432
  338SOL    HW2 1014   0.030   1.124   0.631 -1.0294  0.6514  0.8554
  339SOL     OW 1015   1.688   1.343   2.112 -0.6004 -0.1773  0.3642
  339SOL    HW1 1016   1.588   1.355   2.138  1.4552 -0.1522  1.8920
  339SOL    HW2 1017   1.741   1.426   2.148 -3.0590  2.1722  0.0362
  340SOL     OW 1018   2.364   0.804   1.130 -0.1243 -0.1039 -0.4926
  340SOL    HW1 1019   2.270   0.831   1.099  0.2601 -0.5940 -2.9187
  340SOL    HW2 1020   2.394   0.706   1.105 -2.7017  0.5475  0.4043
  341SOL     OW 1021   1.918   2.093   0.335 -0.9856 -0.0078  0.1044
  341SOL    HW1 1022   1.944   2.163   0.259 -0.2489 -0.2515 -0.4236
  341SOL    HW2 1023   2.001   2.065   0.388 -0.8976  1.6908 -0.4996
  342SOL     OW 1024   2.257   2.105   2.710 -0.1064  0.3748 -0.0734
  342SOL    HW1 1025   2.296   2.015   2.746  1.4842  0.4609 -0.3801
  342SOL    HW2 1026   2.151   2.099   2.718 -1.3866  0.7874  0.3832
  343SOL     OW 1027   0.366   0.875   2.748 -0.5840  0.4863 -0.5287
  343SOL    HW1 1028   0.368   0.903   2.644  0.8694 -1.2777 -1.4799
  343SOL    HW2 1029   0.458   0.831   2.780  1.4303  1.6993  3.5522
  344SOL     OW 1030   1.912   1.447   0.382 -0.3941  0.1594  0.4892
  344SOL    HW1 1031   1.894   1.371   0.312 -2.5967  0.3650 -1.5300
  344SOL    HW2 1032   1.822   1.479   0.422 -1.1527 -0.0742 -0.6616
  345SOL     OW 1033   1.432   2.232   2.917 -0.1411 -0.0951  0.4837
  345SOL    HW1 1034   1.346   2.197   2.875 -0.5268  1.3627 -0.2062
  345SOL    HW2 1035   1.500   2.257   2.844  0.9335 -0.6984 -0.3467
  346SOL     OW 1036   2.364   0.882   1.411 -0.0487  0.1030  0.1231
  346SOL    HW1 1037   2.310   0.972   1.416 -2.1591 -2.0517  0.4988
  346SOL    HW2 1038   2.339   0.836   1.321  0.2774 -0.2183 -0.9038
  347SOL     OW 1039   0.763   2.834   1.521  0.0142 -0.1500  0.0449
  347SOL    HW1 1040   0.714   2.792   1.607  0.6577  0.2394  3.1725
  347SOL    HW2 1041   0.696   2.904   1.484 -0.0177  0.5059  0.3771
  348SOL     OW 1042   0.206   0.670   2.857  0.4945 -0.3223  0.5485
  348SOL    HW1 1043   0.101   0.652   2.844 -3.6674 -1.6153 -0.0002
  348SOL    HW2 1044   0.237   0.743   2.793 -1.6570  1.4164  0.7599
  349SOL     OW 1045   1.880   0.459   2.799 -0.0186  0.2673 -0.0802
  349SOL    HW1 1046   1.867   0.553   2.751  0.9831  1.3036  0.8513
  349SOL    HW2 1047   1.865   0.457   2.904  1.5575 -1.2765  2.3740
  350SOL     OW 1048   1.654   0.404   0.351  0.1280 -0.0841  0.3000
  350SOL    HW1 1049   1.710   0.408   0.437 -0.6886 -0.0648 -0.2249
  350SOL    HW2 1050   1.647   0.496   0.312  0.2533 -1.1607  0.8332
  351SOL     OW 1051   1.004   0.870   2.137  0.2508 -0.4150 -0.4834
  351SOL    HW1 1052   0.995   0.970   2.115 -2.0763 -1.9530 -2.4617
  351SOL    HW2 1053   1.024   0.810   2.053 -2.6889 -0.0805  0.8787
  352SOL     OW 1054   2.055   1.318   0.642  0.1261 -0.2437  0.6243
  352SOL    HW1 1055   2.061   1.376   0.562  0.3621 -3.1070 -1.0896
  352SOL    HW2 1056   1.987   1.348   0.713 -1.3434 -3.1774 -4.0317
  353SOL     OW 1057   2.179   2.826   1.032 -0.7240 -0.2934 -0.0029
  353SOL    HW1 1058   2.203   2.779   1.121  1.4674 -2.5546  0.1909
  353SOL    HW2 1059   2.079   2.845   1.024 -1.1094  2.2002 -1.5066
  354SOL     OW 1060   0.295   1.407   2.846  0.0442 -0.2867  0.6470
  354SOL    HW1 1061   0.274   1.500   2.812  2.0888  0.0500  2.4617
  354SOL    HW2 1062   0.390   1.405   2.891 -1.0309  1.0524  1.3782
  355SOL     OW 1063   0.576   1.508   0.580  0.7853 -0.2876  0.5615
  355SOL    HW1 1064   0.532   1.532   0.669 -0.5583 -0.8156  0.5447
  355SOL    HW2 1065   0.605   1.408   0.575  1.4335  0.6892  0.4008
  356SOL     OW 1066   0.882   0.266   2.104  0.3393  0.6884 -0.0046
  356SOL    HW1 1067   0.979   0.246   2.066 -1.0868 -0.9722 -2.0458
  356SOL    HW2 1068   0.819   0.290   2.020  0.4956 -0.8515  0.9102
  357SOL     OW 1069   0.998   1.274   0.334  0.0908  0.1384 -0.3830
  357SOL    HW1 1070   0.987   1.230   0.239 -1.2605  1.2325 -1.4275
  357SOL    HW2 1071   0.968   1.205   0.409 -0.5720 -0.3180 -0.6554
  358SOL     OW 1072   1.651   1.480   0.474 -0.1592  0.6526  0.3560
  358SOL    HW1 1073   1.606   1.442   0.561  0.2045 -2.7853 -0.0698
  358SOL    HW2 1074   1.609   1.446   0.381  1.0747 -0.7023 -0.8993
  359SOL     OW 1075   1.587   2.651   0.161 -0.4173 -0.3555  0.3806
  359SOL    HW1 1076   1.627   2.552   0.150  1.9818 -3.9702  1.4650
  359SOL    HW2 1077   1.489   2.658   0.137  1.2847  0.8950  0.3922
  360SOL     OW 1078   0.863   0.562   0.598  0.3595  0.3671 -0.1921
  360SOL    HW1 1079   0.764   0.592   0.610 -0.2135  0.3393  0.8080
  360SOL    HW2 1080   0.877   0.460   0.610 -0.1251 -1.7791 -1.6639
  361SOL     OW 1081   1.210   1.312   0.757  0.3796 -0.1202 -0.2106
  361SOL    HW1 1082   1.286   1.357   0.812  1.7726  0.9513  0.2711
  361SOL    HW2 1083   1.130   1.383   0.740  0.0171  1.4675  0.2755
  362SOL     OW 1084   1.364   1.854   0.778  0.6224 -0.1825 -0.0092
  362SOL    HW1 1085   1.371   1.796   0.863 -0.1383 -0.1320 -1.0465
  362SOL    HW2 1086   1.456   1.872   0.737  0.0409  0.0433 -1.0851
  363SOL     OW 1087   1.228   1.275   2.029 -0.2608 -0.7263  0.4896
  363SOL    HW1 1088   1.295   1.332   2.081  0.4913 -3.2608 -0.2375
  363SOL    HW2 1089   1.192   1.330   1.951  0.3385 -1.2947  0.7925
  364SOL     OW 1090   0.482   2.323   1.992  0.7858  0.0815  0.4176
  364SOL    HW1 1091   0.393   2.376   1.988 -1.0459 -0.6043 -3.3246
  364SOL    HW2 1092   0.557   2.372   1.943  0.5377  0.4045  2.9965
  365SOL     OW 1093   1.012   1.885   1.396  0.1115  0.2539  0.0367
  365SOL    HW1 1094   0.919   1.934   1.401 -0.0822 -0.7886  0.2443
  365SOL    HW2 1095   1.011   1.788   1.361  0.0477 -1.6266  1.3589
  366SOL     OW 1096   2.759   2.075   0.445  0.5625 -0.3185  0.4475
  366SOL    HW1 1097   2.670   2.034   0.412 -0.3650 -1.7719 -0.5161
  366SOL    HW2 1098   2.834   2.025   0.393 -0.6473  1.4835  1.5513
  367SOL     OW 1099   0.947   1.133   0.084  0.7147  0.4701  0.0881
  367SOL    HW1 1100   0.989   1.044   0.117  1.3732 -0.1912  0.2483
  367SOL    HW2 1101   1.009   1.185   0.018 -1.0670  2.6363  1.5672
  368SOL     OW 1102   1.492   0.550   0.735 -0.0749 -0.0658  0.3818
  368SOL    HW1 1103   1.425   0.587   0.661  2.1764  2.7055  0.3160
  368SOL    HW2 1104   1.585   0.599   0.736 -3.0903 -0.6479  0.0679
  369SOL     OW 1105   0.269   1.740   0.058  1.2096 -0.0209  0.2525
  369SOL    HW1 1106   0.338   1.795   0.119  1.2661 -1.7943 -0.4533
  369SOL    HW2 1107   0.181   1.721   0.108  0.8652 -0.0991  0.2519
  370SOL     OW 1108   0.431   2.068   0.974  0.1995  0.1328 -0.4478
  370SOL    HW1 1109   0.448   2.168   0.950 -0.3826 -1.8498 -0.3085
  370SOL    HW2 1110   0.335   2.042   0.955  0.4949  1.2805 -1.7443
  371SOL     OW 1111   2.910   2.163   2.669  0.8039  0.4154 -0.7014
  371SOL    HW1 1112   2.842   2.145   2.749 -1.5951 -1.3275  2.0200
  371SOL    HW2 1113   3.004   2.192   2.710  1.2416 -0.5306 -1.0218
  372SOL     OW 1114   1.128   1.982   1.125  0.0245  0.1990 -0.5655
  372SOL    HW1 1115   1.075   2.041   1.061  0.7724  1.3107  2.0587
  372SOL    HW2 1116   1.201   2.039   1.165 -2.3723  0.4874 -1.3712
  373SOL     OW 1117   2.009   1.993   0.878  0.3190 -0.1458 -0.1554
  373SOL    HW1 1118   2.067   2.008   0.966 -0.0196  0.0757 -0.1799
  373SOL    HW2 1119   1.914   2.036   0.893  1.2100  0.4273 -0.7354
  374SOL     OW 1120   1.804   0.433   0.570  0.2448 -0.3265 -0.4860
  374SOL    HW1 1121   1.838   0.394   0.662  2.2782 -0.0288  3.0973
  374SOL    HW2 1122   1.873   0.488   0.524 -0.1295 -2.2151  3.5346
  375SOL     OW 1123   2.446   2.200   1.146  0.3599 -0.0449 -0.4702
  375SOL    HW1 1124   2.509   2.170   1.071 -1.0158  0.5030 -1.4997
  375SOL    HW2 1125   2.468   2.163   1.240  0.2954  0.6401  0.5362
  376SOL     OW 1126   3.071   0.554   1.470  0.0306  0.0133  0.4414
  376SOL    HW1 1127   3.092   0.631   1.536  0.8437 -1.3105  1.7163
  376SOL    HW2 1128   2.970   0.529   1.473  0.2871 -1.9357  0.3887
  377SOL     OW 1129   2.226   2.845   0.353 -0.1878 -0.2568 -0.4838
  377SOL    HW1 1130   2.200   2.948   0.368 -0.1581  2.7405  1.6140
  377SOL    HW2 1131   2.327   2.821   0.367 -0.3312 -1.0886  0.1995
  378SOL     OW 1132   1.863   1.847   2.611  0.3679  0.6675 -0.4588
  378SOL    HW1 1133   1.923   1.786   2.673  3.1942 -1.1236  0.8145
  378SOL    HW2 1134   1.881   1.823   2.509 -0.8344 -0.2379 -2.8415
  379SOL     OW 1135   0.800   0.143   2.803 -1.0272  0.3041  0.1611
  379SOL    HW1 1136   0.730   0.075   2.781  0.4309 -1.1291 -0.2579
  379SOL    HW2 1137   0.811   0.216   2.729 -0.3059 -4.3255  0.6697
  380SOL     OW 1138   1.501   1.152   0.569 -0.1359 -0.4024 -0.6952
  380SOL    HW1 1139   1.403   1.125   0.575 -0.9882 -0.1372  1.3035
  380SOL    HW2 1140   1.568   1.081   0.612  2.5749 -1.4406  3.7736
  381SOL     OW 1141   1.361   1.170   1.489  0.0655  0.3170 -0.5777
  381SOL    HW1 1142   1.409   1.144   1.400  0.4961 -2.4568 -1.5741
  381SOL    HW2 1143   1.413   1.148   1.572 -0.7679 -0.7911  0.0650
  382SOL     OW 1144   1.801   0.834   0.153  0.0413 -0.2755 -0.0209
  382SOL    HW1 1145   1.854   0.815   0.068  0.1301  0.6332 -0.4959
  382SOL    HW2 1146   1.863   0.841   0.233 -1.9763 -0.6188 -2.6790
  383SOL     OW 1147   2.632   1.008   1.458 -0.1987 -0.6775 -0.1974
  383SOL    HW1 1148   2.551   0.992   1.397  3.4130  0.2474  0.7031
  383SOL    HW2 1149   2.727   1.003   1.412  1.3997 -1.9980 -1.8497
  384SOL     OW 1150   0.894   2.317   0.135 -0.3895  0.2412  0.1862
  384SOL    HW1 1151   0.852   2.405   0.168 -2.9138 -0.3309  0.3963
  384SOL    HW2 1152   0.869   2.232   0.191 -0.6849  1.3918  0.3628
  385SOL     OW 1153   3.022   2.006   1.715  0.6117 -0.1885 -0.2816
  385SOL    HW1 1154   3.099   2.074   1.689 -0.8180  1.4552  0.4036
  385SOL    HW2 1155   3.062   1.913   1.727 -1.9083  1.3972 -1.7173
  386SOL     OW 1156   0.441   1.086   0.440  0.3496 -0.1009 -0.1792
  386SOL    HW1 1157   0.464   0.989   0.459 -0.4392  0.7545 -0.1937
  386SOL    HW2 1158   0.369   1.098   0.363 -3.3615 -0.6302 -1.5090
  387SOL     OW 1159   0.929   0.400   1.627 -0.8637  0.3804 -0.3600
  387SOL    HW1 1160   1.015   0.463   1.624  1.5606  1.0226 -1.5740
  387SOL    HW2 1161   0.898   0.370   1.534 -0.0449 -1.1040 -0.7449
  388SOL     OW 1162   1.185   2.641   1.767 -0.2410  0.3768  0.2070
  388SOL    HW1 1163   1.203   2.627   1.664 -1.1300 -3.6077 -0.1930
  388SOL    HW2 1164   1.230   2.571   1.828  0.9476 -0.6760 -1.0846
  389SOL     OW 1165   0.181   3.041   1.119 -0.3377 -0.4773 -1.3455
  389SOL    HW1 1166   0.135   3.059   1.211  0.4461 -1.1294 -0.2905
  389SOL    HW2 1167   0.218   2.944   1.114  1.5596  0.9954  2.6548
  390SOL     OW 1168   0.992   0.973   1.299 -0.2238  0.0283  0.2366
  390SOL    HW1 1169   1.063   0.919   1.355 -2.5041 -2.9187  1.0914
  390SOL    HW2 1170   0.973   1.068   1.337 -2.0303  0.1369 -1.0900
  391SOL     OW 1171   2.087   1.190   0.994  0.3943  0.0094  0.2346
  391SOL    HW1 1172   2.001   1.125   0.986 -1.8842 -0.6204  1.2768
  391SOL    HW2 1173   2.171   1.152   0.952 -0.0792 -0.1959  2.9157
  392SOL     OW 1174   0.904   2.647   3.074  0.2023  0.1252 -0.4429
  392SOL    HW1 1175   0.827   2.649   3.146 -0.6264  1.1499  0.7935
  392SOL    HW2 1176   1.000   2.686   3.105  1.7685  0.8687 -0.2442
  393SOL     OW 1177   0.404   0.462   2.010 -0.6674  0.5230  0.0759
  393SOL    HW1 1178   0.327   0.410   1.957  0.4083 -0.2760 -1.9278
  393SOL    HW2 1179   0.496   0.451   1.963 -1.8395 -1.6753 -1.9329
  394SOL     OW 1180   2.996   1.803   2.762 -0.7100  0.9082 -0.3020
  394SOL    HW1 1181   3.077   1.823   2.824  1.4229  1.3293  0.6476
  394SOL    HW2 1182   3.015   1.836   2.663 -0.9524 -0.1956  0.6505
  395SOL     OW 1183   1.595   1.910   0.638  0.7889 -0.5497  0.1836
  395SOL    HW1 1184   1.649   1.853   0.573 -0.9650 -0.0485  0.0409
  395SOL    HW2 1185   1.645   1.947   0.719 -3.2324  2.5922 -0.6894
  396SOL     OW 1186   2.766   1.963   1.300  0.1765 -0.0166 -0.3046
  396SOL    HW1 1187   2.678   2.014   1.322 -1.3829 -0.6182  0.5593
  396SOL    HW2 1188   2.785   1.881   1.353  0.6757  2.2557 -0.8751
  397SOL     OW 1189   1.017   2.168   0.570 -0.2132  0.2820 -1.0204
  397SOL    HW1 1190   0.918   2.127   0.562 -3.4821  1.1422 -1.1215
  397SOL    HW2 1191   1.022   2.256   0.521  0.6619 -2.6346  1.3779
  398SOL     OW 1192   2.232   0.036   1.013 -0.5537 -0.3389  0.0846
  398SOL    HW1 1193   2.214  -0.069   1.010  0.3390 -0.0661  3.2167
  398SOL    HW2 1194   2.166   0.088   1.070 -0.3464  2.1926  2.3267
  399SOL     OW 1195   2.895   2.540   2.765  0.2717 -0.2008  0.1277
  399SOL    HW1 1196   2.876   2.505   2.671  0.4347  1.3704  0.2207
  399SOL    HW2 1197   2.879   2.469   2.844  3.7538  0.9172 -0.3778
  400SOL     OW 1198   0.757   1.582   1.289 -0.0671  0.6514  0.3604
  400SOL    HW1 1199   0.714   1.635   1.370 -0.3956  2.7352  2.1916
  400SOL    HW2 1200   0.769   1.636   1.200 -0.5568 -1.9903  0.7629
  401SOL     OW 1201   1.845   0.129   1.370 -0.1156 -0.6929 -0.1655
  401SOL    HW1 1202   1.914   0.159   1.440  3.1043 -3.5532  0.5823
  401SOL    HW2 1203   1.745   0.147   1.395 -0.1337  0.5836  0.3385
  402SOL     OW 1204   1.326   0.123   3.070  0.0326 -0.7691 -0.3623
  402SOL    HW1 1205   1.417   0.105   3.021  0.7433 -1.1303  0.7064
  402SOL    HW2 1206   1.319   0.222   3.115 -1.7626 -0.7248  1.1063
  403SOL     OW 1207   2.309   1.839   0.898 -0.6692 -0.0375  0.2513
  403SOL    HW1 1208   2.408   1.872   0.887 -0.1862 -0.5432  0.6293
  403SOL    HW2 1209   2.257   1.914   0.944  2.1048  1.3171 -0.8402
  404SOL     OW 1210   0.201   2.480   2.846 -0.2464  0.0586 -0.5061
  404SOL    HW1 1211   0.303   2.463   2.832 -1.8173  2.1096 -1.2779
  404SOL    HW2 1212   0.181   2.575   2.823  0.6742 -1.0608 -0.3963
  405SOL     OW 1213   0.173   2.441   0.567  0.0649 -0.7273 -0.0154
  405SOL    HW1 1214   0.151   2.412   0.468 -2.1823 -3.2450  1.3693
  405SOL    HW2 1215   0.245   2.516   0.581  0.2769 -0.2761  1.7904
  406SOL     OW 1216   0.029   1.451   2.971 -0.0733  0.0195 -0.1322
  406SOL    HW1 1217   0.125   1.436   2.924 -2.5987  0.9423  0.5609
  406SOL    HW2 1218   0.039   1.487   3.069  0.7130  2.1510  0.1803
  407SOL     OW 1219   1.591   0.918   0.883 -0.0096 -0.3541  0.1811
  407SOL    HW1 1220   1.557   0.885   0.791 -0.2287 -0.8130  2.3943
  407SOL    HW2 1221   1.541   1.003   0.911 -0.1807  0.2131  1.3045
  408SOL     OW 1222   1.610   2.360   0.974 -0.4253  1.1817 -0.6891
  408SOL    HW1 1223   1.686   2.357   0.901  2.6510  1.7177 -3.6500
  408SOL    HW2 1224   1.556   2.448   0.970  0.3738 -3.2544  0.7407
  409SOL     OW 1225   0.584   0.880   0.756  0.3562 -0.0449 -0.4979
  409SOL    HW1 1226   0.499   0.870   0.696 -2.8483  1.6253 -0.4384
  409SOL    HW2 1227   0.636   0.789   0.769 -2.8173 -0.0493 -1.4825
  410SOL     OW 1228   1.270   2.013   1.412  0.4706  0.1785 -0.2299
  410SOL    HW1 1229   1.325   1.966   1.485 -2.3118  0.7669 -1.2601
  410SOL    HW2 1230   1.167   1.969   1.403 -0.4516  0.6873  0.3927
  411SOL     OW 1231   2.478   1.897   3.063  0.7129  0.2334  0.1201
  411SOL    HW1 1232   2.402   1.909   2.994 -0.2265 -2.2583 -1.0815
  411SOL    HW2 1233   2.572   1.888   3.020  1.3187 -1.3680  0.3832
  412SOL     OW 1234   1.478   2.481   2.214  0.3723  0.5832 -0.4273
  412SOL    HW1 1235   1.527   2.572   2.224 -0.6698  0.1155  0.4692
  412SOL    HW2 1236   1.402   2.463   2.280  0.2868  0.5305 -2.6490
  413SOL     OW 1237   0.006   0.259   2.926 -0.6634  0.1941  0.0770
  413SOL    HW1 1238  -0.057   0.179   2.958  1.7259  0.0220  1.3600
  413SOL    HW2 1239   0.084   0.281   2.989  0.7532 -0.0701 -1.3754
  414SOL     OW 1240   1.792   1.472   1.359 -0.0210  0.5274  0.1190
  414SOL    HW1 1241   1.706   1.499   1.407  0.1253 -1.7770 -2.6772
  414SOL    HW2 1242   1.763   1.414   1.278 -0.7116 -0.7149 -0.0705
  415SOL     OW 1243   0.293   2.212   0.698 -0.3452  0.1593  0.2701
  415SOL    HW1 1244   0.266   2.306   0.675 -0.4129 -0.2754  0.6000
  415SOL    HW2 1245   0.214   2.143   0.690 -0.5915  1.7861 -1.7033
  416SOL     OW 1246   0.345   1.067   1.065  0.1074  0.0393 -0.0695
  416SOL    HW1 1247   0.324   1.017   0.979 -0.0878  0.1373  0.5833
  416SOL    HW2 1248   0.438   1.116   1.079  1.4581 -0.0179  0.9201
  417SOL     OW 1249   2.102   2.338   1.880  0.1719 -0.0202  0.1170
  417SOL    HW1 1250   2.133   2.243   1.855  0.6988 -1.3449 -2.0690
  417SOL    HW2 1251   2.017   2.335   1.936  0.7342  0.0142 -0.2240
  418SOL     OW 1252   1.116   0.512   1.252  0.5139  0.1148 -0.2237
  418SOL    HW1 1253   1.016   0.510   1.223  0.0279  1.2852 -3.8261
  418SOL    HW2 1254   1.168   0.569   1.182  0.9606 -1.2861  2.1359
  419SOL     OW 1255   1.028   0.360   3.015 -0.5374  0.1495  0.2023
  419SOL    HW1 1256   1.012   0.393   2.916 -2.9424 -2.0656  3.2664
  419SOL    HW2 1257   0.971   0.279   3.044  2.9299  1.1267  0.0643
  420SOL     OW 1258   0.162   2.229   0.353 -0.2502  0.2389 -0.0301
  420SOL    HW1 1259   0.114   2.163   0.289  0.3209 -0.1425 -1.0303
  420SOL    HW2 1260   0.111   2.242   0.443 -1.0192  2.1148 -0.0554
  421SOL     OW 1261   0.308   3.063   0.698 -0.0408 -0.5635  0.1274
  421SOL    HW1 1262   0.267   2.980   0.648 -0.7750 -1.7968  2.3064
  421SOL    HW2 1263   0.410   3.066   0.686 -1.2383  1.6797  3.1104
  422SOL     OW 1264   0.964   2.551   1.048 -0.1384  0.2644 -0.8984
  422SOL    HW1 1265   1.048   2.592   0.998  3.1293  0.4817  0.0107
  422SOL    HW2 1266   0.970   2.574   1.153  0.8194 -0.3919  0.9988
  423SOL     OW 1267   0.107   0.687   1.272  0.1394  0.5062 -0.3030
  423SOL    HW1 1268   0.043   0.648   1.348  0.6987  0.5299  0.1958
  423SOL    HW2 1269   0.058   0.755   1.217  0.8807 -4.1499  1.8850
  424SOL     OW 1270   1.014   2.223   2.055  0.0281  0.1009 -0.2784
  424SOL    HW1 1271   1.021   2.323   2.029 -1.2958  1.2446  1.9959
  424SOL    HW2 1272   0.998   2.212   2.156  3.6112 -1.7078  0.1205
  425SOL     OW 1273   1.975   1.440   0.951  0.5086  0.5864 -0.5184
  425SOL    HW1 1274   2.020   1.355   0.983 -1.8631  1.8829  1.0620
  425SOL    HW2 1275   2.035   1.511   0.906 -1.4569  1.0002  0.0280
  426SOL     OW 1276   1.490   1.527   1.420 -0.2225 -0.1558 -0.1702
  426SOL    HW1 1277   1.486   1.606   1.358  1.4370 -2.2041  0.9006
  426SOL    HW2 1278   1.464   1.544   1.520  0.6464  1.3334 -1.3188
  427SOL     OW 1279   1.877   2.376   2.030 -0.4216  0.0485  0.0947
  427SOL    HW1 1280   1.912   2.332   2.117  0.4237 -0.4349 -2.3995
  427SOL    HW2 1281   1.897   2.478   2.020 -0.1072 -0.8543 -2.5069
  428SOL     OW 1282   0.863   2.917   0.174  0.0677  0.5269  0.4455
  428SOL    HW1 1283   0.906   3.004   0.212 -0.1165  1.7881 -0.8348
  428SOL    HW2 1284   0.926   2.842   0.151  0.3412 -0.2162  1.5926
  429SOL     OW 1285   1.300   0.096   0.267 -0.1775 -0.1757  0.1440
  429SOL    HW1 1286   1.395   0.133   0.287  1.9402 -0.5313 -2.0184
  429SOL    HW2 1287   1.289   0.084   0.165 -0.2915 -1.5521  1.5221
  430SOL     OW 1288   2.705   1.479   0.380 -0.2329 -0.3666  0.5617
  430SOL    HW1 1289   2.763   1.509   0.298 -0.1111 -0.0650 -0.6298
  430SOL    HW2 1290   2.742   1.531   0.465 -0.7584 -1.7147  0.6927
  431SOL     OW 1291   2.140   1.632   0.847  0.3017  0.0933 -0.7206
  431SOL    HW1 1292   2.210   1.702   0.877  1.0972 -1.6706 -0.0335
  431SOL    HW2 1293   2.069   1.666   0.778  0.4868  0.3148  0.1239
  432SOL     OW 1294   2.876   2.229   1.270 -0.4726  0.0848 -0.4036
  432SOL    HW1 1295   2.835   2.139   1.290  0.2164 -2.9148  0.5224
  432SOL    HW2 1296   2.927   2.272   1.352  0.5413 -1.5466  3.1566
  433SOL     OW 1297   1.901   0.364   0.839  0.8574 -0.3049  0.1607
  433SOL    HW1 1298   1.840   0.331   0.916 -0.6271  0.3531 -1.6671
  433SOL    HW2 1299   1.997   0.324   0.846  1.3169 -0.7617 -0.9396
  434SOL     OW 1300   1.575   0.257   0.765 -0.3540 -0.4602  0.5255
  434SOL    HW1 1301   1.546   0.354   0.745 -1.8072 -0.0478 -0.5355
  434SOL    HW2 1302   1.634   0.254   0.858 -0.1053  0.5149  2.8924
  435SOL     OW 1303   1.443   1.435   2.129  0.5865 -0.7482  0.1070
  435SOL    HW1 1304   1.420   1.460   2.229  0.6933  0.1983  0.2482
  435SOL    HW2 1305   1.491   1.498   2.070  0.6326 -1.0501  1.0312
  436SOL     OW 1306   1.664   2.733   2.348  0.4074  0.8143 -0.2458
  436SOL    HW1 1307   1.615   2.813   2.387 -1.2036 -1.9113 -2.0545
  436SOL    HW2 1308   1.688   2.659   2.421  0.9083  1.4978 -1.3063
  437SOL     OW 1309   1.106   2.913   0.891  0.1904  0.1068  0.4670
  437SOL    HW1 1310   1.049   2.991   0.857  1.3997 -1.7174  1.9234
  437SOL    HW2 1311   1.102   2.896   0.993 -1.0655 -0.9751 -0.1060
  438SOL     OW 1312   1.056   2.599   1.310  0.5353 -0.4260  0.1293
  438SOL    HW1 1313   1.135   2.612   1.376 -3.0407  0.7455  1.2966
  438SOL    HW2 1314   1.001   2.513   1.322 -3.4762  1.3379 -2.6703
  439SOL     OW 1315   0.719   1.775   1.093  0.1349 -0.4858 -0.2123
  439SOL    HW1 1316   0.736   1.877   1.102  0.9702 -0.2432  0.0235
  439SOL    HW2 1317   0.616   1.748   1.102 -0.8952 -2.0979  3.6598
  440SOL     OW 1318   0.971   2.487   1.957 -0.1163  0.0768 -0.7358
  440SOL    HW1 1319   0.912   2.519   1.879  0.8239  0.3868 -0.4222
  440SOL    HW2 1320   1.068   2.519   1.944  2.2833  0.0220 -1.4158
  441SOL     OW 1321   0.406   2.804   1.358  0.2786 -0.3018  0.3780
  441SOL    HW1 1322   0.443   2.703   1.364 -1.7122 -1.5468 -0.8496
  441SOL    HW2 1323   0.328   2.810   1.292 -1.7554  0.4241 -0.4624
  442SOL     OW 1324   2.267   0.651   2.623  0.2679 -0.0081 -0.0089
  442SOL    HW1 1325   2.256   0.565   2.570 -1.1245  1.1887  1.6499
  442SOL    HW2 1326   2.186   0.715   2.609  0.9431  0.5490  0.3306
  443SOL     OW 1327   1.212   2.721   2.198 -0.3494  0.1754  0.2468
  443SOL    HW1 1328   1.246   2.630   2.226  3.0409 -1.1984  0.7959
  443SOL    HW2 1329   1.231   2.786   2.275  2.1284 -0.8590 -0.5018
  444SOL     OW 1330   1.141   1.305   1.566  0.0073 -0.7138  0.6455
  444SOL    HW1 1331   1.231   1.274   1.524  2.3619 -0.2151  4.1015
  444SOL    HW2 1332   1.153   1.376   1.645  2.7633  1.8274 -0.1872
  445SOL     OW 1333   3.096   2.377   1.863 -0.1388 -0.0873  0.6460
  445SOL    HW1 1334   3.079   2.467   1.808  1.0845  1.8989 -0.3932
  445SOL    HW2 1335   3.021   2.360   1.933  0.8253 -0.8292 -1.4259
  446SOL     OW 1336   0.250   1.890   2.395  0.2138  0.3590 -0.1189
  446SOL    HW1 1337   0.185   1.967   2.415  1.8275  0.8770 -1.1677
  446SOL    HW2 1338   0.204   1.825   2.319 -0.0470 -2.4997 -3.1414
  447SOL     OW 1339   1.244   1.666   1.969 -0.1769  0.6038 -0.4097
  447SOL    HW1 1340   1.163   1.729   1.969 -1.3462 -0.4980  0.9960
  447SOL    HW2 1341   1.328   1.710   2.007  2.5942 -0.1932 -1.9062
  448SOL     OW 1342   0.092   1.443   1.973  0.1543 -0.5004 -0.4487
  448SOL    HW1 1343   0.135   1.532   1.945  2.1613 -0.3332  0.2967
  448SOL    HW2 1344   0.072   1.440   2.078  1.8434  0.3970  0.0134
  449SOL     OW 1345   1.743   2.952   0.909  0.5926  0.4531  0.0419
  449SOL    HW1 1346   1.743   2.938   1.008 -1.3552  0.1963 -2.2697
  449SOL    HW2 1347   1.793   2.879   0.851  0.7132  0.9958 -1.2292
  450SOL     OW 1348   2.325   1.435   0.756  0.3857 -0.1225  0.0869
  450SOL    HW1 1349   2.245   1.475   0.811 -3.8469  0.8930  0.4019
  450SOL    HW2 1350   2.321   1.473   0.659 -0.1089 -1.5266 -1.0158
  451SOL     OW 1351   1.308   3.029   1.430  0.0358 -0.4551 -0.2665
  451SOL    HW1 1352   1.252   3.116   1.452  1.3193 -0.6661  0.2684
  451SOL    HW2 1353   1.328   2.973   1.515  3.5126  1.3562  1.9597
  452SOL     OW 1354   2.653   2.295   2.208  0.4179 -0.1787 -0.2840
  452SOL    HW1 1355   2.621   2.397   2.213 -3.0398  0.2443 -0.7904
  452SOL    HW2 1356   2.700   2.262   2.293 -1.3995 -2.1562 -0.0598
  453SOL     OW 1357   2.453   2.674   3.098  0.0416 -0.2765  1.2097
  453SOL    HW1 1358   2.365   2.715   3.135 -0.4897 -0.6379 -1.7643
  453SOL    HW2 1359   2.431   2.611   3.020  0.7123  0.4095 -4.2547
  454SOL     OW 1360   0.978   1.140   2.035  0.1399 -0.3549 -0.2869
  454SOL    HW1 1361   0.968   1.119   1.932 -1.9893 -0.1398 -1.5206
  454SOL    HW2 1362   1.057   1.204   2.052  1.3287 -2.3038  1.4161
  455SOL     OW 1363   0.702   2.662   2.822 -0.4163  0.0082 -0.0724
  455SOL    HW1 1364   0.778   2.730   2.845  1.5520  0.8119 -0.5390
  455SOL    HW2 1365   0.733   2.560   2.855  0.4084 -0.1751  1.7833
  456SOL     OW 1366   0.446   1.891   0.216  0.0527  0.6476  0.2339
  456SOL    HW1 1367   0.523   1.828   0.249 -0.4139  0.8439  2.4407
  456SOL    HW2 1368   0.475   1.987   0.189  2.6750  1.9220  4.2275
  457SOL     OW 1369   0.363   2.656   0.600 -1.0328 -0.7796  0.2445
  457SOL    HW1 1370   0.347   2.738   0.537  1.1004 -2.2570  1.0647
  457SOL    HW2 1371   0.465   2.646   0.622 -0.5553  0.6317  0.0045
  458SOL     OW 1372   2.923   3.088   1.226 -0.1652 -0.1513  0.1569
  458SOL    HW1 1373   2.995   3.155   1.189  0.5796 -0.6018 -1.3948
  458SOL    HW2 1374   2.899   3.009   1.162  2.0231 -2.6948 -0.8826
  459SOL     OW 1375   2.073   2.628   0.758 -0.0414 -0.1391 -0.3237
  459SOL    HW1 1376   2.169   2.672   0.758  1.1991  0.1943  0.6150
  459SOL    HW2 1377   2.062   2.559   0.682  0.7396 -1.9267 -3.0739
  460SOL     OW 1378   1.215   2.111   2.812  0.4372 -0.2263  0.1746
  460SOL    HW1 1379   1.197   2.131   2.713  2.2560  0.5663  2.1132
  460SOL    HW2 1380   1.220   2.009   2.821 -0.6734  1.1025  0.7149
  461SOL     OW 1381   0.543   2.187   2.650 -0.1171  0.4188 -0.0325
  461SOL    HW1 1382   0.505   2.100   2.608 -0.6257 -0.2260  2.0725
  461SOL    HW2 1383   0.569   2.169   2.749  0.0000  0.8566 -2.3342
  462SOL     OW 1384   0.960   1.118   1.760 -0.0080  1.2145  0.8414
  462SOL    HW1 1385   1.035   1.088   1.695 -0.7218 -2.7505  0.7370
  462SOL    HW2 1386   0.900   1.195   1.730 -2.6789  0.3806  0.5782
  463SOL     OW 1387   0.451   0.817   0.503 -0.0883  0.1931  0.2914
  463SOL    HW1 1388   0.486   0.719   0.493 -0.5767 -2.8163 -1.3569
  463SOL    HW2 1389   0.348   0.826   0.493  1.2903 -1.7701  0.2672
  464SOL     OW 1390   0.618   2.302   2.235 -0.0497  0.7561 -0.0140
  464SOL    HW1 1391   0.572   2.378   2.292 -1.8725  0.7086 -0.2876
  464SOL    HW2 1392   0.564   2.262   2.159 -1.5544  1.2619 -0.7547
  465SOL     OW 1393   0.223   0.957   0.815  0.4775  0.5789 -0.3010
  465SOL    HW1 1394   0.136   0.964   0.753 -1.9665 -0.1252  2.8675
  465SOL    HW2 1395   0.254   0.855   0.824  4.7093 -2.6759 -0.1940
  466SOL     OW 1396   1.397   1.119   0.994 -0.0676  0.0959 -0.3585
  466SOL    HW1 1397   1.389   1.207   0.942  1.1916  1.9100 -0.0744
  466SOL    HW2 1398   1.304   1.073   0.999 -0.4948 -0.4187  1.0975
  467SOL     OW 1399   0.567   0.413   2.453 -0.5844 -0.5278 -0.1020
  467SOL    HW1 1400   0.519   0.509   2.432 -0.9745  2.2277 -1.6895
  467SOL    HW2 1401   0.546   0.381   2.553 -1.0545 -1.2934  1.7522
  468SOL     OW 1402   0.449   2.261   1.615  0.3057  0.3244  0.0849
  468SOL    HW1 1403   0.538   2.305   1.638  1.7170  0.6741 -0.4469
  468SOL    HW2 1404   0.409   2.296   1.524  2.0319  0.7104 -1.6311
  469SOL     OW 1405   1.447   1.346   1.213 -0.5491 -0.1761 -0.4714
  469SOL    HW1 1406   1.529   1.302   1.178 -2.4815  2.3218 -1.6316
  469SOL    HW2 1407   1.472   1.416   1.289 -0.1653  3.3956 -0.7901
  470SOL     OW 1408   3.019   1.842   0.755 -0.5236 -0.2004 -0.3012
  470SOL    HW1 1409   3.084   1.901   0.705 -1.7568 -1.0036 -0.1927
  470SOL    HW2 1410   3.046   1.825   0.854 -0.8562  1.6866 -1.7554
  471SOL     OW 1411   2.628   1.279   2.134  0.5178 -0.5317 -0.0939
  471SOL    HW1 1412   2.590   1.216   2.209 -0.7877  0.4669  1.5972
  471SOL    HW2 1413   2.681   1.359   2.171  4.2490 -3.7330 -1.5154
  472SOL     OW 1414   1.140   2.454   0.052 -0.3664  0.5316  0.2248
  472SOL    HW1 1415   1.218   2.426   0.114 -0.8538 -1.6087 -1.5506
  472SOL    HW2 1416   1.048   2.428   0.091 -0.2903 -0.3039  1.6486
  473SOL     OW 1417   1.093   1.535   1.021  0.1775  0.1835 -0.3115
  473SOL    HW1 1418   1.001   1.530   0.974  1.0954  1.4647 -0.6913
  473SOL    HW2 1419   1.110   1.445   1.078  1.0662 -1.3734 -0.5175
  474SOL     OW 1420   0.678   1.272   0.549  0.0538  0.4361 -0.1489
  474SOL    HW1 1421   0.636   1.228   0.466 -1.8498  0.4631  0.5891
  474SOL    HW2 1422   0.738   1.205   0.599 -1.3665 -1.3139  1.2531
  475SOL     OW 1423   2.860   0.012   0.846  0.4973 -0.0094 -0.0279
  475SOL    HW1 1424   2.924   0.087   0.830  2.3058 -0.1542  0.0498
  475SOL    HW2 1425   2.765   0.043   0.862 -0.4008 -0.6452  1.5178
  476SOL     OW 1426   0.965   3.083   1.757  0.1285  0.1762  0.2248
  476SOL    HW1 1427   1.060   3.096   1.798 -1.5084  2.4687 -0.4284
  476SOL    HW2 1428   0.970   3.035   1.665  0.5465  1.5924  0.1090
  477SOL     OW 1429   1.411   0.332   2.419 -0.3929  0.1506  0.3205
  477SOL    HW1 1430   1.427   0.346   2.519  0.2495 -0.2808 -0.7041
  477SOL    HW2 1431   1.483   0.259   2.387  0.6696 -1.9243 -1.6542
  478SOL     OW 1432   2.219   1.815   0.150 -0.0122  0.0353  0.0513
  478SOL    HW1 1433   2.171   1.750   0.216 -0.3198  1.6686 -2.0350
  478SOL    HW2 1434   2.322   1.819   0.148  1.8103  1.1500  0.4682
  479SOL     OW 1435   1.192   0.989   2.844  0.0561 -0.1867  0.5136
  479SOL    HW1 1436   1.240   0.938   2.768 -0.6314 -0.4784  1.1879
  479SOL    HW2 1437   1.111   0.941   2.881  3.6749  0.9206  1.3475
  480SOL     OW 1438   2.660   2.340   0.359  0.3703 -0.4002  0.2071
  480SOL    HW1 1439   2.686   2.241   0.371  0.1336  0.3277 -2.3714
  480SOL    HW2 1440   2.569   2.347   0.309  1.6632  2.5577 -0.0072
  481SOL     OW 1441   0.967   1.153   0.878 -0.1784 -0.4162  0.7831
  481SOL    HW1 1442   0.968   1.241   0.826  1.9457 -2.2440 -1.2410
  481SOL    HW2 1443   1.031   1.156   0.957 -0.1292 -0.9792 -1.9179
  482SOL     OW 1444   1.592   0.279   2.019  0.0779 -0.2471  0.9370
  482SOL    HW1 1445   1.585   0.377   1.977  0.4566  1.5907 -2.7456
  482SOL    HW2 1446   1.686   0.259   2.045  0.5665  0.4597 -1.0297
  483SOL     OW 1447   0.104   2.300   1.223 -0.1344  0.5899  0.0796
  483SOL    HW1 1448   0.032   2.365   1.265 -1.1560 -1.5507  4.5024
  483SOL    HW2 1449   0.154   2.348   1.144  0.4840  0.7387  1.0332
  484SOL     OW 1450   1.777   1.108   1.366 -0.1136 -0.3114 -0.0172
  484SOL    HW1 1451   1.838   1.027   1.377  0.5460  0.7647 -1.6959
  484SOL    HW2 1452   1.765   1.162   1.453 -0.1299 -0.0663 -1.7725
  485SOL     OW 1453   0.736   0.920   1.754 -0.3460  0.6072 -0.5378
  485SOL    HW1 1454   0.736   0.888   1.655  1.5571  1.3807  0.7121
  485SOL    HW2 1455   0.796   1.003   1.773  1.9801  1.3510  2.5546
  486SOL     OW 1456   0.806   1.872   2.442  0.4977 -0.1180 -0.3277
  486SOL    HW1 1457   0.861   1.834   2.517 -0.6681  0.2160  1.5426
  486SOL    HW2 1458   0.772   1.966   2.475  0.5065  1.3359 -0.5158
  487SOL     OW 1459   1.788   1.651   0.963  0.3307 -0.3834  0.6715
  487SOL    HW1 1460   1.855   1.574   0.975 -2.1851  2.7072 -1.1377
  487SOL    HW2 1461   1.826   1.716   0.890 -1.2734  1.4714 -0.6869
  488SOL     OW 1462   2.993   0.857   2.236  0.5273 -0.1512 -0.7463
  488SOL    HW1 1463   2.990   0.754   2.219 -3.3479  0.4159 -2.4919
  488SOL    HW2 1464   2.997   0.886   2.334  1.2106  1.2419 -0.6105
  489SOL     OW 1465   2.801   0.311   1.255 -0.3933 -0.6104 -0.1061
  489SOL    HW1 1466   2.801   0.312   1.358 -3.2563 -1.4249 -0.0358
  489SOL    HW2 1467   2.895   0.286   1.229 -0.7381  1.7044  2.8817
  490SOL     OW 1468   1.473   2.953   2.787  0.9226  0.1436 -0.2638
  490SOL    HW1 1469   1.536   2.872   2.784  0.0296  2.4383  0.0010
  490SOL    HW2 1470   1.418   2.956   2.697  2.1809  0.5863 -1.5142
  491SOL     OW 1471   1.709   1.443   2.614  0.4205  0.0906 -0.3224
  491SOL    HW1 1472   1.626   1.428   2.670  0.8366  1.6250 -1.6374
  491SOL    HW2 1473   1.785   1.483   2.669  1.9006 -1.8876  0.1347
  492SOL     OW 1474   0.580   2.128   0.644  0.1879  0.2211  0.3300
  492SOL    HW1 1475   0.626   2.100   0.734 -2.1401  0.9806 -1.0612
  492SOL    HW2 1476   0.479   2.150   0.652 -2.3492  2.4743 -0.8816
  493SOL     OW 1477   0.434   1.402   2.027  0.3645  0.6583 -0.4107
  493SOL    HW1 1478   0.362   1.477   2.039  1.5545  0.3053  0.4147
  493SOL    HW2 1479   0.414   1.312   2.076 -0.0095 -1.1912  0.7901
  494SOL     OW 1480   2.721   2.740   0.101  0.1860  0.1399  0.3634
  494SOL    HW1 1481   2.713   2.695   0.197  0.2101 -0.5077  1.6252
  494SOL    HW2 1482   2.635   2.738   0.038 -3.4417  3.0936 -0.1678
  495SOL     OW 1483   2.577   2.700   2.627  1.0184 -0.1793  0.5509
  495SOL    HW1 1484   2.556   2.600   2.610  1.0951  2.0175 -0.7212
  495SOL    HW2 1485   2.653   2.738   2.564 -1.3001 -2.8727  3.0397
  496SOL     OW 1486   2.076   2.254   0.714 -0.3959 -0.1950  0.1505
  496SOL    HW1 1487   2.114   2.281   0.807  1.6634  1.3033 -0.1172
  496SOL    HW2 1488   2.084   2.156   0.694 -2.4831 -0.3849  0.4680
  497SOL     OW 1489   0.201   2.996   2.361  0.0133  0.2034 -0.5082
  497SOL    HW1 1490   0.180   3.061   2.441 -1.2245  0.6340  1.4375
  497SOL    HW2 1491   0.240   3.048   2.282 -2.5171 -0.3523  0.7758
  498SOL     OW 1492   1.177   1.353   1.198 -0.2947  0.0803 -0.2912
  498SOL    HW1 1493   1.281   1.353   1.209 -2.1314  0.2902 -1.9087
  498SOL    HW2 1494   1.127   1.401   1.275  3.4396  3.7884 -2.6906
  499SOL     OW 1495   0.636   1.744   0.366  0.2934  0.4184  0.0894
  499SOL    HW1 1496   0.683   1.659   0.322  0.7169 -0.3563 -1.0988
  499SOL    HW2 1497   0.700   1.817   0.396  0.3611 -2.8383 -0.9521
  500SOL     OW 1498   1.415   2.876   1.633 -0.3703  0.2082  0.0193
  500SOL    HW1 1499   1.359   2.841   1.704  5.5960 -1.9216 -0.7522
  500SOL    HW2 1500   1.493   2.815   1.606 -2.7752 -0.0169  0.6355
  501SOL     OW 1501   0.820   1.115   2.275 -0.3532 -0.1863  0.3403
  501SOL    HW1 1502   0.732   1.058   2.272  0.6568 -0.0894 -1.2665
  501SOL    HW2 1503   0.852   1.144   2.183  2.0705 -2.1519 -3.5377
  502SOL     OW 1504   2.542   0.926   1.716 -0.2227  0.0150 -0.0356
  502SOL    HW1 1505   2.579   0.955   1.625  1.3991 -0.7244  2.5864
  502SOL    HW2 1506   2.549   0.821   1.726  0.4937 -0.1423 -0.0185
  503SOL     OW 1507   1.333   0.158   0.667 -0.0649  0.2639  0.4876
  503SOL    HW1 1508   1.293   0.245   0.626  1.8653 -0.0303  1.5197
  503SOL    HW2 1509   1.435   0.169   0.683 -1.2498  0.8937  1.3184
  504SOL     OW 1510   3.022   2.338   1.487  0.3129  0.1856  0.0003
  504SOL    HW1 1511   2.966   2.406   1.534 -0.5060  1.8941 -1.3712
  504SOL    HW2 1512   3.084   2.283   1.549  0.8933 -1.4087  2.0573
  505SOL     OW 1513   2.332   1.161   1.407  0.5733  0.1936 -0.1456
  505SOL    HW1 1514   2.293   1.204   1.328  2.6645  0.0288  3.6659
  505SOL    HW2 1515   2.411   1.218   1.445 -2.1891 -0.7910  0.7070
  506SOL     OW 1516   1.975   0.217   1.814 -0.0037  0.1210 -0.0963
  506SOL    HW1 1517   2.067   0.186   1.857 -1.7809 -1.4763  0.6122
  506SOL    HW2 1518   1.934   0.311   1.841 -1.6224 -0.6394  0.1613
  507SOL     OW 1519   0.550   0.669   2.119 -0.1341 -0.0584  0.0347
  507SOL    HW1 1520   0.502   0.596   2.075  1.1142  3.1193 -2.4961
  507SOL    HW2 1521   0.637   0.636   2.163  0.0386 -0.1058 -0.2797
  508SOL     OW 1522   0.277   1.636   0.738 -0.2030 -0.1746  0.5111
  508SOL    HW1 1523   0.350   1.704   0.697  1.3467  0.6778 -1.3568
  508SOL    HW2 1524   0.240   1.662   0.832 -1.3238 -2.4799  2.2680
  509SOL     OW 1525   1.256   1.221   2.406 -0.0908  0.5069  0.3395
  509SOL    HW1 1526   1.285   1.181   2.314  0.4235 -2.5774 -3.5198
  509SOL    HW2 1527   1.163   1.175   2.435  0.3764  1.3372 -1.8802
  510SOL     OW 1528   1.288   2.124   2.213 -0.6551 -0.0936 -0.1600
  510SOL    HW1 1529   1.293   2.159   2.119 -0.2001  0.1339 -0.0177
  510SOL    HW2 1530   1.206   2.063   2.218 -0.1153  2.3833 -0.6749
  511SOL     OW 1531   3.005   2.676   1.297  0.0763  0.6685  0.2997
  511SOL    HW1 1532   2.976   2.690   1.197 -2.3433 -0.0902  0.7011
  511SOL    HW2 1533   2.922   2.666   1.370  1.1170  0.2163  4.9568
  512SOL     OW 1534   2.397   0.446   1.375 -0.7180 -0.6541 -0.5254
  512SOL    HW1 1535   2.292   0.449   1.380  0.1254  0.5564  2.8348
  512SOL    HW2 1536   2.437   0.432   1.277  0.3895  3.7379  1.3344
  513SOL     OW 1537   2.607   2.110   0.874  0.9600 -0.1673  0.0850
  513SOL    HW1 1538   2.568   2.194   0.827 -2.0401  0.9271 -1.4975
  513SOL    HW2 1539   2.664   2.046   0.814 -0.9546 -1.4848 -0.6603
  514SOL     OW 1540   0.649   2.759   0.462 -0.6764 -0.0851 -0.2716
  514SOL    HW1 1541   0.652   2.836   0.397 -2.3663 -0.7996  0.1463
  514SOL    HW2 1542   0.697   2.780   0.551  0.1221 -1.2539  1.0974
  515SOL     OW 1543   1.950   1.291   2.354  0.4626  0.0311  0.1372
  515SOL    HW1 1544   1.921   1.219   2.282 -2.8456 -1.4555  1.1144
  515SOL    HW2 1545   1.907   1.264   2.446 -0.2852 -1.6424 -1.0076
  516SOL     OW 1546   0.266   0.254   1.916  0.0637 -0.6573 -0.0812
  516SOL    HW1 1547   0.340   0.189   1.906 -0.6334  1.7410  1.0237
  516SOL    HW2 1548   0.168   0.213   1.900 -1.6646  0.2227  0.7218
  517SOL     OW 1549   0.486   0.016   1.172 -0.0245  0.0166 -0.0958
  517SOL    HW1 1550   0.508   0.114   1.213  1.2068 -1.2775  2.4520
  517SOL    HW2 1551   0.387  -0.012   1.156  0.8647 -1.9653  1.8988
  518SOL     OW 1552   2.163   3.050   1.830 -0.1924 -0.6892 -0.1472
  518SOL    HW1 1553   2.228   3.134   1.845  0.4107  1.9769 -2.0685
  518SOL    HW2 1554   2.171   3.020   1.729  0.2231  2.7508  0.3793
  519SOL     OW 1555   2.362   2.148   2.453  0.4100  0.4751  0.2951
  519SOL    HW1 1556   2.308   2.127   2.542 -0.8766 -1.2196 -1.9459
  519SOL    HW2 1557   2.367   2.249   2.427  0.1371  1.6514 -1.0758
  520SOL     OW 1558   1.840   2.698   1.757  0.2477  0.7582 -0.0818
  520SOL    HW1 1559   1.765   2.632   1.785  1.8686  1.3145 -0.7573
  520SOL    HW2 1560   1.905   2.662   1.688 -1.5444  0.9241 -0.7439
  521SOL     OW 1561   0.584   3.066   2.098 -0.1223  0.0571 -0.1165
  521SOL    HW1 1562   0.482   3.054   2.115  0.3101  1.1640 -2.0284
  521SOL    HW2 1563   0.632   3.059   2.191  0.1350 -0.2170  1.2232
  522SOL     OW 1564   0.225   1.846   1.557  0.1813 -0.0881 -1.3046
  522SOL    HW1 1565   0.274   1.903   1.631  0.8547 -1.8470  1.2971
  522SOL    HW2 1566   0.199   1.906   1.478 -1.6051  2.3154  1.3130
  523SOL     OW 1567   2.187   2.955   1.559  0.5433 -0.0921 -0.1676
  523SOL    HW1 1568   2.266   2.897   1.568  1.2664  0.2800  0.0196
  523SOL    HW2 1569   2.122   2.928   1.486 -0.4662  0.8168 -0.2422
  524SOL     OW 1570   0.190   2.768   2.787  0.2887  0.6507 -0.2108
  524SOL    HW1 1571   0.115   2.825   2.831  1.3629  1.1509 -1.3376
  524SOL    HW2 1572   0.282   2.807   2.805  0.0264 -3.0349  2.1328
  525SOL     OW 1573   2.199   1.961   0.392 -0.0223 -0.4076 -0.1341
  525SOL    HW1 1574   2.211   1.892   0.463 -2.1651 -0.9423  0.3580
  525SOL    HW2 1575   2.211   1.920   0.296  0.1266  1.7486 -0.6824
  526SOL     OW 1576   0.499   1.518   1.656  0.0566  0.0620 -0.4543
  526SOL    HW1 1577   0.513   1.543   1.759 -1.9320 -0.7917  4.0360
  526SOL    HW2 1578   0.506   1.415   1.631  0.3492  1.1985 -1.5788
  527SOL     OW 1579   1.033   2.865   1.154 -0.9443 -0.4177 -0.0337
  527SOL    HW1 1580   1.089   2.791   1.197  1.9843  0.2618  0.7108
  527SOL    HW2 1581   1.065   2.961   1.177  0.7107 -1.5829  1.9034
  528SOL     OW 1582   1.333   2.357   0.535  0.0323  0.3614  0.7587
  528SOL    HW1 1583   1.347   2.256   0.533  0.8241  2.0113 -0.4612
  528SOL    HW2 1584   1.409   2.407   0.590  3.5998  1.4683 -0.9674
  529SOL     OW 1585   1.947   1.777   0.683  0.2164 -0.4929 -0.4972
  529SOL    HW1 1586   1.869   1.771   0.612  0.3365 -0.3304 -0.1033
  529SOL    HW2 1587   1.972   1.870   0.725  2.7739  0.4968  0.5679
  530SOL     OW 1588   0.384   2.596   0.208 -0.6254 -0.0263 -0.1463
  530SOL    HW1 1589   0.372   2.665   0.286 -4.0807  1.4630 -0.9093
  530SOL    HW2 1590   0.431   2.510   0.227 -0.3118 -1.0404  1.7129
  531SOL     OW 1591   1.881   1.021   1.017 -0.1162 -0.0931  0.2543
  531SOL    HW1 1592   1.807   1.076   0.980 -0.5732 -1.6131 -0.7777
  531SOL    HW2 1593   1.858   0.923   1.004 -1.7805  1.9540  0.2545
  532SOL     OW 1594   0.371   1.143   0.691 -0.2221 -0.0444  0.0663
  532SOL    HW1 1595   0.396   1.122   0.594 -0.3995 -2.0852  0.0847
  532SOL    HW2 1596   0.331   1.061   0.735 -2.6110 -0.8574  0.5182
  533SOL     OW 1597   1.748   0.021   2.577 -0.1774  1.0701  0.3024
  533SOL    HW1 1598   1.850  -0.011   2.575  2.2007  0.2875  0.8867
  533SOL    HW2 1599   1.733   0.106   2.641  2.1494  0.7296  0.5169
  534SOL     OW 1600   0.285   0.180   1.477  0.6699 -0.1150  0.5500
  534SOL    HW1 1601   0.360   0.196   1.411 -0.8956 -0.7504  1.6475
  534SOL    HW2 1602   0.237   0.263   1.513  0.9396 -0.1339  2.0905
  535SOL     OW 1603   1.893   0.412   0.204  0.2381  0.6919  0.6043
  535SOL    HW1 1604   1.949   0.451   0.280  0.7423  0.3311 -0.5813
  535SOL    HW2 1605   1.812   0.357   0.245 -1.2643 -1.3901 -2.3943
  536SOL     OW 1606   1.430   2.575   0.940 -0.0910  0.1805 -0.1067
  536SOL    HW1 1607   1.403   2.545   1.037 -0.6684  0.5120  0.5387
  536SOL    HW2 1608   1.337   2.592   0.887 -3.8177 -1.3457 -1.9296
  537SOL     OW 1609   0.810   0.153   2.340  0.0930 -0.0585 -0.0498
  537SOL    HW1 1610   0.841   0.200   2.251 -0.3730  0.1922  0.6410
  537SOL    HW2 1611   0.717   0.109   2.328  1.4660 -0.6225  0.8646
  538SOL     OW 1612   1.670   2.299   1.520  0.2061  0.3752  1.0213
  538SOL    HW1 1613   1.629   2.208   1.490  1.2312  0.1415 -0.8132
  538SOL    HW2 1614   1.756   2.329   1.466 -1.8639 -0.4735 -2.3037
  539SOL     OW 1615   0.177   1.638   2.730 -0.2082 -0.8279 -0.0380
  539SOL    HW1 1616   0.123   1.620   2.644  1.3651  0.2888  2.1871
  539SOL    HW2 1617   0.116   1.678   2.798  1.1247  0.0622 -2.2856
  540SOL     OW 1618   2.715   1.711   1.989  0.3461  0.5061  0.1415
  540SOL    HW1 1619   2.641   1.642   1.986  0.9380 -1.1734 -2.7949
  540SOL    HW2 1620   2.677   1.806   1.974 -0.0278 -0.1253  0.0075
  541SOL     OW 1621   0.494   2.297   3.026  0.4969 -0.3397  0.2511
  541SOL    HW1 1622   0.532   2.256   3.113 -0.0336 -0.8329 -3.8219
  541SOL    HW2 1623   0.390   2.326   3.025 -0.9772 -3.0775 -0.3441
  542SOL     OW 1624   2.269   2.564   0.403 -0.1919  0.1062 -0.4100
  542SOL    HW1 1625   2.259   2.667   0.410  0.8610 -1.3790  0.9548
  542SOL    HW2 1626   2.185   2.514   0.441  1.2585 -0.8232 -1.4457
  543SOL     OW 1627   1.068   1.711   1.653  0.4093  0.4714 -0.0296
  543SOL    HW1 1628   1.037   1.737   1.749  1.2063  1.1829  0.0327
  543SOL    HW2 1629   1.068   1.797   1.591  2.1010  1.1638 -2.7113
  544SOL     OW 1630   0.974   0.403   0.214  0.0227  0.2133  0.1113
  544SOL    HW1 1631   1.040   0.321   0.231  1.4930 -1.3599 -1.0227
  544SOL    HW2 1632   0.969   0.432   0.111  1.6298 -0.2544 -0.8009
  545SOL     OW 1633   1.100   1.758   0.795 -0.2528  0.1305  0.9864
  545SOL    HW1 1634   1.187   1.810   0.784  0.6693 -1.2028  0.9236
  545SOL    HW2 1635   1.090   1.730   0.891  2.1272  0.2243  1.8564
  546SOL     OW 1636   2.627   1.582   3.097  0.0360  0.3337  0.4689
  546SOL    HW1 1637   2.570   1.585   3.012  1.8313 -0.9047  4.1122
  546SOL    HW2 1638   2.574   1.568   3.182 -1.9821  2.7014  0.6218
  547SOL     OW 1639   0.555   0.026   2.652  0.4345 -0.1216  0.1644
  547SOL    HW1 1640   0.641  -0.020   2.649 -1.1755  0.1011 -2.6321
  547SOL    HW2 1641   0.490  -0.013   2.583  0.8707 -0.0160  2.8818
  548SOL     OW 1642   2.059   0.847   3.045  0.5696  0.1544  0.4557
  548SOL    HW1 1643   1.962   0.815   3.008  0.1930  2.5487  0.1689
  548SOL    HW2 1644   2.064   0.948   3.067 -0.7146  1.1126  0.1934
  549SOL     OW 1645   0.683   0.545   0.201  0.8859 -0.5625  0.0468
  549SOL    HW1 1646   0.639   0.590   0.116 -1.3768 -0.9451 -0.0681
  549SOL    HW2 1647   0.781   0.559   0.218  0.9404 -0.0376  0.4047
  550SOL     OW 1648   2.516   2.854   2.885 -0.5972  0.4568 -0.1524
  550SOL    HW1 1649   2.488   2.805   2.969  1.0382 -0.5659  0.4185
  550SOL    HW2 1650   2.547   2.789   2.807 -1.4930 -1.5712 -1.5008
  551SOL     OW 1651   0.279   0.854   0.224  0.1179  0.0434  0.3801
  551SOL    HW1 1652   0.374   0.893   0.216 -1.2058  0.7043 -0.7205
  551SOL    HW2 1653   0.237   0.848   0.321  0.3133  2.7083 -1.6655
  552SOL     OW 1654   0.686   2.961   1.845 -0.1468  0.5538 -0.0341
  552SOL    HW1 1655   0.661   2.983   1.943  1.2451 -0.4153 -2.8330
  552SOL    HW2 1656   0.774   2.998   1.801 -0.2455  1.3963 -2.9435
  553SOL     OW 1657   3.048   2.573   0.353 -0.6267 -0.1886 -0.0971
  553SOL    HW1 1658   3.013   2.476   0.351  0.4121  1.6475 -1.2690
  553SOL    HW2 1659   3.017   2.628   0.436  0.9299  0.4566 -0.1032
  554SOL     OW 1660   2.147   0.358   0.564 -0.7822  0.0024  0.3339
  554SOL    HW1 1661   2.235   0.343   0.508  0.0672  2.7166 -1.3309
  554SOL    HW2 1662   2.133   0.281   0.636  0.1037  0.6443  3.1504
  555SOL     OW 1663   0.414   2.916   2.499 -0.5103 -1.0658 -0.0278
  555SOL    HW1 1664   0.326   2.948   2.455  0.4513  2.2839  0.1441
  555SOL    HW2 1665   0.445   2.821   2.460  0.5793 -2.5376  0.2263
  556SOL     OW 1666   0.789   2.387   1.568 -0.4452 -0.1961 -0.0737
  556SOL    HW1 1667   0.829   2.465   1.622 -1.1967 -0.0265 -1.5533
  556SOL    HW2 1668   0.838   2.371   1.476 -0.2413  0.8551 -0.3567
  557SOL     OW 1669   0.088   2.070   0.151 -0.1073 -0.1511 -0.5608
  557SOL    HW1 1670   0.043   1.997   0.088  1.0104 -0.2279  0.3578
  557SOL    HW2 1671   0.139   2.146   0.102  1.4625 -1.9270  0.6981
  558SOL     OW 1672   2.938   2.318   0.280 -0.1185 -0.2334 -0.0552
  558SOL    HW1 1673   2.839   2.343   0.281  0.9687 -0.3409 -2.3163
  558SOL    HW2 1674   2.978   2.322   0.184  1.1357 -1.2257 -0.0903
  559SOL     OW 1675   0.361   2.303   1.348 -0.2243  0.0464  0.2136
  559SOL    HW1 1676   0.267   2.302   1.308  3.8129 -0.8746 -0.3487
  559SOL    HW2 1677   0.423   2.229   1.314 -0.0713 -0.8160  0.4467
  560SOL     OW 1678   2.091   1.126   3.082  0.3347 -0.2334  0.1647
  560SOL    HW1 1679   2.023   1.146   3.158  1.3057  1.1991  0.8184
  560SOL    HW2 1680   2.156   1.202   3.058 -0.6909  0.2455 -2.0255
  561SOL     OW 1681   3.013   1.882   0.022  0.4640 -0.0210 -0.2201
  561SOL    HW1 1682   2.976   1.849   0.115 -0.4894 -0.7517  0.0241
  561SOL    HW2 1683   2.945   1.952  -0.026 -0.4086 -0.8370 -1.1678
  562SOL     OW 1684   0.988   2.249   2.359  0.6010  0.5044  0.2053
  562SOL    HW1 1685   0.905   2.209   2.408  1.8390  0.7475 -2.2082
  562SOL    HW2 1686   1.007   2.346   2.396  2.5427  4.6151  1.2115
  563SOL     OW 1687   0.717   2.537   2.566  0.1837  0.3853 -0.1770
  563SOL    HW1 1688   0.780   2.465   2.599  0.2290 -0.6668 -0.2304
  563SOL    HW2 1689   0.694   2.607   2.639  2.6888  0.6853 -1.0078
  564SOL     OW 1690   2.769   1.309   2.950 -0.0864  0.0071  0.0759
  564SOL    HW1 1691   2.715   1.315   3.039  0.1944  0.2687  1.7350
  564SOL    HW2 1692   2.768   1.397   2.895 -1.0651 -0.4989  1.3819
  565SOL     OW 1693   2.576   1.930   2.604 -0.0364 -0.3405  0.3125
  565SOL    HW1 1694   2.533   1.992   2.534  1.5410 -0.7877 -0.7720
  565SOL    HW2 1695   2.641   1.981   2.670 -1.9997  0.4858  1.5870
  566SOL     OW 1696   1.948   2.857   1.368 -0.5418 -0.1777 -0.6718
  566SOL    HW1 1697   1.935   2.756   1.345 -1.1047  0.2072 -0.1602
  566SOL    HW2 1698   1.901   2.914   1.296 -1.6186  2.4230 -2.4113
  567SOL     OW 1699   2.497   0.035   2.268  0.0438  0.2313  0.3663
  567SOL    HW1 1700   2.597   0.030   2.272 -0.2480  0.4060  4.2392
  567SOL    HW2 1701   2.451   0.003   2.178  3.2744  1.5719 -1.1391
  568SOL     OW 1702   1.556   1.782   0.283 -0.0721  0.4987  0.4608
  568SOL    HW1 1703   1.490   1.850   0.239  0.0636 -0.0356  2.1601
  568SOL    HW2 1704   1.648   1.786   0.241 -0.9885 -1.3703 -1.9451
  569SOL     OW 1705   0.271   0.691   0.787 -0.5304  0.2376 -0.4741
  569SOL    HW1 1706   0.345   0.626   0.751 -1.9328  2.3251  0.2934
  569SOL    HW2 1707   0.177   0.645   0.806  0.8106 -0.0205 -3.0700
  570SOL     OW 1708   0.611   0.805   2.841 -0.0645  0.2477 -0.1559
  570SOL    HW1 1709   0.687   0.783   2.771 -0.4733  0.8948  1.3652
  570SOL    HW2 1710   0.618   0.889   2.901 -2.7833 -1.6202  2.3732
  571SOL     OW 1711   0.791   3.090   1.045  0.7383  0.5140 -0.2737
  571SOL    HW1 1712   0.857   3.081   0.966 -0.5725  1.4547 -0.1836
  571SOL    HW2 1713   0.719   3.013   1.042 -2.5322  1.0641 -0.7616
  572SOL     OW 1714   1.582   2.619   1.251 -0.1205 -0.0330  0.4922
  572SOL    HW1 1715   1.496   2.561   1.229 -2.9206 -1.5726  0.3844
  572SOL    HW2 1716   1.576   2.719   1.218 -0.8757  0.1938 -0.2192
  573SOL     OW 1717   2.875   0.463   2.028 -0.7149  0.7359  0.2431
  573SOL    HW1 1718   2.847   0.363   2.032 -0.8929 -0.8228  1.8876
  573SOL    HW2 1719   2.793   0.528   2.011 -1.1704 -0.1058 -0.7090
  574SOL     OW 1720   0.191   1.724   1.001 -0.0197 -0.4860 -0.1785
  574SOL    HW1 1721   0.181   1.825   0.982 -0.6479 -0.4127 -0.3554
  574SOL    HW2 1722   0.116   1.685   1.061  0.6202  0.5995  2.0373
  575SOL     OW 1723   0.939   2.155   0.969 -0.3266  0.2719 -0.0110
  575SOL    HW1 1724   0.876   2.169   1.053 -3.4440  1.0214 -0.6964
  575SOL    HW2 1725   0.954   2.245   0.914  1.1173 -0.2276 -0.7047
  576SOL     OW 1726   2.891   2.986   1.677  0.4592  0.5576  0.4333
  576SOL    HW1 1727   2.802   2.966   1.625  2.3043 -0.6763  0.4008
  576SOL    HW2 1728   2.913   3.087   1.688  0.1896 -1.6829 -0.9787
  577SOL     OW 1729   2.512   1.233   0.041 -0.3770  0.1058  0.0668
  577SOL    HW1 1730   2.543   1.161  -0.025  1.4726  1.0553  0.7731
  577SOL    HW2 1731   2.585   1.239   0.119  1.7388 -1.7848 -0.0921
  578SOL     OW 1732   1.331   2.745   2.500  0.3952 -0.2910 -0.3182
  578SOL    HW1 1733   1.231   2.771   2.515 -0.6435  0.4801 -1.1147
  578SOL    HW2 1734   1.395   2.828   2.509 -1.9265  2.3903 -0.5461
  579SOL     OW 1735   0.082   2.503   0.133 -0.1645 -0.0765  0.0511
  579SOL    HW1 1736   0.033   2.532   0.221 -1.5959  3.3236 -0.1447
  579SOL    HW2 1737   0.176   2.472   0.148  0.1869  0.0186  1.3521
  580SOL     OW 1738   1.031   2.628   0.425 -0.5708 -0.1850 -0.0208
  580SOL    HW1 1739   1.112   2.628   0.362 -2.4567 -0.3901  2.3401
  580SOL    HW2 1740   0.942   2.583   0.381 -3.6324 -1.0996 -1.4325
  581SOL     OW 1741   1.284   2.573   1.517  0.2874 -0.4198 -0.0102
  581SOL    HW1 1742   1.317   2.477   1.527  1.3915 -1.5216  1.1774
  581SOL    HW2 1743   1.348   2.632   1.462 -2.1708  1.5072 -1.4710
  582SOL     OW 1744   1.491   0.085   1.861 -0.1301 -0.1623  0.4695
  582SOL    HW1 1745   1.506   0.161   1.927  0.9345 -2.0505 -0.0195
  582SOL    HW2 1746   1.577   0.077   1.801  1.0170  0.4450  2.1819
  583SOL     OW 1747   2.506   3.049   0.500  0.0747  0.5481 -0.3461
  583SOL    HW1 1748   2.587   3.008   0.458 -1.7165  0.1740  1.9959
  583SOL    HW2 1749   2.459   2.976   0.559 -0.6837 -2.2374  0.2963
  584SOL     OW 1750   1.626   0.930   2.096 -0.4889  0.0164 -0.1679
  584SOL    HW1 1751   1.698   0.939   2.025  0.9553 -4.6330 -0.0686
  584SOL    HW2 1752   1.658   0.891   2.188 -0.3196  0.5683  0.5561
  585SOL     OW 1753   2.090   2.655   2.922  0.1049  0.0064 -0.4476
  585SOL    HW1 1754   2.131   2.557   2.908 -2.4314  0.1493 -1.8438
  585SOL    HW2 1755   1.990   2.667   2.908 -0.3714  0.8724  0.5798
  586SOL     OW 1756   2.799   0.307   1.551  0.5290  0.8127 -0.4409
  586SOL    HW1 1757   2.821   0.383   1.615  3.7871  0.8851  0.8442
  586SOL    HW2 1758   2.709   0.259   1.572  0.0606 -0.0760 -0.4116
  587SOL     OW 1759   1.961   1.525   2.733  0.3644  0.2451 -0.4760
  587SOL    HW1 1760   2.013   1.472   2.665 -0.4752  2.7473  1.9896
  587SOL    HW2 1761   2.015   1.545   2.818  0.3041 -1.9285  0.2349
  588SOL     OW 1762   0.463   2.728   2.243 -0.2821 -0.4027 -0.1117
  588SOL    HW1 1763   0.365   2.715   2.218 -0.1728 -0.5872  0.0893
  588SOL    HW2 1764   0.502   2.651   2.304  1.7188 -1.6661  0.6859
  589SOL     OW 1765   2.122   1.407   2.548  0.3366  0.0675 -0.4500
  589SOL    HW1 1766   2.062   1.373   2.470  0.2889 -1.3238  0.4698
  589SOL    HW2 1767   2.215   1.368   2.548 -1.2366  0.0777 -0.7669
  590SOL     OW 1768   2.335   1.656   2.043  0.3632 -0.1018 -0.0483
  590SOL    HW1 1769   2.416   1.597   2.015 -1.5287 -2.2694 -0.3736
  590SOL    HW2 1770   2.342   1.707   2.133 -1.0576  0.0601  0.9144
  591SOL     OW 1771   1.327   2.409   0.256 -0.2328  0.1173 -0.0869
  591SOL    HW1 1772   1.379   2.335   0.208  0.6491  1.8868  0.0827
  591SOL    HW2 1773   1.326   2.394   0.359  0.6566 -0.6876 -0.3412
  592SOL     OW 1774   1.793   2.316   0.765  0.2662  0.0792 -0.7403
  592SOL    HW1 1775   1.767   2.377   0.687  2.8460 -0.6277 -1.1850
  592SOL    HW2 1776   1.896   2.293   0.765  1.6898 -1.0268  0.9765
  593SOL     OW 1777   0.700   0.269   0.208 -0.0124 -0.4234  0.9202
  593SOL    HW1 1778   0.749   0.231   0.126  2.1624  1.2843  0.6097
  593SOL    HW2 1779   0.701   0.376   0.211 -0.8058  1.9117 -0.0375
  594SOL     OW 1780   0.936   1.864   2.708  0.2378  0.4153 -0.2300
  594SOL    HW1 1781   1.042   1.862   2.714  0.5814 -0.2291 -1.2174
  594SOL    HW2 1782   0.894   1.949   2.753  0.2054  4.3367 -0.6476
  595SOL     OW 1783   1.562   0.060   1.078  0.4647 -0.1212  0.9889
  595SOL    HW1 1784   1.642   0.014   1.028  1.5580 -1.4622 -0.2110
  595SOL    HW2 1785   1.472   0.051   1.026  1.5719  1.2804  0.5678
  596SOL     OW 1786   0.012   1.442   2.219 -0.0997 -0.6901 -0.1480
  596SOL    HW1 1787  -0.031   1.349   2.216  1.0918 -1.1844  0.3050
  596SOL    HW2 1788   0.047   1.476   2.314  0.4297  1.8584  2.5434
  597SOL     OW 1789   2.023   2.541   1.618 -0.1230 -0.5374 -0.3035
  597SOL    HW1 1790   2.029   2.466   1.544 -2.6136  2.2785  1.1293
  597SOL    HW2 1791   2.103   2.554   1.680 -2.7465  0.8485 -2.3768
  598SOL     OW 1792   2.515   2.980   1.311 -0.0580 -0.0724 -0.2909
  598SOL    HW1 1793   2.607   3.008   1.349 -2.0025  0.4508 -0.1511
  598SOL    HW2 1794   2.528   2.916   1.228  0.3235  0.9417 -1.0340
  599SOL     OW 1795   2.958   0.366   2.510 -0.2818 -0.7416  0.5131
  599SOL    HW1 1796   3.055   0.407   2.495  0.1451  1.5353  1.7020
  599SOL    HW2 1797   2.884   0.418   2.456  0.2170  1.1774 -2.9830
  600SOL     OW 1798   2.768   1.114   2.711  0.4077  0.1143  0.5054
  600SOL    HW1 1799   2.758   1.010   2.735  0.6468 -1.3524  0.3171
  600SOL    HW2 1800   2.727   1.181   2.784  0.0555  0.1642  1.2692
  601SOL     OW 1801   2.977   1.278   1.947  0.6468 -0.0909  0.3096
  601SOL    HW1 1802   2.906   1.311   1.875  0.3533  0.1399  1.5813
  601SOL    HW2 1803   3.046   1.353   1.966 -0.7498 -3.6349  2.7875
  602SOL     OW 1804   1.428   1.709   2.367 -0.0159  0.1848  0.2467
  602SOL    HW1 1805   1.391   1.617   2.353  0.9189  0.7509  1.0853
  602SOL    HW2 1806   1.532   1.711   2.375 -0.3960  0.1590 -2.6575
  603SOL     OW 1807   0.583   1.215   2.762  0.0623 -0.3144 -0.2158
  603SOL    HW1 1808   0.497   1.199   2.703  0.4043  1.8724  0.3402
  603SOL    HW2 1809   0.667   1.160   2.725 -1.4096 -0.4943 -0.3026
  604SOL     OW 1810   2.386   1.008   0.143  0.3495 -0.0774 -0.0204
  604SOL    HW1 1811   2.392   1.100   0.088 -0.4031 -0.4271  0.1013
  604SOL    HW2 1812   2.375   0.929   0.076 -2.0969 -0.3943 -3.0287
  605SOL     OW 1813   2.543   1.169   1.903 -0.5659 -0.3132  0.6146
  605SOL    HW1 1814   2.564   1.075   1.876  1.2295  3.8064 -2.0496
  605SOL    HW2 1815   2.597   1.205   1.983  3.8162 -0.0436 -0.4805
  606SOL     OW 1816   1.460   2.529   2.595  0.1684  0.0179 -0.3715
  606SOL    HW1 1817   1.399   2.589   2.539 -1.2683 -2.3974 -1.6804
  606SOL    HW2 1818   1.446   2.427   2.572  0.2168  0.8551 -0.9488
  607SOL     OW 1819   1.357   1.610   0.389 -0.4601 -0.0285 -0.3505
  607SOL    HW1 1820   1.269   1.663   0.415 -0.4927  2.1621  0.0589
  607SOL    HW2 1821   1.428   1.678   0.360 -1.2103 -0.4244  1.8235
  608SOL     OW 1822   1.444   2.865   0.332 -0.1060  0.6053 -0.3269
  608SOL    HW1 1823   1.530   2.893   0.278  1.2623  0.1092  0.5092
  608SOL    HW2 1824   1.400   2.939   0.389 -0.6621  1.1957 -2.0972
  609SOL     OW 1825   1.332   1.391   0.237 -0.4315 -0.3227 -1.2297
  609SOL    HW1 1826   1.332   1.476   0.293 -2.2585 -0.4306 -2.0189
  609SOL    HW2 1827   1.274   1.406   0.154 -0.5702  0.1316  2.9822
  610SOL     OW 1828   3.033   1.127   2.179 -0.0783  0.1243  0.2983
  610SOL    HW1 1829   3.022   1.025   2.164 -0.4546  0.2794  1.1705
  610SOL    HW2 1830   2.967   1.180   2.121 -0.4684 -2.1644  2.8765
  611SOL     OW 1831   2.564   0.280   1.111 -0.3330  0.2559  0.0483
  611SOL    HW1 1832   2.482   0.229   1.151 -1.5150  0.6779 -0.2551
  611SOL    HW2 1833   2.652   0.270   1.168 -0.1703 -1.2386  0.3757
  612SOL     OW 1834   0.764   2.244   1.167 -0.2519  0.3715 -0.4197
  612SOL    HW1 1835   0.672   2.205   1.211 -2.1443 -1.4679 -0.4034
  612SOL    HW2 1836   0.753   2.338   1.125 -1.1668  0.7419 -3.2309
  613SOL     OW 1837   0.813   1.371   2.449  0.6514 -0.3963  0.2173
  613SOL    HW1 1838   0.786   1.434   2.374  0.1698 -0.4233  2.2308
  613SOL    HW2 1839   0.812   1.273   2.421  1.3913  2.0101  0.3930
  614SOL     OW 1840   1.596   1.643   1.982 -0.0195  0.3088  0.0206
  614SOL    HW1 1841   1.548   1.734   1.999  1.8228  0.7852  0.8023
  614SOL    HW2 1842   1.690   1.635   2.028 -0.4955  1.4476  0.5045
  615SOL     OW 1843   0.760   1.307   1.708  0.4399 -0.0913  0.4025
  615SOL    HW1 1844   0.690   1.261   1.646 -0.8977  1.1618 -3.8591
  615SOL    HW2 1845   0.817   1.378   1.662 -1.8876  0.7559  0.7472
  616SOL     OW 1846   1.056   1.669   2.232 -0.0528 -0.0555 -0.5086
  616SOL    HW1 1847   0.963   1.621   2.254 -3.4492  0.5152 -2.3144
  616SOL    HW2 1848   1.048   1.775   2.226 -0.8178  1.1875 -1.7221
  617SOL     OW 1849   2.948   1.581   1.611 -0.0160  0.0348  0.2908
  617SOL    HW1 1850   2.943   1.494   1.666 -0.8958  2.7294 -0.6290
  617SOL    HW2 1851   2.997   1.561   1.520  3.6752 -0.0435 -0.7009
  618SOL     OW 1852   1.879   1.979   1.386 -0.2401 -0.4262  0.2972
  618SOL    HW1 1853   1.945   1.996   1.307  2.3363  0.7425 -0.8283
  618SOL    HW2 1854   1.864   1.881   1.410 -0.4403 -0.2941 -0.3097
  619SOL     OW 1855   1.783   0.437   2.368 -0.0107  0.0482 -0.1437
  619SOL    HW1 1856   1.699   0.492   2.330 -2.5997  0.0331 -0.1747
  619SOL    HW2 1857   1.744   0.351   2.414 -1.6019 -1.1937 -1.4896
  620SOL     OW 1858   2.301   2.914   0.640 -0.8644  0.7448 -0.5277
  620SOL    HW1 1859   2.254   2.998   0.663  1.8467 -0.2715 -2.1224
  620SOL    HW2 1860   2.323   2.853   0.726  1.6968 -0.7872  2.3744
  621SOL     OW 1861   2.161   1.837   1.282 -0.1733 -0.1356  0.3549
  621SOL    HW1 1862   2.175   1.839   1.380 -1.6889  2.5244 -1.9260
  621SOL    HW2 1863   2.090   1.764   1.252  1.7755 -1.4518  1.9837
  622SOL     OW 1864   2.277   0.920   1.764 -0.0957  0.5360  0.3104
  622SOL    HW1 1865   2.376   0.927   1.726 -1.9611  0.3167  0.9909
  622SOL    HW2 1866   2.253   0.829   1.806  1.2838 -0.5086 -1.2033
  623SOL     OW 1867   1.333   0.824   2.638 -0.2011 -0.1590  0.6203
  623SOL    HW1 1868   1.331   0.740   2.698 -0.3143  0.8931  0.1135
  623SOL    HW2 1869   1.272   0.826   2.552  1.4136 -0.3415  0.0839
  624SOL     OW 1870   0.572   0.701   3.090  0.0960 -0.5889 -0.0371
  624SOL    HW1 1871   0.589   0.727   2.989  0.2388 -0.6291 -2.7732
  624SOL    HW2 1872   0.575   0.781   3.157 -0.9291 -0.3081 -3.2873
  625SOL     OW 1873   2.807   1.723   1.011 -0.1861 -0.4144 -1.1808
  625SOL    HW1 1874   2.715   1.762   0.988 -0.5063  1.0453 -0.0955
  625SOL    HW2 1875   2.869   1.787   1.067 -0.3234 -1.9330 -1.4705
  626SOL     OW 1876   0.597   2.755   1.712  0.1265  0.0487  0.1603
  626SOL    HW1 1877   0.619   2.838   1.772  2.9846  0.3801  1.1057
  626SOL    HW2 1878   0.502   2.718   1.736 -0.7114  0.2930  1.5132
  627SOL     OW 1879   0.768   0.948   1.493  0.5311  0.3879  0.5996
  627SOL    HW1 1880   0.747   0.887   1.412  1.0860 -1.4307  0.2592
  627SOL    HW2 1881   0.794   1.046   1.461 -0.4050  0.7052  0.9176
  628SOL     OW 1882   2.430   0.144   0.685 -1.0597  0.6088  0.3357
  628SOL    HW1 1883   2.467   0.066   0.626 -0.4645 -1.6158  2.1098
  628SOL    HW2 1884   2.335   0.133   0.716  2.8841 -3.7528 -1.6077
  629SOL     OW 1885   1.983   0.924   1.971  0.0801 -0.4675  0.0670
  629SOL    HW1 1886   2.022   0.956   1.880 -0.5087  1.5125 -2.4605
  629SOL    HW2 1887   1.963   1.005   2.032 -1.1563  1.0401 -1.9121
  630SOL     OW 1888   2.904   2.216   0.835 -0.5780 -0.2712 -0.2186
  630SOL    HW1 1889   2.830   2.284   0.855  0.9321  0.6283  3.0040
  630SOL    HW2 1890   2.871   2.133   0.784  0.5070 -2.0150  1.5853
  631SOL     OW 1891   3.008   0.163   2.122 -0.5486  0.2910  0.0697
  631SOL    HW1 1892   3.072   0.185   2.202  1.4292  0.9006  1.1275
  631SOL    HW2 1893   3.054   0.163   2.028 -0.7236  3.0832  2.6500
  632SOL     OW 1894   2.386   2.540   0.643 -0.1483  0.0321  0.2005
  632SOL    HW1 1895   2.351   2.622   0.690 -2.9883 -3.0103 -1.7789
  632SOL    HW2 1896   2.368   2.546   0.541 -0.3025  0.5537  1.3688
  633SOL     OW 1897   1.407   1.211   2.628  0.0140  0.2967 -0.9527
  633SOL    HW1 1898   1.431   1.305   2.665 -1.3050  0.9731 -2.8992
  633SOL    HW2 1899   1.364   1.222   2.533 -1.8173  1.7343 -2.8045
  634SOL     OW 1900   0.726   2.031   0.866  0.2051 -0.0784  0.4528
  634SOL    HW1 1901   0.643   2.062   0.920 -0.3615  1.9471 -1.1736
  634SOL    HW2 1902   0.814   2.081   0.897  1.4079  2.1604 -1.2788
  635SOL     OW 1903   2.984   2.360   0.002  0.2121 -0.0704 -0.1157
  635SOL    HW1 1904   2.909   2.425  -0.025  0.9283 -0.0256  0.3587
  635SOL    HW2 1905   3.068   2.410   0.036  1.4948  1.7977 -0.9513
  636SOL     OW 1906   2.296   2.736   2.046 -0.0955  0.1024  0.2942
  636SOL    HW1 1907   2.297   2.837   2.044 -0.1097 -1.5302 -0.7785
  636SOL    HW2 1908   2.256   2.690   2.136 -2.4598 -1.4936  0.7247
  637SOL     OW 1909   2.669   0.632   1.982  0.2891 -0.1062  0.9178
  637SOL    HW1 1910   2.584   0.633   1.927  0.3897 -0.9846 -1.4797
  637SOL    HW2 1911   2.705   0.731   1.999  0.7620  1.0998  0.6584
  638SOL     OW 1912   2.456   1.820   1.254 -0.2863 -0.1583 -0.0599
  638SOL    HW1 1913   2.363   1.806   1.219  1.3001 -1.5198 -1.2526
  638SOL    HW2 1914   2.480   1.752   1.329  0.1339 -0.4730 -2.0691
  639SOL     OW 1915   1.293   2.106   1.708  0.1102  0.9681  0.8268
  639SOL    HW1 1916   1.289   2.141   1.612  0.0566 -1.7593  1.7856
  639SOL    HW2 1917   1.199   2.102   1.753 -0.3067 -0.7410  0.6016
  640SOL     OW 1918   0.171   1.157   1.593  0.4619  0.0663  0.6459
  640SOL    HW1 1919   0.149   1.202   1.682 -2.1780 -0.7619 -1.9829
  640SOL    HW2 1920   0.266   1.118   1.588 -1.3682  1.5091 -1.1924
  641SOL     OW 1921   2.041   0.169   1.560  0.7667 -0.3980 -0.3194
  641SOL    HW1 1922   2.008   0.150   1.658 -0.4764 -0.3367  2.0208
  641SOL    HW2 1923   2.145   0.158   1.556  0.7295  1.2944  1.2006
  642SOL     OW 1924   2.007   3.089   0.346  0.0623  0.5605 -0.3303
  642SOL    HW1 1925   2.081   3.145   0.390 -0.3686  2.2283 -0.5888
  642SOL    HW2 1926   1.957   3.028   0.412 -2.5953  1.1632 -1.1522
  643SOL     OW 1927   2.957   1.838   2.072  0.0180  0.2931 -0.9287
  643SOL    HW1 1928   2.877   1.782   2.038 -0.1263  0.8433  0.2425
  643SOL    HW2 1929   2.954   1.943   2.049  0.4040  0.4874  0.1911
  644SOL     OW 1930   2.212   2.371   1.179  0.1770 -0.0225  0.0686
  644SOL    HW1 1931   2.291   2.309   1.155 -0.8873 -2.3128 -0.2211
  644SOL    HW2 1932   2.184   2.361   1.277  0.3645  0.1531  2.3818
  645SOL     OW 1933   0.614   0.823   1.285 -0.0579 -0.5150 -0.0966
  645SOL    HW1 1934   0.515   0.852   1.315 -0.0263 -1.0443 -0.2230
  645SOL    HW2 1935   0.628   0.821   1.182 -2.7605 -1.9306  2.7528
  646SOL     OW 1936   1.440   1.852   2.072 -0.2461  0.0173 -0.4430
  646SOL    HW1 1937   1.433   1.948   2.032  0.8097 -0.1584 -0.3044
  646SOL    HW2 1938   1.411   1.848   2.171  1.3195  0.2940 -1.2789
  647SOL     OW 1939   0.784   1.073   0.700  0.5930  0.7295 -0.4512
  647SOL    HW1 1940   0.849   1.093   0.776  0.4626 -0.4811 -0.9768
  647SOL    HW2 1941   0.715   1.009   0.728  0.0497  2.6568  0.9456
  648SOL     OW 1942   0.087   0.238   0.243  0.2170 -0.2398 -0.2819
  648SOL    HW1 1943   0.149   0.190   0.178 -1.1122  0.3166 -0.0771
  648SOL    HW2 1944   0.091   0.338   0.222  0.1793  2.5655 -1.2144
  649SOL     OW 1945   3.021   0.255   0.819  0.3879 -0.5683  0.6926
  649SOL    HW1 1946   3.109   0.207   0.852  0.1945  1.1190  0.8254
  649SOL    HW2 1947   2.988   0.323   0.893  1.2721  1.0210 -0.6039
  650SOL     OW 1948   2.789   0.741   1.511  0.2146  0.1419 -0.6208
  650SOL    HW1 1949   2.687   0.711   1.502 -0.0567  0.3474 -1.3309
  650SOL    HW2 1950   2.824   0.785   1.423 -0.3645  0.7789 -0.3561
  651SOL     OW 1951   0.892   1.513   1.571  1.0810 -0.0390  0.4316
  651SOL    HW1 1952   0.948   1.575   1.624 -0.7925  0.1637  0.2442
  651SOL    HW2 1953   0.923   1.521   1.471 -2.3137  1.1415 -0.3241
  652SOL     OW 1954   2.334   2.424   2.477  0.1938 -0.0115  0.5295
  652SOL    HW1 1955   2.232   2.403   2.474 -0.7920 -0.3819 -0.8783
  652SOL    HW2 1956   2.349   2.529   2.462  2.1628  1.1263  1.1845
  653SOL     OW 1957   2.691   1.237   0.239  0.3977 -0.0932  0.0292
  653SOL    HW1 1958   2.706   1.329   0.288  1.2077  0.3133 -4.3376
  653SOL    HW2 1959   2.769   1.171   0.254 -2.1155  2.2407  1.3731
  654SOL     OW 1960   1.237   2.240   1.257  0.2664  0.3178  0.1395
  654SOL    HW1 1961   1.270   2.175   1.331 -0.2029 -2.6354 -1.3828
  654SOL    HW2 1962   1.284   2.228   1.163 -0.7288 -0.2642 -1.3903
  655SOL     OW 1963   0.176   0.944   1.951 -0.0509  0.2152  0.9345
  655SOL    HW1 1964   0.231   0.898   1.877  1.5490  2.0778  0.7962
  655SOL    HW2 1965   0.189   1.049   1.959 -2.1299  0.4286 -0.1603
  656SOL     OW 1966   2.574   2.434   2.620 -0.2816  0.0276  0.3721
  656SOL    HW1 1967   2.671   2.429   2.588 -1.3000 -0.9173 -0.8727
  656SOL    HW2 1968   2.502   2.373   2.566  0.6929 -2.5464  0.2415
  657SOL     OW 1969   3.003   0.995   1.895  0.2244  0.2947 -0.1386
  657SOL    HW1 1970   3.020   1.095   1.909 -0.2530  0.2249  1.4162
  657SOL    HW2 1971   3.097   0.948   1.904 -1.6103  0.5366 -1.3246
  658SOL     OW 1972   1.625   0.171   2.369  0.0260  0.1518 -0.3057
  658SOL    HW1 1973   1.662   0.107   2.441 -0.5716 -2.3252  0.5856
  658SOL    HW2 1974   1.683   0.183   2.285  0.6182  2.8198  1.4842
  659SOL     OW 1975   1.394   0.631   2.836 -0.5434  0.0043  0.1967
  659SOL    HW1 1976   1.445   0.716   2.870  1.2219  2.0615 -0.8259
  659SOL    HW2 1977   1.291   0.625   2.866 -0.8285  0.3421 -1.7058
  660SOL     OW 1978   1.419   0.339   1.394  0.0797  0.4754 -0.3390
  660SOL    HW1 1979   1.462   0.367   1.489  0.5879 -2.3649  0.6112
  660SOL    HW2 1980   1.474   0.256   1.356 -0.1809 -2.2702 -0.8124
  661SOL     OW 1981   2.403   1.187   0.653  0.9661 -0.1438  0.1834
  661SOL    HW1 1982   2.414   1.175   0.548  0.7665 -0.7801  2.7935
  661SOL    HW2 1983   2.357   1.274   0.682 -0.7084 -1.0954 -0.7545
  662SOL     OW 1984   1.409   0.375   1.729 -0.1426  0.2254  0.2820
  662SOL    HW1 1985   1.346   0.300   1.765 -0.0741 -0.3444  1.4162
  662SOL    HW2 1986   1.397   0.467   1.775  1.5459  2.1558 -0.7444
  663SOL     OW 1987   0.789   1.548   2.197 -0.2527 -0.0730  0.3794
  663SOL    HW1 1988   0.719   1.624   2.211  0.7742  2.2590 -0.2958
  663SOL    HW2 1989   0.782   1.484   2.125  0.8446 -0.4595  0.1790
  664SOL     OW 1990   1.614   2.048   1.392 -0.6891  0.1409  0.4091
  664SOL    HW1 1991   1.558   2.005   1.463 -0.7566  1.7010 -0.4574
  664SOL    HW2 1992   1.710   2.002   1.385  1.2431 -0.3932  2.8465
  665SOL     OW 1993   2.241   0.700   1.939 -0.0912 -0.1787 -0.3271
  665SOL    HW1 1994   2.170   0.629   1.920  2.0682 -1.2072 -1.2854
  665SOL    HW2 1995   2.269   0.703   2.041  1.2291  0.8163  3.0947
  666SOL     OW 1996   0.445   2.301   0.339  0.3306 -0.3786  0.4512
  666SOL    HW1 1997   0.489   2.351   0.419 -0.3717  2.1082 -1.0328
  666SOL    HW2 1998   0.341   2.288   0.351 -2.3562 -0.8754 -0.2285
  667SOL     OW 1999   2.071   0.189   1.194 -0.6884  0.2023  0.7131
  667SOL    HW1 2000   2.065   0.287   1.160  3.2014  0.6098  1.0222
  667SOL    HW2 2001   1.982   0.155   1.238 -1.7741 -1.5828 -1.2002
  668SOL     OW 2002   2.055   0.482   1.113 -0.0703 -0.0691  0.3572
  668SOL    HW1 2003   2.124   0.514   1.035  0.1678 -0.5472 -1.1434
  668SOL    HW2 2004   2.093   0.497   1.210 -0.0510  0.9892 -2.2766
  669SOL     OW 2005   3.091   2.110   1.037  0.0644  0.3325  0.5942
  669SOL    HW1 2006   3.038   2.157   0.966 -0.9093 -1.2743  4.5551
  669SOL    HW2 2007   3.138   2.170   1.109 -0.2657 -2.4903 -0.9745
  670SOL     OW 2008   2.864   2.350   2.013  0.1589  0.1570 -0.7710
  670SOL    HW1 2009   2.801   2.317   2.091  2.4497 -1.4313 -1.6641
  670SOL    HW2 2010   2.857   2.448   1.995 -0.1496 -1.5862 -1.3292
  671SOL     OW 2011   1.697   1.775   1.494  0.3124 -0.6779  0.1657
  671SOL    HW1 2012   1.685   1.782   1.392  1.2954 -1.6976 -0.1156
  671SOL    HW2 2013   1.629   1.827   1.549 -2.4374 -1.7030 -0.9620
  672SOL     OW 2014   0.426   0.632   2.379 -0.5090  0.0744  0.7875
  672SOL    HW1 2015   0.473   0.666   2.292  1.8290 -0.0947 -0.5429
  672SOL    HW2 2016   0.340   0.684   2.399  0.6052  0.4392 -2.3569
  673SOL     OW 2017   0.117   1.226   1.123 -0.4361 -0.2008  0.2442
  673SOL    HW1 2018   0.138   1.286   1.203  0.8400 -0.7035 -2.3130
  673SOL    HW2 2019   0.207   1.179   1.093  0.4634 -1.0443 -0.6519
  674SOL     OW 2020   1.712   2.965   0.252 -0.2297 -0.8212 -0.4629
  674SOL    HW1 2021   1.762   3.057   0.243  1.4762  0.5574  0.5806
  674SOL    HW2 2022   1.761   2.877   0.220  0.1683 -0.6262 -0.8821
  675SOL     OW 2023   1.735   0.809   2.330  0.5121  0.0584 -0.3283
  675SOL    HW1 2024   1.837   0.801   2.308 -1.9351 -0.2850 -1.0424
  675SOL    HW2 2025   1.683   0.720   2.344  1.4082 -2.4413  1.0028
  676SOL     OW 2026   2.551   1.480   1.937 -0.7166 -0.2585  0.4787
  676SOL    HW1 2027   2.500   1.440   1.855 -0.6337  0.6450 -1.3063
  676SOL    HW2 2028   2.573   1.407   2.003  0.6772  2.9538 -1.8634
  677SOL     OW 2029   1.862   0.658   0.906 -0.7462 -0.0690  0.1949
  677SOL    HW1 2030   1.777   0.666   0.966  0.7864  1.8850 -0.9669
  677SOL    HW2 2031   1.893   0.556   0.894 -2.4069 -0.5946  0.2861
  678SOL     OW 2032   0.030   0.749   1.657  0.0112 -0.2878  0.2018
  678SOL    HW1 2033   0.130   0.768   1.686  0.3319 -0.2010  2.0747
  678SOL    HW2 2034  -0.037   0.736   1.735 -1.2459  0.8209 -2.8622
  679SOL     OW 2035   2.526   1.216   1.134 -0.0512 -0.4785 -0.8150
  679SOL    HW1 2036   2.431   1.237   1.163  2.1347  0.8075 -0.0381
  679SOL    HW2 2037   2.542   1.117   1.129  2.7577 -1.4870 -1.6623
  680SOL     OW 2038   2.829   0.542   1.703  0.5960  0.4570  0.3081
  680SOL    HW1 2039   2.806   0.621   1.640  0.2020  2.2739  1.2330
  680SOL    HW2 2040   2.874   0.583   1.788 -2.3878  2.5735 -1.4114
  681SOL     OW 2041   3.003   0.157   1.619  0.1983 -0.5488  0.4227
  681SOL    HW1 2042   3.061   0.123   1.538 -0.8100  3.4797 -1.6386
  681SOL    HW2 2043   2.929   0.231   1.584 -2.6420  2.1970 -3.0656
  682SOL     OW 2044   0.802   3.092   1.312  0.5124 -0.0139 -0.1324
  682SOL    HW1 2045   0.714   3.053   1.353 -0.9727 -2.1616 -0.4882
  682SOL    HW2 2046   0.807   3.089   1.205 -2.7754 -2.1477 -2.8504
  683SOL     OW 2047   1.346   0.235   2.153 -0.0336 -0.2908  0.0590
  683SOL    HW1 2048   1.341   0.302   2.234 -2.4455 -0.0958  2.4010
  683SOL    HW2 2049   1.440   0.226   2.110  0.5437 -0.8940 -3.7513
  684SOL     OW 2050   1.482   2.103   0.464  0.2495  0.6122 -0.0504
  684SOL    HW1 2051   1.523   2.024   0.523  0.7750 -2.1708 -1.0473
  684SOL    HW2 2052   1.391   2.080   0.417  0.3764  1.1370 -0.4177
  685SOL     OW 2053   2.175   2.046   1.943 -0.2656 -0.0283  0.0020
  685SOL    HW1 2054   2.237   2.043   1.867 -2.9564 -0.5625  1.1641
  685SOL    HW2 2055   2.213   2.025   2.039 -0.3535  0.0472  1.3123
  686SOL     OW 2056   1.518   1.809   2.717  0.6639 -0.2963 -0.0339
  686SOL    HW1 2057   1.551   1.760   2.803  1.6628  1.2018  1.8799
  686SOL    HW2 2058   1.563   1.776   2.630 -0.0576 -0.6344 -0.9682
  687SOL     OW 2059   1.303   2.479   1.976 -0.2758  0.0197  0.3874
  687SOL    HW1 2060   1.305   2.372   1.975 -1.3678 -0.0587 -0.1081
  687SOL    HW2 2061   1.366   2.513   2.055  1.3350 -0.5812  3.9449
  688SOL     OW 2062   2.049   1.506   1.791  0.5813  0.0309 -0.8422
  688SOL    HW1 2063   2.097   1.598   1.809 -2.9064 -0.5148  0.5995
  688SOL    HW2 2064   2.054   1.466   1.691  1.4891 -0.8984 -1.1751
  689SOL     OW 2065   2.360   1.084   2.767  0.3893  0.1470 -0.1451
  689SOL    HW1 2066   2.279   1.020   2.765  1.0462 -0.4888 -2.0996
  689SOL    HW2 2067   2.432   1.044   2.829  0.9540  0.2316  1.1856
  690SOL     OW 2068   2.227   2.787   0.076  0.2097  0.3574 -0.4457
  690SOL    HW1 2069   2.167   2.749   0.001 -1.4956  0.6464  2.3415
  690SOL    HW2 2070   2.204   2.755   0.176  0.4804 -0.5821 -0.7805
  691SOL     OW 2071   2.599   0.451   2.193  0.3254  0.7826  0.5486
  691SOL    HW1 2072   2.646   0.364   2.171 -1.0560 -2.8672 -2.3930
  691SOL    HW2 2073   2.605   0.528   2.122  2.0470  0.9389 -0.8918
  692SOL     OW 2074   2.727   1.246   0.736 -0.2115 -0.0475  0.2854
  692SOL    HW1 2075   2.642   1.252   0.684  0.9400  0.1104  0.5310
  692SOL    HW2 2076   2.757   1.339   0.776  0.8940  1.4646 -0.0646
  693SOL     OW 2077   2.874   2.933   0.621  0.2489 -0.5032 -0.1433
  693SOL    HW1 2078   2.876   2.999   0.700  0.3090  1.3873 -3.1864
  693SOL    HW2 2079   2.830   2.969   0.532  1.1459  2.4044  1.3753
  694SOL     OW 2080   2.366   2.171   0.083 -0.0624 -0.6985 -0.2890
  694SOL    HW1 2081   2.336   2.253   0.139  0.0055 -0.7297  2.3539
  694SOL    HW2 2082   2.289   2.113   0.046 -0.8579 -1.6296  0.6357
  695SOL     OW 2083   0.562   3.004   1.442  0.5371  0.0726 -0.1305
  695SOL    HW1 2084   0.489   2.942   1.395 -2.7132  0.0601 -1.8430
  695SOL    HW2 2085   0.521   3.081   1.495  1.5754  1.2064  0.5003
  696SOL     OW 2086   2.799   1.995   0.709 -0.3601 -0.9776 -0.0693
  696SOL    HW1 2087   2.869   1.919   0.720  0.9897 -0.7116 -0.0735
  696SOL    HW2 2088   2.766   2.009   0.610  1.0986 -1.4711 -0.2719
  697SOL     OW 2089   1.615   2.017   1.842 -0.4196 -0.0434  0.1857
  697SOL    HW1 2090   1.670   1.936   1.873 -0.6176  2.3398 -0.2246
  697SOL    HW2 2091   1.687   2.091   1.808  0.1544  0.3380 -1.7510
  698SOL     OW 2092   2.926   0.435   2.777  0.6426 -0.4305 -0.6896
  698SOL    HW1 2093   2.927   0.417   2.678  0.5644 -0.2080  2.5834
  698SOL    HW2 2094   2.993   0.374   2.822 -0.4753  1.5584  2.6437
  699SOL     OW 2095   1.550   0.083   2.902  0.2238 -0.5073  0.0765
  699SOL    HW1 2096   1.510  -0.010   2.867 -2.1310  0.5429  1.0136
  699SOL    HW2 2097   1.592   0.140   2.828 -0.7422 -2.1390 -3.1101
  700SOL     OW 2098   0.960   2.325   1.335 -0.3696  0.1401  0.2157
  700SOL    HW1 2099   1.057   2.284   1.321  0.3094  0.0598  1.2148
  700SOL    HW2 2100   0.891   2.276   1.274  2.1321 -1.0494  0.1276
  701SOL     OW 2101   1.877   2.927   3.052  0.3130 -0.3898 -0.3346
  701SOL    HW1 2102   1.880   2.883   3.145  2.1134 -0.6359 -0.3589
  701SOL    HW2 2103   1.866   3.031   3.064 -1.5384  0.6331  1.8362
  702SOL     OW 2104   2.062   1.328   2.002  0.2261  0.3728 -0.2397
  702SOL    HW1 2105   2.140   1.277   1.955  0.1979  1.0300  1.2365
  702SOL    HW2 2106   2.019   1.394   1.937 -0.8215  1.4271  0.4329
  703SOL     OW 2107   1.926   0.904   1.456  0.3456 -0.1469  0.0009
  703SOL    HW1 2108   1.894   0.816   1.497 -2.2642  0.9602  0.9340
  703SOL    HW2 2109   2.005   0.948   1.505 -0.5481  0.2800 -1.6392
  704SOL     OW 2110   0.316   2.036   1.736  0.2473 -0.0254  0.7582
  704SOL    HW1 2111   0.374   1.986   1.802 -2.5160  0.3469 -2.3618
  704SOL    HW2 2112   0.373   2.114   1.695  0.6085 -0.0730 -0.3567
  705SOL     OW 2113   2.533   1.516   0.908 -0.1724 -0.1589  0.3817
  705SOL    HW1 2114   2.464   1.473   0.839 -1.0686  0.0316  0.3222
  705SOL    HW2 2115   2.622   1.467   0.922 -0.8811 -1.1309  0.7627
  706SOL     OW 2116   0.633   1.646   1.876  0.6509  0.0312  0.0844
  706SOL    HW1 2117   0.678   1.561   1.916  1.5528 -0.7002  0.6024
  706SOL    HW2 2118   0.697   1.726   1.864  1.3652  1.2155 -0.7888
  707SOL     OW 2119   2.271   1.188   1.846  0.1687  0.3711  0.4174
  707SOL    HW1 2120   2.364   1.178   1.889 -2.2162 -1.7800  2.6213
  707SOL    HW2 2121   2.244   1.096   1.802 -0.6277  0.8862 -3.4026
  708SOL     OW 2122   3.074   0.533   3.080  0.3489 -0.4445  0.2366
  708SOL    HW1 2123   3.084   0.609   3.007 -0.2521 -0.0705 -0.4837
  708SOL    HW2 2124   3.020   0.452   3.039 -0.5839 -3.9702  0.5203
  709SOL     OW 2125   1.860   1.842   0.240 -0.2530  0.9077 -0.5358
  709SOL    HW1 2126   1.886   1.928   0.292 -2.1698 -2.3508  0.6065
  709SOL    HW2 2127   1.826   1.859   0.145 -0.4009  0.0972  0.6823
  710SOL     OW 2128   1.699   1.650   2.416  1.0061 -0.0818  0.3444
  710SOL    HW1 2129   1.738   1.646   2.321 -2.3662 -1.5965  2.2307
  710SOL    HW2 2130   1.724   1.564   2.470  0.9179  0.6816  1.2042
  711SOL     OW 2131   2.630   2.926   1.046  0.0934  0.6332 -0.1838
  711SOL    HW1 2132   2.612   3.026   1.021  1.6544  2.6859  0.3139
  711SOL    HW2 2133   2.729   2.896   1.033  0.3394 -0.8926 -0.7196
  712SOL     OW 2134   1.394   2.206   1.962 -0.1362 -0.1163 -0.2853
  712SOL    HW1 2135   1.477   2.201   2.026 -2.7168 -0.2024  0.5774
  712SOL    HW2 2136   1.403   2.143   1.879  1.2545 -0.1301  2.8509
  713SOL     OW 2137   2.860   1.468   2.541  0.4108  0.1363  0.0854
  713SOL    HW1 2138   2.845   1.372   2.499 -1.9231  1.7017 -2.0808
  713SOL    HW2 2139   2.790   1.490   2.618  3.1737  1.3790  1.8706
  714SOL     OW 2140   2.718   0.526   2.468  0.3624  0.2147 -0.0074
  714SOL    HW1 2141   2.641   0.504   2.534  1.1629 -0.9528 -0.9996
  714SOL    HW2 2142   2.687   0.515   2.367  1.2376  0.0887 -0.3369
  715SOL     OW 2143   1.588   2.036   1.134 -0.1708 -0.1864  0.0450
  715SOL    HW1 2144   1.500   2.081   1.106 -1.2587 -1.4282  1.6404
  715SOL    HW2 2145   1.610   2.052   1.237 -1.0681 -0.0414 -1.2966
  716SOL     OW 2146   1.167   0.168   1.492 -0.2331  0.2419 -0.6135
  716SOL    HW1 2147   1.061   0.176   1.471 -1.3653  0.1286 -0.0688
  716SOL    HW2 2148   1.225   0.254   1.484  0.9414 -3.1374  0.9860
  717SOL     OW 2149   1.171   0.538   1.543  0.0367 -0.7004  0.3508
  717SOL    HW1 2150   1.255   0.583   1.581 -0.2301  0.8126  2.0659
  717SOL    HW2 2151   1.151   0.544   1.443 -3.2453  1.8017  2.9167
  718SOL     OW 2152   0.673   0.891   1.023  0.3907  0.1238 -0.5771
  718SOL    HW1 2153   0.621   0.879   0.933 -0.1706  1.3494  1.5798
  718SOL    HW2 2154   0.688   0.994   1.040 -2.0336  1.2923 -1.8327
  719SOL     OW 2155   0.588   1.764   2.296 -0.2375  0.8917 -0.6627
  719SOL    HW1 2156   0.669   1.816   2.346  1.1367  2.0398 -1.0833
  719SOL    HW2 2157   0.524   1.709   2.356 -2.2234 -1.2384  0.5517
  720SOL     OW 2158   2.176   1.141   0.304 -0.1039  0.5001  0.5866
  720SOL    HW1 2159   2.220   1.057   0.257 -0.5764  1.2102  0.6754
  720SOL    HW2 2160   2.151   1.118   0.404  0.3844  0.9741 -2.4232
  721SOL     OW 2161   2.282   3.015   2.108 -0.3695 -0.0909  0.3647
  721SOL    HW1 2162   2.200   2.987   2.053  1.2769  1.3385 -2.2825
  721SOL    HW2 2163   2.251   3.053   2.199 -0.4196  0.4114  2.8031
  722SOL     OW 2164   2.354   1.607   0.525  0.2349 -0.4374 -0.2660
  722SOL    HW1 2165   2.309   1.558   0.445 -0.3542  2.9157 -1.9497
  722SOL    HW2 2166   2.299   1.687   0.567 -0.3087  1.6267 -1.8034
  723SOL     OW 2167   2.586   2.746   1.939 -0.2918  0.2630 -0.4558
  723SOL    HW1 2168   2.611   2.806   2.019  0.1455 -0.4779 -0.1228
  723SOL    HW2 2169   2.489   2.706   1.951 -1.0601 -1.1200  0.9167
  724SOL     OW 2170   0.510   2.473   2.406  0.2986 -0.3207  0.2856
  724SOL    HW1 2171   0.426   2.445   2.457  0.0219  2.4093  0.6004
  724SOL    HW2 2172   0.591   2.504   2.464  0.5637  0.3587 -0.9138
  725SOL     OW 2173   2.454   2.819   1.534  0.8941  0.4413 -0.1708
  725SOL    HW1 2174   2.454   2.880   1.448  1.8395  0.8097 -0.7266
  725SOL    HW2 2175   2.400   2.727   1.519  0.5664 -1.0802  1.6968
  726SOL     OW 2176   2.534   2.323   0.734 -0.5107  0.1787 -0.1712
  726SOL    HW1 2177   2.494   2.414   0.710  0.6855 -2.4198  1.9012
  726SOL    HW2 2178   2.514   2.246   0.659 -0.7675 -3.2182 -2.1931
  727SOL     OW 2179   0.114   3.088   0.072  0.4337  0.6962 -0.7080
  727SOL    HW1 2180   0.169   3.010   0.032  1.1908 -0.5009  1.2801
  727SOL    HW2 2181   0.057   3.138   0.003 -0.0621 -1.1645  2.8110
  728SOL     OW 2182   2.893   0.637   0.958 -0.0032  0.2449  0.0610
  728SOL    HW1 2183   2.807   0.665   0.912 -0.5992 -0.0159 -2.3286
  728SOL    HW2 2184   2.870   0.617   1.059 -1.5385 -0.7274  0.9884
  729SOL     OW 2185   3.043   2.520   0.768  0.5089  0.4667  0.5261
  729SOL    HW1 2186   2.989   2.435   0.796 -1.2733 -4.9531 -1.2757
  729SOL    HW2 2187   3.144   2.488   0.758  0.4038 -0.6845 -1.0590
  730SOL     OW 2188   2.643   0.730   0.874 -0.1214  0.2320  0.0336
  730SOL    HW1 2189   2.585   0.819   0.863 -0.4680  0.0808 -1.5906
  730SOL    HW2 2190   2.682   0.710   0.784 -0.3196  0.2087  2.1369
  731SOL     OW 2191   0.063   2.107   2.507  0.2484 -0.6327  0.6790
  731SOL    HW1 2192   0.094   2.158   2.592  3.0583  0.2793  0.4015
  731SOL    HW2 2193  -0.012   2.166   2.463  0.6708  2.4524  1.3855
  732SOL     OW 2194   1.178   2.850   1.953  0.2045 -0.2462 -0.4859
  732SOL    HW1 2195   1.187   2.803   2.046  1.1740 -1.0895  1.3778
  732SOL    HW2 2196   1.170   2.776   1.876 -2.1062 -1.9735 -2.1188
  733SOL     OW 2197   3.052   0.593   2.210  0.0207  0.2232  0.3868
  733SOL    HW1 2198   3.141   0.622   2.176 -2.3542 -1.2941 -0.7804
  733SOL    HW2 2199   2.989   0.545   2.137 -3.2842  0.9206 -2.6660
  734SOL     OW 2200   1.442   0.387   2.688 -0.1779 -0.0138 -0.0647
  734SOL    HW1 2201   1.427   0.483   2.725 -0.7626  0.4022 -0.2924
  734SOL    HW2 2202   1.361   0.328   2.708  0.9494 -0.0681 -1.7306
  735SOL     OW 2203   2.885   2.669   2.287 -0.0636  0.2322 -0.1553
  735SOL    HW1 2204   2.877   2.652   2.186  0.4192 -4.0497 -1.5286
  735SOL    HW2 2205   2.980   2.689   2.318 -0.9051  1.7618 -2.0689
  736SOL     OW 2206   0.835   0.309   2.561 -0.0172  0.1167  0.0293
  736SOL    HW1 2207   0.762   0.385   2.543 -1.6139 -1.6897  3.9518
  736SOL    HW2 2208   0.863   0.254   2.472 -1.9759 -1.7000 -1.0973
  737SOL     OW 2209   2.644   0.465   2.844  0.1042  0.1492 -0.3093
  737SOL    HW1 2210   2.646   0.438   2.946  1.3823  1.4105 -0.9718
  737SOL    HW2 2211   2.734   0.452   2.795 -0.3104 -1.5395  0.4712
  738SOL     OW 2212   1.644   1.248   2.883 -0.3519  0.2831 -0.1952
  738SOL    HW1 2213   1.753   1.236   2.877  1.4275  0.7737  1.3873
  738SOL    HW2 2214   1.594   1.159   2.856  0.7439 -1.5112  2.9837
  739SOL     OW 2215   1.710   0.670   0.684  0.1023  0.0716 -0.3000
  739SOL    HW1 2216   1.774   0.689   0.764 -1.0635  1.0335 -0.0576
  739SOL    HW2 2217   1.744   0.592   0.629  2.6642  0.0891 -1.0634
  740SOL     OW 2218   1.995   1.929   2.339  0.0295 -0.6117 -0.7070
  740SOL    HW1 2219   2.037   1.848   2.389  1.3902 -1.0671  0.8979
  740SOL    HW2 2220   1.908   1.897   2.287  1.1402  1.9178  0.4247
  741SOL     OW 2221   2.562   0.101   2.551 -0.0501 -1.2156 -0.9209
  741SOL    HW1 2222   2.666   0.096   2.568 -0.5177 -1.9258 -0.6914
  741SOL    HW2 2223   2.534   0.098   2.453 -3.3516  1.8902 -0.2327
  742SOL     OW 2224   2.209   1.396   0.191  0.4934  0.0965 -0.2783
  742SOL    HW1 2225   2.120   1.441   0.173  1.0501 -1.1231  1.5155
  742SOL    HW2 2226   2.203   1.306   0.236 -0.3094  4.8348 -0.8828
  743SOL     OW 2227   1.830   0.655   2.626  0.1887 -0.1218  0.8144
  743SOL    HW1 2228   1.808   0.554   2.614  1.6827  3.7836  1.5959
  743SOL    HW2 2229   1.747   0.716   2.612  1.7669  3.5118 -1.1446
  744SOL     OW 2230   2.620   2.087   0.171 -0.2206  1.0445  0.0763
  744SOL    HW1 2231   2.538   2.139   0.151  0.4855  3.3689  1.9700
  744SOL    HW2 2232   2.611   1.982   0.177  2.2897 -0.2069  0.0783
  745SOL     OW 2233   2.145   2.653   2.238 -0.0381 -0.2429  1.1323
  745SOL    HW1 2234   2.055   2.644   2.187  1.5611 -0.9780  0.1507
  745SOL    HW2 2235   2.135   2.632   2.338  3.5918 -1.7811 -0.3494
  746SOL     OW 2236   3.060   2.620   1.741 -0.2188 -0.0319  0.0538
  746SOL    HW1 2237   3.144   2.634   1.679 -0.1521 -1.0583  0.3350
  746SOL    HW2 2238   3.026   2.701   1.798 -1.4943 -3.2267  2.0376
  747SOL     OW 2239   0.039   1.748   1.727  0.3397 -0.1038 -0.4665
  747SOL    HW1 2240  -0.055   1.710   1.688  1.3350  0.5348  1.4823
  747SOL    HW2 2241   0.112   1.766   1.652  1.2783 -0.9634 -2.9248
  748SOL     OW 2242   1.823   2.728   2.874  0.0644 -0.0130  0.0385
  748SOL    HW1 2243   1.841   2.808   2.934 -1.0864  0.4744 -1.5167
  748SOL    HW2 2244   1.724   2.725   2.847 -1.1865  1.9443  1.9109
  749SOL     OW 2245   1.373   3.023   0.889 -0.3729 -0.3204  0.0743
  749SOL    HW1 2246   1.271   3.006   0.870  3.7923 -0.2195  0.5917
  749SOL    HW2 2247   1.430   2.990   0.809 -2.3372 -0.7046 -2.8597
  750SOL     OW 2248   2.283   0.193   1.862 -0.4167 -0.4911  0.3373
  750SOL    HW1 2249   2.321   0.254   1.786  0.4204 -2.0175 -1.2908
  750SOL    HW2 2250   2.285   0.238   1.954  0.4628 -1.1703  2.2052
  751SOL     OW 2251   0.859   2.095   2.823  0.8182  0.7211 -0.2900
  751SOL    HW1 2252   0.922   2.123   2.901  0.6041  0.2891 -0.9243
  751SOL    HW2 2253   0.759   2.086   2.849  0.3082 -0.1585 -1.2638
  752SOL     OW 2254   1.315   0.868   1.262 -0.2488 -0.2666  0.5106
  752SOL    HW1 2255   1.383   0.947   1.262  0.3610  0.8454 -0.2079
  752SOL    HW2 2256   1.359   0.790   1.319  2.3066 -0.4541  3.5116
  753SOL     OW 2257   0.918   2.611   1.659  0.0390 -0.2710 -0.5330
  753SOL    HW1 2258   0.998   2.654   1.713 -0.4824 -0.3418  2.9385
  753SOL    HW2 2259   0.885   2.677   1.584  0.1635  0.4047  2.8593
  754SOL     OW 2260   1.114   1.231   2.998 -0.2370  0.2237  0.3529
  754SOL    HW1 2261   1.170   1.187   2.926 -3.2888  0.0663  1.4293
  754SOL    HW2 2262   1.134   1.327   3.026 -2.6653  0.7835  0.1880
  755SOL     OW 2263   1.999   0.473   2.213 -0.3064 -0.1674  0.5881
  755SOL    HW1 2264   2.083   0.417   2.224 -0.0451  0.7158 -0.2120
  755SOL    HW2 2265   1.916   0.448   2.272  0.5873 -0.4276 -1.0425
  756SOL     OW 2266   2.555   1.020   2.960  0.2466  0.1814 -0.1331
  756SOL    HW1 2267   2.657   1.006   2.979 -0.9712 -0.8926  1.8019
  756SOL    HW2 2268   2.489   0.935   2.980 -2.0522 -1.4188  2.8148
  757SOL     OW 2269   0.066   0.538   1.938 -0.3604 -0.1674 -0.4878
  757SOL    HW1 2270   0.111   0.478   1.864 -2.8383  0.8984 -1.3462
  757SOL    HW2 2271   0.019   0.491   2.012  2.1158  3.6255 -0.2884
  758SOL     OW 2272   2.304   0.126   1.519  0.0122 -0.5231 -0.1661
  758SOL    HW1 2273   2.290   0.031   1.547 -0.3355  1.5535 -0.0349
  758SOL    HW2 2274   2.310   0.144   1.417  0.4544 -0.5138  1.3812
  759SOL     OW 2275   1.709   0.121   0.033 -0.1193 -0.0629 -0.1131
  759SOL    HW1 2276   1.664   0.114  -0.059  0.4349  2.0311  1.0212
  759SOL    HW2 2277   1.815   0.126   0.029  0.1614  0.8552  1.8614
  760SOL     OW 2278   2.702   2.072   2.821 -0.2382  0.2628  0.2016
  760SOL    HW1 2279   2.731   1.974   2.848 -0.7572 -1.0240  1.0926
  760SOL    HW2 2280   2.681   2.128   2.904  0.5043 -0.5460 -1.1595
  761SOL     OW 2281   1.885   1.706   1.704  0.4049 -0.2561 -0.0475
  761SOL    HW1 2282   1.925   1.616   1.733  3.2134 -1.1039  1.0284
  761SOL    HW2 2283   1.810   1.690   1.635 -1.3091 -0.4122 -0.6371
  762SOL     OW 2284   0.519   2.352   0.962  0.1198  0.1772  0.4635
  762SOL    HW1 2285   0.553   2.393   0.871  1.0511  0.6596 -2.6693
  762SOL    HW2 2286   0.571   2.392   1.043 -1.8858 -1.0570  0.9001
  763SOL     OW 2287   2.083   1.592   2.979  0.2202  0.0716 -0.2718
  763SOL    HW1 2288   2.175   1.549   3.001  1.1451 -1.3404  1.3808
  763SOL    HW2 2289   2.005   1.560   3.045  0.0222 -2.8350  1.5905
  764SOL     OW 2290   0.683   0.634   0.821 -0.1134 -0.2230  0.1037
  764SOL    HW1 2291   0.610   0.576   0.779 -0.3123 -1.1331  1.9707
  764SOL    HW2 2292   0.771   0.584   0.842  1.1424  0.2794  3.0795
  765SOL     OW 2293   0.720   0.226   0.775 -0.2013  0.1732 -0.6226
  765SOL    HW1 2294   0.811   0.278   0.751 -0.9318 -0.1688  3.9173
  765SOL    HW2 2295   0.693   0.259   0.871  0.4127 -2.3604  4.0524
  766SOL     OW 2296   2.857   2.093   3.088 -0.4048  0.2387  0.5153
  766SOL    HW1 2297   2.803   2.093   3.171  0.6489  0.7632  0.6654
  766SOL    HW2 2298   2.916   2.181   3.090  2.0899  1.0784  1.2569
  767SOL     OW 2299   2.764   1.624   0.596  0.1826 -0.6699  0.4611
  767SOL    HW1 2300   2.675   1.659   0.640 -1.9744  0.3763 -3.1850
  767SOL    HW2 2301   2.831   1.602   0.673 -0.1981  2.1587 -2.3781
  768SOL     OW 2302   1.029   0.063   0.269  0.8050 -0.3006  0.4374
  768SOL    HW1 2303   0.989   0.074   0.361  0.0034 -0.7686 -3.2240
  768SOL    HW2 2304   1.135   0.060   0.274  2.3260  5.0039 -0.6173
  769SOL     OW 2305   1.060   1.955   2.287 -0.1774 -0.5978 -0.0743
  769SOL    HW1 2306   0.962   1.976   2.317 -0.6753  1.7926 -2.7385
  769SOL    HW2 2307   1.110   1.912   2.364 -2.9678 -0.5156  0.1073
  770SOL     OW 2308   0.175   1.158   2.288 -0.2950 -0.5187  0.1413
  770SOL    HW1 2309   0.159   1.176   2.390 -0.3343 -1.0330  2.3227
  770SOL    HW2 2310   0.085   1.159   2.237  1.4590 -1.7484  0.5074
  771SOL     OW 2311   2.964   2.834   1.885 -0.3226  0.1205 -0.0047
  771SOL    HW1 2312   2.944   2.892   1.799 -0.3519  1.6588 -1.2689
  771SOL    HW2 2313   2.966   2.884   1.978  1.1819 -1.8571  0.8350
  772SOL     OW 2314   2.194   0.198   2.932 -0.0510  0.6854  0.2220
  772SOL    HW1 2315   2.276   0.144   2.910 -2.2627  2.7907 -1.3220
  772SOL    HW2 2316   2.177   0.235   3.030 -1.5616 -1.5056 -0.0339
  773SOL     OW 2317   0.719   2.141   2.423 -0.2513  0.2035  0.1275
  773SOL    HW1 2318   0.676   2.196   2.346 -0.0440 -1.0404 -0.1933
  773SOL    HW2 2319   0.664   2.160   2.505  1.1697 -2.8980 -2.5338
  774SOL     OW 2320   2.041   3.100   2.598  0.3532 -0.1657  0.3105
  774SOL    HW1 2321   2.052   3.188   2.645  1.2026 -1.3260 -2.9686
  774SOL    HW2 2322   2.059   3.012   2.659 -1.1941  0.5771 -0.2793
  775SOL     OW 2323   2.533   2.894   2.375 -0.7567 -0.5955  0.3092
  775SOL    HW1 2324   2.479   2.979   2.364 -0.7527 -2.9692  1.9314
  775SOL    HW2 2325   2.620   2.897   2.426 -0.3937 -2.0772 -1.3828
  776SOL     OW 2326   0.014   1.235   0.194 -0.4034  0.3449  0.1671
  776SOL    HW1 2327  -0.025   1.223   0.096  0.2557  1.1434 -1.5863
  776SOL    HW2 2328  -0.053   1.247   0.272  0.8201 -1.2252 -1.9951
  777SOL     OW 2329   0.347   2.842   0.401  0.9363  0.2916  0.7826
  777SOL    HW1 2330   0.251   2.874   0.361 -0.6661  0.6354 -2.2832
  777SOL    HW2 2331   0.428   2.882   0.349  0.7968  1.4216 -0.2327
  778SOL     OW 2332   1.365   1.937   0.184 -0.0028 -0.1278 -0.0143
  778SOL    HW1 2333   1.292   1.932   0.252  1.8825 -0.8920  0.7505
  778SOL    HW2 2334   1.387   2.032   0.143 -0.8235 -2.0259 -0.6341
  779SOL     OW 2335   0.179   0.854   0.486 -0.2256 -0.6880 -0.1541
  779SOL    HW1 2336   0.120   0.772   0.473  0.1651 -0.2620 -0.0416
  779SOL    HW2 2337   0.125   0.931   0.535  0.1309  0.4595  3.4621
  780SOL     OW 2338   0.084   0.205   2.319  0.1592 -0.0414 -0.8759
  780SOL    HW1 2339   0.094   0.305   2.346  3.2670  0.8836 -1.0818
  780SOL    HW2 2340   0.171   0.169   2.278 -0.2562 -4.0057  0.1629
  781SOL     OW 2341   0.654   1.695   1.527 -0.1972  0.2073 -0.3605
  781SOL    HW1 2342   0.733   1.626   1.538 -0.2281 -0.4013  0.5896
  781SOL    HW2 2343   0.569   1.646   1.565  0.3411  2.5114 -1.3267
  782SOL     OW 2344   2.592   0.077   0.922 -0.4750  0.1517 -0.3457
  782SOL    HW1 2345   2.522   0.099   0.853  0.1647  1.4245 -2.8630
  782SOL    HW2 2346   2.592   0.155   0.994  2.5311 -0.0435 -0.7073
  783SOL     OW 2347   2.860   0.745   2.539 -0.2857 -0.2179  0.1017
  783SOL    HW1 2348   2.808   0.773   2.620  3.0564 -0.2827  0.4572
  783SOL    HW2 2349   2.834   0.652   2.504 -1.0125  1.1273  1.6188
  784SOL     OW 2350   1.456   2.214   0.093  0.4763 -0.2261 -0.1114
  784SOL    HW1 2351   1.528   2.286   0.117 -1.3561  1.5544 -1.8633
  784SOL    HW2 2352   1.433   2.214  -0.014 -0.0824 -3.0372 -1.5709
  785SOL     OW 2353   2.129   0.323   0.067  0.5712 -0.6485 -0.6197
  785SOL    HW1 2354   2.042   0.335   0.123 -2.6059  0.0991  0.5352
  785SOL    HW2 2355   2.147   0.412   0.021  0.4606 -0.6856  1.9304
  786SOL     OW 2356   2.010   2.175   2.238 -0.3650 -0.5710 -0.4309
  786SOL    HW1 2357   1.993   2.075   2.268  0.7322  4.0568 -2.3320
  786SOL    HW2 2358   2.106   2.193   2.209 -1.1356 -0.5211  0.5103
  787SOL     OW 2359   1.372   0.541   1.020  0.5690  0.5049  0.2512
  787SOL    HW1 2360   1.286   0.600   1.043  0.9402 -1.0855  0.5287
  787SOL    HW2 2361   1.394   0.532   0.920 -0.9799  0.0858  2.3833
  788SOL     OW 2362   1.275   0.386   0.070 -0.4777  0.3564 -0.1019
  788SOL    HW1 2363   1.194   0.385   0.012  0.0366 -0.6595 -0.8363
  788SOL    HW2 2364   1.275   0.473   0.123  0.0759 -1.1487  1.4305
  789SOL     OW 2365   2.573   0.103   1.881 -0.1010 -0.1124 -1.2731
  789SOL    HW1 2366   2.480   0.141   1.915 -2.0843 -1.2620  1.4106
  789SOL    HW2 2367   2.574   0.002   1.865  0.7446  4.1953  0.7515
  790SOL     OW 2368   2.683   2.779   0.799 -0.2424 -0.0964 -0.5030
  790SOL    HW1 2369   2.739   2.824   0.728 -1.2762  1.2013  1.3913
  790SOL    HW2 2370   2.669   2.844   0.883  3.3808  2.5332 -0.0999
  791SOL     OW 2371   1.939   1.195   0.207  0.2750 -0.3436  0.0913
  791SOL    HW1 2372   1.851   1.144   0.229 -3.6846  0.6389  2.4523
  791SOL    HW2 2373   2.023   1.175   0.270 -0.8453  0.2150  1.7643
  792SOL     OW 2374   0.433   1.942   2.169  0.2567  1.0295 -0.1285
  792SOL    HW1 2375   0.508   1.887   2.219 -0.1193 -1.3014  0.7554
  792SOL    HW2 2376   0.344   1.938   2.228 -1.8353  0.6847 -0.3030
  793SOL     OW 2377   2.077   1.573   2.143 -0.0247 -0.0488  0.2117
  793SOL    HW1 2378   2.132   1.626   2.074 -0.5075 -0.0160 -1.2411
  793SOL    HW2 2379   2.072   1.477   2.113  1.4778  2.2983  1.6153
  794SOL     OW 2380   0.479   1.343   2.383 -0.6256 -0.2994  0.3126
  794SOL    HW1 2381   0.462   1.306   2.289  1.4540 -1.1523  0.4432
  794SOL    HW2 2382   0.471   1.445   2.397  0.1726 -0.4614  2.3888
  795SOL     OW 2383   2.484   2.274   1.839 -0.4203  0.1350 -0.8981
  795SOL    HW1 2384   2.470   2.289   1.940 -1.4293  2.5526 -1.3437
  795SOL    HW2 2385   2.413   2.214   1.798 -1.4571 -0.2356  2.1677
  796SOL     OW 2386   3.038   1.128   2.690 -0.0605 -0.2582 -0.0070
  796SOL    HW1 2387   2.940   1.146   2.717 -0.8733 -0.4035  1.4361
  796SOL    HW2 2388   3.108   1.133   2.764  2.5793 -1.4213  0.1274
  797SOL     OW 2389   0.783   0.637   1.396 -0.1464 -0.4413  0.2409
  797SOL    HW1 2390   0.848   0.678   1.468  0.2062  0.5082  0.8372
  797SOL    HW2 2391   0.718   0.704   1.349 -0.7351  0.8270  0.1072
  798SOL     OW 2392   1.323   0.294   1.113  0.3467  0.4498 -0.3480
  798SOL    HW1 2393   1.305   0.296   1.208 -0.0358  0.7047 -0.3417
  798SOL    HW2 2394   1.357   0.387   1.079  1.3121 -1.7166  0.2003
  799SOL     OW 2395   1.908   2.738   1.043  0.0468 -0.1861  0.0376
  799SOL    HW1 2396   1.894   2.707   1.139  1.5659 -3.0778  0.1935
  799SOL    HW2 2397   1.824   2.748   0.985  2.1481  1.0236  1.0324
  800SOL     OW 2398   2.972   0.721   1.869 -0.5588  0.6316  0.5849
  800SOL    HW1 2399   2.958   0.816   1.910 -0.5203 -0.1453 -0.9526
  800SOL    HW2 2400   3.040   0.656   1.917 -0.2423 -0.7908 -0.9318
  801SOL     OW 2401   1.941   2.224   0.078  0.2916  0.2794 -0.1152
  801SOL    HW1 2402   1.857   2.198   0.029  0.7420  0.6682  2.3684
  801SOL    HW2 2403   2.021   2.153   0.069 -1.4720 -3.7636  0.0922
  802SOL     OW 2404   0.678   0.795   2.536  0.4115  0.0068 -0.0645
  802SOL    HW1 2405   0.744   0.750   2.470 -0.5076 -0.1787  0.8895
  802SOL    HW2 2406   0.595   0.833   2.485 -0.9613 -0.4157 -2.5122
  803SOL     OW 2407   0.974   0.041   0.841  0.2582 -0.3167  0.4096
  803SOL    HW1 2408   1.051   0.095   0.882 -0.6554 -0.3998  0.3874
  803SOL    HW2 2409   0.930   0.085   0.760  2.2702  0.6871  1.6670
  804SOL     OW 2410   0.307   0.039   2.159  0.0414 -0.3391  0.5313
  804SOL    HW1 2411   0.327   0.142   2.167  0.7042 -0.1145  0.0504
  804SOL    HW2 2412   0.265   0.014   2.067 -1.1742 -1.6693  1.0331
  805SOL     OW 2413   2.356   0.335   0.391  0.1675 -0.2378  0.5937
  805SOL    HW1 2414   2.437   0.360   0.448 -1.9325  0.5005  2.4881
  805SOL    HW2 2415   2.380   0.304   0.295  0.3989  0.9523  0.0014
  806SOL     OW 2416   0.645   2.441   1.780  0.0278 -0.0197  0.1584
  806SOL    HW1 2417   0.644   2.544   1.794 -0.2309  1.4587  0.1646
  806SOL    HW2 2418   0.718   2.414   1.711  0.3006  1.2738  0.8945
  807SOL     OW 2419   2.486   0.846   0.356  0.1529  0.1679 -0.0642
  807SOL    HW1 2420   2.563   0.880   0.419 -1.0361 -2.6884 -1.5640
  807SOL    HW2 2421   2.469   0.899   0.268 -0.0095 -0.8184 -1.8417
  808SOL     OW 2422   0.590   2.079   2.917 -0.1993 -0.0024  0.3303
  808SOL    HW1 2423   0.537   2.152   2.970 -0.7646 -0.1448  2.8946
  808SOL    HW2 2424   0.626   1.999   2.973  2.1085 -0.6946 -0.4389
  809SOL     OW 2425   2.672   1.970   1.890 -0.6270 -0.7878 -0.3962
  809SOL    HW1 2426   2.775   1.989   1.906 -0.5850 -1.5256 -1.9207
  809SOL    HW2 2427   2.645   2.023   1.804 -0.2208  1.5748  0.2497
  810SOL     OW 2428   2.106   1.055   0.566  0.0360  0.5370  0.0429
  810SOL    HW1 2429   2.144   0.976   0.623 -1.7981  1.3359  0.6745
  810SOL    HW2 2430   2.062   1.135   0.620 -1.0940  0.0424  2.7393
  811SOL     OW 2431   1.333   2.503   1.174 -0.0022  0.1425  0.1876
  811SOL    HW1 2432   1.314   2.404   1.193  0.8222 -0.2050  0.9902
  811SOL    HW2 2433   1.250   2.564   1.201 -1.4408 -0.2064 -0.2111
  812SOL     OW 2434   1.409   0.751   1.955  0.1991 -0.0842 -0.3705
  812SOL    HW1 2435   1.455   0.812   2.017 -3.4703  1.3264  0.1646
  812SOL    HW2 2436   1.309   0.748   1.974 -0.1659 -1.1780 -0.2351
  813SOL     OW 2437   1.705   2.053   2.496  0.1975  0.5159  0.3996
  813SOL    HW1 2438   1.753   1.960   2.529 -0.2371  0.3145 -0.4222
  813SOL    HW2 2439   1.649   2.041   2.406 -1.0386 -0.3906  1.0404
  814SOL     OW 2440   2.905   1.543   2.823  0.1046 -0.8396  0.2208
  814SOL    HW1 2441   2.974   1.495   2.885  1.7967 -0.3870 -0.3418
  814SOL    HW2 2442   2.947   1.615   2.764 -0.2488 -0.4437 -0.7332
  815SOL     OW 2443   2.149   2.902   2.780  0.3958  0.0680  0.0611
  815SOL    HW1 2444   2.143   2.823   2.844 -0.5097 -1.2666 -1.2129
  815SOL    HW2 2445   2.201   2.990   2.810  1.3182 -1.1040  0.3177
  816SOL     OW 2446   1.646   0.329   1.596  0.1433 -0.4637 -0.0846
  816SOL    HW1 2447   1.683   0.237   1.625  0.4851  1.8783 -1.6727
  816SOL    HW2 2448   1.555   0.346   1.645 -0.7530  1.4737  1.5993
  817SOL     OW 2449   0.377   1.172   2.565  0.2442 -0.4860  0.0940
  817SOL    HW1 2450   0.277   1.197   2.584  0.9064 -0.2483  2.4373
  817SOL    HW2 2451   0.432   1.238   2.503 -2.4581 -1.4474 -0.8256
  818SOL     OW 2452   1.886   0.894   0.420  0.2723  0.5734 -0.4465
  818SOL    HW1 2453   1.974   0.936   0.455  1.5625 -2.8531 -1.8567
  818SOL    HW2 2454   1.796   0.915   0.476  0.4710  1.7635 -0.7553
  819SOL     OW 2455   2.742   2.965   2.962  0.5140 -0.2310 -0.2332
  819SOL    HW1 2456   2.809   2.892   2.925 -2.5646  1.8456 -1.3610
  819SOL    HW2 2457   2.647   2.928   2.940  1.5635 -0.8698  0.5948
  820SOL     OW 2458   1.250   1.059   0.650 -0.3188  0.0909 -0.9221
  820SOL    HW1 2459   1.241   1.159   0.674  0.4208 -2.5023 -0.4286
  820SOL    HW2 2460   1.203   1.002   0.728 -0.0573  0.1938  1.8868
  821SOL     OW 2461   3.093   1.296   0.682  0.6225 -0.6494  0.8103
  821SOL    HW1 2462   3.080   1.292   0.781 -1.3915 -2.3775 -3.0889
  821SOL    HW2 2463   3.151   1.374   0.645 -2.1136  0.5991 -1.7914
  822SOL     OW 2464   2.560   1.711   2.415  0.0566  0.2567  0.0506
  822SOL    HW1 2465   2.557   1.782   2.495  0.8105  2.2341  0.4163
  822SOL    HW2 2466   2.466   1.703   2.371 -0.0712 -1.7011  2.0569
  823SOL     OW 2467   2.075   0.910   1.203 -0.4121 -0.0391 -0.5989
  823SOL    HW1 2468   2.036   0.896   1.298 -1.5026  0.7233  0.0646
  823SOL    HW2 2469   2.002   0.924   1.137  0.3678  0.6062  2.5438
  824SOL     OW 2470   0.253   2.044   2.795  0.5317 -0.1559  0.4697
  824SOL    HW1 2471   0.218   1.964   2.855 -0.8870 -0.0711 -0.6199
  824SOL    HW2 2472   0.332   2.013   2.735 -1.2752  1.2578 -0.1139
  825SOL     OW 2473   1.292   1.130   0.281  0.1266 -0.1319  0.0150
  825SOL    HW1 2474   1.313   1.231   0.281 -0.1442 -0.5229  2.1122
  825SOL    HW2 2475   1.224   1.103   0.354 -1.9086 -2.1283  1.4516
  826SOL     OW 2476   1.890   0.680   1.615 -0.5454 -0.6619 -0.3634
  826SOL    HW1 2477   1.977   0.629   1.640 -0.4852  0.2339 -1.1792
  826SOL    HW2 2478   1.833   0.620   1.548 -1.8989  0.4205 -0.1039
  827SOL     OW 2479   0.672   1.181   0.203 -0.1288  0.2378 -0.3646
  827SOL    HW1 2480   0.763   1.166   0.149  0.8705  1.4653  2.9784
  827SOL    HW2 2481   0.609   1.100   0.219  0.0844  2.7645  1.0887
  828SOL     OW 2482   2.570   0.130   1.578  0.2645  0.6962  0.6637
  828SOL    HW1 2483   2.468   0.134   1.564  1.8197  0.2798 -1.8699
  828SOL    HW2 2484   2.592   0.115   1.679  0.0788  1.7518  1.5748
  829SOL     OW 2485   2.763   2.496   3.025  0.2340 -0.0976 -0.5878
  829SOL    HW1 2486   2.675   2.448   2.997  1.1147 -2.5620 -0.4402
  829SOL    HW2 2487   2.756   2.550   3.109  0.2611 -0.8812  1.1424
  830SOL     OW 2488   2.819   0.947   3.045 -0.7314  0.6757  0.5836
  830SOL    HW1 2489   2.890   1.019   3.077  0.0183 -1.0233 -1.8742
  830SOL    HW2 2490   2.834   0.855   3.096 -1.0372  2.3891  0.7536
  831SOL     OW 2491   0.004   0.657   0.400 -0.3824  0.2787  0.4796
  831SOL    HW1 2492  -0.004   0.583   0.475 -0.7590  1.5105  0.3923
  831SOL    HW2 2493   0.053   0.617   0.316  0.8309  2.2019 -0.2805
  832SOL     OW 2494   1.809   0.751   2.988  0.3748  0.0091 -0.1142
  832SOL    HW1 2495   1.709   0.767   3.003 -1.1174 -1.0222 -1.2675
  832SOL    HW2 2496   1.825   0.648   2.992 -0.4953  0.3520 -1.3813
  833SOL     OW 2497   2.463   2.145   0.534 -0.6472 -0.1228 -0.4498
  833SOL    HW1 2498   2.385   2.170   0.474 -1.3368  2.0862  0.1816
  833SOL    HW2 2499   2.492   2.045   0.525 -0.1724  1.9652 -2.2776
  834SOL     OW 2500   0.207   0.215   0.486 -0.1455  0.2217 -0.5154
  834SOL    HW1 2501   0.236   0.113   0.512  1.6651 -2.1839 -2.9219
  834SOL    HW2 2502   0.151   0.228   0.400  0.1032  0.3854 -0.2254
  835SOL     OW 2503   2.323   1.577   1.086 -0.3011 -0.0169 -0.1779
  835SOL    HW1 2504   2.256   1.657   1.083 -1.4431 -0.6655 -1.5727
  835SOL    HW2 2505   2.397   1.573   1.019 -0.4154  0.5096 -1.0053
  836SOL     OW 2506   1.610   0.830   2.582  0.3173 -0.2981  0.6233
  836SOL    HW1 2507   1.503   0.845   2.593 -2.6427  0.4826 -0.2984
  836SOL    HW2 2508   1.647   0.862   2.487  1.9768  0.6776 -0.7827
  837SOL     OW 2509   1.710   0.133   0.542 -0.1629  0.1066 -0.2218
  837SOL    HW1 2510   1.658   0.193   0.609  2.6535 -0.5371 -1.0846
  837SOL    HW2 2511   1.660   0.121   0.451 -1.7570  0.3376  0.2856
  838SOL     OW 2512   1.171   1.552   2.818  0.1829  0.3678 -0.0174
  838SOL    HW1 2513   1.161   1.530   2.918 -1.1175  1.2380 -0.1641
  838SOL    HW2 2514   1.103   1.503   2.753  1.0469  0.2650  0.8535
  839SOL     OW 2515   1.690   0.318   1.038  0.1807 -0.0721  0.1375
  839SOL    HW1 2516   1.734   0.375   1.111 -0.3724 -0.9717  0.2046
  839SOL    HW2 2517   1.614   0.259   1.079  1.4264 -0.6633 -2.3793
  840SOL     OW 2518   2.528   2.949   1.754  0.8557 -0.3955  0.5285
  840SOL    HW1 2519   2.510   2.916   1.651  1.2517  2.9473 -3.0093
  840SOL    HW2 2520   2.571   2.876   1.813  0.2049 -2.0601  1.4106
  841SOL     OW 2521   1.517   0.831   2.963 -0.2474 -0.0352  0.3453
  841SOL    HW1 2522   1.479   0.877   3.055 -1.6177  0.0141  2.9696
  841SOL    HW2 2523   1.541   0.907   2.890 -0.0217  1.0117  0.0294
  842SOL     OW 2524   0.794   1.555   0.961  0.6261 -0.0215  0.1315
  842SOL    HW1 2525   0.760   1.652   0.975  0.1257  1.3761 -0.0333
  842SOL    HW2 2526   0.725   1.480   0.952  0.8632  0.6776 -1.1659
  843SOL     OW 2527   0.062   0.055   1.414  0.5033  0.4123  0.8499
  843SOL    HW1 2528   0.146   0.104   1.454 -1.0281 -2.1242  2.1294
  843SOL    HW2 2529   0.072  -0.046   1.407  1.8265  0.1091  0.0743
  844SOL     OW 2530   0.807   2.549   0.300 -0.2678 -0.1147  0.1001
  844SOL    HW1 2531   0.767   2.475   0.359  0.3472  1.7570 -0.8579
  844SOL    HW2 2532   0.740   2.611   0.249 -0.3851 -1.3479  4.2968
  845SOL     OW 2533   1.639   2.892   1.365 -0.3329  0.1136  0.2588
  845SOL    HW1 2534   1.674   2.927   1.456 -1.6932 -1.9365  0.0866
  845SOL    HW2 2535   1.538   2.901   1.354  0.1215 -0.0451 -0.1975
  846SOL     OW 2536   1.537   2.918   0.710 -0.8943  0.8572  1.2792
  846SOL    HW1 2537   1.564   2.850   0.640 -1.4628 -2.4727  2.1359
  846SOL    HW2 2538   1.616   2.940   0.775  1.7235  0.1498  0.8706
  847SOL     OW 2539   2.054   1.658   0.306 -0.0744 -0.2479  0.0642
  847SOL    HW1 2540   2.013   1.570   0.339 -0.0245  1.4848  0.0995
  847SOL    HW2 2541   1.988   1.732   0.276 -1.3130  2.9442 -0.3105
  848SOL     OW 2542   2.452   0.859   2.583  0.1057 -0.2551  0.2784
  848SOL    HW1 2543   2.432   0.950   2.627  2.7593  1.5184 -0.2115
  848SOL    HW2 2544   2.383   0.782   2.596  2.0102 -1.4683 -2.4181
  849SOL     OW 2545   2.594   0.805   2.341 -0.0309 -0.1192 -0.1668
  849SOL    HW1 2546   2.683   0.762   2.368  0.7008 -0.5840  2.5188
  849SOL    HW2 2547   2.537   0.834   2.423  1.4484  1.5857 -1.3894
  850SOL     OW 2548   1.540   0.097   1.346 -0.1013  0.1145 -0.2498
  850SOL    HW1 2549   1.553   0.090   1.243  1.3973  1.5201 -2.9015
  850SOL    HW2 2550   1.513   0.011   1.400 -2.5956  0.5793  4.3562
  851SOL     OW 2551   0.452   1.803   0.598 -0.1868 -0.1872  0.1607
  851SOL    HW1 2552   0.486   1.889   0.648  0.1838  1.5161  0.1835
  851SOL    HW2 2553   0.519   1.767   0.528  0.1631  1.9834 -0.6898
  852SOL     OW 2554   0.774   2.132   1.656 -0.5268  0.1607  0.2402
  852SOL    HW1 2555   0.754   2.219   1.599  1.9388  1.4469 -1.6970
  852SOL    HW2 2556   0.702   2.129   1.729  0.5859  1.6436  0.8423
  853SOL     OW 2557   2.578   1.485   2.593 -0.1578  0.2742 -0.4806
  853SOL    HW1 2558   2.509   1.413   2.561  0.9208 -1.0478  0.6498
  853SOL    HW2 2559   2.591   1.571   2.528  2.7097 -0.1681 -0.8038
  854SOL     OW 2560   2.386   1.408   1.713  0.5050 -0.1787 -0.4645
  854SOL    HW1 2561   2.455   1.362   1.657 -0.7550  4.6220 -2.5138
  854SOL    HW2 2562   2.323   1.341   1.765  0.9947 -0.9323 -1.7066
  855SOL     OW 2563   2.031   2.428   0.967  0.2648 -0.4937 -0.8060
  855SOL    HW1 2564   2.032   2.522   0.918  0.5591  2.4712  0.5276
  855SOL    HW2 2565   2.099   2.426   1.049  5.2835  1.5778 -0.8931
  856SOL     OW 2566   1.360   1.491   0.913  0.3105 -0.3172 -0.6641
  856SOL    HW1 2567   1.439   1.545   0.954 -1.2051 -1.1992 -1.0901
  856SOL    HW2 2568   1.265   1.533   0.937 -2.5565  1.6350 -0.5889
  857SOL     OW 2569   3.044   2.698   1.019  0.1088  0.1835  0.0638
  857SOL    HW1 2570   3.000   2.628   0.956 -0.8014  1.5463  3.4154
  857SOL    HW2 2571   3.128   2.664   1.070  1.6205 -1.2732 -0.1248
  858SOL     OW 2572   2.332   2.021   1.699 -0.3910 -0.6001  0.3586
  858SOL    HW1 2573   2.256   2.009   1.635  1.8109 -0.8962  1.8749
  858SOL    HW2 2574   2.420   1.969   1.674 -0.7376 -0.3055 -1.0958
  859SOL     OW 2575   2.489   0.549   1.016  0.2182  0.2699  0.3550
  859SOL    HW1 2576   2.561   0.612   0.971  1.3463  1.0165 -0.9395
  859SOL    HW2 2577   2.517   0.448   1.036  0.6520 -1.8628 -0.5324
  860SOL     OW 2578   1.954   2.823   0.418  0.4345  0.1306 -0.4043
  860SOL    HW1 2579   1.918   2.765   0.334  0.4322 -2.5035  0.2787
  860SOL    HW2 2580   2.047   2.859   0.408 -3.1914 -0.2225  2.9984
  861SOL     OW 2581   1.097   2.460   2.867  0.5743  0.3399 -0.5279
  861SOL    HW1 2582   1.162   2.530   2.829  1.4367 -0.1926 -1.8484
  861SOL    HW2 2583   1.103   2.450   2.967  0.7230  1.8640 -0.2189
  862SOL     OW 2584   2.830   2.579   1.610  0.1697  0.0066  0.0675
  862SOL    HW1 2585   2.918   2.598   1.662 -0.5412 -2.2328  2.1028
  862SOL    HW2 2586   2.791   2.667   1.573  1.6665 -0.6979  0.3838
  863SOL     OW 2587   1.841   2.723   0.175  0.0486 -0.1559  0.0097
  863SOL    HW1 2588   1.905   2.645   0.156  0.8101 -1.8287  1.2308
  863SOL    HW2 2589   1.742   2.692   0.174  0.3288  1.7100  0.3231
  864SOL     OW 2590   1.906   1.192   2.855  0.0916 -0.0630 -0.2627
  864SOL    HW1 2591   1.913   1.156   2.758 -0.8081 -0.7248 -0.2151
  864SOL    HW2 2592   1.962   1.136   2.919 -0.6204  0.6400 -1.4248
  865SOL     OW 2593   2.214   1.806   0.625  0.0779 -0.0650 -0.1346
  865SOL    HW1 2594   2.238   1.825   0.723 -1.8714 -1.9552 -0.1132
  865SOL    HW2 2595   2.114   1.775   0.607 -0.8223  2.2315 -0.8793
  866SOL     OW 2596   2.884   2.903   1.024  0.8691  0.1574 -0.0830
  866SOL    HW1 2597   2.887   2.979   0.952 -1.0398 -3.1002 -0.6738
  866SOL    HW2 2598   2.969   2.837   1.021  0.2748 -0.8275  1.1044
  867SOL     OW 2599   0.308   1.366   0.902  0.0112 -0.3854  0.3908
  867SOL    HW1 2600   0.302   1.308   0.811  2.9736 -0.1082 -0.5675
  867SOL    HW2 2601   0.297   1.464   0.884 -1.3938  0.7746  1.1740
  868SOL     OW 2602   0.743   1.871   1.974 -1.0272 -0.3893 -0.5115
  868SOL    HW1 2603   0.707   1.857   2.067 -0.0873  0.1487 -0.2055
  868SOL    HW2 2604   0.725   1.971   1.944  0.6952 -0.4639  2.2342
  869SOL     OW 2605   2.570   1.931   1.618  0.1071  0.4149 -0.5023
  869SOL    HW1 2606   2.641   2.008   1.600  3.9691  1.1576 -1.7941
  869SOL    HW2 2607   2.615   1.842   1.657 -1.3193 -0.4095  0.9384
  870SOL     OW 2608   2.215   2.628   1.253  0.1711  0.3316  0.4313
  870SOL    HW1 2609   2.181   2.541   1.194 -1.3985 -3.2880 -0.8990
  870SOL    HW2 2610   2.254   2.592   1.341  1.6529  0.7182  0.7535
  871SOL     OW 2611   3.026   2.216   0.520  0.0326  0.0528  0.4634
  871SOL    HW1 2612   2.935   2.204   0.570  0.0317 -2.7691  0.4104
  871SOL    HW2 2613   3.006   2.245   0.423  1.4396 -0.2817 -0.4987
  872SOL     OW 2614   2.105   0.531   1.691  0.0384 -0.5059 -0.1112
  872SOL    HW1 2615   2.064   0.499   1.782  3.0273  0.4499  0.0941
  872SOL    HW2 2616   2.195   0.484   1.670 -0.1078 -1.4536  1.3403
  873SOL     OW 2617   1.725   2.116   3.048 -0.1605  0.2413 -0.6544
  873SOL    HW1 2618   1.660   2.171   3.106 -0.1560  1.6231 -1.9378
  873SOL    HW2 2619   1.719   2.143   2.950 -2.0675 -0.9746 -0.1534
  874SOL     OW 2620   0.692   2.467   0.768  0.3876 -0.3344 -0.4814
  874SOL    HW1 2621   0.692   2.557   0.817 -3.9883 -3.0352 -0.0846
  874SOL    HW2 2622   0.783   2.415   0.778  1.8326 -0.8420  2.0405
  875SOL     OW 2623   2.344   1.490   1.401  0.1769  0.6065  0.0675
  875SOL    HW1 2624   2.426   1.537   1.442  0.0501 -0.9284 -1.2662
  875SOL    HW2 2625   2.362   1.457   1.299 -1.3817  0.3914  0.7860
  876SOL     OW 2626   0.071   2.240   2.749 -0.0407 -0.3423 -0.1859
  876SOL    HW1 2627   0.142   2.160   2.765  3.4993 -3.0682 -1.1666
  876SOL    HW2 2628   0.109   2.326   2.792 -0.4914  0.8084  1.5270
  877SOL     OW 2629   2.906   2.667   0.581  0.1188  0.1771  0.2351
  877SOL    HW1 2630   2.897   2.769   0.611  1.3357 -1.3349 -0.6792
  877SOL    HW2 2631   2.959   2.609   0.649 -0.2352 -1.0898 -2.2946
  878SOL     OW 2632   2.765   1.483   2.254 -0.4369  0.1116 -0.1536
  878SOL    HW1 2633   2.838   1.538   2.204  2.5486 -1.0236 -1.3492
  878SOL    HW2 2634   2.761   1.497   2.354 -1.3103  0.5081 -0.5937
  879SOL     OW 2635   2.386   0.113   1.228 -0.3765 -0.4227  0.1462
  879SOL    HW1 2636   2.441   0.035   1.264 -0.0751  0.7072 -2.3885
  879SOL    HW2 2637   2.321   0.083   1.151 -0.0172 -0.1703 -0.1264
  880SOL     OW 2638   0.762   0.489   2.216 -0.5410  0.1470  0.1348
  880SOL    HW1 2639   0.720   0.456   2.302  2.6179  0.9488  0.4179
  880SOL    HW2 2640   0.827   0.420   2.177  1.2493  1.9658  1.0346
  881SOL     OW 2641   0.883   0.047   0.502 -0.6571  0.2444 -0.2419
  881SOL    HW1 2642   0.921  -0.053   0.526  0.6043 -1.3020 -1.0593
  881SOL    HW2 2643   0.780   0.066   0.488 -2.5613  1.5313 -2.1955
  882SOL     OW 2644   2.704   1.682   1.695  0.2563  0.2026  0.5170
  882SOL    HW1 2645   2.793   1.649   1.651 -0.8069  1.2486 -0.6442
  882SOL    HW2 2646   2.711   1.660   1.792 -0.7301 -2.6936 -0.4145
  883SOL     OW 2647   0.897   0.543   0.935  0.4046  0.5868  0.1129
  883SOL    HW1 2648   0.920   0.634   0.979 -1.2670  0.4760 -1.3652
  883SOL    HW2 2649   0.905   0.461   1.001  0.2218  0.9714  1.5583
  884SOL     OW 2650   1.172   1.723   1.181  0.4703  0.1628 -0.2704
  884SOL    HW1 2651   1.131   1.648   1.123  1.0861 -2.3000  2.3263
  884SOL    HW2 2652   1.132   1.823   1.170  1.3802 -1.8039  1.4421
  885SOL     OW 2653   2.322   1.788   2.295 -0.1764  0.0424  0.1969
  885SOL    HW1 2654   2.238   1.740   2.340 -1.0026  0.5460 -0.3311
  885SOL    HW2 2655   2.317   1.888   2.271 -2.5832 -0.9421 -1.1322
  886SOL     OW 2656   2.605   0.377   1.802  0.0006  0.4558 -0.1320
  886SOL    HW1 2657   2.631   0.300   1.863 -2.8081  0.7634  1.3376
  886SOL    HW2 2658   2.684   0.445   1.778  1.0036  0.7411 -1.0284
  887SOL     OW 2659   0.112   1.977   1.353 -0.0023  0.2875  0.0185
  887SOL    HW1 2660   0.038   1.931   1.296 -0.8475  2.9008  0.7579
  887SOL    HW2 2661   0.096   2.077   1.365  1.5168 -0.1713 -0.6234
  888SOL     OW 2662   0.570   1.208   1.538 -0.0154 -0.0096 -0.2279
  888SOL    HW1 2663   0.597   1.243   1.443  0.6111  0.6063 -0.9627
  888SOL    HW2 2664   0.505   1.121   1.531 -1.8496 -1.7273 -1.4890
  889SOL     OW 2665   0.812   2.471   2.176 -0.5297 -0.3867  0.1230
  889SOL    HW1 2666   0.748   2.393   2.210  1.7784 -2.8096 -1.7163
  889SOL    HW2 2667   0.882   2.442   2.100 -2.9728  1.5816 -0.5947
  890SOL     OW 2668   2.424   2.418   0.230 -0.0930  0.3958 -0.0809
  890SOL    HW1 2669   2.442   2.491   0.158 -2.9277  0.1517 -1.9172
  890SOL    HW2 2670   2.370   2.453   0.313 -2.2618 -2.0071 -0.0073
  891SOL     OW 2671   2.541   1.724   0.712  0.2047 -0.1390  0.5971
  891SOL    HW1 2672   2.542   1.690   0.807  2.9876  2.2602  0.7691
  891SOL    HW2 2673   2.464   1.696   0.656  2.0470  1.3992  0.8808
  892SOL     OW 2674   0.352   0.309   2.249 -0.1591  0.2656 -0.1415
  892SOL    HW1 2675   0.348   0.359   2.154 -1.0584  0.5215 -1.5311
  892SOL    HW2 2676   0.430   0.341   2.308  0.4966  1.0611 -0.1720
  893SOL     OW 2677   1.685   0.242   2.733  0.4664 -0.3785  0.1603
  893SOL    HW1 2678   1.752   0.319   2.754  1.4853 -0.6539 -0.3459
  893SOL    HW2 2679   1.601   0.285   2.682  1.6352  1.5089 -0.9619
  894SOL     OW 2680   2.123   2.037   0.022 -0.6198  0.3591 -0.0423
  894SOL    HW1 2681   2.082   1.983  -0.061 -0.8349  0.2490 -4.3965
  894SOL    HW2 2682   2.166   1.968   0.086 -1.5393 -0.0536  1.0175
  895SOL     OW 2683   2.827   1.431   0.949 -0.2375 -0.0107 -0.1712
  895SOL    HW1 2684   2.893   1.356   0.978  1.8988 -1.0224 -0.3880
  895SOL    HW2 2685   2.849   1.528   0.983 -2.3146 -2.1826 -0.1541
  896SOL     OW 2686   1.755   1.804   1.189  0.8246  0.1275  0.1264
  896SOL    HW1 2687   1.779   1.749   1.104  0.1174 -0.8039 -0.2299
  896SOL    HW2 2688   1.704   1.890   1.166  2.0729 -0.8452 -0.5914
  897SOL     OW 2689   0.320   0.542   3.059  0.2888 -0.3314  0.0747
  897SOL    HW1 2690   0.263   0.584   2.983  1.6369  1.6416  0.8588
  897SOL    HW2 2691   0.410   0.588   3.079  0.7700  1.8296  2.9132
  898SOL     OW 2692   0.550   2.872   1.088  0.3112  0.0322  0.3931
  898SOL    HW1 2693   0.528   2.972   1.117 -0.8927  0.0550  0.0150
  898SOL    HW2 2694   0.624   2.833   1.153  0.5060 -0.7423 -1.5108
  899SOL     OW 2695   2.829   0.922   1.270  0.3993  0.3326  0.5361
  899SOL    HW1 2696   2.745   0.917   1.209  2.7185 -0.4968  0.3417
  899SOL    HW2 2697   2.908   0.959   1.216 -2.8142  0.4910 -1.7392
  900SOL     OW 2698   0.989   2.534   2.413 -0.1664 -0.0024  0.5273
  900SOL    HW1 2699   0.928   2.543   2.331  0.0842  1.2397  0.2860
  900SOL    HW2 2700   0.945   2.568   2.503 -1.7668 -3.2137 -3.2289
  901SOL     OW 2701   1.905   2.347   1.368  0.5478  0.2131  0.1818
  901SOL    HW1 2702   1.894   2.302   1.273 -0.2615 -1.3912  1.0355
  901SOL    HW2 2703   1.995   2.319   1.408  0.2266 -2.4799  1.7561
  902SOL     OW 2704   2.563   1.658   1.460  0.2373  0.1074  0.1996
  902SOL    HW1 2705   2.597   1.676   1.557  1.0791 -2.2945  0.5128
  902SOL    HW2 2706   2.646   1.635   1.397  0.3481 -1.1608  0.4392
  903SOL     OW 2707   0.246   2.464   1.972 -0.1200  0.1037 -0.2488
  903SOL    HW1 2708   0.153   2.430   1.938  0.3340  1.4072 -1.8482
  903SOL    HW2 2709   0.280   2.541   1.912 -2.7433 -1.4986  0.3384
  904SOL     OW 2710   2.037   0.803   2.529 -0.1684  0.2288 -0.3854
  904SOL    HW1 2711   1.963   0.750   2.584  1.4640  2.3242 -0.7559
  904SOL    HW2 2712   2.024   0.779   2.429  0.9751 -0.0785 -1.1813
  905SOL     OW 2713   2.842   0.121   2.566  0.7311 -0.3523 -0.1693
  905SOL    HW1 2714   2.900   0.037   2.575 -2.2468 -0.6932  1.2562
  905SOL    HW2 2715   2.892   0.206   2.532 -0.4630 -1.1365  2.0118
  906SOL     OW 2716   0.208   1.686   1.923 -0.5041  0.4867 -0.1088
  906SOL    HW1 2717   0.135   1.699   1.847  1.5065 -2.5151 -0.5530
  906SOL    HW2 2718   0.279   1.760   1.939 -1.5620 -0.8591 -1.7035
  907SOL     OW 2719   0.263   2.441   1.032 -0.0061  0.1213  0.1307
  907SOL    HW1 2720   0.359   2.401   1.015  0.8267  0.4354  0.4585
  907SOL    HW2 2721   0.261   2.542   1.010 -2.5704 -0.5478 -1.9785
  908SOL     OW 2722   2.795   2.984   0.355 -0.6063  0.3050 -0.1282
  908SOL    HW1 2723   2.725   3.020   0.284 -0.4053 -1.1298  1.5777
  908SOL    HW2 2724   2.832   2.896   0.322 -1.9792 -0.3226  1.0082
  909SOL     OW 2725   0.815   1.047   2.649 -0.6106 -0.1654 -0.0011
  909SOL    HW1 2726   0.741   0.992   2.603 -2.7773  0.3379 -0.1067
  909SOL    HW2 2727   0.896   1.069   2.587 -0.3966  0.2067 -2.7144
  910SOL     OW 2728   1.768   1.878   2.171 -0.2255 -0.6071 -0.2278
  910SOL    HW1 2729   1.800   1.888   2.068  1.6872  0.6287  0.2855
  910SOL    HW2 2730   1.683   1.937   2.190 -1.6483  0.8705  1.0936
  911SOL     OW 2731   1.813   2.946   1.595  0.1906 -0.0348  0.0343
  911SOL    HW1 2732   1.875   2.924   1.515 -0.4688 -0.5521  1.7508
  911SOL    HW2 2733   1.784   2.861   1.645 -1.5221 -0.8060 -0.9035
  912SOL     OW 2734   2.858   0.993   0.728  0.3040 -0.4429 -0.2506
  912SOL    HW1 2735   2.916   0.982   0.812 -2.0569 -1.2932 -0.8232
  912SOL    HW2 2736   2.824   1.093   0.725  1.3664 -0.0172 -1.3640
  913SOL     OW 2737   2.564   1.285   1.507  0.3821 -0.0107 -0.2845
  913SOL    HW1 2738   2.580   1.182   1.517 -1.3502  0.3888  0.1124
  913SOL    HW2 2739   2.640   1.335   1.463 -0.8706  0.2884  0.0091
  914SOL     OW 2740   2.795   0.610   1.206  0.3807  0.4375  0.3680
  914SOL    HW1 2741   2.768   0.513   1.237 -2.4809 -0.2776  1.1347
  914SOL    HW2 2742   2.751   0.694   1.250  0.8694  0.4824  1.1424
  915SOL     OW 2743   1.177   0.718   1.084 -0.4476  0.8552  0.6948
  915SOL    HW1 2744   1.241   0.782   1.145  1.9636 -1.0552 -2.3706
  915SOL    HW2 2745   1.074   0.731   1.094 -1.3428  1.2139 -0.3396
  916SOL     OW 2746   0.592   0.021   0.623  0.2671 -0.0231 -0.3640
  916SOL    HW1 2747   0.632   0.094   0.684 -0.1076 -0.0692 -2.8878
  916SOL    HW2 2748   0.574   0.056   0.530  1.6725  0.6351 -1.4328
  917SOL     OW 2749   2.848   2.615   1.979 -0.1504  0.2176 -0.0949
  917SOL    HW1 2750   2.749   2.611   1.954  1.8795 -2.4264 -2.3603
  917SOL    HW2 2751   2.894   2.707   1.951 -1.9231  0.0359  1.1194
  918SOL     OW 2752   1.010   2.118   3.045 -0.0388  0.3027  0.5629
  918SOL    HW1 2753   0.988   2.199   3.108  2.7027  1.4252 -1.1876
  918SOL    HW2 2754   1.104   2.109   3.000 -1.2306  1.2176 -1.1352
  919SOL     OW 2755   0.859   1.629   2.878 -0.1381  0.0529  0.5616
  919SOL    HW1 2756   0.895   1.707   2.819 -0.5048  1.1559  3.1859
  919SOL    HW2 2757   0.809   1.558   2.825  0.2161  1.8870  2.1571
  920SOL     OW 2758   1.211   1.860   2.489 -0.7346  0.3258  0.0590
  920SOL    HW1 2759   1.277   1.800   2.431 -0.6449 -1.7238 -1.7516
  920SOL    HW2 2760   1.199   1.834   2.591 -1.7375  0.0942  1.0043
  921SOL     OW 2761   1.048   0.027   2.609  0.3325 -0.2319 -0.1621
  921SOL    HW1 2762   1.027  -0.005   2.512 -1.0598 -2.3234  0.3988
  921SOL    HW2 2763   0.958   0.053   2.663 -1.1186  2.9926  1.9656
  922SOL     OW 2764   2.169   2.385   2.780 -0.7857  0.0311 -0.2273
  922SOL    HW1 2765   2.217   2.292   2.784 -2.5455 -0.6402  1.3575
  922SOL    HW2 2766   2.149   2.427   2.689  0.6101  0.7411  3.2020
  923SOL     OW 2767   1.267   2.660   0.279  0.3588  0.0664 -0.5008
  923SOL    HW1 2768   1.345   2.720   0.305 -2.2807 -1.8168 -1.6633
  923SOL    HW2 2769   1.294   2.563   0.262 -0.3219  1.5024  0.7461
  924SOL     OW 2770   2.844   1.570   0.182  0.5855 -0.6949 -0.4664
  924SOL    HW1 2771   2.794   1.589   0.093 -0.6990  1.0510  1.7708
  924SOL    HW2 2772   2.947   1.571   0.174  0.6793 -1.3687 -0.8123
  925SOL     OW 2773   0.013   2.870   1.503 -0.5216 -0.0968  0.3460
  925SOL    HW1 2774  -0.075   2.914   1.547 -0.0269  0.1309  0.8923
  925SOL    HW2 2775  -0.016   2.799   1.432 -0.6533  1.2954  1.3724
  926SOL     OW 2776   1.301   2.792   1.272  0.1360 -0.0719 -0.5647
  926SOL    HW1 2777   1.368   2.828   1.202 -0.0889 -0.4816  0.8457
  926SOL    HW2 2778   1.274   2.874   1.332  3.7483  1.4428 -0.1940
  927SOL     OW 2779   0.324   2.677   1.779  0.4720 -0.1770  0.0470
  927SOL    HW1 2780   0.313   2.614   1.695 -1.0204 -0.2298  1.6828
  927SOL    HW2 2781   0.296   2.774   1.754 -0.7083 -0.7084 -1.7608
  928SOL     OW 2782   1.557   2.052   2.275 -0.3435  0.0021  0.4520
  928SOL    HW1 2783   1.598   2.143   2.239  1.3350 -0.7862  0.7886
  928SOL    HW2 2784   1.450   2.046   2.273 -3.9265 -2.1184 -1.0906
  929SOL     OW 2785   2.395   2.514   2.867  0.2169 -0.5261  0.0302
  929SOL    HW1 2786   2.307   2.470   2.824  1.0627  0.3177  0.1399
  929SOL    HW2 2787   2.476   2.519   2.799 -1.4649 -1.2319 -1.3627
  930SOL     OW 2788   2.197   2.009   1.087  0.0454 -0.1705 -0.2387
  930SOL    HW1 2789   2.161   1.948   1.161  2.8645  0.5435  0.2684
  930SOL    HW2 2790   2.248   2.096   1.120  4.5274  0.7199  0.6971
  931SOL     OW 2791   0.536   1.714   2.730  0.0500 -0.0307  0.1412
  931SOL    HW1 2792   0.551   1.749   2.826  1.7101 -2.8896  0.0136
  931SOL    HW2 2793   0.596   1.630   2.713  0.1791  1.1099  3.6313
  932SOL     OW 2794   0.486   0.144   3.016 -0.1327 -0.0156 -0.6230
  932SOL    HW1 2795   0.563   0.181   3.067 -0.6435  2.1933  0.4537
  932SOL    HW2 2796   0.496   0.038   3.009  0.6445 -1.0350 -2.1658
  933SOL     OW 2797   1.000   0.800   3.095  0.3604 -0.3669 -0.6941
  933SOL    HW1 2798   1.007   0.821   3.193  0.9745  1.2792 -3.4446
  933SOL    HW2 2799   0.921   0.846   3.047  0.3133  1.3936 -1.4348
  934SOL     OW 2800   0.783   2.964   2.668 -0.0806  0.0037 -0.3737
  934SOL    HW1 2801   0.793   2.907   2.581 -0.5371  2.0702 -2.4283
  934SOL    HW2 2802   0.840   2.928   2.749  0.3923  2.6661 -0.7912
  935SOL     OW 2803   0.037   0.564   0.832 -0.0441  0.2834 -0.2973
  935SOL    HW1 2804   0.043   0.528   0.729  0.2349  0.4361 -2.6804
  935SOL    HW2 2805  -0.060   0.597   0.859  2.0623  0.2005  0.0970
  936SOL     OW 2806   1.122   2.764   0.078 -0.0031  0.4495 -0.0234
  936SOL    HW1 2807   1.182   2.831   0.027 -0.8712 -1.0099  1.0307
  936SOL    HW2 2808   1.175   2.716   0.157 -1.8677 -3.1463 -0.1511
  937SOL     OW 2809   1.894   2.642   2.106 -0.0909 -0.2334 -0.1921
  937SOL    HW1 2810   1.813   2.658   2.162  3.2054 -3.8783  0.8065
  937SOL    HW2 2811   1.902   2.718   2.035  0.4982  0.0063 -0.4168
  938SOL     OW 2812   2.769   2.096   1.611 -0.0260  0.1589  0.1940
  938SOL    HW1 2813   2.762   2.200   1.608  1.0064  2.1671 -1.6141
  938SOL    HW2 2814   2.866   2.066   1.638  0.3886  0.4401 -0.5336
  939SOL     OW 2815   2.880   1.220   2.438  0.4403 -0.2049 -0.3565
  939SOL    HW1 2816   2.918   1.178   2.353 -0.0262  0.8906 -0.1397
  939SOL    HW2 2817   2.888   1.170   2.527  0.7276  1.9028 -0.1581
  940SOL     OW 2818   1.036   0.406   2.742 -0.1252 -0.5882 -0.5204
  940SOL    HW1 2819   1.117   0.344   2.742  1.1649  0.3394  0.4808
  940SOL    HW2 2820   0.963   0.380   2.671 -1.4715  2.0258 -3.0762
  941SOL     OW 2821   0.067   2.787   2.268  0.2383  0.2459  0.1294
  941SOL    HW1 2822   0.113   2.697   2.273 -2.9100  1.4330 -1.8516
  941SOL    HW2 2823   0.119   2.868   2.314  0.4162 -0.6602 -0.8349
  942SOL     OW 2824   0.144   0.060   2.556 -0.0101  0.3410 -0.4398
  942SOL    HW1 2825   0.213   0.079   2.639  1.7904 -2.4682  1.8763
  942SOL    HW2 2826   0.125   0.147   2.500  0.4627  2.5427 -1.3490
  943SOL     OW 2827   2.093   1.655   2.400  0.1281  0.7206  0.3443
  943SOL    HW1 2828   2.098   1.608   2.305 -0.0496 -0.6887 -3.0953
  943SOL    HW2 2829   2.119   1.583   2.474  0.4349  1.0189  1.6276
  944SOL     OW 2830   2.169   2.319   1.456 -0.1379  0.0558  0.4563
  944SOL    HW1 2831   2.251   2.381   1.482  1.4278  1.8259 -1.6397
  944SOL    HW2 2832   2.142   2.245   1.528 -1.9469 -2.9647 -2.3741
  945SOL     OW 2833   0.680   1.506   0.225 -0.3934  0.0967  0.4831
  945SOL    HW1 2834   0.604   1.553   0.170 -1.4661 -1.4449  0.6779
  945SOL    HW2 2835   0.668   1.401   0.241  2.8725 -2.1376 -1.0579
  946SOL     OW 2836   0.433   0.919   2.457 -0.5922 -0.2027 -0.2260
  946SOL    HW1 2837   0.351   0.865   2.419  1.9151  1.2756 -1.3332
  946SOL    HW2 2838   0.409   1.014   2.498  0.1661 -0.7287  0.4690
  947SOL     OW 2839   1.540   0.536   3.079  0.0471 -0.1444 -0.1497
  947SOL    HW1 2840   1.506   0.598   3.010  1.3660  2.2563 -0.5619
  947SOL    HW2 2841   1.472   0.461   3.101 -0.3214 -0.2470  0.8300
  948SOL     OW 2842   1.829   3.035   2.137  0.3014  0.6250  0.5465
  948SOL    HW1 2843   1.856   2.989   2.050  0.6688  0.0999 -2.4095
  948SOL    HW2 2844   1.871   2.998   2.225 -4.0819 -0.0867  0.9329
  949SOL     OW 2845   0.609   2.464   0.485  0.0389 -0.0300  0.1394
  949SOL    HW1 2846   0.612   2.568   0.478  0.0880  0.3839 -0.0280
  949SOL    HW2 2847   0.598   2.442   0.585  0.1067 -3.4949  0.0644
  950SOL     OW 2848   0.199   2.229   3.060 -0.2529 -0.5832  0.5558
  950SOL    HW1 2849   0.132   2.294   3.013 -0.8780  0.4757 -1.3818
  950SOL    HW2 2850   0.234   2.160   2.992  0.4734 -0.0066  3.0339
  951SOL     OW 2851   1.226   2.684   2.785  0.6298 -0.0452 -0.6085
  951SOL    HW1 2852   1.285   2.686   2.871 -1.2649  0.3889  0.0293
  951SOL    HW2 2853   1.281   2.674   2.695  2.8946 -1.8436 -2.4654
  952SOL     OW 2854   0.009   1.688   0.383 -0.3434  0.6160 -0.4560
  952SOL    HW1 2855   0.095   1.751   0.381  4.2651  2.0392 -0.4310
  952SOL    HW2 2856   0.003   1.628   0.462  1.0807  2.7597  4.2505
  953SOL     OW 2857   2.540   1.805   0.209  0.0744 -0.7534 -0.4121
  953SOL    HW1 2858   2.533   1.706   0.240  0.9611  2.0064  2.1226
  953SOL    HW2 2859   2.519   1.831   0.112 -2.6140 -0.4906 -1.2433
  954SOL     OW 2860   2.229   0.535   0.912  0.1144  0.1666  0.4171
  954SOL    HW1 2861   2.223   0.576   0.815 -2.6549 -0.5643  1.8073
  954SOL    HW2 2862   2.328   0.532   0.945  0.1343  0.2146 -1.1025
  955SOL     OW 2863   0.176   2.598   1.315 -0.2146 -0.0696 -0.4123
  955SOL    HW1 2864   0.079   2.631   1.315  0.2036 -1.4090 -1.9634
  955SOL    HW2 2865   0.235   2.620   1.229  2.7856 -1.2405 -1.0343
  956SOL     OW 2866   2.843   2.445   2.518 -0.2345 -0.2905 -0.3796
  956SOL    HW1 2867   2.841   2.349   2.485 -0.3369 -0.9285  0.0014
  956SOL    HW2 2868   2.830   2.520   2.448  0.3754 -0.4213  1.6507
  957SOL     OW 2869   1.669   2.053   2.777 -0.4132  0.3011  0.0297
  957SOL    HW1 2870   1.603   1.975   2.805 -0.0595 -2.2588  1.6732
  957SOL    HW2 2871   1.684   2.060   2.673 -0.5366  2.6412  0.6313
  958SOL     OW 2872   2.549   2.297   3.004  0.0349  0.4776 -0.2008
  958SOL    HW1 2873   2.473   2.343   2.957  0.0219  0.5788  0.5326
  958SOL    HW2 2874   2.512   2.257   3.092  0.2173 -1.8643 -0.8209
  959SOL     OW 2875   0.249   2.803   0.049 -0.1165 -0.0617  0.0608
  959SOL    HW1 2876   0.159   2.773   0.002 -2.2181  1.5216  0.2796
  959SOL    HW2 2877   0.291   2.730   0.111 -0.1811 -1.0782  2.7654
  960SOL     OW 2878   1.988   0.489   1.936  0.6325  0.0725 -0.1387
  960SOL    HW1 2879   1.912   0.560   1.919  3.6536  0.2750  2.0865
  960SOL    HW2 2880   2.009   0.490   2.038  4.1047  0.9299 -0.4994
  961SOL     OW 2881   2.561   1.864   0.994  0.0117 -0.3391 -0.1595
  961SOL    HW1 2882   2.588   1.960   0.978 -1.1856 -2.2321  1.5334
  961SOL    HW2 2883   2.518   1.851   1.088  1.2410  2.5082  0.6184
  962SOL     OW 2884   1.319   0.930   0.034  0.0235  0.2336  0.0961
  962SOL    HW1 2885   1.266   0.960  -0.051 -0.2464  3.0340  0.4652
  962SOL    HW2 2886   1.333   1.001   0.106  0.1704  0.2653 -0.7032
  963SOL     OW 2887   2.219   2.569   1.815 -0.3024 -0.1831  0.6948
  963SOL    HW1 2888   2.166   2.483   1.843  0.1788 -0.4605  1.1965
  963SOL    HW2 2889   2.223   2.636   1.890  0.1059  0.2600  2.0089
  964SOL     OW 2890   2.354   0.387   1.668 -0.0815 -0.4555  0.2691
  964SOL    HW1 2891   2.441   0.386   1.720 -0.6447 -0.4072 -1.8332
  964SOL    HW2 2892   2.375   0.360   1.570 -0.8405  2.3219  0.8602
  965SOL     OW 2893   2.640   3.050   0.141  0.1043  0.6737 -0.0196
  965SOL    HW1 2894   2.713   3.035   0.071 -1.0481  1.0971  0.6494
  965SOL    HW2 2895   2.544   3.073   0.106  1.1418 -0.0147  0.7973
  966SOL     OW 2896   2.619   2.575   2.204  0.7130  0.3361 -0.5935
  966SOL    HW1 2897   2.699   2.621   2.250  0.0129  0.0646  1.3725
  966SOL    HW2 2898   2.534   2.634   2.193 -1.3727 -1.9313 -1.2070
  967SOL     OW 2899   2.776   2.831   2.488  0.8414 -0.0175  0.4321
  967SOL    HW1 2900   2.822   2.776   2.413  0.7833  1.3531 -0.8586
  967SOL    HW2 2901   2.842   2.896   2.535  0.0686  0.1356 -1.5149
  968SOL     OW 2902   1.898   1.055   2.625 -0.0160 -0.1873  0.4994
  968SOL    HW1 2903   1.823   1.092   2.565  0.5187  0.9999 -1.1666
  968SOL    HW2 2904   1.955   0.971   2.587  1.9983 -3.3527 -0.9362
  969SOL     OW 2905   2.855   2.490   1.110  0.1626 -1.1702  0.4327
  969SOL    HW1 2906   2.801   2.471   1.023 -0.7414  0.4702  1.5723
  969SOL    HW2 2907   2.872   2.406   1.172  0.1308 -1.6527  0.4176
  970SOL     OW 2908   1.019   2.087   1.805  0.0285 -0.1615  0.5250
  970SOL    HW1 2909   0.940   2.096   1.738  1.3749  0.6245  0.8881
  970SOL    HW2 2910   1.004   2.132   1.897 -0.9213  0.5675 -0.4500
  971SOL     OW 2911   2.929   2.092   1.963  0.0067  0.7850 -0.7212
  971SOL    HW1 2912   2.889   2.186   1.967 -0.2842  0.3650 -0.0329
  971SOL    HW2 2913   2.975   2.059   1.874 -0.0760 -1.4801  3.5759
  972SOL     OW 2914   1.979   2.482   0.246  0.1560 -0.1053  0.0008
  972SOL    HW1 2915   1.963   2.411   0.177 -0.2887  0.2401 -1.7285
  972SOL    HW2 2916   2.003   2.440   0.337  0.9012  2.4131 -1.6454
  973SOL     OW 2917   1.274   1.042   1.895  0.3293 -0.3771  0.1813
  973SOL    HW1 2918   1.224   1.051   1.804  0.7029  2.8316 -0.0709
  973SOL    HW2 2919   1.260   1.123   1.961 -0.8009 -3.1107  2.9569
  974SOL     OW 2920   1.619   0.547   1.981  0.1190 -0.0162  0.4778
  974SOL    HW1 2921   1.708   0.603   1.963 -1.6490  1.6557 -0.4309
  974SOL    HW2 2922   1.539   0.612   1.971  3.1822  2.0577 -2.3581
  975SOL     OW 2923   2.356   3.049   0.054 -0.0366 -0.0933  0.4221
  975SOL    HW1 2924   2.297   2.981   0.103  0.4545 -0.2523 -0.9288
  975SOL    HW2 2925   2.336   3.066  -0.045  0.4068 -0.3653  0.8657
  976SOL     OW 2926   1.905   2.856   2.353 -0.0989 -0.1432  0.4185
  976SOL    HW1 2927   1.814   2.812   2.334  1.6723  1.4681  1.8912
  976SOL    HW2 2928   1.971   2.789   2.401  0.2410 -1.7383  1.2969
  977SOL     OW 2929   0.466   0.658   1.019 -0.4526 -0.4048 -0.4531
  977SOL    HW1 2930   0.383   0.690   0.961  2.7591 -0.6941 -3.0928
  977SOL    HW2 2931   0.554   0.659   0.963 -2.9626 -0.2144 -2.8467
   3.10000   3.10000   3.10000
