1000 SPC/Fw water molecules t=   1.12000 step= 1120
 2931
    1SOL     OW    1   2.562   0.338   2.626  0.2418 -0.1495 -0.8259
    1SOL    HW1    2   2.545   0.239   2.601  1.6939 -0.1895 -0.6526
    1SOL    HW2    3   2.610   0.342   2.719 -2.7459  0.9168  2.9679
    2SOL     OW    4   2.745   3.018   1.388  0.6237  0.0314 -0.1381
    2SOL    HW1    5   2.836   3.036   1.341  1.3284  1.6160 -1.8796
    2SOL    HW2    6   2.713   3.100   1.440 -0.4311  0.2541 -0.9117
    3SOL     OW    7   2.608   2.608   0.435  0.1556 -0.1593 -0.1864
    3SOL    HW1    8   2.609   2.501   0.430  1.8265 -2.1388  0.4956
    3SOL    HW2    9   2.676   2.644   0.504 -1.2404  0.8932  1.4398
    4SOL     OW   10   1.226   1.550   2.343 -0.1192 -0.3095  0.5950
    4SOL    HW1   11   1.156   1.569   2.274 -0.6567 -1.4521  1.6806
    4SOL    HW2   12   1.214   1.459   2.392  2.9950 -3.0143  1.0487
    5SOL     OW   13   1.144   1.550   3.025 -0.8604  0.5982  0.4911
    5SOL    HW1   14   1.212   1.623   3.049 -0.7938  1.3189  2.1930
    5SOL    HW2   15   1.046   1.587   3.026  0.8015  0.6265 -2.3175
    6SOL     OW   16   0.181   1.740   2.984  0.7355  0.0372 -0.2207
    6SOL    HW1   17   0.102   1.771   3.050 -0.5732 -0.4016  2.5875
    6SOL    HW2   18   0.270   1.739   3.033  0.8438  1.8950  2.3517
    7SOL     OW   19   2.567   0.904   1.060 -0.3006 -0.1566 -0.0439
    7SOL    HW1   20   2.483   0.873   1.116 -1.3733 -1.4426  0.3687
    7SOL    HW2   21   2.575   0.858   0.966 -0.9131  1.7956 -1.7868
    8SOL     OW   22   0.418   0.606   1.490  0.6814 -0.1235 -0.7638
    8SOL    HW1   23   0.520   0.588   1.497  2.3220  0.7999 -0.6260
    8SOL    HW2   24   0.380   0.586   1.393 -0.3412  1.4653  1.0129
    9SOL     OW   25   1.206   0.929   2.427  0.3251 -0.2778  0.2732
    9SOL    HW1   26   1.227   0.934   2.326 -0.2308  0.9441 -2.0089
    9SOL    HW2   27   1.154   0.839   2.442 -0.1899 -0.6237  2.5038
   10SOL     OW   28   0.662   1.371   1.307 -0.1421 -0.1761  0.1282
   10SOL    HW1   29   0.569   1.399   1.266 -0.1671  0.0475 -2.2228
   10SOL    HW2   30   0.722   1.456   1.315 -3.5597 -2.6734  1.5610
   11SOL     OW   31   2.314   2.818   0.847  0.1940  0.3392  0.0852
   11SOL    HW1   32   2.284   2.836   0.942  1.9053 -1.1132 -3.7919
   11SOL    HW2   33   2.409   2.788   0.841 -0.9608 -1.0855  0.9827
   12SOL     OW   34   1.508   0.858   0.400 -0.4412 -0.2061  1.2154
   12SOL    HW1   35   1.433   0.915   0.360 -0.8140 -1.0754  1.3991
   12SOL    HW2   36   1.522   0.764   0.353  0.5617 -0.8882 -1.0819
   13SOL     OW   37   2.472   0.712   1.772 -0.1943 -0.1015 -0.0325
   13SOL    HW1   38   2.390   0.662   1.820  0.7424 -1.1232  1.7681
   13SOL    HW2   39   2.465   0.700   1.668  0.6123  3.6978  2.1758
   14SOL     OW   40   1.844   0.098   0.684 -0.1855  0.0106  0.2140
   14SOL    HW1   41   1.749   0.107   0.639 -0.0729 -0.1435  0.2599
   14SOL    HW2   42   1.868   0.003   0.718  1.1689 -0.8422 -1.9423
   15SOL     OW   43   1.918   2.091   2.735 -1.2577  0.0864  0.0965
   15SOL    HW1   44   1.862   2.177   2.728 -2.8524 -1.0518  1.0749
   15SOL    HW2   45   1.898   2.023   2.661  0.7191  2.9822 -0.8774
   16SOL     OW   46   1.623   1.696   2.994 -0.2778 -0.0933  0.4073
   16SOL    HW1   47   1.609   1.611   3.051 -1.1316  2.7151 -0.2526
   16SOL    HW2   48   1.715   1.737   2.998 -1.1423 -1.4850 -1.6226
   17SOL     OW   49   0.073   0.451   0.155 -0.2136  0.0813 -0.2846
   17SOL    HW1   50   0.157   0.496   0.108 -3.2742  0.0875  2.6723
   17SOL    HW2   51  -0.016   0.471   0.101 -0.2980 -0.2345 -0.3288
   18SOL     OW   52   0.924   2.951   2.138 -0.1068  0.3618 -0.1952
   18SOL    HW1   53   0.832   2.907   2.134  1.1296 -0.7312  1.2830
   18SOL    HW2   54   1.000   2.905   2.079 -1.5310  0.2902  2.5604
   19SOL     OW   55   0.530   0.817   1.889 -0.6102  0.2607 -0.4754
   19SOL    HW1   56   0.555   0.771   1.979 -3.9417 -1.2242 -2.9246
   19SOL    HW2   57   0.584   0.899   1.871 -0.8794 -0.6337 -0.7599
   20SOL     OW   58   0.183   2.795   0.866  0.0054  0.2290 -0.4374
   20SOL    HW1   59   0.095   2.845   0.843  1.9160 -2.0367 -0.9310
   20SOL    HW2   60   0.212   2.731   0.790  0.2201  0.8987  0.6682
   21SOL     OW   61   2.693   0.260   2.000  0.3131 -0.2331 -0.5329
   21SOL    HW1   62   2.655   0.190   1.937 -1.4484 -2.1541  1.3680
   21SOL    HW2   63   2.756   0.216   2.069 -0.6776  0.2523 -1.1342
   22SOL     OW   64   2.329   0.265   0.148 -0.0316 -0.9640 -0.7657
   22SOL    HW1   65   2.321   0.166   0.125  0.0296  1.3179  0.3491
   22SOL    HW2   66   2.254   0.324   0.098 -0.4882 -0.1827  0.2741
   23SOL     OW   67   2.788   0.592   0.628 -0.0530  0.0301  0.4618
   23SOL    HW1   68   2.781   0.486   0.618  1.3535  1.9088  0.0610
   23SOL    HW2   69   2.740   0.651   0.559  0.2478  0.0912  2.4977
   24SOL     OW   70   0.226   1.941   0.427  0.4441 -0.0346  0.0599
   24SOL    HW1   71   0.186   2.004   0.357  0.9514 -2.5904  3.0483
   24SOL    HW2   72   0.323   1.905   0.396 -2.4743 -2.0775  0.3541
   25SOL     OW   73   2.249   0.656   0.245  0.0452  0.4078 -0.6162
   25SOL    HW1   74   2.239   0.683   0.146 -0.5895  0.7022  1.6785
   25SOL    HW2   75   2.300   0.565   0.261  1.2325 -0.3969  0.6724
   26SOL     OW   76   2.475   2.165   2.058  0.1565  0.2508 -0.4780
   26SOL    HW1   77   2.550   2.222   2.101 -4.1474  0.0286  1.1059
   26SOL    HW2   78   2.504   2.078   2.009 -1.0565  0.8861  0.0433
   27SOL     OW   79   0.587   2.901   0.210  0.3777 -0.0572  0.6345
   27SOL    HW1   80   0.691   2.904   0.212  0.5554 -0.2981  3.8246
   27SOL    HW2   81   0.547   2.885   0.112 -1.0214 -2.0680  0.6139
   28SOL     OW   82   1.586   0.178   0.296 -0.1920  0.0165 -0.0240
   28SOL    HW1   83   1.639   0.148   0.209 -1.7209 -0.4975 -0.8986
   28SOL    HW2   84   1.611   0.274   0.331  1.9860 -0.4127  2.7810
   29SOL     OW   85   1.974   0.576   0.327 -0.3916 -0.4061 -0.2831
   29SOL    HW1   86   1.938   0.673   0.355  1.1754  1.0786  2.1806
   29SOL    HW2   87   2.075   0.583   0.293 -0.2140  3.3523  0.2606
   30SOL     OW   88   0.157   2.052   0.927  0.5710  0.7523 -0.1466
   30SOL    HW1   89   0.146   2.006   0.833 -0.7242  1.6604 -0.3164
   30SOL    HW2   90   0.090   2.127   0.954  0.7724 -1.1062  0.8706
   31SOL     OW   91   2.145   0.009   2.380 -0.4583  0.5958  0.2183
   31SOL    HW1   92   2.074   0.016   2.457 -1.1866  1.8148  1.2915
   31SOL    HW2   93   2.104  -0.020   2.291 -0.2601 -2.1136  0.5395
   32SOL     OW   94   2.991   0.027   0.217  0.2592 -0.5367 -0.7532
   32SOL    HW1   95   2.983  -0.077   0.224  1.8979  2.4859 -2.1470
   32SOL    HW2   96   3.086   0.057   0.246  0.6798 -0.6761  1.2448
   33SOL     OW   97   0.893   0.335   0.594 -0.7186  0.3381  0.4114
   33SOL    HW1   98   0.860   0.258   0.534  1.9112  0.3783 -0.9778
   33SOL    HW2   99   0.997   0.353   0.580  1.3663  0.9838  1.9179
   34SOL     OW  100   0.343   2.721   1.082  0.1509 -0.1846  0.0549
   34SOL    HW1  101   0.281   2.715   1.003  0.4963  0.5980  0.9149
   34SOL    HW2  102   0.425   2.778   1.057 -0.6647  0.3320 -1.3511
   35SOL     OW  103   0.030   0.106   1.898  0.7411 -0.1815 -0.0582
   35SOL    HW1  104   0.088   0.025   1.925  1.9460 -0.3872  0.2263
   35SOL    HW2  105   0.023   0.113   1.794  2.5703 -0.3130 -1.1121
   36SOL     OW  106   1.928   1.252   1.626 -0.0726 -0.5895 -0.3404
   36SOL    HW1  107   1.991   1.175   1.618 -0.9295  1.1480 -0.9960
   36SOL    HW2  108   1.944   1.328   1.558  2.2292 -2.1910 -1.6270
   37SOL     OW  109   1.172   0.232   0.971 -0.1555  0.5263 -0.0385
   37SOL    HW1  110   1.205   0.324   1.016  0.1667  0.8173  0.5147
   37SOL    HW2  111   1.256   0.181   0.928  1.4805  0.5610 -2.3581
   38SOL     OW  112   1.143   2.812   2.401  0.3433 -0.0355 -0.5813
   38SOL    HW1  113   1.079   2.731   2.371  1.7804  2.2243 -2.1149
   38SOL    HW2  114   1.093   2.903   2.400 -3.1469 -0.0657 -0.0604
   39SOL     OW  115   2.312   1.449   3.059  0.4164 -0.3491  0.2559
   39SOL    HW1  116   2.368   1.365   3.056 -0.4415  1.0746  1.4328
   39SOL    HW2  117   2.295   1.477   3.156 -0.7882 -1.4278 -1.8932
   40SOL     OW  118   1.991   2.443   2.569  0.3829  0.4751  1.0504
   40SOL    HW1  119   2.004   2.544   2.538 -0.1698 -0.3407  0.3938
   40SOL    HW2  120   1.920   2.392   2.516 -0.9470  2.4735  0.9532
   41SOL     OW  121   3.026   0.670   2.808 -0.1911 -0.2543 -0.2164
   41SOL    HW1  122   2.946   0.735   2.803  2.1336 -0.2172  0.9014
   41SOL    HW2  123   3.019   0.590   2.736  1.2773 -0.2449 -0.5263
   42SOL     OW  124   1.771   1.801   0.467 -0.3007  0.1020  0.5497
   42SOL    HW1  125   1.700   1.728   0.479  0.3802 -1.2747  1.2468
   42SOL    HW2  126   1.776   1.833   0.366  0.9857  1.6690 -2.3394
   43SOL     OW  127   0.418   1.691   1.144 -0.1020 -0.3234  0.3689
   43SOL    HW1  128   0.433   1.601   1.194  0.0050  2.5694  1.0832
   43SOL    HW2  129   0.324   1.733   1.156 -1.6007  0.2341  2.4221
   44SOL     OW  130   1.716   2.373   3.005 -0.4382 -0.6514 -0.5911
   44SOL    HW1  131   1.632   2.431   3.018  1.9613  0.5096  1.2296
   44SOL    HW2  132   1.740   2.364   2.907 -1.5760  0.4817  2.6165
   45SOL     OW  133   0.351   1.903   2.627 -0.3306 -0.3222 -0.1020
   45SOL    HW1  134   0.317   1.913   2.528  1.6153  1.8976 -1.4991
   45SOL    HW2  135   0.409   1.818   2.644  1.6654 -0.1860 -2.7764
   46SOL     OW  136   1.278   0.620   0.144  0.5401 -0.0678  0.0523
   46SOL    HW1  137   1.295   0.720   0.117  1.2576 -1.5656 -0.9466
   46SOL    HW2  138   1.181   0.600   0.154  0.7123  1.7188 -0.8462
   47SOL     OW  139   0.231   2.529   1.554  0.3153 -0.3014  0.4452
   47SOL    HW1  140   0.171   2.448   1.575 -0.9317 -1.5354 -1.4768
   47SOL    HW2  141   0.230   2.553   1.457 -1.4343 -2.1085  3.0440
   48SOL     OW  142   2.632   0.629   0.138  0.2471  0.2747  0.2585
   48SOL    HW1  143   2.646   0.606   0.241  1.5279  2.1673 -0.7759
   48SOL    HW2  144   2.708   0.685   0.102 -0.3842 -0.8702 -0.3835
   49SOL     OW  145   0.301   0.746   1.720  0.6038  0.1066 -0.5574
   49SOL    HW1  146   0.369   0.768   1.795 -0.6225 -3.6025 -0.9108
   49SOL    HW2  147   0.352   0.694   1.645  3.0806  0.0443  0.2719
   50SOL     OW  148   1.679   1.131   0.348  0.0017 -0.5042  0.0012
   50SOL    HW1  149   1.656   1.054   0.284 -0.2580  2.0702  1.9175
   50SOL    HW2  150   1.628   1.129   0.437  1.0240  1.7382 -3.2078
   51SOL     OW  151   2.954   1.749   0.260  0.9935 -0.0440  0.6098
   51SOL    HW1  152   2.909   1.661   0.221  4.0110 -1.9985 -0.9197
   51SOL    HW2  153   3.031   1.736   0.326 -1.8877  2.1320 -1.2430
   52SOL     OW  154   0.802   2.111   0.588  0.2361  0.4992  0.3003
   52SOL    HW1  155   0.702   2.134   0.594 -1.6090  0.8383  2.0058
   52SOL    HW2  156   0.824   2.018   0.628 -1.5270  2.7144 -1.5799
   53SOL     OW  157   0.242   0.426   1.596 -0.3723 -0.0754  0.1848
   53SOL    HW1  158   0.307   0.499   1.561 -0.3051 -2.3360  0.8316
   53SOL    HW2  159   0.149   0.465   1.599 -0.1916 -0.9203  0.3005
   54SOL     OW  160   1.817   0.499   3.054  0.4393 -0.4836 -0.0084
   54SOL    HW1  161   1.878   0.463   3.132 -1.0792  0.2794  0.4301
   54SOL    HW2  162   1.715   0.497   3.093  0.4159  1.1544 -0.3377
   55SOL     OW  163   0.770   2.880   0.692  0.4789  0.5052 -0.7270
   55SOL    HW1  164   0.712   2.964   0.714 -0.4234 -2.1936  1.7058
   55SOL    HW2  165   0.862   2.908   0.651  0.8257 -1.8406  1.6250
   56SOL     OW  166   0.620   1.579   0.011 -0.2291  0.7949  0.3082
   56SOL    HW1  167   0.532   1.604   0.061  1.0789  0.3200 -1.4096
   56SOL    HW2  168   0.609   1.494  -0.045 -1.2110  0.2476  1.3391
   57SOL     OW  169   1.740   2.520   2.337 -0.1657 -0.5423 -0.2005
   57SOL    HW1  170   1.775   2.425   2.334 -1.9061  3.3462  0.8181
   57SOL    HW2  171   1.669   2.537   2.409 -2.6225 -0.5561  0.5544
   58SOL     OW  172   0.698   0.291   1.072 -0.5038  0.3019 -0.2721
   58SOL    HW1  173   0.601   0.307   1.113 -2.7061  2.0808  0.9720
   58SOL    HW2  174   0.739   0.203   1.101  0.6608  0.2793  1.1349
   59SOL     OW  175   0.397   2.300   2.725  0.0297  0.0054  0.0132
   59SOL    HW1  176   0.432   2.206   2.708  1.3504  1.2343 -0.2645
   59SOL    HW2  177   0.470   2.352   2.780  3.4602  1.0503  0.1285
   60SOL     OW  178   2.325   2.098   2.286 -0.0315  0.2143  0.5573
   60SOL    HW1  179   2.398   2.131   2.223 -4.2489 -2.0081  0.9711
   60SOL    HW2  180   2.308   2.146   2.376  1.4760  0.3116 -0.3150
   61SOL     OW  181   1.278   0.597   0.445 -0.6922 -0.8713 -0.0987
   61SOL    HW1  182   1.183   0.639   0.465 -1.9608 -0.2694 -1.6436
   61SOL    HW2  183   1.311   0.614   0.346 -2.4857  1.1763  2.4819
   62SOL     OW  184   2.715   1.775   2.925  0.0439 -0.5600 -0.0362
   62SOL    HW1  185   2.669   1.745   2.837  1.3823  2.6891 -1.6477
   62SOL    HW2  186   2.814   1.786   2.910 -1.0891 -2.5792 -0.0231
   63SOL     OW  187   0.522   0.809   0.204  0.0311  0.2867  0.2843
   63SOL    HW1  188   0.582   0.886   0.161  1.5677  1.7212  2.3859
   63SOL    HW2  189   0.511   0.816   0.309  0.0364 -1.7768  1.3783
   64SOL     OW  190   0.037   0.436   2.452 -0.9287  0.7157 -0.2929
   64SOL    HW1  191   0.130   0.474   2.456 -0.2025  0.7558  0.3172
   64SOL    HW2  192  -0.031   0.495   2.408 -0.8532 -1.1075  4.3018
   65SOL     OW  193   0.174   1.501   0.606  0.1063 -0.3916  0.6606
   65SOL    HW1  194   0.196   1.566   0.682 -1.6727  2.2886  2.9069
   65SOL    HW2  195   0.256   1.461   0.556 -0.0115  1.6692 -0.8878
   66SOL     OW  196   2.545   0.363   0.568  0.0002  0.3713 -0.6800
   66SOL    HW1  197   2.641   0.334   0.598 -0.8215 -2.7599  1.3126
   66SOL    HW2  198   2.470   0.306   0.617 -2.4373  1.0466  3.5293
   67SOL     OW  199   0.560   2.472   1.441  0.0253 -0.0877 -0.4096
   67SOL    HW1  200   0.646   2.428   1.475  0.3351  0.8694  1.5867
   67SOL    HW2  201   0.483   2.401   1.426  0.5246 -1.9991  0.6553
   68SOL     OW  202   0.974   1.047   2.516 -0.2994 -0.6276  0.5526
   68SOL    HW1  203   1.057   0.987   2.506 -2.7827 -0.1368  0.3769
   68SOL    HW2  204   0.935   1.087   2.431  0.1503 -1.4831  4.3903
   69SOL     OW  205   0.699   2.796   2.156 -0.2042  0.2780  0.1545
   69SOL    HW1  206   0.743   2.704   2.143 -0.5423 -1.8181 -0.9088
   69SOL    HW2  207   0.601   2.788   2.173  1.8606  3.5462 -2.2588
   70SOL     OW  208   0.482   0.190   2.604  0.2387 -0.4192 -0.6287
   70SOL    HW1  209   0.380   0.174   2.626  0.2776 -0.7448 -1.2404
   70SOL    HW2  210   0.538   0.105   2.628  1.1612 -3.1201 -1.0701
   71SOL     OW  211   1.116   1.796   0.390 -0.3180  0.3451 -0.3579
   71SOL    HW1  212   1.083   1.719   0.451 -1.8599  3.4784 -2.0096
   71SOL    HW2  213   1.058   1.795   0.303 -2.0788 -0.6663 -2.4386
   72SOL     OW  214   1.815   0.199   2.162 -0.0954 -0.0665  0.0512
   72SOL    HW1  215   1.871   0.291   2.161 -0.2545  1.8629 -0.9123
   72SOL    HW2  216   1.873   0.117   2.142 -5.2024  1.8343 -0.3132
   73SOL     OW  217   2.814   2.190   2.387  0.0234  0.4225 -0.0615
   73SOL    HW1  218   2.830   2.095   2.356 -1.8996 -0.5931 -0.0765
   73SOL    HW2  219   2.844   2.207   2.489  0.4711  1.6752  0.9344
   74SOL     OW  220   2.674   2.850   2.184 -0.3256  0.1002  0.2489
   74SOL    HW1  221   2.653   2.829   2.286 -0.6260 -0.3067  0.8285
   74SOL    HW2  222   2.757   2.903   2.164 -3.2409  1.3677  0.1905
   75SOL     OW  223   0.973   0.839   1.111  0.3569 -0.2807 -0.2551
   75SOL    HW1  224   0.903   0.869   1.041  0.2088  0.1768 -0.0806
   75SOL    HW2  225   0.980   0.889   1.206  0.2747  2.7856 -0.5987
   76SOL     OW  226   1.748   1.192   2.489  1.1839 -0.1447 -0.5341
   76SOL    HW1  227   1.644   1.170   2.468  0.1465 -2.4807 -0.3206
   76SOL    HW2  228   1.762   1.285   2.536 -0.8906 -0.1722  1.7750
   77SOL     OW  229   2.931   0.956   1.007  0.1375 -0.3568  0.1782
   77SOL    HW1  230   2.896   0.860   0.989 -0.5726 -0.6224  1.3204
   77SOL    HW2  231   2.998   0.958   1.088  1.3236  0.7297  2.0769
   78SOL     OW  232   1.998   1.486   1.461 -0.1304  0.1652  0.5134
   78SOL    HW1  233   2.101   1.507   1.442  0.9489  2.3211 -1.9917
   78SOL    HW2  234   1.932   1.493   1.381 -2.4263 -0.2923  0.5536
   79SOL     OW  235   0.620   1.411   0.787  0.0384  0.3803 -0.0479
   79SOL    HW1  236   0.525   1.399   0.820  3.0643 -2.5827 -1.3585
   79SOL    HW2  237   0.649   1.347   0.705  0.0260  0.0357  1.6170
   80SOL     OW  238   0.656   0.469   1.551  0.1475 -0.7838 -0.5255
   80SOL    HW1  239   0.701   0.523   1.475  1.2252  0.2270 -0.6958
   80SOL    HW2  240   0.642   0.368   1.527  2.3515  0.2799 -2.1229
   81SOL     OW  241   1.049   1.308   2.625  0.2060 -0.1730  0.4642
   81SOL    HW1  242   1.049   1.215   2.583  1.4556  0.5599 -1.1095
   81SOL    HW2  243   1.003   1.378   2.564 -0.9412 -1.9445 -3.0386
   82SOL     OW  244   0.950   3.010   1.528 -0.4080 -0.0563 -0.4912
   82SOL    HW1  245   0.858   2.977   1.492 -1.5811 -1.2276 -0.6607
   82SOL    HW2  246   1.027   3.007   1.459  0.4471  0.3362  0.2969
   83SOL     OW  247   2.624   2.391   0.838  0.0867 -0.2459 -0.3011
   83SOL    HW1  248   2.516   2.392   0.842 -3.0330 -0.1860  2.3321
   83SOL    HW2  249   2.660   2.380   0.746  0.6970 -2.0808 -0.1321
   84SOL     OW  250   0.664   3.058   2.402  0.7821  0.3826 -0.0851
   84SOL    HW1  251   0.603   3.077   2.484 -0.4074  2.3471 -0.3355
   84SOL    HW2  252   0.705   2.968   2.404  1.0771  2.3950 -1.6952
   85SOL     OW  253   0.289   1.610   1.438  0.0869 -0.2933  0.1436
   85SOL    HW1  254   0.263   1.709   1.418 -3.7708 -2.2112 -0.8136
   85SOL    HW2  255   0.338   1.591   1.529 -2.5132  1.1255 -1.8026
   86SOL     OW  256   0.458   1.055   1.508  0.3192  0.8228 -0.7627
   86SOL    HW1  257   0.411   1.016   1.422  0.6159 -0.5966 -1.6947
   86SOL    HW2  258   0.557   1.026   1.522  0.1841 -1.8429  0.3027
   87SOL     OW  259   1.611   0.652   0.247  0.9786  0.1195  0.4569
   87SOL    HW1  260   1.680   0.734   0.226  1.8857  1.8193  1.3736
   87SOL    HW2  261   1.605   0.588   0.167  0.3181 -1.4108 -0.3002
   88SOL     OW  262   1.540   1.360   0.273  1.2090  0.2401  0.1215
   88SOL    HW1  263   1.593   1.283   0.323 -0.6933 -0.6874  1.8888
   88SOL    HW2  264   1.433   1.349   0.285 -0.8790  1.2415  0.1420
   89SOL     OW  265   3.093   0.440   0.583  0.3550 -0.5957 -0.0340
   89SOL    HW1  266   3.140   0.352   0.567  1.5754 -2.6296  1.0912
   89SOL    HW2  267   2.989   0.432   0.580 -0.3659  0.1290 -0.9214
   90SOL     OW  268   0.888   1.562   0.052  0.2239  0.3348 -0.0908
   90SOL    HW1  269   0.892   1.494   0.129 -2.3736 -2.1363 -0.2340
   90SOL    HW2  270   0.792   1.569   0.009  0.7121  0.3134 -1.0829
   91SOL     OW  271   1.236   1.479   1.789 -0.0616  0.1148 -0.3075
   91SOL    HW1  272   1.202   1.553   1.855  0.0760 -1.8730  1.3581
   91SOL    HW2  273   1.338   1.471   1.792 -3.6448  0.1239 -1.0356
   92SOL     OW  274   3.095   0.949   1.234  0.1307  0.3351 -0.3060
   92SOL    HW1  275   3.147   1.030   1.196  2.1029  0.2087 -1.1285
   92SOL    HW2  276   3.104   0.952   1.338 -1.5690  2.7874  0.5822
   93SOL     OW  277   3.071   2.738   0.046  0.2389 -0.3468  0.4708
   93SOL    HW1  278   3.048   2.754  -0.052 -1.2774 -2.3485  2.0618
   93SOL    HW2  279   3.081   2.639   0.069 -1.6304  0.9243 -0.2450
   94SOL     OW  280   1.495   1.468   1.815  0.0514 -0.0950  0.2957
   94SOL    HW1  281   1.578   1.412   1.794  0.5663  2.3584  1.3963
   94SOL    HW2  282   1.522   1.555   1.861  3.2760  1.0723 -0.2356
   95SOL     OW  283   1.450   2.509   2.993  0.4498 -0.0137 -0.4101
   95SOL    HW1  284   1.375   2.542   3.051  2.9040 -1.1766 -1.5487
   95SOL    HW2  285   1.438   2.407   2.965  0.6116  0.0710 -0.4810
   96SOL     OW  286   0.559   2.103   1.319 -0.2062 -0.0767 -0.0464
   96SOL    HW1  287   0.520   2.049   1.240  2.7085 -0.3873  0.0860
   96SOL    HW2  288   0.629   2.045   1.371  0.7848  0.4898 -0.5024
   97SOL     OW  289   0.324   1.620   2.444 -0.5539  0.2186  0.2229
   97SOL    HW1  290   0.271   1.708   2.420 -3.7467  1.2477 -3.1830
   97SOL    HW2  291   0.289   1.585   2.533 -1.6434 -0.4138  0.1937
   98SOL     OW  292   2.098   1.637   1.180  0.4316 -0.5407  0.0998
   98SOL    HW1  293   2.002   1.589   1.187 -0.8599 -0.2682 -0.7394
   98SOL    HW2  294   2.174   1.566   1.169  1.6539 -1.1661  1.7189
   99SOL     OW  295   2.540   2.052   1.301  0.2893  0.2157  0.2062
   99SOL    HW1  296   2.582   2.096   1.386  3.0743 -1.0843  0.1856
   99SOL    HW2  297   2.486   1.964   1.323  0.2986  0.9846  1.3084
  100SOL     OW  298   2.301   0.404   2.095 -0.4761  0.5712  0.2637
  100SOL    HW1  299   2.241   0.376   2.177 -2.1982 -0.8488  0.0915
  100SOL    HW2  300   2.398   0.441   2.123  2.7830 -0.4386 -2.0016
  101SOL     OW  301   0.418   1.496   0.476  0.4493 -0.2849 -0.2529
  101SOL    HW1  302   0.427   1.596   0.507  0.0698  0.4459  0.5213
  101SOL    HW2  303   0.503   1.458   0.435  0.0572  1.7212 -0.4760
  102SOL     OW  304   2.262   1.050   0.823  0.1468  0.3486 -0.5344
  102SOL    HW1  305   2.175   1.010   0.786  1.2451  0.4726  3.0912
  102SOL    HW2  306   2.333   1.049   0.750  1.2203 -1.0639 -1.4112
  103SOL     OW  307   2.215   0.090   0.374 -0.4307  0.5752  0.2089
  103SOL    HW1  308   2.266   0.171   0.340  1.3608 -0.0299 -0.3988
  103SOL    HW2  309   2.272   0.036   0.442  0.5743  0.3272 -3.2316
  104SOL     OW  310   0.094   1.821   2.134 -0.3220  0.6234 -0.3272
  104SOL    HW1  311   0.132   1.802   2.037  0.8945  0.0710 -0.3637
  104SOL    HW2  312  -0.006   1.824   2.141  2.1912  0.4768 -3.0366
  105SOL     OW  313   1.282   2.103   0.783 -0.3443  0.5050  0.0994
  105SOL    HW1  314   1.340   2.121   0.701  1.0299 -2.1692  0.1228
  105SOL    HW2  315   1.204   2.038   0.762  0.8022 -0.3360 -1.5454
  106SOL     OW  316   2.129   0.370   1.403  0.1185 -0.2784 -0.2497
  106SOL    HW1  317   2.116   0.270   1.416  0.3440 -0.6726 -1.3791
  106SOL    HW2  318   2.118   0.418   1.492  0.5285 -1.4221 -0.0771
  107SOL     OW  319   1.912   2.952   1.234  0.2311 -0.4968 -0.1847
  107SOL    HW1  320   1.871   3.024   1.299  1.9287 -0.6294 -0.2386
  107SOL    HW2  321   1.839   2.889   1.191 -1.0127  1.7075 -0.7292
  108SOL     OW  322   0.803   2.800   1.280  0.1000  0.2475 -0.2583
  108SOL    HW1  323   0.840   2.705   1.281 -0.3873  0.3097 -2.1346
  108SOL    HW2  324   0.879   2.862   1.255 -0.0716 -1.6816  0.8510
  109SOL     OW  325   2.113   0.119   0.764 -0.0931  0.5081 -0.4589
  109SOL    HW1  326   2.015   0.132   0.729 -1.1436 -1.7425  1.4299
  109SOL    HW2  327   2.117   0.081   0.859  0.7099  1.4358 -0.3256
  110SOL     OW  328   0.487   2.814   2.759  0.0044 -0.2582 -0.5633
  110SOL    HW1  329   0.457   2.759   2.680  0.6324  1.7211 -0.5501
  110SOL    HW2  330   0.554   2.759   2.825  0.4919  0.3216 -0.9010
  111SOL     OW  331   1.276   0.471   2.334 -0.9841 -0.1561  0.2103
  111SOL    HW1  332   1.197   0.520   2.389 -2.2468 -1.5116 -1.1330
  111SOL    HW2  333   1.344   0.422   2.395 -0.8854 -0.0628  0.2024
  112SOL     OW  334   1.748   0.499   1.482  0.1279 -0.5240  0.4940
  112SOL    HW1  335   1.730   0.471   1.384  0.6996 -1.0606  2.5837
  112SOL    HW2  336   1.712   0.435   1.556  2.6507  0.0514 -3.1409
  113SOL     OW  337   2.383   1.634   1.761  0.4423 -0.3017 -0.6206
  113SOL    HW1  338   2.443   1.551   1.768  1.2467 -2.6665 -0.6155
  113SOL    HW2  339   2.379   1.688   1.849 -1.9715  0.2156  1.6580
  114SOL     OW  340   0.329   0.531   1.238 -0.4538  0.2613 -0.2189
  114SOL    HW1  341   0.380   0.558   1.159  1.1872 -3.8340  2.1350
  114SOL    HW2  342   0.228   0.557   1.246  1.0083  0.6751 -1.7041
  115SOL     OW  343   2.744   1.633   1.207  0.7684  0.0609  0.4877
  115SOL    HW1  344   2.714   1.532   1.227  1.6021 -3.1827 -1.3141
  115SOL    HW2  345   2.849   1.637   1.199 -2.2613 -0.9332  2.7922
  116SOL     OW  346   1.787   1.016   0.601  0.6459  0.6546  0.6999
  116SOL    HW1  347   1.727   0.934   0.603  1.9562 -1.2909 -0.9497
  116SOL    HW2  348   1.742   1.087   0.654 -0.3719  1.0461 -0.6686
  117SOL     OW  349   1.171   0.372   0.552  0.1542  0.8332  0.0937
  117SOL    HW1  350   1.230   0.447   0.527 -1.5196 -3.3719 -0.3744
  117SOL    HW2  351   1.150   0.312   0.465 -0.2006  0.3601 -0.1250
  118SOL     OW  352   1.094   1.179   1.119 -0.4022  0.2192  0.3374
  118SOL    HW1  353   1.036   1.124   1.186 -2.4661 -1.1956  3.1698
  118SOL    HW2  354   1.107   1.279   1.145  1.1464  1.2345  0.2314
  119SOL     OW  355   1.823   1.584   2.158 -0.3001 -0.3028  0.0408
  119SOL    HW1  356   1.778   1.678   2.142 -1.4391 -0.3165 -1.2760
  119SOL    HW2  357   1.923   1.581   2.122  0.1381 -0.0718  0.3410
  120SOL     OW  358   2.928   2.858   0.240 -0.2022  0.0632  0.6615
  120SOL    HW1  359   3.008   2.817   0.187 -0.2475 -1.9920  0.9500
  120SOL    HW2  360   2.836   2.810   0.219  0.7874  1.4696  1.7232
  121SOL     OW  361   1.936   0.738   2.230 -0.1639 -0.0641 -0.3678
  121SOL    HW1  362   1.933   0.808   2.154 -3.5753 -1.7312 -0.3490
  121SOL    HW2  363   1.939   0.642   2.194 -1.7628 -1.0340  0.1834
  122SOL     OW  364   2.685   2.564   1.318  0.5211  0.5882  0.5823
  122SOL    HW1  365   2.723   2.516   1.230  0.8506  2.3639  0.2385
  122SOL    HW2  366   2.589   2.594   1.292 -0.9014 -1.4121 -0.2238
  123SOL     OW  367   1.756   0.037   1.709 -0.1775 -0.0579  0.0038
  123SOL    HW1  368   1.816  -0.034   1.656 -1.4133  1.2682 -2.2478
  123SOL    HW2  369   1.814   0.106   1.762  0.6808  2.4203  2.4862
  124SOL     OW  370   0.056   0.448   1.102 -0.3643  0.4317  0.2502
  124SOL    HW1  371   0.058   0.532   1.167  0.4485  2.1421  1.3506
  124SOL    HW2  372   0.068   0.472   1.001 -0.5762  0.2153  2.7469
  125SOL     OW  373   0.881   1.882   0.731  0.5665  0.3764  0.5166
  125SOL    HW1  374   0.972   1.837   0.750  0.2175 -0.0344  0.8152
  125SOL    HW2  375   0.822   1.893   0.816  1.6309 -0.6104 -1.1364
  126SOL     OW  376   1.832   2.269   2.420 -0.1127  0.1602 -0.2138
  126SOL    HW1  377   1.921   2.253   2.366  2.0516  0.6201 -1.6264
  126SOL    HW2  378   1.774   2.186   2.439 -1.3495  0.3345  0.3493
  127SOL     OW  379   0.933   0.924   0.174 -0.3131  0.0775 -0.0754
  127SOL    HW1  380   0.982   0.974   0.250 -1.7842  1.4057  1.6506
  127SOL    HW2  381   0.914   0.829   0.202 -0.3614  1.8328 -1.1931
  128SOL     OW  382   0.909   0.224   1.393 -0.2101  0.9429  0.0173
  128SOL    HW1  383   0.911   0.294   1.323 -1.6055 -2.2512  0.4814
  128SOL    HW2  384   0.903   0.123   1.366 -0.9281  2.2625  1.6095
  129SOL     OW  385   1.859   0.673   1.865  0.3100  0.3555  0.1712
  129SOL    HW1  386   1.864   0.704   1.769 -0.5422  0.7963  2.1789
  129SOL    HW2  387   1.900   0.741   1.927  1.9717  0.3995  1.9331
  130SOL     OW  388   1.416   2.143   1.034  0.8277  0.1137  0.3952
  130SOL    HW1  389   1.347   2.124   0.957 -0.5388 -0.2196  0.6456
  130SOL    HW2  390   1.478   2.217   0.998 -2.4643 -1.3218 -1.0525
  131SOL     OW  391   3.006   1.400   1.370  0.2925 -0.9061  0.4580
  131SOL    HW1  392   2.950   1.326   1.420  4.0875 -2.0640 -0.6086
  131SOL    HW2  393   3.109   1.383   1.383 -1.6701 -0.4238  1.0759
  132SOL     OW  394   2.038   2.424   0.469  0.0261  0.1560 -0.1938
  132SOL    HW1  395   1.977   2.502   0.490  1.9951 -3.2613 -0.1531
  132SOL    HW2  396   2.013   2.341   0.526 -0.5177 -1.9485  0.5144
  133SOL     OW  397   1.769   2.348   2.729 -0.4917 -0.2963 -0.2986
  133SOL    HW1  398   1.689   2.388   2.681  2.5276  2.6838  0.6806
  133SOL    HW2  399   1.859   2.371   2.685  0.0681 -0.4518  5.1074
  134SOL     OW  400   2.672   2.294   1.599  0.3880 -0.9116 -0.1323
  134SOL    HW1  401   2.583   2.321   1.645  0.6576  1.0043 -0.3181
  134SOL    HW2  402   2.750   2.362   1.613 -1.3409  0.2523  0.1710
  135SOL     OW  403   0.724   1.458   2.683  0.0926  0.0476  0.0413
  135SOL    HW1  404   0.696   1.364   2.722 -1.6006  1.1911 -0.5761
  135SOL    HW2  405   0.737   1.451   2.580 -0.5896  0.3408 -2.0865
  136SOL     OW  406   1.230   2.036   0.486  0.6002  0.2102  0.4321
  136SOL    HW1  407   1.157   2.109   0.485  1.5747 -0.8332  0.7112
  136SOL    HW2  408   1.202   1.944   0.449 -0.5265 -0.9581  0.6085
  137SOL     OW  409   0.436   1.195   2.245  0.0220  0.2356  0.5129
  137SOL    HW1  410   0.336   1.167   2.238 -4.1285 -1.9500  0.3077
  137SOL    HW2  411   0.508   1.120   2.267  1.4585  0.6305 -0.3215
  138SOL     OW  412   2.501   1.509   0.266  0.1967  0.3037 -0.1913
  138SOL    HW1  413   2.397   1.489   0.249 -1.8936  0.9804  0.5769
  138SOL    HW2  414   2.556   1.433   0.313  2.4327 -0.9640 -0.1083
  139SOL     OW  415   1.903   2.626   1.400 -0.1205 -0.4359  1.1366
  139SOL    HW1  416   1.815   2.674   1.375  2.1859  1.8709 -1.0741
  139SOL    HW2  417   1.897   2.528   1.373 -0.0764  2.9590  0.3120
  140SOL     OW  418   3.012   2.972   2.525  0.5787  0.2629  0.4623
  140SOL    HW1  419   3.063   2.886   2.548  0.1344  1.7369  1.6380
  140SOL    HW2  420   3.070   3.042   2.480  1.8107 -0.4956 -2.0786
  141SOL     OW  421   1.316   1.709   1.622 -0.0142  0.1784  0.9138
  141SOL    HW1  422   1.253   1.787   1.647 -1.2227 -0.8807  0.6155
  141SOL    HW2  423   1.273   1.616   1.639 -0.8908  0.5801 -0.8179
  142SOL     OW  424   1.542   0.604   2.253  0.2999 -0.0686 -0.2558
  142SOL    HW1  425   1.576   0.579   2.160 -0.8474 -1.9857  0.3071
  142SOL    HW2  426   1.458   0.547   2.273 -1.1178 -2.6188 -0.2735
  143SOL     OW  427   2.752   0.906   0.506  0.5898  0.0935  0.2240
  143SOL    HW1  428   2.797   0.959   0.427  0.0169  0.0556 -1.4295
  143SOL    HW2  429   2.818   0.902   0.587  1.3233  1.3599  2.9811
  144SOL     OW  430   2.873   1.179   1.519 -0.0945 -0.5982  0.3981
  144SOL    HW1  431   2.853   1.191   1.617 -1.5204 -1.7077 -2.9072
  144SOL    HW2  432   2.937   1.100   1.505  1.2083  2.6480  1.8049
  145SOL     OW  433   1.037   1.818   0.129 -0.3045 -0.2714 -0.3729
  145SOL    HW1  434   1.125   1.835   0.077 -0.9118 -0.8425  0.6329
  145SOL    HW2  435   0.982   1.736   0.100  2.2704 -0.3442  2.3168
  146SOL     OW  436   2.455   0.666   1.516  0.2370  0.4090  0.6254
  146SOL    HW1  437   2.413   0.596   1.454  1.7044 -1.4998 -1.7379
  146SOL    HW2  438   2.420   0.759   1.491 -3.6294 -0.9520  1.3366
  147SOL     OW  439   1.104   2.560   0.605  0.0212  0.2953  0.7487
  147SOL    HW1  440   1.062   2.636   0.547  1.9502  2.3948 -2.2143
  147SOL    HW2  441   1.195   2.529   0.573  0.6204  0.8532  1.5098
  148SOL     OW  442   1.615   1.446   0.018  0.5580 -0.4885 -0.3973
  148SOL    HW1  443   1.600   1.374  -0.053 -2.8933  0.1866  0.3383
  148SOL    HW2  444   1.596   1.410   0.114 -1.1348 -1.1473 -1.5754
  149SOL     OW  445   0.643   1.454   1.954 -0.1724  0.1214 -0.6831
  149SOL    HW1  446   0.540   1.439   1.962  0.7006  0.6677 -0.2357
  149SOL    HW2  447   0.694   1.391   1.886  0.9298  2.2044  0.0803
  150SOL     OW  448   3.042   1.225   0.969 -0.2722 -0.2990  0.5703
  150SOL    HW1  449   3.127   1.239   1.029  1.7311  0.8831 -0.6086
  150SOL    HW2  450   3.019   1.122   0.968 -2.5884  0.1295  0.6062
  151SOL     OW  451   0.144   0.698   2.109  0.3801  0.0756  0.2754
  151SOL    HW1  452   0.109   0.763   2.036 -1.2509  0.3536  2.2974
  151SOL    HW2  453   0.216   0.632   2.072 -0.3012  0.4698 -1.5052
  152SOL     OW  454   1.458   1.794   1.175 -0.0042 -0.2087 -0.2260
  152SOL    HW1  455   1.491   1.881   1.211 -1.3946 -0.4610 -3.2372
  152SOL    HW2  456   1.354   1.790   1.153 -2.5820 -1.1888 -1.2929
  153SOL     OW  457   0.135   1.556   0.212  0.2848 -0.4483  0.2921
  153SOL    HW1  458   0.103   1.457   0.207  0.6873  2.2666 -0.4332
  153SOL    HW2  459   0.117   1.598   0.306  0.9277 -0.2737 -0.6750
  154SOL     OW  460   2.360   1.896   2.859 -0.1928  0.4202  0.0113
  154SOL    HW1  461   2.388   1.797   2.867 -2.6749  1.8507  2.4622
  154SOL    HW2  462   2.399   1.942   2.778  1.0620 -1.8468 -2.0378
  155SOL     OW  463   2.529   1.155   0.396 -0.0324 -0.4349 -0.0233
  155SOL    HW1  464   2.613   1.179   0.340  0.8319 -2.9024 -0.7851
  155SOL    HW2  465   2.444   1.143   0.346  1.7534 -2.1124 -1.0397
  156SOL     OW  466   2.466   0.867   0.774 -0.0045 -0.2891 -0.3545
  156SOL    HW1  467   2.379   0.889   0.824 -0.3216 -3.0991 -1.8377
  156SOL    HW2  468   2.473   0.897   0.673 -1.4898 -0.7405 -2.8351
  157SOL     OW  469   1.233   3.000   2.958  0.6107  0.2111  0.4268
  157SOL    HW1  470   1.323   2.963   2.913  1.8499  1.5163  1.8081
  157SOL    HW2  471   1.246   3.092   2.994 -2.4815 -1.4544 -0.5934
  158SOL     OW  472   0.979   1.879   1.887 -0.3864  0.7004 -0.4108
  158SOL    HW1  473   0.998   1.982   1.871  1.4363 -0.7944  0.3356
  158SOL    HW2  474   0.890   1.868   1.941 -0.2954  0.4109  0.4868
  159SOL     OW  475   0.882   0.445   1.196  0.2356  0.6003  0.0463
  159SOL    HW1  476   0.836   0.524   1.246  1.0150 -3.0831 -1.6278
  159SOL    HW2  477   0.822   0.389   1.137  1.7410  1.6312 -0.5334
  160SOL     OW  478   1.353   2.456   1.581  0.2308  0.5884 -0.4342
  160SOL    HW1  479   1.323   2.370   1.632  1.6916  1.4508  0.0120
  160SOL    HW2  480   1.456   2.459   1.559 -2.0170  0.7944  0.8498
  161SOL     OW  481   3.089   2.908   0.470 -0.3372 -1.0690 -0.8689
  161SOL    HW1  482   3.033   2.819   0.486 -0.1681 -2.1066  2.2976
  161SOL    HW2  483   3.054   2.970   0.390 -0.6772  2.3679 -3.0817
  162SOL     OW  484   2.601   1.849   0.486 -0.2575 -0.6365 -0.0133
  162SOL    HW1  485   2.579   1.806   0.395 -1.0436 -0.7256 -0.9946
  162SOL    HW2  486   2.560   1.787   0.556 -0.4765  1.4449  1.2742
  163SOL     OW  487   1.964   2.723   0.733  0.8059 -0.5266 -0.2107
  163SOL    HW1  488   1.949   2.755   0.637  0.3092 -0.4638  0.4581
  163SOL    HW2  489   2.039   2.652   0.749  0.7970 -0.1549 -0.7827
  164SOL     OW  490   3.047   0.195   1.254  0.3405 -0.0121  0.3024
  164SOL    HW1  491   3.094   0.282   1.211  1.7639 -2.1750  2.3348
  164SOL    HW2  492   3.103   0.161   1.337 -2.4959 -4.1830 -1.9040
  165SOL     OW  493   1.009   1.385   0.751  0.6641  0.4932 -0.0609
  165SOL    HW1  494   0.947   1.404   0.831  0.0900 -0.1514  0.8997
  165SOL    HW2  495   1.018   1.465   0.686 -1.5983  1.4481  4.5424
  166SOL     OW  496   1.588   1.010   1.811  0.2936  0.0003  0.2624
  166SOL    HW1  497   1.517   1.016   1.884 -0.1432 -0.3240 -0.2861
  166SOL    HW2  498   1.659   1.082   1.802 -0.7086 -0.6798 -0.1922
  167SOL     OW  499   0.752   1.977   1.478  0.2673  0.1307  0.0255
  167SOL    HW1  500   0.759   2.054   1.550  0.5826 -1.3031 -1.2310
  167SOL    HW2  501   0.715   1.886   1.517  2.0968  1.9750 -1.6054
  168SOL     OW  502   1.623   2.353   0.156 -0.1217 -0.0044 -0.1320
  168SOL    HW1  503   1.684   2.377   0.077 -1.9800  0.9103 -0.9837
  168SOL    HW2  504   1.659   2.317   0.245 -2.5328 -0.8657 -0.5001
  169SOL     OW  505   0.179   2.574   2.235  0.3311 -0.2857  0.4099
  169SOL    HW1  506   0.212   2.545   2.139 -2.1967  0.1658 -3.2069
  169SOL    HW2  507   0.193   2.512   2.315 -0.2844 -1.1026  0.1374
  170SOL     OW  508   1.108   0.227   2.003  0.0582  0.0737 -0.4617
  170SOL    HW1  509   1.168   0.224   2.086  2.6830  1.0104  0.8007
  170SOL    HW2  510   1.155   0.189   1.923  0.1030  0.3274  1.5849
  171SOL     OW  511   0.179   0.796   2.367  0.5369 -0.6382 -0.1581
  171SOL    HW1  512   0.091   0.816   2.419 -3.3789  0.2869  0.1449
  171SOL    HW2  513   0.160   0.769   2.270 -0.1869 -1.4979  0.1020
  172SOL     OW  514   0.959   0.969   2.890  0.2190  0.1563 -0.0116
  172SOL    HW1  515   0.929   1.055   2.943  1.8662 -0.4919 -0.7131
  172SOL    HW2  516   0.901   0.951   2.803 -2.3884  0.3485  0.2381
  173SOL     OW  517   0.567   2.543   0.122  0.0919 -0.6839 -0.1996
  173SOL    HW1  518   0.505   2.550   0.042 -1.3099 -1.9202  0.1212
  173SOL    HW2  519   0.503   2.563   0.200  0.3929 -0.1146 -0.1218
  174SOL     OW  520   1.530   2.788   1.025 -0.4037 -0.1843 -0.3724
  174SOL    HW1  521   1.572   2.850   0.955 -0.1666  1.9339 -1.1606
  174SOL    HW2  522   1.486   2.698   0.991 -0.9278  2.7930  1.3970
  175SOL     OW  523   0.477   3.060   1.720  0.3602  0.2751  0.0189
  175SOL    HW1  524   0.537   3.014   1.791 -1.1166  0.6974 -0.3990
  175SOL    HW2  525   0.471   3.163   1.736 -0.5232 -1.7056  2.1246
  176SOL     OW  526   2.543   0.390   0.019 -0.6144 -0.6443  0.0978
  176SOL    HW1  527   2.564   0.469   0.084 -1.3368  2.2074  3.0482
  176SOL    HW2  528   2.483   0.320   0.063  1.6352 -0.9076  1.5125
  177SOL     OW  529   0.294   0.328   0.923  0.0061 -0.6159  0.1769
  177SOL    HW1  530   0.292   0.224   0.912  3.1202 -1.4399  2.2904
  177SOL    HW2  531   0.273   0.368   1.014 -0.7338  1.9659 -1.5285
  178SOL     OW  532   0.044   2.754   2.571 -0.1657  0.0319  0.6638
  178SOL    HW1  533  -0.010   2.661   2.560 -1.5588 -2.1793 -0.1106
  178SOL    HW2  534   0.133   2.745   2.622 -0.6696 -0.3088  0.3834
  179SOL     OW  535   3.011   1.580   1.163 -0.3191  0.0724  0.0545
  179SOL    HW1  536   3.069   1.531   1.092 -0.2913  1.4676  0.0209
  179SOL    HW2  537   3.004   1.527   1.250  1.1321 -1.0633 -1.8455
  180SOL     OW  538   0.185   1.294   1.812 -0.2360  0.3107 -0.0580
  180SOL    HW1  539   0.266   1.247   1.861  2.1542  0.3361  0.6422
  180SOL    HW2  540   0.156   1.370   1.868  0.5054  2.0038 -0.8002
  181SOL     OW  541   3.100   1.900   2.473 -0.3778  0.6405  0.0930
  181SOL    HW1  542   3.145   1.990   2.461 -3.9554 -1.6102 -1.8992
  181SOL    HW2  543   3.011   1.894   2.421 -2.4055  1.1694 -1.2249
  182SOL     OW  544   2.353   1.216   1.203  0.0804 -0.3258  0.3291
  182SOL    HW1  545   2.277   1.182   1.140 -0.5041  0.5924  1.6643
  182SOL    HW2  546   2.366   1.325   1.191  3.5136  1.5899  2.2375
  183SOL     OW  547   1.413   2.254   2.538 -0.3716  0.0388 -0.2322
  183SOL    HW1  548   1.321   2.214   2.577 -0.6877 -0.6279  2.8944
  183SOL    HW2  549   1.490   2.188   2.528 -3.6307  0.9767  2.3219
  184SOL     OW  550   2.026   0.942   0.713 -0.1541  0.3072  0.7130
  184SOL    HW1  551   1.947   0.986   0.667  0.1118  2.6487 -0.2198
  184SOL    HW2  552   2.012   0.848   0.748  0.0793 -0.9620 -0.7916
  185SOL     OW  553   1.573   2.757   1.948  0.3030 -0.5554  0.1506
  185SOL    HW1  554   1.498   2.831   1.956 -2.0855 -0.4932 -0.4358
  185SOL    HW2  555   1.614   2.733   2.041 -1.0937 -1.7935  1.0721
  186SOL     OW  556   0.126   2.242   1.657 -0.8722 -0.3201 -0.2926
  186SOL    HW1  557   0.106   2.293   1.741  1.9323 -2.5911 -0.6533
  186SOL    HW2  558   0.201   2.171   1.671 -0.3042 -1.4626 -0.0314
  187SOL     OW  559   1.385   0.672   1.645  0.1299 -0.3802  0.0316
  187SOL    HW1  560   1.472   0.721   1.613  2.0077  1.0504 -1.9495
  187SOL    HW2  561   1.392   0.629   1.740 -1.3152 -2.9492  1.7719
  188SOL     OW  562   2.813   2.770   1.447 -0.1269 -0.2244 -0.0261
  188SOL    HW1  563   2.783   2.866   1.438  0.0559 -2.8581 -2.3021
  188SOL    HW2  564   2.750   2.707   1.388  1.0308 -3.6292 -0.0849
  189SOL     OW  565   0.899   1.184   1.451 -0.1279  0.6343 -0.3271
  189SOL    HW1  566   0.985   1.218   1.494  0.2370 -1.6437 -3.5277
  189SOL    HW2  567   0.826   1.253   1.439 -1.6198 -0.5324 -0.9376
  190SOL     OW  568   1.459   1.939   1.614  0.5511 -0.4486 -0.2687
  190SOL    HW1  569   1.431   1.845   1.586 -1.5730  0.6706  0.0731
  190SOL    HW2  570   1.482   1.955   1.716 -1.6905 -2.0694  1.0806
  191SOL     OW  571   0.909   0.753   1.492 -0.4515 -0.1960 -0.3557
  191SOL    HW1  572   0.974   0.704   1.557  0.9767  0.3333 -1.9429
  191SOL    HW2  573   0.953   0.846   1.467 -0.1259  1.1191  2.0035
  192SOL     OW  574   1.850   2.319   1.102 -0.3862  0.3849  0.7468
  192SOL    HW1  575   1.752   2.322   1.077  2.0939  1.0990 -0.4867
  192SOL    HW2  576   1.911   2.284   1.024 -1.9035  1.4380  0.6675
  193SOL     OW  577   0.515   0.540   0.420 -0.6275 -0.4186  0.3354
  193SOL    HW1  578   0.462   0.459   0.458 -0.7140  0.7745 -0.6567
  193SOL    HW2  579   0.576   0.517   0.334  0.6323  0.8453 -3.2315
  194SOL     OW  580   0.353   0.888   1.294 -0.1169  0.6203  0.0076
  194SOL    HW1  581   0.341   0.784   1.310 -0.6529 -0.4032  2.7555
  194SOL    HW2  582   0.325   0.916   1.198 -1.9011 -0.9281 -0.6922
  195SOL     OW  583   1.020   2.915   0.540  0.0233 -0.4831  0.3191
  195SOL    HW1  584   1.012   2.844   0.467 -2.9328  1.0084  1.5279
  195SOL    HW2  585   1.111   2.959   0.529 -3.7470  0.9394  0.6482
  196SOL     OW  586   0.193   1.346   1.360  0.2620  1.0714  0.0479
  196SOL    HW1  587   0.202   1.447   1.387  0.0112 -0.4504  1.5333
  196SOL    HW2  588   0.215   1.280   1.437 -0.4836 -0.5015 -1.4360
  197SOL     OW  589   0.823   2.048   0.238  0.1189 -0.0828  0.1747
  197SOL    HW1  590   0.817   1.964   0.299 -3.7109 -2.4279 -0.0697
  197SOL    HW2  591   0.875   2.030   0.149 -3.5613  1.7092 -2.2526
  198SOL     OW  592   0.295   1.279   0.356  0.5123  0.3077  0.2166
  198SOL    HW1  593   0.209   1.306   0.305 -1.6763 -0.3355  1.6025
  198SOL    HW2  594   0.353   1.363   0.392  3.8774  2.1999  1.1424
  199SOL     OW  595   2.302   0.405   2.561 -0.5354  0.9471  0.7725
  199SOL    HW1  596   2.222   0.406   2.630  0.3193  1.5383 -4.2682
  199SOL    HW2  597   2.393   0.379   2.600 -2.1658  0.1119  2.2114
  200SOL     OW  598   3.082   2.943   0.740 -0.1091  0.1198  0.7886
  200SOL    HW1  599   2.985   2.983   0.735  0.7512  2.8403 -2.5485
  200SOL    HW2  600   3.109   2.918   0.640 -0.3771 -1.7633  0.2071
  201SOL     OW  601   1.035   0.696   0.537 -0.6968 -0.3838 -0.2018
  201SOL    HW1  602   1.058   0.719   0.636  2.0307  0.7839  0.8999
  201SOL    HW2  603   0.943   0.665   0.519  0.5377 -0.3712 -0.9085
  202SOL     OW  604   0.391   1.128   1.944  0.2346  0.4656 -0.1795
  202SOL    HW1  605   0.475   1.096   1.893 -1.7277 -0.3966 -5.0795
  202SOL    HW2  606   0.411   1.182   2.030 -2.2589 -0.7015  0.6087
  203SOL     OW  607   0.600   0.208   1.484  0.7272 -0.1960  0.0073
  203SOL    HW1  608   0.666   0.173   1.409 -1.3838 -0.6231 -1.6579
  203SOL    HW2  609   0.633   0.170   1.578  0.7101  0.0335 -0.7177
  204SOL     OW  610   2.096   1.793   2.912  0.2733  0.8047  0.1699
  204SOL    HW1  611   2.101   1.691   2.915  1.1305  0.9783 -0.1259
  204SOL    HW2  612   2.171   1.826   2.853 -2.7647 -3.0067  1.5714
  205SOL     OW  613   1.858   1.826   3.026 -0.3590 -0.3980  0.5222
  205SOL    HW1  614   1.954   1.825   2.987  0.4620  0.5555  0.8206
  205SOL    HW2  615   1.811   1.920   3.011 -0.5179 -0.8683 -2.0886
  206SOL     OW  616   2.430   2.808   0.346 -0.1315  0.1443  0.1727
  206SOL    HW1  617   2.454   2.713   0.379 -0.9815  0.1560 -0.3578
  206SOL    HW2  618   2.513   2.860   0.325 -0.8033 -2.0460 -0.4289
  207SOL     OW  619   0.681   1.833   2.940 -0.3744 -0.1433 -0.0319
  207SOL    HW1  620   0.767   1.798   2.894 -1.9216  0.1261 -1.2834
  207SOL    HW2  621   0.658   1.778   3.026  2.0948  2.1050  0.7049
  208SOL     OW  622   1.162   1.601   1.402 -0.1509  0.8294 -0.2839
  208SOL    HW1  623   1.147   1.654   1.313  1.5712  1.4834 -0.9180
  208SOL    HW2  624   1.174   1.664   1.484  1.0975 -0.5976 -1.8483
  209SOL     OW  625   0.244   0.934   3.061  0.0013  0.4406  0.0064
  209SOL    HW1  626   0.236   0.842   3.011 -0.4237 -0.9435 -0.5549
  209SOL    HW2  627   0.241   0.925   3.165  0.2363  0.4004  2.5194
  210SOL     OW  628   1.729   0.494   1.166 -0.3466  0.7207  0.3475
  210SOL    HW1  629   1.686   0.585   1.164  0.0517 -2.1914 -1.9164
  210SOL    HW2  630   1.832   0.492   1.180  0.6841 -2.1134 -0.1943
  211SOL     OW  631   2.087   1.054   1.600 -0.6398 -0.3844 -0.1510
  211SOL    HW1  632   2.108   0.989   1.678 -0.8443 -1.9227  1.8660
  211SOL    HW2  633   2.169   1.114   1.567  2.1874 -1.5247  1.3180
  212SOL     OW  634   0.013   0.966   1.508  0.0596 -0.1304  0.4351
  212SOL    HW1  635   0.067   1.053   1.529 -1.6871  0.6928 -0.7975
  212SOL    HW2  636   0.035   0.891   1.577  0.8168  1.4303  0.6313
  213SOL     OW  637   2.760   0.170   0.384 -1.0752  0.1593  0.4981
  213SOL    HW1  638   2.827   0.161   0.302  0.3871 -2.2381 -4.6481
  213SOL    HW2  639   2.708   0.081   0.395 -0.2961  0.2801 -1.8605
  214SOL     OW  640   2.194   0.309   2.331  0.3529  0.6155 -0.2368
  214SOL    HW1  641   2.212   0.341   2.428 -0.2419 -0.3127 -0.3013
  214SOL    HW2  642   2.240   0.220   2.303 -0.4948 -1.7713 -3.2992
  215SOL     OW  643   1.619   2.322   2.084  0.1579 -0.4102 -0.0328
  215SOL    HW1  644   1.723   2.331   2.092  1.2427 -0.2587  1.1008
  215SOL    HW2  645   1.567   2.404   2.119 -0.4715  0.6130 -0.7209
  216SOL     OW  646   2.203   0.634   0.688  0.1486  0.1689 -0.7579
  216SOL    HW1  647   2.165   0.552   0.640  0.8618  3.5809  1.1931
  216SOL    HW2  648   2.190   0.719   0.635  1.6777  0.2851  2.3183
  217SOL     OW  649   0.760   2.798   2.440  0.2246 -0.2276  0.4111
  217SOL    HW1  650   0.725   2.711   2.479 -0.6876  0.6840 -1.0174
  217SOL    HW2  651   0.782   2.790   2.339  1.0049 -2.8694 -1.2541
  218SOL     OW  652   1.899   1.432   0.025 -0.2345  0.1696  0.1450
  218SOL    HW1  653   1.801   1.449  -0.003  0.6229 -0.8332  1.1424
  218SOL    HW2  654   1.902   1.371   0.110 -1.9893  1.6942 -2.8927
  219SOL     OW  655   2.443   1.309   2.516  0.2991 -0.3213  0.2674
  219SOL    HW1  656   2.484   1.278   2.428 -0.9373 -1.8930 -1.1631
  219SOL    HW2  657   2.454   1.233   2.586  1.6973  0.9203  2.8380
  220SOL     OW  658   1.467   1.059   1.306 -0.0572 -0.3650  0.1908
  220SOL    HW1  659   1.573   1.059   1.305 -0.9483 -2.1940 -0.9362
  220SOL    HW2  660   1.431   1.096   1.216 -0.6194  0.0953  2.3115
  221SOL     OW  661   1.282   0.981   2.176 -0.0447  0.1220  0.0950
  221SOL    HW1  662   1.216   1.048   2.131 -2.3094 -1.3285 -1.2357
  221SOL    HW2  663   1.380   1.008   2.166  0.0666  0.4471  0.7890
  222SOL     OW  664   1.114   0.076   1.196  0.1023  0.5590 -0.2313
  222SOL    HW1  665   1.171   0.104   1.278  0.4558  2.5026 -1.2755
  222SOL    HW2  666   1.123   0.144   1.118  1.3684 -1.8876  1.4454
  223SOL     OW  667   2.712   0.936   2.154 -0.5070 -0.5637 -0.5582
  223SOL    HW1  668   2.685   1.031   2.191 -0.5537 -0.1606 -1.8445
  223SOL    HW2  669   2.796   0.902   2.202 -1.3557 -0.6485 -0.1624
  224SOL     OW  670   1.513   1.088   2.732 -0.0784  0.3460  0.3411
  224SOL    HW1  671   1.562   1.017   2.681 -0.5294 -1.9374 -0.4041
  224SOL    HW2  672   1.467   1.151   2.665  2.0041 -3.0637  1.8759
  225SOL     OW  673   2.985   2.758   2.884  0.7842 -0.5898  0.0568
  225SOL    HW1  674   2.891   2.755   2.837 -3.4218 -3.0058 -1.3031
  225SOL    HW2  675   3.060   2.724   2.819 -0.4407 -1.0687 -1.4404
  226SOL     OW  676   2.457   1.620   2.886  0.2670 -0.1558  0.7648
  226SOL    HW1  677   2.444   1.603   2.778 -2.9725  1.6810 -0.5778
  226SOL    HW2  678   2.406   1.557   2.946  0.0792  1.1344 -1.0925
  227SOL     OW  679   0.843   0.158   3.099 -0.8633  0.6974 -0.6889
  227SOL    HW1  680   0.869   0.259   3.076  4.1473  0.0601  0.1715
  227SOL    HW2  681   0.781   0.112   3.025  1.8234 -1.0668 -1.4852
  228SOL     OW  682   2.427   0.583   2.872  0.0424 -0.3777  0.3564
  228SOL    HW1  683   2.466   0.649   2.793  3.1670  2.9843 -1.0728
  228SOL    HW2  684   2.486   0.499   2.890 -1.6876 -1.0794  1.1914
  229SOL     OW  685   0.565   0.498   1.820 -0.2688  0.2849 -0.1134
  229SOL    HW1  686   0.558   0.399   1.840  0.0594  3.1445  4.2213
  229SOL    HW2  687   0.605   0.522   1.727 -0.0379  2.5083  1.0138
  230SOL     OW  688   1.944   1.156   2.077 -0.2169  0.0156 -0.0368
  230SOL    HW1  689   2.005   1.231   2.032  1.2184  1.5345  2.0329
  230SOL    HW2  690   1.845   1.188   2.084  0.4757 -1.2125  0.5087
  231SOL     OW  691   0.638   1.032   0.059  0.1039  0.4009 -0.2986
  231SOL    HW1  692   0.731   1.071   0.035  2.0200  1.6097 -2.4239
  231SOL    HW2  693   0.566   1.107   0.080 -0.1251 -0.7740 -0.0526
  232SOL     OW  694   2.434   3.076   2.895  0.5667  0.2170 -0.2260
  232SOL    HW1  695   2.467   2.977   2.900 -1.5198  0.6051 -0.2409
  232SOL    HW2  696   2.470   3.131   2.812  0.4853  1.2029  0.5057
  233SOL     OW  697   1.708   1.216   1.132  1.2137 -0.2858  0.1479
  233SOL    HW1  698   1.736   1.178   1.039  2.1125 -1.1744  0.3113
  233SOL    HW2  699   1.719   1.150   1.208 -0.3839  1.2371  1.4559
  234SOL     OW  700   1.568   2.496   1.865  0.1090 -0.2731 -0.7812
  234SOL    HW1  701   1.560   2.597   1.889 -0.2201 -1.1918 -0.4087
  234SOL    HW2  702   1.606   2.434   1.939  4.4899  1.6523  0.8436
  235SOL     OW  703   3.098   3.044   2.810 -0.3728 -0.0487 -0.0388
  235SOL    HW1  704   3.045   3.032   2.720 -1.4230 -0.0055 -1.2483
  235SOL    HW2  705   3.032   3.087   2.879 -0.3197 -1.9995 -2.1537
  236SOL     OW  706   2.871   0.749   0.071 -0.4445 -0.1228 -0.5427
  236SOL    HW1  707   2.937   0.780   0.147 -0.4136  0.8376  0.8029
  236SOL    HW2  708   2.898   0.656   0.035  0.3539  2.4492  0.8521
  237SOL     OW  709   1.564   1.644   0.960 -0.3063 -0.3061  0.1902
  237SOL    HW1  710   1.663   1.645   0.950 -1.1352 -0.5744 -0.4721
  237SOL    HW2  711   1.535   1.695   1.048  2.7894  0.5796  0.8430
  238SOL     OW  712   1.794   1.249   0.819  0.0991 -0.4498 -0.8270
  238SOL    HW1  713   1.852   1.308   0.883 -1.4108 -1.1146 -2.7956
  238SOL    HW2  714   1.715   1.303   0.781 -0.5996  3.0991  1.7228
  239SOL     OW  715   2.108   0.318   2.729 -0.1014 -0.1050  0.7803
  239SOL    HW1  716   2.133   0.266   2.819 -1.0544 -2.9448  2.4579
  239SOL    HW2  717   2.017   0.368   2.741  0.9745  0.3904  1.1292
  240SOL     OW  718   0.936   0.651   0.267 -0.1380  0.7446 -0.1316
  240SOL    HW1  719   0.964   0.554   0.245 -2.7399  1.0072  0.5471
  240SOL    HW2  720   0.973   0.682   0.359  2.3113 -1.0664 -0.9800
  241SOL     OW  721   0.614   0.043   0.401  0.2916 -0.1865  0.8061
  241SOL    HW1  722   0.634   0.130   0.338 -1.3555  1.5320  0.1571
  241SOL    HW2  723   0.586  -0.036   0.340 -1.9262 -1.2772 -0.4289
  242SOL     OW  724   0.600   2.493   1.144  0.0492 -0.8232 -0.5761
  242SOL    HW1  725   0.598   2.505   1.247  0.3001 -0.6252 -0.3673
  242SOL    HW2  726   0.577   2.578   1.091 -0.9897  1.5270  2.7620
  243SOL     OW  727   1.073   0.607   2.504  0.1601 -0.2565 -0.3437
  243SOL    HW1  728   0.989   0.624   2.448  0.5427 -1.7843  0.2585
  243SOL    HW2  729   1.063   0.538   2.580 -1.0444  0.7988 -1.8810
  244SOL     OW  730   2.846   1.878   2.338  0.2952 -0.4203  0.1009
  244SOL    HW1  731   2.853   1.864   2.234 -1.1123 -1.1122 -2.5869
  244SOL    HW2  732   2.783   1.818   2.387 -1.5170 -0.2816 -1.0743
  245SOL     OW  733   2.265   0.847   2.145 -1.2444  0.7329  0.0773
  245SOL    HW1  734   2.362   0.870   2.174 -1.2378 -0.5982 -1.9598
  245SOL    HW2  735   2.200   0.837   2.216 -1.4214  1.7924 -2.9744
  246SOL     OW  736   0.228   2.923   1.717 -0.2934 -0.3968 -0.4081
  246SOL    HW1  737   0.163   2.934   1.641 -3.3780 -1.5354 -0.4010
  246SOL    HW2  738   0.314   2.980   1.706 -0.2327  0.1046 -0.9818
  247SOL     OW  739   2.204   0.641   3.011 -0.0647 -0.2761 -0.2371
  247SOL    HW1  740   2.282   0.618   2.938  1.7593 -2.1760 -0.3285
  247SOL    HW2  741   2.156   0.730   2.982 -0.7379 -1.0245 -1.7452
  248SOL     OW  742   2.167   1.822   1.597  0.4495  0.1436 -0.0855
  248SOL    HW1  743   2.254   1.782   1.644  1.0534  1.6491 -2.4809
  248SOL    HW2  744   2.084   1.820   1.659 -1.4597 -0.4781 -0.0655
  249SOL     OW  745   1.865   1.962   1.935  0.6325  0.4972 -0.3766
  249SOL    HW1  746   1.876   1.887   1.864  1.9751  0.2934  1.0377
  249SOL    HW2  747   1.958   2.013   1.945  1.9245  1.7727 -0.9325
  250SOL     OW  748   1.085   0.684   1.877 -0.1918  0.2225 -0.3516
  250SOL    HW1  749   1.126   0.623   1.949  0.2705  0.8230 -1.8060
  250SOL    HW2  750   1.072   0.636   1.786 -0.9700 -1.8014 -0.9593
  251SOL     OW  751   0.040   1.625   2.529 -0.3603 -0.1517  0.8107
  251SOL    HW1  752   0.016   1.727   2.513 -0.2976  3.1193  2.9271
  251SOL    HW2  753  -0.040   1.557   2.530 -1.0592 -1.3819 -0.1126
  252SOL     OW  754   1.612   0.815   1.575  0.0541 -0.4936  0.5360
  252SOL    HW1  755   1.703   0.812   1.521  2.4800  0.1129 -2.2988
  252SOL    HW2  756   1.606   0.890   1.651 -0.6658  1.7899  1.6889
  253SOL     OW  757   1.004   1.569   0.547 -0.3349  0.0291 -0.0577
  253SOL    HW1  758   0.984   1.491   0.480 -0.7606  1.4546  1.0024
  253SOL    HW2  759   0.920   1.614   0.586 -0.7981  1.0604  1.7520
  254SOL     OW  760   2.038   2.176   1.633 -0.2325  0.3663 -0.0858
  254SOL    HW1  761   1.989   2.114   1.564 -1.0643 -0.2900 -0.2793
  254SOL    HW2  762   1.963   2.214   1.697  0.1900  0.8787  0.0975
  255SOL     OW  763   0.118   1.132   2.934  0.7692  0.4273  0.0488
  255SOL    HW1  764   0.174   1.224   2.916  1.5012 -0.9449 -0.1067
  255SOL    HW2  765   0.170   1.047   2.977  2.4819 -1.4130 -0.6259
  256SOL     OW  766   2.835   1.405   1.770  0.9600  0.1182  0.0078
  256SOL    HW1  767   2.754   1.465   1.800 -1.4841  0.3434  1.7473
  256SOL    HW2  768   2.805   1.307   1.762  0.6008  0.1294 -2.3639
  257SOL     OW  769   0.753   0.144   1.746 -0.3316  0.1886 -0.6218
  257SOL    HW1  770   0.831   0.211   1.734 -1.1202 -1.6147  2.2599
  257SOL    HW2  771   0.792   0.047   1.751  3.6900 -0.6774 -1.0671
  258SOL     OW  772   3.014   1.233   0.445  0.1839 -0.4408 -0.1240
  258SOL    HW1  773   2.933   1.286   0.409 -1.8033 -1.8876  2.6654
  258SOL    HW2  774   3.023   1.246   0.546 -2.0225 -1.5195  1.7629
  259SOL     OW  775   0.462   2.929   3.057 -0.2210 -0.1708 -0.3824
  259SOL    HW1  776   0.378   2.877   3.095  2.3111 -0.8513 -1.0449
  259SOL    HW2  777   0.503   2.883   2.980  0.3715  0.9364  2.4698
  260SOL     OW  778   2.749   0.726   2.795 -0.7909 -0.6551  0.0423
  260SOL    HW1  779   2.654   0.756   2.768  1.1531  1.6857 -1.7886
  260SOL    HW2  780   2.748   0.720   2.899 -0.8431 -1.8731  0.2533
  261SOL     OW  781   2.701   1.374   1.277 -0.6180  0.1051  0.6978
  261SOL    HW1  782   2.687   1.305   1.201  2.8249  1.7388  1.1315
  261SOL    HW2  783   2.783   1.350   1.331 -1.1471 -1.3558 -0.3308
  262SOL     OW  784   1.390   2.961   1.980  0.1092  0.0725  0.2331
  262SOL    HW1  785   1.425   3.045   1.931 -0.9191  1.0116 -0.3614
  262SOL    HW2  786   1.296   2.937   1.949  0.0453  3.8688 -1.8169
  263SOL     OW  787   0.854   0.674   2.355 -0.0261 -0.6115 -0.3017
  263SOL    HW1  788   0.798   0.594   2.316 -0.1721 -0.7612 -2.0716
  263SOL    HW2  789   0.869   0.734   2.274  0.6222  0.8287  0.6177
  264SOL     OW  790   2.215   0.813   0.444  0.8007 -0.4481  0.1697
  264SOL    HW1  791   2.204   0.731   0.381  2.8723  1.5352 -0.5253
  264SOL    HW2  792   2.320   0.822   0.445  0.1630 -0.7362 -1.1834
  265SOL     OW  793   0.954   2.452   2.618  0.0031 -0.0097  0.0444
  265SOL    HW1  794   1.014   2.490   2.698 -0.0494 -0.8826  0.0663
  265SOL    HW2  795   0.927   2.347   2.641  0.1635 -2.1058 -0.7368
  266SOL     OW  796   1.314   1.771   3.058  0.5013  0.0866 -1.1271
  266SOL    HW1  797   1.323   1.843   3.134 -1.2094  2.0857  0.4458
  266SOL    HW2  798   1.399   1.719   3.033  1.7179  1.1546 -0.0378
  267SOL     OW  799   1.039   0.028   2.344  0.2165  0.0532 -0.1094
  267SOL    HW1  800   1.017  -0.035   2.266  0.5886  1.7153 -0.6945
  267SOL    HW2  801   0.958   0.089   2.363  1.7260 -2.6904  1.6382
  268SOL     OW  802   0.613   1.155   1.046 -0.1477 -0.2425 -0.0784
  268SOL    HW1  803   0.627   1.214   1.129 -0.9554  2.7595  1.9835
  268SOL    HW2  804   0.596   1.206   0.960 -0.3241 -1.2804  2.9704
  269SOL     OW  805   2.302   2.567   1.608 -0.6276 -0.1228  0.0474
  269SOL    HW1  806   2.384   2.506   1.604  1.7522  0.5587 -0.3982
  269SOL    HW2  807   2.269   2.566   1.708  0.8330 -4.3031  2.2520
  270SOL     OW  808   0.165   2.956   1.982 -0.4660  0.7610 -0.5064
  270SOL    HW1  809   0.195   2.935   1.883 -0.8665  2.1261 -2.8426
  270SOL    HW2  810   0.110   2.879   2.026 -0.0723 -0.8831 -0.5279
  271SOL     OW  811   0.421   1.408   1.198  0.3102 -0.1565  0.3816
  271SOL    HW1  812   0.403   1.416   1.094  2.4897 -1.4385 -2.5182
  271SOL    HW2  813   0.344   1.365   1.253 -1.8666 -0.2947 -1.4664
  272SOL     OW  814   2.031   2.915   1.933  0.3379  0.1323 -0.3004
  272SOL    HW1  815   1.950   2.881   1.886  0.6084 -0.2538 -0.6271
  272SOL    HW2  816   2.113   2.951   1.875 -0.0295 -0.7207  1.4411
  273SOL     OW  817   1.481   1.447   2.740  0.1958  0.2743  0.1958
  273SOL    HW1  818   1.381   1.456   2.767  1.7516  0.9624 -0.1531
  273SOL    HW2  819   1.537   1.379   2.797 -0.9934 -0.2285 -1.6657
  274SOL     OW  820   1.190   0.499   2.057  0.3943 -0.2359  0.1340
  274SOL    HW1  821   1.161   0.404   2.026 -0.3883  0.0247 -0.0634
  274SOL    HW2  822   1.211   0.505   2.159  0.3822  3.7272 -0.7203
  275SOL     OW  823   0.618   2.093   1.882 -0.0192 -0.2106  0.5629
  275SOL    HW1  824   0.582   2.188   1.907 -0.4804 -3.0853 -2.7627
  275SOL    HW2  825   0.541   2.022   1.894  0.4432 -0.5716 -1.7756
  276SOL     OW  826   2.214   1.036   2.735  0.4567  0.4567  0.6413
  276SOL    HW1  827   2.123   1.033   2.683  0.4270 -0.0898 -2.7397
  276SOL    HW2  828   2.205   0.987   2.824 -1.1875  1.0291 -0.9065
  277SOL     OW  829  -0.003   0.805   0.227 -0.1487 -0.5401  0.2156
  277SOL    HW1  830   0.087   0.851   0.206  0.1275 -0.7830  1.1307
  277SOL    HW2  831   0.011   0.735   0.299 -0.8478  0.2074  1.4307
  278SOL     OW  832   0.239   0.319   2.994  0.1635 -0.1352 -0.9568
  278SOL    HW1  833   0.320   0.260   2.989 -0.1393  1.9183  1.4018
  278SOL    HW2  834   0.256   0.407   3.050  1.4821  0.4031  1.4593
  279SOL     OW  835   0.193   0.077   0.893  0.5339 -1.1207  0.3643
  279SOL    HW1  836   0.192   0.018   0.976 -0.9939 -0.3589  0.2200
  279SOL    HW2  837   0.251   0.036   0.816  1.9692 -1.3723  1.8330
  280SOL     OW  838   1.600   2.936   2.427  0.1040  0.3971  0.3950
  280SOL    HW1  839   1.621   3.000   2.503  0.0687  1.2541 -0.1862
  280SOL    HW2  840   1.535   2.982   2.361 -3.1940  1.3199  1.1506
  281SOL     OW  841   0.573   0.947   2.264  0.4630  0.2331  0.6225
  281SOL    HW1  842   0.561   0.866   2.205  0.1980  0.6707  2.2414
  281SOL    HW2  843   0.510   0.947   2.348 -0.1448  0.2519  1.2268
  282SOL     OW  844   1.779   2.505   0.508 -0.1093  0.2520 -0.1263
  282SOL    HW1  845   1.714   2.431   0.469 -0.0980 -3.3701  2.0790
  282SOL    HW2  846   1.729   2.584   0.558 -0.4163  0.8802 -0.5883
  283SOL     OW  847   1.236   0.932   0.823  0.1925  0.2952 -0.5045
  283SOL    HW1  848   1.243   0.879   0.913  1.4023 -1.4693 -0.0063
  283SOL    HW2  849   1.151   0.994   0.834 -2.9331 -0.9401 -0.0121
  284SOL     OW  850   2.241   2.841   2.543 -1.0666  0.4221 -0.1298
  284SOL    HW1  851   2.317   2.852   2.477  2.7718 -0.2773 -0.4690
  284SOL    HW2  852   2.249   2.901   2.631  1.2247  0.1919 -1.0991
  285SOL     OW  853   1.335   3.034   2.569  0.0869 -0.0211  0.1864
  285SOL    HW1  854   1.337   3.023   2.470  0.5685 -0.0862 -2.0240
  285SOL    HW2  855   1.249   3.089   2.598  0.4155  2.4805  0.6503
  286SOL     OW  856   0.440   0.430   0.715  0.0960  0.2191 -0.2738
  286SOL    HW1  857   0.377   0.393   0.792  0.7073  0.3972 -0.3348
  286SOL    HW2  858   0.439   0.360   0.640 -1.2024 -0.0137  3.7416
  287SOL     OW  859   0.095   1.262   2.490  0.0664 -0.3428 -0.5486
  287SOL    HW1  860   0.069   1.210   2.575  0.1934  0.6241  2.2652
  287SOL    HW2  861   0.074   1.363   2.514 -0.8090 -2.2601  0.2678
  288SOL     OW  862   1.593   2.646   1.620 -0.1620 -0.6382  0.0889
  288SOL    HW1  863   1.584   2.582   1.699 -0.1974 -2.5579  1.2579
  288SOL    HW2  864   1.634   2.595   1.532 -0.4119  0.0339 -4.3590
  289SOL     OW  865   0.626   2.739   0.866 -0.5874  0.3028  0.1039
  289SOL    HW1  866   0.682   2.787   0.789  2.3330 -0.1720 -0.8554
  289SOL    HW2  867   0.597   2.801   0.942  2.1788  2.1074 -1.3889
  290SOL     OW  868   2.803   1.145   1.788 -0.3171 -0.2194  0.3697
  290SOL    HW1  869   2.721   1.079   1.780 -2.0919  0.6138 -1.5059
  290SOL    HW2  870   2.883   1.103   1.835  0.9995  0.1347  2.7453
  291SOL     OW  871   2.002   0.017   0.015  0.1445  0.2749 -0.0193
  291SOL    HW1  872   2.017   0.051   0.115 -1.5609 -1.1801  2.4834
  291SOL    HW2  873   2.084   0.046  -0.040 -1.3084 -0.4277  0.4376
  292SOL     OW  874   3.010   1.197   3.076 -0.2419  0.4067  0.1122
  292SOL    HW1  875   2.945   1.246   3.015 -1.1525  1.3917  0.2617
  292SOL    HW2  876   3.084   1.148   3.019  2.5956  1.4458 -2.5983
  293SOL     OW  877   0.554   2.140   0.269  0.5381  0.4772  0.1707
  293SOL    HW1  878   0.516   2.210   0.343 -2.6618  2.0015  3.9442
  293SOL    HW2  879   0.658   2.137   0.256  0.0263  2.1695 -0.6163
  294SOL     OW  880   1.836   2.282   1.767 -0.2277 -0.1709  0.2464
  294SOL    HW1  881   1.857   2.349   1.841 -0.3617 -1.2880 -1.9272
  294SOL    HW2  882   1.790   2.337   1.687  1.5080  1.4203 -0.9421
  295SOL     OW  883   0.973   1.066   0.430  0.5924 -0.5442  0.0155
  295SOL    HW1  884   1.073   1.048   0.465  0.1180 -0.0211  1.7068
  295SOL    HW2  885   0.905   1.074   0.510 -4.3650 -1.0852  0.9716
  296SOL     OW  886   1.187   2.121   2.601  0.7231 -0.5848 -0.1958
  296SOL    HW1  887   1.089   2.153   2.585 -1.4708  0.7342  1.6454
  296SOL    HW2  888   1.215   2.038   2.539  2.5044 -0.3520  1.9204
  297SOL     OW  889   1.390   0.630   1.319 -0.6062 -0.2924 -0.2969
  297SOL    HW1  890   1.428   0.570   1.390  0.9634  1.9877 -0.7721
  297SOL    HW2  891   1.467   0.658   1.248  0.0129  0.4954 -2.0258
  298SOL     OW  892   0.500   1.362   2.985 -0.1765  0.2853 -0.5214
  298SOL    HW1  893   0.482   1.307   3.075  0.2565 -0.0800  2.1920
  298SOL    HW2  894   0.525   1.300   2.910 -2.6886  1.4297  2.7388
  299SOL     OW  895   0.466   0.283   1.214  0.1501 -0.1643  0.1448
  299SOL    HW1  896   0.415   0.375   1.241 -0.8288  1.2267  0.2920
  299SOL    HW2  897   0.528   0.245   1.286 -1.6697  0.8437  1.7193
  300SOL     OW  898   1.255   1.698   2.671  0.1375 -0.7674 -0.3243
  300SOL    HW1  899   1.242   1.613   2.729 -0.5154  1.6182 -0.7545
  300SOL    HW2  900   1.345   1.749   2.697  2.1005  0.8226  0.1782
  301SOL     OW  901   0.372   0.289   0.488 -0.6504  0.2886 -0.2112
  301SOL    HW1  902   0.269   0.267   0.479 -2.1662 -0.3229 -0.2535
  301SOL    HW2  903   0.433   0.227   0.427  3.9595 -1.2560  0.8345
  302SOL     OW  904   1.283   2.420   2.365  0.4252 -0.0088 -0.1785
  302SOL    HW1  905   1.215   2.494   2.402  0.1658  2.2989 -0.1123
  302SOL    HW2  906   1.307   2.346   2.430 -2.8036  1.5418 -0.9821
  303SOL     OW  907   0.950   2.394   0.794 -0.0899  0.4892 -0.2514
  303SOL    HW1  908   1.003   2.450   0.730 -0.4522 -1.5071  0.4369
  303SOL    HW2  909   0.956   2.432   0.892 -0.1436  1.1128 -0.5709
  304SOL     OW  910   0.103   1.953   0.675  0.0440  0.0677  0.4906
  304SOL    HW1  911   0.169   1.967   0.591 -0.2347 -1.9289 -1.4568
  304SOL    HW2  912   0.023   2.020   0.662  0.2755  2.7584  0.2719
  305SOL     OW  913   1.592   0.831   0.656 -0.2137 -0.2909 -0.1579
  305SOL    HW1  914   1.568   0.834   0.553 -4.7545  2.5742 -1.2394
  305SOL    HW2  915   1.634   0.743   0.689 -2.5628  2.5674  1.5737
  306SOL     OW  916   0.445   1.877   1.892  0.4676 -0.3976 -0.2656
  306SOL    HW1  917   0.526   1.814   1.867  0.4125 -2.9987  0.4697
  306SOL    HW2  918   0.440   1.908   1.995  1.4858  2.6928  1.6300
  307SOL     OW  919   3.067   0.876   2.510  0.3113 -0.2462  0.3747
  307SOL    HW1  920   3.087   0.954   2.575  0.1967  1.9601 -2.6451
  307SOL    HW2  921   2.986   0.816   2.532  0.2588  3.2357  1.1968
  308SOL     OW  922   1.563   2.677   2.785  0.4630  0.5781  0.3115
  308SOL    HW1  923   1.551   2.648   2.687  0.1498 -1.5254 -1.6244
  308SOL    HW2  924   1.547   2.604   2.858  3.3267  0.4943 -0.1229
  309SOL     OW  925   1.268   0.202   1.771 -0.8796 -0.3568  0.0581
  309SOL    HW1  926   1.356   0.149   1.775 -0.1934 -0.0183 -0.7181
  309SOL    HW2  927   1.205   0.186   1.688  0.1804  1.1294  0.2226
  310SOL     OW  928   1.525   2.565   0.689 -0.2327 -0.2678  0.1699
  310SOL    HW1  929   1.489   2.539   0.782  2.6729 -1.3398 -1.6009
  310SOL    HW2  930   1.581   2.659   0.687  3.7951  0.2103  1.6018
  311SOL     OW  931   1.155   0.910   1.700 -0.2408 -0.2661  0.6026
  311SOL    HW1  932   1.110   0.834   1.760 -0.6985 -1.0602  0.1261
  311SOL    HW2  933   1.188   0.875   1.607  0.8049  0.8601  2.1617
  312SOL     OW  934   1.570   0.745   1.148 -0.0829  0.0975  0.2760
  312SOL    HW1  935   1.590   0.845   1.122  1.1818  2.9117 -0.5490
  312SOL    HW2  936   1.520   0.691   1.071 -1.1692 -0.7788 -3.1470
  313SOL     OW  937   1.585   1.407   0.702  0.4061 -0.1891  0.0537
  313SOL    HW1  938   1.521   1.468   0.748  0.3284 -2.2571 -0.0146
  313SOL    HW2  939   1.546   1.306   0.700 -0.6552  1.7518 -0.6571
  314SOL     OW  940   2.966   0.036   3.048 -0.1728 -0.5864  0.5752
  314SOL    HW1  941   2.984   0.054   3.147 -1.0007  1.0565 -0.6441
  314SOL    HW2  942   2.875  -0.001   3.028  0.6440  0.6997  3.1878
  315SOL     OW  943   1.116   0.236   2.819 -0.4402  0.1517 -0.3658
  315SOL    HW1  944   1.102   0.169   2.739 -0.1788  0.8216 -2.2330
  315SOL    HW2  945   1.135   0.180   2.908  0.9203 -0.5585 -0.9290
  316SOL     OW  946   1.766   2.064   0.955 -0.5467 -0.1592  0.0593
  316SOL    HW1  947   1.701   2.063   1.030  1.0732  0.6931 -1.4505
  316SOL    HW2  948   1.754   2.141   0.882  2.9893  0.3268 -1.5279
  317SOL     OW  949   1.195   0.670   2.824 -0.1301 -0.6061  0.2824
  317SOL    HW1  950   1.171   0.704   2.923  1.4375 -2.8043  2.7562
  317SOL    HW2  951   1.119   0.612   2.787  2.5733  3.4286  0.6211
  318SOL     OW  952   1.416   3.020   2.238  0.3962  0.1676 -0.5085
  318SOL    HW1  953   1.358   3.107   2.236  0.2245  0.8089 -0.1991
  318SOL    HW2  954   1.419   2.972   2.145  1.4169 -1.0855 -1.0367
  319SOL     OW  955   0.584   2.421   2.915 -0.2637 -0.1221 -0.4559
  319SOL    HW1  956   0.544   2.357   2.986  0.1262 -1.1898  0.0473
  319SOL    HW2  957   0.656   2.376   2.862  0.4764 -2.2880 -1.1021
  320SOL     OW  958   1.686   2.239   0.414  0.1733 -0.4854  0.4088
  320SOL    HW1  959   1.768   2.172   0.401  3.3347 -3.0554 -1.7047
  320SOL    HW2  960   1.607   2.198   0.464  2.4138  3.3683  2.0468
  321SOL     OW  961   1.675   2.784   0.568  0.2328  0.1866 -0.5114
  321SOL    HW1  962   1.606   2.796   0.498  0.9838  0.5955  1.7506
  321SOL    HW2  963   1.770   2.817   0.546 -0.8792 -1.5286  0.2164
  322SOL     OW  964   2.588   1.129   2.324  0.1817 -0.0548 -0.4799
  322SOL    HW1  965   2.668   1.146   2.390  2.1231 -0.3857  1.6010
  322SOL    HW2  966   2.536   1.037   2.341  0.6170 -1.2717 -0.6349
  323SOL     OW  967   1.180   2.695   0.861 -0.6353 -0.2303 -0.5557
  323SOL    HW1  968   1.146   2.661   0.772 -1.2629  1.9086 -1.9084
  323SOL    HW2  969   1.120   2.769   0.902  2.3920 -0.4549 -2.4053
  324SOL     OW  970   0.267   2.454   2.502 -0.1363  0.8367  0.4038
  324SOL    HW1  971   0.254   2.399   2.586 -0.3803  1.5254  0.6131
  324SOL    HW2  972   0.255   2.551   2.524  1.9700  0.8958  0.1505
  325SOL     OW  973   1.263   3.044   0.446 -0.2447 -0.8372 -0.0940
  325SOL    HW1  974   1.291   3.090   0.359 -1.5614 -0.5760 -0.7927
  325SOL    HW2  975   1.270   3.106   0.527 -0.9839 -1.1075 -1.0895
  326SOL     OW  976   2.444   0.779   0.000  0.0176 -0.2299 -0.2056
  326SOL    HW1  977   2.366   0.719  -0.025  0.0979 -0.0567 -1.5423
  326SOL    HW2  978   2.526   0.734   0.039 -2.7371 -0.4460 -2.2253
  327SOL     OW  979   2.818   0.311   0.610 -0.1902 -0.1272 -0.7026
  327SOL    HW1  980   2.792   0.266   0.519 -1.9625  2.9998 -4.0210
  327SOL    HW2  981   2.834   0.249   0.690 -0.6690  4.8026  0.1465
  328SOL     OW  982   2.591   0.578   0.400 -0.0398  0.1338  0.3453
  328SOL    HW1  983   2.557   0.675   0.416  0.2626  0.3132 -1.8047
  328SOL    HW2  984   2.578   0.515   0.481  2.2768  2.3428 -1.1270
  329SOL     OW  985   2.935   2.947   2.160 -0.5385 -0.3555 -0.0956
  329SOL    HW1  986   3.010   2.892   2.208 -0.6507  1.1894 -0.3307
  329SOL    HW2  987   2.949   3.051   2.174 -1.1374 -1.4378 -0.9561
  330SOL     OW  988   0.540   0.214   1.886  0.2389 -0.1207 -0.2073
  330SOL    HW1  989   0.635   0.216   1.833  3.3734 -1.8854  0.3660
  330SOL    HW2  990   0.544   0.135   1.959  2.6431 -1.8972  2.0743
  331SOL     OW  991   3.002   1.961   1.101  0.5591 -0.1945 -0.3654
  331SOL    HW1  992   2.957   2.043   1.055 -2.9063 -2.0251  0.7479
  331SOL    HW2  993   2.944   1.925   1.180  0.8579 -0.2912  0.7013
  332SOL     OW  994   0.406   1.190   0.086 -0.1417  0.2749  0.3253
  332SOL    HW1  995   0.375   1.119   0.025  0.8292  1.3246 -0.9145
  332SOL    HW2  996   0.347   1.213   0.168 -0.5670  0.6381  0.2360
  333SOL     OW  997   2.924   1.045   0.246  0.3310 -0.2264 -0.0453
  333SOL    HW1  998   2.966   1.079   0.333 -1.1515  0.0145  1.7790
  333SOL    HW2  999   2.980   0.970   0.206  2.4918 -1.5477 -0.1850
  334SOL     OW 1000   1.711   1.280   1.821 -0.5603 -0.0461 -0.4328
  334SOL    HW1 1001   1.795   1.261   1.760 -0.7466  0.1434  1.7640
  334SOL    HW2 1002   1.734   1.296   1.923  0.3729 -1.3281 -0.3389
  335SOL     OW 1003   2.002   2.714   2.582 -0.1086  0.3191 -0.4021
  335SOL    HW1 1004   1.956   2.721   2.677 -1.8654  0.5698  1.1528
  335SOL    HW2 1005   2.088   2.775   2.574  1.7992  1.7497 -2.2105
  336SOL     OW 1006   0.243   0.086   2.714  0.2569 -0.3799  0.2911
  336SOL    HW1 1007   0.318   0.087   2.784 -0.7144  2.3551  0.1580
  336SOL    HW2 1008   0.150   0.045   2.745 -0.5319  0.1233 -0.9646
  337SOL     OW 1009   1.004   2.870   2.870 -0.7292  0.0276  0.8261
  337SOL    HW1 1010   0.952   2.827   2.947  2.0751 -2.9266  2.8032
  337SOL    HW2 1011   1.080   2.932   2.899 -3.0030 -1.2500 -0.7847
  338SOL     OW 1012   0.074   1.017   0.662  0.2889  0.0418  0.1199
  338SOL    HW1 1013  -0.018   0.984   0.693  2.0382  0.2105  1.2117
  338SOL    HW2 1014   0.073   1.122   0.675 -1.3370 -0.1400  2.2936
  339SOL     OW 1015   1.713   1.317   2.100 -0.0565  0.0181  0.1382
  339SOL    HW1 1016   1.609   1.345   2.096 -0.7243  0.3773  0.5012
  339SOL    HW2 1017   1.772   1.406   2.102  4.9371 -2.1774  5.2966
  340SOL     OW 1018   2.290   0.780   1.155 -0.0439 -0.4793  0.3753
  340SOL    HW1 1019   2.190   0.768   1.140 -0.2929  0.1832 -0.0848
  340SOL    HW2 1020   2.350   0.704   1.112 -1.3529 -3.0706  0.5249
  341SOL     OW 1021   1.918   2.091   0.291  0.2614 -0.0875  0.1849
  341SOL    HW1 1022   1.925   2.137   0.197  0.6412 -0.7039 -1.9981
  341SOL    HW2 1023   2.012   2.075   0.336 -0.5845 -1.0308 -0.0915
  342SOL     OW 1024   2.189   2.122   2.792 -0.4138  0.6158  0.0897
  342SOL    HW1 1025   2.246   2.060   2.848  1.9964  2.5486 -1.8662
  342SOL    HW2 1026   2.087   2.103   2.794 -0.1914 -3.6803 -1.8822
  343SOL     OW 1027   0.368   0.827   2.788 -0.0339 -0.2981  0.9847
  343SOL    HW1 1028   0.373   0.797   2.687 -0.3552 -1.4058 -0.4968
  343SOL    HW2 1029   0.457   0.836   2.840  1.3372  1.3157 -2.0591
  344SOL     OW 1030   1.932   1.468   0.433 -0.8678  0.0578 -0.0609
  344SOL    HW1 1031   1.925   1.389   0.363  1.3380  0.8860 -0.7307
  344SOL    HW2 1032   1.837   1.499   0.462 -0.5908 -0.3838  0.8938
  345SOL     OW 1033   1.414   2.254   2.898 -0.0301 -0.0215 -0.3449
  345SOL    HW1 1034   1.316   2.235   2.868 -0.0545 -1.0330 -1.5655
  345SOL    HW2 1035   1.476   2.191   2.844  0.1385 -0.2355 -2.4670
  346SOL     OW 1036   2.354   0.885   1.395  0.3537 -0.0032 -0.2812
  346SOL    HW1 1037   2.300   0.975   1.413 -0.3184 -1.5191  2.4490
  346SOL    HW2 1038   2.333   0.842   1.305  2.0946 -0.0281  0.2378
  347SOL     OW 1039   0.748   2.728   1.615  0.1870  0.3208  0.0861
  347SOL    HW1 1040   0.680   2.731   1.693 -2.0246  0.5389  0.4973
  347SOL    HW2 1041   0.740   2.801   1.542 -0.2240 -3.2169 -0.0948
  348SOL     OW 1042   0.173   0.718   2.916  0.1577  0.3515 -0.3591
  348SOL    HW1 1043   0.086   0.700   2.869 -0.2756 -2.4849 -0.2928
  348SOL    HW2 1044   0.248   0.745   2.852 -1.2117  0.6286  0.4143
  349SOL     OW 1045   1.874   0.437   2.784  0.2976 -0.6024 -0.3059
  349SOL    HW1 1046   1.869   0.533   2.745  0.0840 -1.5258  0.0946
  349SOL    HW2 1047   1.870   0.431   2.885  0.2743  1.7767 -2.2812
  350SOL     OW 1048   1.646   0.422   0.389 -0.3036 -0.3727  0.0473
  350SOL    HW1 1049   1.741   0.408   0.438  2.1383 -1.1453 -1.7377
  350SOL    HW2 1050   1.635   0.520   0.349  0.1647 -0.1499  0.0951
  351SOL     OW 1051   0.983   0.806   2.115 -0.0151  0.2352 -0.3527
  351SOL    HW1 1052   1.026   0.897   2.103 -0.0467  0.1557 -2.2935
  351SOL    HW2 1053   1.017   0.740   2.040  1.9423  0.9373 -0.5655
  352SOL     OW 1054   2.051   1.341   0.655  0.8183  0.4219  0.3098
  352SOL    HW1 1055   2.025   1.409   0.584  0.0088 -3.0881  1.2306
  352SOL    HW2 1056   1.973   1.284   0.701  0.4459 -0.4879 -2.2250
  353SOL     OW 1057   2.142   2.801   1.103  0.1414  0.5946 -0.1414
  353SOL    HW1 1058   2.207   2.753   1.171 -3.1034 -0.2517 -0.5553
  353SOL    HW2 1059   2.058   2.743   1.082  0.9234  0.5673  2.7635
  354SOL     OW 1060   0.235   1.367   2.870 -0.3882  0.1324 -0.4304
  354SOL    HW1 1061   0.208   1.450   2.814 -3.2633  0.4151  0.1923
  354SOL    HW2 1062   0.330   1.390   2.910  2.0293  1.0905  1.2178
  355SOL     OW 1063   0.713   1.598   0.574  0.5014  0.2605 -0.6875
  355SOL    HW1 1064   0.682   1.534   0.650  1.4215 -1.5621 -2.8465
  355SOL    HW2 1065   0.719   1.549   0.480 -0.8930  0.6681  0.6579
  356SOL     OW 1066   0.801   0.336   2.045 -0.1097 -0.1809  0.2497
  356SOL    HW1 1067   0.892   0.284   2.027 -2.4104 -1.3469  0.8442
  356SOL    HW2 1068   0.758   0.375   1.951  0.7266  1.2777 -0.9011
  357SOL     OW 1069   1.017   1.325   0.309 -0.8456  0.0998 -0.0203
  357SOL    HW1 1070   1.121   1.325   0.316  0.2668  0.7565 -1.2212
  357SOL    HW2 1071   0.976   1.242   0.359 -1.9805 -1.5916  3.0683
  358SOL     OW 1072   1.661   1.547   0.477 -0.5653 -0.0257 -0.3037
  358SOL    HW1 1073   1.653   1.501   0.567  0.8904 -0.2324  0.2951
  358SOL    HW2 1074   1.619   1.491   0.402  0.2158 -3.8447 -1.8536
  359SOL     OW 1075   1.568   2.631   0.212 -0.1768 -0.4976  0.1848
  359SOL    HW1 1076   1.576   2.528   0.216  1.5619 -3.2356  0.8631
  359SOL    HW2 1077   1.511   2.667   0.290  2.4918  0.2638 -0.9897
  360SOL     OW 1078   0.788   0.576   0.528  0.1772 -0.5778  0.1906
  360SOL    HW1 1079   0.690   0.583   0.500  0.3730 -0.9293  0.1722
  360SOL    HW2 1080   0.816   0.488   0.565 -1.0051  3.1860  0.2621
  361SOL     OW 1081   1.254   1.304   0.668  0.3874  0.0841  0.0089
  361SOL    HW1 1082   1.308   1.365   0.730  2.2532  0.7512 -1.4310
  361SOL    HW2 1083   1.156   1.329   0.664  1.0034 -0.0892  0.0223
  362SOL     OW 1084   1.383   1.807   0.818  0.0857 -0.5703 -0.3203
  362SOL    HW1 1085   1.434   1.723   0.848  0.7825  0.2156 -2.6057
  362SOL    HW2 1086   1.438   1.868   0.756 -1.0465 -0.2252 -0.0642
  363SOL     OW 1087   1.231   1.337   2.051  0.1995  0.7558 -0.0939
  363SOL    HW1 1088   1.316   1.385   2.092  0.1490 -2.6809  1.5204
  363SOL    HW2 1089   1.198   1.371   1.958  0.5409 -3.1890 -0.7733
  364SOL     OW 1090   0.527   2.330   1.987 -0.2908  0.2977  0.4140
  364SOL    HW1 1091   0.428   2.355   1.994 -0.6052  1.1555 -0.5552
  364SOL    HW2 1092   0.567   2.370   1.898  0.2071  1.4932  1.0679
  365SOL     OW 1093   0.980   1.975   1.333 -0.0448  0.2237 -0.3227
  365SOL    HW1 1094   0.890   1.970   1.386  0.2967  1.7118 -1.3138
  365SOL    HW2 1095   0.969   1.997   1.235 -0.9660 -0.9786  0.4467
  366SOL     OW 1096   2.835   1.952   0.386  0.2245  0.0055 -0.0204
  366SOL    HW1 1097   2.743   1.928   0.419  3.8786  0.1147  1.1625
  366SOL    HW2 1098   2.881   1.874   0.332  0.1351  1.8150 -0.8194
  367SOL     OW 1099   0.881   1.140   3.087  0.1289 -0.0151 -0.1145
  367SOL    HW1 1100   0.917   1.072   3.152 -1.0326 -0.3025 -0.2757
  367SOL    HW2 1101   0.950   1.218   3.073 -0.4834  2.1296 -0.0141
  368SOL     OW 1102   1.449   0.545   0.662  0.4718 -0.5954 -0.4842
  368SOL    HW1 1103   1.402   0.583   0.580  0.3460 -4.2980  0.6508
  368SOL    HW2 1104   1.547   0.566   0.648 -1.4334 -2.9345 -0.0141
  369SOL     OW 1105   0.364   1.678   0.111  0.1237 -0.2742  0.4977
  369SOL    HW1 1106   0.410   1.750   0.178 -0.7050  2.1693  0.8177
  369SOL    HW2 1107   0.274   1.634   0.146  1.0583 -0.6988  1.4242
  370SOL     OW 1108   0.422   2.034   1.031 -0.0580  0.0586  0.6157
  370SOL    HW1 1109   0.423   2.134   1.000  0.4089 -0.3102 -1.0609
  370SOL    HW2 1110   0.330   1.992   1.031  4.2315 -0.9510  1.1864
  371SOL     OW 1111   2.908   2.206   2.647 -0.1197  0.0215  0.2481
  371SOL    HW1 1112   2.850   2.178   2.725 -0.9944  0.0730 -2.6675
  371SOL    HW2 1113   3.004   2.228   2.671 -1.0876 -1.9274 -0.4440
  372SOL     OW 1114   1.039   2.013   1.057 -0.0810 -0.0547  0.2741
  372SOL    HW1 1115   0.963   2.055   0.997 -0.1376  0.9595  0.6242
  372SOL    HW2 1116   1.133   2.043   1.022 -0.2889 -0.7728 -2.1474
  373SOL     OW 1117   1.987   1.954   0.836 -0.5471 -0.4275 -0.3791
  373SOL    HW1 1118   2.078   1.967   0.887  1.1409 -0.6003 -1.2087
  373SOL    HW2 1119   1.898   1.998   0.874 -2.6763 -0.3571 -1.0835
  374SOL     OW 1120   1.863   0.394   0.568 -0.0195 -0.2444 -0.3583
  374SOL    HW1 1121   1.854   0.337   0.657  1.3886  0.2654  2.5017
  374SOL    HW2 1122   1.966   0.407   0.547 -4.0570 -0.9472  0.4141
  375SOL     OW 1123   2.394   2.152   1.071  0.4008  0.1360 -0.2461
  375SOL    HW1 1124   2.440   2.120   0.983 -1.8095 -2.8122  1.0919
  375SOL    HW2 1125   2.431   2.105   1.157 -1.5033  2.6656 -0.3286
  376SOL     OW 1126   3.051   0.571   1.501 -0.5748 -0.0259  0.4207
  376SOL    HW1 1127   3.065   0.648   1.571  1.2167 -0.0334  0.4600
  376SOL    HW2 1128   2.981   0.500   1.540 -4.0489 -0.2102  0.5630
  377SOL     OW 1129   2.167   2.921   0.281 -0.5127 -0.1781 -0.0664
  377SOL    HW1 1130   2.181   3.015   0.319 -0.8197  0.6255  2.6267
  377SOL    HW2 1131   2.244   2.856   0.306 -0.9974  0.1334  1.0412
  378SOL     OW 1132   1.791   1.860   2.616 -0.4326 -0.1383 -0.4759
  378SOL    HW1 1133   1.828   1.837   2.708 -0.9483 -0.0729  1.0473
  378SOL    HW2 1134   1.774   1.769   2.570 -3.0757  0.0695  2.1628
  379SOL     OW 1135   0.698   0.100   2.882 -0.0413 -0.0519  0.0834
  379SOL    HW1 1136   0.714   0.020   2.825 -0.6389  0.1756 -0.8511
  379SOL    HW2 1137   0.734   0.188   2.837  0.2716 -1.2158 -1.8163
  380SOL     OW 1138   1.519   1.143   0.621  0.0271  0.3469  0.1219
  380SOL    HW1 1139   1.424   1.178   0.618  1.1260 -1.0100  0.6636
  380SOL    HW2 1140   1.529   1.042   0.645  0.0309 -1.3781  0.6542
  381SOL     OW 1141   1.341   1.179   1.524  0.3851 -0.3629 -0.0376
  381SOL    HW1 1142   1.386   1.157   1.432 -1.4308 -0.6301 -0.8073
  381SOL    HW2 1143   1.347   1.107   1.595  1.1044  0.8453 -0.2313
  382SOL     OW 1144   1.777   0.864   0.177  0.2517  0.2424  0.1895
  382SOL    HW1 1145   1.821   0.862   0.082 -1.2492 -0.8332 -0.8477
  382SOL    HW2 1146   1.844   0.893   0.253 -0.0769  0.7079  0.4403
  383SOL     OW 1147   2.594   1.023   1.456 -0.2547 -0.4274  0.1031
  383SOL    HW1 1148   2.494   0.994   1.432 -1.3864  0.5659 -2.2367
  383SOL    HW2 1149   2.661   0.964   1.405  0.9108 -4.1202 -1.1906
  384SOL     OW 1150   0.989   2.265   0.121  0.1479 -0.4598  0.4832
  384SOL    HW1 1151   0.929   2.344   0.158 -0.9916 -0.6629 -0.0590
  384SOL    HW2 1152   0.986   2.184   0.188 -0.5339 -0.3900 -1.0106
  385SOL     OW 1153   3.020   2.055   1.645 -0.2118 -0.4278  0.2538
  385SOL    HW1 1154   3.092   2.126   1.654 -0.0768  2.9370  0.5044
  385SOL    HW2 1155   3.048   1.955   1.648 -0.8505 -0.5090 -1.8272
  386SOL     OW 1156   0.485   1.074   0.421  0.1537 -0.4847  0.2601
  386SOL    HW1 1157   0.458   0.977   0.448 -2.2806  0.7421 -0.4797
  386SOL    HW2 1158   0.404   1.129   0.400  2.1536  0.7398  0.3275
  387SOL     OW 1159   0.974   0.289   1.673  0.2904  0.0040  0.4889
  387SOL    HW1 1160   1.031   0.370   1.693 -0.7219  0.8993  0.8793
  387SOL    HW2 1161   0.927   0.299   1.580 -0.0495 -0.4294  0.3522
  388SOL     OW 1162   1.199   2.690   1.736  0.1886 -0.0255  0.1839
  388SOL    HW1 1163   1.229   2.687   1.636 -0.6278 -0.4696  0.8931
  388SOL    HW2 1164   1.233   2.603   1.780 -0.7047  1.0683  0.7621
  389SOL     OW 1165   0.200   3.016   1.125  0.1537  1.2033  0.3208
  389SOL    HW1 1166   0.153   3.006   1.215  1.3585 -0.6029  2.6545
  389SOL    HW2 1167   0.226   2.919   1.088 -2.4409 -2.1763 -0.1514
  390SOL     OW 1168   1.015   0.971   1.346 -0.0766  0.8750 -0.4277
  390SOL    HW1 1169   1.115   0.952   1.372  1.0725  0.5716  0.5842
  390SOL    HW2 1170   0.978   1.067   1.377  1.0194  1.1449 -1.6903
  391SOL     OW 1171   2.144   1.086   1.077 -0.1172  0.3205 -0.2209
  391SOL    HW1 1172   2.112   1.000   1.127  2.6780 -3.5800  2.3682
  391SOL    HW2 1173   2.178   1.066   0.982  1.6630 -1.3035  2.1952
  392SOL     OW 1174   0.852   2.748  -0.001 -0.4310 -0.4344 -0.5777
  392SOL    HW1 1175   0.910   2.664  -0.018  0.2886  0.6407  0.5024
  392SOL    HW2 1176   0.894   2.813   0.064 -1.4376  0.9132  2.9126
  393SOL     OW 1177   0.355   0.524   2.006  0.7856  0.0631 -0.4814
  393SOL    HW1 1178   0.310   0.437   1.970 -1.1494 -3.8998  2.3416
  393SOL    HW2 1179   0.433   0.551   1.944  0.1211  0.1656  3.1494
  394SOL     OW 1180   3.061   1.825   2.805 -0.5921 -0.3195 -0.3971
  394SOL    HW1 1181   3.103   1.788   2.889 -3.7480  1.6782  1.3327
  394SOL    HW2 1182   3.094   1.921   2.777  0.1096 -1.4155 -0.7954
  395SOL     OW 1183   1.633   1.956   0.682  0.4755  0.3948  0.0932
  395SOL    HW1 1184   1.689   1.919   0.601  0.7536  0.3661  0.5398
  395SOL    HW2 1185   1.689   1.966   0.770  0.5786 -2.1848 -0.4258
  396SOL     OW 1186   2.844   1.873   1.297 -0.1873  0.4128  0.2539
  396SOL    HW1 1187   2.779   1.799   1.259  0.1810 -2.4854  2.5549
  396SOL    HW2 1188   2.809   1.925   1.376  2.4319 -2.0162 -3.8915
  397SOL     OW 1189   1.039   2.242   0.506 -0.1665 -0.2281  0.1523
  397SOL    HW1 1190   0.948   2.196   0.520 -2.2140  1.7520 -1.5988
  397SOL    HW2 1191   1.036   2.341   0.537  0.9598 -2.4667 -2.1902
  398SOL     OW 1192   2.135   3.049   1.006 -0.3275  0.7671 -0.1662
  398SOL    HW1 1193   2.131   2.953   1.055  2.6869 -0.7498  1.4850
  398SOL    HW2 1194   2.091   3.122   1.061  1.0365 -2.9263 -1.9628
  399SOL     OW 1195   3.032   2.506   2.529  0.3259 -0.8623 -0.5586
  399SOL    HW1 1196   2.944   2.510   2.478  1.4251 -0.8846 -0.1084
  399SOL    HW2 1197   3.023   2.450   2.622 -0.8804  3.1772  1.8260
  400SOL     OW 1198   0.772   1.622   1.342 -0.1654 -0.0936 -0.0244
  400SOL    HW1 1199   0.721   1.679   1.408 -0.9227  3.2373 -2.3211
  400SOL    HW2 1200   0.787   1.668   1.247  2.6273 -0.8948  0.7600
  401SOL     OW 1201   1.791   0.090   1.352 -0.2771  0.3678 -0.5937
  401SOL    HW1 1202   1.837   0.114   1.440 -2.3382 -1.6224 -1.1302
  401SOL    HW2 1203   1.687   0.110   1.345  0.0594 -1.2857 -0.8655
  402SOL     OW 1204   1.323   0.142   3.053  0.0617 -0.2662  0.5605
  402SOL    HW1 1205   1.411   0.121   3.001 -2.3783  1.0964 -0.6923
  402SOL    HW2 1206   1.295   0.245   3.055  2.2530  3.1380 -0.5772
  403SOL     OW 1207   2.321   1.777   0.879  0.1169  0.0066  0.2130
  403SOL    HW1 1208   2.418   1.758   0.909  2.0458 -1.9266 -2.3348
  403SOL    HW2 1209   2.275   1.848   0.938 -1.1394 -1.4318 -1.7702
  404SOL     OW 1210   0.186   2.516   2.804 -0.2933  0.4162 -0.5410
  404SOL    HW1 1211   0.285   2.488   2.830  1.1089  0.9419  1.3686
  404SOL    HW2 1212   0.168   2.615   2.831  1.7917 -0.3653  1.1234
  405SOL     OW 1213   0.167   2.403   0.665  0.1643 -0.1479  0.3043
  405SOL    HW1 1214   0.129   2.419   0.567  1.5267  1.2715 -0.2253
  405SOL    HW2 1215   0.205   2.488   0.706 -3.7376 -0.6107  0.0551
  406SOL     OW 1216   0.018   1.496   3.026  0.9982  0.6290  0.2346
  406SOL    HW1 1217   0.054   1.397   3.043 -0.8344 -1.1119 -0.4756
  406SOL    HW2 1218   0.095   1.559   3.025 -0.0713 -1.7256  0.3751
  407SOL     OW 1219   1.579   0.962   0.886 -0.0239  0.0571  0.1474
  407SOL    HW1 1220   1.560   0.885   0.818  0.0215  1.3798  1.5257
  407SOL    HW2 1221   1.502   0.989   0.939  1.5902 -2.8052  0.7743
  408SOL     OW 1222   1.580   2.326   0.940  0.3668  0.4094  0.1038
  408SOL    HW1 1223   1.651   2.339   0.869 -0.9618  0.7660  0.7686
  408SOL    HW2 1224   1.501   2.398   0.935 -0.8747 -1.9745 -1.0990
  409SOL     OW 1225   0.641   0.845   0.673 -0.7531  0.0076 -0.1153
  409SOL    HW1 1226   0.576   0.837   0.595 -1.2689  1.7813 -0.3890
  409SOL    HW2 1227   0.635   0.758   0.737  0.1765 -0.8350  2.1218
  410SOL     OW 1228   1.266   2.056   1.427  0.6547  0.1158 -0.7178
  410SOL    HW1 1229   1.332   1.987   1.467 -0.5119  1.7091  0.4130
  410SOL    HW2 1230   1.161   2.028   1.440 -3.2600 -0.2618  2.3817
  411SOL     OW 1231   2.512   1.855   3.095  0.4708  0.0128 -0.2904
  411SOL    HW1 1232   2.444   1.897   3.031  0.3623  0.0363 -0.5224
  411SOL    HW2 1233   2.592   1.811   3.042  0.8758 -0.4135 -1.5108
  412SOL     OW 1234   1.461   2.504   2.194 -0.2752 -0.5082  0.1864
  412SOL    HW1 1235   1.495   2.583   2.249  0.5677 -2.4065  0.8650
  412SOL    HW2 1236   1.383   2.454   2.244  0.4872  0.2741 -0.6980
  413SOL     OW 1237   3.076   0.284   2.967  0.1032 -0.3978  0.1436
  413SOL    HW1 1238   3.052   0.185   2.992 -1.8198  0.3904  1.7116
  413SOL    HW2 1239   3.180   0.301   2.978 -2.3690  3.1938  2.6990
  414SOL     OW 1240   1.824   1.496   1.240 -0.1312  0.8855  0.0326
  414SOL    HW1 1241   1.728   1.543   1.261 -1.1172 -1.3296 -0.7503
  414SOL    HW2 1242   1.816   1.423   1.170  3.5687  0.5594  2.0894
  415SOL     OW 1243   0.324   2.168   0.727  0.5009  0.3142 -0.5304
  415SOL    HW1 1244   0.273   2.251   0.696  0.2080 -1.8706 -0.0966
  415SOL    HW2 1245   0.290   2.130   0.820 -2.0436 -2.4224  0.3783
  416SOL     OW 1246   0.333   1.010   1.043  0.1940  0.4366  0.3445
  416SOL    HW1 1247   0.332   0.940   0.968 -0.6363 -0.0844  3.6986
  416SOL    HW2 1248   0.422   1.060   1.048  2.1596 -3.1985 -0.3866
  417SOL     OW 1249   2.175   2.287   1.929  0.6211 -0.2662  0.2862
  417SOL    HW1 1250   2.267   2.245   1.948  1.6467  1.2880 -0.7731
  417SOL    HW2 1251   2.105   2.215   1.903  0.7845  1.5293  1.0293
  418SOL     OW 1252   1.120   0.509   1.342 -0.3637  0.0712  0.2102
  418SOL    HW1 1253   1.030   0.505   1.289 -1.4823 -0.8269  1.1950
  418SOL    HW2 1254   1.203   0.524   1.277 -2.1484  0.3056  2.0152
  419SOL     OW 1255   0.925   0.418   3.004 -0.2233  0.3923  0.4208
  419SOL    HW1 1256   0.931   0.384   2.906  1.6067  0.8731 -1.2970
  419SOL    HW2 1257   0.937   0.519   3.012 -1.6344  2.2225 -2.2493
  420SOL     OW 1258   0.064   2.252   0.435 -0.2756 -0.3577  0.0759
  420SOL    HW1 1259   0.065   2.192   0.351 -1.9892 -0.4615  0.0647
  420SOL    HW2 1260   0.017   2.200   0.512 -0.8570 -0.4637  0.6870
  421SOL     OW 1261   0.377   2.980   0.686 -0.0936  0.7442 -0.4285
  421SOL    HW1 1262   0.349   2.937   0.775 -1.9254 -2.8902 -0.7925
  421SOL    HW2 1263   0.465   3.032   0.689  0.2777 -2.4725 -0.6488
  422SOL     OW 1264   1.044   2.507   1.024  0.4472 -0.7809 -0.3814
  422SOL    HW1 1265   1.093   2.566   0.958 -2.0057  2.0671  1.2952
  422SOL    HW2 1266   1.024   2.543   1.121 -0.4329 -0.1927  0.1046
  423SOL     OW 1267   0.081   0.665   1.253  0.0358 -0.2370 -0.0182
  423SOL    HW1 1268   0.011   0.627   1.323 -0.5461 -1.9628 -0.5693
  423SOL    HW2 1269   0.068   0.771   1.243 -1.3260 -2.4317  0.9464
  424SOL     OW 1270   1.012   2.220   2.026 -0.3802  0.1280  0.1080
  424SOL    HW1 1271   0.985   2.322   2.019 -0.5232 -0.9998  2.8333
  424SOL    HW2 1272   0.970   2.181   2.111 -0.0423 -0.1659 -0.3110
  425SOL     OW 1273   1.995   1.371   0.978  0.1143 -0.5830  0.3111
  425SOL    HW1 1274   2.046   1.290   1.015  2.1754  1.8624 -1.3390
  425SOL    HW2 1275   2.060   1.450   0.946  0.0816 -0.5232 -1.0213
  426SOL     OW 1276   1.538   1.615   1.375 -0.2793  0.5882 -0.2415
  426SOL    HW1 1277   1.481   1.679   1.318  0.0549 -4.2453  0.2784
  426SOL    HW2 1278   1.491   1.581   1.461 -2.0025  0.2312  0.5600
  427SOL     OW 1279   1.883   2.379   2.043  0.1078 -0.0083 -0.1072
  427SOL    HW1 1280   1.924   2.306   2.108 -0.1911  0.0238 -1.0767
  427SOL    HW2 1281   1.924   2.475   2.063  4.3299  0.5329  1.0857
  428SOL     OW 1282   0.879   2.989   0.203  0.2815  0.6515  0.5118
  428SOL    HW1 1283   0.857   3.085   0.183  0.9332 -0.5866 -1.0262
  428SOL    HW2 1284   0.968   2.952   0.164 -2.6362  0.1869 -1.3576
  429SOL     OW 1285   1.342   0.066   0.212  0.5231  0.0182  0.3677
  429SOL    HW1 1286   1.435   0.100   0.234 -0.4701 -1.8291  1.4629
  429SOL    HW2 1287   1.313   0.095   0.117  1.3392 -1.5289  0.0480
  430SOL     OW 1288   2.822   1.406   0.327 -0.1796 -0.1147 -0.7205
  430SOL    HW1 1289   2.866   1.426   0.236 -1.6226 -0.5488  0.9398
  430SOL    HW2 1290   2.820   1.486   0.396 -4.0202  2.5179 -1.0117
  431SOL     OW 1291   2.138   1.573   0.854 -0.3406 -0.1367  0.4102
  431SOL    HW1 1292   2.199   1.657   0.876  0.5598 -0.2408 -0.3801
  431SOL    HW2 1293   2.095   1.586   0.758 -0.9940 -0.6570 -1.9138
  432SOL     OW 1294   2.883   2.249   1.226 -0.6508 -0.0848  0.7928
  432SOL    HW1 1295   2.829   2.163   1.241  1.7230  1.6371  4.4351
  432SOL    HW2 1296   2.930   2.274   1.317  0.1612 -0.2116 -0.4335
  433SOL     OW 1297   1.947   0.400   0.861 -0.3749 -0.1106 -0.1331
  433SOL    HW1 1298   1.882   0.332   0.907 -0.9450 -0.9157  0.5987
  433SOL    HW2 1299   2.044   0.391   0.887  1.3432 -1.2019 -4.1378
  434SOL     OW 1300   1.511   0.299   0.739 -0.8504  0.5894 -0.7265
  434SOL    HW1 1301   1.470   0.390   0.710  3.1832  1.2522 -0.2784
  434SOL    HW2 1302   1.559   0.294   0.828 -0.4030  1.1203  2.1560
  435SOL     OW 1303   1.455   1.459   2.137  0.9443  0.2451 -0.8957
  435SOL    HW1 1304   1.432   1.489   2.234 -0.3010  2.9643 -0.0058
  435SOL    HW2 1305   1.491   1.544   2.092 -2.5622 -1.0340  2.3518
  436SOL     OW 1306   1.677   2.749   2.202  0.0006  0.2490 -0.2132
  436SOL    HW1 1307   1.606   2.802   2.259 -1.0563  1.4738 -2.0855
  436SOL    HW2 1308   1.707   2.655   2.240 -1.0832 -0.1361  3.6109
  437SOL     OW 1309   1.043   2.911   0.936 -0.2653 -0.2337  0.2623
  437SOL    HW1 1310   1.040   2.988   0.871  0.8114 -0.0031  2.0511
  437SOL    HW2 1311   1.022   2.940   1.032 -0.6675  4.7275 -1.3038
  438SOL     OW 1312   1.025   2.574   1.280 -0.3640  0.5736 -0.0022
  438SOL    HW1 1313   1.112   2.609   1.327  2.2173  1.0101  0.2431
  438SOL    HW2 1314   0.999   2.479   1.308 -1.7041  2.5439 -0.8597
  439SOL     OW 1315   0.680   1.725   1.075  0.0188  0.4884  0.5343
  439SOL    HW1 1316   0.681   1.799   1.000 -2.2239 -0.1684 -1.1017
  439SOL    HW2 1317   0.584   1.701   1.109  0.2335 -1.3916  2.1108
  440SOL     OW 1318   0.982   2.483   1.972 -0.0410 -0.2492 -0.1784
  440SOL    HW1 1319   0.960   2.527   1.878  2.6516  1.1570  0.6898
  440SOL    HW2 1320   1.083   2.476   1.978  0.2099 -0.9226  1.0488
  441SOL     OW 1321   0.471   2.723   1.376  0.7652 -0.2046  0.2608
  441SOL    HW1 1322   0.532   2.651   1.426 -0.1048  0.3970  0.8441
  441SOL    HW2 1323   0.387   2.679   1.351  0.6516  1.5005  3.4372
  442SOL     OW 1324   2.349   0.647   2.427 -0.4226 -0.2321 -0.1223
  442SOL    HW1 1325   2.354   0.557   2.477  2.1102  1.6837  0.6052
  442SOL    HW2 1326   2.257   0.695   2.444 -1.9204  2.0928 -1.5041
  443SOL     OW 1327   1.242   2.735   2.152  0.0350 -0.0694 -0.8988
  443SOL    HW1 1328   1.220   2.738   2.254 -0.5395  0.8928 -0.2839
  443SOL    HW2 1329   1.249   2.634   2.115 -2.8068  0.4638  3.0685
  444SOL     OW 1330   1.108   1.286   1.605 -0.8615 -0.0572  0.0894
  444SOL    HW1 1331   1.204   1.245   1.585 -2.5365 -0.1681 -0.7113
  444SOL    HW2 1332   1.112   1.379   1.652 -2.8902 -0.7310  2.9570
  445SOL     OW 1333   0.029   2.387   1.853  0.1068  0.2117 -0.2833
  445SOL    HW1 1334   0.025   2.485   1.824 -2.4469  0.6447 -1.1060
  445SOL    HW2 1335  -0.063   2.355   1.893 -2.9393 -2.3098 -1.5259
  446SOL     OW 1336   0.266   1.929   2.336 -0.6991  0.1905  0.1378
  446SOL    HW1 1337   0.240   2.019   2.381  0.9821  1.9095 -1.4692
  446SOL    HW2 1338   0.198   1.886   2.276 -1.1898 -0.8628 -1.8007
  447SOL     OW 1339   1.195   1.714   1.920 -0.3242 -0.1929 -0.1084
  447SOL    HW1 1340   1.116   1.784   1.928  0.1675  0.7378  0.8988
  447SOL    HW2 1341   1.283   1.754   1.886  0.0139 -0.6407 -1.2348
  448SOL     OW 1342   0.114   1.517   1.975  0.3030  0.2843 -0.6628
  448SOL    HW1 1343   0.112   1.604   1.926  1.8319 -0.1494  1.7754
  448SOL    HW2 1344   0.081   1.528   2.072 -2.9645  0.4824 -0.2927
  449SOL     OW 1345   1.905   2.961   0.859  1.3118 -0.3378  0.0083
  449SOL    HW1 1346   1.997   2.995   0.900 -0.1439 -0.9903  1.2832
  449SOL    HW2 1347   1.910   2.861   0.821 -1.4909 -0.1538  1.1943
  450SOL     OW 1348   2.350   1.408   0.722 -0.2280 -0.7620  0.0917
  450SOL    HW1 1349   2.273   1.401   0.789 -0.4853 -2.6930  0.2274
  450SOL    HW2 1350   2.348   1.495   0.665  0.2036 -0.3781  2.2474
  451SOL     OW 1351   1.363   2.988   1.463 -0.3364  0.3725 -0.0084
  451SOL    HW1 1352   1.293   3.063   1.472 -1.0376  1.8091  1.6125
  451SOL    HW2 1353   1.409   2.961   1.554  0.7902  1.4599  0.2549
  452SOL     OW 1354   2.701   2.291   2.167 -0.1688 -0.0848 -0.0622
  452SOL    HW1 1355   2.660   2.383   2.183  1.5705 -0.0051 -0.3738
  452SOL    HW2 1356   2.753   2.260   2.251 -0.3180  1.3306 -2.9053
  453SOL     OW 1357   2.482   2.649   3.096 -0.1547 -0.0004 -0.5641
  453SOL    HW1 1358   2.407   2.707   3.135  1.2940 -1.6893 -0.8800
  453SOL    HW2 1359   2.449   2.592   3.021 -0.4574  1.1798  2.5732
  454SOL     OW 1360   1.015   1.164   2.106  0.4082 -0.0589 -0.3236
  454SOL    HW1 1361   0.982   1.145   2.008 -2.2082  1.7624 -0.6089
  454SOL    HW2 1362   1.062   1.257   2.107  2.3146  0.2019  1.1674
  455SOL     OW 1363   0.640   2.686   2.930  0.4106 -0.2908  0.2941
  455SOL    HW1 1364   0.688   2.721   3.015 -0.1039  0.8314 -0.5068
  455SOL    HW2 1365   0.628   2.578   2.930 -0.6895 -2.8126 -1.5127
  456SOL     OW 1366   0.458   1.864   0.290 -0.3476 -0.1062  0.4682
  456SOL    HW1 1367   0.546   1.839   0.339  1.4122 -0.1059  0.4586
  456SOL    HW2 1368   0.465   1.962   0.263  0.8031 -1.0303 -0.6104
  457SOL     OW 1369   0.269   2.652   0.641 -0.4673  0.0042  0.0997
  457SOL    HW1 1370   0.254   2.725   0.568  1.2864  0.3739 -1.5731
  457SOL    HW2 1371   0.361   2.608   0.636  3.1336 -1.3798  0.4720
  458SOL     OW 1372   2.951   3.042   1.211  0.2166 -0.1966 -0.1684
  458SOL    HW1 1373   2.996   3.136   1.209  1.4524  0.9146 -0.4273
  458SOL    HW2 1374   2.944   3.013   1.113  2.7399 -0.3088  0.1278
  459SOL     OW 1375   2.179   2.560   0.769 -0.4487 -0.3360 -0.1776
  459SOL    HW1 1376   2.197   2.661   0.790 -0.3540 -0.1724 -0.9720
  459SOL    HW2 1377   2.270   2.521   0.740 -0.9344  1.4160  1.9189
  460SOL     OW 1378   1.182   2.002   2.856 -0.5100 -0.0686  0.2618
  460SOL    HW1 1379   1.218   2.059   2.776 -1.4878 -0.1915  2.3176
  460SOL    HW2 1380   1.239   1.922   2.882 -1.0222  1.5505  1.1704
  461SOL     OW 1381   0.547   2.081   2.686 -0.1693 -0.0881  0.3243
  461SOL    HW1 1382   0.491   1.994   2.679 -0.5200 -1.2966  1.7030
  461SOL    HW2 1383   0.590   2.083   2.786  0.9894  0.3610  3.1098
  462SOL     OW 1384   0.962   1.141   1.825 -0.1743 -0.5092  0.1660
  462SOL    HW1 1385   1.026   1.081   1.772 -0.9078  0.8087  1.6207
  462SOL    HW2 1386   0.952   1.243   1.786  1.7267 -1.8368  0.0923
  463SOL     OW 1387   0.469   0.800   0.475  0.0506 -1.0903  0.4356
  463SOL    HW1 1388   0.497   0.702   0.481  1.3720 -0.4488  0.6373
  463SOL    HW2 1389   0.363   0.799   0.483  0.6262 -0.3715  0.6260
  464SOL     OW 1390   0.618   2.274   2.238 -0.0792 -0.2655 -0.1073
  464SOL    HW1 1391   0.568   2.339   2.305  0.8318  0.2931  0.6430
  464SOL    HW2 1392   0.600   2.305   2.140  0.3971 -0.7568  1.6622
  465SOL     OW 1393   0.306   0.914   0.773  0.3397 -0.1910  0.0051
  465SOL    HW1 1394   0.217   0.958   0.729 -4.0273  1.0873  2.7623
  465SOL    HW2 1395   0.293   0.822   0.812  0.1469  0.5485  0.8904
  466SOL     OW 1396   1.374   1.115   1.059 -0.7335  0.2476  0.5965
  466SOL    HW1 1397   1.413   1.203   1.030 -0.2428 -0.7757 -1.6040
  466SOL    HW2 1398   1.274   1.130   1.083 -0.0326  3.0670  1.0916
  467SOL     OW 1399   0.457   0.364   2.366 -0.4963  0.0215  0.2473
  467SOL    HW1 1400   0.424   0.463   2.377  0.2916 -0.3312 -1.1212
  467SOL    HW2 1401   0.453   0.297   2.444  0.3525  0.1535 -0.9541
  468SOL     OW 1402   0.451   2.287   1.670  0.0491  0.5439 -0.4244
  468SOL    HW1 1403   0.543   2.331   1.671  0.2010 -0.0998  0.9619
  468SOL    HW2 1404   0.412   2.275   1.571 -0.6897 -2.6926 -3.1619
  469SOL     OW 1405   1.507   1.393   1.189  0.2871 -0.1656  0.1151
  469SOL    HW1 1406   1.594   1.336   1.162 -1.8607 -2.0902 -0.7417
  469SOL    HW2 1407   1.522   1.475   1.251  1.8775 -1.4339  3.1809
  470SOL     OW 1408   3.025   1.671   0.765  0.4071 -0.1305  0.4695
  470SOL    HW1 1409   3.090   1.746   0.770 -1.2831 -1.6371  0.1677
  470SOL    HW2 1410   2.945   1.677   0.832  1.8372 -1.4154  0.9769
  471SOL     OW 1411   2.689   1.309   2.133 -0.6662 -0.0557  0.6605
  471SOL    HW1 1412   2.650   1.242   2.203 -1.0446 -1.4243 -0.2973
  471SOL    HW2 1413   2.753   1.378   2.179 -1.4794 -2.5133  1.6884
  472SOL     OW 1414   1.136   2.476   3.077 -0.1415  0.2237 -0.2512
  472SOL    HW1 1415   1.177   2.445   3.170  1.2207 -1.8017 -1.5039
  472SOL    HW2 1416   1.081   2.395   3.038  0.1143 -0.3115  1.5965
  473SOL     OW 1417   1.118   1.541   1.011 -0.4213 -0.3097 -0.2070
  473SOL    HW1 1418   1.009   1.543   1.013 -0.1171 -2.1445 -2.6011
  473SOL    HW2 1419   1.162   1.477   1.078 -3.3568 -1.9078 -2.3027
  474SOL     OW 1420   0.699   1.306   0.552  0.4191 -0.2169  0.2214
  474SOL    HW1 1421   0.675   1.274   0.456 -2.2168 -1.5319  0.8887
  474SOL    HW2 1422   0.765   1.237   0.596 -0.5576  0.2577 -0.2558
  475SOL     OW 1423   2.841   0.085   0.795 -0.3368  0.2253  0.2219
  475SOL    HW1 1424   2.929   0.128   0.838 -3.1049 -0.8058  1.2195
  475SOL    HW2 1425   2.756   0.112   0.850  1.1615 -0.4950 -0.2634
  476SOL     OW 1426   0.954   3.023   1.833 -0.0952  0.5153 -0.3790
  476SOL    HW1 1427   1.017   2.982   1.908  0.7472 -0.1629 -0.8497
  476SOL    HW2 1428   0.987   3.005   1.734 -1.2959 -1.8014 -0.1994
  477SOL     OW 1429   1.471   0.325   2.474  0.4827 -0.0218  0.2528
  477SOL    HW1 1430   1.454   0.326   2.580 -2.4066 -0.2876 -0.7902
  477SOL    HW2 1431   1.555   0.280   2.436  0.1686  0.1232 -3.4519
  478SOL     OW 1432   2.221   1.851   0.256  0.2087 -0.1169  0.6545
  478SOL    HW1 1433   2.149   1.772   0.250  0.2645  1.9888 -0.0390
  478SOL    HW2 1434   2.318   1.819   0.241 -0.2485 -2.9081  1.8907
  479SOL     OW 1435   1.262   1.071   2.921 -0.5369  0.1089  0.1499
  479SOL    HW1 1436   1.336   1.067   2.852 -2.5265  0.9791 -2.4244
  479SOL    HW2 1437   1.168   1.052   2.879  3.0825  1.5608 -2.3943
  480SOL     OW 1438   2.565   2.349   0.387 -0.2986  0.0421 -0.8651
  480SOL    HW1 1439   2.528   2.260   0.427 -1.3571 -0.4722 -0.3785
  480SOL    HW2 1440   2.532   2.381   0.296  0.8830  2.8547  0.0658
  481SOL     OW 1441   1.004   1.122   0.854  0.3725  0.1064 -1.1377
  481SOL    HW1 1442   1.005   1.212   0.800  1.8264 -1.2777 -0.3714
  481SOL    HW2 1443   1.036   1.136   0.953 -3.2922  2.6379 -0.3407
  482SOL     OW 1444   1.563   0.280   2.054  0.5203 -0.0967  0.2261
  482SOL    HW1 1445   1.587   0.372   2.015  1.9224  1.4010 -2.7420
  482SOL    HW2 1446   1.635   0.249   2.122 -0.4177  0.5873 -1.3858
  483SOL     OW 1447   0.127   2.313   1.283  0.1078 -0.5048 -0.3227
  483SOL    HW1 1448   0.053   2.309   1.356 -1.2134 -0.0453  0.2123
  483SOL    HW2 1449   0.139   2.408   1.243  0.8936 -0.1445 -0.2063
  484SOL     OW 1450   1.744   1.059   1.362 -0.0718  0.1931  0.0803
  484SOL    HW1 1451   1.822   0.987   1.362 -3.8242 -3.8128 -1.7646
  484SOL    HW2 1452   1.738   1.113   1.451  1.5516  0.9166 -0.0697
  485SOL     OW 1453   0.670   1.035   1.810 -0.5665 -0.2057 -0.2207
  485SOL    HW1 1454   0.677   1.018   1.707  0.0679 -0.4515  0.1621
  485SOL    HW2 1455   0.756   1.077   1.844  1.6056  0.8888 -3.7213
  486SOL     OW 1456   0.838   1.956   2.454  0.5117  0.4705  0.3389
  486SOL    HW1 1457   0.889   1.925   2.538  2.2483 -3.5465 -1.5436
  486SOL    HW2 1458   0.808   2.057   2.456 -1.0070  2.7111 -3.0800
  487SOL     OW 1459   1.860   1.638   0.936 -0.3820 -0.7157  0.2247
  487SOL    HW1 1460   1.905   1.560   0.991 -0.1688  0.7553  0.6910
  487SOL    HW2 1461   1.921   1.688   0.867 -0.7792  1.9500 -2.9396
  488SOL     OW 1462   2.958   0.866   2.250 -0.0698  0.3232  0.2374
  488SOL    HW1 1463   3.003   0.778   2.222 -1.8241 -0.6909  0.5194
  488SOL    HW2 1464   2.979   0.884   2.352 -1.7174  0.3338  1.1039
  489SOL     OW 1465   2.754   0.216   1.311  0.2344 -0.3554  0.4791
  489SOL    HW1 1466   2.711   0.181   1.401 -2.6871  0.6638  1.8542
  489SOL    HW2 1467   2.858   0.214   1.307 -2.8217 -0.0780 -0.5081
  490SOL     OW 1468   1.449   2.954   2.824 -0.2027 -0.7538  0.1397
  490SOL    HW1 1469   1.481   2.853   2.825  0.0085  1.0469 -0.5483
  490SOL    HW2 1470   1.427   2.983   2.729 -1.3465 -0.7708  1.8075
  491SOL     OW 1471   1.812   1.452   2.614  0.6346  0.3437 -0.3312
  491SOL    HW1 1472   1.771   1.451   2.707  1.2149 -1.4696 -0.7934
  491SOL    HW2 1473   1.911   1.487   2.616  2.9906  0.4967 -0.7345
  492SOL     OW 1474   0.519   1.981   0.686  0.2594 -0.2770  0.0994
  492SOL    HW1 1475   0.579   1.962   0.773 -1.2466 -0.1998 -0.4671
  492SOL    HW2 1476   0.452   2.059   0.689  2.3356  0.0089  0.2126
  493SOL     OW 1477   0.389   1.402   2.041 -0.0254 -0.2616  0.6567
  493SOL    HW1 1478   0.291   1.432   2.026 -1.0560  0.4477 -1.2631
  493SOL    HW2 1479   0.410   1.374   2.134 -1.5892 -0.1829 -0.2023
  494SOL     OW 1480   2.720   2.689   0.151 -0.4444  0.0262  0.4990
  494SOL    HW1 1481   2.713   2.637   0.236 -0.8074 -0.0573 -2.4131
  494SOL    HW2 1482   2.637   2.689   0.094 -1.0146  4.0430  1.5412
  495SOL     OW 1483   2.740   2.684   2.734  0.2007 -0.8087 -0.6983
  495SOL    HW1 1484   2.663   2.617   2.710 -0.0381 -0.6019  1.1814
  495SOL    HW2 1485   2.778   2.725   2.643  0.5555 -1.1706 -2.3043
  496SOL     OW 1486   2.056   2.255   0.703 -0.0817 -0.1342  0.0533
  496SOL    HW1 1487   2.083   2.294   0.795 -1.5759 -0.4364  0.7259
  496SOL    HW2 1488   2.117   2.189   0.661 -2.2099 -0.1751 -1.5121
  497SOL     OW 1489   0.251   2.973   2.438 -0.0566  0.0435  0.1699
  497SOL    HW1 1490   0.220   3.051   2.498 -0.3956  0.3360  0.7766
  497SOL    HW2 1491   0.283   3.000   2.341  1.5825 -2.0426  0.6663
  498SOL     OW 1492   1.218   1.404   1.211  0.0748  0.2085  0.0091
  498SOL    HW1 1493   1.321   1.387   1.212  1.7491 -0.2157 -1.1546
  498SOL    HW2 1494   1.185   1.468   1.288  0.0575  1.1364 -0.1122
  499SOL     OW 1495   0.696   1.851   0.434  0.1678  0.2097  0.4286
  499SOL    HW1 1496   0.724   1.756   0.465  3.1808 -1.2798  0.2744
  499SOL    HW2 1497   0.663   1.909   0.512  2.1027 -3.2420  2.1866
  500SOL     OW 1498   1.440   2.864   1.688  0.2944  0.5634  0.0747
  500SOL    HW1 1499   1.351   2.829   1.726  1.4412  5.7967 -1.0595
  500SOL    HW2 1500   1.512   2.786   1.694 -0.9985 -0.7763 -1.4951
  501SOL     OW 1501   0.811   1.125   2.292  0.1422 -0.1943 -0.7662
  501SOL    HW1 1502   0.734   1.054   2.268 -2.1719 -0.5375 -0.0377
  501SOL    HW2 1503   0.886   1.130   2.221 -1.1857  0.2401  1.9010
  502SOL     OW 1504   2.601   0.953   1.734  0.6685 -0.1482  0.0937
  502SOL    HW1 1505   2.602   0.984   1.632 -1.4550  2.1517 -0.3952
  502SOL    HW2 1506   2.556   0.865   1.752  2.1648 -0.3323 -0.8794
  503SOL     OW 1507   1.300   0.100   0.665 -0.1416  0.6628 -0.1751
  503SOL    HW1 1508   1.246   0.188   0.664 -3.2828 -1.8067  0.3622
  503SOL    HW2 1509   1.394   0.113   0.709 -3.0129 -1.1758  1.9502
  504SOL     OW 1510   3.009   2.332   1.477  0.3938  0.2246  0.0932
  504SOL    HW1 1511   2.958   2.415   1.508 -0.8728  0.0253 -3.0612
  504SOL    HW2 1512   3.041   2.263   1.551 -1.9904 -1.0002 -0.7743
  505SOL     OW 1513   2.304   1.164   1.462 -0.4882  0.1895  0.1509
  505SOL    HW1 1514   2.320   1.199   1.360  0.5568  0.1679  2.2113
  505SOL    HW2 1515   2.350   1.230   1.530  1.2690  1.9541  1.6128
  506SOL     OW 1516   1.965   0.160   1.810  0.2295  0.4702 -0.3448
  506SOL    HW1 1517   2.051   0.102   1.837 -0.9193  0.1948  0.1594
  506SOL    HW2 1518   1.969   0.264   1.842 -0.2633  0.9208 -0.0835
  507SOL     OW 1519   0.518   0.700   2.143 -0.3734 -0.3438  0.2581
  507SOL    HW1 1520   0.437   0.662   2.095  5.1976  2.1665 -0.0153
  507SOL    HW2 1521   0.589   0.627   2.169  3.6283  3.4455 -0.5478
  508SOL     OW 1522   0.269   1.639   0.833 -0.4964 -0.0666  0.4001
  508SOL    HW1 1523   0.338   1.675   0.767  2.0623 -1.6610  2.6511
  508SOL    HW2 1524   0.243   1.697   0.917 -4.0134 -0.8018 -0.9868
  509SOL     OW 1525   1.219   1.259   2.343  0.2867 -0.2976 -0.1799
  509SOL    HW1 1526   1.219   1.269   2.241  0.4974  1.0640 -0.4617
  509SOL    HW2 1527   1.189   1.156   2.366  0.9624  1.0681 -0.8739
  510SOL     OW 1528   1.266   1.995   2.124 -0.1434  0.2256 -0.6846
  510SOL    HW1 1529   1.259   2.093   2.096 -0.0824 -1.8157  0.8457
  510SOL    HW2 1530   1.180   1.965   2.180  0.1401  1.0294 -0.3482
  511SOL     OW 1531   3.051   2.768   1.313  0.3800  0.5229 -0.1361
  511SOL    HW1 1532   3.009   2.812   1.226 -2.4071 -0.7328 -2.0843
  511SOL    HW2 1533   2.974   2.744   1.381 -2.2037 -0.6556  2.5912
  512SOL     OW 1534   2.401   0.445   1.364 -0.6215  0.2815 -0.4119
  512SOL    HW1 1535   2.301   0.428   1.363 -2.5548  2.8882 -1.9074
  512SOL    HW2 1536   2.455   0.385   1.294  1.7443 -0.4060 -2.5116
  513SOL     OW 1537   2.541   2.039   0.846 -0.2107  0.1699 -0.1481
  513SOL    HW1 1538   2.502   2.101   0.774  2.1603 -2.1876 -0.8278
  513SOL    HW2 1539   2.619   1.986   0.803  0.4620 -2.3329 -2.3898
  514SOL     OW 1540   0.604   2.745   0.463 -0.2016  0.1211  0.3826
  514SOL    HW1 1541   0.603   2.784   0.366  1.1159  2.4020  1.4037
  514SOL    HW2 1542   0.650   2.803   0.533 -1.7951  0.0331  1.4534
  515SOL     OW 1543   1.981   1.159   2.354 -0.0149 -0.6929 -0.0251
  515SOL    HW1 1544   1.987   1.140   2.258 -0.9068  2.1606  0.7083
  515SOL    HW2 1545   1.898   1.198   2.396  1.9717  1.4437 -2.2014
  516SOL     OW 1546   0.233   0.306   1.889 -0.0331  0.5960  0.4286
  516SOL    HW1 1547   0.291   0.266   1.815 -0.8352  1.7339  1.2677
  516SOL    HW2 1548   0.151   0.246   1.914 -1.8264 -2.1299  1.1310
  517SOL     OW 1549   0.442   0.013   1.177  0.4953 -0.4712  0.0674
  517SOL    HW1 1550   0.443   0.118   1.185 -1.5854 -0.1804  1.0695
  517SOL    HW2 1551   0.347  -0.027   1.160 -1.6671  1.4523  1.9366
  518SOL     OW 1552   2.233   3.090   1.823  1.0099  0.5772 -0.0158
  518SOL    HW1 1553   2.284   3.178   1.852 -1.3218  3.9570  1.2551
  518SOL    HW2 1554   2.252   3.061   1.722  1.7545 -1.0902  0.8861
  519SOL     OW 1555   2.339   2.189   2.566  0.0689  0.8376  0.3588
  519SOL    HW1 1556   2.270   2.166   2.641  0.6098  0.4018 -1.0413
  519SOL    HW2 1557   2.336   2.290   2.545  1.0972 -1.6124  0.2828
  520SOL     OW 1558   1.816   2.787   1.794 -0.1544  0.4551  0.1968
  520SOL    HW1 1559   1.712   2.801   1.813 -0.8483  1.0922 -1.0567
  520SOL    HW2 1560   1.843   2.691   1.760  0.4589  2.5737  2.4288
  521SOL     OW 1561   0.580   3.084   2.105  0.3739  0.4299  0.9369
  521SOL    HW1 1562   0.478   3.082   2.132  0.0907 -0.1194 -1.8910
  521SOL    HW2 1563   0.636   3.090   2.191  0.0035  0.3686  2.9072
  522SOL     OW 1564   0.199   1.899   1.471 -0.2231  0.3366  0.1537
  522SOL    HW1 1565   0.241   1.950   1.552  0.5607 -0.0603  0.4293
  522SOL    HW2 1566   0.154   1.957   1.395 -1.4721 -0.1767  2.1733
  523SOL     OW 1567   2.238   3.004   1.562 -0.4261  0.1296 -0.6958
  523SOL    HW1 1568   2.333   2.969   1.543 -2.3716  1.7724  1.8985
  523SOL    HW2 1569   2.168   2.938   1.525  1.6899  0.2369  0.2515
  524SOL     OW 1570   0.157   2.794   2.834 -0.2623  0.1583  0.2679
  524SOL    HW1 1571   0.084   2.868   2.838  0.6467 -0.6633  3.5433
  524SOL    HW2 1572   0.247   2.826   2.873 -3.3779  1.7709 -0.3763
  525SOL     OW 1573   2.156   2.030   0.437 -0.1322 -0.1783  0.5451
  525SOL    HW1 1574   2.183   1.988   0.530  2.0762  1.5167 -0.3040
  525SOL    HW2 1575   2.184   1.973   0.350  0.7073  0.7263 -1.3117
  526SOL     OW 1576   0.446   1.558   1.648 -0.2153  0.5557  0.0786
  526SOL    HW1 1577   0.492   1.603   1.726 -0.5662 -1.9442  1.2426
  526SOL    HW2 1578   0.491   1.470   1.616 -0.0390  1.6257  1.3276
  527SOL     OW 1579   1.048   2.923   1.219  0.3256 -0.1518 -0.2457
  527SOL    HW1 1580   1.131   2.861   1.212  0.2614 -0.3981  0.1125
  527SOL    HW2 1581   1.078   3.024   1.212  2.0738  1.3987  2.0018
  528SOL     OW 1582   1.344   2.436   0.553 -0.5615  0.0961  0.4475
  528SOL    HW1 1583   1.337   2.334   0.566  1.8070  0.2640 -1.5577
  528SOL    HW2 1584   1.419   2.481   0.604 -1.4696 -0.2099  0.3390
  529SOL     OW 1585   1.941   1.732   0.679 -0.3027  0.1981 -0.0338
  529SOL    HW1 1586   1.893   1.750   0.587  0.4551  2.9300  1.2775
  529SOL    HW2 1587   1.937   1.818   0.731 -2.2654 -1.4821  0.7439
  530SOL     OW 1588   0.318   2.621   0.282 -0.1135 -0.0974  0.5793
  530SOL    HW1 1589   0.287   2.688   0.357 -0.2694  0.7884  0.0606
  530SOL    HW2 1590   0.349   2.532   0.315 -3.8708  2.2992  1.6739
  531SOL     OW 1591   1.851   0.984   0.942  0.0149  0.2276  0.3437
  531SOL    HW1 1592   1.880   1.054   0.875 -0.7951  0.7137  0.3187
  531SOL    HW2 1593   1.751   0.955   0.920 -1.3732 -2.1007 -2.1300
  532SOL     OW 1594   0.408   1.191   0.705  0.3669 -0.3869 -0.1047
  532SOL    HW1 1595   0.451   1.186   0.610  1.6160 -0.5377  3.2212
  532SOL    HW2 1596   0.383   1.098   0.736  1.1196  1.4697 -2.9772
  533SOL     OW 1597   1.736   0.017   2.597 -0.4478 -0.6247 -0.4013
  533SOL    HW1 1598   1.838  -0.003   2.598  1.8121  0.5552  0.8756
  533SOL    HW2 1599   1.703   0.074   2.677 -0.8426  1.0778  0.6563
  534SOL     OW 1600   0.372   0.218   1.626 -0.5500  0.4872  0.2106
  534SOL    HW1 1601   0.456   0.220   1.564 -1.9628 -1.2880  1.6434
  534SOL    HW2 1602   0.308   0.301   1.617  1.2333 -1.3642  1.4948
  535SOL     OW 1603   1.955   0.375   0.153  0.2017  0.1708 -1.0724
  535SOL    HW1 1604   1.955   0.443   0.230  1.2003  1.5228 -2.6879
  535SOL    HW2 1605   1.943   0.277   0.181  1.6717 -1.5709  1.4692
  536SOL     OW 1606   1.415   2.555   0.941  0.1240  0.1610 -0.0729
  536SOL    HW1 1607   1.406   2.539   1.044  0.9640  0.0093  0.5331
  536SOL    HW2 1608   1.335   2.603   0.903  2.2866  1.9625 -0.3123
  537SOL     OW 1609   0.799   0.223   2.371 -0.6328  0.2691  0.4278
  537SOL    HW1 1610   0.808   0.306   2.311 -0.0421  0.7115  2.6598
  537SOL    HW2 1611   0.717   0.167   2.339 -1.0713  3.0944  0.9468
  538SOL     OW 1612   1.659   2.368   1.540 -0.4776  0.3717  0.5574
  538SOL    HW1 1613   1.629   2.267   1.531 -1.3961  0.3752 -0.9812
  538SOL    HW2 1614   1.713   2.386   1.450 -0.0690 -0.6517 -0.1648
  539SOL     OW 1615   0.216   1.606   2.735 -0.0200  0.1294 -0.2461
  539SOL    HW1 1616   0.134   1.613   2.672  0.3546 -0.6499  1.7078
  539SOL    HW2 1617   0.215   1.674   2.812 -0.2408  0.1759 -0.2486
  540SOL     OW 1618   2.699   1.689   1.917 -0.1381  0.7738  0.1794
  540SOL    HW1 1619   2.703   1.639   2.008 -3.4763  2.4474  0.2972
  540SOL    HW2 1620   2.623   1.764   1.929 -1.1682 -0.8166  0.0788
  541SOL     OW 1621   0.479   2.215   0.012  0.1022 -0.5258  0.0396
  541SOL    HW1 1622   0.518   2.177   0.102 -0.1667 -0.3469  0.9653
  541SOL    HW2 1623   0.378   2.196   0.014 -2.2731 -0.8090  3.3154
  542SOL     OW 1624   2.262   2.580   0.446 -0.1656  0.1852  0.1672
  542SOL    HW1 1625   2.243   2.668   0.396  2.1685  1.1015 -0.5228
  542SOL    HW2 1626   2.173   2.535   0.478 -1.2931 -2.0251 -1.7639
  543SOL     OW 1627   1.081   1.839   1.553  0.2964  0.1357 -0.2752
  543SOL    HW1 1628   1.040   1.890   1.631  2.9250  0.7804  0.4467
  543SOL    HW2 1629   1.044   1.872   1.460 -1.7426  1.8750 -1.3809
  544SOL     OW 1630   0.994   0.423   0.165  0.2531 -0.0538 -0.2070
  544SOL    HW1 1631   1.010   0.353   0.237 -0.6651 -1.4839 -1.8289
  544SOL    HW2 1632   0.967   0.395   0.073  1.6795  0.0595 -0.0017
  545SOL     OW 1633   1.115   1.732   0.799 -0.3435 -0.5709  0.2980
  545SOL    HW1 1634   1.210   1.773   0.817 -2.8970 -0.9211 -1.9253
  545SOL    HW2 1635   1.110   1.633   0.825 -0.5665  0.0002 -0.8115
  546SOL     OW 1636   2.663   1.485   3.043 -0.4063 -0.4741 -0.9228
  546SOL    HW1 1637   2.619   1.568   2.988 -1.5426 -0.5280 -0.4811
  546SOL    HW2 1638   2.592   1.414   3.062 -1.7457  1.8528 -2.1961
  547SOL     OW 1639   0.594   3.040   2.663  0.0069 -0.6012  0.5542
  547SOL    HW1 1640   0.694   3.013   2.660 -4.2296  1.9233 -1.0339
  547SOL    HW2 1641   0.530   2.964   2.692  0.2754  1.2168  2.7398
  548SOL     OW 1642   2.100   0.884   2.982 -0.1152  0.5835 -0.6057
  548SOL    HW1 1643   2.001   0.843   2.980 -4.3009 -2.1620  1.1698
  548SOL    HW2 1644   2.098   0.981   3.016 -1.1384  0.9140 -1.4449
  549SOL     OW 1645   0.693   0.510   0.221  0.6446  0.3085 -0.1525
  549SOL    HW1 1646   0.672   0.526   0.121  1.2537 -0.5991  0.2950
  549SOL    HW2 1647   0.781   0.544   0.254 -5.0806 -0.9669 -2.7237
  550SOL     OW 1648   2.557   2.821   2.882  0.5842  0.1994  0.6253
  550SOL    HW1 1649   2.529   2.763   2.962  1.1761  1.5394  0.0453
  550SOL    HW2 1650   2.609   2.780   2.800  0.0538 -3.1646 -1.4148
  551SOL     OW 1651   0.248   0.884   0.220  0.0171 -0.4823  0.4164
  551SOL    HW1 1652   0.341   0.854   0.183  0.3737  1.1385 -0.6445
  551SOL    HW2 1653   0.253   0.891   0.325  3.5267 -0.0076  1.4670
  552SOL     OW 1654   0.694   2.951   1.887 -1.2119 -0.3965  0.2146
  552SOL    HW1 1655   0.664   2.979   1.987  0.4256 -1.4303 -0.2592
  552SOL    HW2 1656   0.796   2.970   1.873 -1.3955 -2.0011  0.2857
  553SOL     OW 1657   2.979   2.525   0.358 -0.1972 -0.3140  0.2921
  553SOL    HW1 1658   2.915   2.438   0.343 -0.6233  0.1291 -0.5849
  553SOL    HW2 1659   2.942   2.589   0.429 -0.8121  0.0172 -1.6004
  554SOL     OW 1660   2.168   0.379   0.565 -0.2518  0.2904  0.2001
  554SOL    HW1 1661   2.244   0.392   0.491  2.0579 -0.0300 -0.7518
  554SOL    HW2 1662   2.169   0.293   0.624 -4.0663 -1.4160 -1.1306
  555SOL     OW 1663   0.386   2.727   2.520  0.0614 -0.0055  0.1668
  555SOL    HW1 1664   0.341   2.823   2.509  1.1690 -1.6442  0.4587
  555SOL    HW2 1665   0.456   2.706   2.445  1.5450 -1.8939 -0.4352
  556SOL     OW 1666   0.842   2.408   1.501  0.1545 -0.0408  0.3169
  556SOL    HW1 1667   0.851   2.511   1.509  0.2125 -2.2465 -0.6077
  556SOL    HW2 1668   0.910   2.372   1.430  0.4911  1.0208 -1.4467
  557SOL     OW 1669   0.082   2.093   0.212  0.8105  0.5838  0.8300
  557SOL    HW1 1670   0.019   2.021   0.171 -1.6394  2.6443 -2.2800
  557SOL    HW2 1671   0.146   2.135   0.142  0.8785 -0.2175 -1.2209
  558SOL     OW 1672   2.821   2.281   0.319 -0.6763  0.1581  0.4748
  558SOL    HW1 1673   2.725   2.311   0.347  0.5858  3.5010  3.3355
  558SOL    HW2 1674   2.828   2.177   0.304 -1.9681 -1.3657 -1.0203
  559SOL     OW 1675   0.375   2.286   1.390 -0.0411  0.1965  0.3502
  559SOL    HW1 1676   0.275   2.293   1.350 -0.9537 -3.3017  0.2078
  559SOL    HW2 1677   0.420   2.203   1.347 -2.1526 -0.9695  1.4011
  560SOL     OW 1678   2.099   1.152   3.057  0.5351  0.9655  0.2696
  560SOL    HW1 1679   2.126   1.163   3.155 -1.0662  0.0762  0.2437
  560SOL    HW2 1680   2.142   1.219   2.990  0.1517  1.2946  0.1073
  561SOL     OW 1681   3.067   1.853   0.034 -0.2418 -0.0502  0.4878
  561SOL    HW1 1682   3.023   1.785   0.104 -0.3789 -1.1996  1.6797
  561SOL    HW2 1683   3.007   1.941   0.018 -0.4055  2.2802 -1.2788
  562SOL     OW 1684   0.970   2.225   2.331 -0.5985 -0.5809  0.0361
  562SOL    HW1 1685   0.901   2.279   2.386  1.8792  1.0120  0.9873
  562SOL    HW2 1686   1.041   2.291   2.308  1.6001  0.8709  0.3748
  563SOL     OW 1687   0.715   2.580   2.620 -0.2573  0.1785 -0.1289
  563SOL    HW1 1688   0.804   2.538   2.591 -1.7503 -0.2859  0.2905
  563SOL    HW2 1689   0.721   2.634   2.707  0.5914  1.0637  0.9915
  564SOL     OW 1690   2.844   1.325   2.902 -0.7015 -0.6519 -0.1728
  564SOL    HW1 1691   2.767   1.377   2.946  0.5003  2.1400  2.1867
  564SOL    HW2 1692   2.906   1.394   2.853 -1.3508  0.7825  2.2042
  565SOL     OW 1693   2.534   2.016   2.639 -0.0772  0.2903 -0.0557
  565SOL    HW1 1694   2.466   2.079   2.589  1.6136  0.4904  2.8248
  565SOL    HW2 1695   2.607   2.074   2.688  1.1421 -0.9914 -0.9585
  566SOL     OW 1696   2.082   2.840   1.421  0.2994  0.3224  0.5362
  566SOL    HW1 1697   2.040   2.741   1.421 -1.2890  0.3039  1.0053
  566SOL    HW2 1698   2.068   2.883   1.330  0.9923 -0.4519  1.6708
  567SOL     OW 1699   2.415   3.086   2.366 -0.0587 -0.5512  0.2261
  567SOL    HW1 1700   2.332   3.135   2.399  1.3825  2.0616  3.2159
  567SOL    HW2 1701   2.409   3.061   2.263  1.3887  0.4995  0.0943
  568SOL     OW 1702   1.514   1.748   0.232  0.1641 -0.4365 -0.5881
  568SOL    HW1 1703   1.450   1.832   0.221  2.7880  2.7023  2.8819
  568SOL    HW2 1704   1.613   1.775   0.213  1.7458  0.7723 -1.0792
  569SOL     OW 1705   0.296   0.634   0.847  0.3202  0.0958  0.5751
  569SOL    HW1 1706   0.373   0.574   0.806  0.9882 -2.4260 -0.8104
  569SOL    HW2 1707   0.206   0.594   0.824  0.0878 -0.8668 -1.6840
  570SOL     OW 1708   0.606   0.870   2.924  0.1174 -0.2467  0.0683
  570SOL    HW1 1709   0.693   0.868   2.860  1.3207 -2.5581  0.2815
  570SOL    HW2 1710   0.616   0.926   3.013  0.4882  0.4471  1.9400
  571SOL     OW 1711   0.795   3.086   1.020  0.2297 -0.5775  0.2619
  571SOL    HW1 1712   0.840   3.127   0.938 -4.4051 -1.8175  1.8464
  571SOL    HW2 1713   0.771   2.989   0.999  1.2558 -0.5386  0.3282
  572SOL     OW 1714   1.621   2.586   1.324  0.4183 -0.5130  0.1454
  572SOL    HW1 1715   1.556   2.566   1.253  1.2708  0.2219 -0.0395
  572SOL    HW2 1716   1.621   2.689   1.351  0.2765  1.8446 -0.3709
  573SOL     OW 1717   2.901   0.516   2.006  0.8448 -0.3446 -0.1743
  573SOL    HW1 1718   2.816   0.462   2.021 -1.0206 -0.6928  0.0429
  573SOL    HW2 1719   2.962   0.472   1.929 -2.1567  1.1643 -2.1230
  574SOL     OW 1720   0.162   1.755   1.080 -0.5208  0.8708  0.3060
  574SOL    HW1 1721   0.130   1.853   1.063  0.1596 -1.1141  0.2323
  574SOL    HW2 1722   0.101   1.696   1.137  1.9637 -0.8548 -1.6632
  575SOL     OW 1723   0.842   2.167   0.923 -0.6920  0.5973  0.4710
  575SOL    HW1 1724   0.827   2.214   1.013  2.3893  0.1171 -2.0017
  575SOL    HW2 1725   0.881   2.223   0.846  0.0092 -0.5154  0.3074
  576SOL     OW 1726   2.879   3.016   1.687 -0.4666 -0.1797 -0.5703
  576SOL    HW1 1727   2.776   3.011   1.680 -1.8007 -2.4882  1.9313
  576SOL    HW2 1728   2.920   3.112   1.702  1.1764 -0.9750 -1.1778
  577SOL     OW 1729   2.480   1.217   0.006  0.6648 -0.7539 -0.1378
  577SOL    HW1 1730   2.496   1.139  -0.061 -2.7216 -0.4863 -1.5390
  577SOL    HW2 1731   2.543   1.219   0.087 -0.9235  0.1749  2.4272
  578SOL     OW 1732   1.418   2.718   2.430  0.7916 -0.0444 -0.0057
  578SOL    HW1 1733   1.314   2.737   2.434 -0.2038 -1.6370  0.6781
  578SOL    HW2 1734   1.466   2.805   2.450 -0.9102  0.6310  2.7186
  579SOL     OW 1735   0.059   2.499   0.158 -0.2443 -0.0138  0.1988
  579SOL    HW1 1736  -0.028   2.502   0.217 -0.7364 -0.3424  0.8432
  579SOL    HW2 1737   0.143   2.525   0.212 -1.7065  1.4572 -0.5774
  580SOL     OW 1738   0.968   2.687   0.383 -0.4615 -0.1503 -0.2857
  580SOL    HW1 1739   1.050   2.659   0.321 -1.7396 -1.1068 -0.1631
  580SOL    HW2 1740   0.890   2.625   0.365 -1.9767 -1.6604  3.2371
  581SOL     OW 1741   1.238   2.661   1.463 -0.0273  0.1169  0.0573
  581SOL    HW1 1742   1.299   2.583   1.495 -0.0266 -1.9092 -2.2466
  581SOL    HW2 1743   1.279   2.752   1.427 -1.0543  1.9195  0.0115
  582SOL     OW 1744   1.512   0.066   1.849  0.0207  0.1339  0.0378
  582SOL    HW1 1745   1.530   0.137   1.921  2.7522 -0.4440 -1.4868
  582SOL    HW2 1746   1.600   0.026   1.808 -1.0038  0.9060 -0.5242
  583SOL     OW 1747   2.458   3.069   0.559  0.1437  0.5524 -0.1148
  583SOL    HW1 1748   2.516   3.005   0.497 -1.8368 -2.9511  1.1579
  583SOL    HW2 1749   2.370   3.016   0.587 -2.5167 -2.3115  0.0991
  584SOL     OW 1750   1.548   1.045   2.145 -0.3899  1.0006  0.0948
  584SOL    HW1 1751   1.607   1.123   2.122  2.4712 -1.3688  2.8255
  584SOL    HW2 1752   1.601   0.981   2.210  0.3472 -0.3715  1.1170
  585SOL     OW 1753   2.146   2.671   2.931  0.0724  0.0992 -0.0283
  585SOL    HW1 1754   2.192   2.581   2.897  0.1464 -2.4277 -0.9579
  585SOL    HW2 1755   2.048   2.662   2.952  2.1843 -0.4179  0.7609
  586SOL     OW 1756   2.824   0.370   1.616  0.1500 -0.0212  0.5175
  586SOL    HW1 1757   2.816   0.445   1.685 -2.2121 -3.0887 -3.2370
  586SOL    HW2 1758   2.733   0.351   1.575  0.0407  1.4846  0.8423
  587SOL     OW 1759   2.074   1.560   2.625  0.5671 -0.4068  0.4952
  587SOL    HW1 1760   2.121   1.486   2.566 -2.9412 -0.3605  0.6279
  587SOL    HW2 1761   2.104   1.545   2.724 -0.3672  1.3478  1.5442
  588SOL     OW 1762   0.461   2.661   2.250 -0.2315 -0.5237 -0.3524
  588SOL    HW1 1763   0.361   2.653   2.227  0.3850  0.0587  2.8538
  588SOL    HW2 1764   0.500   2.581   2.307 -0.8178 -0.2275  0.5004
  589SOL     OW 1765   2.146   1.345   2.477 -0.3132 -0.0910 -0.2468
  589SOL    HW1 1766   2.093   1.277   2.415 -0.0567 -0.2420 -0.9573
  589SOL    HW2 1767   2.235   1.299   2.503 -1.4765  0.2744 -0.7727
  590SOL     OW 1768   2.349   1.686   2.041 -0.5166  0.7954 -0.0950
  590SOL    HW1 1769   2.393   1.589   2.040  0.3477 -1.6260  1.1028
  590SOL    HW2 1770   2.365   1.731   2.136  3.1749 -1.8784  2.5642
  591SOL     OW 1771   1.285   2.424   0.227 -0.4659  0.1959 -0.6807
  591SOL    HW1 1772   1.343   2.363   0.163 -0.6121  0.8284  0.4862
  591SOL    HW2 1773   1.278   2.389   0.323  0.0262  2.7401  1.2462
  592SOL     OW 1774   1.787   2.269   0.736 -0.4866  0.2335 -0.4351
  592SOL    HW1 1775   1.763   2.357   0.691  2.5100  0.2103  0.3708
  592SOL    HW2 1776   1.892   2.252   0.735  0.2803 -2.0850  1.6404
  593SOL     OW 1777   0.697   0.231   0.237  0.2837 -0.1066 -0.4225
  593SOL    HW1 1778   0.747   0.189   0.157  1.0034  1.5397 -1.9940
  593SOL    HW2 1779   0.714   0.333   0.228 -1.6527  1.9411 -1.8264
  594SOL     OW 1780   1.026   1.845   2.676  0.2275 -0.4357  0.0874
  594SOL    HW1 1781   1.102   1.784   2.639  1.7819 -2.7738 -0.7877
  594SOL    HW2 1782   1.055   1.917   2.739  0.3811 -0.5571 -0.4269
  595SOL     OW 1783   1.530   0.012   1.074  0.2710  0.4483 -0.0725
  595SOL    HW1 1784   1.600  -0.053   1.032  0.4056 -2.5513  0.2230
  595SOL    HW2 1785   1.434  -0.000   1.031 -0.1806  0.3115 -0.2260
  596SOL     OW 1786   0.034   1.461   2.252  0.4197  0.5904  0.4574
  596SOL    HW1 1787   0.021   1.368   2.290  0.1475  2.4653  0.0277
  596SOL    HW2 1788   0.064   1.535   2.314 -2.7055  0.2776  0.8702
  597SOL     OW 1789   1.938   2.551   1.722 -0.0386  0.3580 -0.0121
  597SOL    HW1 1790   1.922   2.518   1.624 -2.4273 -0.0790 -0.7211
  597SOL    HW2 1791   2.035   2.528   1.747 -1.1621 -1.6599  3.7041
  598SOL     OW 1792   2.549   2.951   1.214  0.1992 -0.4606  0.5001
  598SOL    HW1 1793   2.615   2.963   1.294 -0.6992  0.5789  0.6373
  598SOL    HW2 1794   2.592   2.948   1.118  0.3047 -0.0854 -0.8174
  599SOL     OW 1795   2.879   0.327   2.503 -0.3643  0.3893 -0.1657
  599SOL    HW1 1796   2.961   0.362   2.451  1.2634 -0.7563 -0.3034
  599SOL    HW2 1797   2.801   0.393   2.485  0.0323  0.6148 -0.0269
  600SOL     OW 1798   2.797   1.111   2.744 -0.1558  0.6660 -0.1022
  600SOL    HW1 1799   2.772   1.031   2.806 -0.7959  1.2308  2.2489
  600SOL    HW2 1800   2.811   1.204   2.790 -2.0390  0.6120 -2.0275
  601SOL     OW 1801   3.001   1.325   1.982  0.5508 -0.3076  0.5003
  601SOL    HW1 1802   2.936   1.368   1.915 -0.5912  1.1006 -0.4429
  601SOL    HW2 1803   3.087   1.385   1.999  3.3258 -2.3288 -0.7262
  602SOL     OW 1804   1.419   1.744   2.301  0.1666  0.1757 -0.3704
  602SOL    HW1 1805   1.340   1.676   2.305  1.5616  2.4838 -1.9841
  602SOL    HW2 1806   1.496   1.717   2.362 -1.0998 -0.0371 -0.2076
  603SOL     OW 1807   0.596   1.223   2.764  0.3665 -0.2686  0.7165
  603SOL    HW1 1808   0.501   1.203   2.725  1.0033 -1.1151  0.2756
  603SOL    HW2 1809   0.671   1.152   2.735 -0.3021  0.0582 -3.8042
  604SOL     OW 1810   2.377   0.998   0.160  0.4836  0.2878  0.0397
  604SOL    HW1 1811   2.417   1.078   0.102  0.0724  2.8988 -1.9476
  604SOL    HW2 1812   2.385   0.909   0.112 -1.8898 -1.2925 -0.2872
  605SOL     OW 1813   2.534   1.147   1.943 -0.3073 -0.6600 -0.3766
  605SOL    HW1 1814   2.573   1.063   1.894 -1.6518  1.0885  0.8521
  605SOL    HW2 1815   2.604   1.192   1.998 -0.1256 -1.7544 -1.3777
  606SOL     OW 1816   1.536   2.511   2.566  0.0918 -0.6863 -0.0226
  606SOL    HW1 1817   1.511   2.587   2.503  1.9399 -0.3680  2.3884
  606SOL    HW2 1818   1.465   2.434   2.559  2.3439 -3.2050 -0.2658
  607SOL     OW 1819   1.322   1.592   0.341  0.2584 -0.3603 -0.4049
  607SOL    HW1 1820   1.272   1.655   0.407 -1.8014  0.7964  1.3766
  607SOL    HW2 1821   1.404   1.644   0.293  2.2811 -1.1840  0.0136
  608SOL     OW 1822   1.428   2.815   0.393  0.5811 -0.3919  0.1279
  608SOL    HW1 1823   1.488   2.878   0.330 -0.5373  2.1117 -0.3528
  608SOL    HW2 1824   1.382   2.874   0.467 -1.3187  0.6188  0.6996
  609SOL     OW 1825   1.279   1.332   0.254  0.0567 -0.0099  0.5302
  609SOL    HW1 1826   1.279   1.434   0.279  1.3227 -2.3975  2.0054
  609SOL    HW2 1827   1.227   1.314   0.160 -3.3470 -0.4969 -0.1724
  610SOL     OW 1828   2.945   1.163   2.248 -0.5442 -0.2168 -0.2698
  610SOL    HW1 1829   2.942   1.066   2.210  0.7006 -0.0073 -0.7607
  610SOL    HW2 1830   2.965   1.234   2.173  1.8999  0.9201  1.8173
  611SOL     OW 1831   2.534   0.281   1.160 -0.0556  0.0896 -0.0773
  611SOL    HW1 1832   2.482   0.192   1.156 -0.6929  0.7005  0.3823
  611SOL    HW2 1833   2.629   0.275   1.201  0.7644  1.5009 -1.3122
  612SOL     OW 1834   0.764   2.261   1.164 -0.1217 -0.0939 -0.5234
  612SOL    HW1 1835   0.695   2.201   1.217 -1.0907 -1.8018 -0.2283
  612SOL    HW2 1836   0.737   2.357   1.146  0.0224 -1.8804  4.3635
  613SOL     OW 1837   0.829   1.400   2.417 -0.5443 -0.2743 -0.5152
  613SOL    HW1 1838   0.831   1.469   2.337 -1.6729 -0.7113 -0.5370
  613SOL    HW2 1839   0.814   1.300   2.387  0.2190  0.2004 -1.2182
  614SOL     OW 1840   1.558   1.707   1.961  0.1002 -0.2824  0.0482
  614SOL    HW1 1841   1.497   1.787   1.931 -0.7407  1.1137 -1.0345
  614SOL    HW2 1842   1.620   1.736   2.040 -2.9066  1.7251  2.7916
  615SOL     OW 1843   0.816   1.342   1.710  0.1774  0.2083  0.3870
  615SOL    HW1 1844   0.724   1.316   1.670  2.2764  0.9063  2.0249
  615SOL    HW2 1845   0.846   1.440   1.675  0.1454  0.6377 -0.4607
  616SOL     OW 1846   1.043   1.599   2.145  0.7376  0.3378 -0.0462
  616SOL    HW1 1847   0.940   1.584   2.129 -2.4649  1.5843 -2.6995
  616SOL    HW2 1848   1.094   1.612   2.056  2.0023 -0.5754 -1.3201
  617SOL     OW 1849   2.961   1.560   1.586 -0.0825  0.2052 -0.7804
  617SOL    HW1 1850   2.923   1.492   1.655 -1.6842  1.1108 -0.0607
  617SOL    HW2 1851   2.961   1.523   1.494  1.0269  1.6931 -1.2208
  618SOL     OW 1852   1.894   2.005   1.442  0.1688  0.9802 -0.6679
  618SOL    HW1 1853   1.903   1.998   1.336  3.5735  0.1819 -2.6218
  618SOL    HW2 1854   1.879   1.910   1.485  3.4346  0.2904 -0.4158
  619SOL     OW 1855   1.755   0.510   2.417 -0.4556 -0.0366  0.4065
  619SOL    HW1 1856   1.667   0.555   2.388 -0.4329  1.9171 -1.7693
  619SOL    HW2 1857   1.749   0.407   2.435  2.0922 -0.1336  0.5438
  620SOL     OW 1858   2.217   2.972   0.661 -0.2667  0.1783 -0.6084
  620SOL    HW1 1859   2.158   3.055   0.686  1.2968 -1.0919 -2.8034
  620SOL    HW2 1860   2.247   2.912   0.740 -0.3196 -0.5172  2.0127
  621SOL     OW 1861   2.121   1.861   1.321 -0.1388  0.0714 -0.0477
  621SOL    HW1 1862   2.131   1.835   1.423  0.2742  1.0512 -0.3826
  621SOL    HW2 1863   2.104   1.771   1.264 -0.4290 -4.0341 -1.2381
  622SOL     OW 1864   2.247   0.891   1.792 -0.0002 -0.3638 -0.1691
  622SOL    HW1 1865   2.348   0.910   1.777 -1.6401 -0.1281 -0.9097
  622SOL    HW2 1866   2.236   0.789   1.809 -0.1604  0.5761 -1.4900
  623SOL     OW 1867   1.363   0.809   2.636 -0.4257 -0.1625 -0.5544
  623SOL    HW1 1868   1.307   0.758   2.706  0.1241  3.1412 -1.7454
  623SOL    HW2 1869   1.310   0.860   2.564 -0.1815  0.2533 -0.2220
  624SOL     OW 1870   0.588   0.637   3.075 -0.1539  0.0017 -0.2801
  624SOL    HW1 1871   0.612   0.701   3.003 -1.0797  0.0751 -0.7989
  624SOL    HW2 1872   0.552   0.693   3.157 -2.2922 -1.5935  0.7276
  625SOL     OW 1873   2.842   1.749   0.961 -1.1251  0.1576 -0.0791
  625SOL    HW1 1874   2.755   1.777   1.008 -1.2346 -1.7170  1.7522
  625SOL    HW2 1875   2.928   1.781   1.011 -0.6431 -0.0582  2.0390
  626SOL     OW 1876   0.611   2.689   1.855 -0.0811 -0.3728  0.2701
  626SOL    HW1 1877   0.639   2.784   1.884  0.6371 -0.6181 -0.8054
  626SOL    HW2 1878   0.516   2.685   1.818 -0.8861 -1.2150  1.5649
  627SOL     OW 1879   0.727   0.987   1.526 -0.1998 -0.0794  0.8616
  627SOL    HW1 1880   0.735   0.904   1.466 -1.9471 -1.1343 -0.1690
  627SOL    HW2 1881   0.805   1.056   1.513  0.6986  1.5166  4.8987
  628SOL     OW 1882   2.395   0.174   0.731 -0.3247 -0.4012 -0.2066
  628SOL    HW1 1883   2.446   0.113   0.662  1.9846 -0.1646 -0.2086
  628SOL    HW2 1884   2.298   0.133   0.739  3.0662 -1.1757  1.4041
  629SOL     OW 1885   1.950   0.897   1.988 -0.0382 -0.2898  0.6409
  629SOL    HW1 1886   2.052   0.889   1.988  0.6633  1.0044 -2.0393
  629SOL    HW2 1887   1.932   0.996   2.013 -0.5233 -1.4923 -0.0674
  630SOL     OW 1888   2.842   2.213   0.834 -0.6236  0.1744 -1.0857
  630SOL    HW1 1889   2.742   2.227   0.854 -1.7341 -2.5601  3.1129
  630SOL    HW2 1890   2.868   2.115   0.797  0.1584 -1.4912 -0.4846
  631SOL     OW 1891   2.937   0.135   2.106 -0.3035  0.0938  0.5607
  631SOL    HW1 1892   2.985   0.183   2.177  0.9457 -1.4546 -2.3454
  631SOL    HW2 1893   2.985   0.146   2.012 -2.0732  0.3546  0.4409
  632SOL     OW 1894   2.427   2.516   0.677 -0.1534  0.3748 -0.1652
  632SOL    HW1 1895   2.456   2.609   0.717  0.5072 -1.1515 -0.7666
  632SOL    HW2 1896   2.410   2.525   0.576 -2.7066 -0.3506  1.1169
  633SOL     OW 1897   1.477   1.257   2.513  0.0641  0.6381  0.0367
  633SOL    HW1 1898   1.484   1.342   2.574  1.8113  1.1269 -0.9742
  633SOL    HW2 1899   1.387   1.259   2.459  0.3060 -0.5181  0.2807
  634SOL     OW 1900   0.676   1.957   0.928 -0.5854  0.5438 -0.5087
  634SOL    HW1 1901   0.577   1.967   0.966 -0.1867 -1.6721 -0.0233
  634SOL    HW2 1902   0.732   2.045   0.924 -1.6823  1.7776  0.0822
  635SOL     OW 1903   3.088   2.323   3.055 -0.0475  0.3715 -0.1869
  635SOL    HW1 1904   3.020   2.381   2.996  0.0016 -0.4663  1.8214
  635SOL    HW2 1905   3.125   2.373   3.137  1.0676 -0.5944 -2.5252
  636SOL     OW 1906   2.277   2.714   2.089  0.0760  0.2970 -0.5198
  636SOL    HW1 1907   2.294   2.817   2.097 -1.2679 -2.9392  1.8193
  636SOL    HW2 1908   2.236   2.675   2.176 -0.5323 -0.0894  0.8418
  637SOL     OW 1909   2.599   0.732   2.021 -0.6775  0.4809 -0.5815
  637SOL    HW1 1910   2.566   0.729   1.924  2.0908  1.5227  2.1814
  637SOL    HW2 1911   2.638   0.823   2.056  0.5515 -0.4426  0.6676
  638SOL     OW 1912   2.399   1.807   1.253 -0.3594  0.2055  0.5580
  638SOL    HW1 1913   2.300   1.834   1.256  1.4683 -0.2968  0.4036
  638SOL    HW2 1914   2.426   1.752   1.337  2.1257 -1.0096  1.1473
  639SOL     OW 1915   1.313   2.184   1.705  0.4791  0.3532 -0.0045
  639SOL    HW1 1916   1.352   2.152   1.616 -2.2803 -0.2737 -0.0248
  639SOL    HW2 1917   1.227   2.132   1.738 -1.0505  0.4571 -0.5541
  640SOL     OW 1918   0.220   1.154   1.557 -0.1249  0.1467 -0.3971
  640SOL    HW1 1919   0.214   1.207   1.648 -0.5334  0.6631 -0.3383
  640SOL    HW2 1920   0.306   1.095   1.546  1.4623 -1.0786  2.8123
  641SOL     OW 1921   2.038   0.140   1.540  0.3305 -0.7137  0.6037
  641SOL    HW1 1922   1.970   0.151   1.616 -0.2285  2.3174  0.9984
  641SOL    HW2 1923   2.086   0.048   1.547 -3.0850 -1.8056 -0.9940
  642SOL     OW 1924   1.947   0.123   0.297  0.1891 -0.3249  0.1372
  642SOL    HW1 1925   2.034   0.084   0.335  0.9641 -3.1633  0.8476
  642SOL    HW2 1926   1.876   0.136   0.368 -2.3095  0.6600  0.0921
  643SOL     OW 1927   2.886   1.864   2.072 -0.3891 -0.3911  0.4668
  643SOL    HW1 1928   2.858   1.787   2.010  1.3074 -0.2911  0.4941
  643SOL    HW2 1929   2.902   1.955   2.027 -0.9443  1.2851 -0.0352
  644SOL     OW 1930   2.267   2.376   1.206 -0.0735 -0.3394 -0.1565
  644SOL    HW1 1931   2.313   2.292   1.164 -1.3377 -0.1793  1.4525
  644SOL    HW2 1932   2.245   2.351   1.303  1.0615 -2.3762 -4.1635
  645SOL     OW 1933   0.642   0.866   1.269 -0.1246 -0.3777 -0.6780
  645SOL    HW1 1934   0.563   0.920   1.302  1.4204  2.7246 -0.1226
  645SOL    HW2 1935   0.652   0.872   1.168 -0.4742  2.2164  1.5040
  646SOL     OW 1936   1.430   1.925   1.903  0.6486  0.5070 -0.6169
  646SOL    HW1 1937   1.491   2.007   1.885 -0.6647  0.3146 -0.7834
  646SOL    HW2 1938   1.364   1.938   1.986 -0.0912 -1.9595  1.2970
  647SOL     OW 1939   0.818   1.075   0.648 -0.0792 -0.1443 -0.0092
  647SOL    HW1 1940   0.879   1.083   0.735  2.5252 -0.0255 -1.2549
  647SOL    HW2 1941   0.740   1.005   0.655  1.2144  0.8124 -2.8720
  648SOL     OW 1942   0.122   0.186   0.226  0.3993  0.2207  0.1094
  648SOL    HW1 1943   0.164   0.124   0.151  1.1073  0.7941  1.6202
  648SOL    HW2 1944   0.088   0.274   0.186 -1.6048 -2.4022 -1.3131
  649SOL     OW 1945   3.050   0.233   0.882  0.4329  0.3034  0.2526
  649SOL    HW1 1946   3.147   0.197   0.869  0.2783  3.2734 -2.6896
  649SOL    HW2 1947   3.048   0.310   0.951 -2.6715  0.2230  0.2231
  650SOL     OW 1948   2.711   0.651   1.436 -0.0863  0.0499  0.4561
  650SOL    HW1 1949   2.615   0.659   1.468  0.0737 -2.7427  1.4304
  650SOL    HW2 1950   2.743   0.732   1.380  0.1460 -2.0079  0.5088
  651SOL     OW 1951   0.941   1.562   1.587 -0.2058 -0.0445  0.2057
  651SOL    HW1 1952   0.922   1.658   1.608  2.7111 -1.8166  1.2537
  651SOL    HW2 1953   0.975   1.546   1.488  1.0957 -3.7646 -0.9308
  652SOL     OW 1954   2.281   2.451   2.530 -0.4875 -0.2509  0.3610
  652SOL    HW1 1955   2.193   2.409   2.561 -2.0028  4.0804  0.0099
  652SOL    HW2 1956   2.263   2.509   2.447  0.2950  3.3396 -0.7696
  653SOL     OW 1957   2.688   1.191   0.176  0.4287  0.1439  0.2901
  653SOL    HW1 1958   2.724   1.276   0.224 -1.3813 -0.5453  0.4071
  653SOL    HW2 1959   2.754   1.112   0.185 -1.2639  1.5563 -4.6965
  654SOL     OW 1960   1.296   2.255   1.260 -0.1488 -0.0943 -0.1675
  654SOL    HW1 1961   1.292   2.183   1.335 -0.3376  0.3398 -1.3502
  654SOL    HW2 1962   1.335   2.227   1.173 -0.3097  1.8369  1.6340
  655SOL     OW 1963   0.198   0.968   1.863  0.2094  0.2654  0.1171
  655SOL    HW1 1964   0.243   0.904   1.796  2.8616  2.1639 -1.5848
  655SOL    HW2 1965   0.273   1.025   1.908  1.2532  0.0082 -1.0411
  656SOL     OW 1966   2.548   2.510   2.636  0.0260  0.3193  1.0499
  656SOL    HW1 1967   2.609   2.454   2.577 -0.1543  2.0375  2.5321
  656SOL    HW2 1968   2.454   2.504   2.590 -2.5376  0.8754 -1.9710
  657SOL     OW 1969   3.046   1.059   1.939  0.7722  0.4665 -0.1108
  657SOL    HW1 1970   3.045   1.162   1.942 -0.8125 -1.4031  0.8133
  657SOL    HW2 1971   3.137   1.014   1.916  1.8065 -0.0633 -1.1724
  658SOL     OW 1972   1.723   0.233   2.411 -0.0803  0.2158  0.2354
  658SOL    HW1 1973   1.717   0.169   2.491 -1.3210  0.6807 -0.1025
  658SOL    HW2 1974   1.772   0.193   2.331  0.3795  1.8445  2.6483
  659SOL     OW 1975   1.460   0.654   2.942 -0.0988  0.0311  0.0182
  659SOL    HW1 1976   1.488   0.751   2.949 -0.2281 -0.5406 -1.9767
  659SOL    HW2 1977   1.364   0.647   2.901 -2.1285  2.0899  1.5548
  660SOL     OW 1978   1.400   0.348   1.455  0.2305 -0.5254 -0.3486
  660SOL    HW1 1979   1.466   0.359   1.539  2.8293 -0.4885  2.7071
  660SOL    HW2 1980   1.429   0.277   1.390 -0.1984  0.4128 -0.6663
  661SOL     OW 1981   2.507   1.191   0.670 -0.2895  0.1545  0.8297
  661SOL    HW1 1982   2.510   1.155   0.572 -0.5376 -2.1012  0.9559
  661SOL    HW2 1983   2.436   1.266   0.685  2.0286 -1.4405 -0.6474
  662SOL     OW 1984   1.368   0.449   1.852 -0.0220  0.1743  0.5066
  662SOL    HW1 1985   1.319   0.368   1.812  1.0478 -0.6325  0.4185
  662SOL    HW2 1986   1.329   0.480   1.942 -1.2031  0.1176 -0.2292
  663SOL     OW 1987   0.760   1.553   2.191  0.2484 -0.1638 -0.4288
  663SOL    HW1 1988   0.717   1.652   2.209 -1.2598  0.9874 -1.2859
  663SOL    HW2 1989   0.705   1.493   2.127  3.3022  3.8588 -0.3352
  664SOL     OW 1990   1.640   2.099   1.495 -0.0999  0.6161  0.0741
  664SOL    HW1 1991   1.580   2.036   1.548  1.5430  2.4343 -1.7073
  664SOL    HW2 1992   1.729   2.057   1.466 -0.3842 -0.6215  1.6268
  665SOL     OW 1993   2.260   0.646   1.962 -0.3134 -0.3838 -0.1835
  665SOL    HW1 1994   2.296   0.550   1.988  0.5265 -0.0002  1.2628
  665SOL    HW2 1995   2.268   0.719   2.036  1.4206  0.4770  0.9150
  666SOL     OW 1996   0.381   2.349   0.418  0.4189  0.1827  0.3542
  666SOL    HW1 1997   0.461   2.383   0.478 -0.2561  0.0117  1.9566
  666SOL    HW2 1998   0.306   2.307   0.470  0.4531 -1.6758  2.2040
  667SOL     OW 1999   1.987   0.148   1.171  0.4520  0.4073 -0.6048
  667SOL    HW1 2000   1.972   0.246   1.140 -1.3102 -1.5428  1.5285
  667SOL    HW2 2001   1.915   0.108   1.233  2.1841  1.1700  0.1848
  668SOL     OW 2002   1.992   0.497   1.197 -0.0234 -0.3198  0.2464
  668SOL    HW1 2003   2.059   0.514   1.122 -0.8981 -0.5736 -0.6162
  668SOL    HW2 2004   2.040   0.458   1.285  0.0209 -2.6715  2.9647
  669SOL     OW 2005   3.062   2.222   0.994 -0.3663  0.4549 -0.2057
  669SOL    HW1 2006   2.977   2.220   0.929 -0.2961  1.8924  3.2643
  669SOL    HW2 2007   3.031   2.217   1.095 -2.7380 -2.0685 -2.7242
  670SOL     OW 2008   2.854   2.344   1.941  0.1659  0.4681  0.2345
  670SOL    HW1 2009   2.794   2.301   2.015  0.0809 -0.8926  1.2409
  670SOL    HW2 2010   2.841   2.448   1.938 -0.3688 -2.3729 -0.2315
  671SOL     OW 2011   1.765   1.741   1.451 -0.3737 -0.9922 -0.4859
  671SOL    HW1 2012   1.797   1.775   1.355 -0.8004  1.4683  0.2527
  671SOL    HW2 2013   1.672   1.705   1.453  0.3937  4.4010  2.4833
  672SOL     OW 2014   0.373   0.622   2.361 -0.5143  0.1676  0.0681
  672SOL    HW1 2015   0.445   0.667   2.303 -1.0821 -1.8875 -0.8525
  672SOL    HW2 2016   0.290   0.687   2.377  1.5022  0.2692 -2.7891
  673SOL     OW 2017   0.140   1.169   1.168  0.3052 -0.4365 -0.6991
  673SOL    HW1 2018   0.172   1.231   1.250  0.0357  0.3108  1.2710
  673SOL    HW2 2019   0.209   1.102   1.132 -0.3385 -3.0049  0.8112
  674SOL     OW 2020   1.604   2.932   0.227 -0.2027  0.1591 -0.1110
  674SOL    HW1 2021   1.607   3.012   0.166  1.6949 -0.7216 -0.5523
  674SOL    HW2 2022   1.626   2.838   0.190 -1.3627  1.8892  0.7074
  675SOL     OW 2023   1.665   0.831   2.314 -0.3859  0.6877  0.1500
  675SOL    HW1 2024   1.765   0.802   2.298 -2.1929  0.3095  0.9530
  675SOL    HW2 2025   1.610   0.750   2.294  4.2875  0.0436  0.8164
  676SOL     OW 2026   2.480   1.455   2.017  0.1831  0.2162  0.3360
  676SOL    HW1 2027   2.471   1.416   1.922 -1.0462 -1.0156 -1.2619
  676SOL    HW2 2028   2.561   1.414   2.073  0.2670  1.3280  0.6785
  677SOL     OW 2029   1.961   0.697   0.823 -0.0923 -0.7317 -0.4608
  677SOL    HW1 2030   1.993   0.711   0.923 -0.5737  0.9590 -1.9442
  677SOL    HW2 2031   1.975   0.595   0.797  0.8756  0.3707 -0.6588
  678SOL     OW 2032   0.046   0.753   1.675 -0.2372 -0.5420 -0.9696
  678SOL    HW1 2033   0.146   0.752   1.704  2.2665 -0.0536  0.5711
  678SOL    HW2 2034  -0.023   0.775   1.751  1.1054 -2.6241 -0.1668
  679SOL     OW 2035   2.596   1.166   1.112 -0.2105 -0.8357  0.1672
  679SOL    HW1 2036   2.510   1.200   1.166 -0.0788  0.2898  1.5792
  679SOL    HW2 2037   2.598   1.065   1.086  1.1255 -0.9537  0.4367
  680SOL     OW 2038   2.776   0.624   1.709 -0.4338  0.0935 -0.4835
  680SOL    HW1 2039   2.755   0.647   1.611 -0.6059 -1.7477 -0.6067
  680SOL    HW2 2040   2.837   0.695   1.757  3.5980 -1.1155 -0.5843
  681SOL     OW 2041   2.999   0.166   1.643 -0.1997 -0.6627 -0.6911
  681SOL    HW1 2042   3.075   0.170   1.576 -2.0118 -1.3706 -0.4376
  681SOL    HW2 2043   2.932   0.241   1.630 -2.3537  0.6972  3.5707
  682SOL     OW 2044   0.706   0.034   1.286  0.2481  0.3104  0.2726
  682SOL    HW1 2045   0.652  -0.041   1.326  0.7150  2.0093  1.2522
  682SOL    HW2 2046   0.716   0.026   1.187 -1.6502 -1.3058  0.6508
  683SOL     OW 2047   1.325   0.211   2.197 -0.2829  0.5518 -0.3784
  683SOL    HW1 2048   1.315   0.275   2.281  1.4217 -1.0497  2.1369
  683SOL    HW2 2049   1.409   0.227   2.137 -2.0501 -0.6531  0.2278
  684SOL     OW 2050   1.466   2.130   0.556 -0.2870  0.5403  0.0305
  684SOL    HW1 2051   1.521   2.067   0.616  1.2865  1.2979 -2.7031
  684SOL    HW2 2052   1.382   2.084   0.516  1.0716 -1.1412  0.4838
  685SOL     OW 2053   2.162   2.006   1.951  0.0558  0.0159 -0.4723
  685SOL    HW1 2054   2.228   2.034   1.878 -4.6609  3.9085  1.8077
  685SOL    HW2 2055   2.206   1.963   2.035  0.8015  0.0996  0.5645
  686SOL     OW 2056   1.516   1.804   2.763  0.1677 -0.0953  0.2655
  686SOL    HW1 2057   1.514   1.781   2.865 -0.9872 -0.4653 -0.5343
  686SOL    HW2 2058   1.567   1.736   2.702 -2.1113  0.2872 -2.4622
  687SOL     OW 2059   1.260   2.505   1.970 -0.0155  0.4681 -0.1681
  687SOL    HW1 2060   1.278   2.402   1.974 -0.5948  1.2317 -0.8776
  687SOL    HW2 2061   1.339   2.543   2.018  0.5210  2.3623 -2.2564
  688SOL     OW 2062   2.068   1.571   1.749 -0.2706 -0.7636 -0.2225
  688SOL    HW1 2063   2.170   1.580   1.770  1.4202 -1.6550 -1.2597
  688SOL    HW2 2064   2.048   1.532   1.657  1.6731 -1.6953 -0.3952
  689SOL     OW 2065   2.470   1.076   2.660 -0.0025  0.2177  0.5038
  689SOL    HW1 2066   2.362   1.065   2.667 -0.3486  3.8680 -0.8822
  689SOL    HW2 2067   2.525   1.079   2.745  1.4483  1.1099 -2.4232
  690SOL     OW 2068   2.275   2.800   0.055  0.4327 -0.2740  0.1629
  690SOL    HW1 2069   2.220   2.764  -0.024  0.0761  3.8976 -1.2537
  690SOL    HW2 2070   2.215   2.854   0.121 -3.3688 -1.1509 -0.2998
  691SOL     OW 2071   2.573   0.486   2.130 -0.4450 -0.4790 -1.0493
  691SOL    HW1 2072   2.615   0.406   2.088 -1.4687  0.4362  2.3687
  691SOL    HW2 2073   2.586   0.574   2.075  0.7173 -1.6172 -1.5790
  692SOL     OW 2074   2.769   1.214   0.717  0.2109  0.0480  0.5066
  692SOL    HW1 2075   2.667   1.192   0.699  0.9137  1.5059 -0.7059
  692SOL    HW2 2076   2.776   1.307   0.762 -0.4632  3.7172 -2.5953
  693SOL     OW 2077   2.779   2.949   0.653  0.0907 -0.3526 -0.6108
  693SOL    HW1 2078   2.789   3.037   0.711 -0.5804  0.2027  1.3610
  693SOL    HW2 2079   2.721   2.969   0.571 -1.1767 -2.4730  0.3130
  694SOL     OW 2080   2.405   2.213   0.083  0.7032 -0.0675 -0.0178
  694SOL    HW1 2081   2.394   2.307   0.120 -0.0574  0.8342  1.7815
  694SOL    HW2 2082   2.317   2.166   0.057 -0.3781  0.7570  1.1602
  695SOL     OW 2083   0.601   2.955   1.491 -0.0125 -0.0290 -0.0796
  695SOL    HW1 2084   0.559   2.874   1.448  1.4517 -0.6013  1.5737
  695SOL    HW2 2085   0.556   2.981   1.580  0.2717 -0.2610 -2.5249
  696SOL     OW 2086   2.827   1.953   0.748 -0.9624  0.1968 -0.3122
  696SOL    HW1 2087   2.817   1.886   0.824  2.0266  2.1422 -0.4400
  696SOL    HW2 2088   2.869   1.914   0.659 -0.6783  0.3233 -0.1303
  697SOL     OW 2089   1.640   2.079   1.819  0.1667 -0.3866  0.5013
  697SOL    HW1 2090   1.712   2.032   1.880 -1.7792  0.4465 -1.0722
  697SOL    HW2 2091   1.683   2.170   1.784  0.0038  2.1475 -0.7985
  698SOL     OW 2092   2.965   0.392   2.760  0.3009 -0.1885 -0.4631
  698SOL    HW1 2093   2.970   0.341   2.668 -2.3714 -0.0818  0.4448
  698SOL    HW2 2094   3.011   0.347   2.842  0.6206 -0.0445  0.4579
  699SOL     OW 2095   1.571   0.084   2.949  0.2575 -0.1710 -0.0242
  699SOL    HW1 2096   1.558  -0.011   2.908 -0.1576 -1.4959 -0.3821
  699SOL    HW2 2097   1.612   0.139   2.873  0.7453 -2.7787  1.8793
  700SOL     OW 2098   1.016   2.303   1.312  0.1017 -0.4637 -0.0619
  700SOL    HW1 2099   1.110   2.274   1.283  0.1162 -0.7286 -1.2693
  700SOL    HW2 2100   0.943   2.281   1.241 -0.3022  3.5856  2.5955
  701SOL     OW 2101   1.935   2.838   3.061 -0.3912 -0.1204 -0.5168
  701SOL    HW1 2102   1.885   2.784   3.139 -0.3256 -1.3023 -1.1752
  701SOL    HW2 2103   1.955   2.937   3.090  2.5526  0.6838 -1.2595
  702SOL     OW 2104   2.051   1.340   1.917  0.6796  0.4255 -0.5882
  702SOL    HW1 2105   2.142   1.283   1.903  2.3145 -2.8168 -1.4066
  702SOL    HW2 2106   2.009   1.373   1.832 -1.0994  2.4048  1.6736
  703SOL     OW 2107   1.958   0.887   1.410  0.3135 -0.1799 -0.1384
  703SOL    HW1 2108   1.960   0.791   1.454 -0.7167  0.9316  0.8618
  703SOL    HW2 2109   2.011   0.959   1.470  2.3306  0.6349  0.7198
  704SOL     OW 2110   0.338   2.039   1.672 -0.4931 -0.0276 -0.5837
  704SOL    HW1 2111   0.368   1.962   1.739 -0.6308 -1.4508 -0.8107
  704SOL    HW2 2112   0.396   2.124   1.665 -0.9847  1.2122 -0.2691
  705SOL     OW 2113   2.501   1.387   0.964  0.3709 -0.2869  0.0197
  705SOL    HW1 2114   2.479   1.384   0.862 -2.2115  0.7829 -0.6394
  705SOL    HW2 2115   2.554   1.302   1.000 -0.6572  0.7765  0.1303
  706SOL     OW 2116   0.652   1.717   1.827 -0.4196  0.3402 -0.1345
  706SOL    HW1 2117   0.644   1.624   1.870 -1.8347  1.1471  1.7004
  706SOL    HW2 2118   0.699   1.778   1.898 -0.3434 -1.1684 -0.4538
  707SOL     OW 2119   2.252   1.168   1.877 -0.2985 -0.2858  0.3297
  707SOL    HW1 2120   2.353   1.176   1.909 -1.7065 -1.0910 -0.4310
  707SOL    HW2 2121   2.224   1.068   1.869 -1.7892 -0.8370  1.3093
  708SOL     OW 2122   2.980   0.522   3.039 -0.3990 -0.4011  0.1754
  708SOL    HW1 2123   2.987   0.590   2.962 -0.8234  0.1336 -0.7086
  708SOL    HW2 2124   2.992   0.431   3.005  4.1171 -2.4518  3.2971
  709SOL     OW 2125   1.778   1.857   0.205 -0.1759  0.4590 -0.5553
  709SOL    HW1 2126   1.792   1.953   0.248 -0.5441 -0.2459  1.6260
  709SOL    HW2 2127   1.815   1.846   0.109  2.9110  2.2294 -0.1608
  710SOL     OW 2128   1.694   1.622   2.412 -0.1502 -0.0647  0.0264
  710SOL    HW1 2129   1.736   1.597   2.315 -1.0132  0.4537 -1.7356
  710SOL    HW2 2130   1.723   1.554   2.488 -3.5196 -0.6432  2.3108
  711SOL     OW 2131   2.686   2.965   0.961 -1.0918 -0.1708 -0.4609
  711SOL    HW1 2132   2.646   3.056   0.930 -1.5738  0.4335  0.1750
  711SOL    HW2 2133   2.787   2.975   0.972 -0.7315  0.9282  1.3752
  712SOL     OW 2134   1.363   2.239   1.986  0.3176 -0.3432  0.0448
  712SOL    HW1 2135   1.465   2.235   2.012  1.2450  1.1251  0.1928
  712SOL    HW2 2136   1.338   2.204   1.888  0.3123 -0.6530 -1.5733
  713SOL     OW 2137   2.934   1.462   2.581 -0.4034  0.3884 -0.5271
  713SOL    HW1 2138   2.879   1.385   2.539  0.2374 -2.4847 -0.5353
  713SOL    HW2 2139   2.894   1.507   2.664  1.3937  0.8466  1.8029
  714SOL     OW 2140   2.671   0.500   2.414 -0.1676 -0.5590 -0.6932
  714SOL    HW1 2141   2.605   0.452   2.482  0.5076 -2.0048 -1.6163
  714SOL    HW2 2142   2.638   0.494   2.315 -0.6823 -0.8255  0.9134
  715SOL     OW 2143   1.595   2.043   1.203 -0.0026 -0.1228 -0.1159
  715SOL    HW1 2144   1.515   2.082   1.147  0.9665  1.4492  1.6898
  715SOL    HW2 2145   1.591   2.065   1.307  0.4771 -0.1682  0.5116
  716SOL     OW 2146   1.189   0.168   1.488 -0.0522  0.3647  0.4052
  716SOL    HW1 2147   1.087   0.165   1.469  0.1797  1.8401  0.9773
  716SOL    HW2 2148   1.233   0.262   1.477 -0.9217  0.5722  0.4482
  717SOL     OW 2149   1.111   0.577   1.622  0.0914  0.3960  0.6935
  717SOL    HW1 2150   1.211   0.609   1.629  2.5974  1.7833 -1.9319
  717SOL    HW2 2151   1.097   0.552   1.519  2.0746  1.0437 -1.3839
  718SOL     OW 2152   0.725   0.929   0.939  0.2491  0.1093 -0.1682
  718SOL    HW1 2153   0.685   0.908   0.845  1.0180 -0.1651 -1.5534
  718SOL    HW2 2154   0.670   1.009   0.976  1.8049  0.5616  0.6171
  719SOL     OW 2155   0.676   1.798   2.272 -0.3581  0.1295 -0.6473
  719SOL    HW1 2156   0.753   1.852   2.318 -1.4088  1.9538 -0.4059
  719SOL    HW2 2157   0.590   1.794   2.323  0.7762  1.8974  0.0829
  720SOL     OW 2158   2.176   1.157   0.253 -0.1419 -0.0821 -0.0329
  720SOL    HW1 2159   2.247   1.090   0.217 -0.0417 -1.5907  0.6689
  720SOL    HW2 2160   2.161   1.139   0.358 -0.2570  0.5211  1.4724
  721SOL     OW 2161   2.282   2.997   2.099  0.0982 -0.1666 -0.7305
  721SOL    HW1 2162   2.229   3.006   2.013  0.6915 -0.0158  0.6248
  721SOL    HW2 2163   2.216   2.992   2.174 -1.5462 -1.4550 -1.7056
  722SOL     OW 2164   2.354   1.624   0.564 -0.1210  0.3502  0.6192
  722SOL    HW1 2165   2.387   1.617   0.467 -1.3182  0.0032  1.4892
  722SOL    HW2 2166   2.305   1.710   0.582 -1.9083 -0.9343 -0.8416
  723SOL     OW 2167   2.531   2.707   1.999  0.8451 -0.7026  0.6083
  723SOL    HW1 2168   2.587   2.762   2.070  1.1859 -0.7380 -1.1787
  723SOL    HW2 2169   2.431   2.697   2.021  0.5365 -1.5399  0.0917
  724SOL     OW 2170   0.532   2.466   2.422 -0.2910  0.2780 -0.1381
  724SOL    HW1 2171   0.441   2.481   2.464  4.5081 -0.8399 -0.1012
  724SOL    HW2 2172   0.608   2.474   2.492 -1.6525 -0.5430 -2.1450
  725SOL     OW 2173   2.429   2.789   1.513 -0.1470 -0.3812 -0.2277
  725SOL    HW1 2174   2.444   2.789   1.413  1.6351  0.1762  1.6795
  725SOL    HW2 2175   2.368   2.709   1.542 -0.5825 -2.9882 -0.6989
  726SOL     OW 2176   2.420   2.235   0.684 -0.7553 -0.6404 -0.4095
  726SOL    HW1 2177   2.431   2.343   0.670  0.7107  1.2193 -1.8415
  726SOL    HW2 2178   2.410   2.185   0.598 -2.9848  0.5291 -1.5446
  727SOL     OW 2179   0.142   3.064   0.044  0.3214 -0.4597  0.2830
  727SOL    HW1 2180   0.191   2.977   0.075  0.1071 -0.5740  0.5988
  727SOL    HW2 2181   0.102   3.064  -0.055 -1.2776 -0.3091 -0.8990
  728SOL     OW 2182   2.870   0.685   0.974  0.0889  0.1808  0.3971
  728SOL    HW1 2183   2.776   0.673   0.937  4.1904  0.7439 -1.1245
  728SOL    HW2 2184   2.873   0.642   1.067  0.8544 -1.6340 -1.5287
  729SOL     OW 2185   2.998   2.501   0.756 -0.7313  0.4517  0.0084
  729SOL    HW1 2186   2.926   2.444   0.784 -1.0627  1.0715 -1.7436
  729SOL    HW2 2187   3.089   2.455   0.757 -0.0595  0.6667 -0.6116
  730SOL     OW 2188   2.622   0.655   0.838 -0.4758 -0.1965  0.0824
  730SOL    HW1 2189   2.561   0.741   0.815 -0.1630  2.2145  0.8077
  730SOL    HW2 2190   2.689   0.620   0.757 -2.1096 -4.7096  1.8979
  731SOL     OW 2191   0.141   2.165   2.438  0.0818 -0.7285  0.3189
  731SOL    HW1 2192   0.094   2.217   2.515 -0.6313  1.0823 -2.9564
  731SOL    HW2 2193   0.158   2.229   2.355  1.3727  0.8808  0.1659
  732SOL     OW 2194   1.127   2.844   1.943 -0.3204 -0.0713  0.2282
  732SOL    HW1 2195   1.178   2.794   2.019 -1.5355 -1.0727 -1.3629
  732SOL    HW2 2196   1.141   2.798   1.855  0.0083 -0.4279  1.1258
  733SOL     OW 2197   3.043   0.556   2.233  0.4605  0.2573 -0.4145
  733SOL    HW1 2198   3.111   0.615   2.181 -2.4949 -2.1636  1.1964
  733SOL    HW2 2199   2.973   0.526   2.168  1.3251 -1.4091 -1.3171
  734SOL     OW 2200   1.417   0.365   2.758 -0.2191  0.3414 -0.0953
  734SOL    HW1 2201   1.418   0.452   2.809 -0.7509  0.8715  1.3907
  734SOL    HW2 2202   1.330   0.312   2.777  1.6766  0.2934 -0.7234
  735SOL     OW 2203   2.884   2.633   2.240  0.1927 -0.0809  0.3950
  735SOL    HW1 2204   2.857   2.655   2.146 -0.3204 -0.5213  1.3861
  735SOL    HW2 2205   2.983   2.649   2.268 -1.0224 -0.7589 -1.4579
  736SOL     OW 2206   0.750   0.303   2.664 -0.1481  0.3155 -0.2882
  736SOL    HW1 2207   0.642   0.298   2.670  1.1615 -0.3918  0.9761
  736SOL    HW2 2208   0.784   0.303   2.563  0.3320 -0.0134 -2.1417
  737SOL     OW 2209   2.679   0.387   2.866 -0.0693 -0.4216 -0.4764
  737SOL    HW1 2210   2.638   0.370   2.960  1.1366 -0.6697 -0.2889
  737SOL    HW2 2211   2.772   0.431   2.879 -0.6475 -1.0732 -0.6123
  738SOL     OW 2212   1.609   1.262   2.918 -0.4242 -0.1578  0.0191
  738SOL    HW1 2213   1.709   1.231   2.901  0.5291 -2.7979  1.2147
  738SOL    HW2 2214   1.544   1.188   2.876 -1.1791  0.1155  1.7141
  739SOL     OW 2215   1.727   0.605   0.694 -0.2321 -0.3784  0.1944
  739SOL    HW1 2216   1.806   0.648   0.744  1.8790  0.3429 -0.7481
  739SOL    HW2 2217   1.758   0.532   0.629 -2.0111  0.9354 -0.2383
  740SOL     OW 2218   2.010   1.921   2.269  0.0906  0.2571  0.8133
  740SOL    HW1 2219   2.059   1.855   2.327  0.4832 -1.2630 -1.4978
  740SOL    HW2 2220   1.932   1.884   2.209 -2.1934  0.3338  1.6443
  741SOL     OW 2221   2.534   0.068   2.636 -0.2307  0.1128  0.4133
  741SOL    HW1 2222   2.638   0.076   2.622  1.4027  0.1760 -0.7769
  741SOL    HW2 2223   2.480   0.045   2.552  2.3639  2.7567 -0.1401
  742SOL     OW 2224   2.234   1.462   0.228 -0.0822  0.1500 -0.8804
  742SOL    HW1 2225   2.154   1.527   0.219 -0.7124  0.1285  0.8659
  742SOL    HW2 2226   2.199   1.366   0.255 -3.2479  1.4591  0.5181
  743SOL     OW 2227   1.823   0.669   2.612 -0.1515 -0.1225 -0.3628
  743SOL    HW1 2228   1.800   0.597   2.536 -0.3819 -1.7391  0.5650
  743SOL    HW2 2229   1.757   0.745   2.625  0.0677  0.8206  0.2815
  744SOL     OW 2230   2.653   2.099   0.077  0.7126  0.5350 -0.5561
  744SOL    HW1 2231   2.565   2.155   0.083  2.5057 -3.3187 -3.5777
  744SOL    HW2 2232   2.631   1.993   0.061 -1.6426  0.1275 -0.7413
  745SOL     OW 2233   2.163   2.634   2.335 -0.4882 -0.1290  0.0882
  745SOL    HW1 2234   2.096   2.658   2.262 -0.2643  0.3642 -1.0544
  745SOL    HW2 2235   2.167   2.709   2.405  2.0477 -0.0211 -0.6978
  746SOL     OW 2236   3.064   2.637   1.723 -0.0694 -0.3763 -0.0230
  746SOL    HW1 2237   3.137   2.669   1.653  0.1499 -1.1862 -1.8865
  746SOL    HW2 2238   3.040   2.709   1.796  0.9245 -0.0154  1.1666
  747SOL     OW 2239   0.003   1.796   1.625  0.2706  0.5705  0.2655
  747SOL    HW1 2240  -0.049   1.707   1.593 -1.2735 -1.2815 -1.8142
  747SOL    HW2 2241   0.086   1.815   1.569  0.3555 -0.3516  1.2221
  748SOL     OW 2242   1.850   2.736   2.825  0.0243  0.2422  0.3480
  748SOL    HW1 2243   1.881   2.783   2.911  1.3776 -3.7252 -0.7752
  748SOL    HW2 2244   1.748   2.737   2.815  1.7316 -1.2983 -4.9319
  749SOL     OW 2245   1.312   3.061   0.941  0.3730  0.2739 -0.4081
  749SOL    HW1 2246   1.270   2.997   1.016 -1.8481 -1.3285 -1.4266
  749SOL    HW2 2247   1.276   3.051   0.846  3.7633 -1.0302 -1.0823
  750SOL     OW 2248   2.388   0.202   1.858  0.5764  0.0813  0.5901
  750SOL    HW1 2249   2.395   0.271   1.779 -0.8523  1.7102 -0.6948
  750SOL    HW2 2250   2.349   0.245   1.945 -0.6449 -0.5981  0.1852
  751SOL     OW 2251   0.924   2.202   2.713  0.3207  0.8145 -0.4928
  751SOL    HW1 2252   0.976   2.217   2.802 -0.7195 -0.1747 -0.1376
  751SOL    HW2 2253   0.834   2.153   2.730  1.9330  0.8403 -1.7935
  752SOL     OW 2254   1.258   0.866   1.416  0.2066  0.0838  0.6272
  752SOL    HW1 2255   1.324   0.937   1.388 -2.0669  0.9604  0.6117
  752SOL    HW2 2256   1.281   0.770   1.398 -1.8908  0.8104  1.3355
  753SOL     OW 2257   0.943   2.580   1.715  0.2804 -0.0837  0.1833
  753SOL    HW1 2258   1.040   2.613   1.705  1.1667  0.8745 -0.3090
  753SOL    HW2 2259   0.875   2.659   1.693  1.8207  1.1068 -0.8275
  754SOL     OW 2260   1.141   1.279   3.100  0.9004  0.6662  0.2872
  754SOL    HW1 2261   1.213   1.216   3.055 -1.2619  0.2187  0.7657
  754SOL    HW2 2262   1.136   1.378   3.062  3.3010  0.1393 -0.6716
  755SOL     OW 2263   1.970   0.446   2.210  0.3208 -0.2322 -0.6937
  755SOL    HW1 2264   2.046   0.407   2.267 -1.1240  0.1263 -1.2093
  755SOL    HW2 2265   1.895   0.493   2.270  3.7174 -0.4808  1.1195
  756SOL     OW 2266   2.554   0.999   2.966  0.1455 -0.4841 -0.1514
  756SOL    HW1 2267   2.647   1.004   3.013 -3.4645  1.0024  0.2456
  756SOL    HW2 2268   2.510   0.910   2.978 -0.0284 -0.6240  0.7531
  757SOL     OW 2269   3.059   0.442   1.785 -0.0880 -0.2638  0.4234
  757SOL    HW1 2270   3.149   0.437   1.843  0.9975  0.8530  3.8735
  757SOL    HW2 2271   3.050   0.369   1.714 -0.1582  1.2142 -0.9076
  758SOL     OW 2272   2.393   0.085   1.418 -0.0747  0.3715 -0.0078
  758SOL    HW1 2273   2.341   0.011   1.475 -0.1204 -1.5915 -2.9049
  758SOL    HW2 2274   2.393   0.057   1.315  0.0979 -2.5166 -1.9811
  759SOL     OW 2275   1.713   0.077   0.068 -0.2786 -0.4876 -0.0008
  759SOL    HW1 2276   1.648   0.092  -0.011 -0.3030 -2.0831  0.4235
  759SOL    HW2 2277   1.806   0.034   0.040  1.5947  1.3816 -2.1580
  760SOL     OW 2278   2.735   2.097   2.815 -0.0559  0.1062 -0.3693
  760SOL    HW1 2279   2.765   2.020   2.877  2.0286  0.0967 -1.1725
  760SOL    HW2 2280   2.690   2.178   2.869  0.1700 -1.8632  0.4023
  761SOL     OW 2281   1.899   1.786   1.722  0.0925 -0.0996  0.2713
  761SOL    HW1 2282   1.960   1.707   1.740 -0.2847  2.6566 -0.7452
  761SOL    HW2 2283   1.842   1.775   1.638  0.3952  0.0565  0.9333
  762SOL     OW 2284   0.462   2.317   0.970 -0.0705 -0.0768  0.5140
  762SOL    HW1 2285   0.503   2.352   0.883  0.7059  0.5744  0.2533
  762SOL    HW2 2286   0.492   2.361   1.061  1.2196  1.2442 -0.2644
  763SOL     OW 2287   2.079   1.510   2.927 -0.0820 -0.4161 -0.0712
  763SOL    HW1 2288   2.168   1.479   2.972  1.8510 -1.3895  0.2995
  763SOL    HW2 2289   2.002   1.490   2.996 -1.1423  2.1795  2.5577
  764SOL     OW 2290   0.619   0.596   0.855  0.4838  0.0923  0.1628
  764SOL    HW1 2291   0.580   0.522   0.790  0.7620 -0.2110  1.5830
  764SOL    HW2 2292   0.722   0.600   0.871 -0.0553 -0.7826 -1.3448
  765SOL     OW 2293   0.707   0.238   0.799  0.2285 -0.2016 -0.0301
  765SOL    HW1 2294   0.776   0.296   0.741 -0.4962 -0.9529  0.7264
  765SOL    HW2 2295   0.703   0.273   0.895 -0.9357 -1.3564 -1.1621
  766SOL     OW 2296   2.923   2.090   3.097 -0.2472  0.0058 -0.2377
  766SOL    HW1 2297   2.824   2.094   3.127  1.9734  0.7002 -0.7436
  766SOL    HW2 2298   2.964   2.180   3.072  3.3309 -0.2258  1.8500
  767SOL     OW 2299   2.814   1.563   0.587  0.4196  0.1835 -0.5960
  767SOL    HW1 2300   2.736   1.576   0.650  2.2987 -2.6484  1.2284
  767SOL    HW2 2301   2.912   1.584   0.623 -0.1054 -1.9445 -1.2959
  768SOL     OW 2302   1.106   0.207   0.366 -0.0826 -0.0873  0.2285
  768SOL    HW1 2303   1.048   0.137   0.414  2.5183  0.8028 -0.1822
  768SOL    HW2 2304   1.177   0.171   0.294  1.9323  0.4638 -1.5008
  769SOL     OW 2305   1.033   1.902   2.232  0.8531 -0.3606 -0.0757
  769SOL    HW1 2306   1.000   1.907   2.331  1.5959  2.0589  2.3455
  769SOL    HW2 2307   1.030   1.810   2.191  1.0530  0.9456 -3.6245
  770SOL     OW 2308   0.164   1.177   2.244 -0.3261  0.6959 -0.2697
  770SOL    HW1 2309   0.152   1.220   2.338  1.0310  2.0012  1.2314
  770SOL    HW2 2310   0.080   1.124   2.217  1.1536  1.9905  0.2215
  771SOL     OW 2311   2.984   2.855   1.905 -0.6947  0.3255 -0.2088
  771SOL    HW1 2312   2.949   2.916   1.832 -1.1307  0.7997  2.0435
  771SOL    HW2 2313   2.980   2.900   1.998 -0.4598  1.5268  1.1750
  772SOL     OW 2314   2.186   0.159   2.934 -0.3314 -0.7252 -0.0004
  772SOL    HW1 2315   2.274   0.104   2.922 -3.5601 -1.6364 -0.8815
  772SOL    HW2 2316   2.197   0.249   2.993 -0.6701  1.9663  0.5090
  773SOL     OW 2317   0.697   2.206   2.487 -0.4096  0.1052  0.0044
  773SOL    HW1 2318   0.659   2.221   2.390  0.0910  2.3250 -0.1435
  773SOL    HW2 2319   0.631   2.151   2.552 -0.0787 -1.1101 -2.2035
  774SOL     OW 2320   2.007   0.025   2.644  0.2689  0.5940  0.1766
  774SOL    HW1 2321   1.995   0.125   2.651  2.0404 -3.0824 -1.1924
  774SOL    HW2 2322   2.065  -0.012   2.724  1.0325 -2.5881  0.5814
  775SOL     OW 2323   2.525   2.820   2.432  0.3138 -0.3171  0.2316
  775SOL    HW1 2324   2.475   2.912   2.417 -1.8874 -0.9421 -1.3717
  775SOL    HW2 2325   2.624   2.833   2.466  0.6942 -0.6049  0.2943
  776SOL     OW 2326   0.074   1.301   0.200  0.5431 -0.6901  0.0000
  776SOL    HW1 2327   0.021   1.282   0.115 -0.4686  1.7558  0.5189
  776SOL    HW2 2328   0.028   1.265   0.287 -0.5092  3.8900 -2.5784
  777SOL     OW 2329   0.265   2.843   0.445 -0.3560 -0.5699  1.1500
  777SOL    HW1 2330   0.177   2.901   0.437 -1.7533  2.6218  1.6037
  777SOL    HW2 2331   0.349   2.894   0.478  0.5732 -1.1615 -1.3999
  778SOL     OW 2332   1.323   1.952   0.182  0.3237 -0.2713  0.1431
  778SOL    HW1 2333   1.282   1.937   0.274  3.3532  1.4300 -1.6482
  778SOL    HW2 2334   1.320   2.054   0.158  1.6316  0.4252  0.9593
  779SOL     OW 2335   0.198   0.853   0.489  0.1820  0.1674 -0.0811
  779SOL    HW1 2336   0.148   0.763   0.469 -0.6881  0.3079 -0.3218
  779SOL    HW2 2337   0.150   0.915   0.557 -0.7628 -1.0452 -0.3371
  780SOL     OW 2338   0.091   0.270   2.253 -0.0363 -0.1118  0.1124
  780SOL    HW1 2339   0.081   0.344   2.326  1.6288 -0.7333  1.6538
  780SOL    HW2 2340   0.183   0.270   2.211  0.0634  0.4992  0.1076
  781SOL     OW 2341   0.627   1.752   1.553 -0.5016 -0.6680  0.4001
  781SOL    HW1 2342   0.644   1.745   1.655  3.1651 -1.1704 -1.2669
  781SOL    HW2 2343   0.541   1.704   1.523  3.3963 -0.6292 -1.5773
  782SOL     OW 2344   2.597   0.179   0.920 -0.3564 -0.5333  0.0333
  782SOL    HW1 2345   2.510   0.187   0.865  2.4076 -0.7823 -0.5812
  782SOL    HW2 2346   2.593   0.221   1.019 -1.7632 -0.6321  1.4197
  783SOL     OW 2347   2.866   0.711   2.536 -0.0433 -0.2270 -0.3584
  783SOL    HW1 2348   2.834   0.704   2.632  1.8158 -0.5466 -3.8956
  783SOL    HW2 2349   2.794   0.672   2.474 -0.9808  0.0987  2.5255
  784SOL     OW 2350   1.394   2.199   0.077 -0.1301  0.3341 -0.2557
  784SOL    HW1 2351   1.484   2.216   0.132  0.5683  0.0188  0.6596
  784SOL    HW2 2352   1.409   2.217  -0.026  0.0605  0.8026 -1.1495
  785SOL     OW 2353   2.158   0.384   3.079  0.4247 -0.1109 -0.4686
  785SOL    HW1 2354   2.067   0.383   3.124  0.4033 -2.2113 -0.7631
  785SOL    HW2 2355   2.170   0.480   3.034  0.3426 -0.4732  0.0400
  786SOL     OW 2356   2.005   2.197   2.232 -0.2880 -0.1143 -0.3172
  786SOL    HW1 2357   2.011   2.089   2.242  2.2305 -0.1968 -0.2592
  786SOL    HW2 2358   2.094   2.233   2.196  1.1306 -0.2842  0.2120
  787SOL     OW 2359   1.430   0.620   0.927 -0.4964 -0.4141 -0.0329
  787SOL    HW1 2360   1.336   0.660   0.955 -2.5178  1.7823 -1.7823
  787SOL    HW2 2361   1.437   0.599   0.825  0.6261  0.3410 -0.4312
  788SOL     OW 2362   1.236   0.398   3.057 -0.6492  0.9446 -0.2007
  788SOL    HW1 2363   1.138   0.401   3.030  1.1367 -0.6690 -1.2977
  788SOL    HW2 2364   1.274   0.478   3.118  1.8231 -1.4500 -0.0048
  789SOL     OW 2365   2.588   0.016   1.802  0.0548 -0.1019 -0.1731
  789SOL    HW1 2366   2.504   0.067   1.806  0.1037 -1.4733 -1.0310
  789SOL    HW2 2367   2.570  -0.090   1.794 -0.4385  2.2467  0.9763
  790SOL     OW 2368   2.577   2.717   0.835  0.2523  0.1875  0.5735
  790SOL    HW1 2369   2.641   2.796   0.812 -0.8850 -0.1319  0.0613
  790SOL    HW2 2370   2.623   2.657   0.913  3.9925  0.5224  2.5142
  791SOL     OW 2371   1.913   1.249   0.273 -0.3888  0.5112  0.1956
  791SOL    HW1 2372   1.830   1.197   0.306  2.4205  0.4760  0.1872
  791SOL    HW2 2373   2.001   1.195   0.254 -0.1299  1.5650 -0.2150
  792SOL     OW 2374   0.441   1.986   2.130  0.4603  0.2324  0.0556
  792SOL    HW1 2375   0.487   2.075   2.147 -1.1045 -0.4866 -2.9490
  792SOL    HW2 2376   0.394   1.961   2.221  3.6147  0.2205  2.6031
  793SOL     OW 2377   2.081   1.578   2.085  0.6464 -0.5260 -0.7353
  793SOL    HW1 2378   2.158   1.635   2.052 -2.8372  0.6392 -0.2785
  793SOL    HW2 2379   2.064   1.494   2.023  0.1560  0.9012 -0.3265
  794SOL     OW 2380   0.450   1.354   2.476  0.4953 -0.0912  0.1355
  794SOL    HW1 2381   0.440   1.276   2.409  1.4441 -0.7234  0.4169
  794SOL    HW2 2382   0.420   1.445   2.442  1.1790 -0.9967 -0.9472
  795SOL     OW 2383   2.425   2.329   1.720  0.8354  0.7797  0.5380
  795SOL    HW1 2384   2.455   2.360   1.815  0.3820  1.6492  2.2960
  795SOL    HW2 2385   2.399   2.231   1.715  0.4877 -0.2805  3.1458
  796SOL     OW 2386   0.006   1.097   2.686  0.0955 -0.1259  0.8285
  796SOL    HW1 2387  -0.093   1.119   2.694  1.9380 -0.2221 -3.4082
  796SOL    HW2 2388   0.056   1.086   2.775  0.2806  1.8943 -0.1840
  797SOL     OW 2389   0.746   0.619   1.343 -0.1694  0.3568  0.1526
  797SOL    HW1 2390   0.806   0.674   1.410 -3.7030  1.7981  1.1247
  797SOL    HW2 2391   0.679   0.683   1.300  0.2429 -0.9575  1.0396
  798SOL     OW 2392   1.335   0.422   1.100 -0.0484  0.0102 -0.3311
  798SOL    HW1 2393   1.389   0.429   1.184 -2.0505 -1.0938 -2.0964
  798SOL    HW2 2394   1.359   0.494   1.025  0.0309 -0.2358 -3.3080
  799SOL     OW 2395   1.948   2.612   1.056 -0.1277 -0.2355 -0.2797
  799SOL    HW1 2396   1.918   2.514   1.062  1.1718 -2.3388 -0.1206
  799SOL    HW2 2397   1.874   2.681   1.019  0.2560  2.9462 -0.3803
  800SOL     OW 2398   2.940   0.807   1.874 -0.8338  0.6623 -0.5399
  800SOL    HW1 2399   2.955   0.899   1.922  0.4794  1.6813 -1.5031
  800SOL    HW2 2400   2.870   0.753   1.927 -1.4132  0.1136 -0.2691
  801SOL     OW 2401   1.992   2.200   0.033  0.3018 -0.0065 -0.0573
  801SOL    HW1 2402   1.939   2.168  -0.050  3.2894 -0.2607  2.1040
  801SOL    HW2 2403   2.079   2.139   0.038  1.5250 -1.8955  0.7988
  802SOL     OW 2404   0.613   0.820   2.586  0.4673  0.0322 -0.2417
  802SOL    HW1 2405   0.686   0.778   2.523  2.1776  4.6757 -0.5883
  802SOL    HW2 2406   0.533   0.854   2.534  1.2802 -0.3969  1.2096
  803SOL     OW 2407   0.978   0.092   0.837  0.3329  0.1792  0.8574
  803SOL    HW1 2408   1.047   0.145   0.895  0.4219  1.8940 -0.0482
  803SOL    HW2 2409   0.917   0.152   0.783  2.7776  0.6654  1.1676
  804SOL     OW 2410   0.314   3.064   2.191 -0.0223 -0.3240  0.6935
  804SOL    HW1 2411   0.317   3.169   2.191 -2.2758 -1.1819  0.4142
  804SOL    HW2 2412   0.270   3.028   2.102  1.3643 -0.7408  1.9266
  805SOL     OW 2413   2.345   0.405   0.364  0.4090 -0.0077 -0.2076
  805SOL    HW1 2414   2.415   0.389   0.433 -0.6417 -0.4850 -1.8009
  805SOL    HW2 2415   2.358   0.355   0.275 -0.1254  0.2416 -0.4514
  806SOL     OW 2416   0.705   2.446   1.790  0.8666  0.3368  0.1152
  806SOL    HW1 2417   0.686   2.530   1.845  1.2252  0.1965 -1.7213
  806SOL    HW2 2418   0.802   2.448   1.749 -0.3074 -2.5134  0.9445
  807SOL     OW 2419   2.502   0.836   0.411 -0.9280  0.3376  0.5261
  807SOL    HW1 2420   2.578   0.895   0.460  0.1877  3.0295  0.9481
  807SOL    HW2 2421   2.489   0.879   0.319  0.0896  2.5311 -0.2875
  808SOL     OW 2422   0.635   2.091   2.932  0.2013 -0.4582 -0.0306
  808SOL    HW1 2423   0.581   2.135   3.007 -0.5124 -0.6848  0.5856
  808SOL    HW2 2424   0.646   1.989   2.949 -0.0893 -2.1381 -0.2748
  809SOL     OW 2425   2.585   1.982   1.881 -0.1050  0.0940 -0.5328
  809SOL    HW1 2426   2.679   2.026   1.859 -1.2752  1.2029  1.0989
  809SOL    HW2 2427   2.546   1.940   1.795 -0.4690 -1.9070  0.3163
  810SOL     OW 2428   2.206   1.103   0.526  0.3100  0.0994 -0.7793
  810SOL    HW1 2429   2.187   1.014   0.574  2.2920 -1.4590  1.9008
  810SOL    HW2 2430   2.173   1.185   0.581 -0.9208  3.2218 -0.5457
  811SOL     OW 2431   1.380   2.510   1.204  0.2352 -0.0690 -0.4486
  811SOL    HW1 2432   1.353   2.417   1.232  2.6121  1.9454 -0.3712
  811SOL    HW2 2433   1.330   2.581   1.259 -0.6454 -1.3360  0.7773
  812SOL     OW 2434   1.420   0.734   1.974  0.0870 -0.3155  0.1171
  812SOL    HW1 2435   1.420   0.783   2.064 -2.5421  0.1228 -0.2145
  812SOL    HW2 2436   1.356   0.783   1.908  0.2334  0.4393  1.8691
  813SOL     OW 2437   1.663   2.063   2.481 -0.1071 -0.1166 -0.3606
  813SOL    HW1 2438   1.690   1.965   2.512 -0.0635 -2.6041  0.3944
  813SOL    HW2 2439   1.632   2.065   2.384  0.6408 -0.0215 -0.6957
  814SOL     OW 2440   2.931   1.580   2.837  0.1258  0.6224  0.2860
  814SOL    HW1 2441   2.989   1.553   2.918  0.8216 -0.8486  0.5899
  814SOL    HW2 2442   2.973   1.654   2.785 -0.3025 -0.3636  1.9645
  815SOL     OW 2443   2.187   2.948   2.773 -0.2800  0.3189  0.1724
  815SOL    HW1 2444   2.151   2.874   2.830 -0.1615  1.6451  0.3326
  815SOL    HW2 2445   2.264   3.000   2.818  1.2073  1.6394  2.8281
  816SOL     OW 2446   1.600   0.341   1.673 -0.4131  0.5861  0.3359
  816SOL    HW1 2447   1.604   0.239   1.643  2.4310 -0.9446  0.2545
  816SOL    HW2 2448   1.528   0.365   1.741 -0.2584  1.1154  0.9471
  817SOL     OW 2449   0.373   1.161   2.632  0.1146  0.0771  0.1729
  817SOL    HW1 2450   0.271   1.165   2.632 -1.6603  1.5670  0.2506
  817SOL    HW2 2451   0.410   1.242   2.583 -1.7699  0.1391 -0.9638
  818SOL     OW 2452   1.965   0.905   0.397  0.1781 -1.2695 -0.2767
  818SOL    HW1 2453   2.063   0.886   0.426 -1.9728 -0.4979 -0.2277
  818SOL    HW2 2454   1.909   0.969   0.461 -1.2295  0.3147  0.9110
  819SOL     OW 2455   2.761   2.951   3.027  0.4200  0.4306  0.1389
  819SOL    HW1 2456   2.857   2.909   3.025  0.2474 -1.5839  2.8073
  819SOL    HW2 2457   2.690   2.898   2.969  0.7022 -1.4251  2.8471
  820SOL     OW 2458   1.209   1.044   0.563 -0.0350 -0.1466 -0.3040
  820SOL    HW1 2459   1.222   1.144   0.582  1.7452 -3.5978 -0.5523
  820SOL    HW2 2460   1.210   0.987   0.647 -0.4132 -0.7566  0.6108
  821SOL     OW 2461   0.034   1.296   0.685  0.2282 -0.0910 -0.0181
  821SOL    HW1 2462  -0.011   1.311   0.782  1.5487  1.4226  0.0474
  821SOL    HW2 2463   0.088   1.379   0.648  1.9359  0.9994  2.9194
  822SOL     OW 2464   2.601   1.780   2.455 -0.0712  0.1115  0.2413
  822SOL    HW1 2465   2.598   1.859   2.520  2.2988 -0.3054  0.1082
  822SOL    HW2 2466   2.518   1.778   2.395 -0.8606  0.8466  0.2290
  823SOL     OW 2467   2.008   0.810   1.126 -0.3933  0.4526  0.1884
  823SOL    HW1 2468   1.979   0.823   1.223  2.3338  1.2303  1.5104
  823SOL    HW2 2469   1.940   0.852   1.053  0.2190  0.5139  0.8755
  824SOL     OW 2470   0.181   2.004   2.810 -0.0485  0.2397 -0.3654
  824SOL    HW1 2471   0.165   1.940   2.891 -1.8734  0.3425  1.8063
  824SOL    HW2 2472   0.243   1.971   2.734 -0.7320  1.9507 -0.2883
  825SOL     OW 2473   1.294   1.040   0.296  0.0710 -0.0287  0.0830
  825SOL    HW1 2474   1.254   1.134   0.267  3.6158 -0.4650 -1.5933
  825SOL    HW2 2475   1.276   1.021   0.393 -1.0726  2.0427 -0.0582
  826SOL     OW 2476   1.957   0.653   1.548  0.3243  0.4092  0.0540
  826SOL    HW1 2477   2.025   0.591   1.596  1.0520 -0.2835  1.8543
  826SOL    HW2 2478   1.868   0.605   1.514 -0.9748  0.7702 -1.1834
  827SOL     OW 2479   0.740   1.202   0.281 -0.5554  0.0529 -0.3185
  827SOL    HW1 2480   0.829   1.175   0.233  2.0274  0.2695  0.6827
  827SOL    HW2 2481   0.677   1.118   0.306 -1.3281 -2.6325  2.3348
  828SOL     OW 2482   2.630   0.133   1.531  0.1369 -0.7026 -0.3922
  828SOL    HW1 2483   2.535   0.148   1.483  0.5101 -2.0573 -0.1805
  828SOL    HW2 2484   2.626   0.096   1.629  1.9285 -3.1505  0.8728
  829SOL     OW 2485   2.897   2.441   2.906  0.3533 -0.0351 -0.7438
  829SOL    HW1 2486   2.808   2.390   2.930  0.1499  1.5607  0.8734
  829SOL    HW2 2487   2.884   2.540   2.889 -1.3650 -1.2007 -0.1063
  830SOL     OW 2488   2.808   0.981   3.048  0.3122  0.2995  0.1207
  830SOL    HW1 2489   2.875   1.058   3.072  0.2900  2.2035 -2.1250
  830SOL    HW2 2490   2.833   0.886   3.085 -0.2204 -1.7950 -0.6144
  831SOL     OW 2491   0.115   0.596   0.398  0.7399 -0.6128  0.1743
  831SOL    HW1 2492   0.074   0.549   0.482 -2.1626  1.3155  0.9884
  831SOL    HW2 2493   0.115   0.541   0.311  1.0964  0.4001 -0.1036
  832SOL     OW 2494   1.835   0.795   3.011  0.3500 -0.0626 -0.1864
  832SOL    HW1 2495   1.755   0.838   2.962  0.9419  0.4308  0.5857
  832SOL    HW2 2496   1.834   0.690   2.994 -0.9714 -1.0963 -2.0810
  833SOL     OW 2497   2.462   2.090   0.451 -0.4610 -0.5540  0.3968
  833SOL    HW1 2498   2.368   2.067   0.422 -0.0378  1.5312  1.3077
  833SOL    HW2 2499   2.535   2.013   0.455 -1.5134 -1.3186  1.8814
  834SOL     OW 2500   0.109   0.199   0.496  0.1335 -0.1588 -0.0064
  834SOL    HW1 2501   0.141   0.105   0.528  0.6347 -2.4573 -0.7278
  834SOL    HW2 2502   0.098   0.200   0.394 -0.8301 -1.8614  3.2686
  835SOL     OW 2503   2.353   1.500   1.160  0.3331 -0.4023 -0.2160
  835SOL    HW1 2504   2.379   1.597   1.184  3.3856  0.8634 -1.4404
  835SOL    HW2 2505   2.419   1.464   1.089 -0.6336  2.9790  0.7173
  836SOL     OW 2506   1.630   0.857   2.596  0.8808  0.0724 -0.6943
  836SOL    HW1 2507   1.540   0.808   2.602  0.7629  0.2047  0.7061
  836SOL    HW2 2508   1.654   0.884   2.500 -0.2252  2.4210 -0.9882
  837SOL     OW 2509   1.600   0.121   0.556  0.2844 -0.3880 -0.3009
  837SOL    HW1 2510   1.558   0.203   0.609  0.0326 -0.3602 -1.2913
  837SOL    HW2 2511   1.580   0.124   0.453 -0.4615 -1.3236 -0.9428
  838SOL     OW 2512   1.207   1.467   2.788 -0.1611 -0.6529 -0.3323
  838SOL    HW1 2513   1.170   1.477   2.886 -0.2912 -3.1469  0.0040
  838SOL    HW2 2514   1.152   1.395   2.736 -1.7320 -1.4622  0.4351
  839SOL     OW 2515   1.682   0.253   0.978 -0.2857 -0.0156  0.5000
  839SOL    HW1 2516   1.701   0.327   1.047  0.0272 -0.1881 -2.1211
  839SOL    HW2 2517   1.614   0.179   1.004 -1.4620  0.3805  0.1314
  840SOL     OW 2518   2.520   2.866   1.755 -0.0468  0.6355  0.1393
  840SOL    HW1 2519   2.494   2.827   1.661  1.0270 -2.3538 -3.2388
  840SOL    HW2 2520   2.538   2.795   1.828  1.3822  0.9168  0.8671
  841SOL     OW 2521   1.584   0.913   2.966  0.1844  0.2202  0.2089
  841SOL    HW1 2522   1.561   0.970   3.051 -2.1143  0.3408  1.5966
  841SOL    HW2 2523   1.582   0.974   2.878 -0.9271  0.7598 -1.1069
  842SOL     OW 2524   0.841   1.519   0.957  0.6159 -0.1388  0.3371
  842SOL    HW1 2525   0.799   1.607   0.990 -0.9261 -2.0389 -0.9266
  842SOL    HW2 2526   0.761   1.462   0.921  2.7096  1.1254  2.9018
  843SOL     OW 2527   0.150   0.129   1.488  0.0838 -0.0327  0.0186
  843SOL    HW1 2528   0.251   0.155   1.490  1.4617 -2.4061 -2.1087
  843SOL    HW2 2529   0.131   0.028   1.479  0.4924 -1.6214  0.2489
  844SOL     OW 2530   0.770   2.495   0.296 -0.0568 -0.1659 -0.3676
  844SOL    HW1 2531   0.709   2.471   0.380 -0.9649 -0.6199  0.4730
  844SOL    HW2 2532   0.704   2.503   0.213 -2.5086 -0.3847 -0.2068
  845SOL     OW 2533   1.633   2.851   1.370  0.2730  0.4217  0.1009
  845SOL    HW1 2534   1.707   2.892   1.428 -2.2069  2.4154  0.7904
  845SOL    HW2 2535   1.558   2.918   1.350  1.1606  1.5815 -0.1171
  846SOL     OW 2536   1.638   2.977   0.839  0.4795  0.0676  0.3328
  846SOL    HW1 2537   1.624   3.044   0.765 -0.7740 -1.2641  0.5352
  846SOL    HW2 2538   1.744   2.970   0.849  0.8699 -0.2110 -1.7126
  847SOL     OW 2539   2.017   1.650   0.239 -0.1291  0.4313 -0.2005
  847SOL    HW1 2540   1.999   1.598   0.329  1.2950  0.8819 -2.7704
  847SOL    HW2 2541   1.945   1.639   0.169  1.2703 -3.1050 -0.3881
  848SOL     OW 2542   2.516   0.797   2.666  0.4997 -0.1759  0.5525
  848SOL    HW1 2543   2.499   0.898   2.651 -0.8448 -0.5365  0.3514
  848SOL    HW2 2544   2.515   0.737   2.577 -1.5910  1.4051 -1.3550
  849SOL     OW 2545   2.498   0.870   2.342 -0.3299  0.6905  0.3274
  849SOL    HW1 2546   2.580   0.835   2.291  1.7573  0.2397  1.1790
  849SOL    HW2 2547   2.427   0.795   2.358  0.7021  0.1718  1.2470
  850SOL     OW 2548   1.509   0.102   1.343 -0.1653 -0.1691  0.1341
  850SOL    HW1 2549   1.495   0.081   1.244 -0.4479  2.9569  3.0254
  850SOL    HW2 2550   1.459   0.041   1.411 -0.4446 -1.0476 -1.5305
  851SOL     OW 2551   0.461   1.709   0.642 -0.3464 -0.5008  0.0867
  851SOL    HW1 2552   0.470   1.809   0.665  0.6923  1.0438  1.7370
  851SOL    HW2 2553   0.552   1.673   0.606  0.0064 -0.8716  1.2995
  852SOL     OW 2554   0.784   2.151   1.674 -0.0126 -0.0004 -0.3372
  852SOL    HW1 2555   0.804   2.236   1.622  1.4495 -0.2638 -2.1531
  852SOL    HW2 2556   0.713   2.155   1.751  1.5973 -1.3907 -1.2971
  853SOL     OW 2557   2.479   1.570   2.613 -0.2403 -0.3000 -0.1228
  853SOL    HW1 2558   2.475   1.480   2.562 -0.0571  1.7904 -1.1596
  853SOL    HW2 2559   2.543   1.641   2.569  2.9035 -0.1681 -1.9016
  854SOL     OW 2560   2.522   1.355   1.765 -0.0966  0.7843  0.2586
  854SOL    HW1 2561   2.533   1.351   1.661 -1.7531  2.2385  0.7026
  854SOL    HW2 2562   2.524   1.261   1.812  1.5832 -0.6490 -0.6413
  855SOL     OW 2563   2.113   2.354   0.979  0.2025  0.3874 -0.2966
  855SOL    HW1 2564   2.134   2.442   0.927  0.8434  1.3162  0.1761
  855SOL    HW2 2565   2.160   2.360   1.075  1.6260  0.9835  1.9411
  856SOL     OW 2566   1.344   1.476   0.872  0.3382 -0.2021  0.5061
  856SOL    HW1 2567   1.418   1.518   0.934  1.3458 -1.4247 -0.2381
  856SOL    HW2 2568   1.252   1.501   0.900  0.7353  0.6257 -1.9520
  857SOL     OW 2569   2.966   2.648   1.036  0.0676  0.1925 -0.1186
  857SOL    HW1 2570   2.899   2.584   1.083 -0.3951  1.3844  0.0826
  857SOL    HW2 2571   3.022   2.602   0.965  0.5355 -2.5953 -0.8585
  858SOL     OW 2572   2.303   2.081   1.714  0.2740  0.4855 -0.1340
  858SOL    HW1 2573   2.211   2.086   1.670  3.0514 -0.1959 -0.9542
  858SOL    HW2 2574   2.375   2.043   1.649 -0.3306  0.1792 -2.5496
  859SOL     OW 2575   2.432   0.554   1.029 -0.1507  0.0987  0.1925
  859SOL    HW1 2576   2.503   0.573   0.961  1.0635 -1.0148  0.5829
  859SOL    HW2 2577   2.455   0.471   1.085  0.7644 -0.4436 -0.0425
  860SOL     OW 2578   1.937   2.828   0.471  0.1786  0.1240  0.3394
  860SOL    HW1 2579   1.921   2.787   0.373  0.3380 -3.3206 -2.5361
  860SOL    HW2 2580   2.004   2.906   0.465 -0.7889 -2.1267  4.6553
  861SOL     OW 2581   1.068   2.553   2.819  0.2870  0.6223 -0.3074
  861SOL    HW1 2582   1.145   2.605   2.776  1.5682 -0.3511  1.4680
  861SOL    HW2 2583   1.092   2.542   2.917 -0.8271 -0.4737 -0.2755
  862SOL     OW 2584   2.844   2.510   1.593 -0.0619 -0.1851  0.2526
  862SOL    HW1 2585   2.900   2.577   1.651  1.8497 -0.9980  1.8626
  862SOL    HW2 2586   2.778   2.556   1.521  1.8998 -2.3868 -2.3688
  863SOL     OW 2587   1.843   2.686   0.185  0.2375  0.0511  0.2000
  863SOL    HW1 2588   1.888   2.596   0.164 -2.6261 -1.5272  2.0976
  863SOL    HW2 2589   1.739   2.668   0.204  0.3839  0.1712  1.1524
  864SOL     OW 2590   1.879   1.150   2.872  0.1156 -0.3603  0.0857
  864SOL    HW1 2591   1.933   1.087   2.811 -1.0324 -0.4585  1.3203
  864SOL    HW2 2592   1.933   1.179   2.952 -2.0964 -0.9104  0.2660
  865SOL     OW 2593   2.213   1.829   0.628  0.1534  0.1743  1.0388
  865SOL    HW1 2594   2.262   1.822   0.717 -3.0054  1.0766  0.2105
  865SOL    HW2 2595   2.115   1.803   0.633  1.1761 -1.3377 -1.8197
  866SOL     OW 2596   2.949   2.932   0.976  0.5984 -0.2517  0.3426
  866SOL    HW1 2597   3.025   2.949   0.902 -2.4087  0.5840 -1.5949
  866SOL    HW2 2598   2.937   2.833   0.998 -0.7554 -0.2198  0.0383
  867SOL     OW 2599   0.329   1.399   0.936 -0.3295  0.2846 -0.0973
  867SOL    HW1 2600   0.303   1.309   0.887 -2.2528 -0.8377 -1.4301
  867SOL    HW2 2601   0.276   1.478   0.897 -1.1967 -1.0164  3.9828
  868SOL     OW 2602   0.751   1.888   2.025  0.2034  0.3539  0.0992
  868SOL    HW1 2603   0.722   1.861   2.120  3.1681  0.2688 -0.7961
  868SOL    HW2 2604   0.736   1.989   2.008  0.9503  2.2497  0.6474
  869SOL     OW 2605   2.529   1.935   1.594 -0.1811 -0.1201  0.2133
  869SOL    HW1 2606   2.621   1.979   1.579 -1.8444 -0.2541  0.1103
  869SOL    HW2 2607   2.517   1.838   1.558 -0.9151 -0.1634 -1.9593
  870SOL     OW 2608   2.310   2.649   1.286 -0.0943 -0.4038  0.4013
  870SOL    HW1 2609   2.292   2.544   1.265 -0.8856 -1.1277 -0.1702
  870SOL    HW2 2610   2.245   2.683   1.358  2.3050 -0.0538 -2.5067
  871SOL     OW 2611   2.982   2.104   0.580  0.3220 -0.5797 -0.0186
  871SOL    HW1 2612   2.933   2.196   0.593 -0.1256  0.7723 -1.2561
  871SOL    HW2 2613   2.936   2.057   0.500  1.8270  3.5364 -0.2854
  872SOL     OW 2614   2.125   0.478   1.678  0.0331  0.1951  0.5081
  872SOL    HW1 2615   2.064   0.455   1.762 -1.1203 -0.7970  1.6873
  872SOL    HW2 2616   2.219   0.433   1.690  0.3600 -1.2004 -1.7141
  873SOL     OW 2617   1.733   2.064   3.022 -0.1244  0.1726 -0.6427
  873SOL    HW1 2618   1.741   2.151   3.075 -0.5771  0.0400 -1.2607
  873SOL    HW2 2619   1.663   2.074   2.949  1.7355 -0.5169 -0.6931
  874SOL     OW 2620   0.652   2.480   0.799 -0.0976 -0.1803 -0.2437
  874SOL    HW1 2621   0.645   2.586   0.823  0.2482 -1.0537  0.6414
  874SOL    HW2 2622   0.744   2.442   0.805 -1.0291  0.6137 -1.3821
  875SOL     OW 2623   2.278   1.493   1.439  0.5799 -0.6637  0.0733
  875SOL    HW1 2624   2.350   1.522   1.504 -2.1423 -1.8990 -1.1096
  875SOL    HW2 2625   2.305   1.491   1.336  1.5668  1.3332 -0.7219
  876SOL     OW 2626   0.089   2.237   2.707 -0.0670 -0.0845 -0.8321
  876SOL    HW1 2627   0.115   2.151   2.748 -1.2450 -1.0812 -0.4938
  876SOL    HW2 2628   0.138   2.322   2.739  1.7148 -0.0290 -2.0555
  877SOL     OW 2629   2.877   2.694   0.549 -0.2271 -0.3353  0.3338
  877SOL    HW1 2630   2.856   2.789   0.587 -1.7293  2.0206  2.7023
  877SOL    HW2 2631   2.918   2.628   0.619  0.6526  0.3066 -1.6279
  878SOL     OW 2632   2.817   1.581   2.184  0.2923  0.6397  0.0030
  878SOL    HW1 2633   2.919   1.581   2.202  1.6624 -0.0871 -0.0119
  878SOL    HW2 2634   2.756   1.634   2.249 -0.8711  1.6194 -1.5855
  879SOL     OW 2635   2.366   0.036   1.148 -0.1806 -0.2999 -0.2794
  879SOL    HW1 2636   2.434  -0.045   1.149  0.6684  1.2560  0.1283
  879SOL    HW2 2637   2.288   0.016   1.081 -0.8318  0.3344 -0.1149
  880SOL     OW 2638   0.674   0.487   2.238  0.1870  0.0611 -0.3084
  880SOL    HW1 2639   0.595   0.435   2.284  3.0090  0.8784  0.9641
  880SOL    HW2 2640   0.723   0.425   2.167 -1.0285  0.3518 -0.3867
  881SOL     OW 2641   0.876   0.077   0.492 -0.3837  0.4654  0.3467
  881SOL    HW1 2642   0.917  -0.016   0.513 -2.6895 -0.6981 -0.6222
  881SOL    HW2 2643   0.788   0.062   0.443 -0.9066 -2.8386 -1.9081
  882SOL     OW 2644   2.716   1.685   1.641 -0.3607 -0.6352 -0.6318
  882SOL    HW1 2645   2.815   1.695   1.609 -0.4652 -0.7777 -2.6519
  882SOL    HW2 2646   2.704   1.670   1.740 -1.2349  0.2148 -2.8929
  883SOL     OW 2647   0.865   0.606   0.968 -0.2825 -0.3774 -0.3889
  883SOL    HW1 2648   0.904   0.701   0.990 -1.0079 -1.5190 -0.0705
  883SOL    HW2 2649   0.881   0.539   1.048  0.0739  0.0777  2.1687
  884SOL     OW 2650   1.184   1.784   1.144  0.4941  0.0139  0.0322
  884SOL    HW1 2651   1.158   1.696   1.095  1.7063  2.5592 -2.8306
  884SOL    HW2 2652   1.113   1.862   1.123 -5.1899  0.9736  0.2249
  885SOL     OW 2653   2.347   1.813   2.294 -0.0671  0.3194 -0.0082
  885SOL    HW1 2654   2.258   1.766   2.322  0.5525  0.1911 -0.3918
  885SOL    HW2 2655   2.336   1.917   2.312  0.0058 -3.3063 -0.1583
  886SOL     OW 2656   2.587   0.443   1.814  0.1434  0.8089  0.0765
  886SOL    HW1 2657   2.625   0.362   1.865 -1.4508 -1.3392 -1.4657
  886SOL    HW2 2658   2.648   0.527   1.823  1.1345  1.4292 -0.8648
  887SOL     OW 2659   0.123   2.025   1.248  0.6207  0.3133 -0.4479
  887SOL    HW1 2660   0.033   1.984   1.211 -0.9234  3.2582  1.0326
  887SOL    HW2 2661   0.128   2.127   1.221  1.8744 -1.5302  0.6381
  888SOL     OW 2662   0.553   1.333   1.564 -0.1716 -0.2183 -0.1466
  888SOL    HW1 2663   0.588   1.351   1.467 -0.5225  1.9500 -0.9875
  888SOL    HW2 2664   0.498   1.245   1.570 -3.9280 -1.5014 -0.8716
  889SOL     OW 2665   0.827   2.548   2.187  0.2352  0.4966  0.8011
  889SOL    HW1 2666   0.774   2.464   2.205  0.9685  0.1220 -0.6777
  889SOL    HW2 2667   0.871   2.533   2.094  0.8533 -2.6394  0.0656
  890SOL     OW 2668   2.380   2.465   0.211 -0.5352  0.4654  0.3654
  890SOL    HW1 2669   2.399   2.526   0.129 -0.9423  0.0175  0.3516
  890SOL    HW2 2670   2.327   2.513   0.289  0.0970  0.6255 -0.2842
  891SOL     OW 2671   2.609   1.644   0.767 -0.3775 -0.4295 -0.1544
  891SOL    HW1 2672   2.636   1.642   0.868  3.6572 -2.6940  0.0983
  891SOL    HW2 2673   2.515   1.616   0.738  1.0045  0.4916 -0.3794
  892SOL     OW 2674   0.356   0.246   2.145 -0.8794  0.0539 -0.2336
  892SOL    HW1 2675   0.420   0.256   2.066  0.8057 -0.7281 -0.6938
  892SOL    HW2 2676   0.386   0.312   2.220  1.6258 -2.7665  0.7380
  893SOL     OW 2677   1.680   0.247   2.736  0.1745 -0.1307  0.4587
  893SOL    HW1 2678   1.756   0.320   2.744 -0.4462 -1.0774 -3.4538
  893SOL    HW2 2679   1.585   0.291   2.742  0.1842  1.9093 -1.0895
  894SOL     OW 2680   2.194   2.011   0.012 -0.0124  0.4186  0.1544
  894SOL    HW1 2681   2.181   1.957  -0.072  0.0303  0.4259 -2.4450
  894SOL    HW2 2682   2.207   1.954   0.101  0.6044  1.1862  0.3023
  895SOL     OW 2683   2.853   1.426   0.887  0.0769 -0.4413 -0.5761
  895SOL    HW1 2684   2.908   1.345   0.921  2.0713  1.7589  1.0415
  895SOL    HW2 2685   2.855   1.511   0.952  0.7452  1.3607 -0.7026
  896SOL     OW 2686   1.812   1.857   1.208 -0.3512  0.3648 -0.4534
  896SOL    HW1 2687   1.823   1.822   1.111  2.3294  2.4356 -0.9710
  896SOL    HW2 2688   1.733   1.925   1.212  0.8233  0.0648 -1.7691
  897SOL     OW 2689   0.280   0.560   0.007 -0.3789 -0.7301 -0.5666
  897SOL    HW1 2690   0.240   0.618  -0.075  0.7818  0.9684 -0.0651
  897SOL    HW2 2691   0.384   0.571  -0.003 -1.6936 -0.2997 -2.8960
  898SOL     OW 2692   0.580   2.863   1.105  0.2424 -0.1889  0.0097
  898SOL    HW1 2693   0.535   2.947   1.139  0.4550 -2.1887  0.9980
  898SOL    HW2 2694   0.639   2.819   1.178 -0.4694 -0.5587  0.3522
  899SOL     OW 2695   2.766   0.888   1.281 -0.0710  0.0072 -0.2713
  899SOL    HW1 2696   2.707   0.899   1.199 -2.1619  0.5582  1.0934
  899SOL    HW2 2697   2.852   0.942   1.269 -0.7665  0.9969  1.7864
  900SOL     OW 2698   1.020   2.568   2.369 -1.0604 -0.8221  0.1865
  900SOL    HW1 2699   0.941   2.567   2.305 -1.1955  1.6873  1.1109
  900SOL    HW2 2700   0.994   2.542   2.470 -1.7878  0.4715  0.9186
  901SOL     OW 2701   1.895   2.351   1.369 -0.0722  0.1240  0.3850
  901SOL    HW1 2702   1.877   2.327   1.269  2.6388  0.0864  1.4064
  901SOL    HW2 2703   1.995   2.354   1.390 -2.6578 -0.3260  0.8173
  902SOL     OW 2704   2.516   1.666   1.446 -0.0862  0.0142  0.1762
  902SOL    HW1 2705   2.588   1.667   1.523  0.5794  1.9499  0.6147
  902SOL    HW2 2706   2.553   1.614   1.360  1.4255 -0.0608 -2.7935
  903SOL     OW 2707   0.257   2.480   1.965  0.2463  0.2231 -0.2519
  903SOL    HW1 2708   0.170   2.441   1.926  1.6632 -3.2047 -2.6250
  903SOL    HW2 2709   0.298   2.545   1.891  2.2101  0.6808  1.2644
  904SOL     OW 2710   2.075   0.725   2.461  0.1208 -0.7509 -0.5139
  904SOL    HW1 2711   2.007   0.712   2.539 -0.7410 -0.3346  1.0679
  904SOL    HW2 2712   2.029   0.729   2.370  1.5260 -2.2767  1.3391
  905SOL     OW 2713   2.817   0.065   2.572 -0.1922 -0.1521  0.3926
  905SOL    HW1 2714   2.865  -0.026   2.563 -1.8685 -0.4395 -0.2551
  905SOL    HW2 2715   2.870   0.151   2.539  0.4814  1.0133 -1.0703
  906SOL     OW 2716   0.138   1.773   1.862 -0.3621  0.6162 -0.3429
  906SOL    HW1 2717   0.093   1.799   1.771  1.5918  1.5609 -0.8612
  906SOL    HW2 2718   0.243   1.789   1.851  0.8415 -2.8142 -0.9207
  907SOL     OW 2719   0.135   2.427   0.994  0.2770  0.6960  0.0776
  907SOL    HW1 2720   0.226   2.387   0.981  1.0143  1.5539 -2.4827
  907SOL    HW2 2721   0.061   2.357   1.003 -1.3417 -0.0004  0.5702
  908SOL     OW 2722   2.681   2.945   0.382 -0.1508  0.1435  0.2004
  908SOL    HW1 2723   2.655   3.000   0.294 -1.5236 -0.4629 -1.2736
  908SOL    HW2 2724   2.766   2.894   0.369 -2.3842  0.0527  2.6095
  909SOL     OW 2725   0.769   1.027   2.690  0.3430 -0.7445  0.5589
  909SOL    HW1 2726   0.705   0.955   2.651 -0.5166  0.5470 -2.0533
  909SOL    HW2 2727   0.847   1.051   2.628  0.0046 -0.3414  1.5312
  910SOL     OW 2728   1.743   1.835   2.144  0.0269  0.2617  0.2192
  910SOL    HW1 2729   1.800   1.886   2.075  2.4968 -1.3619  1.0949
  910SOL    HW2 2730   1.690   1.896   2.200 -0.9350 -0.5589 -1.4653
  911SOL     OW 2731   1.867   2.924   1.567  0.4000 -0.2516  0.4644
  911SOL    HW1 2732   1.958   2.903   1.517  1.3671  0.9731  2.9310
  911SOL    HW2 2733   1.856   2.869   1.656  0.0238  0.2803  1.7022
  912SOL     OW 2734   2.899   0.989   0.739  0.2020 -0.2316  0.1516
  912SOL    HW1 2735   2.906   0.957   0.840 -0.2955  1.4346  0.1856
  912SOL    HW2 2736   2.850   1.083   0.724  0.7725  1.0197 -3.3327
  913SOL     OW 2737   2.545   1.290   1.503  0.0729  0.2945  0.6687
  913SOL    HW1 2738   2.577   1.190   1.488 -0.9604 -2.2180  0.1317
  913SOL    HW2 2739   2.562   1.351   1.417 -1.1135  0.8483  1.3854
  914SOL     OW 2740   2.886   0.563   1.227 -0.7842  0.3203 -0.0881
  914SOL    HW1 2741   2.938   0.478   1.219 -1.6230 -0.9747  1.7317
  914SOL    HW2 2742   2.830   0.569   1.315 -2.1456 -3.9658 -0.0830
  915SOL     OW 2743   1.231   0.773   1.068  0.1924  0.0871 -0.4574
  915SOL    HW1 2744   1.305   0.803   1.140  0.5317  0.1597  1.8427
  915SOL    HW2 2745   1.136   0.807   1.100 -1.3638  1.7754 -1.5463
  916SOL     OW 2746   0.596   0.014   0.670  0.7315  0.2000 -0.3070
  916SOL    HW1 2747   0.628   0.103   0.722  1.5624  0.2327  0.0767
  916SOL    HW2 2748   0.606   0.023   0.566 -0.6560 -0.4633 -1.2303
  917SOL     OW 2749   2.834   2.614   1.961 -0.5066 -0.1293  0.1745
  917SOL    HW1 2750   2.736   2.619   1.928  1.0895  0.5435  1.9907
  917SOL    HW2 2751   2.880   2.709   1.969 -3.1272  1.4729  1.4371
  918SOL     OW 2752   1.050   2.223   2.968  0.3603  0.3120 -0.0418
  918SOL    HW1 2753   1.033   2.218   3.070  1.5235 -1.0228 -0.3890
  918SOL    HW2 2754   1.123   2.156   2.941  1.3548  1.8193  2.3033
  919SOL     OW 2755   0.867   1.658   2.819  0.2963 -0.3584  0.4938
  919SOL    HW1 2756   0.929   1.717   2.758  0.0689  2.3974 -0.8915
  919SOL    HW2 2757   0.814   1.579   2.767  0.0197 -2.0353  0.3037
  920SOL     OW 2758   1.238   1.885   2.473  0.0271  0.9052  0.7164
  920SOL    HW1 2759   1.299   1.878   2.392 -1.0537  1.4524 -1.6669
  920SOL    HW2 2760   1.230   1.797   2.527  1.5862  0.6081 -0.4597
  921SOL     OW 2761   1.085   0.024   2.620  0.6564  0.5242  0.2199
  921SOL    HW1 2762   1.080   0.036   2.516  0.2184 -1.3819 -0.3566
  921SOL    HW2 2763   1.023  -0.053   2.652  0.0462 -3.9691  1.8725
  922SOL     OW 2764   2.185   2.412   2.800  0.4250  0.2280  0.4698
  922SOL    HW1 2765   2.177   2.314   2.837  0.4393 -1.4050  0.6204
  922SOL    HW2 2766   2.094   2.447   2.756  1.5049  1.0089 -0.3447
  923SOL     OW 2767   1.229   2.668   0.252  0.3792  0.7682 -0.3453
  923SOL    HW1 2768   1.305   2.726   0.296  0.0890  0.1899  0.3488
  923SOL    HW2 2769   1.259   2.566   0.239 -0.0102  0.9057 -0.0673
  924SOL     OW 2770   2.898   1.516   0.093 -0.5131 -0.3916 -0.6274
  924SOL    HW1 2771   2.815   1.491   0.031 -1.2711  0.4245  0.1226
  924SOL    HW2 2772   2.989   1.516   0.041  0.2544  5.1706 -1.3350
  925SOL     OW 2773   0.048   2.974   1.509 -0.2192  0.6038 -0.4129
  925SOL    HW1 2774  -0.021   2.973   1.590  1.6907 -1.6866  3.0607
  925SOL    HW2 2775   0.029   2.901   1.439  3.1530  0.3471 -0.7889
  926SOL     OW 2776   1.336   2.820   1.240  0.3705 -0.1001  0.3439
  926SOL    HW1 2777   1.419   2.811   1.177 -0.2052 -0.3312  2.2490
  926SOL    HW2 2778   1.354   2.890   1.316  0.5450 -0.3735  0.2664
  927SOL     OW 2779   0.342   2.670   1.764 -0.4701  0.2254  0.5344
  927SOL    HW1 2780   0.327   2.610   1.677 -1.6828  0.0107 -0.8146
  927SOL    HW2 2781   0.310   2.767   1.756  1.3818 -0.9251  0.3830
  928SOL     OW 2782   1.540   2.047   2.230 -0.0407 -0.7379 -0.5067
  928SOL    HW1 2783   1.584   2.123   2.175  0.4564 -0.8180 -0.4188
  928SOL    HW2 2784   1.452   2.016   2.199  0.3840  2.6034 -0.4690
  929SOL     OW 2785   2.444   2.474   2.895 -0.4961  0.1319 -0.5650
  929SOL    HW1 2786   2.349   2.436   2.861 -0.8143  2.2181 -1.0657
  929SOL    HW2 2787   2.498   2.502   2.812 -0.3548 -0.1549 -1.6199
  930SOL     OW 2788   2.176   1.956   1.043  0.1751  0.0307  0.2449
  930SOL    HW1 2789   2.118   1.943   1.130  0.0374 -0.1571  0.7813
  930SOL    HW2 2790   2.239   2.035   1.051  0.5126  0.7274 -1.4458
  931SOL     OW 2791   0.564   1.708   2.715 -0.3011 -0.1645  0.1259
  931SOL    HW1 2792   0.599   1.748   2.805  0.2936  5.0578 -1.7889
  931SOL    HW2 2793   0.595   1.608   2.718  0.7492 -0.7281 -0.5916
  932SOL     OW 2794   0.418   0.092   2.965 -0.1487  0.3551 -0.2899
  932SOL    HW1 2795   0.513   0.120   2.955 -2.5417 -1.3150 -1.8787
  932SOL    HW2 2796   0.406  -0.004   3.009 -4.0212 -0.3113  2.5196
  933SOL     OW 2797   1.044   0.763   3.033 -0.2140 -0.5518 -0.3880
  933SOL    HW1 2798   1.033   0.798   3.131  1.9866 -0.4833 -1.0920
  933SOL    HW2 2799   1.011   0.836   2.966  1.1299 -1.8231 -0.0460
  934SOL     OW 2800   0.854   2.938   2.651  0.5639  1.0431 -0.1270
  934SOL    HW1 2801   0.821   2.857   2.593  2.8327 -0.2563 -0.3626
  934SOL    HW2 2802   0.909   2.912   2.740 -1.1909 -2.3191  2.0373
  935SOL     OW 2803   0.019   0.556   0.836 -0.1020 -0.0066 -0.1219
  935SOL    HW1 2804  -0.013   0.515   0.747 -0.5693 -1.7222 -0.9013
  935SOL    HW2 2805  -0.049   0.635   0.865  0.1834  1.2782 -0.5216
  936SOL     OW 2806   1.091   2.877   0.086  0.4634  0.1136  0.0827
  936SOL    HW1 2807   1.148   2.955   0.035  1.2298  0.7732 -0.5152
  936SOL    HW2 2808   1.146   2.807   0.140  0.6375  0.1122  0.3476
  937SOL     OW 2809   1.962   2.627   2.104  0.1813  0.6334  0.5820
  937SOL    HW1 2810   1.875   2.644   2.147  1.2757 -0.5254 -2.7523
  937SOL    HW2 2811   1.971   2.693   2.027 -0.1547 -0.1036 -1.9312
  938SOL     OW 2812   2.773   2.052   1.509 -0.0039 -0.0271 -0.4159
  938SOL    HW1 2813   2.743   2.136   1.559  0.2204 -0.6076 -2.8857
  938SOL    HW2 2814   2.870   2.029   1.544 -0.3278  2.6421 -1.0919
  939SOL     OW 2815   2.805   1.213   2.480  0.5489  0.1240 -0.1817
  939SOL    HW1 2816   2.896   1.214   2.425  2.8546 -0.6995 -0.3246
  939SOL    HW2 2817   2.802   1.156   2.571 -0.6254  4.1308  2.3609
  940SOL     OW 2818   1.002   0.472   2.738 -0.4329 -0.3363 -0.1855
  940SOL    HW1 2819   1.068   0.400   2.773  0.6967  0.8422  0.8921
  940SOL    HW2 2820   0.908   0.452   2.696 -0.1777  0.9008 -2.6735
  941SOL     OW 2821   0.075   2.831   2.275  0.3897 -0.0257 -0.5433
  941SOL    HW1 2822   0.120   2.738   2.240 -3.4255  2.0321 -0.9467
  941SOL    HW2 2823   0.134   2.877   2.352  0.2352  0.9636  1.3517
  942SOL     OW 2824   0.058   0.105   2.462 -0.0939  0.3744  0.2079
  942SOL    HW1 2825   0.091   0.164   2.539 -1.0052  0.7858  0.6670
  942SOL    HW2 2826   0.037   0.154   2.374 -0.9653  0.7685 -1.7064
  943SOL     OW 2827   2.105   1.699   2.388 -0.1730 -0.2978 -0.7227
  943SOL    HW1 2828   2.085   1.648   2.304 -0.6407 -2.8985 -0.4748
  943SOL    HW2 2829   2.096   1.638   2.475 -2.6923 -1.8466  0.9231
  944SOL     OW 2830   2.156   2.364   1.470 -0.5419  0.0024  0.2354
  944SOL    HW1 2831   2.193   2.455   1.499  0.1184 -1.1397 -0.9607
  944SOL    HW2 2832   2.114   2.301   1.540 -0.0605  2.4236  1.0595
  945SOL     OW 2833   0.721   1.495   0.308 -0.1361  0.1855  0.7906
  945SOL    HW1 2834   0.721   1.534   0.213  1.3848 -0.5405 -0.6609
  945SOL    HW2 2835   0.722   1.393   0.314  0.8909 -1.1055  1.4083
  946SOL     OW 2836   0.390   0.928   2.477  0.3032 -0.1634  0.2167
  946SOL    HW1 2837   0.294   0.909   2.434 -0.1481  0.7361  0.4090
  946SOL    HW2 2838   0.391   0.993   2.558  0.3561  2.9213 -0.1873
  947SOL     OW 2839   1.552   0.466   0.046 -0.2686  0.5033  0.2699
  947SOL    HW1 2840   1.503   0.537  -0.009  1.9016  0.1626 -0.6095
  947SOL    HW2 2841   1.511   0.365   0.043 -1.6507 -3.0378  1.5335
  948SOL     OW 2842   1.963   3.063   2.166  0.4086  0.2033  0.4536
  948SOL    HW1 2843   1.982   3.014   2.078  0.6514 -0.1042  3.2621
  948SOL    HW2 2844   1.957   2.996   2.250 -0.9217 -2.7381 -0.5055
  949SOL     OW 2845   0.583   2.485   0.542  0.5095 -0.0185  0.0555
  949SOL    HW1 2846   0.584   2.585   0.517 -1.0142 -2.1255  3.5474
  949SOL    HW2 2847   0.592   2.471   0.643 -0.1441  2.5576 -1.3021
  950SOL     OW 2848   0.199   2.146   3.055  0.1592 -0.5902  0.4859
  950SOL    HW1 2849   0.146   2.233   3.045 -0.3080 -1.3378  0.5057
  950SOL    HW2 2850   0.199   2.088   2.969  0.9294  0.1046 -1.1936
  951SOL     OW 2851   1.203   2.775   2.708  0.0372  0.3931 -1.1179
  951SOL    HW1 2852   1.195   2.800   2.609 -0.0142 -2.4050  0.5605
  951SOL    HW2 2853   1.135   2.821   2.774  0.0655  1.2594 -0.6984
  952SOL     OW 2854   0.044   1.688   0.455  0.5471 -0.3634 -0.3173
  952SOL    HW1 2855   0.092   1.777   0.476  1.8742  0.3213  1.0349
  952SOL    HW2 2856   0.104   1.616   0.504 -0.3080  3.5104  0.3864
  953SOL     OW 2857   2.469   1.772   0.257  0.3341  0.4454 -1.0323
  953SOL    HW1 2858   2.492   1.670   0.280 -0.0564 -2.6002  0.1526
  953SOL    HW2 2859   2.502   1.804   0.163 -0.6784 -0.4204  0.7796
  954SOL     OW 2860   2.174   0.541   0.953 -0.1120 -0.0751  0.4488
  954SOL    HW1 2861   2.172   0.592   0.862  0.2344 -0.5635 -1.6001
  954SOL    HW2 2862   2.271   0.530   0.989  0.1047  0.3207  0.8446
  955SOL     OW 2863   0.181   2.638   1.291 -0.4003  0.0181  0.4064
  955SOL    HW1 2864   0.084   2.674   1.295  1.5699 -1.0619 -2.4998
  955SOL    HW2 2865   0.235   2.683   1.215  0.5870 -0.9579 -1.9636
  956SOL     OW 2866   2.747   2.462   2.436  0.4242  0.1538 -0.4182
  956SOL    HW1 2867   2.752   2.368   2.403  1.8996  2.9995 -0.5214
  956SOL    HW2 2868   2.787   2.536   2.369 -0.5259  0.2925 -2.2144
  957SOL     OW 2869   1.578   2.069   2.790 -0.4626  0.2007 -0.0446
  957SOL    HW1 2870   1.556   1.965   2.794  2.4490 -1.0546  0.0210
  957SOL    HW2 2871   1.633   2.093   2.706  3.1904 -1.7208  1.0187
  958SOL     OW 2872   2.675   2.283   2.988  0.6070  0.0093  0.2510
  958SOL    HW1 2873   2.587   2.335   2.975  0.9596 -0.1157 -0.7228
  958SOL    HW2 2874   2.677   2.231   3.075  3.3050  2.6394 -0.7451
  959SOL     OW 2875   0.246   2.810   0.059 -0.5603  0.2441 -0.4448
  959SOL    HW1 2876   0.143   2.786   0.048 -1.8755  0.2371 -0.7747
  959SOL    HW2 2877   0.292   2.754   0.133 -2.0490  0.3117 -1.1156
  960SOL     OW 2878   1.957   0.416   1.917 -0.3960 -0.6466 -0.3440
  960SOL    HW1 2879   1.908   0.507   1.902 -0.5611  0.3483 -1.9353
  960SOL    HW2 2880   1.986   0.404   2.015  1.5898 -1.1154 -3.4626
  961SOL     OW 2881   2.582   1.812   1.031 -0.1033  0.2406 -0.2116
  961SOL    HW1 2882   2.548   1.901   0.984 -0.1386  0.4085  0.0453
  961SOL    HW2 2883   2.537   1.793   1.126  0.2622  2.9060  2.7140
  962SOL     OW 2884   1.277   0.887   0.057 -0.3975 -0.0234 -0.2566
  962SOL    HW1 2885   1.282   0.953  -0.025  0.9770  4.1470  0.5926
  962SOL    HW2 2886   1.277   0.942   0.144 -0.3214 -1.1574  0.4194
  963SOL     OW 2887   2.213   2.542   1.877 -0.1220  0.4307  0.4910
  963SOL    HW1 2888   2.188   2.451   1.919 -2.1392  0.6035 -1.5571
  963SOL    HW2 2889   2.223   2.615   1.948 -2.2398 -1.4098 -3.1100
  964SOL     OW 2890   2.381   0.380   1.652  0.5319  0.4262  0.1668
  964SOL    HW1 2891   2.461   0.426   1.698 -0.9847  0.2430 -0.9404
  964SOL    HW2 2892   2.405   0.358   1.555  1.6940  0.2955  1.5712
  965SOL     OW 2893   2.604   3.058   0.150 -0.4240 -0.0744  0.8147
  965SOL    HW1 2894   2.662   3.040   0.065 -1.8836 -1.0182 -0.3590
  965SOL    HW2 2895   2.505   3.076   0.123 -4.2917  0.1090 -2.8449
  966SOL     OW 2896   2.480   2.484   2.205 -0.4366  0.0581 -0.0387
  966SOL    HW1 2897   2.434   2.505   2.296 -0.9308 -1.5515  0.4568
  966SOL    HW2 2898   2.517   2.568   2.157  2.3025  0.8295 -0.0443
  967SOL     OW 2899   2.814   2.762   2.482 -0.0204 -0.1946 -0.7624
  967SOL    HW1 2900   2.823   2.704   2.397  1.3325 -1.0332 -0.4458
  967SOL    HW2 2901   2.875   2.847   2.476  2.2052  1.1516 -3.3189
  968SOL     OW 2902   1.947   1.038   2.614 -0.1544  0.9628  0.1567
  968SOL    HW1 2903   1.889   1.110   2.573  0.7622 -3.8343  0.6965
  968SOL    HW2 2904   1.974   0.963   2.555  0.0506  0.9425  0.2277
  969SOL     OW 2905   2.760   2.461   1.095 -0.2405 -0.3180 -0.0183
  969SOL    HW1 2906   2.722   2.437   1.002  1.7217  0.5248  0.4935
  969SOL    HW2 2907   2.796   2.376   1.146 -2.8931 -2.6187  0.8386
  970SOL     OW 2908   1.054   2.108   1.797  0.4532 -0.6811 -0.2168
  970SOL    HW1 2909   0.965   2.139   1.748 -0.5044  0.1871 -0.9768
  970SOL    HW2 2910   1.060   2.164   1.887 -2.2901  0.9991  0.4791
  971SOL     OW 2911   2.843   2.061   1.856 -0.3360  0.2333  0.0119
  971SOL    HW1 2912   2.862   2.155   1.892  2.6277  0.3274 -0.8663
  971SOL    HW2 2913   2.904   2.026   1.776  1.6470  0.0986 -1.9259
  972SOL     OW 2914   1.963   2.429   0.171 -0.2702 -0.8500 -0.3868
  972SOL    HW1 2915   1.983   2.367   0.090  1.1554  1.6412 -0.8954
  972SOL    HW2 2916   1.982   2.392   0.268 -1.7952  0.4351  0.0206
  973SOL     OW 2917   1.308   1.068   1.870  0.3853 -0.0700 -0.1227
  973SOL    HW1 2918   1.246   1.003   1.815 -0.5988  1.3635  0.9720
  973SOL    HW2 2919   1.274   1.167   1.869 -0.9071  0.7005 -1.5223
  974SOL     OW 2920   1.638   0.554   1.980 -0.1266  0.1227 -0.0204
  974SOL    HW1 2921   1.717   0.611   1.936  0.6007 -0.9673 -0.2284
  974SOL    HW2 2922   1.542   0.601   1.967 -0.7415 -1.3973  2.6080
  975SOL     OW 2923   2.341   3.067   0.034  0.0443 -0.5826  0.0508
  975SOL    HW1 2924   2.333   2.968   0.059  1.1572  2.4873  0.7908
  975SOL    HW2 2925   2.383   3.079  -0.063  0.7733 -0.9682  0.5614
  976SOL     OW 2926   1.920   2.837   2.318  0.3255  0.0497  0.1306
  976SOL    HW1 2927   1.816   2.831   2.294 -0.9516 -1.0305  0.0551
  976SOL    HW2 2928   1.935   2.807   2.415  0.0121 -2.7086 -0.0606
  977SOL     OW 2929   0.459   0.710   1.048  0.2014  0.1987 -0.5171
  977SOL    HW1 2930   0.390   0.715   0.970 -2.2354 -1.3385 -1.9059
  977SOL    HW2 2931   0.552   0.674   1.009  1.6459  0.1705  0.4883
   3.10000   3.10000   3.10000
