1000 SPC/Fw water molecules t=   0.74000 step= 740
 2931
    1SOL     OW    1   2.487   0.406   2.608  0.1952 -0.0556 -0.1334
    1SOL    HW1    2   2.492   0.303   2.590 -1.3873  0.2197 -1.2268
    1SOL    HW2    3   2.527   0.423   2.706  1.5808  0.4767 -1.5998
    2SOL     OW    4   2.756   3.037   1.410  0.3115  0.7097 -0.1800
    2SOL    HW1    5   2.802   3.079   1.322  0.8251 -0.7962  0.5108
    2SOL    HW2    6   2.699   3.107   1.459  0.1149  1.2542  0.2290
    3SOL     OW    7   2.732   2.619   0.349  0.4618  0.0674 -0.4269
    3SOL    HW1    8   2.713   2.516   0.346 -0.7976  0.8182 -0.8506
    3SOL    HW2    9   2.789   2.647   0.429 -0.9653  0.0719 -0.8237
    4SOL     OW   10   1.279   1.479   2.364 -0.3500  0.4632 -0.1350
    4SOL    HW1   11   1.195   1.537   2.347  1.9618 -1.9567 -0.5097
    4SOL    HW2   12   1.256   1.392   2.421 -0.6373  2.5783 -0.6629
    5SOL     OW   13   1.165   1.523   3.087 -0.7378 -0.1960  0.2013
    5SOL    HW1   14   1.229   1.609   3.097 -0.7307  2.4986 -1.4046
    5SOL    HW2   15   1.067   1.549   3.102  0.1349 -1.8362  1.4167
    6SOL     OW   16   0.084   1.888   2.949 -0.1003  0.1315 -0.0408
    6SOL    HW1   17   0.002   1.907   3.006  3.1737 -1.4332  0.2173
    6SOL    HW2   18   0.147   1.826   2.999 -1.6795 -0.1892  2.2446
    7SOL     OW   19   2.551   0.963   1.150  0.3143  0.0787  0.2883
    7SOL    HW1   20   2.492   0.897   1.207  1.3371  0.0921  2.3338
    7SOL    HW2   21   2.554   0.956   1.047  0.0514  0.8695  0.1467
    8SOL     OW   22   0.379   0.581   1.521 -0.3778  0.3105 -1.1360
    8SOL    HW1   23   0.470   0.552   1.564 -1.1264 -1.7642  0.9556
    8SOL    HW2   24   0.377   0.574   1.418 -0.2315  1.1880 -0.0384
    9SOL     OW   25   1.177   0.887   2.367  0.0476 -0.2520  0.7899
    9SOL    HW1   26   1.252   0.940   2.320  0.3617 -0.8743  2.6994
    9SOL    HW2   27   1.109   0.839   2.306 -0.2505 -2.0594  1.1512
   10SOL     OW   28   0.630   1.339   1.308  0.2844 -0.8633 -0.0093
   10SOL    HW1   29   0.536   1.338   1.257  1.1778  1.0465 -0.8907
   10SOL    HW2   30   0.689   1.416   1.280 -1.2528 -1.5886 -1.5824
   11SOL     OW   31   2.381   2.731   0.870  0.0683 -0.0766 -0.2363
   11SOL    HW1   32   2.330   2.748   0.962 -0.9336  2.4194  0.2819
   11SOL    HW2   33   2.486   2.727   0.889 -0.0342 -3.3975  0.8579
   12SOL     OW   34   1.471   0.890   0.363 -0.3018  0.1779 -0.0519
   12SOL    HW1   35   1.406   0.961   0.333  4.0844  2.9984 -0.4528
   12SOL    HW2   36   1.462   0.802   0.315  2.0866  1.3755 -1.0018
   13SOL     OW   37   2.469   0.669   1.791 -0.5072 -0.3965 -0.5845
   13SOL    HW1   38   2.388   0.650   1.856 -1.5330 -0.6016 -1.4816
   13SOL    HW2   39   2.451   0.654   1.692 -0.2254  0.3354  1.0519
   14SOL     OW   40   1.911   0.072   0.733 -0.3833 -0.1527 -0.0534
   14SOL    HW1   41   1.836   0.090   0.663 -3.4562 -2.9919  1.1807
   14SOL    HW2   42   1.883  -0.002   0.801  0.1564 -1.4889  1.5504
   15SOL     OW   43   1.977   2.053   2.732  0.3264  0.3914 -0.2129
   15SOL    HW1   44   1.929   2.138   2.768  1.9669 -0.6719  1.8359
   15SOL    HW2   45   1.913   1.988   2.685 -0.8746  3.2779 -0.2486
   16SOL     OW   46   1.597   1.703   2.956  0.2269 -0.0554  0.1739
   16SOL    HW1   47   1.615   1.601   2.971 -2.4769  0.8143 -2.5633
   16SOL    HW2   48   1.683   1.758   2.976  0.6204 -0.1285 -3.9925
   17SOL     OW   49   0.144   0.535   0.173  0.3878 -0.2715  0.0527
   17SOL    HW1   50   0.235   0.562   0.138  0.8460 -0.6096  1.0413
   17SOL    HW2   51   0.063   0.547   0.104 -0.2826  0.7375 -0.9794
   18SOL     OW   52   0.923   2.971   2.095  0.2891 -0.3708  0.0757
   18SOL    HW1   53   0.838   2.912   2.093 -0.3671 -2.0339 -0.0412
   18SOL    HW2   54   0.991   2.949   2.017 -2.6766 -0.7366  1.1605
   19SOL     OW   55   0.512   0.826   1.890  0.2830 -0.1042  0.0224
   19SOL    HW1   56   0.528   0.768   1.978 -0.6061 -0.9204 -0.3440
   19SOL    HW2   57   0.600   0.834   1.826  1.4139  4.8240 -1.9831
   20SOL     OW   58   0.218   2.734   0.811  0.2849 -0.9418  0.2927
   20SOL    HW1   59   0.145   2.802   0.777  0.9471  0.0083  0.4542
   20SOL    HW2   60   0.288   2.713   0.735 -1.8293 -0.5894 -1.4129
   21SOL     OW   61   2.766   0.212   2.091 -0.4009  0.3712  0.1146
   21SOL    HW1   62   2.697   0.156   2.031 -1.0917  0.0834 -0.5498
   21SOL    HW2   63   2.863   0.169   2.101  0.6919  1.5669 -1.2285
   22SOL     OW   64   2.370   0.220   0.067 -0.3687  0.3545  0.5194
   22SOL    HW1   65   2.367   0.119   0.046 -0.1102  0.0495  1.8705
   22SOL    HW2   66   2.278   0.268   0.086  1.7281 -0.8916 -1.7736
   23SOL     OW   67   2.762   0.653   0.630  0.1127 -0.1331 -0.0003
   23SOL    HW1   68   2.811   0.559   0.632  2.9999 -2.3948  2.9025
   23SOL    HW2   69   2.772   0.701   0.542 -0.4040 -1.4544 -1.2158
   24SOL     OW   70   0.158   1.896   0.379  0.1935  0.3281  0.3944
   24SOL    HW1   71   0.085   1.942   0.325  0.1234 -2.0210  0.1641
   24SOL    HW2   72   0.258   1.900   0.344 -0.0636  3.0521  0.0968
   25SOL     OW   73   2.211   0.541   0.316  0.0055  0.4095  0.1653
   25SOL    HW1   74   2.209   0.647   0.308 -0.1086 -1.6382  2.3954
   25SOL    HW2   75   2.301   0.489   0.334  1.1048 -0.6615  2.4710
   26SOL     OW   76   2.535   2.104   2.105 -0.0641 -0.1574  0.0975
   26SOL    HW1   77   2.575   2.168   2.174 -0.6624  1.5462 -1.5771
   26SOL    HW2   78   2.604   2.035   2.061 -0.0485  2.1049 -2.0689
   27SOL     OW   79   0.600   2.977   0.203  0.1224 -0.1420  0.4369
   27SOL    HW1   80   0.700   2.954   0.195  0.8855 -0.6758  2.1868
   27SOL    HW2   81   0.554   2.986   0.110 -1.1392 -0.2090  0.5098
   28SOL     OW   82   1.597   0.155   0.305  0.0627 -0.1262 -0.6495
   28SOL    HW1   83   1.637   0.143   0.210  1.1547  0.7504  0.0317
   28SOL    HW2   84   1.578   0.258   0.327 -2.5250  2.4195 -2.7859
   29SOL     OW   85   1.949   0.579   0.410 -0.0280  0.6633  0.5843
   29SOL    HW1   86   1.944   0.685   0.415 -0.8957  3.9338  0.0694
   29SOL    HW2   87   2.045   0.540   0.403 -2.1484 -0.5631 -1.7963
   30SOL     OW   88   0.209   1.999   0.902 -0.1321 -0.4923  0.1713
   30SOL    HW1   89   0.190   2.009   0.798 -1.3965  0.5355 -0.9985
   30SOL    HW2   90   0.144   2.064   0.958 -1.9847  3.3034  2.0099
   31SOL     OW   91   2.112   3.067   2.324  0.2787 -0.2149 -0.2072
   31SOL    HW1   92   2.074   3.086   2.420 -0.7277 -2.0617 -0.1271
   31SOL    HW2   93   2.042   3.021   2.267 -1.0406  2.5406  1.6907
   32SOL     OW   94   2.963   0.115   0.230 -0.0447 -0.5761 -0.7394
   32SOL    HW1   95   2.913   0.057   0.301  1.1679 -1.8708 -2.9910
   32SOL    HW2   96   3.030   0.186   0.274  1.3919  1.8158  0.5691
   33SOL     OW   97   0.944   0.309   0.612  0.2378 -0.6593  0.3013
   33SOL    HW1   98   0.928   0.220   0.559 -1.3227  0.6508  1.8408
   33SOL    HW2   99   1.041   0.340   0.615 -2.1277  1.0867 -1.3106
   34SOL     OW  100   0.316   2.811   1.094  0.2030 -0.6052  0.0209
   34SOL    HW1  101   0.284   2.746   1.021 -0.4184 -2.5069 -0.2076
   34SOL    HW2  102   0.422   2.826   1.083 -0.0880 -0.2160  1.9221
   35SOL     OW  103   0.019   0.177   1.854  0.5316 -0.4457  0.4073
   35SOL    HW1  104   0.062   0.083   1.859  0.3766  1.5972 -0.1659
   35SOL    HW2  105  -0.020   0.198   1.761  1.4017 -2.1117  1.1968
   36SOL     OW  106   1.960   1.152   1.774  0.3382  0.2206 -0.8641
   36SOL    HW1  107   2.024   1.147   1.691 -1.6723 -1.4977 -0.9253
   36SOL    HW2  108   1.992   1.225   1.850  0.1538  1.2332 -0.6029
   37SOL     OW  109   1.198   0.155   0.896  0.0883 -0.0209  0.4778
   37SOL    HW1  110   1.218   0.181   0.994  2.1504  1.4529  0.3242
   37SOL    HW2  111   1.275   0.100   0.851  1.5278 -0.9206 -1.2100
   38SOL     OW  112   1.104   2.816   2.449 -0.6285 -0.0734  0.5633
   38SOL    HW1  113   1.049   2.732   2.459  1.1414  2.0734 -1.6901
   38SOL    HW2  114   1.051   2.901   2.413 -2.6883  1.9534  0.4889
   39SOL     OW  115   2.311   1.411   3.031 -0.0155 -0.3351 -0.2859
   39SOL    HW1  116   2.352   1.327   2.989  2.6403 -0.4435 -1.7493
   39SOL    HW2  117   2.305   1.415   3.135 -1.4406 -2.4521  0.3488
   40SOL     OW  118   2.086   2.489   2.562  0.1879 -0.1489  0.1056
   40SOL    HW1  119   2.062   2.586   2.576  2.6892  0.2379 -1.0229
   40SOL    HW2  120   2.004   2.444   2.516 -0.4066  0.7444 -3.0984
   41SOL     OW  121   2.997   0.690   2.809 -0.0986  0.8349  0.2375
   41SOL    HW1  122   2.912   0.718   2.761 -0.2887 -2.3211 -0.3070
   41SOL    HW2  123   2.998   0.588   2.801 -0.0363 -1.8906  1.3075
   42SOL     OW  124   1.756   1.752   0.527 -0.2210 -0.0672 -0.2143
   42SOL    HW1  125   1.729   1.653   0.508 -1.7318  2.7879 -0.5422
   42SOL    HW2  126   1.776   1.802   0.440  0.0944  0.6525  1.8908
   43SOL     OW  127   0.477   1.691   1.086 -0.5311 -0.1376  0.2522
   43SOL    HW1  128   0.472   1.637   1.174  0.6902  2.3001 -2.2750
   43SOL    HW2  129   0.384   1.689   1.037 -0.6247 -1.2579 -0.9388
   44SOL     OW  130   1.839   2.490   3.062  0.0237  0.3388  0.3072
   44SOL    HW1  131   1.843   2.589   3.022  3.0884 -0.7052  0.8070
   44SOL    HW2  132   1.928   2.459   3.107 -0.7130 -0.6576 -5.2188
   45SOL     OW  133   0.391   1.951   2.586  0.3864 -0.1508 -0.0575
   45SOL    HW1  134   0.321   1.943   2.509  1.3336 -1.8927 -0.1196
   45SOL    HW2  135   0.454   1.873   2.607  1.1807 -1.3811  1.8599
   46SOL     OW  136   1.256   0.688   0.218 -0.0562  0.2905 -0.3190
   46SOL    HW1  137   1.239   0.748   0.131  0.2878  1.1280 -2.5015
   46SOL    HW2  138   1.183   0.700   0.290 -0.0951  0.6548  1.3804
   47SOL     OW  139   0.224   2.477   1.598  0.1464  0.1896 -0.6400
   47SOL    HW1  140   0.167   2.395   1.604 -0.6212  0.1824  2.2919
   47SOL    HW2  141   0.214   2.526   1.507  0.4253 -1.1880  0.5998
   48SOL     OW  142   2.614   0.627   0.125  0.6296  0.1982  0.1538
   48SOL    HW1  143   2.610   0.629   0.234  1.0927  0.7556 -0.0486
   48SOL    HW2  144   2.692   0.684   0.089  1.0608  2.1134  1.0665
   49SOL     OW  145   0.330   0.777   1.700 -0.5797  0.4317 -0.0593
   49SOL    HW1  146   0.405   0.780   1.774 -1.4280  0.5320 -0.6525
   49SOL    HW2  147   0.338   0.697   1.632  0.1957  0.9944  1.8092
   50SOL     OW  148   1.680   1.100   0.276  0.4336  0.0609 -0.0746
   50SOL    HW1  149   1.714   1.002   0.243  0.3479  0.7751 -1.8095
   50SOL    HW2  150   1.625   1.090   0.368 -0.4652 -1.3973  0.8994
   51SOL     OW  151   2.899   1.877   0.336  0.2373  0.6093 -0.5204
   51SOL    HW1  152   2.861   1.813   0.262 -0.3723 -2.5422 -1.7460
   51SOL    HW2  153   2.977   1.837   0.383 -0.7747  0.4579 -1.3375
   52SOL     OW  154   0.789   2.014   0.480  0.1635 -0.1079  0.0503
   52SOL    HW1  155   0.695   2.052   0.517 -2.2455 -0.9449  0.7505
   52SOL    HW2  156   0.825   1.943   0.551 -3.2939 -0.2231  0.2188
   53SOL     OW  157   0.184   0.424   1.597  0.4285 -0.1333  0.1807
   53SOL    HW1  158   0.263   0.474   1.543 -0.6462  1.8392  0.6550
   53SOL    HW2  159   0.089   0.458   1.570  1.4103  0.5125  0.8032
   54SOL     OW  160   1.780   0.473   3.060 -0.3187  0.2796 -0.0556
   54SOL    HW1  161   1.828   0.437   3.144  0.7393  2.1414  0.6248
   54SOL    HW2  162   1.675   0.463   3.070  0.0287  1.2380 -1.1521
   55SOL     OW  163   0.773   2.903   0.687  0.3759  0.0038 -0.0811
   55SOL    HW1  164   0.746   3.005   0.697  1.3273  0.2891 -2.3132
   55SOL    HW2  165   0.870   2.877   0.654  0.2862  0.5836 -1.5348
   56SOL     OW  166   0.461   1.604   0.032  0.5224  0.2638  0.4433
   56SOL    HW1  167   0.370   1.645   0.036  2.3227  0.2921 -0.0230
   56SOL    HW2  168   0.465   1.517  -0.030  0.8447 -1.7811 -2.5050
   57SOL     OW  169   1.753   2.526   2.556 -0.3907  0.0278 -0.3005
   57SOL    HW1  170   1.789   2.436   2.521 -2.2741  0.3905 -0.5539
   57SOL    HW2  171   1.647   2.517   2.571 -4.0962 -2.8712 -0.2537
   58SOL     OW  172   0.639   0.310   1.035 -0.0088  0.0002  0.1077
   58SOL    HW1  173   0.542   0.357   1.024 -1.9964 -4.5252 -0.2148
   58SOL    HW2  174   0.625   0.208   1.042  1.7365  0.4251  0.3481
   59SOL     OW  175   0.451   2.419   2.757  0.4024  0.0546 -0.6362
   59SOL    HW1  176   0.478   2.336   2.707  0.1479  3.5841 -1.6853
   59SOL    HW2  177   0.499   2.435   2.847  0.6401  0.9629  1.1938
   60SOL     OW  178   2.291   2.052   2.194  0.3205  0.2518  0.2770
   60SOL    HW1  179   2.383   2.066   2.144 -2.7456  0.9584 -0.5834
   60SOL    HW2  180   2.291   2.089   2.294 -0.0794 -0.5930 -2.9960
   61SOL     OW  181   1.330   0.633   0.483 -0.0092  0.3869  0.7770
   61SOL    HW1  182   1.260   0.686   0.537  0.4625 -2.3359  0.5674
   61SOL    HW2  183   1.329   0.654   0.384 -1.0743  0.2981  3.9535
   62SOL     OW  184   2.773   1.804   2.910  0.2198  0.4404 -0.3291
   62SOL    HW1  185   2.755   1.710   2.952  0.8534 -2.4843  1.0058
   62SOL    HW2  186   2.868   1.816   2.871 -0.3623  1.8440  2.7372
   63SOL     OW  187   0.624   0.913   0.172 -0.0116  0.3216 -0.0676
   63SOL    HW1  188   0.647   0.981   0.100 -1.4900 -1.3293  1.8266
   63SOL    HW2  189   0.689   0.907   0.249 -0.5615  4.6417 -1.6217
   64SOL     OW  190   0.139   0.518   2.474 -0.6073 -0.4632 -0.4023
   64SOL    HW1  191   0.171   0.513   2.573  2.5236 -3.3361  1.8192
   64SOL    HW2  192   0.139   0.616   2.440  1.2007 -1.5433 -1.9124
   65SOL     OW  193   0.197   1.490   0.556 -0.4515  0.0411  0.1449
   65SOL    HW1  194   0.239   1.543   0.637  1.4181 -3.9343  0.1783
   65SOL    HW2  195   0.271   1.480   0.484  0.1815  4.5860  1.7385
   66SOL     OW  196   2.543   0.387   0.582  0.0197 -0.0902  0.5577
   66SOL    HW1  197   2.640   0.421   0.601  1.5832 -1.9851 -0.4394
   66SOL    HW2  198   2.525   0.296   0.628 -0.9772  2.4279 -0.8103
   67SOL     OW  199   0.529   2.540   1.366 -0.0745 -0.1506  0.3279
   67SOL    HW1  200   0.591   2.533   1.447  3.1645  2.2455 -1.7752
   67SOL    HW2  201   0.463   2.460   1.357 -0.1944 -1.2087 -2.5007
   68SOL     OW  202   1.001   1.104   2.446  0.1197 -0.6896  0.1621
   68SOL    HW1  203   1.050   1.017   2.420  0.7330  0.1808 -0.0452
   68SOL    HW2  204   0.926   1.121   2.377 -0.2081  0.9659  1.0928
   69SOL     OW  205   0.748   2.785   2.175  0.3197  0.1949 -0.7979
   69SOL    HW1  206   0.756   2.679   2.181  1.5683  1.1943 -0.4866
   69SOL    HW2  207   0.650   2.811   2.178 -1.1934 -3.8735  0.1888
   70SOL     OW  208   0.555   0.330   2.687 -0.3056  0.0780 -0.0032
   70SOL    HW1  209   0.500   0.361   2.769 -1.7644  2.2927 -4.2173
   70SOL    HW2  210   0.584   0.230   2.686 -0.1950  1.0459  0.0598
   71SOL     OW  211   1.070   1.722   0.371 -0.1550  0.1223  0.4970
   71SOL    HW1  212   0.992   1.661   0.392  2.6594  3.4057  0.4183
   71SOL    HW2  213   1.067   1.762   0.274  1.7746  1.8540 -0.5670
   72SOL     OW  214   1.816   0.174   2.122  0.4384 -0.2844 -0.2522
   72SOL    HW1  215   1.907   0.208   2.168  1.2798 -1.4124  2.1107
   72SOL    HW2  216   1.814   0.072   2.102  0.2840 -0.0981  1.3853
   73SOL     OW  217   2.831   2.166   2.422 -0.5634  0.4724  0.1339
   73SOL    HW1  218   2.780   2.079   2.406  2.3953 -2.8923 -0.4074
   73SOL    HW2  219   2.847   2.190   2.523  1.3422 -1.1749 -4.9353
   74SOL     OW  220   2.723   2.897   2.097  0.0794  0.0533 -0.0502
   74SOL    HW1  221   2.655   2.901   2.181 -0.5500  0.2299  2.4491
   74SOL    HW2  222   2.824   2.914   2.125  3.2207  0.7138 -0.1805
   75SOL     OW  223   0.904   0.753   1.092 -0.0370 -0.1519 -0.0512
   75SOL    HW1  224   0.812   0.790   1.055 -2.3633  0.8034 -0.0723
   75SOL    HW2  225   0.951   0.807   1.166  0.0104  0.4594  1.7071
   76SOL     OW  226   1.688   1.248   2.507  0.6906 -0.4759 -0.6795
   76SOL    HW1  227   1.596   1.200   2.498  0.1679 -0.3571  1.0788
   76SOL    HW2  228   1.673   1.331   2.559 -0.7003 -1.1540  0.5543
   77SOL     OW  229   2.992   0.914   0.978  0.3111 -0.0118  0.2322
   77SOL    HW1  230   2.992   0.813   0.947 -0.4546 -1.2318  0.3732
   77SOL    HW2  231   3.049   0.937   1.066  0.6878  2.3187 -1.4634
   78SOL     OW  232   2.097   1.421   1.541  0.1605  0.8002 -0.1169
   78SOL    HW1  233   2.184   1.414   1.486  0.4598 -0.6182  2.9803
   78SOL    HW2  234   2.018   1.453   1.482  0.0868 -0.2615 -2.0706
   79SOL     OW  235   0.624   1.317   0.875 -0.7370  0.7347 -0.1073
   79SOL    HW1  236   0.530   1.353   0.891  2.1784  2.1167  1.1033
   79SOL    HW2  237   0.636   1.280   0.776 -1.9420 -0.7955 -1.2067
   80SOL     OW  238   0.625   0.487   1.569 -0.1519 -0.4333  0.0103
   80SOL    HW1  239   0.677   0.557   1.511 -0.1609  1.7919  2.2049
   80SOL    HW2  240   0.671   0.396   1.584 -0.4145  1.5224 -1.8450
   81SOL     OW  241   1.039   1.379   2.614 -0.2100  0.1206  0.3224
   81SOL    HW1  242   1.055   1.277   2.602  1.3994  0.0261 -2.3402
   81SOL    HW2  243   0.957   1.414   2.567  3.3845  1.9407  2.7884
   82SOL     OW  244   0.998   2.941   1.492  0.3815 -0.0274  0.4512
   82SOL    HW1  245   1.016   3.004   1.410  0.9310 -0.2073 -0.4569
   82SOL    HW2  246   0.931   2.865   1.466  2.1675 -1.1140 -1.8003
   83SOL     OW  247   2.748   2.499   0.846 -0.2843 -0.0891 -0.5545
   83SOL    HW1  248   2.680   2.428   0.807 -0.3079 -0.1516  1.9359
   83SOL    HW2  249   2.715   2.594   0.832 -0.6321  0.7005  0.0533
   84SOL     OW  250   0.667   3.052   2.345 -0.0898 -0.0166  0.2794
   84SOL    HW1  251   0.593   3.039   2.417 -1.1159  1.0342  0.5390
   84SOL    HW2  252   0.744   2.991   2.360 -4.7747  0.5742 -0.2162
   85SOL     OW  253   0.313   1.586   1.506 -0.1133  0.0274 -0.1299
   85SOL    HW1  254   0.260   1.666   1.543  0.9396 -1.4028  3.7252
   85SOL    HW2  255   0.368   1.535   1.581 -1.5398  1.6870  1.0487
   86SOL     OW  256   0.387   0.977   1.508 -0.2703  0.2015  0.4463
   86SOL    HW1  257   0.369   0.949   1.412  0.9787  1.1938  0.7771
   86SOL    HW2  258   0.370   0.898   1.572  0.8035 -0.6884 -2.1627
   87SOL     OW  259   1.608   0.664   0.210  0.5581  0.0292  0.5414
   87SOL    HW1  260   1.669   0.747   0.201 -0.6356 -1.5386 -1.4001
   87SOL    HW2  261   1.565   0.644   0.118 -1.0910 -2.0946 -0.8122
   88SOL     OW  262   1.605   1.364   0.195  0.0676 -0.2473  0.4960
   88SOL    HW1  263   1.639   1.266   0.197 -0.2640  0.1798 -1.4357
   88SOL    HW2  264   1.505   1.385   0.216  0.7440 -1.7219 -1.0960
   89SOL     OW  265   0.034   0.421   0.589  0.2599  0.0306 -0.0373
   89SOL    HW1  266   0.108   0.350   0.563 -0.1179  2.3609 -1.4607
   89SOL    HW2  267  -0.062   0.386   0.575 -0.4738  1.3963 -2.3389
   90SOL     OW  268   0.895   1.623   0.023  0.2028  0.0075  0.4171
   90SOL    HW1  269   0.823   1.574   0.079  0.2372 -2.0322  0.6784
   90SOL    HW2  270   0.868   1.631  -0.079  1.1041  2.8011  0.8160
   91SOL     OW  271   1.226   1.450   1.760 -0.1739 -0.2451 -0.0879
   91SOL    HW1  272   1.210   1.543   1.809 -2.6783  2.3055 -0.1040
   91SOL    HW2  273   1.324   1.421   1.751  1.2435  0.3839 -2.7175
   92SOL     OW  274   0.042   0.970   1.196 -0.1743  0.6291  0.0741
   92SOL    HW1  275   0.082   1.062   1.167  1.3782 -0.2741  2.1064
   92SOL    HW2  276   0.041   0.963   1.300  0.9556 -0.2031  1.3633
   93SOL     OW  277   0.025   2.746   3.095 -0.5349 -0.3198 -0.0238
   93SOL    HW1  278  -0.040   2.741   3.012  0.1288 -0.2422  1.5207
   93SOL    HW2  279   0.050   2.649   3.124  2.1669  1.5186 -0.2431
   94SOL     OW  280   1.520   1.441   1.755  0.0465  0.4751  0.3203
   94SOL    HW1  281   1.576   1.356   1.755 -1.9004  1.2697 -0.3738
   94SOL    HW2  282   1.538   1.496   1.844 -0.2013  1.1048 -0.7523
   95SOL     OW  283   1.391   2.520   3.030 -0.3163  0.8978 -0.0875
   95SOL    HW1  284   1.306   2.514   3.085  1.6832 -0.4167  0.2060
   95SOL    HW2  285   1.406   2.434   2.971 -0.8653  0.6483 -1.1724
   96SOL     OW  286   0.535   2.086   1.309 -0.6205 -0.0340 -1.0239
   96SOL    HW1  287   0.482   2.035   1.232 -1.1460  0.8875 -1.9088
   96SOL    HW2  288   0.609   2.027   1.356  0.9743 -0.4834 -0.1827
   97SOL     OW  289   0.385   1.654   2.451  0.0078 -0.0430  0.0759
   97SOL    HW1  290   0.301   1.710   2.420 -0.3026  0.6876 -1.7132
   97SOL    HW2  291   0.393   1.653   2.555 -1.2782  1.0026 -2.0638
   98SOL     OW  292   1.975   1.598   1.236  0.3497  0.3561  0.2955
   98SOL    HW1  293   1.889   1.577   1.292  1.8549  0.6235  0.4325
   98SOL    HW2  294   1.985   1.534   1.154 -0.2276 -0.4067 -0.2389
   99SOL     OW  295   2.448   2.100   1.398 -0.2206 -0.5842 -0.1462
   99SOL    HW1  296   2.470   2.103   1.501 -2.1463 -1.7009  0.2446
   99SOL    HW2  297   2.453   2.003   1.362  2.1703 -0.3130  0.2684
  100SOL     OW  298   2.328   0.314   2.090  0.0892 -0.1582  0.2326
  100SOL    HW1  299   2.264   0.299   2.166  1.1332 -0.0260 -1.9703
  100SOL    HW2  300   2.421   0.355   2.114  1.9278 -4.5716  1.2568
  101SOL     OW  301   0.347   1.508   0.284  0.3022 -0.2452  0.7961
  101SOL    HW1  302   0.418   1.495   0.360 -0.3512  0.0291 -1.1510
  101SOL    HW2  303   0.356   1.596   0.234 -0.7163 -2.3757  0.8932
  102SOL     OW  304   2.280   1.001   0.863 -0.3459  0.4934 -0.3143
  102SOL    HW1  305   2.193   0.944   0.834 -0.0965  1.8822  0.2172
  102SOL    HW2  306   2.300   1.078   0.795  0.8196 -0.5490 -4.3779
  103SOL     OW  307   2.287   0.032   0.396  0.0951 -0.0800  0.0199
  103SOL    HW1  308   2.312   0.133   0.396 -1.4059  2.5582  0.0713
  103SOL    HW2  309   2.362  -0.035   0.428 -2.1420  0.1308  1.3713
  104SOL     OW  310   0.125   1.782   2.179  0.4363 -0.2013  0.0293
  104SOL    HW1  311   0.168   1.748   2.088 -0.2405 -1.0782  1.0095
  104SOL    HW2  312   0.027   1.761   2.170  0.9867  0.6251 -1.1108
  105SOL     OW  313   1.261   2.125   0.793 -0.4128  0.1203  0.1615
  105SOL    HW1  314   1.178   2.130   0.730 -1.0845 -0.8208  1.7419
  105SOL    HW2  315   1.283   2.026   0.819  0.4535  1.3732  0.5651
  106SOL     OW  316   2.157   0.447   1.429 -0.0302 -0.7727  0.2612
  106SOL    HW1  317   2.089   0.373   1.406 -0.5525  1.0022 -0.3652
  106SOL    HW2  318   2.139   0.491   1.519  0.9043 -2.3914 -0.6984
  107SOL     OW  319   1.740   3.051   1.153  0.2930  0.4681  0.0581
  107SOL    HW1  320   1.806   3.118   1.193 -1.3151 -0.2806  1.0149
  107SOL    HW2  321   1.682   3.009   1.229 -0.0320 -1.7141  0.3022
  108SOL     OW  322   0.803   2.781   1.195 -0.1365 -0.2399  0.1733
  108SOL    HW1  323   0.769   2.771   1.295 -0.7871 -0.2474 -0.1083
  108SOL    HW2  324   0.905   2.791   1.190 -0.3930  0.9270 -0.9600
  109SOL     OW  325   2.209   0.120   0.728 -0.8909  0.2995 -0.5700
  109SOL    HW1  326   2.106   0.107   0.730 -0.7174 -1.1032  0.0984
  109SOL    HW2  327   2.246   0.112   0.825 -2.0641  3.0701 -0.0217
  110SOL     OW  328   0.464   2.861   2.771  0.5700 -0.0446  0.4019
  110SOL    HW1  329   0.460   2.872   2.666  0.2422  1.4636 -2.5719
  110SOL    HW2  330   0.531   2.784   2.800  0.6126 -0.4362 -0.0569
  111SOL     OW  331   1.306   0.529   2.311 -0.4881  0.8775  0.4575
  111SOL    HW1  332   1.226   0.560   2.369  1.3082 -1.4603 -0.2458
  111SOL    HW2  333   1.348   0.446   2.354  0.5600  1.3035 -0.8782
  112SOL     OW  334   1.712   0.563   1.492  0.1921  0.0621  0.0118
  112SOL    HW1  335   1.740   0.543   1.390  3.1507 -0.7438 -0.8961
  112SOL    HW2  336   1.684   0.479   1.548 -0.7344 -0.6284 -2.2772
  113SOL     OW  337   2.248   1.674   1.768  0.2257  0.0450  0.1764
  113SOL    HW1  338   2.312   1.603   1.726 -0.4038 -0.9772 -2.3451
  113SOL    HW2  339   2.266   1.686   1.871 -0.0607 -0.5261  0.5145
  114SOL     OW  340   0.364   0.530   1.255 -0.2643  0.4467  0.7014
  114SOL    HW1  341   0.429   0.591   1.197  3.2870 -1.8474 -1.1147
  114SOL    HW2  342   0.265   0.535   1.220 -0.7301  1.1686  0.1575
  115SOL     OW  343   2.798   1.591   1.290 -0.5851 -0.2728 -0.1514
  115SOL    HW1  344   2.775   1.490   1.306 -0.4673 -0.7912  1.2589
  115SOL    HW2  345   2.828   1.606   1.196 -1.5502 -1.0385  0.7756
  116SOL     OW  346   1.848   1.055   0.716  0.3140  0.0437  0.5600
  116SOL    HW1  347   1.764   1.026   0.662  1.3319 -1.2799  0.9252
  116SOL    HW2  348   1.838   1.141   0.776  0.2493 -1.8108  0.1411
  117SOL     OW  349   1.185   0.423   0.645  0.0508 -0.2529 -0.8490
  117SOL    HW1  350   1.230   0.435   0.738 -0.6521  0.6004 -4.7933
  117SOL    HW2  351   1.228   0.478   0.566  0.1030  3.1933 -1.1632
  118SOL     OW  352   1.127   1.126   1.077 -0.1688 -0.2916 -0.4714
  118SOL    HW1  353   1.085   1.052   1.144 -0.7178 -2.0563  0.8751
  118SOL    HW2  354   1.147   1.217   1.116  0.2206 -4.3880 -1.9991
  119SOL     OW  355   1.816   1.620   2.157 -0.4267 -0.3458  0.3635
  119SOL    HW1  356   1.790   1.722   2.181 -0.2635  3.5326 -1.4691
  119SOL    HW2  357   1.911   1.604   2.129 -0.6979 -0.1861 -0.9026
  120SOL     OW  358   2.933   2.830   0.162  0.2793  0.6708 -0.4268
  120SOL    HW1  359   3.015   2.810   0.099  0.4264  0.4251 -3.3172
  120SOL    HW2  360   2.844   2.794   0.125  3.1942  2.7210  0.7094
  121SOL     OW  361   2.009   0.761   2.302 -0.2502  0.0106 -0.4944
  121SOL    HW1  362   2.025   0.816   2.220 -1.5714  0.3610  0.9944
  121SOL    HW2  363   2.024   0.657   2.288  2.1500 -0.8180  1.0858
  122SOL     OW  364   2.631   2.693   1.219  0.3416 -0.6173  0.0509
  122SOL    HW1  365   2.686   2.612   1.181  0.4400 -1.6445 -0.7397
  122SOL    HW2  366   2.571   2.737   1.151 -1.5120  0.5235 -0.4328
  123SOL     OW  367   1.770   0.089   1.698 -0.2692  0.3582  0.3404
  123SOL    HW1  368   1.797  -0.000   1.658 -0.8864  1.1904 -0.3643
  123SOL    HW2  369   1.850   0.135   1.749  1.0136  1.4428  1.1436
  124SOL     OW  370   0.121   0.443   1.080  0.0369  0.0159  0.1665
  124SOL    HW1  371   0.106   0.538   1.124 -0.9357  5.7509  0.0035
  124SOL    HW2  372   0.095   0.443   0.981 -0.2268  0.4992  1.2704
  125SOL     OW  373   0.843   1.854   0.698  0.2037  0.1639  0.1327
  125SOL    HW1  374   0.930   1.804   0.738  1.3342  0.4493 -0.3480
  125SOL    HW2  375   0.784   1.896   0.774  0.9122 -1.9344  0.5401
  126SOL     OW  376   1.880   2.291   2.473 -0.2971 -0.0235 -0.1427
  126SOL    HW1  377   1.954   2.266   2.403 -0.0880  0.1317 -1.4221
  126SOL    HW2  378   1.834   2.206   2.513 -1.7807  0.5899 -1.0196
  127SOL     OW  379   0.895   0.888   0.282  0.9448  0.4576  0.0342
  127SOL    HW1  380   0.934   0.938   0.367 -1.5583  1.5906  2.1574
  127SOL    HW2  381   0.910   0.788   0.292  0.2003  0.7027 -1.5715
  128SOL     OW  382   0.923   0.260   1.398 -0.9008 -0.2500 -0.0584
  128SOL    HW1  383   0.885   0.332   1.340 -0.8633 -2.8003  0.0412
  128SOL    HW2  384   0.894   0.166   1.365  1.0995  3.5652  1.1605
  129SOL     OW  385   1.811   0.720   1.896 -0.2360 -0.2108 -0.3083
  129SOL    HW1  386   1.819   0.719   1.793  1.7244  1.4848  1.8430
  129SOL    HW2  387   1.860   0.804   1.944  3.1495  2.0139  1.3829
  130SOL     OW  388   1.365   2.201   1.027 -0.2566  0.5521 -0.0550
  130SOL    HW1  389   1.317   2.199   0.931 -0.4963  1.2661 -0.0703
  130SOL    HW2  390   1.455   2.254   1.021 -0.5749 -1.5065 -2.3351
  131SOL     OW  391   3.029   1.417   1.351 -0.1490 -0.0002 -0.2061
  131SOL    HW1  392   2.962   1.339   1.374 -1.6978  3.9488  1.0552
  131SOL    HW2  393   3.130   1.390   1.370 -1.0637  1.4208  2.5570
  132SOL     OW  394   2.053   2.441   0.527 -0.1681  0.4092 -0.6751
  132SOL    HW1  395   1.960   2.479   0.542  0.1534  0.4494 -0.4407
  132SOL    HW2  396   2.075   2.364   0.600  0.2110 -1.9973  0.1742
  133SOL     OW  397   1.892   2.323   2.805 -0.0223  0.6791  0.9852
  133SOL    HW1  398   1.855   2.365   2.891 -2.6159 -1.7642 -1.9375
  133SOL    HW2  399   1.895   2.382   2.720  1.1072 -2.0149 -0.6782
  134SOL     OW  400   2.691   2.328   1.679 -0.1995  0.2162 -0.0285
  134SOL    HW1  401   2.641   2.325   1.773 -0.4987  1.8785 -0.1999
  134SOL    HW2  402   2.734   2.421   1.662 -0.8873 -0.3266 -0.9039
  135SOL     OW  403   0.702   1.473   2.658 -0.1711 -0.4638 -0.0657
  135SOL    HW1  404   0.678   1.379   2.687 -1.4466  2.1967 -3.3381
  135SOL    HW2  405   0.745   1.472   2.562  2.0901  2.2689 -4.1280
  136SOL     OW  406   1.209   1.967   0.427  0.7950  0.2475 -0.4946
  136SOL    HW1  407   1.176   2.022   0.510 -0.4700 -1.4094 -0.3807
  136SOL    HW2  408   1.148   1.880   0.413 -1.1944  1.0177  0.4957
  137SOL     OW  409   0.432   1.135   2.144 -0.0879 -0.0803  0.2475
  137SOL    HW1  410   0.339   1.149   2.189  2.3213 -1.5128  1.4843
  137SOL    HW2  411   0.491   1.067   2.189  0.9203  2.3256 -1.1822
  138SOL     OW  412   2.419   1.516   0.266 -0.6256  1.0674 -0.3149
  138SOL    HW1  413   2.334   1.458   0.246  0.3242 -0.2550 -0.2778
  138SOL    HW2  414   2.498   1.465   0.305 -1.7069 -1.8773 -0.8392
  139SOL     OW  415   1.865   2.628   1.294 -0.2403 -0.3032 -0.4376
  139SOL    HW1  416   1.760   2.626   1.268  1.1681 -0.1236  0.6735
  139SOL    HW2  417   1.891   2.539   1.339  0.6492  1.9791 -0.1879
  140SOL     OW  418   3.011   2.949   2.565 -0.1434  0.6233 -0.6242
  140SOL    HW1  419   3.035   2.852   2.573 -1.4439  1.5516 -1.8508
  140SOL    HW2  420   3.092   3.011   2.563  0.4488 -2.7255  0.1749
  141SOL     OW  421   1.323   1.693   1.638  0.0793 -0.4726  0.3600
  141SOL    HW1  422   1.221   1.713   1.638 -0.0534 -1.6911 -1.5815
  141SOL    HW2  423   1.344   1.620   1.707  0.4504 -0.1903 -2.2438
  142SOL     OW  424   1.575   0.580   2.235  0.3012  0.2094  0.2599
  142SOL    HW1  425   1.590   0.572   2.132 -1.0376 -2.1404 -0.2508
  142SOL    HW2  426   1.470   0.568   2.255 -0.8817  0.7143  1.2080
  143SOL     OW  427   2.748   0.904   0.482  0.1967  0.1906 -0.0111
  143SOL    HW1  428   2.788   0.967   0.413  1.2918 -0.8404  3.0115
  143SOL    HW2  429   2.789   0.925   0.574  1.5777 -0.2927 -1.4665
  144SOL     OW  430   2.912   1.189   1.474  0.0253  0.0044 -0.0089
  144SOL    HW1  431   2.859   1.178   1.567  0.9026  1.0563  1.2311
  144SOL    HW2  432   3.002   1.133   1.466  0.6792 -2.7316 -1.7751
  145SOL     OW  433   1.033   1.865   0.122  0.1010 -0.6366  0.9166
  145SOL    HW1  434   1.063   1.931   0.046 -0.1041 -1.0756  1.0730
  145SOL    HW2  435   0.985   1.782   0.078 -1.0474 -0.0515  0.8535
  146SOL     OW  436   2.492   0.675   1.505  0.6788  0.2704  0.1655
  146SOL    HW1  437   2.461   0.588   1.458  0.9036 -0.8746  2.1926
  146SOL    HW2  438   2.434   0.756   1.463 -2.1192  0.0403 -1.2216
  147SOL     OW  439   1.133   2.474   0.624 -0.5668 -0.2999  0.0432
  147SOL    HW1  440   1.082   2.525   0.550  0.2651  0.4484 -0.7980
  147SOL    HW2  441   1.215   2.440   0.577 -1.1484  0.3439 -1.0276
  148SOL     OW  442   1.682   1.461   3.046  0.2763  0.3759 -0.4004
  148SOL    HW1  443   1.679   1.369   2.992  0.6737  0.0095 -1.0161
  148SOL    HW2  444   1.657   1.438   3.147  0.4352 -3.3164 -1.4306
  149SOL     OW  445   0.693   1.425   1.967  0.4708 -0.1064 -0.3339
  149SOL    HW1  446   0.593   1.394   1.983 -0.9502 -0.9913  0.2486
  149SOL    HW2  447   0.746   1.364   1.900  1.9207 -0.3133  1.0619
  150SOL     OW  448   3.040   1.263   0.959  0.0033 -0.3131 -0.3801
  150SOL    HW1  449   3.127   1.262   1.016  0.0770 -0.1919 -3.4577
  150SOL    HW2  450   2.983   1.177   0.967 -0.7810  0.2067  0.0323
  151SOL     OW  451   0.236   0.727   2.134 -0.3659 -0.1980  0.2743
  151SOL    HW1  452   0.218   0.808   2.073  1.0583  1.0941  0.0579
  151SOL    HW2  453   0.248   0.637   2.087  0.9607 -0.7194 -0.0444
  152SOL     OW  454   1.404   1.758   1.282  0.3355  0.1409  0.2188
  152SOL    HW1  455   1.393   1.848   1.330  2.4111  0.5394 -0.9576
  152SOL    HW2  456   1.315   1.727   1.235 -2.7521  0.4178 -0.5768
  153SOL     OW  457   3.085   1.517   0.165  0.4015 -0.4113 -0.0311
  153SOL    HW1  458   3.090   1.415   0.179 -0.4631 -0.3919 -2.0609
  153SOL    HW2  459   3.115   1.573   0.250  0.9402  0.3585 -0.5605
  154SOL     OW  460   2.368   1.868   2.744 -0.1213 -0.1245  0.6775
  154SOL    HW1  461   2.374   1.767   2.775 -0.2088 -0.4032  0.5956
  154SOL    HW2  462   2.458   1.904   2.699  0.1063  0.8179 -1.4173
  155SOL     OW  463   2.433   1.218   0.394  0.2436 -0.2339  0.1974
  155SOL    HW1  464   2.506   1.206   0.326  1.0820 -0.8157  2.4212
  155SOL    HW2  465   2.340   1.189   0.363  0.6563  0.2307  0.5554
  156SOL     OW  466   2.550   0.966   0.869 -0.8076  0.1036 -0.0331
  156SOL    HW1  467   2.447   0.959   0.877  2.4810  1.8741 -0.0026
  156SOL    HW2  468   2.581   1.053   0.824  0.1507 -1.4556 -1.1856
  157SOL     OW  469   1.294   2.951   3.057  0.1062 -0.4232 -0.6319
  157SOL    HW1  470   1.333   2.958   2.963 -1.1857 -0.1750 -1.1432
  157SOL    HW2  471   1.280   3.043   3.092  2.4799 -1.6624  2.0070
  158SOL     OW  472   1.040   1.842   1.920  0.1493 -0.3547 -0.3701
  158SOL    HW1  473   1.060   1.927   1.866 -0.9535 -3.2863  0.6847
  158SOL    HW2  474   0.947   1.848   1.970  0.0052 -0.5091 -0.2460
  159SOL     OW  475   0.821   0.437   1.217  0.2805  0.4222 -0.3137
  159SOL    HW1  476   0.784   0.529   1.246  1.0136 -1.8222  1.2732
  159SOL    HW2  477   0.751   0.381   1.157 -1.2867 -0.6742 -0.3533
  160SOL     OW  478   1.396   2.325   1.602  0.2591 -0.0791 -0.6183
  160SOL    HW1  479   1.375   2.339   1.701 -1.7064  0.2517  0.0839
  160SOL    HW2  480   1.495   2.346   1.580 -0.3198 -4.0100  0.6544
  161SOL     OW  481   0.075   2.931   0.300 -0.0041 -0.1097  0.2845
  161SOL    HW1  482  -0.027   2.911   0.289  0.2486  1.0155  1.1759
  161SOL    HW2  483   0.101   2.989   0.221  1.5761  1.0438 -1.6670
  162SOL     OW  484   2.496   1.909   0.471 -0.5831 -0.3607  0.0896
  162SOL    HW1  485   2.503   1.881   0.368 -1.1342  0.9221 -0.3406
  162SOL    HW2  486   2.511   1.826   0.532 -0.3942  2.6484 -0.6459
  163SOL     OW  487   1.887   2.794   0.731 -0.5700  0.8163 -0.3374
  163SOL    HW1  488   1.893   2.797   0.628  1.0421  0.4748 -1.5422
  163SOL    HW2  489   1.975   2.757   0.774  0.5305  2.3881 -0.0585
  164SOL     OW  490   3.085   0.224   1.176 -0.2306  0.2024  0.0462
  164SOL    HW1  491   3.137   0.287   1.117  2.4152 -0.0831  1.1590
  164SOL    HW2  492   3.133   0.192   1.261  0.1192 -0.3085  0.6836
  165SOL     OW  493   0.934   1.418   0.716  0.2421  0.2474  0.5495
  165SOL    HW1  494   0.924   1.480   0.799 -3.2701  2.6726 -0.1868
  165SOL    HW2  495   0.899   1.471   0.636  1.4992  0.3246  4.3269
  166SOL     OW  496   1.493   1.096   1.735 -0.0235 -0.2538 -0.6086
  166SOL    HW1  497   1.414   1.109   1.802 -0.1012  1.0696  0.7714
  166SOL    HW2  498   1.589   1.122   1.773  0.0907  3.1981 -0.7051
  167SOL     OW  499   0.724   1.932   1.439  0.2746 -0.2187  0.0790
  167SOL    HW1  500   0.749   2.005   1.510  0.7052  1.6358  0.6692
  167SOL    HW2  501   0.677   1.850   1.477 -0.2168  1.7699 -0.6543
  168SOL     OW  502   1.629   2.378   0.152 -0.0099 -0.2076  0.3515
  168SOL    HW1  503   1.711   2.412   0.093 -0.0855 -1.6517  1.9659
  168SOL    HW2  504   1.648   2.329   0.243  1.0580  1.3906 -0.5323
  169SOL     OW  505   0.154   2.560   2.229  0.0741 -0.0677  0.0450
  169SOL    HW1  506   0.159   2.535   2.127  1.5467 -1.1853  0.3775
  169SOL    HW2  507   0.209   2.498   2.291  1.2044 -2.4912 -0.8507
  170SOL     OW  508   1.155   0.229   1.996 -0.6262  0.0092 -0.2989
  170SOL    HW1  509   1.231   0.196   2.063  1.1477 -0.3582  0.2010
  170SOL    HW2  510   1.142   0.161   1.918 -0.1442 -0.1965 -0.4869
  171SOL     OW  511   0.204   0.791   2.425 -0.0119 -0.3507  0.4203
  171SOL    HW1  512   0.127   0.846   2.466 -1.5407  0.6622 -2.0658
  171SOL    HW2  513   0.197   0.796   2.324  3.1318 -0.2505  1.0786
  172SOL     OW  514   0.910   1.045   2.910  0.7815  0.3046 -0.0685
  172SOL    HW1  515   0.991   1.102   2.941  0.7195  0.6740 -1.0304
  172SOL    HW2  516   0.900   1.049   2.803  0.0822  1.1362 -0.7531
  173SOL     OW  517   0.648   2.668   0.088  0.2569  0.4504  0.1796
  173SOL    HW1  518   0.600   2.726   0.016  0.4296  0.1163 -0.0876
  173SOL    HW2  519   0.574   2.615   0.150  0.7440  0.5088  0.2104
  174SOL     OW  520   1.431   2.834   1.098  0.5247  0.1588  0.3379
  174SOL    HW1  521   1.444   2.911   1.031  0.0698 -0.5816 -2.2379
  174SOL    HW2  522   1.432   2.740   1.049  1.5355  1.7603  1.7278
  175SOL     OW  523   0.383   0.065   1.691  0.0852 -0.6898 -0.1690
  175SOL    HW1  524   0.469   0.092   1.746  0.1517 -2.1786  2.9210
  175SOL    HW2  525   0.338   0.147   1.646  0.5583  0.4776  0.3206
  176SOL     OW  526   2.573   0.379   3.094 -0.0072  0.0159  0.7998
  176SOL    HW1  527   2.601   0.470   3.140  2.1534 -0.1000  1.1495
  176SOL    HW2  528   2.496   0.333   3.137  2.8275 -1.8647 -3.8025
  177SOL     OW  529   0.357   0.317   0.994  0.0608 -0.0000  0.0333
  177SOL    HW1  530   0.386   0.224   1.036 -0.6937 -2.0587  0.0751
  177SOL    HW2  531   0.263   0.353   1.026 -0.1916  4.9048  0.7731
  178SOL     OW  532   3.083   2.652   2.644 -0.2729  0.1572 -0.1915
  178SOL    HW1  533   2.990   2.625   2.684  0.0718  0.2662  1.8866
  178SOL    HW2  534   3.151   2.675   2.718  1.5322 -1.2656 -0.5521
  179SOL     OW  535   0.016   1.689   1.191 -0.2362 -0.7487  0.3204
  179SOL    HW1  536  -0.030   1.786   1.196  1.6135 -0.2368 -2.5815
  179SOL    HW2  537  -0.007   1.631   1.270 -0.3592  0.6044 -3.0917
  180SOL     OW  538   0.242   1.191   1.840  0.1358  0.1061 -0.0086
  180SOL    HW1  539   0.346   1.205   1.826 -3.6385  0.7259 -0.1849
  180SOL    HW2  540   0.199   1.266   1.902 -2.3709  2.8473  0.5739
  181SOL     OW  541   3.015   1.854   2.495  0.1192  0.1092 -0.0118
  181SOL    HW1  542   3.094   1.913   2.464 -1.3812 -1.7485 -0.4800
  181SOL    HW2  543   2.935   1.876   2.438  0.3248 -3.0098  1.1473
  182SOL     OW  544   2.238   1.310   1.153  0.1019  0.1433  0.2938
  182SOL    HW1  545   2.195   1.256   1.079  2.0590 -0.1943  0.3697
  182SOL    HW2  546   2.285   1.401   1.129 -0.6096  1.8517  0.8035
  183SOL     OW  547   1.520   2.230   2.546  0.3150  0.2959  0.0832
  183SOL    HW1  548   1.423   2.192   2.557 -2.6983 -0.0313 -3.0162
  183SOL    HW2  549   1.583   2.156   2.524 -1.3024  0.5733  0.8508
  184SOL     OW  550   2.041   0.859   0.773 -0.3331 -0.3891  0.4034
  184SOL    HW1  551   1.965   0.929   0.749  1.1768  0.3863 -0.2699
  184SOL    HW2  552   2.012   0.791   0.844 -0.2663  1.4887  2.1612
  185SOL     OW  553   1.580   2.761   2.104  0.7504 -0.1834 -0.0590
  185SOL    HW1  554   1.542   2.850   2.067  0.7702 -0.1766 -1.2478
  185SOL    HW2  555   1.588   2.755   2.206  3.7502 -1.9597  0.3504
  186SOL     OW  556   0.106   2.220   1.663 -0.1366 -0.1471  0.3380
  186SOL    HW1  557   0.050   2.260   1.739  0.9465 -0.8216 -1.9519
  186SOL    HW2  558   0.187   2.164   1.705  1.9792  2.4443 -1.5280
  187SOL     OW  559   1.351   0.752   1.652 -0.6427  0.4061  0.0402
  187SOL    HW1  560   1.424   0.796   1.594 -0.5553 -1.5423  0.2444
  187SOL    HW2  561   1.375   0.763   1.751 -1.9432 -2.3684 -0.9506
  188SOL     OW  562   2.761   2.774   1.442 -0.4541  0.2155 -0.5823
  188SOL    HW1  563   2.770   2.876   1.438 -0.0486 -0.4535  2.0941
  188SOL    HW2  564   2.722   2.735   1.354 -1.9016  1.2419  0.0330
  189SOL     OW  565   0.879   1.174   1.396  0.9027  1.0037  0.0597
  189SOL    HW1  566   0.963   1.225   1.430  1.6438  3.2960 -1.1864
  189SOL    HW2  567   0.804   1.237   1.366 -0.4563  3.5722  1.3687
  190SOL     OW  568   1.485   1.894   1.563 -0.0844  0.4686 -0.1619
  190SOL    HW1  569   1.430   1.812   1.594 -0.2939  1.7404 -0.0138
  190SOL    HW2  570   1.491   1.964   1.641 -1.5071 -1.1539  1.2942
  191SOL     OW  571   0.974   0.764   1.529  0.7616  0.0386  0.3091
  191SOL    HW1  572   1.040   0.686   1.539 -1.1304  0.5573  1.1371
  191SOL    HW2  573   1.024   0.853   1.542 -1.5921 -0.6891  2.1049
  192SOL     OW  574   1.859   2.236   1.126 -0.3087  0.3512 -0.3470
  192SOL    HW1  575   1.760   2.233   1.099  0.3218  1.6904  0.3993
  192SOL    HW2  576   1.916   2.305   1.074  0.2245  2.5589  1.4793
  193SOL     OW  577   0.541   0.574   0.462  0.4184 -0.0756  0.2463
  193SOL    HW1  578   0.532   0.490   0.518  3.2135  1.0560 -3.6395
  193SOL    HW2  579   0.587   0.560   0.368  1.7391  1.1095 -1.4432
  194SOL     OW  580   0.322   0.869   1.273  0.7173  0.0192  0.0620
  194SOL    HW1  581   0.240   0.810   1.299  1.2346 -1.4586  2.1517
  194SOL    HW2  582   0.310   0.915   1.180 -2.2261 -4.0945  0.6731
  195SOL     OW  583   1.023   2.890   0.564 -0.3295 -0.3449 -0.1881
  195SOL    HW1  584   1.022   2.797   0.515  2.1839  0.5706 -1.0966
  195SOL    HW2  585   1.114   2.944   0.539 -0.9146 -1.3805 -0.4533
  196SOL     OW  586   0.194   1.366   1.374  0.1859 -0.6570  0.0099
  196SOL    HW1  587   0.236   1.454   1.413 -0.0130 -0.3180 -0.9724
  196SOL    HW2  588   0.198   1.288   1.443  1.9887 -0.5095  0.9258
  197SOL     OW  589   0.825   2.055   0.215  0.1119  0.0771  0.0927
  197SOL    HW1  590   0.814   2.061   0.318 -0.2176  0.5212  0.1053
  197SOL    HW2  591   0.900   1.992   0.182 -1.4902 -0.2989  1.9349
  198SOL     OW  592   0.323   1.255   0.232 -0.1072  0.3121  0.2632
  198SOL    HW1  593   0.224   1.236   0.221  3.4072  0.6143 -0.7264
  198SOL    HW2  594   0.335   1.361   0.250 -0.4219  0.1439 -0.9438
  199SOL     OW  595   2.180   0.360   2.557 -0.0580  0.2356 -0.2077
  199SOL    HW1  596   2.116   0.324   2.630  1.5639  0.8506 -1.4872
  199SOL    HW2  597   2.274   0.385   2.597  2.1043  2.3051  1.7347
  200SOL     OW  598   0.053   2.921   0.739 -0.3384  0.0936  0.2676
  200SOL    HW1  599  -0.028   2.868   0.706 -1.6087  0.8667 -0.1618
  200SOL    HW2  600   0.032   3.021   0.751  1.4719  2.7684 -1.4363
  201SOL     OW  601   1.120   0.741   0.626  0.6040  0.3060 -0.1639
  201SOL    HW1  602   1.135   0.806   0.708  2.3678  2.2880 -0.4951
  201SOL    HW2  603   1.027   0.690   0.625 -0.2202 -2.6423 -0.9073
  202SOL     OW  604   0.511   1.198   1.803 -0.0047 -0.3505 -0.5000
  202SOL    HW1  605   0.536   1.181   1.707  1.1313  0.2673  0.7794
  202SOL    HW2  606   0.540   1.115   1.860 -1.1792  0.0302  0.7107
  203SOL     OW  607   0.702   0.205   1.559  0.1034  0.1975 -0.0110
  203SOL    HW1  608   0.758   0.168   1.484 -0.6204  0.2578  0.2144
  203SOL    HW2  609   0.747   0.183   1.650 -0.6980 -0.2409 -1.0610
  204SOL     OW  610   2.058   1.875   2.936 -0.1210 -0.3202 -0.6065
  204SOL    HW1  611   2.086   1.776   2.920  3.1612 -0.2167 -1.8243
  204SOL    HW2  612   2.048   1.916   2.841 -0.0438 -1.5114  1.5120
  205SOL     OW  613   1.811   1.874   3.098  0.1941 -0.2696 -0.0976
  205SOL    HW1  614   1.903   1.870   3.053  0.0186  1.2140  0.8475
  205SOL    HW2  615   1.771   1.973   3.088  1.7114 -0.3523  0.0935
  206SOL     OW  616   2.520   2.798   0.319 -0.0607  0.5278 -0.7886
  206SOL    HW1  617   2.593   2.728   0.337  0.8913  2.0339 -1.0504
  206SOL    HW2  618   2.537   2.859   0.237  1.2977  0.9580 -2.3265
  207SOL     OW  619   0.608   1.792   2.959  0.5869  0.2404  0.0925
  207SOL    HW1  620   0.674   1.723   2.918  0.2014 -0.2010 -2.7505
  207SOL    HW2  621   0.557   1.751   3.039 -0.5791 -0.9106 -0.1177
  208SOL     OW  622   1.157   1.579   1.412 -0.5974  0.2290  0.0746
  208SOL    HW1  623   1.162   1.622   1.320  0.1729  0.6365 -1.1163
  208SOL    HW2  624   1.237   1.610   1.470 -2.3106  0.1904  0.8516
  209SOL     OW  625   0.265   0.948   3.011 -0.4584  0.1349  0.7231
  209SOL    HW1  626   0.335   0.913   2.941 -1.1025 -1.2911 -1.0190
  209SOL    HW2  627   0.241   0.872   3.077  2.0085 -0.3512  2.0433
  210SOL     OW  628   1.775   0.510   1.210  0.3015  0.4958 -0.3484
  210SOL    HW1  629   1.718   0.572   1.152 -0.0850  0.0487 -3.0025
  210SOL    HW2  630   1.869   0.490   1.169  0.0115  1.6903 -0.0091
  211SOL     OW  631   2.132   1.059   1.586 -0.0812  0.2929 -0.5071
  211SOL    HW1  632   2.193   1.002   1.648 -0.0472 -0.8567  0.2672
  211SOL    HW2  633   2.183   1.121   1.514  3.6516  0.3748  0.4775
  212SOL     OW  634   0.026   0.978   1.478  0.2635 -0.3315 -0.1960
  212SOL    HW1  635   0.077   1.057   1.521 -1.1357  2.8320  1.0816
  212SOL    HW2  636   0.052   0.886   1.521 -0.6067 -0.8950 -1.1548
  213SOL     OW  637   2.781   0.365   0.351  0.5210 -0.5692  0.4997
  213SOL    HW1  638   2.822   0.295   0.295 -0.2494 -0.5902 -1.8071
  213SOL    HW2  639   2.734   0.445   0.308  1.1691 -1.5797 -0.4977
  214SOL     OW  640   2.162   0.261   2.304  0.2552  0.0657  0.3166
  214SOL    HW1  641   2.184   0.304   2.398 -1.1133  0.0372  0.0392
  214SOL    HW2  642   2.132   0.161   2.310 -1.0303  1.8828  3.0767
  215SOL     OW  643   1.627   2.300   2.087  0.5218 -0.4704  0.2790
  215SOL    HW1  644   1.721   2.328   2.050 -0.2450  1.3411  1.1732
  215SOL    HW2  645   1.576   2.379   2.129  1.5419  0.1625  3.2376
  216SOL     OW  646   2.212   0.623   0.634 -0.0320 -0.2970 -0.0269
  216SOL    HW1  647   2.209   0.521   0.611  1.2565  2.1145 -1.6253
  216SOL    HW2  648   2.123   0.672   0.633 -2.5538 -1.5309  0.8216
  217SOL     OW  649   0.739   2.770   2.472  0.3733 -0.0226 -0.1398
  217SOL    HW1  650   0.719   2.682   2.522 -2.5406  1.3432 -0.5618
  217SOL    HW2  651   0.759   2.754   2.371  2.2104  2.9481  0.9660
  218SOL     OW  652   1.932   1.462   0.071 -0.2346 -0.2671 -0.0130
  218SOL    HW1  653   1.848   1.465   0.015  0.4561 -0.8946 -2.4162
  218SOL    HW2  654   1.937   1.370   0.111  0.3244  2.0225 -1.6475
  219SOL     OW  655   2.364   1.268   2.554  0.0245 -0.4125  0.1792
  219SOL    HW1  656   2.420   1.210   2.487  3.4754  0.3498 -1.4853
  219SOL    HW2  657   2.341   1.210   2.641  0.8817 -2.3390 -0.7002
  220SOL     OW  658   1.519   1.029   1.281  0.4812  0.4304 -0.8312
  220SOL    HW1  659   1.614   1.061   1.310 -1.6056 -0.3417 -1.6559
  220SOL    HW2  660   1.495   1.067   1.189 -4.3271 -2.4242  0.4248
  221SOL     OW  661   1.356   1.005   2.194  0.5614 -1.0231  0.2905
  221SOL    HW1  662   1.289   0.981   2.116  0.6449  1.7473 -0.4167
  221SOL    HW2  663   1.456   0.999   2.168 -1.2800 -0.2784  1.5506
  222SOL     OW  664   1.194   0.033   1.213 -0.0482 -0.1982  0.5007
  222SOL    HW1  665   1.237   0.002   1.302 -1.5143  2.0056  3.6913
  222SOL    HW2  666   1.224   0.130   1.195 -0.3223 -1.1743 -0.9450
  223SOL     OW  667   2.739   0.881   2.020 -0.5040  0.4238 -0.0978
  223SOL    HW1  668   2.744   0.892   2.124 -1.8101  1.2288 -0.5599
  223SOL    HW2  669   2.823   0.919   1.971  0.0443  0.2048 -0.7443
  224SOL     OW  670   1.578   1.016   2.759  0.3567 -0.0512  0.3042
  224SOL    HW1  671   1.586   0.936   2.692  0.1976  0.1183  0.3352
  224SOL    HW2  672   1.503   1.076   2.731  1.3600 -0.7544  3.1978
  225SOL     OW  673   2.931   2.800   2.907 -0.1293  0.1360 -0.2522
  225SOL    HW1  674   2.915   2.717   2.847 -1.3077 -1.0417  0.3795
  225SOL    HW2  675   2.942   2.882   2.845  0.3147 -0.4547  1.5021
  226SOL     OW  676   2.382   1.580   2.817  0.4359  0.2987 -0.7594
  226SOL    HW1  677   2.449   1.551   2.738 -1.5519 -2.5734  0.1162
  226SOL    HW2  678   2.321   1.504   2.843 -0.9339  1.9828  0.6555
  227SOL     OW  679   0.838   0.161   3.024 -0.5813  0.1380  0.6799
  227SOL    HW1  680   0.798   0.078   3.071  0.6087 -3.2379  0.2778
  227SOL    HW2  681   0.813   0.157   2.923 -0.1610 -1.5011 -3.2319
  228SOL     OW  682   2.377   0.589   2.871  0.1726 -0.4122  0.7788
  228SOL    HW1  683   2.353   0.629   2.776 -1.1050 -0.7355  0.7977
  228SOL    HW2  684   2.463   0.538   2.868 -0.9235  0.2377  0.3631
  229SOL     OW  685   0.633   0.461   1.895  0.5425 -0.5524 -0.5302
  229SOL    HW1  686   0.631   0.377   1.841 -1.1826 -2.2260  2.4369
  229SOL    HW2  687   0.667   0.551   1.858 -0.2904  1.4504  1.4180
  230SOL     OW  688   1.927   1.162   2.150 -0.2200 -0.6778  0.1656
  230SOL    HW1  689   2.010   1.188   2.092  0.5194 -2.4552  0.3710
  230SOL    HW2  690   1.830   1.184   2.124  1.7391  0.6768 -1.1914
  231SOL     OW  691   0.657   1.002   2.977 -0.2141  0.1828  0.7773
  231SOL    HW1  692   0.748   1.042   2.951 -0.4106 -1.6799  0.3430
  231SOL    HW2  693   0.587   1.073   3.000  1.5027  0.2712  0.8069
  232SOL     OW  694   2.425   0.021   2.796 -0.0385 -0.8683  0.3702
  232SOL    HW1  695   2.451  -0.077   2.817  1.6214 -0.0646  2.8922
  232SOL    HW2  696   2.471   0.052   2.706 -1.2663 -1.1154 -1.2649
  233SOL     OW  697   1.724   1.287   1.144  0.2216  0.1419  0.6438
  233SOL    HW1  698   1.767   1.284   1.045  1.8697 -1.8531 -2.4289
  233SOL    HW2  699   1.771   1.223   1.209  2.0983 -0.2668  1.2400
  234SOL     OW  700   1.600   2.591   1.880  0.3749  0.4483  0.3746
  234SOL    HW1  701   1.596   2.652   1.964 -2.1447  0.3381 -0.2946
  234SOL    HW2  702   1.512   2.539   1.877 -1.2392 -0.4119  1.2776
  235SOL     OW  703   0.054   3.004   2.854 -0.3497  0.0251  0.2828
  235SOL    HW1  704   0.103   3.052   2.778  0.9234 -0.6358  1.1790
  235SOL    HW2  705  -0.022   3.061   2.894 -1.1146 -3.2058  2.2443
  236SOL     OW  706   2.888   0.758   0.106 -0.0310 -0.1778  0.5243
  236SOL    HW1  707   2.960   0.792   0.172  0.8229 -0.2368 -0.7046
  236SOL    HW2  708   2.914   0.664   0.076  0.2629 -0.5304  1.9632
  237SOL     OW  709   1.489   1.709   0.977 -0.1564  0.0145  0.1465
  237SOL    HW1  710   1.584   1.691   0.941  0.5986  2.1685 -1.0519
  237SOL    HW2  711   1.493   1.718   1.083  0.0693  0.6239 -1.2255
  238SOL     OW  712   1.772   1.258   0.870 -0.0970 -0.0425 -0.0882
  238SOL    HW1  713   1.846   1.330   0.864  0.0546  1.3553  0.8251
  238SOL    HW2  714   1.679   1.289   0.828 -3.7423 -2.0106 -0.3935
  239SOL     OW  715   2.048   0.233   2.748  0.0832 -0.1231 -0.7212
  239SOL    HW1  716   2.115   0.203   2.827  1.0109 -0.1694  2.2772
  239SOL    HW2  717   1.971   0.298   2.785 -3.9023 -0.1892 -1.5812
  240SOL     OW  718   0.979   0.622   0.325 -0.4787 -0.2048  0.4521
  240SOL    HW1  719   0.979   0.528   0.279 -0.5709 -1.4891  1.8895
  240SOL    HW2  720   0.954   0.603   0.422  0.3975 -3.1761 -1.2755
  241SOL     OW  721   0.633   0.112   0.381 -0.2211  0.1313 -0.0652
  241SOL    HW1  722   0.667   0.175   0.308 -0.1017 -0.1773  1.6631
  241SOL    HW2  723   0.604   0.022   0.327 -1.4924 -1.4207 -1.8252
  242SOL     OW  724   0.677   2.475   1.114  0.0355  0.2476  0.2365
  242SOL    HW1  725   0.613   2.492   1.191 -0.2742  0.7290 -0.5787
  242SOL    HW2  726   0.754   2.543   1.107 -2.0298 -0.6239 -0.8499
  243SOL     OW  727   1.087   0.573   2.493 -0.1883 -0.3421  0.1175
  243SOL    HW1  728   1.005   0.623   2.458 -1.0510  1.5212 -2.0589
  243SOL    HW2  729   1.085   0.575   2.598 -2.6247  1.4975  0.1199
  244SOL     OW  730   2.767   1.887   2.343  0.2268 -0.0247 -0.3525
  244SOL    HW1  731   2.820   1.849   2.257 -3.2071 -0.8101  0.4086
  244SOL    HW2  732   2.698   1.818   2.376 -0.3785  2.3292 -1.2397
  245SOL     OW  733   2.427   0.643   2.180 -0.4687 -0.2648  0.0071
  245SOL    HW1  734   2.466   0.703   2.259  1.0248  1.6932  0.0067
  245SOL    HW2  735   2.491   0.564   2.168 -3.3961  1.1714 -0.9533
  246SOL     OW  736   0.223   2.903   1.666  0.0999 -0.2054 -0.2903
  246SOL    HW1  737   0.157   2.887   1.589  0.1808  0.0100  1.5014
  246SOL    HW2  738   0.287   2.985   1.657 -0.6119 -0.9132  1.4363
  247SOL     OW  739   2.162   0.571   3.022  0.4138  0.5404 -0.4833
  247SOL    HW1  740   2.253   0.572   2.978 -0.2444  1.2868  0.1048
  247SOL    HW2  741   2.133   0.664   3.051  1.3956 -4.6076  2.7898
  248SOL     OW  742   2.116   1.809   1.580  0.4472  0.4833 -0.0835
  248SOL    HW1  743   2.173   1.756   1.647 -0.3854  1.8740 -2.5235
  248SOL    HW2  744   2.016   1.806   1.606  0.6812  0.5174  3.4020
  249SOL     OW  745   1.940   1.898   1.941 -1.0097 -0.4551  0.0250
  249SOL    HW1  746   1.907   1.847   1.857 -0.9640 -1.3279  2.3042
  249SOL    HW2  747   2.013   1.969   1.918 -3.0420 -0.3040 -1.4216
  250SOL     OW  748   1.115   0.729   1.900  0.1245 -0.4770  0.0565
  250SOL    HW1  749   1.183   0.651   1.924 -1.5709 -2.5495 -1.0401
  250SOL    HW2  750   1.063   0.714   1.811  0.5137  0.4358 -0.2234
  251SOL     OW  751   3.080   1.579   2.539 -0.1312  0.1780 -0.0556
  251SOL    HW1  752   3.084   1.671   2.497  0.5632 -0.1014  0.9819
  251SOL    HW2  753   2.989   1.547   2.569  0.7198 -3.4509 -1.5749
  252SOL     OW  754   1.572   0.887   1.561 -0.4136 -0.1745  0.4486
  252SOL    HW1  755   1.575   0.916   1.465 -0.5715 -0.6342  0.0494
  252SOL    HW2  756   1.566   0.971   1.619  1.4213 -1.6332 -2.6368
  253SOL     OW  757   0.853   1.520   0.449 -0.1828  0.5937  0.5541
  253SOL    HW1  758   0.918   1.440   0.431 -1.2441  3.6986  1.7648
  253SOL    HW2  759   0.763   1.503   0.411 -2.4726  0.4595  0.2167
  254SOL     OW  760   2.056   2.121   1.577 -0.7853 -0.0524  0.0740
  254SOL    HW1  761   1.989   2.080   1.509  0.0118  0.3104  0.7636
  254SOL    HW2  762   2.004   2.155   1.660  0.4313 -1.8205 -0.1932
  255SOL     OW  763   0.114   1.174   2.922  0.2772 -0.0884 -0.4475
  255SOL    HW1  764   0.159   1.259   2.887  2.0190  0.1889 -0.9564
  255SOL    HW2  765   0.176   1.092   2.945 -0.9211  0.7601  1.7214
  256SOL     OW  766   2.764   1.376   1.730  0.4899 -0.0011 -0.2756
  256SOL    HW1  767   2.697   1.433   1.782 -0.4150  0.0167 -0.2675
  256SOL    HW2  768   2.733   1.282   1.706 -0.2606  2.0418 -3.3336
  257SOL     OW  769   0.841   0.165   1.779 -0.2074  0.4464  0.5701
  257SOL    HW1  770   0.904   0.243   1.755  0.2963  1.2320 -0.5580
  257SOL    HW2  771   0.886   0.073   1.760  2.1445 -1.8756  0.6019
  258SOL     OW  772   2.902   1.298   0.437 -0.3932  0.1390 -0.1161
  258SOL    HW1  773   2.841   1.380   0.423  1.8050 -0.7217  3.8103
  258SOL    HW2  774   2.948   1.297   0.528 -0.9072  0.7137  2.1596
  259SOL     OW  775   0.476   2.964   3.030 -0.4188 -0.0468  0.1103
  259SOL    HW1  776   0.393   2.909   3.064  0.5795  1.2514 -1.8331
  259SOL    HW2  777   0.489   2.958   2.928  1.4123  0.7322 -1.6197
  260SOL     OW  778   2.746   0.827   2.745  0.8168  0.0991  0.1720
  260SOL    HW1  779   2.650   0.810   2.759  3.1331 -1.1522  2.7940
  260SOL    HW2  780   2.785   0.866   2.832 -1.6413 -3.2619  1.0009
  261SOL     OW  781   2.750   1.325   1.306  0.3052 -0.2655 -0.4625
  261SOL    HW1  782   2.671   1.276   1.254 -0.5697 -1.3275  0.0094
  261SOL    HW2  783   2.792   1.259   1.375  0.9941  0.8380  3.4635
  262SOL     OW  784   1.432   3.000   2.018 -0.1438  0.1281  0.7617
  262SOL    HW1  785   1.463   3.067   1.947  0.7378 -2.7160  0.7700
  262SOL    HW2  786   1.345   2.950   1.984  0.8228  0.8307 -0.0516
  263SOL     OW  787   0.861   0.713   2.345  0.4669 -0.3615  0.1104
  263SOL    HW1  788   0.804   0.638   2.300  0.0396  0.5289 -2.5779
  263SOL    HW2  789   0.898   0.767   2.263  0.0457 -0.5908 -0.5359
  264SOL     OW  790   2.203   0.810   0.292 -0.2671  0.0384 -0.3566
  264SOL    HW1  791   2.117   0.863   0.322 -2.1636 -0.8961  1.3006
  264SOL    HW2  792   2.293   0.842   0.345  1.4274  2.3164  4.7150
  265SOL     OW  793   0.900   2.283   2.670  0.0844  0.3637  0.3007
  265SOL    HW1  794   0.922   2.339   2.755 -2.1765  0.1017 -0.1576
  265SOL    HW2  795   0.868   2.185   2.698  0.7691  2.5590 -1.0012
  266SOL     OW  796   1.321   1.735   0.017 -0.0585  0.0084  0.3464
  266SOL    HW1  797   1.319   1.820   0.081  1.3746 -1.1877  1.3107
  266SOL    HW2  798   1.419   1.715  -0.008 -0.3725  1.7151  1.9844
  267SOL     OW  799   0.963   3.047   2.362 -0.1635 -0.2820 -0.0837
  267SOL    HW1  800   0.972   3.005   2.265 -0.2002 -2.3056 -0.7835
  267SOL    HW2  801   0.946   3.148   2.355  0.8002 -0.4676 -2.0423
  268SOL     OW  802   0.692   1.145   1.094  0.0581 -0.0075  0.3968
  268SOL    HW1  803   0.690   1.189   1.189 -1.5039  3.7273  2.8988
  268SOL    HW2  804   0.692   1.218   1.019 -0.4692 -0.9341  1.3503
  269SOL     OW  805   2.387   2.487   1.543 -0.0539  0.3399  0.3414
  269SOL    HW1  806   2.474   2.433   1.549  0.6543  2.3744 -1.0199
  269SOL    HW2  807   2.343   2.516   1.636 -0.8415  1.0485 -0.1725
  270SOL     OW  808   0.131   3.053   1.910  0.0213 -0.1293  0.3710
  270SOL    HW1  809   0.179   3.004   1.831 -2.4408 -0.2140 -0.6408
  270SOL    HW2  810   0.060   2.994   1.955  1.5523 -0.3163  1.6022
  271SOL     OW  811   0.406   1.392   1.151 -0.3481 -0.3863  0.0672
  271SOL    HW1  812   0.394   1.419   1.049  1.2811 -0.5456  1.1153
  271SOL    HW2  813   0.317   1.389   1.207 -0.2799 -0.5811  1.1317
  272SOL     OW  814   1.965   2.880   1.910 -0.6835 -0.2474  0.9139
  272SOL    HW1  815   1.936   2.818   1.826 -0.2140 -1.3241 -3.0177
  272SOL    HW2  816   1.998   2.977   1.878 -0.7767 -3.0167 -0.8394
  273SOL     OW  817   1.449   1.474   2.787 -0.1014 -0.2034 -0.2734
  273SOL    HW1  818   1.347   1.503   2.795 -2.3746  2.0657 -1.2375
  273SOL    HW2  819   1.477   1.414   2.865 -1.4469  1.0010  2.1713
  274SOL     OW  820   1.269   0.507   1.997  0.2371 -0.3073  0.2718
  274SOL    HW1  821   1.237   0.405   1.993  1.4743 -0.3386 -1.0995
  274SOL    HW2  822   1.290   0.547   2.089  1.2323  1.9331  0.1927
  275SOL     OW  823   0.628   2.076   1.867 -0.7518  0.4357 -0.0202
  275SOL    HW1  824   0.598   2.167   1.909  2.8733 -0.2673 -0.5646
  275SOL    HW2  825   0.559   1.996   1.880 -0.6813 -2.6831 -1.6612
  276SOL     OW  826   2.149   0.921   2.799  0.1887  0.0927  0.3062
  276SOL    HW1  827   2.074   0.883   2.736 -0.7024 -0.7270 -1.2591
  276SOL    HW2  828   2.120   0.913   2.899  1.6614 -2.7905 -2.0359
  277SOL     OW  829   3.088   0.852   0.265 -0.1641 -0.3490 -0.5803
  277SOL    HW1  830   3.173   0.887   0.220 -1.5095  0.8944  0.1609
  277SOL    HW2  831   3.104   0.760   0.312 -2.8853  0.2174  0.9099
  278SOL     OW  832   0.246   0.280   3.082 -0.2332 -0.4544  0.4297
  278SOL    HW1  833   0.333   0.224   3.091 -1.0529 -0.2443 -0.1472
  278SOL    HW2  834   0.273   0.386   3.084  1.5711 -1.1138  2.2256
  279SOL     OW  835   0.149   0.110   0.911  0.0593  0.1963 -0.0119
  279SOL    HW1  836   0.164   0.096   1.013  1.6512  0.4530  0.0463
  279SOL    HW2  837   0.233   0.114   0.849 -0.9359 -0.0727 -1.6977
  280SOL     OW  838   1.561   2.906   2.524 -0.2964  0.1631 -0.4959
  280SOL    HW1  839   1.635   2.977   2.545 -1.7862  1.5731  1.1850
  280SOL    HW2  840   1.475   2.956   2.503 -0.2873 -1.1229  1.0330
  281SOL     OW  841   0.609   0.932   2.261 -0.5681  0.2732 -0.1436
  281SOL    HW1  842   0.607   0.843   2.206  1.6329 -2.4381 -0.9632
  281SOL    HW2  843   0.542   0.931   2.341 -2.2521 -2.3913 -0.1384
  282SOL     OW  844   1.770   2.458   0.521  0.3881  0.6635  0.1007
  282SOL    HW1  845   1.763   2.378   0.459  1.6655  3.6591 -1.6292
  282SOL    HW2  846   1.742   2.544   0.472  1.3678 -0.2909 -1.5443
  283SOL     OW  847   1.131   0.909   0.854 -0.1468 -0.1553  0.6565
  283SOL    HW1  848   1.173   0.840   0.915  0.2154  1.2128 -1.1205
  283SOL    HW2  849   1.090   0.988   0.903 -0.8328 -2.1565 -1.1865
  284SOL     OW  850   2.350   2.724   2.372 -0.2577 -1.0348  0.9152
  284SOL    HW1  851   2.410   2.807   2.355 -0.7408 -0.4747 -1.2927
  284SOL    HW2  852   2.314   2.714   2.469  2.2479 -1.3645 -2.6750
  285SOL     OW  853   1.314   3.055   2.543 -1.0633  0.0124 -0.1126
  285SOL    HW1  854   1.336   3.068   2.443  0.2970 -1.4232 -0.7192
  285SOL    HW2  855   1.214   3.075   2.569  2.6926 -0.5029 -0.1108
  286SOL     OW  856   0.460   0.414   0.760  0.0204  0.4551  0.3452
  286SOL    HW1  857   0.424   0.363   0.847 -2.2131 -1.1415  1.5442
  286SOL    HW2  858   0.471   0.359   0.670 -1.0037  0.4739 -1.6296
  287SOL     OW  859   0.121   1.307   2.541 -0.0416 -0.3227  0.1935
  287SOL    HW1  860   0.062   1.255   2.609 -1.2249  0.1899  0.1846
  287SOL    HW2  861   0.087   1.409   2.543  1.9374 -2.0054 -1.3599
  288SOL     OW  862   1.569   2.681   1.573  0.1938  0.1232  0.0722
  288SOL    HW1  863   1.574   2.602   1.631  1.8892  3.0575 -4.3407
  288SOL    HW2  864   1.650   2.689   1.506  0.5685 -0.0058 -2.4925
  289SOL     OW  865   0.569   2.735   0.812  0.0146 -0.1470  0.4840
  289SOL    HW1  866   0.654   2.773   0.762  0.1056  0.7436  1.7418
  289SOL    HW2  867   0.555   2.781   0.903 -1.8098 -0.4010  2.2382
  290SOL     OW  868   2.821   1.098   1.708 -0.1677  0.2566 -0.0970
  290SOL    HW1  869   2.773   1.009   1.684 -0.6334  0.8532  3.6401
  290SOL    HW2  870   2.897   1.078   1.772 -1.1233 -0.1795 -1.7401
  291SOL     OW  871   1.964   0.087   0.087  0.4681  0.0808  0.4248
  291SOL    HW1  872   1.982   0.041   0.180 -2.4166 -1.6114  1.8970
  291SOL    HW2  873   2.020   0.167   0.061  1.1060 -1.2365 -1.6153
  292SOL     OW  874   2.972   1.181   3.080 -0.0044 -0.3924 -0.0008
  292SOL    HW1  875   2.917   1.264   3.044  1.3365  3.2385 -0.5995
  292SOL    HW2  876   3.068   1.174   3.036  1.4329  0.6018  0.1998
  293SOL     OW  877   0.577   2.134   0.136  0.3212  0.0638 -0.3291
  293SOL    HW1  878   0.546   2.208   0.204 -1.1348  1.8533 -1.5664
  293SOL    HW2  879   0.665   2.095   0.163 -1.3008  3.5136 -0.6367
  294SOL     OW  880   1.764   2.238   1.761  0.4447 -0.2800  0.3076
  294SOL    HW1  881   1.835   2.307   1.789  1.0575 -0.5359  1.1248
  294SOL    HW2  882   1.714   2.250   1.666 -0.5150 -0.2553 -1.3049
  295SOL     OW  883   0.998   1.025   0.520 -0.1286 -0.3800 -0.3565
  295SOL    HW1  884   1.097   1.021   0.545 -4.4275  0.6095 -3.8447
  295SOL    HW2  885   0.931   1.011   0.598  1.3295  0.6240  1.4674
  296SOL     OW  886   1.248   2.109   2.524 -0.4162 -0.3438  0.1759
  296SOL    HW1  887   1.275   2.137   2.431 -0.2613  0.5310 -0.1164
  296SOL    HW2  888   1.213   2.011   2.536  0.9606  0.9978 -0.8719
  297SOL     OW  889   1.443   0.618   1.368 -0.2413  0.3661 -0.4324
  297SOL    HW1  890   1.424   0.519   1.392 -0.0261  1.5911 -1.1025
  297SOL    HW2  891   1.531   0.662   1.410  0.6106  3.6984 -0.7097
  298SOL     OW  892   0.486   1.392   2.972  0.5544  0.0279  0.6797
  298SOL    HW1  893   0.479   1.313   3.043 -0.1012  0.2442 -0.1337
  298SOL    HW2  894   0.563   1.396   2.909  0.1380  2.4362  0.0327
  299SOL     OW  895   0.508   0.243   1.362 -0.1076  0.3162 -0.3943
  299SOL    HW1  896   0.517   0.342   1.326  1.3146 -1.3435 -0.4722
  299SOL    HW2  897   0.576   0.236   1.439  1.0993 -1.8850 -2.5629
  300SOL     OW  898   1.205   1.841   2.833  0.6771  0.1129 -0.2680
  300SOL    HW1  899   1.195   1.742   2.819 -1.3669  3.2802 -1.5412
  300SOL    HW2  900   1.306   1.866   2.832 -0.5881 -1.6163 -1.3371
  301SOL     OW  901   0.478   0.295   0.525 -0.2222  0.9094 -0.2391
  301SOL    HW1  902   0.388   0.251   0.544  1.1141 -2.2269  0.2963
  301SOL    HW2  903   0.544   0.235   0.471  0.1009 -2.1090  1.1743
  302SOL     OW  904   1.210   2.382   2.320  0.3715  0.0844  0.3113
  302SOL    HW1  905   1.116   2.403   2.367 -1.8199 -0.0244 -0.2665
  302SOL    HW2  906   1.212   2.290   2.282 -1.4658  2.0705 -0.1776
  303SOL     OW  907   0.970   2.335   0.825  0.3073  0.2581 -0.0677
  303SOL    HW1  908   1.027   2.393   0.765 -1.6510  1.1112 -0.1539
  303SOL    HW2  909   0.968   2.383   0.917 -1.6176 -0.1548 -0.5503
  304SOL     OW  910   0.138   2.031   0.624 -0.1685 -0.1475 -0.7776
  304SOL    HW1  911   0.170   1.983   0.537  0.2594  0.0670  1.0384
  304SOL    HW2  912   0.080   2.118   0.603 -2.5046 -0.5912  1.0731
  305SOL     OW  913   1.644   0.926   0.573 -0.0479 -0.1036  0.0510
  305SOL    HW1  914   1.576   0.898   0.499  0.8710  1.4048  0.9211
  305SOL    HW2  915   1.664   0.844   0.630 -0.6539 -0.8300 -3.0513
  306SOL     OW  916   0.449   1.879   1.920  0.2998 -0.2038 -0.9885
  306SOL    HW1  917   0.507   1.800   1.901 -0.8562  1.3842  0.0997
  306SOL    HW2  918   0.423   1.882   2.019  2.3393  0.9253 -0.4997
  307SOL     OW  919   3.083   0.919   2.513  0.1029  0.1157 -0.3165
  307SOL    HW1  920   3.077   1.007   2.574 -0.6117  0.3241  1.0302
  307SOL    HW2  921   3.018   0.846   2.556 -2.4799  0.9860  1.0249
  308SOL     OW  922   1.557   2.678   2.842  0.0932 -0.0547  0.2714
  308SOL    HW1  923   1.543   2.604   2.769 -0.8047 -0.5100 -1.3539
  308SOL    HW2  924   1.519   2.648   2.937  0.5599 -0.0344 -2.0061
  309SOL     OW  925   1.213   0.071   1.763  0.1439  0.4435 -0.0974
  309SOL    HW1  926   1.315   0.064   1.783  0.1260 -0.6068  1.5429
  309SOL    HW2  927   1.193   0.128   1.677 -1.5534 -0.0883  0.6944
  310SOL     OW  928   1.494   2.530   0.652  0.0037 -0.3078 -0.1277
  310SOL    HW1  929   1.485   2.570   0.747 -0.8121 -0.4863 -1.7924
  310SOL    HW2  930   1.554   2.591   0.592 -2.6370 -0.6203  1.1287
  311SOL     OW  931   1.158   0.949   1.589  0.1473  0.3777  0.1737
  311SOL    HW1  932   1.226   0.879   1.613 -1.6134  0.9305  2.3278
  311SOL    HW2  933   1.202   1.042   1.585 -0.1402 -0.8128  1.4294
  312SOL     OW  934   1.619   0.684   0.988 -0.8568  0.3445  0.8491
  312SOL    HW1  935   1.584   0.777   0.946 -0.4607  0.0525  0.3351
  312SOL    HW2  936   1.542   0.625   1.026 -0.4174  1.2420 -1.7069
  313SOL     OW  937   1.585   1.403   0.705 -0.1630  0.0183  0.3659
  313SOL    HW1  938   1.499   1.444   0.736 -0.1229 -0.6941 -0.8991
  313SOL    HW2  939   1.557   1.313   0.659 -1.6386  1.1615 -0.4440
  314SOL     OW  940   2.968   0.042   3.033  0.2619  0.4725  0.1599
  314SOL    HW1  941   2.975   0.079   3.132 -0.5025  3.0604  0.4933
  314SOL    HW2  942   2.871   0.010   3.009  0.4855  1.5458  0.8327
  315SOL     OW  943   1.229   0.213   2.813  0.2826  0.3146  0.1886
  315SOL    HW1  944   1.216   0.143   2.738  2.7444 -0.7707 -0.8943
  315SOL    HW2  945   1.223   0.175   2.909  2.5592  1.5634 -2.9107
  316SOL     OW  946   1.715   2.054   0.854  0.3861 -0.2674  0.3713
  316SOL    HW1  947   1.653   2.062   0.936 -0.3564 -0.5897  2.2208
  316SOL    HW2  948   1.734   2.149   0.812 -0.8877 -0.4894 -1.9928
  317SOL     OW  949   1.128   0.673   2.883 -0.1264 -0.5432 -0.3710
  317SOL    HW1  950   1.069   0.700   2.968  1.5005  1.5917  3.0030
  317SOL    HW2  951   1.107   0.583   2.841  0.6431 -1.5544  0.5807
  318SOL     OW  952   1.335   3.068   2.280  0.2827  0.0844  0.5052
  318SOL    HW1  953   1.323   3.161   2.244  1.3084 -0.5251  1.5535
  318SOL    HW2  954   1.379   3.014   2.204  0.1050  2.4275 -0.5793
  319SOL     OW  955   0.699   2.451   2.941  1.0830 -0.9706  0.1409
  319SOL    HW1  956   0.642   2.400   3.010  0.9578 -0.1849 -0.9204
  319SOL    HW2  957   0.795   2.472   2.970  0.7567  1.7127  1.0565
  320SOL     OW  958   1.703   2.220   0.382 -0.1579  0.8464  0.1955
  320SOL    HW1  959   1.796   2.167   0.372  0.5263  0.2860 -2.5277
  320SOL    HW2  960   1.621   2.162   0.394  2.4968  2.2089  1.6207
  321SOL     OW  961   1.675   2.725   0.474  0.1570  0.8872 -0.3534
  321SOL    HW1  962   1.610   2.764   0.400 -0.8190  0.6227  1.9172
  321SOL    HW2  963   1.772   2.763   0.459 -0.5034  1.5155  0.5579
  322SOL     OW  964   2.564   1.153   2.422  0.7036  0.1519  0.5644
  322SOL    HW1  965   2.659   1.181   2.449 -0.4901  2.2881 -1.1062
  322SOL    HW2  966   2.564   1.069   2.362 -0.5636  2.2486  0.8265
  323SOL     OW  967   1.134   2.630   0.835 -0.0420  0.1162  0.1732
  323SOL    HW1  968   1.143   2.569   0.750  0.3765  0.0533  0.1065
  323SOL    HW2  969   1.133   2.732   0.809  1.7033  0.6242  0.1530
  324SOL     OW  970   0.247   2.524   2.536  0.1491 -0.5748  0.1168
  324SOL    HW1  971   0.285   2.538   2.633 -0.7482  2.2476  2.9014
  324SOL    HW2  972   0.144   2.549   2.531 -0.9791  1.5498 -0.4826
  325SOL     OW  973   1.267   3.026   0.479 -0.0776 -0.5625  0.3732
  325SOL    HW1  974   1.276   3.067   0.381  1.3659  0.0081 -1.2032
  325SOL    HW2  975   1.308   3.092   0.551  1.7504 -0.8319 -0.5876
  326SOL     OW  976   2.428   0.781   3.088 -0.0937  0.2104 -0.1345
  326SOL    HW1  977   2.364   0.736   3.017 -1.5854 -0.2250  0.6429
  326SOL    HW2  978   2.467   0.713   3.156 -1.2813 -0.1086 -0.2238
  327SOL     OW  979   2.835   0.378   0.626 -0.3288  0.2287  0.4531
  327SOL    HW1  980   2.825   0.353   0.526 -1.1502  0.5072  0.0157
  327SOL    HW2  981   2.832   0.300   0.691  2.5809  2.6150  0.7747
  328SOL     OW  982   2.544   0.583   0.383  0.0842 -0.1216 -0.2484
  328SOL    HW1  983   2.503   0.679   0.378  1.7859  4.1183 -2.9574
  328SOL    HW2  984   2.508   0.531   0.464 -0.5622 -0.7008  1.3387
  329SOL     OW  985   2.972   2.977   2.155 -0.4082  0.3183  0.1482
  329SOL    HW1  986   3.028   2.896   2.189  0.2702 -2.1022 -1.7354
  329SOL    HW2  987   2.999   3.065   2.204 -0.7455 -0.1319  2.5693
  330SOL     OW  988   0.572   0.156   1.863 -0.0773  0.2583  0.3892
  330SOL    HW1  989   0.665   0.156   1.821 -0.2262 -0.7794  0.6148
  330SOL    HW2  990   0.558   0.097   1.948  1.7513 -0.0759 -0.1734
  331SOL     OW  991   2.976   1.915   1.160  0.4264 -0.2020 -0.4212
  331SOL    HW1  992   3.021   1.989   1.104 -0.5614 -0.2888 -0.0032
  331SOL    HW2  993   2.896   1.958   1.216 -0.4432  0.1691 -0.6393
  332SOL     OW  994   0.451   1.141   0.021 -0.0021  0.0061 -0.1555
  332SOL    HW1  995   0.392   1.073  -0.029  0.5149  0.0538 -0.6886
  332SOL    HW2  996   0.398   1.173   0.106  0.3841  0.2890 -1.1793
  333SOL     OW  997   2.901   1.057   0.303 -0.1233 -0.4625  0.8312
  333SOL    HW1  998   2.929   1.141   0.360 -1.3345  0.1710 -2.0085
  333SOL    HW2  999   2.969   0.979   0.301  1.3151  0.1282  0.3386
  334SOL     OW 1000   1.719   1.234   1.827 -0.3839 -0.2425  0.1325
  334SOL    HW1 1001   1.814   1.202   1.801 -0.3342  2.2326 -0.0953
  334SOL    HW2 1002   1.724   1.280   1.920 -1.0012  1.0462  1.5087
  335SOL     OW 1003   1.963   2.780   2.597  0.5311 -0.1413 -0.1006
  335SOL    HW1 1004   1.875   2.741   2.640  0.8302  3.5377  0.1318
  335SOL    HW2 1005   2.029   2.824   2.665 -0.3559  0.0144 -2.2927
  336SOL     OW 1006   0.276   0.119   2.805  0.2336  0.7389 -0.3675
  336SOL    HW1 1007   0.346   0.124   2.878 -0.1489  0.8288 -4.2315
  336SOL    HW2 1008   0.193   0.178   2.823  0.7810 -0.3854  0.4307
  337SOL     OW 1009   0.931   2.768   2.824 -0.1708 -0.4153  0.2311
  337SOL    HW1 1010   0.902   2.731   2.917  0.2880 -0.0555 -0.1033
  337SOL    HW2 1011   1.031   2.738   2.810  1.0931  0.2961  3.3124
  338SOL     OW 1012   0.017   1.049   0.643 -0.3763  0.2189 -0.0922
  338SOL    HW1 1013  -0.070   0.998   0.677  0.5986 -2.0414 -1.3625
  338SOL    HW2 1014   0.007   1.149   0.670  1.7504  0.7733  0.2036
  339SOL     OW 1015   1.711   1.350   2.085  0.0496 -0.1531 -0.0504
  339SOL    HW1 1016   1.608   1.346   2.096  1.0118 -0.8002  0.5165
  339SOL    HW2 1017   1.758   1.429   2.133  1.5140  0.7571  0.7658
  340SOL     OW 1018   2.331   0.745   1.179 -0.1439  1.0207 -0.5488
  340SOL    HW1 1019   2.241   0.787   1.166  0.0806 -1.2007  1.8826
  340SOL    HW2 1020   2.363   0.687   1.097 -0.0161  1.1532  0.2818
  341SOL     OW 1021   1.951   2.084   0.337  0.7517  0.0663 -0.2311
  341SOL    HW1 1022   1.973   2.135   0.248 -0.5034  1.5180 -0.0475
  341SOL    HW2 1023   2.034   2.040   0.378 -0.4452 -0.5320 -1.0003
  342SOL     OW 1024   2.236   2.098   2.719  0.5326  0.4085 -0.0334
  342SOL    HW1 1025   2.298   2.014   2.729  0.4209  2.0878 -0.6285
  342SOL    HW2 1026   2.132   2.079   2.721  0.3559  1.4445 -0.5897
  343SOL     OW 1027   0.390   0.880   2.782 -0.1145 -0.0771 -0.4174
  343SOL    HW1 1028   0.398   0.957   2.707  1.4321  1.6531  0.9805
  343SOL    HW2 1029   0.482   0.839   2.807 -2.4821 -1.3437 -3.7430
  344SOL     OW 1030   1.943   1.397   0.386 -0.9961  0.2047  0.3169
  344SOL    HW1 1031   1.929   1.311   0.327  2.3429  0.0573 -1.9233
  344SOL    HW2 1032   1.855   1.439   0.422  0.1453 -0.5433  0.8856
  345SOL     OW 1033   1.419   2.270   2.887  0.4083 -0.4354  0.5220
  345SOL    HW1 1034   1.332   2.214   2.869 -1.5270 -0.7267  0.9216
  345SOL    HW2 1035   1.503   2.237   2.836  1.0450 -0.9481 -1.6615
  346SOL     OW 1036   2.388   0.918   1.392  0.6202 -0.1392  0.2680
  346SOL    HW1 1037   2.338   1.010   1.406  0.7138  0.9932  0.2345
  346SOL    HW2 1038   2.347   0.851   1.324  0.8586 -1.1314 -0.1567
  347SOL     OW 1039   0.748   2.786   1.474  0.3392  0.6236  0.7521
  347SOL    HW1 1040   0.721   2.716   1.548 -0.8156 -1.0930 -0.4092
  347SOL    HW2 1041   0.686   2.871   1.468  0.9202 -0.5814  0.8993
  348SOL     OW 1042   0.181   0.663   2.844  0.9920  0.1886 -0.1401
  348SOL    HW1 1043   0.076   0.680   2.837 -4.0276  0.3008  1.2601
  348SOL    HW2 1044   0.240   0.715   2.773 -0.3167 -0.7167  0.9755
  349SOL     OW 1045   1.852   0.437   2.778  0.4150 -0.0826 -0.0161
  349SOL    HW1 1046   1.814   0.507   2.707 -0.4139  2.7660  1.8224
  349SOL    HW2 1047   1.820   0.463   2.874  0.8565  1.0313  0.6048
  350SOL     OW 1048   1.613   0.420   0.360  0.7487 -0.0543 -0.5677
  350SOL    HW1 1049   1.662   0.430   0.454  2.2159 -1.1446  0.8466
  350SOL    HW2 1050   1.607   0.504   0.300  1.3523  0.6854 -1.8225
  351SOL     OW 1051   0.988   0.866   2.154  0.1160  0.5151  0.2532
  351SOL    HW1 1052   0.957   0.960   2.135  1.6614 -0.9700  3.4756
  351SOL    HW2 1053   1.027   0.825   2.067  0.1164  0.2681  0.8466
  352SOL     OW 1054   2.047   1.321   0.618 -0.5479  0.8531 -0.7058
  352SOL    HW1 1055   2.046   1.350   0.524 -0.1204  0.2114  0.5399
  352SOL    HW2 1056   2.141   1.330   0.663  1.0046  0.0656  0.2491
  353SOL     OW 1057   2.186   2.874   1.053  0.3691 -0.8194  0.0360
  353SOL    HW1 1058   2.243   2.834   1.130 -1.2346 -0.1245  0.4953
  353SOL    HW2 1059   2.104   2.815   1.030  2.8248 -3.2984 -0.2042
  354SOL     OW 1060   0.257   1.404   2.832 -0.2786  0.4979 -0.3794
  354SOL    HW1 1061   0.239   1.478   2.767 -0.7351  0.4555 -0.9054
  354SOL    HW2 1062   0.356   1.404   2.870  1.2247 -2.5317  0.5893
  355SOL     OW 1063   0.489   1.504   0.505  0.2355  0.1649  0.4366
  355SOL    HW1 1064   0.475   1.563   0.588 -0.5546  0.4725 -0.0674
  355SOL    HW2 1065   0.570   1.440   0.512  1.7415  1.4962  1.7165
  356SOL     OW 1066   0.852   0.246   2.056 -0.2198 -0.1654 -0.2845
  356SOL    HW1 1067   0.952   0.237   2.072 -2.8819  0.3548  1.2532
  356SOL    HW2 1068   0.815   0.233   1.957 -0.5279  0.4722 -0.9499
  357SOL     OW 1069   0.974   1.285   0.386  0.3284 -0.4525 -0.4489
  357SOL    HW1 1070   0.937   1.265   0.292 -1.3218 -0.4007  0.8279
  357SOL    HW2 1071   0.985   1.204   0.451 -0.0679 -0.3684 -1.3953
  358SOL     OW 1072   1.709   1.484   0.463 -0.1433 -0.6999  0.0285
  358SOL    HW1 1073   1.678   1.457   0.559  0.2750 -1.4292 -1.6168
  358SOL    HW2 1074   1.634   1.476   0.390  1.5625 -2.0158 -1.9051
  359SOL     OW 1075   1.585   2.716   0.116 -0.1751 -0.5848  0.5047
  359SOL    HW1 1076   1.574   2.621   0.081 -1.3079 -2.1671 -0.9997
  359SOL    HW2 1077   1.495   2.768   0.108  0.5209 -1.9971  0.1855
  360SOL     OW 1078   0.879   0.572   0.580 -0.4791 -0.6055 -0.0020
  360SOL    HW1 1079   0.817   0.606   0.660  0.2907  1.4259  1.6090
  360SOL    HW2 1080   0.921   0.477   0.600  1.6346 -0.3886 -0.2844
  361SOL     OW 1081   1.205   1.351   0.751  0.4715 -0.0949  1.1714
  361SOL    HW1 1082   1.251   1.418   0.811  0.1882  1.0196 -3.7136
  361SOL    HW2 1083   1.101   1.373   0.735  0.0152 -1.2246 -0.3853
  362SOL     OW 1084   1.346   1.866   0.808  0.0023 -0.2585 -0.0510
  362SOL    HW1 1085   1.392   1.814   0.889  1.5779  1.0197  0.8126
  362SOL    HW2 1086   1.415   1.890   0.737  0.2854  0.6783  0.3685
  363SOL     OW 1087   1.205   1.293   2.014 -0.0417 -0.3968  0.3104
  363SOL    HW1 1088   1.290   1.310   2.070  0.2659  1.2021 -2.0265
  363SOL    HW2 1089   1.178   1.378   1.961 -0.3499 -0.2699 -1.8651
  364SOL     OW 1090   0.490   2.312   1.957  0.0471  0.1472 -0.0571
  364SOL    HW1 1091   0.388   2.318   1.952 -2.0025 -0.6379  2.1940
  364SOL    HW2 1092   0.538   2.357   1.873 -2.0048  3.1072 -0.7858
  365SOL     OW 1093   0.996   1.864   1.439  0.0163  0.0150 -0.1079
  365SOL    HW1 1094   0.903   1.915   1.440  0.2270  1.5774  0.9418
  365SOL    HW2 1095   0.987   1.776   1.388 -0.8763  2.1707 -2.7548
  366SOL     OW 1096   2.743   2.079   0.447 -0.0485  0.3868 -0.5848
  366SOL    HW1 1097   2.646   2.056   0.432  0.1873 -0.7106  0.4023
  366SOL    HW2 1098   2.814   2.012   0.402  0.6572 -0.2872  1.1352
  367SOL     OW 1099   0.916   1.124   0.147 -0.1804 -0.1183 -0.7799
  367SOL    HW1 1100   0.922   1.035   0.200  1.2822 -1.6069 -1.7757
  367SOL    HW2 1101   0.979   1.125   0.065  0.7813 -0.7902 -0.2437
  368SOL     OW 1102   1.453   0.545   0.700  0.0067 -0.5909  0.7553
  368SOL    HW1 1103   1.421   0.572   0.606 -2.0303 -0.9874  0.9613
  368SOL    HW2 1104   1.529   0.610   0.724 -0.1342 -2.4011 -0.7897
  369SOL     OW 1105   0.214   1.720   0.050  0.0228  0.3432  0.1081
  369SOL    HW1 1106   0.252   1.803   0.104  1.1216 -1.7141  1.7293
  369SOL    HW2 1107   0.123   1.686   0.082  0.9816  0.9164 -0.8418
  370SOL     OW 1108   0.463   2.078   1.030  0.3954  0.2046 -0.2493
  370SOL    HW1 1109   0.484   2.179   1.005 -0.4257  0.9175  0.6076
  370SOL    HW2 1110   0.378   2.044   0.987  1.9141 -1.2860 -0.4559
  371SOL     OW 1111   2.900   2.177   2.673  0.2869 -0.1345 -0.2223
  371SOL    HW1 1112   2.848   2.126   2.747 -0.1252  0.4759  1.1381
  371SOL    HW2 1113   2.994   2.221   2.701 -1.6444 -1.6956 -1.2585
  372SOL     OW 1114   1.122   1.980   1.140  0.3563  0.1746  0.4980
  372SOL    HW1 1115   1.059   2.010   1.069  0.2234  0.3242 -0.8898
  372SOL    HW2 1116   1.195   2.045   1.165  1.4427 -1.8162  0.6023
  373SOL     OW 1117   1.982   2.016   0.863 -0.3762 -0.7801  0.4350
  373SOL    HW1 1118   2.046   1.985   0.938 -1.1148  0.8880 -0.2093
  373SOL    HW2 1119   1.882   2.031   0.891  1.4218  0.9075 -0.0156
  374SOL     OW 1120   1.763   0.475   0.573  0.6811 -0.2853 -0.3665
  374SOL    HW1 1121   1.787   0.428   0.664 -1.7107  0.1771  4.3963
  374SOL    HW2 1122   1.853   0.516   0.528 -2.0897  0.8547 -0.5912
  375SOL     OW 1123   2.414   2.197   1.126  0.1602  0.3399  0.5998
  375SOL    HW1 1124   2.487   2.153   1.063  2.0447 -0.3396  2.9002
  375SOL    HW2 1125   2.434   2.175   1.225  0.6296  1.6576 -0.0330
  376SOL     OW 1126   3.029   0.578   1.471  0.4584 -0.4511  0.1269
  376SOL    HW1 1127   3.063   0.650   1.537 -0.9320  1.2196 -0.9644
  376SOL    HW2 1128   2.926   0.567   1.480 -0.3440  0.2378  0.0764
  377SOL     OW 1129   2.236   2.843   0.365 -0.2729 -0.0365  0.2627
  377SOL    HW1 1130   2.223   2.943   0.331  0.0631  2.3566 -0.6774
  377SOL    HW2 1131   2.336   2.812   0.345 -0.5253  1.2283 -0.5219
  378SOL     OW 1132   1.843   1.802   2.653  0.0216  0.3152 -0.2910
  378SOL    HW1 1133   1.748   1.757   2.646  0.8737 -1.6189  1.2336
  378SOL    HW2 1134   1.923   1.730   2.671  3.1171  0.4503 -1.4060
  379SOL     OW 1135   0.857   0.127   2.749 -0.6271  0.5970 -0.0304
  379SOL    HW1 1136   0.827   0.042   2.710  4.1116  0.7513  1.3021
  379SOL    HW2 1137   0.825   0.210   2.695 -1.7620 -0.6512 -0.3900
  380SOL     OW 1138   1.515   1.162   0.565 -0.3121 -0.4249  0.0216
  380SOL    HW1 1139   1.414   1.140   0.588  1.4900 -0.5663  1.9657
  380SOL    HW2 1140   1.576   1.073   0.570  1.5641 -3.6251  1.3619
  381SOL     OW 1141   1.334   1.170   1.475  0.1486  0.1254  0.6706
  381SOL    HW1 1142   1.402   1.173   1.395  2.1801 -0.5364 -0.6309
  381SOL    HW2 1143   1.380   1.193   1.566 -0.0980  0.8417  1.5213
  382SOL     OW 1144   1.786   0.879   0.212 -0.2997  0.2120  0.2123
  382SOL    HW1 1145   1.834   0.854   0.128  0.0684 -1.3243 -0.3903
  382SOL    HW2 1146   1.834   0.859   0.301  0.6184 -0.7430 -0.9506
  383SOL     OW 1147   2.633   1.035   1.462 -0.8920 -0.2776 -0.7895
  383SOL    HW1 1148   2.547   1.010   1.406  1.5428 -0.8807 -0.6186
  383SOL    HW2 1149   2.715   0.994   1.418  1.8271 -1.6251  2.2659
  384SOL     OW 1150   0.938   2.284   0.134 -0.0947  0.1049  0.0657
  384SOL    HW1 1151   0.930   2.370   0.186  1.6298 -0.5311 -0.1835
  384SOL    HW2 1152   0.895   2.203   0.189 -2.0186  0.2061 -1.3428
  385SOL     OW 1153   3.002   2.028   1.741 -0.1207 -0.2459 -0.3322
  385SOL    HW1 1154   3.074   2.071   1.683  0.2146 -2.6534 -1.1926
  385SOL    HW2 1155   3.010   1.928   1.764  1.7095  2.3342 -0.7518
  386SOL     OW 1156   0.454   1.128   0.442 -0.2973 -0.6149 -0.3978
  386SOL    HW1 1157   0.423   1.028   0.450 -0.0035  0.8404 -0.1748
  386SOL    HW2 1158   0.399   1.184   0.369 -4.2947  1.3627 -0.1929
  387SOL     OW 1159   1.005   0.369   1.633 -0.4035  0.2076 -0.4288
  387SOL    HW1 1160   1.072   0.449   1.605  2.6620  2.1047 -0.1315
  387SOL    HW2 1161   0.956   0.331   1.548  1.6774  1.2179 -0.7042
  388SOL     OW 1162   1.202   2.654   1.768 -0.2482 -0.2661  0.0975
  388SOL    HW1 1163   1.234   2.650   1.666  0.1677  0.9954 -0.4338
  388SOL    HW2 1164   1.253   2.579   1.816 -1.1427  1.7790 -1.6022
  389SOL     OW 1165   0.206   3.065   1.149  0.1616  0.2476  0.8619
  389SOL    HW1 1166   0.156   3.091   1.235 -0.2081  2.9960  0.9507
  389SOL    HW2 1167   0.204   2.966   1.122  0.4844  1.6142  0.6637
  390SOL     OW 1168   1.053   0.951   1.282 -0.1911  0.1175  0.7170
  390SOL    HW1 1169   1.126   0.896   1.331 -1.4490 -0.3411  2.1082
  390SOL    HW2 1170   0.992   0.999   1.348  1.3993 -0.8794  0.3672
  391SOL     OW 1171   2.081   1.183   0.980  0.8402  0.3057 -0.5722
  391SOL    HW1 1172   1.999   1.121   1.003 -1.5200 -2.8625 -0.8226
  391SOL    HW2 1173   2.154   1.127   0.934 -2.4117 -1.3497  1.3820
  392SOL     OW 1174   0.888   2.653   3.072 -0.4483  0.2106 -0.0866
  392SOL    HW1 1175   0.801   2.655   3.133  0.7797 -1.4595 -2.6809
  392SOL    HW2 1176   0.975   2.691   3.119 -1.9242  0.4161 -0.1681
  393SOL     OW 1177   0.404   0.465   2.070 -0.3294 -0.7105 -0.5029
  393SOL    HW1 1178   0.323   0.436   2.010  0.0486 -0.1981  0.3120
  393SOL    HW2 1179   0.489   0.441   2.015 -1.9315 -0.3711  0.8301
  394SOL     OW 1180   3.006   1.775   2.756  0.5765 -0.3365 -0.6680
  394SOL    HW1 1181   3.089   1.809   2.805  0.6486  0.5828  1.0241
  394SOL    HW2 1182   2.990   1.815   2.658  0.0206  0.9662  0.7847
  395SOL     OW 1183   1.576   1.926   0.664  0.1005 -0.2201 -0.9684
  395SOL    HW1 1184   1.637   1.862   0.612  1.1472 -1.4437  0.6194
  395SOL    HW2 1185   1.619   1.973   0.744  2.6898 -2.8134 -1.3190
  396SOL     OW 1186   2.760   1.974   1.336 -0.6672 -0.1767 -0.3120
  396SOL    HW1 1187   2.766   2.012   1.433  0.6467  1.0972  0.4721
  396SOL    HW2 1188   2.690   1.896   1.335  2.1344 -1.3370 -0.1097
  397SOL     OW 1189   1.035   2.114   0.621  0.1925  0.7441 -0.0901
  397SOL    HW1 1190   0.979   2.063   0.551 -0.5280  0.8984 -1.6319
  397SOL    HW2 1191   0.991   2.199   0.664  1.4877 -2.3361 -0.0360
  398SOL     OW 1192   2.245   0.033   0.989  0.2912  0.1206 -0.1606
  398SOL    HW1 1193   2.213  -0.071   1.000 -1.6942 -0.9775 -0.8385
  398SOL    HW2 1194   2.174   0.097   1.025  0.5018  0.5172  0.4451
  399SOL     OW 1195   2.858   2.553   2.776  0.3493 -0.3141 -0.1611
  399SOL    HW1 1196   2.843   2.489   2.702  1.5493  0.4688  3.6427
  399SOL    HW2 1197   2.815   2.517   2.867 -2.3735  0.5297 -0.6868
  400SOL     OW 1198   0.755   1.570   1.268  0.3367 -0.0220 -0.3135
  400SOL    HW1 1199   0.712   1.608   1.354 -0.6645  2.0617  0.7170
  400SOL    HW2 1200   0.805   1.648   1.218  0.5488  0.2204  0.6629
  401SOL     OW 1201   1.835   0.162   1.303  0.0032 -0.3494  0.3384
  401SOL    HW1 1202   1.893   0.189   1.385 -1.5168  1.4806  1.5346
  401SOL    HW2 1203   1.732   0.189   1.321 -2.1715  0.6328  0.4146
  402SOL     OW 1204   1.331   0.149   3.080 -0.1652 -0.2128 -0.3307
  402SOL    HW1 1205   1.422   0.125   3.042 -2.1303  0.2827  1.9198
  402SOL    HW2 1206   1.328   0.249   3.110  1.5562 -0.1530  0.7436
  403SOL     OW 1207   2.306   1.852   0.907 -0.0167  0.0059 -0.2301
  403SOL    HW1 1208   2.392   1.818   0.955  3.5396 -0.5245 -1.4833
  403SOL    HW2 1209   2.255   1.924   0.959 -0.6607 -1.6134  0.3828
  404SOL     OW 1210   0.198   2.476   2.884 -0.2083 -0.1528  0.4328
  404SOL    HW1 1211   0.281   2.444   2.831  0.6178  0.2803 -2.1694
  404SOL    HW2 1212   0.182   2.576   2.884 -1.3687  0.0612  1.4868
  405SOL     OW 1213   0.194   2.523   0.601  0.1791 -0.3923 -0.2359
  405SOL    HW1 1214   0.133   2.523   0.518  0.6044  2.7421 -0.2602
  405SOL    HW2 1215   0.257   2.601   0.598 -3.8518  0.7960  0.6036
  406SOL     OW 1216   0.050   1.478   2.992  0.1016 -0.4486 -0.8712
  406SOL    HW1 1217   0.135   1.434   2.947 -1.0814  2.1253 -0.5103
  406SOL    HW2 1218   0.053   1.495   3.090 -1.9757  0.0270 -4.2291
  407SOL     OW 1219   1.562   0.929   0.891  0.2212 -0.0242  0.0214
  407SOL    HW1 1220   1.530   0.916   0.792  0.1744  0.8480 -0.6591
  407SOL    HW2 1221   1.519   1.009   0.941 -0.6274 -0.1936 -1.2197
  408SOL     OW 1222   1.595   2.354   1.014  0.1170 -0.9261  0.2934
  408SOL    HW1 1223   1.613   2.352   0.914  1.5175 -1.9935 -0.5576
  408SOL    HW2 1224   1.605   2.451   1.062 -0.4485 -1.9478 -1.3729
  409SOL     OW 1225   0.534   0.864   0.772  0.0972  0.5836  0.3386
  409SOL    HW1 1226   0.509   0.887   0.675 -0.1189  0.6718 -0.6732
  409SOL    HW2 1227   0.558   0.760   0.780  3.0877  1.9777  0.2512
  410SOL     OW 1228   1.245   2.009   1.403 -0.0342 -0.2092  0.1565
  410SOL    HW1 1229   1.285   1.999   1.495  0.3053 -0.6810 -6.2291
  410SOL    HW2 1230   1.152   1.968   1.381 -0.1812 -0.7894 -0.1575
  411SOL     OW 1231   2.445   1.845   3.064  0.0007  0.9937 -0.2614
  411SOL    HW1 1232   2.371   1.881   3.000 -0.8898  0.9327 -0.1367
  411SOL    HW2 1233   2.527   1.806   3.009  1.4503  1.0280 -1.6096
  412SOL     OW 1234   1.484   2.496   2.234 -0.0215  0.3368  0.3759
  412SOL    HW1 1235   1.531   2.575   2.286  0.7866  2.9806 -0.3353
  412SOL    HW2 1236   1.421   2.449   2.300  1.0396 -0.3776 -0.0045
  413SOL     OW 1237   0.015   0.256   2.956  0.2548 -0.6096 -0.2644
  413SOL    HW1 1238  -0.026   0.170   3.003 -0.1097 -0.2469 -1.3034
  413SOL    HW2 1239   0.111   0.266   2.990 -2.0834 -0.0561  0.9165
  414SOL     OW 1240   1.768   1.459   1.382 -0.3022 -0.0295 -0.2867
  414SOL    HW1 1241   1.684   1.514   1.410  0.5037  0.1080  1.2839
  414SOL    HW2 1242   1.758   1.401   1.297  0.2361 -1.6534 -3.0102
  415SOL     OW 1243   0.346   2.255   0.653 -0.1659 -0.7676  0.7080
  415SOL    HW1 1244   0.301   2.342   0.627  1.0596 -1.1033  1.3683
  415SOL    HW2 1245   0.283   2.173   0.633  0.9139 -2.2295 -0.4603
  416SOL     OW 1246   0.333   1.027   1.058 -0.4754 -0.0543 -0.2636
  416SOL    HW1 1247   0.303   0.980   0.968  1.1800 -1.6915  0.6366
  416SOL    HW2 1248   0.426   1.073   1.038  1.6137  2.3615 -1.1673
  417SOL     OW 1249   2.117   2.344   1.874 -0.0886 -0.4318 -0.1127
  417SOL    HW1 1250   2.134   2.241   1.891 -0.3969 -2.9082  0.7099
  417SOL    HW2 1251   2.031   2.377   1.925 -0.6412 -1.1451  0.2165
  418SOL     OW 1252   1.085   0.502   1.267 -0.2669 -0.1439  0.2339
  418SOL    HW1 1253   0.985   0.518   1.250 -0.2294  1.5509  0.6739
  418SOL    HW2 1254   1.132   0.424   1.212  0.5977  1.2253 -4.2005
  419SOL     OW 1255   1.048   0.327   3.047 -0.1195  0.1169  0.1334
  419SOL    HW1 1256   1.060   0.375   2.958 -1.9934  0.9508  3.0707
  419SOL    HW2 1257   0.984   0.251   3.035  2.5976  1.2460  1.3136
  420SOL     OW 1258   0.198   2.250   0.370 -0.2335 -0.3320  0.0791
  420SOL    HW1 1259   0.171   2.161   0.324 -2.9586  0.6875  1.9915
  420SOL    HW2 1260   0.128   2.276   0.443  1.4466 -0.3427  3.0724
  421SOL     OW 1261   0.312   3.101   0.670  0.1120  0.1480 -0.2732
  421SOL    HW1 1262   0.264   3.010   0.654  2.3392 -0.3163 -0.3943
  421SOL    HW2 1263   0.415   3.095   0.673 -3.5058 -0.3960 -1.5713
  422SOL     OW 1264   0.988   2.545   1.046  0.1244  0.3775  0.4412
  422SOL    HW1 1265   1.052   2.577   0.969 -1.1319 -0.1618  0.1079
  422SOL    HW2 1266   1.009   2.574   1.145 -3.0616 -0.4024  1.0792
  423SOL     OW 1267   0.080   0.660   1.234  0.3231  0.2334  0.1893
  423SOL    HW1 1268   0.007   0.631   1.298  1.1602 -0.0697  1.4423
  423SOL    HW2 1269   0.078   0.757   1.195 -0.3696 -3.2283 -0.3205
  424SOL     OW 1270   0.999   2.205   2.055  0.2414 -0.2118 -0.1383
  424SOL    HW1 1271   1.004   2.299   2.006  2.1441  1.3998 -1.0717
  424SOL    HW2 1272   0.989   2.210   2.158 -1.2206 -0.1495 -0.6324
  425SOL     OW 1273   1.966   1.441   1.003 -0.1012 -0.1384 -0.2721
  425SOL    HW1 1274   2.022   1.355   0.999  1.6373 -0.4268 -2.2101
  425SOL    HW2 1275   2.007   1.518   0.950  2.5064 -0.2288 -1.8644
  426SOL     OW 1276   1.524   1.572   1.440  0.1379 -0.0198 -0.1219
  426SOL    HW1 1277   1.493   1.663   1.404  0.1787 -1.7272 -1.0330
  426SOL    HW2 1278   1.509   1.569   1.544 -1.1480 -1.4532  0.4822
  427SOL     OW 1279   1.916   2.383   2.086 -0.8887 -0.3040 -0.3714
  427SOL    HW1 1280   1.950   2.314   2.153  1.3184  0.6053 -0.4390
  427SOL    HW2 1281   1.893   2.469   2.133  0.5153 -0.5301  0.6128
  428SOL     OW 1282   0.870   2.928   0.149 -0.1701 -0.2298 -0.0858
  428SOL    HW1 1283   0.911   3.015   0.197 -1.8748  3.5598  2.5156
  428SOL    HW2 1284   0.944   2.862   0.119  1.9039 -0.4457  2.5417
  429SOL     OW 1285   1.293   0.067   0.246  0.0631  0.3757  0.1469
  429SOL    HW1 1286   1.365   0.097   0.312 -0.6455 -0.4275  1.9044
  429SOL    HW2 1287   1.307   0.109   0.150  1.6622 -0.3942  0.9008
  430SOL     OW 1288   2.723   1.505   0.373 -0.4731 -0.7372  0.5439
  430SOL    HW1 1289   2.720   1.568   0.292 -1.3847 -1.4865 -1.8476
  430SOL    HW2 1290   2.735   1.554   0.467 -1.5913  0.4906 -0.3196
  431SOL     OW 1291   2.110   1.640   0.882 -0.2602  0.0317 -0.0413
  431SOL    HW1 1292   2.197   1.692   0.861 -1.0713 -0.5898 -3.6836
  431SOL    HW2 1293   2.029   1.692   0.842  0.2815  1.2005 -0.3490
  432SOL     OW 1294   2.901   2.269   1.240 -0.0630 -0.9006  0.4925
  432SOL    HW1 1295   2.826   2.200   1.253  0.3993 -0.2224 -3.7308
  432SOL    HW2 1296   2.951   2.298   1.332  0.6974  1.5740  0.4875
  433SOL     OW 1297   1.852   0.393   0.820 -0.0310  0.3723  0.5370
  433SOL    HW1 1298   1.775   0.380   0.888  1.6215 -1.0817 -0.4560
  433SOL    HW2 1299   1.931   0.325   0.832 -1.0987 -1.1991  0.3415
  434SOL     OW 1300   1.565   0.279   0.724  0.1751  0.9027 -0.1647
  434SOL    HW1 1301   1.554   0.379   0.702  1.6367 -2.0688  0.6818
  434SOL    HW2 1302   1.624   0.260   0.811  2.6163 -0.8376  1.1823
  435SOL     OW 1303   1.442   1.431   2.135 -0.3465  0.8867 -0.3843
  435SOL    HW1 1304   1.382   1.453   2.221 -0.9352  2.4622  2.5529
  435SOL    HW2 1305   1.472   1.519   2.094  2.1426 -0.6886 -1.2467
  436SOL     OW 1306   1.625   2.694   2.368  0.0730  0.2648 -1.0071
  436SOL    HW1 1307   1.595   2.777   2.416  2.4087 -1.8320 -0.0925
  436SOL    HW2 1308   1.697   2.641   2.424  0.2661 -2.8512 -1.3553
  437SOL     OW 1309   1.103   2.915   0.856 -0.1035 -0.0967  0.0333
  437SOL    HW1 1310   1.043   2.991   0.822  1.3217  0.4483 -0.0891
  437SOL    HW2 1311   1.090   2.896   0.956  1.4574 -1.7790  0.8814
  438SOL     OW 1312   1.039   2.600   1.338  0.1795 -0.2026  0.1332
  438SOL    HW1 1313   1.076   2.642   1.424  0.8231 -0.3787  0.3118
  438SOL    HW2 1314   1.042   2.501   1.346  1.6150  0.1969  2.6563
  439SOL     OW 1315   0.726   1.791   1.092 -0.2040  0.3668  0.4342
  439SOL    HW1 1316   0.725   1.891   1.120  0.4659 -0.0367  0.3124
  439SOL    HW2 1317   0.627   1.755   1.083  0.5735  2.3557  0.0001
  440SOL     OW 1318   1.013   2.471   1.960 -0.3464  0.1212 -0.0184
  440SOL    HW1 1319   0.981   2.533   1.881 -2.2465  1.7150  0.8865
  440SOL    HW2 1320   1.099   2.502   2.004 -0.8684  1.6363  0.3667
  441SOL     OW 1321   0.417   2.784   1.346 -0.4239 -0.0859 -0.9656
  441SOL    HW1 1322   0.449   2.680   1.354 -2.0893 -1.4747 -0.1751
  441SOL    HW2 1323   0.393   2.818   1.252 -2.2815  1.3134  2.2476
  442SOL     OW 1324   2.280   0.664   2.618 -0.1631 -0.2317 -0.4521
  442SOL    HW1 1325   2.294   0.575   2.572  0.1634  0.1266  1.0902
  442SOL    HW2 1326   2.182   0.688   2.629 -1.2393  0.5780  0.4104
  443SOL     OW 1327   1.221   2.697   2.207  0.2100  0.3274 -0.1511
  443SOL    HW1 1328   1.260   2.606   2.210 -0.2936 -0.5325 -2.4467
  443SOL    HW2 1329   1.158   2.721   2.290 -3.3724  0.4412  1.0115
  444SOL     OW 1330   1.101   1.277   1.509  0.6947  0.8365  0.5802
  444SOL    HW1 1331   1.186   1.225   1.478 -3.6468  1.6604 -1.5411
  444SOL    HW2 1332   1.111   1.318   1.605 -0.4257  2.2493  0.0095
  445SOL     OW 1333   3.088   2.404   1.864  0.5456 -0.3195 -0.8199
  445SOL    HW1 1334   3.070   2.490   1.811 -2.3193  0.5539  0.7312
  445SOL    HW2 1335   3.008   2.382   1.928  3.7787 -0.4365  0.0485
  446SOL     OW 1336   0.197   1.900   2.412  0.0913  0.0553  0.0246
  446SOL    HW1 1337   0.150   1.994   2.413 -0.1793 -4.9441  2.8710
  446SOL    HW2 1338   0.164   1.842   2.330 -0.6779  0.9637 -0.9013
  447SOL     OW 1339   1.234   1.658   1.962 -0.0969 -0.0539  0.5112
  447SOL    HW1 1340   1.151   1.719   1.937 -0.0725  0.3179  1.6187
  447SOL    HW2 1341   1.311   1.713   2.007 -0.8645  2.5885  0.8323
  448SOL     OW 1342   0.091   1.423   1.994 -0.2329  0.8454 -0.7380
  448SOL    HW1 1343   0.132   1.515   1.977  1.2794 -0.3638 -0.0838
  448SOL    HW2 1344   0.047   1.418   2.091 -0.6928 -0.5346 -1.0832
  449SOL     OW 1345   1.735   2.938   0.897 -0.3575 -0.2550  0.3147
  449SOL    HW1 1346   1.757   2.937   0.996  1.1539 -0.5023 -2.8759
  449SOL    HW2 1347   1.810   2.894   0.836  0.4832  0.0668 -1.2123
  450SOL     OW 1348   2.300   1.461   0.759  0.2020 -0.4269 -0.2820
  450SOL    HW1 1349   2.247   1.495   0.842 -2.3916 -1.9992  2.1356
  450SOL    HW2 1350   2.297   1.524   0.671  2.4605  0.4498  0.7857
  451SOL     OW 1351   1.334   3.070   1.444 -0.5534 -0.7371 -0.5642
  451SOL    HW1 1352   1.281   3.157   1.477 -2.2418 -1.9396 -0.2952
  451SOL    HW2 1353   1.366   3.017   1.526 -1.1323 -1.3575  0.3613
  452SOL     OW 1354   2.663   2.283   2.259 -0.1050 -0.4660 -0.1486
  452SOL    HW1 1355   2.647   2.386   2.277  0.3330  0.7258 -0.5082
  452SOL    HW2 1356   2.722   2.238   2.330 -0.3971  3.7755 -1.3824
  453SOL     OW 1357   2.454   2.679   3.090  0.0938  0.2839 -0.0896
  453SOL    HW1 1358   2.358   2.721   3.118  0.0379 -0.2245  2.2042
  453SOL    HW2 1359   2.452   2.611   3.012  1.4134 -3.4243  0.0581
  454SOL     OW 1360   0.971   1.160   2.050  0.5949  0.7113  0.0612
  454SOL    HW1 1361   0.955   1.123   1.952  1.6908 -2.2237 -0.0208
  454SOL    HW2 1362   1.056   1.224   2.055  0.6250  0.5108 -4.5825
  455SOL     OW 1363   0.666   2.679   2.801  0.6699  0.5858 -0.4036
  455SOL    HW1 1364   0.757   2.717   2.778 -2.5839  1.9772  3.8652
  455SOL    HW2 1365   0.667   2.591   2.865 -2.0950  2.3458  0.6942
  456SOL     OW 1366   0.405   1.866   0.192  0.6175 -0.4428 -0.3367
  456SOL    HW1 1367   0.481   1.818   0.248  1.1660 -1.1440  0.8532
  456SOL    HW2 1368   0.449   1.946   0.142 -0.7278 -0.1906 -1.2910
  457SOL     OW 1369   0.393   2.712   0.617  0.1455 -0.2603 -0.3286
  457SOL    HW1 1370   0.426   2.766   0.538 -2.8451 -1.1316  1.1923
  457SOL    HW2 1371   0.463   2.693   0.690  0.9929 -2.8336 -1.2697
  458SOL     OW 1372   2.878   0.034   1.179  0.8158 -0.4264  0.7105
  458SOL    HW1 1373   2.942   0.117   1.160  1.5909  0.4848  0.8494
  458SOL    HW2 1374   2.905  -0.050   1.126  0.2498 -1.2328  3.3749
  459SOL     OW 1375   2.117   2.614   0.793 -1.0108  0.1134 -0.2427
  459SOL    HW1 1376   2.207   2.671   0.814 -0.7257  1.2314  0.8439
  459SOL    HW2 1377   2.125   2.558   0.706  1.7111 -2.3706  1.0721
  460SOL     OW 1378   1.195   2.129   2.818  0.0808 -0.2431  0.2234
  460SOL    HW1 1379   1.178   2.199   2.741 -1.8831 -0.6177  0.2527
  460SOL    HW2 1380   1.180   2.028   2.798 -1.3870 -0.0300 -1.9569
  461SOL     OW 1381   0.539   2.187   2.666  0.7727  0.4681 -0.3468
  461SOL    HW1 1382   0.479   2.125   2.614  1.7123 -0.7190 -1.6567
  461SOL    HW2 1383   0.553   2.154   2.764 -0.6982 -0.8049 -0.5472
  462SOL     OW 1384   0.947   1.090   1.782 -0.5320 -0.6277 -0.6243
  462SOL    HW1 1385   0.994   1.054   1.697  0.1090  2.7639 -3.0863
  462SOL    HW2 1386   0.887   1.174   1.757  2.1291  2.0976 -1.1509
  463SOL     OW 1387   0.461   0.854   0.509  0.1773 -0.3190  0.0092
  463SOL    HW1 1388   0.511   0.763   0.491  1.8909 -1.2568  0.3539
  463SOL    HW2 1389   0.356   0.841   0.514  1.8026  1.4252 -0.9129
  464SOL     OW 1390   0.591   2.272   2.219  0.4260 -0.2432 -0.1668
  464SOL    HW1 1391   0.529   2.330   2.285  0.6339  1.4951  0.5801
  464SOL    HW2 1392   0.558   2.282   2.120  1.7891 -1.8786 -1.1286
  465SOL     OW 1393   0.219   0.936   0.836 -0.1703  0.3626  0.6124
  465SOL    HW1 1394   0.135   0.959   0.770 -0.2742 -0.1091  0.8045
  465SOL    HW2 1395   0.247   0.836   0.831 -0.9648  0.6670 -0.2171
  466SOL     OW 1396   1.395   1.118   0.998  0.3393 -0.4966 -0.4578
  466SOL    HW1 1397   1.404   1.221   0.986 -2.0848 -0.5346  1.2879
  466SOL    HW2 1398   1.303   1.090   1.042 -0.0843 -0.0138  0.1828
  467SOL     OW 1399   0.621   0.431   2.461 -0.0020 -0.2721  0.3740
  467SOL    HW1 1400   0.531   0.475   2.423  0.9861  1.0236 -0.4825
  467SOL    HW2 1401   0.607   0.399   2.560 -0.5641  0.7213 -2.4310
  468SOL     OW 1402   0.439   2.271   1.617 -0.0787  0.1251 -0.3889
  468SOL    HW1 1403   0.504   2.343   1.652 -0.1496 -1.3203 -0.2553
  468SOL    HW2 1404   0.385   2.301   1.530 -1.4427 -2.2506 -1.8496
  469SOL     OW 1405   1.483   1.348   1.262  0.0992 -0.0621 -0.4913
  469SOL    HW1 1406   1.565   1.331   1.200 -2.2820 -0.8773 -0.6637
  469SOL    HW2 1407   1.501   1.425   1.333 -0.0812  2.8446  1.4829
  470SOL     OW 1408   3.034   1.861   0.760  0.4711 -0.3908  0.3767
  470SOL    HW1 1409   3.114   1.915   0.737 -2.3838  0.0278  1.5799
  470SOL    HW2 1410   3.047   1.796   0.839  0.7448 -1.4045  0.8571
  471SOL     OW 1411   2.577   1.329   2.152  0.1425 -0.4295 -0.2763
  471SOL    HW1 1412   2.548   1.272   2.234 -2.0669  0.1823  2.2552
  471SOL    HW2 1413   2.657   1.392   2.177  0.4380  0.5224 -0.8276
  472SOL     OW 1414   1.163   2.389   0.036  0.0945  0.3589  0.3069
  472SOL    HW1 1415   1.217   2.421   0.119 -0.2924  1.5866  0.0220
  472SOL    HW2 1416   1.082   2.329   0.067 -2.7380  1.1670  0.3876
  473SOL     OW 1417   1.069   1.507   1.051 -0.1753  0.3824 -0.7327
  473SOL    HW1 1418   0.968   1.508   1.022  0.8949  0.2373 -0.4435
  473SOL    HW2 1419   1.090   1.451   1.139 -0.0654 -1.7998 -0.3678
  474SOL     OW 1420   0.660   1.258   0.568  0.3336 -0.4230 -0.6470
  474SOL    HW1 1421   0.589   1.207   0.508  2.9720 -2.1137 -2.7581
  474SOL    HW2 1422   0.730   1.190   0.612  2.0319 -1.2190  1.5189
  475SOL     OW 1423   2.831   0.027   0.818  0.2252  0.1489 -0.5172
  475SOL    HW1 1424   2.905   0.100   0.837  2.2857 -0.5784  2.6200
  475SOL    HW2 1425   2.749   0.027   0.885 -0.0307  1.9358  4.1032
  476SOL     OW 1426   0.972   3.027   1.755 -0.3038  0.6086 -0.3302
  476SOL    HW1 1427   1.064   3.048   1.802 -0.4744  0.0681 -0.8677
  476SOL    HW2 1428   0.987   2.980   1.665  0.0983  3.7615 -0.6761
  477SOL     OW 1429   1.460   0.332   2.435 -0.7180  0.1356  0.3075
  477SOL    HW1 1430   1.444   0.357   2.536  0.2200 -1.3704 -1.0923
  477SOL    HW2 1431   1.543   0.268   2.416  0.0558 -0.4395 -1.9836
  478SOL     OW 1432   2.240   1.812   0.179  0.4312  0.0374 -0.4422
  478SOL    HW1 1433   2.191   1.732   0.227  0.3923 -0.0606  0.5572
  478SOL    HW2 1434   2.316   1.773   0.128 -0.2196 -2.1243  0.5116
  479SOL     OW 1435   1.234   0.979   2.812 -0.6323  0.2114 -0.2540
  479SOL    HW1 1436   1.262   0.964   2.717 -1.4661 -0.1112 -0.2515
  479SOL    HW2 1437   1.173   0.905   2.846 -0.6549  1.9401  0.0025
  480SOL     OW 1438   2.658   2.362   0.366  0.6368 -0.0342 -0.0711
  480SOL    HW1 1439   2.647   2.307   0.451  0.1057 -2.2168 -1.3809
  480SOL    HW2 1440   2.570   2.396   0.325  0.2666 -2.2775 -0.4008
  481SOL     OW 1441   0.939   1.183   0.861  0.5969 -0.2294 -0.0451
  481SOL    HW1 1442   0.927   1.275   0.814 -0.6597  1.2910 -0.8786
  481SOL    HW2 1443   0.995   1.187   0.946  0.2566 -0.7176 -0.0432
  482SOL     OW 1444   1.603   0.287   2.003  0.3536 -0.1542  0.2504
  482SOL    HW1 1445   1.608   0.393   1.987 -1.0307  4.0182 -0.4109
  482SOL    HW2 1446   1.690   0.247   2.045 -1.3593 -1.1168 -0.1547
  483SOL     OW 1447   0.129   2.267   1.202 -0.2015 -0.0066 -0.1837
  483SOL    HW1 1448   0.068   2.329   1.256 -0.1100  1.4298 -3.1151
  483SOL    HW2 1449   0.175   2.316   1.123 -2.6059 -0.9238  1.4911
  484SOL     OW 1450   1.771   1.121   1.371  0.2578 -0.3100 -0.0050
  484SOL    HW1 1451   1.843   1.050   1.391 -0.1242 -0.2944  1.8009
  484SOL    HW2 1452   1.767   1.197   1.444  1.4276  0.6915  0.6862
  485SOL     OW 1453   0.749   0.863   1.758 -0.0987  0.4223  0.1846
  485SOL    HW1 1454   0.741   0.890   1.654  0.5974 -1.5745  1.2277
  485SOL    HW2 1455   0.816   0.927   1.804 -0.6181  3.3105 -0.1119
  486SOL     OW 1456   0.805   1.861   2.482 -0.2113  0.1945 -0.2441
  486SOL    HW1 1457   0.876   1.839   2.555 -0.5548  2.3566 -0.7875
  486SOL    HW2 1458   0.767   1.961   2.476 -1.1386  3.0146 -2.0498
  487SOL     OW 1459   1.762   1.666   0.939  0.5939 -0.1184 -0.4041
  487SOL    HW1 1460   1.768   1.563   0.959  2.0398  1.8044 -1.5851
  487SOL    HW2 1461   1.822   1.704   0.864  0.5018  1.5351 -0.1514
  488SOL     OW 1462   2.946   0.876   2.249  0.4649  0.0415  0.1837
  488SOL    HW1 1463   2.944   0.772   2.236 -0.5650 -0.2500  3.0074
  488SOL    HW2 1464   3.000   0.898   2.334 -1.3175 -1.2003  1.3763
  489SOL     OW 1465   2.829   0.332   1.298 -0.4393  0.2013  0.3908
  489SOL    HW1 1466   2.788   0.298   1.390 -0.1758 -1.2134  2.4326
  489SOL    HW2 1467   2.915   0.283   1.267 -1.4138 -2.2252 -1.4385
  490SOL     OW 1468   1.421   2.927   2.801  0.3018 -0.5302  0.0360
  490SOL    HW1 1469   1.454   2.828   2.795  0.1350  0.7500 -2.7794
  490SOL    HW2 1470   1.374   2.971   2.722  1.2838  1.3299 -0.0493
  491SOL     OW 1471   1.667   1.504   2.637  0.6094 -0.5506 -0.6238
  491SOL    HW1 1472   1.577   1.487   2.693 -2.4452  2.1143 -0.6985
  491SOL    HW2 1473   1.750   1.523   2.700  1.6919  1.1575  3.1780
  492SOL     OW 1474   0.558   2.070   0.617  0.0312  0.5190  0.1897
  492SOL    HW1 1475   0.587   2.063   0.720 -1.7570 -0.1994 -1.5309
  492SOL    HW2 1476   0.480   2.133   0.605 -1.6901 -0.3357 -0.7821
  493SOL     OW 1477   0.433   1.407   2.046 -0.3419 -0.1029 -0.3577
  493SOL    HW1 1478   0.339   1.448   2.079 -1.2188  0.8433  0.4047
  493SOL    HW2 1479   0.444   1.311   2.082 -0.0077  0.7692  1.2782
  494SOL     OW 1480   2.712   2.695   0.082 -0.1606  0.3670  0.5198
  494SOL    HW1 1481   2.724   2.668   0.184 -1.2192  1.0380 -0.5498
  494SOL    HW2 1482   2.608   2.712   0.062 -1.5352  1.0860  2.7205
  495SOL     OW 1483   2.590   2.711   2.636 -0.2173 -0.4835  0.3860
  495SOL    HW1 1484   2.592   2.615   2.620 -2.5361  0.2056 -0.1301
  495SOL    HW2 1485   2.671   2.755   2.590 -1.1413 -1.1971  1.3497
  496SOL     OW 1486   2.075   2.274   0.759  0.3882 -0.1988 -0.7441
  496SOL    HW1 1487   2.083   2.315   0.854  2.4903 -0.5915  0.9279
  496SOL    HW2 1488   2.041   2.178   0.762  0.0182  1.7684  0.6139
  497SOL     OW 1489   0.200   2.991   2.337  0.6231 -0.1631  0.2467
  497SOL    HW1 1490   0.169   3.044   2.419 -0.2678  2.0143  0.8028
  497SOL    HW2 1491   0.235   3.053   2.260 -3.4926 -0.4051 -0.6877
  498SOL     OW 1492   1.205   1.334   1.234 -0.1647  0.2167  0.0855
  498SOL    HW1 1493   1.305   1.348   1.219 -0.3549 -0.9608 -0.0963
  498SOL    HW2 1494   1.191   1.314   1.331 -1.0181  2.8689 -0.6271
  499SOL     OW 1495   0.619   1.755   0.352  0.2770 -0.1846  0.4458
  499SOL    HW1 1496   0.631   1.669   0.299 -0.3446 -1.4236  2.9644
  499SOL    HW2 1497   0.694   1.824   0.335 -2.5729 -2.4007  1.0755
  500SOL     OW 1498   1.374   2.897   1.644  0.2440  0.3306 -0.4018
  500SOL    HW1 1499   1.358   2.909   1.744 -0.4241  3.1926 -3.4448
  500SOL    HW2 1500   1.422   2.807   1.632 -1.4861 -1.3076 -3.0349
  501SOL     OW 1501   0.796   1.122   2.265  0.0350  0.0437  0.0415
  501SOL    HW1 1502   0.719   1.045   2.247 -1.8549 -0.9644 -0.5871
  501SOL    HW2 1503   0.848   1.147   2.180  2.9633 -0.3656  0.9930
  502SOL     OW 1504   2.578   0.933   1.728 -0.2804 -0.2233 -0.2949
  502SOL    HW1 1505   2.600   0.952   1.631  1.0704 -0.4971  1.4549
  502SOL    HW2 1506   2.564   0.836   1.755  0.0796 -0.5554 -0.2798
  503SOL     OW 1507   1.343   0.138   0.620 -0.1846  0.2803  0.4883
  503SOL    HW1 1508   1.264   0.201   0.633  0.3864 -0.6312  2.8445
  503SOL    HW2 1509   1.431   0.172   0.659 -0.8230 -3.3772  1.5269
  504SOL     OW 1510   3.003   2.334   1.498  0.1289 -0.0954  0.1189
  504SOL    HW1 1511   2.962   2.405   1.562  1.5464  0.2163  1.3943
  504SOL    HW2 1512   3.084   2.282   1.541  4.1042  1.9644  0.2082
  505SOL     OW 1513   2.295   1.179   1.407  0.1499 -0.4962 -0.0299
  505SOL    HW1 1514   2.267   1.218   1.321  0.6045 -2.0714  1.4544
  505SOL    HW2 1515   2.366   1.235   1.454  1.1735  2.2603 -1.2049
  506SOL     OW 1516   1.963   0.205   1.841  0.6351  0.2235  0.2249
  506SOL    HW1 1517   2.031   0.153   1.900 -1.2064  1.5065  2.3786
  506SOL    HW2 1518   1.939   0.290   1.895  0.4536  0.7205  0.6234
  507SOL     OW 1519   0.602   0.680   2.139 -0.4670 -0.3274  0.2091
  507SOL    HW1 1520   0.528   0.614   2.111  0.8290 -1.0516 -0.5825
  507SOL    HW2 1521   0.699   0.638   2.147  3.6443 -2.4678 -1.1392
  508SOL     OW 1522   0.301   1.653   0.736 -0.7408 -0.1418  0.1009
  508SOL    HW1 1523   0.352   1.741   0.706 -1.4545 -0.0459  2.2759
  508SOL    HW2 1524   0.263   1.665   0.832  3.5164 -0.3318 -0.4260
  509SOL     OW 1525   1.294   1.176   2.408 -0.4600  0.1635 -0.3481
  509SOL    HW1 1526   1.337   1.136   2.327  0.0368  1.4887  0.4849
  509SOL    HW2 1527   1.193   1.145   2.430  0.6914 -0.4205  2.3308
  510SOL     OW 1528   1.286   2.125   2.228  0.6451  0.2449  0.4540
  510SOL    HW1 1529   1.318   2.136   2.131  1.0705 -0.5291 -1.4957
  510SOL    HW2 1530   1.201   2.059   2.244 -2.2821 -0.8526 -1.3026
  511SOL     OW 1531   3.003   2.667   1.296  0.3414 -0.3352 -0.0811
  511SOL    HW1 1532   3.026   2.652   1.195 -3.6034  1.5269  0.6842
  511SOL    HW2 1533   2.902   2.642   1.301 -2.6672 -0.4112 -0.1519
  512SOL     OW 1534   2.424   0.434   1.374 -0.5868  0.0380 -0.0770
  512SOL    HW1 1535   2.326   0.451   1.386  2.1080 -0.3804 -1.7276
  512SOL    HW2 1536   2.436   0.413   1.274 -0.5957  0.2520  0.3789
  513SOL     OW 1537   2.578   2.110   0.906 -0.3729  0.1384 -0.4182
  513SOL    HW1 1538   2.553   2.207   0.874 -0.3446  1.8666 -3.0243
  513SOL    HW2 1539   2.665   2.076   0.853  0.4468 -1.2106 -1.3556
  514SOL     OW 1540   0.675   2.764   0.466 -0.3010 -0.3390  0.2377
  514SOL    HW1 1541   0.691   2.818   0.378  1.7786 -1.1801  1.5675
  514SOL    HW2 1542   0.722   2.805   0.550  2.4414 -0.4306  0.3235
  515SOL     OW 1543   1.922   1.308   2.386  0.0578 -0.2214 -0.2363
  515SOL    HW1 1544   1.961   1.263   2.304 -0.1409  0.4180 -0.6051
  515SOL    HW2 1545   1.825   1.281   2.416  0.6373 -0.1760  2.5950
  516SOL     OW 1546   0.275   0.286   1.897 -0.3065 -0.1949  0.4539
  516SOL    HW1 1547   0.361   0.245   1.865 -3.3990  3.2723  0.9027
  516SOL    HW2 1548   0.188   0.240   1.863 -0.6151 -2.7653  0.3526
  517SOL     OW 1549   0.470   0.074   1.143 -0.6589 -1.0234  0.2027
  517SOL    HW1 1550   0.490   0.132   1.228 -2.8061  1.3050  0.6747
  517SOL    HW2 1551   0.377   0.038   1.156  0.8908 -2.1647  3.1631
  518SOL     OW 1552   2.161   3.079   1.830  0.5948  0.1697 -0.4193
  518SOL    HW1 1553   2.230   3.156   1.836  0.7597 -1.3525  2.4148
  518SOL    HW2 1554   2.163   3.035   1.735  0.0272  0.0603  2.8114
  519SOL     OW 1555   2.337   2.125   2.459 -0.0677  0.4435 -0.5144
  519SOL    HW1 1556   2.283   2.112   2.546  1.6150  1.4211 -1.8321
  519SOL    HW2 1557   2.346   2.224   2.438  0.4683  0.2373  3.0641
  520SOL     OW 1558   1.844   2.699   1.738  0.0028 -0.2498  0.2488
  520SOL    HW1 1559   1.774   2.641   1.795 -0.1342 -0.6356  0.4809
  520SOL    HW2 1560   1.894   2.638   1.671  2.5448  0.9899 -0.3820
  521SOL     OW 1561   0.553   3.065   2.080 -0.1153 -0.2741  0.4344
  521SOL    HW1 1562   0.453   3.097   2.087  0.5305 -0.5436  0.6885
  521SOL    HW2 1563   0.596   3.046   2.171 -0.6901  3.0782  0.9984
  522SOL     OW 1564   0.173   1.821   1.572  0.4847 -0.0570 -0.1957
  522SOL    HW1 1565   0.243   1.871   1.635  3.2857  0.1371  2.2925
  522SOL    HW2 1566   0.166   1.859   1.474 -0.0656  0.1156 -0.6860
  523SOL     OW 1567   2.183   2.983   1.582  0.2429  0.4021 -0.1363
  523SOL    HW1 1568   2.235   2.901   1.545  0.0204 -1.2019 -1.5600
  523SOL    HW2 1569   2.078   2.972   1.574 -3.1498 -3.8712 -1.3377
  524SOL     OW 1570   0.180   2.751   2.815 -0.3520 -0.9056 -0.6959
  524SOL    HW1 1571   0.131   2.840   2.842 -1.7723  0.9276  0.1218
  524SOL    HW2 1572   0.275   2.765   2.782 -1.0863  0.1628  0.5893
  525SOL     OW 1573   2.230   2.002   0.407 -0.3462 -0.2560  0.0081
  525SOL    HW1 1574   2.210   1.960   0.498 -3.5071 -1.2861 -1.9860
  525SOL    HW2 1575   2.258   1.932   0.333  1.2199 -3.2543 -0.4726
  526SOL     OW 1576   0.479   1.479   1.723  0.0289  0.3292 -0.7223
  526SOL    HW1 1577   0.502   1.541   1.805  1.9615 -1.8238  0.5016
  526SOL    HW2 1578   0.482   1.377   1.759  0.2780  0.7910 -3.2084
  527SOL     OW 1579   1.073   2.877   1.130 -0.2350  0.0672  0.0967
  527SOL    HW1 1580   1.108   2.811   1.201 -2.8718 -2.8381 -1.2802
  527SOL    HW2 1581   1.116   2.973   1.138 -0.7782 -0.2311 -2.2023
  528SOL     OW 1582   1.367   2.338   0.529  0.2786 -0.5984  0.0786
  528SOL    HW1 1583   1.427   2.253   0.535  0.4036  1.7809 -0.7239
  528SOL    HW2 1584   1.415   2.418   0.577  0.5065  2.5803 -0.3488
  529SOL     OW 1585   1.922   1.778   0.742  0.0730 -0.1152 -0.0088
  529SOL    HW1 1586   1.854   1.777   0.662  0.1220  1.6966  0.9974
  529SOL    HW2 1587   1.945   1.875   0.769  2.6778  0.3824 -1.2718
  530SOL     OW 1588   0.415   2.590   0.200 -0.1606 -0.0421  1.0450
  530SOL    HW1 1589   0.380   2.658   0.275 -2.2667  0.1762  2.8167
  530SOL    HW2 1590   0.429   2.497   0.238  0.7555  1.5861  3.4347
  531SOL     OW 1591   1.868   0.990   1.056  0.1502  0.1635 -0.8438
  531SOL    HW1 1592   1.814   0.938   0.992 -0.8298  1.6493 -1.7910
  531SOL    HW2 1593   1.819   1.019   1.142  1.0163  0.0584  0.8063
  532SOL     OW 1594   0.375   1.179   0.723  0.1110  0.2201  0.0593
  532SOL    HW1 1595   0.400   1.186   0.621  2.9671 -0.0022 -1.5506
  532SOL    HW2 1596   0.344   1.086   0.756 -1.6562  0.2417  2.4783
  533SOL     OW 1597   1.744   0.021   2.585  0.4775  0.2311  0.0140
  533SOL    HW1 1598   1.845   0.006   2.591 -0.9182 -1.5362 -0.8482
  533SOL    HW2 1599   1.707   0.103   2.642  0.8733 -2.5164 -1.3119
  534SOL     OW 1600   0.254   0.215   1.448  0.5203 -0.2610 -0.4478
  534SOL    HW1 1601   0.341   0.239   1.396 -1.5766  3.9728 -3.3823
  534SOL    HW2 1602   0.229   0.297   1.508 -2.2392  0.3141  3.0503
  535SOL     OW 1603   1.901   0.375   0.229  0.0882  0.0102 -0.0644
  535SOL    HW1 1604   1.897   0.470   0.279 -2.2613 -2.4180 -1.4194
  535SOL    HW2 1605   1.811   0.322   0.230 -0.5407  1.2440 -1.6043
  536SOL     OW 1606   1.417   2.580   0.925  0.9927 -0.2973  0.1576
  536SOL    HW1 1607   1.436   2.514   1.006  0.4037  1.5290  0.6811
  536SOL    HW2 1608   1.325   2.565   0.877  0.7230 -0.8457 -3.1628
  537SOL     OW 1609   0.836   0.191   2.348 -0.5680 -0.7807  0.0226
  537SOL    HW1 1610   0.845   0.244   2.260 -1.6354 -0.7937  0.1545
  537SOL    HW2 1611   0.772   0.111   2.347  0.0765 -0.8609 -0.4203
  538SOL     OW 1612   1.664   2.305   1.511 -0.2800 -0.2542 -0.3188
  538SOL    HW1 1613   1.618   2.225   1.460  1.4633  0.3626 -0.3986
  538SOL    HW2 1614   1.736   2.342   1.443  0.2386  0.0009  1.0489
  539SOL     OW 1615   0.218   1.655   2.707 -0.0279  0.1707  0.7946
  539SOL    HW1 1616   0.130   1.640   2.654 -1.7431  0.5289 -0.9873
  539SOL    HW2 1617   0.235   1.745   2.745 -2.4057  0.6413 -0.0933
  540SOL     OW 1618   2.731   1.703   1.976  0.0188 -0.0428  0.1038
  540SOL    HW1 1619   2.658   1.627   1.965 -3.5228  0.7044  0.7865
  540SOL    HW2 1620   2.693   1.803   1.972 -1.2303  1.0350 -1.5020
  541SOL     OW 1621   0.480   2.332   3.066  0.2818 -0.3375  0.0265
  541SOL    HW1 1622   0.480   2.278   3.153 -0.0385  0.4275 -2.9451
  541SOL    HW2 1623   0.380   2.326   3.035 -2.5469 -0.3871 -0.4579
  542SOL     OW 1624   2.247   2.582   0.416  0.0269 -0.7113 -0.3937
  542SOL    HW1 1625   2.214   2.678   0.388 -0.3311 -2.2756 -1.9402
  542SOL    HW2 1626   2.176   2.527   0.465 -0.9361  1.6246 -0.2792
  543SOL     OW 1627   1.005   1.718   1.671  0.5061 -0.4075 -0.1560
  543SOL    HW1 1628   0.979   1.771   1.757 -1.0280  0.6004 -2.1234
  543SOL    HW2 1629   0.984   1.769   1.581 -3.5716 -1.6641 -2.7008
  544SOL     OW 1630   0.984   0.391   0.206  0.3102  0.1642 -0.3224
  544SOL    HW1 1631   0.903   0.348   0.254  0.0351  3.1165 -1.2253
  544SOL    HW2 1632   1.000   0.351   0.111  1.5615  1.6997  2.1606
  545SOL     OW 1633   1.095   1.722   0.721 -0.4502  0.3650  0.6297
  545SOL    HW1 1634   1.187   1.756   0.757  0.4143  3.4460  1.0498
  545SOL    HW2 1635   1.094   1.693   0.623 -1.0851 -1.1890  0.3971
  546SOL     OW 1636   2.612   1.541   3.046 -0.0660  0.0446  0.5582
  546SOL    HW1 1637   2.556   1.541   2.955  2.8935  1.3150 -1.6494
  546SOL    HW2 1638   2.556   1.570   3.120  0.7719 -0.5832 -0.6511
  547SOL     OW 1639   0.574   0.055   2.702  0.1319 -0.0309 -0.6485
  547SOL    HW1 1640   0.641  -0.015   2.715 -0.2151  0.4953  0.2178
  547SOL    HW2 1641   0.482   0.016   2.673 -3.2262  1.6174 -1.9789
  548SOL     OW 1642   2.026   0.842   3.053 -0.2764  0.0899 -0.5553
  548SOL    HW1 1643   1.934   0.805   3.019  0.8160 -1.3489  1.2648
  548SOL    HW2 1644   2.024   0.943   3.064 -0.4858 -1.5423 -0.3435
  549SOL     OW 1645   0.682   0.589   0.198 -0.2764 -0.3182  0.3968
  549SOL    HW1 1646   0.647   0.621   0.105 -1.4236 -0.5240 -1.9211
  549SOL    HW2 1647   0.748   0.658   0.233 -0.7180 -0.9325 -2.4320
  550SOL     OW 1648   2.491   2.853   2.867  0.2235  0.5144 -0.3934
  550SOL    HW1 1649   2.505   2.809   2.961  0.2025  1.1779  0.0727
  550SOL    HW2 1650   2.494   2.782   2.787 -2.9056  0.1302 -4.5728
  551SOL     OW 1651   0.293   0.867   0.211 -0.1546 -0.1920  0.1073
  551SOL    HW1 1652   0.386   0.908   0.213  0.0182 -3.2848  0.2651
  551SOL    HW2 1653   0.257   0.873   0.310  0.7208 -0.5832  0.4907
  552SOL     OW 1654   0.717   2.914   1.867 -0.3037  0.7386  0.3340
  552SOL    HW1 1655   0.648   2.968   1.926 -0.3402  0.1059  0.2547
  552SOL    HW2 1656   0.804   2.969   1.870  2.2096  1.4723  1.1392
  553SOL     OW 1657   0.008   2.526   0.388 -0.7017  0.5825 -0.3071
  553SOL    HW1 1658  -0.062   2.461   0.346 -0.0017  1.6728 -2.2937
  553SOL    HW2 1659  -0.045   2.600   0.433 -1.4482 -0.6035  0.0304
  554SOL     OW 1660   2.179   0.362   0.577 -0.4145  0.3514 -0.0231
  554SOL    HW1 1661   2.207   0.364   0.477  1.5382  1.4568  1.7821
  554SOL    HW2 1662   2.208   0.272   0.625  0.7358  0.5060 -1.7581
  555SOL     OW 1663   0.433   2.909   2.497 -0.1391  0.5069  0.0592
  555SOL    HW1 1664   0.337   2.925   2.464  2.0237 -2.7399 -0.3151
  555SOL    HW2 1665   0.485   2.857   2.420 -0.0064  3.7423 -2.7983
  556SOL     OW 1666   0.853   2.396   1.567 -0.1547 -0.1703 -0.8474
  556SOL    HW1 1667   0.890   2.467   1.631 -1.5909 -0.4189 -1.9406
  556SOL    HW2 1668   0.922   2.374   1.492  1.1166 -0.2068  0.0964
  557SOL     OW 1669   0.101   2.079   0.154  0.1076 -0.0344 -0.0706
  557SOL    HW1 1670   0.024   2.025   0.107  1.3098 -0.6023 -1.1853
  557SOL    HW2 1671   0.126   2.157   0.095 -2.5962  0.7714  3.2783
  558SOL     OW 1672   2.925   2.343   0.296 -0.6614  0.0520 -0.2503
  558SOL    HW1 1673   2.826   2.331   0.325 -0.0848  0.3934  0.5594
  558SOL    HW2 1674   2.938   2.332   0.194  0.4886  1.0725 -1.0785
  559SOL     OW 1675   0.377   2.305   1.347 -0.3935  0.3802  0.0456
  559SOL    HW1 1676   0.288   2.279   1.297 -0.1712  0.5093  2.3454
  559SOL    HW2 1677   0.445   2.228   1.336  0.5443 -0.8521  1.5590
  560SOL     OW 1678   2.076   1.106   3.080 -0.0173  0.3954 -0.0057
  560SOL    HW1 1679   2.026   1.151   3.161 -0.9534  0.9724 -0.4560
  560SOL    HW2 1680   2.151   1.165   3.043 -0.3654 -0.8210 -2.5591
  561SOL     OW 1681   2.996   1.898   0.043 -0.0265 -0.2900  0.2271
  561SOL    HW1 1682   2.938   1.814   0.056  1.9481  0.4957  0.5901
  561SOL    HW2 1683   2.929   1.981   0.033  0.2775 -2.6226 -0.9694
  562SOL     OW 1684   0.949   2.222   2.335 -0.0526  0.1680  0.0795
  562SOL    HW1 1685   0.854   2.175   2.353  0.9294  1.8979  3.0254
  562SOL    HW2 1686   0.982   2.270   2.417  2.1226  2.1092 -0.0196
  563SOL     OW 1687   0.724   2.498   2.581 -0.0311  0.5761  0.0065
  563SOL    HW1 1688   0.723   2.399   2.592  1.8009  0.0122  0.6156
  563SOL    HW2 1689   0.717   2.541   2.677  0.0728  1.9764  0.7226
  564SOL     OW 1690   2.759   1.298   2.914  0.5395  0.6036  0.2024
  564SOL    HW1 1691   2.673   1.330   2.960  1.3535 -0.0096  1.3532
  564SOL    HW2 1692   2.821   1.376   2.881  0.4249 -1.0809  0.7001
  565SOL     OW 1693   2.560   1.981   2.565  0.7042 -0.4344 -0.2814
  565SOL    HW1 1694   2.487   2.040   2.522  2.2693 -1.1141 -0.5831
  565SOL    HW2 1695   2.596   2.018   2.657 -0.5265 -0.3314 -0.1914
  566SOL     OW 1696   2.005   2.850   1.410  0.2074  0.1152  0.3860
  566SOL    HW1 1697   1.964   2.756   1.376  2.3445 -1.1476 -1.1687
  566SOL    HW2 1698   2.039   2.911   1.334 -1.2049  0.4098 -1.6087
  567SOL     OW 1699   2.476   0.085   2.230  0.2838 -0.0638 -0.6542
  567SOL    HW1 1700   2.545   0.158   2.240 -1.6087 -0.7974 -0.1570
  567SOL    HW2 1701   2.444   0.082   2.130 -1.9823 -1.2650 -3.0478
  568SOL     OW 1702   1.548   1.761   0.232  0.3698 -0.0735  0.5062
  568SOL    HW1 1703   1.481   1.840   0.215 -0.0534  1.0599 -3.2035
  568SOL    HW2 1704   1.638   1.770   0.186  0.3347 -0.9200 -0.9577
  569SOL     OW 1705   0.300   0.648   0.866  0.3633  0.4190 -0.5792
  569SOL    HW1 1706   0.381   0.594   0.838 -2.3830  0.1405 -0.0034
  569SOL    HW2 1707   0.217   0.599   0.836  1.4060  2.9840  2.1164
  570SOL     OW 1708   0.656   0.752   2.840 -0.2110  0.3337 -0.4926
  570SOL    HW1 1709   0.679   0.770   2.739  0.9196  1.5623 -0.4328
  570SOL    HW2 1710   0.674   0.838   2.891 -0.6657 -0.1159 -0.8039
  571SOL     OW 1711   0.794   3.064   1.056 -0.6012  0.1172 -0.7135
  571SOL    HW1 1712   0.841   3.103   0.969 -1.8229 -4.1076 -1.3500
  571SOL    HW2 1713   0.816   2.964   1.074 -1.3400 -0.1720  0.5149
  572SOL     OW 1714   1.597   2.616   1.216 -0.3301  0.0038  0.2337
  572SOL    HW1 1715   1.505   2.572   1.239 -0.2876  1.8383  0.0937
  572SOL    HW2 1716   1.584   2.711   1.172  1.6266 -0.6885  2.3783
  573SOL     OW 1717   2.934   0.430   2.018 -0.1950 -0.4241 -0.1984
  573SOL    HW1 1718   2.893   0.338   2.041 -0.4010  1.0931 -1.1609
  573SOL    HW2 1719   2.859   0.499   1.986 -1.4136  0.6467  1.5127
  574SOL     OW 1720   0.200   1.730   1.000  0.3676 -0.1960  0.0548
  574SOL    HW1 1721   0.175   1.824   0.965 -0.9132 -1.0596 -0.5952
  574SOL    HW2 1722   0.136   1.699   1.078  0.8768 -3.4555 -1.1878
  575SOL     OW 1723   0.908   2.116   1.000  1.0677 -0.3244 -0.3725
  575SOL    HW1 1724   0.876   2.167   1.088  0.0137 -2.6641  0.7859
  575SOL    HW2 1725   0.930   2.181   0.920 -0.1361  0.2133  0.2279
  576SOL     OW 1726   2.905   2.970   1.649 -0.7963  0.1237  0.0283
  576SOL    HW1 1727   2.818   2.966   1.593  0.4385  0.4570 -1.3466
  576SOL    HW2 1728   2.929   3.070   1.648 -1.0933 -1.9044  2.9435
  577SOL     OW 1729   2.535   1.230  -0.000 -0.1163 -0.0015  0.1396
  577SOL    HW1 1730   2.567   1.157  -0.064 -3.7425  0.9737 -0.2074
  577SOL    HW2 1731   2.601   1.250   0.077  0.7936  0.0676  1.6006
  578SOL     OW 1732   1.340   2.717   2.553  0.4773  0.7109 -0.4358
  578SOL    HW1 1733   1.246   2.759   2.533 -0.2218 -0.6792  1.9647
  578SOL    HW2 1734   1.420   2.786   2.546  2.0647 -1.5994 -1.6284
  579SOL     OW 1735   0.096   2.491   0.107 -0.1265  0.0182 -0.0541
  579SOL    HW1 1736   0.092   2.539   0.201  0.9473  0.6343  2.8768
  579SOL    HW2 1737   0.190   2.455   0.084 -0.0396 -0.7677  2.3897
  580SOL     OW 1738   1.020   2.645   0.416  0.4636  0.5445  0.8281
  580SOL    HW1 1739   1.096   2.672   0.352 -2.2142  0.8798  1.4630
  580SOL    HW2 1740   0.940   2.601   0.365 -1.4211  1.2583 -1.4459
  581SOL     OW 1741   1.276   2.578   1.517  0.0526 -0.1907  0.1995
  581SOL    HW1 1742   1.305   2.488   1.478  0.8844  1.0378 -1.9941
  581SOL    HW2 1743   1.306   2.658   1.456  1.1589  0.2299 -1.3154
  582SOL     OW 1744   1.505   0.086   1.818  0.0266  0.1140  0.0778
  582SOL    HW1 1745   1.537   0.160   1.881 -1.5998  0.4856 -1.6670
  582SOL    HW2 1746   1.576   0.051   1.752 -0.6663 -2.0070 -1.5158
  583SOL     OW 1747   2.530   3.015   0.491  0.0399  0.1718 -0.3681
  583SOL    HW1 1748   2.544   2.949   0.411  2.3893  1.0324  0.5407
  583SOL    HW2 1749   2.462   2.984   0.566 -2.0838  1.0475  3.0714
  584SOL     OW 1750   1.607   0.955   2.096  0.1578 -0.5585 -0.0937
  584SOL    HW1 1751   1.665   0.972   2.013  0.4457  2.0288  2.0639
  584SOL    HW2 1752   1.667   0.922   2.179  0.0574 -0.8260  2.5507
  585SOL     OW 1753   2.095   2.683   2.962 -0.0721 -0.2313  0.1563
  585SOL    HW1 1754   2.142   2.593   2.930  2.4684 -1.4149  0.6360
  585SOL    HW2 1755   1.999   2.692   2.925  2.1772  1.9328 -1.2688
  586SOL     OW 1756   2.752   0.259   1.549  0.3171  0.6292 -0.8996
  586SOL    HW1 1757   2.763   0.356   1.585 -0.5590  0.5607  1.4489
  586SOL    HW2 1758   2.666   0.208   1.590 -0.4684  0.5433  0.9969
  587SOL     OW 1759   1.914   1.533   2.756 -0.2410 -0.1525 -0.3670
  587SOL    HW1 1760   1.973   1.488   2.684  0.1105 -2.0079  0.3532
  587SOL    HW2 1761   1.969   1.556   2.841  0.2178  0.7773  1.6045
  588SOL     OW 1762   0.484   2.754   2.270 -0.4590 -0.1695 -0.1723
  588SOL    HW1 1763   0.395   2.761   2.215 -0.6898 -3.0762  1.3697
  588SOL    HW2 1764   0.501   2.653   2.299  0.6209 -1.2881  2.3160
  589SOL     OW 1765   2.103   1.419   2.555 -0.1069 -0.3648 -0.4736
  589SOL    HW1 1766   2.032   1.361   2.502 -1.0415 -3.3370  0.5744
  589SOL    HW2 1767   2.193   1.373   2.553  0.0622  1.3676  1.2577
  590SOL     OW 1768   2.348   1.640   2.037 -0.0145  0.2012  0.1283
  590SOL    HW1 1769   2.430   1.585   2.004  1.1442  0.2694  1.6852
  590SOL    HW2 1770   2.368   1.691   2.125 -0.8212 -1.8252  1.5128
  591SOL     OW 1771   1.324   2.395   0.262  0.0308  0.1009 -0.3136
  591SOL    HW1 1772   1.349   2.324   0.191 -1.7806  0.1626 -0.9774
  591SOL    HW2 1773   1.344   2.361   0.359  0.4441 -0.2754  0.4522
  592SOL     OW 1774   1.761   2.316   0.755  0.1019 -0.1142  0.1381
  592SOL    HW1 1775   1.745   2.364   0.663  0.2306 -0.8100  1.4893
  592SOL    HW2 1776   1.851   2.344   0.800  1.8207 -1.0823  2.2858
  593SOL     OW 1777   0.681   0.300   0.119  0.5818  0.2781 -0.0023
  593SOL    HW1 1778   0.720   0.293   0.021  1.4512 -1.6535  1.0943
  593SOL    HW2 1779   0.663   0.400   0.153 -4.3430  2.0043  0.6483
  594SOL     OW 1780   0.966   1.827   2.713 -0.4194  0.0546 -0.0013
  594SOL    HW1 1781   1.066   1.824   2.754 -0.9503  0.4784  1.0513
  594SOL    HW2 1782   0.914   1.912   2.746 -2.1911  0.7878 -0.4263
  595SOL     OW 1783   1.551   0.084   1.038  0.3393  0.2045  0.0877
  595SOL    HW1 1784   1.634   0.035   1.081  1.1622  0.0552  1.7595
  595SOL    HW2 1785   1.509   0.031   0.958 -0.2740 -1.3656  2.6075
  596SOL     OW 1786   3.070   1.477   2.258  0.3195 -0.4447  0.0633
  596SOL    HW1 1787   2.967   1.489   2.235  1.3814  1.2290  1.5657
  596SOL    HW2 1788   3.079   1.474   2.361  0.8091  0.6969  2.2609
  597SOL     OW 1789   2.044   2.555   1.596 -0.1588 -0.2106  0.2642
  597SOL    HW1 1790   2.083   2.487   1.530 -1.5906  0.1396 -0.4780
  597SOL    HW2 1791   2.115   2.589   1.655  0.6811 -2.8261 -2.3905
  598SOL     OW 1792   2.503   2.971   1.324  0.7599  0.1914 -0.1026
  598SOL    HW1 1793   2.599   2.984   1.356 -0.5904 -1.2178 -1.6836
  598SOL    HW2 1794   2.494   2.926   1.232 -1.1898 -0.2226 -0.2000
  599SOL     OW 1795   2.938   0.406   2.498  0.2930 -0.3380 -0.0556
  599SOL    HW1 1796   3.014   0.473   2.465  1.2794  0.4605 -0.5649
  599SOL    HW2 1797   2.845   0.426   2.456 -0.3062 -2.6168  1.6132
  600SOL     OW 1798   2.770   1.133   2.685 -0.7180 -0.1335 -0.3093
  600SOL    HW1 1799   2.724   1.041   2.703  1.7752  0.7047  0.8943
  600SOL    HW2 1800   2.752   1.202   2.763 -3.3204 -0.1656 -2.7153
  601SOL     OW 1801   2.973   1.269   1.917 -0.0771  0.2451  0.1403
  601SOL    HW1 1802   2.908   1.304   1.844  0.9921  3.3086 -0.4267
  601SOL    HW2 1803   3.053   1.329   1.935 -1.9865 -1.9008  0.7510
  602SOL     OW 1804   1.420   1.696   2.334 -0.1285  0.2898 -0.7244
  602SOL    HW1 1805   1.373   1.606   2.329 -0.7729  0.7352  2.2729
  602SOL    HW2 1806   1.520   1.682   2.366  2.6294  1.5003 -0.6008
  603SOL     OW 1807   0.633   1.227   2.722 -0.6582 -0.0859  0.3940
  603SOL    HW1 1808   0.543   1.237   2.676  1.1502 -0.7851  0.3084
  603SOL    HW2 1809   0.689   1.145   2.686  1.8255  1.8935 -1.1301
  604SOL     OW 1810   2.406   1.006   0.150 -0.5754 -0.3399 -0.1678
  604SOL    HW1 1811   2.414   1.100   0.100 -1.9444  2.1116  1.3791
  604SOL    HW2 1812   2.419   0.921   0.094 -0.4638 -0.7514 -0.1106
  605SOL     OW 1813   2.544   1.163   1.881 -0.1073  0.1106 -0.2058
  605SOL    HW1 1814   2.598   1.097   1.820 -0.7304 -1.0845 -0.9052
  605SOL    HW2 1815   2.587   1.169   1.974  1.6954  1.6474  1.9376
  606SOL     OW 1816   1.487   2.485   2.645 -0.6889  0.6742 -1.1517
  606SOL    HW1 1817   1.420   2.535   2.588 -0.4474 -2.8794 -0.1848
  606SOL    HW2 1818   1.512   2.387   2.613  3.3195  0.0600  1.1819
  607SOL     OW 1819   1.386   1.644   0.446  0.2049 -0.1087 -0.1530
  607SOL    HW1 1820   1.302   1.706   0.450 -3.4854 -0.1038 -0.4304
  607SOL    HW2 1821   1.458   1.671   0.376  0.1955 -1.0325 -0.5059
  608SOL     OW 1822   1.464   2.874   0.386  0.2309  0.4814 -0.2439
  608SOL    HW1 1823   1.546   2.937   0.367  0.9877 -1.3024 -0.5426
  608SOL    HW2 1824   1.388   2.926   0.437  1.8301  1.2959  0.6174
  609SOL     OW 1825   1.322   1.403   0.261  0.4150 -0.0292 -0.1040
  609SOL    HW1 1826   1.355   1.455   0.337  0.8289  0.0946 -0.2729
  609SOL    HW2 1827   1.246   1.452   0.210 -1.1856 -1.5121 -0.4393
  610SOL     OW 1828   3.011   1.141   2.206  0.2230 -0.1127 -0.7587
  610SOL    HW1 1829   2.973   1.047   2.196 -0.1959 -1.2329 -1.2775
  610SOL    HW2 1830   3.003   1.202   2.124 -1.8962  1.0135  1.1525
  611SOL     OW 1831   2.610   0.298   1.122 -0.0465 -0.1219 -0.4041
  611SOL    HW1 1832   2.543   0.234   1.170 -0.4772  0.8505 -1.9577
  611SOL    HW2 1833   2.698   0.298   1.179 -1.3938 -0.8633  1.6492
  612SOL     OW 1834   0.772   2.244   1.193 -0.1769  0.7810 -0.5864
  612SOL    HW1 1835   0.689   2.186   1.230 -0.7988 -1.1628 -0.6625
  612SOL    HW2 1836   0.737   2.335   1.153 -1.9172 -0.2588 -0.1213
  613SOL     OW 1837   0.797   1.429   2.423 -0.4971 -0.4450  0.6928
  613SOL    HW1 1838   0.825   1.481   2.338 -1.2434 -1.3991 -0.5737
  613SOL    HW2 1839   0.714   1.371   2.404  0.4943 -1.0243  1.1598
  614SOL     OW 1840   1.588   1.654   1.952 -0.7893  0.0969  0.4677
  614SOL    HW1 1841   1.518   1.720   1.987  0.5045  0.2863 -0.0792
  614SOL    HW2 1842   1.671   1.651   2.015  0.6991  0.0455 -0.7695
  615SOL     OW 1843   0.795   1.306   1.714 -0.5059  0.4385 -0.2676
  615SOL    HW1 1844   0.724   1.260   1.653 -1.3646 -1.5553  0.2260
  615SOL    HW2 1845   0.835   1.393   1.666 -1.0594  1.4412  3.4644
  616SOL     OW 1846   1.067   1.629   2.319  0.5655  0.4486 -0.7651
  616SOL    HW1 1847   0.992   1.586   2.257 -0.4169 -1.5457  3.0644
  616SOL    HW2 1848   1.104   1.723   2.284 -1.0076 -0.4712 -1.9461
  617SOL     OW 1849   2.946   1.554   1.596 -0.4354  0.0304  0.1170
  617SOL    HW1 1850   2.879   1.479   1.624  4.1741 -0.3138  1.0212
  617SOL    HW2 1851   2.994   1.537   1.508  0.2310 -0.3316  0.2127
  618SOL     OW 1852   1.926   1.999   1.375 -0.5163 -0.2542  0.6900
  618SOL    HW1 1853   1.916   2.047   1.284  0.1765  0.8627 -0.8465
  618SOL    HW2 1854   1.984   1.911   1.370  0.3657 -0.5174  1.2350
  619SOL     OW 1855   1.771   0.438   2.367  0.3402  0.1858  0.5028
  619SOL    HW1 1856   1.700   0.489   2.310  0.7212  2.6254  0.6196
  619SOL    HW2 1857   1.754   0.338   2.390  0.3805  1.1679  4.5183
  620SOL     OW 1858   2.319   2.938   0.677 -0.0702 -0.0610 -0.8945
  620SOL    HW1 1859   2.248   3.012   0.696 -0.2384 -4.5294 -2.5012
  620SOL    HW2 1860   2.342   2.880   0.762 -1.3912 -1.6939  1.0578
  621SOL     OW 1861   2.160   1.782   1.303  0.7216  0.4568 -0.1323
  621SOL    HW1 1862   2.136   1.801   1.399 -0.5325 -1.1411 -2.8694
  621SOL    HW2 1863   2.106   1.698   1.268 -0.3927 -0.2466 -3.7707
  622SOL     OW 1864   2.270   0.900   1.780  0.5175  0.3291  0.5015
  622SOL    HW1 1865   2.369   0.912   1.744 -0.5018 -0.2420 -1.0579
  622SOL    HW2 1866   2.267   0.819   1.841  0.1388  0.8923 -1.7506
  623SOL     OW 1867   1.322   0.822   2.594  0.1219  0.1061 -0.0358
  623SOL    HW1 1868   1.312   0.729   2.638 -1.5587  1.5375 -0.2423
  623SOL    HW2 1869   1.253   0.828   2.515  0.6233  2.5463 -0.5755
  624SOL     OW 1870   0.522   0.712   3.065  0.0675 -0.1088  0.2460
  624SOL    HW1 1871   0.587   0.719   2.983  0.5996  0.0883 -1.1787
  624SOL    HW2 1872   0.553   0.773   3.146 -1.3176 -3.6242  0.5932
  625SOL     OW 1873   2.798   1.692   1.037 -0.3064 -0.2341  0.2010
  625SOL    HW1 1874   2.710   1.744   1.040 -0.7409 -0.0068 -1.1086
  625SOL    HW2 1875   2.879   1.754   1.067  0.6486  0.4382  0.8932
  626SOL     OW 1876   0.582   2.717   1.731 -0.2853 -0.6548 -0.6698
  626SOL    HW1 1877   0.639   2.795   1.775 -1.8667 -0.3301 -0.3251
  626SOL    HW2 1878   0.477   2.728   1.734 -0.6266 -1.7635  0.7710
  627SOL     OW 1879   0.716   0.985   1.511  0.4962 -0.5800 -0.2939
  627SOL    HW1 1880   0.702   0.931   1.427 -0.0721  2.6344  0.4283
  627SOL    HW2 1881   0.764   1.078   1.488 -0.2347  1.3890  1.5098
  628SOL     OW 1882   2.489   0.126   0.691 -0.2474  0.3803  0.0201
  628SOL    HW1 1883   2.528   0.068   0.616  1.5083  1.0582  0.0374
  628SOL    HW2 1884   2.385   0.113   0.694  3.0252  2.0559  1.8300
  629SOL     OW 1885   2.000   0.926   1.994 -0.0338  0.4335 -0.2075
  629SOL    HW1 1886   2.031   0.964   1.901 -1.0319 -0.0435 -2.4974
  629SOL    HW2 1887   1.991   1.000   2.067  1.0084 -0.4471  0.7110
  630SOL     OW 1888   2.916   2.305   0.816  0.4717 -0.2234  0.0865
  630SOL    HW1 1889   2.856   2.392   0.830 -1.9357 -1.6984  0.4455
  630SOL    HW2 1890   2.862   2.219   0.791 -1.6591 -0.4343  2.8577
  631SOL     OW 1891   3.039   0.161   2.129 -0.2682 -1.0260 -0.6334
  631SOL    HW1 1892   3.095   0.190   2.208 -1.7317 -1.3257  0.7665
  631SOL    HW2 1893   3.093   0.161   2.038 -1.4428 -1.9856  1.1018
  632SOL     OW 1894   2.409   2.572   0.648  0.1325 -0.2788  0.1492
  632SOL    HW1 1895   2.399   2.657   0.700  1.5692 -0.4117  0.6945
  632SOL    HW2 1896   2.365   2.571   0.555 -4.4560 -0.4741 -0.5782
  633SOL     OW 1897   1.396   1.211   2.657 -0.2411  0.0557  0.1676
  633SOL    HW1 1898   1.420   1.312   2.676  0.1431  0.3229  1.2551
  633SOL    HW2 1899   1.354   1.189   2.564 -0.4013 -2.8298 -1.9349
  634SOL     OW 1900   0.686   2.052   0.869  0.1012  0.1173  0.4905
  634SOL    HW1 1901   0.603   2.050   0.931 -0.1833 -1.2461 -0.9107
  634SOL    HW2 1902   0.776   2.075   0.920 -1.4943  2.9732  1.7010
  635SOL     OW 1903   2.971   2.338   0.022 -0.3483 -0.0560 -0.3929
  635SOL    HW1 1904   2.893   2.389  -0.031 -0.2022 -0.6544 -1.0113
  635SOL    HW2 1905   3.047   2.402   0.055  0.7016  0.1709 -0.3659
  636SOL     OW 1906   2.325   2.747   1.988  0.5866 -0.0057  0.0839
  636SOL    HW1 1907   2.352   2.843   2.017  1.0146 -2.5052  0.6402
  636SOL    HW2 1908   2.254   2.710   2.056 -2.2183  1.4141  1.6182
  637SOL     OW 1909   2.683   0.595   1.973 -0.6735 -0.3610 -0.2654
  637SOL    HW1 1910   2.625   0.588   1.890  0.1650  1.8790  0.8026
  637SOL    HW2 1911   2.700   0.700   1.999  1.6357  1.5765  0.1052
  638SOL     OW 1912   2.423   1.819   1.271 -0.2219  0.3957 -0.2409
  638SOL    HW1 1913   2.321   1.819   1.282 -1.2384  0.4002  0.4874
  638SOL    HW2 1914   2.472   1.762   1.345  0.9213 -2.3760 -1.3289
  639SOL     OW 1915   1.288   2.072   1.716 -0.6208 -0.3758 -0.1975
  639SOL    HW1 1916   1.309   2.159   1.669 -0.2356 -0.9709  1.1021
  639SOL    HW2 1917   1.190   2.068   1.749 -2.6965  0.8062  1.0279
  640SOL     OW 1918   0.199   1.170   1.571 -0.6010 -0.0642 -0.2092
  640SOL    HW1 1919   0.193   1.199   1.670  1.2518 -3.4900  1.3484
  640SOL    HW2 1920   0.275   1.106   1.559 -1.0686 -1.9123 -0.5830
  641SOL     OW 1921   2.012   0.232   1.539 -0.0149 -0.3806  0.5948
  641SOL    HW1 1922   1.989   0.285   1.625  0.3641 -0.3948  1.8546
  641SOL    HW2 1923   2.107   0.181   1.544  0.6130 -1.2372 -0.6800
  642SOL     OW 1924   2.013   3.074   0.323 -0.0549 -0.1105 -0.2572
  642SOL    HW1 1925   2.105   3.119   0.348  0.1535 -0.6688  3.0356
  642SOL    HW2 1926   1.937   3.104   0.385  0.1022 -0.4768 -0.3563
  643SOL     OW 1927   2.927   1.796   2.146 -0.0603  0.1601  0.0361
  643SOL    HW1 1928   2.871   1.743   2.079 -0.9340  2.4029  1.6151
  643SOL    HW2 1929   2.949   1.888   2.101 -2.9987  1.1438 -0.6021
  644SOL     OW 1930   2.189   2.372   1.180 -0.0408 -0.5798 -0.4624
  644SOL    HW1 1931   2.274   2.321   1.141  1.2180  0.8650 -0.4102
  644SOL    HW2 1932   2.200   2.389   1.282 -0.5533 -1.1751  0.3997
  645SOL     OW 1933   0.615   0.829   1.283 -0.0489 -0.2732 -0.3056
  645SOL    HW1 1934   0.517   0.850   1.263  0.4086 -1.5341 -1.3050
  645SOL    HW2 1935   0.663   0.830   1.194 -1.6055  0.2243  2.4969
  646SOL     OW 1936   1.427   1.825   2.101  0.4729 -0.3024  0.3894
  646SOL    HW1 1937   1.434   1.928   2.097  2.5485 -0.6699  1.1342
  646SOL    HW2 1938   1.428   1.787   2.198 -1.4884 -1.6889 -0.1133
  647SOL     OW 1939   0.792   1.046   0.685 -0.2510  0.1212  0.4898
  647SOL    HW1 1940   0.848   1.110   0.751  1.9215  3.2029  1.6487
  647SOL    HW2 1941   0.722   0.991   0.735 -2.5073  0.6403  1.1752
  648SOL     OW 1942   0.107   0.257   0.272 -0.7399 -0.2814 -0.0369
  648SOL    HW1 1943   0.157   0.179   0.218  0.3741 -0.5453 -0.0163
  648SOL    HW2 1944   0.139   0.352   0.248  1.2475  1.9706  0.5132
  649SOL     OW 1945   3.020   0.240   0.841 -0.3413 -0.2106 -0.4533
  649SOL    HW1 1946   3.108   0.184   0.856 -2.5711 -0.2415 -0.0330
  649SOL    HW2 1947   3.031   0.344   0.845 -0.0249 -0.8639  0.1574
  650SOL     OW 1948   2.770   0.710   1.512  0.0486  0.8210  0.1996
  650SOL    HW1 1949   2.666   0.700   1.504  1.4609 -1.2563 -0.0263
  650SOL    HW2 1950   2.811   0.770   1.438 -0.1273 -0.2288  0.1094
  651SOL     OW 1951   0.907   1.492   1.535 -0.6685 -0.3048  0.2894
  651SOL    HW1 1952   0.939   1.559   1.606  0.5704 -0.7922 -1.7693
  651SOL    HW2 1953   0.985   1.468   1.467  1.3589  2.4088 -1.1749
  652SOL     OW 1954   2.356   2.382   2.415 -0.6693  0.0112  0.3540
  652SOL    HW1 1955   2.282   2.433   2.470  0.1753 -0.2490  1.2276
  652SOL    HW2 1956   2.423   2.445   2.364  1.1221  0.6032  2.9195
  653SOL     OW 1957   2.676   1.223   0.237  0.5824  0.3769  0.2880
  653SOL    HW1 1958   2.694   1.305   0.293  1.5409 -1.4611  0.7781
  653SOL    HW2 1959   2.748   1.154   0.252 -1.9386  0.8483 -1.7445
  654SOL     OW 1960   1.237   2.231   1.254 -0.4057 -0.1081 -0.6609
  654SOL    HW1 1961   1.247   2.149   1.314 -1.7086  0.9272 -1.2398
  654SOL    HW2 1962   1.280   2.214   1.158 -0.5234 -1.5233 -0.5100
  655SOL     OW 1963   0.153   0.930   1.872  0.6058 -0.1207  0.4129
  655SOL    HW1 1964   0.218   0.869   1.823 -0.6342 -0.1785  1.1222
  655SOL    HW2 1965   0.193   1.028   1.871  0.6622 -0.2435  1.0212
  656SOL     OW 1966   2.574   2.446   2.604  0.1911  0.4479  0.1447
  656SOL    HW1 1967   2.660   2.444   2.547 -1.8781 -0.2305  2.2496
  656SOL    HW2 1968   2.492   2.401   2.554 -1.7444 -0.3045  1.7726
  657SOL     OW 1969   2.981   0.990   1.913 -0.0750  0.1016 -0.3950
  657SOL    HW1 1970   2.992   1.091   1.924 -0.4965  0.9638  0.0621
  657SOL    HW2 1971   3.070   0.933   1.896  0.6337 -0.0327 -0.0139
  658SOL     OW 1972   1.682   0.179   2.369 -0.6988 -0.4874  0.1992
  658SOL    HW1 1973   1.703   0.098   2.428  0.5990 -0.7765  1.0833
  658SOL    HW2 1974   1.725   0.169   2.272  0.4763 -0.1167  1.0573
  659SOL     OW 1975   1.386   0.627   2.841 -0.0886 -0.2132 -0.2874
  659SOL    HW1 1976   1.444   0.709   2.863 -0.9931 -1.7023  0.2838
  659SOL    HW2 1977   1.284   0.644   2.871 -0.0121  1.2439  0.7786
  660SOL     OW 1978   1.407   0.332   1.441 -0.8234 -0.8429 -0.2942
  660SOL    HW1 1979   1.408   0.337   1.548  0.5252  1.0658 -0.5579
  660SOL    HW2 1980   1.462   0.253   1.401  0.4990  1.1797 -3.3139
  661SOL     OW 1981   2.335   1.201   0.658  0.5083 -0.1374  0.1034
  661SOL    HW1 1982   2.389   1.193   0.569 -0.6041 -0.1115  0.5508
  661SOL    HW2 1983   2.338   1.292   0.701 -0.0921 -0.4588 -1.3656
  662SOL     OW 1984   1.379   0.371   1.719  0.2904 -0.1768 -0.0847
  662SOL    HW1 1985   1.306   0.338   1.786  0.9116  0.0175  0.6713
  662SOL    HW2 1986   1.408   0.466   1.745 -0.9362 -1.2529  2.1558
  663SOL     OW 1987   0.842   1.548   2.183 -0.6686 -0.0602  0.7005
  663SOL    HW1 1988   0.766   1.623   2.214 -5.2999  2.3522  1.1152
  663SOL    HW2 1989   0.810   1.503   2.096 -0.7716  0.3124 -1.9046
  664SOL     OW 1990   1.610   2.051   1.373 -0.1072 -0.3133  0.6812
  664SOL    HW1 1991   1.542   2.015   1.441  1.3451  0.8264 -0.2089
  664SOL    HW2 1992   1.697   1.993   1.373  0.9258 -4.4520 -1.8642
  665SOL     OW 1993   2.243   0.692   2.000 -0.0046 -0.2254 -0.2902
  665SOL    HW1 1994   2.150   0.710   2.049  1.3118  0.5997  0.4793
  665SOL    HW2 1995   2.320   0.672   2.071  0.7002 -0.6519  1.3105
  666SOL     OW 1996   0.446   2.334   0.306 -0.6851  0.3247 -0.2532
  666SOL    HW1 1997   0.494   2.399   0.375  0.1489 -1.4279 -0.5848
  666SOL    HW2 1998   0.363   2.281   0.346 -1.4118 -0.9198 -0.3889
  667SOL     OW 1999   2.061   0.194   1.132  0.5202  0.0633  0.5483
  667SOL    HW1 2000   2.057   0.297   1.120 -1.0936 -1.1217  1.4102
  667SOL    HW2 2001   1.998   0.165   1.209 -0.5942  1.5753 -0.4189
  668SOL     OW 2002   2.064   0.463   1.119  0.0564  0.0159 -0.1364
  668SOL    HW1 2003   2.119   0.479   1.034 -1.8430  0.0662  0.2280
  668SOL    HW2 2004   2.102   0.515   1.199 -0.7415 -0.4838 -3.6709
  669SOL     OW 2005   3.067   2.135   1.014 -0.1346  0.1275  0.1110
  669SOL    HW1 2006   3.033   2.214   0.964 -0.1070 -0.2627  0.5360
  669SOL    HW2 2007   3.114   2.166   1.100  0.6867  0.3115  1.0501
  670SOL     OW 2008   2.879   2.332   2.064 -0.3021  0.0437 -0.2613
  670SOL    HW1 2009   2.807   2.278   2.119 -2.8936  0.7543  1.3811
  670SOL    HW2 2010   2.862   2.429   2.062 -0.8073 -0.3606 -0.8528
  671SOL     OW 2011   1.726   1.779   1.455 -0.3100 -0.1751  0.6583
  671SOL    HW1 2012   1.735   1.766   1.350 -0.9104  3.0996 -2.0667
  671SOL    HW2 2013   1.626   1.796   1.476 -0.1408  1.1717  1.0302
  672SOL     OW 2014   0.436   0.603   2.367 -0.0651  0.2205 -0.4137
  672SOL    HW1 2015   0.485   0.645   2.286  0.3459  1.4755 -1.7296
  672SOL    HW2 2016   0.342   0.644   2.389  0.4699 -2.2191  0.4221
  673SOL     OW 2017   0.139   1.215   1.150 -0.2429  0.3246 -0.0743
  673SOL    HW1 2018   0.157   1.278   1.230 -0.6785 -1.3364  0.2766
  673SOL    HW2 2019   0.221   1.161   1.113  0.6479 -0.2890 -2.2242
  674SOL     OW 2020   1.676   3.000   0.305  0.1975 -0.8128 -0.4913
  674SOL    HW1 2021   1.643   3.099   0.310 -1.1992 -2.1643  1.6805
  674SOL    HW2 2022   1.757   2.987   0.236  1.4349  0.9306 -0.3996
  675SOL     OW 2023   1.730   0.810   2.296 -0.2411  0.0231  0.4530
  675SOL    HW1 2024   1.834   0.798   2.301 -2.5204  0.1832  2.7023
  675SOL    HW2 2025   1.686   0.717   2.280 -0.8831  0.1034  0.9499
  676SOL     OW 2026   2.549   1.496   1.929  0.4710 -0.1391  0.1807
  676SOL    HW1 2027   2.509   1.452   1.842 -3.1290 -0.9086 -2.0955
  676SOL    HW2 2028   2.549   1.435   2.013 -0.3559  0.6681 -1.4985
  677SOL     OW 2029   1.893   0.663   0.922  0.0399 -0.5241 -0.4841
  677SOL    HW1 2030   1.799   0.674   0.963  4.5762 -0.0724 -0.5915
  677SOL    HW2 2031   1.918   0.568   0.891  0.6613 -0.7200  3.0582
  678SOL     OW 2032   0.068   0.736   1.634 -0.0464  0.3130  0.1456
  678SOL    HW1 2033   0.168   0.725   1.665  1.2944 -1.5498  0.6038
  678SOL    HW2 2034   0.004   0.709   1.709  0.9112  2.4050 -0.0133
  679SOL     OW 2035   2.510   1.219   1.208 -0.3617 -0.0352 -0.4366
  679SOL    HW1 2036   2.420   1.245   1.158  0.5756 -2.1418 -3.2371
  679SOL    HW2 2037   2.543   1.122   1.192  0.0723 -0.2680 -1.7220
  680SOL     OW 2038   2.802   0.505   1.697 -0.0723  0.4608 -0.1428
  680SOL    HW1 2039   2.763   0.580   1.643 -1.3906 -1.5535  0.2213
  680SOL    HW2 2040   2.882   0.532   1.758 -0.9024 -1.6953  0.7831
  681SOL     OW 2041   2.983   0.121   1.591  0.5359  0.3442 -0.3025
  681SOL    HW1 2042   3.047   0.103   1.512 -0.9020 -2.1061  4.2485
  681SOL    HW2 2043   2.898   0.178   1.577  1.2566  2.1044  3.5792
  682SOL     OW 2044   0.773   0.043   1.324 -0.1259 -0.6625  0.4555
  682SOL    HW1 2045   0.698  -0.008   1.375  3.2838 -0.4062  0.7410
  682SOL    HW2 2046   0.774   0.023   1.221  2.4264  2.7245  1.3527
  683SOL     OW 2047   1.356   0.226   2.179 -0.3687  0.0329 -0.0668
  683SOL    HW1 2048   1.388   0.283   2.260  1.6944  2.2128 -3.4936
  683SOL    HW2 2049   1.431   0.224   2.109  1.7136 -1.9601  3.8206
  684SOL     OW 2050   1.481   2.085   0.463 -0.8286  0.4090 -0.2236
  684SOL    HW1 2051   1.514   2.008   0.525 -0.9085 -0.1787  0.8269
  684SOL    HW2 2052   1.387   2.057   0.423  0.2661 -0.4431  1.6293
  685SOL     OW 2053   2.166   2.071   1.920  0.3579 -0.0603 -0.4368
  685SOL    HW1 2054   2.243   2.052   1.858  0.3063 -1.6489  3.0856
  685SOL    HW2 2055   2.201   2.072   2.019  0.0716  2.6964  3.1166
  686SOL     OW 2056   1.498   1.842   2.755 -0.5568 -0.2689 -0.5617
  686SOL    HW1 2057   1.542   1.775   2.822  2.3291 -0.3796 -2.1214
  686SOL    HW2 2058   1.459   1.793   2.672 -1.0149 -2.6060 -0.2284
  687SOL     OW 2059   1.335   2.471   1.944 -0.5885 -0.2976 -0.1328
  687SOL    HW1 2060   1.347   2.367   1.923  2.2644  1.5406 -0.2914
  687SOL    HW2 2061   1.373   2.498   2.037  0.5141  2.0331 -0.5350
  688SOL     OW 2062   2.010   1.499   1.774  0.2557  0.0504  0.3716
  688SOL    HW1 2063   2.106   1.540   1.784  0.9245 -3.2689 -1.1940
  688SOL    HW2 2064   2.016   1.436   1.693  0.0502  0.1370 -0.0733
  689SOL     OW 2065   2.373   1.077   2.765 -0.5129  0.1807 -0.8287
  689SOL    HW1 2066   2.279   1.031   2.785 -0.5207 -2.8718 -0.5306
  689SOL    HW2 2067   2.454   1.053   2.826  2.1724  1.6140 -1.3006
  690SOL     OW 2068   2.230   2.790   0.073 -0.5246 -0.6576  0.0348
  690SOL    HW1 2069   2.162   2.749   0.010  3.9943  2.5459  0.2115
  690SOL    HW2 2070   2.201   2.795   0.173 -0.0450 -2.2881  0.7487
  691SOL     OW 2071   2.587   0.422   2.145 -0.2728  0.3139  0.3519
  691SOL    HW1 2072   2.644   0.334   2.134 -2.6387 -1.1922  4.5139
  691SOL    HW2 2073   2.622   0.499   2.073 -1.4196  1.2278 -2.5424
  692SOL     OW 2074   2.706   1.276   0.749  0.2665 -0.2976 -0.2228
  692SOL    HW1 2075   2.749   1.291   0.657 -0.3162 -1.0567  1.0915
  692SOL    HW2 2076   2.733   1.350   0.821 -2.2239  4.7530 -0.8086
  693SOL     OW 2077   2.839   2.925   0.644  0.3090  0.6043 -0.2981
  693SOL    HW1 2078   2.835   3.007   0.709  1.6523 -0.4658 -0.4516
  693SOL    HW2 2079   2.823   2.963   0.548 -1.8311 -1.4822  0.3905
  694SOL     OW 2080   2.412   2.201   0.086 -0.5940 -0.2304 -0.1473
  694SOL    HW1 2081   2.407   2.274   0.163 -0.0694  1.2085  0.8543
  694SOL    HW2 2082   2.336   2.128   0.094 -1.5238  0.2453  0.3246
  695SOL     OW 2083   0.552   3.010   1.472  0.2717  0.4494 -0.3445
  695SOL    HW1 2084   0.490   2.933   1.433 -0.9346 -0.7443 -2.0280
  695SOL    HW2 2085   0.502   3.083   1.527  1.0871  1.3932 -0.6128
  696SOL     OW 2086   2.826   2.074   0.719 -0.3290 -0.4456 -0.3137
  696SOL    HW1 2087   2.896   1.998   0.735  0.5810  0.0722  0.8032
  696SOL    HW2 2088   2.793   2.075   0.618 -0.1221  0.4936 -0.1917
  697SOL     OW 2089   1.593   1.998   1.856  0.2432 -0.1105 -0.0081
  697SOL    HW1 2090   1.617   1.898   1.857  1.2936  3.6906  0.2064
  697SOL    HW2 2091   1.671   2.066   1.844 -1.3611  0.6713 -2.0157
  698SOL     OW 2092   2.926   0.407   2.779 -0.5040  0.6876  0.2299
  698SOL    HW1 2093   2.916   0.388   2.675  1.2572 -2.2742  0.7883
  698SOL    HW2 2094   2.967   0.334   2.836  0.5347 -0.0340 -0.1495
  699SOL     OW 2095   1.552   0.086   2.908 -0.2932  0.3378  0.0655
  699SOL    HW1 2096   1.509  -0.002   2.868 -1.7265 -1.0269 -0.4082
  699SOL    HW2 2097   1.591   0.147   2.837 -0.1867  1.9499  1.3966
  700SOL     OW 2098   1.003   2.336   1.341  0.0994  0.2607  0.0110
  700SOL    HW1 2099   1.099   2.294   1.329  0.4748  0.0559  2.0907
  700SOL    HW2 2100   0.935   2.296   1.276  0.4354  1.1821  1.8246
  701SOL     OW 2101   1.867   2.918   3.061 -0.2661  0.3517  0.0592
  701SOL    HW1 2102   1.891   2.850   3.140  3.3679  1.7043  1.8716
  701SOL    HW2 2103   1.890   3.019   3.080 -3.1370  2.9911 -0.6668
  702SOL     OW 2104   2.100   1.305   1.968  0.0035 -0.2755  0.2786
  702SOL    HW1 2105   2.177   1.250   1.919 -0.1291 -0.8133 -1.4343
  702SOL    HW2 2106   2.069   1.389   1.918  0.4519 -0.4553 -1.5869
  703SOL     OW 2107   1.922   0.912   1.434 -0.3279  0.1315 -0.0804
  703SOL    HW1 2108   1.897   0.826   1.487  0.0720 -0.8606  0.9791
  703SOL    HW2 2109   2.007   0.957   1.476  0.6761 -0.3043  2.4541
  704SOL     OW 2110   0.308   2.031   1.719  0.3024 -0.2035  0.6313
  704SOL    HW1 2111   0.337   1.999   1.810  0.3936 -0.2350 -1.3227
  704SOL    HW2 2112   0.358   2.115   1.681  1.2523  1.6300 -1.1039
  705SOL     OW 2113   2.541   1.555   0.902  0.9268 -0.1564  0.2894
  705SOL    HW1 2114   2.482   1.488   0.841  0.5513 -1.4549 -1.2057
  705SOL    HW2 2115   2.636   1.518   0.912  0.1067 -0.6396  0.4144
  706SOL     OW 2116   0.616   1.669   1.893 -0.8668 -0.1427 -0.1277
  706SOL    HW1 2117   0.640   1.567   1.918 -1.4036 -1.9426 -1.3402
  706SOL    HW2 2118   0.701   1.724   1.879  0.9300 -1.0922 -1.6875
  707SOL     OW 2119   2.290   1.157   1.859 -0.9568 -0.1865 -0.1314
  707SOL    HW1 2120   2.393   1.185   1.866 -1.0596  0.1458 -2.6260
  707SOL    HW2 2121   2.277   1.053   1.856 -0.5317 -1.2566 -1.4501
  708SOL     OW 2122   3.050   0.558   3.077  0.2728 -0.1912  0.2466
  708SOL    HW1 2123   3.051   0.630   2.999  1.8971  0.0000 -0.7171
  708SOL    HW2 2124   3.069   0.461   3.040  4.2601 -0.1241  0.9613
  709SOL     OW 2125   1.851   1.841   0.268 -0.0237 -0.2492 -0.6990
  709SOL    HW1 2126   1.867   1.941   0.290 -0.3701  0.2328 -0.1721
  709SOL    HW2 2127   1.839   1.829   0.169  0.1522  1.0465 -0.5885
  710SOL     OW 2128   1.666   1.618   2.395  0.1388  0.0948  0.3400
  710SOL    HW1 2129   1.748   1.592   2.335 -0.4068  0.0670  1.6226
  710SOL    HW2 2130   1.668   1.588   2.494 -1.3512  1.4594  0.8549
  711SOL     OW 2131   2.557   2.903   1.059  0.0601 -0.4704  0.1382
  711SOL    HW1 2132   2.522   2.991   1.010 -1.9476  0.5612 -0.1521
  711SOL    HW2 2133   2.658   2.917   1.085  0.1302  1.1375  0.8078
  712SOL     OW 2134   1.388   2.203   1.954 -0.0628  0.1147 -0.2921
  712SOL    HW1 2135   1.486   2.233   1.962 -2.4527 -0.5578  3.2466
  712SOL    HW2 2136   1.379   2.121   1.892  1.9731  1.5888  1.0146
  713SOL     OW 2137   2.833   1.448   2.525  0.1499  0.6027 -0.0728
  713SOL    HW1 2138   2.849   1.352   2.489 -0.2933  1.8450  0.1248
  713SOL    HW2 2139   2.738   1.464   2.567  0.6802 -0.8326  0.7055
  714SOL     OW 2140   2.677   0.483   2.420 -0.0195  0.3491  1.0959
  714SOL    HW1 2141   2.616   0.466   2.501  0.5727  1.2113 -1.3265
  714SOL    HW2 2142   2.633   0.458   2.328  1.5030  1.0751  0.8368
  715SOL     OW 2143   1.572   2.041   1.102  0.4897  0.5899 -0.5219
  715SOL    HW1 2144   1.486   2.078   1.062  1.5623 -1.6094 -0.9088
  715SOL    HW2 2145   1.571   2.050   1.208  1.3693  2.0265 -0.1217
  716SOL     OW 2146   1.168   0.185   1.490  0.6172  0.7439 -0.1789
  716SOL    HW1 2147   1.080   0.225   1.458 -0.9710  2.5235  2.2335
  716SOL    HW2 2148   1.234   0.257   1.463 -2.8734  0.1727 -0.0173
  717SOL     OW 2149   1.162   0.567   1.531 -0.5811 -0.1038 -0.0540
  717SOL    HW1 2150   1.246   0.612   1.569  2.4592  2.3852 -0.8625
  717SOL    HW2 2151   1.176   0.549   1.430 -0.5273  2.4573 -1.5777
  718SOL     OW 2152   0.683   0.884   0.997 -0.3859 -0.0115 -0.0904
  718SOL    HW1 2153   0.611   0.884   0.923  0.7812  0.1798  1.0156
  718SOL    HW2 2154   0.688   0.974   1.045  0.6828  0.4121  0.5878
  719SOL     OW 2155   0.632   1.691   2.332 -0.0364  0.1181 -0.4389
  719SOL    HW1 2156   0.704   1.739   2.400 -0.3419 -2.3766  1.2704
  719SOL    HW2 2157   0.550   1.664   2.388  1.2778  1.3834 -0.5638
  720SOL     OW 2158   2.177   1.128   0.284  0.3111 -0.0913  0.0545
  720SOL    HW1 2159   2.240   1.065   0.237 -0.7194  1.8908 -0.7668
  720SOL    HW2 2160   2.162   1.105   0.382  0.7677 -1.2389 -3.0994
  721SOL     OW 2161   2.295   3.009   2.071 -0.0665  0.2418  0.0163
  721SOL    HW1 2162   2.209   3.003   2.008 -2.6818 -0.8326  4.4377
  721SOL    HW2 2163   2.270   3.045   2.163 -1.4307 -2.0120  0.1898
  722SOL     OW 2164   2.298   1.591   0.500  0.7585  0.0356  0.1203
  722SOL    HW1 2165   2.353   1.537   0.428  1.9811 -1.2766  1.8573
  722SOL    HW2 2166   2.216   1.636   0.451  2.3058  0.2559 -0.8820
  723SOL     OW 2167   2.601   2.740   1.929 -0.0343  0.0595  0.9427
  723SOL    HW1 2168   2.654   2.812   1.987  1.0550 -0.7309  0.2759
  723SOL    HW2 2169   2.499   2.729   1.957 -0.7777  0.0349  1.2229
  724SOL     OW 2170   0.493   2.497   2.388 -0.1521  0.2768 -0.5022
  724SOL    HW1 2171   0.417   2.525   2.453 -0.6435 -0.8493 -1.2303
  724SOL    HW2 2172   0.580   2.483   2.444 -0.7276 -0.8095  2.1835
  725SOL     OW 2173   2.344   2.781   1.501  0.4269  0.6409  0.3132
  725SOL    HW1 2174   2.414   2.851   1.466 -0.2013 -1.0389  3.6379
  725SOL    HW2 2175   2.388   2.686   1.525  0.4219  0.7525  0.7506
  726SOL     OW 2176   2.555   2.339   0.749  0.5616  0.1705  0.4373
  726SOL    HW1 2177   2.513   2.431   0.741  0.0154 -4.1808  0.1414
  726SOL    HW2 2178   2.530   2.281   0.663 -0.3128 -0.2838 -2.2883
  727SOL     OW 2179   0.133   3.066   0.038 -0.5518  0.3950 -0.4318
  727SOL    HW1 2180   0.201   3.027  -0.025 -1.5971  0.6416  0.7097
  727SOL    HW2 2181   0.038   3.068  -0.007  0.0182 -3.3551  0.2730
  728SOL     OW 2182   2.912   0.648   0.952  0.0783 -0.2610  0.1796
  728SOL    HW1 2183   2.837   0.681   0.892 -1.1375 -1.0692 -0.4513
  728SOL    HW2 2184   2.875   0.601   1.042 -2.4460 -0.4305  1.5271
  729SOL     OW 2185   3.062   2.522   0.724 -1.1112 -0.8354  0.8608
  729SOL    HW1 2186   3.038   2.434   0.773 -1.6644 -0.6620  4.3736
  729SOL    HW2 2187   3.159   2.518   0.669  1.1868  0.0711  0.5672
  730SOL     OW 2188   2.630   0.698   0.868  0.3862 -0.2019  0.1295
  730SOL    HW1 2189   2.601   0.801   0.876 -2.8305  1.2250  1.8059
  730SOL    HW2 2190   2.654   0.667   0.773  0.0324  0.2307 -1.4508
  731SOL     OW 2191   0.022   2.097   2.426  0.4237 -0.2982  0.6065
  731SOL    HW1 2192   0.023   2.152   2.515  1.4755  1.3898 -0.3222
  731SOL    HW2 2193  -0.052   2.127   2.358  1.5034  2.2461 -0.4151
  732SOL     OW 2194   1.226   2.840   1.961 -0.4744  0.0415 -0.1431
  732SOL    HW1 2195   1.238   2.802   2.059 -1.1769  1.5818  0.6288
  732SOL    HW2 2196   1.195   2.770   1.887 -1.1422  0.5529 -0.0434
  733SOL     OW 2197   3.029   0.596   2.231  0.9643 -0.2823 -0.2774
  733SOL    HW1 2198   3.123   0.618   2.193 -1.2440 -0.0562  2.0698
  733SOL    HW2 2199   2.982   0.517   2.180 -1.8122 -1.0604 -1.1645
  734SOL     OW 2200   1.416   0.390   2.691  0.1308  0.0463 -0.3421
  734SOL    HW1 2201   1.411   0.488   2.723  1.1229 -0.0495  3.1306
  734SOL    HW2 2202   1.347   0.327   2.734  0.9337  0.6108 -0.1796
  735SOL     OW 2203   2.891   2.637   2.296  0.1606  0.2424  0.1966
  735SOL    HW1 2204   2.838   2.646   2.208 -2.8992 -3.6353 -0.0310
  735SOL    HW2 2205   2.983   2.689   2.286  1.2124  0.7398 -1.9736
  736SOL     OW 2206   0.862   0.353   2.575 -0.1893 -0.4301  0.3790
  736SOL    HW1 2207   0.782   0.416   2.549  0.6718 -1.7823  2.1067
  736SOL    HW2 2208   0.863   0.285   2.498 -2.7960  1.1299  0.7645
  737SOL     OW 2209   2.628   0.442   2.836 -0.0083  0.1543 -0.4600
  737SOL    HW1 2210   2.621   0.412   2.937 -2.2438  0.9367  0.1730
  737SOL    HW2 2211   2.724   0.430   2.804  0.6724  3.4372  1.2826
  738SOL     OW 2212   1.661   1.234   2.894 -0.3160 -0.4455 -0.1964
  738SOL    HW1 2213   1.761   1.238   2.859 -2.2544 -0.1649 -0.6183
  738SOL    HW2 2214   1.620   1.148   2.851  0.7315  2.7459 -1.3494
  739SOL     OW 2215   1.749   0.707   0.696 -0.3051  0.2097 -0.2312
  739SOL    HW1 2216   1.780   0.701   0.796  0.1173  1.8392  1.2175
  739SOL    HW2 2217   1.756   0.614   0.646 -1.6101 -3.2590 -0.4666
  740SOL     OW 2218   1.978   1.931   2.384 -0.1205  0.0642 -0.1413
  740SOL    HW1 2219   2.023   1.849   2.419 -3.9943 -1.0644  0.3031
  740SOL    HW2 2220   1.921   1.922   2.297  0.3294 -0.0411  1.8709
  741SOL     OW 2221   2.551   0.098   2.580 -0.0185 -0.3217  0.2753
  741SOL    HW1 2222   2.655   0.093   2.585  1.2675 -1.3154 -0.4639
  741SOL    HW2 2223   2.516   0.077   2.488  1.9977  2.2914  0.2822
  742SOL     OW 2224   2.209   1.385   0.210 -0.0290  0.0659  0.5955
  742SOL    HW1 2225   2.134   1.452   0.219  0.3330  1.7104  0.8679
  742SOL    HW2 2226   2.177   1.294   0.240  3.1424 -1.4290  0.3137
  743SOL     OW 2227   1.789   0.628   2.574 -0.0857  0.0022 -0.5538
  743SOL    HW1 2228   1.770   0.560   2.497 -0.8383  3.5969 -0.2290
  743SOL    HW2 2229   1.714   0.683   2.600  1.7850 -2.2311 -0.2709
  744SOL     OW 2230   2.631   2.057   0.105  0.4734  0.4578  0.1890
  744SOL    HW1 2231   2.540   2.101   0.118  0.9697  0.8724  2.7334
  744SOL    HW2 2232   2.621   1.953   0.101 -3.2022 -4.2126  0.5196
  745SOL     OW 2233   2.167   2.657   2.186 -0.5631 -0.0240  1.0581
  745SOL    HW1 2234   2.071   2.689   2.192  1.8906  0.0656 -1.7261
  745SOL    HW2 2235   2.238   2.708   2.242 -4.3804 -0.0692  2.8270
  746SOL     OW 2236   3.089   2.631   1.710  0.3369 -0.0442  0.3442
  746SOL    HW1 2237   3.174   2.609   1.657  2.1464  1.9178  0.7433
  746SOL    HW2 2238   3.099   2.726   1.747 -0.5370 -0.7359 -0.0410
  747SOL     OW 2239   3.090   1.746   1.759  0.2042  0.1479  0.1610
  747SOL    HW1 2240   3.025   1.667   1.726  1.0443  0.6243  0.1020
  747SOL    HW2 2241   3.157   1.764   1.685 -0.9960  0.3609  0.8154
  748SOL     OW 2242   1.826   2.718   2.888 -0.1379 -0.2840 -0.4274
  748SOL    HW1 2243   1.828   2.802   2.951  1.6469 -0.4763  0.7346
  748SOL    HW2 2244   1.726   2.701   2.858 -1.9843 -0.0980 -2.4183
  749SOL     OW 2245   1.365   2.998   0.848  0.2656  0.1791  0.2026
  749SOL    HW1 2246   1.276   2.941   0.860 -0.5124  2.9433 -0.1895
  749SOL    HW2 2247   1.422   2.973   0.771  0.5805  1.1111  2.9609
  750SOL     OW 2248   2.310   0.195   1.842 -0.3041  0.1518 -0.0566
  750SOL    HW1 2249   2.299   0.243   1.747 -2.7459  2.4583 -0.4399
  750SOL    HW2 2250   2.294   0.260   1.922 -2.4037  1.6803 -1.5462
  751SOL     OW 2251   0.846   2.058   2.805  0.3621  0.5037  0.0098
  751SOL    HW1 2252   0.924   2.047   2.871 -2.2369 -1.0211 -0.0331
  751SOL    HW2 2253   0.757   2.044   2.855  0.4419  1.1230  0.5348
  752SOL     OW 2254   1.324   0.817   1.248  0.0533  0.8378 -0.1246
  752SOL    HW1 2255   1.385   0.898   1.269 -0.1064  0.5864 -0.7316
  752SOL    HW2 2256   1.354   0.726   1.295 -2.8899 -1.1621 -0.0443
  753SOL     OW 2257   0.935   2.632   1.701  0.1377  0.1858 -0.8263
  753SOL    HW1 2258   1.037   2.633   1.712 -1.2654  0.9146 -2.9065
  753SOL    HW2 2259   0.885   2.716   1.740 -0.1125 -2.5329  1.1608
  754SOL     OW 2260   1.139   1.193   2.987 -0.7297  0.1443 -0.3265
  754SOL    HW1 2261   1.208   1.174   2.913  2.1174 -0.8113  0.2433
  754SOL    HW2 2262   1.167   1.273   3.040  0.2685  0.8224  0.8560
  755SOL     OW 2263   2.009   0.472   2.227  0.3439 -0.3734 -0.2260
  755SOL    HW1 2264   2.081   0.416   2.272  0.7848 -0.3389 -2.5554
  755SOL    HW2 2265   1.923   0.464   2.286  0.4002 -2.1755  1.1999
  756SOL     OW 2266   2.577   0.975   2.974 -0.2717  0.4288  0.1929
  756SOL    HW1 2267   2.681   0.958   2.983 -2.7280 -1.8163 -0.7878
  756SOL    HW2 2268   2.525   0.886   3.003 -0.9795 -0.3623  1.1757
  757SOL     OW 2269   0.111   0.487   1.978  0.0398  0.3814 -0.2088
  757SOL    HW1 2270   0.170   0.439   1.908  0.6398 -0.8162 -2.5469
  757SOL    HW2 2271   0.020   0.445   1.976  2.7585 -0.4422  1.7890
  758SOL     OW 2272   2.257   0.116   1.479  0.6865 -0.3664  0.2625
  758SOL    HW1 2273   2.231   0.022   1.514  0.4239 -1.3666  0.3462
  758SOL    HW2 2274   2.291   0.113   1.381  0.7368  0.2275 -1.5156
  759SOL     OW 2275   1.698   0.117   0.061  0.1293 -0.0189  0.0952
  759SOL    HW1 2276   1.645   0.089  -0.023  2.3998  1.2294  0.9340
  759SOL    HW2 2277   1.798   0.087   0.062  0.7777 -0.0375 -0.4392
  760SOL     OW 2278   2.642   2.056   2.818  0.7620 -0.0332  0.2604
  760SOL    HW1 2279   2.688   1.983   2.877 -0.4705 -1.9185  0.2350
  760SOL    HW2 2280   2.626   2.146   2.866  2.4845 -1.4393 -0.8878
  761SOL     OW 2281   1.864   1.763   1.691 -0.3961 -0.0006 -0.1606
  761SOL    HW1 2282   1.868   1.667   1.730 -1.4459 -0.2276 -1.4719
  761SOL    HW2 2283   1.814   1.768   1.594 -0.9273 -3.1936 -1.0091
  762SOL     OW 2284   0.510   2.339   0.953  0.1224 -0.5507 -0.1120
  762SOL    HW1 2285   0.540   2.358   0.857 -0.0435  3.0161 -0.5861
  762SOL    HW2 2286   0.575   2.390   1.019  0.2149 -1.1642 -0.7396
  763SOL     OW 2287   2.081   1.578   2.978 -0.1202  0.0526  0.4192
  763SOL    HW1 2288   2.182   1.554   2.991 -1.0242  2.8909 -0.8270
  763SOL    HW2 2289   2.020   1.545   3.060 -0.9249  0.0369 -0.5404
  764SOL     OW 2290   0.653   0.598   0.801 -0.1348  0.4739  0.2513
  764SOL    HW1 2291   0.585   0.517   0.790  0.1915 -1.7622 -0.6231
  764SOL    HW2 2292   0.736   0.574   0.856 -0.5564 -0.0909  1.8123
  765SOL     OW 2293   0.734   0.227   0.783  0.1594 -0.3228 -0.5110
  765SOL    HW1 2294   0.802   0.286   0.725 -2.2261 -1.9455 -2.3493
  765SOL    HW2 2295   0.699   0.267   0.866  0.0031 -0.3572 -1.0483
  766SOL     OW 2296   2.855   2.098   3.067 -0.5422 -0.0374  0.5830
  766SOL    HW1 2297   2.762   2.093   3.119 -0.9119 -0.6736  0.8446
  766SOL    HW2 2298   2.912   2.188   3.083  2.3084  1.6046  1.5704
  767SOL     OW 2299   2.787   1.659   0.602 -0.1170 -0.3446  0.0943
  767SOL    HW1 2300   2.697   1.703   0.616  2.2792 -1.5752  1.0526
  767SOL    HW2 2301   2.870   1.718   0.632 -3.0578  0.9999 -1.6722
  768SOL     OW 2302   0.946   0.066   0.229  0.2105 -0.7929  0.5226
  768SOL    HW1 2303   0.934   0.072   0.333  2.0627  3.1883 -2.2097
  768SOL    HW2 2304   1.043   0.071   0.197  1.5849  2.5034  0.2420
  769SOL     OW 2305   1.109   1.925   2.309 -0.1650  0.3680  0.1275
  769SOL    HW1 2306   1.027   1.987   2.330 -2.2177  0.7854  1.6656
  769SOL    HW2 2307   1.154   1.879   2.390 -1.9988 -0.7295 -1.5947
  770SOL     OW 2308   0.181   1.204   2.280 -0.0349 -0.2831 -0.2494
  770SOL    HW1 2309   0.167   1.253   2.368 -0.5862 -0.0703  0.5924
  770SOL    HW2 2310   0.097   1.150   2.251 -0.0038  1.2820  0.2552
  771SOL     OW 2311   3.014   2.854   1.870 -0.2344 -0.5168 -0.1415
  771SOL    HW1 2312   2.967   2.886   1.783 -0.0662  1.5399 -1.1000
  771SOL    HW2 2313   2.985   2.916   1.950  0.8505  2.9426 -1.5237
  772SOL     OW 2314   2.234   0.134   2.930 -0.1337  0.1114  0.4681
  772SOL    HW1 2315   2.318   0.094   2.886 -0.9503 -0.6269  0.2052
  772SOL    HW2 2316   2.263   0.176   3.022  0.9585  2.0161  2.2656
  773SOL     OW 2317   0.707   2.137   2.438  0.2941 -0.2171  0.8451
  773SOL    HW1 2318   0.657   2.180   2.355 -2.7128 -0.5221 -0.4552
  773SOL    HW2 2319   0.675   2.151   2.536  1.7663  2.6133 -0.4933
  774SOL     OW 2320   2.055   3.098   2.593 -0.4667  0.7868  0.0460
  774SOL    HW1 2321   2.073   3.188   2.631 -0.1345 -3.0548 -0.7324
  774SOL    HW2 2322   2.086   3.028   2.665 -2.2756 -0.0208  1.2459
  775SOL     OW 2323   2.539   2.923   2.325 -0.0776 -0.3054  0.7214
  775SOL    HW1 2324   2.499   3.010   2.284  0.7738  0.6991  0.6787
  775SOL    HW2 2325   2.613   2.943   2.393  2.0929  0.6906  1.1053
  776SOL     OW 2326   0.048   1.239   0.232  0.0697  0.0430 -0.2866
  776SOL    HW1 2327  -0.028   1.184   0.188 -0.0133 -2.6862  0.1460
  776SOL    HW2 2328   0.012   1.275   0.324  0.9410 -1.2288 -0.3042
  777SOL     OW 2329   0.361   2.801   0.358 -0.5523 -0.2664 -0.3330
  777SOL    HW1 2330   0.256   2.817   0.362  0.2636 -0.7741  1.2925
  777SOL    HW2 2331   0.414   2.867   0.297  0.2331 -3.5469  1.5792
  778SOL     OW 2332   1.351   1.964   0.157  0.0428 -0.4690  0.2960
  778SOL    HW1 2333   1.287   1.974   0.233 -0.4504  2.5401 -2.0590
  778SOL    HW2 2334   1.374   2.059   0.118  0.0046 -0.3697 -2.3970
  779SOL     OW 2335   0.190   0.854   0.499 -0.3218 -0.3851 -0.3580
  779SOL    HW1 2336   0.132   0.773   0.469  0.2536  1.2062 -1.2144
  779SOL    HW2 2337   0.136   0.941   0.525 -1.9573  3.2654 -2.1456
  780SOL     OW 2338   0.060   0.235   2.390  0.1584 -0.5309  0.0362
  780SOL    HW1 2339   0.037   0.337   2.404 -0.8580  1.3395 -0.5849
  780SOL    HW2 2340   0.155   0.223   2.350 -0.3679  0.4264 -0.1139
  781SOL     OW 2341   0.653   1.663   1.516 -0.0652  0.1424  0.4332
  781SOL    HW1 2342   0.741   1.611   1.536  0.6196  0.4462  0.4039
  781SOL    HW2 2343   0.566   1.620   1.555  1.6659 -0.1344  0.0681
  782SOL     OW 2344   2.573   0.069   0.941  0.2064 -0.2996 -0.2803
  782SOL    HW1 2345   2.539   0.078   0.844  1.5245 -0.5982  0.1221
  782SOL    HW2 2346   2.589   0.162   0.997  0.7104  1.9660 -0.6908
  783SOL     OW 2347   2.817   0.706   2.512  0.6893  0.3060  0.4383
  783SOL    HW1 2348   2.770   0.746   2.593  0.2052  2.1564  1.7582
  783SOL    HW2 2349   2.772   0.617   2.481 -1.2626 -0.8079 -0.2040
  784SOL     OW 2350   1.450   2.214   0.049  0.0086 -0.1888  0.7673
  784SOL    HW1 2351   1.509   2.286   0.093 -2.7325 -1.1927 -2.3313
  784SOL    HW2 2352   1.421   2.239  -0.052 -0.8149 -1.8490 -1.6399
  785SOL     OW 2353   2.132   0.334   0.090  0.5446 -0.0364  0.1513
  785SOL    HW1 2354   2.047   0.360   0.146 -2.7395  1.5780  1.8684
  785SOL    HW2 2355   2.160   0.407   0.021  0.7023 -0.7314 -1.4369
  786SOL     OW 2356   2.052   2.207   2.247  0.1729 -0.3347 -0.4518
  786SOL    HW1 2357   2.033   2.111   2.280 -0.4713  1.0180 -2.9714
  786SOL    HW2 2358   2.144   2.204   2.216 -2.2963  1.0984 -0.1205
  787SOL     OW 2359   1.350   0.496   0.974  0.6894  0.2293 -0.3232
  787SOL    HW1 2360   1.270   0.559   0.993 -0.9504 -0.2919  0.2550
  787SOL    HW2 2361   1.393   0.523   0.889 -1.5334 -1.1401  0.8575
  788SOL     OW 2362   1.274   0.426   0.075  0.9147 -0.2830 -0.7368
  788SOL    HW1 2363   1.180   0.390   0.047  0.0890  1.8768 -1.1256
  788SOL    HW2 2364   1.276   0.518   0.131 -1.4379 -0.6624  3.4894
  789SOL     OW 2365   2.548   0.086   1.951  0.5830 -0.2782 -0.2072
  789SOL    HW1 2366   2.458   0.116   1.909 -1.9581 -0.7846  2.1962
  789SOL    HW2 2367   2.572  -0.008   1.907  1.8689  2.4139  1.4655
  790SOL     OW 2368   2.666   2.744   0.830  0.5987 -0.3904 -0.2361
  790SOL    HW1 2369   2.718   2.775   0.748 -1.6213 -2.7008  1.0509
  790SOL    HW2 2370   2.660   2.810   0.908 -0.3361 -0.4706  1.7355
  791SOL     OW 2371   1.928   1.200   0.198 -0.4478 -0.0540  0.5435
  791SOL    HW1 2372   1.832   1.160   0.208 -1.3278  0.3603 -2.0206
  791SOL    HW2 2373   2.003   1.144   0.251 -0.2078  0.2462  0.8566
  792SOL     OW 2374   0.441   1.839   2.186 -0.6080  0.9077  0.2480
  792SOL    HW1 2375   0.514   1.773   2.223  1.1616  3.2147 -1.6152
  792SOL    HW2 2376   0.349   1.840   2.238 -0.1331 -0.4087  3.0266
  793SOL     OW 2377   2.082   1.541   2.118 -0.1768  0.2305 -0.1876
  793SOL    HW1 2378   2.177   1.579   2.103  2.0629  2.4222  0.4628
  793SOL    HW2 2379   2.068   1.446   2.075  1.2566 -1.8078  0.8291
  794SOL     OW 2380   0.513   1.380   2.367  0.1288 -0.5440  0.2381
  794SOL    HW1 2381   0.494   1.330   2.282 -2.3178  0.7297 -0.4776
  794SOL    HW2 2382   0.466   1.471   2.366 -0.7031  0.8212  1.1630
  795SOL     OW 2383   2.501   2.249   1.857  0.1281  0.1235  0.4687
  795SOL    HW1 2384   2.505   2.206   1.950  0.6954 -0.9821  0.1353
  795SOL    HW2 2385   2.430   2.211   1.793  1.2069  0.0032  0.0936
  796SOL     OW 2386   3.057   1.133   2.703 -0.1087 -0.0987 -0.4360
  796SOL    HW1 2387   2.950   1.140   2.709 -1.7152  1.7726  0.1499
  796SOL    HW2 2388   3.102   1.154   2.796 -0.8355  0.4522  3.0910
  797SOL     OW 2389   0.762   0.638   1.395 -0.0700  0.0793 -0.7007
  797SOL    HW1 2390   0.840   0.682   1.453  1.9134 -1.9554  0.4059
  797SOL    HW2 2391   0.699   0.713   1.357  0.7919  1.5843 -0.4554
  798SOL     OW 2392   1.299   0.295   1.165  0.3994 -0.2383  0.2527
  798SOL    HW1 2393   1.348   0.321   1.248  1.1199 -0.3097 -0.1191
  798SOL    HW2 2394   1.322   0.360   1.083  1.1775  1.8626 -2.8354
  799SOL     OW 2395   1.950   2.738   1.031 -0.7789  0.3106 -0.0052
  799SOL    HW1 2396   1.940   2.715   1.127 -0.1246 -2.9883 -1.3438
  799SOL    HW2 2397   1.868   2.700   0.977 -1.3908 -2.0947  0.4142
  800SOL     OW 2398   3.013   0.667   1.845 -0.6452  0.5384  0.0600
  800SOL    HW1 2399   2.953   0.732   1.897  0.7859  0.4839  1.1333
  800SOL    HW2 2400   3.067   0.612   1.912 -0.6266  0.0394  0.6231
  801SOL     OW 2401   1.966   2.242   0.097 -0.4944 -0.2146  0.4610
  801SOL    HW1 2402   1.885   2.235   0.032  0.1050 -0.3584  1.0526
  801SOL    HW2 2403   2.054   2.215   0.043  2.1816  1.4785 -1.1333
  802SOL     OW 2404   0.702   0.832   2.560 -0.1458 -0.0467  0.5834
  802SOL    HW1 2405   0.763   0.799   2.481 -0.6485  0.3008  1.6209
  802SOL    HW2 2406   0.613   0.874   2.532 -1.9901 -0.7661  0.7480
  803SOL     OW 2407   0.943   0.037   0.846 -0.2746  0.0115 -0.4058
  803SOL    HW1 2408   1.035   0.079   0.865  0.4925  0.5438 -0.8724
  803SOL    HW2 2409   0.884   0.109   0.801 -2.5833 -1.4210 -1.7443
  804SOL     OW 2410   0.296   0.046   2.134  0.7393 -0.1826 -0.1496
  804SOL    HW1 2411   0.320   0.143   2.164 -0.8095 -0.8468 -0.7921
  804SOL    HW2 2412   0.236   0.041   2.049  1.2493  1.6721 -0.1050
  805SOL     OW 2413   2.385   0.305   0.362 -0.0031  0.9536  0.0125
  805SOL    HW1 2414   2.467   0.332   0.418  0.6340 -1.1910 -2.1432
  805SOL    HW2 2415   2.409   0.287   0.264 -1.2203  0.4463 -0.0063
  806SOL     OW 2416   0.614   2.449   1.751 -0.1208  0.4384  1.0481
  806SOL    HW1 2417   0.584   2.550   1.748 -0.7733  1.4054  2.1608
  806SOL    HW2 2418   0.706   2.431   1.706 -1.0236 -0.2336 -1.1807
  807SOL     OW 2419   2.478   0.859   0.386  0.0501 -0.5624 -0.3499
  807SOL    HW1 2420   2.576   0.871   0.424 -0.6755 -1.2929  0.5342
  807SOL    HW2 2421   2.469   0.925   0.310  2.8223  0.5199  0.3838
  808SOL     OW 2422   0.549   2.063   2.916  0.3212  0.2577 -0.2444
  808SOL    HW1 2423   0.538   2.126   2.998 -0.1680  1.9375  0.2527
  808SOL    HW2 2424   0.580   1.965   2.944 -0.4303 -0.7214  2.1333
  809SOL     OW 2425   2.693   1.968   1.917 -0.4065  0.3987 -0.4538
  809SOL    HW1 2426   2.786   2.004   1.946  0.4020 -0.2601  0.8836
  809SOL    HW2 2427   2.644   2.014   1.838  1.1816  1.1033 -0.1615
  810SOL     OW 2428   2.081   1.043   0.535 -0.1597 -0.2622 -0.0690
  810SOL    HW1 2429   2.141   0.991   0.604 -0.7737 -2.8350 -2.1470
  810SOL    HW2 2430   2.023   1.115   0.577  0.3263 -0.7273 -0.2271
  811SOL     OW 2431   1.343   2.509   1.226  0.1347 -0.1309 -0.3828
  811SOL    HW1 2432   1.310   2.415   1.252  0.6584  1.1767 -3.6263
  811SOL    HW2 2433   1.279   2.587   1.254 -2.5250  0.3297 -0.6608
  812SOL     OW 2434   1.426   0.801   1.966  0.1519 -0.6931  0.3442
  812SOL    HW1 2435   1.492   0.852   2.028  2.6194 -0.6396  1.5114
  812SOL    HW2 2436   1.332   0.841   1.960 -3.6333 -1.4140 -1.7158
  813SOL     OW 2437   1.723   2.045   2.504 -0.0513 -0.6515 -0.1989
  813SOL    HW1 2438   1.795   1.971   2.526 -1.8392 -0.2690 -0.6391
  813SOL    HW2 2439   1.691   2.033   2.407  1.4937  3.2065  1.9782
  814SOL     OW 2440   2.920   1.535   2.849 -0.0050 -0.4508  0.2400
  814SOL    HW1 2441   3.009   1.517   2.901  0.5275 -0.8114  1.2095
  814SOL    HW2 2442   2.928   1.624   2.797 -0.3786 -0.3264 -0.1575
  815SOL     OW 2443   2.146   2.925   2.780 -0.3609 -0.6523  0.0347
  815SOL    HW1 2444   2.090   2.902   2.861  1.3320  0.6026 -0.0186
  815SOL    HW2 2445   2.229   2.978   2.817  0.2521  3.0855 -0.4962
  816SOL     OW 2446   1.652   0.320   1.625  0.4264  0.0124 -0.3090
  816SOL    HW1 2447   1.703   0.228   1.630 -1.2761  1.4714 -0.6945
  816SOL    HW2 2448   1.557   0.319   1.664 -0.6528 -0.3253  0.3140
  817SOL     OW 2449   0.405   1.223   2.559 -0.1826 -0.6056  0.0216
  817SOL    HW1 2450   0.302   1.232   2.559 -0.5277  0.6037  0.1590
  817SOL    HW2 2451   0.439   1.283   2.480 -0.5407  0.6893 -0.8144
  818SOL     OW 2452   1.912   0.844   0.448 -0.0249  0.5972 -0.1889
  818SOL    HW1 2453   1.965   0.927   0.476 -0.3730 -2.0416  0.3378
  818SOL    HW2 2454   1.850   0.822   0.530 -1.6048  1.7561  0.8903
  819SOL     OW 2455   2.735   2.981   3.001 -0.4447 -0.1241 -0.0630
  819SOL    HW1 2456   2.803   2.905   2.990 -0.0581  1.2592 -1.9145
  819SOL    HW2 2457   2.640   2.958   2.983  0.0542  0.6616 -2.0140
  820SOL     OW 2458   1.262   1.096   0.695  0.2708  0.0442 -0.1527
  820SOL    HW1 2459   1.250   1.194   0.722 -1.0167 -2.8415 -2.2395
  820SOL    HW2 2460   1.233   1.028   0.764  0.7091 -3.0433  0.8584
  821SOL     OW 2461   3.075   1.321   0.677 -0.0027 -0.2262  0.2708
  821SOL    HW1 2462   3.085   1.307   0.777 -0.1016 -0.5421 -2.2061
  821SOL    HW2 2463   3.154   1.358   0.627  2.5852  0.7451  2.1971
  822SOL     OW 2464   2.575   1.730   2.452  0.1921 -0.2801 -0.4718
  822SOL    HW1 2465   2.596   1.822   2.496 -0.0182 -0.0514 -0.4275
  822SOL    HW2 2466   2.483   1.730   2.404  2.3808 -0.3206  1.3548
  823SOL     OW 2467   2.107   0.896   1.222  0.3215  0.0519 -0.0322
  823SOL    HW1 2468   2.026   0.865   1.277 -1.5047  1.1331  1.8659
  823SOL    HW2 2469   2.080   0.930   1.129  1.2204  1.0599  0.9963
  824SOL     OW 2470   0.217   2.073   2.786  0.4039 -0.4709 -0.3118
  824SOL    HW1 2471   0.168   2.005   2.844  2.6008 -0.4160 -1.2847
  824SOL    HW2 2472   0.295   2.038   2.731  0.7181  2.6651  4.0583
  825SOL     OW 2473   1.295   1.088   0.257  0.1562  0.3294  0.1624
  825SOL    HW1 2474   1.355   1.175   0.267  1.3543  1.5614  1.3481
  825SOL    HW2 2475   1.196   1.110   0.273 -2.2925  0.7927  1.3245
  826SOL     OW 2476   1.890   0.703   1.624  0.0554  0.2323  0.2283
  826SOL    HW1 2477   1.970   0.640   1.648  0.5908 -0.0200 -1.7436
  826SOL    HW2 2478   1.806   0.658   1.573 -0.8552 -0.7624  0.9282
  827SOL     OW 2479   0.674   1.246   0.250  0.2474 -1.5276 -0.3206
  827SOL    HW1 2480   0.767   1.215   0.224  0.7835  0.6053 -0.0747
  827SOL    HW2 2481   0.619   1.163   0.266  2.6480 -0.4351 -3.6016
  828SOL     OW 2482   2.528   0.088   1.597  0.5374  0.1482 -0.1435
  828SOL    HW1 2483   2.439   0.121   1.558  0.5198 -1.6578  0.4253
  828SOL    HW2 2484   2.515  -0.002   1.651 -0.8754  1.1552  2.0672
  829SOL     OW 2485   2.771   2.472   3.011 -0.0593  0.4357  0.6571
  829SOL    HW1 2486   2.698   2.395   3.007 -1.0613 -0.0729  0.7932
  829SOL    HW2 2487   2.736   2.559   3.054 -1.8842  0.1731 -1.5903
  830SOL     OW 2488   2.862   0.966   2.986  0.1771  0.1755 -0.0885
  830SOL    HW1 2489   2.889   1.058   3.020 -0.9779 -1.2769 -0.6282
  830SOL    HW2 2490   2.891   0.894   3.048 -1.5942  1.6454 -2.3044
  831SOL     OW 2491   0.062   0.623   0.411 -0.9161  0.0349  0.0997
  831SOL    HW1 2492   0.049   0.554   0.489 -0.8703 -1.5736 -3.0877
  831SOL    HW2 2493   0.084   0.581   0.320  0.2306  2.2469  0.8651
  832SOL     OW 2494   1.781   0.743   2.999  0.1493  0.0753 -0.2788
  832SOL    HW1 2495   1.688   0.782   2.979  0.3225  0.7146 -1.5543
  832SOL    HW2 2496   1.782   0.643   3.028  0.5824 -1.5085 -0.2157
  833SOL     OW 2497   2.450   2.170   0.541  0.6585 -0.4200 -0.0532
  833SOL    HW1 2498   2.353   2.187   0.522  1.0829 -0.1635  1.8702
  833SOL    HW2 2499   2.466   2.067   0.540 -0.0567  1.4493  2.4370
  834SOL     OW 2500   0.199   0.220   0.552 -0.0305 -0.0597 -0.3373
  834SOL    HW1 2501   0.235   0.154   0.630 -0.1624 -2.3396  2.2068
  834SOL    HW2 2502   0.202   0.169   0.459 -0.5363  0.7930  1.1567
  835SOL     OW 2503   2.381   1.543   1.116 -0.6994 -0.0451 -0.4759
  835SOL    HW1 2504   2.373   1.641   1.156 -1.1170  1.1136  4.0722
  835SOL    HW2 2505   2.447   1.543   1.037 -0.3775 -1.6411  0.9641
  836SOL     OW 2506   1.593   0.825   2.553  0.0745  0.1376  0.2550
  836SOL    HW1 2507   1.487   0.820   2.559  1.1499  1.9841  2.3690
  836SOL    HW2 2508   1.634   0.819   2.456 -1.1079 -0.4622  1.1953
  837SOL     OW 2509   1.706   0.116   0.551  0.0962  0.0612  0.1959
  837SOL    HW1 2510   1.652   0.170   0.620  1.4692 -1.9231 -1.7341
  837SOL    HW2 2511   1.673   0.133   0.455 -0.1807  0.8596 -0.5442
  838SOL     OW 2512   1.194   1.554   2.806  0.5581 -0.2114 -0.0059
  838SOL    HW1 2513   1.166   1.525   2.901  0.1241  0.3425 -0.0835
  838SOL    HW2 2514   1.147   1.494   2.735  0.0872  0.5399 -0.3778
  839SOL     OW 2515   1.672   0.313   1.009  0.1274 -0.1949  0.4819
  839SOL    HW1 2516   1.672   0.370   1.093  0.7907 -2.3154 -0.0929
  839SOL    HW2 2517   1.614   0.226   1.015  1.5126  0.2458  0.4126
  840SOL     OW 2518   2.510   2.961   1.748  0.0063  0.7517 -0.3036
  840SOL    HW1 2519   2.405   2.945   1.746 -0.3660 -1.6215 -2.4475
  840SOL    HW2 2520   2.556   2.881   1.792 -2.1126  2.3606 -0.5767
  841SOL     OW 2521   1.522   0.833   2.960  0.8165  0.2092 -0.4357
  841SOL    HW1 2522   1.460   0.855   3.045 -1.3594 -2.3608 -0.9740
  841SOL    HW2 2523   1.547   0.916   2.896  1.6938 -1.2942  3.3898
  842SOL     OW 2524   0.819   1.560   0.946 -0.1454 -0.4795  0.0424
  842SOL    HW1 2525   0.788   1.649   0.992  1.0089  2.5121 -0.9538
  842SOL    HW2 2526   0.737   1.513   0.901 -0.7881  0.1109  0.4444
  843SOL     OW 2527   0.068   0.047   1.403  0.0171 -0.5698 -0.3746
  843SOL    HW1 2528   0.153   0.108   1.423 -0.7850  2.6426 -1.0151
  843SOL    HW2 2529   0.077  -0.049   1.430  0.7496  0.1122 -1.0510
  844SOL     OW 2530   0.824   2.503   0.266  0.0227  0.3231  0.0061
  844SOL    HW1 2531   0.748   2.494   0.336  1.6800  1.5446  1.0700
  844SOL    HW2 2532   0.779   2.561   0.192  0.8840  1.4758  1.7459
  845SOL     OW 2533   1.617   2.897   1.376  0.0367 -0.5225  0.0453
  845SOL    HW1 2534   1.674   2.919   1.459  0.3828  1.7155 -1.1246
  845SOL    HW2 2535   1.569   2.810   1.382  2.1326 -0.4976  0.6821
  846SOL     OW 2536   1.558   2.903   0.693  0.4347  0.0122 -0.4297
  846SOL    HW1 2537   1.594   2.873   0.599 -0.5974 -0.2018 -1.3638
  846SOL    HW2 2538   1.637   2.914   0.765  1.0900 -1.9109  3.0406
  847SOL     OW 2539   2.068   1.629   0.326  0.2745 -0.0070 -0.3658
  847SOL    HW1 2540   2.020   1.541   0.366  1.0985  1.3107  3.3064
  847SOL    HW2 2541   1.994   1.698   0.310 -4.0985  0.3839 -2.7017
  848SOL     OW 2542   2.441   0.875   2.576 -0.0795  0.0595  0.4681
  848SOL    HW1 2543   2.397   0.960   2.611 -4.0573 -0.9297 -3.2128
  848SOL    HW2 2544   2.378   0.794   2.588 -2.3044  1.1222 -1.1393
  849SOL     OW 2545   2.598   0.834   2.363 -0.2405 -0.3403  0.0015
  849SOL    HW1 2546   2.688   0.796   2.395  0.2254 -2.6595 -1.3857
  849SOL    HW2 2547   2.540   0.865   2.446 -0.0663 -0.0135  0.0699
  850SOL     OW 2548   1.548   0.113   1.322  0.5416 -0.3859  0.6345
  850SOL    HW1 2549   1.540   0.104   1.222  0.3159 -3.3787  1.6781
  850SOL    HW2 2550   1.508   0.028   1.364 -0.1745 -2.8586 -4.4881
  851SOL     OW 2551   0.478   1.820   0.588  0.1058  0.1186 -0.0751
  851SOL    HW1 2552   0.523   1.914   0.598  1.4894 -0.3081  3.1046
  851SOL    HW2 2553   0.514   1.766   0.508 -2.1816  1.6880 -0.4436
  852SOL     OW 2554   0.803   2.115   1.640 -0.0843 -0.3376  0.3381
  852SOL    HW1 2555   0.832   2.217   1.622  0.1663  1.3119  0.3421
  852SOL    HW2 2556   0.718   2.096   1.703  0.2968 -0.9640  0.1463
  853SOL     OW 2557   2.525   1.484   2.605  0.1997 -0.3628  0.2328
  853SOL    HW1 2558   2.465   1.411   2.569  3.8896  1.9906 -1.9414
  853SOL    HW2 2559   2.535   1.555   2.531  3.0124 -1.1208  0.9442
  854SOL     OW 2560   2.374   1.417   1.731  0.3097  0.2884 -0.0076
  854SOL    HW1 2561   2.431   1.374   1.657 -4.6196  0.0944 -0.6395
  854SOL    HW2 2562   2.298   1.355   1.765  0.0284  0.0763  3.1891
  855SOL     OW 2563   2.021   2.427   0.980  0.4928  0.6958  0.1501
  855SOL    HW1 2564   2.047   2.499   0.907 -2.6315 -1.5516 -0.4358
  855SOL    HW2 2565   2.092   2.403   1.052 -2.8165 -3.7758 -0.3547
  856SOL     OW 2566   1.321   1.489   0.950  0.2377 -0.0774 -0.6291
  856SOL    HW1 2567   1.375   1.578   0.965 -1.3132 -2.0637 -0.1167
  856SOL    HW2 2568   1.226   1.491   0.994 -0.3406 -0.8747  0.2117
  857SOL     OW 2569   3.086   2.693   0.948  0.3145 -0.1969  0.4102
  857SOL    HW1 2570   3.045   2.626   0.876  0.0788 -0.4289  3.1917
  857SOL    HW2 2571   3.183   2.708   0.925 -0.6941  0.7358 -1.0057
  858SOL     OW 2572   2.347   2.094   1.689 -0.1015 -0.5333  0.0464
  858SOL    HW1 2573   2.259   2.096   1.638  1.8723  1.5995  1.2486
  858SOL    HW2 2574   2.398   2.004   1.672  0.4909 -1.7358 -0.1126
  859SOL     OW 2575   2.475   0.530   1.017 -0.1251  0.4625 -0.3423
  859SOL    HW1 2576   2.544   0.584   0.957  0.1106  0.6275  1.6173
  859SOL    HW2 2577   2.520   0.439   1.049  1.4064  0.7584 -0.2173
  860SOL     OW 2578   1.958   2.794   0.428 -0.4755  0.1624  0.4228
  860SOL    HW1 2579   1.924   2.797   0.331  1.3902 -0.2296 -1.7127
  860SOL    HW2 2580   2.044   2.848   0.428 -5.3575 -1.6954 -0.6907
  861SOL     OW 2581   1.013   2.426   2.886  0.1613  0.1703  0.0306
  861SOL    HW1 2582   1.071   2.505   2.848  3.3885 -0.2254 -0.8189
  861SOL    HW2 2583   1.042   2.401   2.982  1.4112 -2.6494  0.3935
  862SOL     OW 2584   2.834   2.562   1.612 -0.6797  0.0212 -0.1921
  862SOL    HW1 2585   2.925   2.579   1.658 -0.3406  1.8152  0.1067
  862SOL    HW2 2586   2.798   2.641   1.552 -1.8430  0.1414 -1.0979
  863SOL     OW 2587   1.857   2.739   0.178 -0.1886  0.3350  0.2137
  863SOL    HW1 2588   1.900   2.645   0.195 -0.0496 -0.8381  0.7662
  863SOL    HW2 2589   1.754   2.735   0.156  0.3303  0.1075  0.1999
  864SOL     OW 2590   1.921   1.195   2.843 -0.3172 -0.3620  0.3162
  864SOL    HW1 2591   1.929   1.140   2.757 -0.8133 -1.2021  1.1735
  864SOL    HW2 2592   1.991   1.176   2.915 -0.7844  1.3253 -0.8064
  865SOL     OW 2593   2.195   1.862   0.636  0.6005 -0.3810 -0.1292
  865SOL    HW1 2594   2.256   1.857   0.719  0.1181 -2.1629 -1.0415
  865SOL    HW2 2595   2.100   1.823   0.655 -0.2493 -0.9640 -1.2950
  866SOL     OW 2596   2.873   2.905   1.008  0.1366  0.2652  0.4908
  866SOL    HW1 2597   2.885   2.975   0.932  1.2318 -1.4347  2.7601
  866SOL    HW2 2598   2.949   2.835   1.013 -1.2013  0.6977  0.0818
  867SOL     OW 2599   0.355   1.424   0.872 -0.7662 -0.6202 -0.3227
  867SOL    HW1 2600   0.337   1.321   0.842  0.9984 -2.7194 -1.2727
  867SOL    HW2 2601   0.332   1.494   0.803  2.1218 -2.8149  0.0352
  868SOL     OW 2602   0.788   1.906   2.023 -0.2065 -0.2908 -0.3901
  868SOL    HW1 2603   0.750   1.890   2.114  2.8791  0.2880 -1.0203
  868SOL    HW2 2604   0.737   1.974   1.959 -0.5003  2.1083 -0.2294
  869SOL     OW 2605   2.547   1.915   1.661  0.5451  0.0408 -0.2009
  869SOL    HW1 2606   2.634   1.971   1.641  0.5435 -0.3529  1.7723
  869SOL    HW2 2607   2.574   1.811   1.666  1.0664  0.5328 -0.7438
  870SOL     OW 2608   2.242   2.671   1.242 -0.4339 -0.0186 -0.0187
  870SOL    HW1 2609   2.210   2.572   1.212 -0.3197 -2.2718 -1.3289
  870SOL    HW2 2610   2.245   2.689   1.348 -2.0951 -1.2180 -2.7879
  871SOL     OW 2611   3.055   2.213   0.539  0.0919 -0.2161 -0.4284
  871SOL    HW1 2612   2.973   2.218   0.606 -0.5412 -0.4181 -2.2967
  871SOL    HW2 2613   3.031   2.253   0.445 -1.9767 -3.3307 -0.4766
  872SOL     OW 2614   2.119   0.537   1.706  0.1340  0.0509  0.0704
  872SOL    HW1 2615   2.072   0.512   1.796  0.5777 -0.1137  0.5323
  872SOL    HW2 2616   2.209   0.490   1.695 -0.1858 -1.3229 -3.7208
  873SOL     OW 2617   1.690   2.125   3.059 -0.4239  0.2705 -0.0596
  873SOL    HW1 2618   1.596   2.150   3.092 -1.3223  0.7251  0.2307
  873SOL    HW2 2619   1.693   2.101   2.959  1.7949  0.7600  0.2367
  874SOL     OW 2620   0.675   2.457   0.754 -0.2731  0.4647  0.2871
  874SOL    HW1 2621   0.659   2.554   0.790  3.4905 -0.9318  0.6188
  874SOL    HW2 2622   0.769   2.423   0.775  1.5214 -0.7520 -2.6787
  875SOL     OW 2623   2.339   1.478   1.402  0.7735  0.3776  0.1191
  875SOL    HW1 2624   2.409   1.547   1.422 -2.9425 -1.9315 -2.0021
  875SOL    HW2 2625   2.353   1.437   1.306 -1.5757  1.5681 -1.3444
  876SOL     OW 2626   0.043   2.268   2.726  0.0782 -0.1364  0.7318
  876SOL    HW1 2627   0.111   2.185   2.748  0.6425 -2.3677 -0.2458
  876SOL    HW2 2628   0.066   2.359   2.771  0.7956 -0.2087 -1.2192
  877SOL     OW 2629   2.915   2.689   0.550 -0.6894 -0.0392  0.2727
  877SOL    HW1 2630   2.885   2.781   0.587 -0.4705 -1.7270  0.7172
  877SOL    HW2 2631   2.955   2.630   0.621  1.4151  2.0165 -0.6835
  878SOL     OW 2632   2.799   1.493   2.243  0.1048 -0.5257  0.7288
  878SOL    HW1 2633   2.776   1.583   2.197 -2.9658  1.0934 -0.9608
  878SOL    HW2 2634   2.801   1.501   2.347  0.5192  0.8926  0.8098
  879SOL     OW 2635   2.422   0.127   1.243 -0.4087 -0.1264  0.5790
  879SOL    HW1 2636   2.436   0.029   1.268  0.1836  1.1307 -0.4753
  879SOL    HW2 2637   2.378   0.138   1.151 -0.2552  0.7726 -0.4030
  880SOL     OW 2638   0.772   0.473   2.222 -0.3272  0.0458  0.2515
  880SOL    HW1 2639   0.727   0.428   2.303 -2.4690  2.1502 -0.9000
  880SOL    HW2 2640   0.813   0.411   2.151  0.5889 -2.1237  1.6133
  881SOL     OW 2641   0.893   0.041   0.497  0.1005 -0.2020  0.4751
  881SOL    HW1 2642   0.943  -0.041   0.545 -0.4670 -1.7927  1.0545
  881SOL    HW2 2643   0.792   0.027   0.507  1.1278  0.5025  1.6887
  882SOL     OW 2644   2.707   1.674   1.677 -0.0668  0.1097  0.2724
  882SOL    HW1 2645   2.792   1.641   1.621  3.0967 -1.1916  1.2659
  882SOL    HW2 2646   2.718   1.677   1.778 -0.4013 -1.6821 -0.7194
  883SOL     OW 2647   0.895   0.505   0.917  0.1875  0.0371  0.3250
  883SOL    HW1 2648   0.933   0.596   0.946  0.3939 -1.4036 -1.4347
  883SOL    HW2 2649   0.901   0.433   0.991  1.9167 -0.6015  0.3822
  884SOL     OW 2650   1.148   1.725   1.184  0.1965  0.4050  0.4131
  884SOL    HW1 2651   1.123   1.666   1.109  2.1212  1.1929  1.3739
  884SOL    HW2 2652   1.121   1.827   1.163  1.3067  0.6979 -4.1903
  885SOL     OW 2653   2.331   1.778   2.308 -0.0712  0.0663 -0.3214
  885SOL    HW1 2654   2.247   1.720   2.342 -1.8613  0.4206  2.2509
  885SOL    HW2 2655   2.286   1.859   2.259 -0.2940 -1.6040 -0.8189
  886SOL     OW 2656   2.591   0.334   1.791  0.1764  0.1003  0.0393
  886SOL    HW1 2657   2.587   0.274   1.873  0.2084  3.4957  0.1063
  886SOL    HW2 2658   2.665   0.407   1.797  2.2831  0.4570  0.8661
  887SOL     OW 2659   0.106   1.942   1.342  0.1100  0.1794  0.1689
  887SOL    HW1 2660   0.004   1.942   1.322 -0.2269 -1.8508  0.8157
  887SOL    HW2 2661   0.151   2.032   1.326 -0.3542 -0.6380 -0.1056
  888SOL     OW 2662   0.550   1.213   1.533  0.0456  0.0511  0.6424
  888SOL    HW1 2663   0.569   1.281   1.456 -0.2121 -0.1172  3.0244
  888SOL    HW2 2664   0.495   1.125   1.502  1.4392 -2.1868  0.3775
  889SOL     OW 2665   0.811   2.497   2.175  0.0231 -0.5319  0.4087
  889SOL    HW1 2666   0.747   2.419   2.161  2.5778  0.9092  2.2356
  889SOL    HW2 2667   0.894   2.488   2.112 -2.1729  1.2184  0.1459
  890SOL     OW 2668   2.413   2.460   0.251  0.0476 -0.5486  0.0440
  890SOL    HW1 2669   2.401   2.484   0.152 -2.8551 -0.8755 -0.3236
  890SOL    HW2 2670   2.349   2.519   0.309  0.6696  0.5705 -0.8406
  891SOL     OW 2671   2.519   1.718   0.676  0.1991  0.3677  0.1707
  891SOL    HW1 2672   2.538   1.673   0.765 -1.7506  0.5049  2.0574
  891SOL    HW2 2673   2.447   1.674   0.619 -1.4659 -2.7846  2.5433
  892SOL     OW 2674   0.369   0.273   2.290  0.1409  0.3445 -0.6603
  892SOL    HW1 2675   0.385   0.352   2.221 -2.3595  1.6676 -0.2003
  892SOL    HW2 2676   0.444   0.268   2.359 -0.3489  2.1862 -2.6448
  893SOL     OW 2677   1.661   0.244   2.702  0.5604  0.3942  0.2896
  893SOL    HW1 2678   1.735   0.309   2.729  0.7595 -0.3152 -2.9464
  893SOL    HW2 2679   1.564   0.282   2.688 -0.9921 -1.7181 -1.5377
  894SOL     OW 2680   2.176   2.040   0.033 -0.0294  0.0732  0.1949
  894SOL    HW1 2681   2.133   1.994  -0.053  0.7254 -1.3378 -0.6729
  894SOL    HW2 2682   2.182   1.972   0.114 -0.1042  0.0781 -0.9919
  895SOL     OW 2683   2.813   1.449   0.916 -0.2554  0.0047  0.3309
  895SOL    HW1 2684   2.901   1.402   0.937 -0.2499  1.9937  2.5540
  895SOL    HW2 2685   2.810   1.540   0.972 -2.1145 -1.4143  0.4941
  896SOL     OW 2686   1.700   1.809   1.189 -0.0983 -0.0570  0.6297
  896SOL    HW1 2687   1.722   1.755   1.105  1.2418  0.6396 -1.0398
  896SOL    HW2 2688   1.658   1.900   1.168  0.7914 -0.2907  1.8746
  897SOL     OW 2689   0.310   0.540   3.061  0.1675  0.4066  0.1773
  897SOL    HW1 2690   0.253   0.570   2.975  1.3690  1.0243 -0.3454
  897SOL    HW2 2691   0.390   0.606   3.068  0.9628  1.3130  0.5474
  898SOL     OW 2692   0.573   2.869   1.071  0.0361  0.1971  0.0189
  898SOL    HW1 2693   0.574   2.972   1.076  0.1021 -2.3129  0.8896
  898SOL    HW2 2694   0.657   2.826   1.114 -2.1223  2.2828 -0.9185
  899SOL     OW 2695   2.824   0.891   1.328 -0.0152 -0.0532 -0.7074
  899SOL    HW1 2696   2.807   0.865   1.233 -1.7390  0.8997  0.8232
  899SOL    HW2 2697   2.912   0.936   1.348  0.9206 -1.7052  0.5471
  900SOL     OW 2698   0.974   2.522   2.449 -0.4608  0.0866 -0.4050
  900SOL    HW1 2699   0.920   2.503   2.371  4.0194 -0.0684 -0.2095
  900SOL    HW2 2700   0.925   2.510   2.542 -0.8593 -0.3695 -1.1235
  901SOL     OW 2701   1.906   2.361   1.359 -0.1034 -0.7118  0.1255
  901SOL    HW1 2702   1.889   2.305   1.270  0.5724 -0.4432 -2.0455
  901SOL    HW2 2703   2.001   2.353   1.397  1.1587  1.8723  0.0953
  902SOL     OW 2704   2.548   1.637   1.434  0.1355 -0.4452 -0.5339
  902SOL    HW1 2705   2.587   1.632   1.530 -0.4641  0.9762 -0.5567
  902SOL    HW2 2706   2.616   1.602   1.361  0.8731 -1.3497 -0.0988
  903SOL     OW 2707   0.233   2.468   1.954 -0.1051  0.5009 -0.1917
  903SOL    HW1 2708   0.145   2.437   1.914  1.2278 -1.9463  0.1625
  903SOL    HW2 2709   0.271   2.553   1.912 -0.2315 -0.4041  0.7761
  904SOL     OW 2710   2.010   0.791   2.591  0.5051 -0.0988 -0.2219
  904SOL    HW1 2711   1.925   0.728   2.603  1.1580  1.4835 -1.2838
  904SOL    HW2 2712   2.037   0.814   2.494  0.7493 -0.4773  0.3039
  905SOL     OW 2713   2.854   0.139   2.557 -0.0199  0.0784  0.1128
  905SOL    HW1 2714   2.906   0.055   2.566 -0.0625  2.1080  0.8905
  905SOL    HW2 2715   2.915   0.217   2.536 -0.7980 -0.2135  0.2251
  906SOL     OW 2716   0.213   1.708   1.930  0.5823 -0.2858  0.3325
  906SOL    HW1 2717   0.132   1.732   1.869 -0.8110 -0.3462 -0.7066
  906SOL    HW2 2718   0.293   1.756   1.885  1.4213  1.4069  0.0772
  907SOL     OW 2719   0.252   2.442   1.017  0.2221 -0.0206  0.3575
  907SOL    HW1 2720   0.343   2.404   0.985  0.8390  2.0097  1.1593
  907SOL    HW2 2721   0.221   2.527   0.966  0.0990 -0.9678  0.2425
  908SOL     OW 2722   2.819   3.007   0.379  0.0802 -0.6323 -0.0132
  908SOL    HW1 2723   2.723   3.048   0.375 -0.5038  0.0544 -2.8003
  908SOL    HW2 2724   2.844   2.939   0.309  1.9734 -1.8404  1.4695
  909SOL     OW 2725   0.826   1.047   2.646  0.0904 -0.6106 -0.2066
  909SOL    HW1 2726   0.773   0.957   2.627 -0.8999 -0.4887  0.2981
  909SOL    HW2 2727   0.878   1.079   2.558 -0.4846  1.8331 -1.8838
  910SOL     OW 2728   1.802   1.897   2.173 -0.0129  0.3929 -0.3178
  910SOL    HW1 2729   1.860   1.896   2.085 -3.0335  2.7121  1.0796
  910SOL    HW2 2730   1.721   1.960   2.168  1.4896 -1.1020  2.5562
  911SOL     OW 2731   1.811   2.929   1.608 -0.2048  0.0749  0.0994
  911SOL    HW1 2732   1.868   2.915   1.521 -0.5924  0.9171 -1.2159
  911SOL    HW2 2733   1.821   2.854   1.675  0.7039 -0.5236  0.7860
  912SOL     OW 2734   2.861   1.014   0.739 -0.1242  0.1842 -0.0738
  912SOL    HW1 2735   2.875   0.964   0.829  1.9265 -1.0697 -2.1851
  912SOL    HW2 2736   2.812   1.106   0.742  2.2969  3.4731  4.7602
  913SOL     OW 2737   2.531   1.286   1.549  0.0722  0.2844 -0.0308
  913SOL    HW1 2738   2.570   1.191   1.529  1.6053 -1.5259 -1.4725
  913SOL    HW2 2739   2.588   1.354   1.501  1.3372 -0.5871  0.5580
  914SOL     OW 2740   2.782   0.595   1.179  0.1576 -0.2004  0.1419
  914SOL    HW1 2741   2.808   0.504   1.228 -0.8099  1.3228  1.7937
  914SOL    HW2 2742   2.679   0.591   1.150  1.1101  0.8647  0.1777
  915SOL     OW 2743   1.182   0.723   1.038 -0.3415  0.3281  0.0786
  915SOL    HW1 2744   1.237   0.758   1.119 -2.0383  0.0302  0.7107
  915SOL    HW2 2745   1.088   0.724   1.063  0.5400  1.7423  3.1524
  916SOL     OW 2746   0.600   0.021   0.641 -0.0412  0.1386  0.4260
  916SOL    HW1 2747   0.635   0.093   0.710 -1.8493 -0.2385  3.2665
  916SOL    HW2 2748   0.605   0.058   0.546  0.5337 -1.3157 -1.7396
  917SOL     OW 2749   2.830   2.606   2.031 -0.2545  0.3588 -0.4333
  917SOL    HW1 2750   2.742   2.634   1.984  0.4519  0.3711  0.4663
  917SOL    HW2 2751   2.913   2.649   1.984  0.5353  2.8487  0.7660
  918SOL     OW 2752   1.018   2.093   3.026  0.2541  0.3581 -0.0570
  918SOL    HW1 2753   0.991   2.173   3.089 -1.6964 -1.0569 -1.4468
  918SOL    HW2 2754   1.094   2.128   2.964 -2.1814  0.9296 -1.0735
  919SOL     OW 2755   0.824   1.619   2.865  0.3161 -0.4224 -0.3760
  919SOL    HW1 2756   0.870   1.693   2.813 -0.2946 -0.6871  0.3077
  919SOL    HW2 2757   0.793   1.543   2.804  2.2132  0.2445 -0.9062
  920SOL     OW 2758   1.249   1.825   2.522 -0.3336  0.9440 -0.4843
  920SOL    HW1 2759   1.303   1.769   2.450  0.5493 -0.9150 -0.8382
  920SOL    HW2 2760   1.208   1.756   2.589  1.5180 -2.1824 -1.2919
  921SOL     OW 2761   1.078   0.022   2.628 -0.5173 -0.0687 -0.2013
  921SOL    HW1 2762   1.025  -0.022   2.551  0.0512  1.0070  1.6771
  921SOL    HW2 2763   1.012   0.068   2.698 -2.3982  3.3161 -0.6117
  922SOL     OW 2764   2.228   2.366   2.796 -0.1503 -0.1296  0.1425
  922SOL    HW1 2765   2.229   2.265   2.778 -3.2099 -2.4311 -1.1300
  922SOL    HW2 2766   2.166   2.408   2.731 -0.4312 -0.9783 -0.1064
  923SOL     OW 2767   1.283   2.668   0.281  0.1066 -0.0331  0.2476
  923SOL    HW1 2768   1.350   2.742   0.303  1.4487 -0.2017  1.3218
  923SOL    HW2 2769   1.320   2.575   0.286  0.2158 -1.8117 -0.4559
  924SOL     OW 2770   2.828   1.668   0.121 -0.1770 -0.6177  0.8991
  924SOL    HW1 2771   2.761   1.628   0.056  1.4323 -0.5057 -1.2201
  924SOL    HW2 2772   2.907   1.601   0.137  1.0370 -0.2440 -1.2345
  925SOL     OW 2773   0.008   2.887   1.461  0.0722 -0.1408  0.2443
  925SOL    HW1 2774  -0.059   2.928   1.528 -0.8155  0.1439 -1.5513
  925SOL    HW2 2775  -0.017   2.795   1.419  1.3504  2.5242 -0.8619
  926SOL     OW 2776   1.284   2.793   1.332 -0.3421 -0.2871 -0.3624
  926SOL    HW1 2777   1.334   2.804   1.242  0.4278 -1.1731 -0.8861
  926SOL    HW2 2778   1.297   2.866   1.403 -2.1985  1.2796  0.4599
  927SOL     OW 2779   0.313   2.671   1.784 -0.0255 -0.1295  0.5583
  927SOL    HW1 2780   0.292   2.593   1.719  2.1367  0.8450 -1.6046
  927SOL    HW2 2781   0.266   2.759   1.762 -0.0099 -0.3985  1.9796
  928SOL     OW 2782   1.575   2.074   2.231 -0.0136 -0.5022  0.6767
  928SOL    HW1 2783   1.609   2.158   2.178 -2.1600 -2.3963 -1.4923
  928SOL    HW2 2784   1.473   2.085   2.240 -2.1807  2.3556 -2.5230
  929SOL     OW 2785   2.440   2.518   2.855 -0.8621 -0.0779 -0.2382
  929SOL    HW1 2786   2.348   2.470   2.839  0.7881  0.3676 -1.2728
  929SOL    HW2 2787   2.506   2.504   2.776 -0.5518  0.8056  3.3072
  930SOL     OW 2788   2.179   2.028   1.076 -0.1072 -0.0263 -0.2576
  930SOL    HW1 2789   2.177   1.988   1.174 -1.9370 -1.5851 -0.5312
  930SOL    HW2 2790   2.240   2.114   1.075  1.3797  4.3459  0.7536
  931SOL     OW 2791   0.530   1.697   2.687  0.0726 -0.1019  0.6725
  931SOL    HW1 2792   0.526   1.732   2.781 -1.2859  2.7879 -2.0853
  931SOL    HW2 2793   0.576   1.605   2.683 -1.4881 -0.4662  0.4455
  932SOL     OW 2794   0.464   0.129   3.057  0.0981  0.6460 -0.3039
  932SOL    HW1 2795   0.529   0.180   3.118 -1.3027 -3.7544  0.1147
  932SOL    HW2 2796   0.485   0.023   3.047  1.2414 -0.3226 -0.2208
  933SOL     OW 2797   0.968   0.804   3.073  0.2762 -0.1535  0.8092
  933SOL    HW1 2798   0.955   0.825   3.173  0.8766 -1.0203  0.3459
  933SOL    HW2 2799   0.902   0.859   3.016 -1.3426  0.6589 -0.6444
  934SOL     OW 2800   0.789   2.963   2.685 -0.0305 -0.4984  0.0627
  934SOL    HW1 2801   0.767   2.906   2.603 -0.4646 -3.0285  1.6096
  934SOL    HW2 2802   0.840   2.903   2.755  1.5512 -1.0551 -0.4868
  935SOL     OW 2803   0.044   0.521   0.828 -0.3709  0.4104 -0.0402
  935SOL    HW1 2804   0.042   0.488   0.728 -1.3057  0.3293 -0.3385
  935SOL    HW2 2805  -0.042   0.571   0.855  2.9367 -0.5815 -2.1447
  936SOL     OW 2806   1.113   2.771   0.077  0.4841 -0.0091 -0.6643
  936SOL    HW1 2807   1.176   2.835   0.027 -0.5850  0.4901  3.2665
  936SOL    HW2 2808   1.163   2.714   0.151  1.7885 -0.1311  0.4250
  937SOL     OW 2809   1.825   2.657   2.093 -0.0310  0.2454  0.1025
  937SOL    HW1 2810   1.731   2.699   2.094  2.9542 -0.8499 -1.3605
  937SOL    HW2 2811   1.881   2.672   2.009 -1.3712  0.6152 -0.8036
  938SOL     OW 2812   2.752   2.077   1.593  0.0612  0.2203  0.1297
  938SOL    HW1 2813   2.720   2.178   1.596 -1.2229 -0.5483  0.6090
  938SOL    HW2 2814   2.845   2.063   1.642 -1.2790 -0.9719  2.7096
  939SOL     OW 2815   2.845   1.187   2.424  0.1532 -0.2033  0.3141
  939SOL    HW1 2816   2.913   1.176   2.346  2.1050 -0.1010 -1.1735
  939SOL    HW2 2817   2.881   1.141   2.508 -0.7671  1.3235  3.6190
  940SOL     OW 2818   1.063   0.425   2.757 -0.2346  0.0391 -0.4761
  940SOL    HW1 2819   1.131   0.347   2.754 -2.3377 -1.6465 -0.2242
  940SOL    HW2 2820   0.974   0.399   2.708 -0.7447 -2.3840 -2.9716
  941SOL     OW 2821   0.026   2.793   2.254 -0.3247 -0.1622 -0.2510
  941SOL    HW1 2822   0.077   2.705   2.247  0.3754  1.0437 -0.1291
  941SOL    HW2 2823   0.081   2.868   2.306  1.5585  1.4388 -0.2711
  942SOL     OW 2824   0.103   0.043   2.575  0.1189  0.2856 -0.2012
  942SOL    HW1 2825   0.175   0.069   2.649 -1.8670  0.0220 -0.0173
  942SOL    HW2 2826   0.073   0.128   2.520  1.3952  0.1730  3.0667
  943SOL     OW 2827   2.094   1.652   2.385  0.1270 -0.1414 -0.0038
  943SOL    HW1 2828   2.069   1.627   2.285 -0.5759 -1.8599  0.3544
  943SOL    HW2 2829   2.100   1.567   2.455 -0.2982  2.3230  1.4268
  944SOL     OW 2830   2.158   2.348   1.457  0.0679 -0.2768 -0.3830
  944SOL    HW1 2831   2.247   2.381   1.493 -1.3890 -2.4791  2.4315
  944SOL    HW2 2832   2.141   2.258   1.501  1.3746  3.6361  0.8968
  945SOL     OW 2833   0.684   1.503   0.176 -0.2810 -0.0624  0.2112
  945SOL    HW1 2834   0.591   1.526   0.129  0.7602 -0.5646  0.2615
  945SOL    HW2 2835   0.687   1.400   0.197 -0.6204 -0.6995  0.0855
  946SOL     OW 2836   0.444   0.944   2.484 -0.2184  0.0319 -0.1095
  946SOL    HW1 2837   0.353   0.898   2.493  1.6775  1.6241  0.4818
  946SOL    HW2 2838   0.439   1.040   2.519 -1.9515 -0.0863 -2.4076
  947SOL     OW 2839   1.513   0.497   3.050  0.4083  0.0724  0.4129
  947SOL    HW1 2840   1.478   0.540   2.965 -0.6596  0.1464  2.6596
  947SOL    HW2 2841   1.433   0.456   3.111 -3.7620 -0.5970  0.8741
  948SOL     OW 2842   1.830   3.009   2.123 -0.0407  0.6384 -0.2407
  948SOL    HW1 2843   1.852   2.945   2.046  0.9661 -1.6749 -0.6341
  948SOL    HW2 2844   1.809   2.956   2.214 -0.0931 -1.1099 -0.2160
  949SOL     OW 2845   0.638   2.488   0.479 -0.4408  0.2179  0.6504
  949SOL    HW1 2846   0.636   2.597   0.482  1.4407  1.6321 -1.2355
  949SOL    HW2 2847   0.655   2.440   0.571  1.2080  1.2852  1.2766
  950SOL     OW 2848   0.222   2.234   3.012 -0.1330  0.4664 -0.2263
  950SOL    HW1 2849   0.161   2.306   2.970 -2.8698  1.0682 -1.2658
  950SOL    HW2 2850   0.251   2.157   2.946 -1.1986 -0.5194  1.7330
  951SOL     OW 2851   1.227   2.673   2.800  0.2376  0.5472 -0.1597
  951SOL    HW1 2852   1.305   2.714   2.858  0.5654 -0.4179 -1.2833
  951SOL    HW2 2853   1.254   2.673   2.698  0.0455  0.3469 -0.6621
  952SOL     OW 2854   0.051   1.657   0.381  0.0058 -0.2344  0.4714
  952SOL    HW1 2855   0.100   1.754   0.382 -0.9159  4.4979  0.6076
  952SOL    HW2 2856   0.097   1.586   0.444 -4.2018 -2.1394 -1.7755
  953SOL     OW 2857   2.537   1.777   0.214 -0.2064  0.2388  0.4715
  953SOL    HW1 2858   2.482   1.693   0.247 -1.0702 -0.4333  0.6924
  953SOL    HW2 2859   2.488   1.819   0.135 -3.2466 -1.3671 -0.3857
  954SOL     OW 2860   2.216   0.532   0.909  0.1833  0.0067 -0.6922
  954SOL    HW1 2861   2.198   0.575   0.818  0.7420  1.5036  1.7920
  954SOL    HW2 2862   2.314   0.519   0.932 -1.1921  0.7200 -1.0367
  955SOL     OW 2863   0.155   2.588   1.369  0.2464  0.1590 -0.1197
  955SOL    HW1 2864   0.057   2.611   1.351  2.7235  0.4268 -0.7995
  955SOL    HW2 2865   0.216   2.654   1.318  1.3256  1.3196 -2.3482
  956SOL     OW 2866   2.823   2.439   2.479  0.6962  0.1705 -0.0295
  956SOL    HW1 2867   2.849   2.349   2.442 -1.2372 -0.5699 -0.8260
  956SOL    HW2 2868   2.853   2.514   2.410  2.6431  2.1126 -0.5958
  957SOL     OW 2869   1.667   2.060   2.806  1.0094 -0.0217 -0.2197
  957SOL    HW1 2870   1.606   1.979   2.789  0.9784 -1.1451 -0.2514
  957SOL    HW2 2871   1.685   2.105   2.714 -2.4805 -1.4243  1.1290
  958SOL     OW 2872   2.571   2.303   2.979 -0.0940  0.1808  0.4485
  958SOL    HW1 2873   2.514   2.333   2.900 -1.5196 -2.9391  0.8731
  958SOL    HW2 2874   2.519   2.261   3.062 -0.8601 -1.6740  0.6769
  959SOL     OW 2875   0.284   2.792   0.031 -0.5931  0.6145 -0.3040
  959SOL    HW1 2876   0.178   2.791   0.030 -0.0808  0.4597  0.9549
  959SOL    HW2 2877   0.322   2.710   0.082 -1.7083  0.0448  1.7631
  960SOL     OW 2878   1.941   0.474   1.933 -0.1721 -0.1424 -0.2841
  960SOL    HW1 2879   1.880   0.558   1.918  1.7584  0.4127 -0.0361
  960SOL    HW2 2880   1.977   0.463   2.027  0.9863 -1.6810 -0.9884
  961SOL     OW 2881   2.562   1.851   1.042  0.5063  0.2125 -0.6699
  961SOL    HW1 2882   2.560   1.939   0.987  0.2463 -0.8399 -0.4665
  961SOL    HW2 2883   2.502   1.852   1.126  0.4546 -2.8873  1.1621
  962SOL     OW 2884   1.312   0.925   0.036 -0.1180  0.1958  0.2884
  962SOL    HW1 2885   1.266   0.959  -0.050  1.4261 -1.7075 -1.1702
  962SOL    HW2 2886   1.299   0.986   0.119 -0.2399 -2.3434 -1.1777
  963SOL     OW 2887   2.289   2.562   1.782 -0.1911  0.6618 -0.2466
  963SOL    HW1 2888   2.240   2.474   1.823 -1.5760 -2.7238  0.4674
  963SOL    HW2 2889   2.300   2.635   1.855 -0.9755  2.9220  0.4651
  964SOL     OW 2890   2.368   0.419   1.661 -0.1458  0.1057  0.7111
  964SOL    HW1 2891   2.455   0.379   1.696 -1.4426 -2.2257 -0.8948
  964SOL    HW2 2892   2.368   0.442   1.559  1.2433  3.3340 -0.9018
  965SOL     OW 2893   2.594   2.974   0.154  0.1655 -0.2974  0.2634
  965SOL    HW1 2894   2.658   2.976   0.075 -0.7080 -1.2086 -0.6793
  965SOL    HW2 2895   2.506   3.022   0.124 -0.5271  1.0690 -0.0042
  966SOL     OW 2896   2.575   2.549   2.294  0.5107  0.4121 -1.0089
  966SOL    HW1 2897   2.642   2.612   2.341  0.4021  1.5589 -2.4179
  966SOL    HW2 2898   2.501   2.606   2.250 -0.0083 -0.2849 -1.4852
  967SOL     OW 2899   2.783   2.827   2.497  0.3543  0.2193  0.3665
  967SOL    HW1 2900   2.812   2.758   2.428 -0.7995  1.7604 -2.3071
  967SOL    HW2 2901   2.864   2.882   2.532  0.3504  0.0492 -0.2204
  968SOL     OW 2902   1.929   1.071   2.615 -0.4527  0.2088  0.1577
  968SOL    HW1 2903   1.846   1.102   2.556 -0.0367  0.6571  1.4650
  968SOL    HW2 2904   1.956   0.968   2.600  2.4538 -2.3205 -0.4255
  969SOL     OW 2905   2.793   2.490   1.122  0.0216  1.2717 -0.2684
  969SOL    HW1 2906   2.789   2.473   1.022 -0.2930  0.2925  1.3754
  969SOL    HW2 2907   2.850   2.413   1.167 -0.9523 -1.0708 -0.0644
  970SOL     OW 2908   1.026   2.088   1.818  0.0522  0.2002 -0.6135
  970SOL    HW1 2909   0.940   2.090   1.760  0.7776  1.1587 -0.2766
  970SOL    HW2 2910   1.014   2.149   1.902  1.2390 -1.0226  0.9747
  971SOL     OW 2911   2.969   2.054   2.028 -0.4660  0.2506 -0.5066
  971SOL    HW1 2912   2.982   2.149   2.052  1.7677  0.5522 -0.3192
  971SOL    HW2 2913   2.987   2.046   1.928  0.1443  0.2511 -1.5395
  972SOL     OW 2914   1.965   2.499   0.232 -0.0457 -0.1266 -0.4599
  972SOL    HW1 2915   1.957   2.406   0.193 -1.3886 -1.0025  0.9776
  972SOL    HW2 2916   2.007   2.500   0.330 -1.7570 -2.8952  0.8107
  973SOL     OW 2917   1.273   1.051   1.921 -0.2550  0.2990 -0.3645
  973SOL    HW1 2918   1.201   0.995   1.875 -0.0757  1.0322  0.3566
  973SOL    HW2 2919   1.238   1.147   1.947 -0.8488  0.9334 -0.3241
  974SOL     OW 2920   1.606   0.575   1.974  0.1567  0.1220 -0.0985
  974SOL    HW1 2921   1.699   0.610   1.942 -0.1391 -0.6364  2.4106
  974SOL    HW2 2922   1.529   0.637   1.950  0.3382 -2.4144  3.8614
  975SOL     OW 2923   2.375   3.052   0.012 -0.1026  0.2820  0.2090
  975SOL    HW1 2924   2.305   2.985   0.048 -0.6468  3.0194  1.8328
  975SOL    HW2 2925   2.381   3.047  -0.092  1.3008  1.1299  0.0133
  976SOL     OW 2926   1.899   2.853   2.336  0.2851  0.2164  0.3271
  976SOL    HW1 2927   1.850   2.766   2.311  0.7642  3.1025 -1.8386
  976SOL    HW2 2928   1.921   2.853   2.437 -3.1151 -0.4126  2.1333
  977SOL     OW 2929   0.479   0.688   1.063 -0.3270 -0.1726 -0.2991
  977SOL    HW1 2930   0.400   0.683   1.003  2.5324 -3.9468  1.5147
  977SOL    HW2 2931   0.562   0.736   1.030 -2.0493 -0.2712  3.1653
   3.10000   3.10000   3.10000
