1000 SPC/Fw water molecules t=   1.14000 step= 1140
 2931
    1SOL     OW    1   2.565   0.339   2.613  0.1890  0.2180 -0.4122
    1SOL    HW1    2   2.573   0.234   2.622 -0.6496 -0.1007  0.2399
    1SOL    HW2    3   2.600   0.389   2.696  0.9083  1.5195 -4.4588
    2SOL     OW    4   2.756   3.020   1.385  0.4226  0.1640 -0.3501
    2SOL    HW1    5   2.824   3.038   1.307 -0.3084 -1.6203  0.5163
    2SOL    HW2    6   2.721   3.105   1.435  1.4349 -0.6879  0.2091
    3SOL     OW    7   2.614   2.606   0.432  0.3369  0.0201 -0.0159
    3SOL    HW1    8   2.595   2.507   0.436 -1.9946  1.3960 -0.3538
    3SOL    HW2    9   2.677   2.641   0.505  1.3814 -0.7586 -1.8036
    4SOL     OW   10   1.227   1.540   2.355  0.1590 -0.5766  0.4671
    4SOL    HW1   11   1.139   1.560   2.296  1.6680  0.2093  1.1925
    4SOL    HW2   12   1.238   1.440   2.377 -1.6212  0.5883 -0.8194
    5SOL     OW   13   1.132   1.561   3.035 -0.1885  0.5833  0.2505
    5SOL    HW1   14   1.187   1.648   3.052 -0.9124 -0.3691 -2.0054
    5SOL    HW2   15   1.028   1.578   3.027 -2.5832 -0.7790  2.8603
    6SOL     OW   16   0.193   1.747   2.990  0.7041  0.4762  0.6105
    6SOL    HW1   17   0.123   1.773   3.059  1.7573  0.6692 -0.6799
    6SOL    HW2   18   0.282   1.725   3.039 -2.4457 -1.3624 -1.3571
    7SOL     OW   19   2.559   0.896   1.060 -0.4548 -0.5666 -0.0549
    7SOL    HW1   20   2.474   0.849   1.090  0.2738 -1.3279 -1.9134
    7SOL    HW2   21   2.559   0.919   0.960 -1.0876  1.7803  0.7755
    8SOL     OW   22   0.429   0.608   1.478  0.6293  0.1301 -0.4328
    8SOL    HW1   23   0.520   0.568   1.504 -2.2101 -1.1294  1.4765
    8SOL    HW2   24   0.393   0.576   1.385 -0.2637 -1.9169 -2.2155
    9SOL     OW   25   1.207   0.918   2.433  0.0007 -0.7515 -0.0918
    9SOL    HW1   26   1.249   0.949   2.341  0.0869  2.0965  4.4044
    9SOL    HW2   27   1.182   0.818   2.443  1.0684 -0.9671  0.6386
   10SOL     OW   28   0.659   1.366   1.311 -0.1106 -0.3304  0.2539
   10SOL    HW1   29   0.569   1.370   1.260 -0.4190 -2.1498  2.2786
   10SOL    HW2   30   0.701   1.463   1.326  2.7166  3.8055 -0.1616
   11SOL     OW   31   2.319   2.820   0.850  0.3671 -0.1283  0.1033
   11SOL    HW1   32   2.263   2.814   0.943 -3.0940 -1.4269  2.6241
   11SOL    HW2   33   2.415   2.773   0.859 -0.0164  0.7296  0.8477
   12SOL     OW   34   1.495   0.851   0.417 -0.8543 -0.2376  0.3521
   12SOL    HW1   35   1.416   0.902   0.371 -0.5907 -1.2147 -0.6308
   12SOL    HW2   36   1.549   0.795   0.351 -0.5114  1.8871  1.1052
   13SOL     OW   37   2.469   0.716   1.779 -0.1535  0.4792  0.4624
   13SOL    HW1   38   2.424   0.662   1.852  1.2913  0.1760  2.4068
   13SOL    HW2   39   2.470   0.680   1.679  0.0185 -1.9451 -0.7982
   14SOL     OW   40   1.845   0.096   0.687  0.2685 -0.1554  0.1490
   14SOL    HW1   41   1.755   0.116   0.637  0.4323 -0.6255 -0.2138
   14SOL    HW2   42   1.851  -0.003   0.715 -2.1492  0.0856  1.0093
   15SOL     OW   43   1.894   2.093   2.737 -1.2537  0.0608  0.0892
   15SOL    HW1   44   1.831   2.175   2.750  0.3022  1.5203  0.3859
   15SOL    HW2   45   1.891   2.061   2.636 -1.0747  1.3730 -1.1798
   16SOL     OW   46   1.610   1.694   3.001 -0.8198  0.0156  0.1872
   16SOL    HW1   47   1.602   1.602   3.056  0.9242 -3.0386  0.5942
   16SOL    HW2   48   1.705   1.741   3.015 -0.7750  0.4508  3.1329
   17SOL     OW   49   0.064   0.453   0.151 -0.5502  0.0481 -0.0692
   17SOL    HW1   50   0.151   0.498   0.111  3.2654 -0.1958 -3.4615
   17SOL    HW2   51  -0.020   0.487   0.104 -1.7571  2.2846  0.3108
   18SOL     OW   52   0.925   2.958   2.139  0.0560  0.4237  0.4227
   18SOL    HW1   53   0.836   2.902   2.148  0.4640  0.0046 -0.7235
   18SOL    HW2   54   0.990   2.909   2.074  0.8572 -1.1981 -4.5559
   19SOL     OW   55   0.511   0.819   1.877 -0.9194  0.1315 -0.6652
   19SOL    HW1   56   0.516   0.776   1.973 -0.9014  0.4217  3.0557
   19SOL    HW2   57   0.583   0.894   1.851 -1.4648 -0.3615 -0.3078
   20SOL     OW   58   0.187   2.798   0.859  0.4083  0.1440 -0.2562
   20SOL    HW1   59   0.106   2.857   0.826 -1.8202  2.5992 -0.2978
   20SOL    HW2   60   0.220   2.734   0.783 -0.7086 -1.0300 -1.2402
   21SOL     OW   61   2.696   0.252   1.990  0.0230 -0.4042 -0.4724
   21SOL    HW1   62   2.640   0.169   1.965  1.2376  0.5851  1.2486
   21SOL    HW2   63   2.787   0.221   2.037  2.7604 -0.2229 -1.9680
   22SOL     OW   64   2.327   0.241   0.134 -0.1750 -1.4229 -0.4979
   22SOL    HW1   65   2.331   0.139   0.103  1.3466 -2.8348 -1.5017
   22SOL    HW2   66   2.282   0.301   0.063  1.8166 -1.1411 -3.4460
   23SOL     OW   67   2.786   0.592   0.640 -0.2031  0.0799  0.6419
   23SOL    HW1   68   2.819   0.499   0.609  2.0028 -2.2586 -1.0665
   23SOL    HW2   69   2.770   0.657   0.560  3.1860  0.5236 -0.7592
   24SOL     OW   70   0.230   1.936   0.432 -0.2873 -0.3854  0.4450
   24SOL    HW1   71   0.183   2.004   0.365 -0.7425  2.1839 -0.7918
   24SOL    HW2   72   0.311   1.885   0.393  4.0930 -1.0215 -0.9516
   25SOL     OW   73   2.246   0.655   0.229 -0.2611 -0.1708 -0.9158
   25SOL    HW1   74   2.246   0.660   0.124  0.7627 -2.3609 -2.3136
   25SOL    HW2   75   2.312   0.590   0.272 -0.6942  1.1145  0.7878
   26SOL     OW   76   2.470   2.170   2.050 -0.6178  0.1438 -0.3381
   26SOL    HW1   77   2.546   2.227   2.099  2.8485  1.0275 -1.5351
   26SOL    HW2   78   2.505   2.109   1.973  0.0945  1.2431 -2.7797
   27SOL     OW   79   0.597   2.898   0.229  0.7927 -0.1452  1.0858
   27SOL    HW1   80   0.696   2.928   0.232 -0.9424  2.7756  0.3179
   27SOL    HW2   81   0.551   2.906   0.138 -0.6977  3.1378  1.4124
   28SOL     OW   82   1.582   0.175   0.291 -0.1634 -0.1928 -0.2694
   28SOL    HW1   83   1.641   0.147   0.210  0.8177 -0.1115 -0.1983
   28SOL    HW2   84   1.595   0.272   0.325 -2.3006 -0.3512 -3.1362
   29SOL     OW   85   1.972   0.578   0.321  0.0442  0.1719 -0.2577
   29SOL    HW1   86   1.924   0.635   0.387 -1.7812 -2.0385  0.7579
   29SOL    HW2   87   2.064   0.616   0.310 -0.1034  1.6026  0.5098
   30SOL     OW   88   0.170   2.064   0.921  0.6910  0.4064 -0.2967
   30SOL    HW1   89   0.131   2.011   0.841 -1.3169 -0.1153  0.3827
   30SOL    HW2   90   0.090   2.110   0.971 -0.8283  0.1081 -0.7304
   31SOL     OW   91   2.133   0.024   2.385 -0.6394  0.9148  0.3315
   31SOL    HW1   92   2.104   0.023   2.484  1.5805 -0.8833  0.3830
   31SOL    HW2   93   2.057  -0.001   2.318 -0.7304  2.2545  2.7028
   32SOL     OW   94   2.995   0.023   0.209  0.3885  0.0342 -0.0891
   32SOL    HW1   95   2.986  -0.083   0.202 -2.3831 -3.8695  1.0222
   32SOL    HW2   96   3.091   0.059   0.220 -0.9108  1.5145 -2.0139
   33SOL     OW   97   0.885   0.339   0.605 -0.1074  0.0000  0.6976
   33SOL    HW1   98   0.893   0.247   0.555 -0.0880 -0.0647  1.9207
   33SOL    HW2   99   0.975   0.379   0.628 -1.3012  0.8157  0.7813
   34SOL     OW  100   0.342   2.717   1.083 -0.1303 -0.1718 -0.1904
   34SOL    HW1  101   0.288   2.742   0.994  0.0590  1.3370  0.1514
   34SOL    HW2  102   0.435   2.766   1.088  0.8202 -1.0641  4.2028
   35SOL     OW  103   0.048   0.103   1.896  0.9827 -0.2385 -0.0906
   35SOL    HW1  104   0.086   0.012   1.931 -1.6928  0.5061  0.7443
   35SOL    HW2  105   0.024   0.100   1.796 -2.5500  0.0576  0.9927
   36SOL     OW  106   1.919   1.250   1.618 -0.6636  0.1031 -0.4023
   36SOL    HW1  107   1.983   1.163   1.615  0.0540  0.3377  0.1239
   36SOL    HW2  108   1.963   1.324   1.558 -0.0014  1.1573  1.4563
   37SOL     OW  109   1.173   0.243   0.969  0.1938  0.4966 -0.1092
   37SOL    HW1  110   1.216   0.317   1.024  1.0329 -0.1060  0.7604
   37SOL    HW2  111   1.239   0.196   0.912 -1.2448 -0.3978 -0.3251
   38SOL     OW  112   1.147   2.813   2.391  0.1677  0.1300 -0.3319
   38SOL    HW1  113   1.089   2.726   2.385 -1.9966 -2.3961  2.5172
   38SOL    HW2  114   1.085   2.893   2.384  1.6784 -1.1339 -2.1850
   39SOL     OW  115   2.321   1.439   3.062  0.5236 -0.7092 -0.0004
   39SOL    HW1  116   2.380   1.350   3.071  1.4074 -1.3232 -0.0360
   39SOL    HW2  117   2.270   1.461   3.153 -0.9505  0.1316  1.7684
   40SOL     OW  118   1.998   2.451   2.592  0.4301  0.2991  1.2975
   40SOL    HW1  119   1.978   2.553   2.583 -3.2904  0.9853  1.5646
   40SOL    HW2  120   1.942   2.399   2.520  3.2330  0.1309  0.9348
   41SOL     OW  121   3.026   0.664   2.803  0.0740 -0.2618 -0.2903
   41SOL    HW1  122   2.939   0.722   2.803 -2.1645 -1.0143  0.8537
   41SOL    HW2  123   3.016   0.568   2.769 -0.3980 -3.3997  2.6920
   42SOL     OW  124   1.763   1.803   0.477 -0.3432 -0.1822  0.4447
   42SOL    HW1  125   1.728   1.704   0.492  0.0554  1.4640 -0.4210
   42SOL    HW2  126   1.791   1.823   0.382 -1.4699 -0.1986  2.8901
   43SOL     OW  127   0.418   1.687   1.156 -0.0060 -0.0038  0.6145
   43SOL    HW1  128   0.402   1.597   1.210 -2.7865 -2.0612  1.1161
   43SOL    HW2  129   0.328   1.724   1.124  2.9423 -1.7929 -1.9312
   44SOL     OW  130   1.708   2.362   2.996 -0.3119 -0.4942 -0.2732
   44SOL    HW1  131   1.638   2.440   3.012 -1.5245  0.1415 -1.3257
   44SOL    HW2  132   1.726   2.348   2.890 -0.3980 -2.0187 -2.8535
   45SOL     OW  133   0.349   1.894   2.620  0.0665 -0.4075 -0.3970
   45SOL    HW1  134   0.324   1.912   2.521 -0.8300 -3.2885 -0.8920
   45SOL    HW2  135   0.401   1.804   2.625 -2.1769 -0.4654 -0.0493
   46SOL     OW  136   1.286   0.619   0.144  0.1569 -0.1401  0.0411
   46SOL    HW1  137   1.315   0.700   0.083  0.5563  0.5322 -1.6378
   46SOL    HW2  138   1.181   0.616   0.154  1.3817  0.4705  0.4675
   47SOL     OW  139   0.230   2.521   1.564 -0.2796 -0.4875  0.5065
   47SOL    HW1  140   0.211   2.420   1.567  3.6485  0.2209 -0.4513
   47SOL    HW2  141   0.216   2.553   1.461 -0.9239  0.9824 -0.1436
   48SOL     OW  142   2.635   0.635   0.139  0.0532  0.2328 -0.1590
   48SOL    HW1  143   2.619   0.613   0.239 -2.4380 -1.3054  1.7614
   48SOL    HW2  144   2.735   0.668   0.124  0.2172 -0.4741  1.0296
   49SOL     OW  145   0.319   0.745   1.709  0.8945 -0.2469 -0.7920
   49SOL    HW1  146   0.394   0.747   1.786  2.1529  2.4349 -0.3567
   49SOL    HW2  147   0.365   0.709   1.623 -0.3918  1.4566 -1.7221
   50SOL     OW  148   1.676   1.124   0.348 -0.2865 -0.2025 -0.0709
   50SOL    HW1  149   1.668   1.028   0.302  2.1577 -4.0897  0.1194
   50SOL    HW2  150   1.651   1.119   0.452  1.4223 -1.8183  3.2520
   51SOL     OW  151   2.972   1.743   0.267  0.7979 -0.3225  0.2220
   51SOL    HW1  152   2.971   1.655   0.216  1.2844 -0.6102 -0.3646
   51SOL    HW2  153   3.024   1.728   0.361  1.1118 -2.8980  2.2259
   52SOL     OW  154   0.801   2.124   0.592 -0.2956  0.7129  0.2498
   52SOL    HW1  155   0.711   2.137   0.635  1.9654 -0.2277  0.8480
   52SOL    HW2  156   0.855   2.044   0.640  3.7266  0.2140  1.5765
   53SOL     OW  157   0.226   0.437   1.598 -1.0583  1.0293  0.0281
   53SOL    HW1  158   0.308   0.496   1.567  1.5097  0.6459 -0.2573
   53SOL    HW2  159   0.130   0.477   1.586 -1.3722 -0.6866 -1.0240
   54SOL     OW  160   1.821   0.494   3.051  0.0082 -0.0675 -0.3290
   54SOL    HW1  161   1.874   0.433   3.117  2.3033 -1.8641 -2.7777
   54SOL    HW2  162   1.722   0.488   3.063 -2.7684 -1.2184 -1.5108
   55SOL     OW  163   0.777   2.887   0.679  0.2569  0.2605 -0.5273
   55SOL    HW1  164   0.732   2.982   0.680  0.4565  1.6114 -3.7935
   55SOL    HW2  165   0.878   2.877   0.653  0.8367 -1.4990 -1.9409
   56SOL     OW  166   0.613   1.592   0.017 -0.4260  0.6400  0.1067
   56SOL    HW1  167   0.530   1.647   0.052 -1.5011  1.8852  1.7514
   56SOL    HW2  168   0.577   1.519  -0.049 -1.3549  1.4639  0.6846
   57SOL     OW  169   1.729   2.515   2.337 -0.8213  0.0461  0.2783
   57SOL    HW1  170   1.793   2.425   2.346  1.8243 -2.1202  1.0203
   57SOL    HW2  171   1.666   2.518   2.418  1.5549 -1.6165 -0.2446
   58SOL     OW  172   0.689   0.297   1.068 -0.3013  0.0466 -0.1331
   58SOL    HW1  173   0.594   0.308   1.103  1.3190 -0.5742 -0.5449
   58SOL    HW2  174   0.730   0.202   1.089 -1.3908  1.4498 -2.4434
   59SOL     OW  175   0.399   2.307   2.728  0.2161  0.5503 -0.0257
   59SOL    HW1  176   0.448   2.219   2.691 -0.7671  0.7207  0.5344
   59SOL    HW2  177   0.465   2.366   2.777 -2.8867  0.4338  1.6966
   60SOL     OW  178   2.320   2.097   2.298 -0.3855 -0.3271  0.5761
   60SOL    HW1  179   2.350   2.138   2.203 -0.0639  2.5408 -1.3652
   60SOL    HW2  180   2.362   2.148   2.379  3.2910  0.7198  0.4943
   61SOL     OW  181   1.266   0.586   0.441 -0.4711 -0.2816 -0.1568
   61SOL    HW1  182   1.177   0.629   0.469  0.6483  0.3437  0.3658
   61SOL    HW2  183   1.284   0.608   0.340 -0.5011 -0.5126 -4.0642
   62SOL     OW  184   2.717   1.768   2.922  0.3856 -0.3562 -0.2339
   62SOL    HW1  185   2.676   1.770   2.828 -1.3249  1.1420 -0.5676
   62SOL    HW2  186   2.802   1.704   2.922 -2.9535 -4.6352  1.5774
   63SOL     OW  187   0.524   0.816   0.207  0.0994  0.1273  0.1030
   63SOL    HW1  188   0.585   0.897   0.194 -0.3976  0.1660 -0.2560
   63SOL    HW2  189   0.525   0.785   0.305  1.3007  1.1865 -0.5026
   64SOL     OW  190   0.025   0.448   2.457 -0.4156  0.5808  0.5585
   64SOL    HW1  191   0.113   0.492   2.492 -2.6170  1.1401  2.0054
   64SOL    HW2  192  -0.037   0.514   2.394  2.1607  1.7490 -3.6275
   65SOL     OW  193   0.180   1.502   0.620  0.3295  0.3209  0.8733
   65SOL    HW1  194   0.189   1.545   0.713  2.1402 -2.1381 -2.5605
   65SOL    HW2  195   0.269   1.499   0.564  0.8424  1.0470  0.7161
   66SOL     OW  196   2.538   0.365   0.563 -0.4778  0.3130 -0.0174
   66SOL    HW1  197   2.633   0.330   0.584 -0.9415  0.6475 -2.0200
   66SOL    HW2  198   2.486   0.370   0.647  2.2520  0.5864 -1.1152
   67SOL     OW  199   0.567   2.470   1.433  0.6515 -0.0918 -0.4369
   67SOL    HW1  200   0.652   2.440   1.486 -0.3438  0.2061 -2.0886
   67SOL    HW2  201   0.497   2.395   1.424  0.0831  0.5556 -0.8228
   68SOL     OW  202   0.969   1.039   2.529 -0.1962 -0.2984  0.6152
   68SOL    HW1  203   1.056   0.996   2.486  2.1288  0.7438 -2.3672
   68SOL    HW2  204   0.896   1.063   2.453 -2.3137 -0.9363 -2.2509
   69SOL     OW  205   0.700   2.799   2.159  0.0724  0.0888  0.1850
   69SOL    HW1  206   0.723   2.699   2.145 -0.1378  1.5378  0.4903
   69SOL    HW2  207   0.594   2.822   2.156 -0.4937  0.0293 -0.1962
   70SOL     OW  208   0.486   0.178   2.591  0.2405 -0.7419 -0.6338
   70SOL    HW1  209   0.388   0.173   2.623  0.1383  0.5190  0.4081
   70SOL    HW2  210   0.536   0.093   2.617 -1.2245  1.7986 -0.1632
   71SOL     OW  211   1.110   1.804   0.384 -0.3040  0.4361 -0.3318
   71SOL    HW1  212   1.037   1.751   0.440 -1.9362 -0.2158  1.3154
   71SOL    HW2  213   1.082   1.819   0.288  3.1626  2.3241  0.8051
   72SOL     OW  214   1.810   0.204   2.162 -0.2994  0.2551 -0.1095
   72SOL    HW1  215   1.870   0.281   2.142  0.6142  0.6626 -0.3801
   72SOL    HW2  216   1.852   0.104   2.157  1.1093 -2.2796  2.3810
   73SOL     OW  217   2.816   2.196   2.390  0.0745  0.1784  0.1646
   73SOL    HW1  218   2.796   2.097   2.369 -0.1574  2.0701  1.2280
   73SOL    HW2  219   2.865   2.208   2.480  1.6889 -1.4423 -0.0331
   74SOL     OW  220   2.663   2.852   2.187 -0.6402  0.2370 -0.0784
   74SOL    HW1  221   2.629   2.829   2.280 -1.0964 -0.3819  1.3762
   74SOL    HW2  222   2.758   2.902   2.188  0.6114 -3.6289  2.6363
   75SOL     OW  223   0.975   0.839   1.102 -0.0607  0.0133 -0.7428
   75SOL    HW1  224   0.893   0.887   1.060 -0.0022  1.5970  3.0007
   75SOL    HW2  225   0.986   0.882   1.195 -0.9330  0.2034 -0.6603
   76SOL     OW  226   1.765   1.193   2.482  0.7188  0.1262 -0.1507
   76SOL    HW1  227   1.669   1.165   2.469 -0.6784  2.1346 -0.0082
   76SOL    HW2  228   1.771   1.279   2.539  0.7163  0.7627 -2.0171
   77SOL     OW  229   2.936   0.948   1.015  0.2094 -0.3247  0.5689
   77SOL    HW1  230   2.904   0.849   0.998  2.2197  0.0724 -0.6044
   77SOL    HW2  231   2.996   0.954   1.098  0.2514 -1.4348 -1.5936
   78SOL     OW  232   1.996   1.487   1.473 -0.2560 -0.0661  0.7189
   78SOL    HW1  233   2.086   1.509   1.429 -1.3173 -1.3189  0.1095
   78SOL    HW2  234   1.917   1.522   1.416  2.7628  2.9443  1.7634
   79SOL     OW  235   0.624   1.415   0.789  0.2634  0.2208  0.3159
   79SOL    HW1  236   0.521   1.396   0.803 -1.3753  0.2305 -0.8277
   79SOL    HW2  237   0.647   1.376   0.697 -0.1627 -0.3235 -2.3560
   80SOL     OW  238   0.662   0.457   1.541  0.4090 -0.3154 -0.3536
   80SOL    HW1  239   0.714   0.515   1.472 -1.2841 -1.2302  0.1673
   80SOL    HW2  240   0.655   0.358   1.508 -0.3514 -1.4450 -0.5994
   81SOL     OW  241   1.052   1.305   2.627 -0.2103 -0.2472 -0.2209
   81SOL    HW1  242   1.052   1.202   2.611 -0.1217  0.0222  2.3553
   81SOL    HW2  243   0.976   1.342   2.569  0.2670 -1.3858  1.7670
   82SOL     OW  244   0.941   3.007   1.520 -0.5083 -0.1576 -0.3352
   82SOL    HW1  245   0.850   2.975   1.488  0.3515 -0.0092  0.0016
   82SOL    HW2  246   1.016   2.996   1.450 -1.6619 -0.7743 -0.8106
   83SOL     OW  247   2.625   2.387   0.839  0.0637 -0.1702  0.1975
   83SOL    HW1  248   2.528   2.393   0.862  0.9152  0.2477  0.2300
   83SOL    HW2  249   2.647   2.346   0.746 -1.5529 -0.3489  3.0234
   84SOL     OW  250   0.676   3.069   2.393  0.5256  0.5119 -0.7132
   84SOL    HW1  251   0.619   3.085   2.477  0.9104 -1.1224 -0.1826
   84SOL    HW2  252   0.734   2.979   2.390  0.3600  1.0681 -0.0663
   85SOL     OW  253   0.281   1.605   1.435 -0.6176 -0.3274 -0.3500
   85SOL    HW1  254   0.231   1.694   1.431  0.1662  1.4905  1.9864
   85SOL    HW2  255   0.345   1.600   1.521  2.4282  0.7089  1.9104
   86SOL     OW  256   0.466   1.066   1.489  0.3017  0.4166 -0.8991
   86SOL    HW1  257   0.420   0.997   1.427  1.5154 -0.0646  0.7957
   86SOL    HW2  258   0.557   1.028   1.523  0.0805  1.0456 -2.1370
   87SOL     OW  259   1.632   0.656   0.256  0.8817  0.0284  0.2093
   87SOL    HW1  260   1.691   0.730   0.220  0.6252  0.3454  0.4097
   87SOL    HW2  261   1.586   0.593   0.188 -0.6642  2.8247  3.3629
   88SOL     OW  262   1.564   1.366   0.279  1.0444  0.1804  0.3021
   88SOL    HW1  263   1.605   1.272   0.288  3.2365  0.6216 -3.0536
   88SOL    HW2  264   1.466   1.364   0.260  2.1020  0.8885 -0.3536
   89SOL     OW  265   3.096   0.426   0.584  0.1482 -0.8945  0.1652
   89SOL    HW1  266   3.154   0.339   0.568 -1.3483  2.5903 -1.0057
   89SOL    HW2  267   2.994   0.407   0.571  0.6408 -2.2561  0.0328
   90SOL     OW  268   0.891   1.569   0.055  0.0664  0.1954  0.3148
   90SOL    HW1  269   0.900   1.472   0.087  2.1462  1.5455 -2.6951
   90SOL    HW2  270   0.800   1.585   0.009 -1.2415  1.3166  1.4686
   91SOL     OW  271   1.227   1.477   1.783 -0.5341 -0.3039 -0.2849
   91SOL    HW1  272   1.202   1.566   1.830 -1.0761  1.4436 -1.9619
   91SOL    HW2  273   1.334   1.459   1.785  2.2653 -1.0318  0.9143
   92SOL     OW  274   3.097   0.956   1.231 -0.0292  0.4137  0.1517
   92SOL    HW1  275   3.161   1.034   1.202 -0.3396 -1.4605 -0.3637
   92SOL    HW2  276   3.084   0.951   1.334  0.3101 -2.7618 -0.7512
   93SOL     OW  277   3.076   2.732   0.052  0.1184 -0.2156  0.1903
   93SOL    HW1  278   3.026   2.718  -0.042  0.2599 -1.9306 -0.5099
   93SOL    HW2  279   3.094   2.635   0.094  1.5892 -0.2661  1.0290
   94SOL     OW  280   1.503   1.472   1.821  0.6374  0.3066  0.2655
   94SOL    HW1  281   1.572   1.392   1.818 -1.4027 -2.4827  0.7581
   94SOL    HW2  282   1.551   1.556   1.857 -1.3749 -1.3212 -0.2098
   95SOL     OW  283   1.466   2.506   2.983  0.8952 -0.0113 -0.4962
   95SOL    HW1  284   1.389   2.548   3.043  0.2158  0.8442  0.0174
   95SOL    HW2  285   1.437   2.420   2.934  0.2287 -0.7869 -1.9618
   96SOL     OW  286   0.559   2.099   1.314  0.1588 -0.2429 -0.3421
   96SOL    HW1  287   0.535   2.039   1.231 -1.7538 -0.7634 -0.6523
   96SOL    HW2  288   0.628   2.054   1.378 -0.8281  0.1300  1.1065
   97SOL     OW  289   0.312   1.626   2.446 -0.6372  0.2478  0.1156
   97SOL    HW1  290   0.250   1.677   2.385  1.0718 -2.3107 -0.7345
   97SOL    HW2  291   0.283   1.618   2.546  1.7960  1.9491 -0.5573
   98SOL     OW  292   2.104   1.622   1.183  0.2017 -0.9309  0.2901
   98SOL    HW1  293   2.007   1.592   1.187 -0.5952  0.3818  0.6571
   98SOL    HW2  294   2.174   1.550   1.166 -0.3509  0.2270 -1.3409
   99SOL     OW  295   2.546   2.059   1.305  0.3801  0.5263  0.1606
   99SOL    HW1  296   2.626   2.056   1.368  1.0663 -2.5561 -1.5055
   99SOL    HW2  297   2.486   1.976   1.315 -1.3588 -0.3688 -2.0148
  100SOL     OW  298   2.297   0.412   2.096 -0.0550  0.2275 -0.0086
  100SOL    HW1  299   2.257   0.397   2.189  2.5250  0.6486 -0.2188
  100SOL    HW2  300   2.394   0.439   2.094 -1.6481  1.8234 -1.3631
  101SOL     OW  301   0.428   1.493   0.468  0.6180  0.0951 -0.3115
  101SOL    HW1  302   0.420   1.566   0.539  1.1449 -1.2871  1.1502
  101SOL    HW2  303   0.522   1.500   0.420 -0.4605  1.5450 -1.3289
  102SOL     OW  304   2.263   1.056   0.818  0.0835  0.3690 -0.1679
  102SOL    HW1  305   2.172   1.015   0.774 -1.8790 -0.3918 -1.4471
  102SOL    HW2  306   2.338   1.092   0.756 -0.5044  3.0883  3.6633
  103SOL     OW  307   2.212   0.096   0.379  0.0224  0.2823  0.1707
  103SOL    HW1  308   2.237   0.177   0.319 -3.1472 -0.9285 -0.4400
  103SOL    HW2  309   2.298   0.058   0.425  2.2022  1.4679  1.4781
  104SOL     OW  310   0.089   1.833   2.128 -0.2251  0.6101 -0.1844
  104SOL    HW1  311   0.132   1.831   2.035 -1.2725  1.9457 -1.6220
  104SOL    HW2  312  -0.016   1.854   2.114 -1.0765  1.5873 -0.4773
  105SOL     OW  313   1.276   2.109   0.786 -0.1075  0.1544  0.2702
  105SOL    HW1  314   1.355   2.128   0.720 -1.1084  1.9720  1.3954
  105SOL    HW2  315   1.204   2.053   0.737 -0.2390  1.8957 -1.6782
  106SOL     OW  316   2.132   0.365   1.399  0.1466 -0.3614 -0.0303
  106SOL    HW1  317   2.107   0.263   1.403 -0.6820  0.9513 -0.1765
  106SOL    HW2  318   2.119   0.410   1.493 -0.6914  0.7258 -0.8970
  107SOL     OW  319   1.913   2.943   1.231 -0.0070 -0.2746 -0.0294
  107SOL    HW1  320   1.900   3.034   1.277  0.3775  1.5113 -0.5267
  107SOL    HW2  321   1.834   2.918   1.173 -0.7835 -0.6222 -1.9759
  108SOL     OW  322   0.806   2.802   1.273  0.2827  0.0146 -0.4310
  108SOL    HW1  323   0.832   2.701   1.262 -0.8743 -0.5136  0.4279
  108SOL    HW2  324   0.893   2.863   1.260  0.4167  0.8934  0.2050
  109SOL     OW  325   2.110   0.126   0.756 -0.1823  0.2663 -0.2557
  109SOL    HW1  326   2.007   0.128   0.738  0.0082  0.4675 -0.9083
  109SOL    HW2  327   2.129   0.097   0.853 -0.4900 -0.4140 -0.3689
  110SOL     OW  328   0.486   2.811   2.754 -0.2533 -0.1588 -0.1298
  110SOL    HW1  329   0.446   2.775   2.661 -0.5642  0.4488  0.3738
  110SOL    HW2  330   0.541   2.744   2.808 -0.2141 -2.2388  1.3674
  111SOL     OW  331   1.258   0.469   2.339 -0.6132 -0.0553  0.2589
  111SOL    HW1  332   1.181   0.516   2.390 -1.4555  1.5187  2.2451
  111SOL    HW2  333   1.330   0.429   2.403 -1.3048  0.3691 -0.5357
  112SOL     OW  334   1.754   0.490   1.489  0.4961 -0.3751  0.2513
  112SOL    HW1  335   1.730   0.461   1.391 -0.4940 -0.3461 -1.3034
  112SOL    HW2  336   1.692   0.435   1.555 -4.6107 -0.9483  1.9800
  113SOL     OW  337   2.390   1.627   1.752  0.1365 -0.4488 -0.2138
  113SOL    HW1  338   2.445   1.540   1.750 -1.0390  2.1891 -0.8898
  113SOL    HW2  339   2.358   1.656   1.846  1.5706 -1.5099 -2.6388
  114SOL     OW  340   0.324   0.533   1.234  0.1747 -0.0706 -0.4018
  114SOL    HW1  341   0.402   0.581   1.175 -1.6495  3.9795  2.0405
  114SOL    HW2  342   0.238   0.594   1.239 -0.6822  2.9529  0.6546
  115SOL     OW  343   2.754   1.628   1.223  0.1920 -0.3221  0.8941
  115SOL    HW1  344   2.713   1.536   1.221 -1.0329  2.0574  3.3528
  115SOL    HW2  345   2.855   1.621   1.193  3.1967 -1.7222 -1.2745
  116SOL     OW  346   1.802   1.028   0.613  0.4499  0.5682  0.5935
  116SOL    HW1  347   1.743   0.940   0.616  1.1542  1.4026  0.9557
  116SOL    HW2  348   1.760   1.118   0.654  4.4147  0.7129 -0.0802
  117SOL     OW  349   1.169   0.379   0.561 -0.2125 -0.0369  0.6786
  117SOL    HW1  350   1.212   0.470   0.514 -1.9075  2.4862  0.5590
  117SOL    HW2  351   1.141   0.312   0.488 -1.5058 -0.9430  0.5502
  118SOL     OW  352   1.082   1.183   1.127 -0.5695  0.2176  0.6069
  118SOL    HW1  353   1.041   1.122   1.196  2.3102  0.4289 -2.4272
  118SOL    HW2  354   1.148   1.251   1.168 -0.5317 -1.9596  0.7437
  119SOL     OW  355   1.817   1.575   2.160 -0.1410 -0.4011  0.2770
  119SOL    HW1  356   1.783   1.671   2.148  1.0490 -0.4132  1.0118
  119SOL    HW2  357   1.917   1.565   2.136 -0.4655 -1.9037 -0.5545
  120SOL     OW  358   2.922   2.856   0.249 -0.4133 -0.0524  0.1711
  120SOL    HW1  359   2.998   2.809   0.198 -1.0224 -0.3758 -0.0712
  120SOL    HW2  360   2.832   2.811   0.219 -1.3261 -2.9969 -1.3200
  121SOL     OW  361   1.928   0.735   2.220 -0.6064 -0.3579 -0.3910
  121SOL    HW1  362   1.917   0.798   2.137  2.6463  0.2423 -1.6107
  121SOL    HW2  363   1.941   0.637   2.189  1.1251  0.6156 -0.8303
  122SOL     OW  364   2.689   2.578   1.330 -0.3033  0.3912  0.3706
  122SOL    HW1  365   2.727   2.547   1.240  1.4635  0.0402 -1.0851
  122SOL    HW2  366   2.588   2.561   1.340  1.4163 -0.7343  4.8522
  123SOL     OW  367   1.749   0.040   1.708 -0.2924  0.3189 -0.0192
  123SOL    HW1  368   1.761  -0.041   1.645 -3.0154 -2.2241  0.3300
  123SOL    HW2  369   1.833   0.071   1.755 -2.5049 -2.1171 -3.5245
  124SOL     OW  370   0.048   0.453   1.105 -0.4568 -0.0157 -0.0757
  124SOL    HW1  371   0.057   0.535   1.164 -0.1368 -1.6125 -1.0714
  124SOL    HW2  372   0.031   0.486   1.007 -2.4861  2.2750 -1.5884
  125SOL     OW  373   0.894   1.889   0.739  0.7352  0.3189  0.2609
  125SOL    HW1  374   0.971   1.822   0.764 -0.7236 -0.4753  0.4537
  125SOL    HW2  375   0.823   1.897   0.816 -1.9194  0.3849  1.6490
  126SOL     OW  376   1.832   2.275   2.416  0.1215  0.4170 -0.1449
  126SOL    HW1  377   1.879   2.234   2.334 -3.9362 -1.5814  0.4713
  126SOL    HW2  378   1.759   2.210   2.455  0.7449  0.9632 -1.6574
  127SOL     OW  379   0.930   0.931   0.175 -0.2345  0.5603  0.1600
  127SOL    HW1  380   0.929   0.976   0.268 -0.1340 -0.3917 -0.0079
  127SOL    HW2  381   0.908   0.826   0.178  1.4409 -0.3701 -1.3875
  128SOL     OW  382   0.907   0.241   1.398  0.1626  0.9966  0.5185
  128SOL    HW1  383   0.900   0.309   1.315 -0.1805  0.7694 -0.3356
  128SOL    HW2  384   0.846   0.158   1.377 -4.9197  0.7615 -1.8500
  129SOL     OW  385   1.867   0.677   1.870  0.3218  0.2330  0.2140
  129SOL    HW1  386   1.842   0.696   1.768 -1.0703 -1.4348 -0.9312
  129SOL    HW2  387   1.890   0.765   1.924 -1.9780 -1.4557 -1.9286
  130SOL     OW  388   1.422   2.146   1.038  0.0836  0.0691 -0.0526
  130SOL    HW1  389   1.366   2.099   0.965 -0.0314 -0.8966  0.1816
  130SOL    HW2  390   1.496   2.212   0.995  2.0029  2.1328  1.5533
  131SOL     OW  391   3.013   1.379   1.380  0.3804 -0.9991  0.2799
  131SOL    HW1  392   2.983   1.288   1.420 -0.3331 -2.8549  2.2925
  131SOL    HW2  393   3.116   1.374   1.362  2.5431 -1.3284 -1.0223
  132SOL     OW  394   2.039   2.423   0.465  0.0087 -0.2148 -0.3119
  132SOL    HW1  395   1.934   2.450   0.470 -3.1149 -2.8872 -0.4543
  132SOL    HW2  396   2.064   2.352   0.533  3.0288  3.8998  0.8132
  133SOL     OW  397   1.761   2.343   2.726 -0.4601 -0.2757  0.0562
  133SOL    HW1  398   1.702   2.415   2.675 -0.1541  0.8615 -1.2431
  133SOL    HW2  399   1.861   2.375   2.744  0.8969  1.5428  0.3299
  134SOL     OW  400   2.680   2.278   1.596  0.2864 -0.6954 -0.3204
  134SOL    HW1  401   2.586   2.288   1.640  1.1147 -2.3694  1.6193
  134SOL    HW2  402   2.729   2.369   1.605 -1.0308  0.0166  0.4522
  135SOL     OW  403   0.725   1.461   2.681 -0.0032  0.2774 -0.3514
  135SOL    HW1  404   0.655   1.394   2.718 -1.3944  0.5501  0.8145
  135SOL    HW2  405   0.752   1.443   2.585  2.0528 -0.5036  2.4389
  136SOL     OW  406   1.236   2.033   0.490  0.0132 -0.3998  0.1097
  136SOL    HW1  407   1.175   2.119   0.507 -1.1527  0.3574 -0.2818
  136SOL    HW2  408   1.176   1.948   0.483 -0.5280  1.6895  0.0535
  137SOL     OW  409   0.435   1.198   2.254 -0.1719  0.1436  0.2664
  137SOL    HW1  410   0.335   1.181   2.249  4.3923  1.8149  0.4156
  137SOL    HW2  411   0.491   1.113   2.231 -3.1483 -2.0409 -0.8680
  138SOL     OW  412   2.502   1.512   0.266 -0.0176 -0.0849  0.2110
  138SOL    HW1  413   2.410   1.474   0.249  2.3621 -1.6370 -1.6844
  138SOL    HW2  414   2.573   1.443   0.288 -0.5682  1.0468 -2.2920
  139SOL     OW  415   1.905   2.624   1.423  0.2573  0.1873  1.1568
  139SOL    HW1  416   1.843   2.687   1.370 -0.1524  0.2890 -0.0230
  139SOL    HW2  417   1.890   2.521   1.399  0.0612 -2.8867  2.3821
  140SOL     OW  418   3.020   2.981   2.533  0.2900  0.5731  0.3071
  140SOL    HW1  419   3.077   2.889   2.546  0.7989  0.1802 -1.4980
  140SOL    HW2  420   3.077   3.059   2.491 -1.0925  0.3458  3.2636
  141SOL     OW  421   1.313   1.709   1.639 -0.2477 -0.0737  0.6498
  141SOL    HW1  422   1.219   1.754   1.622 -1.2693 -3.2935 -2.2351
  141SOL    HW2  423   1.304   1.612   1.676  1.5091  0.2228  3.8995
  142SOL     OW  424   1.544   0.595   2.249 -0.0143 -0.7307 -0.2932
  142SOL    HW1  425   1.576   0.565   2.152  0.9387  0.9982 -0.2080
  142SOL    HW2  426   1.453   0.555   2.271  1.3805  2.6921  0.6530
  143SOL     OW  427   2.764   0.909   0.511  0.5364  0.2702  0.2835
  143SOL    HW1  428   2.813   0.940   0.426  1.5984 -1.8906  0.1904
  143SOL    HW2  429   2.802   0.940   0.601 -1.7510 -1.4323 -1.6133
  144SOL     OW  430   2.878   1.170   1.521  0.4365 -0.4498 -0.0311
  144SOL    HW1  431   2.801   1.151   1.594 -2.9485 -0.6670 -0.8712
  144SOL    HW2  432   2.957   1.100   1.527  2.0151 -1.5416  0.6718
  145SOL     OW  433   1.028   1.810   0.123 -0.5914 -0.4250 -0.1838
  145SOL    HW1  434   1.118   1.829   0.075  0.7267 -0.5504 -1.3392
  145SOL    HW2  435   0.992   1.711   0.106 -0.1878 -1.8152 -2.2006
  146SOL     OW  436   2.455   0.670   1.520 -0.1666 -0.3857 -0.2083
  146SOL    HW1  437   2.451   0.575   1.476 -1.0390  1.5401  2.3229
  146SOL    HW2  438   2.393   0.740   1.467  2.5178  1.0328 -0.6972
  147SOL     OW  439   1.105   2.571   0.618  0.1104  0.4364  0.4396
  147SOL    HW1  440   1.080   2.614   0.529 -0.3027 -2.0657  1.2023
  147SOL    HW2  441   1.193   2.510   0.604 -2.0669  0.1043  0.6972
  148SOL     OW  442   1.624   1.438   0.012  0.3030 -0.0868 -0.2450
  148SOL    HW1  443   1.594   1.369  -0.062  2.6006 -1.4839  0.6767
  148SOL    HW2  444   1.580   1.418   0.105  0.5166 -0.0803  0.5938
  149SOL     OW  445   0.641   1.462   1.939 -0.1020  0.6883 -0.7914
  149SOL    HW1  446   0.565   1.412   1.990  1.6120 -1.0968  1.7561
  149SOL    HW2  447   0.703   1.404   1.879  1.1004 -1.2848 -1.1011
  150SOL     OW  448   3.037   1.223   0.979 -0.2241 -0.1594  0.5598
  150SOL    HW1  449   3.123   1.197   1.030 -0.5447 -0.8976  0.1681
  150SOL    HW2  450   2.957   1.156   0.978 -3.2784  3.2594 -1.0337
  151SOL     OW  451   0.151   0.699   2.112  0.4133  0.0127 -0.0481
  151SOL    HW1  452   0.115   0.781   2.059  1.2029  2.0420  0.2621
  151SOL    HW2  453   0.222   0.646   2.058  1.4661  0.9911  0.1193
  152SOL     OW  454   1.452   1.787   1.169 -0.2208 -0.3315 -0.4237
  152SOL    HW1  455   1.501   1.881   1.152 -0.4113 -1.0478 -0.5712
  152SOL    HW2  456   1.350   1.795   1.163  1.2512  2.3051  1.8622
  153SOL     OW  457   0.144   1.556   0.218  0.5797  0.2254  0.2414
  153SOL    HW1  458   0.124   1.453   0.200  0.8725 -2.3044 -0.4139
  153SOL    HW2  459   0.103   1.596   0.304 -1.1175  0.4950  0.8908
  154SOL     OW  460   2.357   1.904   2.854  0.0492  0.4278 -0.4900
  154SOL    HW1  461   2.372   1.812   2.907  0.5704 -1.0217  0.7278
  154SOL    HW2  462   2.425   1.916   2.776 -0.2926 -0.1901  1.8921
  155SOL     OW  463   2.528   1.144   0.395 -0.2331 -0.6162  0.0898
  155SOL    HW1  464   2.612   1.128   0.336 -1.2186 -0.8799 -1.3490
  155SOL    HW2  465   2.444   1.092   0.357  1.1432 -1.4161  1.1884
  156SOL     OW  466   2.468   0.859   0.763  0.2226 -0.4590 -0.5887
  156SOL    HW1  467   2.370   0.852   0.802 -0.4915 -0.8305 -2.2431
  156SOL    HW2  468   2.465   0.869   0.663 -0.6780 -1.3766  0.3395
  157SOL     OW  469   1.235   3.004   2.971 -0.3581  0.2042  0.8151
  157SOL    HW1  470   1.317   2.974   2.915 -0.1537 -0.8562 -1.1903
  157SOL    HW2  471   1.253   3.100   3.018  2.2524 -0.2707  1.3972
  158SOL     OW  472   0.973   1.880   1.881 -0.0591 -0.3973 -0.2605
  158SOL    HW1  473   1.026   1.962   1.842  1.3349 -0.3828 -2.1503
  158SOL    HW2  474   0.894   1.900   1.946  0.0743 -0.2222 -0.1192
  159SOL     OW  475   0.889   0.453   1.195  0.4081  0.0515 -0.2254
  159SOL    HW1  476   0.828   0.511   1.263 -2.9465  2.4382  2.5188
  159SOL    HW2  477   0.823   0.392   1.136 -0.6226  0.0718  1.5110
  160SOL     OW  478   1.361   2.461   1.574  0.2414  0.1198 -0.3063
  160SOL    HW1  479   1.336   2.383   1.636  0.8492 -1.0782  0.3793
  160SOL    HW2  480   1.465   2.471   1.574  3.7305 -0.1893  0.9373
  161SOL     OW  481   3.084   2.890   0.456 -0.0909 -0.7899 -0.3590
  161SOL    HW1  482   3.042   2.802   0.485  0.5951  0.3087 -0.9552
  161SOL    HW2  483   3.036   2.934   0.382 -0.9823 -4.1788  0.7998
  162SOL     OW  484   2.594   1.839   0.486 -0.5428 -0.5001  0.1433
  162SOL    HW1  485   2.540   1.809   0.402  0.6109  1.7252 -0.0416
  162SOL    HW2  486   2.592   1.780   0.574  3.9410 -1.0106  0.3226
  163SOL     OW  487   1.975   2.716   0.730  0.1658 -0.0214 -0.2113
  163SOL    HW1  488   1.949   2.741   0.631 -0.0683 -2.0774 -0.1754
  163SOL    HW2  489   2.020   2.622   0.732 -0.8829 -1.6495 -1.1515
  164SOL     OW  490   3.054   0.194   1.263  0.2564 -0.1978  0.5522
  164SOL    HW1  491   3.115   0.265   1.221  0.9812  2.8637 -2.2136
  164SOL    HW2  492   3.101   0.130   1.330  2.5506 -0.4469  2.5203
  165SOL     OW  493   1.017   1.394   0.754  0.4337  0.2790  0.3542
  165SOL    HW1  494   0.959   1.416   0.837  0.9839  2.6282 -1.5706
  165SOL    HW2  495   1.004   1.475   0.686 -0.6379  0.2164 -2.6796
  166SOL     OW  496   1.596   1.008   1.813  0.4333 -0.1571 -0.0572
  166SOL    HW1  497   1.496   1.005   1.846 -0.4734  0.8244 -2.6331
  166SOL    HW2  498   1.627   1.110   1.802 -3.1068  1.5204  0.7694
  167SOL     OW  499   0.756   1.979   1.472  0.0500  0.0388 -0.6076
  167SOL    HW1  500   0.779   2.036   1.557  0.2815  0.4431  1.2656
  167SOL    HW2  501   0.700   1.894   1.495 -3.2135 -2.0211  0.7782
  168SOL     OW  502   1.615   2.352   0.161 -0.6175 -0.0855  0.5184
  168SOL    HW1  503   1.676   2.354   0.075  1.1854 -3.0289  1.2576
  168SOL    HW2  504   1.657   2.306   0.246  2.2859 -0.7331 -0.4914
  169SOL     OW  505   0.186   2.570   2.237  0.2733  0.0095  0.0138
  169SOL    HW1  506   0.172   2.525   2.146  0.1773 -2.7776  2.7766
  169SOL    HW2  507   0.188   2.503   2.318 -1.0603 -0.1617 -1.3033
  170SOL     OW  508   1.112   0.232   2.003  0.3209  0.2599  0.2727
  170SOL    HW1  509   1.181   0.196   2.071 -1.7407 -0.7463 -2.4209
  170SOL    HW2  510   1.145   0.216   1.900 -1.2283  2.4877 -0.6478
  171SOL     OW  511   0.178   0.790   2.364 -0.5950  0.0509 -0.1531
  171SOL    HW1  512   0.095   0.822   2.415  3.6803 -0.4547 -0.3185
  171SOL    HW2  513   0.155   0.759   2.265  0.4213  0.7785  0.3866
  172SOL     OW  514   0.963   0.973   2.883  0.3440  0.2318 -0.3952
  172SOL    HW1  515   0.945   1.026   2.972 -0.9272 -1.2598  1.8080
  172SOL    HW2  516   0.888   0.993   2.817  0.2448  2.8512 -0.1482
  173SOL     OW  517   0.564   2.531   0.118 -0.6421 -0.5460 -0.2085
  173SOL    HW1  518   0.515   2.500   0.032  3.9831 -3.3886 -1.8117
  173SOL    HW2  519   0.503   2.573   0.192  1.0436  1.7426  1.6603
  174SOL     OW  520   1.524   2.793   1.021 -0.1639  0.8164  0.0142
  174SOL    HW1  521   1.555   2.858   0.947 -0.8254 -2.7318  0.7306
  174SOL    HW2  522   1.490   2.701   0.982  0.8543 -3.1574 -3.2174
  175SOL     OW  523   0.482   3.060   1.722  0.0989 -0.1820  0.0552
  175SOL    HW1  524   0.563   3.032   1.783  2.1156  0.6887 -0.2414
  175SOL    HW2  525   0.449   3.158   1.741 -1.5791  1.4342 -0.3854
  176SOL     OW  526   2.535   0.382   0.022 -0.1211 -0.1220  0.2036
  176SOL    HW1  527   2.567   0.468   0.065  0.7915 -3.3687 -3.2157
  176SOL    HW2  528   2.476   0.323   0.087 -1.1576  1.2935 -0.2049
  177SOL     OW  529   0.299   0.320   0.928  0.3881 -0.1650  0.3395
  177SOL    HW1  530   0.279   0.219   0.939 -3.6555  0.7381 -0.2254
  177SOL    HW2  531   0.237   0.379   0.987 -2.0917 -1.4321 -1.3740
  178SOL     OW  532   0.039   2.745   2.585 -0.2493 -0.6351  0.6492
  178SOL    HW1  533   0.030   2.655   2.541  3.0758  0.7607  0.4001
  178SOL    HW2  534   0.118   2.750   2.653 -1.6615 -0.3043  1.8123
  179SOL     OW  535   3.011   1.580   1.164  0.2536 -0.0695  0.0360
  179SOL    HW1  536   3.044   1.557   1.069 -1.0232  0.0331 -2.4126
  179SOL    HW2  537   3.008   1.495   1.227 -0.2254 -0.0461 -1.0802
  180SOL     OW  538   0.186   1.299   1.810  0.1801  0.4427 -0.0567
  180SOL    HW1  539   0.259   1.255   1.866 -1.4198 -1.2055 -0.3857
  180SOL    HW2  540   0.165   1.401   1.833 -0.2712 -1.4335 -2.7491
  181SOL     OW  541   3.084   1.910   2.474 -1.0923  0.3749  0.1700
  181SOL    HW1  542   3.129   2.004   2.448  0.7545  1.7219 -0.9295
  181SOL    HW2  543   2.994   1.903   2.424  1.6014 -0.6185  0.5949
  182SOL     OW  544   2.353   1.217   1.212 -0.2601  0.1223  0.4553
  182SOL    HW1  545   2.266   1.174   1.177  0.6674 -1.1752  1.5596
  182SOL    HW2  546   2.365   1.316   1.207 -0.5022  0.4474  0.7871
  183SOL     OW  547   1.406   2.256   2.541 -0.1214  0.1992  0.2244
  183SOL    HW1  548   1.326   2.198   2.566  0.4837 -2.0445 -2.6571
  183SOL    HW2  549   1.486   2.187   2.525  1.0640 -1.1944 -1.0922
  184SOL     OW  550   2.030   0.948   0.723  0.4950  0.2522  0.4136
  184SOL    HW1  551   1.942   0.998   0.687 -0.0758 -2.6166  1.5521
  184SOL    HW2  552   2.006   0.851   0.760 -0.0413  2.2439  0.2813
  185SOL     OW  553   1.573   2.744   1.951 -0.1032 -0.5176  0.1914
  185SOL    HW1  554   1.506   2.820   1.938  1.1652 -0.8560 -0.7193
  185SOL    HW2  555   1.622   2.750   2.043  0.1937  0.5376 -1.3509
  186SOL     OW  556   0.113   2.227   1.649 -0.4535 -0.7911 -0.3255
  186SOL    HW1  557   0.101   2.290   1.738 -1.6657 -0.3021 -1.0548
  186SOL    HW2  558   0.200   2.172   1.653 -0.5597 -0.6736 -1.1014
  187SOL     OW  559   1.386   0.662   1.649  0.0942 -0.5441  0.2805
  187SOL    HW1  560   1.469   0.716   1.617 -2.3004 -2.5026  2.0951
  187SOL    HW2  561   1.405   0.583   1.710  0.9568 -0.1635 -3.3513
  188SOL     OW  562   2.814   2.758   1.447  0.3254 -0.5044  0.0538
  188SOL    HW1  563   2.784   2.860   1.426  1.2520  1.4692  2.8197
  188SOL    HW2  564   2.757   2.684   1.402 -1.2614  0.2183  0.7343
  189SOL     OW  565   0.897   1.199   1.442 -0.2236  0.7737 -0.4132
  189SOL    HW1  566   0.961   1.242   1.517 -3.1386  2.5533  2.0566
  189SOL    HW2  567   0.814   1.254   1.409  1.5362  0.2771 -1.6036
  190SOL     OW  568   1.467   1.928   1.608  0.2679 -0.4649 -0.5231
  190SOL    HW1  569   1.418   1.833   1.604  0.9315 -0.5254  3.7830
  190SOL    HW2  570   1.469   1.953   1.708 -0.9847 -0.3099  0.7129
  191SOL     OW  571   0.907   0.754   1.493  0.4048  0.2510  0.2385
  191SOL    HW1  572   0.983   0.694   1.531 -0.8293 -1.9078  0.4495
  191SOL    HW2  573   0.941   0.840   1.450 -1.4669  0.4299 -2.7742
  192SOL     OW  574   1.842   2.330   1.114 -0.4130  0.6086  0.4627
  192SOL    HW1  575   1.749   2.332   1.065 -0.4682  0.3909 -0.7712
  192SOL    HW2  576   1.917   2.306   1.046  2.3676  0.5098 -0.0291
  193SOL     OW  577   0.508   0.530   0.425 -0.2640 -0.4957  0.0011
  193SOL    HW1  578   0.434   0.457   0.437 -0.7802 -1.1156 -0.4375
  193SOL    HW2  579   0.558   0.528   0.339 -0.0704 -1.4992  1.8956
  194SOL     OW  580   0.349   0.901   1.300 -0.2214  0.6704  0.5841
  194SOL    HW1  581   0.332   0.812   1.345 -0.5651  0.8204  0.8012
  194SOL    HW2  582   0.339   0.900   1.197  2.6065  0.4563  1.6650
  195SOL     OW  583   1.015   2.910   0.548 -0.3983 -0.1141  0.2809
  195SOL    HW1  584   0.960   2.835   0.496 -1.6099 -1.5358  2.1657
  195SOL    HW2  585   1.103   2.954   0.501  1.9568 -0.5466 -1.0729
  196SOL     OW  586   0.197   1.366   1.364  0.0760  0.7252  0.1869
  196SOL    HW1  587   0.253   1.448   1.399  1.9236  1.3135  0.1607
  196SOL    HW2  588   0.203   1.284   1.429  0.1021  1.4987  0.8367
  197SOL     OW  589   0.823   2.044   0.239 -0.1705 -0.2888  0.1541
  197SOL    HW1  590   0.767   1.989   0.305  0.5626  2.9029 -0.0000
  197SOL    HW2  591   0.811   2.027   0.138 -2.8528 -1.6116 -0.1616
  198SOL     OW  592   0.312   1.283   0.360  0.8798 -0.0613  0.1587
  198SOL    HW1  593   0.215   1.278   0.325  2.6299 -1.0617  0.2954
  198SOL    HW2  594   0.341   1.368   0.404 -1.6492 -1.3136 -0.2276
  199SOL     OW  595   2.293   0.425   2.573 -0.2990  1.0030  0.3637
  199SOL    HW1  596   2.208   0.386   2.626 -2.1665 -3.4547  4.3211
  199SOL    HW2  597   2.383   0.394   2.617  0.4850  0.6809 -0.8239
  200SOL     OW  598   3.075   2.947   0.747 -0.2023  0.4569 -0.1259
  200SOL    HW1  599   3.036   3.038   0.723  2.0978  2.0017  1.9375
  200SOL    HW2  600   3.124   2.906   0.668 -0.2727 -1.9511  1.3070
  201SOL     OW  601   1.025   0.690   0.532 -0.3468 -0.3073 -0.4797
  201SOL    HW1  602   1.068   0.723   0.618 -2.2217 -0.4212  0.2425
  201SOL    HW2  603   0.926   0.644   0.546  0.7241  0.9000  2.5336
  202SOL     OW  604   0.396   1.137   1.936  0.4724  0.5540 -0.5891
  202SOL    HW1  605   0.471   1.110   1.872  0.1260  0.4127  1.8005
  202SOL    HW2  606   0.416   1.176   2.030  0.4138  0.2044 -0.7669
  203SOL     OW  607   0.617   0.201   1.483  0.6108 -0.6006 -0.0533
  203SOL    HW1  608   0.637   0.140   1.401  0.1621 -0.9841 -1.0096
  203SOL    HW2  609   0.667   0.179   1.570  3.5390  0.9149  0.5631
  204SOL     OW  610   2.102   1.805   2.918  0.1766  0.2320  0.3548
  204SOL    HW1  611   2.084   1.702   2.916 -1.7052  0.8091  0.9071
  204SOL    HW2  612   2.175   1.830   2.842  2.6532  3.3345 -1.8573
  205SOL     OW  613   1.853   1.820   3.036 -0.1141 -0.1974  0.3181
  205SOL    HW1  614   1.946   1.819   2.989 -1.0617 -0.7461  0.2395
  205SOL    HW2  615   1.807   1.914   3.029 -0.3580  0.8546  3.2969
  206SOL     OW  616   2.423   2.808   0.348 -0.4286 -0.0325  0.1373
  206SOL    HW1  617   2.455   2.718   0.392  0.9488  0.1792  0.6915
  206SOL    HW2  618   2.508   2.869   0.328 -1.3606  1.3216  0.6267
  207SOL     OW  619   0.678   1.825   2.941  0.1057 -0.6295  0.0013
  207SOL    HW1  620   0.744   1.766   2.885  0.3976 -2.1668  0.7316
  207SOL    HW2  621   0.661   1.784   3.035 -2.3079 -0.9086  1.4813
  208SOL     OW  622   1.160   1.618   1.387  0.0818  0.7060 -1.0523
  208SOL    HW1  623   1.171   1.681   1.307  0.0669  1.5017 -0.5098
  208SOL    HW2  624   1.179   1.667   1.478 -0.6728  1.6160  0.1046
  209SOL     OW  625   0.247   0.943   3.064  0.1044  0.4323  0.3387
  209SOL    HW1  626   0.212   0.868   3.003 -0.2230  1.6874  0.8387
  209SOL    HW2  627   0.231   0.923   3.164  1.2964 -0.0353 -2.3108
  210SOL     OW  628   1.721   0.500   1.172 -0.3969 -0.0301  0.3082
  210SOL    HW1  629   1.676   0.595   1.146 -0.4716  1.9319  0.2396
  210SOL    HW2  630   1.825   0.498   1.181 -1.4159  2.7103  0.3724
  211SOL     OW  631   2.084   1.037   1.599  0.0529 -1.2641 -0.0098
  211SOL    HW1  632   2.111   0.976   1.676  2.5342  1.4662 -2.5576
  211SOL    HW2  633   2.170   1.081   1.562 -0.9334 -0.0080  0.1982
  212SOL     OW  634   0.010   0.973   1.514 -0.1645  0.6109  0.1861
  212SOL    HW1  635   0.097   1.029   1.529  2.4228 -2.1423 -0.1147
  212SOL    HW2  636   0.012   0.880   1.564 -3.1506 -1.2874 -1.4740
  213SOL     OW  637   2.744   0.168   0.385 -0.6707 -0.2809 -0.3264
  213SOL    HW1  638   2.793   0.161   0.302 -1.7602  0.3140  3.1504
  213SOL    HW2  639   2.668   0.098   0.386 -2.5153  1.2210  0.6668
  214SOL     OW  640   2.198   0.318   2.321  0.0445  0.3066 -0.6019
  214SOL    HW1  641   2.251   0.355   2.405  1.1920 -0.0840 -1.9256
  214SOL    HW2  642   2.182   0.217   2.324 -2.8238  2.3570  5.4679
  215SOL     OW  643   1.623   2.310   2.084  0.1354 -0.5853  0.1486
  215SOL    HW1  644   1.717   2.348   2.071 -0.9863 -0.1598 -1.3263
  215SOL    HW2  645   1.561   2.375   2.140  1.5920 -2.3430  0.2619
  216SOL     OW  646   2.208   0.639   0.678  0.3620  0.3297 -0.4065
  216SOL    HW1  647   2.205   0.542   0.631  2.6796 -4.3049  0.3746
  216SOL    HW2  648   2.218   0.722   0.613  1.2805 -0.1901 -2.9161
  217SOL     OW  649   0.767   2.791   2.442  0.3099 -0.3070 -0.1350
  217SOL    HW1  650   0.723   2.716   2.504  2.2887 -0.2384  2.4503
  217SOL    HW2  651   0.752   2.768   2.343 -2.2096  0.2172  1.8670
  218SOL     OW  652   1.893   1.438   0.029 -0.2735  0.4575  0.2098
  218SOL    HW1  653   1.791   1.447   0.010 -1.5742  0.5676  0.5799
  218SOL    HW2  654   1.906   1.361   0.099  1.9023 -3.0437  2.2563
  219SOL     OW  655   2.449   1.303   2.518  0.2871 -0.4055 -0.1521
  219SOL    HW1  656   2.454   1.259   2.424 -1.3358  2.0290  0.7582
  219SOL    HW2  657   2.477   1.240   2.596 -0.4741  0.1956 -0.3715
  220SOL     OW  658   1.462   1.050   1.313 -0.4243 -0.6348  0.3907
  220SOL    HW1  659   1.563   1.037   1.333  1.0942  0.9299  2.8858
  220SOL    HW2  660   1.436   1.071   1.212 -0.5689 -1.7921 -1.0004
  221SOL     OW  661   1.278   0.986   2.176 -0.0765  0.3663 -0.0414
  221SOL    HW1  662   1.216   1.000   2.096  1.0185 -2.7937 -1.3605
  221SOL    HW2  663   1.380   1.014   2.159 -1.5986 -0.0882 -0.1873
  222SOL     OW  664   1.121   0.088   1.197  0.5146  0.5619  0.1918
  222SOL    HW1  665   1.150   0.159   1.266 -2.3994  2.3497  0.2893
  222SOL    HW2  666   1.133   0.129   1.100  0.4288  0.5138 -2.1386
  223SOL     OW  667   2.705   0.927   2.143 -0.0378 -0.2743 -0.3463
  223SOL    HW1  668   2.663   1.017   2.174 -2.2553 -0.3409 -0.1056
  223SOL    HW2  669   2.804   0.911   2.173  0.2836  0.3040 -2.2430
  224SOL     OW  670   1.509   1.083   2.738 -0.2418 -0.8052  0.0822
  224SOL    HW1  671   1.556   0.996   2.706 -1.5167  2.0731  2.3598
  224SOL    HW2  672   1.507   1.155   2.656  1.2322  3.3426 -1.7142
  225SOL     OW  673   2.986   2.742   2.882 -0.5396 -1.0470 -0.2123
  225SOL    HW1  674   2.901   2.726   2.832  3.7510  1.2540  0.5253
  225SOL    HW2  675   3.069   2.727   2.821  1.1870  0.9365  1.2635
  226SOL     OW  676   2.456   1.622   2.894 -0.3850  0.3283  0.3379
  226SOL    HW1  677   2.461   1.591   2.799  2.9204 -2.9858  0.0782
  226SOL    HW2  678   2.397   1.553   2.950  0.0744 -0.4219 -0.6179
  227SOL     OW  679   0.832   0.171   3.092 -0.2782  0.5291  0.1162
  227SOL    HW1  680   0.895   0.246   3.067 -0.5018  0.9661 -1.9986
  227SOL    HW2  681   0.776   0.134   3.015 -1.8365  2.7196 -1.3874
  228SOL     OW  682   2.431   0.579   2.874  0.3142 -0.2084  0.0382
  228SOL    HW1  683   2.480   0.642   2.818 -0.9868 -1.9445  0.3103
  228SOL    HW2  684   2.481   0.492   2.899  0.6749  0.4046 -0.1649
  229SOL     OW  685   0.561   0.505   1.823 -0.1113  0.1096  0.1938
  229SOL    HW1  686   0.543   0.407   1.859  0.1646 -0.5304 -0.9619
  229SOL    HW2  687   0.596   0.518   1.726 -0.4929 -0.4323 -0.6148
  230SOL     OW  688   1.938   1.157   2.079 -0.3592  0.1654  0.1680
  230SOL    HW1  689   2.002   1.216   2.025 -0.1304 -1.9918 -2.2529
  230SOL    HW2  690   1.844   1.201   2.090 -0.6217  1.3872 -0.7549
  231SOL     OW  691   0.640   1.038   0.050  0.1459  0.2224 -0.7241
  231SOL    HW1  692   0.719   1.094   0.012 -2.7257 -0.4969  1.7270
  231SOL    HW2  693   0.561   1.097   0.085 -1.1054  1.1080  0.5520
  232SOL     OW  694   2.443   3.079   2.883  0.2560  0.0463 -0.5724
  232SOL    HW1  695   2.493   2.986   2.879  3.1202  0.6789 -1.7189
  232SOL    HW2  696   2.480   3.147   2.814  0.4666  0.1575 -1.8216
  233SOL     OW  697   1.731   1.211   1.133  1.1392 -0.2172  0.2088
  233SOL    HW1  698   1.776   1.151   1.063  1.4461 -1.5040  0.9624
  233SOL    HW2  699   1.746   1.177   1.232  0.8774  0.9067 -0.8683
  234SOL     OW  700   1.573   2.491   1.851  0.3157 -0.2735 -0.7169
  234SOL    HW1  701   1.577   2.590   1.887  1.7424 -0.0336  0.9263
  234SOL    HW2  702   1.642   2.436   1.900 -1.5376 -0.2179 -2.1371
  235SOL     OW  703   3.091   3.043   2.805 -0.3292 -0.0900 -0.4040
  235SOL    HW1  704   3.046   3.028   2.715  1.6715 -0.3969 -0.2368
  235SOL    HW2  705   3.023   3.068   2.881 -0.5503  0.5769  3.1225
  236SOL     OW  706   2.866   0.745   0.063 -0.0306 -0.1463 -0.3241
  236SOL    HW1  707   2.933   0.786   0.129  0.5316 -0.7718 -1.1963
  236SOL    HW2  708   2.911   0.666   0.007  0.7590 -1.3109 -2.7276
  237SOL     OW  709   1.561   1.637   0.963  0.2355 -0.3307 -0.0054
  237SOL    HW1  710   1.665   1.618   0.950 -1.0621 -1.6114  1.3423
  237SOL    HW2  711   1.545   1.695   1.049 -2.7148 -0.7621  1.1223
  238SOL     OW  712   1.797   1.245   0.802  0.2923  0.0410 -0.8445
  238SOL    HW1  713   1.864   1.281   0.875  0.9875 -0.3350  2.0329
  238SOL    HW2  714   1.726   1.318   0.790  1.2428 -1.9507 -1.6716
  239SOL     OW  715   2.106   0.312   2.744 -0.0600 -0.5759  0.5991
  239SOL    HW1  716   2.126   0.237   2.808  1.7002  1.2374 -0.8397
  239SOL    HW2  717   2.019   0.367   2.767 -0.2988  0.3408  0.1298
  240SOL     OW  718   0.934   0.670   0.265 -0.0209  0.9274 -0.2426
  240SOL    HW1  719   0.955   0.580   0.214  0.5947  0.2296 -1.6757
  240SOL    HW2  720   0.980   0.675   0.359 -2.1029  1.1633  2.3435
  241SOL     OW  721   0.614   0.039   0.408 -0.3960 -0.2323 -0.2917
  241SOL    HW1  722   0.649   0.113   0.346  2.6720 -0.9744  0.0346
  241SOL    HW2  723   0.582  -0.043   0.356  1.8172  0.7636  2.3733
  242SOL     OW  724   0.602   2.482   1.141 -0.0471 -0.3959  0.2290
  242SOL    HW1  725   0.572   2.470   1.239 -1.1009 -0.3793 -0.4364
  242SOL    HW2  726   0.557   2.569   1.107 -0.1130 -1.3915  0.1083
  243SOL     OW  727   1.077   0.600   2.493  0.1074 -0.2170 -0.6170
  243SOL    HW1  728   0.991   0.636   2.443  0.4649 -0.1515 -0.8129
  243SOL    HW2  729   1.048   0.575   2.591 -0.2766  0.9238  1.3553
  244SOL     OW  730   2.850   1.869   2.341 -0.1534 -0.3176  0.2917
  244SOL    HW1  731   2.864   1.874   2.238  1.4790 -0.8937  2.4596
  244SOL    HW2  732   2.748   1.853   2.365  1.4504  1.2813 -2.1441
  245SOL     OW  733   2.242   0.860   2.141 -1.2959  0.5623 -0.2495
  245SOL    HW1  734   2.339   0.876   2.179 -0.3068  1.1077  2.0544
  245SOL    HW2  735   2.159   0.883   2.207 -0.5607  2.3745 -1.1824
  246SOL     OW  736   0.224   2.917   1.708 -0.2856 -0.1282 -0.6101
  246SOL    HW1  737   0.158   2.927   1.626  3.3455  0.3497  1.0521
  246SOL    HW2  738   0.314   2.972   1.701  0.1167 -1.5387  0.5219
  247SOL     OW  739   2.207   0.635   3.005  0.2600 -0.0570 -0.3456
  247SOL    HW1  740   2.279   0.597   2.944 -1.0869 -1.3104 -0.2458
  247SOL    HW2  741   2.161   0.724   2.978 -0.6321 -0.8033  1.3466
  248SOL     OW  742   2.174   1.826   1.592  0.1262  0.3197 -0.2790
  248SOL    HW1  743   2.264   1.792   1.630  2.1590 -1.2583  0.1797
  248SOL    HW2  744   2.091   1.816   1.650  1.4060  0.1122 -2.1950
  249SOL     OW  745   1.882   1.971   1.929  0.8610  0.3102 -0.3824
  249SOL    HW1  746   1.882   1.902   1.850 -0.5001  0.6315 -0.9147
  249SOL    HW2  747   1.976   2.004   1.948  0.8452 -2.4851  2.3924
  250SOL     OW  748   1.082   0.685   1.870 -0.1094  0.0265 -0.2968
  250SOL    HW1  749   1.142   0.626   1.934 -0.4852 -0.6219 -0.2387
  250SOL    HW2  750   1.073   0.638   1.778  0.7514  1.1869  1.2653
  251SOL     OW  751   0.030   1.626   2.542 -0.4158  0.3042  0.5904
  251SOL    HW1  752   0.022   1.727   2.541 -2.2713 -1.5744 -1.9783
  251SOL    HW2  753  -0.062   1.577   2.555  0.1480  2.4786  0.4255
  252SOL     OW  754   1.615   0.809   1.587  0.0877 -0.1517  0.6778
  252SOL    HW1  755   1.694   0.816   1.528 -2.2945 -0.2600  3.0082
  252SOL    HW2  756   1.614   0.877   1.662  1.6891 -1.7342  0.1969
  253SOL     OW  757   0.995   1.573   0.546 -0.6046  0.4373  0.0157
  253SOL    HW1  758   0.978   1.510   0.464  0.2481 -0.5178 -2.7948
  253SOL    HW2  759   0.912   1.623   0.580  0.3240 -0.9733 -1.9118
  254SOL     OW  760   2.034   2.178   1.629 -0.2346 -0.1314 -0.3353
  254SOL    HW1  761   1.995   2.120   1.553  1.7322  0.8265 -0.7558
  254SOL    HW2  762   1.961   2.213   1.696  0.2877  0.2944  0.8903
  255SOL     OW  763   0.134   1.138   2.931  0.4609  0.2063 -0.2208
  255SOL    HW1  764   0.195   1.215   2.902  2.9321  1.2551 -0.1951
  255SOL    HW2  765   0.191   1.067   2.976  1.2648  3.6484  0.6501
  256SOL     OW  766   2.848   1.413   1.771  0.4606  0.3011  0.2667
  256SOL    HW1  767   2.766   1.454   1.815  2.0287  0.2874 -0.8541
  256SOL    HW2  768   2.847   1.307   1.772  2.5301  1.7074  0.2171
  257SOL     OW  769   0.754   0.144   1.730  0.2515 -0.2584 -0.8539
  257SOL    HW1  770   0.834   0.215   1.731  0.8573  0.5944 -2.4718
  257SOL    HW2  771   0.797   0.056   1.754 -1.3080  1.6211  0.6369
  258SOL     OW  772   3.011   1.223   0.441 -0.2380 -0.4387 -0.0497
  258SOL    HW1  773   2.929   1.288   0.446  0.9276  0.7444  0.4666
  258SOL    HW2  774   3.065   1.236   0.529  2.2780 -0.0564 -4.9255
  259SOL     OW  775   0.461   2.926   3.051  0.1969 -0.2320 -0.3257
  259SOL    HW1  776   0.374   2.873   3.078 -3.5204 -0.3586  0.1651
  259SOL    HW2  777   0.518   2.875   2.975  0.1605 -0.3257  0.2048
  260SOL     OW  778   2.739   0.716   2.797 -0.3825 -0.3570  0.1986
  260SOL    HW1  779   2.668   0.759   2.728  1.6451 -1.8653 -3.4108
  260SOL    HW2  780   2.703   0.685   2.889 -0.6265 -3.0328  0.2782
  261SOL     OW  781   2.691   1.374   1.288 -0.3943 -0.1681  0.5477
  261SOL    HW1  782   2.674   1.300   1.214 -3.0424 -1.8419  0.4063
  261SOL    HW2  783   2.757   1.333   1.358 -1.7803  0.4312  0.8078
  262SOL     OW  784   1.390   2.963   1.977 -0.0175  0.2137 -0.4747
  262SOL    HW1  785   1.438   3.039   1.921  0.2748 -2.1462 -0.4703
  262SOL    HW2  786   1.287   2.975   1.964  0.1120 -0.0920  2.2561
  263SOL     OW  787   0.853   0.663   2.346  0.0629 -0.2416 -0.7815
  263SOL    HW1  788   0.779   0.605   2.300 -1.6321 -1.5135  2.3561
  263SOL    HW2  789   0.909   0.727   2.284  2.6854 -1.5390  1.1266
  264SOL     OW  790   2.234   0.807   0.455  0.7192 -0.0128  0.5866
  264SOL    HW1  791   2.229   0.761   0.360 -0.2349 -1.7912 -0.3629
  264SOL    HW2  792   2.325   0.854   0.470  1.9118  0.8534  4.2327
  265SOL     OW  793   0.950   2.449   2.610 -0.3358  0.0061 -0.5172
  265SOL    HW1  794   0.988   2.509   2.685  0.0507  2.3020 -2.5517
  265SOL    HW2  795   0.952   2.353   2.636  0.8243  0.0973  1.1811
  266SOL     OW  796   1.326   1.777   3.040  0.5274  0.4959 -0.6961
  266SOL    HW1  797   1.312   1.841   3.119  2.5229 -1.4896 -0.9085
  266SOL    HW2  798   1.426   1.746   3.038  0.2587  1.9082  0.1869
  267SOL     OW  799   1.040   0.025   2.345 -0.1270 -0.2187  0.0927
  267SOL    HW1  800   1.031   0.002   2.243  1.5021  0.2612 -0.9620
  267SOL    HW2  801   0.963   0.090   2.378 -0.6921  2.2342  0.7953
  268SOL     OW  802   0.609   1.153   1.050 -0.2203 -0.0995  0.4042
  268SOL    HW1  803   0.619   1.211   1.133 -0.2109 -1.8953 -2.6057
  268SOL    HW2  804   0.575   1.213   0.967 -2.0612  2.1853 -0.3207
  269SOL     OW  805   2.293   2.560   1.612 -0.2065 -0.6993  0.1781
  269SOL    HW1  806   2.374   2.498   1.600 -2.3842  0.1288  1.3665
  269SOL    HW2  807   2.257   2.554   1.710 -1.5077  4.3218 -1.1712
  270SOL     OW  808   0.158   2.972   1.970 -0.3295  0.7014 -0.6823
  270SOL    HW1  809   0.176   2.956   1.870  0.3964 -0.4875  1.2859
  270SOL    HW2  810   0.114   2.891   2.015 -0.2338  1.6418 -0.0092
  271SOL     OW  811   0.424   1.403   1.198  0.0209 -0.3005 -0.2976
  271SOL    HW1  812   0.408   1.397   1.097 -2.6942 -0.6830  2.3455
  271SOL    HW2  813   0.332   1.403   1.246  1.2769  1.6617 -0.1075
  272SOL     OW  814   2.035   2.918   1.930 -0.1876  0.1182  0.0274
  272SOL    HW1  815   1.957   2.872   1.875  2.3045  1.2409 -0.5172
  272SOL    HW2  816   2.111   2.952   1.867  1.3478  0.7910 -3.8827
  273SOL     OW  817   1.487   1.452   2.740  0.3929  0.3263 -0.1259
  273SOL    HW1  818   1.383   1.460   2.751 -1.0347 -1.5332 -0.9408
  273SOL    HW2  819   1.529   1.389   2.812  0.4715  0.8092  2.7172
  274SOL     OW  820   1.195   0.497   2.059  0.1057  0.0543  0.1053
  274SOL    HW1  821   1.139   0.410   2.049 -0.5162  0.6420  0.5052
  274SOL    HW2  822   1.232   0.518   2.154  1.1721 -1.3917  0.8696
  275SOL     OW  823   0.618   2.091   1.890  0.1621  0.0230  0.1445
  275SOL    HW1  824   0.553   2.170   1.918 -2.1160  1.2875  2.4727
  275SOL    HW2  825   0.568   2.009   1.854  0.6331 -1.1834 -1.2210
  276SOL     OW  826   2.217   1.045   2.746 -0.1095  0.3847  0.5304
  276SOL    HW1  827   2.156   1.065   2.667  1.9334  3.4362  0.9600
  276SOL    HW2  828   2.177   0.976   2.816 -0.5245 -0.5959 -0.2581
  277SOL     OW  829   3.090   0.795   0.233 -0.4126 -0.4683  0.4425
  277SOL    HW1  830   3.190   0.824   0.217 -0.6547 -1.6418 -0.0334
  277SOL    HW2  831   3.083   0.717   0.303 -1.4447 -0.4617 -1.5258
  278SOL     OW  832   0.243   0.316   2.979  0.2163 -0.4373 -0.6419
  278SOL    HW1  833   0.319   0.241   2.986 -0.4594 -0.7924 -0.9332
  278SOL    HW2  834   0.276   0.404   3.021  0.1655 -0.7591 -3.3217
  279SOL     OW  835   0.206   0.054   0.898  0.6887 -1.1595  0.1826
  279SOL    HW1  836   0.180   0.009   0.990  0.9351  0.6456  0.3529
  279SOL    HW2  837   0.269  -0.005   0.840  0.9604 -2.4598 -0.2357
  280SOL     OW  838   1.596   2.944   2.433 -0.2046  0.5481  0.0876
  280SOL    HW1  839   1.664   3.007   2.486  1.3199 -2.3135  0.4638
  280SOL    HW2  840   1.533   2.996   2.370  1.1515 -1.6444  0.0716
  281SOL     OW  841   0.581   0.953   2.280  0.3903  0.3209  0.7131
  281SOL    HW1  842   0.570   0.867   2.218  0.0470  0.6748  0.8407
  281SOL    HW2  843   0.516   0.948   2.361  0.5242 -0.0413  0.2768
  282SOL     OW  844   1.775   2.508   0.508 -0.1575 -0.1200  0.1210
  282SOL    HW1  845   1.734   2.417   0.491  0.5867  1.1578 -2.0301
  282SOL    HW2  846   1.708   2.585   0.507 -0.5540  0.6486 -2.9286
  283SOL     OW  847   1.233   0.937   0.815 -0.3837  0.0103 -0.2153
  283SOL    HW1  848   1.267   0.872   0.887  1.6693  1.0121 -1.8239
  283SOL    HW2  849   1.147   0.988   0.838  1.5547  2.6530 -1.7234
  284SOL     OW  850   2.229   2.846   2.529 -0.0097 -0.0216 -0.7812
  284SOL    HW1  851   2.329   2.831   2.527 -4.2899  0.1671  2.0057
  284SOL    HW2  852   2.205   2.892   2.620 -2.5564  1.1598  0.0856
  285SOL     OW  853   1.341   3.035   2.571  0.3623  0.1101 -0.1684
  285SOL    HW1  854   1.351   3.023   2.470  1.3739 -0.4069  4.0437
  285SOL    HW2  855   1.253   3.081   2.602 -0.6294 -1.9570  1.0509
  286SOL     OW  856   0.441   0.432   0.718 -0.0464  0.0280  0.3272
  286SOL    HW1  857   0.401   0.379   0.797  1.3576 -2.6693  1.5988
  286SOL    HW2  858   0.412   0.392   0.623 -0.5936  3.6589 -2.6864
  287SOL     OW  859   0.094   1.258   2.486 -0.1653 -0.2988  0.2129
  287SOL    HW1  860   0.062   1.189   2.555  0.1726 -1.2819 -4.1026
  287SOL    HW2  861   0.079   1.356   2.520  1.0237  3.6273 -0.0166
  288SOL     OW  862   1.589   2.632   1.620 -0.2909 -0.6425  0.0486
  288SOL    HW1  863   1.606   2.553   1.685  0.6187  3.0606 -2.7570
  288SOL    HW2  864   1.608   2.613   1.524  0.4426  0.1700  0.1995
  289SOL     OW  865   0.618   2.747   0.863 -0.2804  0.2129 -0.1783
  289SOL    HW1  866   0.696   2.774   0.805 -1.6700  2.1138  1.4361
  289SOL    HW2  867   0.625   2.791   0.959 -0.3173 -1.4026  0.6838
  290SOL     OW  868   2.797   1.137   1.794 -0.0973 -0.4890  0.3850
  290SOL    HW1  869   2.735   1.059   1.764  0.9023 -1.2278  1.0678
  290SOL    HW2  870   2.864   1.116   1.869 -2.2123  1.1984 -1.4626
  291SOL     OW  871   2.000   0.018   0.019 -0.0817  0.0516  0.3667
  291SOL    HW1  872   1.990   0.036   0.119 -2.0430 -1.0281  0.4504
  291SOL    HW2  873   2.062   0.079  -0.042 -2.2088  0.8781 -2.3325
  292SOL     OW  874   3.006   1.206   3.076 -0.0564  0.5648 -0.1477
  292SOL    HW1  875   2.933   1.254   3.017  1.0309 -1.2757  0.6870
  292SOL    HW2  876   3.094   1.188   3.025 -2.4529 -0.7491  2.0414
  293SOL     OW  877   0.560   2.154   0.274  0.1508  0.7466  0.2387
  293SOL    HW1  878   0.506   2.203   0.338  1.4374 -0.3523 -1.9518
  293SOL    HW2  879   0.660   2.145   0.299 -0.7391 -0.4628  3.2338
  294SOL     OW  880   1.829   2.282   1.768 -0.4618  0.3199  0.0941
  294SOL    HW1  881   1.835   2.327   1.864 -0.1952 -3.0650  3.4513
  294SOL    HW2  882   1.773   2.336   1.703 -3.0309 -0.8986 -0.2818
  295SOL     OW  883   0.980   1.057   0.429 -0.0985 -0.4585 -0.2974
  295SOL    HW1  884   1.064   1.042   0.487  1.1124 -0.5147 -0.0435
  295SOL    HW2  885   0.895   1.044   0.479  4.1252  0.3672 -1.4505
  296SOL     OW  886   1.197   2.114   2.605  0.1296 -0.0325  0.7185
  296SOL    HW1  887   1.102   2.140   2.622  2.0885 -1.2606  1.1034
  296SOL    HW2  888   1.217   2.024   2.551 -1.3756 -0.4307 -1.3696
  297SOL     OW  889   1.381   0.626   1.310 -0.4458 -0.0645 -0.2133
  297SOL    HW1  890   1.409   0.590   1.405 -2.4828 -0.1350 -0.7921
  297SOL    HW2  891   1.452   0.681   1.262 -0.2925 -0.2036 -0.3600
  298SOL     OW  892   0.493   1.368   2.982 -0.3666  0.2537 -0.0915
  298SOL    HW1  893   0.467   1.312   3.063 -1.5233  0.3014 -0.6855
  298SOL    HW2  894   0.557   1.315   2.910  3.1756  1.6033 -0.2544
  299SOL     OW  895   0.466   0.285   1.225 -0.0744  0.0765  0.8096
  299SOL    HW1  896   0.393   0.354   1.213 -1.4561 -0.9675 -0.9638
  299SOL    HW2  897   0.484   0.269   1.327 -2.3566  2.6966  0.3961
  300SOL     OW  898   1.263   1.691   2.664  0.5565 -0.3010 -0.2414
  300SOL    HW1  899   1.230   1.592   2.687 -0.4052 -2.1629 -3.8816
  300SOL    HW2  900   1.345   1.720   2.714 -1.1027 -1.0702  1.3883
  301SOL     OW  901   0.366   0.293   0.481 -0.1496  0.1138 -0.4624
  301SOL    HW1  902   0.267   0.269   0.487  1.3883  1.3806  1.7754
  301SOL    HW2  903   0.432   0.219   0.473 -1.3405  0.9612  2.9077
  302SOL     OW  904   1.279   2.423   2.362 -0.6153 -0.0057 -0.1069
  302SOL    HW1  905   1.201   2.478   2.394 -2.6874 -2.5050  0.7162
  302SOL    HW2  906   1.319   2.358   2.438  2.0076  1.6815  0.9075
  303SOL     OW  907   0.943   2.406   0.790 -0.4528  0.5138 -0.3465
  303SOL    HW1  908   0.999   2.434   0.703 -1.2950  0.4450 -0.9198
  303SOL    HW2  909   0.996   2.422   0.879  1.5881 -0.4688  0.2053
  304SOL     OW  910   0.102   1.957   0.682 -0.3891  0.1091  0.1658
  304SOL    HW1  911   0.169   1.926   0.613  3.2980  0.0059  2.5372
  304SOL    HW2  912   0.023   2.012   0.646  0.4542 -1.3634  1.0804
  305SOL     OW  913   1.583   0.832   0.654 -0.5453  0.3789  0.4005
  305SOL    HW1  914   1.524   0.844   0.570  2.4752 -1.3975 -0.1956
  305SOL    HW2  915   1.634   0.739   0.663  0.6799 -0.9588 -1.9452
  306SOL     OW  916   0.447   1.872   1.886 -0.3413 -0.0743 -0.3039
  306SOL    HW1  917   0.518   1.798   1.873 -0.2910  1.7618 -0.6185
  306SOL    HW2  918   0.441   1.906   1.982 -0.9626 -2.7346 -2.1613
  307SOL     OW  919   3.075   0.879   2.514  0.4482  0.4386  0.0052
  307SOL    HW1  920   3.091   0.959   2.580  0.0586 -1.5149  3.6138
  307SOL    HW2  921   2.996   0.816   2.548  0.7803 -1.5820  0.5864
  308SOL     OW  922   1.576   2.688   2.789  0.7366  0.4611  0.1067
  308SOL    HW1  923   1.552   2.621   2.716  0.6623 -0.0979  4.2460
  308SOL    HW2  924   1.539   2.651   2.881 -2.8732  2.0438  0.1801
  309SOL     OW  925   1.255   0.195   1.772 -0.4408 -0.2479  0.2119
  309SOL    HW1  926   1.336   0.132   1.782 -2.0960 -0.8220 -0.0652
  309SOL    HW2  927   1.211   0.187   1.677  0.3960 -1.9948 -2.3625
  310SOL     OW  928   1.531   2.563   0.693  0.5201 -0.1710  0.1289
  310SOL    HW1  929   1.497   2.570   0.794 -0.4963  3.9086  1.2345
  310SOL    HW2  930   1.591   2.640   0.673 -0.6671  0.5746 -1.5346
  311SOL     OW  931   1.148   0.906   1.714 -0.3350 -0.0581  0.7937
  311SOL    HW1  932   1.121   0.822   1.766  0.5262 -0.8188  1.2800
  311SOL    HW2  933   1.211   0.888   1.633  0.8379  0.0936 -0.5696
  312SOL     OW  934   1.566   0.747   1.143 -0.1098  0.1257 -0.5076
  312SOL    HW1  935   1.615   0.834   1.138 -0.2312 -3.2786 -0.1766
  312SOL    HW2  936   1.538   0.714   1.052  0.3302  2.2271  1.7765
  313SOL     OW  937   1.593   1.403   0.705  0.2776  0.0754  0.3133
  313SOL    HW1  938   1.516   1.438   0.767  0.4210 -2.1117  1.0589
  313SOL    HW2  939   1.563   1.319   0.651  1.5688 -2.5188 -3.9287
  314SOL     OW  940   2.964   0.031   3.054  0.0222 -0.0106 -0.0337
  314SOL    HW1  941   2.981   0.030   3.159 -1.4958 -1.8747  0.6658
  314SOL    HW2  942   2.874  -0.027   3.039  0.6730 -1.7138 -1.2169
  315SOL     OW  943   1.109   0.236   2.809 -0.2355 -0.1217 -0.7233
  315SOL    HW1  944   1.092   0.173   2.728 -0.8996 -0.0146  0.8169
  315SOL    HW2  945   1.154   0.192   2.889  1.1703  1.4402  1.0788
  316SOL     OW  946   1.758   2.061   0.947 -0.4257 -0.2375 -0.4949
  316SOL    HW1  947   1.702   2.075   1.038  1.3190  0.6127  0.0022
  316SOL    HW2  948   1.760   2.141   0.884 -1.8962  1.4897  0.5075
  317SOL     OW  949   1.199   0.660   2.834  0.2460 -0.4258  0.6077
  317SOL    HW1  950   1.146   0.690   2.916 -2.0868  1.1142 -0.7915
  317SOL    HW2  951   1.137   0.624   2.754  1.2674 -2.0777 -3.8718
  318SOL     OW  952   1.423   3.027   2.235  0.3010  0.5056  0.0737
  318SOL    HW1  953   1.385   3.122   2.235  1.5758  0.6475  0.0199
  318SOL    HW2  954   1.416   2.980   2.142 -1.2866  1.5043  0.5171
  319SOL     OW  955   0.580   2.410   2.906  0.0113 -0.8909 -0.3397
  319SOL    HW1  956   0.547   2.353   2.988  0.0711  0.6774 -1.4115
  319SOL    HW2  957   0.662   2.363   2.863 -1.9884  1.6826  1.5930
  320SOL     OW  958   1.696   2.233   0.418  0.6991 -0.1611  0.1301
  320SOL    HW1  959   1.760   2.162   0.391 -1.3643  1.3698 -0.2740
  320SOL    HW2  960   1.626   2.210   0.497 -0.3648 -1.0038 -0.2632
  321SOL     OW  961   1.679   2.782   0.562 -0.0681 -0.2887 -0.2153
  321SOL    HW1  962   1.594   2.825   0.510  0.7803  1.3349  0.5804
  321SOL    HW2  963   1.772   2.806   0.517  0.9499  1.0144 -2.6684
  322SOL     OW  964   2.595   1.129   2.317  0.4814 -0.0021 -0.1311
  322SOL    HW1  965   2.660   1.157   2.389 -2.3784  0.3553 -1.6477
  322SOL    HW2  966   2.543   1.043   2.343 -0.1367  0.9505  1.5011
  323SOL     OW  967   1.170   2.688   0.848 -0.1911 -0.5119 -0.6759
  323SOL    HW1  968   1.142   2.660   0.750 -0.9882 -1.0609  1.0109
  323SOL    HW2  969   1.130   2.786   0.872 -2.8802  1.5744 -0.8268
  324SOL     OW  970   0.265   2.473   2.508  0.0889  0.9857  0.3371
  324SOL    HW1  971   0.265   2.412   2.594  0.0140  0.1689 -0.5191
  324SOL    HW2  972   0.291   2.574   2.528  1.1940 -0.1074 -1.5548
  325SOL     OW  973   1.254   3.027   0.446 -0.4745 -0.8535  0.0448
  325SOL    HW1  974   1.282   3.057   0.349 -0.3237 -1.7235  0.0659
  325SOL    HW2  975   1.292   3.092   0.522  0.5040 -1.5018  0.0744
  326SOL     OW  976   2.440   0.776   3.096 -0.3608  0.1032 -0.2212
  326SOL    HW1  977   2.377   0.727   3.027  2.4615 -1.1881 -0.8485
  326SOL    HW2  978   2.500   0.701   3.149 -0.4175 -2.8454  1.0842
  327SOL     OW  979   2.812   0.316   0.593 -0.2303  0.4056 -0.9266
  327SOL    HW1  980   2.804   0.274   0.500  0.8325 -0.4477  2.2477
  327SOL    HW2  981   2.844   0.257   0.675  1.2842 -1.1843 -1.7366
  328SOL     OW  982   2.596   0.587   0.405  0.2623  0.7268  0.1988
  328SOL    HW1  983   2.531   0.669   0.411 -0.9711 -0.3544  0.9167
  328SOL    HW2  984   2.575   0.507   0.473 -0.3811 -2.9828 -0.5592
  329SOL     OW  985   2.928   2.943   2.160 -0.2492 -0.0064 -0.0421
  329SOL    HW1  986   3.014   2.926   2.215  0.9736  0.6509  0.7078
  329SOL    HW2  987   2.913   3.044   2.139 -1.7721  1.7659 -0.9097
  330SOL     OW  988   0.551   0.207   1.891  0.4633 -0.5709  0.5503
  330SOL    HW1  989   0.609   0.170   1.819 -1.6600  0.2254  0.4105
  330SOL    HW2  990   0.562   0.153   1.973  1.6195  2.7383  0.6653
  331SOL     OW  991   3.007   1.954   1.098  0.0356 -0.5920 -0.0030
  331SOL    HW1  992   2.942   1.995   1.030  0.7216 -1.5591 -2.9844
  331SOL    HW2  993   2.956   1.918   1.182  1.0493  1.4522 -0.0756
  332SOL     OW  994   0.405   1.195   0.090 -0.0401  0.1369 -0.0613
  332SOL    HW1  995   0.349   1.124   0.033 -1.9862  1.2997  4.3034
  332SOL    HW2  996   0.358   1.225   0.179  0.8390  0.2221  0.6688
  333SOL     OW  997   2.932   1.035   0.250  0.6606 -0.5556  0.5054
  333SOL    HW1  998   2.956   1.120   0.308 -0.9774  1.3607 -3.7432
  333SOL    HW2  999   3.010   0.971   0.232 -1.9898  0.7863  1.7807
  334SOL     OW 1000   1.702   1.276   1.813 -0.4875 -0.2828 -0.3880
  334SOL    HW1 1001   1.788   1.286   1.756  0.8970  1.6088 -2.0049
  334SOL    HW2 1002   1.724   1.291   1.911 -0.3813  0.7344 -0.2059
  335SOL     OW 1003   1.997   2.724   2.575 -0.4220  0.5263 -0.1920
  335SOL    HW1 1004   1.937   2.745   2.655  0.5344  1.1245 -1.9478
  335SOL    HW2 1005   2.084   2.778   2.566 -2.6096 -1.1476 -0.6543
  336SOL     OW 1006   0.247   0.080   2.720  0.2227 -0.1639  0.2285
  336SOL    HW1 1007   0.289   0.117   2.808 -2.3258 -0.1384  1.4478
  336SOL    HW2 1008   0.157   0.033   2.735 -0.2889 -1.5102  1.3613
  337SOL     OW 1009   0.989   2.871   2.888 -0.5888 -0.1075  0.7676
  337SOL    HW1 1010   0.963   2.798   2.957 -1.0795  2.2091 -0.2278
  337SOL    HW2 1011   1.074   2.929   2.923  0.7633  0.5521  3.7555
  338SOL     OW 1012   0.077   1.019   0.671 -0.1860  0.1184  0.5465
  338SOL    HW1 1013  -0.022   0.988   0.694 -0.5923 -0.2100  0.0794
  338SOL    HW2 1014   0.079   1.123   0.665  2.6486  0.4169 -0.7722
  339SOL     OW 1015   1.713   1.317   2.106 -0.0610 -0.2157  0.5036
  339SOL    HW1 1016   1.626   1.370   2.095  0.5567  1.2377 -1.2317
  339SOL    HW2 1017   1.780   1.345   2.177 -0.7813 -0.6881  0.5957
  340SOL     OW 1018   2.290   0.767   1.159 -0.1816 -0.5244  0.1332
  340SOL    HW1 1019   2.187   0.781   1.138  1.7559 -1.1116 -0.6177
  340SOL    HW2 1020   2.319   0.673   1.129 -0.1594 -0.8359  0.1704
  341SOL     OW 1021   1.920   2.090   0.292  0.0408 -0.1103 -0.0280
  341SOL    HW1 1022   1.957   2.128   0.206  0.6512  0.0295  2.2547
  341SOL    HW2 1023   1.993   2.074   0.364 -0.5041  1.4245  2.0854
  342SOL     OW 1024   2.181   2.135   2.794 -0.2006  0.6483  0.0024
  342SOL    HW1 1025   2.264   2.076   2.821 -1.2279 -0.8484 -0.8443
  342SOL    HW2 1026   2.100   2.082   2.754 -0.2762  1.4808 -0.2405
  343SOL     OW 1027   0.374   0.822   2.796  0.3685 -0.0368  0.0807
  343SOL    HW1 1028   0.392   0.798   2.700  3.5798  1.2243  0.3075
  343SOL    HW2 1029   0.461   0.869   2.834 -0.4440 -0.9526 -0.1517
  344SOL     OW 1030   1.918   1.472   0.433 -0.6560  0.2854  0.0942
  344SOL    HW1 1031   1.917   1.385   0.375 -0.4537 -0.6336  0.1528
  344SOL    HW2 1032   1.824   1.511   0.458 -0.1266  1.3589 -0.2515
  345SOL     OW 1033   1.410   2.253   2.891 -0.3375 -0.1308 -0.4650
  345SOL    HW1 1034   1.320   2.250   2.840 -0.5204  2.1026 -0.6557
  345SOL    HW2 1035   1.479   2.188   2.849 -0.4370  0.1715  3.4855
  346SOL     OW 1036   2.359   0.889   1.392  0.1545  0.1928 -0.2951
  346SOL    HW1 1037   2.291   0.953   1.436 -1.7960  0.5776  0.6540
  346SOL    HW2 1038   2.332   0.845   1.299 -1.3771  0.4673  0.5971
  347SOL     OW 1039   0.751   2.733   1.615  0.2525  0.0958  0.0391
  347SOL    HW1 1040   0.681   2.724   1.689  1.5371  0.1383 -1.5835
  347SOL    HW2 1041   0.712   2.783   1.530 -3.0576  0.8675 -0.9985
  348SOL     OW 1042   0.167   0.717   2.915 -0.7629 -0.0797  0.0864
  348SOL    HW1 1043   0.082   0.694   2.857  0.8836  1.6454  1.2586
  348SOL    HW2 1044   0.245   0.772   2.861  1.9351 -1.0949  0.7334
  349SOL     OW 1045   1.878   0.432   2.778  0.0360  0.0123 -0.2062
  349SOL    HW1 1046   1.855   0.507   2.709 -0.7095  0.3825 -2.0494
  349SOL    HW2 1047   1.847   0.466   2.874 -0.9147  1.8715 -0.4448
  350SOL     OW 1048   1.646   0.415   0.392  0.1126 -0.3818  0.1409
  350SOL    HW1 1049   1.734   0.413   0.441 -1.8706  0.8722  2.5650
  350SOL    HW2 1050   1.631   0.504   0.342  0.3237 -0.2857  0.2461
  351SOL     OW 1051   0.985   0.811   2.108  0.0899  0.4285 -0.3067
  351SOL    HW1 1052   0.994   0.913   2.094 -2.6819 -0.4567  1.3940
  351SOL    HW2 1053   1.007   0.762   2.020 -1.3960  0.4416 -1.6751
  352SOL     OW 1054   2.065   1.344   0.659  0.8516  0.0849  0.0414
  352SOL    HW1 1055   2.022   1.391   0.573 -2.0855 -0.1941 -0.5425
  352SOL    HW2 1056   1.990   1.284   0.695 -1.5548 -0.1365  0.5160
  353SOL     OW 1057   2.149   2.808   1.102  0.5791  0.2604 -0.2117
  353SOL    HW1 1058   2.217   2.760   1.165  2.2735 -0.2484  1.0127
  353SOL    HW2 1059   2.069   2.741   1.097  0.6526 -0.9068  0.2214
  354SOL     OW 1060   0.233   1.372   2.865  0.3188  0.5609 -0.2407
  354SOL    HW1 1061   0.213   1.453   2.801  0.9462 -1.6309 -1.1871
  354SOL    HW2 1062   0.327   1.369   2.906 -2.3895 -3.8811 -0.4583
  355SOL     OW 1063   0.720   1.601   0.561  0.3923  0.1366 -0.3669
  355SOL    HW1 1064   0.722   1.520   0.626  2.2154 -0.3480 -0.6149
  355SOL    HW2 1065   0.720   1.560   0.463 -0.2652 -0.6618 -2.1833
  356SOL     OW 1066   0.798   0.334   2.047 -0.1783 -0.1321  0.1548
  356SOL    HW1 1067   0.865   0.256   2.048  0.3331 -2.2682  1.5514
  356SOL    HW2 1068   0.800   0.386   1.964  2.2874  1.4379 -1.1371
  357SOL     OW 1069   0.996   1.324   0.315 -0.9707 -0.2264  0.5958
  357SOL    HW1 1070   1.095   1.340   0.291 -2.5817  1.4992 -1.0266
  357SOL    HW2 1071   0.979   1.245   0.375 -0.7819  1.7798 -1.7172
  358SOL     OW 1072   1.653   1.541   0.470 -0.3896 -0.5942 -0.3075
  358SOL    HW1 1073   1.613   1.505   0.561 -1.6454  1.3769 -1.9520
  358SOL    HW2 1074   1.608   1.495   0.388  0.7169  3.4820  1.0246
  359SOL     OW 1075   1.571   2.621   0.217  0.2780 -0.5318  0.3323
  359SOL    HW1 1076   1.568   2.521   0.197 -0.6287  2.9936 -2.6011
  359SOL    HW2 1077   1.516   2.656   0.301 -1.1780 -0.3830  1.1984
  360SOL     OW 1078   0.787   0.571   0.531 -0.3103 -0.0662  0.1954
  360SOL    HW1 1079   0.689   0.559   0.497 -0.7472 -0.6446  0.2722
  360SOL    HW2 1080   0.831   0.473   0.556  0.9833 -2.6287 -1.3642
  361SOL     OW 1081   1.267   1.303   0.665  0.7736 -0.1642 -0.1463
  361SOL    HW1 1082   1.329   1.361   0.725 -0.4879 -0.7199  0.2699
  361SOL    HW2 1083   1.165   1.323   0.688  0.6211  0.0271  0.5385
  362SOL     OW 1084   1.384   1.795   0.807  0.0021 -0.5657 -0.6451
  362SOL    HW1 1085   1.454   1.740   0.863  0.0059  0.8692  2.4567
  362SOL    HW2 1086   1.427   1.880   0.768 -0.2814  0.3998  0.5081
  363SOL     OW 1087   1.234   1.347   2.050  0.0012  0.1425  0.1903
  363SOL    HW1 1088   1.330   1.367   2.084  2.5084  1.0141 -2.6687
  363SOL    HW2 1089   1.217   1.356   1.949  1.0004  2.1963 -1.0673
  364SOL     OW 1090   0.518   2.339   1.990 -0.5779  0.6991  0.0509
  364SOL    HW1 1091   0.428   2.392   1.987  0.9896  0.9027 -0.4301
  364SOL    HW2 1092   0.598   2.395   1.954  2.6106 -0.2770  2.5284
  365SOL     OW 1093   0.981   1.977   1.329  0.2869  0.0663 -0.2488
  365SOL    HW1 1094   0.884   2.006   1.357 -1.1386  0.2711 -1.3024
  365SOL    HW2 1095   0.999   1.998   1.227  1.7569  0.6386  0.6793
  366SOL     OW 1096   2.842   1.958   0.387  0.4516  0.4532  0.2781
  366SOL    HW1 1097   2.764   1.912   0.445 -1.7733 -0.1970 -0.4146
  366SOL    HW2 1098   2.884   1.893   0.319  0.6458 -0.7292 -1.7351
  367SOL     OW 1099   0.887   1.142   3.087  0.5773 -0.0055  0.2185
  367SOL    HW1 1100   0.902   1.056   3.150 -2.1282  0.5834 -0.2403
  367SOL    HW2 1101   0.945   1.224   3.110 -0.0401 -0.4696  1.7244
  368SOL     OW 1102   1.456   0.540   0.652  0.3231  0.0224 -0.7157
  368SOL    HW1 1103   1.390   0.527   0.568 -2.3541 -0.0230 -0.6486
  368SOL    HW2 1104   1.563   0.555   0.636  2.1891  2.5956  0.3282
  369SOL     OW 1105   0.368   1.675   0.120  0.2493 -0.0096  0.2592
  369SOL    HW1 1106   0.384   1.748   0.188 -0.0096 -1.4829  2.0246
  369SOL    HW2 1107   0.298   1.610   0.159  0.1454 -0.5000  0.4604
  370SOL     OW 1108   0.431   2.036   1.044  0.7384  0.1273  0.6970
  370SOL    HW1 1109   0.435   2.135   1.015  1.0180  1.1014  1.9662
  370SOL    HW2 1110   0.333   1.992   1.041 -2.0207  0.6346  0.0281
  371SOL     OW 1111   2.908   2.209   2.643  0.0255  0.2609 -0.6009
  371SOL    HW1 1112   2.830   2.162   2.699  0.2259 -0.2886  0.3759
  371SOL    HW2 1113   3.006   2.209   2.688  0.6620  0.6751  1.1639
  372SOL     OW 1114   1.036   2.014   1.059 -0.2265  0.0976  0.0517
  372SOL    HW1 1115   0.959   2.065   1.015 -0.9004  0.8197  0.5013
  372SOL    HW2 1116   1.119   2.017   1.000 -0.7733 -1.5422 -0.2149
  373SOL     OW 1117   1.975   1.947   0.830 -0.5708 -0.3262 -0.2795
  373SOL    HW1 1118   2.054   1.939   0.895 -3.0440 -1.0186  2.2148
  373SOL    HW2 1119   1.890   1.975   0.880  1.3118 -0.7066  2.1926
  374SOL     OW 1120   1.860   0.387   0.565 -0.1938 -0.3388  0.0171
  374SOL    HW1 1121   1.870   0.361   0.660 -0.1753  0.6760 -0.2734
  374SOL    HW2 1122   1.955   0.407   0.521  3.3925  1.3366 -3.8942
  375SOL     OW 1123   2.398   2.152   1.069  0.1299 -0.0981  0.0560
  375SOL    HW1 1124   2.443   2.106   0.986  0.8787  1.1109 -1.6543
  375SOL    HW2 1125   2.462   2.152   1.152  3.0242  1.3538  0.6495
  376SOL     OW 1126   3.037   0.563   1.506 -0.6293 -0.5368  0.1491
  376SOL    HW1 1127   3.092   0.633   1.562  0.2066 -0.4971 -1.8847
  376SOL    HW2 1128   2.942   0.556   1.534 -0.8034  1.9979 -2.3980
  377SOL     OW 1129   2.160   2.918   0.285 -0.2101 -0.0859  0.4683
  377SOL    HW1 1130   2.141   3.017   0.301 -1.8330 -2.3434 -3.1586
  377SOL    HW2 1131   2.258   2.894   0.314  1.3749  2.8415 -0.7534
  378SOL     OW 1132   1.781   1.853   2.609 -0.6177 -0.5704 -0.2272
  378SOL    HW1 1133   1.806   1.840   2.707 -0.2199  1.5784 -1.1639
  378SOL    HW2 1134   1.749   1.766   2.558  0.5224 -0.1273 -4.2116
  379SOL     OW 1135   0.699   0.099   2.876 -0.2418 -0.2852 -0.7364
  379SOL    HW1 1136   0.651   0.020   2.826 -1.2188  2.1476  1.3065
  379SOL    HW2 1137   0.716   0.176   2.809  0.7351  0.4073 -0.8941
  380SOL     OW 1138   1.519   1.147   0.623 -0.0306  0.1620  0.0268
  380SOL    HW1 1139   1.418   1.178   0.636 -0.0120 -0.2731  0.7469
  380SOL    HW2 1140   1.532   1.055   0.665 -0.6395  1.6393  0.3755
  381SOL     OW 1141   1.346   1.171   1.524  0.0854 -0.3812  0.1922
  381SOL    HW1 1142   1.391   1.141   1.435  1.7739 -1.1478  0.3922
  381SOL    HW2 1143   1.395   1.132   1.608  2.7963  2.3966 -0.5153
  382SOL     OW 1144   1.781   0.870   0.181  0.2782  0.3301  0.0885
  382SOL    HW1 1145   1.800   0.833   0.088 -0.8175 -0.6461  0.8955
  382SOL    HW2 1146   1.862   0.879   0.246  0.1616 -1.7432  1.2313
  383SOL     OW 1147   2.588   1.012   1.458 -0.0331 -0.5473  0.0039
  383SOL    HW1 1148   2.499   0.978   1.418  0.1644 -3.0415  1.9343
  383SOL    HW2 1149   2.668   0.971   1.407 -2.4678  3.7202  2.3033
  384SOL     OW 1150   0.988   2.255   0.134 -0.2298 -0.4970  0.6250
  384SOL    HW1 1151   0.933   2.337   0.161  0.7502  0.7746  0.8305
  384SOL    HW2 1152   0.973   2.175   0.198 -0.7511 -1.6764  1.5344
  385SOL     OW 1153   3.015   2.049   1.647 -0.4135  0.0309 -0.1304
  385SOL    HW1 1154   3.097   2.114   1.660 -0.3553 -4.7398 -1.0000
  385SOL    HW2 1155   3.046   1.948   1.631  1.2096 -0.1350  1.6029
  386SOL     OW 1156   0.490   1.070   0.427  0.2388  0.1438  0.1850
  386SOL    HW1 1157   0.445   0.978   0.447  0.6908 -1.4608  0.3720
  386SOL    HW2 1158   0.421   1.145   0.394  1.2395  0.1309 -0.1375
  387SOL     OW 1159   0.977   0.294   1.681  0.1345  0.5974  0.2634
  387SOL    HW1 1160   1.024   0.386   1.697 -0.9275 -0.8080  0.3762
  387SOL    HW2 1161   0.954   0.275   1.582  0.4157 -1.7415 -0.3709
  388SOL     OW 1162   1.203   2.689   1.738  0.2644 -0.1760  0.1139
  388SOL    HW1 1163   1.211   2.663   1.636  0.1946  0.2645 -1.3547
  388SOL    HW2 1164   1.246   2.622   1.808  1.2974  0.8167  2.2533
  389SOL     OW 1165   0.198   3.028   1.134 -0.5746  0.1812  0.7156
  389SOL    HW1 1166   0.158   3.026   1.228  1.3192  2.2259 -1.4558
  389SOL    HW2 1167   0.171   2.946   1.083 -1.1056  1.8220 -0.6444
  390SOL     OW 1168   1.018   0.987   1.335  0.3384  0.5666 -0.5028
  390SOL    HW1 1169   1.099   0.946   1.382 -1.0628  0.7045 -1.6180
  390SOL    HW2 1170   0.967   1.058   1.392 -1.7907  0.4381  0.4168
  391SOL     OW 1171   2.145   1.089   1.075  0.2708  0.2086  0.0241
  391SOL    HW1 1172   2.141   1.005   1.130 -0.5270  2.3075 -3.2146
  391SOL    HW2 1173   2.210   1.076   0.992  0.0712 -0.0047 -1.1571
  392SOL     OW 1174   0.847   2.741   3.091 -0.1328 -0.3903 -0.0184
  392SOL    HW1 1175   0.907   2.656   3.109 -0.0099 -1.0557  2.2990
  392SOL    HW2 1176   0.838   2.800   3.174 -2.5276 -2.5801 -4.1746
  393SOL     OW 1177   0.367   0.526   2.000  0.3918  0.0844  0.0234
  393SOL    HW1 1178   0.296   0.454   2.006  0.8459  4.3778 -0.9704
  393SOL    HW2 1179   0.435   0.523   1.917 -0.6862 -0.3772 -3.5567
  394SOL     OW 1180   3.045   1.818   2.799 -0.9577 -0.2410 -0.0654
  394SOL    HW1 1181   3.057   1.846   2.900 -0.9979  4.0080 -1.9107
  394SOL    HW2 1182   3.101   1.877   2.734  0.9967 -1.6009 -3.1820
  395SOL     OW 1183   1.644   1.962   0.682  0.5183  0.2644 -0.1650
  395SOL    HW1 1184   1.687   1.899   0.612 -0.4937 -1.7190  0.1612
  395SOL    HW2 1185   1.676   1.942   0.777 -0.5920 -0.2267  1.6804
  396SOL     OW 1186   2.841   1.877   1.298 -0.0834  0.1531 -0.0775
  396SOL    HW1 1187   2.809   1.781   1.311  1.0357 -0.1426  1.4892
  396SOL    HW2 1188   2.816   1.940   1.384 -0.4585  2.1548  3.9142
  397SOL     OW 1189   1.037   2.234   0.505 -0.0522 -0.5674 -0.1164
  397SOL    HW1 1190   0.940   2.205   0.531  1.4483 -0.8456  1.7863
  397SOL    HW2 1191   1.053   2.337   0.516  0.4779  2.7674 -0.6143
  398SOL     OW 1192   2.131   3.064   1.005 -0.0764  0.8039  0.0745
  398SOL    HW1 1193   2.143   2.969   1.038 -2.1802  1.0460 -1.1134
  398SOL    HW2 1194   2.059   3.119   1.066 -2.1927  2.1753  1.1958
  399SOL     OW 1195   3.036   2.493   2.523  0.0898 -0.4862 -0.4710
  399SOL    HW1 1196   2.947   2.460   2.479  0.5077 -2.5379  1.0109
  399SOL    HW2 1197   3.036   2.478   2.622  1.5878 -1.7636  2.3179
  400SOL     OW 1198   0.767   1.621   1.339 -0.3418 -0.1434 -0.0314
  400SOL    HW1 1199   0.731   1.699   1.396  2.1944 -1.9174 -0.5333
  400SOL    HW2 1200   0.807   1.656   1.250  0.1182  1.5855 -1.7781
  401SOL     OW 1201   1.786   0.093   1.340  0.0030 -0.0804 -0.5541
  401SOL    HW1 1202   1.816   0.110   1.439 -0.6059  0.9152  0.5276
  401SOL    HW2 1203   1.683   0.094   1.333 -1.8548  0.3251  0.4946
  402SOL     OW 1204   1.322   0.145   3.059 -0.0526  0.3251  0.1085
  402SOL    HW1 1205   1.420   0.133   3.020  1.5781  2.3065  1.4772
  402SOL    HW2 1206   1.302   0.244   3.063 -1.2814 -1.9074 -0.5320
  403SOL     OW 1207   2.324   1.776   0.882  0.1797 -0.1215  0.3581
  403SOL    HW1 1208   2.425   1.766   0.895 -1.1928  1.2079 -0.2079
  403SOL    HW2 1209   2.266   1.823   0.959 -0.5841 -0.9344  0.9137
  404SOL     OW 1210   0.184   2.524   2.795  0.0060  0.3682 -0.4371
  404SOL    HW1 1211   0.264   2.477   2.833 -1.1419 -1.4796  0.0551
  404SOL    HW2 1212   0.183   2.623   2.827  0.2652  0.5062 -1.1856
  405SOL     OW 1213   0.166   2.396   0.671 -0.2517 -0.3978  0.3658
  405SOL    HW1 1214   0.144   2.374   0.573 -0.5536 -4.5715 -0.3349
  405SOL    HW2 1215   0.179   2.502   0.682  1.1020  0.3870 -3.4804
  406SOL     OW 1216   0.033   1.506   3.029  0.6388  0.6326  0.0227
  406SOL    HW1 1217   0.046   1.407   3.017  0.3037 -1.3908 -1.2717
  406SOL    HW2 1218   0.123   1.564   3.034 -0.1858  1.6350  0.6560
  407SOL     OW 1219   1.579   0.962   0.897 -0.2754  0.0102  0.8051
  407SOL    HW1 1220   1.570   0.922   0.799  1.5701 -0.1594 -2.7433
  407SOL    HW2 1221   1.482   0.980   0.940  0.5386 -0.0214 -0.9045
  408SOL     OW 1222   1.590   2.336   0.941  0.7589  0.2985 -0.0732
  408SOL    HW1 1223   1.642   2.318   0.851 -0.8591 -1.2839 -0.7953
  408SOL    HW2 1224   1.515   2.407   0.932  0.7680  4.4938  0.3348
  409SOL     OW 1225   0.631   0.847   0.681 -0.3710  0.2472  0.6366
  409SOL    HW1 1226   0.566   0.848   0.599  2.1024 -0.7630  1.2496
  409SOL    HW2 1227   0.635   0.760   0.732  1.0623 -0.0913 -0.2786
  410SOL     OW 1228   1.274   2.055   1.419  0.4398 -0.0452 -0.0667
  410SOL    HW1 1229   1.339   2.003   1.483  0.3556 -0.5401 -0.0191
  410SOL    HW2 1230   1.182   2.028   1.430  1.5721 -2.1162 -2.0616
  411SOL     OW 1231   2.525   1.857   3.089  0.5949  0.1815 -0.3190
  411SOL    HW1 1232   2.455   1.909   3.033  1.8948  1.2108  0.8863
  411SOL    HW2 1233   2.597   1.813   3.029  0.2008  0.6628 -0.0098
  412SOL     OW 1234   1.460   2.499   2.193  0.3595 -0.1747 -0.2946
  412SOL    HW1 1235   1.504   2.580   2.243 -0.2196  1.2167 -1.8245
  412SOL    HW2 1236   1.383   2.456   2.252 -1.6116  1.0865  1.5879
  413SOL     OW 1237   3.076   0.274   2.977 -0.0075 -0.5398  0.7428
  413SOL    HW1 1238   3.031   0.186   3.009 -0.7074 -1.6638 -0.8291
  413SOL    HW2 1239   3.183   0.278   2.970  1.5631 -3.6784 -3.4616
  414SOL     OW 1240   1.826   1.513   1.240  0.4720  0.5194 -0.0976
  414SOL    HW1 1241   1.730   1.541   1.255 -1.7836  3.3125  0.4155
  414SOL    HW2 1242   1.840   1.416   1.202 -0.2867 -0.0308  0.8109
  415SOL     OW 1243   0.333   2.173   0.719  0.4204  0.2073 -0.4944
  415SOL    HW1 1244   0.271   2.258   0.698  0.1260  1.2494  1.8087
  415SOL    HW2 1245   0.282   2.111   0.781  0.2582  1.4348 -1.2727
  416SOL     OW 1246   0.341   1.018   1.052  0.5758  0.2531  0.4551
  416SOL    HW1 1247   0.309   0.957   0.970 -0.2329  1.8733 -2.9115
  416SOL    HW2 1248   0.445   1.027   1.050 -0.0904 -0.4292 -0.0430
  417SOL     OW 1249   2.188   2.285   1.937  0.8573  0.0711  0.3761
  417SOL    HW1 1250   2.285   2.259   1.962  0.0839  0.9467  2.6388
  417SOL    HW2 1251   2.121   2.205   1.932 -0.3956 -1.9747  2.7190
  418SOL     OW 1252   1.107   0.510   1.352 -0.8879  0.0269  0.6447
  418SOL    HW1 1253   1.041   0.474   1.282  1.7603 -1.2716 -0.3088
  418SOL    HW2 1254   1.197   0.547   1.314  3.2818  2.0508  1.5394
  419SOL     OW 1255   0.926   0.429   3.007  0.0462  0.7760  0.0278
  419SOL    HW1 1256   0.934   0.405   2.908 -0.1030  2.0442  0.9921
  419SOL    HW2 1257   0.871   0.516   3.014 -1.9648 -3.8010  0.7538
  420SOL     OW 1258   0.061   2.247   0.439 -0.0553  0.0237  0.2368
  420SOL    HW1 1259   0.072   2.211   0.340  3.5597  1.7277  0.6658
  420SOL    HW2 1260   0.002   2.187   0.498 -0.0508 -0.5733 -0.7582
  421SOL     OW 1261   0.366   2.989   0.680 -0.7209  0.2920 -0.1760
  421SOL    HW1 1262   0.353   2.898   0.727  2.0518  0.1068 -2.8264
  421SOL    HW2 1263   0.466   3.030   0.685 -1.1749  1.2970 -0.1644
  422SOL     OW 1264   1.049   2.496   1.017  0.3048 -0.5214 -0.4033
  422SOL    HW1 1265   1.095   2.581   0.971  0.5066 -0.2835  1.2321
  422SOL    HW2 1266   1.044   2.519   1.117  1.6244  1.3317 -1.0674
  423SOL     OW 1267   0.079   0.662   1.259 -0.1932 -0.1096  0.6843
  423SOL    HW1 1268   0.034   0.622   1.341  1.4608  1.2030  1.8733
  423SOL    HW2 1269   0.041   0.755   1.233 -1.8724  2.4087 -2.2850
  424SOL     OW 1270   1.003   2.218   2.034 -0.5080 -0.5077  0.6448
  424SOL    HW1 1271   0.972   2.317   2.024 -0.4870  1.8265 -3.1240
  424SOL    HW2 1272   0.988   2.180   2.130  1.4453  0.5589  1.1624
  425SOL     OW 1273   2.000   1.361   0.984  0.1523 -0.6214  0.1604
  425SOL    HW1 1274   2.062   1.282   1.013  0.1769 -0.9767  1.0043
  425SOL    HW2 1275   2.048   1.423   0.919  1.4468 -0.3199  0.2226
  426SOL     OW 1276   1.527   1.617   1.374 -0.7638 -0.3055  0.1464
  426SOL    HW1 1277   1.495   1.673   1.287  1.4589  3.0189 -2.2946
  426SOL    HW2 1278   1.452   1.613   1.441 -2.0219  2.7773 -2.2413
  427SOL     OW 1279   1.889   2.378   2.042  0.3965 -0.0603 -0.1341
  427SOL    HW1 1280   1.925   2.293   2.089  0.5773 -1.4305  0.5272
  427SOL    HW2 1281   1.945   2.459   2.068 -2.1794 -1.0047  0.3354
  428SOL     OW 1282   0.879   3.001   0.211 -0.2682  0.5088  0.2431
  428SOL    HW1 1283   0.872   3.095   0.163  1.1952  0.2486 -0.7742
  428SOL    HW2 1284   0.969   2.955   0.178  2.6624  1.7058  1.2967
  429SOL     OW 1285   1.347   0.065   0.223  0.1813 -0.1137  0.7602
  429SOL    HW1 1286   1.433   0.101   0.276 -0.1826  1.2972  0.8004
  429SOL    HW2 1287   1.355   0.073   0.118  0.0989 -0.1921  0.3422
  430SOL     OW 1288   2.813   1.403   0.317 -0.7533 -0.2590 -0.3559
  430SOL    HW1 1289   2.849   1.461   0.234 -0.7214  2.9790 -0.1173
  430SOL    HW2 1290   2.784   1.461   0.395  1.7232 -1.3540 -0.0214
  431SOL     OW 1291   2.131   1.570   0.859 -0.2801 -0.2602 -0.0335
  431SOL    HW1 1292   2.210   1.635   0.868  0.2688 -1.2112  1.4540
  431SOL    HW2 1293   2.084   1.569   0.771 -1.2705 -0.6709  1.7501
  432SOL     OW 1294   2.872   2.244   1.245 -0.5286 -0.2778  0.9858
  432SOL    HW1 1295   2.823   2.175   1.307 -1.1426 -1.0621  2.5349
  432SOL    HW2 1296   2.933   2.302   1.307  1.0593  1.4591 -0.4570
  433SOL     OW 1297   1.937   0.395   0.853 -0.3905 -0.4056 -0.5946
  433SOL    HW1 1298   1.877   0.331   0.906 -0.9806  0.3867 -0.5531
  433SOL    HW2 1299   2.040   0.375   0.857 -3.1254 -0.0636  0.2597
  434SOL     OW 1300   1.498   0.301   0.734 -0.2574 -0.6795  0.1785
  434SOL    HW1 1301   1.476   0.403   0.703 -2.3970  0.8039  1.9779
  434SOL    HW2 1302   1.565   0.306   0.813 -1.3670  1.0868 -4.0182
  435SOL     OW 1303   1.474   1.468   2.128  0.7145  0.5208 -0.1971
  435SOL    HW1 1304   1.419   1.502   2.205  1.0946 -0.7149 -0.8270
  435SOL    HW2 1305   1.477   1.543   2.051  2.4432  0.0824 -5.3293
  436SOL     OW 1306   1.676   2.750   2.203  0.1140  0.1147  0.1211
  436SOL    HW1 1307   1.624   2.832   2.236  0.7370  0.8605  2.0159
  436SOL    HW2 1308   1.682   2.680   2.279 -1.8930  1.1731 -0.7942
  437SOL     OW 1309   1.040   2.914   0.940 -0.1070  0.4887 -0.0416
  437SOL    HW1 1310   1.015   2.996   0.877 -1.8241  0.4194  1.8398
  437SOL    HW2 1311   1.004   2.941   1.034  0.7188 -2.5372  0.6858
  438SOL     OW 1312   1.020   2.590   1.283 -0.2168  0.7700  0.2989
  438SOL    HW1 1313   1.082   2.637   1.348 -3.7642  0.6645  0.7615
  438SOL    HW2 1314   1.016   2.484   1.294  2.3895 -0.4273  1.0697
  439SOL     OW 1315   0.682   1.731   1.083  0.2027  0.1810  0.2876
  439SOL    HW1 1316   0.681   1.816   1.023  0.9609  0.9067  2.0683
  439SOL    HW2 1317   0.587   1.713   1.123  0.3431  2.1693 -1.0831
  440SOL     OW 1318   0.985   2.483   1.971  0.4325  0.2474  0.2511
  440SOL    HW1 1319   0.957   2.519   1.877 -3.3152 -1.2651 -1.4476
  440SOL    HW2 1320   1.088   2.496   1.988 -1.4385  1.2887 -0.4725
  441SOL     OW 1321   0.487   2.722   1.388  0.5027  0.1899  0.7651
  441SOL    HW1 1322   0.516   2.622   1.400 -0.2951 -3.3482 -2.7930
  441SOL    HW2 1323   0.383   2.733   1.367  2.3917  3.4232 -0.5265
  442SOL     OW 1324   2.341   0.651   2.427 -0.4627  0.4256  0.0887
  442SOL    HW1 1325   2.353   0.556   2.471 -0.7287 -0.6297 -1.0478
  442SOL    HW2 1326   2.243   0.679   2.413  1.3734 -0.8470 -0.8575
  443SOL     OW 1327   1.241   2.730   2.141 -0.0367  0.0064 -0.2588
  443SOL    HW1 1328   1.244   2.792   2.220  2.2063  0.8206 -2.6369
  443SOL    HW2 1329   1.220   2.635   2.176  0.1163 -3.0421  3.9605
  444SOL     OW 1330   1.090   1.285   1.606 -0.8612  0.0565  0.0718
  444SOL    HW1 1331   1.177   1.259   1.556  0.0497 -0.3848 -1.8331
  444SOL    HW2 1332   1.102   1.349   1.685  1.2016 -1.1031  0.2982
  445SOL     OW 1333   0.021   2.394   1.849 -0.5418  0.2421 -0.4110
  445SOL    HW1 1334  -0.011   2.478   1.794 -1.0061 -1.3027  1.0756
  445SOL    HW2 1335  -0.058   2.338   1.880  1.0474  2.4126  1.1432
  446SOL     OW 1336   0.255   1.933   2.338 -0.3228  0.0491 -0.0303
  446SOL    HW1 1337   0.204   2.021   2.370 -4.2160 -2.3960 -0.5037
  446SOL    HW2 1338   0.202   1.882   2.262  0.9248  2.6680  2.0618
  447SOL     OW 1339   1.188   1.711   1.920 -0.2630 -0.2071 -0.0495
  447SOL    HW1 1340   1.108   1.777   1.907 -0.6299 -0.9212 -1.6657
  447SOL    HW2 1341   1.278   1.753   1.889 -1.6532  1.1561  2.0693
  448SOL     OW 1342   0.120   1.521   1.967  0.3228  0.2710 -0.1831
  448SOL    HW1 1343   0.123   1.624   1.933 -0.8124  0.1186 -0.4509
  448SOL    HW2 1344   0.074   1.516   2.061  1.9096 -1.7122 -1.0038
  449SOL     OW 1345   1.928   2.953   0.857  0.7948 -0.4334 -0.2816
  449SOL    HW1 1346   1.991   2.983   0.932  1.2920  0.2142  1.0866
  449SOL    HW2 1347   1.954   2.863   0.812  4.9323 -0.4158 -1.1289
  450SOL     OW 1348   2.346   1.394   0.729 -0.4214 -0.6007  0.5187
  450SOL    HW1 1349   2.248   1.361   0.742  0.5214 -1.2067 -4.1690
  450SOL    HW2 1350   2.350   1.475   0.661  1.0714 -0.7972 -1.3637
  451SOL     OW 1351   1.356   3.003   1.462 -0.3767  0.8429  0.0034
  451SOL    HW1 1352   1.285   3.068   1.501  1.0271 -0.7577 -0.6430
  451SOL    HW2 1353   1.394   2.943   1.540 -1.8357  0.1490 -0.7472
  452SOL     OW 1354   2.698   2.292   2.160 -0.2547  0.2972 -0.3487
  452SOL    HW1 1355   2.628   2.365   2.189 -3.9147 -1.9668 -1.2389
  452SOL    HW2 1356   2.744   2.243   2.243  0.7430 -2.6759  0.9162
  453SOL     OW 1357   2.483   2.650   3.090  0.1913  0.0185 -0.2564
  453SOL    HW1 1358   2.390   2.704   3.105 -2.2283  1.0604 -0.6758
  453SOL    HW2 1359   2.472   2.567   3.020  2.2128 -1.2424 -1.3713
  454SOL     OW 1360   1.021   1.163   2.098  0.3245  0.0414 -0.5524
  454SOL    HW1 1361   0.978   1.162   2.003  0.5443 -1.9236 -0.2141
  454SOL    HW2 1362   1.104   1.222   2.105  0.8596 -2.7121  0.1519
  455SOL     OW 1363   0.645   2.678   2.933  0.1909 -0.4516 -0.0883
  455SOL    HW1 1364   0.735   2.701   2.984  0.9362 -1.1829 -2.5251
  455SOL    HW2 1365   0.615   2.582   2.933  0.2656  0.7317  1.3605
  456SOL     OW 1366   0.457   1.864   0.298  0.2888  0.1850  0.3475
  456SOL    HW1 1367   0.535   1.836   0.360 -2.6485 -0.5018  1.2612
  456SOL    HW2 1368   0.471   1.962   0.263 -0.4625 -0.3312  0.9605
  457SOL     OW 1369   0.268   2.653   0.646  0.3083 -0.0828  0.4649
  457SOL    HW1 1370   0.267   2.721   0.565  0.4236 -1.6289  0.7723
  457SOL    HW2 1371   0.359   2.610   0.653 -3.2686  1.8671 -0.1421
  458SOL     OW 1372   2.959   3.045   1.212  0.6263  0.5292  0.0423
  458SOL    HW1 1373   2.979   3.146   1.205 -2.6086  0.0177  0.8103
  458SOL    HW2 1374   2.974   2.991   1.120 -1.6939 -1.7984  0.6682
  459SOL     OW 1375   2.172   2.557   0.772 -0.0447 -0.3076  0.4653
  459SOL    HW1 1376   2.194   2.653   0.800 -0.8350  0.6877  1.4335
  459SOL    HW2 1377   2.256   2.507   0.731 -0.8481 -1.9756 -1.6101
  460SOL     OW 1378   1.173   2.003   2.864 -0.4321 -0.0221  0.4452
  460SOL    HW1 1379   1.196   2.022   2.762  0.4331 -1.5352 -2.3337
  460SOL    HW2 1380   1.236   1.932   2.909  0.2972  0.1485  1.5269
  461SOL     OW 1381   0.546   2.076   2.691 -0.2813 -0.4312  0.0985
  461SOL    HW1 1382   0.471   2.006   2.675  0.1903  1.9976 -2.4618
  461SOL    HW2 1383   0.584   2.081   2.786  0.5714  0.4310 -1.9845
  462SOL     OW 1384   0.960   1.129   1.833 -0.1214 -0.7922  0.5541
  462SOL    HW1 1385   1.015   1.058   1.779 -0.2652 -1.5445 -0.5285
  462SOL    HW2 1386   0.917   1.196   1.768 -3.8055  0.0133 -2.8450
  463SOL     OW 1387   0.465   0.780   0.482 -0.4186 -1.0907  0.1698
  463SOL    HW1 1388   0.478   0.676   0.457 -0.7284  0.1924  0.3179
  463SOL    HW2 1389   0.371   0.809   0.519 -0.8328  2.3894  2.1310
  464SOL     OW 1390   0.614   2.273   2.238 -0.2982  0.1192 -0.0124
  464SOL    HW1 1391   0.579   2.352   2.293  0.2202  1.0060  0.2796
  464SOL    HW2 1392   0.586   2.272   2.137 -0.5164 -1.9082 -1.4987
  465SOL     OW 1393   0.308   0.913   0.778  0.1251 -0.1588  0.4264
  465SOL    HW1 1394   0.215   0.941   0.756  0.7068 -1.5692 -1.2812
  465SOL    HW2 1395   0.317   0.809   0.767  1.1442  2.4585 -1.7232
  466SOL     OW 1396   1.359   1.124   1.071 -0.6262  0.6961  0.3211
  466SOL    HW1 1397   1.410   1.178   0.997 -0.3955 -2.3831 -0.1806
  466SOL    HW2 1398   1.256   1.146   1.070 -2.0426 -2.3546 -0.3559
  467SOL     OW 1399   0.451   0.362   2.370 -0.0445 -0.3531  0.0372
  467SOL    HW1 1400   0.408   0.458   2.377 -1.0380  0.4020  2.4735
  467SOL    HW2 1401   0.470   0.319   2.464  0.3521  2.2928  2.3780
  468SOL     OW 1402   0.452   2.292   1.658  0.1706  0.1366 -0.6430
  468SOL    HW1 1403   0.521   2.362   1.693 -3.0026  0.9665  1.7498
  468SOL    HW2 1404   0.418   2.309   1.564 -0.1067  2.8383  2.1589
  469SOL     OW 1405   1.510   1.389   1.194 -0.1063 -0.1122  0.2847
  469SOL    HW1 1406   1.564   1.310   1.159  1.9893 -1.7973  0.3936
  469SOL    HW2 1407   1.542   1.425   1.284 -0.2206 -2.7805 -0.1293
  470SOL     OW 1408   3.033   1.666   0.774  0.4952 -0.2272  0.4078
  470SOL    HW1 1409   3.098   1.748   0.756  0.7755 -0.0396 -1.1771
  470SOL    HW2 1410   2.957   1.691   0.841 -1.1067  2.7443  0.1027
  471SOL     OW 1411   2.673   1.306   2.145 -0.9518 -0.2258  0.5257
  471SOL    HW1 1412   2.631   1.242   2.216 -0.7578  0.9206  0.8392
  471SOL    HW2 1413   2.753   1.362   2.181  1.9275  1.5422 -0.9571
  472SOL     OW 1414   1.133   2.478   3.073 -0.1301  0.0693 -0.1432
  472SOL    HW1 1415   1.184   2.472   3.161 -0.0279  3.1132  1.1643
  472SOL    HW2 1416   1.102   2.384   3.045  1.6279 -1.6144 -1.9358
  473SOL     OW 1417   1.106   1.534   1.001 -0.2153 -0.3583 -0.6947
  473SOL    HW1 1418   1.005   1.520   0.985 -3.8340 -0.4290  2.0690
  473SOL    HW2 1419   1.128   1.481   1.091 -1.4381  2.6655  1.1916
  474SOL     OW 1420   0.706   1.297   0.555  0.1144 -0.5185  0.2500
  474SOL    HW1 1421   0.646   1.267   0.476  0.2502  1.0842  0.2991
  474SOL    HW2 1422   0.758   1.216   0.597  0.3438 -2.2542 -0.0575
  475SOL     OW 1423   2.831   0.089   0.800 -0.5362  0.2120  0.1969
  475SOL    HW1 1424   2.918   0.135   0.834  2.4072  0.8682 -0.0578
  475SOL    HW2 1425   2.747   0.127   0.846 -2.5108  0.6965  0.7664
  476SOL     OW 1426   0.948   3.031   1.821 -0.5902  0.3552 -0.8638
  476SOL    HW1 1427   1.022   2.977   1.866 -0.0251 -1.2037 -2.3791
  476SOL    HW2 1428   0.950   3.013   1.720 -0.5593  1.6161 -1.8306
  477SOL     OW 1429   1.472   0.327   2.473 -0.2457  0.0780 -0.4383
  477SOL    HW1 1430   1.453   0.332   2.574  1.1221  1.9470  2.1353
  477SOL    HW2 1431   1.569   0.305   2.445 -0.7987  1.9298  3.7598
  478SOL     OW 1432   2.219   1.850   0.262 -0.2358  0.0482  0.1861
  478SOL    HW1 1433   2.142   1.781   0.250 -1.4481 -2.9670 -1.0465
  478SOL    HW2 1434   2.310   1.803   0.281 -0.8482  1.5069 -0.8753
  479SOL     OW 1435   1.254   1.075   2.921 -0.2319  0.2784 -0.0769
  479SOL    HW1 1436   1.318   1.079   2.839 -1.9121  0.4789  1.3787
  479SOL    HW2 1437   1.162   1.050   2.877 -2.6398 -2.0614  0.0447
  480SOL     OW 1438   2.559   2.346   0.373 -0.3653 -0.1474 -0.5098
  480SOL    HW1 1439   2.525   2.249   0.387 -1.0094  0.3552 -2.7186
  480SOL    HW2 1440   2.487   2.406   0.324 -4.0584 -2.9228  1.5962
  481SOL     OW 1441   1.013   1.124   0.834  0.4578 -0.0547 -0.8772
  481SOL    HW1 1442   1.044   1.211   0.787  1.5345  1.8086 -0.5472
  481SOL    HW2 1443   0.997   1.145   0.933  0.0237 -0.7865 -0.5634
  482SOL     OW 1444   1.573   0.280   2.055  0.4383  0.0694 -0.3352
  482SOL    HW1 1445   1.583   0.370   2.006 -1.7144 -1.4987  3.8449
  482SOL    HW2 1446   1.665   0.242   2.093  2.8331 -0.1570 -0.4410
  483SOL     OW 1447   0.125   2.305   1.279 -0.1983 -0.2502 -0.1333
  483SOL    HW1 1448   0.054   2.328   1.350  1.2183  0.9452 -0.9618
  483SOL    HW2 1449   0.152   2.387   1.221 -0.5987 -2.2163 -1.1171
  484SOL     OW 1450   1.740   1.061   1.362 -0.2333  0.0448  0.1191
  484SOL    HW1 1451   1.781   0.967   1.354  1.2812  0.1274 -0.7899
  484SOL    HW2 1452   1.784   1.122   1.432  2.0267  1.1221 -1.2328
  485SOL     OW 1453   0.664   1.037   1.803 -0.0259  0.2460 -0.2930
  485SOL    HW1 1454   0.663   0.987   1.711 -0.1615 -1.1131 -0.6817
  485SOL    HW2 1455   0.760   1.075   1.815 -2.5357 -1.0243  0.4981
  486SOL     OW 1456   0.848   1.960   2.456  0.5364 -0.0088  0.0472
  486SOL    HW1 1457   0.912   1.914   2.523 -0.2911  1.2687 -1.0615
  486SOL    HW2 1458   0.831   2.059   2.453  1.8042 -2.1557  0.2676
  487SOL     OW 1459   1.848   1.629   0.939 -0.9179 -0.1871 -0.0875
  487SOL    HW1 1460   1.909   1.561   0.987  0.9170 -1.3116 -0.3477
  487SOL    HW2 1461   1.869   1.643   0.842 -2.3312 -4.2835  1.8519
  488SOL     OW 1462   2.955   0.870   2.256 -0.3131 -0.0272  0.2342
  488SOL    HW1 1463   2.952   0.769   2.230 -1.8796  0.5456 -0.0895
  488SOL    HW2 1464   2.984   0.888   2.353  2.2856  0.8369 -0.3454
  489SOL     OW 1465   2.755   0.215   1.315 -0.0980  0.2647  0.0301
  489SOL    HW1 1466   2.714   0.195   1.406  1.7892 -1.3921 -1.7729
  489SOL    HW2 1467   2.859   0.200   1.304  3.0616 -0.7740 -0.2516
  490SOL     OW 1468   1.453   2.939   2.823  0.2472 -0.6665 -0.2386
  490SOL    HW1 1469   1.501   2.846   2.811  3.2424 -1.9775 -0.6119
  490SOL    HW2 1470   1.395   2.965   2.738  0.2673 -0.5192 -0.2718
  491SOL     OW 1471   1.824   1.458   2.607  0.5251  0.1571 -0.2669
  491SOL    HW1 1472   1.800   1.423   2.703  1.4347 -0.7876 -0.2032
  491SOL    HW2 1473   1.918   1.497   2.597 -2.1858  1.0144 -1.0147
  492SOL     OW 1474   0.527   1.973   0.686  0.3478 -0.4440 -0.3215
  492SOL    HW1 1475   0.579   1.976   0.776  0.8968  2.0195  2.9768
  492SOL    HW2 1476   0.454   2.049   0.690 -0.1660 -0.9246  1.1833
  493SOL     OW 1477   0.386   1.400   2.052 -0.2528 -0.0282  0.6388
  493SOL    HW1 1478   0.297   1.446   2.026  0.8499  1.0866  0.9421
  493SOL    HW2 1479   0.382   1.345   2.143 -0.9009 -0.7377 -1.0478
  494SOL     OW 1480   2.710   2.696   0.162 -0.6494  0.5696  0.5511
  494SOL    HW1 1481   2.693   2.614   0.229 -0.6553 -0.9501  0.7627
  494SOL    HW2 1482   2.630   2.704   0.093  0.8410 -2.2974 -0.3139
  495SOL     OW 1483   2.747   2.669   2.719  0.6222 -0.6545 -0.6008
  495SOL    HW1 1484   2.674   2.594   2.713  0.0537 -0.0494 -0.3064
  495SOL    HW2 1485   2.784   2.699   2.628  0.0806 -0.1781 -0.4128
  496SOL     OW 1486   2.052   2.251   0.705 -0.1471 -0.3868 -0.0322
  496SOL    HW1 1487   2.088   2.280   0.798  1.1428 -0.6674  0.0818
  496SOL    HW2 1488   2.106   2.175   0.656 -0.0187  0.0152  2.3823
  497SOL     OW 1489   0.252   2.970   2.446  0.0646 -0.3234  0.5952
  497SOL    HW1 1490   0.212   3.050   2.497  0.4002 -0.7738 -0.6357
  497SOL    HW2 1491   0.295   2.997   2.354 -0.2647  1.7570  0.3553
  498SOL     OW 1492   1.224   1.406   1.214  0.5493 -0.1310  0.1553
  498SOL    HW1 1493   1.325   1.401   1.192 -1.4589  1.7833  0.5906
  498SOL    HW2 1494   1.204   1.467   1.295  0.7993  0.4609  0.3806
  499SOL     OW 1495   0.701   1.850   0.443  0.3364 -0.0010  0.2921
  499SOL    HW1 1496   0.763   1.771   0.460 -1.1694  1.8065  0.6169
  499SOL    HW2 1497   0.686   1.901   0.534  0.0916  0.7364  0.6224
  500SOL     OW 1498   1.448   2.877   1.686  0.3476  0.5790 -0.3977
  500SOL    HW1 1499   1.363   2.874   1.750  0.1230  0.9575  3.6066
  500SOL    HW2 1500   1.487   2.789   1.650  1.8894 -0.0813 -0.9190
  501SOL     OW 1501   0.812   1.120   2.284  0.0712 -0.1870 -0.1281
  501SOL    HW1 1502   0.731   1.064   2.266 -0.0573 -0.2278 -0.3396
  501SOL    HW2 1503   0.880   1.138   2.204  0.4077  0.5045 -1.5891
  502SOL     OW 1504   2.613   0.955   1.734  0.5236 -0.0178 -0.1253
  502SOL    HW1 1505   2.594   0.986   1.638  0.1362 -1.2585 -0.7362
  502SOL    HW2 1506   2.611   0.849   1.740  2.0815  1.1991  0.0773
  503SOL     OW 1507   1.291   0.110   0.665 -0.6272  0.5074  0.1598
  503SOL    HW1 1508   1.217   0.177   0.637 -0.7621 -0.5864 -3.4665
  503SOL    HW2 1509   1.379   0.155   0.701  2.0422  4.4062 -2.7069
  504SOL     OW 1510   3.016   2.334   1.470  0.1322  0.2252 -0.9117
  504SOL    HW1 1511   2.946   2.404   1.507  1.1117 -2.4333  3.2625
  504SOL    HW2 1512   3.048   2.264   1.539  2.8123 -0.3032  1.1490
  505SOL     OW 1513   2.293   1.167   1.473 -0.5143 -0.0035  0.8526
  505SOL    HW1 1514   2.307   1.174   1.371 -1.1938 -1.0479 -2.3196
  505SOL    HW2 1515   2.354   1.231   1.517 -1.8107 -1.0100 -0.9621
  506SOL     OW 1516   1.971   0.171   1.805  0.3427  0.3020 -0.2003
  506SOL    HW1 1517   2.046   0.117   1.848  1.7237  0.1976  1.7913
  506SOL    HW2 1518   1.949   0.258   1.851 -1.1007  0.6528 -0.0805
  507SOL     OW 1519   0.522   0.700   2.147  0.3940  0.2929  0.0403
  507SOL    HW1 1520   0.453   0.627   2.102 -1.5469 -4.2435 -0.4659
  507SOL    HW2 1521   0.615   0.663   2.172  0.5209 -1.0574  1.5116
  508SOL     OW 1522   0.254   1.639   0.840 -0.8894 -0.0178  0.4013
  508SOL    HW1 1523   0.357   1.655   0.824 -1.4095  0.9203  1.5957
  508SOL    HW2 1524   0.212   1.705   0.910  0.4499  1.7473  1.7526
  509SOL     OW 1525   1.229   1.255   2.340  0.7727  0.0522 -0.4427
  509SOL    HW1 1526   1.228   1.294   2.245  0.0489  2.1696  2.3919
  509SOL    HW2 1527   1.207   1.155   2.348 -0.4648 -5.1005  1.2443
  510SOL     OW 1528   1.268   2.000   2.112  0.3661  0.3553 -0.5703
  510SOL    HW1 1529   1.264   2.100   2.074  0.8386  0.8930 -2.5765
  510SOL    HW2 1530   1.175   1.967   2.142 -1.7105 -0.8841 -1.8519
  511SOL     OW 1531   3.050   2.779   1.313 -0.2986  0.6101  0.1415
  511SOL    HW1 1532   3.018   2.783   1.217  1.7827 -1.6850  0.2511
  511SOL    HW2 1533   2.972   2.781   1.377  2.2160  2.3389 -3.2953
  512SOL     OW 1534   2.391   0.450   1.353 -0.4889  0.3066 -0.5561
  512SOL    HW1 1535   2.286   0.435   1.349  2.7785 -1.5827  0.9619
  512SOL    HW2 1536   2.443   0.395   1.286 -1.7948  0.5631  0.3119
  513SOL     OW 1537   2.542   2.037   0.842  0.1573 -0.2520 -0.3940
  513SOL    HW1 1538   2.489   2.109   0.783 -2.7827  1.7002  2.1787
  513SOL    HW2 1539   2.609   1.987   0.786 -0.2108  1.7657  1.1607
  514SOL     OW 1540   0.599   2.750   0.473 -0.2651  0.3260  0.6772
  514SOL    HW1 1541   0.602   2.814   0.390 -0.6475  1.1034  0.5172
  514SOL    HW2 1542   0.650   2.793   0.553  1.0408 -0.1580 -0.9636
  515SOL     OW 1543   1.988   1.150   2.347  0.6901 -0.3780 -0.6470
  515SOL    HW1 1544   1.969   1.145   2.239 -1.8681 -0.0074  0.5132
  515SOL    HW2 1545   1.889   1.152   2.392 -0.5965 -3.9652 -1.3847
  516SOL     OW 1546   0.225   0.316   1.897 -0.5891  0.2783  0.3450
  516SOL    HW1 1547   0.290   0.301   1.814 -0.3245  1.5972 -0.6471
  516SOL    HW2 1548   0.169   0.233   1.916  1.6518  1.9756 -1.0601
  517SOL     OW 1549   0.449   0.003   1.179  0.3124 -0.5719  0.0854
  517SOL    HW1 1550   0.461   0.105   1.178  1.2794 -0.5933 -1.1507
  517SOL    HW2 1551   0.349  -0.014   1.156  2.4114  0.9654 -1.3212
  518SOL     OW 1552   2.245  -0.001   1.826  0.3445  0.4023  0.3028
  518SOL    HW1 1553   2.305   0.081   1.836  1.7562 -3.6640 -0.7404
  518SOL    HW2 1554   2.251  -0.050   1.736 -1.3969 -0.1038 -1.3607
  519SOL     OW 1555   2.342   2.202   2.572  0.3244  0.6203  0.3172
  519SOL    HW1 1556   2.275   2.162   2.640 -0.9114 -1.3913  0.4910
  519SOL    HW2 1557   2.326   2.305   2.548 -2.0090  2.1141 -1.2991
  520SOL     OW 1558   1.814   2.799   1.800 -0.0062  0.6473  0.5319
  520SOL    HW1 1559   1.718   2.788   1.834  0.1162 -1.9762  2.7154
  520SOL    HW2 1560   1.863   2.706   1.783  1.1867 -1.4664 -1.2068
  521SOL     OW 1561   0.586   3.094   2.125  0.2679  0.4369  1.1821
  521SOL    HW1 1562   0.486   3.066   2.129 -0.8053  0.1680  0.7033
  521SOL    HW2 1563   0.638   3.084   2.214  0.9521  0.8392 -1.5651
  522SOL     OW 1564   0.195   1.902   1.478 -0.0928  0.0386  0.1046
  522SOL    HW1 1565   0.275   1.948   1.526 -0.0001 -0.5320 -0.5450
  522SOL    HW2 1566   0.188   1.934   1.378  2.6400 -1.4590 -2.4591
  523SOL     OW 1567   2.236   3.007   1.553  0.0450  0.2648 -0.1509
  523SOL    HW1 1568   2.316   2.951   1.593  1.2700 -2.6025  1.4732
  523SOL    HW2 1569   2.177   2.945   1.488  0.7202  0.3474 -2.7343
  524SOL     OW 1570   0.155   2.799   2.843  0.0937  0.2105  0.4835
  524SOL    HW1 1571   0.083   2.873   2.857 -0.1987  1.5778 -0.2250
  524SOL    HW2 1572   0.247   2.850   2.847  1.9644  1.4337 -2.1789
  525SOL     OW 1573   2.159   2.031   0.447  0.1600  0.2470  0.5350
  525SOL    HW1 1574   2.168   1.976   0.536 -1.9522 -2.2751  0.9280
  525SOL    HW2 1575   2.165   1.966   0.368 -0.0976 -0.8774  2.1750
  526SOL     OW 1576   0.441   1.569   1.654 -0.4141  0.3692  0.5005
  526SOL    HW1 1577   0.473   1.591   1.751 -0.9071 -0.1596 -0.4751
  526SOL    HW2 1578   0.473   1.470   1.632 -0.4233 -0.9938  0.9433
  527SOL     OW 1579   1.056   2.921   1.218  0.4658  0.0683  0.2154
  527SOL    HW1 1580   1.140   2.861   1.222  0.5512 -0.1684  0.3704
  527SOL    HW2 1581   1.078   3.022   1.210 -1.8925 -1.3131 -1.6253
  528SOL     OW 1582   1.330   2.433   0.557 -0.6209 -0.2228  0.0420
  528SOL    HW1 1583   1.378   2.340   0.543  1.6562 -0.2566 -0.6116
  528SOL    HW2 1584   1.400   2.504   0.594 -1.3209  0.3968 -0.4429
  529SOL     OW 1585   1.938   1.738   0.676 -0.0721  0.4048 -0.0184
  529SOL    HW1 1586   1.865   1.765   0.604 -2.8333 -1.1055 -0.9264
  529SOL    HW2 1587   1.963   1.821   0.741  3.8273 -0.5688 -1.0398
  530SOL     OW 1588   0.312   2.619   0.291 -0.4369 -0.1268  0.3105
  530SOL    HW1 1589   0.310   2.709   0.342  1.4777  0.5785  0.1875
  530SOL    HW2 1590   0.302   2.539   0.363 -0.4806 -0.3849  2.0109
  531SOL     OW 1591   1.846   0.985   0.951 -0.3840  0.1335  0.5072
  531SOL    HW1 1592   1.885   1.067   0.901  0.8485 -1.0572  2.1035
  531SOL    HW2 1593   1.751   0.963   0.922 -0.1923  1.4974  2.8288
  532SOL     OW 1594   0.417   1.183   0.707  0.3916 -0.4238  0.2783
  532SOL    HW1 1595   0.481   1.190   0.624  2.9855  0.3714 -2.3642
  532SOL    HW2 1596   0.376   1.085   0.712 -1.0505 -1.6878  0.6204
  533SOL     OW 1597   1.730   0.009   2.592 -0.1622 -0.1302 -0.1834
  533SOL    HW1 1598   1.829  -0.008   2.617 -2.4151  0.5756  1.2582
  533SOL    HW2 1599   1.694   0.088   2.648  0.8965 -1.3761 -1.6661
  534SOL     OW 1600   0.370   0.212   1.636  0.0682 -0.7710  0.6718
  534SOL    HW1 1601   0.459   0.213   1.582  2.2970  0.9123 -0.0357
  534SOL    HW2 1602   0.311   0.300   1.622 -1.3849  1.3854 -1.4442
  535SOL     OW 1603   1.960   0.372   0.138  0.2931 -0.4465 -0.3376
  535SOL    HW1 1604   1.954   0.464   0.191 -0.4716 -1.0961 -0.2071
  535SOL    HW2 1605   1.956   0.291   0.203 -0.4163  2.1194 -0.2797
  536SOL     OW 1606   1.415   2.559   0.939 -0.3043  0.2546 -0.2711
  536SOL    HW1 1607   1.401   2.524   1.036  0.1004 -0.1680 -0.3517
  536SOL    HW2 1608   1.325   2.599   0.896 -0.8277 -2.6016  0.0555
  537SOL     OW 1609   0.790   0.233   2.384 -0.3541  0.7327  0.8297
  537SOL    HW1 1610   0.802   0.314   2.322  0.6157  0.8545 -0.9517
  537SOL    HW2 1611   0.708   0.172   2.364 -0.0001 -3.4580  1.3351
  538SOL     OW 1612   1.651   2.373   1.548 -0.2232 -0.0060  0.3068
  538SOL    HW1 1613   1.629   2.273   1.537 -1.2300  0.0967  1.1137
  538SOL    HW2 1614   1.719   2.406   1.480  0.4614  4.0756  1.3842
  539SOL     OW 1615   0.214   1.607   2.733 -0.0708  0.0025  0.0100
  539SOL    HW1 1616   0.145   1.634   2.657 -0.5851  0.8551 -1.5333
  539SOL    HW2 1617   0.218   1.677   2.810 -0.1516 -0.4024 -0.3408
  540SOL     OW 1618   2.693   1.704   1.922 -0.3777  0.6251  0.2237
  540SOL    HW1 1619   2.676   1.642   2.002  0.5802 -2.1362 -0.4354
  540SOL    HW2 1620   2.624   1.778   1.915 -0.4409  4.5006 -1.2748
  541SOL     OW 1621   0.476   2.204   0.017 -0.4912 -0.4219  0.3535
  541SOL    HW1 1622   0.505   2.207   0.117  0.2686  0.8046  0.3139
  541SOL    HW2 1623   0.375   2.189   0.005  3.1498 -1.1425 -3.0691
  542SOL     OW 1624   2.262   2.582   0.447 -0.0039  0.0745 -0.1959
  542SOL    HW1 1625   2.240   2.682   0.432 -0.5289 -0.3067  3.4842
  542SOL    HW2 1626   2.184   2.515   0.433  0.5909  0.1998  1.4499
  543SOL     OW 1627   1.084   1.847   1.549  0.1102  0.5538  0.1209
  543SOL    HW1 1628   1.069   1.899   1.639 -0.2504  0.1474 -0.9177
  543SOL    HW2 1629   1.033   1.888   1.469  0.3843 -0.9101  0.6906
  544SOL     OW 1630   1.003   0.418   0.167  0.5816 -0.1837  0.2157
  544SOL    HW1 1631   1.010   0.319   0.204 -0.0825 -0.8499 -2.0994
  544SOL    HW2 1632   0.966   0.415   0.066 -0.8184 -0.5032  1.2026
  545SOL     OW 1633   1.106   1.726   0.801 -0.5720 -0.1260  0.0255
  545SOL    HW1 1634   1.206   1.753   0.780  2.6624 -1.0188 -1.9670
  545SOL    HW2 1635   1.097   1.639   0.856 -0.6239  0.8539  3.4823
  546SOL     OW 1636   2.653   1.474   3.024 -0.5161 -0.6555 -0.6091
  546SOL    HW1 1637   2.621   1.559   2.978 -0.1319  0.7481 -2.6307
  546SOL    HW2 1638   2.570   1.425   3.061 -0.0097  0.1360  0.7180
  547SOL     OW 1639   0.593   3.037   2.674 -0.0201  0.2262  0.5883
  547SOL    HW1 1640   0.690   3.004   2.638  4.0935 -1.8863 -0.5095
  547SOL    HW2 1641   0.540   2.958   2.720 -0.5312 -1.7533 -1.6434
  548SOL     OW 1642   2.089   0.896   2.969 -0.6704  0.7202 -0.5690
  548SOL    HW1 1643   1.999   0.857   2.989  2.2977  2.3786 -2.5280
  548SOL    HW2 1644   2.099   0.997   3.000  0.6398 -0.5418 -0.4681
  549SOL     OW 1645   0.700   0.512   0.212 -0.0350  0.0475 -0.6073
  549SOL    HW1 1646   0.668   0.543   0.117  0.0198  1.9234 -1.6273
  549SOL    HW2 1647   0.759   0.592   0.261  1.0502  3.8436  1.5075
  550SOL     OW 1648   2.568   2.825   2.895  0.5043  0.3780  0.6960
  550SOL    HW1 1649   2.535   2.753   2.967  0.3801 -3.2303 -1.7242
  550SOL    HW2 1650   2.619   2.773   2.824  0.8287  0.0213  3.2071
  551SOL     OW 1651   0.257   0.878   0.227  0.6506 -0.2973  0.3550
  551SOL    HW1 1652   0.357   0.851   0.216  0.3777  0.1008  2.1400
  551SOL    HW2 1653   0.232   0.880   0.328 -3.3370 -0.5790 -1.1987
  552SOL     OW 1654   0.670   2.943   1.892 -0.9994 -0.2837  0.1183
  552SOL    HW1 1655   0.649   2.992   1.979 -2.4170  2.5329  1.8980
  552SOL    HW2 1656   0.768   2.958   1.862 -1.3393 -0.7201 -0.8275
  553SOL     OW 1657   2.972   2.516   0.360 -0.4950 -0.3640  0.0917
  553SOL    HW1 1658   2.928   2.426   0.354 -0.0418 -2.9949  0.8533
  553SOL    HW2 1659   2.915   2.588   0.410 -0.7064 -0.3161 -0.4797
  554SOL     OW 1660   2.159   0.384   0.570 -0.6025  0.3236  0.2001
  554SOL    HW1 1661   2.224   0.389   0.491 -2.0795 -1.0477  0.1902
  554SOL    HW2 1662   2.130   0.288   0.589  0.7065  0.3552 -1.7208
  555SOL     OW 1663   0.388   2.727   2.521  0.1152 -0.1035 -0.0146
  555SOL    HW1 1664   0.330   2.811   2.500 -2.4489  1.8354 -1.5468
  555SOL    HW2 1665   0.439   2.693   2.441 -2.0591  0.3430 -0.1066
  556SOL     OW 1666   0.841   2.403   1.504  0.0130 -0.3990  0.1479
  556SOL    HW1 1667   0.879   2.492   1.547  1.1493  0.6070  3.8865
  556SOL    HW2 1668   0.915   2.351   1.454 -2.2275 -3.0113  0.9798
  557SOL     OW 1669   0.097   2.100   0.222  0.7087  0.2721  0.3097
  557SOL    HW1 1670   0.004   2.081   0.186  1.1223  2.4753  0.9720
  557SOL    HW2 1671   0.159   2.116   0.140 -0.7327 -2.9127  0.1691
  558SOL     OW 1672   2.811   2.283   0.331 -0.3835  0.0129  0.7188
  558SOL    HW1 1673   2.722   2.327   0.366 -0.3126 -0.0075 -2.3595
  558SOL    HW2 1674   2.799   2.194   0.285  0.6707  1.8938 -1.0177
  559SOL     OW 1675   0.371   2.283   1.400 -0.0087 -0.4767  0.5940
  559SOL    HW1 1676   0.282   2.272   1.353 -0.7605  1.8413 -0.3500
  559SOL    HW2 1677   0.437   2.208   1.368  1.7740  1.7305  0.3280
  560SOL     OW 1678   2.109   1.170   3.062  0.4197  0.7185  0.2752
  560SOL    HW1 1679   2.117   1.177   3.166  0.0286  1.1818  0.2859
  560SOL    HW2 1680   2.148   1.249   3.009  0.3609  1.8872  1.1428
  561SOL     OW 1681   3.061   1.853   0.038 -0.3046  0.0738 -0.0988
  561SOL    HW1 1682   3.042   1.834   0.136  1.9046  2.3661 -0.3924
  561SOL    HW2 1683   3.020   1.937   0.002  0.1741 -1.4016  0.6494
  562SOL     OW 1684   0.962   2.222   2.330  0.0853  0.1728  0.1353
  562SOL    HW1 1685   0.910   2.249   2.416 -4.0415 -2.5059  1.2930
  562SOL    HW2 1686   1.060   2.251   2.329 -2.4956 -4.6424 -1.7580
  563SOL     OW 1687   0.711   2.585   2.618 -0.3452  0.2061  0.0419
  563SOL    HW1 1688   0.786   2.510   2.626  0.2678  0.2825  1.6767
  563SOL    HW2 1689   0.692   2.631   2.708 -1.5033 -1.1174 -1.0256
  564SOL     OW 1690   2.829   1.322   2.902 -0.6903  0.2547  0.3215
  564SOL    HW1 1691   2.758   1.366   2.964 -0.9706 -1.3385 -2.6298
  564SOL    HW2 1692   2.884   1.403   2.864 -1.6836  1.4985 -1.2546
  565SOL     OW 1693   2.534   2.016   2.639  0.2093 -0.2481  0.0671
  565SOL    HW1 1694   2.473   2.100   2.621 -2.3116  1.5944 -1.3091
  565SOL    HW2 1695   2.618   2.037   2.695  0.1579 -1.5659  2.3811
  566SOL     OW 1696   2.086   2.836   1.429 -0.0610 -0.3751  0.1194
  566SOL    HW1 1697   2.024   2.758   1.453  1.5666 -2.5689  0.8236
  566SOL    HW2 1698   2.051   2.890   1.345 -1.1399 -0.9307  0.0328
  567SOL     OW 1699   2.419   3.076   2.373  0.0406 -0.3702  0.5830
  567SOL    HW1 1700   2.320   3.079   2.406  1.4815 -6.1255 -2.4277
  567SOL    HW2 1701   2.430   3.073   2.271  1.1453 -0.7324 -0.5893
  568SOL     OW 1702   1.523   1.745   0.221  0.7526 -0.1411 -0.4773
  568SOL    HW1 1703   1.474   1.835   0.226 -1.3992 -1.1533 -2.7043
  568SOL    HW2 1704   1.620   1.762   0.201 -1.1471 -0.3482 -0.4045
  569SOL     OW 1705   0.299   0.633   0.852 -0.2613 -0.1653 -0.1970
  569SOL    HW1 1706   0.358   0.582   0.786 -1.6119  1.2360 -0.1736
  569SOL    HW2 1707   0.198   0.609   0.839  1.4640  1.6251  3.2261
  570SOL     OW 1708   0.612   0.864   2.928  0.2554 -0.1995  0.3602
  570SOL    HW1 1709   0.693   0.866   2.868  1.2486  1.8440 -0.9961
  570SOL    HW2 1710   0.617   0.932   3.003  0.4864 -0.5063 -1.5844
  571SOL     OW 1711   0.793   3.073   1.029 -0.3128 -0.7094  0.5997
  571SOL    HW1 1712   0.842   3.123   0.946  3.2490  2.2783 -0.1347
  571SOL    HW2 1713   0.786   2.971   1.016 -0.3290 -1.0954  1.4622
  572SOL     OW 1714   1.630   2.583   1.329  0.2493  0.0146  0.1271
  572SOL    HW1 1715   1.553   2.535   1.272  1.0374 -0.6294  3.0030
  572SOL    HW2 1716   1.626   2.685   1.320  0.6991 -1.4377 -1.7779
  573SOL     OW 1717   2.910   0.506   2.001 -0.0611 -0.4917 -0.0026
  573SOL    HW1 1718   2.819   0.463   2.007  2.1832  0.3264 -1.2976
  573SOL    HW2 1719   2.948   0.512   1.905  2.7415 -0.3772 -2.1257
  574SOL     OW 1720   0.151   1.771   1.082 -0.5065  0.5580 -0.0853
  574SOL    HW1 1721   0.120   1.871   1.088 -0.9663  3.4027  2.6368
  574SOL    HW2 1722   0.090   1.704   1.135 -1.8478  1.4053  1.7625
  575SOL     OW 1723   0.835   2.175   0.926 -0.1132  0.1891 -0.1563
  575SOL    HW1 1724   0.801   2.229   1.014 -3.1939  1.5257  0.6431
  575SOL    HW2 1725   0.875   2.245   0.858 -0.8961  2.4929  1.8777
  576SOL     OW 1726   2.874   3.009   1.682 -0.1673 -0.5181  0.0222
  576SOL    HW1 1727   2.777   3.003   1.712  0.9821  1.3581 -0.3951
  576SOL    HW2 1728   2.902   3.097   1.636 -1.6176 -0.3566 -2.8371
  577SOL     OW 1729   2.486   1.207   0.004  0.2140 -0.2419 -0.0240
  577SOL    HW1 1730   2.496   1.145  -0.080  2.0438  0.8216 -0.2123
  577SOL    HW2 1731   2.572   1.215   0.064  0.1924 -0.0869 -3.1032
  578SOL     OW 1732   1.433   2.717   2.433  0.7542 -0.0582  0.3930
  578SOL    HW1 1733   1.332   2.736   2.429  0.3092  1.3347 -1.7731
  578SOL    HW2 1734   1.491   2.801   2.462  2.5735 -2.2668 -2.4646
  579SOL     OW 1735   0.053   2.499   0.163 -0.2049 -0.0223  0.2497
  579SOL    HW1 1736   0.001   2.486   0.252  2.2044  0.4872  1.0528
  579SOL    HW2 1737   0.150   2.535   0.181  1.2786 -0.5277 -1.2615
  580SOL     OW 1738   0.959   2.682   0.380 -0.6174 -0.5212  0.0219
  580SOL    HW1 1739   1.030   2.670   0.306  1.6118  2.8768 -2.4289
  580SOL    HW2 1740   0.878   2.616   0.373  1.5294  2.6821 -1.7224
  581SOL     OW 1741   1.232   2.666   1.459 -0.6438  0.1806 -0.2005
  581SOL    HW1 1742   1.277   2.579   1.498  0.1500  2.6144  0.2025
  581SOL    HW2 1743   1.300   2.730   1.416  2.5363 -3.5594 -1.8717
  582SOL     OW 1744   1.514   0.072   1.850 -0.0422  0.4231  0.0063
  582SOL    HW1 1745   1.555   0.143   1.916  0.3720  0.3488  0.6972
  582SOL    HW2 1746   1.588   0.045   1.779  0.9901  1.5098 -0.8118
  583SOL     OW 1747   2.455   3.070   0.554 -0.3572 -0.2992 -0.1604
  583SOL    HW1 1748   2.509   2.998   0.506  1.1973  1.3055 -1.7233
  583SOL    HW2 1749   2.376   3.027   0.598  1.5081  2.1498 -1.8740
  584SOL     OW 1750   1.545   1.061   2.153  0.0483  0.7003  0.6194
  584SOL    HW1 1751   1.622   1.132   2.148 -2.1942  1.7195 -0.1844
  584SOL    HW2 1752   1.578   0.977   2.199 -1.2279 -0.2396 -0.9208
  585SOL     OW 1753   2.154   2.671   2.930  0.4357  0.1560 -0.0341
  585SOL    HW1 1754   2.158   2.582   2.884 -2.2775  0.2015  0.9518
  585SOL    HW2 1755   2.055   2.690   2.964  0.5209  1.9882 -0.1442
  586SOL     OW 1756   2.825   0.366   1.623 -0.0700 -0.3638  0.1274
  586SOL    HW1 1757   2.802   0.465   1.663 -0.5000  3.5300  0.9729
  586SOL    HW2 1758   2.745   0.337   1.563  1.1538 -2.1605  0.1382
  587SOL     OW 1759   2.082   1.551   2.637  0.1945 -0.4629  0.7727
  587SOL    HW1 1760   2.106   1.466   2.578  2.6242 -0.4002 -1.6420
  587SOL    HW2 1761   2.084   1.546   2.740 -0.6982 -0.6424  0.2221
  588SOL     OW 1762   0.456   2.653   2.244 -0.3312 -0.0675 -0.3551
  588SOL    HW1 1763   0.350   2.648   2.247 -0.6540 -2.0037 -1.2155
  588SOL    HW2 1764   0.494   2.571   2.291 -0.2994 -1.5678 -0.2314
  589SOL     OW 1765   2.140   1.342   2.472 -0.2423 -0.2253 -0.1249
  589SOL    HW1 1766   2.087   1.263   2.431 -1.2993 -0.7747  1.1201
  589SOL    HW2 1767   2.244   1.332   2.476  1.7064  3.1125 -1.7731
  590SOL     OW 1768   2.343   1.697   2.042 -0.1079  0.3064  0.1036
  590SOL    HW1 1769   2.389   1.608   2.046 -0.1698  2.7608  0.1662
  590SOL    HW2 1770   2.356   1.744   2.132 -3.4942  2.3600 -2.1532
  591SOL     OW 1771   1.279   2.422   0.215 -0.2243 -0.0626 -0.4288
  591SOL    HW1 1772   1.314   2.332   0.175 -2.6428 -3.8209 -0.2619
  591SOL    HW2 1773   1.283   2.428   0.316  0.0861 -0.0640 -2.1970
  592SOL     OW 1774   1.780   2.276   0.733 -0.3632  0.4403 -0.0643
  592SOL    HW1 1775   1.780   2.359   0.668 -0.8511  0.1206  0.2471
  592SOL    HW2 1776   1.864   2.219   0.723 -1.0293 -0.5133 -0.8381
  593SOL     OW 1777   0.704   0.233   0.224  0.0987  0.2516 -0.8672
  593SOL    HW1 1778   0.749   0.216   0.131  1.2952 -1.2103  1.0164
  593SOL    HW2 1779   0.674   0.331   0.239  1.2109 -1.3997  3.3028
  594SOL     OW 1780   1.026   1.835   2.677 -0.2281 -0.4763  0.1227
  594SOL    HW1 1781   1.097   1.761   2.664 -0.9896  2.0479  1.4866
  594SOL    HW2 1782   1.055   1.903   2.754 -0.5937 -2.6719  0.8028
  595SOL     OW 1783   1.537   0.022   1.076  0.4964  0.5800  0.2319
  595SOL    HW1 1784   1.606  -0.043   1.039 -0.6343  2.4014 -0.3272
  595SOL    HW2 1785   1.449   0.014   1.022  0.4733 -0.1231  0.4952
  596SOL     OW 1786   0.038   1.479   2.259  0.0450  1.2004  0.2076
  596SOL    HW1 1787   0.048   1.377   2.288  2.5570  0.0118  0.7864
  596SOL    HW2 1788   0.045   1.542   2.344 -0.1706 -1.2827  2.0674
  597SOL     OW 1789   1.936   2.560   1.723 -0.1064  0.2733  0.1662
  597SOL    HW1 1790   1.922   2.545   1.622  0.2149  4.5208 -0.3069
  597SOL    HW2 1791   2.008   2.507   1.777 -1.1983  1.5612  0.8852
  598SOL     OW 1792   2.553   2.941   1.219  0.0111 -0.5719  0.1225
  598SOL    HW1 1793   2.620   2.978   1.291  1.7986 -0.1983 -1.4167
  598SOL    HW2 1794   2.600   2.920   1.131  0.8760 -0.6923  1.3587
  599SOL     OW 1795   2.875   0.331   2.496 -0.0539  0.1960 -0.3628
  599SOL    HW1 1796   2.976   0.354   2.486 -0.0140 -1.7597  3.1968
  599SOL    HW2 1797   2.804   0.400   2.459 -0.7846 -1.7730 -2.6466
  600SOL     OW 1798   2.795   1.121   2.741 -0.1045  0.3099 -0.4394
  600SOL    HW1 1799   2.774   1.043   2.803  0.8453  0.6041 -0.9139
  600SOL    HW2 1800   2.793   1.210   2.799  0.4796 -0.8626  4.0847
  601SOL     OW 1801   3.014   1.321   1.993  0.4963 -0.2164  0.4170
  601SOL    HW1 1802   2.945   1.360   1.926  2.0792 -1.2487  2.9358
  601SOL    HW2 1803   3.110   1.347   1.970  1.0324 -0.4364 -0.8713
  602SOL     OW 1804   1.424   1.748   2.293  0.3820  0.1877 -0.3462
  602SOL    HW1 1805   1.336   1.690   2.306 -2.3261 -1.2049  1.6199
  602SOL    HW2 1806   1.508   1.711   2.344  1.4592  0.0543 -2.1006
  603SOL     OW 1807   0.603   1.217   2.777  0.1738 -0.1386  0.5995
  603SOL    HW1 1808   0.518   1.181   2.730  1.6183 -1.3206 -0.7168
  603SOL    HW2 1809   0.677   1.152   2.751  0.9409 -1.9785  3.5303
  604SOL     OW 1810   2.386   1.005   0.159  0.3051  0.1170 -0.0788
  604SOL    HW1 1811   2.407   1.085   0.101  1.2534 -0.7763  1.2603
  604SOL    HW2 1812   2.387   0.913   0.109  2.3243  2.9059  0.5317
  605SOL     OW 1813   2.526   1.135   1.934 -0.3918 -0.3427 -0.2417
  605SOL    HW1 1814   2.554   1.043   1.890 -0.0269 -3.1464 -2.6218
  605SOL    HW2 1815   2.600   1.174   1.999 -1.8321 -0.6601 -0.0617
  606SOL     OW 1816   1.543   2.497   2.565  0.4271 -0.6691 -0.1331
  606SOL    HW1 1817   1.467   2.567   2.538 -1.1248 -1.3339  1.0624
  606SOL    HW2 1818   1.523   2.396   2.548  1.5505 -1.5004  1.0447
  607SOL     OW 1819   1.326   1.583   0.335  0.0908 -0.3854 -0.1019
  607SOL    HW1 1820   1.256   1.648   0.365  0.3307 -2.7109 -4.1016
  607SOL    HW2 1821   1.410   1.628   0.299 -0.4927  0.0809 -1.2539
  608SOL     OW 1822   1.439   2.811   0.398  0.2866 -0.1117  0.2859
  608SOL    HW1 1823   1.492   2.869   0.332  2.3793 -1.7124  0.8390
  608SOL    HW2 1824   1.356   2.859   0.429  0.3039 -0.3139 -1.9564
  609SOL     OW 1825   1.275   1.330   0.260 -0.2422 -0.0139  0.2599
  609SOL    HW1 1826   1.295   1.424   0.307 -0.5111  0.6122  1.0095
  609SOL    HW2 1827   1.226   1.333   0.173  2.9440 -0.5093 -1.0594
  610SOL     OW 1828   2.942   1.160   2.240  0.1298 -0.2090 -0.4911
  610SOL    HW1 1829   2.951   1.062   2.206  0.5414 -0.6314  0.1930
  610SOL    HW2 1830   2.955   1.233   2.167 -2.1021 -0.4272 -1.8094
  611SOL     OW 1831   2.531   0.286   1.160 -0.2272  0.3310  0.2206
  611SOL    HW1 1832   2.456   0.215   1.175 -0.8732  1.0053 -0.4696
  611SOL    HW2 1833   2.619   0.267   1.213 -1.7413 -1.3374  0.6388
  612SOL     OW 1834   0.762   2.259   1.164  0.0387  0.0125  0.3615
  612SOL    HW1 1835   0.702   2.183   1.192 -0.6609  0.7155  0.0531
  612SOL    HW2 1836   0.700   2.348   1.156 -2.6760 -0.9142 -1.7174
  613SOL     OW 1837   0.819   1.393   2.406 -0.5505 -0.3918 -0.3382
  613SOL    HW1 1838   0.784   1.460   2.336 -0.9945 -0.9005 -1.4193
  613SOL    HW2 1839   0.811   1.298   2.368  0.1815 -0.8821 -1.7317
  614SOL     OW 1840   1.557   1.699   1.967 -0.1045 -0.3848  0.2170
  614SOL    HW1 1841   1.529   1.777   1.907  1.9766 -1.9475  1.0747
  614SOL    HW2 1842   1.594   1.736   2.056  0.1091 -1.4019  0.5272
  615SOL     OW 1843   0.816   1.353   1.720 -0.1838  0.4754  0.4886
  615SOL    HW1 1844   0.729   1.329   1.666 -2.2787  0.4961 -0.8332
  615SOL    HW2 1845   0.878   1.416   1.672  2.3997  0.5705  1.7502
  616SOL     OW 1846   1.054   1.608   2.142  0.4063  0.6119 -0.3094
  616SOL    HW1 1847   0.956   1.590   2.126  2.7262 -1.4512  2.3993
  616SOL    HW2 1848   1.109   1.629   2.056 -0.0156  1.5881  1.8933
  617SOL     OW 1849   2.959   1.570   1.570 -0.1321  0.3675 -0.9230
  617SOL    HW1 1850   2.922   1.523   1.657  2.4562  1.9348  0.8950
  617SOL    HW2 1851   2.995   1.501   1.496  1.1417  0.9355  2.6215
  618SOL     OW 1852   1.901   2.022   1.429  0.6691  0.9916 -0.2875
  618SOL    HW1 1853   1.956   2.021   1.346  0.4717 -0.1532  0.5348
  618SOL    HW2 1854   1.917   1.940   1.488 -0.4647  0.0835 -0.6760
  619SOL     OW 1855   1.746   0.506   2.419 -0.4211 -0.2355 -0.2980
  619SOL    HW1 1856   1.680   0.546   2.349  1.4589 -2.4985 -0.0358
  619SOL    HW2 1857   1.747   0.402   2.428 -1.9840 -0.2246 -0.4502
  620SOL     OW 1858   2.213   2.977   0.644 -0.0972  0.1512 -0.9790
  620SOL    HW1 1859   2.159   3.062   0.680 -1.1757  1.6593  2.3007
  620SOL    HW2 1860   2.239   2.914   0.720 -0.9121  1.7978 -2.9671
  621SOL     OW 1861   2.122   1.859   1.316  0.1289 -0.2202 -0.2200
  621SOL    HW1 1862   2.134   1.864   1.420  1.0546  1.5155  0.6658
  621SOL    HW2 1863   2.093   1.770   1.280  0.8583  3.7650 -0.6671
  622SOL     OW 1864   2.240   0.886   1.787 -0.6085 -0.2674 -0.2277
  622SOL    HW1 1865   2.341   0.903   1.765  1.1826  0.9363 -1.0755
  622SOL    HW2 1866   2.222   0.791   1.827 -2.1258 -0.2932  2.6362
  623SOL     OW 1867   1.358   0.808   2.625  0.0969  0.0909 -0.4917
  623SOL    HW1 1868   1.285   0.769   2.692 -2.5133 -1.6310  0.3325
  623SOL    HW2 1869   1.311   0.866   2.551 -0.8945  0.0807  0.2087
  624SOL     OW 1870   0.580   0.636   3.076 -0.6710  0.0712  0.1482
  624SOL    HW1 1871   0.579   0.705   2.994 -0.1314 -2.5399  1.3367
  624SOL    HW2 1872   0.555   0.677   3.168  1.8783  0.2870  1.1198
  625SOL     OW 1873   2.827   1.754   0.960 -0.4456  0.0246 -0.0474
  625SOL    HW1 1874   2.727   1.736   0.989 -0.3526  1.3221 -2.9273
  625SOL    HW2 1875   2.883   1.779   1.042 -3.3098  0.6008  0.7365
  626SOL     OW 1876   0.607   2.683   1.860 -0.4463 -0.1927  0.1747
  626SOL    HW1 1877   0.639   2.782   1.880  0.1613 -0.4388  0.7161
  626SOL    HW2 1878   0.503   2.670   1.863  0.3097 -0.4478  1.0870
  627SOL     OW 1879   0.719   0.985   1.546 -0.3732 -0.2552  0.9615
  627SOL    HW1 1880   0.729   0.914   1.471 -0.1449  1.9255  2.3531
  627SOL    HW2 1881   0.786   1.064   1.548 -2.2505  0.0873 -0.9978
  628SOL     OW 1882   2.395   0.167   0.727  0.3458 -0.4761 -0.1001
  628SOL    HW1 1883   2.426   0.098   0.656 -2.4291  1.3584 -1.3592
  628SOL    HW2 1884   2.294   0.159   0.759 -4.3090  4.3364  0.3631
  629SOL     OW 1885   1.955   0.891   2.002  0.4537 -0.0801  0.5139
  629SOL    HW1 1886   2.048   0.884   1.956 -0.0235 -2.5865 -0.0020
  629SOL    HW2 1887   1.926   0.990   2.030 -0.6493  0.1653  3.1554
  630SOL     OW 1888   2.832   2.212   0.815 -0.3371  0.0041 -0.8933
  630SOL    HW1 1889   2.752   2.225   0.878  1.6992  0.7137 -2.0173
  630SOL    HW2 1890   2.822   2.122   0.769 -4.1827 -0.3202  0.4941
  631SOL     OW 1891   2.932   0.138   2.115 -0.0998  0.1322  0.4909
  631SOL    HW1 1892   3.014   0.180   2.171 -0.0921  0.2749 -0.0076
  631SOL    HW2 1893   2.963   0.116   2.019  0.6797 -1.7939 -1.2291
  632SOL     OW 1894   2.424   2.520   0.670 -0.3372  0.0776 -0.5587
  632SOL    HW1 1895   2.499   2.581   0.706  3.4466 -1.2552  0.3987
  632SOL    HW2 1896   2.356   2.565   0.603 -0.7678  2.2277  1.3550
  633SOL     OW 1897   1.475   1.269   2.515 -0.1304  0.6104  0.0979
  633SOL    HW1 1898   1.491   1.361   2.559 -0.2572  0.5147  1.0175
  633SOL    HW2 1899   1.395   1.260   2.452 -0.3112 -0.8031 -0.9271
  634SOL     OW 1900   0.659   1.966   0.917 -0.7746  0.3352 -0.4727
  634SOL    HW1 1901   0.578   1.986   0.979 -0.7403  3.7512  0.0018
  634SOL    HW2 1902   0.729   2.043   0.919 -0.2083 -1.0505 -0.3554
  635SOL     OW 1903   3.089   2.326   3.054  0.2214 -0.0953  0.1951
  635SOL    HW1 1904   3.030   2.360   2.976  0.2945 -0.4620 -3.9675
  635SOL    HW2 1905   3.117   2.406   3.118 -1.6095  2.4146  0.5446
  636SOL     OW 1906   2.278   2.716   2.083  0.1147 -0.1983 -0.0990
  636SOL    HW1 1907   2.272   2.822   2.094 -0.8637  3.8989 -1.7068
  636SOL    HW2 1908   2.245   2.672   2.169  0.1263  1.0172 -1.4092
  637SOL     OW 1909   2.590   0.736   2.012 -0.2937 -0.2227 -0.2303
  637SOL    HW1 1910   2.551   0.764   1.917 -2.7939  1.6256 -1.8458
  637SOL    HW2 1911   2.630   0.816   2.064 -1.0794  0.8803 -0.5913
  638SOL     OW 1912   2.394   1.810   1.265 -0.1909  0.1792  0.6716
  638SOL    HW1 1913   2.290   1.833   1.276 -1.2690 -0.4189  0.6546
  638SOL    HW2 1914   2.439   1.756   1.342 -0.7915 -0.2340 -1.8803
  639SOL     OW 1915   1.317   2.191   1.707  0.1021  0.5998  0.1354
  639SOL    HW1 1916   1.335   2.147   1.614 -1.1371 -0.3114  0.6796
  639SOL    HW2 1917   1.218   2.176   1.730  0.4276  0.7765 -0.7593
  640SOL     OW 1918   0.213   1.162   1.554 -0.6106  0.4956  0.0196
  640SOL    HW1 1919   0.185   1.202   1.647  0.3848 -0.9408  0.4856
  640SOL    HW2 1920   0.308   1.124   1.562 -0.8031  3.3890 -1.0217
  641SOL     OW 1921   2.039   0.125   1.548 -0.0213 -0.6729  0.4636
  641SOL    HW1 1922   2.041   0.170   1.641  3.1523  0.3064 -1.9322
  641SOL    HW2 1923   2.068   0.024   1.547  1.2433 -1.2922 -1.1871
  642SOL     OW 1924   1.950   0.117   0.298  0.0708 -0.2291  0.1371
  642SOL    HW1 1925   2.037   0.110   0.355 -1.5440  3.8566 -1.1690
  642SOL    HW2 1926   1.861   0.123   0.352  2.1312 -1.7849 -2.4277
  643SOL     OW 1927   2.883   1.860   2.076 -0.0804  0.0680 -0.0508
  643SOL    HW1 1928   2.845   1.772   2.031 -1.6812 -0.2304  1.4425
  643SOL    HW2 1929   2.850   1.943   2.024 -1.6367 -3.3413 -0.8654
  644SOL     OW 1930   2.267   2.367   1.204 -0.0348 -0.5060 -0.1092
  644SOL    HW1 1931   2.322   2.293   1.156  2.3771 -0.1445 -1.7269
  644SOL    HW2 1932   2.218   2.324   1.288 -2.9869  0.1042  1.6401
  645SOL     OW 1933   0.641   0.863   1.256  0.0125  0.0687 -0.6043
  645SOL    HW1 1934   0.565   0.925   1.290 -1.0103 -2.0549 -1.9385
  645SOL    HW2 1935   0.660   0.884   1.153  0.2226 -0.3509 -1.9115
  646SOL     OW 1936   1.432   1.934   1.893 -0.1658  0.3923 -0.4609
  646SOL    HW1 1937   1.515   1.998   1.876  1.7023 -1.4401 -0.0964
  646SOL    HW2 1938   1.381   1.953   1.979  0.1785  2.2721 -1.6549
  647SOL     OW 1939   0.816   1.072   0.648 -0.2016 -0.2436 -0.0242
  647SOL    HW1 1940   0.891   1.069   0.717 -0.4201 -0.2105  0.0960
  647SOL    HW2 1941   0.757   0.987   0.637 -0.2044 -2.9746  1.6913
  648SOL     OW 1942   0.128   0.186   0.228  0.1411  0.0578  0.1236
  648SOL    HW1 1943   0.170   0.122   0.158  0.4667 -1.7280 -2.0213
  648SOL    HW2 1944   0.113   0.284   0.190  3.1876  0.6341  1.9855
  649SOL     OW 1945   3.056   0.239   0.886  0.1202  0.3674  0.1143
  649SOL    HW1 1946   3.154   0.234   0.855  1.1426 -0.5266  0.3763
  649SOL    HW2 1947   3.032   0.310   0.957  0.0292 -0.5723  1.0102
  650SOL     OW 1948   2.713   0.649   1.446  0.0152 -0.2013  0.3718
  650SOL    HW1 1949   2.611   0.652   1.477  0.9539  2.2933  0.1800
  650SOL    HW2 1950   2.744   0.727   1.381  1.7811  1.2586 -0.2591
  651SOL     OW 1951   0.938   1.557   1.591 -0.0107 -0.2562  0.2322
  651SOL    HW1 1952   0.975   1.651   1.622  1.6293 -0.9415  0.4874
  651SOL    HW2 1953   0.984   1.512   1.514 -0.0838 -0.1896  1.6106
  652SOL     OW 1954   2.271   2.456   2.527 -0.2831  0.8809 -0.2794
  652SOL    HW1 1955   2.177   2.453   2.577 -1.1708 -0.6846 -1.8367
  652SOL    HW2 1956   2.269   2.533   2.459 -1.7761 -2.5798  0.3266
  653SOL     OW 1957   2.698   1.196   0.181  0.4959  0.3436  0.1452
  653SOL    HW1 1958   2.740   1.274   0.238  2.0529  0.5563  1.0572
  653SOL    HW2 1959   2.764   1.137   0.123  1.7310 -0.3179 -1.6896
  654SOL     OW 1960   1.293   2.259   1.253 -0.1643  0.3951 -0.6382
  654SOL    HW1 1961   1.280   2.183   1.327  1.1469 -1.0725  0.7235
  654SOL    HW2 1962   1.334   2.214   1.163 -0.2434 -1.8667 -0.5152
  655SOL     OW 1963   0.202   0.969   1.863  0.2210  0.0390 -0.2762
  655SOL    HW1 1964   0.243   0.913   1.787 -1.8620 -2.2186  1.7791
  655SOL    HW2 1965   0.274   1.037   1.899 -0.3734 -0.2695  1.0288
  656SOL     OW 1966   2.545   2.514   2.653 -0.2080  0.0741  0.1697
  656SOL    HW1 1967   2.628   2.508   2.583  1.5072  2.0780  0.3686
  656SOL    HW2 1968   2.452   2.513   2.611  0.4487 -0.4654  5.0934
  657SOL     OW 1969   3.059   1.062   1.935  0.3574 -0.1526 -0.2304
  657SOL    HW1 1970   3.041   1.162   1.970  1.7981  1.2267  0.6713
  657SOL    HW2 1971   3.155   1.050   1.897 -0.1254  1.8435  0.6629
  658SOL     OW 1972   1.721   0.238   2.423  0.0070  0.0615  0.6627
  658SOL    HW1 1973   1.728   0.143   2.471  1.4805 -1.1458 -1.5699
  658SOL    HW2 1974   1.748   0.235   2.319 -2.8850  2.0465 -1.6659
  659SOL     OW 1975   1.454   0.653   2.943 -0.2272  0.0165  0.0854
  659SOL    HW1 1976   1.523   0.732   2.930  1.2829 -2.0468  0.1950
  659SOL    HW2 1977   1.361   0.679   2.906  0.5611 -0.6351 -0.7753
  660SOL     OW 1978   1.409   0.340   1.452  0.6908 -0.4353 -0.0974
  660SOL    HW1 1979   1.467   0.366   1.528 -1.2436 -0.0302 -1.5156
  660SOL    HW2 1980   1.449   0.255   1.401  0.4078 -0.7415  2.2575
  661SOL     OW 1981   2.500   1.186   0.681 -0.2656 -0.6241  0.2252
  661SOL    HW1 1982   2.518   1.172   0.580  0.5303  2.2374  0.2391
  661SOL    HW2 1983   2.453   1.279   0.702 -1.0835  2.0498  1.9875
  662SOL     OW 1984   1.369   0.450   1.857  0.1119 -0.1291 -0.0972
  662SOL    HW1 1985   1.332   0.354   1.832  0.3322  0.0528  1.0943
  662SOL    HW2 1986   1.311   0.493   1.933  0.2392 -0.0699 -0.1665
  663SOL     OW 1987   0.767   1.553   2.181  0.4586  0.0396 -0.4993
  663SOL    HW1 1988   0.725   1.636   2.217  0.3728  0.4388  0.5950
  663SOL    HW2 1989   0.732   1.538   2.082 -0.9136  1.4289 -3.3952
  664SOL     OW 1990   1.637   2.110   1.491 -0.1058  0.6123 -0.2408
  664SOL    HW1 1991   1.578   2.039   1.547 -0.6438 -2.2820 -0.6395
  664SOL    HW2 1992   1.739   2.089   1.498  0.1264  1.5046 -1.0616
  665SOL     OW 1993   2.259   0.640   1.957 -0.0960 -0.0975 -0.2111
  665SOL    HW1 1994   2.243   0.558   2.018 -2.0847  0.8175  0.5193
  665SOL    HW2 1995   2.252   0.725   2.016 -1.3510 -1.5534 -1.8992
  666SOL     OW 1996   0.387   2.352   0.426  0.0594 -0.0872  0.3937
  666SOL    HW1 1997   0.458   2.399   0.487  0.4877  1.0821 -0.2189
  666SOL    HW2 1998   0.335   2.281   0.480  3.7907  1.3479 -1.0517
  667SOL     OW 1999   1.997   0.156   1.157  0.6129  0.2031 -0.7406
  667SOL    HW1 2000   1.981   0.259   1.150  0.8306  3.3028  0.1620
  667SOL    HW2 2001   1.938   0.122   1.237 -0.9945  2.2401 -0.3596
  668SOL     OW 2002   1.993   0.485   1.202  0.2085 -0.7497  0.0183
  668SOL    HW1 2003   2.046   0.521   1.119 -1.5571  0.8195  0.8429
  668SOL    HW2 2004   2.046   0.443   1.277 -0.2030  1.1710 -0.8416
  669SOL     OW 2005   3.049   2.232   0.993 -0.6110  0.6444  0.1098
  669SOL    HW1 2006   2.975   2.254   0.925 -1.1410 -0.0059 -3.3195
  669SOL    HW2 2007   3.002   2.228   1.084 -1.8941  1.6816  2.0574
  670SOL     OW 2008   2.858   2.344   1.946  0.2621 -0.3892  0.3048
  670SOL    HW1 2009   2.803   2.318   2.029  0.3081  1.3734 -0.5690
  670SOL    HW2 2010   2.869   2.449   1.935  2.0784  2.3191 -0.5636
  671SOL     OW 2011   1.766   1.733   1.448  0.2793 -0.0855  0.2478
  671SOL    HW1 2012   1.793   1.771   1.356  0.0904 -0.2554 -1.6044
  671SOL    HW2 2013   1.665   1.696   1.447  0.5936 -3.0096 -3.0785
  672SOL     OW 2014   0.370   0.617   2.364  0.2632 -0.7506  0.1449
  672SOL    HW1 2015   0.422   0.632   2.276 -0.7796  0.1624 -0.7311
  672SOL    HW2 2016   0.298   0.693   2.374 -1.6128  1.2528  2.0839
  673SOL     OW 2017   0.146   1.159   1.155  0.4611 -0.3618 -0.6672
  673SOL    HW1 2018   0.162   1.235   1.219  0.0061  1.0104 -2.6169
  673SOL    HW2 2019   0.235   1.125   1.110 -1.0946  3.3870 -1.7474
  674SOL     OW 2020   1.600   2.938   0.223 -0.2096  0.5169 -0.2648
  674SOL    HW1 2021   1.666   3.009   0.182  2.1497 -2.0879  1.4398
  674SOL    HW2 2022   1.611   2.846   0.172  0.6833 -0.6636 -3.7453
  675SOL     OW 2023   1.661   0.847   2.315 -0.2147  0.7624 -0.0319
  675SOL    HW1 2024   1.765   0.835   2.314  3.0973  2.5166  0.0748
  675SOL    HW2 2025   1.617   0.752   2.294 -2.3593  1.1854 -0.9446
  676SOL     OW 2026   2.483   1.460   2.023  0.0320  0.3818  0.2121
  676SOL    HW1 2027   2.479   1.417   1.930  1.6024  2.0914  2.7469
  676SOL    HW2 2028   2.549   1.411   2.087 -0.2720 -2.0516  0.7994
  677SOL     OW 2029   1.955   0.684   0.815 -0.4541 -0.4965 -0.3371
  677SOL    HW1 2030   1.970   0.732   0.905 -1.7669  2.2800  0.6852
  677SOL    HW2 2031   1.974   0.582   0.815 -1.1142 -2.7014  1.0174
  678SOL     OW 2032   0.042   0.744   1.663  0.1447 -0.4748 -0.3565
  678SOL    HW1 2033   0.143   0.734   1.680 -3.1506  0.3527 -0.8475
  678SOL    HW2 2034  -0.009   0.743   1.755  0.2033  0.3936  0.7990
  679SOL     OW 2035   2.598   1.155   1.117  0.4042 -0.2636  0.2449
  679SOL    HW1 2036   2.503   1.162   1.153 -0.4612 -2.4696 -1.6513
  679SOL    HW2 2037   2.614   1.063   1.073 -1.0428  0.0664  0.4861
  680SOL     OW 2038   2.774   0.627   1.703  0.0881 -0.0975 -0.3290
  680SOL    HW1 2039   2.742   0.639   1.602  0.1937  2.7560 -0.1133
  680SOL    HW2 2040   2.857   0.681   1.728 -1.8165  2.0484 -0.3559
  681SOL     OW 2041   2.994   0.153   1.634 -0.3341 -0.5073 -0.5128
  681SOL    HW1 2042   3.065   0.166   1.554  0.9312 -0.2002 -0.2942
  681SOL    HW2 2043   2.921   0.228   1.647  1.7402 -2.6094 -0.2892
  682SOL     OW 2044   0.712   0.042   1.293  0.3783  0.1860  0.5145
  682SOL    HW1 2045   0.679  -0.026   1.370  2.1733 -0.3758  0.6915
  682SOL    HW2 2046   0.730  -0.012   1.202  2.5292  1.2925  1.4040
  683SOL     OW 2047   1.320   0.218   2.189 -0.1780  0.0012 -0.4666
  683SOL    HW1 2048   1.328   0.258   2.283 -0.2501  0.8515 -0.3587
  683SOL    HW2 2049   1.400   0.247   2.127  1.1422  2.6415 -0.2097
  684SOL     OW 2050   1.467   2.144   0.559  0.3099  0.7708  0.3169
  684SOL    HW1 2051   1.537   2.069   0.587 -0.1417 -0.9527  0.7726
  684SOL    HW2 2052   1.377   2.098   0.524 -0.8696  1.9804 -0.2784
  685SOL     OW 2053   2.158   2.007   1.945 -0.2322  0.2068 -0.2283
  685SOL    HW1 2054   2.210   2.040   1.856  1.6114 -3.0705 -3.5774
  685SOL    HW2 2055   2.217   1.964   2.016 -0.5406 -1.3322 -1.2137
  686SOL     OW 2056   1.515   1.800   2.767 -0.2730 -0.2643  0.1649
  686SOL    HW1 2057   1.563   1.752   2.848  3.5381 -2.2640 -2.3744
  686SOL    HW2 2058   1.525   1.752   2.677 -0.1369 -0.1671 -0.1473
  687SOL     OW 2059   1.262   2.512   1.967  0.3663  0.2342 -0.5438
  687SOL    HW1 2060   1.283   2.408   1.963 -0.5044 -1.4724  1.5396
  687SOL    HW2 2061   1.343   2.579   1.968 -2.8224  0.8374  0.3404
  688SOL     OW 2062   2.067   1.556   1.738 -0.0330 -0.7426 -0.7874
  688SOL    HW1 2063   2.168   1.554   1.748 -0.5149 -1.1134 -1.9654
  688SOL    HW2 2064   2.042   1.523   1.641 -0.4464  1.3321 -0.2776
  689SOL     OW 2065   2.472   1.082   2.670  0.4216  0.3976  0.5132
  689SOL    HW1 2066   2.374   1.069   2.699 -0.7200 -3.1780  4.1461
  689SOL    HW2 2067   2.541   1.072   2.748 -0.6592 -1.1723  1.7230
  690SOL     OW 2068   2.273   2.799   0.056 -0.5476 -0.0303 -0.1679
  690SOL    HW1 2069   2.227   2.775  -0.035  0.3399 -1.7432  1.2126
  690SOL    HW2 2070   2.198   2.805   0.127  1.9691 -1.5668  0.7584
  691SOL     OW 2071   2.563   0.473   2.116 -0.4631 -0.8071 -0.5172
  691SOL    HW1 2072   2.611   0.393   2.063  0.4129 -0.3172 -2.2472
  691SOL    HW2 2073   2.574   0.568   2.073 -2.0122  1.4568  0.5966
  692SOL     OW 2074   2.772   1.220   0.722  0.3061  0.4474 -0.1716
  692SOL    HW1 2075   2.668   1.221   0.717 -1.0379  0.8303  3.0570
  692SOL    HW2 2076   2.810   1.312   0.749  0.8892 -3.2699  2.7486
  693SOL     OW 2077   2.781   2.941   0.644 -0.1236 -0.4275 -0.3654
  693SOL    HW1 2078   2.791   3.024   0.701  1.6721 -1.0765 -0.6927
  693SOL    HW2 2079   2.722   2.951   0.557  1.8736  0.1330 -1.1370
  694SOL     OW 2080   2.417   2.216   0.084  0.5437  0.2802  0.2284
  694SOL    HW1 2081   2.386   2.294   0.145 -0.5287 -2.0216 -1.9113
  694SOL    HW2 2082   2.338   2.153   0.061  1.2569 -0.0722 -0.7800
  695SOL     OW 2083   0.603   2.952   1.486  0.1337 -0.1028 -0.4096
  695SOL    HW1 2084   0.547   2.874   1.441 -0.1257  0.4466 -1.4599
  695SOL    HW2 2085   0.545   3.008   1.557 -0.4837  1.6676  0.9344
  696SOL     OW 2086   2.805   1.951   0.748 -1.2888 -0.2350  0.2559
  696SOL    HW1 2087   2.836   1.873   0.812 -0.5265 -2.5740 -1.6617
  696SOL    HW2 2088   2.846   1.944   0.655  0.0058  0.8435 -0.9156
  697SOL     OW 2089   1.643   2.078   1.829  0.2727  0.1890  0.3395
  697SOL    HW1 2090   1.723   2.019   1.862  2.4356 -2.1796  1.3134
  697SOL    HW2 2091   1.669   2.165   1.787 -1.9116 -0.6964  1.3384
  698SOL     OW 2092   2.969   0.394   2.749  0.1640  0.3290 -0.4421
  698SOL    HW1 2093   2.904   0.350   2.681 -2.7961 -0.4300 -0.7592
  698SOL    HW2 2094   3.015   0.329   2.814 -1.6534 -0.4020 -2.2292
  699SOL     OW 2095   1.571   0.076   2.942 -0.1283 -0.7530 -0.6164
  699SOL    HW1 2096   1.537  -0.011   2.897 -2.7033  0.2533  0.3083
  699SOL    HW2 2097   1.638   0.135   2.882  0.8546  3.4340  0.1459
  700SOL     OW 2098   1.014   2.299   1.311 -0.0820  0.0738 -0.0679
  700SOL    HW1 2099   1.110   2.273   1.280 -0.5807  0.8293  1.1829
  700SOL    HW2 2100   0.933   2.270   1.249 -1.5616 -3.3371 -1.0398
  701SOL     OW 2101   1.928   2.837   3.056 -0.1580  0.0078  0.0077
  701SOL    HW1 2102   1.905   2.787   3.143  0.5835  0.0295  1.2874
  701SOL    HW2 2103   1.963   2.932   3.062 -2.2245 -0.2828 -1.4574
  702SOL     OW 2104   2.064   1.348   1.911  0.3944  0.4967 -0.2520
  702SOL    HW1 2105   2.127   1.277   1.878  0.3636  2.1806  0.1759
  702SOL    HW2 2106   2.040   1.424   1.839  4.3945  0.6691  1.1241
  703SOL     OW 2107   1.966   0.885   1.407  0.3910 -0.1263 -0.2505
  703SOL    HW1 2108   1.964   0.794   1.459  1.3589 -0.4658 -0.6217
  703SOL    HW2 2109   2.010   0.956   1.463 -1.5417 -0.1153  0.3168
  704SOL     OW 2110   0.328   2.039   1.663 -0.4488  0.2281 -0.4313
  704SOL    HW1 2111   0.361   1.968   1.729  0.6804  1.2187  1.8781
  704SOL    HW2 2112   0.375   2.130   1.680  0.6354 -2.4984  1.2847
  705SOL     OW 2113   2.507   1.384   0.962  0.1165  0.0097 -0.2998
  705SOL    HW1 2114   2.448   1.380   0.879 -0.2156 -1.3403  1.6680
  705SOL    HW2 2115   2.559   1.298   0.987  1.3522 -2.0818 -0.0743
  706SOL     OW 2116   0.646   1.715   1.832  0.0748 -0.5712  0.5411
  706SOL    HW1 2117   0.660   1.623   1.880  0.5811 -0.7456 -1.7612
  706SOL    HW2 2118   0.713   1.788   1.866  0.7888  2.4201 -1.8197
  707SOL     OW 2119   2.248   1.158   1.882 -0.2676 -0.7970  0.2538
  707SOL    HW1 2120   2.344   1.165   1.919  2.4216  0.7527  0.9158
  707SOL    HW2 2121   2.214   1.062   1.876  1.0751  0.2869 -1.1607
  708SOL     OW 2122   2.973   0.518   3.045 -0.0264 -0.2488  0.3617
  708SOL    HW1 2123   2.985   0.564   2.952 -0.9920 -1.2724  1.0430
  708SOL    HW2 2124   3.018   0.420   3.051 -4.3108  2.1310 -1.0268
  709SOL     OW 2125   1.776   1.869   0.195 -0.0424  0.5165 -0.3473
  709SOL    HW1 2126   1.818   1.957   0.231  3.0668  2.0759 -4.0351
  709SOL    HW2 2127   1.815   1.848   0.100 -2.5785  0.0275  0.4178
  710SOL     OW 2128   1.687   1.621   2.415 -0.5729 -0.0826  0.2784
  710SOL    HW1 2129   1.735   1.617   2.327  0.7272  1.6282  0.6535
  710SOL    HW2 2130   1.707   1.547   2.482  2.0153  0.8843 -1.0015
  711SOL     OW 2131   2.661   2.966   0.955 -1.0150  0.3207 -0.1919
  711SOL    HW1 2132   2.624   3.062   0.943 -2.1670  0.3310  0.9610
  711SOL    HW2 2133   2.765   2.962   0.965 -2.5586 -2.5320 -1.6010
  712SOL     OW 2134   1.370   2.231   1.983  0.2585 -0.2125 -0.2714
  712SOL    HW1 2135   1.448   2.287   2.016 -1.0472  0.9692 -0.8182
  712SOL    HW2 2136   1.371   2.219   1.882  2.5344  0.5275 -0.0186
  713SOL     OW 2137   2.924   1.466   2.571 -0.5598  0.1344 -0.4059
  713SOL    HW1 2138   2.865   1.387   2.539 -0.6276  2.1355  0.6565
  713SOL    HW2 2139   2.913   1.496   2.670 -1.4129 -2.6170 -1.7871
  714SOL     OW 2140   2.668   0.490   2.401 -0.0856 -0.4533 -0.5658
  714SOL    HW1 2141   2.622   0.428   2.470 -0.2737 -1.0679  0.5667
  714SOL    HW2 2142   2.610   0.495   2.315 -1.8875  0.4019 -1.2428
  715SOL     OW 2143   1.598   2.039   1.206  0.3589 -0.1861  0.1728
  715SOL    HW1 2144   1.524   2.093   1.156 -1.3872 -0.1353  0.9843
  715SOL    HW2 2145   1.616   2.080   1.298  1.0126  0.9028  0.8934
  716SOL     OW 2146   1.186   0.173   1.493 -0.0475  0.0677  0.2837
  716SOL    HW1 2147   1.090   0.213   1.501  0.4961  3.5269 -0.0319
  716SOL    HW2 2148   1.256   0.249   1.480  0.6583 -0.9272 -1.0455
  717SOL     OW 2149   1.120   0.587   1.623  0.7735  0.4078 -0.3794
  717SOL    HW1 2150   1.215   0.617   1.644 -2.6259 -0.0553  1.7934
  717SOL    HW2 2151   1.119   0.537   1.534 -1.0888 -1.1667  1.1440
  718SOL     OW 2152   0.733   0.930   0.937  0.5194  0.1122 -0.0730
  718SOL    HW1 2153   0.697   0.904   0.843  0.5762 -2.4750  1.2037
  718SOL    HW2 2154   0.706   1.023   0.978  1.2658 -0.1836  1.5115
  719SOL     OW 2155   0.672   1.807   2.265 -0.1187  0.4923 -0.0706
  719SOL    HW1 2156   0.730   1.858   2.337 -2.5613 -0.6715  2.1834
  719SOL    HW2 2157   0.578   1.786   2.309  1.1013 -0.3124 -1.4879
  720SOL     OW 2158   2.172   1.154   0.255 -0.1945 -0.1485  0.0190
  720SOL    HW1 2159   2.234   1.086   0.207 -1.3606  1.7981 -0.9300
  720SOL    HW2 2160   2.188   1.148   0.356  1.1670 -0.6929 -0.3337
  721SOL     OW 2161   2.283   2.992   2.091 -0.2456 -0.2208 -0.3339
  721SOL    HW1 2162   2.286   3.036   1.994  6.0350  2.0351 -0.9980
  721SOL    HW2 2163   2.188   2.991   2.131  0.4792  0.5395 -1.8310
  722SOL     OW 2164   2.356   1.624   0.574  0.1488 -0.3010  0.5030
  722SOL    HW1 2165   2.376   1.605   0.472  0.0286  0.1716 -1.0420
  722SOL    HW2 2166   2.296   1.713   0.587  2.9140  0.9709  0.8294
  723SOL     OW 2167   2.551   2.690   2.008  0.9186 -0.9254  0.2084
  723SOL    HW1 2168   2.595   2.768   2.064  0.4923  0.7719  1.5817
  723SOL    HW2 2169   2.447   2.688   2.013  1.8485  0.9392 -0.7134
  724SOL     OW 2170   0.531   2.469   2.418  0.1339 -0.0511 -0.3165
  724SOL    HW1 2171   0.440   2.425   2.456 -2.5126 -3.1695 -0.2006
  724SOL    HW2 2172   0.604   2.481   2.494  0.6771  2.1637  2.6302
  725SOL     OW 2173   2.427   2.782   1.510  0.0221 -0.3694  0.0024
  725SOL    HW1 2174   2.458   2.782   1.408 -0.7120 -0.3031 -0.5788
  725SOL    HW2 2175   2.372   2.698   1.536 -0.1725  2.0491  0.0478
  726SOL     OW 2176   2.405   2.227   0.676 -0.7477 -0.4026 -0.4480
  726SOL    HW1 2177   2.407   2.326   0.664 -2.6590 -0.0579 -0.3090
  726SOL    HW2 2178   2.417   2.177   0.583  2.7784  0.7457  2.8574
  727SOL     OW 2179   0.149   3.059   0.049  0.4042  0.0594  0.3250
  727SOL    HW1 2180   0.195   2.966   0.049 -0.8947 -0.0900 -2.5862
  727SOL    HW2 2181   0.083   3.070  -0.026 -1.0230  0.0215  1.4186
  728SOL     OW 2182   2.876   0.689   0.980  0.3793  0.0857  0.1847
  728SOL    HW1 2183   2.796   0.672   0.910 -1.0929  0.5715 -1.3883
  728SOL    HW2 2184   2.873   0.637   1.074 -0.1739  1.9453  2.4862
  729SOL     OW 2185   2.983   2.510   0.754 -0.8634  0.2593 -0.2033
  729SOL    HW1 2186   2.908   2.434   0.770  1.6884  1.4018 -0.6707
  729SOL    HW2 2187   3.081   2.473   0.741 -0.9086  0.8243 -0.4826
  730SOL     OW 2188   2.612   0.648   0.845 -0.6399 -0.4757  0.7528
  730SOL    HW1 2189   2.572   0.733   0.809 -0.1131 -1.7740  0.1807
  730SOL    HW2 2190   2.667   0.595   0.778  2.3925  0.5290 -2.8878
  731SOL     OW 2191   0.141   2.153   2.436  0.0239 -0.3993 -0.1533
  731SOL    HW1 2192   0.115   2.188   2.532  0.9175 -3.5101  2.2643
  731SOL    HW2 2193   0.186   2.229   2.388  0.6835  0.6102  0.7413
  732SOL     OW 2194   1.118   2.846   1.946 -0.5290  0.2404 -0.0712
  732SOL    HW1 2195   1.170   2.809   2.031  0.7386  1.1375  0.8923
  732SOL    HW2 2196   1.137   2.779   1.865 -1.0588  1.0886  0.4507
  733SOL     OW 2197   3.045   0.566   2.223 -0.2440  0.4822 -0.6172
  733SOL    HW1 2198   3.149   0.589   2.204  4.8563  0.8837  1.2787
  733SOL    HW2 2199   2.996   0.526   2.138  0.0801  2.8478  0.1548
  734SOL     OW 2200   1.415   0.371   2.757 -0.0077  0.4319  0.0589
  734SOL    HW1 2201   1.420   0.461   2.807  0.8731 -0.9266 -2.2210
  734SOL    HW2 2202   1.325   0.319   2.774 -1.7575 -0.3182 -0.1694
  735SOL     OW 2203   2.887   2.629   2.252  0.0461 -0.4045  0.3838
  735SOL    HW1 2204   2.843   2.611   2.157  1.0776 -1.6325  0.5984
  735SOL    HW2 2205   2.992   2.627   2.241  2.0370 -1.2201 -1.8274
  736SOL     OW 2206   0.749   0.310   2.655  0.1500  0.1750 -0.5406
  736SOL    HW1 2207   0.649   0.300   2.673 -2.7129  1.2355 -0.9681
  736SOL    HW2 2208   0.781   0.266   2.571 -0.0158 -1.2257  1.4565
  737SOL     OW 2209   2.674   0.380   2.861 -0.1920 -0.2440 -0.0350
  737SOL    HW1 2210   2.664   0.368   2.965 -0.5820  0.3651  0.3726
  737SOL    HW2 2211   2.773   0.381   2.828 -0.0703 -2.9676 -3.7658
  738SOL     OW 2212   1.604   1.256   2.919 -0.0993 -0.3741  0.1099
  738SOL    HW1 2213   1.700   1.221   2.922 -0.1998  1.7489  0.6876
  738SOL    HW2 2214   1.545   1.198   2.858  0.4387 -0.2868 -3.7727
  739SOL     OW 2215   1.724   0.598   0.695  0.0182 -0.3313 -0.1152
  739SOL    HW1 2216   1.797   0.638   0.757 -3.0528 -1.1270  0.5715
  739SOL    HW2 2217   1.761   0.514   0.642  1.2626 -1.6103  1.3243
  740SOL     OW 2218   2.007   1.927   2.282 -0.1688  0.3384  0.6356
  740SOL    HW1 2219   2.056   1.840   2.321 -2.6213  0.5083 -1.0470
  740SOL    HW2 2220   1.908   1.905   2.271 -1.0203  0.1062  2.8091
  741SOL     OW 2221   2.536   0.070   2.640  0.4259 -0.0143  0.0759
  741SOL    HW1 2222   2.635   0.042   2.643 -1.6256 -1.6977  0.1218
  741SOL    HW2 2223   2.503   0.042   2.543  0.7217 -1.5821 -0.2198
  742SOL     OW 2224   2.227   1.465   0.212 -0.4735  0.2571 -0.5591
  742SOL    HW1 2225   2.163   1.543   0.235  0.2062 -0.1165 -0.6773
  742SOL    HW2 2226   2.188   1.380   0.254  0.0928 -0.9629 -1.1912
  743SOL     OW 2227   1.827   0.666   2.613  0.4308 -0.0521  0.3663
  743SOL    HW1 2228   1.801   0.605   2.534 -0.6154  1.2913 -1.7015
  743SOL    HW2 2229   1.767   0.753   2.614  1.6571 -1.8848 -0.5510
  744SOL     OW 2230   2.664   2.101   0.068  0.5708  0.0375 -0.2201
  744SOL    HW1 2231   2.565   2.137   0.083 -2.2678 -0.2353  1.7966
  744SOL    HW2 2232   2.651   2.002   0.064  1.1860 -1.5194 -0.3694
  745SOL     OW 2233   2.158   2.634   2.332 -0.2749  0.2191 -0.2134
  745SOL    HW1 2234   2.062   2.624   2.290  1.1428 -3.6956  0.9515
  745SOL    HW2 2235   2.172   2.717   2.397  0.4071  0.7042 -0.5374
  746SOL     OW 2236   3.064   2.630   1.724 -0.0429 -0.3069  0.0847
  746SOL    HW1 2237   3.135   2.640   1.653  0.8569 -1.1601  0.3272
  746SOL    HW2 2238   3.053   2.711   1.787 -0.0843  0.1154 -1.2599
  747SOL     OW 2239   0.006   1.802   1.628  0.0054  0.0690  0.0838
  747SOL    HW1 2240  -0.041   1.714   1.613  1.0384  0.5002  0.3033
  747SOL    HW2 2241   0.074   1.828   1.550 -2.3018  0.9768 -0.0453
  748SOL     OW 2242   1.854   2.735   2.821  0.2001 -0.2445 -0.5969
  748SOL    HW1 2243   1.872   2.776   2.919  0.1971  1.7179 -0.3889
  748SOL    HW2 2244   1.756   2.728   2.780 -0.5808 -0.2242  0.3286
  749SOL     OW 2245   1.313   3.064   0.932  0.1450  0.1974 -0.5929
  749SOL    HW1 2246   1.239   2.996   0.950 -2.2358 -0.1943 -5.0839
  749SOL    HW2 2247   1.348   3.049   0.835  0.5889 -0.5270  0.9644
  750SOL     OW 2248   2.397   0.211   1.870  0.3296  0.6742  0.6026
  750SOL    HW1 2249   2.390   0.273   1.788  1.3445 -0.3780  1.7012
  750SOL    HW2 2250   2.374   0.263   1.958  2.2119  2.4913  0.6291
  751SOL     OW 2251   0.931   2.213   2.706  0.4936  0.0803 -0.2203
  751SOL    HW1 2252   0.958   2.212   2.807 -0.7806  0.2924  0.2164
  751SOL    HW2 2253   0.847   2.156   2.685 -0.9883 -0.2487 -2.0774
  752SOL     OW 2254   1.259   0.872   1.429 -0.1085  0.3532  0.7187
  752SOL    HW1 2255   1.337   0.939   1.402  1.8390 -1.6395  0.1284
  752SOL    HW2 2256   1.283   0.768   1.422  2.1268  0.9062  0.4996
  753SOL     OW 2257   0.954   2.582   1.719  0.7395  0.1932 -0.0270
  753SOL    HW1 2258   1.046   2.627   1.708 -1.4036  0.6189  2.7308
  753SOL    HW2 2259   0.881   2.636   1.671 -1.5197  0.0621  1.0470
  754SOL     OW 2260   1.160   1.291   0.008  0.9706  0.5676  0.5255
  754SOL    HW1 2261   1.180   1.226  -0.070 -0.7758  0.8113 -3.1662
  754SOL    HW2 2262   1.172   1.388  -0.027  0.0550  1.1118  0.4184
  755SOL     OW 2263   1.974   0.441   2.201  0.2803 -0.3113 -0.4166
  755SOL    HW1 2264   2.066   0.396   2.227  1.4411  0.3913 -1.3020
  755SOL    HW2 2265   1.922   0.453   2.290 -0.6868 -2.4004  2.2631
  756SOL     OW 2266   2.552   0.990   2.960 -0.3009 -0.5218 -0.3648
  756SOL    HW1 2267   2.658   0.986   2.982  3.5392 -2.4707 -2.0259
  756SOL    HW2 2268   2.499   0.911   3.007  1.1207  1.8688  0.9265
  757SOL     OW 2269   3.062   0.438   1.798  0.4010 -0.1529  0.4515
  757SOL    HW1 2270   3.144   0.430   1.854 -0.5433 -1.5003 -0.5376
  757SOL    HW2 2271   3.056   0.377   1.715 -0.3490  0.4457  1.2516
  758SOL     OW 2272   2.391   0.086   1.412 -0.3319  0.0688 -0.6296
  758SOL    HW1 2273   2.307   0.059   1.462 -0.5941  2.2689  2.9908
  758SOL    HW2 2274   2.372   0.088   1.315  0.8633  1.4585  1.2626
  759SOL     OW 2275   1.711   0.064   0.071  0.0289 -0.6357  0.2650
  759SOL    HW1 2276   1.655   0.064  -0.019  1.1688 -1.1158 -0.3039
  759SOL    HW2 2277   1.808   0.089   0.051 -0.6843  1.1590  1.4523
  760SOL     OW 2278   2.732   2.092   2.810 -0.0518 -0.6038 -0.2704
  760SOL    HW1 2279   2.803   2.024   2.838  0.9727  0.2569 -1.2732
  760SOL    HW2 2280   2.724   2.169   2.879  1.2702  1.5449  1.0631
  761SOL     OW 2281   1.903   1.785   1.724  0.2141 -0.0906 -0.0423
  761SOL    HW1 2282   1.946   1.693   1.763 -0.9071 -1.4440  1.8674
  761SOL    HW2 2283   1.828   1.766   1.652 -0.8133 -0.1447  0.2557
  762SOL     OW 2284   0.460   2.317   0.979 -0.2113 -0.1548  0.3576
  762SOL    HW1 2285   0.506   2.333   0.888  0.0566 -0.5073  2.0800
  762SOL    HW2 2286   0.514   2.375   1.048  2.4404  1.8405 -2.2437
  763SOL     OW 2287   2.080   1.505   2.929  0.1214 -0.0688  0.3128
  763SOL    HW1 2288   2.174   1.475   2.958 -0.8687  1.3542 -2.3120
  763SOL    HW2 2289   2.003   1.481   2.995 -0.0207 -2.0214 -3.1621
  764SOL     OW 2290   0.628   0.600   0.851  0.3445  0.3679 -0.3544
  764SOL    HW1 2291   0.586   0.514   0.811  0.8414 -1.5934 -0.3893
  764SOL    HW2 2292   0.719   0.577   0.898 -1.0051 -1.3143  1.5005
  765SOL     OW 2293   0.712   0.231   0.796  0.2471 -0.3653 -0.0390
  765SOL    HW1 2294   0.759   0.300   0.734 -0.0248  1.3747 -3.3344
  765SOL    HW2 2295   0.692   0.263   0.895 -0.1329 -0.9603  0.2874
  766SOL     OW 2296   2.926   2.088   3.092  0.6558 -0.1319 -0.2324
  766SOL    HW1 2297   2.830   2.110   3.133 -1.3389 -0.0260  0.6462
  766SOL    HW2 2298   2.995   2.165   3.098 -1.7763  0.2666 -0.6831
  767SOL     OW 2299   2.823   1.564   0.572  0.2198 -0.1251 -1.0014
  767SOL    HW1 2300   2.758   1.569   0.655  1.9925  1.9822 -0.4225
  767SOL    HW2 2301   2.920   1.567   0.608  2.1096  0.2571  2.8612
  768SOL     OW 2302   1.108   0.204   0.360  0.1456 -0.0987 -0.4735
  768SOL    HW1 2303   1.043   0.130   0.400 -1.5093 -1.1661 -2.3608
  768SOL    HW2 2304   1.188   0.165   0.315 -0.1005 -2.5222  1.3768
  769SOL     OW 2305   1.050   1.897   2.229  0.7897 -0.4494 -0.1179
  769SOL    HW1 2306   1.014   1.923   2.321  0.0501  0.7218 -3.0553
  769SOL    HW2 2307   1.041   1.799   2.193  1.0717  0.8922  2.1810
  770SOL     OW 2308   0.160   1.190   2.240 -0.0982  0.6040 -0.0799
  770SOL    HW1 2309   0.151   1.211   2.341 -0.7700 -1.0045 -1.9581
  770SOL    HW2 2310   0.078   1.137   2.200 -1.0939 -0.6477 -2.5546
  771SOL     OW 2311   2.970   2.861   1.902 -0.7989  0.2615 -0.1618
  771SOL    HW1 2312   2.926   2.920   1.824  0.1570  0.0235 -0.9569
  771SOL    HW2 2313   2.946   2.897   1.997 -1.7727 -1.8163 -2.0061
  772SOL     OW 2314   2.178   0.143   2.937 -0.4016 -0.8710  0.3437
  772SOL    HW1 2315   2.272   0.100   2.922  2.4366  0.2760 -0.3059
  772SOL    HW2 2316   2.175   0.236   2.974 -1.7821 -1.4917 -2.0137
  773SOL     OW 2317   0.693   2.208   2.488  0.0716  0.1715  0.0300
  773SOL    HW1 2318   0.675   2.213   2.387  0.9214 -2.1163  0.4268
  773SOL    HW2 2319   0.628   2.148   2.541 -0.8650 -0.4031  1.8941
  774SOL     OW 2320   2.013   0.034   2.645  0.4518  0.3856 -0.0295
  774SOL    HW1 2321   2.061   0.127   2.676  2.7826  1.4452  1.8075
  774SOL    HW2 2322   2.058  -0.053   2.675 -1.9207 -0.8090 -2.6225
  775SOL     OW 2323   2.528   2.817   2.435  0.0480  0.0281  0.1766
  775SOL    HW1 2324   2.513   2.912   2.401  2.1896  0.0460  0.8113
  775SOL    HW2 2325   2.610   2.800   2.494 -0.3416 -2.4428  0.7697
  776SOL     OW 2326   0.075   1.288   0.200 -0.1749 -0.5830 -0.1014
  776SOL    HW1 2327   0.020   1.245   0.122  0.1344 -3.3219  1.6224
  776SOL    HW2 2328   0.015   1.281   0.287 -3.0634 -1.7619  2.7097
  777SOL     OW 2329   0.258   2.833   0.463 -0.2642 -0.3341  0.5892
  777SOL    HW1 2330   0.168   2.878   0.476  0.3758 -3.2239  0.2925
  777SOL    HW2 2331   0.337   2.896   0.488 -2.6646  1.6577  2.0117
  778SOL     OW 2332   1.331   1.948   0.183  0.4748 -0.0252 -0.0119
  778SOL    HW1 2333   1.284   1.964   0.278 -2.3433  1.4489  0.8356
  778SOL    HW2 2334   1.363   2.037   0.141  1.2988 -1.4622 -2.2608
  779SOL     OW 2335   0.203   0.853   0.486  0.2582 -0.0912 -0.1978
  779SOL    HW1 2336   0.161   0.760   0.473  0.6653 -0.4064  1.1170
  779SOL    HW2 2337   0.142   0.912   0.548  0.2743 -0.3550  0.0668
  780SOL     OW 2338   0.090   0.265   2.251  0.0453 -0.2701 -0.2934
  780SOL    HW1 2339   0.069   0.347   2.312 -2.8884  0.5497 -1.8045
  780SOL    HW2 2340   0.179   0.279   2.193 -1.1319 -0.8660 -0.5313
  781SOL     OW 2341   0.626   1.743   1.555  0.4047 -0.2148 -0.1743
  781SOL    HW1 2342   0.668   1.737   1.651 -0.4651  0.8554  0.4667
  781SOL    HW2 2343   0.545   1.677   1.536 -2.3269 -1.9638  2.1647
  782SOL     OW 2344   2.594   0.163   0.919  0.0503 -0.9451 -0.2472
  782SOL    HW1 2345   2.532   0.176   0.835 -0.9082 -0.6445 -0.9298
  782SOL    HW2 2346   2.565   0.220   0.997 -0.9049  0.1694 -0.9302
  783SOL     OW 2347   2.858   0.704   2.529 -0.6100 -0.4580 -0.2963
  783SOL    HW1 2348   2.829   0.693   2.633 -2.1217  0.0312  2.5190
  783SOL    HW2 2349   2.801   0.638   2.471  1.1455 -2.3060 -2.5209
  784SOL     OW 2350   1.395   2.207   0.072  0.2059  0.3910 -0.2585
  784SOL    HW1 2351   1.480   2.251   0.106 -0.2375  3.1963 -1.9531
  784SOL    HW2 2352   1.385   2.214  -0.030 -2.3005 -0.8706  0.9350
  785SOL     OW 2353   2.167   0.381   3.069  0.2456 -0.2637 -0.2940
  785SOL    HW1 2354   2.081   0.361   3.131  1.9924 -0.6577 -0.8824
  785SOL    HW2 2355   2.182   0.481   3.045  2.0486  0.6872 -2.0824
  786SOL     OW 2356   2.007   2.192   2.221  0.4502 -0.1370 -0.6438
  786SOL    HW1 2357   2.014   2.094   2.249 -1.3967 -1.7863 -0.3632
  786SOL    HW2 2358   2.100   2.234   2.217 -1.5661 -0.6196  1.4260
  787SOL     OW 2359   1.418   0.615   0.926 -0.4314 -0.1056 -0.1814
  787SOL    HW1 2360   1.342   0.680   0.941  1.2873 -0.9149  0.9402
  787SOL    HW2 2361   1.434   0.593   0.826 -2.2907 -0.1060  0.0950
  788SOL     OW 2362   1.230   0.413   3.053 -0.1210  0.5513 -0.3303
  788SOL    HW1 2363   1.135   0.434   3.018 -0.1072  2.4549  0.2008
  788SOL    HW2 2364   1.266   0.470   3.130 -1.2360  2.3074  2.3668
  789SOL     OW 2365   2.592   0.021   1.796  0.2906  0.8758 -0.1859
  789SOL    HW1 2366   2.518   0.087   1.837  2.8377 -0.1832  0.7115
  789SOL    HW2 2367   2.551  -0.077   1.786 -2.7213 -2.2163 -2.4185
  790SOL     OW 2368   2.584   2.718   0.846  0.3743  0.1204  0.3837
  790SOL    HW1 2369   2.606   2.820   0.839 -2.6780  1.8431  2.4579
  790SOL    HW2 2370   2.639   2.677   0.915 -0.2141 -1.3568  0.0220
  791SOL     OW 2371   1.910   1.262   0.273  0.0380  0.7626 -0.1915
  791SOL    HW1 2372   1.826   1.202   0.297 -1.6102 -0.6658 -1.2753
  791SOL    HW2 2373   1.994   1.203   0.263 -0.4980 -1.9680  1.3119
  792SOL     OW 2374   0.452   1.992   2.133  0.6510  0.4392  0.2502
  792SOL    HW1 2375   0.493   2.089   2.124  1.3221  1.2682 -1.7212
  792SOL    HW2 2376   0.416   1.966   2.227 -2.4085 -1.7314 -0.8940
  793SOL     OW 2377   2.089   1.568   2.072  0.1589 -0.2669 -0.4320
  793SOL    HW1 2378   2.164   1.642   2.055  1.9753 -1.1266  0.6981
  793SOL    HW2 2379   2.098   1.483   2.012  2.6704 -2.6615 -1.0538
  794SOL     OW 2380   0.459   1.354   2.474  0.5646  0.1794 -0.2069
  794SOL    HW1 2381   0.484   1.313   2.380  0.5529  3.7221 -1.4349
  794SOL    HW2 2382   0.446   1.458   2.472  0.5807  0.3623  1.9547
  795SOL     OW 2383   2.446   2.342   1.736  0.9176  0.5537  0.8700
  795SOL    HW1 2384   2.433   2.404   1.816 -0.6800  1.3065 -0.9995
  795SOL    HW2 2385   2.376   2.264   1.737  1.7872  3.0624  0.0519
  796SOL     OW 2386   0.007   1.096   2.697  0.0174  0.0869  0.2314
  796SOL    HW1 2387  -0.099   1.089   2.700 -1.5048 -1.9084  3.5960
  796SOL    HW2 2388   0.055   1.112   2.790 -0.4453 -0.7143  1.1288
  797SOL     OW 2389   0.735   0.624   1.345 -0.6693  0.2380 -0.1426
  797SOL    HW1 2390   0.817   0.669   1.394  1.4096 -2.5763 -0.0884
  797SOL    HW2 2391   0.686   0.700   1.288 -0.7601  1.0419 -0.5310
  798SOL     OW 2392   1.332   0.420   1.089 -0.0881 -0.2636 -0.4730
  798SOL    HW1 2393   1.358   0.447   1.189 -2.3390  2.1981 -0.0057
  798SOL    HW2 2394   1.372   0.481   1.018 -0.1153  1.2213  1.3232
  799SOL     OW 2395   1.945   2.611   1.051 -0.1480 -0.1161 -0.1838
  799SOL    HW1 2396   1.933   2.513   1.076  0.8236  3.0990  1.2273
  799SOL    HW2 2397   1.869   2.657   1.004 -1.1236 -2.4065 -1.4589
  800SOL     OW 2398   2.924   0.818   1.862 -0.6969  0.5368 -0.3819
  800SOL    HW1 2399   2.978   0.905   1.878  2.0890 -0.2973 -3.6937
  800SOL    HW2 2400   2.872   0.779   1.942  0.5229  1.1355 -0.8906
  801SOL     OW 2401   2.003   2.192   0.032  0.6566 -0.7216 -0.0665
  801SOL    HW1 2402   1.938   2.185  -0.053 -3.6921  2.9047 -1.5764
  801SOL    HW2 2403   2.086   2.133   0.023  0.3946  1.2396 -1.0193
  802SOL     OW 2404   0.629   0.821   2.580  0.7873  0.1911 -0.3215
  802SOL    HW1 2405   0.697   0.823   2.503  0.8720 -0.8672 -2.9063
  802SOL    HW2 2406   0.529   0.839   2.548 -0.2502 -0.7147  0.7884
  803SOL     OW 2407   0.985   0.096   0.852  0.2877  0.0888  0.6068
  803SOL    HW1 2408   1.052   0.162   0.898 -1.1449  0.8407  0.3994
  803SOL    HW2 2409   0.939   0.146   0.772  0.3762 -0.2838 -0.3759
  804SOL     OW 2410   0.315   3.060   2.200  0.0058 -0.2065  0.2440
  804SOL    HW1 2411   0.288   3.160   2.197  0.7197  1.4788  0.1610
  804SOL    HW2 2412   0.252   2.998   2.145 -1.5603 -2.0024  1.2017
  805SOL     OW 2413   2.352   0.405   0.361  0.3550  0.0517 -0.2481
  805SOL    HW1 2414   2.454   0.406   0.400  0.5784 -0.1632 -1.2497
  805SOL    HW2 2415   2.345   0.348   0.273 -0.0046 -0.9906  0.9269
  806SOL     OW 2416   0.717   2.444   1.793  0.2575 -0.3168  0.1144
  806SOL    HW1 2417   0.674   2.541   1.792 -1.1907 -0.5699 -0.5911
  806SOL    HW2 2418   0.816   2.439   1.760  2.7970  0.9911  0.8936
  807SOL     OW 2419   2.487   0.852   0.422 -0.3302  1.1824  0.3546
  807SOL    HW1 2420   2.583   0.868   0.449  0.2957 -3.8622  0.4923
  807SOL    HW2 2421   2.467   0.893   0.330 -2.2902 -1.1797  2.4898
  808SOL     OW 2422   0.641   2.087   2.935  0.2603 -0.1226  0.3706
  808SOL    HW1 2423   0.572   2.118   3.010  1.5183  0.2056 -1.1853
  808SOL    HW2 2424   0.665   1.985   2.937  1.5667  1.6659 -0.3531
  809SOL     OW 2425   2.580   1.980   1.872 -0.2937 -0.2054 -0.5296
  809SOL    HW1 2426   2.679   2.010   1.880  1.6528 -1.2091  1.7238
  809SOL    HW2 2427   2.540   1.961   1.778 -1.1450  2.6869 -0.0788
  810SOL     OW 2428   2.209   1.110   0.515  0.0135  0.5888 -0.2396
  810SOL    HW1 2429   2.194   1.022   0.565 -1.0893  2.3346 -3.6375
  810SOL    HW2 2430   2.181   1.195   0.564  1.4609 -2.1787 -1.6430
  811SOL     OW 2431   1.386   2.511   1.198  0.2974 -0.0311 -0.0991
  811SOL    HW1 2432   1.359   2.410   1.230 -1.5037 -0.6433 -0.2586
  811SOL    HW2 2433   1.328   2.582   1.246 -0.0633  1.7075 -1.7321
  812SOL     OW 2434   1.419   0.729   1.979 -0.1050 -0.1490  0.3950
  812SOL    HW1 2435   1.393   0.774   2.068 -0.9038 -0.9833 -0.3668
  812SOL    HW2 2436   1.376   0.783   1.902  1.3347  0.3771 -2.0013
  813SOL     OW 2437   1.659   2.061   2.473 -0.3585 -0.1255 -0.4122
  813SOL    HW1 2438   1.710   1.985   2.519  1.4031  2.5508 -0.3963
  813SOL    HW2 2439   1.600   2.028   2.392 -0.3386 -1.4040  1.6689
  814SOL     OW 2440   2.938   1.587   2.844  0.5111  0.1582  0.4341
  814SOL    HW1 2441   3.010   1.550   2.911  1.0210  0.9879 -1.6299
  814SOL    HW2 2442   2.968   1.688   2.812  0.1639  0.9571  0.2515
  815SOL     OW 2443   2.186   2.960   2.786 -0.0335  0.5013  0.9158
  815SOL    HW1 2444   2.140   2.877   2.836  0.1969  1.0567 -0.3310
  815SOL    HW2 2445   2.258   3.002   2.844 -1.5525 -0.7410 -1.2892
  816SOL     OW 2446   1.590   0.347   1.676 -0.5870  0.2307  0.2947
  816SOL    HW1 2447   1.643   0.267   1.709  1.8267  3.1780  3.1075
  816SOL    HW2 2448   1.549   0.407   1.751  2.5940  1.6428 -1.9074
  817SOL     OW 2449   0.368   1.160   2.635 -0.5245  0.0641  0.1663
  817SOL    HW1 2450   0.276   1.175   2.678  2.3807 -0.3529  2.6243
  817SOL    HW2 2451   0.394   1.244   2.572 -0.1898 -1.5302 -0.3518
  818SOL     OW 2452   1.961   0.884   0.391 -0.3705 -0.9753 -0.3068
  818SOL    HW1 2453   2.060   0.861   0.421  0.8708 -1.4335  0.4668
  818SOL    HW2 2454   1.911   0.933   0.463  0.9481 -2.5080 -0.2174
  819SOL     OW 2455   2.768   2.956   3.034  0.2163  0.2413  0.6835
  819SOL    HW1 2456   2.831   2.885   3.070 -2.2133 -2.6838  0.7476
  819SOL    HW2 2457   2.694   2.912   2.976  0.5483  0.7356 -2.5348
  820SOL     OW 2458   1.212   1.040   0.560  0.3213 -0.3342  0.0233
  820SOL    HW1 2459   1.231   1.140   0.596 -0.9181  2.2198  1.7741
  820SOL    HW2 2460   1.233   0.970   0.634  1.1636  1.2637 -1.4251
  821SOL     OW 2461   0.036   1.289   0.692  0.0271 -0.6623  0.2620
  821SOL    HW1 2462  -0.005   1.308   0.783 -0.1238 -0.1536  2.3261
  821SOL    HW2 2463   0.091   1.373   0.667 -1.8783 -1.1131  0.9869
  822SOL     OW 2464   2.599   1.784   2.459 -0.1862  0.4476  0.0649
  822SOL    HW1 2465   2.604   1.862   2.530 -1.5663 -0.5547  0.9589
  822SOL    HW2 2466   2.512   1.785   2.402  0.7641 -0.7060  0.2819
  823SOL     OW 2467   2.003   0.823   1.130  0.0198  0.6709  0.4091
  823SOL    HW1 2468   1.996   0.829   1.233 -1.8059 -0.0945 -1.6325
  823SOL    HW2 2469   1.947   0.893   1.078 -0.7883  3.8630 -0.0584
  824SOL     OW 2470   0.178   2.007   2.809 -0.1926  0.0977  0.1109
  824SOL    HW1 2471   0.169   1.926   2.871  2.2422 -0.8727 -2.6834
  824SOL    HW2 2472   0.243   1.988   2.726  0.5689 -1.6659  0.0178
  825SOL     OW 2473   1.297   1.038   0.297  0.2084 -0.3018  0.1074
  825SOL    HW1 2474   1.339   1.127   0.264  3.4999  2.3519  0.7683
  825SOL    HW2 2475   1.237   1.051   0.384 -0.9419  0.2346 -2.3456
  826SOL     OW 2476   1.961   0.661   1.551  0.1519  0.3185  0.2962
  826SOL    HW1 2477   2.033   0.613   1.607 -0.7693  1.4788 -1.1664
  826SOL    HW2 2478   1.887   0.597   1.521  2.0043 -1.0667  1.2245
  827SOL     OW 2479   0.726   1.203   0.280 -0.7225  0.2004  0.1565
  827SOL    HW1 2480   0.821   1.184   0.251 -1.9723 -0.2886  0.9955
  827SOL    HW2 2481   0.673   1.123   0.305  0.1564  1.1162 -1.8097
  828SOL     OW 2482   2.633   0.117   1.531  0.3197 -0.8490  0.2776
  828SOL    HW1 2483   2.539   0.091   1.493 -1.2331 -2.2054  1.3425
  828SOL    HW2 2484   2.645   0.081   1.626 -2.2066  0.7962 -0.4579
  829SOL     OW 2485   2.901   2.442   2.894  0.1261  0.1180 -0.5429
  829SOL    HW1 2486   2.820   2.384   2.925  0.0230 -0.8498 -1.1820
  829SOL    HW2 2487   2.862   2.534   2.863 -0.9003 -0.8921 -1.8820
  830SOL     OW 2488   2.815   0.991   3.048  0.3369  0.6359 -0.0860
  830SOL    HW1 2489   2.895   1.057   3.055  1.4035 -1.9340  0.7456
  830SOL    HW2 2490   2.829   0.899   3.094 -0.2846  2.4368  0.1905
  831SOL     OW 2491   0.124   0.590   0.402  0.2648 -0.1252  0.2563
  831SOL    HW1 2492   0.081   0.536   0.480  2.5909 -2.2071 -0.8065
  831SOL    HW2 2493   0.137   0.532   0.317  0.4579 -0.7917  1.0667
  832SOL     OW 2494   1.843   0.791   3.005  0.1379 -0.2434 -0.1328
  832SOL    HW1 2495   1.755   0.847   2.993  0.7231  0.5285  0.4890
  832SOL    HW2 2496   1.829   0.691   3.000  2.1648 -0.2804  0.9798
  833SOL     OW 2497   2.452   2.082   0.459 -0.6662 -0.0796  0.2414
  833SOL    HW1 2498   2.357   2.067   0.413  0.1833 -2.8842 -0.4601
  833SOL    HW2 2499   2.498   1.991   0.478 -1.3476 -3.0126 -0.6062
  834SOL     OW 2500   0.112   0.191   0.501  0.1362 -0.5611  0.3602
  834SOL    HW1 2501   0.123   0.099   0.541 -1.6109  0.8491  1.4349
  834SOL    HW2 2502   0.109   0.185   0.392  1.8257 -0.2872 -2.2285
  835SOL     OW 2503   2.365   1.500   1.160  0.5480  0.4245 -0.0390
  835SOL    HW1 2504   2.379   1.600   1.151 -0.9566 -1.3723  0.4759
  835SOL    HW2 2505   2.398   1.457   1.068  1.4462 -2.6350  0.2827
  836SOL     OW 2506   1.642   0.864   2.585  0.1828  0.6282 -0.4188
  836SOL    HW1 2507   1.547   0.831   2.616  0.8332  0.1913 -0.6039
  836SOL    HW2 2508   1.649   0.870   2.479 -0.0491 -3.2642 -0.1454
  837SOL     OW 2509   1.607   0.110   0.554  0.3652 -0.6764  0.0266
  837SOL    HW1 2510   1.561   0.187   0.607 -0.5970 -0.2688  1.0748
  837SOL    HW2 2511   1.591   0.119   0.452  1.1243  0.6227  0.9623
  838SOL     OW 2512   1.206   1.446   2.783 -0.0884 -0.8797 -0.1524
  838SOL    HW1 2513   1.167   1.489   2.869  0.7545  1.6228 -0.5564
  838SOL    HW2 2514   1.133   1.400   2.724  2.3027 -1.3147 -1.2310
  839SOL     OW 2515   1.674   0.255   0.985 -0.3820  0.2400  0.1821
  839SOL    HW1 2516   1.679   0.343   1.046 -2.2791  0.6306  2.1255
  839SOL    HW2 2517   1.634   0.173   1.034  2.0911 -0.0132  2.1511
  840SOL     OW 2518   2.522   2.871   1.756  0.0805 -0.1265  0.0960
  840SOL    HW1 2519   2.502   2.825   1.668 -0.1817  2.3696  3.3972
  840SOL    HW2 2520   2.521   2.805   1.837 -1.7349  0.1080 -1.3271
  841SOL     OW 2521   1.586   0.920   2.968 -0.0019  0.3659  0.1694
  841SOL    HW1 2522   1.535   0.941   3.053  0.0062 -3.1534 -0.2839
  841SOL    HW2 2523   1.559   0.974   2.887 -0.3084  0.1979  0.0410
  842SOL     OW 2524   0.850   1.516   0.963  0.2053 -0.1658  0.2676
  842SOL    HW1 2525   0.805   1.597   1.011  1.2222  0.8574  2.6564
  842SOL    HW2 2526   0.776   1.454   0.920 -1.4501 -1.7380 -2.7865
  843SOL     OW 2527   0.147   0.123   1.479 -0.2437 -0.5143 -0.4208
  843SOL    HW1 2528   0.232   0.147   1.533 -3.2514  1.5218  3.3743
  843SOL    HW2 2529   0.112   0.033   1.517 -1.0458  2.5877 -1.0060
  844SOL     OW 2530   0.766   2.489   0.292 -0.2455 -0.2736 -0.0097
  844SOL    HW1 2531   0.724   2.463   0.380  1.3748 -1.4649  0.6738
  844SOL    HW2 2532   0.696   2.512   0.221  1.8546  0.1471 -0.9388
  845SOL     OW 2533   1.641   2.864   1.372  0.4428  0.6792  0.2153
  845SOL    HW1 2534   1.685   2.888   1.464 -0.6263 -1.7391  0.6757
  845SOL    HW2 2535   1.572   2.936   1.349  1.4292  1.2933 -0.2050
  846SOL     OW 2536   1.647   2.977   0.847  0.3251  0.0283  0.2048
  846SOL    HW1 2537   1.596   3.014   0.762 -1.4477 -2.2029  0.8556
  846SOL    HW2 2538   1.751   2.978   0.843  1.7558 -0.4834  2.9429
  847SOL     OW 2539   2.020   1.654   0.234  0.3579  0.1139 -0.3623
  847SOL    HW1 2540   1.974   1.617   0.322 -4.1177 -0.0679  0.9027
  847SOL    HW2 2541   1.966   1.620   0.151  1.2395  0.3805 -0.1194
  848SOL     OW 2542   2.523   0.794   2.672  0.1811  0.0089  0.2937
  848SOL    HW1 2543   2.486   0.889   2.687  0.2686 -1.4630  0.3817
  848SOL    HW2 2544   2.470   0.754   2.596 -3.2167 -0.1771  0.5312
  849SOL     OW 2545   2.491   0.879   2.347 -0.2426  0.2490  0.2551
  849SOL    HW1 2546   2.580   0.858   2.300 -2.4137  0.8207 -0.0799
  849SOL    HW2 2547   2.446   0.793   2.388 -0.1418 -0.2722 -0.0865
  850SOL     OW 2548   1.505   0.101   1.347 -0.0491  0.0531  0.0990
  850SOL    HW1 2549   1.520   0.097   1.239  0.8887 -1.3527 -2.0673
  850SOL    HW2 2550   1.449   0.019   1.380 -2.1368 -0.6858 -0.9501
  851SOL     OW 2551   0.459   1.705   0.646  0.0619 -0.0006  0.3120
  851SOL    HW1 2552   0.461   1.808   0.643 -0.7121 -2.6583 -2.8001
  851SOL    HW2 2553   0.556   1.665   0.653  0.1322  0.5743  1.3023
  852SOL     OW 2554   0.793   2.155   1.664  0.7446  0.4651 -0.5002
  852SOL    HW1 2555   0.788   2.253   1.630 -1.6941 -1.4365  2.2366
  852SOL    HW2 2556   0.740   2.133   1.752 -0.0228 -0.6890  2.0654
  853SOL     OW 2557   2.479   1.569   2.610  0.0601  0.0459 -0.1773
  853SOL    HW1 2558   2.443   1.477   2.570 -0.6345 -0.7500  1.6488
  853SOL    HW2 2559   2.529   1.619   2.538 -2.8458 -1.4643  0.2836
  854SOL     OW 2560   2.518   1.372   1.769 -0.2124  0.9062  0.2289
  854SOL    HW1 2561   2.527   1.352   1.666  1.1925 -1.4216 -0.0416
  854SOL    HW2 2562   2.542   1.288   1.824 -0.5862  1.9968  0.9450
  855SOL     OW 2563   2.117   2.364   0.971  0.2081  0.6247 -0.4594
  855SOL    HW1 2564   2.123   2.448   0.911 -1.8331 -1.1669 -1.9521
  855SOL    HW2 2565   2.165   2.374   1.059 -0.2065 -0.2825 -1.8054
  856SOL     OW 2566   1.356   1.471   0.878  0.6586 -0.3193  0.2156
  856SOL    HW1 2567   1.441   1.509   0.928  1.4122  1.5496  0.5181
  856SOL    HW2 2568   1.262   1.500   0.921  2.3975 -1.9110  1.2368
  857SOL     OW 2569   2.966   2.653   1.031  0.0872  0.2005 -0.2916
  857SOL    HW1 2570   2.887   2.594   1.067 -0.8051 -1.1133 -1.4673
  857SOL    HW2 2571   3.034   2.596   0.978 -0.6750  2.8233  2.3196
  858SOL     OW 2572   2.312   2.092   1.708  0.3399  0.6241 -0.3007
  858SOL    HW1 2573   2.219   2.099   1.657 -0.1889  0.8822 -1.1181
  858SOL    HW2 2574   2.368   2.019   1.662 -0.0526 -0.7239  2.4239
  859SOL     OW 2575   2.433   0.552   1.035  0.3743 -0.1028  0.3283
  859SOL    HW1 2576   2.501   0.600   0.967 -3.0794  1.2104  2.2641
  859SOL    HW2 2577   2.480   0.468   1.077  1.2345 -0.1738 -0.8939
  860SOL     OW 2578   1.937   2.824   0.476  0.1046 -0.3687  0.0612
  860SOL    HW1 2579   1.937   2.788   0.384 -0.7959  1.4535  2.1381
  860SOL    HW2 2580   2.018   2.884   0.510  1.5588  0.0794  2.4109
  861SOL     OW 2581   1.080   2.567   2.820  0.7921  0.7821  0.3646
  861SOL    HW1 2582   1.144   2.646   2.790 -2.0332  2.0238 -1.5212
  861SOL    HW2 2583   1.099   2.528   2.917  0.9619 -1.0110 -0.8800
  862SOL     OW 2584   2.844   2.505   1.597  0.1086 -0.3714  0.2540
  862SOL    HW1 2585   2.909   2.545   1.663 -1.0945 -2.1378 -0.5075
  862SOL    HW2 2586   2.816   2.565   1.518  0.1883  4.2079  0.3861
  863SOL     OW 2587   1.846   2.683   0.189  0.3062 -0.1914  0.3513
  863SOL    HW1 2588   1.888   2.588   0.195  1.2849  0.9423 -1.3568
  863SOL    HW2 2589   1.745   2.677   0.208 -1.3035 -0.3010 -1.4016
  864SOL     OW 2590   1.874   1.145   2.878 -0.3803 -0.2220  0.5220
  864SOL    HW1 2591   1.896   1.103   2.783 -2.7264  2.3285 -2.8213
  864SOL    HW2 2592   1.952   1.137   2.950  1.2665 -1.8330 -1.5417
  865SOL     OW 2593   2.209   1.839   0.646 -0.5812  0.6860  0.6396
  865SOL    HW1 2594   2.246   1.831   0.747  1.6803 -0.1344  1.8952
  865SOL    HW2 2595   2.112   1.799   0.634 -1.8479  0.9202  2.5332
  866SOL     OW 2596   2.959   2.920   0.980  0.2691 -0.9691  0.3229
  866SOL    HW1 2597   2.991   2.947   0.885  0.5596 -0.7165 -2.0240
  866SOL    HW2 2598   2.965   2.816   0.998  2.1900 -0.0607 -0.3033
  867SOL     OW 2599   0.324   1.393   0.937 -0.2504 -0.3846 -0.0290
  867SOL    HW1 2600   0.293   1.336   0.860  1.4684 -0.2702 -0.3973
  867SOL    HW2 2601   0.310   1.498   0.918  3.1442  1.1490  0.2619
  868SOL     OW 2602   0.757   1.896   2.026  0.3204  0.5880  0.0384
  868SOL    HW1 2603   0.729   1.858   2.123 -2.1745 -1.0837  0.1393
  868SOL    HW2 2604   0.712   1.986   2.006 -2.4913 -2.7433 -1.6007
  869SOL     OW 2605   2.522   1.932   1.597 -0.5374 -0.0694  0.1497
  869SOL    HW1 2606   2.622   1.963   1.579  1.0167 -1.9878 -0.4280
  869SOL    HW2 2607   2.505   1.841   1.554  0.7705 -0.3437  0.9489
  870SOL     OW 2608   2.308   2.639   1.289 -0.1365 -0.4980 -0.0643
  870SOL    HW1 2609   2.283   2.550   1.250  0.5622 -1.1028 -1.6703
  870SOL    HW2 2610   2.245   2.676   1.365 -1.3858  0.4180  2.3021
  871SOL     OW 2611   2.990   2.100   0.576  0.3330  0.0109 -0.3945
  871SOL    HW1 2612   2.938   2.182   0.604  0.9004 -0.9532  2.8908
  871SOL    HW2 2613   2.944   2.055   0.492 -0.8120 -3.2150 -1.0429
  872SOL     OW 2614   2.123   0.479   1.687  0.0071 -0.2129  0.3750
  872SOL    HW1 2615   2.086   0.454   1.778  0.0663  1.3811  0.1689
  872SOL    HW2 2616   2.221   0.453   1.669  0.6189  3.1762 -0.4278
  873SOL     OW 2617   1.732   2.070   3.009 -0.0306  0.4718 -0.6872
  873SOL    HW1 2618   1.715   2.166   3.049 -1.1198  0.8738 -0.9417
  873SOL    HW2 2619   1.679   2.054   2.918 -0.1236 -1.9494 -0.8407
  874SOL     OW 2620   0.650   2.474   0.797  0.1780 -0.6371 -0.0521
  874SOL    HW1 2621   0.635   2.561   0.850 -1.2404  1.0854  2.0334
  874SOL    HW2 2622   0.754   2.450   0.794  0.0409  1.1862  1.4188
  875SOL     OW 2623   2.286   1.480   1.436  0.2889 -0.6179 -0.2026
  875SOL    HW1 2624   2.344   1.528   1.511  0.6473  1.7434  0.5228
  875SOL    HW2 2625   2.328   1.493   1.344  1.8875 -0.6073 -0.5010
  876SOL     OW 2626   0.084   2.238   2.691 -0.2522 -0.1319 -0.8041
  876SOL    HW1 2627   0.119   2.145   2.732  0.7964  3.4239 -0.1286
  876SOL    HW2 2628   0.136   2.321   2.728 -1.4873 -0.2061  1.2205
  877SOL     OW 2629   2.873   2.693   0.561 -0.3337  0.1243  0.7604
  877SOL    HW1 2630   2.834   2.771   0.614  1.4682 -1.8220 -1.0057
  877SOL    HW2 2631   2.932   2.630   0.622  0.3986 -0.4483  2.4086
  878SOL     OW 2632   2.822   1.591   2.183  0.1860  0.3397 -0.0964
  878SOL    HW1 2633   2.919   1.576   2.209 -1.4548 -0.0668  0.1868
  878SOL    HW2 2634   2.773   1.661   2.240  2.3120  1.1364  0.9830
  879SOL     OW 2635   2.366   0.034   1.142  0.0499 -0.0324 -0.2579
  879SOL    HW1 2636   2.424  -0.045   1.178  0.2538 -0.0579  1.9996
  879SOL    HW2 2637   2.280   0.012   1.088 -0.2851  1.2755  0.1227
  880SOL     OW 2638   0.681   0.487   2.232  0.4261  0.0357 -0.2648
  880SOL    HW1 2639   0.610   0.442   2.294 -1.8376  0.1217  0.8388
  880SOL    HW2 2640   0.714   0.429   2.153  1.2881 -0.2874 -0.6200
  881SOL     OW 2641   0.870   0.079   0.495 -0.2457 -0.1839  0.0836
  881SOL    HW1 2642   0.905  -0.014   0.526  1.4443  0.2647  1.3201
  881SOL    HW2 2643   0.779   0.064   0.449  1.8496  2.7475  2.4800
  882SOL     OW 2644   2.707   1.675   1.624 -0.4594 -0.3632 -0.6951
  882SOL    HW1 2645   2.795   1.629   1.594 -0.9932 -3.5266  0.8759
  882SOL    HW2 2646   2.700   1.697   1.729  1.2985  0.7835 -0.2730
  883SOL     OW 2647   0.865   0.598   0.964  0.2100 -0.5330 -0.0921
  883SOL    HW1 2648   0.901   0.694   0.978  0.6052  1.2260 -0.5668
  883SOL    HW2 2649   0.889   0.540   1.043  1.0290  0.0652 -0.9003
  884SOL     OW 2650   1.187   1.783   1.142 -0.1035 -0.0355 -0.2237
  884SOL    HW1 2651   1.181   1.736   1.049  0.1347  0.5664 -0.3470
  884SOL    HW2 2652   1.117   1.853   1.148  3.4536 -1.1301  1.8854
  885SOL     OW 2653   2.348   1.816   2.296  0.1552 -0.0557  0.2510
  885SOL    HW1 2654   2.270   1.764   2.340  0.7775 -0.7358  1.0314
  885SOL    HW2 2655   2.329   1.918   2.281 -0.6218  4.7051 -2.2965
  886SOL     OW 2656   2.590   0.457   1.815  0.3876  0.5869  0.0287
  886SOL    HW1 2657   2.635   0.384   1.874  0.8960  2.2039  0.4347
  886SOL    HW2 2658   2.651   0.529   1.771 -1.4759  0.0418 -1.5650
  887SOL     OW 2659   0.132   2.033   1.241  0.4609  0.3053 -0.3356
  887SOL    HW1 2660   0.051   2.033   1.178  1.1735  0.3293 -2.2965
  887SOL    HW2 2661   0.175   2.127   1.250  1.8792  2.6080  2.7110
  888SOL     OW 2662   0.548   1.325   1.559 -0.3942 -0.4702 -0.3455
  888SOL    HW1 2663   0.598   1.351   1.472  0.9279 -1.4680  1.1502
  888SOL    HW2 2664   0.497   1.237   1.547  3.7831  0.9639 -0.3394
  889SOL     OW 2665   0.826   2.552   2.194 -0.2604 -0.2643  0.0195
  889SOL    HW1 2666   0.766   2.470   2.221 -1.3929  2.0069  0.7616
  889SOL    HW2 2667   0.894   2.523   2.120 -0.2196  2.8656 -0.1993
  890SOL     OW 2668   2.372   2.472   0.215 -0.2641  0.2290  0.1111
  890SOL    HW1 2669   2.388   2.547   0.146 -0.0671  1.3917  0.5072
  890SOL    HW2 2670   2.325   2.507   0.300 -0.8984  0.2907  1.8029
  891SOL     OW 2671   2.605   1.636   0.763 -0.1286 -0.3155 -0.2468
  891SOL    HW1 2672   2.657   1.581   0.831 -1.4232 -3.7052 -1.7772
  891SOL    HW2 2673   2.506   1.603   0.744 -0.3591 -1.7323  0.1270
  892SOL     OW 2674   0.342   0.243   2.145 -0.5017 -0.3490 -0.0173
  892SOL    HW1 2675   0.382   0.256   2.050 -4.1059  0.6709  0.8538
  892SOL    HW2 2676   0.410   0.262   2.223  0.0384 -0.1706  0.3000
  893SOL     OW 2677   1.677   0.244   2.744 -0.3509 -0.3707  0.2670
  893SOL    HW1 2678   1.768   0.297   2.736  1.1803  0.6523  2.4699
  893SOL    HW2 2679   1.598   0.310   2.744  0.4119  0.3553  1.5520
  894SOL     OW 2680   2.196   2.018   0.017  0.2810  0.1937  0.1267
  894SOL    HW1 2681   2.177   1.963  -0.068  0.0449  1.4544  4.1066
  894SOL    HW2 2682   2.218   1.961   0.100  0.3104 -1.8477  0.6584
  895SOL     OW 2683   2.856   1.421   0.880  0.3092 -0.0849 -0.3228
  895SOL    HW1 2684   2.926   1.359   0.926 -1.1692  0.2340  0.0563
  895SOL    HW2 2685   2.859   1.513   0.919  0.5316  0.7302 -0.1257
  896SOL     OW 2686   1.805   1.864   1.195 -0.1891  0.2009 -0.7282
  896SOL    HW1 2687   1.869   1.850   1.116  1.2319  0.5550  0.0680
  896SOL    HW2 2688   1.729   1.934   1.181 -1.2776  0.2925 -0.3439
  897SOL     OW 2689   0.277   0.551   3.095  0.1385 -0.1191 -0.4022
  897SOL    HW1 2690   0.224   0.619   3.039 -3.7209 -0.6624 -1.1481
  897SOL    HW2 2691   0.378   0.559   3.080  2.0895 -1.9279  0.6214
  898SOL     OW 2692   0.585   2.861   1.107  0.2530 -0.0188  0.2720
  898SOL    HW1 2693   0.537   2.953   1.136  0.3237  1.1619 -1.4694
  898SOL    HW2 2694   0.654   2.833   1.182  1.4220  1.8174  0.5111
  899SOL     OW 2695   2.760   0.889   1.279 -0.4647  0.1042 -0.1043
  899SOL    HW1 2696   2.700   0.887   1.192  0.4982 -2.5856  0.1557
  899SOL    HW2 2697   2.852   0.939   1.273  0.2085 -1.9182 -0.1153
  900SOL     OW 2698   1.006   2.558   2.380 -0.3610 -0.2838  0.6543
  900SOL    HW1 2699   0.930   2.556   2.304  1.0421 -0.8182  0.3974
  900SOL    HW2 2700   0.977   2.508   2.465  0.3008 -2.1429  0.4913
  901SOL     OW 2701   1.893   2.356   1.377 -0.2990  0.2822  0.6051
  901SOL    HW1 2702   1.883   2.331   1.275 -2.0224  0.9472 -1.1148
  901SOL    HW2 2703   1.989   2.333   1.415  1.7434 -0.2001  0.4465
  902SOL     OW 2704   2.523   1.665   1.447  0.5769 -0.0060 -0.0536
  902SOL    HW1 2705   2.572   1.659   1.538 -1.1602 -2.0426 -0.0112
  902SOL    HW2 2706   2.581   1.632   1.372  0.4853  0.7233  1.8034
  903SOL     OW 2707   0.266   2.483   1.962  0.6864 -0.1207 -0.1451
  903SOL    HW1 2708   0.199   2.421   1.911 -0.4153  1.9906  2.9188
  903SOL    HW2 2709   0.300   2.567   1.911 -1.3393  3.1064  0.8163
  904SOL     OW 2710   2.078   0.711   2.456  0.0095 -0.7285 -0.1656
  904SOL    HW1 2711   2.013   0.695   2.533  0.7818 -1.2992 -0.6605
  904SOL    HW2 2712   2.028   0.721   2.362 -0.9260  1.2776 -0.8844
  905SOL     OW 2713   2.809   0.062   2.580 -0.5884 -0.1517  0.4452
  905SOL    HW1 2714   2.889   0.000   2.552  2.2272  3.1650 -0.7087
  905SOL    HW2 2715   2.820   0.157   2.546 -2.6258 -0.9231  0.4279
  906SOL     OW 2716   0.139   1.784   1.858  0.3347  0.2532 -0.1973
  906SOL    HW1 2717   0.075   1.791   1.775 -3.0046  0.2028  2.1919
  906SOL    HW2 2718   0.238   1.773   1.835  1.8927  2.0167 -0.4080
  907SOL     OW 2719   0.141   2.442   0.995  0.3545  0.6042 -0.0301
  907SOL    HW1 2720   0.237   2.425   0.954 -1.4591  2.0802  0.2687
  907SOL    HW2 2721   0.079   2.358   0.996  2.6036  1.5336 -1.0520
  908SOL     OW 2722   2.673   2.950   0.388 -0.4794  0.1502  0.4277
  908SOL    HW1 2723   2.650   2.996   0.298 -0.0786  1.4170  1.3731
  908SOL    HW2 2724   2.769   2.903   0.392  0.9812  1.4291 -0.1831
  909SOL     OW 2725   0.773   1.011   2.701  0.1180 -0.7060  0.5745
  909SOL    HW1 2726   0.702   0.946   2.659  1.3307 -1.6075  2.6240
  909SOL    HW2 2727   0.857   1.020   2.634 -0.4912 -2.9439 -0.2059
  910SOL     OW 2728   1.744   1.844   2.148 -0.1280  0.7609  0.0549
  910SOL    HW1 2729   1.794   1.879   2.060 -0.6836 -0.4646 -0.2187
  910SOL    HW2 2730   1.652   1.894   2.172 -0.0396 -1.0042 -0.4419
  911SOL     OW 2731   1.873   2.925   1.577  0.0575  0.2624  0.5454
  911SOL    HW1 2732   1.961   2.885   1.542  0.4026 -1.1626 -0.6597
  911SOL    HW2 2733   1.835   2.870   1.655 -0.5276  0.8636 -1.0732
  912SOL     OW 2734   2.905   0.984   0.738  0.3674 -0.1954 -0.3105
  912SOL    HW1 2735   2.911   0.972   0.841  1.1857 -1.2321  1.0191
  912SOL    HW2 2736   2.865   1.075   0.712 -0.0163 -0.0259  3.6711
  913SOL     OW 2737   2.547   1.294   1.515  0.0612 -0.0159  0.5642
  913SOL    HW1 2738   2.563   1.194   1.504 -0.1276  2.3916  1.2596
  913SOL    HW2 2739   2.589   1.351   1.441  2.9500  0.6356 -0.2093
  914SOL     OW 2740   2.869   0.562   1.225 -0.8329 -0.3873 -0.2662
  914SOL    HW1 2741   2.921   0.472   1.232 -1.8396  2.1451  1.2783
  914SOL    HW2 2742   2.799   0.561   1.301 -0.0776  1.1848  0.0069
  915SOL     OW 2743   1.238   0.780   1.059  0.1150  0.4733 -0.4308
  915SOL    HW1 2744   1.272   0.767   1.152  0.5420 -2.9985 -0.7271
  915SOL    HW2 2745   1.135   0.779   1.050  2.2317 -1.5106 -3.9290
  916SOL     OW 2746   0.616   0.019   0.669  1.0847  0.0614  0.1097
  916SOL    HW1 2747   0.651   0.101   0.721  0.6166  0.6040  0.8388
  916SOL    HW2 2748   0.611   0.033   0.566  1.7084  0.6115  1.3172
  917SOL     OW 2749   2.821   2.619   1.968 -0.6842  0.3314  0.4145
  917SOL    HW1 2750   2.716   2.630   1.964 -2.3818  2.4059  2.3220
  917SOL    HW2 2751   2.864   2.701   1.925 -0.0426 -1.1875 -3.9967
  918SOL     OW 2752   1.060   2.230   2.967  0.4040  0.1592  0.1017
  918SOL    HW1 2753   1.019   2.235   3.064 -0.3893  2.1636 -0.8408
  918SOL    HW2 2754   1.094   2.131   2.949 -2.2731 -0.9919 -2.2467
  919SOL     OW 2755   0.873   1.653   2.827  0.2333 -0.0352  0.3005
  919SOL    HW1 2756   0.918   1.717   2.761 -0.2531 -2.5448  1.4153
  919SOL    HW2 2757   0.840   1.568   2.783  1.1469  0.1199  0.2151
  920SOL     OW 2758   1.244   1.902   2.480  0.5122  0.5708 -0.1387
  920SOL    HW1 2759   1.266   1.893   2.379 -1.6877 -0.4349  2.2342
  920SOL    HW2 2760   1.261   1.811   2.531  1.0833  0.2020  0.0986
  921SOL     OW 2761   1.093   0.032   2.624  0.1807  0.2460  0.2454
  921SOL    HW1 2762   1.076   0.036   2.521 -0.1691  0.6920  0.5857
  921SOL    HW2 2763   1.028  -0.031   2.667  0.8301  5.5799 -1.4974
  922SOL     OW 2764   2.188   2.415   2.815 -0.1359 -0.1133  0.6354
  922SOL    HW1 2765   2.204   2.315   2.812  1.6857  1.5285  0.7678
  922SOL    HW2 2766   2.134   2.453   2.738 -0.1101  0.9530 -0.9073
  923SOL     OW 2767   1.232   2.694   0.247 -0.0120  1.4900 -0.2292
  923SOL    HW1 2768   1.304   2.730   0.311  0.3181  0.7026 -0.0402
  923SOL    HW2 2769   1.247   2.597   0.219 -0.2184  1.1144 -2.3251
  924SOL     OW 2770   2.889   1.512   0.080 -0.4360  0.1006 -0.5514
  924SOL    HW1 2771   2.796   1.526   0.039 -1.0527  1.5935 -1.0557
  924SOL    HW2 2772   2.969   1.550   0.029 -1.1258 -2.1117 -0.3331
  925SOL     OW 2773   0.045   2.979   1.506 -0.2882 -0.3065 -0.0290
  925SOL    HW1 2774  -0.045   2.980   1.556 -2.6263  3.0869 -3.8334
  925SOL    HW2 2775   0.036   2.927   1.415 -0.7458  2.8096 -0.7361
  926SOL     OW 2776   1.343   2.819   1.249  0.3171 -0.0094  0.5348
  926SOL    HW1 2777   1.417   2.813   1.176  0.0148  0.5307 -2.6827
  926SOL    HW2 2778   1.356   2.900   1.312 -1.0766  1.7347 -0.8879
  927SOL     OW 2779   0.336   2.671   1.773 -0.2517 -0.0010  0.5449
  927SOL    HW1 2780   0.293   2.609   1.704 -0.2998  0.0930  0.5706
  927SOL    HW2 2781   0.296   2.769   1.761 -1.6575  0.1053 -0.5376
  928SOL     OW 2782   1.545   2.036   2.217  0.2574 -0.5233 -0.6574
  928SOL    HW1 2783   1.570   2.127   2.170 -1.8589  0.8908 -0.8811
  928SOL    HW2 2784   1.438   2.019   2.208  1.1705 -0.6789 -0.1856
  929SOL     OW 2785   2.434   2.477   2.882 -0.2870  0.0765 -0.4963
  929SOL    HW1 2786   2.334   2.456   2.869 -2.6623 -0.7338  1.8058
  929SOL    HW2 2787   2.487   2.474   2.792 -1.1093 -0.8448  0.8031
  930SOL     OW 2788   2.181   1.960   1.046  0.2561  0.3283  0.0952
  930SOL    HW1 2789   2.154   1.920   1.138  2.7384 -2.1516  0.1196
  930SOL    HW2 2790   2.237   2.048   1.050 -0.5466 -1.2674  0.3804
  931SOL     OW 2791   0.556   1.708   2.716 -0.2257  0.0801 -0.1161
  931SOL    HW1 2792   0.590   1.788   2.774 -3.3655  0.5425 -0.3747
  931SOL    HW2 2793   0.609   1.620   2.702 -1.5734  0.0238 -1.9843
  932SOL     OW 2794   0.411   0.098   2.959 -0.4358  0.4769 -0.3647
  932SOL    HW1 2795   0.509   0.087   2.915 -0.6680 -0.8015 -0.2913
  932SOL    HW2 2796   0.387   0.031   3.030  1.0351  0.5433  0.0098
  933SOL     OW 2797   1.039   0.747   3.029 -0.3017 -0.8839 -0.0767
  933SOL    HW1 2798   1.078   0.787   3.116  2.6844 -0.2231  0.0677
  933SOL    HW2 2799   1.008   0.820   2.959 -1.9251 -0.2796 -0.3679
  934SOL     OW 2800   0.867   2.956   2.655  0.5631  0.8480  0.0315
  934SOL    HW1 2801   0.867   2.900   2.568  1.2232  1.7511  1.0097
  934SOL    HW2 2802   0.885   2.891   2.731  0.6362  0.3095 -0.8693
  935SOL     OW 2803   0.017   0.557   0.835 -0.0004 -0.1094 -0.2013
  935SOL    HW1 2804   0.019   0.506   0.744  2.9257  1.2026  2.1401
  935SOL    HW2 2805  -0.063   0.618   0.851 -2.2966 -0.1568  0.9397
  936SOL     OW 2806   1.104   2.881   0.089  0.6114  0.1249  0.3503
  936SOL    HW1 2807   1.162   2.904   0.010  1.2416 -3.2742 -2.3247
  936SOL    HW2 2808   1.146   2.803   0.143  0.8944  1.0706 -0.5961
  937SOL     OW 2809   1.969   2.641   2.111  0.2200  0.7022  0.1033
  937SOL    HW1 2810   1.865   2.654   2.141  0.0153  0.2223  0.7324
  937SOL    HW2 2811   1.993   2.692   2.024  3.0065  0.5258  1.7432
  938SOL     OW 2812   2.774   2.054   1.499 -0.0392  0.3068 -0.7401
  938SOL    HW1 2813   2.720   2.144   1.521 -1.7508  0.0848  1.3210
  938SOL    HW2 2814   2.865   2.054   1.552  1.0192 -2.1216  2.6734
  939SOL     OW 2815   2.816   1.220   2.482  0.4793  0.3964  0.2840
  939SOL    HW1 2816   2.862   1.158   2.418 -3.9738  0.1046 -0.7537
  939SOL    HW2 2817   2.809   1.180   2.577  0.1325 -3.1333 -0.4541
  940SOL     OW 2818   0.994   0.467   2.730 -0.2828  0.0641 -0.5433
  940SOL    HW1 2819   1.052   0.383   2.756 -3.2231 -3.1794 -2.7348
  940SOL    HW2 2820   0.902   0.438   2.692 -0.6659 -4.2318  1.3557
  941SOL     OW 2821   0.078   2.832   2.263  0.0164  0.2840 -0.6496
  941SOL    HW1 2822   0.099   2.731   2.259  1.0898 -4.1269  1.2751
  941SOL    HW2 2823   0.117   2.885   2.338 -1.4856  0.3832 -1.9117
  942SOL     OW 2824   0.054   0.110   2.467 -0.1365  0.0995  0.1728
  942SOL    HW1 2825   0.077   0.168   2.551 -0.4673  0.2666 -0.2765
  942SOL    HW2 2826   0.084   0.158   2.378  1.5975 -0.2328  3.8075
  943SOL     OW 2827   2.102   1.686   2.373 -0.1817 -0.9080 -0.8636
  943SOL    HW1 2828   2.087   1.602   2.314  1.5559  0.6388  2.0940
  943SOL    HW2 2829   2.077   1.666   2.468  1.3888  1.2093 -0.9475
  944SOL     OW 2830   2.146   2.366   1.472 -0.3664  0.0752 -0.0645
  944SOL    HW1 2831   2.207   2.438   1.522 -0.1216 -0.3936  3.5191
  944SOL    HW2 2832   2.127   2.286   1.540  1.5148 -0.7205  0.3214
  945SOL     OW 2833   0.717   1.495   0.322 -0.1592 -0.0771  0.6065
  945SOL    HW1 2834   0.709   1.541   0.230 -1.5191 -0.9321  1.5373
  945SOL    HW2 2835   0.752   1.397   0.313 -0.0068  2.9128 -1.4834
  946SOL     OW 2836   0.398   0.931   2.483  0.5118  0.3521  0.3324
  946SOL    HW1 2837   0.315   0.879   2.450  0.2133 -1.3719  0.8983
  946SOL    HW2 2838   0.371   1.025   2.517 -1.9133 -1.7549 -1.7080
  947SOL     OW 2839   1.550   0.475   0.049  0.0275  0.6377 -0.1405
  947SOL    HW1 2840   1.508   0.526  -0.035 -0.8558 -1.2370  0.7293
  947SOL    HW2 2841   1.496   0.401   0.082 -0.9481  2.6864  2.2733
  948SOL     OW 2842   1.974   3.059   2.176  0.4071 -0.1378  0.1713
  948SOL    HW1 2843   1.987   3.031   2.074  0.9540 -0.4317 -0.5459
  948SOL    HW2 2844   1.914   2.989   2.218  0.3417 -1.7463  0.3961
  949SOL     OW 2845   0.589   2.485   0.542  0.3887  0.0554 -0.2295
  949SOL    HW1 2846   0.602   2.586   0.508  0.1435  1.7605 -2.2691
  949SOL    HW2 2847   0.632   2.481   0.639  0.1627 -0.7265  0.7699
  950SOL     OW 2848   0.204   2.138   3.063  0.2020 -0.1792  0.3922
  950SOL    HW1 2849   0.110   2.187   3.059 -0.0331 -2.2741 -0.4177
  950SOL    HW2 2850   0.230   2.108   2.968  0.7554  1.0631  0.7805
  951SOL     OW 2851   1.204   2.778   2.687  0.0439  0.0407 -1.0068
  951SOL    HW1 2852   1.192   2.799   2.584 -0.2203  1.6315 -2.2847
  951SOL    HW2 2853   1.133   2.822   2.746 -1.0849  0.4019 -1.4742
  952SOL     OW 2854   0.061   1.687   0.448  0.8034  0.3083 -0.1224
  952SOL    HW1 2855   0.102   1.778   0.470  2.6254 -0.6029 -4.0704
  952SOL    HW2 2856   0.052   1.621   0.531 -2.2247 -4.0227  1.3656
  953SOL     OW 2857   2.481   1.773   0.239  0.6293 -0.2330 -0.6639
  953SOL    HW1 2858   2.499   1.675   0.227  1.7470  2.6768 -2.6840
  953SOL    HW2 2859   2.487   1.827   0.147  0.4505  1.3955 -2.6953
  954SOL     OW 2860   2.174   0.540   0.960  0.1152 -0.0403  0.1818
  954SOL    HW1 2861   2.176   0.563   0.859 -0.1809 -0.5868  1.6227
  954SOL    HW2 2862   2.272   0.542   0.998  0.1932  0.0571 -0.2039
  955SOL     OW 2863   0.183   2.634   1.297  0.4990 -0.5435  0.2745
  955SOL    HW1 2864   0.094   2.693   1.284 -0.2780  2.6321  1.4110
  955SOL    HW2 2865   0.237   2.625   1.209 -1.2333 -0.7944  1.5480
  956SOL     OW 2866   2.756   2.468   2.426  0.3169  0.1353 -0.2625
  956SOL    HW1 2867   2.787   2.365   2.421  0.7704 -0.1619  0.5055
  956SOL    HW2 2868   2.768   2.509   2.334  1.0771 -1.2190 -2.4211
  957SOL     OW 2869   1.576   2.069   2.786  0.1651 -0.0897 -0.3053
  957SOL    HW1 2870   1.542   1.974   2.763 -1.8794  1.2194 -2.8381
  957SOL    HW2 2871   1.650   2.089   2.717 -1.6365 -0.7896 -0.4271
  958SOL     OW 2872   2.686   2.298   2.987  0.5076  1.2405 -0.1267
  958SOL    HW1 2873   2.590   2.337   2.977  0.1483  0.4195 -0.7050
  958SOL    HW2 2874   2.701   2.236   3.073 -0.3015 -1.7030 -0.8462
  959SOL     OW 2875   0.232   2.808   0.054 -0.5985 -0.4021 -0.1748
  959SOL    HW1 2876   0.135   2.784   0.031 -0.0555 -0.9702 -0.1143
  959SOL    HW2 2877   0.267   2.748   0.132 -0.7028 -0.6012  0.4638
  960SOL     OW 2878   1.953   0.406   1.907 -0.1728 -0.1182 -0.4033
  960SOL    HW1 2879   1.904   0.487   1.867  0.2842 -1.8705 -1.8166
  960SOL    HW2 2880   2.002   0.422   1.999  0.2754  1.6424  1.1721
  961SOL     OW 2881   2.573   1.821   1.030 -0.6641  0.4878 -0.0035
  961SOL    HW1 2882   2.579   1.905   0.973  1.6417  0.9522 -0.2608
  961SOL    HW2 2883   2.546   1.844   1.124 -1.0131  1.8085 -1.5224
  962SOL     OW 2884   1.274   0.892   0.053 -0.0447  0.5251 -0.0725
  962SOL    HW1 2885   1.261   0.965  -0.016 -1.9382 -2.1752 -1.0943
  962SOL    HW2 2886   1.267   0.930   0.151 -0.4562 -0.4940 -0.0545
  963SOL     OW 2887   2.205   2.551   1.876 -0.5847  0.2213 -0.2600
  963SOL    HW1 2888   2.204   2.448   1.898  2.3089 -0.4326 -0.8167
  963SOL    HW2 2889   2.228   2.616   1.961  2.8433  2.4539  1.6692
  964SOL     OW 2890   2.389   0.385   1.654  0.1919  0.2531 -0.0406
  964SOL    HW1 2891   2.467   0.427   1.714  1.3806 -1.2518  2.7225
  964SOL    HW2 2892   2.407   0.390   1.551 -1.2791  1.5757 -0.6766
  965SOL     OW 2893   2.590   3.055   0.159 -0.8469 -0.1827  0.0678
  965SOL    HW1 2894   2.657   3.030   0.084  0.1557  0.5300  1.1822
  965SOL    HW2 2895   2.501   3.077   0.118  3.1995 -1.2550  2.8365
  966SOL     OW 2896   2.478   2.485   2.204  0.1937  0.1053  0.0380
  966SOL    HW1 2897   2.414   2.494   2.284 -1.8460 -0.4216 -1.0238
  966SOL    HW2 2898   2.506   2.571   2.158 -2.2980 -1.3134 -0.7074
  967SOL     OW 2899   2.817   2.767   2.465  0.3198  0.5133 -0.6835
  967SOL    HW1 2900   2.844   2.703   2.386  0.0460  2.0528 -0.8142
  967SOL    HW2 2901   2.891   2.835   2.480 -1.6387 -1.2369  1.7104
  968SOL     OW 2902   1.950   1.048   2.622  0.4068  0.1690  0.6329
  968SOL    HW1 2903   1.861   1.096   2.577 -2.0532  0.2376 -1.3875
  968SOL    HW2 2904   1.984   0.975   2.555 -0.4476  1.7056  0.1928
  969SOL     OW 2905   2.759   2.450   1.090 -0.0660 -0.5682 -0.3936
  969SOL    HW1 2906   2.714   2.437   0.996 -1.6470 -0.4956 -0.5148
  969SOL    HW2 2907   2.780   2.362   1.138  1.7258  0.8377 -0.6996
  970SOL     OW 2908   1.062   2.109   1.786  0.1999  0.4336 -0.6890
  970SOL    HW1 2909   0.983   2.110   1.722  1.2965 -0.5767 -1.7886
  970SOL    HW2 2910   1.038   2.149   1.878  2.3885 -0.0979 -1.2634
  971SOL     OW 2911   2.844   2.068   1.857 -0.0298  0.4887  0.2013
  971SOL    HW1 2912   2.843   2.172   1.874 -1.9358 -0.5071 -2.1129
  971SOL    HW2 2913   2.896   2.055   1.770  0.4073  3.1949  1.8594
  972SOL     OW 2914   1.956   2.422   0.166 -0.4210  0.0390 -0.1539
  972SOL    HW1 2915   1.975   2.338   0.106 -1.7656 -2.6434  2.5588
  972SOL    HW2 2916   1.966   2.406   0.267  0.7144 -0.6349  1.3865
  973SOL     OW 2917   1.312   1.068   1.868  0.1769 -0.0053 -0.1634
  973SOL    HW1 2918   1.250   1.013   1.806 -0.5365 -0.3879 -1.0447
  973SOL    HW2 2919   1.294   1.166   1.859  1.8720 -0.3406  0.4856
  974SOL     OW 2920   1.633   0.555   1.984 -0.2945 -0.1405  0.2581
  974SOL    HW1 2921   1.717   0.582   1.933  1.1518 -0.3855  0.7822
  974SOL    HW2 2922   1.549   0.611   1.969 -0.2835  2.2345 -1.0659
  975SOL     OW 2923   2.346   3.063   0.043  0.3829  0.0724  0.5898
  975SOL    HW1 2924   2.304   2.966   0.062 -3.2788 -1.0041  0.1524
  975SOL    HW2 2925   2.383   3.072  -0.054 -0.1166  0.4259 -0.5448
  976SOL     OW 2926   1.923   2.838   2.327 -0.0964 -0.1369  0.6116
  976SOL    HW1 2927   1.841   2.809   2.275  1.2079 -0.6916 -1.1563
  976SOL    HW2 2928   1.947   2.775   2.405  0.8537  1.9435  0.0606
  977SOL     OW 2929   0.462   0.713   1.040  0.0372 -0.0850 -0.1248
  977SOL    HW1 2930   0.386   0.672   0.984  1.9658  1.7392  0.9841
  977SOL    HW2 2931   0.553   0.704   0.995 -0.1672  2.6501 -2.2694
   3.10000   3.10000   3.10000
