1000 SPC/Fw water molecules t=   0.08000 step= 80
 2931
    1SOL     OW    1   2.516   0.394   2.589  0.1829 -0.7793  0.1402
    1SOL    HW1    2   2.479   0.294   2.574 -0.0086 -2.7067  0.8310
    1SOL    HW2    3   2.587   0.396   2.665 -0.4619 -0.3017  2.8906
    2SOL     OW    4   2.730   3.006   1.433  0.3487  0.4285 -0.1408
    2SOL    HW1    5   2.817   3.042   1.395 -1.8440  2.0442 -0.0980
    2SOL    HW2    6   2.674   3.084   1.481 -0.5943  1.4937 -0.8021
    3SOL     OW    7   2.702   2.622   0.427 -0.5165 -0.4902  0.0929
    3SOL    HW1    8   2.624   2.560   0.453 -1.0850 -0.8364  0.9112
    3SOL    HW2    9   2.781   2.632   0.497  1.5969 -0.6618  0.9677
    4SOL     OW   10   1.316   1.440   2.326  0.0453  0.2174 -0.2372
    4SOL    HW1   11   1.267   1.527   2.329  1.2893 -1.0284  1.4701
    4SOL    HW2   12   1.297   1.378   2.406  1.8084  0.8032 -2.4514
    5SOL     OW   13   1.191   1.489   3.053  0.3265  0.2137  0.6198
    5SOL    HW1   14   1.221   1.582   3.084 -1.3839  0.4556 -0.8061
    5SOL    HW2   15   1.092   1.475   3.061  0.1319 -0.6236 -1.3872
    6SOL     OW   16   0.145   1.882   2.949 -0.2982 -0.6647  0.1303
    6SOL    HW1   17   0.173   1.950   3.022 -2.0997 -1.5445  1.5200
    6SOL    HW2   18   0.088   1.810   2.993  0.9524  2.5775 -1.8266
    7SOL     OW   19   2.602   0.820   1.181  0.1394 -0.4469 -0.2318
    7SOL    HW1   20   2.559   0.755   1.247 -2.1921  1.1270 -2.7365
    7SOL    HW2   21   2.583   0.780   1.087  1.5568 -3.1902 -0.1125
    8SOL     OW   22   0.448   0.679   1.559  0.2365 -0.0834 -0.5542
    8SOL    HW1   23   0.492   0.598   1.604 -1.6344  0.8499 -1.5974
    8SOL    HW2   24   0.445   0.656   1.461 -1.3562 -1.1380 -0.3071
    9SOL     OW   25   1.143   0.899   2.269  0.0699 -0.0678  0.0831
    9SOL    HW1   26   1.192   0.978   2.224  0.5421 -0.4929  0.9507
    9SOL    HW2   27   1.065   0.863   2.210  3.1339  1.8232  1.2979
   10SOL     OW   28   0.618   1.365   1.315 -0.2734 -0.3695 -0.5190
   10SOL    HW1   29   0.558   1.383   1.234 -1.1449 -0.1026  4.2633
   10SOL    HW2   30   0.717   1.404   1.313  1.4124  1.0308 -2.4592
   11SOL     OW   31   2.314   2.555   0.910 -0.5461  0.1023 -0.0466
   11SOL    HW1   32   2.350   2.605   0.995  2.2334  1.6450  0.1083
   11SOL    HW2   33   2.338   2.454   0.913  0.4804  2.9067  1.8010
   12SOL     OW   34   1.409   0.899   0.486  0.0758 -0.2681  0.1460
   12SOL    HW1   35   1.433   0.948   0.396 -3.3793  0.7040 -2.9278
   12SOL    HW2   36   1.367   0.805   0.461 -1.1708 -1.5602  0.0340
   13SOL     OW   37   2.449   0.667   1.778  0.1711 -0.5570  0.1921
   13SOL    HW1   38   2.353   0.657   1.818 -0.6837 -0.3893 -1.6291
   13SOL    HW2   39   2.460   0.614   1.689  1.9725 -1.5760 -1.7383
   14SOL     OW   40   1.797   0.014   0.542  0.4071 -0.5846  0.2043
   14SOL    HW1   41   1.698   0.002   0.517  1.2626  1.1344  0.0672
   14SOL    HW2   42   1.810   0.050   0.637  0.5443 -1.8386 -1.0915
   15SOL     OW   43   1.966   2.056   2.810 -0.0081  0.1088  0.2954
   15SOL    HW1   44   1.903   2.105   2.872  0.9652  0.9055 -0.5343
   15SOL    HW2   45   1.911   1.994   2.744 -2.4513 -0.1653 -0.0840
   16SOL     OW   46   1.562   1.681   0.024 -0.1813  0.9972  0.2910
   16SOL    HW1   47   1.588   1.597  -0.025 -1.5406 -0.3462  2.7098
   16SOL    HW2   48   1.590   1.675   0.124 -1.1212  2.5602  0.5058
   17SOL     OW   49   0.095   0.446   0.164  0.6541 -0.7816  0.5615
   17SOL    HW1   50   0.175   0.465   0.095  2.3555 -2.8098 -0.0526
   17SOL    HW2   51   0.005   0.458   0.107 -0.6034 -0.8195 -0.8306
   18SOL     OW   52   1.094   2.888   2.156  0.4412  0.3148  0.1684
   18SOL    HW1   53   1.027   2.848   2.082 -1.5611 -0.5275  0.3075
   18SOL    HW2   54   1.183   2.919   2.114 -0.5892 -0.9051 -0.2168
   19SOL     OW   55   0.588   1.004   1.955 -0.2062 -0.2955 -0.5106
   19SOL    HW1   56   0.515   1.022   2.027 -0.0770  0.8225  0.9638
   19SOL    HW2   57   0.625   0.906   1.953 -0.8654 -2.9141  3.1163
   20SOL     OW   58   0.267   2.746   0.850  0.1312  0.6040  0.0092
   20SOL    HW1   59   0.179   2.798   0.835 -1.7236  0.6471 -0.2080
   20SOL    HW2   60   0.321   2.722   0.764 -0.0361  1.4727 -1.6933
   21SOL     OW   61   2.830   0.211   2.147 -0.1885 -0.0702  0.2746
   21SOL    HW1   62   2.891   0.164   2.079 -1.1648 -2.6364  2.5744
   21SOL    HW2   63   2.832   0.172   2.239 -2.3151 -0.1330 -0.5627
   22SOL     OW   64   2.351   0.195   0.074  0.3224  0.7083 -0.2034
   22SOL    HW1   65   2.350   0.088   0.056 -2.0674 -0.3880  1.1926
   22SOL    HW2   66   2.259   0.241   0.043 -2.8579 -0.5701 -0.7930
   23SOL     OW   67   2.761   0.663   0.694  0.0913  0.0071  0.1751
   23SOL    HW1   68   2.753   0.559   0.669  3.8588 -0.1421 -0.2712
   23SOL    HW2   69   2.764   0.726   0.610  1.1056 -0.6696  0.5129
   24SOL     OW   70   0.155   1.884   0.451  0.4383  0.4219  0.0884
   24SOL    HW1   71   0.059   1.890   0.416  1.6834 -0.2956  4.3340
   24SOL    HW2   72   0.226   1.891   0.378  0.2813  0.5622  0.4059
   25SOL     OW   73   2.262   0.510   0.187  0.1649 -0.4331 -0.0342
   25SOL    HW1   74   2.333   0.475   0.244 -0.7264  0.9368 -5.1064
   25SOL    HW2   75   2.260   0.468   0.097 -0.4127  2.2218  1.3275
   26SOL     OW   76   2.558   2.171   2.068  0.5694  0.3626  0.1403
   26SOL    HW1   77   2.611   2.233   2.137  0.6977  0.5296  1.6317
   26SOL    HW2   78   2.619   2.104   2.017  2.9448  0.3697  2.3965
   27SOL     OW   79   0.677   2.984   0.124  0.3637 -0.0737 -0.4520
   27SOL    HW1   80   0.769   3.032   0.101  0.4564  0.6227  3.1986
   27SOL    HW2   81   0.604   2.979   0.050 -0.1998 -1.6450 -2.6621
   28SOL     OW   82   1.461   0.239   0.199  0.2908  0.0924 -0.0536
   28SOL    HW1   83   1.552   0.190   0.174 -2.6700  0.5402  0.5332
   28SOL    HW2   84   1.467   0.333   0.235  0.6245 -0.8462  1.0817
   29SOL     OW   85   2.021   0.594   0.305 -0.3696  0.6809 -0.2652
   29SOL    HW1   86   2.036   0.696   0.327 -1.1467  1.2147  0.4889
   29SOL    HW2   87   2.111   0.542   0.307  2.5704  0.3588 -0.7048
   30SOL     OW   88   0.204   2.061   0.906  0.6182  0.0632  0.2239
   30SOL    HW1   89   0.172   2.035   0.811  2.1170  2.1533  0.3275
   30SOL    HW2   90   0.133   2.086   0.973 -0.1185 -1.1301 -2.3686
   31SOL     OW   91   2.082   0.043   2.323 -0.7490  0.2474 -0.1431
   31SOL    HW1   92   2.060   0.045   2.423  0.2323  0.7839  0.3717
   31SOL    HW2   93   2.029  -0.019   2.260 -0.8634  0.6784 -0.6274
   32SOL     OW   94   2.994   0.120   0.236 -0.1954  0.1194 -0.0365
   32SOL    HW1   95   2.988   0.063   0.320 -1.5448 -0.2515  0.1583
   32SOL    HW2   96   3.066   0.073   0.172  0.3631  0.1049 -0.2577
   33SOL     OW   97   0.965   0.324   0.442 -0.2267 -0.1881 -0.1627
   33SOL    HW1   98   0.942   0.228   0.446  0.0560  2.3225 -0.2978
   33SOL    HW2   99   1.037   0.343   0.519  0.3186  1.3373  0.2992
   34SOL     OW  100   0.387   2.880   1.048  0.5360 -0.2367  0.5394
   34SOL    HW1  101   0.350   2.810   0.982  1.2446  1.6835  1.2076
   34SOL    HW2  102   0.483   2.853   1.077  0.7527 -0.6383 -0.8270
   35SOL     OW  103   0.040   3.099   1.809  0.1019  0.4173  0.3551
   35SOL    HW1  104  -0.006   3.003   1.821 -4.0745 -1.3812  0.7463
   35SOL    HW2  105   0.021   3.139   1.711  1.1938 -1.1253 -1.5369
   36SOL     OW  106   1.895   1.159   1.784  0.0697 -0.0876 -0.0715
   36SOL    HW1  107   1.957   1.106   1.715  3.1857  0.1966  0.0242
   36SOL    HW2  108   1.948   1.249   1.813  0.3858 -1.0219  1.6428
   37SOL     OW  109   1.117   0.321   1.010 -0.0436 -0.2291 -0.1112
   37SOL    HW1  110   1.132   0.356   1.106  0.6852  0.9235  1.3871
   37SOL    HW2  111   1.189   0.252   0.988 -2.6631 -1.2287 -0.9476
   38SOL     OW  112   1.147   2.712   2.358 -0.1696  0.1640  0.6473
   38SOL    HW1  113   1.074   2.660   2.400 -0.5270  1.8595 -0.0665
   38SOL    HW2  114   1.110   2.777   2.284 -0.7192 -1.4230  2.7030
   39SOL     OW  115   2.414   1.507   3.070 -0.5752 -0.2376 -0.5717
   39SOL    HW1  116   2.450   1.407   3.053  0.7579 -3.9439 -0.4335
   39SOL    HW2  117   2.361   1.509   3.159 -1.3245  1.0220  1.4251
   40SOL     OW  118   2.048   2.493   2.585 -0.1562 -0.2064 -0.8404
   40SOL    HW1  119   1.989   2.577   2.620 -0.0481  4.4456  0.5489
   40SOL    HW2  120   1.989   2.430   2.515 -2.9847 -2.7356 -1.0389
   41SOL     OW  121   2.932   0.714   2.751 -0.7325 -0.4136  0.4539
   41SOL    HW1  122   2.834   0.736   2.771 -2.0909  0.3104 -0.6149
   41SOL    HW2  123   2.947   0.621   2.720  2.1655 -0.0173  1.3108
   42SOL     OW  124   1.702   1.751   0.588  0.2245  0.2592  0.0368
   42SOL    HW1  125   1.647   1.672   0.546 -0.6680  0.5367  2.2442
   42SOL    HW2  126   1.776   1.785   0.523  1.4806 -0.8997 -1.2836
   43SOL     OW  127   0.479   1.747   1.204  0.2044  0.0171  0.0390
   43SOL    HW1  128   0.440   1.714   1.294  2.7757  0.4092 -0.0212
   43SOL    HW2  129   0.412   1.749   1.123  0.3340 -1.0094 -0.1734
   44SOL     OW  130   1.756   2.453   0.025 -0.3451  0.1958  0.0746
   44SOL    HW1  131   1.772   2.535  -0.039  0.7151  1.8214  2.6700
   44SOL    HW2  132   1.816   2.467   0.107  2.8357  3.9005 -0.8658
   45SOL     OW  133   0.379   1.882   2.541  0.4478  0.0165 -0.5866
   45SOL    HW1  134   0.305   1.878   2.462 -2.3156 -1.6575 -2.2367
   45SOL    HW2  135   0.441   1.798   2.544 -0.0293 -1.0792  2.1881
   46SOL     OW  136   1.178   0.673   0.188 -0.4659 -0.5069  0.6103
   46SOL    HW1  137   1.230   0.742   0.126 -1.0793 -0.3858 -0.2123
   46SOL    HW2  138   1.076   0.685   0.167  1.4609  1.0870 -1.4565
   47SOL     OW  139   0.233   2.436   1.590  0.3429  0.5096  0.6710
   47SOL    HW1  140   0.314   2.367   1.571 -0.8182 -0.6350 -0.3576
   47SOL    HW2  141   0.213   2.500   1.515 -0.1550  1.6407  0.2155
   48SOL     OW  142   2.630   0.549   0.097 -0.6621 -0.3063 -0.3422
   48SOL    HW1  143   2.573   0.596   0.165  2.0243 -3.1377 -2.5202
   48SOL    HW2  144   2.719   0.602   0.071 -0.7063  1.3988  3.4595
   49SOL     OW  145   0.354   0.843   1.770 -0.0348 -0.4374  0.1921
   49SOL    HW1  146   0.444   0.887   1.807  1.6385 -0.4550  0.0244
   49SOL    HW2  147   0.377   0.768   1.701 -0.5135 -1.4503 -2.3688
   50SOL     OW  148   1.733   1.087   0.286  0.9868  0.1890  0.3149
   50SOL    HW1  149   1.720   0.988   0.267  1.0198  0.0172  0.3291
   50SOL    HW2  150   1.728   1.113   0.388  0.5945 -0.6115  4.1803
   51SOL     OW  151   2.987   1.889   0.353 -0.0955  0.0667  0.4276
   51SOL    HW1  152   3.015   1.937   0.262 -0.2371  0.4492 -1.5324
   51SOL    HW2  153   2.966   1.788   0.334  2.2271 -1.8014  1.0227
   52SOL     OW  154   0.816   1.914   0.483  0.3232  0.9953  0.1844
   52SOL    HW1  155   0.764   1.987   0.532 -1.8913  0.6720  0.4878
   52SOL    HW2  156   0.848   1.837   0.552  1.0884 -1.6287  1.4604
   53SOL     OW  157   3.093   0.388   1.525 -0.4219  0.0331 -0.2619
   53SOL    HW1  158   3.077   0.374   1.628  2.2933 -0.1318  1.9867
   53SOL    HW2  159   3.097   0.485   1.498 -0.2690 -0.7790 -0.1574
   54SOL     OW  160   1.774   0.487   3.005  0.2624  0.3346 -0.1277
   54SOL    HW1  161   1.805   0.428   3.089 -0.4047  0.8653 -0.0994
   54SOL    HW2  162   1.668   0.504   3.009 -2.2140  0.0472  2.8674
   55SOL     OW  163   0.695   2.927   0.660  0.2744  0.4869  0.4595
   55SOL    HW1  164   0.666   3.012   0.706 -1.7449 -2.0363 -3.1581
   55SOL    HW2  165   0.780   2.930   0.598  2.7344 -0.3243 -1.0195
   56SOL     OW  166   0.494   1.545   3.093  0.4530 -0.2004  0.3625
   56SOL    HW1  167   0.406   1.594   3.121 -1.5455 -0.1017 -1.2078
   56SOL    HW2  168   0.481   1.476   3.012  1.5793  2.5959 -0.7738
   57SOL     OW  169   1.764   2.386   2.668  0.4985  0.1631 -0.2373
   57SOL    HW1  170   1.840   2.405   2.600 -2.3429  1.0833 -1.6558
   57SOL    HW2  171   1.684   2.328   2.635  0.0165 -2.3610  0.2427
   58SOL     OW  172   0.643   0.484   1.098  0.1223  0.3644 -0.2205
   58SOL    HW1  173   0.599   0.559   1.049 -3.4145 -1.4577  1.6072
   58SOL    HW2  174   0.593   0.392   1.106 -1.8433  0.2134  0.7468
   59SOL     OW  175   0.469   2.387   2.679 -0.1095 -0.0786 -1.1064
   59SOL    HW1  176   0.439   2.285   2.688 -2.3683 -2.7185  0.7144
   59SOL    HW2  177   0.525   2.418   2.766  0.9201  0.7152  2.8004
   60SOL     OW  178   2.324   2.173   2.253  0.0985  0.0422 -0.2185
   60SOL    HW1  179   2.402   2.193   2.186  1.7996  2.8251  0.0997
   60SOL    HW2  180   2.357   2.196   2.349  1.5524  1.5247  1.8101
   61SOL     OW  181   1.342   0.655   0.421  0.1880 -0.1645 -0.4762
   61SOL    HW1  182   1.240   0.653   0.448 -1.2878 -2.1713 -1.1930
   61SOL    HW2  183   1.356   0.625   0.321  0.0981 -2.3964 -0.5295
   62SOL     OW  184   2.717   1.889   3.090 -0.4736  0.3586  0.4377
   62SOL    HW1  185   2.733   1.789   3.115 -1.0750  0.3911  2.4736
   62SOL    HW2  186   2.752   1.925   3.000  0.9523  1.2933  0.8171
   63SOL     OW  187   0.546   0.807   0.141 -0.7102 -0.3652  0.0090
   63SOL    HW1  188   0.503   0.897   0.115 -0.9815  0.6613  0.3100
   63SOL    HW2  189   0.632   0.821   0.195  0.4421  0.9715 -2.0623
   64SOL     OW  190   0.068   0.559   2.500  0.0454  0.1430  0.4548
   64SOL    HW1  191   0.109   0.623   2.569 -1.3695  1.5078  2.4884
   64SOL    HW2  192   0.029   0.619   2.421  0.4300 -0.6959 -1.2531
   65SOL     OW  193   0.172   1.489   0.604 -0.0848 -0.1557 -0.1372
   65SOL    HW1  194   0.202   1.570   0.659  0.5425 -1.8730 -0.2658
   65SOL    HW2  195   0.249   1.461   0.537  1.0127 -2.1577  0.4684
   66SOL     OW  196   2.466   0.333   0.647 -0.4189 -0.1548  0.8029
   66SOL    HW1  197   2.384   0.394   0.661  0.5645 -1.1889  0.4546
   66SOL    HW2  198   2.443   0.236   0.654 -0.3447  0.2387  0.3051
   67SOL     OW  199   0.467   2.578   1.305  0.2103  0.1886  0.4709
   67SOL    HW1  200   0.565   2.585   1.326 -2.5121  1.8384 -1.8779
   67SOL    HW2  201   0.432   2.480   1.302  1.3657  1.6804 -0.8889
   68SOL     OW  202   1.001   1.100   2.394  0.3160 -0.0847 -0.0428
   68SOL    HW1  203   1.018   1.006   2.352  2.1416  0.0329  1.7658
   68SOL    HW2  204   0.932   1.167   2.351  1.3390  1.4502  0.6773
   69SOL     OW  205   0.775   2.720   2.153 -0.3278 -0.3731 -0.5651
   69SOL    HW1  206   0.825   2.636   2.180 -0.4375  0.7515  0.3083
   69SOL    HW2  207   0.673   2.720   2.194 -1.1378  2.7275 -0.2031
   70SOL     OW  208   0.575   0.219   2.708  0.6076  0.0584  0.2629
   70SOL    HW1  209   0.574   0.231   2.812  0.0200 -0.5122  0.9918
   70SOL    HW2  210   0.511   0.146   2.674  3.1781 -1.1619 -1.8854
   71SOL     OW  211   1.117   1.801   0.359  0.0161  0.7940 -0.2423
   71SOL    HW1  212   1.085   1.706   0.369  0.5420  1.5851  3.5164
   71SOL    HW2  213   1.080   1.842   0.271 -1.2287 -1.4827  0.5933
   72SOL     OW  214   1.771   0.078   2.086 -0.0055 -0.2998  0.3101
   72SOL    HW1  215   1.840   0.118   2.024 -0.8567 -3.5722  0.2187
   72SOL    HW2  216   1.786  -0.023   2.101 -0.8909 -3.3113 -0.5389
   73SOL     OW  217   2.856   2.220   2.506  0.0737  0.5801  0.4622
   73SOL    HW1  218   2.839   2.132   2.449 -1.9336  1.6638  1.9081
   73SOL    HW2  219   2.880   2.195   2.604  0.7414 -0.7546  0.7921
   74SOL     OW  220   2.716   2.973   2.083  0.3929  0.6062 -0.8129
   74SOL    HW1  221   2.645   2.957   2.157  0.2673 -0.1654  0.4867
   74SOL    HW2  222   2.815   2.961   2.124 -0.3210  1.9874  3.5183
   75SOL     OW  223   0.921   0.754   0.954 -0.0445 -0.2564  0.0195
   75SOL    HW1  224   0.837   0.802   0.937  1.9714 -2.3141  1.2918
   75SOL    HW2  225   0.970   0.793   1.039 -1.7893 -1.9928  1.5874
   76SOL     OW  226   1.737   1.241   2.582 -0.1873 -0.1925  0.3529
   76SOL    HW1  227   1.640   1.221   2.560  0.4077  0.8062 -0.2078
   76SOL    HW2  228   1.749   1.314   2.653  1.2474 -0.3438  0.8504
   77SOL     OW  229   2.989   1.012   0.994  0.1826  0.3830 -0.6016
   77SOL    HW1  230   2.997   0.910   0.979 -1.6630  0.6821  1.1067
   77SOL    HW2  231   3.052   1.038   1.072  0.2532 -2.6337  0.7305
   78SOL     OW  232   1.980   1.400   1.451 -0.0436  0.1725  0.5075
   78SOL    HW1  233   2.028   1.398   1.360 -3.5536 -0.6801 -1.6338
   78SOL    HW2  234   1.877   1.395   1.430  0.6595  0.9738  0.7444
   79SOL     OW  235   0.630   1.276   0.843  0.1713  0.0717  0.4821
   79SOL    HW1  236   0.545   1.327   0.851  2.9356 -0.9337  2.1379
   79SOL    HW2  237   0.635   1.222   0.754 -0.9299  1.1522 -0.3851
   80SOL     OW  238   0.644   0.489   1.610 -0.3703 -0.3227  0.2389
   80SOL    HW1  239   0.714   0.524   1.540  2.9557 -3.2851 -0.2069
   80SOL    HW2  240   0.621   0.391   1.589 -2.1458 -2.4147  0.2212
   81SOL     OW  241   1.112   1.452   2.597 -0.3502 -0.6078 -0.4616
   81SOL    HW1  242   1.059   1.390   2.661 -0.2030  0.4801  0.7690
   81SOL    HW2  243   1.080   1.439   2.501 -0.4434  2.2871 -0.5017
   82SOL     OW  244   0.901   3.020   1.530  0.1534  0.4293 -0.0074
   82SOL    HW1  245   0.973   2.950   1.510 -0.1406 -2.0618  1.2113
   82SOL    HW2  246   0.808   2.980   1.538 -1.1514  0.0152 -1.4169
   83SOL     OW  247   2.746   2.418   0.823  0.3818  0.2095  0.1693
   83SOL    HW1  248   2.656   2.386   0.791  1.0397 -3.5714  4.3740
   83SOL    HW2  249   2.789   2.498   0.767  1.8884 -0.2775  0.2408
   84SOL     OW  250   0.655   0.012   2.412  0.2869  0.0252  0.1683
   84SOL    HW1  251   0.571   0.025   2.472 -0.4409  0.5184 -0.7316
   84SOL    HW2  252   0.730  -0.032   2.463 -3.0785  0.4804 -0.7107
   85SOL     OW  253   0.349   1.655   1.467  0.3473  0.5402  0.2869
   85SOL    HW1  254   0.302   1.741   1.491 -0.2720 -0.3143 -1.7503
   85SOL    HW2  255   0.373   1.592   1.547  0.8221  0.2462 -2.8662
   86SOL     OW  256   0.357   1.022   1.488  0.0220  0.9746 -0.0096
   86SOL    HW1  257   0.315   0.966   1.410  0.2514  0.5579 -0.8107
   86SOL    HW2  258   0.429   0.965   1.537  0.6615  0.5378  0.8701
   87SOL     OW  259   1.558   0.574   0.195  0.1944  0.7218 -0.3194
   87SOL    HW1  260   1.587   0.671   0.210  1.2494 -0.8063  0.0824
   87SOL    HW2  261   1.518   0.554   0.102  2.0126 -0.6876 -0.0432
   88SOL     OW  262   1.618   1.310   0.201 -0.2323 -0.4297 -0.5026
   88SOL    HW1  263   1.652   1.226   0.252 -0.2174 -2.3253 -0.8655
   88SOL    HW2  264   1.517   1.324   0.204  0.2114  0.0936 -2.0047
   89SOL     OW  265   2.989   0.420   0.583 -0.2574 -0.1176 -0.1616
   89SOL    HW1  266   3.045   0.344   0.621 -4.6988 -0.8322 -4.0628
   89SOL    HW2  267   2.886   0.408   0.601  1.6870 -0.0780  1.0019
   90SOL     OW  268   0.879   1.629   3.065  0.9826  0.1697 -0.5670
   90SOL    HW1  269   0.809   1.643   3.142 -0.2055 -0.2246 -0.5819
   90SOL    HW2  270   0.843   1.631   2.968  1.4265 -1.1819 -0.3237
   91SOL     OW  271   1.242   1.371   1.816 -0.0834  0.5455 -0.4450
   91SOL    HW1  272   1.266   1.464   1.856 -1.7514  1.3958  0.0919
   91SOL    HW2  273   1.323   1.332   1.758  1.1260 -0.9850  0.9107
   92SOL     OW  274   0.077   1.087   1.195 -0.2168 -0.3322 -0.3321
   92SOL    HW1  275   0.170   1.072   1.149 -1.9947 -2.2328  0.0117
   92SOL    HW2  276   0.075   1.038   1.291  0.6922  0.8161 -0.6024
   93SOL     OW  277   0.108   2.836   3.059 -0.1494  0.3030  0.6811
   93SOL    HW1  278   0.007   2.853   3.031 -1.5605 -0.2792 -3.0046
   93SOL    HW2  279   0.114   2.756   3.124  0.1139 -0.0789  3.6433
   94SOL     OW  280   1.517   1.286   1.670  0.4317  0.7543 -0.0329
   94SOL    HW1  281   1.561   1.214   1.730 -0.3445 -1.6983 -0.5747
   94SOL    HW2  282   1.543   1.382   1.697 -2.3010  1.8210 -0.7581
   95SOL     OW  283   1.404   2.480   2.907 -0.2364 -0.6002 -0.1076
   95SOL    HW1  284   1.382   2.466   3.010 -0.9722  0.7620  2.5731
   95SOL    HW2  285   1.441   2.387   2.865 -1.0630 -2.9684 -0.5480
   96SOL     OW  286   0.513   2.025   1.232 -0.4045 -0.4508 -0.3399
   96SOL    HW1  287   0.480   2.054   1.136  0.8698  2.1843 -1.0692
   96SOL    HW2  288   0.527   1.921   1.243  0.2378 -0.5600  1.3206
   97SOL     OW  289   0.295   1.435   2.460 -0.2140  0.0742  0.2557
   97SOL    HW1  290   0.209   1.384   2.498 -0.4169  0.7449 -0.7819
   97SOL    HW2  291   0.351   1.493   2.530 -1.6485 -1.8957  1.0421
   98SOL     OW  292   2.097   1.651   1.255 -0.7794 -0.3714  0.1624
   98SOL    HW1  293   2.077   1.566   1.207 -3.1023  4.5722 -2.0708
   98SOL    HW2  294   2.171   1.641   1.332  0.5142 -2.5376  1.7680
   99SOL     OW  295   2.508   2.170   1.357 -0.5999 -0.2691 -0.3459
   99SOL    HW1  296   2.425   2.162   1.420 -1.1903  1.1281 -2.8540
   99SOL    HW2  297   2.592   2.123   1.398 -1.0225 -3.7664 -2.7727
  100SOL     OW  298   2.288   0.404   2.067  0.6049  0.4333 -0.0941
  100SOL    HW1  299   2.227   0.361   2.140 -0.6205 -0.7863  0.1314
  100SOL    HW2  300   2.389   0.425   2.095 -1.4112  0.8594 -0.0375
  101SOL     OW  301   0.411   1.416   0.256  0.3497 -0.0125  0.9489
  101SOL    HW1  302   0.418   1.468   0.344 -1.0398  3.1462 -0.2289
  101SOL    HW2  303   0.438   1.474   0.175  1.2411 -1.9388  1.6590
  102SOL     OW  304   2.236   1.095   0.864  0.0110 -0.5251 -0.6319
  102SOL    HW1  305   2.184   1.035   0.798  1.0688 -1.7435 -1.0367
  102SOL    HW2  306   2.283   1.177   0.818 -0.7412 -0.3004  0.4426
  103SOL     OW  307   2.283   0.083   0.392  0.3797 -0.0951  0.0611
  103SOL    HW1  308   2.343   0.167   0.381 -2.7941 -1.3670 -0.7730
  103SOL    HW2  309   2.325   0.003   0.440 -1.7745 -0.6174 -0.6803
  104SOL     OW  310   0.088   1.855   2.144 -0.0672  0.0646  0.1914
  104SOL    HW1  311   0.123   1.796   2.072 -3.0715 -0.8838 -1.0740
  104SOL    HW2  312  -0.009   1.880   2.117  0.6503  0.2155 -1.8495
  105SOL     OW  313   1.086   1.963   0.814  0.1502 -0.0331 -0.0203
  105SOL    HW1  314   1.054   2.037   0.746  1.0944 -1.2708 -0.3845
  105SOL    HW2  315   1.086   1.868   0.771  4.3802 -0.4985  0.5005
  106SOL     OW  316   2.056   0.497   1.333 -0.3247 -0.3150 -0.4622
  106SOL    HW1  317   2.055   0.412   1.395  0.1002 -1.3108  1.2152
  106SOL    HW2  318   2.050   0.589   1.382 -0.4579  0.3625  0.6109
  107SOL     OW  319   1.841   3.004   1.132 -0.8108 -0.0061  0.0295
  107SOL    HW1  320   1.853   3.080   1.200  1.5150 -0.6150  1.2555
  107SOL    HW2  321   1.792   2.925   1.175  0.6944  0.1804 -1.1597
  108SOL     OW  322   0.747   2.637   1.322 -0.0204 -0.1102 -0.0085
  108SOL    HW1  323   0.730   2.690   1.410 -1.8704 -1.3643  0.9446
  108SOL    HW2  324   0.846   2.599   1.318 -1.3271 -2.0607  1.2477
  109SOL     OW  325   2.029   0.138   0.683  0.4557 -0.6970  0.0851
  109SOL    HW1  326   2.074   0.088   0.761  1.4140  1.1336 -2.1754
  109SOL    HW2  327   1.943   0.186   0.713  0.9630  0.0884 -0.9318
  110SOL     OW  328   0.501   2.697   2.781 -0.1155  0.4632 -1.0640
  110SOL    HW1  329   0.483   2.711   2.681  2.5149 -0.8090  2.1273
  110SOL    HW2  330   0.586   2.639   2.793  0.6179 -0.9179  0.9499
  111SOL     OW  331   1.286   0.532   2.351  0.3055 -0.1875 -0.3116
  111SOL    HW1  332   1.210   0.585   2.401 -0.6616  3.5507 -0.8605
  111SOL    HW2  333   1.306   0.444   2.396  1.5194 -1.0860  0.8166
  112SOL     OW  334   1.695   0.510   1.445 -0.6191 -0.0995  0.6074
  112SOL    HW1  335   1.720   0.448   1.367  2.2816  0.2748  2.2877
  112SOL    HW2  336   1.715   0.457   1.532  0.6093 -2.8117 -1.7460
  113SOL     OW  337   2.281   1.651   1.751  0.1858 -0.4160 -0.3511
  113SOL    HW1  338   2.345   1.565   1.742  4.2529 -0.1699 -1.4439
  113SOL    HW2  339   2.318   1.714   1.821 -1.3102 -0.9741 -3.4951
  114SOL     OW  340   0.403   0.571   1.299 -0.3975 -0.1915  0.0047
  114SOL    HW1  341   0.369   0.667   1.269 -2.2400  0.6107  0.3982
  114SOL    HW2  342   0.483   0.536   1.246  1.4516  2.4953 -1.5949
  115SOL     OW  343   2.698   1.560   1.275 -0.3364 -0.5536  0.1092
  115SOL    HW1  344   2.711   1.457   1.299 -0.6910 -2.3035 -0.7604
  115SOL    HW2  345   2.780   1.605   1.226 -1.9360  1.1062 -0.4332
  116SOL     OW  346   1.825   1.061   0.764 -0.0855  0.2611  0.0701
  116SOL    HW1  347   1.732   1.018   0.746  1.0477 -1.3085  1.7898
  116SOL    HW2  348   1.823   1.164   0.756  1.2936 -2.2448  0.1791
  117SOL     OW  349   1.085   0.422   0.679  0.3422  0.0652 -0.4530
  117SOL    HW1  350   1.105   0.428   0.778  0.7692 -1.3351 -1.9625
  117SOL    HW2  351   1.105   0.511   0.629  0.2466  0.1416 -0.9186
  118SOL     OW  352   1.078   1.069   1.002 -0.5212  1.1484  0.4941
  118SOL    HW1  353   1.062   0.982   1.050  1.2766  2.1862  1.0116
  118SOL    HW2  354   1.111   1.147   1.062  2.9821 -0.1628  2.1627
  119SOL     OW  355   1.831   1.632   1.988 -0.4328  0.1621  0.4015
  119SOL    HW1  356   1.804   1.727   2.030 -1.2108 -0.3652 -1.8982
  119SOL    HW2  357   1.928   1.614   2.005  0.9241 -0.0614  0.9277
  120SOL     OW  358   2.952   2.772   0.237 -0.6159 -0.4704  0.1919
  120SOL    HW1  359   2.852   2.752   0.213 -4.1005  2.9293  0.9238
  120SOL    HW2  360   2.998   2.692   0.280  0.4853 -0.1399  2.1089
  121SOL     OW  361   2.092   0.715   2.232 -0.7097  0.5009  0.1048
  121SOL    HW1  362   2.162   0.719   2.159  1.2456 -1.7750 -0.4782
  121SOL    HW2  363   2.023   0.637   2.216 -1.8202  2.8932 -0.2186
  122SOL     OW  364   2.701   2.540   1.336  0.1246  0.0986  0.0811
  122SOL    HW1  365   2.708   2.550   1.230 -0.4204 -0.5518  2.5319
  122SOL    HW2  366   2.658   2.452   1.369 -0.5688 -4.0560  0.6188
  123SOL     OW  367   1.728   0.038   1.694 -0.0094  0.6450  0.1272
  123SOL    HW1  368   1.727  -0.053   1.639 -1.2512 -1.3105 -1.7759
  123SOL    HW2  369   1.818   0.091   1.689  0.1031 -1.2315 -0.6900
  124SOL     OW  370   0.189   0.481   0.966  0.6718 -0.1660  0.5165
  124SOL    HW1  371   0.174   0.540   1.055 -1.8777  2.6038  1.4038
  124SOL    HW2  372   0.139   0.527   0.885 -3.4397  4.1053  0.7930
  125SOL     OW  373   0.868   1.716   0.677 -0.1620  0.8299 -0.5589
  125SOL    HW1  374   0.969   1.721   0.659 -1.8352  1.9308  1.2595
  125SOL    HW2  375   0.843   1.644   0.745  0.7286 -0.8546 -0.6177
  126SOL     OW  376   1.894   2.379   2.411  0.0506  0.3697  0.0334
  126SOL    HW1  377   1.938   2.299   2.359  1.7537  2.1577 -2.7220
  126SOL    HW2  378   1.833   2.441   2.349 -1.5082 -0.3146 -0.4188
  127SOL     OW  379   0.981   0.981   0.176 -1.3771  0.3669 -0.1062
  127SOL    HW1  380   1.067   1.004   0.227 -0.7907 -0.7643 -0.2685
  127SOL    HW2  381   0.933   0.895   0.210  1.5145  1.5921  1.0349
  128SOL     OW  382   0.985   0.194   1.451  0.5500 -0.2313  0.5273
  128SOL    HW1  383   0.940   0.265   1.384  1.6694  2.4102  0.0718
  128SOL    HW2  384   0.951   0.094   1.434  0.0076 -0.6333  0.7901
  129SOL     OW  385   1.759   0.718   1.819  0.1380  0.1128  0.0754
  129SOL    HW1  386   1.782   0.721   1.722 -0.5724 -2.1806  0.3100
  129SOL    HW2  387   1.762   0.804   1.878 -0.1753 -3.4228  1.1175
  130SOL     OW  388   1.263   2.093   0.997  0.4293 -0.4209  0.1093
  130SOL    HW1  389   1.201   2.046   0.926  0.7619  3.0095 -1.6695
  130SOL    HW2  390   1.337   2.148   0.948  1.6633  3.5847 -0.2525
  131SOL     OW  391   3.041   1.510   1.330  0.5820 -0.0576  0.0392
  131SOL    HW1  392   2.998   1.415   1.342  0.9942  1.0026  0.0118
  131SOL    HW2  393   3.144   1.499   1.326 -1.2540  0.5433 -2.3105
  132SOL     OW  394   1.920   2.481   0.507  0.3222  0.0568  0.0268
  132SOL    HW1  395   1.818   2.499   0.513  0.1037  1.8187  1.6309
  132SOL    HW2  396   1.954   2.436   0.593  0.0418 -0.0365  1.5343
  133SOL     OW  397   1.791   2.288   2.926 -0.1782 -0.0626  0.1396
  133SOL    HW1  398   1.782   2.349   3.008 -0.8105 -1.6708 -0.4879
  133SOL    HW2  399   1.773   2.343   2.839  0.7379  0.3386 -1.6403
  134SOL     OW  400   2.622   2.361   1.615 -0.3419  0.7555  0.3825
  134SOL    HW1  401   2.577   2.301   1.685  0.2986  2.1901  1.1068
  134SOL    HW2  402   2.685   2.435   1.652 -3.0892  1.7426 -2.0288
  135SOL     OW  403   0.771   1.506   2.551  0.0091  0.0039  0.2760
  135SOL    HW1  404   0.736   1.409   2.548 -2.4071 -2.1307 -3.2898
  135SOL    HW2  405   0.850   1.520   2.481 -3.4072  0.9715  2.5422
  136SOL     OW  406   1.144   2.075   0.462  0.2547  0.3782 -0.0349
  136SOL    HW1  407   1.084   2.134   0.523  1.3032  0.2170  1.1776
  136SOL    HW2  408   1.114   1.977   0.454 -0.0998  0.7728  1.3686
  137SOL     OW  409   0.373   1.027   2.141 -0.4127 -0.1177  0.3330
  137SOL    HW1  410   0.303   1.066   2.204 -0.0793  0.3933  0.4384
  137SOL    HW2  411   0.383   0.921   2.152  0.8786  0.4647  2.5575
  138SOL     OW  412   2.434   1.464   0.349  0.3105 -0.0016 -0.5253
  138SOL    HW1  413   2.345   1.439   0.301 -2.2664  1.0527 -1.4426
  138SOL    HW2  414   2.479   1.375   0.378  1.9064 -0.1530 -1.5952
  139SOL     OW  415   1.753   2.510   1.211  0.6633  0.3983  0.4816
  139SOL    HW1  416   1.663   2.484   1.176  1.2666  0.0457 -0.7653
  139SOL    HW2  417   1.789   2.451   1.292 -1.8099 -1.0262  1.9119
  140SOL     OW  418   2.985   3.002   2.503 -0.1810  0.1614  0.5236
  140SOL    HW1  419   2.996   2.913   2.551  0.4739  2.8542  0.9036
  140SOL    HW2  420   3.076   3.042   2.482  1.3293 -2.2793  1.9596
  141SOL     OW  421   1.148   1.543   1.594  0.0304  0.7873  0.1598
  141SOL    HW1  422   1.155   1.609   1.669 -0.4494 -0.9130 -1.2687
  141SOL    HW2  423   1.151   1.447   1.624  0.8210  2.0543  0.1838
  142SOL     OW  424   1.538   0.593   2.250 -0.0073 -0.2295 -0.0184
  142SOL    HW1  425   1.554   0.584   2.146  1.7826  0.8166  0.3718
  142SOL    HW2  426   1.440   0.572   2.271 -0.8834  0.5047  2.0897
  143SOL     OW  427   2.777   0.841   0.493 -0.0040  0.2616 -0.6560
  143SOL    HW1  428   2.807   0.908   0.423  1.7999  0.4789 -0.7984
  143SOL    HW2  429   2.787   0.885   0.588  0.7418  0.8100 -0.9623
  144SOL     OW  430   2.970   1.236   1.363 -0.5508 -0.0191  0.2280
  144SOL    HW1  431   2.969   1.207   1.460  2.4092 -1.0295 -1.5240
  144SOL    HW2  432   3.047   1.191   1.315 -3.1227  2.6573  1.3258
  145SOL     OW  433   1.002   1.868   0.099  0.4797  0.2081  0.3782
  145SOL    HW1  434   1.044   1.938   0.035 -0.8829 -0.3459  0.6491
  145SOL    HW2  435   0.975   1.781   0.056 -0.3655  1.3216  3.6014
  146SOL     OW  436   2.516   0.627   1.503 -0.2020 -0.1742 -0.3599
  146SOL    HW1  437   2.469   0.551   1.446 -2.4170  0.9756 -1.6792
  146SOL    HW2  438   2.473   0.719   1.503  0.1463 -0.2756  0.3930
  147SOL     OW  439   1.075   2.604   0.623 -0.6694 -0.2077 -0.4980
  147SOL    HW1  440   1.024   2.635   0.540 -1.1200  0.8791 -0.6236
  147SOL    HW2  441   1.168   2.561   0.596 -0.6755 -0.0774  0.0431
  148SOL     OW  442   1.663   1.421   3.023  0.0218 -0.2194  0.3105
  148SOL    HW1  443   1.676   1.340   2.958  0.7699  2.9260  1.0400
  148SOL    HW2  444   1.647   1.389   3.120  1.1002 -1.6636  1.4804
  149SOL     OW  445   0.627   1.402   1.939  0.7269 -0.1694 -0.2900
  149SOL    HW1  446   0.543   1.359   1.985  0.3919  1.7654 -0.1300
  149SOL    HW2  447   0.669   1.336   1.869 -0.0541 -1.1337  0.6163
  150SOL     OW  448   2.965   1.276   0.931 -0.4197 -0.1351  0.5612
  150SOL    HW1  449   3.048   1.323   0.968 -0.2570 -0.5241  0.5728
  150SOL    HW2  450   2.954   1.177   0.966 -1.4391 -0.0702 -2.5885
  151SOL     OW  451   0.182   0.774   2.087  0.1088 -0.2178 -0.0443
  151SOL    HW1  452   0.183   0.860   2.025 -1.4808 -2.6036  0.6782
  151SOL    HW2  453   0.260   0.712   2.059 -0.5191  1.5694 -3.3415
  152SOL     OW  454   1.414   1.772   1.262  0.2056  0.1689  0.2288
  152SOL    HW1  455   1.402   1.854   1.326 -0.6603  2.6325  0.8976
  152SOL    HW2  456   1.327   1.740   1.214 -1.0921 -0.4217  0.6277
  153SOL     OW  457   0.045   1.508   0.182 -0.0692 -0.0220 -0.2493
  153SOL    HW1  458   0.053   1.406   0.165  2.2276 -2.6887 -1.3169
  153SOL    HW2  459   0.055   1.542   0.283 -1.2265 -1.3869 -1.1124
  154SOL     OW  460   2.408   1.968   2.833 -0.1907  0.0360  0.3639
  154SOL    HW1  461   2.418   1.861   2.848 -0.2259 -2.1633 -0.8348
  154SOL    HW2  462   2.464   2.005   2.751  1.0594 -0.7358 -1.8459
  155SOL     OW  463   2.526   1.209   0.426 -0.2942 -0.6864 -0.6030
  155SOL    HW1  464   2.596   1.232   0.353  2.1890 -0.3548  2.0913
  155SOL    HW2  465   2.530   1.106   0.445 -0.1454  0.6129 -4.0339
  156SOL     OW  466   2.503   0.992   0.893  0.4785 -0.2735 -0.0365
  156SOL    HW1  467   2.405   1.026   0.913  0.1461 -1.2913 -1.8872
  156SOL    HW2  468   2.564   1.072   0.861  1.2390  4.3038 -0.2657
  157SOL     OW  469   1.375   2.977   3.101  0.1768  0.2567  0.3188
  157SOL    HW1  470   1.398   2.909   3.025  0.9848  2.2717 -1.9237
  157SOL    HW2  471   1.374   3.079   3.072  0.7512 -1.4144  0.2348
  158SOL     OW  472   1.074   1.862   2.021 -0.1277 -0.8524 -0.1428
  158SOL    HW1  473   1.129   1.844   2.108 -0.5816 -0.6291 -1.5759
  158SOL    HW2  474   0.972   1.872   2.051  0.2093  0.3329  1.2992
  159SOL     OW  475   0.876   0.438   1.313  0.1168 -0.7371  0.2322
  159SOL    HW1  476   0.870   0.505   1.393 -2.5038 -1.0666  1.8231
  159SOL    HW2  477   0.798   0.454   1.245 -1.2380 -0.5180  1.2105
  160SOL     OW  478   1.475   2.343   1.648  0.7110  0.4267 -0.3930
  160SOL    HW1  479   1.446   2.429   1.604 -0.7122 -0.3500  0.3182
  160SOL    HW2  480   1.576   2.340   1.672 -0.4578  0.5386 -0.4015
  161SOL     OW  481   0.115   2.941   0.374  0.6864  0.3478  0.2543
  161SOL    HW1  482   0.031   2.896   0.398  4.2416  0.1124 -0.2067
  161SOL    HW2  483   0.111   2.986   0.281  1.5192 -0.0413 -0.9279
  162SOL     OW  484   2.614   1.901   0.515 -0.1031 -0.0056 -0.5067
  162SOL    HW1  485   2.601   1.856   0.419 -1.3133 -1.8007  0.3426
  162SOL    HW2  486   2.622   1.829   0.590  0.5557  2.5348  0.9922
  163SOL     OW  487   1.965   2.766   0.759  0.1884 -0.0117  0.1542
  163SOL    HW1  488   1.934   2.805   0.668  0.2692 -1.0825  0.6568
  163SOL    HW2  489   1.990   2.666   0.747  0.7004  0.5307 -0.5889
  164SOL     OW  490   0.034   0.241   1.210 -0.5359  0.1088  0.5987
  164SOL    HW1  491   0.111   0.181   1.183 -0.5631  0.9462  0.9307
  164SOL    HW2  492   0.051   0.296   1.294  0.1018  1.5992 -1.9321
  165SOL     OW  493   1.009   1.396   0.648 -0.6136 -0.8697 -0.1855
  165SOL    HW1  494   0.961   1.461   0.712 -0.1741  0.6077  2.0892
  165SOL    HW2  495   0.984   1.419   0.551  0.7607 -3.0685 -0.8673
  166SOL     OW  496   1.377   1.018   1.790  0.1031  0.3208 -0.0083
  166SOL    HW1  497   1.291   0.966   1.816 -1.0906 -2.0658 -2.2795
  166SOL    HW2  498   1.424   1.042   1.877 -2.5601 -1.6773 -2.2345
  167SOL     OW  499   0.908   1.835   1.596 -0.6408  0.0757 -0.3942
  167SOL    HW1  500   0.885   1.938   1.589 -0.0439 -0.4219  0.9526
  167SOL    HW2  501   0.833   1.773   1.561 -2.8726  1.3524  0.0639
  168SOL     OW  502   1.538   2.364   0.170 -0.1315  0.3476 -0.1945
  168SOL    HW1  503   1.614   2.407   0.114  0.1554  1.2720 -0.0640
  168SOL    HW2  504   1.576   2.312   0.254  0.2956 -1.5237 -0.9535
  169SOL     OW  505   0.167   2.560   2.166 -0.0207  0.1216  0.0593
  169SOL    HW1  506   0.202   2.482   2.108  0.3719 -1.2357  0.7029
  169SOL    HW2  507   0.125   2.530   2.258  2.4632  0.1736  0.8371
  170SOL     OW  508   1.269   0.319   1.928  0.3713 -0.3931 -0.0467
  170SOL    HW1  509   1.313   0.289   2.016  1.3227  0.8928 -1.5166
  170SOL    HW2  510   1.198   0.246   1.898 -0.9208 -1.0500  1.0246
  171SOL     OW  511   0.245   0.824   2.416  0.0142  0.2121 -0.1122
  171SOL    HW1  512   0.156   0.845   2.467 -1.0882 -2.7421 -2.0239
  171SOL    HW2  513   0.223   0.834   2.322  0.9951 -1.7207  1.5326
  172SOL     OW  514   0.897   1.124   2.917 -0.0432  0.1372  0.3125
  172SOL    HW1  515   0.983   1.172   2.947 -0.2464  0.6158  0.9743
  172SOL    HW2  516   0.906   1.111   2.812  0.9958 -3.5871 -0.6080
  173SOL     OW  517   0.687   2.716   0.162  0.1631 -0.1879  0.3219
  173SOL    HW1  518   0.678   2.821   0.148 -2.1230  0.2539 -2.4854
  173SOL    HW2  519   0.607   2.665   0.119  0.0969 -3.0432  1.8025
  174SOL     OW  520   1.299   2.753   1.048  0.5300 -0.2142 -0.2301
  174SOL    HW1  521   1.294   2.804   0.954 -0.3925  1.0160  0.6159
  174SOL    HW2  522   1.227   2.677   1.047 -1.6035  1.1935 -0.9833
  175SOL     OW  523   0.366   0.029   1.689  0.4228 -0.1997  0.0681
  175SOL    HW1  524   0.413   0.089   1.757  0.9249 -1.6057 -1.9012
  175SOL    HW2  525   0.297   0.082   1.632 -1.6645  2.5719  1.9159
  176SOL     OW  526   2.633   0.350   3.014  0.3445  0.5703  0.2910
  176SOL    HW1  527   2.632   0.405   3.099 -0.1924  0.7918  1.0968
  176SOL    HW2  528   2.550   0.288   3.011 -3.3544  2.4148 -0.1182
  177SOL     OW  529   0.370   0.315   0.859 -0.2490  0.5002 -0.0909
  177SOL    HW1  530   0.437   0.275   0.927 -1.3348 -2.1777 -1.2279
  177SOL    HW2  531   0.286   0.363   0.897  1.2111 -0.0120  0.1105
  178SOL     OW  532   3.078   2.685   2.602 -0.2205  0.4151  0.2831
  178SOL    HW1  533   3.000   2.644   2.660 -1.9000 -3.1829 -3.4888
  178SOL    HW2  534   3.154   2.740   2.650  3.5692 -0.4560  2.1889
  179SOL     OW  535   3.104   1.775   1.181 -0.5867  0.1849 -0.0152
  179SOL    HW1  536   3.031   1.836   1.140  0.7860  1.6815  1.3160
  179SOL    HW2  537   3.062   1.687   1.214 -0.1751 -3.2555  1.0764
  180SOL     OW  538   0.165   1.260   1.829 -0.1317 -0.2563  0.2803
  180SOL    HW1  539   0.268   1.266   1.808  3.9767  1.1499  1.3662
  180SOL    HW2  540   0.137   1.337   1.898  4.2558  0.5556 -0.9832
  181SOL     OW  541   2.999   1.829   2.535 -0.1271  0.2237  0.0977
  181SOL    HW1  542   3.081   1.898   2.510 -1.9607 -1.5577  0.4762
  181SOL    HW2  543   2.959   1.790   2.448 -1.8907 -4.6617 -1.3531
  182SOL     OW  544   2.325   1.236   1.256 -0.6371 -0.4737 -0.2978
  182SOL    HW1  545   2.239   1.210   1.202  0.0030 -2.6818 -0.0147
  182SOL    HW2  546   2.362   1.336   1.235  0.0596  2.2929  2.0937
  183SOL     OW  547   1.511   2.260   2.510 -0.2569 -0.2815  0.0576
  183SOL    HW1  548   1.431   2.200   2.536  0.6064  0.0759 -0.1443
  183SOL    HW2  549   1.594   2.206   2.482  1.6969  0.0144  1.8537
  184SOL     OW  550   2.062   0.935   0.729 -0.2647  0.0513 -0.3232
  184SOL    HW1  551   1.961   0.962   0.737  2.7516  0.9511  0.1247
  184SOL    HW2  552   2.074   0.834   0.754 -1.7431 -0.5501 -0.4997
  185SOL     OW  553   1.647   2.749   2.170  0.2479 -0.0089 -0.2614
  185SOL    HW1  554   1.590   2.825   2.125  0.2356 -0.8672  0.2442
  185SOL    HW2  555   1.661   2.759   2.272 -0.2653  0.5673  1.5134
  186SOL     OW  556   0.095   2.221   1.684  0.8409  0.4046  0.6197
  186SOL    HW1  557   0.123   2.302   1.628 -1.1783  0.7406 -0.5092
  186SOL    HW2  558   0.175   2.160   1.715  1.5566  4.0011  0.8450
  187SOL     OW  559   1.424   0.661   1.733 -0.0573 -0.3619  0.5641
  187SOL    HW1  560   1.465   0.742   1.677  0.7437 -0.2260  0.8755
  187SOL    HW2  561   1.392   0.688   1.827 -1.1781 -1.3361 -1.6547
  188SOL     OW  562   2.754   2.749   1.529 -0.2085 -0.2142 -0.0410
  188SOL    HW1  563   2.752   2.849   1.511  2.4111 -1.2811 -2.3934
  188SOL    HW2  564   2.729   2.694   1.446 -1.1277 -1.5999  0.8014
  189SOL     OW  565   0.724   0.989   1.484 -0.1060  0.5955  0.1268
  189SOL    HW1  566   0.802   1.045   1.450 -3.3321  1.7498  0.0429
  189SOL    HW2  567   0.678   0.939   1.405 -1.5838  1.2857 -0.9634
  190SOL     OW  568   1.474   1.763   1.659 -0.3505  0.3757 -0.0992
  190SOL    HW1  569   1.449   1.843   1.597 -0.5694  2.1353 -1.0861
  190SOL    HW2  570   1.552   1.792   1.725  0.8222 -0.9682  0.8102
  191SOL     OW  571   1.016   0.816   1.535  0.6854 -0.2030 -0.1912
  191SOL    HW1  572   1.067   0.732   1.563 -2.0398  1.2155  0.9569
  191SOL    HW2  573   1.080   0.892   1.502 -2.7363 -1.1029 -0.9553
  192SOL     OW  574   1.888   2.196   1.216 -0.0928 -0.3440 -0.1957
  192SOL    HW1  575   1.784   2.199   1.202  0.0815  0.7884 -0.4174
  192SOL    HW2  576   1.944   2.262   1.157 -1.2878  4.6235 -2.8882
  193SOL     OW  577   0.507   0.567   0.332 -0.0410 -0.0502  0.6606
  193SOL    HW1  578   0.500   0.488   0.403 -1.7672  0.6703 -0.1276
  193SOL    HW2  579   0.517   0.526   0.232  1.6154 -0.2762 -2.9305
  194SOL     OW  580   0.283   0.812   1.248  0.1159 -0.3461  0.0289
  194SOL    HW1  581   0.187   0.770   1.238  1.6950 -1.1150 -0.6735
  194SOL    HW2  582   0.308   0.891   1.186 -0.7137 -1.2503 -0.9661
  195SOL     OW  583   0.931   2.943   0.508 -0.4311 -0.0626 -0.3428
  195SOL    HW1  584   0.912   2.854   0.456 -0.8127 -1.3227 -1.1136
  195SOL    HW2  585   1.032   2.967   0.512  2.6517  1.1551  0.7881
  196SOL     OW  586   0.203   1.455   1.352  0.7478  0.4161 -0.2228
  196SOL    HW1  587   0.263   1.536   1.376 -2.1600 -1.4264  2.0937
  196SOL    HW2  588   0.205   1.378   1.419  1.0715  0.5896  0.2368
  197SOL     OW  589   0.794   2.005   0.213  0.1379  0.1529 -0.3786
  197SOL    HW1  590   0.778   1.978   0.312 -0.7911 -1.5621 -2.8260
  197SOL    HW2  591   0.880   1.962   0.170  0.1606 -1.0948 -0.6455
  198SOL     OW  592   0.283   1.190   0.222  0.1065  0.4599  0.1068
  198SOL    HW1  593   0.179   1.199   0.202 -1.2653  0.8553  0.4845
  198SOL    HW2  594   0.327   1.282   0.244 -1.1264 -0.2902  0.7322
  199SOL     OW  595   2.271   0.428   2.467 -0.0356  0.1305  0.0314
  199SOL    HW1  596   2.201   0.386   2.531 -0.5561  0.4217  2.4875
  199SOL    HW2  597   2.374   0.410   2.490  1.5241 -0.7226  1.9455
  200SOL     OW  598   0.048   2.892   0.820 -0.0045 -0.3059 -0.0903
  200SOL    HW1  599  -0.033   2.873   0.751 -0.7092  1.5073 -0.9120
  200SOL    HW2  600   0.063   2.989   0.855 -1.6557  1.7319  0.2289
  201SOL     OW  601   1.097   0.662   0.551 -0.1769  0.1173 -0.1364
  201SOL    HW1  602   1.091   0.759   0.595 -0.0816  2.1734 -2.8181
  201SOL    HW2  603   1.011   0.630   0.510  3.4388  0.3211  0.1424
  202SOL     OW  604   0.438   1.220   1.777 -0.1599  0.0255 -0.0499
  202SOL    HW1  605   0.477   1.208   1.683 -0.0161 -0.4693  0.7623
  202SOL    HW2  606   0.499   1.171   1.844 -1.9775  1.0147 -3.5885
  203SOL     OW  607   0.588   0.230   1.529  0.1680 -0.4417  0.0923
  203SOL    HW1  608   0.602   0.172   1.446  0.0756  0.4657  1.2490
  203SOL    HW2  609   0.591   0.177   1.616 -0.1348  4.8348  0.6793
  204SOL     OW  610   2.087   1.888   2.997 -0.5045  0.2352  0.5292
  204SOL    HW1  611   2.116   1.793   2.979 -0.7856  1.6483 -0.2788
  204SOL    HW2  612   2.069   1.940   2.908 -0.3264 -2.1783 -0.3310
  205SOL     OW  613   1.891   1.853   0.145 -0.1454  0.0708 -0.6295
  205SOL    HW1  614   1.966   1.837   0.079 -0.1792  1.8687 -0.0366
  205SOL    HW2  615   1.803   1.883   0.102  2.8791  0.1624  2.0109
  206SOL     OW  616   2.516   2.807   0.376 -0.2176 -0.4436  0.7609
  206SOL    HW1  617   2.597   2.755   0.414 -0.4206 -1.9361  1.4227
  206SOL    HW2  618   2.553   2.878   0.310 -0.9615 -0.2780  0.9796
  207SOL     OW  619   0.520   1.724   2.885  0.1613  0.3736 -0.5901
  207SOL    HW1  620   0.611   1.717   2.833 -0.4716  2.1371 -2.0848
  207SOL    HW2  621   0.522   1.681   2.977 -0.1907  0.5461 -1.8583
  208SOL     OW  622   1.051   1.432   1.344  0.3227 -0.2359  0.3004
  208SOL    HW1  623   0.972   1.497   1.319 -0.7647  0.1344 -0.0530
  208SOL    HW2  624   1.099   1.457   1.434  0.9194 -1.7604 -0.2147
  209SOL     OW  625   0.148   0.890   3.087  0.1720  0.2305 -0.1152
  209SOL    HW1  626   0.202   0.882   2.993 -0.0790 -1.4467 -0.1701
  209SOL    HW2  627   0.201   0.859   3.170 -0.1776  0.2246 -0.4720
  210SOL     OW  628   1.725   0.418   1.165 -0.2519  0.4185 -0.2224
  210SOL    HW1  629   1.688   0.510   1.121 -1.6200  1.1887  0.5273
  210SOL    HW2  630   1.828   0.421   1.168  2.7331  2.5625  1.1829
  211SOL     OW  631   2.128   1.043   1.647 -0.5472  0.1915 -0.4334
  211SOL    HW1  632   2.157   0.984   1.725  1.9891 -1.2150  0.8696
  211SOL    HW2  633   2.206   1.090   1.600 -0.9031 -0.7742  2.8001
  212SOL     OW  634   0.042   1.015   1.466  0.2893  0.2760 -0.3469
  212SOL    HW1  635   0.072   1.107   1.506  0.0002 -0.1785 -1.8466
  212SOL    HW2  636   0.074   0.934   1.526  0.4601 -3.0652  0.1044
  213SOL     OW  637   2.768   0.286   0.302 -0.6732 -0.1350 -0.2817
  213SOL    HW1  638   2.852   0.224   0.300  2.2246 -1.4018 -0.8633
  213SOL    HW2  639   2.742   0.322   0.207 -0.7179 -1.4329  0.0936
  214SOL     OW  640   2.120   0.292   2.262  0.6435 -0.5009 -0.1418
  214SOL    HW1  641   2.157   0.343   2.348  1.2655 -1.0369 -1.3667
  214SOL    HW2  642   2.119   0.190   2.277 -1.4364 -0.2492  0.1569
  215SOL     OW  643   1.703   2.278   2.039 -0.1287 -0.0936 -0.1120
  215SOL    HW1  644   1.793   2.305   1.993  2.4731 -1.1432 -2.0277
  215SOL    HW2  645   1.660   2.349   2.105 -2.6294  1.2063 -0.7163
  216SOL     OW  646   2.251   0.529   0.646 -0.0625  0.2795  0.2735
  216SOL    HW1  647   2.185   0.469   0.598  0.4955 -0.0645  0.3327
  216SOL    HW2  648   2.269   0.619   0.589  1.1896  4.2066  0.1639
  217SOL     OW  649   0.801   2.792   2.435  0.0835  0.4294  0.5352
  217SOL    HW1  650   0.763   2.705   2.478 -2.0753 -0.5023  0.7074
  217SOL    HW2  651   0.810   2.789   2.333  0.0851 -0.6180 -1.6595
  218SOL     OW  652   1.930   1.426   3.081 -0.2515 -0.4957  0.5286
  218SOL    HW1  653   1.835   1.458   3.053  0.7749  2.8345  1.0953
  218SOL    HW2  654   1.945   1.323   3.101  2.0930  0.6608 -0.0678
  219SOL     OW  655   2.371   1.287   2.596 -0.0571 -0.0697 -0.0264
  219SOL    HW1  656   2.455   1.258   2.543  2.6540 -0.3334 -0.8345
  219SOL    HW2  657   2.339   1.218   2.669  1.4450  2.1966 -2.4395
  220SOL     OW  658   1.469   1.015   1.279 -0.6536 -0.1619 -0.6012
  220SOL    HW1  659   1.560   1.003   1.228  0.1275  2.3685 -3.2468
  220SOL    HW2  660   1.462   1.115   1.320 -2.1605  1.4644 -0.3280
  221SOL     OW  661   1.295   1.109   2.165  0.0427  0.0633 -0.5048
  221SOL    HW1  662   1.235   1.165   2.101  1.4668 -1.9595 -0.5698
  221SOL    HW2  663   1.376   1.064   2.117 -0.3782  1.1922  0.4687
  222SOL     OW  664   1.332   0.161   1.120 -0.3226  0.0019  0.4821
  222SOL    HW1  665   1.412   0.105   1.096  1.2923  1.7916 -0.4694
  222SOL    HW2  666   1.352   0.242   1.183  1.5365  0.1380 -0.9832
  223SOL     OW  667   2.881   0.784   1.998 -0.6969 -0.1085 -0.3343
  223SOL    HW1  668   2.909   0.785   2.098 -0.2235  2.3279 -0.8823
  223SOL    HW2  669   2.910   0.873   1.958 -1.5323 -0.6990  0.1646
  224SOL     OW  670   1.560   1.051   2.805  0.2503 -0.1862 -0.4781
  224SOL    HW1  671   1.569   0.976   2.737 -0.7701  1.3243 -2.8600
  224SOL    HW2  672   1.526   1.143   2.756 -0.3108 -1.7522  1.6041
  225SOL     OW  673   2.963   2.824   2.942 -0.2188 -0.3781 -0.0122
  225SOL    HW1  674   2.946   2.737   2.891  2.2355  1.6283  1.5375
  225SOL    HW2  675   2.994   2.906   2.883  2.6218 -0.1474  0.5409
  226SOL     OW  676   2.457   1.659   2.860 -0.2331  0.7107 -0.4610
  226SOL    HW1  677   2.501   1.611   2.777  2.9203 -0.8423 -0.0223
  226SOL    HW2  678   2.452   1.600   2.949  1.5615 -0.8132 -0.7409
  227SOL     OW  679   0.780   0.139   2.943 -0.2205 -0.3637  0.4086
  227SOL    HW1  680   0.825   0.090   3.021 -0.0722 -0.0024  0.2200
  227SOL    HW2  681   0.826   0.124   2.846  1.3384  1.0329 -0.5518
  228SOL     OW  682   2.355   0.540   2.775  0.1567 -0.0043  0.3057
  228SOL    HW1  683   2.303   0.576   2.693  1.5305  0.3228  2.1184
  228SOL    HW2  684   2.431   0.473   2.754  1.5700  0.5838  0.9523
  229SOL     OW  685   0.603   0.493   1.873 -0.1430  0.5742 -0.6765
  229SOL    HW1  686   0.632   0.491   1.768  0.9626  0.8751 -2.1151
  229SOL    HW2  687   0.685   0.495   1.946  5.2072 -1.4461  2.7606
  230SOL     OW  688   1.927   1.232   2.121 -0.1066 -0.2269  0.6117
  230SOL    HW1  689   2.012   1.258   2.071 -2.4961 -1.4864  0.1316
  230SOL    HW2  690   1.836   1.265   2.076 -1.9570 -1.5298 -1.6973
  231SOL     OW  691   0.619   1.104   2.951  0.8077 -0.2949  0.1171
  231SOL    HW1  692   0.717   1.077   2.970 -0.2751  2.0353  1.9443
  231SOL    HW2  693   0.548   1.094   3.029  2.1680 -1.6972 -3.6006
  232SOL     OW  694   2.528   0.014   2.721  0.4076 -0.0095  0.1532
  232SOL    HW1  695   2.541  -0.081   2.760 -0.4772  1.3319  1.8569
  232SOL    HW2  696   2.553   0.027   2.623 -1.4202 -0.5060 -0.2205
  233SOL     OW  697   1.734   1.292   1.069  0.2289  0.0361 -0.4031
  233SOL    HW1  698   1.741   1.277   0.967 -2.7088  1.6998 -1.8477
  233SOL    HW2  699   1.760   1.212   1.125 -2.4471 -2.5782  1.0131
  234SOL     OW  700   1.633   2.586   1.925 -0.5024 -0.1056 -0.2672
  234SOL    HW1  701   1.681   2.631   2.003 -1.8953 -1.2077  1.0936
  234SOL    HW2  702   1.558   2.518   1.951 -2.5984  0.2108 -0.5067
  235SOL     OW  703   3.098   3.035   2.826  0.1299 -0.8611 -0.0660
  235SOL    HW1  704   3.156   3.082   2.756  0.5452  0.3810 -0.6725
  235SOL    HW2  705   3.041   3.102   2.883  2.0791 -0.1379 -0.0095
  236SOL     OW  706   2.870   0.694   0.038 -0.0995  0.5141 -0.0726
  236SOL    HW1  707   2.913   0.733   0.125 -3.2303  0.3770  1.3196
  236SOL    HW2  708   2.930   0.624  -0.010 -2.7521 -0.7195  3.4143
  237SOL     OW  709   1.485   1.623   1.029 -0.1235  0.6194 -0.8654
  237SOL    HW1  710   1.589   1.595   1.036  1.2966  1.4797  1.5229
  237SOL    HW2  711   1.454   1.671   1.115 -1.1935 -0.0313 -1.9780
  238SOL     OW  712   1.770   1.362   0.748  0.4858 -0.1143  0.1515
  238SOL    HW1  713   1.856   1.349   0.692  3.0371 -0.7593 -0.6329
  238SOL    HW2  714   1.707   1.432   0.713  0.3586 -0.9546 -0.5913
  239SOL     OW  715   2.143   0.280   2.676 -0.3181 -0.1827  0.2447
  239SOL    HW1  716   2.228   0.274   2.739  2.9767 -0.2057  1.2763
  239SOL    HW2  717   2.074   0.350   2.709  1.9681  1.2571  0.4521
  240SOL     OW  718   0.877   0.730   0.238 -0.3058 -0.3563 -0.1030
  240SOL    HW1  719   0.840   0.655   0.177  0.7263  0.4919 -0.6408
  240SOL    HW2  720   0.882   0.707   0.341  2.4122  0.4122  4.1316
  241SOL     OW  721   0.581   0.020   0.356 -0.2473  0.1076  0.1249
  241SOL    HW1  722   0.609  -0.012   0.261  0.3750  0.1462 -3.8808
  241SOL    HW2  723   0.486  -0.019   0.380  1.5692 -0.2427 -1.2855
  242SOL     OW  724   0.682   2.437   1.141  0.1714 -0.1067  0.1277
  242SOL    HW1  725   0.679   2.517   1.206  0.5580 -0.1301  1.2685
  242SOL    HW2  726   0.765   2.436   1.083 -1.0655 -1.5688  1.7741
  243SOL     OW  727   1.081   0.630   2.500 -0.5236 -0.7329 -0.0997
  243SOL    HW1  728   1.009   0.665   2.435  2.1402 -0.9505 -0.3095
  243SOL    HW2  729   1.041   0.580   2.582 -1.4129 -0.3573  0.3122
  244SOL     OW  730   2.832   1.996   2.334  0.0546  0.0751  0.3430
  244SOL    HW1  731   2.886   1.974   2.252 -3.1079  0.1249  2.1871
  244SOL    HW2  732   2.742   1.947   2.342  0.5317  0.1414  2.7565
  245SOL     OW  733   2.472   0.714   2.189  0.4101 -0.0814 -0.1474
  245SOL    HW1  734   2.489   0.798   2.250  2.4214  0.4086  0.7581
  245SOL    HW2  735   2.525   0.631   2.215 -1.2252 -2.1251  0.7907
  246SOL     OW  736   0.303   2.852   1.770 -0.8127 -0.2170 -0.2001
  246SOL    HW1  737   0.218   2.852   1.709 -2.5911  0.3979 -0.2287
  246SOL    HW2  738   0.354   2.944   1.781 -1.3881 -0.4705  0.5694
  247SOL     OW  739   2.201   0.502   2.993  0.1805  0.1848  0.1060
  247SOL    HW1  740   2.255   0.504   2.902 -0.7067 -1.8709 -1.9415
  247SOL    HW2  741   2.170   0.596   3.016  1.6676  0.1353  0.4336
  248SOL     OW  742   2.179   1.865   1.594  0.2222  0.5036  0.4857
  248SOL    HW1  743   2.205   1.765   1.605  2.7638  0.6795  1.1549
  248SOL    HW2  744   2.087   1.882   1.641 -0.8587  0.2630  1.9105
  249SOL     OW  745   1.997   1.962   1.919  0.3920 -0.6249  0.1316
  249SOL    HW1  746   2.000   1.900   1.835 -1.0516  0.0381  1.4790
  249SOL    HW2  747   2.088   2.005   1.942 -1.3229 -0.2643  1.6097
  250SOL     OW  748   1.023   0.644   1.892 -0.2024 -0.1846 -0.1707
  250SOL    HW1  749   1.033   0.577   1.966  0.9713  1.8294 -1.3143
  250SOL    HW2  750   1.019   0.599   1.796 -3.7622  3.1601 -1.5208
  251SOL     OW  751   3.037   1.542   2.603  0.2843  0.4395 -0.0240
  251SOL    HW1  752   3.041   1.647   2.583  1.0172  0.7362 -3.5078
  251SOL    HW2  753   2.941   1.504   2.581 -0.8913  1.7616  0.4715
  252SOL     OW  754   1.542   0.904   1.619  0.0363 -0.1487  0.0120
  252SOL    HW1  755   1.618   0.952   1.566  0.8845 -0.3285 -0.1928
  252SOL    HW2  756   1.475   0.966   1.665 -0.5473 -2.2187 -1.7091
  253SOL     OW  757   0.995   1.521   0.361  0.3353 -0.0073  0.2490
  253SOL    HW1  758   1.092   1.488   0.339 -2.0193  0.5118 -0.7978
  253SOL    HW2  759   0.932   1.485   0.297 -1.6825 -0.2699  1.8548
  254SOL     OW  760   2.002   2.110   1.603 -0.0615  0.5292  0.1702
  254SOL    HW1  761   1.936   2.063   1.539 -2.5407  1.0890 -0.2286
  254SOL    HW2  762   1.967   2.120   1.703  0.5613  2.6697  0.9819
  255SOL     OW  763   0.117   1.168   2.963  0.2487 -0.1497 -0.5987
  255SOL    HW1  764   0.187   1.249   2.955  1.1825  0.1954 -1.1188
  255SOL    HW2  765   0.142   1.089   3.020 -1.4764  0.8546  0.8748
  256SOL     OW  766   2.709   1.304   1.834 -0.0699 -0.1712  0.5615
  256SOL    HW1  767   2.675   1.294   1.738  0.6330  0.2146 -1.1237
  256SOL    HW2  768   2.661   1.230   1.895 -2.3200 -1.8886  1.5580
  257SOL     OW  769   0.837   0.215   1.864  0.1652  0.8203 -0.0097
  257SOL    HW1  770   0.885   0.278   1.797  0.9601  1.4533  1.2530
  257SOL    HW2  771   0.889   0.127   1.878 -1.0298 -0.4036  1.1261
  258SOL     OW  772   2.947   1.275   0.404 -0.2250  0.1204 -0.1817
  258SOL    HW1  773   2.899   1.362   0.375 -0.4571  2.9405 -0.7385
  258SOL    HW2  774   2.983   1.280   0.500  0.5564  1.2960 -0.1999
  259SOL     OW  775   0.499   2.882   2.991  0.3734 -0.9179  0.4244
  259SOL    HW1  776   0.450   2.850   3.076 -0.8766  2.7272  0.2266
  259SOL    HW2  777   0.530   2.816   2.918 -0.7461 -0.5517 -1.1059
  260SOL     OW  778   2.662   0.741   2.697  0.0895 -0.5281  0.2870
  260SOL    HW1  779   2.581   0.804   2.702  0.3981  1.5317 -2.3420
  260SOL    HW2  780   2.645   0.644   2.728  0.8599 -2.6576 -0.2035
  261SOL     OW  781   2.712   1.311   1.333  0.3453  0.1408 -0.4808
  261SOL    HW1  782   2.652   1.234   1.293 -1.1455  0.8432 -2.3605
  261SOL    HW2  783   2.814   1.286   1.333  1.2747 -2.0513 -0.4361
  262SOL     OW  784   1.494   2.960   2.046 -0.0664 -0.3081 -0.1003
  262SOL    HW1  785   1.539   3.024   1.979  1.9887  0.5952 -0.9335
  262SOL    HW2  786   1.433   2.886   2.003 -1.1807  3.0635 -2.5835
  263SOL     OW  787   0.866   0.741   2.344  0.6379  0.6081 -0.2350
  263SOL    HW1  788   0.801   0.666   2.320  4.0878 -0.9216  1.4149
  263SOL    HW2  789   0.914   0.783   2.266  2.0243 -0.8450  1.8004
  264SOL     OW  790   2.310   0.757   0.478 -0.5576 -0.1548  0.3248
  264SOL    HW1  791   2.215   0.803   0.481 -1.2334  2.4995 -0.3734
  264SOL    HW2  792   2.385   0.826   0.472  1.7342  0.3307  1.5859
  265SOL     OW  793   0.916   2.303   2.699  0.0223  0.4994  0.0799
  265SOL    HW1  794   0.958   2.387   2.749 -0.6323 -0.3060  0.7903
  265SOL    HW2  795   0.874   2.235   2.760 -1.3649  0.5123 -1.1953
  266SOL     OW  796   1.282   1.738   0.022  0.2862 -0.0710  0.3397
  266SOL    HW1  797   1.235   1.804   0.088 -1.6257 -0.3864 -1.0096
  266SOL    HW2  798   1.382   1.725   0.039 -1.6443  1.5123 -0.7512
  267SOL     OW  799   1.103   0.022   2.318 -0.0123 -0.3081 -0.4509
  267SOL    HW1  800   1.045  -0.053   2.274 -0.4017  0.0348 -0.0360
  267SOL    HW2  801   1.202   0.010   2.297 -0.0358  1.0939  2.2888
  268SOL     OW  802   0.656   1.151   1.095 -0.6637  0.1710 -0.2921
  268SOL    HW1  803   0.634   1.215   1.175 -0.2032 -0.6680  1.6302
  268SOL    HW2  804   0.635   1.202   1.010 -0.0268 -0.6696 -2.3370
  269SOL     OW  805   2.412   2.557   1.578  0.7075  0.1612  0.3096
  269SOL    HW1  806   2.482   2.481   1.559  2.6301 -0.4624 -0.7741
  269SOL    HW2  807   2.374   2.559   1.678 -0.9213 -0.7164  0.6008
  270SOL     OW  808   0.301   2.771   2.065 -0.0727 -0.5681 -0.4547
  270SOL    HW1  809   0.271   2.795   1.968 -0.0730  1.3152 -0.4967
  270SOL    HW2  810   0.269   2.676   2.094 -0.6399 -1.3755 -0.9081
  271SOL     OW  811   0.412   1.369   1.152  0.3919 -0.0805  0.1974
  271SOL    HW1  812   0.388   1.380   1.056  4.0305  0.9326 -0.9594
  271SOL    HW2  813   0.349   1.413   1.221  1.9794 -2.0549  1.4461
  272SOL     OW  814   1.973   2.811   1.885  0.0320  0.3048 -0.2242
  272SOL    HW1  815   1.912   2.810   1.801  0.3046 -0.7022 -0.1581
  272SOL    HW2  816   2.054   2.867   1.871 -0.3081 -1.7858 -0.0502
  273SOL     OW  817   1.410   1.425   2.876 -0.2053 -0.1708 -0.2336
  273SOL    HW1  818   1.508   1.421   2.908  0.2244 -1.5868  0.3254
  273SOL    HW2  819   1.343   1.453   2.947 -2.6609 -3.9293 -1.3388
  274SOL     OW  820   1.108   0.478   2.100  0.3109  0.5715 -0.3016
  274SOL    HW1  821   1.176   0.424   2.041  0.0440 -2.7734 -2.9278
  274SOL    HW2  822   1.149   0.504   2.195  0.2589 -1.3572 -0.5586
  275SOL     OW  823   0.664   2.090   1.898 -0.5441  0.3094  0.3963
  275SOL    HW1  824   0.661   2.189   1.921 -1.2814  0.2758 -1.0509
  275SOL    HW2  825   0.576   2.039   1.909  1.8932 -1.0265  2.2047
  276SOL     OW  826   2.153   0.905   2.755  0.4984  0.0273  0.5803
  276SOL    HW1  827   2.097   0.952   2.680 -0.7527  1.6399 -0.9936
  276SOL    HW2  828   2.145   0.801   2.762  1.0523  1.0739 -1.6642
  277SOL     OW  829   3.048   0.852   0.213 -1.4145 -0.2904 -0.3000
  277SOL    HW1  830   3.141   0.871   0.173  3.3286 -1.7130  0.6966
  277SOL    HW2  831   3.060   0.781   0.289  1.2658 -2.2022  3.8593
  278SOL     OW  832   0.248   0.284   2.918 -0.6113  0.2262  0.4138
  278SOL    HW1  833   0.340   0.237   2.939 -1.9362 -0.9102 -1.0660
  278SOL    HW2  834   0.248   0.384   2.931 -2.8379 -0.0699  4.7283
  279SOL     OW  835   0.116   0.052   0.892  0.0351 -0.5223 -0.4149
  279SOL    HW1  836   0.149   0.050   0.990 -1.3308 -0.5098  0.2257
  279SOL    HW2  837   0.202   0.052   0.827  0.8454  1.3487  0.5002
  280SOL     OW  838   1.652   2.950   2.491  0.5051 -0.4897 -0.0607
  280SOL    HW1  839   1.705   3.002   2.559 -2.2547  0.1198  1.1641
  280SOL    HW2  840   1.552   2.959   2.518 -0.2352 -1.8137 -1.5531
  281SOL     OW  841   0.654   1.023   2.336 -0.0499 -0.6475 -0.0846
  281SOL    HW1  842   0.647   0.967   2.250  0.7237  1.1635 -1.0013
  281SOL    HW2  843   0.684   0.970   2.419 -3.3696 -3.2915  0.4487
  282SOL     OW  844   1.658   2.494   0.569 -0.5076 -0.3779  0.4942
  282SOL    HW1  845   1.612   2.431   0.501 -1.1459  1.2752 -0.1574
  282SOL    HW2  846   1.620   2.590   0.558  1.1975  0.7730 -1.5835
  283SOL     OW  847   1.104   0.886   0.717 -0.5596  0.5755 -0.3476
  283SOL    HW1  848   1.146   0.818   0.784 -1.3764 -1.4736  1.5801
  283SOL    HW2  849   1.042   0.950   0.760 -2.0317 -1.4684 -2.7112
  284SOL     OW  850   2.216   2.824   2.426 -0.0825  0.7735  0.0801
  284SOL    HW1  851   2.201   2.840   2.526 -0.9773  2.8323  0.8126
  284SOL    HW2  852   2.185   2.905   2.372  1.5587 -5.3445 -1.0009
  285SOL     OW  853   1.376   3.059   2.532  0.0559 -0.0555 -0.2262
  285SOL    HW1  854   1.399   3.093   2.433  0.3748  0.7706  0.0555
  285SOL    HW2  855   1.296   3.108   2.574 -2.1590  2.4436 -0.2033
  286SOL     OW  856   0.427   0.454   0.634 -0.4842  0.6120  0.4826
  286SOL    HW1  857   0.388   0.414   0.724  0.5989 -0.0721 -3.4265
  286SOL    HW2  858   0.408   0.384   0.559  0.1910  2.5334  1.9514
  287SOL     OW  859   0.079   1.299   2.533 -0.4349 -0.1697 -0.0963
  287SOL    HW1  860   0.045   1.215   2.585  2.4321  2.1698  0.1169
  287SOL    HW2  861   0.020   1.379   2.549  0.1321 -3.9004 -0.3581
  288SOL     OW  862   1.589   2.577   1.479 -0.1796 -0.4078  0.5883
  288SOL    HW1  863   1.684   2.574   1.521 -4.0478  1.3862 -0.1900
  288SOL    HW2  864   1.589   2.559   1.371  1.6520  0.4064 -2.7738
  289SOL     OW  865   0.626   2.734   0.843  0.2334  0.7279 -0.2139
  289SOL    HW1  866   0.672   2.795   0.776  0.8762  0.8280 -1.2334
  289SOL    HW2  867   0.626   2.771   0.941 -2.5661 -1.1604 -1.2058
  290SOL     OW  868   2.976   1.278   1.662 -0.7504 -0.2695  0.3114
  290SOL    HW1  869   2.899   1.254   1.730 -1.5526 -2.9101  2.1631
  290SOL    HW2  870   3.066   1.277   1.710  0.2781 -2.5243 -1.9320
  291SOL     OW  871   1.992   0.037   0.093  0.0899 -0.6651 -0.1858
  291SOL    HW1  872   2.001   0.021   0.198  0.1002  0.0363  0.1431
  291SOL    HW2  873   2.063   0.101   0.052 -1.6622  2.7651  2.0450
  292SOL     OW  874   2.955   1.186   3.065  0.5125 -0.1159 -0.2038
  292SOL    HW1  875   2.878   1.252   3.036  1.1846  2.0998  1.8315
  292SOL    HW2  876   3.051   1.212   3.031  0.7243 -0.4375 -1.9504
  293SOL     OW  877   0.550   2.088   0.154  0.4372 -0.7341  0.2087
  293SOL    HW1  878   0.523   2.160   0.225  0.9289 -1.1163 -0.8621
  293SOL    HW2  879   0.649   2.051   0.164 -0.3893 -1.3047 -2.8639
  294SOL     OW  880   1.618   2.111   1.849  0.5187  0.3881  0.5905
  294SOL    HW1  881   1.648   2.162   1.936 -3.3156 -0.2149 -0.4584
  294SOL    HW2  882   1.660   2.152   1.761 -0.1797  0.8094 -1.5043
  295SOL     OW  883   0.973   1.182   0.400 -0.1304  0.4494 -0.4463
  295SOL    HW1  884   1.043   1.136   0.456  1.5113 -0.9773 -0.9046
  295SOL    HW2  885   0.879   1.142   0.423 -3.1360 -1.0094 -2.5213
  296SOL     OW  886   1.290   2.109   2.526  0.1552 -0.2492  0.4467
  296SOL    HW1  887   1.251   2.166   2.445 -1.6176  3.4752 -2.3284
  296SOL    HW2  888   1.289   2.004   2.501  1.0540 -1.3731  0.5682
  297SOL     OW  889   1.510   0.711   1.372  0.5328  0.0422 -0.2827
  297SOL    HW1  890   1.582   0.635   1.370 -1.0834 -0.6039  1.9694
  297SOL    HW2  891   1.512   0.761   1.462 -0.0836 -0.2714  1.0181
  298SOL     OW  892   0.543   1.337   2.833 -0.3960 -0.5674 -0.0409
  298SOL    HW1  893   0.564   1.248   2.888 -0.6329 -0.1514  0.4338
  298SOL    HW2  894   0.616   1.353   2.764  0.7366 -1.8261 -0.3740
  299SOL     OW  895   0.356   0.381   1.506  0.0142  0.0650 -0.3038
  299SOL    HW1  896   0.367   0.468   1.452 -1.1821  0.7268  0.7772
  299SOL    HW2  897   0.442   0.323   1.511  0.6172  0.0363  0.3567
  300SOL     OW  898   1.287   1.812   2.843 -0.1540 -0.1442 -0.2982
  300SOL    HW1  899   1.291   1.723   2.787  1.0664 -2.1095  0.0252
  300SOL    HW2  900   1.290   1.799   2.944 -2.2694 -1.1430 -2.0239
  301SOL     OW  901   0.430   0.277   0.433  0.0553  0.5573 -0.3280
  301SOL    HW1  902   0.330   0.258   0.421 -0.0214  0.9152 -0.7628
  301SOL    HW2  903   0.494   0.212   0.382  0.2311 -2.9974 -0.1345
  302SOL     OW  904   1.183   2.307   2.368  0.1586 -0.1265 -0.0458
  302SOL    HW1  905   1.136   2.394   2.402  1.5618 -1.9816 -2.2224
  302SOL    HW2  906   1.122   2.255   2.307 -0.1390 -0.6957 -1.0624
  303SOL     OW  907   0.929   2.408   0.758  0.2462  0.0557 -0.3369
  303SOL    HW1  908   0.976   2.488   0.712  0.4429  1.4846  1.6038
  303SOL    HW2  909   0.936   2.408   0.861  0.0615 -2.0850 -0.4639
  304SOL     OW  910   0.075   1.991   0.676  0.0360  0.3577  0.5517
  304SOL    HW1  911   0.102   1.947   0.583 -3.0011 -1.4416 -5.1084
  304SOL    HW2  912   0.000   2.061   0.659 -0.4890 -1.8040 -0.0666
  305SOL     OW  913   1.609   0.887   0.681  0.3406  0.2127 -0.0851
  305SOL    HW1  914   1.542   0.882   0.604  1.4743 -2.0616  1.2371
  305SOL    HW2  915   1.685   0.820   0.670 -2.6952 -1.7241  1.0019
  306SOL     OW  916   0.426   1.926   1.945  0.2637 -0.7382  0.4061
  306SOL    HW1  917   0.471   1.861   1.882 -0.7632 -0.0127 -0.6365
  306SOL    HW2  918   0.431   1.901   2.046 -1.4887 -0.3441  0.1830
  307SOL     OW  919   3.096   0.872   2.542 -0.2810 -0.0439 -0.2890
  307SOL    HW1  920   3.110   0.953   2.609  3.0607 -1.7878  1.3691
  307SOL    HW2  921   3.000   0.830   2.557 -0.4030  0.9375 -1.6334
  308SOL     OW  922   1.567   2.683   2.803  0.1972 -0.3074  0.6651
  308SOL    HW1  923   1.570   2.619   2.720  0.5300 -2.4760 -1.4934
  308SOL    HW2  924   1.493   2.654   2.871  1.0630  1.1437 -0.7115
  309SOL     OW  925   1.256   0.013   1.816 -1.0597 -0.2457 -0.3593
  309SOL    HW1  926   1.348   0.020   1.866  2.6032  0.1453  0.0934
  309SOL    HW2  927   1.254   0.037   1.717  2.8474  2.2562 -0.0904
  310SOL     OW  928   1.434   2.657   0.701 -0.1528  0.5156 -0.7231
  310SOL    HW1  929   1.377   2.719   0.766  1.9587  2.9680  0.7893
  310SOL    HW2  930   1.504   2.713   0.641 -1.2170  1.0190 -2.3608
  311SOL     OW  931   1.222   0.988   1.462 -0.0925 -0.1239  0.1488
  311SOL    HW1  932   1.295   0.934   1.410  0.2247 -2.1973 -3.7454
  311SOL    HW2  933   1.246   1.087   1.485 -3.0063 -1.3468  3.6278
  312SOL     OW  934   1.633   0.640   1.011  0.1403  0.0209 -0.1163
  312SOL    HW1  935   1.605   0.735   1.044  0.5961  1.6782 -0.1863
  312SOL    HW2  936   1.551   0.589   0.968 -1.2608 -1.0060 -1.4093
  313SOL     OW  937   1.586   1.447   0.481 -0.3474  0.2114  0.1650
  313SOL    HW1  938   1.493   1.414   0.457  1.2198 -3.6413 -2.0544
  313SOL    HW2  939   1.659   1.372   0.476  0.9174 -0.8171  0.4717
  314SOL     OW  940   2.921   0.070   3.065 -0.2776  0.1401 -0.7328
  314SOL    HW1  941   2.919   0.107   3.163 -1.0928  0.9456  0.4332
  314SOL    HW2  942   2.831   0.019   3.043 -0.9858  1.5693 -0.0400
  315SOL     OW  943   1.283   0.238   2.759 -0.4688 -0.1321  0.5340
  315SOL    HW1  944   1.245   0.203   2.669  4.4746 -1.0077  0.4874
  315SOL    HW2  945   1.290   0.168   2.833  2.0756  0.2550  0.5873
  316SOL     OW  946   1.714   2.088   0.910  0.3200 -0.4145 -0.0080
  316SOL    HW1  947   1.700   2.129   1.009  0.9166 -1.0669  1.1971
  316SOL    HW2  948   1.708   2.162   0.841 -1.1824  3.6592 -0.4692
  317SOL     OW  949   1.161   0.702   2.813  0.0516  0.2901  0.2968
  317SOL    HW1  950   1.119   0.750   2.893 -1.8023  0.5950 -1.6225
  317SOL    HW2  951   1.108   0.620   2.780 -0.1679  2.0845  1.8179
  318SOL     OW  952   1.408   0.007   2.259 -0.0295 -0.5811  0.0838
  318SOL    HW1  953   1.397   0.102   2.226  0.7295  0.0845  0.1333
  318SOL    HW2  954   1.439  -0.064   2.187  0.9270 -1.1440  2.0924
  319SOL     OW  955   0.652   2.398   2.933 -0.3781 -0.2157  0.2710
  319SOL    HW1  956   0.587   2.384   3.008 -0.2767 -2.5416 -1.3829
  319SOL    HW2  957   0.693   2.314   2.891  1.6066 -0.6181  2.3236
  320SOL     OW  958   1.607   2.274   0.432  0.7539  0.1020 -0.6984
  320SOL    HW1  959   1.705   2.243   0.456 -0.7289  1.2734  0.5279
  320SOL    HW2  960   1.535   2.211   0.474  0.9994 -1.8538 -1.3822
  321SOL     OW  961   1.614   2.768   0.534 -0.7245 -0.3526  1.0844
  321SOL    HW1  962   1.548   2.812   0.466 -2.7846 -1.6382  1.1310
  321SOL    HW2  963   1.716   2.785   0.510  2.2655 -1.0020  1.7021
  322SOL     OW  964   2.680   1.100   2.261  0.4074 -0.5193 -0.7336
  322SOL    HW1  965   2.740   1.106   2.347  0.5263 -1.3332 -0.2028
  322SOL    HW2  966   2.592   1.039   2.274 -1.8523 -2.4009  3.0251
  323SOL     OW  967   1.003   2.728   0.874  0.1474 -0.6819  0.1949
  323SOL    HW1  968   1.036   2.701   0.780 -0.5778  0.5700 -3.2841
  323SOL    HW2  969   0.985   2.833   0.870 -1.0443 -0.5572 -0.9052
  324SOL     OW  970   0.083   2.495   2.427  0.2994 -0.1658 -0.1553
  324SOL    HW1  971   0.043   2.399   2.453  1.5141  0.5760  2.0009
  324SOL    HW2  972   0.045   2.576   2.484  1.0803 -0.6917  2.6279
  325SOL     OW  973   1.197   3.063   0.473 -0.4791  0.4759 -0.0544
  325SOL    HW1  974   1.192   3.120   0.392  0.6323 -1.2969  1.0582
  325SOL    HW2  975   1.208   3.115   0.562  2.6980 -3.3867 -0.9132
  326SOL     OW  976   2.308   0.798   0.070 -0.2451 -0.6188 -0.5367
  326SOL    HW1  977   2.214   0.837   0.052  1.1076  0.3979  1.7930
  326SOL    HW2  978   2.304   0.708   0.122  0.2494 -1.3963 -1.8065
  327SOL     OW  979   2.695   0.433   0.536  0.3751 -0.0728 -0.2765
  327SOL    HW1  980   2.732   0.394   0.446 -0.1064  0.5751 -0.9842
  327SOL    HW2  981   2.605   0.392   0.566  0.5312  0.2030  0.8572
  328SOL     OW  982   2.535   0.619   0.354 -0.4152  0.1520  0.4348
  328SOL    HW1  983   2.438   0.605   0.387 -0.0677 -0.1797 -2.3074
  328SOL    HW2  984   2.614   0.618   0.422  0.2431  2.3039 -2.5497
  329SOL     OW  985   2.988   2.938   2.126 -0.7456 -0.1782 -0.1408
  329SOL    HW1  986   3.067   2.922   2.195 -0.2669  2.6491 -2.1649
  329SOL    HW2  987   3.005   3.028   2.081  0.9786 -2.5682  1.3368
  330SOL     OW  988   0.499   0.228   1.850  0.2488  0.0005 -0.6653
  330SOL    HW1  989   0.512   0.330   1.857  2.3329  0.0799  0.6893
  330SOL    HW2  990   0.580   0.181   1.893 -0.0263 -0.6316 -1.0698
  331SOL     OW  991   2.878   1.923   1.090  0.3497 -0.3046 -0.0440
  331SOL    HW1  992   2.931   2.011   1.068 -0.0430 -1.9598  0.5993
  331SOL    HW2  993   2.826   1.933   1.175  3.8791 -0.8612  0.6817
  332SOL     OW  994   0.434   1.037   0.026  0.2944  0.0054  0.0539
  332SOL    HW1  995   0.387   0.996  -0.052  2.2512  1.2286  2.7570
  332SOL    HW2  996   0.379   1.074   0.106  2.1300  0.0852  1.6787
  333SOL     OW  997   2.857   1.024   0.306 -0.3685 -0.0867 -0.4076
  333SOL    HW1  998   2.891   1.107   0.361 -0.3498  1.5653 -1.6260
  333SOL    HW2  999   2.935   0.958   0.270  3.0050 -1.4870 -0.2610
  334SOL     OW 1000   1.640   1.152   1.901 -0.1648  0.4175  0.4176
  334SOL    HW1 1001   1.720   1.139   1.827  3.3338  0.9643 -0.0731
  334SOL    HW2 1002   1.641   1.243   1.956 -0.3405 -1.9506  2.6279
  335SOL     OW 1003   1.960   2.803   2.619  0.9412 -0.5197 -0.2587
  335SOL    HW1 1004   2.028   2.795   2.699  2.2561  2.4159  1.4830
  335SOL    HW2 1005   1.869   2.847   2.643  0.3448  1.2324  1.7041
  336SOL     OW 1006   0.210   0.065   2.693  0.1450  0.1803 -0.0795
  336SOL    HW1 1007   0.295   0.010   2.721  1.4748 -2.6047  0.7665
  336SOL    HW2 1008   0.196   0.158   2.737  0.1222 -0.6495  0.5609
  337SOL     OW 1009   1.000   2.811   2.820 -0.1106 -0.0724  0.2239
  337SOL    HW1 1010   0.975   2.803   2.923 -0.9494  0.3035 -0.8787
  337SOL    HW2 1011   1.100   2.794   2.798 -2.2373 -0.1762  0.8570
  338SOL     OW 1012   0.006   1.009   0.603 -0.0709 -0.7658 -0.4925
  338SOL    HW1 1013  -0.073   0.968   0.659 -0.5609 -0.5479  0.2993
  338SOL    HW2 1014   0.017   1.115   0.611 -1.5651  2.7360  1.7704
  339SOL     OW 1015   1.717   1.394   2.061  0.1716 -0.1242  0.2635
  339SOL    HW1 1016   1.619   1.406   2.095 -1.5943  0.3509 -0.1795
  339SOL    HW2 1017   1.766   1.482   2.042  1.5754 -0.5014  1.0411
  340SOL     OW 1018   2.285   0.788   1.282 -0.3043 -0.3520 -0.2307
  340SOL    HW1 1019   2.194   0.824   1.241  0.8477 -0.1088  0.3346
  340SOL    HW2 1020   2.342   0.728   1.217  1.8273 -0.7242 -1.0427
  341SOL     OW 1021   1.874   2.178   0.471 -0.3744  1.3863 -0.4159
  341SOL    HW1 1022   1.879   2.188   0.370  1.2950 -2.6148  3.6426
  341SOL    HW2 1023   1.971   2.178   0.508 -0.0977 -1.9819  0.5070
  342SOL     OW 1024   2.231   2.197   2.810 -0.4267  0.1115  0.2315
  342SOL    HW1 1025   2.302   2.131   2.841  1.0116 -0.7813  0.8611
  342SOL    HW2 1026   2.133   2.157   2.799  0.2193  1.1706  3.2270
  343SOL     OW 1027   0.310   0.895   2.864 -0.0700  0.5432 -0.2167
  343SOL    HW1 1028   0.300   0.949   2.773  0.7226  0.9881  0.4011
  343SOL    HW2 1029   0.408   0.856   2.866  2.5901 -1.4962  1.0035
  344SOL     OW 1030   1.874   1.466   0.309 -0.9597  0.2267  0.4239
  344SOL    HW1 1031   1.853   1.399   0.233  2.2230  0.0995  1.8039
  344SOL    HW2 1032   1.846   1.560   0.288  0.9085 -0.5107  0.8934
  345SOL     OW 1033   1.446   2.212   2.855 -0.6284  0.0342 -0.1607
  345SOL    HW1 1034   1.359   2.159   2.838 -0.9498  1.3282 -0.4897
  345SOL    HW2 1035   1.525   2.165   2.805 -1.5147 -0.0741 -0.7447
  346SOL     OW 1036   2.421   0.888   1.490  0.6936  0.1124 -1.0306
  346SOL    HW1 1037   2.376   0.974   1.530 -2.1262  0.3600  0.7129
  346SOL    HW2 1038   2.357   0.845   1.417  2.1466  1.3762 -1.6715
  347SOL     OW 1039   0.677   2.789   1.515  0.2131 -1.0535 -0.2970
  347SOL    HW1 1040   0.661   2.731   1.601 -0.6972  1.0672 -0.0992
  347SOL    HW2 1041   0.597   2.844   1.480  2.6011 -0.1794  1.3360
  348SOL     OW 1042   0.094   0.687   2.808 -0.6316 -0.3756 -0.1406
  348SOL    HW1 1043  -0.008   0.710   2.795 -1.9140  1.5893 -3.7773
  348SOL    HW2 1044   0.157   0.770   2.797  0.8460  0.9224 -1.5226
  349SOL     OW 1045   1.924   0.467   2.743 -0.0381 -0.1495  0.5148
  349SOL    HW1 1046   1.911   0.546   2.678 -0.6485 -1.3529  1.5621
  349SOL    HW2 1047   1.865   0.476   2.829 -1.6624 -0.2844  0.1514
  350SOL     OW 1048   1.666   0.364   0.354 -0.2554 -0.1018  0.3500
  350SOL    HW1 1049   1.723   0.409   0.427 -0.6507 -0.8963  0.8637
  350SOL    HW2 1050   1.629   0.428   0.278 -2.9902 -5.0848  0.5671
  351SOL     OW 1051   0.925   0.905   2.111 -0.2433 -0.3593 -0.0157
  351SOL    HW1 1052   0.915   1.004   2.093 -0.0860  0.3965  0.0361
  351SOL    HW2 1053   0.859   0.848   2.056  1.7539 -1.5941  1.6471
  352SOL     OW 1054   1.966   1.372   0.565 -0.1648  0.4925  0.1354
  352SOL    HW1 1055   1.927   1.415   0.477  1.7820 -1.0105  1.9211
  352SOL    HW2 1056   2.040   1.425   0.612 -0.1374 -1.9363 -1.3231
  353SOL     OW 1057   2.143   2.811   1.194 -0.2355  0.2682 -0.0242
  353SOL    HW1 1058   2.239   2.788   1.165  3.1278  1.7989  0.8683
  353SOL    HW2 1059   2.070   2.759   1.139  0.3334 -0.0869 -1.2687
  354SOL     OW 1060   0.305   1.360   2.923  0.2372 -0.4042  0.2353
  354SOL    HW1 1061   0.256   1.435   2.867 -3.6161  0.2847 -1.2141
  354SOL    HW2 1062   0.392   1.327   2.875 -0.7099 -0.8478 -2.6406
  355SOL     OW 1063   0.450   1.485   0.529 -0.2718 -0.5461  0.4646
  355SOL    HW1 1064   0.495   1.578   0.522 -0.6849 -1.5033  0.8340
  355SOL    HW2 1065   0.520   1.406   0.520  1.7521  2.7504 -0.3322
  356SOL     OW 1066   0.808   0.400   2.073  0.7076 -0.0544 -0.1030
  356SOL    HW1 1067   0.892   0.424   2.123  0.0519  3.5691 -0.5552
  356SOL    HW2 1068   0.823   0.334   1.997  0.6890  0.9854  1.4349
  357SOL     OW 1069   1.070   1.308   0.172 -0.0626 -0.7953 -0.1610
  357SOL    HW1 1070   1.007   1.281   0.096 -2.3001  1.1122  0.4231
  357SOL    HW2 1071   1.015   1.295   0.261 -0.6904  1.5428 -0.3516
  358SOL     OW 1072   1.614   1.649   0.287  0.0290  0.1142  0.7139
  358SOL    HW1 1073   1.613   1.549   0.323  0.4284 -0.1130  1.4371
  358SOL    HW2 1074   1.546   1.713   0.336  2.0077  1.8805 -0.5477
  359SOL     OW 1075   1.569   2.711   0.127 -0.0619 -0.1352  0.1954
  359SOL    HW1 1076   1.593   2.667   0.041 -1.0370  0.0054  0.3938
  359SOL    HW2 1077   1.474   2.687   0.159  2.3058  0.2624 -1.2432
  360SOL     OW 1078   0.874   0.584   0.463  0.3710  0.0422  0.5935
  360SOL    HW1 1079   0.781   0.582   0.496  1.8047 -2.3695 -2.0742
  360SOL    HW2 1080   0.909   0.485   0.457 -0.1430  0.7995 -0.5682
  361SOL     OW 1081   1.288   1.370   0.641 -0.0436 -0.0660  0.4491
  361SOL    HW1 1082   1.332   1.392   0.733  1.7865  0.3262  0.8566
  361SOL    HW2 1083   1.185   1.356   0.638  1.1980 -0.2705 -0.6427
  362SOL     OW 1084   1.383   1.730   0.783 -0.1576 -0.2444 -0.1441
  362SOL    HW1 1085   1.431   1.704   0.875  1.0832  1.6862  2.7701
  362SOL    HW2 1086   1.440   1.801   0.732  2.5097 -1.5211 -1.9749
  363SOL     OW 1087   1.124   1.300   2.036 -0.1128  0.4594  0.0237
  363SOL    HW1 1088   1.092   1.393   2.073 -0.9631  0.7559 -1.0425
  363SOL    HW2 1089   1.183   1.315   1.947  2.0469 -0.6518  0.4521
  364SOL     OW 1090   0.581   2.349   2.011  0.1635 -0.8515  0.4126
  364SOL    HW1 1091   0.478   2.366   2.003  1.8706  1.0465 -1.8812
  364SOL    HW2 1092   0.638   2.409   1.954 -0.5710 -0.0082  3.1251
  365SOL     OW 1093   1.143   1.774   1.443  0.1539  0.7593 -0.0209
  365SOL    HW1 1094   1.055   1.817   1.478 -2.0561  0.5421 -0.8509
  365SOL    HW2 1095   1.161   1.678   1.483  2.3513 -0.5228  1.6997
  366SOL     OW 1096   2.831   2.063   0.479 -0.0636 -0.1327 -0.4543
  366SOL    HW1 1097   2.734   2.033   0.501  0.3023  1.1670  0.0310
  366SOL    HW2 1098   2.883   2.001   0.418 -0.0230 -0.9153  2.0281
  367SOL     OW 1099   0.826   1.169   0.074 -0.4949  0.3926  0.1007
  367SOL    HW1 1100   0.883   1.087   0.119  2.6192 -0.7074  2.1060
  367SOL    HW2 1101   0.832   1.160  -0.033  0.2159 -3.2915 -1.3263
  368SOL     OW 1102   1.506   0.481   0.612  0.1986 -0.5225  0.4950
  368SOL    HW1 1103   1.452   0.538   0.542 -1.1577 -1.8157  2.6575
  368SOL    HW2 1104   1.612   0.488   0.604  1.4238  0.3777 -0.2050
  369SOL     OW 1105   0.295   1.667   0.103  0.4536  0.0488 -0.3652
  369SOL    HW1 1106   0.296   1.768   0.145  2.2353 -0.2140  2.6514
  369SOL    HW2 1107   0.199   1.629   0.107 -1.5156 -0.9633 -3.1980
  370SOL     OW 1108   0.461   2.119   0.983  0.0533 -0.0086  0.0180
  370SOL    HW1 1109   0.466   2.223   0.966 -1.4775  1.0355 -0.2237
  370SOL    HW2 1110   0.366   2.084   0.957 -0.5121  1.6191 -0.0938
  371SOL     OW 1111   2.964   2.192   2.784 -0.6320  0.6882 -0.1260
  371SOL    HW1 1112   2.968   2.162   2.886 -0.4259 -1.0589 -2.0930
  371SOL    HW2 1113   3.047   2.235   2.749  0.0205 -3.0147 -0.8026
  372SOL     OW 1114   0.869   1.901   1.015  0.0206 -0.6994  0.3050
  372SOL    HW1 1115   0.832   1.985   1.061  0.8065  0.9316 -1.7229
  372SOL    HW2 1116   0.950   1.931   0.954  0.3463 -2.3087  0.5122
  373SOL     OW 1117   1.931   1.942   0.933  0.2046  0.1736  0.4942
  373SOL    HW1 1118   2.002   1.968   1.002  0.1712  0.7151 -1.0211
  373SOL    HW2 1119   1.850   2.007   0.946  1.1293  3.7382 -0.7686
  374SOL     OW 1120   1.826   0.453   0.579  0.4936  0.3675 -0.3540
  374SOL    HW1 1121   1.822   0.378   0.655  0.1719 -3.2125  1.7558
  374SOL    HW2 1122   1.918   0.451   0.536  0.8317 -4.2281  2.5042
  375SOL     OW 1123   2.473   2.304   1.124  0.1206 -0.5387 -0.6778
  375SOL    HW1 1124   2.515   2.251   1.046  1.2433 -0.7312  1.6952
  375SOL    HW2 1125   2.496   2.272   1.219 -0.5436 -0.1079  1.4371
  376SOL     OW 1126   3.059   0.651   1.467  0.7008 -0.1762 -0.0588
  376SOL    HW1 1127   3.110   0.720   1.531  1.6441 -1.6058  0.5996
  376SOL    HW2 1128   2.959   0.675   1.448 -1.0427  0.7275 -1.6233
  377SOL     OW 1129   2.181   2.805   0.323  0.5811  0.4456  0.0008
  377SOL    HW1 1130   2.107   2.875   0.349 -2.6030  1.5362 -0.7736
  377SOL    HW2 1131   2.273   2.852   0.310  0.6596  0.0596  1.2924
  378SOL     OW 1132   1.874   1.833   2.673 -0.1075  0.4364 -0.3331
  378SOL    HW1 1133   1.943   1.758   2.691  2.0341  0.9739  0.5358
  378SOL    HW2 1134   1.789   1.788   2.632 -0.2747 -0.4674 -1.8527
  379SOL     OW 1135   0.876   0.118   2.700 -0.0164  0.4561  0.1794
  379SOL    HW1 1136   0.888   0.018   2.674 -2.2153 -0.2206  0.6263
  379SOL    HW2 1137   0.791   0.163   2.664  0.3988  0.7513  2.3546
  380SOL     OW 1138   1.578   1.140   0.533 -0.2576  0.5093  0.4217
  380SOL    HW1 1139   1.510   1.065   0.552 -0.5621  1.5445 -0.5980
  380SOL    HW2 1140   1.583   1.199   0.617  0.1200  2.0688  1.6119
  381SOL     OW 1141   1.293   1.261   1.505 -0.3042 -0.5780  0.0145
  381SOL    HW1 1142   1.330   1.331   1.437 -0.9601  1.0230 -2.8900
  381SOL    HW2 1143   1.370   1.235   1.572  0.1404  0.0963 -0.6563
  382SOL     OW 1144   1.728   0.792   0.259 -0.0059 -0.0734 -0.2110
  382SOL    HW1 1145   1.766   0.783   0.163  1.5531 -0.3898  2.6550
  382SOL    HW2 1146   1.771   0.732   0.331  1.0120 -0.0337  2.7728
  383SOL     OW 1147   2.664   1.005   1.538  0.3951  0.0401  0.5740
  383SOL    HW1 1148   2.574   0.957   1.506  1.8269 -0.1085  0.1532
  383SOL    HW2 1149   2.719   1.030   1.456  2.6359  1.1967 -3.4232
  384SOL     OW 1150   1.013   2.305   0.128  0.1487 -0.2673  0.4069
  384SOL    HW1 1151   0.927   2.368   0.126 -0.4899  3.2671  1.5936
  384SOL    HW2 1152   1.013   2.253   0.215 -1.6728  1.8339 -2.4752
  385SOL     OW 1153   2.976   2.057   1.687  0.0307 -0.1155  0.0688
  385SOL    HW1 1154   3.064   2.111   1.688 -2.2887  1.3261  0.7114
  385SOL    HW2 1155   2.996   1.952   1.701 -2.7212  1.8050  1.2997
  386SOL     OW 1156   0.427   1.042   0.452  0.2065 -0.1350  0.2219
  386SOL    HW1 1157   0.431   0.939   0.454  1.0992  0.8375  1.0378
  386SOL    HW2 1158   0.366   1.084   0.380  1.3899 -2.8235  3.2416
  387SOL     OW 1159   1.011   0.362   1.693 -0.2555  0.2509 -0.2279
  387SOL    HW1 1160   1.078   0.434   1.669 -1.6070 -2.3308 -0.6591
  387SOL    HW2 1161   1.012   0.287   1.617 -0.3694 -2.0244 -2.2598
  388SOL     OW 1162   1.270   2.559   1.751 -0.2107  0.1482 -0.2994
  388SOL    HW1 1163   1.280   2.550   1.648 -0.2889 -1.1781  1.2204
  388SOL    HW2 1164   1.315   2.481   1.806  2.7607 -1.0381 -1.1803
  389SOL     OW 1165   0.236   3.104   1.137  0.1170 -0.0384  0.2482
  389SOL    HW1 1166   0.202   3.094   1.236 -0.5077  2.1823 -2.3097
  389SOL    HW2 1167   0.308   3.038   1.109  1.0187  1.5806  3.3073
  390SOL     OW 1168   1.073   0.852   1.162  0.2958 -0.5847 -0.2062
  390SOL    HW1 1169   1.169   0.806   1.158 -0.7643  0.9624 -1.2171
  390SOL    HW2 1170   1.057   0.899   1.252 -1.2513  2.0796  1.1520
  391SOL     OW 1171   2.075   1.146   1.080  0.2221  0.4423 -0.8238
  391SOL    HW1 1172   2.053   1.062   1.136 -1.4040  0.7053  0.0231
  391SOL    HW2 1173   2.143   1.124   1.008  1.9516  1.3369  2.6719
  392SOL     OW 1174   0.912   2.707   3.089 -0.2675 -0.2073  0.2704
  392SOL    HW1 1175   0.829   2.708   3.153  0.2923  0.6502  1.1266
  392SOL    HW2 1176   0.994   2.755   3.135 -0.3023 -0.4846  3.0517
  393SOL     OW 1177   0.360   0.581   1.989 -0.1136 -0.2625 -0.2422
  393SOL    HW1 1178   0.288   0.506   1.990  0.7389 -1.4818  0.1056
  393SOL    HW2 1179   0.444   0.554   1.934  0.6742 -1.2822  0.4019
  394SOL     OW 1180   2.823   1.804   2.747 -0.0444 -0.5753  0.0696
  394SOL    HW1 1181   2.894   1.809   2.673  1.5228  0.1455  2.6636
  394SOL    HW2 1182   2.761   1.880   2.756  2.6045 -2.0088 -1.7892
  395SOL     OW 1183   1.555   1.953   0.708  0.0118  0.2169 -0.2028
  395SOL    HW1 1184   1.634   1.894   0.673  0.2072 -2.5372 -2.7364
  395SOL    HW2 1185   1.583   1.999   0.799  1.3398 -0.0995  4.6053
  396SOL     OW 1186   2.729   1.963   1.321 -0.1202  0.3841 -0.4341
  396SOL    HW1 1187   2.759   1.977   1.421  0.3725 -0.9833 -0.9004
  396SOL    HW2 1188   2.630   1.934   1.317  1.5116 -2.5671  0.8338
  397SOL     OW 1189   0.967   2.155   0.644  0.4742 -0.0290  0.4850
  397SOL    HW1 1190   0.876   2.128   0.593 -2.3619  1.7801 -0.6297
  397SOL    HW2 1191   0.958   2.253   0.678  1.8588  1.7547  1.1258
  398SOL     OW 1192   2.223   3.078   1.102 -0.4999  0.2503 -0.7267
  398SOL    HW1 1193   2.194   2.986   1.133  2.1425 -1.1499 -1.0993
  398SOL    HW2 1194   2.142   3.137   1.064 -1.9320 -0.6479 -0.1804
  399SOL     OW 1195   2.889   2.586   2.769 -0.1234 -0.0279  0.3249
  399SOL    HW1 1196   2.848   2.534   2.693 -0.5458 -0.0723  0.2589
  399SOL    HW2 1197   2.834   2.567   2.852  0.0768  0.0684 -0.5447
  400SOL     OW 1198   0.799   1.567   1.299 -0.3881  0.3588 -0.0982
  400SOL    HW1 1199   0.757   1.623   1.376  0.3724  0.0505 -1.3278
  400SOL    HW2 1200   0.773   1.611   1.210  0.4700 -0.6292 -0.8289
  401SOL     OW 1201   1.856   0.150   1.282 -0.3695 -0.2036  0.1652
  401SOL    HW1 1202   1.891   0.187   1.374  0.3069  0.5906  1.8586
  401SOL    HW2 1203   1.756   0.179   1.268 -1.0695 -0.9371  1.1677
  402SOL     OW 1204   1.349   0.137   3.016 -0.1313  0.2754 -0.0276
  402SOL    HW1 1205   1.446   0.141   2.979 -3.8978 -3.0939 -0.8285
  402SOL    HW2 1206   1.326   0.200   3.099 -5.0691  0.1707 -0.6868
  403SOL     OW 1207   2.254   1.862   0.953 -0.5872  0.0486  0.0958
  403SOL    HW1 1208   2.356   1.841   0.973  0.2861  1.5238 -3.1288
  403SOL    HW2 1209   2.226   1.942   1.010  0.4088  0.1256  1.4109
  404SOL     OW 1210   0.230   2.474   2.774  0.1470 -0.2843  0.1175
  404SOL    HW1 1211   0.313   2.449   2.717  1.6193 -1.1793  2.9930
  404SOL    HW2 1212   0.213   2.577   2.779 -0.8073  0.9947  0.8049
  405SOL     OW 1213   0.190   2.514   0.569  0.1262  0.0395  0.0909
  405SOL    HW1 1214   0.213   2.410   0.583  2.4949 -1.0961  0.5152
  405SOL    HW2 1215   0.276   2.577   0.578 -0.9408  1.2762  0.1464
  406SOL     OW 1216   0.036   1.638   3.018 -0.3067 -0.3942 -0.1421
  406SOL    HW1 1217   0.082   1.615   2.930  2.5052 -0.2287 -0.8314
  406SOL    HW2 1218   0.043   1.569   3.094  0.4985  1.7470 -2.2486
  407SOL     OW 1219   1.564   0.937   0.955  0.4826  0.4118  0.7830
  407SOL    HW1 1220   1.564   0.892   0.860 -1.8157  1.7412  0.3130
  407SOL    HW2 1221   1.481   1.002   0.955  2.0424  3.0294  0.0325
  408SOL     OW 1222   1.466   2.318   0.915 -0.1862 -0.1176  0.2907
  408SOL    HW1 1223   1.554   2.316   0.858 -0.4483 -1.6030  0.9701
  408SOL    HW2 1224   1.451   2.401   0.973 -1.3763 -0.3923 -2.0199
  409SOL     OW 1225   0.613   0.855   0.688 -0.0707  0.1866  0.2404
  409SOL    HW1 1226   0.518   0.847   0.641 -0.8308 -2.0704 -2.2955
  409SOL    HW2 1227   0.676   0.775   0.654  4.0244  0.0294 -3.0612
  410SOL     OW 1228   1.360   1.954   1.483  0.7438  0.3119  0.4162
  410SOL    HW1 1229   1.316   2.045   1.514 -2.6925  3.3453 -0.5695
  410SOL    HW2 1230   1.284   1.880   1.487 -1.7781  0.2415  0.8831
  411SOL     OW 1231   2.377   1.853   0.065  0.0573 -0.3169  0.0513
  411SOL    HW1 1232   2.306   1.856  -0.010  2.6656 -0.4297  1.5807
  411SOL    HW2 1233   2.465   1.904   0.041  1.6037  0.5956  0.8454
  412SOL     OW 1234   1.620   2.445   2.265  0.3277 -0.2703  0.1498
  412SOL    HW1 1235   1.623   2.545   2.302 -2.3723  1.8033  1.4282
  412SOL    HW2 1236   1.540   2.387   2.299 -1.6541  0.0869  0.6562
  413SOL     OW 1237   3.070   0.275   2.878 -0.3032  0.9182 -0.2116
  413SOL    HW1 1238   3.011   0.221   2.944  0.8049 -1.6097  0.4680
  413SOL    HW2 1239   3.172   0.272   2.892  2.3865 -1.1212 -1.4672
  414SOL     OW 1240   1.708   1.356   1.368  0.0620 -0.3217 -1.0453
  414SOL    HW1 1241   1.639   1.420   1.411  0.6057  3.5560  2.6064
  414SOL    HW2 1242   1.728   1.370   1.269 -0.6423 -1.8746  2.9004
  415SOL     OW 1243   0.215   2.280   0.667 -0.1038 -0.2852  0.4004
  415SOL    HW1 1244   0.254   2.201   0.714  2.4124  1.9989 -1.1205
  415SOL    HW2 1245   0.117   2.280   0.644  4.5576 -2.2452  1.3488
  416SOL     OW 1246   0.324   1.067   1.073  0.2821 -0.7304 -0.2762
  416SOL    HW1 1247   0.314   1.050   0.971 -0.6800  2.3444  0.8560
  416SOL    HW2 1248   0.415   1.119   1.094  1.3971  1.2709 -2.1357
  417SOL     OW 1249   2.199   2.341   1.869  0.0919  0.2375 -0.0490
  417SOL    HW1 1250   2.243   2.249   1.891 -0.9450 -1.1143  0.1462
  417SOL    HW2 1251   2.113   2.349   1.929 -2.0258 -1.2060  2.6745
  418SOL     OW 1252   1.135   0.549   1.350  0.2596 -0.4557  0.0575
  418SOL    HW1 1253   1.031   0.532   1.324 -5.8139  0.8712  0.8780
  418SOL    HW2 1254   1.206   0.519   1.274 -0.6878  0.0198 -1.7440
  419SOL     OW 1255   0.959   0.384   2.990  0.0983 -0.3173 -0.1188
  419SOL    HW1 1256   0.986   0.441   2.907  0.5009 -0.9713 -0.4506
  419SOL    HW2 1257   0.914   0.293   2.966 -1.3294 -0.2629  1.2809
  420SOL     OW 1258   0.180   2.248   0.361 -0.6988  0.5698  0.5253
  420SOL    HW1 1259   0.159   2.192   0.283 -1.3865 -1.1334  3.8337
  420SOL    HW2 1260   0.092   2.250   0.417  1.0073  0.5707 -1.0090
  421SOL     OW 1261   0.324   0.074   0.714  0.3063  0.3733  0.3648
  421SOL    HW1 1262   0.350   0.001   0.641  0.0366 -0.1734 -3.1685
  421SOL    HW2 1263   0.403   0.143   0.726  1.4355  0.3902 -1.5857
  422SOL     OW 1264   0.923   2.526   1.030  0.0004 -0.1600 -0.0092
  422SOL    HW1 1265   0.916   2.612   0.967 -1.1708  2.3704 -0.7645
  422SOL    HW2 1266   0.979   2.542   1.115  3.1024 -2.4605  1.8700
  423SOL     OW 1267   0.059   0.693   1.219 -0.1676  0.2165 -0.3061
  423SOL    HW1 1268   0.035   0.666   1.318 -5.3104 -1.1891  2.1655
  423SOL    HW2 1269  -0.018   0.665   1.155  1.5608  4.4163 -3.4533
  424SOL     OW 1270   0.991   2.150   2.223 -0.4710 -0.2207  0.2879
  424SOL    HW1 1271   0.952   2.175   2.132  1.2268 -2.1517  0.6643
  424SOL    HW2 1272   0.927   2.157   2.303 -0.4491  1.3503  0.6869
  425SOL     OW 1273   2.059   1.402   1.131 -0.2227  0.0609  0.2863
  425SOL    HW1 1274   2.032   1.303   1.107 -2.8389  4.0545 -0.0037
  425SOL    HW2 1275   2.087   1.463   1.049 -1.4213  0.2304 -1.8472
  426SOL     OW 1276   1.485   1.536   1.423  0.7746 -0.1513 -0.6740
  426SOL    HW1 1277   1.461   1.612   1.361 -0.0064 -2.3039  1.5411
  426SOL    HW2 1278   1.485   1.563   1.523 -0.8291 -0.4867 -0.2074
  427SOL     OW 1279   1.982   2.326   2.025 -0.6989 -0.0694  0.3297
  427SOL    HW1 1280   1.986   2.266   2.117 -0.0280 -0.0766  3.3953
  427SOL    HW2 1281   1.968   2.429   2.045 -0.8088  0.7699  1.5300
  428SOL     OW 1282   0.913   0.006   0.045 -0.1723 -0.3668 -0.4037
  428SOL    HW1 1283   0.937   0.093   0.092 -0.9835 -2.0970 -1.8268
  428SOL    HW2 1284   0.986  -0.066   0.059  1.1636 -0.4054  2.1989
  429SOL     OW 1285   1.243   0.063   0.220 -0.0740 -0.5517 -0.2900
  429SOL    HW1 1286   1.326   0.123   0.231  0.3081  1.3086 -1.4068
  429SOL    HW2 1287   1.271  -0.027   0.183  4.8917  3.3310  1.8492
  430SOL     OW 1288   2.776   1.482   0.308 -0.1372  0.0819  0.6750
  430SOL    HW1 1289   2.740   1.540   0.225 -0.8994  1.8454 -3.7661
  430SOL    HW2 1290   2.776   1.540   0.396 -2.5355  0.4833 -0.3823
  431SOL     OW 1291   2.099   1.619   0.928 -0.4563  0.5836  0.0784
  431SOL    HW1 1292   2.140   1.703   0.972 -2.4240 -0.7218  1.5155
  431SOL    HW2 1293   2.013   1.636   0.869 -2.0960  0.1561  1.3728
  432SOL     OW 1294   2.929   2.190   1.262 -0.3640  1.0138 -0.1928
  432SOL    HW1 1295   2.837   2.146   1.283 -0.1648 -1.2166  0.1431
  432SOL    HW2 1296   2.952   2.278   1.312  3.0246 -0.9859 -0.6531
  433SOL     OW 1297   1.854   0.284   0.828 -0.2091 -0.5930 -0.1943
  433SOL    HW1 1298   1.777   0.234   0.882 -0.9563 -1.5438  3.4536
  433SOL    HW2 1299   1.913   0.337   0.898 -0.8989 -1.3120 -0.2452
  434SOL     OW 1300   1.475   0.234   0.723  0.3743  0.7371  0.0827
  434SOL    HW1 1301   1.488   0.322   0.672  0.4571  2.6465 -2.3118
  434SOL    HW2 1302   1.522   0.234   0.816 -0.5839 -0.2168 -0.7228
  435SOL     OW 1303   1.428   1.409   2.066 -0.1753  0.7394  0.1076
  435SOL    HW1 1304   1.386   1.395   2.161 -1.2624 -0.4362 -1.3383
  435SOL    HW2 1305   1.404   1.502   2.020 -0.7633 -0.3331 -0.8838
  436SOL     OW 1306   1.670   2.680   2.444 -0.1456  0.0110 -0.5309
  436SOL    HW1 1307   1.676   2.776   2.482  3.0061 -1.6858  2.5745
  436SOL    HW2 1308   1.616   2.624   2.511 -0.0378 -0.0876  1.9237
  437SOL     OW 1309   1.010   3.003   0.872 -0.7106 -0.5739  0.1193
  437SOL    HW1 1310   0.946   3.081   0.853  2.0216 -0.5940  0.4298
  437SOL    HW2 1311   1.066   3.028   0.956 -1.2531  2.1159 -0.2062
  438SOL     OW 1312   1.001   2.551   1.296  0.0104 -0.5497  0.6072
  438SOL    HW1 1313   1.076   2.597   1.350 -0.3373 -0.4545  2.8701
  438SOL    HW2 1314   1.014   2.448   1.313  0.0947 -1.1499  0.3592
  439SOL     OW 1315   0.702   1.690   1.061 -0.0111  0.1747  0.0007
  439SOL    HW1 1316   0.764   1.772   1.036 -1.8558  1.2248 -0.4153
  439SOL    HW2 1317   0.610   1.715   1.102 -1.3763 -0.8164  0.7677
  440SOL     OW 1318   0.961   2.327   1.979  0.1663  0.1734 -0.3980
  440SOL    HW1 1319   0.972   2.425   1.945  0.6493 -0.4636 -0.8123
  440SOL    HW2 1320   0.982   2.258   1.905  0.0290 -0.2431 -0.0785
  441SOL     OW 1321   0.370   2.832   1.321  0.0413  0.4696  0.1106
  441SOL    HW1 1322   0.425   2.746   1.294  0.9879  0.0441 -2.3012
  441SOL    HW2 1323   0.307   2.859   1.246 -0.1871 -1.0773  1.0122
  442SOL     OW 1324   2.226   0.681   2.569  0.1349 -0.1563 -0.1705
  442SOL    HW1 1325   2.239   0.600   2.506  0.9044  0.7374  0.1346
  442SOL    HW2 1326   2.183   0.758   2.515 -0.1740  1.1194 -0.3639
  443SOL     OW 1327   1.315   2.496   2.230 -0.2832  0.5631 -0.5849
  443SOL    HW1 1328   1.276   2.418   2.288 -0.7026 -1.5994 -0.5891
  443SOL    HW2 1329   1.298   2.591   2.272  0.5037  1.6370 -0.5927
  444SOL     OW 1330   0.955   1.181   1.440  0.0675  0.8637  0.2792
  444SOL    HW1 1331   1.032   1.112   1.445  2.2327  0.1463  1.4547
  444SOL    HW2 1332   0.980   1.269   1.396  2.3061  0.0005 -2.4257
  445SOL     OW 1333   0.151   2.127   2.038 -0.0061  0.9232  0.5046
  445SOL    HW1 1334   0.182   2.033   2.017 -0.6245  0.9565  0.5483
  445SOL    HW2 1335   0.098   2.139   2.128  0.7722 -0.8722 -0.5080
  446SOL     OW 1336   0.120   2.000   2.397 -0.1295 -0.3679  0.2787
  446SOL    HW1 1337   0.088   2.095   2.395 -0.7279 -1.2266  3.8202
  446SOL    HW2 1338   0.117   1.951   2.307 -1.0691  2.2574  1.2396
  447SOL     OW 1339   1.293   1.624   1.926 -0.2885  0.8170  0.5229
  447SOL    HW1 1340   1.245   1.674   1.848 -1.0028 -0.9648  0.5561
  447SOL    HW2 1341   1.364   1.681   1.976  0.2554 -0.1530 -1.1042
  448SOL     OW 1342   0.159   1.474   2.010  0.1331  0.2750 -0.5124
  448SOL    HW1 1343   0.145   1.557   1.946 -1.4793 -1.6830 -0.9020
  448SOL    HW2 1344   0.107   1.483   2.099 -0.9246 -0.7008  1.4056
  449SOL     OW 1345   1.879   3.036   0.836  0.0621 -0.0883 -0.1952
  449SOL    HW1 1346   1.888   3.047   0.938  3.6385 -0.0477  4.9227
  449SOL    HW2 1347   1.914   2.943   0.806  0.3551 -0.7503  1.3492
  450SOL     OW 1348   2.189   1.509   0.681  0.4397 -0.5645 -0.0227
  450SOL    HW1 1349   2.199   1.513   0.784  0.3529  1.1519  1.7056
  450SOL    HW2 1350   2.250   1.583   0.635  1.9203  1.7690 -1.3268
  451SOL     OW 1351   1.389   2.981   1.469 -0.2888 -0.1027 -0.2615
  451SOL    HW1 1352   1.332   3.061   1.494 -0.3567  1.1729  1.3466
  451SOL    HW2 1353   1.429   2.916   1.544 -0.5829 -3.1054 -1.0050
  452SOL     OW 1354   2.675   2.306   2.283  0.3173 -0.5434  0.3332
  452SOL    HW1 1355   2.601   2.377   2.285  3.3176 -0.7153  2.2702
  452SOL    HW2 1356   2.710   2.287   2.378  1.7354  0.7741 -0.3111
  453SOL     OW 1357   2.490   2.683   0.005 -0.2705  0.1591 -0.5941
  453SOL    HW1 1358   2.391   2.721   0.002  1.9196 -0.5813  1.4073
  453SOL    HW2 1359   2.507   2.613  -0.073 -0.3371 -0.4930  1.0175
  454SOL     OW 1360   0.889   1.158   2.030  0.5712  0.2574  0.3587
  454SOL    HW1 1361   0.845   1.171   1.936 -1.4675  0.6742  0.8045
  454SOL    HW2 1362   0.978   1.209   2.038 -2.1775  1.5356 -2.9600
  455SOL     OW 1363   0.766   2.608   2.801 -1.0730  0.5725 -0.0111
  455SOL    HW1 1364   0.848   2.665   2.814 -0.1424 -2.9646  0.4137
  455SOL    HW2 1365   0.757   2.533   2.868  0.5416 -0.2195  0.6360
  456SOL     OW 1366   0.308   1.932   0.213 -0.0967  0.0762  0.5480
  456SOL    HW1 1367   0.404   1.965   0.239  1.5136  1.0999 -1.3720
  456SOL    HW2 1368   0.245   2.005   0.172  1.2158  0.1984 -1.3725
  457SOL     OW 1369   0.409   2.660   0.641  0.2950 -1.0560  0.0080
  457SOL    HW1 1370   0.439   2.718   0.561  0.7638  1.9922  0.6777
  457SOL    HW2 1371   0.480   2.676   0.716 -2.2825  0.9921 -0.0056
  458SOL     OW 1372   2.940   0.014   1.290 -0.7070  0.3214  0.2349
  458SOL    HW1 1373   2.996   0.093   1.255 -0.6154 -0.7733  0.8109
  458SOL    HW2 1374   2.928  -0.063   1.220 -1.7637 -0.7077  0.9401
  459SOL     OW 1375   2.100   2.514   0.731 -0.6564 -0.3453 -0.3011
  459SOL    HW1 1376   2.174   2.533   0.802  2.2042 -1.8877  1.9142
  459SOL    HW2 1377   2.149   2.511   0.635  2.5825 -1.0419 -1.1322
  460SOL     OW 1378   1.222   2.074   2.794 -0.3011 -0.3379 -0.0053
  460SOL    HW1 1379   1.209   2.109   2.695  4.0529  1.4621  0.5646
  460SOL    HW2 1380   1.253   1.976   2.796 -0.4150 -0.5907  0.8027
  461SOL     OW 1381   0.478   2.120   2.768  0.0007  0.4666  0.6681
  461SOL    HW1 1382   0.415   2.052   2.721  4.1376 -2.2092  0.1505
  461SOL    HW2 1383   0.521   2.079   2.856  0.2398 -1.7762  3.1486
  462SOL     OW 1384   0.964   1.024   1.722 -0.3640 -0.1259  0.1433
  462SOL    HW1 1385   0.968   0.958   1.641  0.3464 -1.4087 -0.8206
  462SOL    HW2 1386   0.912   1.114   1.703 -1.5005  1.1900 -1.7644
  463SOL     OW 1387   0.425   0.773   0.482 -0.0079  0.0140 -0.6827
  463SOL    HW1 1388   0.468   0.697   0.425 -1.6177  0.5857  0.4187
  463SOL    HW2 1389   0.325   0.752   0.505  0.1982 -2.8278 -1.9355
  464SOL     OW 1390   0.533   2.337   2.278  0.0834 -0.1322 -0.4248
  464SOL    HW1 1391   0.476   2.419   2.299 -2.0523 -0.5665 -1.0253
  464SOL    HW2 1392   0.532   2.319   2.177 -0.9457 -1.1932 -0.2533
  465SOL     OW 1393   0.244   0.997   0.814  0.3685  0.4099 -0.3961
  465SOL    HW1 1394   0.157   1.006   0.757 -0.5790  2.4683  1.3875
  465SOL    HW2 1395   0.286   0.904   0.804 -1.2160  1.9234  2.4389
  466SOL     OW 1396   1.340   1.152   0.859 -0.4992  0.0424  0.5657
  466SOL    HW1 1397   1.347   1.253   0.882 -2.2607 -0.0504  0.7396
  466SOL    HW2 1398   1.246   1.113   0.886 -1.2213 -1.4690 -1.0721
  467SOL     OW 1399   0.629   0.459   2.568  0.2739  0.3184  0.3531
  467SOL    HW1 1400   0.557   0.525   2.599  0.6037  3.3742 -0.5954
  467SOL    HW2 1401   0.616   0.357   2.599  0.4155 -2.5459 -1.2144
  468SOL     OW 1402   0.480   2.268   1.596 -0.0474  0.3942 -0.1496
  468SOL    HW1 1403   0.564   2.324   1.618  2.2842 -1.6966 -0.9064
  468SOL    HW2 1404   0.465   2.262   1.493 -0.7025  0.3064 -0.6343
  469SOL     OW 1405   1.423   1.332   1.238  0.2079 -0.3783  0.7237
  469SOL    HW1 1406   1.483   1.314   1.158 -0.9010  0.4005 -0.3794
  469SOL    HW2 1407   1.449   1.412   1.301 -1.2636  0.7242  1.5595
  470SOL     OW 1408   2.979   1.849   0.796 -0.0439 -0.0866  0.0765
  470SOL    HW1 1409   3.066   1.862   0.740 -2.0708  0.9516 -0.7267
  470SOL    HW2 1410   2.999   1.849   0.900  2.9883 -0.3872  0.6920
  471SOL     OW 1411   2.686   1.400   2.180 -0.1229  0.3141  0.0714
  471SOL    HW1 1412   2.670   1.305   2.222  0.9131  0.3903  0.9350
  471SOL    HW2 1413   2.783   1.434   2.204 -1.1701 -1.6849  0.5998
  472SOL     OW 1414   1.292   2.398   0.052 -0.0456  0.3011 -0.7703
  472SOL    HW1 1415   1.375   2.384   0.111 -2.3536  1.2340 -0.2146
  472SOL    HW2 1416   1.211   2.344   0.087  0.6718  0.7788 -0.5557
  473SOL     OW 1417   1.075   1.491   0.973 -0.1873 -0.0641  0.6886
  473SOL    HW1 1418   0.983   1.482   0.923 -0.8658 -0.8725  0.9414
  473SOL    HW2 1419   1.089   1.421   1.048  1.1415  0.4036 -0.2820
  474SOL     OW 1420   0.632   1.281   0.447 -0.2790  0.6950  0.2986
  474SOL    HW1 1421   0.584   1.254   0.361  0.2437 -0.8198  1.7762
  474SOL    HW2 1422   0.660   1.192   0.496 -2.2031 -1.1341  2.6948
  475SOL     OW 1423   2.891   0.033   0.846 -0.0588  0.2947 -0.8375
  475SOL    HW1 1424   2.935   0.121   0.887 -0.4694 -1.0880  3.1075
  475SOL    HW2 1425   2.786   0.032   0.837 -1.0864 -1.4020 -2.3679
  476SOL     OW 1426   0.985   3.050   1.808  0.1969 -0.4337 -0.0298
  476SOL    HW1 1427   1.088   3.043   1.808  1.8566  0.4978 -0.3640
  476SOL    HW2 1428   0.944   3.088   1.721 -0.0454 -0.2986 -2.2527
  477SOL     OW 1429   1.445   0.319   2.444 -0.6864  0.1575 -0.2374
  477SOL    HW1 1430   1.450   0.382   2.529 -0.1306  1.2111 -0.5220
  477SOL    HW2 1431   1.529   0.256   2.444 -1.3791 -0.3101 -2.1464
  478SOL     OW 1432   2.263   1.951   0.326 -0.1943  0.1785 -0.7608
  478SOL    HW1 1433   2.205   1.880   0.379  2.1137  1.8819  0.2212
  478SOL    HW2 1434   2.345   1.914   0.277  1.4811 -1.1987 -2.0976
  479SOL     OW 1435   1.279   1.003   2.873 -0.0613 -0.5647 -0.3359
  479SOL    HW1 1436   1.374   1.029   2.839 -3.4679 -3.0605 -0.2463
  479SOL    HW2 1437   1.231   0.947   2.802  0.4617  0.0285  0.4856
  480SOL     OW 1438   2.647   2.278   0.430  0.2781  0.3907  0.0383
  480SOL    HW1 1439   2.725   2.215   0.454  1.0053  2.3602 -0.6289
  480SOL    HW2 1440   2.561   2.244   0.478  2.7264  0.4237 -0.4124
  481SOL     OW 1441   0.961   1.124   0.757  0.1698  0.6879  0.4481
  481SOL    HW1 1442   0.981   1.226   0.723  0.4414  2.0757  1.9229
  481SOL    HW2 1443   0.989   1.110   0.858  2.5390 -0.9983  2.3149
  482SOL     OW 1444   1.569   0.283   2.036  0.3596 -0.2604  0.1820
  482SOL    HW1 1445   1.593   0.378   1.995  1.2519  0.2675 -1.0962
  482SOL    HW2 1446   1.652   0.229   2.064  1.6301  2.2344  0.1485
  483SOL     OW 1447   0.170   2.376   1.219 -0.1151  0.3375  0.9659
  483SOL    HW1 1448   0.170   2.440   1.304 -1.6985  0.4322 -0.5959
  483SOL    HW2 1449   0.193   2.421   1.127 -0.9836  0.0635 -3.3862
  484SOL     OW 1450   1.729   1.041   1.462 -0.4690  0.1478  0.4695
  484SOL    HW1 1451   1.826   1.008   1.455  1.7146 -0.1771  0.7179
  484SOL    HW2 1452   1.719   1.144   1.447  1.9119  0.7291 -0.1418
  485SOL     OW 1453   0.781   0.754   1.952  0.0826  0.0095  1.2096
  485SOL    HW1 1454   0.743   0.799   1.864  0.6087  4.0398  1.6035
  485SOL    HW2 1455   0.876   0.707   1.935  1.3565 -0.2473  1.6894
  486SOL     OW 1456   0.911   1.864   2.467 -0.1722  0.4366 -0.5742
  486SOL    HW1 1457   0.916   1.845   2.566  2.6272 -2.9933 -1.9842
  486SOL    HW2 1458   0.892   1.966   2.449 -0.9235 -1.5278  1.6565
  487SOL     OW 1459   1.747   1.578   1.027 -0.1569  0.1690  0.3374
  487SOL    HW1 1460   1.780   1.481   1.039 -0.4449  0.7411  0.7434
  487SOL    HW2 1461   1.796   1.619   0.945  0.1205 -0.3182  0.5448
  488SOL     OW 1462   2.929   0.834   2.254  0.8719 -0.0634 -0.0711
  488SOL    HW1 1463   3.013   0.770   2.262  1.2910  0.6133  0.4937
  488SOL    HW2 1464   2.851   0.805   2.314 -1.0140 -1.4040 -1.0871
  489SOL     OW 1465   2.845   0.327   1.289 -0.1313  0.3517  0.0894
  489SOL    HW1 1466   2.807   0.292   1.381  1.6041 -0.4269  1.2832
  489SOL    HW2 1467   2.950   0.318   1.287 -1.4044 -1.3419 -0.3709
  490SOL     OW 1468   1.493   3.009   2.796 -0.5581 -0.0878  0.2997
  490SOL    HW1 1469   1.544   2.919   2.793 -1.4053  0.1156 -0.5956
  490SOL    HW2 1470   1.470   3.043   2.702  0.3611 -0.9430  0.6980
  491SOL     OW 1471   1.788   1.483   2.748  0.1171 -0.3670 -0.2160
  491SOL    HW1 1472   1.796   1.417   2.825 -0.4708 -0.8040 -4.7324
  491SOL    HW2 1473   1.871   1.543   2.737 -1.9619 -2.8120 -4.0927
  492SOL     OW 1474   0.669   2.109   0.594 -0.2910 -0.9416  0.0273
  492SOL    HW1 1475   0.695   2.150   0.681 -2.5998  0.0271 -1.7130
  492SOL    HW2 1476   0.579   2.152   0.561  1.8189 -2.4485 -0.9823
  493SOL     OW 1477   0.380   1.334   2.097  0.2461 -0.3386 -0.2083
  493SOL    HW1 1478   0.292   1.376   2.061  0.3708  2.2698  0.4559
  493SOL    HW2 1479   0.375   1.230   2.109 -1.2030 -0.1589  2.4307
  494SOL     OW 1480   2.717   2.654   0.163  0.2510  0.0181 -0.2547
  494SOL    HW1 1481   2.698   2.628   0.260  1.3994 -1.7655 -4.2829
  494SOL    HW2 1482   2.629   2.656   0.109  1.8961 -2.1927  0.9699
  495SOL     OW 1483   2.538   2.808   2.649 -0.4237 -0.2445 -0.5685
  495SOL    HW1 1484   2.522   2.701   2.656 -0.9948  0.4481  2.8797
  495SOL    HW2 1485   2.618   2.833   2.586  1.8724  2.1199  1.4083
  496SOL     OW 1486   1.969   2.268   0.837 -0.7914  0.9151 -0.5780
  496SOL    HW1 1487   2.030   2.192   0.799 -0.1139 -2.6478  0.0383
  496SOL    HW2 1488   2.021   2.356   0.846 -0.7539  1.9880 -0.8674
  497SOL     OW 1489   0.346   2.972   2.346 -0.4440  0.2837  0.3628
  497SOL    HW1 1490   0.287   3.059   2.369 -1.2305 -1.1945 -0.7626
  497SOL    HW2 1491   0.405   2.985   2.257 -2.8980 -0.4548 -1.9940
  498SOL     OW 1492   1.174   1.295   1.154 -0.1333  0.0569 -0.3233
  498SOL    HW1 1493   1.272   1.308   1.190  0.2373 -3.0760 -0.0088
  498SOL    HW2 1494   1.114   1.348   1.224 -1.0392  1.6815  1.0074
  499SOL     OW 1495   0.621   1.725   0.430 -0.3733  0.6707 -0.0906
  499SOL    HW1 1496   0.625   1.684   0.334  2.1548  3.6906 -2.0194
  499SOL    HW2 1497   0.708   1.778   0.449 -2.5174  0.5196  0.4628
  500SOL     OW 1498   1.463   2.766   1.667  0.2870 -0.2297  0.0603
  500SOL    HW1 1499   1.491   2.768   1.769 -0.7277 -0.0964  0.0394
  500SOL    HW2 1500   1.505   2.688   1.609  0.2327 -2.7354 -2.6648
  501SOL     OW 1501   0.796   1.263   2.280 -0.1234  0.1594 -0.2128
  501SOL    HW1 1502   0.730   1.190   2.316  0.4324 -0.5285 -0.4396
  501SOL    HW2 1503   0.814   1.258   2.173 -0.5747  1.3825 -2.0147
  502SOL     OW 1504   2.538   0.920   1.793  0.5486 -0.2950  0.4526
  502SOL    HW1 1505   2.601   0.940   1.709 -2.2952  1.0853 -3.2067
  502SOL    HW2 1506   2.513   0.824   1.799 -0.7682 -1.0337  0.9562
  503SOL     OW 1507   1.226   0.132   0.709  0.4696 -0.3517  0.3579
  503SOL    HW1 1508   1.147   0.200   0.697  0.9550  2.6499 -3.0390
  503SOL    HW2 1509   1.315   0.175   0.731 -1.6839  1.0487  0.7177
  504SOL     OW 1510   2.950   2.379   1.511 -0.0304 -0.2434 -0.5773
  504SOL    HW1 1511   2.887   2.445   1.567  0.1484 -2.4817 -0.8263
  504SOL    HW2 1512   2.970   2.289   1.560  3.4131 -0.0051  2.2140
  505SOL     OW 1513   2.323   1.156   1.514  0.1357 -0.2997  0.4158
  505SOL    HW1 1514   2.323   1.206   1.425  0.4721  1.5039  1.9808
  505SOL    HW2 1515   2.404   1.184   1.567  2.1628  0.8844 -4.0451
  506SOL     OW 1516   1.937   0.251   1.876  0.1543 -0.1207 -0.3487
  506SOL    HW1 1517   2.033   0.233   1.847  1.6993 -1.7446 -0.5850
  506SOL    HW2 1518   1.921   0.356   1.892 -0.1596  3.0121 -0.4204
  507SOL     OW 1519   0.479   0.769   2.151 -0.2089  0.1205 -0.1018
  507SOL    HW1 1520   0.434   0.694   2.096  0.6229 -0.8824  0.6876
  507SOL    HW2 1521   0.550   0.724   2.219  0.6040 -1.2073  0.5316
  508SOL     OW 1522   0.328   1.641   0.784  0.1877  0.1478 -0.3339
  508SOL    HW1 1523   0.426   1.667   0.766 -2.7099 -0.8349  0.5914
  508SOL    HW2 1524   0.293   1.683   0.869  3.1564 -0.0879  2.0335
  509SOL     OW 1525   1.273   1.188   2.469 -0.2377  0.2455  0.2772
  509SOL    HW1 1526   1.329   1.185   2.382  5.2150  0.5213  3.0024
  509SOL    HW2 1527   1.180   1.143   2.464 -1.3541  0.5698  0.2972
  510SOL     OW 1528   1.407   2.043   2.202 -0.7691 -0.1570  0.2686
  510SOL    HW1 1529   1.410   2.092   2.111  0.4688  2.9030 -1.4365
  510SOL    HW2 1530   1.319   1.995   2.218  1.3547  1.6306  1.6640
  511SOL     OW 1531   3.005   2.648   1.367  0.4667 -0.0013 -0.1843
  511SOL    HW1 1532   2.965   2.664   1.273  0.1610 -0.3880 -0.9558
  511SOL    HW2 1533   2.979   2.558   1.412 -0.3833 -1.5879  0.2202
  512SOL     OW 1534   2.368   0.433   1.379 -0.2502 -0.1806  0.3604
  512SOL    HW1 1535   2.276   0.428   1.334 -0.9358  1.7211  2.3956
  512SOL    HW2 1536   2.442   0.376   1.331  1.7156  0.0785  1.2409
  513SOL     OW 1537   2.560   2.133   0.913 -0.5757 -0.1752 -0.9127
  513SOL    HW1 1538   2.521   2.208   0.848  0.1486 -0.9123 -1.0181
  513SOL    HW2 1539   2.637   2.079   0.865 -0.4420 -2.6300 -1.2267
  514SOL     OW 1540   0.563   2.779   0.438  0.0760 -1.0306 -0.1895
  514SOL    HW1 1541   0.605   2.773   0.344  0.5375  1.3720  1.3052
  514SOL    HW2 1542   0.617   2.854   0.491 -1.3717  2.7023 -0.2867
  515SOL     OW 1543   1.960   1.342   2.400  0.0039 -0.1914 -0.2418
  515SOL    HW1 1544   1.983   1.303   2.302  1.1874 -1.2741 -1.0748
  515SOL    HW2 1545   1.897   1.280   2.455  0.1101  0.3911 -1.1032
  516SOL     OW 1546   0.242   0.158   1.949  0.5126  0.5212  0.7584
  516SOL    HW1 1547   0.327   0.194   1.903 -0.2114 -0.5865 -2.0133
  516SOL    HW2 1548   0.169   0.110   1.887 -1.7413  0.6661  1.0236
  517SOL     OW 1549   0.506   0.253   1.106 -0.1506  0.1745 -0.4944
  517SOL    HW1 1550   0.568   0.190   1.165  1.3044  0.0262  1.7228
  517SOL    HW2 1551   0.405   0.219   1.106 -2.7873  1.1984 -2.2890
  518SOL     OW 1552   2.218   3.023   1.852 -0.5242 -0.2062 -0.8667
  518SOL    HW1 1553   2.229   3.125   1.863  1.3140 -0.6250 -2.9157
  518SOL    HW2 1554   2.225   2.989   1.751  0.4462 -0.1049 -0.2839
  519SOL     OW 1555   2.365   2.235   2.537 -0.4986  0.1980  0.1310
  519SOL    HW1 1556   2.325   2.219   2.633 -1.3562  0.1056 -0.3653
  519SOL    HW2 1557   2.339   2.328   2.501 -1.4435 -1.0580 -0.9108
  520SOL     OW 1558   1.774   2.632   1.689  0.2928 -0.0282 -0.4802
  520SOL    HW1 1559   1.728   2.597   1.772 -0.4910  1.1351 -2.2423
  520SOL    HW2 1560   1.877   2.603   1.680  0.5972  1.4390 -0.9822
  521SOL     OW 1561   0.648   0.079   2.140  0.1444 -0.0257 -0.3765
  521SOL    HW1 1562   0.567   0.029   2.102  2.5915 -0.9571  1.9522
  521SOL    HW2 1563   0.676   0.046   2.238 -0.2139 -1.9535  0.7291
  522SOL     OW 1564   0.242   1.890   1.532  0.6078 -0.8005 -0.6031
  522SOL    HW1 1565   0.282   1.958   1.605  0.2005 -1.1502 -0.0207
  522SOL    HW2 1566   0.212   1.948   1.450  0.5396  2.1529 -0.4410
  523SOL     OW 1567   2.228   2.962   1.583  0.4986 -0.2713  0.1967
  523SOL    HW1 1568   2.313   2.910   1.567  0.0194 -3.9983 -1.0670
  523SOL    HW2 1569   2.151   2.902   1.548  2.3485  0.2452  2.0011
  524SOL     OW 1570   0.214   2.763   2.795  0.3181 -0.0598 -0.6011
  524SOL    HW1 1571   0.182   2.801   2.887 -0.8629  0.2642 -3.6754
  524SOL    HW2 1572   0.318   2.774   2.790  3.7245  0.5421  0.2666
  525SOL     OW 1573   2.132   2.121   0.504  0.7371 -0.5103  0.4623
  525SOL    HW1 1574   2.136   2.067   0.596  2.5563 -0.2455 -1.6607
  525SOL    HW2 1575   2.170   2.067   0.428 -0.3193  0.4903  0.3047
  526SOL     OW 1576   0.395   1.502   1.695 -0.3653  0.1300  0.3426
  526SOL    HW1 1577   0.461   1.575   1.730  1.0438  2.2759  0.8141
  526SOL    HW2 1578   0.434   1.405   1.711 -1.0626  1.5316  3.0510
  527SOL     OW 1579   1.149   3.045   1.106  0.2694 -0.7352 -0.3945
  527SOL    HW1 1580   1.208   2.959   1.100 -1.4998 -3.5010  1.7333
  527SOL    HW2 1581   1.199   3.138   1.112 -1.6678 -0.1089  0.5226
  528SOL     OW 1582   1.286   2.417   0.609 -0.2816  0.1248 -0.4398
  528SOL    HW1 1583   1.321   2.327   0.631 -1.3862 -0.9811 -0.7721
  528SOL    HW2 1584   1.357   2.494   0.636  0.3857 -0.3766  2.4931
  529SOL     OW 1585   1.850   1.695   0.817 -0.2681  0.3537 -0.3304
  529SOL    HW1 1586   1.778   1.684   0.744  0.3887 -1.6615  0.3520
  529SOL    HW2 1587   1.884   1.795   0.827 -0.8427 -0.6366 -0.3115
  530SOL     OW 1588   0.448   2.544   0.144 -0.7187 -0.5394  0.4147
  530SOL    HW1 1589   0.488   2.501   0.231 -1.5377  0.0868 -0.4589
  530SOL    HW2 1590   0.428   2.471   0.074  0.4746  0.1692 -1.2147
  531SOL     OW 1591   1.816   0.993   1.036  0.2730  0.4617  0.1759
  531SOL    HW1 1592   1.864   1.028   0.951 -0.1914 -1.2130 -1.2262
  531SOL    HW2 1593   1.716   0.982   1.014  0.3350  2.7366 -1.1509
  532SOL     OW 1594   0.407   1.191   0.697 -0.1938  0.3418 -0.0638
  532SOL    HW1 1595   0.439   1.183   0.601  1.6945  2.3885 -0.3804
  532SOL    HW2 1596   0.335   1.119   0.727 -0.4976  1.5553  0.0098
  533SOL     OW 1597   1.817   3.090   2.643  0.3471  0.1417 -0.4714
  533SOL    HW1 1598   1.922   3.089   2.661  1.5157  1.9710 -0.7994
  533SOL    HW2 1599   1.786   3.188   2.642  1.5901  1.8021  1.3380
  534SOL     OW 1600   0.189   0.175   1.554  0.4832 -0.2540 -0.1569
  534SOL    HW1 1601   0.244   0.266   1.543  3.1793  2.0437 -1.2053
  534SOL    HW2 1602   0.084   0.196   1.553 -2.2183  0.7904  0.7123
  535SOL     OW 1603   1.886   0.382   0.162 -0.3469 -0.0117 -0.4721
  535SOL    HW1 1604   1.937   0.456   0.213 -1.2058 -2.9113  0.0979
  535SOL    HW2 1605   1.838   0.319   0.217  0.0301  1.3237  0.5593
  536SOL     OW 1606   1.233   2.487   0.927  0.1401  0.0181  0.5287
  536SOL    HW1 1607   1.290   2.424   0.866  1.1116  2.8972  1.0225
  536SOL    HW2 1608   1.159   2.541   0.878 -1.0118 -0.0230 -0.3832
  537SOL     OW 1609   0.885   0.238   2.316 -0.6960  0.5836  0.0584
  537SOL    HW1 1610   0.817   0.226   2.239  3.9834  0.5585 -1.3287
  537SOL    HW2 1611   0.963   0.175   2.314 -1.6048  2.7480  1.7313
  538SOL     OW 1612   1.736   2.237   1.635 -0.5824  0.6946  0.8507
  538SOL    HW1 1613   1.688   2.173   1.564  0.8302  2.3602 -1.6937
  538SOL    HW2 1614   1.804   2.293   1.586 -0.3393  0.2048 -1.9249
  539SOL     OW 1615   0.150   1.549   2.782 -0.3689 -0.0591  0.1535
  539SOL    HW1 1616   0.060   1.534   2.723 -2.4203 -0.7645 -1.0542
  539SOL    HW2 1617   0.220   1.617   2.745 -0.4323  3.1977 -1.8776
  540SOL     OW 1618   2.651   1.790   2.130 -0.5271 -0.1357  0.3932
  540SOL    HW1 1619   2.613   1.716   2.063 -0.1911  1.8266 -5.2789
  540SOL    HW2 1620   2.611   1.883   2.108 -0.7646 -0.9852 -2.0683
  541SOL     OW 1621   0.418   2.311   3.098 -0.0631 -0.0997 -0.5865
  541SOL    HW1 1622   0.450   2.218   3.135 -0.1154 -0.1712  1.9110
  541SOL    HW2 1623   0.329   2.295   3.038 -0.1035  2.1857 -1.6109
  542SOL     OW 1624   2.177   2.580   0.469  0.2409 -0.4197 -0.0586
  542SOL    HW1 1625   2.198   2.663   0.411  1.4278 -0.5970 -1.8414
  542SOL    HW2 1626   2.078   2.541   0.453 -2.3148  0.3775 -0.9557
  543SOL     OW 1627   1.112   1.768   1.776  0.2513  1.1519  0.3158
  543SOL    HW1 1628   1.097   1.811   1.868  1.1201 -0.4265  0.5183
  543SOL    HW2 1629   1.022   1.773   1.717 -2.5304 -1.2081 -0.6991
  544SOL     OW 1630   0.843   0.473   0.117 -0.1232 -0.3011  0.4139
  544SOL    HW1 1631   0.867   0.417   0.202  3.2490 -0.1597  2.0126
  544SOL    HW2 1632   0.891   0.443   0.030 -0.0448  0.9957 -0.0724
  545SOL     OW 1633   1.149   1.725   0.645 -0.0605  0.0972  0.5759
  545SOL    HW1 1634   1.241   1.713   0.696  1.5540  1.6662  1.4892
  545SOL    HW2 1635   1.162   1.743   0.541  0.4023  2.1067  0.0148
  546SOL     OW 1636   2.721   1.591   0.037  0.6535 -0.2748 -0.0197
  546SOL    HW1 1637   2.757   1.597  -0.063 -0.1852  1.5798 -0.3738
  546SOL    HW2 1638   2.619   1.588   0.028 -1.2375 -2.0345  4.1726
  547SOL     OW 1639   0.475   3.059   2.718  0.0164 -0.1227 -0.2850
  547SOL    HW1 1640   0.483   2.984   2.648 -0.3808  0.1149 -1.3945
  547SOL    HW2 1641   0.518   3.041   2.813  0.3056  1.2842  3.0696
  548SOL     OW 1642   2.063   0.777   2.991 -0.0803  0.0933  0.6381
  548SOL    HW1 1643   1.971   0.762   3.024  2.9931  3.1968  1.1107
  548SOL    HW2 1644   2.078   0.875   2.957 -1.5055 -1.3973  2.0472
  549SOL     OW 1645   0.567   0.458   0.094 -0.4192 -0.3620  0.1113
  549SOL    HW1 1646   0.524   0.544   0.049 -0.4966  2.2173 -1.4827
  549SOL    HW2 1647   0.673   0.464   0.099  0.8421  1.8250 -1.4361
  550SOL     OW 1648   2.518   2.893   2.907  0.0693 -0.5372  0.2409
  550SOL    HW1 1649   2.526   2.821   2.981 -0.9424 -0.7348 -0.0459
  550SOL    HW2 1650   2.540   2.854   2.811  0.6395 -3.4961  1.9713
  551SOL     OW 1651   0.269   0.829   0.230 -0.4467  0.0765  0.0082
  551SOL    HW1 1652   0.368   0.803   0.253  1.5098  0.1595  0.4471
  551SOL    HW2 1653   0.209   0.828   0.314  2.0338 -0.0510 -0.5678
  552SOL     OW 1654   0.855   2.815   1.927  0.1096 -0.3101  0.1851
  552SOL    HW1 1655   0.811   2.795   2.019  0.7252 -2.9541 -1.3348
  552SOL    HW2 1656   0.918   2.901   1.923 -1.3910 -0.2633 -0.2340
  553SOL     OW 1657   3.093   2.561   0.359 -0.1108  0.2847  0.0346
  553SOL    HW1 1658   3.046   2.474   0.333  0.5851 -0.0593 -0.0112
  553SOL    HW2 1659   3.165   2.550   0.434  1.8153 -0.8429 -3.6468
  554SOL     OW 1660   2.095   0.344   0.489 -0.1665 -0.4404  0.2831
  554SOL    HW1 1661   2.173   0.327   0.424 -1.9344 -2.4207 -4.0804
  554SOL    HW2 1662   2.059   0.258   0.542 -2.2602  0.4053  0.0433
  555SOL     OW 1663   0.528   2.855   2.520 -0.1176  0.0303 -0.1756
  555SOL    HW1 1664   0.458   2.868   2.443  0.1521 -0.0649  2.0529
  555SOL    HW2 1665   0.617   2.827   2.483  0.6915 -1.4901  0.9229
  556SOL     OW 1666   0.969   2.358   1.639 -0.3654 -0.3207  0.3599
  556SOL    HW1 1667   0.972   2.434   1.709  0.0958  0.7129 -1.7215
  556SOL    HW2 1668   1.014   2.386   1.549  2.3596 -2.0442  2.7623
  557SOL     OW 1669   0.133   2.122   0.104  0.1168 -0.1162  0.3997
  557SOL    HW1 1670   0.034   2.089   0.097  1.7918  1.5585  1.1214
  557SOL    HW2 1671   0.151   2.180   0.019  0.2424 -0.1768 -0.4873
  558SOL     OW 1672   2.993   2.305   0.272 -0.4252 -0.2525 -0.0222
  558SOL    HW1 1673   2.909   2.244   0.271  0.2520  2.9633 -2.1991
  558SOL    HW2 1674   3.018   2.332   0.172  0.9748  0.8722 -0.0670
  559SOL     OW 1675   0.390   2.287   1.315 -0.8574  0.4721 -0.9691
  559SOL    HW1 1676   0.300   2.314   1.270 -0.5140 -1.9312 -0.2073
  559SOL    HW2 1677   0.409   2.186   1.296 -0.3134 -0.0334  0.6653
  560SOL     OW 1678   2.056   1.062   3.016 -0.6938 -0.1211  0.1838
  560SOL    HW1 1679   2.060   1.112   2.924  0.2691 -1.3789 -0.0756
  560SOL    HW2 1680   1.984   1.097   3.085 -0.8556  0.0945  0.7009
  561SOL     OW 1681   3.004   1.958   0.081  0.4304  0.4387  0.3017
  561SOL    HW1 1682   2.991   1.857   0.108 -0.1835 -0.8981  1.8494
  561SOL    HW2 1683   2.938   1.988   0.009 -0.5800 -0.3226  1.0732
  562SOL     OW 1684   0.847   2.138   2.465 -0.3818  0.8163 -0.2652
  562SOL    HW1 1685   0.743   2.129   2.453  0.6605  1.1164  1.8997
  562SOL    HW2 1686   0.864   2.215   2.543  1.9202  0.7156 -1.6368
  563SOL     OW 1687   0.651   2.566   2.552 -0.1864  0.1110 -0.2394
  563SOL    HW1 1688   0.584   2.486   2.553  0.0484 -1.0127  3.0307
  563SOL    HW2 1689   0.701   2.584   2.642  0.7083 -2.6929  0.4864
  564SOL     OW 1690   2.765   1.314   2.932 -0.1644 -0.7422 -0.4475
  564SOL    HW1 1691   2.671   1.313   2.967  2.3881  1.2398 -0.5066
  564SOL    HW2 1692   2.790   1.404   2.888 -0.6629 -2.0029 -0.8626
  565SOL     OW 1693   2.549   2.027   2.570 -0.1834 -0.3043 -0.3529
  565SOL    HW1 1694   2.484   2.100   2.539 -1.0312  2.0798  1.8499
  565SOL    HW2 1695   2.622   2.070   2.627 -3.0891 -0.0307  1.0880
  566SOL     OW 1696   2.031   2.817   1.450 -0.4120  0.1387 -0.3362
  566SOL    HW1 1697   2.030   2.716   1.481  0.6689 -4.1771 -0.4198
  566SOL    HW2 1698   2.078   2.830   1.356  0.3567 -0.1904 -0.3291
  567SOL     OW 1699   2.391   0.107   2.219  0.1856  0.5606  0.2604
  567SOL    HW1 1700   2.425   0.147   2.129 -0.5069 -0.0057 -1.3759
  567SOL    HW2 1701   2.350   0.012   2.209  0.8780 -0.4944 -2.4905
  568SOL     OW 1702   1.432   1.807   0.481  0.7493 -0.0211  0.0767
  568SOL    HW1 1703   1.362   1.849   0.410 -0.8001  2.0801  1.5860
  568SOL    HW2 1704   1.485   1.873   0.535  2.7395 -0.6113  1.9157
  569SOL     OW 1705   0.293   0.683   0.753  0.2081 -0.4917 -0.4271
  569SOL    HW1 1706   0.367   0.641   0.688  0.6444  4.6646  2.1873
  569SOL    HW2 1707   0.192   0.680   0.725 -0.4184  0.5014  2.6715
  570SOL     OW 1708   0.595   0.861   2.811 -0.0611 -0.8030  0.2574
  570SOL    HW1 1709   0.677   0.835   2.751 -1.0858  0.9802  0.1406
  570SOL    HW2 1710   0.599   0.962   2.834  2.1184 -0.5171  1.1840
  571SOL     OW 1711   0.841   3.081   1.181 -0.4532  0.2560 -0.3001
  571SOL    HW1 1712   0.871   3.145   1.104 -1.6691  0.6957  0.1029
  571SOL    HW2 1713   0.915   3.017   1.207 -1.1212 -0.1850 -0.8673
  572SOL     OW 1714   1.481   2.575   1.181 -0.5041 -0.1265  0.2741
  572SOL    HW1 1715   1.441   2.487   1.206  1.4948  3.8935 -1.5828
  572SOL    HW2 1716   1.422   2.632   1.119  0.7711 -2.8577 -0.2869
  573SOL     OW 1717   2.939   0.489   2.069  0.1525  0.2104  0.0600
  573SOL    HW1 1718   2.880   0.409   2.098  0.6691  0.9315  3.0774
  573SOL    HW2 1719   2.881   0.565   2.018 -1.6132 -2.5023 -0.8386
  574SOL     OW 1720   0.236   1.758   1.025 -0.5076  0.0936 -0.3428
  574SOL    HW1 1721   0.255   1.853   1.000 -0.0467 -1.3804  2.7477
  574SOL    HW2 1722   0.138   1.742   1.051  1.5348  0.2460  1.1545
  575SOL     OW 1723   0.950   2.208   1.027 -0.7109  0.7059 -0.2567
  575SOL    HW1 1724   0.989   2.203   1.122 -2.1169 -3.5030 -0.0708
  575SOL    HW2 1725   1.026   2.234   0.959  1.6601  0.8184  1.9931
  576SOL     OW 1726   2.877   2.918   1.746  0.5655  0.4044 -0.1256
  576SOL    HW1 1727   2.809   2.846   1.706 -0.3495 -1.1361  0.9290
  576SOL    HW2 1728   2.827   3.004   1.772 -1.3623  1.6644  0.5767
  577SOL     OW 1729   2.521   1.252   3.075 -0.1968 -0.1262  0.2305
  577SOL    HW1 1730   2.505   1.159   3.029  0.3026  0.4241  1.4721
  577SOL    HW2 1731   2.596   1.254   3.141  0.8789 -1.5238 -1.5570
  578SOL     OW 1732   1.333   2.779   2.566  0.2641  0.0514 -0.0822
  578SOL    HW1 1733   1.279   2.764   2.475 -1.4873  1.8210 -1.0304
  578SOL    HW2 1734   1.369   2.873   2.574  0.9282  1.8634  0.9622
  579SOL     OW 1735   0.131   2.578   0.124 -0.4033  0.1585  0.5004
  579SOL    HW1 1736   0.073   2.594   0.210  0.4758 -0.7442 -0.9237
  579SOL    HW2 1737   0.210   2.511   0.138  2.4562 -1.3394 -0.4032
  580SOL     OW 1738   0.930   2.688   0.395  0.2044  0.3126  0.2318
  580SOL    HW1 1739   1.024   2.682   0.349 -0.2318  3.5159  3.4887
  580SOL    HW2 1740   0.867   2.609   0.382  0.9208 -1.3774 -1.1047
  581SOL     OW 1741   1.219   2.509   1.443  0.4596  0.6834  0.3533
  581SOL    HW1 1742   1.251   2.421   1.392  0.9130  0.1382 -0.9482
  581SOL    HW2 1743   1.258   2.594   1.395  1.1137  1.1592 -1.9444
  582SOL     OW 1744   1.522   0.059   1.861  0.2041 -0.0219 -0.1468
  582SOL    HW1 1745   1.513   0.152   1.911  1.3014  2.2359 -0.1758
  582SOL    HW2 1746   1.606   0.044   1.810  1.9657  1.1138  2.0165
  583SOL     OW 1747   2.377   2.953   0.560  0.3261  0.3344  0.2860
  583SOL    HW1 1748   2.423   2.888   0.495  0.0159 -2.1332  1.3582
  583SOL    HW2 1749   2.343   2.900   0.642  1.3726  0.4808  1.9560
  584SOL     OW 1750   1.534   0.964   2.071 -0.0554  0.2892  0.2728
  584SOL    HW1 1751   1.592   1.026   2.013  0.3139 -3.2344  1.6917
  584SOL    HW2 1752   1.565   0.953   2.169 -0.4839 -0.6937 -2.2471
  585SOL     OW 1753   2.081   2.714   2.846 -0.2089 -0.5011 -0.0152
  585SOL    HW1 1754   2.133   2.629   2.859 -0.6089  3.3537  1.0134
  585SOL    HW2 1755   1.994   2.712   2.899  0.4574  0.5092  0.4542
  586SOL     OW 1756   2.791   0.280   1.567 -0.2471 -0.1896  0.1581
  586SOL    HW1 1757   2.794   0.384   1.592 -4.9173  0.4476  1.7857
  586SOL    HW2 1758   2.703   0.235   1.600  0.1899  0.4577 -0.6560
  587SOL     OW 1759   2.032   1.612   2.729 -0.6801  0.0605  0.3153
  587SOL    HW1 1760   2.103   1.569   2.666  1.6932  0.7958  1.5021
  587SOL    HW2 1761   2.081   1.635   2.823  4.6059  0.9895  2.5551
  588SOL     OW 1762   0.512   2.693   2.249  0.2986 -0.1900 -0.0479
  588SOL    HW1 1763   0.448   2.729   2.177  2.7271 -2.0124  0.5389
  588SOL    HW2 1764   0.464   2.632   2.318  1.2396 -0.1446 -0.2340
  589SOL     OW 1765   2.172   1.483   2.513  0.1549  0.3562  0.1263
  589SOL    HW1 1766   2.095   1.434   2.460  1.1339 -2.1416  0.2536
  589SOL    HW2 1767   2.239   1.411   2.545  0.6977 -1.4403  0.5573
  590SOL     OW 1768   2.343   1.777   2.035  0.4826  0.1843 -0.1239
  590SOL    HW1 1769   2.414   1.703   2.046 -0.3108 -0.7883 -1.2694
  590SOL    HW2 1770   2.320   1.822   2.123  1.8458  0.3647  0.0849
  591SOL     OW 1771   1.307   2.480   0.341  0.1134 -0.2310  0.1640
  591SOL    HW1 1772   1.389   2.436   0.301 -1.8262  0.8991  0.5651
  591SOL    HW2 1773   1.287   2.452   0.438 -2.3700  1.1548  0.8063
  592SOL     OW 1774   1.698   2.320   0.777  0.2252 -0.0191 -0.2111
  592SOL    HW1 1775   1.688   2.398   0.713  1.1010 -0.5898 -0.9673
  592SOL    HW2 1776   1.795   2.306   0.814 -3.1845  0.6499  0.0406
  593SOL     OW 1777   0.522   0.266   2.987 -0.2368 -0.2889  0.2148
  593SOL    HW1 1778   0.614   0.226   2.961  0.6006 -1.2181 -1.5479
  593SOL    HW2 1779   0.517   0.332   3.071 -0.7087  2.4624  1.1199
  594SOL     OW 1780   0.934   1.873   2.750 -0.1620  0.1756  0.2120
  594SOL    HW1 1781   1.013   1.861   2.811 -2.4742  0.3430  0.4499
  594SOL    HW2 1782   0.899   1.970   2.735 -1.3734 -0.5320 -0.8289
  595SOL     OW 1783   1.549   3.065   1.031  0.4815  0.2050 -0.0634
  595SOL    HW1 1784   1.628   3.010   1.065 -2.2660 -1.1254 -2.7669
  595SOL    HW2 1785   1.525   3.048   0.932 -1.8749  0.7610 -0.5003
  596SOL     OW 1786   3.073   1.481   2.228  0.0671 -0.3414 -0.3050
  596SOL    HW1 1787   2.999   1.548   2.274  2.2745  0.6378 -0.1236
  596SOL    HW2 1788   3.130   1.440   2.307 -0.6498 -0.6721  3.2044
  597SOL     OW 1789   2.042   2.576   1.599 -0.6381  0.4215 -0.2901
  597SOL    HW1 1790   2.098   2.507   1.540  2.2831 -2.0097 -1.3618
  597SOL    HW2 1791   2.094   2.611   1.682  1.4188 -0.5555  1.9840
  598SOL     OW 1792   2.608   2.857   1.228 -0.1883 -0.2016  0.0176
  598SOL    HW1 1793   2.662   2.908   1.301 -1.4013  3.0890 -2.5301
  598SOL    HW2 1794   2.662   2.829   1.146 -1.7009  3.1965 -1.0766
  599SOL     OW 1795   2.941   0.350   2.424 -0.1206 -0.3369 -0.2992
  599SOL    HW1 1796   3.023   0.377   2.366  1.1971 -0.9941 -1.2120
  599SOL    HW2 1797   2.857   0.400   2.391  0.2009 -0.1344  0.5545
  600SOL     OW 1798   2.785   1.085   2.759  0.2683 -0.2360 -0.1603
  600SOL    HW1 1799   2.734   1.015   2.812  0.7276 -0.7589  0.1920
  600SOL    HW2 1800   2.826   1.164   2.820  0.1942  1.9497 -0.4002
  601SOL     OW 1801   2.955   1.301   2.043 -0.4062  0.4027 -0.0107
  601SOL    HW1 1802   2.878   1.329   1.989  1.2247 -1.6997  1.2047
  601SOL    HW2 1803   3.009   1.382   2.075  0.7357 -1.0595 -2.4538
  602SOL     OW 1804   1.544   1.664   2.282  0.0099  0.4876  0.0792
  602SOL    HW1 1805   1.471   1.586   2.282 -2.4778  1.6982  0.7917
  602SOL    HW2 1806   1.646   1.640   2.293 -0.3429  2.8254 -0.6277
  603SOL     OW 1807   0.718   1.241   2.600  0.1300  0.2464  0.4462
  603SOL    HW1 1808   0.616   1.231   2.571 -2.2003  1.8815 -0.4600
  603SOL    HW2 1809   0.769   1.145   2.609 -1.0504 -0.9914 -0.0256
  604SOL     OW 1810   2.409   1.043   0.194  0.2508 -0.1655 -0.5789
  604SOL    HW1 1811   2.452   1.119   0.140 -2.3200 -1.6908 -0.3413
  604SOL    HW2 1812   2.367   0.970   0.136  0.7307  0.7642 -0.1511
  605SOL     OW 1813   2.597   1.115   1.979  0.4277  0.2978 -0.4838
  605SOL    HW1 1814   2.603   1.030   1.918 -0.9925  0.1591 -0.3083
  605SOL    HW2 1815   2.633   1.105   2.076 -1.8389  0.9957  2.5295
  606SOL     OW 1816   1.478   2.533   2.554  0.6333 -0.4149  0.0792
  606SOL    HW1 1817   1.392   2.588   2.570 -2.4578  0.2923  1.7597
  606SOL    HW2 1818   1.458   2.435   2.532 -1.3880  0.2471  3.2376
  607SOL     OW 1819   1.310   1.544   0.438  0.1875 -0.1282 -0.0171
  607SOL    HW1 1820   1.298   1.484   0.523  1.5599  1.8923  1.4568
  607SOL    HW2 1821   1.346   1.638   0.457 -0.2855  1.4401  2.0679
  608SOL     OW 1822   1.380   2.874   0.381 -0.0710  0.1280  0.1550
  608SOL    HW1 1823   1.441   2.938   0.326  2.7536  2.1631  0.4733
  608SOL    HW2 1824   1.326   2.927   0.450 -1.4534 -0.0947 -0.1286
  609SOL     OW 1825   1.326   1.333   0.203 -0.2479 -0.5142 -0.3261
  609SOL    HW1 1826   1.367   1.418   0.247 -0.9067  2.4437  2.1358
  609SOL    HW2 1827   1.222   1.334   0.195  0.1866 -0.0712  1.0126
  610SOL     OW 1828   3.004   1.109   2.275  0.3918 -0.8642  0.4962
  610SOL    HW1 1829   2.976   1.008   2.269 -1.8376 -0.5291  1.1291
  610SOL    HW2 1830   2.974   1.158   2.189  3.1215 -1.7161 -2.0296
  611SOL     OW 1831   2.570   0.311   1.230 -1.0033  0.1066  0.4840
  611SOL    HW1 1832   2.528   0.216   1.212 -1.8491 -0.5606  0.0631
  611SOL    HW2 1833   2.672   0.316   1.239 -0.4718  1.3434 -0.8400
  612SOL     OW 1834   0.753   2.182   1.259  0.4320 -0.2637 -0.2190
  612SOL    HW1 1835   0.689   2.101   1.259 -2.2393 -1.7895  0.8382
  612SOL    HW2 1836   0.711   2.272   1.219  1.1534 -0.1849 -1.0896
  613SOL     OW 1837   0.970   1.440   2.343  0.4436 -0.5401  0.1697
  613SOL    HW1 1838   1.016   1.497   2.265 -0.4599 -3.2833  0.1669
  613SOL    HW2 1839   0.899   1.365   2.315  1.2083 -2.6119  0.7711
  614SOL     OW 1840   1.618   1.523   1.736  0.5536 -0.2806  0.0975
  614SOL    HW1 1841   1.550   1.603   1.752 -0.0026 -1.2356  0.1687
  614SOL    HW2 1842   1.713   1.536   1.776  1.0874 -1.3589  0.3882
  615SOL     OW 1843   0.793   1.267   1.748  0.0396  0.4723  0.1028
  615SOL    HW1 1844   0.713   1.243   1.677  0.3312 -0.1922 -3.0631
  615SOL    HW2 1845   0.847   1.352   1.716  1.9420  3.9548 -0.8099
  616SOL     OW 1846   1.070   1.566   2.109 -0.5529  0.1515  0.8955
  616SOL    HW1 1847   1.009   1.578   2.029 -1.2110 -0.2772  0.1812
  616SOL    HW2 1848   1.124   1.654   2.135  1.3471 -0.5130  2.4814
  617SOL     OW 1849   2.974   1.546   1.590 -0.7827  0.4741  0.3671
  617SOL    HW1 1850   2.945   1.449   1.619  1.3958 -1.1106  0.6021
  617SOL    HW2 1851   2.999   1.547   1.488  0.0639 -2.7484  0.7683
  618SOL     OW 1852   1.864   1.979   1.386  0.1769  0.7233 -0.5858
  618SOL    HW1 1853   1.889   2.057   1.315 -2.4930  0.9184 -0.2468
  618SOL    HW2 1854   1.863   1.884   1.345  0.8093  0.5630  0.8205
  619SOL     OW 1855   1.730   0.427   2.347  0.6248  0.5895  0.5337
  619SOL    HW1 1856   1.647   0.481   2.319 -2.5660  2.7100  1.5397
  619SOL    HW2 1857   1.722   0.325   2.347  3.3566  1.6118 -1.8474
  620SOL     OW 1858   2.250   2.822   0.772 -0.0549 -0.0035 -0.3920
  620SOL    HW1 1859   2.151   2.804   0.745  1.5965 -1.3827  0.5623
  620SOL    HW2 1860   2.289   2.743   0.824  0.4154  0.4017  2.6335
  621SOL     OW 1861   2.188   1.924   1.305 -0.2632  0.3744  0.7705
  621SOL    HW1 1862   2.162   1.937   1.406  0.3463  1.0287  1.4826
  621SOL    HW2 1863   2.158   1.832   1.265  0.1066 -0.5917  2.1974
  622SOL     OW 1864   2.236   0.938   1.868  0.3131 -0.1994  0.1609
  622SOL    HW1 1865   2.317   0.903   1.812 -0.2063  2.0898 -1.7656
  622SOL    HW2 1866   2.195   0.868   1.930  0.6114 -0.1895  2.7203
  623SOL     OW 1867   1.273   0.843   2.523  0.1557  0.0630 -0.2005
  623SOL    HW1 1868   1.205   0.770   2.556 -1.4893 -0.5103  0.0127
  623SOL    HW2 1869   1.240   0.884   2.430 -3.4169  3.3796 -2.9936
  624SOL     OW 1870   0.485   0.656   3.006  0.1286 -0.0780 -0.2905
  624SOL    HW1 1871   0.517   0.699   2.916  1.6650 -0.5645 -0.1332
  624SOL    HW2 1872   0.501   0.712   3.091 -0.0537 -0.3465  0.3275
  625SOL     OW 1873   2.734   1.711   1.003  0.1460  0.4088  0.1650
  625SOL    HW1 1874   2.642   1.728   1.044  2.0760  1.9142 -0.9464
  625SOL    HW2 1875   2.792   1.797   1.015 -0.0394 -1.4045  0.8858
  626SOL     OW 1876   0.647   2.658   1.755 -0.2545  1.0524 -0.1290
  626SOL    HW1 1877   0.700   2.725   1.811 -1.5066 -1.3978 -1.1279
  626SOL    HW2 1878   0.550   2.650   1.777  1.4038 -0.1284 -1.7175
  627SOL     OW 1879   0.656   0.828   1.729 -0.2638  0.0635 -0.0421
  627SOL    HW1 1880   0.599   0.755   1.682 -1.7334  1.0171 -0.7862
  627SOL    HW2 1881   0.703   0.894   1.659 -1.0405 -1.0234 -0.3870
  628SOL     OW 1882   2.367   0.070   0.746 -0.1875  0.5458 -0.1599
  628SOL    HW1 1883   2.341  -0.011   0.682 -1.5315  2.1593 -0.0318
  628SOL    HW2 1884   2.309   0.079   0.835 -3.7273  2.4713  1.4263
  629SOL     OW 1885   1.865   0.929   1.969  0.4386 -0.4304  0.3788
  629SOL    HW1 1886   1.888   1.006   1.904 -1.1678  1.8031  0.6634
  629SOL    HW2 1887   1.878   0.967   2.063  1.3007  1.1642 -0.0682
  630SOL     OW 1888   2.911   2.204   0.794  0.3132 -0.0762  0.0733
  630SOL    HW1 1889   2.870   2.299   0.794 -1.6251  1.3445 -0.9839
  630SOL    HW2 1890   2.836   2.131   0.777  1.4228 -1.1743  2.4742
  631SOL     OW 1891   3.034   0.102   2.032 -0.4843  0.2708 -0.1609
  631SOL    HW1 1892   3.103   0.167   2.075  1.9912  0.0032 -2.4766
  631SOL    HW2 1893   3.067   0.066   1.935  0.4482 -2.0891  2.2027
  632SOL     OW 1894   2.493   2.575   0.613  0.0466  0.0216 -0.7513
  632SOL    HW1 1895   2.532   2.662   0.656  0.2110  0.1779  1.8366
  632SOL    HW2 1896   2.422   2.603   0.541  1.2918  1.0664  1.2368
  633SOL     OW 1897   1.458   1.262   2.681  0.2772  0.3865  0.0928
  633SOL    HW1 1898   1.440   1.341   2.747  0.6988  1.6885  2.5300
  633SOL    HW2 1899   1.377   1.241   2.616  0.8261 -0.6006 -0.1234
  634SOL     OW 1900   0.720   2.167   0.863  0.0460 -0.6492 -0.0722
  634SOL    HW1 1901   0.631   2.147   0.911  0.4202  0.7748  2.5288
  634SOL    HW2 1902   0.802   2.181   0.926 -0.1288 -1.7990  0.1215
  635SOL     OW 1903   3.030   2.434   0.002  0.1025  0.1927 -0.1525
  635SOL    HW1 1904   2.949   2.487  -0.039  0.2060 -0.5599 -2.2899
  635SOL    HW2 1905   3.105   2.495   0.039  0.7064 -1.3787 -0.4867
  636SOL     OW 1906   2.378   2.689   2.057 -0.0470  0.7140 -0.0680
  636SOL    HW1 1907   2.377   2.785   2.096  1.4892  0.2309 -3.0530
  636SOL    HW2 1908   2.301   2.625   2.094 -1.3633 -0.2182 -2.1102
  637SOL     OW 1909   2.677   0.618   1.951  0.1729  0.1293  0.1178
  637SOL    HW1 1910   2.619   0.636   1.866  1.9309  2.8246  0.8673
  637SOL    HW2 1911   2.733   0.700   1.976 -1.0005 -1.9289 -0.9708
  638SOL     OW 1912   2.482   1.877   1.346  0.5096  0.8708 -0.1228
  638SOL    HW1 1913   2.379   1.890   1.342  1.2869 -0.0001  2.6650
  638SOL    HW2 1914   2.502   1.791   1.398 -0.4986  0.8697  0.0311
  639SOL     OW 1915   1.263   2.190   1.557  0.1806  0.5474  0.6287
  639SOL    HW1 1916   1.343   2.243   1.591 -1.9234 -1.9141  0.1428
  639SOL    HW2 1917   1.167   2.224   1.585 -0.4134 -0.7883  0.7906
  640SOL     OW 1918   0.179   1.239   1.524 -0.2809 -0.4968  0.2974
  640SOL    HW1 1919   0.169   1.272   1.625 -0.2413  1.1324  0.5074
  640SOL    HW2 1920   0.253   1.163   1.522  0.1044 -2.8614  1.6711
  641SOL     OW 1921   1.977   0.279   1.506  0.4168 -0.3016  0.6279
  641SOL    HW1 1922   1.891   0.299   1.558 -1.1161  1.3278 -1.4944
  641SOL    HW2 1923   2.058   0.249   1.566 -0.9377 -1.6641 -1.1430
  642SOL     OW 1924   2.031   3.065   0.381 -0.1103  0.0855 -0.8203
  642SOL    HW1 1925   2.122   3.110   0.386 -1.2658 -3.6595  1.7553
  642SOL    HW2 1926   1.961   3.113   0.436  1.6293 -0.6394 -2.6747
  643SOL     OW 1927   2.935   1.934   2.092  0.0048 -0.1242 -0.2059
  643SOL    HW1 1928   2.848   1.876   2.085 -2.9248  1.1944 -2.2104
  643SOL    HW2 1929   2.945   2.008   2.018  1.8017  1.4590 -0.8715
  644SOL     OW 1930   2.274   2.428   1.293  0.1745 -0.5871 -0.3594
  644SOL    HW1 1931   2.339   2.383   1.228 -0.0184  0.3667  1.6795
  644SOL    HW2 1932   2.304   2.405   1.390 -0.0062 -1.8045 -2.3482
  645SOL     OW 1933   0.658   0.794   1.273  0.6525  0.2524 -0.0644
  645SOL    HW1 1934   0.568   0.760   1.239 -0.5022 -0.1244 -1.3213
  645SOL    HW2 1935   0.708   0.829   1.188  0.8020  2.0641  0.7458
  646SOL     OW 1936   1.524   1.747   2.030  0.3222  0.2422  0.3380
  646SOL    HW1 1937   1.607   1.782   1.980 -0.4061 -1.3038  2.8079
  646SOL    HW2 1938   1.536   1.725   2.131 -0.0649  1.6939 -1.4645
  647SOL     OW 1939   0.749   1.073   0.578  0.4550 -0.0942  0.6448
  647SOL    HW1 1940   0.834   1.075   0.637 -0.4712  1.2458  0.7086
  647SOL    HW2 1941   0.675   1.011   0.616 -0.7442  0.9067  1.1033
  648SOL     OW 1942   0.150   0.233   0.375  0.9879  0.0988  0.1990
  648SOL    HW1 1943   0.066   0.174   0.386 -0.7284 -0.0950  0.7285
  648SOL    HW2 1944   0.136   0.297   0.289 -2.4666 -1.0180 -3.4816
  649SOL     OW 1945   3.013   0.259   0.943 -0.2479  0.1423 -0.5127
  649SOL    HW1 1946   3.073   0.302   0.873 -0.3366  0.9163 -0.3175
  649SOL    HW2 1947   3.045   0.272   1.041  0.0367  0.7200  1.0668
  650SOL     OW 1948   2.773   0.709   1.429  0.5049  0.0265  0.1319
  650SOL    HW1 1949   2.679   0.678   1.457  2.5532  1.5541 -0.1658
  650SOL    HW2 1950   2.779   0.813   1.410  4.3489 -2.7830 -0.5613
  651SOL     OW 1951   0.872   1.517   1.694 -0.2768  0.2136  0.1747
  651SOL    HW1 1952   0.847   1.551   1.789  1.3841 -2.5326  0.8441
  651SOL    HW2 1953   0.967   1.550   1.663  0.3376 -0.5535  0.7687
  652SOL     OW 1954   2.302   2.565   2.516  1.2927 -0.4645  0.0947
  652SOL    HW1 1955   2.216   2.525   2.562 -1.1375  1.0264 -0.2507
  652SOL    HW2 1956   2.281   2.657   2.474  0.8446 -0.2921 -3.0594
  653SOL     OW 1957   2.684   1.234   0.184  0.1264  0.5701 -0.1102
  653SOL    HW1 1958   2.741   1.317   0.208  0.2599 -2.0022 -1.0456
  653SOL    HW2 1959   2.731   1.144   0.200 -1.3549 -0.8285 -0.8927
  654SOL     OW 1960   1.190   2.064   1.255  0.3132  0.4009 -0.1370
  654SOL    HW1 1961   1.210   1.976   1.306  0.1566  1.4706  0.6841
  654SOL    HW2 1962   1.220   2.066   1.160 -2.3899  0.9952  0.2825
  655SOL     OW 1963   0.163   0.983   1.893  0.8554  0.0668  0.3577
  655SOL    HW1 1964   0.240   0.933   1.843  0.0275 -1.6537  1.8207
  655SOL    HW2 1965   0.161   1.085   1.880  0.4150 -0.6661  1.0253
  656SOL     OW 1966   2.550   2.535   2.632  0.2160  0.0271  0.1907
  656SOL    HW1 1967   2.647   2.523   2.599  0.1411  1.3646 -1.8695
  656SOL    HW2 1968   2.481   2.541   2.553 -0.2517  0.4151  0.1387
  657SOL     OW 1969   3.005   1.016   1.952  0.2909  0.6004  0.1770
  657SOL    HW1 1970   2.976   1.113   1.973  1.7466 -0.4983 -0.3739
  657SOL    HW2 1971   3.105   1.012   1.931  1.1357  0.4307  0.4219
  658SOL     OW 1972   1.679   0.163   2.339 -0.2557  0.1621 -0.2426
  658SOL    HW1 1973   1.674   0.071   2.391 -0.3153 -4.3487  1.0578
  658SOL    HW2 1974   1.722   0.153   2.243 -0.1378 -1.4574 -1.9665
  659SOL     OW 1975   1.431   0.684   2.806 -0.0978  0.0978  0.4795
  659SOL    HW1 1976   1.475   0.741   2.731  1.4644 -1.4866 -2.4137
  659SOL    HW2 1977   1.322   0.689   2.804 -1.0141  0.1804  1.3419
  660SOL     OW 1978   1.438   0.278   1.408  0.5123 -0.4642 -0.2702
  660SOL    HW1 1979   1.478   0.336   1.482 -0.0775 -0.6823 -1.0051
  660SOL    HW2 1980   1.498   0.193   1.383 -3.4361 -0.6722 -0.5987
  661SOL     OW 1981   2.374   1.287   0.676  0.5690 -0.2660 -0.2534
  661SOL    HW1 1982   2.408   1.228   0.604 -2.0190  0.4867  2.1608
  661SOL    HW2 1983   2.308   1.364   0.647  2.0994 -1.8652 -0.6999
  662SOL     OW 1984   1.474   0.385   1.676 -0.2336 -0.0426 -0.1555
  662SOL    HW1 1985   1.405   0.323   1.724  1.8077 -0.3972  0.4351
  662SOL    HW2 1986   1.445   0.485   1.677 -0.6760  2.9411  0.4647
  663SOL     OW 1987   0.785   1.631   1.931  0.3769 -0.0058  0.2600
  663SOL    HW1 1988   0.797   1.706   2.001 -1.5422 -3.3669 -2.2216
  663SOL    HW2 1989   0.738   1.549   1.967 -2.0542  1.8948 -1.1351
  664SOL     OW 1990   1.620   2.063   1.442 -0.1143  0.2914 -0.4824
  664SOL    HW1 1991   1.531   2.010   1.458  0.3752  1.0733 -2.3616
  664SOL    HW2 1992   1.700   1.999   1.408  1.3332  0.4698 -0.9151
  665SOL     OW 1993   2.262   0.667   2.023 -0.6319 -0.2517 -0.4911
  665SOL    HW1 1994   2.237   0.569   2.035 -1.0734  2.2197 -1.2018
  665SOL    HW2 1995   2.346   0.696   2.083 -0.2930  1.5759 -0.8261
  666SOL     OW 1996   0.449   2.246   0.388  0.0919  0.1289 -0.2123
  666SOL    HW1 1997   0.489   2.335   0.416  2.9048  0.4252 -2.8057
  666SOL    HW2 1998   0.344   2.241   0.383  0.2119 -0.7346  1.9049
  667SOL     OW 1999   2.041   0.191   1.086  0.0705  0.3112 -0.0920
  667SOL    HW1 2000   2.058   0.292   1.068  0.0038  1.8685  2.5561
  667SOL    HW2 2001   1.986   0.176   1.174 -1.6401  1.1319  1.6985
  668SOL     OW 2002   1.986   0.485   1.081 -0.0533  0.2759 -0.0219
  668SOL    HW1 2003   2.060   0.517   1.012 -2.0348  0.7836  0.0448
  668SOL    HW2 2004   2.008   0.503   1.180 -1.6957  1.8846  1.3024
  669SOL     OW 2005   3.063   2.134   1.023 -0.6119  0.1859 -0.0045
  669SOL    HW1 2006   2.997   2.170   0.949 -1.7956  1.1546 -1.0194
  669SOL    HW2 2007   3.048   2.179   1.117  0.5385 -0.9104 -1.2889
  670SOL     OW 2008   2.935   2.396   2.172  0.6221 -0.3314 -0.3546
  670SOL    HW1 2009   2.849   2.339   2.202 -0.9720 -1.9588  2.1676
  670SOL    HW2 2010   2.915   2.486   2.117 -0.8553  2.3998 -0.3434
  671SOL     OW 2011   1.810   1.649   1.537 -0.5806 -0.0759  0.1394
  671SOL    HW1 2012   1.791   1.655   1.432 -1.9658  0.8936 -0.3636
  671SOL    HW2 2013   1.722   1.616   1.587  0.1933  0.3252  1.5155
  672SOL     OW 2014   0.486   0.725   2.575  0.4495 -0.1928  0.7526
  672SOL    HW1 2015   0.410   0.687   2.519 -0.9401 -0.1852 -0.0460
  672SOL    HW2 2016   0.461   0.812   2.616  1.6487 -3.9819 -1.3894
  673SOL     OW 2017   0.075   1.426   1.027  0.0004 -0.4660  0.8194
  673SOL    HW1 2018   0.090   1.482   1.111 -1.2525  0.8292 -1.3530
  673SOL    HW2 2019   0.158   1.361   1.009  0.2704  0.0838  1.9470
  674SOL     OW 2020   1.558   3.020   0.234  0.0611 -0.4778  0.1118
  674SOL    HW1 2021   1.652   3.042   0.199  2.3218  0.2191  1.1599
  674SOL    HW2 2022   1.484   3.016   0.158 -2.1804 -0.1437  0.8655
  675SOL     OW 2023   1.641   0.848   2.304 -0.1385  0.4423  0.1901
  675SOL    HW1 2024   1.740   0.855   2.286  1.0368  0.6353  0.0389
  675SOL    HW2 2025   1.603   0.747   2.303 -0.7767 -1.6783 -1.7056
  676SOL     OW 2026   2.550   1.560   2.006  0.5330 -0.3192  0.2743
  676SOL    HW1 2027   2.535   1.507   1.916 -1.4670  1.0581  2.6604
  676SOL    HW2 2028   2.595   1.496   2.074  1.3305 -2.2791 -0.9731
  677SOL     OW 2029   1.863   0.702   0.881 -1.1014  0.6119 -0.0888
  677SOL    HW1 2030   1.763   0.698   0.913 -2.2279 -1.0538 -1.0455
  677SOL    HW2 2031   1.917   0.637   0.942 -0.4431 -0.9154  0.4339
  678SOL     OW 2032   0.097   0.819   1.643 -0.6192  0.4877 -0.1425
  678SOL    HW1 2033   0.183   0.860   1.682 -2.2510 -0.1073  2.3487
  678SOL    HW2 2034   0.060   0.748   1.709  0.4698 -1.7086 -0.3817
  679SOL     OW 2035   2.566   1.107   1.220 -0.0036  0.1753  0.2852
  679SOL    HW1 2036   2.469   1.137   1.214  2.4322  0.2278  0.3136
  679SOL    HW2 2037   2.576   1.003   1.193  0.1751  0.2979 -3.1307
  680SOL     OW 2038   2.824   0.523   1.674 -0.2347  0.3237  0.3205
  680SOL    HW1 2039   2.783   0.595   1.613 -0.8707  1.9200  0.8299
  680SOL    HW2 2040   2.903   0.556   1.732  0.3124 -0.8884 -0.9481
  681SOL     OW 2041   3.009   0.074   1.569  0.1824 -1.4959 -0.1785
  681SOL    HW1 2042   3.029   0.045   1.469 -1.7954 -2.6093 -0.9726
  681SOL    HW2 2043   2.929   0.141   1.581 -4.3803 -1.8063 -1.1733
  682SOL     OW 2044   0.608   0.091   1.289  0.4727 -0.8112 -0.3985
  682SOL    HW1 2045   0.556   0.010   1.322  1.2871  1.4626  0.4479
  682SOL    HW2 2046   0.704   0.066   1.257 -0.2336  0.1359 -0.6084
  683SOL     OW 2047   1.357   0.255   2.190 -0.1315  0.8123  0.2266
  683SOL    HW1 2048   1.368   0.281   2.291 -1.1936  0.3424 -0.9680
  683SOL    HW2 2049   1.436   0.288   2.140 -1.9483  0.1503  2.2241
  684SOL     OW 2050   1.376   2.166   0.579  0.0722 -0.3224  0.1268
  684SOL    HW1 2051   1.428   2.079   0.612  1.5250 -0.2247 -1.0841
  684SOL    HW2 2052   1.295   2.143   0.515 -0.6091  1.6426 -0.7011
  685SOL     OW 2053   2.256   2.079   1.976 -0.3973 -0.0654 -0.0982
  685SOL    HW1 2054   2.350   2.035   1.969  1.0363 -0.1122 -1.1834
  685SOL    HW2 2055   2.244   2.114   2.072 -1.6539  1.2849  0.6761
  686SOL     OW 2056   1.538   1.845   2.901  0.0023  0.4740  0.1336
  686SOL    HW1 2057   1.570   1.802   2.990  1.9275  1.0486  0.2968
  686SOL    HW2 2058   1.441   1.822   2.871  2.4303 -0.6769 -0.7171
  687SOL     OW 2059   1.408   2.443   1.974 -0.2600  0.4889 -0.3161
  687SOL    HW1 2060   1.391   2.344   1.948  2.2782  1.6023  2.0828
  687SOL    HW2 2061   1.374   2.464   2.070  0.4453 -1.0448  2.3975
  688SOL     OW 2062   2.052   1.511   1.714  0.0060  0.2325  0.0942
  688SOL    HW1 2063   2.133   1.573   1.710  0.0238 -1.4753  1.1596
  688SOL    HW2 2064   2.018   1.487   1.618  0.9715 -3.1567 -0.0362
  689SOL     OW 2065   2.333   1.117   2.802  0.7030  0.1086 -0.1063
  689SOL    HW1 2066   2.247   1.056   2.796  0.2033 -0.9106  0.4316
  689SOL    HW2 2067   2.409   1.078   2.868  4.3018  1.6715  0.7006
  690SOL     OW 2068   2.225   2.773   0.028 -0.6310 -0.2951  0.3025
  690SOL    HW1 2069   2.185   2.802  -0.066  3.7085 -1.8126  0.2685
  690SOL    HW2 2070   2.184   2.689   0.079  1.1919 -3.7165  2.3497
  691SOL     OW 2071   2.577   0.405   2.092 -0.3497 -0.1728 -0.3796
  691SOL    HW1 2072   2.626   0.317   2.079 -0.6712  0.9202  2.1996
  691SOL    HW2 2073   2.613   0.484   2.032 -0.1931 -3.0413 -0.8865
  692SOL     OW 2074   2.665   1.225   0.730  0.2622 -0.4278  0.4373
  692SOL    HW1 2075   2.606   1.250   0.649  0.8583 -1.3570  0.9157
  692SOL    HW2 2076   2.711   1.305   0.774  1.0892 -3.2913 -1.8574
  693SOL     OW 2077   2.895   2.905   0.660 -0.5549 -0.1692 -0.2491
  693SOL    HW1 2078   2.901   2.989   0.721  2.3233  1.6045 -0.3506
  693SOL    HW2 2079   2.883   2.927   0.560  1.6881  0.7683 -0.5806
  694SOL     OW 2080   2.391   2.272   0.120 -0.2397 -0.2740  0.2785
  694SOL    HW1 2081   2.390   2.363   0.170  0.9622 -1.4020 -0.7181
  694SOL    HW2 2082   2.299   2.234   0.116 -1.9937 -0.6266 -3.1343
  695SOL     OW 2083   0.497   3.014   1.455 -0.5294 -0.0581 -0.3340
  695SOL    HW1 2084   0.442   2.936   1.410  1.4188  1.6209 -1.5820
  695SOL    HW2 2085   0.448   3.073   1.528  1.3828 -0.2222 -0.4517
  696SOL     OW 2086   2.747   1.986   0.767  0.1547 -0.1108  0.1330
  696SOL    HW1 2087   2.841   1.947   0.784 -0.9995  0.1078 -1.0165
  696SOL    HW2 2088   2.700   1.943   0.692  1.1356 -0.6979  1.9501
  697SOL     OW 2089   1.705   1.847   1.852  0.0356 -0.3706 -0.1966
  697SOL    HW1 2090   1.781   1.844   1.781 -0.2093 -0.5630 -3.3648
  697SOL    HW2 2091   1.660   1.943   1.860  1.2451 -0.6836  1.4758
  698SOL     OW 2092   2.909   0.393   2.691 -0.0689 -0.1143 -0.7108
  698SOL    HW1 2093   2.941   0.377   2.593 -1.3355  1.1331 -0.5353
  698SOL    HW2 2094   2.971   0.351   2.762  1.5495  0.8228 -0.2916
  699SOL     OW 2095   1.656   0.116   2.924  0.0312 -0.3955  0.1433
  699SOL    HW1 2096   1.606   0.032   2.889  3.7292 -0.7328 -0.3360
  699SOL    HW2 2097   1.737   0.142   2.865  0.3668 -0.5397  0.2566
  700SOL     OW 2098   0.999   2.278   1.358  0.6278 -0.2244 -0.3849
  700SOL    HW1 2099   1.064   2.197   1.339  1.8046  2.6300  0.3065
  700SOL    HW2 2100   0.905   2.241   1.330 -1.4740 -0.7241 -0.9364
  701SOL     OW 2101   1.880   2.896   0.021  0.5695  0.0353 -0.1277
  701SOL    HW1 2102   1.879   2.828   0.104  1.5743 -2.9142  0.8386
  701SOL    HW2 2103   1.913   2.996   0.033 -1.6780  0.5365 -1.8709
  702SOL     OW 2104   2.108   1.376   1.950  0.1762  0.1092 -0.0625
  702SOL    HW1 2105   2.177   1.302   1.939 -0.3967  1.5352  0.7153
  702SOL    HW2 2106   2.099   1.434   1.866 -0.1781 -0.5514  1.1160
  703SOL     OW 2107   1.988   0.930   1.449  0.4099 -0.2133  0.2382
  703SOL    HW1 2108   1.976   0.835   1.487  0.4761  0.1816  0.0600
  703SOL    HW2 2109   2.043   0.993   1.512 -1.7138  1.6662  1.1251
  704SOL     OW 2110   0.334   2.073   1.719 -0.2389  0.3645  0.4799
  704SOL    HW1 2111   0.359   2.021   1.808  1.4581 -1.5377  0.7030
  704SOL    HW2 2112   0.401   2.147   1.693 -1.3321 -1.3643  0.1381
  705SOL     OW 2113   2.481   1.409   0.922  0.0521 -0.0878 -0.6164
  705SOL    HW1 2114   2.425   1.375   0.841  1.2121  1.4243 -1.2166
  705SOL    HW2 2115   2.581   1.426   0.898  1.3178  0.1848  1.6793
  706SOL     OW 2116   0.540   1.725   1.786  0.4381  0.2151 -0.2674
  706SOL    HW1 2117   0.599   1.763   1.707 -0.0319 -3.1727  2.3042
  706SOL    HW2 2118   0.597   1.707   1.874  0.8942  0.2566  1.5838
  707SOL     OW 2119   2.320   1.192   1.892  0.2959  0.6440  0.8541
  707SOL    HW1 2120   2.418   1.164   1.874 -0.8285  0.6538  0.2283
  707SOL    HW2 2121   2.257   1.113   1.887  0.5481  0.0768  0.7697
  708SOL     OW 2122   3.034   0.530   2.991  0.3647 -0.5049  0.4152
  708SOL    HW1 2123   3.093   0.600   2.948 -1.8680 -5.1604  0.1370
  708SOL    HW2 2124   3.059   0.439   2.954 -0.3615  0.3393  1.4523
  709SOL     OW 2125   1.851   1.912   0.431  0.1556 -0.1954 -0.1982
  709SOL    HW1 2126   1.842   2.013   0.456  0.5265 -0.3112 -0.9449
  709SOL    HW2 2127   1.852   1.898   0.327  3.2557 -0.1816 -2.2826
  710SOL     OW 2128   1.752   1.544   2.440  0.3057 -0.3817  0.5290
  710SOL    HW1 2129   1.827   1.480   2.407 -0.6153  1.0779  0.3370
  710SOL    HW2 2130   1.736   1.528   2.540 -0.2850 -0.9517  3.5142
  711SOL     OW 2131   2.703   2.853   0.974 -0.0476  0.5169 -0.2568
  711SOL    HW1 2132   2.648   2.936   0.951  0.7320 -0.7391  0.6313
  711SOL    HW2 2133   2.800   2.879   0.993 -2.6854  0.7845 -3.2358
  712SOL     OW 2134   1.349   2.158   1.930  0.3060 -0.9923  0.2828
  712SOL    HW1 2135   1.443   2.141   1.896  3.0410 -2.2114  3.5059
  712SOL    HW2 2136   1.275   2.110   1.878  3.4956 -1.7046 -1.7349
  713SOL     OW 2137   2.787   1.449   2.540 -0.2937 -0.2279 -0.1371
  713SOL    HW1 2138   2.819   1.356   2.503  0.8388 -1.8747 -2.3013
  713SOL    HW2 2139   2.686   1.458   2.567 -0.7924 -0.2677 -0.5388
  714SOL     OW 2140   2.665   0.441   2.347  0.5418  0.8582  0.3731
  714SOL    HW1 2141   2.587   0.439   2.418 -4.7627  1.3538  1.3169
  714SOL    HW2 2142   2.640   0.413   2.247 -0.4903 -0.2964  0.0662
  715SOL     OW 2143   1.634   2.170   1.178  0.2497 -0.4537  0.0016
  715SOL    HW1 2144   1.554   2.215   1.134  0.0778  0.8001 -2.5579
  715SOL    HW2 2145   1.621   2.131   1.277  0.0876  0.3048  0.4018
  716SOL     OW 2146   1.253   0.114   1.541 -0.1233 -0.3630  0.4220
  716SOL    HW1 2147   1.162   0.146   1.513 -0.0181 -0.6182  1.8899
  716SOL    HW2 2148   1.326   0.176   1.512  0.6627 -1.9594  0.1069
  717SOL     OW 2149   1.170   0.589   1.625  0.0096 -0.0666  0.3480
  717SOL    HW1 2150   1.254   0.623   1.677 -1.0917 -2.6504 -0.8195
  717SOL    HW2 2151   1.187   0.562   1.523  1.5305  0.0091 -1.2983
  718SOL     OW 2152   0.651   0.891   0.960 -0.2274  0.3171 -0.1672
  718SOL    HW1 2153   0.628   0.900   0.858  0.5715 -0.0955 -1.3462
  718SOL    HW2 2154   0.671   0.978   1.014 -2.2170  0.9247 -0.4026
  719SOL     OW 2155   0.734   1.725   2.276 -0.1393 -0.4828 -0.0879
  719SOL    HW1 2156   0.788   1.745   2.360 -0.9371 -0.1231 -2.8679
  719SOL    HW2 2157   0.662   1.651   2.286 -1.9648 -1.5609  2.7133
  720SOL     OW 2158   2.162   1.188   0.285 -0.4437 -0.7540  0.3536
  720SOL    HW1 2159   2.244   1.135   0.254 -1.9069 -2.3220  0.3178
  720SOL    HW2 2160   2.144   1.175   0.385 -2.1601  0.8839 -2.4961
  721SOL     OW 2161   2.232   2.923   2.135  0.3832  0.2940  0.3438
  721SOL    HW1 2162   2.255   2.961   2.041  0.6692  1.9443  4.3934
  721SOL    HW2 2163   2.136   2.936   2.167  1.0004 -2.1145  1.3737
  722SOL     OW 2164   2.332   1.690   0.556  0.2690  0.2061 -0.5332
  722SOL    HW1 2165   2.390   1.674   0.473  0.2266 -1.9191 -0.9729
  722SOL    HW2 2166   2.242   1.741   0.535 -2.1400  0.9141 -1.2089
  723SOL     OW 2167   2.623   2.764   1.951  0.7681 -0.1617 -0.3018
  723SOL    HW1 2168   2.636   2.855   2.005 -0.8177  0.6782 -0.4522
  723SOL    HW2 2169   2.531   2.721   1.971 -1.2704  1.7695  1.0418
  724SOL     OW 2170   0.385   2.523   2.413 -0.1458  0.3074 -0.1398
  724SOL    HW1 2171   0.284   2.530   2.400 -0.7927 -1.5169 -1.6150
  724SOL    HW2 2172   0.407   2.474   2.504  0.0990 -0.1418 -1.3796
  725SOL     OW 2173   2.448   2.825   1.469  0.7109  0.1989 -1.1510
  725SOL    HW1 2174   2.482   2.826   1.369 -2.0808  1.2982  1.9548
  725SOL    HW2 2175   2.444   2.727   1.505 -1.2718 -0.5991 -1.3308
  726SOL     OW 2176   2.485   2.334   0.729  0.2117  0.0726 -0.1900
  726SOL    HW1 2177   2.472   2.424   0.676  0.8162  0.3580 -0.6119
  726SOL    HW2 2178   2.470   2.255   0.670  3.1695  0.8065  1.5226
  727SOL     OW 2179   0.117   3.087   0.125 -0.3329 -0.1724 -0.0783
  727SOL    HW1 2180   0.191   3.142   0.072  2.6210  1.2634 -2.2982
  727SOL    HW2 2181   0.105   2.996   0.075  3.3826 -2.0442  1.5978
  728SOL     OW 2182   2.933   0.741   0.951 -0.4196  0.0281  0.3594
  728SOL    HW1 2183   2.868   0.756   0.871 -1.3036 -1.2504  1.9354
  728SOL    HW2 2184   2.892   0.673   1.017 -1.7702  2.5521 -0.7153
  729SOL     OW 2185   0.012   2.538   0.781 -0.1423  0.6651  0.0172
  729SOL    HW1 2186   0.076   2.515   0.860  1.3975 -0.8531  2.5024
  729SOL    HW2 2187   0.064   2.534   0.690  2.3319 -1.2713 -1.0040
  730SOL     OW 2188   2.562   0.730   0.916 -0.2110 -0.0240 -0.3927
  730SOL    HW1 2189   2.532   0.829   0.898 -1.0541  0.0612 -1.1884
  730SOL    HW2 2190   2.645   0.703   0.861 -1.4242 -0.9004 -2.3588
  731SOL     OW 2191   3.088   2.237   2.347 -0.4278  0.1370  0.3504
  731SOL    HW1 2192   3.017   2.209   2.420  1.4774 -2.3283 -0.9041
  731SOL    HW2 2193   3.053   2.311   2.282  0.8161  2.2051  1.2458
  732SOL     OW 2194   1.332   2.747   1.982 -0.1248  0.2022  0.0695
  732SOL    HW1 2195   1.342   2.655   2.025 -2.5539  1.3526  0.0028
  732SOL    HW2 2196   1.319   2.732   1.881  1.9644 -0.5770 -0.6097
  733SOL     OW 2197   0.004   0.643   2.233  0.2836 -0.5813  0.1809
  733SOL    HW1 2198   0.080   0.685   2.174  0.9791 -0.5144  1.3014
  733SOL    HW2 2199  -0.050   0.567   2.188 -0.8643  0.4079  0.4729
  734SOL     OW 2200   1.503   0.388   2.711 -0.1744 -0.2076 -0.3775
  734SOL    HW1 2201   1.480   0.474   2.767 -2.2098 -1.2790  3.1238
  734SOL    HW2 2202   1.425   0.320   2.727 -2.3924  0.8545 -1.5423
  735SOL     OW 2203   2.889   2.660   2.328  0.8198 -0.9454  0.0207
  735SOL    HW1 2204   2.867   2.637   2.229 -0.3088  0.0941 -2.2944
  735SOL    HW2 2205   2.977   2.718   2.343  2.3175 -2.2969 -1.0037
  736SOL     OW 2206   0.895   0.406   2.524  0.4085 -0.3705  0.0616
  736SOL    HW1 2207   0.804   0.452   2.542  2.0561  1.0820  1.8048
  736SOL    HW2 2208   0.889   0.348   2.440  0.7847 -0.9852  0.2260
  737SOL     OW 2209   2.677   0.492   2.790 -0.4329  0.6386 -0.2500
  737SOL    HW1 2210   2.647   0.443   2.879  0.4353 -0.4647 -1.9200
  737SOL    HW2 2211   2.764   0.442   2.752  2.9421 -1.5731  0.7814
  738SOL     OW 2212   1.767   1.234   2.865 -0.1432 -0.5649  0.6321
  738SOL    HW1 2213   1.869   1.221   2.871  1.0962  0.7056 -0.2192
  738SOL    HW2 2214   1.721   1.143   2.845  1.7478 -0.3858  1.7176
  739SOL     OW 2215   1.845   0.713   0.621 -0.0348 -0.6019 -0.2156
  739SOL    HW1 2216   1.855   0.732   0.723 -0.1261  1.1573  2.2256
  739SOL    HW2 2217   1.854   0.609   0.602 -0.4128  2.6671 -0.3397
  740SOL     OW 2218   1.971   1.934   2.347 -0.7741  0.6594 -0.4416
  740SOL    HW1 2219   2.013   1.858   2.399  1.7530  0.7673  0.3034
  740SOL    HW2 2220   1.910   1.908   2.267  3.8478  0.9165  2.3307
  741SOL     OW 2221   2.545   0.112   2.456  0.0054 -0.1434 -0.0077
  741SOL    HW1 2222   2.645   0.108   2.424 -1.5303  1.2706 -0.1597
  741SOL    HW2 2223   2.477   0.105   2.376 -1.4073  2.2038  0.2915
  742SOL     OW 2224   2.205   1.466   0.184  0.3754 -0.0949 -0.2208
  742SOL    HW1 2225   2.124   1.528   0.179 -2.1089  1.5620  2.0605
  742SOL    HW2 2226   2.180   1.370   0.213 -0.4034  0.3403 -0.4424
  743SOL     OW 2227   1.780   0.640   2.554  0.6886 -0.4023 -0.0354
  743SOL    HW1 2228   1.779   0.543   2.511  1.9173 -0.7262  0.8192
  743SOL    HW2 2229   1.702   0.654   2.621 -0.1835  1.8007 -1.4299
  744SOL     OW 2230   2.680   2.133   0.166 -0.8570  0.0310 -0.7362
  744SOL    HW1 2231   2.612   2.156   0.241 -0.8548  0.6766 -1.5287
  744SOL    HW2 2232   2.678   2.027   0.144 -1.2008 -1.9383 -2.0659
  745SOL     OW 2233   2.205   2.501   2.215 -0.7337 -0.1712 -0.0756
  745SOL    HW1 2234   2.110   2.529   2.175 -1.3582 -1.5020  1.2986
  745SOL    HW2 2235   2.198   2.490   2.315 -0.7593 -0.1418  0.0773
  746SOL     OW 2236   3.085   2.551   1.790  0.1132  0.0810 -0.2646
  746SOL    HW1 2237   3.159   2.510   1.730 -0.0800  2.3152  0.0428
  746SOL    HW2 2238   3.125   2.622   1.853  0.5134 -0.3106  0.0854
  747SOL     OW 2239   3.087   1.785   1.669  0.1317 -0.1337  0.3159
  747SOL    HW1 2240   3.065   1.684   1.639 -1.3388 -1.6408 -2.1633
  747SOL    HW2 2241   3.143   1.845   1.605  1.2448 -2.2888 -1.2729
  748SOL     OW 2242   1.822   2.690   2.943 -0.1185  0.5426 -0.0672
  748SOL    HW1 2243   1.860   2.779   2.991  1.5998 -1.8352  1.0566
  748SOL    HW2 2244   1.718   2.695   2.908 -1.2850  0.9282 -1.1004
  749SOL     OW 2245   1.275   2.900   0.814 -0.1734  0.6768 -0.1667
  749SOL    HW1 2246   1.196   2.966   0.807  4.9512 -2.2511  2.5252
  749SOL    HW2 2247   1.366   2.943   0.789  0.7137  2.0738 -1.1990
  750SOL     OW 2248   2.277   0.228   1.858 -0.1637 -0.0053  0.5048
  750SOL    HW1 2249   2.314   0.261   1.773  1.0340 -0.1988  1.1241
  750SOL    HW2 2250   2.285   0.292   1.940  1.7604 -0.8877  0.7082
  751SOL     OW 2251   0.814   2.132   2.916 -0.3073  0.4510 -0.0383
  751SOL    HW1 2252   0.904   2.117   2.969  0.7513  2.6394  3.3180
  751SOL    HW2 2253   0.741   2.063   2.942  0.9082  0.6835 -0.7626
  752SOL     OW 2254   1.358   0.790   1.135  0.1815  0.6641 -0.1492
  752SOL    HW1 2255   1.400   0.875   1.177  2.4956 -0.0067  0.9486
  752SOL    HW2 2256   1.370   0.712   1.202  2.1914  2.1018 -1.6301
  753SOL     OW 2257   1.004   2.575   1.819  0.2849  1.1876 -0.4355
  753SOL    HW1 2258   1.102   2.576   1.810 -3.4745  1.7445  0.4195
  753SOL    HW2 2259   0.965   2.661   1.844 -0.2757 -2.6060  0.8842
  754SOL     OW 2260   1.136   1.196   2.997  0.1209 -0.8815 -0.0213
  754SOL    HW1 2261   1.189   1.124   2.940 -0.8822  0.3307 -2.2857
  754SOL    HW2 2262   1.179   1.292   2.993 -0.2379  0.7156  1.2096
  755SOL     OW 2263   1.934   0.486   2.192  0.0292 -0.0606  0.3029
  755SOL    HW1 2264   2.006   0.410   2.207  5.0402 -0.7967  0.7025
  755SOL    HW2 2265   1.852   0.473   2.263 -2.1178 -1.5346 -2.4128
  756SOL     OW 2266   2.505   0.980   2.968 -0.1274  0.0288 -0.0721
  756SOL    HW1 2267   2.610   0.968   2.975  1.4697  1.4321 -0.1276
  756SOL    HW2 2268   2.444   0.905   3.011  0.2781  0.2792 -0.6690
  757SOL     OW 2269   0.127   0.420   1.960  0.2930 -0.0577  0.1865
  757SOL    HW1 2270   0.162   0.323   1.970 -1.9112  3.0692  0.6145
  757SOL    HW2 2271   0.041   0.425   2.017 -3.6150  0.5340 -2.3063
  758SOL     OW 2272   2.318   0.078   1.416 -0.3278 -0.1109  0.6331
  758SOL    HW1 2273   2.274   0.004   1.471  2.2763 -0.7364 -2.2555
  758SOL    HW2 2274   2.294   0.069   1.317 -0.9463 -0.3967 -0.0843
  759SOL     OW 2275   1.725   0.121   0.086 -0.4368 -0.1265  0.0826
  759SOL    HW1 2276   1.691   0.128  -0.012  0.6401  2.1591 -1.3608
  759SOL    HW2 2277   1.829   0.105   0.094  1.9430  1.1583 -2.5224
  760SOL     OW 2278   2.716   2.078   2.830  0.3016 -0.7940  0.3592
  760SOL    HW1 2279   2.655   2.124   2.900 -2.3027 -3.0247  2.1326
  760SOL    HW2 2280   2.811   2.129   2.824  0.1862 -0.4531  0.7441
  761SOL     OW 2281   1.948   1.774   1.713 -0.0743  0.0414 -0.7052
  761SOL    HW1 2282   1.950   1.699   1.785 -2.8946  1.3551 -0.2544
  761SOL    HW2 2283   1.894   1.731   1.634  0.0171 -1.6479  0.5112
  762SOL     OW 2284   0.510   2.393   0.935  0.1851  0.1144  0.1731
  762SOL    HW1 2285   0.557   2.393   0.844 -0.9231  1.6353  0.9879
  762SOL    HW2 2286   0.570   2.422   1.012 -2.1101 -2.2195 -0.1347
  763SOL     OW 2287   2.124   1.607   3.001 -0.2391 -0.1658  0.3264
  763SOL    HW1 2288   2.219   1.580   3.023  1.3485 -1.8161  0.4674
  763SOL    HW2 2289   2.054   1.528   3.024 -0.4663  0.5554  1.1622
  764SOL     OW 2290   0.665   0.573   0.630  0.3115  0.4379 -0.4702
  764SOL    HW1 2291   0.562   0.537   0.635  0.2002  1.2231 -0.5711
  764SOL    HW2 2292   0.719   0.544   0.718  2.6732 -0.5485  2.5273
  765SOL     OW 2293   0.825   0.268   0.718 -0.3509  0.1457 -0.8961
  765SOL    HW1 2294   0.861   0.306   0.628  0.6950 -1.5382  2.2693
  765SOL    HW2 2295   0.818   0.340   0.793  0.2604  2.4715  3.1001
  766SOL     OW 2296   2.900   2.193   3.055  0.1397 -0.6313 -0.0359
  766SOL    HW1 2297   2.811   2.203   3.112 -1.7036  0.5172  0.9787
  766SOL    HW2 2298   2.949   2.285   3.057  1.9259 -2.4228 -0.2204
  767SOL     OW 2299   2.837   1.618   0.533 -0.1635 -0.1696  0.7540
  767SOL    HW1 2300   2.796   1.625   0.627 -0.6936  2.0978  1.4603
  767SOL    HW2 2301   2.907   1.689   0.513  0.0252  0.7684 -0.4187
  768SOL     OW 2302   1.025   0.224   0.184 -0.1449  0.2534 -0.2878
  768SOL    HW1 2303   1.006   0.275   0.272  0.9457 -2.4184  1.9657
  768SOL    HW2 2304   1.122   0.179   0.181  0.7580 -2.0215 -1.6906
  769SOL     OW 2305   1.127   1.804   2.283 -0.3174  0.2702  0.3631
  769SOL    HW1 2306   1.034   1.818   2.332  2.9472 -1.1276  1.5970
  769SOL    HW2 2307   1.200   1.804   2.354  0.1246  2.0866 -1.0340
  770SOL     OW 2308   0.196   1.152   2.287 -0.3347 -0.1839  0.2894
  770SOL    HW1 2309   0.175   1.209   2.369  1.8247 -0.1874  2.1396
  770SOL    HW2 2310   0.109   1.117   2.237 -0.7870  1.6160 -2.0057
  771SOL     OW 2311   3.070   2.800   1.903 -0.0444 -0.0301  0.2299
  771SOL    HW1 2312   2.989   2.826   1.839 -1.6925 -2.2493 -0.9620
  771SOL    HW2 2313   3.058   2.827   2.003 -2.0689 -1.0706  2.3963
  772SOL     OW 2314   2.355   0.209   2.832  0.3002 -0.0499 -0.0037
  772SOL    HW1 2315   2.428   0.140   2.793  1.6174 -1.6923 -2.0710
  772SOL    HW2 2316   2.344   0.196   2.933 -0.5346  0.6630 -1.7772
  773SOL     OW 2317   0.576   2.096   2.420 -0.1006 -0.0362 -0.4471
  773SOL    HW1 2318   0.547   2.190   2.392  3.3430  1.7403  1.6089
  773SOL    HW2 2319   0.510   2.048   2.480 -1.3036  3.9692 -3.9570
  774SOL     OW 2320   2.098   0.008   2.638 -0.5599 -0.0251 -0.4698
  774SOL    HW1 2321   2.129   0.106   2.649  2.7973 -0.2891  1.4955
  774SOL    HW2 2322   2.180  -0.055   2.625 -0.1010  2.2449  0.8886
  775SOL     OW 2323   2.535   2.874   2.276  0.2674  0.3510 -0.2087
  775SOL    HW1 2324   2.459   2.911   2.331  2.9360 -1.8509 -1.1991
  775SOL    HW2 2325   2.606   2.827   2.334  0.8766 -2.0846  0.8538
  776SOL     OW 2326   0.016   1.218   0.194  0.1431  0.0532  0.4315
  776SOL    HW1 2327  -0.045   1.175   0.118 -1.0064 -1.0874 -0.0715
  776SOL    HW2 2328  -0.027   1.232   0.287 -0.7135 -1.6581 -0.2438
  777SOL     OW 2329   0.363   2.995   0.494 -0.8151  0.1072 -0.0973
  777SOL    HW1 2330   0.267   2.973   0.455 -3.3607 -3.6727 -0.0500
  777SOL    HW2 2331   0.427   2.912   0.499  1.0351 -2.2351 -2.7465
  778SOL     OW 2332   1.359   1.997   0.279  0.5384 -0.1911  0.5832
  778SOL    HW1 2333   1.274   2.040   0.313  0.1361 -2.7651  1.3376
  778SOL    HW2 2334   1.388   2.039   0.188  0.8892 -2.0020 -1.7294
  779SOL     OW 2335   0.147   0.816   0.486  0.2196  0.6298 -0.3516
  779SOL    HW1 2336   0.087   0.738   0.464 -0.2467  0.1387 -1.1256
  779SOL    HW2 2337   0.098   0.892   0.536  2.1793 -1.2100 -2.0478
  780SOL     OW 2338   0.110   0.343   2.345 -0.6660 -0.2503 -0.0220
  780SOL    HW1 2339   0.097   0.419   2.418 -0.9152 -0.1369 -0.2339
  780SOL    HW2 2340   0.211   0.334   2.317  1.1974  1.4603 -0.3041
  781SOL     OW 2341   0.691   1.663   1.544 -0.3262 -0.0518  0.1484
  781SOL    HW1 2342   0.756   1.609   1.604  1.8116  0.0981 -0.2702
  781SOL    HW2 2343   0.599   1.617   1.541 -0.1736 -0.4565  0.2312
  782SOL     OW 2344   2.606   3.094   0.900 -0.1786 -0.1459  0.2582
  782SOL    HW1 2345   2.553   3.122   0.817 -0.6419  0.7752  2.5470
  782SOL    HW2 2346   2.573   3.131   0.988  2.2987  0.4966  1.0565
  783SOL     OW 2347   2.707   0.701   2.412 -0.1213 -0.0128  0.0321
  783SOL    HW1 2348   2.722   0.709   2.515 -2.0773  0.4430  0.5506
  783SOL    HW2 2349   2.687   0.607   2.373  1.4190  0.3046  0.2496
  784SOL     OW 2350   1.430   2.111   0.042 -0.1199 -0.2266 -0.3536
  784SOL    HW1 2351   1.495   2.162   0.098 -0.1374 -1.1905 -2.3132
  784SOL    HW2 2352   1.415   2.155  -0.053  0.9714 -0.8617  0.9862
  785SOL     OW 2353   2.105   0.286   0.022  0.3703 -0.3221 -0.5794
  785SOL    HW1 2354   2.039   0.333   0.088  2.1589 -0.3221 -0.6606
  785SOL    HW2 2355   2.118   0.351  -0.055 -3.0553 -0.3698 -1.2426
  786SOL     OW 2356   2.040   2.190   2.286 -0.3750 -0.4214 -0.0356
  786SOL    HW1 2357   2.001   2.103   2.323  0.7660  3.3628 -0.3026
  786SOL    HW2 2358   2.140   2.186   2.263  2.9689  0.5127 -1.1311
  787SOL     OW 2359   1.428   0.528   0.897 -0.0040 -0.1614  0.0982
  787SOL    HW1 2360   1.353   0.599   0.911 -0.7155  0.2889  0.0477
  787SOL    HW2 2361   1.441   0.505   0.798 -0.7169  1.9262 -3.2407
  788SOL     OW 2362   1.217   0.441   0.008 -0.4409  0.1417  0.1936
  788SOL    HW1 2363   1.131   0.407  -0.040 -0.8670  1.5722  0.3679
  788SOL    HW2 2364   1.204   0.504   0.092  0.3581 -0.1753  2.4019
  789SOL     OW 2365   2.573   0.118   1.961  0.1613  0.4621 -0.2156
  789SOL    HW1 2366   2.520   0.078   1.887 -2.7854  0.5972 -1.6252
  789SOL    HW2 2367   2.627   0.049   2.014 -0.8919 -1.4025 -0.8185
  790SOL     OW 2368   2.616   2.814   0.713  0.6859 -0.4320 -0.2781
  790SOL    HW1 2369   2.696   2.864   0.668 -1.6889  0.5309  1.0665
  790SOL    HW2 2370   2.627   2.812   0.817  1.0561 -1.0854  3.0312
  791SOL     OW 2371   1.926   1.195   0.112  0.0052  0.1280 -0.5295
  791SOL    HW1 2372   1.835   1.160   0.154 -0.0799 -1.6324  1.3310
  791SOL    HW2 2373   2.000   1.190   0.193 -1.8919  1.8417  1.2600
  792SOL     OW 2374   0.443   1.861   2.203 -0.6770 -0.7568 -0.6039
  792SOL    HW1 2375   0.487   1.930   2.263  1.6483 -1.0273 -2.2711
  792SOL    HW2 2376   0.477   1.766   2.223  2.9815 -1.0939  1.4010
  793SOL     OW 2377   2.096   1.618   2.084 -0.1672  0.1969  0.0817
  793SOL    HW1 2378   2.183   1.670   2.051 -0.6633 -1.7159 -2.3693
  793SOL    HW2 2379   2.098   1.514   2.059 -0.0665 -2.5594  0.3048
  794SOL     OW 2380   0.462   1.574   2.253  0.2808 -0.3663  0.2519
  794SOL    HW1 2381   0.456   1.487   2.197  2.1178 -0.4901 -1.0943
  794SOL    HW2 2382   0.379   1.572   2.311  1.1624 -1.1365 -1.0605
  795SOL     OW 2383   2.470   2.237   1.799  0.1865  0.0834 -0.1580
  795SOL    HW1 2384   2.498   2.200   1.896 -1.3027 -0.2841  1.7475
  795SOL    HW2 2385   2.401   2.172   1.750 -0.8369  2.2823  1.1189
  796SOL     OW 2386   3.087   1.075   2.711 -0.1961  0.5100  0.1105
  796SOL    HW1 2387   2.991   1.048   2.738  0.3803 -1.9958 -1.2590
  796SOL    HW2 2388   3.140   1.114   2.793 -1.5612 -0.1413 -1.7296
  797SOL     OW 2389   0.813   0.655   1.466 -0.2547 -0.2325 -0.2082
  797SOL    HW1 2390   0.882   0.721   1.504  0.3779 -3.9342  0.8126
  797SOL    HW2 2391   0.750   0.702   1.401  2.0300  0.2698 -0.2300
  798SOL     OW 2392   1.362   0.474   1.180 -0.6393 -0.4232  0.3163
  798SOL    HW1 2393   1.414   0.440   1.265  1.5697 -0.2753  1.8808
  798SOL    HW2 2394   1.420   0.469   1.092  0.5350  1.3773 -0.0687
  799SOL     OW 2395   1.942   2.639   1.055 -0.1189  0.1298 -0.0903
  799SOL    HW1 2396   1.861   2.611   1.111 -0.4397  0.2268 -0.6514
  799SOL    HW2 2397   1.924   2.701   0.973  3.1187 -0.2127  0.1874
  800SOL     OW 2398   3.069   0.627   1.810  0.3394  0.2036 -0.5637
  800SOL    HW1 2399   3.023   0.678   1.885  1.5769  0.4938 -2.3987
  800SOL    HW2 2400   3.138   0.561   1.849 -2.9378 -1.7501  2.5094
  801SOL     OW 2401   1.893   2.181   0.191 -0.0836 -0.5071 -0.1238
  801SOL    HW1 2402   1.822   2.156   0.116  2.2622  0.1716 -1.1790
  801SOL    HW2 2403   1.989   2.146   0.171  0.2043 -2.3256 -0.4570
  802SOL     OW 2404   0.728   0.815   2.567 -0.1492 -0.4410  0.2895
  802SOL    HW1 2405   0.790   0.776   2.494  0.8733 -0.4404  0.6904
  802SOL    HW2 2406   0.633   0.764   2.581 -1.8119  1.8335  1.5435
  803SOL     OW 2407   0.906   0.165   0.975  0.3340 -0.2135  0.0808
  803SOL    HW1 2408   0.979   0.235   0.992 -0.0335 -0.6687  1.5509
  803SOL    HW2 2409   0.858   0.178   0.888  0.6902 -0.6093  0.9225
  804SOL     OW 2410   0.403   3.051   2.078  0.3971 -0.5348 -0.0313
  804SOL    HW1 2411   0.339   3.117   2.033  1.0556 -2.5346  0.5649
  804SOL    HW2 2412   0.385   2.954   2.054  1.4021 -0.1526  1.7579
  805SOL     OW 2413   2.456   0.315   0.305 -0.1785  0.1548  0.0436
  805SOL    HW1 2414   2.561   0.317   0.313  0.8903 -0.2418 -2.2597
  805SOL    HW2 2415   2.434   0.277   0.211  4.7396  2.1067  0.7207
  806SOL     OW 2416   0.710   2.411   1.673 -0.2309 -0.6899  0.0121
  806SOL    HW1 2417   0.698   2.507   1.713  0.0523  1.7803 -0.6311
  806SOL    HW2 2418   0.810   2.388   1.651  0.6940 -1.5205 -3.3519
  807SOL     OW 2419   2.509   0.952   0.442  0.8029  0.5496 -0.2225
  807SOL    HW1 2420   2.603   0.905   0.439 -0.7095  0.5098  4.4949
  807SOL    HW2 2421   2.461   0.978   0.353  0.0903 -0.2342 -0.2570
  808SOL     OW 2422   0.570   1.985   2.982 -0.7677  0.4492 -0.6422
  808SOL    HW1 2423   0.569   2.010   3.087 -0.5569 -0.1293 -0.0636
  808SOL    HW2 2424   0.544   1.887   2.959  0.6934 -1.3104 -1.1795
  809SOL     OW 2425   2.690   1.992   1.915 -0.1148 -0.0254 -0.2462
  809SOL    HW1 2426   2.776   2.049   1.906  1.5040 -2.3984  0.4600
  809SOL    HW2 2427   2.654   1.961   1.823 -0.5915 -0.0049 -0.5777
  810SOL     OW 2428   2.104   1.131   0.543 -0.2108 -0.5188  0.6377
  810SOL    HW1 2429   2.111   1.060   0.616  2.2421  2.7346 -3.3341
  810SOL    HW2 2430   2.067   1.219   0.573  1.1104 -1.7320  0.4525
  811SOL     OW 2431   1.322   2.332   1.218 -0.7471  0.5038 -0.0370
  811SOL    HW1 2432   1.311   2.231   1.227  1.7653  0.7372  0.0238
  811SOL    HW2 2433   1.262   2.366   1.143  0.3982  1.7521  0.4838
  812SOL     OW 2434   1.366   0.758   1.980  0.3899  0.0192 -0.3104
  812SOL    HW1 2435   1.441   0.819   2.015 -1.6498  0.2420 -0.7246
  812SOL    HW2 2436   1.273   0.801   1.965  0.1682  1.1357  0.9491
  813SOL     OW 2437   1.699   2.023   2.486  0.3311 -0.0123  0.0897
  813SOL    HW1 2438   1.796   2.002   2.530  0.1252  0.6813 -0.2568
  813SOL    HW2 2439   1.701   2.042   2.386  0.9524 -0.2943  2.8711
  814SOL     OW 2440   2.878   1.575   2.901  0.3827 -0.1263 -0.3075
  814SOL    HW1 2441   2.973   1.603   2.941  0.6732  2.2815 -0.6019
  814SOL    HW2 2442   2.854   1.636   2.822  0.2574  2.1910  0.8318
  815SOL     OW 2443   2.272   2.887   2.696 -0.4553 -0.3598  0.4547
  815SOL    HW1 2444   2.219   2.836   2.764  0.2548  0.6981 -0.8968
  815SOL    HW2 2445   2.368   2.847   2.674  0.3722  0.4835  0.4462
  816SOL     OW 2446   1.745   0.328   1.662  0.3503  0.1393  0.6503
  816SOL    HW1 2447   1.641   0.343   1.668 -0.6857  3.8465 -1.9229
  816SOL    HW2 2448   1.794   0.335   1.755 -0.0170 -3.4773 -0.3041
  817SOL     OW 2449   0.476   1.231   2.473 -0.1019  0.4404 -0.1658
  817SOL    HW1 2450   0.402   1.302   2.464  0.9015  1.3637  2.2624
  817SOL    HW2 2451   0.524   1.198   2.385 -0.5105 -0.5742  0.4296
  818SOL     OW 2452   2.015   0.843   0.440  0.0980  0.3584 -0.0211
  818SOL    HW1 2453   1.997   0.945   0.416 -0.5352  1.9376 -2.4099
  818SOL    HW2 2454   1.948   0.810   0.513  0.2305  0.4937 -0.9848
  819SOL     OW 2455   2.749   2.964   3.062 -0.5278 -0.6018  0.0998
  819SOL    HW1 2456   2.842   2.920   3.034 -0.3876  2.4205  0.4044
  819SOL    HW2 2457   2.669   2.939   3.004  1.2982 -1.1750 -1.5095
  820SOL     OW 2458   1.203   1.095   0.548  0.1083  0.2041 -0.3967
  820SOL    HW1 2459   1.244   1.178   0.589  0.4865 -0.8128  1.0612
  820SOL    HW2 2460   1.182   1.022   0.619  1.9658  2.4623 -0.3958
  821SOL     OW 2461   3.074   1.283   0.659  0.2065 -0.0604  0.0054
  821SOL    HW1 2462   3.028   1.295   0.749  0.9521  0.0316  2.5042
  821SOL    HW2 2463   3.127   1.365   0.635 -1.7730 -1.5448  2.5762
  822SOL     OW 2464   2.566   1.770   2.463 -0.1527 -0.3938 -0.5704
  822SOL    HW1 2465   2.571   1.860   2.515  2.3353 -1.1620 -0.1863
  822SOL    HW2 2466   2.509   1.771   2.380 -1.8701  2.0812  2.0368
  823SOL     OW 2467   2.040   0.894   1.179  0.4251 -0.1088  0.3585
  823SOL    HW1 2468   2.015   0.897   1.280  0.2418 -0.8711 -0.0931
  823SOL    HW2 2469   1.955   0.903   1.118  2.2616 -1.6112 -0.8882
  824SOL     OW 2470   0.191   2.048   2.715  0.2144 -0.3929 -0.2099
  824SOL    HW1 2471   0.150   1.985   2.786 -2.4270  1.1352  0.9096
  824SOL    HW2 2472   0.226   2.006   2.629 -0.2578 -1.4009 -1.7596
  825SOL     OW 2473   1.248   1.045   0.266 -0.1113 -0.1799  0.0901
  825SOL    HW1 2474   1.256   1.040   0.370  0.9585 -2.0196 -0.7130
  825SOL    HW2 2475   1.250   1.135   0.219  0.1069 -0.2333 -0.9551
  826SOL     OW 2476   1.916   0.674   1.552  0.0694 -0.4431 -0.0172
  826SOL    HW1 2477   1.963   0.601   1.614  1.3647  0.2929  0.0623
  826SOL    HW2 2478   1.838   0.634   1.492 -0.9446 -0.5382  0.0680
  827SOL     OW 2479   0.772   1.409   0.242 -0.1556 -0.1191 -0.4002
  827SOL    HW1 2480   0.779   1.325   0.178 -1.1820  1.7252 -0.3941
  827SOL    HW2 2481   0.764   1.384   0.342 -2.5825  0.7446  0.0235
  828SOL     OW 2482   2.583   0.060   1.590  0.0566  0.3467 -0.1281
  828SOL    HW1 2483   2.489   0.092   1.552 -2.5381  0.3945  0.3767
  828SOL    HW2 2484   2.566  -0.015   1.664 -2.9317  0.4760  0.3602
  829SOL     OW 2485   2.766   2.490   3.022  1.0372 -0.0563  0.2389
  829SOL    HW1 2486   2.700   2.409   3.022 -1.3763  2.3095  3.8049
  829SOL    HW2 2487   2.762   2.540   3.115  0.6023  0.6220 -0.2733
  830SOL     OW 2488   2.776   0.925   2.993 -0.1873 -0.1076  0.5807
  830SOL    HW1 2489   2.858   0.990   2.985 -0.7989 -0.4411 -1.5726
  830SOL    HW2 2490   2.799   0.832   3.041  2.1562 -0.6924  1.8672
  831SOL     OW 2491   3.076   0.582   0.384 -0.2610 -0.0247 -0.0924
  831SOL    HW1 2492   3.039   0.508   0.447 -1.2555  2.1712 -3.0107
  831SOL    HW2 2493   3.140   0.545   0.313  1.0996 -1.7089  0.6165
  832SOL     OW 2494   1.801   0.754   3.053 -0.2044 -0.0180  0.0028
  832SOL    HW1 2495   1.711   0.810   3.048 -0.3791  0.4513  1.0732
  832SOL    HW2 2496   1.799   0.655   3.019  0.5438  1.8693 -1.7115
  833SOL     OW 2497   2.442   2.122   0.544  0.2115  0.1316 -0.8981
  833SOL    HW1 2498   2.351   2.122   0.494 -1.3719 -1.1733 -1.9825
  833SOL    HW2 2499   2.490   2.030   0.550  4.1846 -0.2135  2.3635
  834SOL     OW 2500   0.063   0.230   0.666  0.0918  0.2425 -0.3218
  834SOL    HW1 2501   0.108   0.177   0.749  3.8923 -0.0270 -1.8931
  834SOL    HW2 2502   0.128   0.251   0.590  1.4550 -0.6503 -1.8902
  835SOL     OW 2503   2.431   1.474   1.187 -0.0252  0.7855  0.4875
  835SOL    HW1 2504   2.531   1.503   1.193 -1.3916 -0.2648 -3.0643
  835SOL    HW2 2505   2.413   1.444   1.091 -0.3203  0.9977 -0.6209
  836SOL     OW 2506   1.528   0.862   2.594 -0.4248  0.0337  0.1998
  836SOL    HW1 2507   1.430   0.863   2.551  0.7402 -1.3706 -0.4628
  836SOL    HW2 2508   1.604   0.863   2.522  0.5282 -0.5915  1.2577
  837SOL     OW 2509   1.527   0.047   0.489  0.2402 -0.5463  0.1055
  837SOL    HW1 2510   1.501   0.143   0.506 -1.2302 -3.2680  2.8375
  837SOL    HW2 2511   1.536   0.031   0.386 -0.5618 -0.2935 -0.5899
  838SOL     OW 2512   1.310   1.603   2.682 -0.4797 -0.0764 -0.0010
  838SOL    HW1 2513   1.373   1.542   2.740 -1.4421 -1.3036  0.5427
  838SOL    HW2 2514   1.236   1.539   2.647  1.1756 -0.4459  1.8063
  839SOL     OW 2515   1.601   0.253   0.983 -0.1601 -0.0805 -0.2294
  839SOL    HW1 2516   1.638   0.298   1.070 -0.2882 -0.1944  0.1490
  839SOL    HW2 2517   1.605   0.151   0.991  1.4637 -2.5831 -0.0559
  840SOL     OW 2518   2.553   2.921   1.731  0.0575  0.5533 -0.0245
  840SOL    HW1 2519   2.531   2.897   1.634 -3.9543  1.4407  2.6606
  840SOL    HW2 2520   2.584   2.849   1.796 -1.5941  1.1447  2.7807
  841SOL     OW 2521   1.592   0.924   3.037  0.4218 -0.1803  0.0481
  841SOL    HW1 2522   1.506   0.920   3.100 -2.2397 -0.4447  2.2668
  841SOL    HW2 2523   1.576   0.971   2.949  2.4492 -0.0071  0.2783
  842SOL     OW 2524   0.821   1.523   0.871  0.1312  0.2714 -0.2440
  842SOL    HW1 2525   0.773   1.587   0.938 -0.1466 -1.2230 -2.3268
  842SOL    HW2 2526   0.769   1.436   0.871  0.8942  2.2101  0.4229
  843SOL     OW 2527   0.166   3.065   1.391  0.7884 -0.3069 -0.6169
  843SOL    HW1 2528   0.188   3.152   1.448  1.3467  0.6089  2.7502
  843SOL    HW2 2529   0.149   2.983   1.454  2.1405  0.1769  1.1328
  844SOL     OW 2530   0.799   2.463   0.245 -0.1853  0.2921  0.0051
  844SOL    HW1 2531   0.719   2.442   0.310  1.8453 -0.9466  1.0993
  844SOL    HW2 2532   0.783   2.549   0.190  0.6211  1.9227  2.1983
  845SOL     OW 2533   1.653   2.827   1.265 -0.0616 -0.3074 -0.3595
  845SOL    HW1 2534   1.607   2.743   1.238  1.6298  2.9178 -0.2914
  845SOL    HW2 2535   1.631   2.864   1.357  1.0324  2.7844 -1.2528
  846SOL     OW 2536   1.523   3.012   0.742 -0.0560 -0.5745 -0.2460
  846SOL    HW1 2537   1.506   3.078   0.662  3.0554  0.5010 -0.5826
  846SOL    HW2 2538   1.626   2.997   0.751  2.2104  1.6711  1.5592
  847SOL     OW 2539   2.083   1.766   0.457 -0.0917 -0.5360  0.3704
  847SOL    HW1 2540   2.050   1.675   0.504  2.4776 -0.6910 -0.8186
  847SOL    HW2 2541   2.008   1.846   0.459 -5.2070  0.3504  1.4689
  848SOL     OW 2542   2.423   0.889   2.640 -0.4573  0.1778  0.2904
  848SOL    HW1 2543   2.419   0.952   2.722 -0.8358 -1.1606  2.3054
  848SOL    HW2 2544   2.346   0.817   2.641 -1.1093  0.9084  0.9720
  849SOL     OW 2545   2.517   0.893   2.391  0.1446 -0.1614  0.1609
  849SOL    HW1 2546   2.590   0.827   2.420 -0.7592  1.4659 -0.3420
  849SOL    HW2 2547   2.457   0.910   2.473 -2.1149  1.5590  0.9921
  850SOL     OW 2548   1.571   0.071   1.329  0.1508  1.0691 -0.8042
  850SOL    HW1 2549   1.574   0.010   1.245  0.3998 -1.5726 -0.3301
  850SOL    HW2 2550   1.529   0.009   1.397  0.0595 -0.2548 -1.4203
  851SOL     OW 2551   0.584   1.710   0.703 -0.2776  0.2276 -0.5021
  851SOL    HW1 2552   0.660   1.756   0.749 -1.2518  0.5748 -1.7692
  851SOL    HW2 2553   0.592   1.713   0.605 -0.8908  0.8779  2.9372
  852SOL     OW 2554   0.858   2.098   1.661  0.6285  0.3209  0.3633
  852SOL    HW1 2555   0.875   2.200   1.637  0.5873 -0.3236 -2.5310
  852SOL    HW2 2556   0.781   2.078   1.729 -1.0807  0.2669  1.4551
  853SOL     OW 2557   2.540   1.526   2.628 -0.1935 -0.0817 -0.2761
  853SOL    HW1 2558   2.451   1.477   2.613 -0.6802  1.4540  0.5113
  853SOL    HW2 2559   2.547   1.621   2.581  2.0584 -0.3605  2.0514
  854SOL     OW 2560   2.411   1.425   1.787 -0.0010  0.2367  0.1512
  854SOL    HW1 2561   2.475   1.396   1.710  0.5247 -0.2733  0.1011
  854SOL    HW2 2562   2.372   1.343   1.837  1.9706  2.8699 -0.0885
  855SOL     OW 2563   2.066   2.385   1.119  0.3313  0.1633 -0.1920
  855SOL    HW1 2564   1.998   2.459   1.097  0.2400 -1.7689 -1.4395
  855SOL    HW2 2565   2.136   2.416   1.188 -0.0574  2.1065 -0.4005
  856SOL     OW 2566   1.325   1.431   0.911  0.3044  0.2615 -0.4213
  856SOL    HW1 2567   1.388   1.513   0.943 -0.1103  0.3956  0.6922
  856SOL    HW2 2568   1.224   1.450   0.929 -1.0304  0.6300  0.2719
  857SOL     OW 2569   0.011   2.732   1.085 -0.5453  0.2087  0.2966
  857SOL    HW1 2570   0.034   2.716   0.984  0.8125  0.3065  1.2815
  857SOL    HW2 2571   0.053   2.668   1.151  0.9856  0.1620  2.2985
  858SOL     OW 2572   2.391   2.033   1.598  0.0433 -0.2340 -0.8544
  858SOL    HW1 2573   2.318   1.969   1.581  0.7572 -0.0978  1.2620
  858SOL    HW2 2574   2.480   1.982   1.611 -1.3413 -0.1097  0.1638
  859SOL     OW 2575   2.453   0.555   1.090  0.3295 -0.4921  0.1372
  859SOL    HW1 2576   2.501   0.616   1.019 -0.5423  2.7294 -2.5514
  859SOL    HW2 2577   2.512   0.471   1.116  1.0322 -3.3978 -1.6972
  860SOL     OW 2578   1.896   2.832   0.499  0.4153  0.2505  0.1454
  860SOL    HW1 2579   1.903   2.768   0.416 -0.3726 -1.5136  2.7842
  860SOL    HW2 2580   1.930   2.926   0.480  1.2999  1.8545  0.7223
  861SOL     OW 2581   1.034   2.496   2.866 -0.2120  0.1974 -0.4100
  861SOL    HW1 2582   1.106   2.563   2.838 -0.4650  0.1450  0.7539
  861SOL    HW2 2583   0.991   2.531   2.951  0.7346 -0.6964 -1.2332
  862SOL     OW 2584   2.826   2.538   1.688 -0.5081 -0.0659  0.1101
  862SOL    HW1 2585   2.921   2.526   1.729  2.3080  1.2329  0.6595
  862SOL    HW2 2586   2.824   2.625   1.627  2.8872 -1.1331 -1.6009
  863SOL     OW 2587   1.829   2.728   0.229 -0.0725 -0.5581  0.3768
  863SOL    HW1 2588   1.856   2.632   0.212 -1.8641  3.2897 -1.6170
  863SOL    HW2 2589   1.731   2.746   0.195 -0.2990 -0.3650  1.1658
  864SOL     OW 2590   2.034   1.222   2.804 -0.1427  0.2623  0.0335
  864SOL    HW1 2591   2.030   1.171   2.715 -1.6151  2.0068  0.4649
  864SOL    HW2 2592   2.118   1.283   2.811 -3.9456  1.9348  1.3847
  865SOL     OW 2593   2.119   1.960   0.718  0.4221 -0.1731  0.4735
  865SOL    HW1 2594   2.213   1.926   0.753 -0.2746 -1.2746  1.6870
  865SOL    HW2 2595   2.044   1.949   0.789  2.3072 -1.0295  2.0415
  866SOL     OW 2596   2.958   2.947   1.072 -0.3104  0.0415 -0.4635
  866SOL    HW1 2597   2.985   2.998   0.989  0.7754  1.0749 -0.7492
  866SOL    HW2 2598   3.021   2.863   1.089 -0.2944  1.6687 -2.0828
  867SOL     OW 2599   0.314   1.375   0.867 -0.3022  0.1698 -0.4137
  867SOL    HW1 2600   0.342   1.303   0.794  0.2842  2.2714 -0.6062
  867SOL    HW2 2601   0.317   1.473   0.827 -0.3074  1.0282  0.7144
  868SOL     OW 2602   0.795   1.879   2.056  0.0261 -0.4720 -0.5728
  868SOL    HW1 2603   0.751   1.859   2.151  3.0813  0.4256  1.4155
  868SOL    HW2 2604   0.750   1.953   2.006  1.7918 -5.0050 -0.1157
  869SOL     OW 2605   2.617   1.903   1.653 -0.3075 -0.0843  0.2009
  869SOL    HW1 2606   2.682   1.965   1.599  0.0456  2.5296 -1.9855
  869SOL    HW2 2607   2.592   1.816   1.597  1.2312  1.3135 -1.1495
  870SOL     OW 2608   2.387   2.704   1.136  0.4043  0.2384  0.3133
  870SOL    HW1 2609   2.362   2.621   1.190  0.0265 -1.1661 -0.4108
  870SOL    HW2 2610   2.475   2.744   1.170 -2.1110  1.3792 -4.6824
  871SOL     OW 2611   3.073   2.268   0.538 -0.6285 -0.1336 -0.3284
  871SOL    HW1 2612   2.996   2.249   0.608 -0.1985  1.7109  1.4788
  871SOL    HW2 2613   3.035   2.323   0.455  1.1342  0.4743 -2.4409
  872SOL     OW 2614   2.083   0.471   1.707  0.1261 -0.5186 -0.2373
  872SOL    HW1 2615   2.051   0.490   1.802  1.5575  0.8531  0.9102
  872SOL    HW2 2616   2.189   0.471   1.711  0.3226 -0.1116  2.2079
  873SOL     OW 2617   1.709   2.089   3.068  0.2022  0.3349  0.1472
  873SOL    HW1 2618   1.618   2.043   3.045  0.0528  1.2805 -0.0855
  873SOL    HW2 2619   1.737   2.155   2.993 -0.5451 -0.3472 -0.9578
  874SOL     OW 2620   0.676   2.486   0.707  0.4049 -0.5002  0.1147
  874SOL    HW1 2621   0.655   2.569   0.766  0.0826  0.7094  2.3505
  874SOL    HW2 2622   0.767   2.442   0.734 -1.5093  2.3318 -0.8299
  875SOL     OW 2623   2.309   1.620   1.399 -1.0079 -0.6210  0.1914
  875SOL    HW1 2624   2.339   1.623   1.498 -0.8304  0.5664  1.1228
  875SOL    HW2 2625   2.380   1.567   1.338 -0.6152  0.5739  0.9571
  876SOL     OW 2626   0.071   2.283   2.630 -0.3014 -0.4972 -0.6040
  876SOL    HW1 2627   0.122   2.191   2.641 -1.7139  1.2507 -0.4119
  876SOL    HW2 2628   0.114   2.367   2.681  2.2445  0.4711  0.4704
  877SOL     OW 2629   2.873   2.631   0.676  0.0851  0.4740 -0.0606
  877SOL    HW1 2630   2.843   2.725   0.705 -1.9785 -0.9580  0.9269
  877SOL    HW2 2631   2.965   2.610   0.728  3.6617  0.1091 -0.9785
  878SOL     OW 2632   2.839   1.617   2.307 -0.2540 -0.1138  0.2091
  878SOL    HW1 2633   2.763   1.672   2.261  1.8108  3.3516 -0.2036
  878SOL    HW2 2634   2.814   1.565   2.395  0.5722 -1.0340 -0.8067
  879SOL     OW 2635   2.482   0.022   1.151 -0.2664  0.2840  0.3128
  879SOL    HW1 2636   2.514  -0.075   1.164  2.2633  2.6554  2.0815
  879SOL    HW2 2637   2.384   0.025   1.126  0.7830 -2.0497  2.0319
  880SOL     OW 2638   0.627   0.537   2.257  0.1812  0.1769 -0.1816
  880SOL    HW1 2639   0.632   0.511   2.355 -0.8316  0.4909 -0.6986
  880SOL    HW2 2640   0.658   0.464   2.193 -0.4367 -0.7193  1.9447
  881SOL     OW 2641   0.827   0.076   0.440  0.6323 -0.1743 -0.8834
  881SOL    HW1 2642   0.867  -0.020   0.446  0.9741  1.0125 -1.8605
  881SOL    HW2 2643   0.726   0.085   0.421  0.5643  3.0470  1.6516
  882SOL     OW 2644   2.735   1.612   1.713  0.1874 -0.4100  0.0022
  882SOL    HW1 2645   2.833   1.593   1.674 -0.7607 -2.1184 -1.0108
  882SOL    HW2 2646   2.725   1.582   1.807  0.0138 -0.0292 -0.5365
  883SOL     OW 2647   0.808   0.506   0.867 -0.6020  0.0424  0.5572
  883SOL    HW1 2648   0.867   0.589   0.877  2.4637 -0.8923  1.1401
  883SOL    HW2 2649   0.756   0.491   0.956  0.2722  3.7824  1.9232
  884SOL     OW 2650   1.196   1.717   1.099  0.2554  0.1545  0.3559
  884SOL    HW1 2651   1.142   1.640   1.059 -0.2073 -4.0747 -1.6868
  884SOL    HW2 2652   1.233   1.779   1.027 -1.1790 -1.5417  1.0157
  885SOL     OW 2653   2.320   1.885   2.276 -0.2833  0.5570 -0.2091
  885SOL    HW1 2654   2.243   1.817   2.301  1.3061 -0.2443  2.4592
  885SOL    HW2 2655   2.284   1.983   2.287 -3.9428  0.5794 -0.1422
  886SOL     OW 2656   2.602   0.353   1.796  0.0955 -0.8352  0.1493
  886SOL    HW1 2657   2.617   0.271   1.862 -1.5428  0.7333  1.9406
  886SOL    HW2 2658   2.692   0.398   1.776  1.5249  1.6834  1.6271
  887SOL     OW 2659   0.127   2.068   1.316  0.1463  0.1522 -0.7837
  887SOL    HW1 2660   0.106   2.004   1.238  2.5417 -0.3963 -3.7167
  887SOL    HW2 2661   0.090   2.165   1.298  0.0403  1.6812  0.7380
  888SOL     OW 2662   0.582   1.237   1.555 -0.0398 -0.2179 -0.3572
  888SOL    HW1 2663   0.588   1.302   1.473  0.0360  0.2917 -3.7713
  888SOL    HW2 2664   0.615   1.139   1.523 -1.7130 -0.1161 -1.7529
  889SOL     OW 2665   0.825   2.442   2.230  0.2236  0.0613  0.2381
  889SOL    HW1 2666   0.725   2.429   2.248 -0.5811 -0.8472  1.7731
  889SOL    HW2 2667   0.867   2.372   2.169 -0.3104  0.3186  2.1998
  890SOL     OW 2668   2.396   2.470   0.286 -0.0984  0.3823 -0.3023
  890SOL    HW1 2669   2.449   2.559   0.298 -1.7317  1.1576 -2.6629
  890SOL    HW2 2670   2.321   2.471   0.356 -1.2493  0.5703  0.7793
  891SOL     OW 2671   2.620   1.702   0.706 -0.2690 -0.4581 -0.1950
  891SOL    HW1 2672   2.636   1.728   0.802  2.5566 -3.0500 -2.8886
  891SOL    HW2 2673   2.533   1.648   0.689  2.8380 -1.5956 -1.2562
  892SOL     OW 2674   0.373   0.316   2.233  0.0492  0.3333 -0.4653
  892SOL    HW1 2675   0.479   0.317   2.248  2.1332  1.3869 -0.0639
  892SOL    HW2 2676   0.345   0.259   2.152  1.6997 -0.6391 -0.4424
  893SOL     OW 2677   1.745   0.265   2.685 -0.2096  0.1470  0.2456
  893SOL    HW1 2678   1.829   0.312   2.716  0.8210  1.3140  0.5400
  893SOL    HW2 2679   1.660   0.320   2.690 -3.5370 -1.8040  0.4244
  894SOL     OW 2680   2.140   2.068   0.105  0.0184 -0.4199  0.0603
  894SOL    HW1 2681   2.113   2.011   0.019  0.9023 -1.5834 -3.4562
  894SOL    HW2 2682   2.182   2.008   0.181  2.2764 -0.9017 -0.3073
  895SOL     OW 2683   2.769   1.439   0.863 -0.5293 -0.2789  0.2507
  895SOL    HW1 2684   2.854   1.379   0.879 -0.5880  1.6400  0.5715
  895SOL    HW2 2685   2.788   1.536   0.885  0.9393  0.7211  1.3320
  896SOL     OW 2686   1.855   1.738   1.258  0.1510  0.3833 -0.5280
  896SOL    HW1 2687   1.959   1.716   1.269  1.1596  0.6438 -0.3743
  896SOL    HW2 2688   1.827   1.712   1.162  1.1506  1.4258  0.4091
  897SOL     OW 2689   0.231   0.555   3.002 -0.5597  0.0771  0.3221
  897SOL    HW1 2690   0.188   0.609   2.926  0.7612  0.6541 -1.5743
  897SOL    HW2 2691   0.329   0.579   3.027  0.2214  1.4245  1.2529
  898SOL     OW 2692   0.670   2.833   1.096 -0.1297 -0.3845 -0.0921
  898SOL    HW1 2693   0.700   2.926   1.137  2.0891  1.0929 -2.2221
  898SOL    HW2 2694   0.690   2.756   1.162 -0.0516  1.2388  1.1154
  899SOL     OW 2695   2.881   0.949   1.351  0.0054  0.4226 -0.6639
  899SOL    HW1 2696   2.877   0.956   1.248 -1.3160  0.5103 -0.7515
  899SOL    HW2 2697   2.974   0.966   1.386  0.3033 -1.5543  2.2031
  900SOL     OW 2698   0.972   2.502   2.470  0.5265 -0.3267  0.2151
  900SOL    HW1 2699   0.932   2.465   2.379  0.6798 -0.3659  1.6777
  900SOL    HW2 2700   0.929   2.457   2.553 -1.1556 -0.8189 -0.7812
  901SOL     OW 2701   1.884   2.377   1.424 -0.0621  0.2911  0.0649
  901SOL    HW1 2702   1.898   2.312   1.348 -0.6688  1.9698  2.0408
  901SOL    HW2 2703   1.969   2.395   1.480  0.3347  1.2968 -0.4082
  902SOL     OW 2704   2.575   1.636   1.508 -0.6398 -0.5597 -0.2356
  902SOL    HW1 2705   2.630   1.595   1.586 -1.4821 -0.2353 -2.2202
  902SOL    HW2 2706   2.618   1.617   1.418 -0.5833 -1.0329  0.2593
  903SOL     OW 2707   0.311   2.373   1.985  0.3953  0.3086 -0.2026
  903SOL    HW1 2708   0.269   2.281   2.015 -2.4372 -0.3649 -0.3942
  903SOL    HW2 2709   0.287   2.401   1.885 -0.1498 -0.5931 -1.2541
  904SOL     OW 2710   1.978   0.826   2.459 -0.1758 -0.1876 -0.1242
  904SOL    HW1 2711   1.901   0.764   2.482  1.2091  2.5726  0.0068
  904SOL    HW2 2712   2.019   0.803   2.367  0.0555 -0.5974  0.3579
  905SOL     OW 2713   2.812   0.113   2.401  0.0091 -0.4823  0.1141
  905SOL    HW1 2714   2.876   0.032   2.409  3.3586  1.9018 -0.6102
  905SOL    HW2 2715   2.862   0.200   2.434  0.6002 -2.9619  1.1500
  906SOL     OW 2716   0.143   1.748   1.907  0.0666  0.0333 -0.5343
  906SOL    HW1 2717   0.066   1.762   1.837  1.6856 -1.4393  0.3269
  906SOL    HW2 2718   0.236   1.734   1.866 -1.2875  0.6037  0.8925
  907SOL     OW 2719   0.229   2.492   0.964 -0.4026 -0.3712 -0.2390
  907SOL    HW1 2720   0.306   2.431   0.926  0.6206  1.0862 -2.1531
  907SOL    HW2 2721   0.251   2.593   0.949  1.0569 -0.1186 -1.1543
  908SOL     OW 2722   2.861   2.973   0.397 -0.1731  0.7683 -0.0022
  908SOL    HW1 2723   2.798   3.033   0.345 -1.5568 -1.3727 -0.4624
  908SOL    HW2 2724   2.905   2.904   0.329 -0.6214  0.8577  1.2235
  909SOL     OW 2725   0.894   1.026   2.653 -0.1961  0.1674  0.9228
  909SOL    HW1 2726   0.842   0.938   2.649 -1.4286 -0.7981  0.4698
  909SOL    HW2 2727   0.946   1.052   2.563  0.0475 -0.6434 -0.5841
  910SOL     OW 2728   1.818   1.875   2.127 -0.0814 -0.0040  0.0249
  910SOL    HW1 2729   1.886   1.894   2.048  1.1884 -3.3457 -2.1625
  910SOL    HW2 2730   1.755   1.952   2.160 -2.6057 -0.7823  0.2436
  911SOL     OW 2731   1.751   2.882   1.540  0.1232  0.4555 -0.4339
  911SOL    HW1 2732   1.836   2.877   1.483 -0.0487  2.7092 -0.2248
  911SOL    HW2 2733   1.740   2.806   1.607  0.4114  1.6350  0.8271
  912SOL     OW 2734   2.855   0.995   0.736  0.5940  0.6718  0.8168
  912SOL    HW1 2735   2.893   1.011   0.830  1.2569  2.0870 -0.0331
  912SOL    HW2 2736   2.775   1.061   0.723 -0.5987 -0.4430  2.9565
  913SOL     OW 2737   2.580   1.269   1.576 -0.5551 -0.2979 -0.3088
  913SOL    HW1 2738   2.609   1.169   1.556 -0.1918 -2.5665 -1.7537
  913SOL    HW2 2739   2.619   1.334   1.505  0.4114 -1.8459 -1.8137
  914SOL     OW 2740   2.875   0.587   1.177 -0.2632  0.7712  0.5965
  914SOL    HW1 2741   2.852   0.488   1.200  0.1558 -2.0613 -1.9541
  914SOL    HW2 2742   2.858   0.651   1.259 -0.1411  1.4781  1.7726
  915SOL     OW 2743   1.202   0.718   0.915  0.1688  0.5871  0.3593
  915SOL    HW1 2744   1.258   0.749   0.999  1.0584  1.3113 -1.4310
  915SOL    HW2 2745   1.100   0.710   0.936 -1.6761 -1.5289 -0.1858
  916SOL     OW 2746   0.605   0.081   0.680  0.8519  0.1313  0.2295
  916SOL    HW1 2747   0.681   0.146   0.688 -1.3826 -1.6403 -2.5700
  916SOL    HW2 2748   0.576   0.060   0.586 -1.9211 -1.1383  1.9330
  917SOL     OW 2749   2.846   2.622   2.036  0.3826 -0.2219  0.3786
  917SOL    HW1 2750   2.757   2.662   1.993  0.1754  2.3437 -1.5028
  917SOL    HW2 2751   2.930   2.638   1.972 -0.6380 -0.0410 -3.3857
  918SOL     OW 2752   1.077   2.093   3.047 -0.1652 -0.2012 -0.2680
  918SOL    HW1 2753   1.050   2.170   3.111 -1.8698 -2.5047  0.4628
  918SOL    HW2 2754   1.149   2.124   2.975  0.6007  3.5051 -0.3050
  919SOL     OW 2755   0.777   1.642   2.788  0.2832 -0.4685  0.2509
  919SOL    HW1 2756   0.850   1.716   2.760  1.7515 -0.0100  1.8246
  919SOL    HW2 2757   0.781   1.557   2.722  0.0249 -1.2229 -0.5647
  920SOL     OW 2758   1.341   1.820   2.467 -0.1627 -0.0388 -0.4410
  920SOL    HW1 2759   1.434   1.825   2.428 -1.1383  0.4200  1.8298
  920SOL    HW2 2760   1.333   1.750   2.539  0.0555  0.6071 -0.7008
  921SOL     OW 2761   1.134   0.103   2.576  0.1628 -0.5674  0.5708
  921SOL    HW1 2762   1.114   0.076   2.477 -2.0284 -3.7175 -1.2464
  921SOL    HW2 2763   1.047   0.107   2.633  3.6073  0.7577  0.8335
  922SOL     OW 2764   2.186   2.464   2.816  0.3745 -0.6808 -0.3108
  922SOL    HW1 2765   2.216   2.367   2.842 -1.2779  1.1470 -1.2288
  922SOL    HW2 2766   2.121   2.459   2.739  0.8897  2.0966  0.0823
  923SOL     OW 2767   1.196   2.698   0.287  0.1984  0.4485 -0.1901
  923SOL    HW1 2768   1.263   2.766   0.333 -1.1649  2.6181 -0.8262
  923SOL    HW2 2769   1.230   2.595   0.295  0.9605  0.0336  4.0346
  924SOL     OW 2770   2.947   1.700   0.144 -0.0508 -0.2584  0.3214
  924SOL    HW1 2771   2.862   1.655   0.107 -0.3140  1.2485 -0.9206
  924SOL    HW2 2772   3.023   1.636   0.161 -0.1957  3.9609 -1.1267
  925SOL     OW 2773   0.023   2.883   1.568  0.3264 -0.5388 -0.6648
  925SOL    HW1 2774  -0.059   2.930   1.607 -1.0827 -1.4725  0.2890
  925SOL    HW2 2775  -0.006   2.812   1.502  3.1391  3.1670  0.7033
  926SOL     OW 2776   1.265   2.761   1.341  0.2318  0.2568  0.4842
  926SOL    HW1 2777   1.293   2.766   1.238  0.7031  0.2555 -0.8023
  926SOL    HW2 2778   1.276   2.858   1.385 -0.1118  2.4877  0.1900
  927SOL     OW 2779   0.354   2.590   1.784 -0.1699  0.0711  0.0611
  927SOL    HW1 2780   0.310   2.537   1.708 -0.5715  0.9420 -0.0467
  927SOL    HW2 2781   0.334   2.693   1.781 -0.4464 -0.6567 -1.8022
  928SOL     OW 2782   1.675   2.076   2.223 -0.2139  0.5644  0.4822
  928SOL    HW1 2783   1.697   2.163   2.163 -0.7646  1.7362 -0.1206
  928SOL    HW2 2784   1.578   2.039   2.213 -0.6820 -1.3048 -1.7023
  929SOL     OW 2785   2.445   2.504   2.891  0.6044 -0.0735 -0.6696
  929SOL    HW1 2786   2.339   2.490   2.891  1.7638  2.3279  2.7222
  929SOL    HW2 2787   2.488   2.496   2.802 -0.1068 -1.5023  0.1994
  930SOL     OW 2788   2.120   2.087   1.082  0.1006 -0.1099 -0.0601
  930SOL    HW1 2789   2.140   2.068   1.181  1.1310  0.2323 -0.3637
  930SOL    HW2 2790   2.094   2.189   1.060  0.6878  0.6703 -0.4637
  931SOL     OW 2791   0.471   1.605   2.628 -0.2814  0.2474 -0.4432
  931SOL    HW1 2792   0.484   1.634   2.729  2.7427  0.9110  0.7873
  931SOL    HW2 2793   0.555   1.568   2.577  0.3115 -1.8657  0.1872
  932SOL     OW 2794   0.354   0.048   3.096  0.0447  0.3868  0.3361
  932SOL    HW1 2795   0.403   0.136   3.063  2.2305  0.9814 -1.8109
  932SOL    HW2 2796   0.356  -0.031   3.025  0.2025  1.7869  0.6585
  933SOL     OW 2797   1.018   0.826   3.004  0.5324 -0.3189  0.3401
  933SOL    HW1 2798   1.042   0.923   3.035 -0.5525 -1.8157  0.1006
  933SOL    HW2 2799   0.927   0.797   3.042 -0.4332  2.8310  0.8438
  934SOL     OW 2800   0.895   2.951   2.629  0.2037 -0.3419  0.1088
  934SOL    HW1 2801   0.867   2.900   2.542  0.9906 -0.5054 -0.2628
  934SOL    HW2 2802   0.934   2.894   2.701 -0.7542 -0.9657 -0.5989
  935SOL     OW 2803   0.008   0.604   0.764  0.1543 -0.7164 -0.0892
  935SOL    HW1 2804  -0.050   0.543   0.703  3.7644  0.6636  3.1341
  935SOL    HW2 2805  -0.044   0.657   0.834  1.1807 -2.3436  2.4880
  936SOL     OW 2806   1.112   2.886   0.087 -0.0001  0.2110 -0.2396
  936SOL    HW1 2807   1.189   2.921   0.027  1.7434 -0.7396  1.5018
  936SOL    HW2 2808   1.143   2.818   0.160 -1.3203  0.2781  0.1991
  937SOL     OW 2809   1.975   2.594   2.081 -0.3276 -0.1500 -0.0255
  937SOL    HW1 2810   1.943   2.642   2.169 -0.3820 -1.9013 -1.6486
  937SOL    HW2 2811   1.958   2.653   1.997 -2.0168  0.0747 -1.7721
  938SOL     OW 2812   2.758   2.112   1.542  0.5042  0.1283  0.7095
  938SOL    HW1 2813   2.703   2.201   1.561  1.5423 -0.6300 -1.6567
  938SOL    HW2 2814   2.847   2.097   1.596  0.9613 -0.2518 -2.1692
  939SOL     OW 2815   2.830   1.179   2.489 -0.2646 -0.7704  0.0242
  939SOL    HW1 2816   2.912   1.140   2.435 -1.2597 -5.5413  2.6633
  939SOL    HW2 2817   2.823   1.137   2.583  1.9394 -0.0874  0.0741
  940SOL     OW 2818   1.054   0.445   2.736  0.0086  0.7295 -0.2100
  940SOL    HW1 2819   1.131   0.377   2.756  0.8317 -1.2311  0.9751
  940SOL    HW2 2820   0.986   0.413   2.659  2.9105  1.2872 -2.0185
  941SOL     OW 2821   0.084   2.809   2.282  0.0107  0.2187  0.0592
  941SOL    HW1 2822   0.123   2.740   2.212 -1.7799 -3.0009  2.2160
  941SOL    HW2 2823   0.162   2.858   2.332 -0.3185  1.8272 -0.0820
  942SOL     OW 2824   0.120   0.058   2.438 -0.6693  0.3236  0.1639
  942SOL    HW1 2825   0.147   0.055   2.537  0.6339  2.1324 -2.2544
  942SOL    HW2 2826   0.097   0.155   2.414  2.0943  0.3662  0.1491
  943SOL     OW 2827   2.143   1.689   2.341  0.3254  0.3045 -0.3301
  943SOL    HW1 2828   2.098   1.655   2.255 -2.6010 -1.2644 -0.8773
  943SOL    HW2 2829   2.142   1.612   2.418 -0.5301 -2.1310 -0.8418
  944SOL     OW 2830   2.194   2.308   1.573 -0.1758  0.2722  0.0693
  944SOL    HW1 2831   2.226   2.329   1.671  0.0591  0.8986  0.7576
  944SOL    HW2 2832   2.141   2.222   1.579 -1.1410  1.3547  1.5310
  945SOL     OW 2833   0.672   1.645   0.182  0.2809 -0.5867 -0.5830
  945SOL    HW1 2834   0.603   1.624   0.110  0.2065  0.0891 -0.4539
  945SOL    HW2 2835   0.722   1.555   0.211 -0.6684 -1.7161  1.0147
  946SOL     OW 2836   0.358   0.993   2.612 -0.4140  0.0922  0.8484
  946SOL    HW1 2837   0.326   0.923   2.541 -0.1646  2.1539 -1.0890
  946SOL    HW2 2838   0.381   1.080   2.564 -0.7238 -2.3469  0.7484
  947SOL     OW 2839   1.463   0.535   3.028  0.0434 -0.1152  0.0254
  947SOL    HW1 2840   1.461   0.619   2.963 -0.3159  0.9964  0.5112
  947SOL    HW2 2841   1.365   0.508   3.058 -0.1897 -1.0009  1.0983
  948SOL     OW 2842   1.968   2.943   2.163 -0.0116  0.2476  0.2130
  948SOL    HW1 2843   1.945   2.909   2.063  0.5357 -2.0442  0.7905
  948SOL    HW2 2844   1.925   2.879   2.232 -2.4803  1.3804  1.2813
  949SOL     OW 2845   0.577   2.487   0.428 -0.3051 -0.2247 -0.3573
  949SOL    HW1 2846   0.538   2.579   0.401  2.0730 -2.8939 -1.5780
  949SOL    HW2 2847   0.584   2.478   0.531  2.0152  1.3305  0.7654
  950SOL     OW 2848   0.205   2.254   2.940 -0.7515  0.3720 -0.5362
  950SOL    HW1 2849   0.165   2.330   2.886 -2.4125  1.1728 -2.4194
  950SOL    HW2 2850   0.225   2.171   2.873  0.1606 -1.3125 -0.4673
  951SOL     OW 2851   1.241   2.669   2.809 -0.9220 -0.2257  0.3680
  951SOL    HW1 2852   1.286   2.582   2.845 -3.2734  1.7450 -1.9936
  951SOL    HW2 2853   1.289   2.705   2.723  1.3212  0.9215 -0.4338
  952SOL     OW 2854   0.034   1.625   0.420  0.0608 -0.3973  0.8164
  952SOL    HW1 2855   0.095   1.710   0.417 -1.2089  1.0933 -3.3056
  952SOL    HW2 2856   0.062   1.548   0.484  3.2416 -2.3993  2.0156
  953SOL     OW 2857   2.488   1.728   0.307  0.4689  0.1305 -0.0979
  953SOL    HW1 2858   2.470   1.626   0.327 -0.3696  1.3859 -0.1184
  953SOL    HW2 2859   2.436   1.763   0.222 -1.2180  1.4395 -2.7786
  954SOL     OW 2860   2.206   0.518   0.931 -0.0388  0.1326  0.0843
  954SOL    HW1 2861   2.238   0.522   0.832  2.2101  0.5487 -1.5946
  954SOL    HW2 2862   2.296   0.517   0.987 -0.5643  0.5530  1.5396
  955SOL     OW 2863   0.182   2.603   1.382 -0.0185 -0.3680  0.0773
  955SOL    HW1 2864   0.085   2.639   1.388 -0.9618 -1.6864  0.4998
  955SOL    HW2 2865   0.257   2.671   1.363  2.6403 -0.7363 -1.1196
  956SOL     OW 2866   2.793   2.508   2.529  0.5049 -0.2792 -0.9010
  956SOL    HW1 2867   2.824   2.409   2.526 -2.4104  0.8846  0.3544
  956SOL    HW2 2868   2.831   2.570   2.453 -0.5719  1.1420 -1.5814
  957SOL     OW 2869   1.628   2.064   2.734 -0.3290  0.5032  0.1445
  957SOL    HW1 2870   1.591   1.977   2.782 -0.4270 -0.3283  0.8891
  957SOL    HW2 2871   1.666   2.040   2.643  0.4671 -3.5289  3.5478
  958SOL     OW 2872   2.608   2.269   3.039  0.3952 -0.0029  0.0537
  958SOL    HW1 2873   2.511   2.305   3.016 -2.0952  1.3242 -0.6191
  958SOL    HW2 2874   2.604   2.204   3.121 -1.2433  3.1713 -1.1252
  959SOL     OW 2875   0.392   2.810   0.130  0.3370 -0.2322  0.2876
  959SOL    HW1 2876   0.317   2.860   0.176 -0.0045  1.9723 -0.8164
  959SOL    HW2 2877   0.395   2.705   0.142 -0.1176  1.9294  0.0452
  960SOL     OW 2878   1.907   0.516   1.929 -0.2444 -0.3480  0.2650
  960SOL    HW1 2879   1.843   0.594   1.906 -1.0551  1.6105  1.5680
  960SOL    HW2 2880   1.918   0.506   2.034  0.4899 -0.2386 -0.7075
  961SOL     OW 2881   2.508   1.898   1.065  0.2569  0.0371  0.1437
  961SOL    HW1 2882   2.531   1.998   1.045  1.2401 -0.9658 -1.0491
  961SOL    HW2 2883   2.482   1.881   1.164 -1.1483 -0.8750  1.4028
  962SOL     OW 2884   1.315   0.912   0.040 -0.1341 -0.6104 -0.1313
  962SOL    HW1 2885   1.282   0.944  -0.053 -0.7555  1.8342  0.8853
  962SOL    HW2 2886   1.267   0.962   0.123 -2.9020  0.6237  2.2707
  963SOL     OW 2887   2.319   2.582   1.825  0.4393  0.0709 -0.3687
  963SOL    HW1 2888   2.293   2.482   1.837  0.4993  0.5261  2.0517
  963SOL    HW2 2889   2.339   2.630   1.916  0.8117  0.8674  1.2504
  964SOL     OW 2890   2.368   0.420   1.667  0.4871  0.5939 -0.4066
  964SOL    HW1 2891   2.459   0.403   1.715  2.2887 -1.5112  1.5703
  964SOL    HW2 2892   2.367   0.398   1.569  1.6927  0.6098 -0.1669
  965SOL     OW 2893   2.635   3.007   0.196 -0.1722  0.1818 -0.8413
  965SOL    HW1 2894   2.706   2.993   0.122  0.4185  1.2680 -0.0490
  965SOL    HW2 2895   2.554   3.053   0.153 -0.1232  0.2060 -1.5904
  966SOL     OW 2896   2.475   2.494   2.244 -0.5290  0.3357  0.2000
  966SOL    HW1 2897   2.504   2.586   2.208 -0.7857 -1.3890  0.5883
  966SOL    HW2 2898   2.376   2.479   2.226 -0.3576  0.1394 -1.2241
  967SOL     OW 2899   2.745   2.827   2.476 -0.0142  0.5612 -0.2851
  967SOL    HW1 2900   2.814   2.751   2.448  0.7516  1.8679 -2.1843
  967SOL    HW2 2901   2.791   2.921   2.474 -3.1508  0.0390 -1.8104
  968SOL     OW 2902   1.974   1.056   2.580  0.1137  0.1266  0.0147
  968SOL    HW1 2903   1.881   1.108   2.579 -1.7998 -0.6028  2.5834
  968SOL    HW2 2904   1.979   0.964   2.523  2.7182 -3.2081  0.4452
  969SOL     OW 2905   2.746   2.562   1.049  1.1020 -0.2930 -0.0481
  969SOL    HW1 2906   2.745   2.653   1.003  1.0200 -2.2393 -0.0207
  969SOL    HW2 2907   2.728   2.480   0.985 -1.6041 -1.3925  0.1885
  970SOL     OW 2908   1.074   2.112   1.854  0.2543  0.0823 -0.4190
  970SOL    HW1 2909   1.052   2.047   1.933 -0.5837 -1.7818 -0.0459
  970SOL    HW2 2910   1.031   2.084   1.763 -2.4076  0.9931  0.8926
  971SOL     OW 2911   2.911   2.182   1.949 -0.5496 -0.1799 -0.4512
  971SOL    HW1 2912   2.946   2.259   2.008  0.1803 -1.2304  0.2576
  971SOL    HW2 2913   2.929   2.190   1.850  0.3717 -0.4957  0.7135
  972SOL     OW 2914   1.886   2.448   0.247  0.2613  0.3485 -0.4931
  972SOL    HW1 2915   1.918   2.352   0.209 -1.5731  0.8415  0.9937
  972SOL    HW2 2916   1.897   2.460   0.348  4.7628 -1.4402 -0.2732
  973SOL     OW 2917   1.150   0.911   1.884  0.3525  0.3729 -0.0718
  973SOL    HW1 2918   1.094   0.832   1.919 -1.4790  0.4416  0.9711
  973SOL    HW2 2919   1.085   0.968   1.824 -0.6730 -2.5878  0.2074
  974SOL     OW 2920   1.587   0.567   1.968  0.5310  0.5289 -0.0761
  974SOL    HW1 2921   1.649   0.644   1.931 -0.6217  1.9560 -0.7556
  974SOL    HW2 2922   1.501   0.551   1.912 -0.4628 -1.9893  0.2411
  975SOL     OW 2923   2.364   3.023   0.036  0.3582  0.2917 -0.2043
  975SOL    HW1 2924   2.306   2.946   0.076 -1.2138  0.3574 -1.4907
  975SOL    HW2 2925   2.406   2.991  -0.049 -1.6659 -0.0728  0.1169
  976SOL     OW 2926   1.913   2.720   2.333  0.0277 -0.4943  0.3917
  976SOL    HW1 2927   1.829   2.695   2.391 -0.1289  0.4514  2.1386
  976SOL    HW2 2928   1.989   2.750   2.400  1.1499 -0.6966  1.8786
  977SOL     OW 2929   0.479   0.687   0.986 -0.4078 -0.1954  0.5539
  977SOL    HW1 2930   0.401   0.696   0.913 -2.6095  0.8665 -0.2955
  977SOL    HW2 2931   0.549   0.769   0.984 -0.6309 -0.2717 -0.2720
   3.10000   3.10000   3.10000
