1000 SPC/Fw water molecules t=   1.01000 step= 1010
 2931
    1SOL     OW    1   2.575   0.326   2.648  0.4754  1.0605 -0.2484
    1SOL    HW1    2   2.547   0.228   2.661 -0.5615  0.4530  1.2558
    1SOL    HW2    3   2.615   0.370   2.730  2.1862 -1.0382 -0.8144
    2SOL     OW    4   2.700   3.046   1.423  0.1859  0.0072 -0.1795
    2SOL    HW1    5   2.769   3.066   1.352 -1.7633  1.5522 -1.0794
    2SOL    HW2    6   2.678   3.129   1.481  0.7978  0.0838  0.5226
    3SOL     OW    7   2.670   2.633   0.443 -0.9187  0.2376 -0.6569
    3SOL    HW1    8   2.658   2.531   0.456 -2.8202 -0.5498  1.4048
    3SOL    HW2    9   2.759   2.669   0.490  2.3053 -0.5240 -0.1876
    4SOL     OW   10   1.228   1.543   2.312 -0.2420  0.1908 -0.0895
    4SOL    HW1   11   1.152   1.566   2.247 -0.8867  0.7766 -1.2921
    4SOL    HW2   12   1.215   1.451   2.349  3.1581  0.0611 -1.8625
    5SOL     OW   13   1.163   1.493   3.071 -0.0380  0.6801 -0.1478
    5SOL    HW1   14   1.234   1.559   3.110 -0.9814 -1.7195  1.1522
    5SOL    HW2   15   1.067   1.523   3.099 -1.2032 -0.0738  1.1429
    6SOL     OW   16   0.157   1.761   2.978  0.8956 -0.4978  0.1954
    6SOL    HW1   17   0.072   1.786   3.032 -3.3837 -2.5133  0.2730
    6SOL    HW2   18   0.240   1.720   3.031  0.3615 -2.1576  0.3673
    7SOL     OW   19   2.591   0.902   1.085  0.1548 -0.1297  0.2259
    7SOL    HW1   20   2.492   0.884   1.109 -1.0870  2.3069  2.2957
    7SOL    HW2   21   2.606   0.898   0.981 -1.4818 -1.8354 -2.2871
    8SOL     OW   22   0.392   0.664   1.534  0.2900  0.0109 -0.2127
    8SOL    HW1   23   0.472   0.609   1.576 -0.5249  0.6160  1.3004
    8SOL    HW2   24   0.382   0.633   1.434  0.4022 -2.2334 -1.9525
    9SOL     OW   25   1.189   0.889   2.417  0.0932 -0.1364  0.4254
    9SOL    HW1   26   1.197   0.915   2.316 -0.0155 -1.9395 -2.5880
    9SOL    HW2   27   1.142   0.797   2.424 -1.5260 -2.9852  1.6920
   10SOL     OW   28   0.671   1.367   1.291  0.0331 -0.0384  0.5248
   10SOL    HW1   29   0.572   1.378   1.261  4.3963  1.6631 -2.1993
   10SOL    HW2   30   0.723   1.461   1.300 -0.4696  1.4274  2.0755
   11SOL     OW   31   2.310   2.801   0.839 -0.0600  0.0964  0.4254
   11SOL    HW1   32   2.287   2.823   0.937  0.1864 -0.7277 -0.8148
   11SOL    HW2   33   2.410   2.796   0.814 -3.1964  2.1052  0.1760
   12SOL     OW   34   1.497   0.907   0.338  0.2140  0.3428  0.4323
   12SOL    HW1   35   1.433   0.948   0.268  2.0895  1.7901 -2.0652
   12SOL    HW2   36   1.532   0.814   0.310  0.9693 -0.2506  0.1255
   13SOL     OW   37   2.501   0.726   1.764 -0.3466  0.0313  0.4521
   13SOL    HW1   38   2.418   0.690   1.818  0.4468 -2.0443 -1.6132
   13SOL    HW2   39   2.495   0.693   1.662 -0.1666  2.9517 -1.7040
   14SOL     OW   40   1.883   0.108   0.678 -0.4263 -0.1770 -0.0889
   14SOL    HW1   41   1.813   0.114   0.602 -0.7088  0.0159 -0.6886
   14SOL    HW2   42   1.860   0.039   0.752  0.5527  1.7355 -0.0198
   15SOL     OW   43   1.964   2.101   2.720 -0.4028  0.2348 -0.0549
   15SOL    HW1   44   1.897   2.177   2.716  0.1306 -0.7917  1.5099
   15SOL    HW2   45   1.945   2.023   2.654 -1.9987 -1.2333  1.5295
   16SOL     OW   46   1.615   1.708   2.974  0.1827 -0.0623  0.0714
   16SOL    HW1   47   1.604   1.630   3.037 -0.4008 -0.2325 -1.6458
   16SOL    HW2   48   1.710   1.746   2.977 -1.2070 -3.0923 -2.3087
   17SOL     OW   49   0.115   0.481   0.168  0.0181 -0.3047 -0.3887
   17SOL    HW1   50   0.208   0.518   0.124  0.3188 -1.0105 -1.6431
   17SOL    HW2   51   0.040   0.497   0.100  1.8876 -2.5634 -0.1716
   18SOL     OW   52   0.953   2.897   2.151 -0.5431  0.4274  0.0479
   18SOL    HW1   53   0.868   2.834   2.155 -0.0267  1.7914 -0.0357
   18SOL    HW2   54   1.015   2.884   2.073  3.7234 -0.1303  1.5067
   19SOL     OW   55   0.554   0.836   1.893 -0.1190 -0.0629 -0.2945
   19SOL    HW1   56   0.598   0.795   1.974  0.9527 -1.4167 -1.1268
   19SOL    HW2   57   0.628   0.896   1.849 -0.8610  0.0180  3.2469
   20SOL     OW   58   0.178   2.731   0.831  0.0908  1.3218  0.3922
   20SOL    HW1   59   0.092   2.773   0.787 -1.3519 -0.5141  0.5168
   20SOL    HW2   60   0.239   2.678   0.762 -1.4989 -1.2659  1.2801
   21SOL     OW   61   2.719   0.264   2.046  0.2496  0.3171 -0.2981
   21SOL    HW1   62   2.661   0.210   1.980  1.6217  0.0179  2.2175
   21SOL    HW2   63   2.798   0.213   2.084  2.0767  2.3424 -1.2725
   22SOL     OW   64   2.357   0.274   0.156 -0.1243 -0.2102 -0.4841
   22SOL    HW1   65   2.365   0.171   0.125  0.2343  0.0210  0.6617
   22SOL    HW2   66   2.265   0.312   0.129 -0.2577 -1.2906 -0.0342
   23SOL     OW   67   2.786   0.590   0.616 -0.0236 -0.6661 -0.5575
   23SOL    HW1   68   2.813   0.495   0.646 -4.4419  1.7524  1.6747
   23SOL    HW2   69   2.751   0.598   0.516  1.3241  0.1574  0.6502
   24SOL     OW   70   0.195   1.914   0.391 -0.3714  0.3726 -0.1240
   24SOL    HW1   71   0.150   1.985   0.319  0.6655  0.6410  1.1357
   24SOL    HW2   72   0.291   1.891   0.359 -1.4829  0.0714  0.0979
   25SOL     OW   73   2.233   0.607   0.230  0.4846 -0.2933  0.1587
   25SOL    HW1   74   2.259   0.611   0.125 -1.7433 -0.6664 -1.1552
   25SOL    HW2   75   2.303   0.557   0.282 -1.3034  2.1798 -1.3892
   26SOL     OW   76   2.497   2.137   2.071  0.1389  0.3243 -0.4141
   26SOL    HW1   77   2.577   2.184   2.115 -3.3803  0.4474  0.0569
   26SOL    HW2   78   2.527   2.083   1.991 -0.7311  1.3630  3.2538
   27SOL     OW   79   0.585   2.911   0.204 -0.0269 -0.1557  0.2325
   27SOL    HW1   80   0.690   2.930   0.192  0.8623 -0.7582 -0.6055
   27SOL    HW2   81   0.542   2.904   0.110 -0.9948 -0.0425  0.6433
   28SOL     OW   82   1.564   0.205   0.287 -0.3026 -0.0176  0.0047
   28SOL    HW1   83   1.629   0.172   0.211 -1.8614 -1.7976 -2.5427
   28SOL    HW2   84   1.584   0.306   0.314  1.2792 -1.1530  0.9323
   29SOL     OW   85   1.974   0.627   0.369 -0.3320 -0.6779 -0.3347
   29SOL    HW1   86   1.971   0.697   0.446  2.9758  0.9413 -2.2135
   29SOL    HW2   87   2.061   0.643   0.308  0.8676  0.2318 -0.5737
   30SOL     OW   88   0.161   1.968   0.904  0.0139 -0.2906  0.7901
   30SOL    HW1   89   0.120   1.938   0.816 -0.5294 -0.2986  1.0950
   30SOL    HW2   90   0.103   2.032   0.963  3.0473 -1.2133  1.5629
   31SOL     OW   91   2.128   3.082   2.364  0.3007 -0.1739 -0.0472
   31SOL    HW1   92   2.084   3.101   2.453  3.3813 -0.0874  0.6795
   31SOL    HW2   93   2.061   3.066   2.287 -1.1245  1.2173 -0.5583
   32SOL     OW   94   2.978   0.026   0.244  0.2969 -0.1337  0.4977
   32SOL    HW1   95   2.988  -0.071   0.206  3.4234 -1.6148 -0.5904
   32SOL    HW2   96   3.053   0.087   0.209 -1.8635 -3.5086 -1.5904
   33SOL     OW   97   0.917   0.319   0.579 -0.4921  0.5990  0.2367
   33SOL    HW1   98   0.896   0.227   0.533  0.2112 -1.2624 -0.0066
   33SOL    HW2   99   1.011   0.326   0.615 -0.5370  0.7086 -0.5405
   34SOL     OW  100   0.334   2.759   1.092 -0.1240 -0.0535 -0.0318
   34SOL    HW1  101   0.289   2.752   0.999  2.8999  2.0807 -1.6411
   34SOL    HW2  102   0.421   2.807   1.084  1.3080 -2.9996  0.5087
   35SOL     OW  103   0.036   0.082   1.898  0.1614  0.2901 -0.1663
   35SOL    HW1  104   0.035  -0.021   1.887 -0.3915 -1.3013 -1.5514
   35SOL    HW2  105  -0.012   0.134   1.822 -1.6580  1.8425 -0.5950
   36SOL     OW  106   1.931   1.304   1.696  0.2616  0.9344 -0.4060
   36SOL    HW1  107   1.983   1.212   1.701 -0.2842  1.6495 -0.0017
   36SOL    HW2  108   1.959   1.374   1.627 -0.1947 -0.7905 -1.9249
   37SOL     OW  109   1.178   0.224   0.987  0.1528 -0.1593 -0.0609
   37SOL    HW1  110   1.232   0.304   1.034  1.9999  0.9657  0.1041
   37SOL    HW2  111   1.243   0.146   0.956  0.7539 -0.0391  0.1041
   38SOL     OW  112   1.102   2.860   2.477  0.6215  0.4011 -0.2754
   38SOL    HW1  113   1.079   2.768   2.430 -0.1690 -0.6878 -3.3300
   38SOL    HW2  114   1.055   2.942   2.431  3.5900 -0.8545  0.2527
   39SOL     OW  115   2.304   1.461   3.066  0.3830  0.2563 -0.1489
   39SOL    HW1  116   2.359   1.376   3.074 -2.6162  1.2876 -1.0104
   39SOL    HW2  117   2.250   1.478   3.152  0.1984 -0.0949 -1.6106
   40SOL     OW  118   2.012   2.434   2.549 -0.2124 -0.1048  0.4187
   40SOL    HW1  119   2.005   2.539   2.537  0.8790  1.2284  0.1752
   40SOL    HW2  120   1.944   2.376   2.493  0.9132  0.2031 -0.4736
   41SOL     OW  121   3.036   0.695   2.814 -0.4186 -0.2620 -0.4615
   41SOL    HW1  122   2.993   0.775   2.759 -0.5131  2.6721 -1.8508
   41SOL    HW2  123   2.986   0.603   2.797  1.0398 -1.8399 -0.1513
   42SOL     OW  124   1.785   1.777   0.518 -0.1501  0.9787  0.3211
   42SOL    HW1  125   1.736   1.687   0.497 -1.5896 -2.1992 -0.8498
   42SOL    HW2  126   1.813   1.819   0.429  0.8349  1.1447 -0.1196
   43SOL     OW  127   0.431   1.675   1.134 -0.5092  0.2848 -0.2639
   43SOL    HW1  128   0.428   1.571   1.147 -0.2489 -2.9802  2.4071
   43SOL    HW2  129   0.335   1.716   1.122  2.2470  0.1241  3.1009
   44SOL     OW  130   1.747   2.447   3.015 -0.0775 -0.7168 -0.2701
   44SOL    HW1  131   1.688   2.529   3.004  1.6815 -3.2197 -1.2511
   44SOL    HW2  132   1.739   2.387   2.931  3.3386  0.4637  0.2712
   45SOL     OW  133   0.375   1.895   2.620 -0.1544 -0.6695 -0.2726
   45SOL    HW1  134   0.367   1.905   2.518 -0.3932  0.9203 -0.8416
   45SOL    HW2  135   0.439   1.816   2.653  0.2304 -1.0797  0.9223
   46SOL     OW  136   1.222   0.636   0.150 -0.1854 -0.6550 -0.3839
   46SOL    HW1  137   1.278   0.719   0.130 -0.0366 -1.7760  1.1460
   46SOL    HW2  138   1.159   0.642   0.233 -0.6979 -1.9545 -2.0193
   47SOL     OW  139   0.198   2.523   1.552  0.1222  0.5517  0.1121
   47SOL    HW1  140   0.148   2.434   1.558  0.6309  4.6132  1.3386
   47SOL    HW2  141   0.201   2.570   1.457 -1.9806  0.0255 -0.8259
   48SOL     OW  142   2.631   0.627   0.144 -0.0098  0.2510  0.3047
   48SOL    HW1  143   2.651   0.576   0.231  0.6149 -2.2131 -0.4769
   48SOL    HW2  144   2.712   0.684   0.110 -0.5355  0.2008  2.3986
   49SOL     OW  145   0.312   0.769   1.771  0.6929 -0.7591 -0.2284
   49SOL    HW1  146   0.401   0.801   1.817  0.8625  0.2976 -1.1110
   49SOL    HW2  147   0.327   0.726   1.678  1.0957  0.2634  0.3505
   50SOL     OW  148   1.673   1.123   0.339 -0.2636 -0.5000  0.0574
   50SOL    HW1  149   1.631   1.032   0.307 -0.2334  1.9116 -0.9500
   50SOL    HW2  150   1.656   1.154   0.437  0.2520  0.6653 -2.0962
   51SOL     OW  151   2.891   1.780   0.244  0.5839 -0.1577  0.1027
   51SOL    HW1  152   2.877   1.685   0.212  0.1493  3.8894 -3.9469
   51SOL    HW2  153   2.968   1.794   0.316  0.7602  1.3319  0.7617
   52SOL     OW  154   0.799   2.048   0.529  0.1346  0.5676  0.3404
   52SOL    HW1  155   0.703   2.076   0.552  3.2480 -1.0274 -1.9904
   52SOL    HW2  156   0.837   1.969   0.588  0.0857  2.0047  3.0107
   53SOL     OW  157   0.187   0.418   1.599 -0.3008  0.1341 -0.0496
   53SOL    HW1  158   0.269   0.480   1.595  1.3788 -2.1280  0.5860
   53SOL    HW2  159   0.111   0.467   1.550  1.7104  2.1728  0.5342
   54SOL     OW  160   1.807   0.523   3.093  0.5374  0.2829 -0.1677
   54SOL    HW1  161   1.863   0.472   3.170 -2.2516 -1.3087  0.1770
   54SOL    HW2  162   1.707   0.501   3.111  0.7044 -1.0039  3.4695
   55SOL     OW  163   0.747   2.901   0.685  0.1152  0.8720  0.3169
   55SOL    HW1  164   0.705   3.000   0.679  0.4404  0.1404  0.3838
   55SOL    HW2  165   0.840   2.897   0.633 -2.5501 -1.5117 -4.2356
   56SOL     OW  166   0.580   1.564   0.026  0.2873 -0.1047  0.2777
   56SOL    HW1  167   0.481   1.601   0.038 -0.2917  1.4893 -3.7014
   56SOL    HW2  168   0.580   1.471  -0.019  0.4544  2.7816  1.1537
   57SOL     OW  169   1.750   2.532   2.405 -0.2636  0.0478 -0.3134
   57SOL    HW1  170   1.794   2.440   2.378  1.9960 -2.7032  0.2174
   57SOL    HW2  171   1.662   2.530   2.457  2.3613  0.9000 -3.2419
   58SOL     OW  172   0.691   0.281   1.067  0.2874 -0.3840  0.0965
   58SOL    HW1  173   0.613   0.308   1.119 -0.2962  0.8296 -1.2778
   58SOL    HW2  174   0.681   0.184   1.037  0.9939 -2.1620  2.6518
   59SOL     OW  175   0.421   2.357   2.729 -0.9543 -0.6167  0.0136
   59SOL    HW1  176   0.465   2.265   2.700  2.5640 -2.2998  0.8953
   59SOL    HW2  177   0.480   2.406   2.794  0.0722 -0.6779 -2.0972
   60SOL     OW  178   2.307   2.069   2.249  0.3897  0.2822  0.4660
   60SOL    HW1  179   2.378   2.101   2.182 -1.6952 -0.3210 -0.1649
   60SOL    HW2  180   2.310   2.099   2.343 -1.7021 -2.0862 -1.2992
   61SOL     OW  181   1.326   0.661   0.454 -0.1768 -0.1956 -0.3170
   61SOL    HW1  182   1.234   0.704   0.484  1.7483  2.2648 -2.2917
   61SOL    HW2  183   1.335   0.644   0.350 -2.0945 -1.5833 -2.6043
   62SOL     OW  184   2.705   1.825   2.938 -0.2100  0.2406 -0.0477
   62SOL    HW1  185   2.665   1.758   2.874  0.6933  3.5333 -0.8459
   62SOL    HW2  186   2.806   1.803   2.952 -1.0906 -2.9785  0.0963
   63SOL     OW  187   0.528   0.812   0.196 -0.7168  0.0414  0.1794
   63SOL    HW1  188   0.576   0.901   0.165  2.3330  0.2498 -0.9546
   63SOL    HW2  189   0.529   0.797   0.301  0.2622 -2.3922  0.7442
   64SOL     OW  190   0.077   0.439   2.469  0.3137 -0.2832  0.2974
   64SOL    HW1  191   0.146   0.465   2.537 -3.9963 -1.3130 -0.4320
   64SOL    HW2  192   0.018   0.513   2.431  0.6161 -2.3021 -0.5941
   65SOL     OW  193   0.132   1.520   0.586  0.3861  0.1356  0.8190
   65SOL    HW1  194   0.149   1.576   0.668 -2.8841  0.0038 -0.5892
   65SOL    HW2  195   0.215   1.496   0.536  1.2930 -0.0650  0.7513
   66SOL     OW  196   2.551   0.364   0.589 -0.1500  0.2392 -0.3837
   66SOL    HW1  197   2.647   0.373   0.630 -0.2458 -0.1981  1.5350
   66SOL    HW2  198   2.477   0.321   0.648  0.8213 -2.4690  0.3641
   67SOL     OW  199   0.561   2.526   1.426 -0.0840  0.3077  0.3189
   67SOL    HW1  200   0.643   2.501   1.485 -0.5645 -2.2565 -0.1207
   67SOL    HW2  201   0.509   2.441   1.404 -1.9110  0.6461  2.0370
   68SOL     OW  202   1.017   1.099   2.487 -0.0577  0.3425  0.2470
   68SOL    HW1  203   1.086   1.024   2.462 -3.7559 -1.3653  1.1445
   68SOL    HW2  204   0.950   1.124   2.412  1.3319  0.8910  3.1834
   69SOL     OW  205   0.731   2.747   2.135  0.2100  0.6711  0.1290
   69SOL    HW1  206   0.746   2.654   2.109  0.7273  1.4213  2.2252
   69SOL    HW2  207   0.629   2.770   2.138 -1.3369  0.6637  1.1342
   70SOL     OW  208   0.491   0.237   2.666 -0.3181 -0.3317 -0.4739
   70SOL    HW1  209   0.394   0.236   2.703 -2.4047 -1.3458 -0.8595
   70SOL    HW2  210   0.537   0.145   2.663 -1.4003  0.3112  0.4896
   71SOL     OW  211   1.110   1.770   0.446  0.3213  0.1267  0.0396
   71SOL    HW1  212   1.068   1.697   0.509 -2.1562 -3.2478 -1.2969
   71SOL    HW2  213   1.062   1.773   0.358  4.3099 -1.7982  1.7029
   72SOL     OW  214   1.815   0.208   2.139  0.1315  0.2392 -0.0250
   72SOL    HW1  215   1.893   0.270   2.128 -2.4739 -2.6132 -1.0388
   72SOL    HW2  216   1.851   0.105   2.152 -0.2144  0.0689  0.7212
   73SOL     OW  217   2.812   2.175   2.404  0.0096  0.3363 -0.0317
   73SOL    HW1  218   2.791   2.079   2.365 -0.6418  0.5061 -1.0458
   73SOL    HW2  219   2.849   2.168   2.497  2.5526  0.5459 -0.5014
   74SOL     OW  220   2.694   2.867   2.140 -0.2708 -0.5676  0.2642
   74SOL    HW1  221   2.667   2.796   2.202 -0.2088  1.0759 -0.6522
   74SOL    HW2  222   2.796   2.900   2.145 -1.2169 -1.4012 -1.7530
   75SOL     OW  223   0.954   0.849   1.097 -0.1012  0.4038  0.0263
   75SOL    HW1  224   0.869   0.895   1.054 -0.4766 -0.3547 -2.8911
   75SOL    HW2  225   0.975   0.879   1.194  3.2138  0.9679 -0.7852
   76SOL     OW  226   1.729   1.195   2.507 -0.2496  0.3080  0.0628
   76SOL    HW1  227   1.629   1.171   2.496 -1.2120 -2.8128 -0.1440
   76SOL    HW2  228   1.748   1.294   2.544  0.7760  1.7439  0.0755
   77SOL     OW  229   2.941   0.940   0.975 -0.2872 -0.0853  0.4723
   77SOL    HW1  230   2.950   0.836   0.974 -2.9172 -0.7309 -1.0480
   77SOL    HW2  231   2.973   0.975   1.065  1.1801 -1.1235  1.3717
   78SOL     OW  232   2.007   1.469   1.456 -0.1770 -0.2003 -0.0419
   78SOL    HW1  233   2.099   1.515   1.447  0.2761  2.9296 -1.1154
   78SOL    HW2  234   1.954   1.463   1.367 -1.2106 -2.7988 -0.1491
   79SOL     OW  235   0.617   1.376   0.815 -0.4424  0.2741 -0.9711
   79SOL    HW1  236   0.511   1.385   0.837  0.6567 -3.2116  1.4654
   79SOL    HW2  237   0.638   1.354   0.716 -2.6305  0.7462  0.2799
   80SOL     OW  238   0.621   0.494   1.565  0.1825  0.5742 -0.0120
   80SOL    HW1  239   0.667   0.560   1.499  0.2135 -1.4127  0.0116
   80SOL    HW2  240   0.655   0.397   1.555 -0.2608 -1.5624 -0.3336
   81SOL     OW  241   1.027   1.345   2.631  0.1478 -0.2381 -0.0472
   81SOL    HW1  242   1.049   1.245   2.634 -1.3438 -0.1305 -2.6375
   81SOL    HW2  243   0.954   1.379   2.565  0.3435  0.2271  0.0509
   82SOL     OW  244   0.974   2.999   1.524 -0.1943  0.3679  0.6879
   82SOL    HW1  245   0.883   3.014   1.481 -0.5503 -0.9633  3.5044
   82SOL    HW2  246   1.044   2.961   1.456 -0.1475 -1.0066 -0.2206
   83SOL     OW  247   2.662   2.403   0.829 -0.7751 -0.3340 -0.0348
   83SOL    HW1  248   2.594   2.354   0.774 -0.1992 -1.1793  0.9846
   83SOL    HW2  249   2.653   2.507   0.809 -0.2848  1.3446  0.0590
   84SOL     OW  250   0.641   3.052   2.332 -0.3976  0.1269 -0.4494
   84SOL    HW1  251   0.542   3.049   2.349  2.3466  1.3936 -1.0977
   84SOL    HW2  252   0.683   2.969   2.381  0.9525  1.0963 -0.3392
   85SOL     OW  253   0.280   1.602   1.463  0.0148 -0.0160 -0.4456
   85SOL    HW1  254   0.276   1.706   1.460 -3.7057 -2.6163 -2.7014
   85SOL    HW2  255   0.341   1.558   1.535  1.0393  0.4853 -1.7957
   86SOL     OW  256   0.421   0.997   1.543  0.5042  0.0163 -0.3436
   86SOL    HW1  257   0.386   0.944   1.458 -0.9041 -2.0396 -0.6930
   86SOL    HW2  258   0.508   0.960   1.584  2.2305  2.2866  1.4274
   87SOL     OW  259   1.567   0.657   0.201  0.0946  0.1476 -0.0611
   87SOL    HW1  260   1.651   0.723   0.195  2.7296  0.7350  0.5670
   87SOL    HW2  261   1.569   0.584   0.123 -0.6622 -1.3055  0.3029
   88SOL     OW  262   1.579   1.374   0.272 -0.2099 -0.1796  0.3159
   88SOL    HW1  263   1.621   1.279   0.291 -0.1181 -1.3846 -1.1338
   88SOL    HW2  264   1.475   1.372   0.276 -1.0508 -1.8782  0.8865
   89SOL     OW  265   3.080   0.463   0.593 -0.0241  0.0195  0.2570
   89SOL    HW1  266   3.136   0.400   0.535 -0.1681  1.5227 -1.6986
   89SOL    HW2  267   2.993   0.419   0.614 -0.4609 -2.0596  2.4816
   90SOL     OW  268   0.908   1.572   0.092  0.2086  0.1395 -0.0822
   90SOL    HW1  269   0.874   1.527   0.179 -0.2174  1.3989 -0.5246
   90SOL    HW2  270   0.834   1.583   0.022 -0.6261 -0.7055  0.0782
   91SOL     OW  271   1.236   1.454   1.833 -0.6317  0.2049 -0.4081
   91SOL    HW1  272   1.218   1.543   1.879  0.3988 -0.1922 -3.6802
   91SOL    HW2  273   1.329   1.461   1.785 -0.3609  0.1885  0.8608
   92SOL     OW  274   3.070   0.943   1.234 -0.1864 -0.6211  0.1417
   92SOL    HW1  275   3.125   1.018   1.189 -1.9156  1.0165  0.7835
   92SOL    HW2  276   3.072   0.956   1.338 -0.4684  0.3347  0.6794
   93SOL     OW  277   0.019   2.741   3.084 -0.0374  0.0816  0.6039
   93SOL    HW1  278  -0.051   2.733   3.008  0.7505  0.4111  0.2739
   93SOL    HW2  279   0.039   2.655   3.138 -1.7046  1.3410  0.9251
   94SOL     OW  280   1.506   1.453   1.760  0.6460 -0.0291  0.6140
   94SOL    HW1  281   1.571   1.372   1.750  1.2150  0.0211  2.8654
   94SOL    HW2  282   1.525   1.522   1.832 -0.6496 -1.8025 -0.2444
   95SOL     OW  283   1.427   2.512   3.003 -0.0509  0.0057  0.6798
   95SOL    HW1  284   1.323   2.528   3.025 -0.2741  0.1805 -0.5268
   95SOL    HW2  285   1.437   2.419   2.961 -0.5531  2.8275 -2.0376
   96SOL     OW  286   0.553   2.105   1.251  0.2603 -0.4000  0.4731
   96SOL    HW1  287   0.506   2.066   1.168 -0.2672 -2.7111  1.7240
   96SOL    HW2  288   0.605   2.037   1.306 -0.3679  1.1313 -0.3726
   97SOL     OW  289   0.427   1.652   2.434 -1.2516 -0.2348 -0.0498
   97SOL    HW1  290   0.327   1.645   2.439 -0.6656 -1.0580 -2.4580
   97SOL    HW2  291   0.468   1.655   2.529 -0.5500 -1.5651  2.3964
   98SOL     OW  292   2.032   1.649   1.186 -0.2537  0.5087 -0.5511
   98SOL    HW1  293   1.948   1.585   1.185 -2.4680 -1.6006 -1.8089
   98SOL    HW2  294   2.119   1.597   1.154  0.8841 -0.8522 -0.2139
   99SOL     OW  295   2.510   2.025   1.305  0.3119  0.0114 -0.1885
   99SOL    HW1  296   2.509   2.058   1.404  0.7658  1.4125 -0.3604
   99SOL    HW2  297   2.469   1.928   1.295 -0.7649 -0.3076  2.3006
  100SOL     OW  298   2.366   0.338   2.096 -0.3087  0.5722 -0.2985
  100SOL    HW1  299   2.284   0.307   2.158 -3.3172  0.3531 -3.0187
  100SOL    HW2  300   2.433   0.402   2.145  1.1817 -0.0972 -3.4391
  101SOL     OW  301   0.419   1.460   0.453  0.2229  0.4378  0.2850
  101SOL    HW1  302   0.395   1.560   0.463  1.2800  0.6869  0.1255
  101SOL    HW2  303   0.523   1.442   0.454  1.1705 -0.5489  0.9031
  102SOL     OW  304   2.228   1.030   0.832 -0.2421 -0.1862 -0.2096
  102SOL    HW1  305   2.157   0.974   0.784 -2.7741  2.9892 -3.8806
  102SOL    HW2  306   2.264   1.097   0.763  3.0577 -3.2997  1.4358
  103SOL     OW  307   2.234   0.079   0.400 -0.5257 -0.2365 -0.1707
  103SOL    HW1  308   2.264   0.161   0.341 -0.9235 -2.6490 -2.3581
  103SOL    HW2  309   2.315   0.048   0.454  1.2888  2.1153  0.5948
  104SOL     OW  310   0.099   1.778   2.184  0.1517  0.1256 -0.2586
  104SOL    HW1  311   0.124   1.772   2.084  2.0740  0.7670  0.3232
  104SOL    HW2  312   0.002   1.818   2.207 -1.5944  1.3781 -1.1627
  105SOL     OW  313   1.271   2.079   0.773 -0.2687  0.2301 -0.0638
  105SOL    HW1  314   1.225   2.097   0.683  4.1601 -0.2738 -2.2199
  105SOL    HW2  315   1.325   1.991   0.781  0.4377  0.3102  0.6124
  106SOL     OW  316   2.111   0.422   1.398  0.3682 -0.0817 -0.0794
  106SOL    HW1  317   2.082   0.329   1.433  2.7450 -0.4524 -0.9625
  106SOL    HW2  318   2.097   0.493   1.472  0.7465 -0.3207  1.2535
  107SOL     OW  319   1.844   2.951   1.225  0.6189  0.1022  0.2183
  107SOL    HW1  320   1.817   3.034   1.287  0.1658  0.9046  0.7225
  107SOL    HW2  321   1.772   2.876   1.223  2.0945 -0.2773 -0.5994
  108SOL     OW  322   0.765   2.777   1.267 -0.1610  0.2825  0.0044
  108SOL    HW1  323   0.744   2.719   1.346  2.3058  0.6471 -1.2973
  108SOL    HW2  324   0.866   2.789   1.255 -1.1517  1.0503  0.6127
  109SOL     OW  325   2.131   0.092   0.824 -0.0866 -0.0423  0.2187
  109SOL    HW1  326   2.047   0.109   0.765  0.9593 -1.6149 -0.5591
  109SOL    HW2  327   2.114   0.041   0.914  0.5550  0.4845 -1.3624
  110SOL     OW  328   0.467   2.847   2.774 -0.8539 -0.1109 -0.6714
  110SOL    HW1  329   0.469   2.810   2.676 -0.6078  0.9416  2.7959
  110SOL    HW2  330   0.535   2.797   2.832 -0.1396  0.6353 -1.2469
  111SOL     OW  331   1.280   0.503   2.334  0.1028 -0.2413 -0.1072
  111SOL    HW1  332   1.201   0.559   2.373 -1.5739  0.8874  0.0909
  111SOL    HW2  333   1.324   0.440   2.407  0.5782 -0.6210 -0.7461
  112SOL     OW  334   1.694   0.502   1.444  0.1623 -0.2253 -0.7796
  112SOL    HW1  335   1.708   0.508   1.340 -0.1672  0.2811  1.2521
  112SOL    HW2  336   1.669   0.408   1.489  1.8458  0.0719  2.1129
  113SOL     OW  337   2.309   1.681   1.769  0.3194 -0.2763  0.0968
  113SOL    HW1  338   2.387   1.635   1.720 -1.2042 -2.2302 -0.4251
  113SOL    HW2  339   2.340   1.710   1.862  0.6042  0.5026  0.5101
  114SOL     OW  340   0.366   0.544   1.282 -0.8799  0.1346 -0.4734
  114SOL    HW1  341   0.440   0.578   1.220 -1.5121 -3.5388 -0.0978
  114SOL    HW2  342   0.271   0.573   1.265 -0.2535 -0.4508  2.9515
  115SOL     OW  343   2.705   1.631   1.213 -0.4750 -0.0392  0.3829
  115SOL    HW1  344   2.709   1.528   1.216 -1.9168  2.3158 -0.6709
  115SOL    HW2  345   2.743   1.673   1.122  3.5761 -0.2620 -3.4946
  116SOL     OW  346   1.797   1.047   0.621 -0.0478 -0.4776 -0.5779
  116SOL    HW1  347   1.709   0.998   0.625  0.1945 -2.4851 -2.0051
  116SOL    HW2  348   1.788   1.134   0.675  0.6345  0.3641  0.2366
  117SOL     OW  349   1.205   0.324   0.574 -0.2483  0.1943 -0.3282
  117SOL    HW1  350   1.227   0.399   0.647  0.6028  1.0275 -1.4826
  117SOL    HW2  351   1.220   0.359   0.482 -0.3264 -0.9005  3.8202
  118SOL     OW  352   1.153   1.079   1.136 -0.4137  0.6550  0.1367
  118SOL    HW1  353   1.099   1.022   1.202  0.4852  0.8976 -1.2671
  118SOL    HW2  354   1.156   1.178   1.173  0.2101  5.0961  0.0523
  119SOL     OW  355   1.823   1.601   2.170 -0.2050 -0.7092 -0.1085
  119SOL    HW1  356   1.776   1.694   2.172  0.7363 -1.6055  1.4981
  119SOL    HW2  357   1.928   1.611   2.176  0.1443 -1.6825  1.3180
  120SOL     OW  358   2.944   2.857   0.154 -0.2224  0.0593  0.7765
  120SOL    HW1  359   3.023   2.824   0.098  0.5379  2.3502  4.3662
  120SOL    HW2  360   2.859   2.798   0.151 -2.7369  0.9810  0.1644
  121SOL     OW  361   1.977   0.751   2.215 -0.6857 -0.0656  0.0339
  121SOL    HW1  362   1.967   0.801   2.124 -1.3309  0.7681 -0.2944
  121SOL    HW2  363   1.998   0.652   2.204  0.4828  2.4682 -1.1438
  122SOL     OW  364   2.588   2.600   1.314  0.9079 -0.2182  0.8450
  122SOL    HW1  365   2.639   2.556   1.238 -0.4961 -0.0018 -1.4616
  122SOL    HW2  366   2.504   2.649   1.277  2.3708 -0.9418 -0.7788
  123SOL     OW  367   1.731   0.062   1.693 -0.4449 -0.3751  0.4345
  123SOL    HW1  368   1.748  -0.031   1.647  1.6305 -2.2078 -2.5999
  123SOL    HW2  369   1.807   0.080   1.765 -0.1917 -1.2407 -1.1622
  124SOL     OW  370   0.066   0.439   1.107 -0.4397 -0.4323  0.0401
  124SOL    HW1  371   0.041   0.496   1.190  0.4629 -3.8512 -1.9722
  124SOL    HW2  372   0.073   0.492   1.016  2.4723 -1.1719 -2.2363
  125SOL     OW  373   0.861   1.838   0.691 -0.0070 -0.1848  0.1853
  125SOL    HW1  374   0.957   1.837   0.730 -1.7917  2.5050 -2.4089
  125SOL    HW2  375   0.787   1.847   0.762  0.6859 -0.5357  0.9645
  126SOL     OW  376   1.827   2.265   2.371 -0.2994 -0.2006  0.3093
  126SOL    HW1  377   1.917   2.246   2.330 -0.8518  1.6546  1.9214
  126SOL    HW2  378   1.782   2.177   2.398 -1.2548 -0.3417  2.7392
  127SOL     OW  379   0.998   0.902   0.230 -0.8040  0.3605 -0.5545
  127SOL    HW1  380   1.003   0.953   0.318 -2.1047  0.9884 -2.1365
  127SOL    HW2  381   0.972   0.801   0.250  1.7745 -1.2101  1.3851
  128SOL     OW  382   0.949   0.194   1.385 -0.6785  0.1518 -0.2415
  128SOL    HW1  383   0.929   0.281   1.327  1.3212  1.6818  0.5279
  128SOL    HW2  384   0.903   0.110   1.358 -1.2540 -0.5883  0.7708
  129SOL     OW  385   1.841   0.648   1.832  0.2468  0.4725 -0.6330
  129SOL    HW1  386   1.841   0.650   1.730 -0.6996 -0.9023 -2.1460
  129SOL    HW2  387   1.854   0.742   1.870 -1.5722 -2.0780 -2.9251
  130SOL     OW  388   1.376   2.162   1.018 -0.6019 -0.2645  0.4425
  130SOL    HW1  389   1.350   2.135   0.923  3.4881 -2.6908  3.0628
  130SOL    HW2  390   1.448   2.238   1.022  0.1656 -0.5723 -1.4450
  131SOL     OW  391   3.024   1.426   1.368  0.2654 -0.0243 -0.4714
  131SOL    HW1  392   2.951   1.370   1.416  1.1318  1.4741 -0.7817
  131SOL    HW2  393   3.123   1.391   1.378 -0.5598  0.5986  0.5334
  132SOL     OW  394   2.051   2.431   0.495 -0.2077 -0.2241 -0.1677
  132SOL    HW1  395   1.947   2.458   0.489 -2.5244 -1.7938 -5.5112
  132SOL    HW2  396   2.067   2.342   0.541 -0.5282  4.3092 -0.6446
  133SOL     OW  397   1.814   2.334   2.752 -0.5344  0.4894 -0.5466
  133SOL    HW1  398   1.788   2.389   2.669  0.1780  0.0530  0.8490
  133SOL    HW2  399   1.898   2.358   2.804 -2.4632 -2.3673 -0.7038
  134SOL     OW  400   2.659   2.315   1.581  0.0402 -0.3103  0.0792
  134SOL    HW1  401   2.564   2.320   1.621  0.7794 -1.5288  1.2923
  134SOL    HW2  402   2.728   2.386   1.614  0.5530 -0.2972  0.5652
  135SOL     OW  403   0.699   1.486   2.649  0.5146  0.2074  0.3459
  135SOL    HW1  404   0.631   1.419   2.695 -0.7581 -0.1684  4.3907
  135SOL    HW2  405   0.766   1.435   2.584  1.2900  0.6408  3.3548
  136SOL     OW  406   1.206   2.045   0.427  0.7092 -0.0945 -0.1514
  136SOL    HW1  407   1.131   2.116   0.442  1.2740  1.8756 -1.7032
  136SOL    HW2  408   1.174   1.949   0.433  0.5152  1.5965 -0.2961
  137SOL     OW  409   0.417   1.207   2.190  0.3247  0.3866  0.5419
  137SOL    HW1  410   0.328   1.171   2.230 -0.3954  0.5849  0.2952
  137SOL    HW2  411   0.491   1.135   2.188  4.8769 -0.7286 -1.0709
  138SOL     OW  412   2.515   1.463   0.263 -0.0370 -0.5784  0.7715
  138SOL    HW1  413   2.416   1.429   0.246 -3.5705  0.9890  2.6027
  138SOL    HW2  414   2.580   1.387   0.293  1.8451  0.1967  0.2668
  139SOL     OW  415   1.877   2.615   1.337  0.1404  0.0524  0.4841
  139SOL    HW1  416   1.775   2.615   1.347  1.0812 -1.9884 -1.4017
  139SOL    HW2  417   1.900   2.514   1.321 -0.9433  0.5745 -3.7242
  140SOL     OW  418   3.016   2.967   2.523 -0.2899 -0.4094 -0.2488
  140SOL    HW1  419   3.071   2.877   2.537  0.7139 -2.2382 -2.0436
  140SOL    HW2  420   3.073   3.050   2.509 -0.5708 -0.4364 -3.2080
  141SOL     OW  421   1.336   1.680   1.592 -0.1257  0.3298 -0.3429
  141SOL    HW1  422   1.254   1.714   1.646  2.2126  2.8704  1.3630
  141SOL    HW2  423   1.386   1.598   1.630 -1.2915 -0.9916 -1.1136
  142SOL     OW  424   1.568   0.614   2.252 -0.0897 -0.2684  0.0942
  142SOL    HW1  425   1.565   0.609   2.149 -1.6140 -1.4259 -0.1606
  142SOL    HW2  426   1.480   0.617   2.297  2.0187 -0.9176 -2.0603
  143SOL     OW  427   2.719   0.901   0.482  1.2087  0.5453 -0.0989
  143SOL    HW1  428   2.780   0.956   0.414  3.1334  3.2587 -2.6512
  143SOL    HW2  429   2.770   0.888   0.574  1.9131  0.7468  0.2522
  144SOL     OW  430   2.925   1.182   1.488 -0.4066 -0.2274  0.6011
  144SOL    HW1  431   2.883   1.163   1.582 -0.0404  0.5972 -1.1421
  144SOL    HW2  432   2.991   1.105   1.472 -3.1342  0.8730  2.4926
  145SOL     OW  433   0.998   1.813   0.183  0.3157 -0.4366 -1.2850
  145SOL    HW1  434   1.074   1.820   0.112  1.6734 -0.0787  0.4787
  145SOL    HW2  435   0.931   1.734   0.171  0.5472 -0.9606 -1.0735
  146SOL     OW  436   2.480   0.647   1.489 -0.6743  0.0791  0.0798
  146SOL    HW1  437   2.456   0.553   1.469 -2.6072  1.5778 -1.9460
  146SOL    HW2  438   2.427   0.714   1.437  0.9237  0.2897 -0.4022
  147SOL     OW  439   1.103   2.483   0.597 -0.6196  0.3881  0.0855
  147SOL    HW1  440   1.083   2.551   0.525  0.1011 -2.4800 -2.1028
  147SOL    HW2  441   1.190   2.425   0.592  0.5211  0.3579 -1.4423
  148SOL     OW  442   1.633   1.465   0.010 -0.4864  0.1035  0.3823
  148SOL    HW1  443   1.629   1.400  -0.072  1.3534  0.2623  1.7895
  148SOL    HW2  444   1.618   1.427   0.104  1.5103  0.8155  0.2615
  149SOL     OW  445   0.675   1.424   1.977 -0.2034  0.5403 -1.0021
  149SOL    HW1  446   0.573   1.406   1.996  2.0566 -1.6416  0.0537
  149SOL    HW2  447   0.703   1.390   1.883  0.4702 -1.4215  0.5658
  150SOL     OW  448   3.033   1.249   0.939  0.6982  0.3140 -0.0748
  150SOL    HW1  449   3.078   1.237   1.035  0.9007  0.1757  1.9028
  150SOL    HW2  450   2.983   1.158   0.915 -0.6322 -1.9732  1.0612
  151SOL     OW  451   0.120   0.715   2.078 -0.1910  0.3904 -0.0318
  151SOL    HW1  452   0.144   0.817   2.064 -0.5312  0.5453  1.8864
  151SOL    HW2  453   0.189   0.654   2.026 -0.0103  1.2755 -0.0927
  152SOL     OW  454   1.464   1.771   1.224 -0.0263 -0.0474 -0.5317
  152SOL    HW1  455   1.515   1.863   1.218  1.0319  0.5732 -0.6495
  152SOL    HW2  456   1.366   1.780   1.203  2.2949 -0.9793 -2.5757
  153SOL     OW  457   0.116   1.590   0.170  0.2473  0.5239  0.8133
  153SOL    HW1  458   0.078   1.491   0.171 -1.9057  2.0683 -2.0605
  153SOL    HW2  459   0.064   1.642   0.241  0.8220 -0.8684  0.4461
  154SOL     OW  460   2.376   1.857   2.824  0.2031  0.8231 -0.3396
  154SOL    HW1  461   2.409   1.768   2.859  0.6566  1.1550 -0.5748
  154SOL    HW2  462   2.433   1.889   2.748 -2.9501  0.0549  1.3734
  155SOL     OW  463   2.472   1.200   0.358  0.7095  0.2876 -0.2191
  155SOL    HW1  464   2.565   1.195   0.317 -0.0635 -0.1392 -0.1755
  155SOL    HW2  465   2.389   1.169   0.303 -0.4511 -0.6119 -1.2584
  156SOL     OW  466   2.516   0.933   0.820 -0.5649 -0.6010 -0.5818
  156SOL    HW1  467   2.414   0.944   0.841 -2.7017  0.3528  2.1503
  156SOL    HW2  468   2.563   1.016   0.782 -1.7090 -1.5876 -2.8420
  157SOL     OW  469   1.226   2.967   2.983 -0.1389  0.6499 -0.3151
  157SOL    HW1  470   1.252   2.937   2.890 -2.0410  2.5565  0.1198
  157SOL    HW2  471   1.283   3.051   3.015 -0.0685 -1.2032 -0.9680
  158SOL     OW  472   0.981   1.849   1.883  0.1309  0.1437 -0.1964
  158SOL    HW1  473   1.026   1.945   1.881  0.9561  2.4380  3.4852
  158SOL    HW2  474   0.893   1.853   1.940 -0.6175 -1.8095 -1.6375
  159SOL     OW  475   0.902   0.403   1.203  0.0501 -0.5184 -0.0363
  159SOL    HW1  476   0.873   0.478   1.266  1.2513 -0.5741  0.3068
  159SOL    HW2  477   0.831   0.369   1.138  2.6780  0.8106  1.4984
  160SOL     OW  478   1.377   2.418   1.593 -0.6577 -0.0020  0.2351
  160SOL    HW1  479   1.340   2.330   1.640 -0.9991  1.7845  0.4372
  160SOL    HW2  480   1.472   2.408   1.551  0.6747 -0.0694  0.6222
  161SOL     OW  481   0.032   2.974   0.407 -1.1692  0.4106  0.2991
  161SOL    HW1  482  -0.004   2.877   0.401  2.8995 -3.7722 -0.4355
  161SOL    HW2  483  -0.040   3.043   0.382  0.0694  0.6655 -0.1678
  162SOL     OW  484   2.584   1.867   0.531  0.0939  0.2524  0.2843
  162SOL    HW1  485   2.552   1.812   0.451  0.7060 -0.8212 -0.4781
  162SOL    HW2  486   2.592   1.798   0.609  1.8401 -2.6061  0.8977
  163SOL     OW  487   1.933   2.764   0.713 -0.0606 -0.5659  0.0746
  163SOL    HW1  488   1.941   2.782   0.610 -0.0753  1.0356  1.0243
  163SOL    HW2  489   1.994   2.695   0.754 -0.4367  0.3318  0.7204
  164SOL     OW  490   3.050   0.230   1.251 -0.0544  0.4847 -0.4228
  164SOL    HW1  491   3.104   0.306   1.195 -1.9032  0.6101 -0.4135
  164SOL    HW2  492   3.109   0.186   1.330  0.0597  0.3212 -0.8541
  165SOL     OW  493   0.959   1.360   0.718  0.1942  0.2723  0.6098
  165SOL    HW1  494   0.910   1.404   0.797  2.0859  1.2723 -2.4038
  165SOL    HW2  495   0.950   1.399   0.621 -1.8783 -1.5994 -2.6083
  166SOL     OW  496   1.536   1.052   1.751  1.1452 -0.5043  0.9025
  166SOL    HW1  497   1.451   1.041   1.806  0.0926 -0.5086 -3.1567
  166SOL    HW2  498   1.602   1.122   1.785  0.4048 -0.4282 -0.5725
  167SOL     OW  499   0.746   1.999   1.458  0.4302  0.4656  0.5089
  167SOL    HW1  500   0.759   2.090   1.507 -1.9111 -0.6453 -2.0445
  167SOL    HW2  501   0.716   1.922   1.523 -0.9590  1.0739 -0.6072
  168SOL     OW  502   1.622   2.367   0.143 -0.0368 -0.3842  0.3069
  168SOL    HW1  503   1.671   2.394   0.060 -4.2224  0.3778  1.0218
  168SOL    HW2  504   1.677   2.333   0.219 -2.1067  0.4450  0.0555
  169SOL     OW  505   0.211   2.573   2.229 -0.2774  0.0740  0.0207
  169SOL    HW1  506   0.238   2.549   2.135  1.8042  2.9872  1.8354
  169SOL    HW2  507   0.197   2.491   2.289 -3.9329  2.3350 -0.4302
  170SOL     OW  508   1.084   0.226   2.023  0.1012  0.4589 -0.3408
  170SOL    HW1  509   1.155   0.199   2.086 -4.3289  2.6973 -1.8598
  170SOL    HW2  510   1.057   0.157   1.953  1.1648 -0.9356  1.6094
  171SOL     OW  511   0.183   0.794   2.348 -0.0892  0.3617  0.1435
  171SOL    HW1  512   0.093   0.799   2.395  0.5905  0.7384 -2.7896
  171SOL    HW2  513   0.180   0.792   2.244 -3.0088  3.0375 -1.5664
  172SOL     OW  514   0.951   1.003   2.865 -0.1540 -0.3644 -0.3773
  172SOL    HW1  515   0.920   1.077   2.934 -1.3905  0.2064  1.7812
  172SOL    HW2  516   0.904   1.007   2.773  2.9315  1.7769 -0.7966
  173SOL     OW  517   0.626   2.636   0.132 -0.8134 -0.9902  0.1454
  173SOL    HW1  518   0.590   2.720   0.086 -1.5621 -0.1711 -0.9954
  173SOL    HW2  519   0.547   2.574   0.143 -3.4897 -1.4149  2.0708
  174SOL     OW  520   1.530   2.794   1.048  0.2854  0.1241 -0.4698
  174SOL    HW1  521   1.535   2.861   0.969 -0.6119 -2.2433  1.7438
  174SOL    HW2  522   1.525   2.697   1.017  0.7221 -4.0015  2.1967
  175SOL     OW  523   0.470   3.033   1.690  0.4861  0.3365  0.5726
  175SOL    HW1  524   0.559   3.018   1.743 -1.0209 -1.1428 -1.1244
  175SOL    HW2  525   0.437   3.132   1.692  3.1841  0.2958  3.0330
  176SOL     OW  526   2.567   0.387   0.023 -0.3661  0.2587 -0.0493
  176SOL    HW1  527   2.594   0.464   0.081  2.0247 -1.9527 -0.6564
  176SOL    HW2  528   2.502   0.319   0.070 -2.4671  0.2162  2.8526
  177SOL     OW  529   0.303   0.344   0.937 -0.3620  0.4301 -0.0079
  177SOL    HW1  530   0.296   0.250   0.904  1.8629  1.8318 -1.5897
  177SOL    HW2  531   0.313   0.357   1.038  0.0517  0.7378 -0.6259
  178SOL     OW  532   0.042   2.746   2.571  0.7316  0.7040 -0.0114
  178SOL    HW1  533  -0.008   2.659   2.551  1.2309  0.3377 -1.0098
  178SOL    HW2  534   0.093   2.742   2.664  1.1316 -0.6293  0.6761
  179SOL     OW  535   3.066   1.572   1.140 -0.0169  0.1609  0.2116
  179SOL    HW1  536   2.988   1.561   1.079  1.8706 -0.4006  0.3709
  179SOL    HW2  537   3.054   1.535   1.238 -0.7036  2.7106 -1.2720
  180SOL     OW  538   0.198   1.252   1.847  0.1283  0.4047 -0.0614
  180SOL    HW1  539   0.290   1.215   1.862  2.4978  2.3660 -0.0584
  180SOL    HW2  540   0.181   1.337   1.905 -0.6026  0.3329  0.4652
  181SOL     OW  541   3.064   1.881   2.479  0.8541  0.3959 -0.7323
  181SOL    HW1  542   3.109   1.977   2.471 -1.4203  3.9348  1.1962
  181SOL    HW2  543   2.973   1.869   2.430  2.4990  0.1423 -0.0314
  182SOL     OW  544   2.321   1.250   1.149  0.2846 -0.0347  0.5558
  182SOL    HW1  545   2.220   1.220   1.116 -1.3161 -1.4270 -1.2124
  182SOL    HW2  546   2.326   1.354   1.166  0.0513 -1.2405  0.8965
  183SOL     OW  547   1.447   2.262   2.579 -0.0219  0.0921 -0.4775
  183SOL    HW1  548   1.349   2.239   2.596  0.5684  1.3117 -1.4544
  183SOL    HW2  549   1.512   2.184   2.540  3.7032 -2.0190 -0.9449
  184SOL     OW  550   2.023   0.906   0.710  0.5088  0.3688 -0.4617
  184SOL    HW1  551   1.949   0.968   0.690  1.9749  0.1606  1.8120
  184SOL    HW2  552   1.993   0.816   0.744  1.7258  0.2495 -1.1417
  185SOL     OW  553   1.628   2.794   1.957 -0.2647 -0.1995 -0.2664
  185SOL    HW1  554   1.545   2.851   1.974  0.1039  0.3984 -0.9289
  185SOL    HW2  555   1.668   2.754   2.047 -1.8812 -1.8359  1.6871
  186SOL     OW  556   0.126   2.260   1.638  0.4023 -0.4354  0.0107
  186SOL    HW1  557   0.118   2.288   1.739  1.4177 -0.5333  0.8849
  186SOL    HW2  558   0.206   2.202   1.620  1.3112  3.0033  1.8858
  187SOL     OW  559   1.341   0.693   1.655  0.3269 -0.4253 -0.1661
  187SOL    HW1  560   1.423   0.753   1.623  1.0634  1.5499 -0.4946
  187SOL    HW2  561   1.377   0.619   1.720 -1.3270 -1.9852  1.1331
  188SOL     OW  562   2.774   2.763   1.438  0.3091 -0.3942  0.1582
  188SOL    HW1  563   2.752   2.869   1.436 -1.5371  0.9326  0.1512
  188SOL    HW2  564   2.688   2.711   1.412  0.4443 -0.6288  0.2143
  189SOL     OW  565   0.947   1.190   1.447 -0.1034  0.2008 -0.0305
  189SOL    HW1  566   1.007   1.245   1.510 -1.0348 -3.0112 -0.7639
  189SOL    HW2  567   0.892   1.249   1.384  0.1304 -2.4095  3.2247
  190SOL     OW  568   1.430   1.948   1.631  0.0814 -0.0881  0.3968
  190SOL    HW1  569   1.419   1.844   1.622  1.1175 -1.5291  0.0042
  190SOL    HW2  570   1.500   1.986   1.694  1.0868  3.5102 -1.8248
  191SOL     OW  571   0.937   0.707   1.552 -0.4547  0.1122 -0.5317
  191SOL    HW1  572   1.008   0.633   1.577  1.6138  2.1332  0.3480
  191SOL    HW2  573   0.977   0.796   1.519 -0.4942 -1.6424 -2.3587
  192SOL     OW  574   1.852   2.308   1.068  0.2247  0.4899 -0.1305
  192SOL    HW1  575   1.760   2.313   1.016  1.9101 -0.7284 -0.9423
  192SOL    HW2  576   1.931   2.351   1.019 -1.6036  0.3009  0.3319
  193SOL     OW  577   0.542   0.578   0.450 -0.5137  0.0575 -0.1709
  193SOL    HW1  578   0.496   0.488   0.482 -2.0547 -3.4225  2.1695
  193SOL    HW2  579   0.592   0.567   0.360 -0.0188  3.1625  0.8661
  194SOL     OW  580   0.343   0.892   1.301  0.6151 -0.4140  0.0143
  194SOL    HW1  581   0.271   0.822   1.285 -1.9975  0.9001  2.4554
  194SOL    HW2  582   0.329   0.974   1.239  1.6158  0.9180 -1.4543
  195SOL     OW  583   1.019   2.935   0.519  0.5532 -0.3831 -0.1547
  195SOL    HW1  584   1.023   2.842   0.471  3.2262  0.2798 -1.8003
  195SOL    HW2  585   1.110   2.978   0.498  1.1171  0.9404 -1.7806
  196SOL     OW  586   0.170   1.353   1.385 -0.2625  0.9609  0.4085
  196SOL    HW1  587   0.201   1.449   1.412 -0.0272  0.1089 -0.9058
  196SOL    HW2  588   0.194   1.278   1.456 -0.9988  1.3562  0.0139
  197SOL     OW  589   0.847   2.060   0.266 -0.0900 -0.1333 -0.1295
  197SOL    HW1  590   0.838   2.064   0.370 -0.8103  0.6756 -2.2764
  197SOL    HW2  591   0.890   1.971   0.236  0.3495  0.8465 -2.2923
  198SOL     OW  592   0.268   1.262   0.294  0.1973 -0.6591  0.3970
  198SOL    HW1  593   0.173   1.296   0.261 -2.1391  2.1197 -1.7648
  198SOL    HW2  594   0.308   1.321   0.366  3.2687 -0.1917 -0.0666
  199SOL     OW  595   2.312   0.369   2.501  0.9194  0.0759  0.4790
  199SOL    HW1  596   2.241   0.349   2.576 -0.2749  2.5706  1.2995
  199SOL    HW2  597   2.410   0.366   2.535 -2.5989  2.8064 -1.5658
  200SOL     OW  598   0.003   2.950   0.724 -0.1823 -0.0861  0.4751
  200SOL    HW1  599  -0.068   2.960   0.649  1.8391  2.0750  0.0775
  200SOL    HW2  600   0.098   2.952   0.683 -2.3617 -3.7767 -2.2819
  201SOL     OW  601   1.057   0.727   0.559 -0.1151 -0.3450 -0.1075
  201SOL    HW1  602   1.085   0.780   0.634 -1.3241 -0.3609 -3.0148
  201SOL    HW2  603   0.965   0.687   0.579  0.6061  0.3732 -3.6737
  202SOL     OW  604   0.396   1.081   1.916 -0.1812  0.5209  0.3390
  202SOL    HW1  605   0.488   1.065   1.862 -1.3078  0.3916 -0.3196
  202SOL    HW2  606   0.416   1.115   2.015 -2.1736 -0.7746  2.3619
  203SOL     OW  607   0.657   0.230   1.482 -0.0042 -0.5872 -0.5797
  203SOL    HW1  608   0.709   0.169   1.414  0.0929 -1.1174 -0.0701
  203SOL    HW2  609   0.660   0.191   1.580 -1.0166  0.2683  1.0870
  204SOL     OW  610   2.111   1.811   2.890  0.1330 -0.1368  0.2473
  204SOL    HW1  611   2.086   1.716   2.864  2.3802  2.8750  0.6354
  204SOL    HW2  612   2.204   1.841   2.852  1.4438 -0.9795  0.8557
  205SOL     OW  613   1.853   1.856   3.019  0.1928 -0.7982  0.0696
  205SOL    HW1  614   1.948   1.839   2.981  1.2516  1.1757  1.4031
  205SOL    HW2  615   1.819   1.952   3.019 -0.0470  0.2021  0.3123
  206SOL     OW  616   2.481   2.811   0.337 -0.3046 -0.1575  0.2852
  206SOL    HW1  617   2.534   2.732   0.377 -1.5118  0.6990  0.4677
  206SOL    HW2  618   2.544   2.880   0.290 -0.3408 -2.2938  0.0480
  207SOL     OW  619   0.698   1.825   2.995  0.2165 -0.1859 -0.3740
  207SOL    HW1  620   0.775   1.774   2.942 -0.1003 -1.0076  0.9600
  207SOL    HW2  621   0.656   1.763   3.067  0.0244 -0.5157 -1.2393
  208SOL     OW  622   1.127   1.568   1.394  0.6282 -0.3714 -0.1840
  208SOL    HW1  623   1.072   1.625   1.326  0.0295 -0.2828  2.0814
  208SOL    HW2  624   1.198   1.625   1.446  1.0877  1.0422  1.2893
  209SOL     OW  625   0.248   0.942   3.047  0.3373  0.2304 -0.1849
  209SOL    HW1  626   0.246   0.847   3.004 -1.1522 -1.4968 -0.8598
  209SOL    HW2  627   0.239   0.940   3.152 -0.4800 -0.0853  1.7017
  210SOL     OW  628   1.755   0.478   1.179 -0.7011  0.2042 -0.4188
  210SOL    HW1  629   1.711   0.573   1.162 -2.5036 -0.4034  1.2451
  210SOL    HW2  630   1.855   0.487   1.160 -3.9860  2.1513  1.5829
  211SOL     OW  631   2.101   1.062   1.590  0.0478 -0.6351  0.2576
  211SOL    HW1  632   2.142   0.984   1.646  0.1539 -0.5087  1.2659
  211SOL    HW2  633   2.169   1.119   1.537 -0.1794  1.4012 -1.9622
  212SOL     OW  634   3.088   0.988   1.500 -0.0206  0.2364 -0.0302
  212SOL    HW1  635   3.155   1.059   1.543  0.9854  0.6622 -2.0238
  212SOL    HW2  636   3.089   0.901   1.558  0.2228  1.5744  2.2746
  213SOL     OW  637   2.813   0.194   0.390 -0.3011 -0.4070  1.1708
  213SOL    HW1  638   2.875   0.117   0.358 -0.6725  1.7942 -1.3487
  213SOL    HW2  639   2.786   0.260   0.314  2.4508  0.6217 -3.7997
  214SOL     OW  640   2.159   0.242   2.290 -0.3219  0.3295  0.6173
  214SOL    HW1  641   2.205   0.284   2.371 -0.1123  1.5444 -1.0338
  214SOL    HW2  642   2.135   0.146   2.310 -1.5812  1.5837 -0.9342
  215SOL     OW  643   1.573   2.301   2.110 -0.2890 -0.0223 -0.3372
  215SOL    HW1  644   1.675   2.291   2.101  0.8982 -3.1794 -1.6016
  215SOL    HW2  645   1.544   2.387   2.164  0.3444  0.8149 -0.9055
  216SOL     OW  646   2.165   0.624   0.693  0.1826  0.0732 -0.2663
  216SOL    HW1  647   2.140   0.536   0.643  1.1148 -0.4875  0.0356
  216SOL    HW2  648   2.174   0.704   0.625 -2.7965 -1.8638 -0.2109
  217SOL     OW  649   0.755   2.773   2.421 -0.2463  0.1849  0.0139
  217SOL    HW1  650   0.738   2.701   2.493  1.2325 -2.4617 -0.8656
  217SOL    HW2  651   0.729   2.745   2.327  0.6862 -1.0808  1.6642
  218SOL     OW  652   1.896   1.411   0.017  0.0367 -0.2185  0.4603
  218SOL    HW1  653   1.798   1.451   0.014  1.4026 -3.4231  1.4045
  218SOL    HW2  654   1.908   1.340   0.095 -0.4449 -0.9688 -0.5149
  219SOL     OW  655   2.440   1.300   2.497  0.1694  0.3993 -0.2139
  219SOL    HW1  656   2.477   1.270   2.404 -2.9648 -0.5089 -0.9813
  219SOL    HW2  657   2.434   1.221   2.560 -0.9238  0.9872 -0.3251
  220SOL     OW  658   1.479   1.048   1.267 -0.6634 -0.2207  0.8297
  220SOL    HW1  659   1.580   1.063   1.288  0.0066  0.4768 -0.8678
  220SOL    HW2  660   1.467   1.052   1.163  0.7641  0.9579  0.7420
  221SOL     OW  661   1.285   0.989   2.174  0.0055  0.0736 -0.4380
  221SOL    HW1  662   1.263   1.068   2.114 -1.1893 -0.9052 -0.7560
  221SOL    HW2  663   1.384   0.962   2.158 -0.3140 -1.6218 -1.4346
  222SOL     OW  664   1.103   0.040   1.193  0.0404  0.3669  0.6712
  222SOL    HW1  665   1.163   0.075   1.270 -1.6894 -0.9549 -0.9225
  222SOL    HW2  666   1.101   0.103   1.106  1.0621  0.6236  0.3631
  223SOL     OW  667   2.739   0.952   2.132 -0.4269  0.1844  0.6461
  223SOL    HW1  668   2.736   1.055   2.139 -0.9564  1.4898  4.9247
  223SOL    HW2  669   2.836   0.919   2.158 -1.0301  0.5370  1.2922
  224SOL     OW  670   1.503   1.079   2.756  0.0935  0.0998 -0.6786
  224SOL    HW1  671   1.554   1.014   2.698 -3.1423  3.8415  1.2500
  224SOL    HW2  672   1.440   1.137   2.698 -2.0262  0.1597 -0.6363
  225SOL     OW  673   2.932   2.784   2.883  0.0167  0.4250  0.6266
  225SOL    HW1  674   2.867   2.738   2.817  0.8251  0.1818  0.9893
  225SOL    HW2  675   3.010   2.835   2.841  1.0152  0.6683 -3.3468
  226SOL     OW  676   2.487   1.595   2.897 -0.8214  0.2702  0.1135
  226SOL    HW1  677   2.493   1.568   2.799  2.3626  0.4682 -1.2536
  226SOL    HW2  678   2.402   1.556   2.953 -0.9715  0.7161 -0.4885
  227SOL     OW  679   0.870   0.127   0.038  0.2268 -0.3544  0.5797
  227SOL    HW1  680   0.971   0.158   0.045  0.5831  1.8923  1.5440
  227SOL    HW2  681   0.829   0.120  -0.060 -2.5559 -2.4900  1.0212
  228SOL     OW  682   2.429   0.604   2.840 -0.3251  0.2232 -0.3709
  228SOL    HW1  683   2.430   0.662   2.753  0.1799  3.8321  1.3311
  228SOL    HW2  684   2.528   0.571   2.870  3.0239 -1.5624  0.5765
  229SOL     OW  685   0.562   0.471   1.875 -0.5404 -0.1901 -0.2937
  229SOL    HW1  686   0.554   0.366   1.890 -0.3919  0.6514 -1.6294
  229SOL    HW2  687   0.594   0.476   1.778  1.3861 -0.9741  1.7596
  230SOL     OW  688   1.870   1.147   2.088  0.3365  0.0252  0.4064
  230SOL    HW1  689   1.930   1.220   2.043  1.3627 -2.1959 -1.4262
  230SOL    HW2  690   1.777   1.189   2.120 -1.5222  0.3528  0.1522
  231SOL     OW  691   0.626   1.016   0.041  0.0568  0.0441  0.2864
  231SOL    HW1  692   0.719   1.060   0.059  0.7298 -2.6385 -1.7001
  231SOL    HW2  693   0.546   1.080   0.063 -0.4423  2.0953  3.2428
  232SOL     OW  694   2.397   3.092   2.838  0.7543  0.1550 -0.8059
  232SOL    HW1  695   2.442   3.006   2.880 -0.1168 -0.4208 -0.0492
  232SOL    HW2  696   2.445   3.122   2.751 -1.4063 -0.2528 -1.4991
  233SOL     OW  697   1.696   1.242   1.117 -0.5882 -0.4651  0.1348
  233SOL    HW1  698   1.671   1.248   1.020  1.5440  1.0688  2.1198
  233SOL    HW2  699   1.733   1.148   1.144 -1.1408  0.9872  0.0352
  234SOL     OW  700   1.558   2.535   1.866 -0.3176 -0.2827 -0.1022
  234SOL    HW1  701   1.568   2.622   1.925  2.5877  1.2207  1.5519
  234SOL    HW2  702   1.504   2.457   1.909  4.0900 -1.0360  1.4826
  235SOL     OW  703   0.020   3.028   2.819  0.5630  0.2029 -0.1461
  235SOL    HW1  704  -0.029   3.031   2.730 -0.9857  0.1972  2.9992
  235SOL    HW2  705  -0.040   3.073   2.890 -1.5177  0.5671 -0.9785
  236SOL     OW  706   2.895   0.740   0.091 -0.7577  0.1976  0.0308
  236SOL    HW1  707   2.953   0.807   0.141 -2.0258 -1.0995  1.5907
  236SOL    HW2  708   2.945   0.652   0.064 -0.5887 -1.4035 -1.0768
  237SOL     OW  709   1.550   1.664   0.992  0.3894 -0.1256 -0.4455
  237SOL    HW1  710   1.655   1.675   0.984 -0.8335  0.2636 -1.0741
  237SOL    HW2  711   1.512   1.692   1.081  2.1174  0.1957  0.9018
  238SOL     OW  712   1.786   1.277   0.839  0.1823 -0.1421 -0.7527
  238SOL    HW1  713   1.834   1.344   0.904  0.8974  0.2137 -1.1954
  238SOL    HW2  714   1.697   1.312   0.797  1.3250 -2.4872  3.0474
  239SOL     OW  715   2.094   0.290   2.672  0.2055  0.2916  0.3909
  239SOL    HW1  716   2.151   0.261   2.753  0.2261  1.4486 -1.2811
  239SOL    HW2  717   2.031   0.369   2.697  0.0813  0.2151  2.0440
  240SOL     OW  718   0.933   0.648   0.291  0.5281 -0.3113 -0.8361
  240SOL    HW1  719   0.970   0.558   0.251 -2.8674 -1.5118  1.1053
  240SOL    HW2  720   0.914   0.646   0.391 -0.3512 -0.3958 -2.9390
  241SOL     OW  721   0.581   0.030   0.393  0.1563 -0.8293  0.2638
  241SOL    HW1  722   0.622   0.112   0.337  1.2467  1.2834 -4.1935
  241SOL    HW2  723   0.562  -0.052   0.329  2.6021  0.5983 -0.2483
  242SOL     OW  724   0.614   2.516   1.163 -0.3700 -0.1341  0.0638
  242SOL    HW1  725   0.619   2.534   1.265  0.1865  0.2977 -1.7128
  242SOL    HW2  726   0.654   2.593   1.105 -0.4646  1.1450  3.1900
  243SOL     OW  727   1.099   0.641   2.462  0.2739  0.8049  0.2396
  243SOL    HW1  728   0.999   0.656   2.425  0.8076 -1.6931 -1.7482
  243SOL    HW2  729   1.108   0.596   2.556  1.1897 -3.2402  0.5397
  244SOL     OW  730   2.840   1.888   2.321  0.5567  0.3257  0.4713
  244SOL    HW1  731   2.864   1.895   2.223  1.3101  0.0371 -1.7424
  244SOL    HW2  732   2.753   1.835   2.349 -2.6100  0.9413 -0.2704
  245SOL     OW  733   2.311   0.767   2.179  0.0661  0.8079 -0.1312
  245SOL    HW1  734   2.402   0.788   2.214 -2.7907  2.7613 -2.9854
  245SOL    HW2  735   2.232   0.796   2.242 -0.1815 -1.8570 -1.4860
  246SOL     OW  736   0.232   2.905   1.737 -0.0646  0.0172  0.1876
  246SOL    HW1  737   0.156   2.943   1.677  0.4870 -2.0178  0.0578
  246SOL    HW2  738   0.313   2.963   1.720  0.9163 -1.0369 -0.1720
  247SOL     OW  739   2.262   0.621   3.053 -0.0667  0.0410  0.0349
  247SOL    HW1  740   2.309   0.562   2.979 -1.0323 -0.1031 -0.6136
  247SOL    HW2  741   2.181   0.685   3.020  0.1672 -0.0644 -4.4708
  248SOL     OW  742   2.156   1.825   1.577 -0.2838  0.3048 -0.1856
  248SOL    HW1  743   2.220   1.774   1.645  3.0552 -1.4088 -0.4093
  248SOL    HW2  744   2.056   1.816   1.612  1.1682  0.6349 -0.2169
  249SOL     OW  745   1.852   1.951   1.933  0.1382  0.0013 -0.1489
  249SOL    HW1  746   1.882   1.862   1.885  1.4503  0.8928 -3.7239
  249SOL    HW2  747   1.932   2.012   1.950 -0.0084 -1.7871  1.6523
  250SOL     OW  748   1.113   0.690   1.894 -0.4607 -0.0016 -0.5390
  250SOL    HW1  749   1.149   0.625   1.968  0.2151  1.4521  0.6489
  250SOL    HW2  750   1.083   0.643   1.810 -0.9682 -1.3505  1.8767
  251SOL     OW  751   0.062   1.584   2.476 -0.0072  0.3214  0.3576
  251SOL    HW1  752   0.055   1.686   2.490  0.8822  1.8632  0.0331
  251SOL    HW2  753  -0.033   1.539   2.496 -2.3495 -1.3707 -0.2713
  252SOL     OW  754   1.550   0.845   1.576  0.6964  0.1467 -0.2191
  252SOL    HW1  755   1.643   0.815   1.539  2.5185 -1.4325  1.3194
  252SOL    HW2  756   1.556   0.933   1.636 -0.1191  4.7940  1.8935
  253SOL     OW  757   0.961   1.559   0.532  0.2176 -0.7307  0.1846
  253SOL    HW1  758   0.971   1.493   0.451 -0.1891 -0.4829 -2.2412
  253SOL    HW2  759   0.860   1.579   0.557  4.4247 -0.3708 -1.3266
  254SOL     OW  760   2.053   2.181   1.650  0.2451 -0.0510  0.0415
  254SOL    HW1  761   2.025   2.110   1.580 -1.2034  0.0414  0.1886
  254SOL    HW2  762   1.970   2.208   1.705 -1.3601 -1.7040 -0.6417
  255SOL     OW  763   0.133   1.131   2.883 -0.2178 -0.2086 -0.0129
  255SOL    HW1  764   0.183   1.228   2.875 -2.7080  3.3078 -1.3432
  255SOL    HW2  765   0.193   1.054   2.927 -2.9240 -2.4176  0.8535
  256SOL     OW  766   2.770   1.374   1.783 -0.0109  1.2956  0.2563
  256SOL    HW1  767   2.676   1.413   1.770 -0.9415 -1.2444 -1.9173
  256SOL    HW2  768   2.778   1.274   1.750  1.6973 -0.8732 -1.0197
  257SOL     OW  769   0.772   0.171   1.763  0.0425 -0.7499  0.0751
  257SOL    HW1  770   0.823   0.248   1.709  1.6319 -1.1306  1.0618
  257SOL    HW2  771   0.834   0.105   1.814 -2.4372  0.6497 -0.8155
  258SOL     OW  772   2.988   1.237   0.438  0.9540 -0.3916  0.2388
  258SOL    HW1  773   2.900   1.291   0.430 -0.7415  0.0809  1.0872
  258SOL    HW2  774   3.033   1.226   0.533  1.2165 -0.7899 -1.0910
  259SOL     OW  775   0.457   2.941   3.042 -0.5464 -0.5710  0.2400
  259SOL    HW1  776   0.374   2.906   3.090  1.9408 -2.2234 -0.2101
  259SOL    HW2  777   0.465   2.905   2.940  0.5244 -1.6528  2.0300
  260SOL     OW  778   2.715   0.831   2.804  0.7205  0.0001 -0.3490
  260SOL    HW1  779   2.638   0.760   2.794 -2.3171 -0.1713  0.3041
  260SOL    HW2  780   2.726   0.845   2.904  0.4479  0.8931  0.8840
  261SOL     OW  781   2.757   1.360   1.252 -0.2272  0.1265  0.2757
  261SOL    HW1  782   2.717   1.289   1.188  2.2333  1.2650 -0.1148
  261SOL    HW2  783   2.860   1.347   1.274 -2.4482  0.8052  0.3042
  262SOL     OW  784   1.410   2.976   2.012 -0.3619  0.1043 -0.9015
  262SOL    HW1  785   1.455   3.067   1.987 -1.6798  1.3425  1.7192
  262SOL    HW2  786   1.314   2.961   1.983  0.0521  0.6986 -1.2463
  263SOL     OW  787   0.848   0.692   2.370 -0.2013  0.1692  0.2519
  263SOL    HW1  788   0.801   0.613   2.326  0.0956  0.5617 -2.2829
  263SOL    HW2  789   0.904   0.744   2.302 -1.1147 -0.5195 -2.3837
  264SOL     OW  790   2.202   0.832   0.445 -0.2830  0.2448  0.9270
  264SOL    HW1  791   2.231   0.745   0.397  2.8788 -0.2830  1.3210
  264SOL    HW2  792   2.287   0.860   0.491  0.4507  2.0659 -1.4357
  265SOL     OW  793   0.948   2.403   2.612  0.4354  0.6461 -0.6827
  265SOL    HW1  794   1.007   2.442   2.697  2.4501 -1.6363  1.9589
  265SOL    HW2  795   0.907   2.311   2.636 -0.1360 -1.1234 -2.7434
  266SOL     OW  796   1.304   1.741   0.022 -0.3276  0.2654 -0.4560
  266SOL    HW1  797   1.288   1.816   0.086 -2.8456 -0.8898  0.8764
  266SOL    HW2  798   1.403   1.726   0.001  1.6126 -0.6493  0.5412
  267SOL     OW  799   1.022   3.083   2.357  0.2464  0.0808 -0.3548
  267SOL    HW1  800   1.016   3.016   2.279 -1.5038  1.7220  1.6128
  267SOL    HW2  801   0.946   3.154   2.353  0.7786 -0.1855  0.2217
  268SOL     OW  802   0.597   1.197   1.025  0.0350 -0.1829  0.3531
  268SOL    HW1  803   0.658   1.237   1.098  0.0877 -1.4104 -4.1201
  268SOL    HW2  804   0.604   1.236   0.929  1.9944 -1.7388 -2.6167
  269SOL     OW  805   2.351   2.554   1.599 -0.3058  0.2933 -0.2485
  269SOL    HW1  806   2.379   2.458   1.621 -1.8182 -1.1243  0.1007
  269SOL    HW2  807   2.300   2.598   1.674  1.3023 -0.2830  1.4283
  270SOL     OW  808   0.183   2.921   2.011 -0.2479  0.0395 -0.0021
  270SOL    HW1  809   0.199   2.903   1.911 -1.7571  1.1708 -1.9993
  270SOL    HW2  810   0.116   2.854   2.054 -0.4987 -1.3097  1.0508
  271SOL     OW  811   0.415   1.393   1.194 -0.1017  0.6504 -0.0746
  271SOL    HW1  812   0.411   1.387   1.092 -0.6293  1.7791 -1.0588
  271SOL    HW2  813   0.324   1.373   1.239 -0.3806  0.8633  2.2238
  272SOL     OW  814   2.005   2.884   1.947 -0.3739  0.0314 -0.0645
  272SOL    HW1  815   1.949   2.828   1.880  1.2518 -0.5020  5.3316
  272SOL    HW2  816   2.073   2.940   1.901  0.9275 -0.4055 -1.3779
  273SOL     OW  817   1.492   1.420   2.714  0.1239 -0.5955  0.1361
  273SOL    HW1  818   1.394   1.453   2.728  1.9037 -1.3807 -0.5659
  273SOL    HW2  819   1.536   1.374   2.798  0.8428 -0.4366 -1.2728
  274SOL     OW  820   1.191   0.494   2.063 -0.3160 -0.4120  0.3358
  274SOL    HW1  821   1.144   0.405   2.046 -0.2994  0.0469  0.4271
  274SOL    HW2  822   1.210   0.504   2.168 -1.6310  2.3633  0.5193
  275SOL     OW  823   0.612   2.084   1.892  0.3459 -0.4986 -0.3858
  275SOL    HW1  824   0.616   2.174   1.947 -0.6925  0.7012  0.7423
  275SOL    HW2  825   0.521   2.039   1.918  1.1534  0.3800 -0.1103
  276SOL     OW  826   2.193   0.965   2.749  0.2850  0.9752 -0.7040
  276SOL    HW1  827   2.118   0.976   2.681 -0.0988 -1.7098  2.2199
  276SOL    HW2  828   2.159   0.907   2.830  0.4282 -0.6992  1.6579
  277SOL     OW  829   3.089   0.882   0.229 -0.1217 -0.3069 -0.0297
  277SOL    HW1  830   3.171   0.910   0.176 -0.4122 -0.0539 -0.5369
  277SOL    HW2  831   3.094   0.793   0.279  0.8453 -0.0778 -0.5548
  278SOL     OW  832   0.253   0.268   3.066  0.3594  0.2236 -0.4917
  278SOL    HW1  833   0.322   0.212   3.008  1.1016  0.4638 -0.6059
  278SOL    HW2  834   0.278   0.359   3.099  1.3826 -1.8120  0.0458
  279SOL     OW  835   0.198   0.064   0.873 -0.4293 -0.0220 -0.0740
  279SOL    HW1  836   0.202  -0.004   0.954  2.0577 -1.8424 -1.4988
  279SOL    HW2  837   0.266   0.041   0.802 -1.3787  3.4267 -0.7732
  280SOL     OW  838   1.602   2.943   2.420 -0.0911 -0.4870 -0.0739
  280SOL    HW1  839   1.670   3.005   2.469 -0.4881  1.9729 -2.5066
  280SOL    HW2  840   1.520   2.991   2.383  1.6987 -0.7651 -1.8345
  281SOL     OW  841   0.567   0.984   2.215 -0.4314 -0.5348  0.2697
  281SOL    HW1  842   0.562   0.889   2.173 -0.6158  0.6894 -0.2245
  281SOL    HW2  843   0.519   0.994   2.306 -2.4067  1.1607  0.2513
  282SOL     OW  844   1.771   2.493   0.517 -0.0258  0.0399  0.0696
  282SOL    HW1  845   1.703   2.415   0.496  0.2611 -0.7679 -3.2927
  282SOL    HW2  846   1.729   2.588   0.507  0.3677  0.7887 -0.0104
  283SOL     OW  847   1.169   0.925   0.837  0.5939  0.3966 -0.1033
  283SOL    HW1  848   1.165   0.865   0.920 -0.9498  0.5501  3.4551
  283SOL    HW2  849   1.169   1.022   0.863  0.3870  1.0013  2.7285
  284SOL     OW  850   2.288   2.783   2.548 -0.1761  0.1519 -0.6177
  284SOL    HW1  851   2.359   2.806   2.471  2.7558 -1.5266  3.1010
  284SOL    HW2  852   2.285   2.850   2.627  1.0498  2.7252  1.6822
  285SOL     OW  853   1.324   3.038   2.576  0.4291 -0.2596 -0.4933
  285SOL    HW1  854   1.345   3.051   2.473 -0.4016 -0.7697 -0.9653
  285SOL    HW2  855   1.227   3.049   2.586 -1.3603  0.2086  1.4574
  286SOL     OW  856   0.460   0.451   0.718  0.1272 -0.5422 -0.0322
  286SOL    HW1  857   0.404   0.423   0.799  0.7735 -0.1732 -2.1352
  286SOL    HW2  858   0.492   0.368   0.659 -2.5344 -0.9528  0.3846
  287SOL     OW  859   0.100   1.292   2.491 -0.2372 -0.2147  0.1224
  287SOL    HW1  860   0.045   1.244   2.564  3.6566  3.7408 -0.4754
  287SOL    HW2  861   0.113   1.388   2.507 -1.0598  0.5795  2.7903
  288SOL     OW  862   1.605   2.631   1.609  0.7685  0.2508  0.4924
  288SOL    HW1  863   1.591   2.609   1.715 -1.1313  3.5831  2.7785
  288SOL    HW2  864   1.628   2.547   1.561 -2.0826 -0.2985 -0.9968
  289SOL     OW  865   0.645   2.717   0.906 -0.4145  0.3138  0.1913
  289SOL    HW1  866   0.678   2.771   0.826 -0.7153 -1.2475 -0.0330
  289SOL    HW2  867   0.622   2.774   0.991 -0.5957  0.9586  0.4491
  290SOL     OW  868   2.815   1.108   1.722  0.0717 -0.1274 -0.0489
  290SOL    HW1  869   2.736   1.043   1.708 -1.7198 -1.3341  0.1799
  290SOL    HW2  870   2.884   1.064   1.786  1.5800  1.9922 -0.2455
  291SOL     OW  871   2.000   0.040   0.034  0.0652 -0.6087 -0.1241
  291SOL    HW1  872   2.006   0.068   0.136 -1.2092  2.0865  0.8765
  291SOL    HW2  873   2.025   0.128  -0.024  0.9294  2.6452 -2.4340
  292SOL     OW  874   2.990   1.152   3.063 -0.4916  0.2508  0.9553
  292SOL    HW1  875   2.919   1.218   3.032  0.6611  2.3845  0.2912
  292SOL    HW2  876   3.068   1.143   3.000  1.3993  0.7279  2.5761
  293SOL     OW  877   0.547   2.143   0.218 -0.4971  0.1831  0.0872
  293SOL    HW1  878   0.504   2.228   0.256 -0.9950 -0.7525 -1.4315
  293SOL    HW2  879   0.651   2.150   0.204  3.7554 -2.4598 -0.8226
  294SOL     OW  880   1.837   2.266   1.776  0.2179  0.1960 -0.4648
  294SOL    HW1  881   1.823   2.302   1.875  0.5130  2.1125  0.7847
  294SOL    HW2  882   1.793   2.334   1.715 -0.3266  0.3573  1.1722
  295SOL     OW  883   0.989   1.069   0.447 -0.1191  0.1498 -1.0528
  295SOL    HW1  884   1.073   1.037   0.504  4.4532 -1.6396  1.4041
  295SOL    HW2  885   0.903   1.073   0.507 -0.1639  0.5284 -2.1180
  296SOL     OW  886   1.171   2.118   2.567 -0.7913  0.0262  0.5093
  296SOL    HW1  887   1.075   2.157   2.551  1.2141  0.8386  1.6229
  296SOL    HW2  888   1.187   2.040   2.496  0.8634 -0.5502 -2.8378
  297SOL     OW  889   1.415   0.612   1.346 -0.3213  0.2298  0.0083
  297SOL    HW1  890   1.374   0.521   1.386  0.2318 -1.5459  1.3467
  297SOL    HW2  891   1.504   0.627   1.389 -1.7106 -0.0426  0.9755
  298SOL     OW  892   0.520   1.314   3.006 -0.3148 -0.0265  0.0331
  298SOL    HW1  893   0.467   1.243   3.052 -0.1516  0.4743 -0.2762
  298SOL    HW2  894   0.587   1.270   2.933  1.3058 -2.1445 -1.1464
  299SOL     OW  895   0.471   0.278   1.253 -0.1604  0.2541 -0.9353
  299SOL    HW1  896   0.398   0.350   1.255 -1.3867  1.8548 -0.4996
  299SOL    HW2  897   0.536   0.277   1.341  1.9475  1.3904  0.7502
  300SOL     OW  898   1.223   1.784   2.720 -0.0552  0.0925 -0.5448
  300SOL    HW1  899   1.195   1.683   2.749  1.3581 -3.7921 -0.2534
  300SOL    HW2  900   1.326   1.790   2.722 -0.1464 -0.3075 -0.4380
  301SOL     OW  901   0.430   0.285   0.489 -0.3374 -0.1914 -0.4866
  301SOL    HW1  902   0.328   0.299   0.475 -1.3210  0.1524  1.4676
  301SOL    HW2  903   0.468   0.210   0.430  2.0492 -0.3105  1.7249
  302SOL     OW  904   1.279   2.442   2.342 -0.1478 -0.6133  0.2601
  302SOL    HW1  905   1.186   2.474   2.365  1.9672 -1.0318  1.8858
  302SOL    HW2  906   1.298   2.340   2.367  0.8439 -2.3848  0.8954
  303SOL     OW  907   0.942   2.404   0.807 -0.2033 -0.3070 -0.5184
  303SOL    HW1  908   0.983   2.451   0.723  1.0246  0.1473  0.5201
  303SOL    HW2  909   0.960   2.455   0.893  1.2983 -0.0531 -0.9013
  304SOL     OW  910   0.051   1.942   0.645  0.2369  0.0383  0.4732
  304SOL    HW1  911   0.113   1.913   0.568 -0.0300  1.3993 -2.4726
  304SOL    HW2  912  -0.003   2.025   0.616  0.5529 -0.0006 -0.5677
  305SOL     OW  913   1.571   0.875   0.597 -0.1527 -0.7632  0.3221
  305SOL    HW1  914   1.526   0.871   0.503 -2.0863 -0.6082  2.9491
  305SOL    HW2  915   1.614   0.780   0.619 -0.8199 -2.7466  0.3567
  306SOL     OW  916   0.401   1.849   1.911 -0.5245  0.1704 -0.2844
  306SOL    HW1  917   0.439   1.753   1.898  2.6985 -1.2064 -2.6458
  306SOL    HW2  918   0.418   1.889   2.008  0.1055  2.1272  1.0539
  307SOL     OW  919   3.036   0.899   2.482 -0.3962 -0.0155  0.0760
  307SOL    HW1  920   3.046   0.982   2.543  2.3756 -0.2348  0.3665
  307SOL    HW2  921   2.968   0.827   2.515  0.3611 -0.4589  0.4485
  308SOL     OW  922   1.550   2.685   2.824 -0.2287 -0.1120 -0.1374
  308SOL    HW1  923   1.556   2.632   2.737  1.7732 -0.3156  0.7494
  308SOL    HW2  924   1.499   2.643   2.904 -3.4011 -0.5058  0.1816
  309SOL     OW  925   1.285   0.203   1.738  0.2393  0.0164  0.3274
  309SOL    HW1  926   1.363   0.150   1.781  0.9259  2.9360  0.6844
  309SOL    HW2  927   1.237   0.159   1.661  0.1932 -0.9034 -0.7274
  310SOL     OW  928   1.502   2.562   0.696  0.1408 -0.0315 -0.3106
  310SOL    HW1  929   1.486   2.535   0.797 -1.4578 -2.5766  1.8008
  310SOL    HW2  930   1.550   2.650   0.685  0.6025 -0.9870 -0.6199
  311SOL     OW  931   1.174   0.949   1.660 -0.1080 -0.4835  0.1978
  311SOL    HW1  932   1.213   0.869   1.715 -1.0611 -0.2002  1.0712
  311SOL    HW2  933   1.236   0.981   1.581  0.6580 -2.0702 -1.3984
  312SOL     OW  934   1.655   0.720   1.132 -0.2720 -0.3670  0.3920
  312SOL    HW1  935   1.675   0.812   1.091  0.6999  0.8207  1.3868
  312SOL    HW2  936   1.571   0.676   1.090 -2.4992 -1.2864 -2.7314
  313SOL     OW  937   1.575   1.373   0.705  0.0221  0.9201 -0.2053
  313SOL    HW1  938   1.487   1.418   0.750 -0.3096 -2.6310 -0.2589
  313SOL    HW2  939   1.560   1.283   0.657  0.8923 -0.9836  1.3827
  314SOL     OW  940   2.937   0.027   2.998 -0.1829 -0.2114  0.3341
  314SOL    HW1  941   2.963   0.006   3.096 -1.1650  0.7677 -0.3686
  314SOL    HW2  942   2.843  -0.004   2.963  0.2909  0.4180  0.1763
  315SOL     OW  943   1.173   0.200   2.773 -0.8557  0.4878  0.3420
  315SOL    HW1  944   1.118   0.121   2.725  0.6474 -2.5795  1.6982
  315SOL    HW2  945   1.193   0.176   2.873 -0.7338  0.6880  3.3618
  316SOL     OW  946   1.745   2.034   0.890  0.4101  0.3603  0.9863
  316SOL    HW1  947   1.702   2.023   0.988  0.8861  0.6315  1.7452
  316SOL    HW2  948   1.768   2.130   0.869 -0.1705 -1.4495 -0.7825
  317SOL     OW  949   1.168   0.643   2.865  0.0281  1.1359  0.0340
  317SOL    HW1  950   1.107   0.689   2.933  0.2196 -0.3110 -3.0994
  317SOL    HW2  951   1.116   0.563   2.815 -0.6176 -0.1077 -2.5877
  318SOL     OW  952   1.369   3.030   2.303  0.6405 -0.1678  0.1845
  318SOL    HW1  953   1.352   3.123   2.257 -1.6209  1.6278  1.2033
  318SOL    HW2  954   1.364   2.953   2.236  0.4508 -1.1635  0.7536
  319SOL     OW  955   0.616   2.420   2.936 -0.4101 -0.1174  0.4049
  319SOL    HW1  956   0.546   2.377   2.999 -0.6424 -2.7158  1.3160
  319SOL    HW2  957   0.712   2.406   2.969 -1.4411 -1.9168 -0.3253
  320SOL     OW  958   1.676   2.253   0.438  0.0617  0.1847 -0.3510
  320SOL    HW1  959   1.741   2.185   0.405 -2.6995  1.2133  1.4351
  320SOL    HW2  960   1.590   2.207   0.481 -3.8180  1.0729  0.9656
  321SOL     OW  961   1.638   2.796   0.531  0.4948  0.1042  0.5813
  321SOL    HW1  962   1.550   2.821   0.479  1.2494  0.5199  3.1397
  321SOL    HW2  963   1.725   2.839   0.503 -0.7393 -1.1448  1.6169
  322SOL     OW  964   2.592   1.130   2.324 -0.3758  0.5882 -0.2969
  322SOL    HW1  965   2.644   1.144   2.415  1.1606 -1.6825  0.6209
  322SOL    HW2  966   2.535   1.042   2.321 -3.3186 -0.1816  1.4988
  323SOL     OW  967   1.189   2.690   0.836  0.1150  0.1973  0.1732
  323SOL    HW1  968   1.172   2.651   0.744  0.7814  2.3247  1.6525
  323SOL    HW2  969   1.145   2.781   0.854 -0.3941 -1.4386  1.8629
  324SOL     OW  970   0.268   2.435   2.494 -0.0419 -0.3115 -0.4038
  324SOL    HW1  971   0.285   2.400   2.585 -0.6295 -1.2814 -2.7114
  324SOL    HW2  972   0.213   2.520   2.503  1.9527 -0.8452  0.7037
  325SOL     OW  973   1.274   3.056   0.466 -0.4668 -0.2715 -0.7260
  325SOL    HW1  974   1.321   3.108   0.395  0.2866 -1.0768  1.8218
  325SOL    HW2  975   1.278   3.102   0.558  0.8259 -2.0005 -0.4055
  326SOL     OW  976   2.469   0.803   3.097 -0.0167 -0.9457 -0.0191
  326SOL    HW1  977   2.389   0.745   3.072 -1.4204  2.4954  3.9280
  326SOL    HW2  978   2.530   0.760   3.166  0.8927  1.8381  0.1802
  327SOL     OW  979   2.847   0.330   0.653 -0.4205 -0.3197 -1.1305
  327SOL    HW1  980   2.826   0.269   0.571 -0.1907 -0.7982  1.0193
  327SOL    HW2  981   2.881   0.258   0.726  0.7706 -0.6150  0.3437
  328SOL     OW  982   2.612   0.554   0.406  0.2023 -0.0077 -0.2169
  328SOL    HW1  983   2.560   0.645   0.405 -0.1084 -3.1193  0.5093
  328SOL    HW2  984   2.567   0.485   0.472 -0.2913 -0.4582 -1.1826
  329SOL     OW  985   2.957   2.976   2.138  0.5738 -0.4654 -0.0672
  329SOL    HW1  986   3.007   2.935   2.221 -0.3354  1.3993 -0.2067
  329SOL    HW2  987   2.946   3.078   2.147 -0.5198 -1.2010  0.7187
  330SOL     OW  988   0.518   0.183   1.894 -0.4766  0.8569  0.5969
  330SOL    HW1  989   0.599   0.195   1.825  2.1819 -2.7529  0.6134
  330SOL    HW2  990   0.531   0.099   1.958  0.3013 -0.3683 -0.4561
  331SOL     OW  991   2.974   1.939   1.140  0.0763  0.1658 -0.8539
  331SOL    HW1  992   2.979   2.040   1.122 -1.3837  1.5822 -0.7326
  331SOL    HW2  993   2.928   1.906   1.228  0.6029  1.6252 -1.6928
  332SOL     OW  994   0.381   1.154   0.068  0.0436  0.2641  0.3646
  332SOL    HW1  995   0.333   1.065   0.033  4.6227 -3.0873  1.2486
  332SOL    HW2  996   0.338   1.201   0.149  0.2282 -2.9802  1.8041
  333SOL     OW  997   2.887   1.031   0.307  0.1439 -0.6838  0.0337
  333SOL    HW1  998   2.938   1.106   0.355  0.4018  2.9136 -2.8406
  333SOL    HW2  999   2.958   0.968   0.265 -0.9420 -1.9662  0.9943
  334SOL     OW 1000   1.694   1.256   1.839 -0.1676 -0.3026 -0.5915
  334SOL    HW1 1001   1.782   1.270   1.779 -0.3483  0.2388 -0.7684
  334SOL    HW2 1002   1.700   1.285   1.941  0.0152 -1.2966 -0.9311
  335SOL     OW 1003   1.978   2.720   2.578  0.1283 -0.5996  0.0613
  335SOL    HW1 1004   1.926   2.677   2.657 -0.7760 -1.9393  0.3548
  335SOL    HW2 1005   2.074   2.745   2.609  0.5882  2.5371 -0.0960
  336SOL     OW 1006   0.236   0.131   2.744 -0.1027 -0.5754 -0.7442
  336SOL    HW1 1007   0.330   0.106   2.785  0.4238  1.5713 -0.4708
  336SOL    HW2 1008   0.167   0.057   2.764  0.2799 -0.2218  1.3859
  337SOL     OW 1009   0.951   2.876   2.859  0.9353 -0.0342  0.1636
  337SOL    HW1 1010   0.925   2.812   2.935  0.1364  2.1552  0.0214
  337SOL    HW2 1011   1.035   2.932   2.877 -2.3039  3.8040  0.4006
  338SOL     OW 1012   0.047   1.008   0.635  0.6003 -0.0708  0.0654
  338SOL    HW1 1013  -0.043   0.972   0.673  2.0651  2.3571  0.6068
  338SOL    HW2 1014   0.051   1.112   0.639 -1.9086 -1.8320 -1.7294
  339SOL     OW 1015   1.681   1.344   2.103  0.3677 -0.0576  0.1676
  339SOL    HW1 1016   1.586   1.386   2.126 -2.4496  0.1687  0.9288
  339SOL    HW2 1017   1.754   1.425   2.113  0.2173  3.2809 -2.2344
  340SOL     OW 1018   2.332   0.808   1.104 -0.3183  0.2083  0.1470
  340SOL    HW1 1019   2.229   0.820   1.080 -1.1194 -1.7345  0.6040
  340SOL    HW2 1020   2.370   0.717   1.085 -1.0271 -0.1252  0.4777
  341SOL     OW 1021   1.880   2.103   0.296 -0.0065 -0.1722 -0.6418
  341SOL    HW1 1022   1.893   2.161   0.209 -0.6159  0.1376 -0.4721
  341SOL    HW2 1023   1.968   2.106   0.357  2.9767  0.2342  0.3085
  342SOL     OW 1024   2.256   2.129   2.777  0.0754 -0.4785  0.8442
  342SOL    HW1 1025   2.336   2.073   2.808 -0.4439 -0.4892  1.2899
  342SOL    HW2 1026   2.169   2.082   2.798  0.3134  1.5090 -2.0332
  343SOL     OW 1027   0.359   0.830   2.740 -0.4722 -0.4232  0.2586
  343SOL    HW1 1028   0.315   0.909   2.695  0.0586 -1.4940 -2.1689
  343SOL    HW2 1029   0.445   0.850   2.803  1.4538  1.4294  2.8665
  344SOL     OW 1030   1.923   1.431   0.432  0.4330  0.3513 -0.1457
  344SOL    HW1 1031   1.928   1.365   0.350 -1.6207  0.6947 -0.8918
  344SOL    HW2 1032   1.823   1.456   0.448 -0.0983  1.6378 -0.2899
  345SOL     OW 1033   1.395   2.239   2.929 -0.0271 -0.3731  0.0325
  345SOL    HW1 1034   1.327   2.167   2.904 -1.4327  1.6929 -1.9094
  345SOL    HW2 1035   1.483   2.214   2.879 -1.2471 -0.7977 -2.5980
  346SOL     OW 1036   2.351   0.888   1.378 -0.3936  0.2605  0.4976
  346SOL    HW1 1037   2.299   0.977   1.375 -0.1565 -0.0262  0.1470
  346SOL    HW2 1038   2.364   0.853   1.279  1.9821  0.8257  1.4085
  347SOL     OW 1039   0.740   2.751   1.576 -0.3121 -0.4462  0.7315
  347SOL    HW1 1040   0.677   2.732   1.655 -0.1551 -0.7561 -0.8489
  347SOL    HW2 1041   0.715   2.835   1.520  0.6363  0.3101 -1.8463
  348SOL     OW 1042   0.207   0.690   2.920 -0.5658  0.4164 -0.4242
  348SOL    HW1 1043   0.114   0.705   2.883  4.6773  2.0285 -2.5888
  348SOL    HW2 1044   0.273   0.715   2.847  3.5209 -0.3166  1.5830
  349SOL     OW 1045   1.861   0.471   2.813 -0.5704 -0.1005 -0.0899
  349SOL    HW1 1046   1.847   0.557   2.760 -0.8366 -2.5175 -0.0237
  349SOL    HW2 1047   1.851   0.473   2.919  1.2379  0.4780 -1.5413
  350SOL     OW 1048   1.666   0.429   0.387 -0.1179 -0.3673  0.0074
  350SOL    HW1 1049   1.751   0.418   0.448  0.1393  0.6898 -0.5717
  350SOL    HW2 1050   1.652   0.529   0.356  0.5995  1.2103  0.0722
  351SOL     OW 1051   1.002   0.809   2.154 -0.3533 -0.6431  0.1903
  351SOL    HW1 1052   0.966   0.900   2.114  1.2608 -0.2360 -0.6853
  351SOL    HW2 1053   1.068   0.763   2.092 -1.3055  0.6365 -1.5078
  352SOL     OW 1054   1.977   1.301   0.663 -0.1073 -0.3217  0.1174
  352SOL    HW1 1055   1.967   1.354   0.569  2.6540  1.0294 -1.1608
  352SOL    HW2 1056   1.900   1.305   0.730  2.2723  0.3243  2.7748
  353SOL     OW 1057   2.142   2.776   1.092  0.0073 -0.3701  0.2778
  353SOL    HW1 1058   2.187   2.747   1.184  2.4654  0.8023 -0.0707
  353SOL    HW2 1059   2.059   2.722   1.053  1.5891 -0.6803 -1.4367
  354SOL     OW 1060   0.250   1.368   2.898 -0.3609 -0.5229  0.0268
  354SOL    HW1 1061   0.241   1.432   2.812  0.4776  0.7666 -2.5907
  354SOL    HW2 1062   0.346   1.376   2.934  1.0910  0.5562  0.0985
  355SOL     OW 1063   0.712   1.577   0.582  0.5335  0.6325  0.1463
  355SOL    HW1 1064   0.735   1.600   0.683 -0.8681 -2.2357  0.8051
  355SOL    HW2 1065   0.697   1.475   0.565  2.5522 -0.0905 -1.8608
  356SOL     OW 1066   0.842   0.335   2.064 -0.5875  0.0881 -0.1209
  356SOL    HW1 1067   0.950   0.315   2.047  2.4280 -2.8649 -1.5425
  356SOL    HW2 1068   0.795   0.369   1.978  0.1867  1.6754 -1.0493
  357SOL     OW 1069   1.006   1.332   0.329 -0.3492  0.6289  0.4961
  357SOL    HW1 1070   1.082   1.336   0.258  3.7963  1.0432  1.9936
  357SOL    HW2 1071   0.978   1.233   0.348 -0.5017 -0.7167 -0.4619
  358SOL     OW 1072   1.675   1.500   0.493  0.3968 -0.0937 -0.2798
  358SOL    HW1 1073   1.636   1.464   0.581 -1.2657  1.1214 -0.0089
  358SOL    HW2 1074   1.618   1.489   0.410 -0.8922  3.9683  2.3053
  359SOL     OW 1075   1.562   2.633   0.206  0.0372  0.0034 -0.0771
  359SOL    HW1 1076   1.582   2.536   0.178 -0.3334  3.2481  0.5345
  359SOL    HW2 1077   1.460   2.650   0.208 -3.1014  0.0282  3.4463
  360SOL     OW 1078   0.823   0.571   0.544 -0.7066 -0.1872  0.2115
  360SOL    HW1 1079   0.724   0.568   0.563  1.1282  2.0450 -3.6973
  360SOL    HW2 1080   0.866   0.478   0.552 -3.2209 -0.4800 -1.0636
  361SOL     OW 1081   1.214   1.301   0.703 -0.4266  0.1086 -0.2920
  361SOL    HW1 1082   1.275   1.376   0.734  0.3228 -1.2831 -0.9063
  361SOL    HW2 1083   1.115   1.330   0.706  0.1707  0.1363 -1.8771
  362SOL     OW 1084   1.401   1.840   0.823  0.6409 -0.2249  0.2504
  362SOL    HW1 1085   1.425   1.774   0.897 -0.4721 -0.8978 -1.1780
  362SOL    HW2 1086   1.483   1.864   0.762 -1.4402 -1.5015 -1.4165
  363SOL     OW 1087   1.223   1.267   2.036 -0.2568  1.1076  0.1715
  363SOL    HW1 1088   1.288   1.304   2.106  0.9191 -0.5256 -2.8637
  363SOL    HW2 1089   1.201   1.338   1.964 -3.0721 -2.2009  1.0430
  364SOL     OW 1090   0.492   2.340   2.003  0.0148  0.2813 -0.1010
  364SOL    HW1 1091   0.399   2.378   1.976  1.9595  1.7724  0.4924
  364SOL    HW2 1092   0.566   2.388   1.954 -0.7518 -3.2740 -1.9481
  365SOL     OW 1093   1.003   1.935   1.378  0.1747  0.4820 -0.5302
  365SOL    HW1 1094   0.912   1.941   1.424  0.7856  0.2049 -0.8953
  365SOL    HW2 1095   1.008   1.962   1.276  0.5069 -0.0063 -0.7657
  366SOL     OW 1096   2.834   2.007   0.391  0.2230 -0.6918 -0.3283
  366SOL    HW1 1097   2.748   1.978   0.445  1.6094 -1.7216 -1.4294
  366SOL    HW2 1098   2.835   1.956   0.305  1.6636  1.5883  1.4186
  367SOL     OW 1099   0.890   1.106   0.066 -0.5641 -0.2286 -0.7764
  367SOL    HW1 1100   0.947   1.030   0.108  0.7159  0.3991 -0.2569
  367SOL    HW2 1101   0.951   1.170   0.016 -0.6222  1.6658  1.1771
  368SOL     OW 1102   1.466   0.569   0.697 -0.5236  0.4168  0.2166
  368SOL    HW1 1103   1.425   0.595   0.607  4.1831  0.1869 -2.7024
  368SOL    HW2 1104   1.560   0.602   0.694 -0.1866  1.2626 -1.8852
  369SOL     OW 1105   0.344   1.689   0.062  0.4425  0.0808  0.0152
  369SOL    HW1 1106   0.392   1.745   0.135 -0.0226  2.4705  0.1254
  369SOL    HW2 1107   0.264   1.628   0.100  1.4185 -3.7609 -0.3667
  370SOL     OW 1108   0.456   2.062   0.986  0.0288 -0.2982  0.0429
  370SOL    HW1 1109   0.448   2.166   0.988  1.2622 -2.7991  0.8630
  370SOL    HW2 1110   0.378   2.020   0.925 -0.5159  1.4021 -0.1769
  371SOL     OW 1111   2.922   2.203   2.646  0.6791  0.5431 -0.0921
  371SOL    HW1 1112   2.865   2.149   2.716  1.2987 -0.2083 -2.1489
  371SOL    HW2 1113   3.014   2.217   2.683 -0.2327  0.3502 -0.1865
  372SOL     OW 1114   1.109   2.021   1.072 -0.5591 -0.3231 -0.1474
  372SOL    HW1 1115   1.032   2.057   1.011  0.4272 -0.2800 -3.3761
  372SOL    HW2 1116   1.202   2.055   1.039  0.5427 -0.7290 -2.1613
  373SOL     OW 1117   2.019   1.984   0.855 -0.4331 -0.4028 -0.2226
  373SOL    HW1 1118   2.061   1.996   0.949  1.4528 -0.7902  0.0084
  373SOL    HW2 1119   1.918   2.002   0.861 -0.5553 -1.5099 -3.1885
  374SOL     OW 1120   1.863   0.386   0.568  0.1032 -0.1751  0.0816
  374SOL    HW1 1121   1.859   0.300   0.629  3.5227  2.5838 -0.6789
  374SOL    HW2 1122   1.967   0.405   0.555  4.6282 -1.2547  0.3192
  375SOL     OW 1123   2.379   2.182   1.087 -0.5210 -0.3603  0.1680
  375SOL    HW1 1124   2.424   2.218   1.002 -2.8523  0.5145  0.9054
  375SOL    HW2 1125   2.445   2.132   1.152 -0.4130 -0.2826 -0.3300
  376SOL     OW 1126   3.073   0.576   1.474  0.5505  0.0509  0.2613
  376SOL    HW1 1127   3.080   0.656   1.544  1.7963  1.1339  2.9861
  376SOL    HW2 1128   2.990   0.520   1.493  1.8833 -0.8987  1.5908
  377SOL     OW 1129   2.204   2.903   0.310 -0.4604  0.4775 -0.4002
  377SOL    HW1 1130   2.197   2.996   0.353 -0.1978 -0.8087 -0.6832
  377SOL    HW2 1131   2.293   2.853   0.325  1.3166  0.2792  0.7922
  378SOL     OW 1132   1.855   1.856   2.611 -0.2279 -0.0030  0.2041
  378SOL    HW1 1133   1.860   1.840   2.713 -1.4079  0.9435  0.4435
  378SOL    HW2 1134   1.823   1.768   2.571  0.2410 -1.9129  0.4765
  379SOL     OW 1135   0.721   0.131   2.900 -0.8032 -0.3347 -0.5003
  379SOL    HW1 1136   0.680   0.038   2.874  0.1414  2.0756  0.0276
  379SOL    HW2 1137   0.753   0.191   2.824  0.2701 -2.4294 -0.4182
  380SOL     OW 1138   1.503   1.136   0.593  0.1377  0.0833  0.1396
  380SOL    HW1 1139   1.404   1.154   0.615 -0.9474  0.5733  2.2347
  380SOL    HW2 1140   1.525   1.038   0.576 -0.1459  1.9704  1.1626
  381SOL     OW 1141   1.376   1.170   1.549 -0.2263 -0.4082 -0.5363
  381SOL    HW1 1142   1.399   1.137   1.456 -1.3048  1.9171  0.2927
  381SOL    HW2 1143   1.435   1.134   1.627  1.2847  2.7725 -1.3364
  382SOL     OW 1144   1.762   0.829   0.180 -0.0079  0.2797  0.0208
  382SOL    HW1 1145   1.780   0.831   0.075 -0.1082  0.7045  0.9293
  382SOL    HW2 1146   1.829   0.895   0.228 -0.5427  0.6424  0.1904
  383SOL     OW 1147   2.605   0.987   1.467 -0.0596  0.5817  0.2108
  383SOL    HW1 1148   2.537   0.921   1.433  0.6713 -3.7811 -0.4214
  383SOL    HW2 1149   2.698   0.977   1.420 -1.2221  0.2498 -1.5223
  384SOL     OW 1150   0.914   2.288   0.144  0.6530 -0.2151 -0.0036
  384SOL    HW1 1151   0.901   2.360   0.220  4.3927  1.2500  0.8872
  384SOL    HW2 1152   0.904   2.191   0.185 -2.2900 -0.4081  2.0744
  385SOL     OW 1153   3.046   2.052   1.655  0.1628  0.1470 -0.0914
  385SOL    HW1 1154   3.114   2.115   1.613 -2.0468 -1.2628  0.4590
  385SOL    HW2 1155   3.069   1.954   1.634 -3.5471 -2.9067 -0.2027
  386SOL     OW 1156   0.496   1.118   0.389  0.5251  0.6796 -0.2151
  386SOL    HW1 1157   0.494   1.016   0.398 -0.9277  0.6853 -1.4971
  386SOL    HW2 1158   0.414   1.150   0.331  1.4072  0.3434  0.9420
  387SOL     OW 1159   0.934   0.335   1.624  0.3360 -0.6720  0.0047
  387SOL    HW1 1160   0.993   0.422   1.627  0.4256 -1.6051 -1.5627
  387SOL    HW2 1161   0.938   0.292   1.533 -1.7023 -0.4618 -0.2485
  388SOL     OW 1162   1.190   2.622   1.749 -0.0778  0.9005 -0.2153
  388SOL    HW1 1163   1.188   2.605   1.650  0.6245 -0.0588  0.1275
  388SOL    HW2 1164   1.268   2.567   1.786  0.5508 -0.9038 -2.6579
  389SOL     OW 1165   0.145   2.979   1.078  0.3702 -0.4654  0.4885
  389SOL    HW1 1166   0.042   2.983   1.066  0.5884 -1.7888 -0.7251
  389SOL    HW2 1167   0.180   2.884   1.082 -1.1366 -2.3591 -2.0829
  390SOL     OW 1168   1.033   0.952   1.350 -0.1404  0.0765  0.1291
  390SOL    HW1 1169   1.130   0.911   1.353  0.0108 -1.3724  0.7084
  390SOL    HW2 1170   1.019   1.036   1.414 -1.6717  1.8353  2.9208
  391SOL     OW 1171   2.096   1.115   1.073 -0.2122 -1.1168  0.5515
  391SOL    HW1 1172   2.074   1.038   1.137  2.7738 -0.6466 -2.3014
  391SOL    HW2 1173   2.139   1.088   0.983 -0.8877  0.4354 -2.3882
  392SOL     OW 1174   0.891   2.708   3.069  0.1421  0.5905 -0.0335
  392SOL    HW1 1175   0.823   2.680   3.137 -2.6350  3.1971  0.4459
  392SOL    HW2 1176   0.984   2.734   3.105 -1.7989 -0.7925  0.8545
  393SOL     OW 1177   0.309   0.504   1.971  0.3299  0.0991 -0.2075
  393SOL    HW1 1178   0.260   0.417   1.945  1.9790  1.5418  0.0148
  393SOL    HW2 1179   0.406   0.495   1.927  3.0871 -0.6955  0.2895
  394SOL     OW 1180   3.035   1.853   2.783  0.3520 -0.4037  0.8332
  394SOL    HW1 1181   3.126   1.878   2.832  0.2432 -2.6963  2.5419
  394SOL    HW2 1182   3.038   1.860   2.682  2.0608 -1.3494  1.1581
  395SOL     OW 1183   1.619   1.924   0.683  0.0279 -0.4600  0.2852
  395SOL    HW1 1184   1.669   1.864   0.611 -1.7335 -2.7674  0.0719
  395SOL    HW2 1185   1.679   1.984   0.746  1.5121 -0.3982  0.1765
  396SOL     OW 1186   2.801   1.922   1.342  0.0423 -0.4179 -0.1703
  396SOL    HW1 1187   2.707   1.886   1.325  5.3160 -2.1827  1.1615
  396SOL    HW2 1188   2.807   1.996   1.416  0.5057 -1.8023  1.4186
  397SOL     OW 1189   1.018   2.217   0.501  0.2105  0.9483  0.1639
  397SOL    HW1 1190   0.916   2.196   0.512  3.7166  0.3655  0.7164
  397SOL    HW2 1191   1.047   2.292   0.567  0.1492  1.7717  3.2189
  398SOL     OW 1192   2.114   3.059   1.059 -0.1447 -0.3096 -0.4245
  398SOL    HW1 1193   2.110   2.960   1.075  1.6346  3.7361  0.1094
  398SOL    HW2 1194   2.071   3.122   1.134  1.6745  1.7233 -0.7739
  399SOL     OW 1195   2.984   2.525   2.604 -0.0534 -0.1519 -1.1320
  399SOL    HW1 1196   2.903   2.502   2.532 -1.6126 -0.9139 -2.0630
  399SOL    HW2 1197   2.953   2.525   2.700  1.9134 -0.3573 -0.1039
  400SOL     OW 1198   0.785   1.619   1.311 -0.2005  0.3483  0.0983
  400SOL    HW1 1199   0.743   1.667   1.396 -0.4751 -0.7969 -1.3784
  400SOL    HW2 1200   0.775   1.666   1.221 -2.3338 -0.1587 -0.9448
  401SOL     OW 1201   1.803   0.100   1.368 -0.3142 -0.4258  0.5592
  401SOL    HW1 1202   1.852   0.105   1.461  0.9870 -0.6269  0.1846
  401SOL    HW2 1203   1.702   0.115   1.368  1.3175 -1.5143 -0.8897
  402SOL     OW 1204   1.323   0.155   3.029 -0.4382  0.1312  0.0767
  402SOL    HW1 1205   1.423   0.132   2.996  2.1097 -0.8635 -3.2822
  402SOL    HW2 1206   1.300   0.255   3.049  0.0899 -0.6788  1.5752
  403SOL     OW 1207   2.304   1.805   0.876  0.0725 -0.1104  0.0393
  403SOL    HW1 1208   2.399   1.798   0.917 -1.9423 -1.3578 -1.5930
  403SOL    HW2 1209   2.251   1.872   0.940  0.3666 -0.2908  0.6965
  404SOL     OW 1210   0.181   2.495   2.820 -0.1842 -0.4725  0.0818
  404SOL    HW1 1211   0.274   2.453   2.824 -0.3988  1.0220  1.0121
  404SOL    HW2 1212   0.181   2.602   2.827  4.0960  0.1151 -0.9278
  405SOL     OW 1213   0.179   2.418   0.636  0.0662 -0.7390  0.4312
  405SOL    HW1 1214   0.161   2.378   0.542 -3.8935 -0.4897  0.9553
  405SOL    HW2 1215   0.250   2.499   0.643  0.4210  1.7593 -2.1797
  406SOL     OW 1216   0.022   1.474   3.003 -0.3011 -0.3387 -0.1365
  406SOL    HW1 1217   0.111   1.426   2.986 -0.3224 -1.4867  1.3925
  406SOL    HW2 1218   0.044   1.577   3.033 -0.1806  2.1645  1.6343
  407SOL     OW 1219   1.591   0.940   0.917  0.1387  0.5460  0.0771
  407SOL    HW1 1220   1.576   0.890   0.831  0.9049  0.7355  1.0320
  407SOL    HW2 1221   1.507   0.989   0.955  1.8873 -1.6175  0.2294
  408SOL     OW 1222   1.598   2.317   0.950 -0.1626  0.2997 -0.3331
  408SOL    HW1 1223   1.655   2.327   0.861 -0.3263 -1.3180  0.5902
  408SOL    HW2 1224   1.557   2.401   0.984  1.3141  1.0449 -0.1215
  409SOL     OW 1225   0.673   0.851   0.707  0.5565 -0.4285 -0.2058
  409SOL    HW1 1226   0.629   0.828   0.613  0.3892 -1.5656 -0.5039
  409SOL    HW2 1227   0.660   0.770   0.770 -0.3408 -0.2151  1.5023
  410SOL     OW 1228   1.247   2.041   1.437 -0.6888  0.5624 -0.5546
  410SOL    HW1 1229   1.316   1.990   1.503  2.9400 -0.1360  5.6239
  410SOL    HW2 1230   1.160   1.987   1.420 -0.0463 -0.0338  1.4987
  411SOL     OW 1231   2.507   1.844   0.017  0.0199 -0.0685  0.2284
  411SOL    HW1 1232   2.425   1.893  -0.024  0.7287  1.5951  0.2357
  411SOL    HW2 1233   2.592   1.855  -0.038 -1.0572 -1.3378  0.4920
  412SOL     OW 1234   1.469   2.534   2.190 -0.7414  0.5313  0.6736
  412SOL    HW1 1235   1.529   2.618   2.209  0.6615 -1.0098 -1.2899
  412SOL    HW2 1236   1.396   2.513   2.262 -1.6193  3.4651 -0.5582
  413SOL     OW 1237   3.088   0.291   2.938 -0.4161  0.5496  0.4646
  413SOL    HW1 1238   3.062   0.194   2.959  1.2540  0.1483 -1.1688
  413SOL    HW2 1239   3.175   0.312   2.994  0.6270  0.2852  2.6477
  414SOL     OW 1240   1.826   1.449   1.244  0.3212 -0.0891 -0.6264
  414SOL    HW1 1241   1.764   1.506   1.306 -1.6840 -0.3141  0.2699
  414SOL    HW2 1242   1.769   1.367   1.199  0.5313 -1.8435 -0.2546
  415SOL     OW 1243   0.290   2.176   0.739  0.1127  0.0669 -0.0842
  415SOL    HW1 1244   0.286   2.277   0.764 -1.1595  1.5588  0.0014
  415SOL    HW2 1245   0.201   2.133   0.748  2.8927  0.3757  0.2921
  416SOL     OW 1246   0.357   1.050   1.053 -0.3570 -0.5503 -0.0391
  416SOL    HW1 1247   0.312   1.019   0.965 -1.8402  1.1492 -0.7743
  416SOL    HW2 1248   0.441   1.111   1.044 -3.0104 -1.5939  0.2741
  417SOL     OW 1249   2.141   2.302   1.914  0.1501 -0.5655  0.2123
  417SOL    HW1 1250   2.193   2.211   1.917 -0.5151  0.0272  1.8409
  417SOL    HW2 1251   2.041   2.288   1.899 -1.1320  0.0667  0.7699
  418SOL     OW 1252   1.133   0.501   1.321  0.0083  0.0972  0.5305
  418SOL    HW1 1253   1.046   0.451   1.280  0.9812  0.9496  1.6423
  418SOL    HW2 1254   1.185   0.549   1.244  1.8139 -0.2835 -1.7400
  419SOL     OW 1255   0.968   0.375   3.037 -0.4004  0.2411  0.1708
  419SOL    HW1 1256   0.966   0.409   2.941 -1.4799 -1.9535 -0.7642
  419SOL    HW2 1257   0.884   0.323   3.073 -2.8042  3.1323 -0.9367
  420SOL     OW 1258   0.109   2.263   0.395 -0.2613 -0.0772  0.4802
  420SOL    HW1 1259   0.056   2.264   0.307 -1.6194 -0.5966  0.3989
  420SOL    HW2 1260   0.064   2.203   0.464  0.3999 -0.0418  0.5600
  421SOL     OW 1261   0.320   2.948   0.704  0.3211 -0.8826  0.3413
  421SOL    HW1 1262   0.302   2.903   0.792  0.0604  1.6521 -1.5238
  421SOL    HW2 1263   0.419   2.976   0.697 -0.1404  1.1656 -0.8433
  422SOL     OW 1264   1.000   2.561   1.032  0.2847 -0.4790 -0.1116
  422SOL    HW1 1265   1.072   2.606   0.970  2.4539  0.3579 -0.6993
  422SOL    HW2 1266   1.015   2.567   1.133 -2.0996 -0.1528  1.3666
  423SOL     OW 1267   0.121   0.674   1.262  0.5193 -0.6057 -0.0754
  423SOL    HW1 1268   0.084   0.627   1.354 -0.2214 -0.0247  0.0475
  423SOL    HW2 1269   0.049   0.741   1.224 -2.0065  0.6526 -1.6248
  424SOL     OW 1270   1.032   2.238   2.047  0.2923 -0.2218  0.3027
  424SOL    HW1 1271   1.016   2.339   2.031 -0.8528 -0.4813  2.9169
  424SOL    HW2 1272   1.019   2.214   2.147 -2.1203 -0.5895 -1.4146
  425SOL     OW 1273   1.992   1.433   0.976  0.1936 -0.2033  0.3447
  425SOL    HW1 1274   2.028   1.333   0.991  2.1807  0.4737 -0.3595
  425SOL    HW2 1275   2.063   1.498   0.931 -1.1769 -0.9629  0.1508
  426SOL     OW 1276   1.548   1.573   1.381  0.1634  0.6813  0.0195
  426SOL    HW1 1277   1.523   1.661   1.325 -1.9161  0.2809 -0.4501
  426SOL    HW2 1278   1.474   1.540   1.443  1.9184  0.2069 -3.5437
  427SOL     OW 1279   1.852   2.344   2.056 -0.0408 -0.0265 -0.2563
  427SOL    HW1 1280   1.929   2.285   2.100  2.1744 -2.5028 -1.5805
  427SOL    HW2 1281   1.874   2.446   2.052  1.0821 -0.8970  0.8065
  428SOL     OW 1282   0.862   2.996   0.192 -0.3146  0.6652 -0.3445
  428SOL    HW1 1283   0.845   3.085   0.142 -0.7188 -1.2337  1.7186
  428SOL    HW2 1284   0.948   2.944   0.169 -0.0007  1.2921  0.7718
  429SOL     OW 1285   1.334   0.101   0.222 -0.2218  0.2515  0.1672
  429SOL    HW1 1286   1.420   0.153   0.254 -1.1675  0.8753 -0.1643
  429SOL    HW2 1287   1.327   0.108   0.120 -0.0618  0.5692  0.2326
  430SOL     OW 1288   2.792   1.421   0.391  0.4216 -0.0675 -0.0772
  430SOL    HW1 1289   2.846   1.463   0.311 -0.3068  0.7563 -1.5324
  430SOL    HW2 1290   2.801   1.474   0.478 -1.1150 -3.5707 -0.6082
  431SOL     OW 1291   2.163   1.578   0.813 -0.0872 -0.1703  0.4598
  431SOL    HW1 1292   2.242   1.646   0.830  2.4610  0.9675 -1.3960
  431SOL    HW2 1293   2.084   1.627   0.765  0.7366 -1.0646 -3.5684
  432SOL     OW 1294   2.882   2.239   1.244  0.7587  0.5978 -0.2010
  432SOL    HW1 1295   2.815   2.160   1.252 -0.1723  1.5765 -0.1136
  432SOL    HW2 1296   2.914   2.264   1.337 -2.5627 -2.7312 -1.2639
  433SOL     OW 1297   1.935   0.391   0.868  0.2022 -0.1007  0.2881
  433SOL    HW1 1298   1.869   0.328   0.913 -0.7084 -0.3766 -0.5785
  433SOL    HW2 1299   2.018   0.405   0.929  0.4875  0.3712 -0.1822
  434SOL     OW 1300   1.531   0.304   0.783  0.2394 -0.2738  0.1223
  434SOL    HW1 1301   1.511   0.402   0.759 -1.1669  3.1442 -0.5172
  434SOL    HW2 1302   1.608   0.287   0.846 -0.1760 -0.3086 -1.7557
  435SOL     OW 1303   1.433   1.436   2.151  0.0008  0.1643  1.1668
  435SOL    HW1 1304   1.368   1.485   2.207  1.8192 -2.2759 -2.8943
  435SOL    HW2 1305   1.450   1.487   2.062 -1.4366  3.2877  0.9646
  436SOL     OW 1306   1.686   2.724   2.234  0.0950  0.0925 -0.8905
  436SOL    HW1 1307   1.639   2.804   2.286 -2.1297  2.9336 -1.3316
  436SOL    HW2 1308   1.716   2.642   2.297 -0.8723  0.4046 -0.7306
  437SOL     OW 1309   1.044   2.915   0.911 -0.2921  0.2611 -0.0568
  437SOL    HW1 1310   1.017   3.010   0.872 -1.7836 -0.1936  2.2690
  437SOL    HW2 1311   1.012   2.888   1.007  0.0497  0.6289 -2.0988
  438SOL     OW 1312   1.032   2.572   1.313  0.2306  0.1961  0.1554
  438SOL    HW1 1313   1.091   2.604   1.389 -1.0662  0.9054 -0.0236
  438SOL    HW2 1314   1.007   2.468   1.320 -0.2514 -1.2726 -1.3253
  439SOL     OW 1315   0.710   1.716   1.060  0.0997 -0.4993  0.1609
  439SOL    HW1 1316   0.727   1.815   1.037  2.0676 -0.2866 -1.0268
  439SOL    HW2 1317   0.609   1.698   1.075 -0.7563 -0.9500 -1.5051
  440SOL     OW 1318   0.987   2.490   1.951  0.5563  0.1252  0.5002
  440SOL    HW1 1319   0.944   2.511   1.861  1.7581  0.8974 -2.1412
  440SOL    HW2 1320   1.081   2.533   1.955 -0.6405  0.9201  0.2602
  441SOL     OW 1321   0.419   2.753   1.395  0.9744 -0.4331 -0.1311
  441SOL    HW1 1322   0.452   2.657   1.402 -0.5643 -0.7243 -1.0580
  441SOL    HW2 1323   0.371   2.768   1.301 -1.9861 -1.4833  0.6799
  442SOL     OW 1324   2.313   0.666   2.483  0.3313 -0.0532 -0.5189
  442SOL    HW1 1325   2.308   0.561   2.496  0.8604 -1.2648 -0.7223
  442SOL    HW2 1326   2.218   0.710   2.494  1.1776 -0.3016 -2.9828
  443SOL     OW 1327   1.209   2.731   2.187  0.2632  0.3088 -0.4410
  443SOL    HW1 1328   1.278   2.733   2.269 -0.7427 -3.7718 -0.7294
  443SOL    HW2 1329   1.174   2.636   2.181  1.1353 -1.9419  0.3062
  444SOL     OW 1330   1.146   1.317   1.602 -0.5972  0.4872  0.4257
  444SOL    HW1 1331   1.240   1.270   1.595  1.1062  0.6814  0.1201
  444SOL    HW2 1332   1.145   1.378   1.685  0.0149 -1.3866  0.4432
  445SOL     OW 1333   0.015   2.417   1.889 -0.6145 -0.1510 -0.2206
  445SOL    HW1 1334   0.003   2.496   1.822  1.2495  2.3718 -0.5909
  445SOL    HW2 1335  -0.070   2.393   1.934 -0.2264  1.1799  0.4327
  446SOL     OW 1336   0.271   1.918   2.359  0.0747 -0.3163  0.5403
  446SOL    HW1 1337   0.207   1.980   2.405  0.6590  2.7829  2.7485
  446SOL    HW2 1338   0.219   1.856   2.296  0.5631  1.0170  2.2677
  447SOL     OW 1339   1.234   1.713   1.922  0.3815  0.2128  0.5042
  447SOL    HW1 1340   1.140   1.754   1.917 -0.3703 -1.0453 -2.2817
  447SOL    HW2 1341   1.305   1.776   1.962 -0.1830 -1.1260  2.0773
  448SOL     OW 1342   0.130   1.469   1.998  0.1841 -0.0328 -0.1324
  448SOL    HW1 1343   0.116   1.561   1.951  4.2984  1.4940 -0.5231
  448SOL    HW2 1344   0.104   1.474   2.094 -0.7485  1.9410 -2.6122
  449SOL     OW 1345   1.848   3.010   0.859  0.3785 -0.1048 -0.0199
  449SOL    HW1 1346   1.906   3.013   0.947  4.1343  1.5779 -1.3870
  449SOL    HW2 1347   1.867   2.921   0.804  0.2589  1.7120 -1.6206
  450SOL     OW 1348   2.391   1.465   0.708 -0.4552 -0.1756 -0.2858
  450SOL    HW1 1349   2.291   1.478   0.730  1.2129  0.2768 -0.5251
  450SOL    HW2 1350   2.406   1.504   0.615  1.1033  1.3910  0.9750
  451SOL     OW 1351   1.378   3.001   1.434 -0.0417 -0.0046  0.0466
  451SOL    HW1 1352   1.317   3.085   1.430  0.5709  0.4284 -0.4788
  451SOL    HW2 1353   1.378   2.954   1.528  0.1386 -0.1420  1.3414
  452SOL     OW 1354   2.710   2.280   2.181  0.0935  0.3389 -0.1103
  452SOL    HW1 1355   2.643   2.354   2.202  0.5294 -2.3044 -1.7528
  452SOL    HW2 1356   2.764   2.247   2.264  0.5406  1.4532  1.7155
  453SOL     OW 1357   2.468   2.648   0.013  0.0627  0.3794  0.3127
  453SOL    HW1 1358   2.391   2.710   0.020  3.3505  0.6555  0.8869
  453SOL    HW2 1359   2.460   2.588  -0.071 -1.3807  3.6241  1.0025
  454SOL     OW 1360   0.961   1.149   2.094  0.3528  0.2440  0.1486
  454SOL    HW1 1361   0.959   1.154   1.989  0.5767 -1.4880  0.6686
  454SOL    HW2 1362   1.040   1.203   2.130 -0.1777 -0.4460  0.0612
  455SOL     OW 1363   0.635   2.692   2.906  0.1145 -0.1069  1.0647
  455SOL    HW1 1364   0.733   2.714   2.950  1.3924  1.5154  2.7737
  455SOL    HW2 1365   0.612   2.593   2.929 -1.6231 -0.3860  0.9178
  456SOL     OW 1366   0.450   1.868   0.248 -0.2575 -0.6627 -0.2371
  456SOL    HW1 1367   0.523   1.819   0.300 -0.3332  2.4082 -0.8881
  456SOL    HW2 1368   0.469   1.971   0.246  0.6897 -0.2646 -1.4168
  457SOL     OW 1369   0.324   2.639   0.608 -0.4756  0.3809  0.7225
  457SOL    HW1 1370   0.324   2.732   0.569  2.3019  1.4601 -1.5259
  457SOL    HW2 1371   0.385   2.571   0.562 -1.5535  1.4907  2.4466
  458SOL     OW 1372   2.916   3.074   1.263  0.3432 -0.4298 -0.1631
  458SOL    HW1 1373   2.969   3.158   1.281 -0.4228 -0.5353 -2.8420
  458SOL    HW2 1374   2.939   3.035   1.171  0.4261 -0.4699 -1.1647
  459SOL     OW 1375   2.135   2.575   0.796  0.3812 -0.5758  0.9051
  459SOL    HW1 1376   2.183   2.660   0.820 -0.1515 -2.4423 -1.0951
  459SOL    HW2 1377   2.145   2.553   0.695  3.4211 -0.7991  1.2303
  460SOL     OW 1378   1.244   2.037   2.836  0.0090 -0.5973  0.0505
  460SOL    HW1 1379   1.236   2.109   2.762  1.7682  0.9473  3.1986
  460SOL    HW2 1380   1.243   1.940   2.795 -1.7507  1.2847  0.4814
  461SOL     OW 1381   0.549   2.123   2.638  0.0085 -0.3864  0.1291
  461SOL    HW1 1382   0.500   2.029   2.628  1.4060 -2.7782  0.6377
  461SOL    HW2 1383   0.602   2.126   2.727  0.2374 -3.0954  1.4472
  462SOL     OW 1384   0.964   1.156   1.820 -0.3058  0.0790 -0.1674
  462SOL    HW1 1385   1.027   1.108   1.746 -1.3550 -2.5559  0.0634
  462SOL    HW2 1386   0.908   1.241   1.790 -2.9341 -0.4340  1.2695
  463SOL     OW 1387   0.475   0.843   0.478  0.0087 -0.2573 -0.7438
  463SOL    HW1 1388   0.505   0.750   0.517 -1.7974 -0.4106 -1.0526
  463SOL    HW2 1389   0.374   0.844   0.486 -0.9031 -1.3225  0.9405
  464SOL     OW 1390   0.633   2.294   2.243  0.4848  0.0661  0.1024
  464SOL    HW1 1391   0.587   2.359   2.307  0.3403 -1.3502 -2.1600
  464SOL    HW2 1392   0.577   2.292   2.154 -3.3051 -0.7140  1.1807
  465SOL     OW 1393   0.261   0.954   0.780  0.7739  0.0960 -0.6415
  465SOL    HW1 1394   0.170   0.981   0.752  0.1472  1.4168  1.3666
  465SOL    HW2 1395   0.280   0.849   0.771  1.6080 -1.7420 -2.3649
  466SOL     OW 1396   1.410   1.147   1.002  0.1679 -0.5546  0.0644
  466SOL    HW1 1397   1.434   1.244   0.978  0.8725 -1.7881  1.9396
  466SOL    HW2 1398   1.315   1.140   1.030  1.1376  1.2987  0.5748
  467SOL     OW 1399   0.502   0.359   2.400 -0.6058 -0.4951  0.3134
  467SOL    HW1 1400   0.451   0.446   2.410  0.8887 -1.5010 -2.6102
  467SOL    HW2 1401   0.508   0.306   2.485  1.4171 -0.1322 -0.2278
  468SOL     OW 1402   0.468   2.284   1.658 -0.1369 -0.2025 -0.0343
  468SOL    HW1 1403   0.529   2.358   1.701  0.6152  2.0688  1.2478
  468SOL    HW2 1404   0.440   2.315   1.566 -4.3491  1.8162  2.9763
  469SOL     OW 1405   1.465   1.408   1.165  0.3646  0.8789  0.3240
  469SOL    HW1 1406   1.552   1.351   1.160  0.5291 -3.9436  0.5196
  469SOL    HW2 1407   1.478   1.494   1.225  0.1621 -0.1852 -0.3621
  470SOL     OW 1408   3.019   1.712   0.701  0.0855 -0.7116  0.1191
  470SOL    HW1 1409   3.087   1.794   0.685  0.5462 -2.3735  0.1789
  470SOL    HW2 1410   2.992   1.706   0.799  0.2889 -0.0143 -2.0232
  471SOL     OW 1411   2.702   1.265   2.136  0.2274  0.1105 -0.4819
  471SOL    HW1 1412   2.662   1.228   2.228  0.8657  1.7200 -1.8972
  471SOL    HW2 1413   2.755   1.354   2.146 -0.9906  2.1125  0.2582
  472SOL     OW 1414   1.164   2.457   0.024  0.5350  0.3265 -0.8300
  472SOL    HW1 1415   1.228   2.440   0.103 -1.3800 -1.1730 -0.0017
  472SOL    HW2 1416   1.067   2.456   0.060  1.7480 -0.9098  1.6500
  473SOL     OW 1417   1.080   1.545   1.010  0.0845 -0.1613 -0.0899
  473SOL    HW1 1418   0.988   1.553   0.971  0.3633  1.9971 -0.3817
  473SOL    HW2 1419   1.100   1.458   1.068  0.0608  1.0663  2.3594
  474SOL     OW 1420   0.670   1.291   0.572  0.2964  0.0904  0.3632
  474SOL    HW1 1421   0.644   1.259   0.476  0.7976  1.0835  0.8410
  474SOL    HW2 1422   0.726   1.216   0.622 -1.1116  0.9325  0.5181
  475SOL     OW 1423   2.841   0.063   0.785 -0.0349  0.5670  0.2136
  475SOL    HW1 1424   2.924   0.096   0.840 -0.8795 -0.4039 -1.2922
  475SOL    HW2 1425   2.750   0.108   0.809  2.3172 -1.0314 -2.4739
  476SOL     OW 1426   0.993   3.052   1.818 -0.0046 -0.3296 -0.0315
  476SOL    HW1 1427   1.025   2.978   1.885 -0.1114 -1.5610 -0.3491
  476SOL    HW2 1428   1.021   3.032   1.717  0.4546  0.0153 -1.8112
  477SOL     OW 1429   1.442   0.328   2.480  1.0512 -0.2651  0.4227
  477SOL    HW1 1430   1.422   0.331   2.580 -3.0341  0.2052 -0.5527
  477SOL    HW2 1431   1.532   0.283   2.459 -1.7491  1.6160  0.0780
  478SOL     OW 1432   2.219   1.847   0.206 -0.2679 -0.0717  0.4382
  478SOL    HW1 1433   2.146   1.779   0.238 -2.0790 -0.2437 -2.6125
  478SOL    HW2 1434   2.321   1.813   0.218 -2.3683 -1.8065  0.4033
  479SOL     OW 1435   1.274   1.033   2.922  0.6288  0.7272  0.0620
  479SOL    HW1 1436   1.355   1.011   2.856 -2.8141 -1.8756  1.6280
  479SOL    HW2 1437   1.180   0.997   2.892 -0.3422 -1.1514  1.9821
  480SOL     OW 1438   2.597   2.359   0.393 -1.1244  0.2311  0.2679
  480SOL    HW1 1439   2.550   2.284   0.443  1.0255 -0.0002 -0.4434
  480SOL    HW2 1440   2.539   2.393   0.314  0.7595  0.8709  0.0204
  481SOL     OW 1441   0.983   1.134   0.879  0.1834 -0.3451 -0.4702
  481SOL    HW1 1442   0.987   1.230   0.835  0.0675 -0.6728 -0.0686
  481SOL    HW2 1443   1.045   1.119   0.963 -0.6614 -0.3400  0.0238
  482SOL     OW 1444   1.580   0.277   2.040 -0.3619 -0.4387  0.1494
  482SOL    HW1 1445   1.568   0.378   2.045 -0.9703 -4.4165  1.3606
  482SOL    HW2 1446   1.662   0.246   2.094  2.8134  0.1234 -1.3954
  483SOL     OW 1447   0.125   2.328   1.270 -0.3570  0.1403  0.1720
  483SOL    HW1 1448   0.044   2.337   1.334 -1.2235 -1.6377 -0.4342
  483SOL    HW2 1449   0.163   2.422   1.248  0.1056  1.2522 -0.6543
  484SOL     OW 1450   1.747   1.092   1.341 -0.3196 -0.1714  0.2676
  484SOL    HW1 1451   1.817   1.013   1.359  0.9425 -0.2117 -1.0576
  484SOL    HW2 1452   1.760   1.172   1.406 -0.9333  0.9188 -1.7130
  485SOL     OW 1453   0.714   1.029   1.814  0.1897  0.5270  0.1133
  485SOL    HW1 1454   0.713   1.005   1.715  4.4561 -0.6171  0.5009
  485SOL    HW2 1455   0.806   1.063   1.851 -2.4612 -0.1231  0.8341
  486SOL     OW 1456   0.824   1.922   2.452  0.0603  0.5610  0.6377
  486SOL    HW1 1457   0.890   1.903   2.534  2.2403 -1.4653  0.3933
  486SOL    HW2 1458   0.815   2.028   2.446  0.6234 -1.3456  1.3599
  487SOL     OW 1459   1.816   1.669   0.953  0.3630  0.0763 -0.3617
  487SOL    HW1 1460   1.877   1.587   0.962  0.0049 -1.8797  1.8703
  487SOL    HW2 1461   1.831   1.712   0.860  1.3649  2.8547  3.2616
  488SOL     OW 1462   2.978   0.871   2.219  0.3418 -0.4677  0.6978
  488SOL    HW1 1463   3.017   0.780   2.188  0.8232 -0.2107 -0.3043
  488SOL    HW2 1464   2.991   0.883   2.322 -0.2577 -0.9211  0.8727
  489SOL     OW 1465   2.772   0.278   1.271 -0.0741 -0.8309  0.4182
  489SOL    HW1 1466   2.745   0.311   1.366  1.1447 -2.4413 -2.2109
  489SOL    HW2 1467   2.867   0.227   1.275  0.6012 -0.2563 -1.7091
  490SOL     OW 1468   1.516   2.965   2.768 -0.4993  0.3765 -0.0641
  490SOL    HW1 1469   1.555   2.869   2.770  0.1713 -0.5342  0.1103
  490SOL    HW2 1470   1.452   2.982   2.686 -1.2668 -0.6408  1.5733
  491SOL     OW 1471   1.754   1.456   2.630  0.4648  0.4306 -0.0465
  491SOL    HW1 1472   1.666   1.481   2.677 -0.7127  1.5110 -0.7715
  491SOL    HW2 1473   1.839   1.498   2.671 -0.9231 -0.0756 -1.2669
  492SOL     OW 1474   0.536   2.064   0.674 -0.8265 -0.7281  0.2766
  492SOL    HW1 1475   0.575   2.032   0.762  1.9927 -3.5438 -0.2811
  492SOL    HW2 1476   0.436   2.105   0.678 -0.8670 -0.2685  0.9245
  493SOL     OW 1477   0.410   1.424   2.023 -1.0242 -0.3178  0.1839
  493SOL    HW1 1478   0.321   1.451   1.991  0.2182 -1.7285  0.2902
  493SOL    HW2 1479   0.407   1.356   2.104 -0.0820 -0.5471  1.2825
  494SOL     OW 1480   2.732   2.684   0.158 -0.3420 -0.2766  0.0666
  494SOL    HW1 1481   2.747   2.618   0.235  2.3110 -0.8625 -1.2644
  494SOL    HW2 1482   2.644   2.681   0.107  2.2279 -1.6843  2.9316
  495SOL     OW 1483   2.697   2.689   2.749  0.1208 -0.2511  0.0613
  495SOL    HW1 1484   2.635   2.601   2.726 -0.6710 -3.1238 -0.2960
  495SOL    HW2 1485   2.739   2.728   2.660 -1.1334 -1.3499 -3.1139
  496SOL     OW 1486   2.088   2.237   0.697  0.2056  0.3973  0.0081
  496SOL    HW1 1487   2.100   2.276   0.790  0.6563  3.3377 -2.5035
  496SOL    HW2 1488   2.128   2.142   0.685 -0.7531  0.1920  0.2145
  497SOL     OW 1489   0.253   2.978   2.412  0.3583  0.4616 -0.1310
  497SOL    HW1 1490   0.204   3.053   2.462 -0.5997 -2.9340  0.1513
  497SOL    HW2 1491   0.295   3.013   2.326 -0.5896 -0.5182  0.8821
  498SOL     OW 1492   1.178   1.358   1.217  0.2734  0.3020  0.3740
  498SOL    HW1 1493   1.275   1.383   1.187  1.0158 -0.6706  2.3833
  498SOL    HW2 1494   1.161   1.398   1.312  0.5141 -1.0022  1.9769
  499SOL     OW 1495   0.677   1.815   0.428  0.0062  0.4811  0.6207
  499SOL    HW1 1496   0.693   1.714   0.440  1.2998  2.7019  1.0508
  499SOL    HW2 1497   0.761   1.874   0.442  1.4773  1.4483  0.3358
  500SOL     OW 1498   1.403   2.840   1.651 -0.2814  0.3146  0.5997
  500SOL    HW1 1499   1.327   2.770   1.683  1.4958 -6.2055  1.6973
  500SOL    HW2 1500   1.491   2.785   1.655 -0.7745 -0.5342 -0.7819
  501SOL     OW 1501   0.786   1.144   2.306 -0.1920  0.1621  0.1458
  501SOL    HW1 1502   0.698   1.101   2.287  2.9307  0.1436 -0.4014
  501SOL    HW2 1503   0.842   1.144   2.213  0.9886 -0.3455 -0.3411
  502SOL     OW 1504   2.577   0.979   1.736  0.0343 -0.0515  0.4745
  502SOL    HW1 1505   2.577   0.988   1.632  0.2998  0.3710 -1.2664
  502SOL    HW2 1506   2.544   0.881   1.767  1.1246  0.2318  0.7945
  503SOL     OW 1507   1.326   0.117   0.704 -0.1265 -0.3009 -0.2027
  503SOL    HW1 1508   1.285   0.185   0.634 -0.1225 -0.4311  1.8329
  503SOL    HW2 1509   1.404   0.166   0.756  1.4105 -0.3145  0.4377
  504SOL     OW 1510   2.997   2.335   1.479  0.1131 -0.2908 -0.0421
  504SOL    HW1 1511   2.933   2.406   1.518  0.8845 -1.1135 -1.8274
  504SOL    HW2 1512   3.033   2.268   1.543 -2.1276 -3.1041 -4.3594
  505SOL     OW 1513   2.322   1.189   1.432 -0.0049 -0.1339  0.2262
  505SOL    HW1 1514   2.298   1.192   1.326  1.5491 -0.8253 -3.6441
  505SOL    HW2 1515   2.417   1.233   1.450 -1.3279 -2.0208 -0.7394
  506SOL     OW 1516   1.968   0.173   1.812  0.3863 -0.4959  0.2947
  506SOL    HW1 1517   2.040   0.104   1.853  2.8407 -2.0126  1.0877
  506SOL    HW2 1518   1.953   0.263   1.869 -0.1600  0.8028  1.0811
  507SOL     OW 1519   0.523   0.679   2.137  0.5948 -0.1254 -0.0582
  507SOL    HW1 1520   0.448   0.641   2.073 -0.9185 -0.3614  2.0424
  507SOL    HW2 1521   0.614   0.638   2.120 -4.9551  2.8070  2.6051
  508SOL     OW 1522   0.296   1.629   0.805  0.1992  0.2111 -0.2263
  508SOL    HW1 1523   0.371   1.672   0.751 -0.2373 -0.0500  0.7654
  508SOL    HW2 1524   0.260   1.679   0.887 -2.7452 -0.0937 -1.2632
  509SOL     OW 1525   1.191   1.277   2.350  0.6337  0.4171 -0.0805
  509SOL    HW1 1526   1.228   1.187   2.299  0.7772 -2.2140  0.0757
  509SOL    HW2 1527   1.120   1.249   2.416 -1.5701 -0.7839  1.7436
  510SOL     OW 1528   1.264   2.051   2.194 -0.0517 -0.7534 -0.3958
  510SOL    HW1 1529   1.276   2.115   2.106  0.7117  0.0765  0.6891
  510SOL    HW2 1530   1.168   2.057   2.227  0.9011 -0.3088 -2.1927
  511SOL     OW 1531   3.039   2.737   1.307  0.7989  0.7325  0.5355
  511SOL    HW1 1532   3.012   2.709   1.211 -0.8141 -2.5432 -1.6654
  511SOL    HW2 1533   2.958   2.752   1.369 -0.4050 -1.1302  1.0716
  512SOL     OW 1534   2.381   0.391   1.380  0.1434 -0.4206 -0.0746
  512SOL    HW1 1535   2.277   0.406   1.373 -2.0972  0.4947 -0.4557
  512SOL    HW2 1536   2.414   0.349   1.294  3.3410 -2.8396 -0.0627
  513SOL     OW 1537   2.583   2.074   0.879 -0.0096 -0.6286 -0.5828
  513SOL    HW1 1538   2.535   2.130   0.804 -0.7428  0.4874  0.3421
  513SOL    HW2 1539   2.682   2.056   0.863 -3.5062  3.7215 -1.1586
  514SOL     OW 1540   0.617   2.743   0.432  0.1631  0.1961 -0.5434
  514SOL    HW1 1541   0.612   2.793   0.343 -1.6558 -0.3044 -0.8332
  514SOL    HW2 1542   0.663   2.792   0.511 -1.1886  0.7396 -1.2750
  515SOL     OW 1543   1.971   1.224   2.371  0.7000 -0.1741 -0.1270
  515SOL    HW1 1544   2.000   1.209   2.273 -0.0432 -2.3955 -2.4841
  515SOL    HW2 1545   1.877   1.201   2.407 -2.0930 -2.1456  1.3389
  516SOL     OW 1546   0.231   0.262   1.881 -0.7578  0.2776 -0.6322
  516SOL    HW1 1547   0.333   0.239   1.889  2.8400  0.6338 -1.1153
  516SOL    HW2 1548   0.165   0.188   1.908 -1.1661  2.1221  1.2883
  517SOL     OW 1549   0.398   0.009   1.119  0.4361 -0.3452  0.2954
  517SOL    HW1 1550   0.432   0.097   1.166  0.6035  0.9709  0.4713
  517SOL    HW2 1551   0.294  -0.004   1.104 -0.9349  1.3375 -1.4663
  518SOL     OW 1552   2.179   3.052   1.828 -0.0641  0.7135  0.0587
  518SOL    HW1 1553   2.234   3.135   1.868 -0.1364 -0.0544  0.7647
  518SOL    HW2 1554   2.214   3.035   1.730  2.8532 -1.9390  1.0397
  519SOL     OW 1555   2.344   2.151   2.511 -0.8575  0.0358  0.4564
  519SOL    HW1 1556   2.304   2.134   2.604  0.0619  1.3144 -0.8354
  519SOL    HW2 1557   2.375   2.251   2.502  0.9022 -0.4360  1.9209
  520SOL     OW 1558   1.822   2.749   1.777 -0.4867  0.6229 -0.4532
  520SOL    HW1 1559   1.730   2.760   1.821  0.4227  0.9476 -0.5203
  520SOL    HW2 1560   1.845   2.655   1.736  0.8881 -0.1179  0.7361
  521SOL     OW 1561   0.575   3.065   2.071  0.0617  0.4250  1.1428
  521SOL    HW1 1562   0.480   3.034   2.098 -0.7969 -2.1070  1.3383
  521SOL    HW2 1563   0.637   3.049   2.154 -0.1393  1.3481  0.7998
  522SOL     OW 1564   0.245   1.873   1.470  0.1548  0.0929  0.3565
  522SOL    HW1 1565   0.282   1.932   1.546  1.0778 -1.9416 -0.7937
  522SOL    HW2 1566   0.186   1.925   1.402  0.0430 -0.9072 -0.0831
  523SOL     OW 1567   2.224   2.954   1.561  0.3646  0.3295  0.2627
  523SOL    HW1 1568   2.319   2.914   1.559 -0.6576  3.5697 -0.8258
  523SOL    HW2 1569   2.151   2.906   1.503  1.1670  1.4741  4.4181
  524SOL     OW 1570   0.175   2.795   2.807  0.1737  0.2783 -0.2709
  524SOL    HW1 1571   0.132   2.890   2.801  0.7420 -2.6554 -0.8673
  524SOL    HW2 1572   0.280   2.794   2.801 -1.1799  0.3301 -0.7591
  525SOL     OW 1573   2.169   2.035   0.393  0.1844  0.1767  0.3491
  525SOL    HW1 1574   2.194   1.978   0.477 -1.2461  1.9248  3.8055
  525SOL    HW2 1575   2.197   1.992   0.305 -2.2370 -0.4956  1.8847
  526SOL     OW 1576   0.452   1.517   1.651 -0.3778  0.6315 -0.0060
  526SOL    HW1 1577   0.515   1.554   1.726 -2.4051  2.4336 -1.1671
  526SOL    HW2 1578   0.458   1.419   1.627  1.0278 -0.0291  3.4038
  527SOL     OW 1579   1.030   2.889   1.237  0.3654  0.3957 -0.2272
  527SOL    HW1 1580   1.122   2.839   1.236  2.2954  1.5436  2.6108
  527SOL    HW2 1581   1.044   2.990   1.225  2.0269 -0.0357 -0.6967
  528SOL     OW 1582   1.381   2.393   0.539  0.1299  0.8623 -0.1952
  528SOL    HW1 1583   1.402   2.294   0.541  0.1968  1.0689  0.9559
  528SOL    HW2 1584   1.440   2.454   0.601 -0.3701  1.1255 -1.9640
  529SOL     OW 1585   1.970   1.741   0.720 -0.1443 -0.1380 -0.0709
  529SOL    HW1 1586   1.919   1.763   0.634  2.7580  0.3500 -2.0125
  529SOL    HW2 1587   1.998   1.818   0.783 -1.3534  0.1923 -2.4886
  530SOL     OW 1588   0.328   2.611   0.263 -0.1097 -0.6386  0.3283
  530SOL    HW1 1589   0.327   2.684   0.334  1.7937 -0.4197 -2.8827
  530SOL    HW2 1590   0.335   2.511   0.299  4.4217 -0.6314 -0.2005
  531SOL     OW 1591   1.839   1.005   1.003  0.5135 -0.8841 -0.7642
  531SOL    HW1 1592   1.864   1.103   0.980 -0.8142  0.4844 -1.8137
  531SOL    HW2 1593   1.753   0.974   0.959 -1.6481  2.0205  0.4423
  532SOL     OW 1594   0.372   1.182   0.698 -0.1616 -0.1374  0.7731
  532SOL    HW1 1595   0.401   1.176   0.600 -0.5557 -2.0197  2.3911
  532SOL    HW2 1596   0.340   1.086   0.729 -0.6500  1.0380 -2.5777
  533SOL     OW 1597   1.746   0.014   2.578 -0.7882 -0.2215  0.1794
  533SOL    HW1 1598   1.841  -0.013   2.608  1.2485  0.1805  0.8776
  533SOL    HW2 1599   1.707   0.095   2.626 -0.4870  2.2486  0.2749
  534SOL     OW 1600   0.339   0.186   1.608  0.3647  0.2669  0.4025
  534SOL    HW1 1601   0.384   0.194   1.515 -1.0683  0.7957  1.8968
  534SOL    HW2 1602   0.286   0.273   1.638  3.0705 -1.9596  2.4384
  535SOL     OW 1603   1.909   0.413   0.217  0.0570 -0.4323 -0.7230
  535SOL    HW1 1604   1.922   0.496   0.279 -1.0473  1.4943 -1.3648
  535SOL    HW2 1605   1.868   0.337   0.263  2.0497  0.4862 -1.7369
  536SOL     OW 1606   1.434   2.553   0.970  0.0099 -0.4454 -0.2479
  536SOL    HW1 1607   1.409   2.545   1.069  2.9207  1.1270 -0.3772
  536SOL    HW2 1608   1.355   2.600   0.921  0.7199 -1.3352  0.4493
  537SOL     OW 1609   0.807   0.188   2.327 -0.2090 -0.2666  0.2160
  537SOL    HW1 1610   0.849   0.266   2.271  1.3742  0.6420  1.9678
  537SOL    HW2 1611   0.749   0.129   2.264 -0.7607  3.2726 -2.8861
  538SOL     OW 1612   1.691   2.359   1.521 -0.2334  0.0720  0.1481
  538SOL    HW1 1613   1.645   2.270   1.498  2.9016 -0.7946 -2.8234
  538SOL    HW2 1614   1.778   2.365   1.469 -1.2711 -0.9515 -0.7029
  539SOL     OW 1615   0.208   1.559   2.721  0.1342  0.5374  0.2674
  539SOL    HW1 1616   0.148   1.562   2.635  1.4052  0.0918  0.0497
  539SOL    HW2 1617   0.175   1.625   2.795  0.0194 -0.0640 -0.7655
  540SOL     OW 1618   2.724   1.677   1.978 -0.1032 -0.5552 -0.4299
  540SOL    HW1 1619   2.765   1.591   2.023 -3.8300 -0.7717 -0.7397
  540SOL    HW2 1620   2.633   1.696   2.015  1.1759 -2.1491  0.3254
  541SOL     OW 1621   0.458   2.281   0.003 -0.1227 -0.2643  0.1388
  541SOL    HW1 1622   0.484   2.210   0.076  0.5931 -2.5491  1.4682
  541SOL    HW2 1623   0.357   2.283  -0.024 -0.7717 -2.7541  4.3377
  542SOL     OW 1624   2.278   2.553   0.408  0.5036 -0.1672  0.2645
  542SOL    HW1 1625   2.265   2.647   0.366  0.6527 -0.1507 -1.3666
  542SOL    HW2 1626   2.186   2.517   0.444  0.6915 -0.7794  1.4466
  543SOL     OW 1627   1.072   1.793   1.635 -0.2259  0.9747 -0.9840
  543SOL    HW1 1628   1.028   1.809   1.729 -1.4864 -0.4604  0.1720
  543SOL    HW2 1629   1.058   1.868   1.571 -0.5084  0.5773  1.8373
  544SOL     OW 1630   1.020   0.419   0.207 -0.4586  0.9674 -0.0657
  544SOL    HW1 1631   1.054   0.344   0.268  2.2759  0.9358  1.5103
  544SOL    HW2 1632   0.995   0.403   0.108 -1.0923 -0.6012 -2.0576
  545SOL     OW 1633   1.116   1.815   0.803  0.2848 -0.2739 -0.4133
  545SOL    HW1 1634   1.212   1.855   0.790  0.5050 -0.7541  0.1271
  545SOL    HW2 1635   1.121   1.729   0.862  0.3685  1.5249 -0.2911
  546SOL     OW 1636   2.641   1.500   0.020  0.7497 -0.4190 -0.3380
  546SOL    HW1 1637   2.582   1.566  -0.031  0.2474 -0.5191  3.0285
  546SOL    HW2 1638   2.603   1.490   0.119  0.7476  1.9976 -0.3056
  547SOL     OW 1639   0.561   3.084   2.684  0.4637 -0.3291 -0.2864
  547SOL    HW1 1640   0.655   3.044   2.655 -1.0901 -0.6028  0.8876
  547SOL    HW2 1641   0.501   3.011   2.720  3.0555  3.2517 -0.9026
  548SOL     OW 1642   2.099   0.843   2.979 -0.4716 -0.0233  0.0305
  548SOL    HW1 1643   2.003   0.817   3.000 -0.0258  1.1064  2.6926
  548SOL    HW2 1644   2.113   0.947   2.987 -0.5110  2.9266  0.9069
  549SOL     OW 1645   0.700   0.520   0.215  0.3234 -0.0506 -0.2903
  549SOL    HW1 1646   0.672   0.541   0.120 -1.2684 -1.2737  2.8995
  549SOL    HW2 1647   0.790   0.565   0.254  0.8590  2.2684  1.7964
  550SOL     OW 1648   2.496   2.832   2.903  0.3382 -0.4300 -0.3117
  550SOL    HW1 1649   2.475   2.771   2.983 -1.2965 -0.5929  2.3998
  550SOL    HW2 1650   2.546   2.790   2.824 -1.9238 -1.1266 -1.6071
  551SOL     OW 1651   0.264   0.932   0.218  0.2445 -0.0761  0.2632
  551SOL    HW1 1652   0.345   0.863   0.207  0.9158 -1.1386  0.2324
  551SOL    HW2 1653   0.209   0.920   0.306  3.3598 -0.3293  1.7596
  552SOL     OW 1654   0.714   2.976   1.849 -0.2021 -0.0805 -0.3016
  552SOL    HW1 1655   0.675   2.993   1.945 -1.9205 -0.4224 -0.3860
  552SOL    HW2 1656   0.819   2.999   1.839 -1.4255 -2.1187  2.3531
  553SOL     OW 1657   2.995   2.541   0.326 -0.3277 -0.2614  0.0968
  553SOL    HW1 1658   2.952   2.448   0.299 -0.9198 -0.8288 -0.7278
  553SOL    HW2 1659   2.996   2.560   0.432  1.2321 -1.6162  1.0999
  554SOL     OW 1660   2.142   0.349   0.601  0.1084  0.1070  0.3001
  554SOL    HW1 1661   2.215   0.360   0.531 -1.3573  1.3549 -0.9460
  554SOL    HW2 1662   2.132   0.252   0.636 -2.1484 -0.4555 -0.7033
  555SOL     OW 1663   0.383   2.775   2.526 -0.3774 -0.4423 -0.0879
  555SOL    HW1 1664   0.321   2.860   2.509  0.2857  3.3728  0.7395
  555SOL    HW2 1665   0.419   2.740   2.436 -0.5621 -0.2554  2.3081
  556SOL     OW 1666   0.813   2.388   1.514  0.0114 -0.5124  0.1800
  556SOL    HW1 1667   0.863   2.449   1.582  0.3734  1.4280 -0.4245
  556SOL    HW2 1668   0.873   2.360   1.435  1.3731  1.2903  3.8136
  557SOL     OW 1669   0.091   2.060   0.173 -0.4410 -0.3649  0.8682
  557SOL    HW1 1670   0.039   1.974   0.150 -1.0428  0.8409 -0.8053
  557SOL    HW2 1671   0.115   2.125   0.095 -0.7014 -0.4884  0.4237
  558SOL     OW 1672   2.914   2.277   0.287 -0.3797 -0.4227  0.3011
  558SOL    HW1 1673   2.810   2.266   0.297 -1.6178  3.5594 -0.2771
  558SOL    HW2 1674   2.956   2.193   0.244 -1.0042  1.3691 -1.5842
  559SOL     OW 1675   0.397   2.299   1.398  0.0550  0.0354  0.5116
  559SOL    HW1 1676   0.301   2.302   1.362  1.2168 -3.0241 -1.8911
  559SOL    HW2 1677   0.451   2.219   1.351 -1.7856  1.4998 -0.8863
  560SOL     OW 1678   2.090   1.151   3.073 -0.0967  0.0515 -0.0637
  560SOL    HW1 1679   2.071   1.135   3.173  1.7908 -1.1393 -0.4090
  560SOL    HW2 1680   2.151   1.229   3.051 -0.8349 -1.6514 -1.5910
  561SOL     OW 1681   3.037   1.854   0.023  0.3505  0.1052  0.4978
  561SOL    HW1 1682   2.976   1.817   0.102  0.1708 -1.2499  2.7155
  561SOL    HW2 1683   2.988   1.935  -0.026 -1.6709  0.2469 -1.8099
  562SOL     OW 1684   1.002   2.268   2.330 -0.5842 -0.3634  0.0168
  562SOL    HW1 1685   0.915   2.232   2.360 -4.9590  3.1750 -0.4876
  562SOL    HW2 1686   1.021   2.348   2.391  0.8939 -2.8378  0.5417
  563SOL     OW 1687   0.704   2.571   2.625 -0.1747  0.4343 -0.4181
  563SOL    HW1 1688   0.772   2.495   2.642  0.0257  1.0268 -0.2731
  563SOL    HW2 1689   0.677   2.619   2.708 -0.4411 -0.9006 -3.1689
  564SOL     OW 1690   2.796   1.305   2.930  1.1507 -0.1578 -0.5454
  564SOL    HW1 1691   2.720   1.347   2.987  2.4236  0.8796 -2.3747
  564SOL    HW2 1692   2.847   1.374   2.875  1.1803  1.4955  0.3944
  565SOL     OW 1693   2.550   1.960   2.637 -0.2802 -0.4020  0.4080
  565SOL    HW1 1694   2.480   2.013   2.579 -0.4772  1.6019  0.4865
  565SOL    HW2 1695   2.603   2.025   2.699 -1.1901  0.1897 -0.6966
  566SOL     OW 1696   2.061   2.811   1.380  0.5123  0.2143 -0.3147
  566SOL    HW1 1697   2.001   2.731   1.367  2.4404  1.0761 -0.7830
  566SOL    HW2 1698   2.049   2.878   1.299 -0.1912 -0.0240  0.6832
  567SOL     OW 1699   2.467   0.058   2.332 -0.1940 -0.5316  1.1063
  567SOL    HW1 1700   2.408   0.146   2.332 -1.6792 -2.3503  1.9834
  567SOL    HW2 1701   2.456   0.005   2.246  1.5075 -3.3556  2.6674
  568SOL     OW 1702   1.510   1.789   0.285 -0.0067 -0.2372 -0.5421
  568SOL    HW1 1703   1.434   1.859   0.264  0.3853  0.6428  0.4559
  568SOL    HW2 1704   1.607   1.827   0.292 -0.5118 -0.0897 -0.6891
  569SOL     OW 1705   0.262   0.682   0.782  0.1712  0.0684  0.3621
  569SOL    HW1 1706   0.304   0.602   0.739 -0.7989 -0.3377  1.5879
  569SOL    HW2 1707   0.171   0.664   0.828 -0.9845 -2.0001 -0.0254
  570SOL     OW 1708   0.590   0.884   2.888  0.3254  0.3437  0.5322
  570SOL    HW1 1709   0.667   0.907   2.826  1.9837  0.8233 -1.0014
  570SOL    HW2 1710   0.603   0.920   2.988 -1.8900 -0.7642  3.6123
  571SOL     OW 1711   0.763   3.075   1.001  0.2238  0.3435 -0.0472
  571SOL    HW1 1712   0.796   3.115   0.913 -1.3962  0.2883 -0.5766
  571SOL    HW2 1713   0.735   2.978   0.988  1.3319  3.3098 -0.1832
  572SOL     OW 1714   1.601   2.620   1.312  0.5744 -0.5767  0.3703
  572SOL    HW1 1715   1.508   2.575   1.299  0.2045 -1.4153  1.1491
  572SOL    HW2 1716   1.598   2.717   1.340 -0.8248  0.1903 -1.0605
  573SOL     OW 1717   2.872   0.478   2.039 -0.3212  0.5656 -0.4293
  573SOL    HW1 1718   2.807   0.395   2.056 -0.7422  0.2213 -1.2677
  573SOL    HW2 1719   2.829   0.546   1.976 -1.8527 -0.2466 -4.6556
  574SOL     OW 1720   0.181   1.707   1.025 -0.9926  0.6014  0.7704
  574SOL    HW1 1721   0.151   1.806   1.014  1.3167  0.5734 -1.6327
  574SOL    HW2 1722   0.109   1.647   1.070  0.2519  1.9155 -1.3334
  575SOL     OW 1723   0.871   2.158   0.950 -0.3209  0.2450 -0.4897
  575SOL    HW1 1724   0.843   2.198   1.044  1.5636 -1.7421  1.3536
  575SOL    HW2 1725   0.900   2.226   0.879  0.8939 -0.1838  0.9361
  576SOL     OW 1726   2.936   3.041   1.714  0.1403  0.2689  0.4012
  576SOL    HW1 1727   2.837   3.013   1.732  1.1458 -0.7142  1.0391
  576SOL    HW2 1728   2.950   3.144   1.715  1.3236  0.7499 -2.0966
  577SOL     OW 1729   2.486   1.235   0.019 -0.0978  0.4367 -0.2284
  577SOL    HW1 1730   2.502   1.188  -0.071 -1.7912  0.1012 -0.9225
  577SOL    HW2 1731   2.578   1.264   0.055 -1.9142 -1.5200  1.0211
  578SOL     OW 1732   1.374   2.755   2.440  0.3080 -0.2684 -0.3042
  578SOL    HW1 1733   1.301   2.822   2.464  0.7670  1.1901  0.3411
  578SOL    HW2 1734   1.466   2.800   2.447 -0.6444  0.6318 -0.3383
  579SOL     OW 1735   0.092   2.519   0.136 -0.2360  0.0800  0.3156
  579SOL    HW1 1736   0.015   2.530   0.205  2.7280 -0.4638  1.9566
  579SOL    HW2 1737   0.187   2.531   0.173  1.1278 -1.6448 -2.3601
  580SOL     OW 1738   0.980   2.683   0.414 -0.8086  0.5126  0.1158
  580SOL    HW1 1739   1.040   2.683   0.332  0.3717 -1.0318 -2.5535
  580SOL    HW2 1740   0.896   2.624   0.392  0.3220  1.6423  0.7250
  581SOL     OW 1741   1.279   2.638   1.480 -0.2022  0.2672 -0.2777
  581SOL    HW1 1742   1.330   2.568   1.537 -0.7721 -0.2923 -0.3424
  581SOL    HW2 1743   1.333   2.716   1.454 -2.3944 -0.0677 -3.6645
  582SOL     OW 1744   1.507   0.085   1.866  0.1288 -0.5571 -0.0599
  582SOL    HW1 1745   1.537   0.161   1.931 -2.1633  0.3981 -0.3476
  582SOL    HW2 1746   1.582   0.059   1.796  1.0698  2.6524  0.1696
  583SOL     OW 1747   2.478   3.074   0.554 -0.3987 -0.1315  0.3764
  583SOL    HW1 1748   2.573   3.045   0.522  0.8997 -3.9233 -0.3707
  583SOL    HW2 1749   2.414   2.995   0.576  2.1018 -0.5573 -0.6404
  584SOL     OW 1750   1.581   0.921   2.113 -0.1671  0.9722  0.7536
  584SOL    HW1 1751   1.638   0.965   2.038  2.2568 -1.8323 -0.3212
  584SOL    HW2 1752   1.627   0.913   2.201  1.0705  0.3009 -2.2564
  585SOL     OW 1753   2.111   2.669   2.902  0.2650  0.3424  0.3772
  585SOL    HW1 1754   2.122   2.576   2.866 -0.3412  2.7881 -0.4071
  585SOL    HW2 1755   2.013   2.688   2.943 -1.5094 -1.0580  1.3682
  586SOL     OW 1756   2.836   0.384   1.541 -0.5622 -0.4345  0.4476
  586SOL    HW1 1757   2.845   0.468   1.602  2.6090 -1.3257  1.5536
  586SOL    HW2 1758   2.760   0.318   1.565  0.9871  2.9698 -0.9461
  587SOL     OW 1759   1.998   1.545   2.664  0.2931  0.1620 -0.4849
  587SOL    HW1 1760   2.055   1.484   2.597  1.7526 -2.9718  0.4121
  587SOL    HW2 1761   2.037   1.525   2.762  4.0462 -0.4346 -1.5534
  588SOL     OW 1762   0.454   2.692   2.270 -0.0351 -0.2749  0.1540
  588SOL    HW1 1763   0.360   2.670   2.230 -0.5286  0.6826 -2.4303
  588SOL    HW2 1764   0.500   2.612   2.316 -1.0821  0.4249  0.4215
  589SOL     OW 1765   2.150   1.381   2.513  0.0699 -0.5633 -0.1804
  589SOL    HW1 1766   2.077   1.330   2.458  1.2442 -1.6737  1.0015
  589SOL    HW2 1767   2.242   1.332   2.511  0.5818 -1.0518 -3.8448
  590SOL     OW 1768   2.351   1.672   2.053  0.0432 -0.0866  0.5374
  590SOL    HW1 1769   2.404   1.580   2.041  0.9638 -0.5006  1.9973
  590SOL    HW2 1770   2.382   1.740   2.128  0.7861  0.2741 -0.0793
  591SOL     OW 1771   1.288   2.402   0.260 -0.4715  0.1679  0.1308
  591SOL    HW1 1772   1.340   2.325   0.211  2.2907  0.4526 -0.2253
  591SOL    HW2 1773   1.297   2.391   0.364  1.8598  2.4916 -1.5769
  592SOL     OW 1774   1.798   2.274   0.730  0.0448 -0.0514  0.5974
  592SOL    HW1 1775   1.776   2.343   0.655 -3.7620 -1.1276 -1.0177
  592SOL    HW2 1776   1.886   2.228   0.714 -2.1182  0.1587 -1.0847
  593SOL     OW 1777   0.694   0.222   0.259  0.2178  0.3287 -0.1558
  593SOL    HW1 1778   0.741   0.190   0.173  1.8091  0.6852 -0.8115
  593SOL    HW2 1779   0.695   0.323   0.264 -2.7796 -1.0456 -3.6178
  594SOL     OW 1780   0.983   1.892   2.707  0.2938  0.0881 -0.3779
  594SOL    HW1 1781   1.076   1.852   2.707 -0.0911  0.4320  1.4087
  594SOL    HW2 1782   0.976   1.992   2.735 -1.4033  0.8365 -0.3988
  595SOL     OW 1783   1.547   0.054   1.089 -0.0677 -0.7036  0.1728
  595SOL    HW1 1784   1.608  -0.028   1.106 -0.9054 -1.1566 -3.2222
  595SOL    HW2 1785   1.457   0.031   1.043 -1.1926 -0.2128 -0.8771
  596SOL     OW 1786   3.066   1.438   2.252 -0.1785  0.0285 -0.2244
  596SOL    HW1 1787   3.055   1.337   2.274  1.4279 -0.9864 -0.5135
  596SOL    HW2 1788   3.111   1.502   2.320  0.8060  0.3537 -1.2486
  597SOL     OW 1789   1.995   2.552   1.678  0.3082 -0.1507  0.8573
  597SOL    HW1 1790   2.043   2.540   1.587 -4.3666  0.8504 -1.8223
  597SOL    HW2 1791   2.072   2.564   1.753  0.7681  0.6381  0.9489
  598SOL     OW 1792   2.517   2.954   1.220  0.3781 -0.3365 -0.7145
  598SOL    HW1 1793   2.566   2.993   1.304 -2.7520 -0.9949  2.5541
  598SOL    HW2 1794   2.578   2.946   1.137  0.4083  0.4659 -0.0129
  599SOL     OW 1795   2.924   0.329   2.494  0.0404 -0.2920 -0.0836
  599SOL    HW1 1796   3.018   0.372   2.495 -1.0060  2.4777  0.9148
  599SOL    HW2 1797   2.855   0.400   2.459 -2.5287  0.3231 -1.1023
  600SOL     OW 1798   2.814   1.079   2.753 -0.0999 -1.2756  0.1507
  600SOL    HW1 1799   2.762   0.987   2.758  0.8169 -2.8489 -1.0833
  600SOL    HW2 1800   2.795   1.150   2.829 -2.4433 -0.6102  1.5146
  601SOL     OW 1801   2.976   1.310   1.973 -0.0787  0.4893 -0.0092
  601SOL    HW1 1802   2.899   1.346   1.911 -1.6450 -2.3370 -0.4250
  601SOL    HW2 1803   3.061   1.364   1.957  1.2956  0.5931 -0.0774
  602SOL     OW 1804   1.487   1.725   2.348  0.3161 -0.3536 -0.4254
  602SOL    HW1 1805   1.414   1.653   2.340  1.9182 -2.3510  1.4795
  602SOL    HW2 1806   1.578   1.686   2.377 -2.2401  2.0221 -1.1333
  603SOL     OW 1807   0.588   1.212   2.726  0.0346  0.2873  0.5220
  603SOL    HW1 1808   0.493   1.167   2.715 -1.8708  0.6649  0.3074
  603SOL    HW2 1809   0.669   1.158   2.690 -0.1698  0.3229 -1.9035
  604SOL     OW 1810   2.390   1.014   0.159 -0.5720 -0.3010  0.3773
  604SOL    HW1 1811   2.420   1.098   0.112  1.2180  1.1913  1.8904
  604SOL    HW2 1812   2.407   0.932   0.094  0.8553 -1.1939 -1.5978
  605SOL     OW 1813   2.536   1.139   1.947  0.4430  0.2702  0.4176
  605SOL    HW1 1814   2.566   1.088   1.864  1.4491  2.5498 -0.7304
  605SOL    HW2 1815   2.615   1.155   2.013 -2.0420 -2.3144 -1.8408
  606SOL     OW 1816   1.521   2.524   2.533  0.7127 -0.1094 -0.0970
  606SOL    HW1 1817   1.444   2.589   2.496 -0.0261  1.6115 -1.8552
  606SOL    HW2 1818   1.477   2.431   2.551 -2.0429  0.0339 -1.6956
  607SOL     OW 1819   1.320   1.573   0.323 -0.4727 -0.3412  0.4484
  607SOL    HW1 1820   1.254   1.605   0.398 -2.0243  0.1372 -2.4545
  607SOL    HW2 1821   1.388   1.652   0.303  1.5592  1.3458  0.3895
  608SOL     OW 1822   1.429   2.850   0.347 -0.3128 -0.2205  0.3926
  608SOL    HW1 1823   1.497   2.888   0.274 -0.4696  1.0074 -0.7498
  608SOL    HW2 1824   1.357   2.917   0.379 -1.4664 -0.1614 -0.3125
  609SOL     OW 1825   1.269   1.348   0.182 -0.2591  0.2825 -0.1790
  609SOL    HW1 1826   1.294   1.436   0.246  2.6202  1.3500 -1.1094
  609SOL    HW2 1827   1.238   1.383   0.090  1.5225 -0.8591  1.0662
  610SOL     OW 1828   2.996   1.168   2.226 -0.6738  0.1919  0.5523
  610SOL    HW1 1829   2.989   1.065   2.207 -0.6400  0.0028  0.2576
  610SOL    HW2 1830   2.969   1.227   2.142  0.8995  1.5704 -0.2060
  611SOL     OW 1831   2.538   0.301   1.137 -0.2884 -0.1106  0.6237
  611SOL    HW1 1832   2.489   0.209   1.130 -1.0596 -0.8981 -0.4189
  611SOL    HW2 1833   2.632   0.290   1.184  0.3237 -0.5940 -1.9822
  612SOL     OW 1834   0.759   2.276   1.155 -0.0680 -0.2124  0.0912
  612SOL    HW1 1835   0.694   2.205   1.186  1.8613  2.3148  2.4358
  612SOL    HW2 1836   0.719   2.371   1.132 -0.1431  0.4233 -4.0020
  613SOL     OW 1837   0.838   1.387   2.427  0.5420  0.7100  0.0746
  613SOL    HW1 1838   0.789   1.447   2.352 -0.7310 -1.1221 -0.2109
  613SOL    HW2 1839   0.844   1.286   2.397 -0.7742 -1.1360  3.2950
  614SOL     OW 1840   1.558   1.654   1.982  0.3769  0.2408 -0.5923
  614SOL    HW1 1841   1.491   1.735   1.986 -0.2894  1.3864  0.5484
  614SOL    HW2 1842   1.636   1.662   2.047 -0.3104  1.9444  1.3600
  615SOL     OW 1843   0.791   1.362   1.744  0.5303  0.0016 -0.0242
  615SOL    HW1 1844   0.715   1.329   1.676 -1.5348  4.2039 -1.4376
  615SOL    HW2 1845   0.824   1.454   1.707 -1.5509 -1.4720  0.6150
  616SOL     OW 1846   1.011   1.614   2.155  0.2686 -0.5950 -0.0647
  616SOL    HW1 1847   0.930   1.558   2.182 -1.8190 -0.5377 -0.1254
  616SOL    HW2 1848   0.987   1.698   2.103 -0.8988  0.7545  0.2152
  617SOL     OW 1849   2.962   1.545   1.639 -0.0030 -0.2622 -0.2392
  617SOL    HW1 1850   2.899   1.488   1.696 -0.1413 -0.9840  1.6552
  617SOL    HW2 1851   2.994   1.489   1.555 -0.2793  0.6881  0.1125
  618SOL     OW 1852   1.910   1.967   1.467  0.5347  0.1173  0.4159
  618SOL    HW1 1853   1.944   1.922   1.381  0.1954  0.2239 -0.3589
  618SOL    HW2 1854   1.917   1.911   1.554 -2.3468 -1.5779  2.8260
  619SOL     OW 1855   1.750   0.492   2.419 -0.7126 -0.1191 -0.6898
  619SOL    HW1 1856   1.674   0.535   2.360 -0.1881  0.5867 -0.1846
  619SOL    HW2 1857   1.707   0.407   2.462 -0.3863 -0.4370 -0.4824
  620SOL     OW 1858   2.237   2.969   0.654 -0.0860 -0.2679  0.4041
  620SOL    HW1 1859   2.196   3.057   0.689  0.1524  3.5291  1.4574
  620SOL    HW2 1860   2.254   2.902   0.730  1.3756  2.0314 -2.5853
  621SOL     OW 1861   2.163   1.854   1.307 -0.0134  0.9729  0.0906
  621SOL    HW1 1862   2.169   1.833   1.412  0.4439 -0.1997  2.9048
  621SOL    HW2 1863   2.094   1.792   1.261  0.0909  0.1590  4.7084
  622SOL     OW 1864   2.233   0.927   1.810 -0.2879  0.2737 -0.4120
  622SOL    HW1 1865   2.334   0.950   1.807  1.1822 -3.2440 -0.5166
  622SOL    HW2 1866   2.224   0.824   1.830 -0.7676  0.0380  4.7173
  623SOL     OW 1867   1.329   0.833   2.647 -0.1259 -0.1871 -0.0019
  623SOL    HW1 1868   1.262   0.786   2.711  0.7645 -0.9448  0.2366
  623SOL    HW2 1869   1.292   0.870   2.558  2.2297 -1.8712 -0.5178
  624SOL     OW 1870   0.588   0.644   3.071  0.0331 -0.6557  0.1231
  624SOL    HW1 1871   0.586   0.694   2.979  0.0999 -0.2535  0.9783
  624SOL    HW2 1872   0.572   0.709   3.147 -1.7023  0.0092  0.9810
  625SOL     OW 1873   2.855   1.711   0.956  0.7606  0.5895  0.2544
  625SOL    HW1 1874   2.757   1.725   0.921 -0.2591  0.1414  2.3484
  625SOL    HW2 1875   2.882   1.776   1.030 -0.9585 -1.8744  1.5602
  626SOL     OW 1876   0.598   2.721   1.822  0.4143 -0.7784  0.3917
  626SOL    HW1 1877   0.626   2.820   1.821 -0.2976 -0.1578  0.5493
  626SOL    HW2 1878   0.503   2.707   1.787  1.4777 -1.6794 -0.7807
  627SOL     OW 1879   0.729   1.019   1.540 -0.3945  0.1238 -0.0414
  627SOL    HW1 1880   0.739   0.951   1.459 -2.9068 -1.4650 -0.7120
  627SOL    HW2 1881   0.788   1.100   1.517  1.4784 -0.5006  1.7803
  628SOL     OW 1882   2.389   0.165   0.728  0.2397  0.5248  0.1503
  628SOL    HW1 1883   2.407   0.087   0.658 -3.2160 -1.8065  2.9831
  628SOL    HW2 1884   2.295   0.148   0.769 -3.1796  0.1526 -0.9212
  629SOL     OW 1885   1.980   0.888   1.963  0.2501 -0.2844 -0.1150
  629SOL    HW1 1886   2.076   0.918   1.954 -0.9150  0.0179 -0.5250
  629SOL    HW2 1887   1.925   0.968   1.996  1.8751  1.9243  1.5353
  630SOL     OW 1888   2.877   2.213   0.851 -0.9457 -0.6982  0.2841
  630SOL    HW1 1889   2.787   2.265   0.854 -1.6364  0.9504 -2.6490
  630SOL    HW2 1890   2.876   2.115   0.816  1.5359 -2.4574 -0.4686
  631SOL     OW 1891   2.946   0.164   2.127 -0.0705  0.4831  0.0076
  631SOL    HW1 1892   3.002   0.217   2.201  0.1041 -1.8145 -0.6221
  631SOL    HW2 1893   3.003   0.155   2.044  0.8751 -1.0909  2.5984
  632SOL     OW 1894   2.424   2.502   0.642  0.5608 -0.0791 -0.4676
  632SOL    HW1 1895   2.435   2.588   0.702  3.3399  0.3860  0.2821
  632SOL    HW2 1896   2.378   2.523   0.548 -0.7685  1.9618  2.5457
  633SOL     OW 1897   1.413   1.223   2.537  0.1088  0.5215 -0.2728
  633SOL    HW1 1898   1.447   1.306   2.590 -0.8730  0.0306 -1.8887
  633SOL    HW2 1899   1.352   1.258   2.457 -0.2010  1.5816  0.3825
  634SOL     OW 1900   0.693   1.948   0.914 -0.7222 -0.0155  0.8974
  634SOL    HW1 1901   0.600   1.986   0.938 -1.7614 -1.4308 -0.0862
  634SOL    HW2 1902   0.769   2.018   0.919 -1.0130 -0.7573  0.0252
  635SOL     OW 1903   3.049   2.314   3.093  0.7317 -0.1382 -0.4655
  635SOL    HW1 1904   2.990   2.369   3.028  0.0379 -0.9605  0.6119
  635SOL    HW2 1905   3.116   2.378   3.146 -0.2059 -0.1863 -1.3378
  636SOL     OW 1906   2.254   2.723   2.079  0.0184 -0.1983  0.1918
  636SOL    HW1 1907   2.236   2.827   2.077  1.4132  2.4129  0.8864
  636SOL    HW2 1908   2.275   2.682   2.172 -0.8269  1.8202 -2.2542
  637SOL     OW 1909   2.643   0.716   2.056  0.2218  0.4534 -0.3165
  637SOL    HW1 1910   2.616   0.703   1.955 -0.4401 -0.9928 -0.9298
  637SOL    HW2 1911   2.684   0.808   2.080 -0.9088 -2.2760 -0.7255
  638SOL     OW 1912   2.429   1.773   1.251 -0.1387 -0.5016 -0.4471
  638SOL    HW1 1913   2.331   1.795   1.286 -1.3562  1.8068 -0.6148
  638SOL    HW2 1914   2.483   1.715   1.318 -2.5520 -0.5779 -0.8447
  639SOL     OW 1915   1.289   2.172   1.716 -0.0238  0.1671  0.0670
  639SOL    HW1 1916   1.340   2.082   1.692 -0.0515 -2.0442 -2.8098
  639SOL    HW2 1917   1.189   2.160   1.748  0.3037  1.0652  1.8097
  640SOL     OW 1918   0.206   1.146   1.589  0.0219 -0.1426 -0.1817
  640SOL    HW1 1919   0.205   1.199   1.681 -1.5081  1.5610  1.6558
  640SOL    HW2 1920   0.288   1.081   1.574 -1.0686 -2.7252 -0.1966
  641SOL     OW 1921   2.039   0.171   1.545 -0.0548 -0.1582 -0.4319
  641SOL    HW1 1922   2.029   0.225   1.633 -1.1387 -0.5831 -0.6366
  641SOL    HW2 1923   2.062   0.077   1.572 -1.7120 -0.1786  0.2668
  642SOL     OW 1924   1.978   0.098   0.294 -0.4453  0.3440 -0.1096
  642SOL    HW1 1925   2.065   0.075   0.337  1.2235 -0.0496 -2.8280
  642SOL    HW2 1926   1.899   0.081   0.356 -0.1321  0.1126  0.6008
  643SOL     OW 1927   2.923   1.857   2.073 -0.0767  0.4518 -0.2736
  643SOL    HW1 1928   2.863   1.776   2.046 -4.4951  1.6839 -1.6256
  643SOL    HW2 1929   2.931   1.928   1.998  2.6692  0.7681  0.9285
  644SOL     OW 1930   2.276   2.394   1.207  0.5135  0.1095 -0.2264
  644SOL    HW1 1931   2.326   2.314   1.171 -4.0514  0.0062  2.2067
  644SOL    HW2 1932   2.246   2.370   1.304  4.6680  1.0696 -0.2621
  645SOL     OW 1933   0.639   0.833   1.238 -0.0263  0.4230 -0.4145
  645SOL    HW1 1934   0.540   0.855   1.257  2.6022 -0.2396 -1.3349
  645SOL    HW2 1935   0.668   0.842   1.138 -0.8656  2.8530 -0.8793
  646SOL     OW 1936   1.430   1.901   1.981 -0.8433  0.2949 -1.1511
  646SOL    HW1 1937   1.490   1.955   1.912  1.2976  3.0537  1.8894
  646SOL    HW2 1938   1.369   1.965   2.035 -0.6396 -1.0394  0.1550
  647SOL     OW 1939   0.804   1.086   0.677  0.0357 -0.3471  0.2657
  647SOL    HW1 1940   0.866   1.087   0.762 -2.3226 -0.4215 -1.8926
  647SOL    HW2 1941   0.743   0.997   0.683 -3.3867  1.7442  1.7164
  648SOL     OW 1942   0.102   0.199   0.218 -0.0083 -0.3281  0.3593
  648SOL    HW1 1943   0.127   0.127   0.151  1.2861  0.8832 -0.0732
  648SOL    HW2 1944   0.088   0.292   0.172 -1.4082 -3.4205  0.8128
  649SOL     OW 1945   3.018   0.249   0.893 -0.0369 -0.2991 -0.0334
  649SOL    HW1 1946   3.116   0.218   0.873  0.0739 -1.4520  0.8381
  649SOL    HW2 1947   3.023   0.327   0.962  0.1546 -0.3234 -0.5988
  650SOL     OW 1948   2.761   0.681   1.444 -0.4166 -0.2584 -0.4287
  650SOL    HW1 1949   2.659   0.659   1.456 -0.0775  0.3365 -0.9371
  650SOL    HW2 1950   2.769   0.759   1.376  1.1740 -0.6737 -2.0331
  651SOL     OW 1951   0.915   1.562   1.606  0.2063 -0.3285 -0.4098
  651SOL    HW1 1952   0.971   1.647   1.636 -0.1920  0.9112 -0.3492
  651SOL    HW2 1953   0.953   1.529   1.518 -3.5993 -0.2156  2.0361
  652SOL     OW 1954   2.330   2.425   2.498 -0.3093  1.0128 -0.2248
  652SOL    HW1 1955   2.249   2.366   2.520 -0.8322 -1.2761  1.5573
  652SOL    HW2 1956   2.297   2.511   2.456 -1.4714 -0.6662 -2.2455
  653SOL     OW 1957   2.715   1.251   0.189 -0.2844 -0.0382 -0.2337
  653SOL    HW1 1958   2.769   1.338   0.214 -0.3607 -0.7890 -1.5471
  653SOL    HW2 1959   2.758   1.166   0.237 -1.8703 -0.4011  2.3274
  654SOL     OW 1960   1.264   2.246   1.266  0.9046  0.0962 -0.1102
  654SOL    HW1 1961   1.268   2.174   1.339 -0.8717  0.8951  1.4746
  654SOL    HW2 1962   1.299   2.216   1.177  1.1664 -0.3668  2.3553
  655SOL     OW 1963   0.161   0.932   1.940 -0.1626 -0.0644 -0.3784
  655SOL    HW1 1964   0.212   0.876   1.869 -0.0420  0.6456  0.4544
  655SOL    HW2 1965   0.195   1.029   1.949  1.1434 -1.1780 -1.8895
  656SOL     OW 1966   2.567   2.487   2.644 -0.4843  1.0956  0.5316
  656SOL    HW1 1967   2.649   2.472   2.580  0.3837 -0.5481 -2.4662
  656SOL    HW2 1968   2.481   2.490   2.593  1.5411 -2.3177 -0.5249
  657SOL     OW 1969   2.997   1.050   1.935  0.2462  0.2157  0.4038
  657SOL    HW1 1970   2.993   1.154   1.952  0.1800  2.1774 -0.7350
  657SOL    HW2 1971   3.091   1.013   1.931 -2.5258 -2.5728 -0.6496
  658SOL     OW 1972   1.682   0.220   2.388  0.7153  0.2198  0.3627
  658SOL    HW1 1973   1.707   0.132   2.431 -0.0087  1.2990 -0.3287
  658SOL    HW2 1974   1.718   0.236   2.293 -1.4215  0.5497  1.2141
  659SOL     OW 1975   1.432   0.631   2.898  0.2826  0.2171  0.8107
  659SOL    HW1 1976   1.480   0.722   2.891  0.1265  0.4436  1.2072
  659SOL    HW2 1977   1.330   0.635   2.899  3.0485  1.7316  2.3873
  660SOL     OW 1978   1.417   0.345   1.432 -0.0470  0.0289  0.4488
  660SOL    HW1 1979   1.449   0.374   1.520  0.8897 -0.1384 -1.6224
  660SOL    HW2 1980   1.470   0.259   1.404  1.6567  0.4360 -2.3686
  661SOL     OW 1981   2.470   1.190   0.673  0.2661  0.0630  0.0174
  661SOL    HW1 1982   2.472   1.167   0.573 -1.2297 -0.4258  2.8916
  661SOL    HW2 1983   2.452   1.293   0.694  2.0140  1.6835 -0.4019
  662SOL     OW 1984   1.395   0.447   1.786 -0.5009  0.3953  0.5528
  662SOL    HW1 1985   1.328   0.373   1.759 -0.9761  0.4788  1.0391
  662SOL    HW2 1986   1.425   0.445   1.884  0.4923  1.0645  0.2307
  663SOL     OW 1987   0.739   1.528   2.224  0.4522  0.2443  0.4579
  663SOL    HW1 1988   0.704   1.624   2.251  0.9103 -1.7866  3.1749
  663SOL    HW2 1989   0.712   1.488   2.122  0.0834 -1.5274 -2.3470
  664SOL     OW 1990   1.627   2.087   1.449 -0.0624 -0.1206  0.0113
  664SOL    HW1 1991   1.550   2.022   1.474  0.2125 -0.9676 -1.3157
  664SOL    HW2 1992   1.721   2.046   1.465 -2.3053  2.4221  0.6968
  665SOL     OW 1993   2.268   0.658   1.926  0.1369  0.0109  0.2183
  665SOL    HW1 1994   2.222   0.567   1.936  0.4587 -2.9787  0.9016
  665SOL    HW2 1995   2.273   0.713   2.014 -1.1385  1.9638 -1.3185
  666SOL     OW 1996   0.374   2.338   0.350 -0.6404  0.7039  0.0299
  666SOL    HW1 1997   0.421   2.363   0.436 -0.2554  1.4651  0.2163
  666SOL    HW2 1998   0.285   2.285   0.360  0.3240  1.0857  1.2852
  667SOL     OW 1999   1.980   0.190   1.187 -0.0046 -0.7370 -0.2485
  667SOL    HW1 2000   1.948   0.269   1.130  1.4543 -0.0283 -2.0926
  667SOL    HW2 2001   1.913   0.147   1.254  1.2822 -2.3861 -2.3466
  668SOL     OW 2002   2.011   0.488   1.148 -0.2711  0.3562  0.6317
  668SOL    HW1 2003   2.087   0.511   1.076  1.5905  1.7179 -2.1284
  668SOL    HW2 2004   2.053   0.460   1.238  0.6118 -0.6829  1.8210
  669SOL     OW 2005   0.009   2.181   1.005 -0.2895  0.2197  0.1155
  669SOL    HW1 2006  -0.081   2.201   0.946  1.0621  2.0952 -1.1291
  669SOL    HW2 2007   0.019   2.239   1.091 -1.5145 -1.9302 -1.1913
  670SOL     OW 2008   2.841   2.345   1.951 -0.1618 -0.5825  0.1516
  670SOL    HW1 2009   2.793   2.313   2.037 -0.1955  0.3925 -2.2444
  670SOL    HW2 2010   2.821   2.448   1.929 -1.1454  1.2943 -1.8108
  671SOL     OW 2011   1.750   1.725   1.477  0.0387  0.1269  0.1112
  671SOL    HW1 2012   1.758   1.762   1.382  0.7352  1.8330  3.8276
  671SOL    HW2 2013   1.675   1.651   1.486  1.3860 -0.3987 -0.3664
  672SOL     OW 2014   0.399   0.617   2.400 -0.1017  0.2089 -0.0265
  672SOL    HW1 2015   0.478   0.648   2.337 -1.6079 -0.4164  0.7615
  672SOL    HW2 2016   0.318   0.683   2.399 -1.8110  0.0340 -1.4591
  673SOL     OW 2017   0.123   1.151   1.140 -0.1248  0.1722 -0.3169
  673SOL    HW1 2018   0.139   1.223   1.211 -0.1822 -0.1243  1.4902
  673SOL    HW2 2019   0.211   1.134   1.082 -1.5452 -0.5656 -2.2154
  674SOL     OW 2020   1.637   2.961   0.227 -0.5722 -0.5382  0.4934
  674SOL    HW1 2021   1.658   3.060   0.197 -0.7904 -1.4646 -0.9322
  674SOL    HW2 2022   1.698   2.885   0.195 -1.7449 -1.4051 -0.9889
  675SOL     OW 2023   1.718   0.823   2.345 -0.5410  0.0119 -0.3057
  675SOL    HW1 2024   1.817   0.815   2.336 -1.6986 -1.5097 -2.6331
  675SOL    HW2 2025   1.666   0.741   2.307  1.7409  2.5478 -1.4320
  676SOL     OW 2026   2.497   1.453   1.994 -0.7472 -0.1052 -0.0377
  676SOL    HW1 2027   2.494   1.420   1.895 -0.9659  1.6222  1.8486
  676SOL    HW2 2028   2.521   1.377   2.060  3.1604  0.3496  2.6751
  677SOL     OW 2029   1.932   0.683   0.852  0.1898  0.7551 -0.2905
  677SOL    HW1 2030   2.005   0.720   0.922  1.8654  1.1498  1.0651
  677SOL    HW2 2031   1.929   0.577   0.852 -0.4436 -0.0098 -0.5903
  678SOL     OW 2032   0.005   0.763   1.680 -0.0197 -0.1051 -0.3555
  678SOL    HW1 2033   0.108   0.762   1.691 -2.0380 -0.3163 -1.3135
  678SOL    HW2 2034  -0.047   0.735   1.767 -0.2604 -0.1680  2.6688
  679SOL     OW 2035   2.590   1.181   1.082  0.1202 -0.3192 -0.0241
  679SOL    HW1 2036   2.493   1.198   1.107  1.8493  1.7833  0.9909
  679SOL    HW2 2037   2.613   1.081   1.060  2.5320  0.5564  0.2222
  680SOL     OW 2038   2.793   0.621   1.712 -0.0678  0.3841  0.2070
  680SOL    HW1 2039   2.800   0.672   1.620  0.0072  0.1967 -0.6581
  680SOL    HW2 2040   2.843   0.673   1.784 -1.4765  0.4919  0.2355
  681SOL     OW 2041   3.006   0.189   1.660  0.1719  0.0286  0.2834
  681SOL    HW1 2042   3.081   0.173   1.591  3.1797  1.4572 -3.7300
  681SOL    HW2 2043   2.952   0.267   1.618 -0.7062 -1.4593  1.1788
  682SOL     OW 2044   0.773   3.089   1.315 -1.0039  0.7171 -0.4270
  682SOL    HW1 2045   0.707   3.035   1.367  1.6775  1.8009  0.9509
  682SOL    HW2 2046   0.786   3.064   1.218 -1.2250 -1.6599  2.7979
  683SOL     OW 2047   1.343   0.204   2.208  0.1173 -0.6112  0.0011
  683SOL    HW1 2048   1.368   0.244   2.299 -0.3113 -0.6977 -0.6884
  683SOL    HW2 2049   1.412   0.216   2.130 -1.6761  0.9188 -3.7738
  684SOL     OW 2050   1.445   2.121   0.525 -0.3340 -0.3038  0.0493
  684SOL    HW1 2051   1.501   2.043   0.566 -1.1244  0.7638  1.7656
  684SOL    HW2 2052   1.360   2.092   0.478  0.9755 -0.5749  0.3101
  685SOL     OW 2053   2.129   1.993   1.971  0.4057 -0.6379  0.5846
  685SOL    HW1 2054   2.223   1.986   1.921  0.3362  0.7116 -0.5859
  685SOL    HW2 2055   2.124   1.946   2.061 -0.4691  2.3891 -2.4141
  686SOL     OW 2056   1.518   1.792   2.735  0.1513 -0.2304  0.6518
  686SOL    HW1 2057   1.549   1.738   2.819  2.0004  1.9113  1.7380
  686SOL    HW2 2058   1.536   1.752   2.642 -2.4344  0.7639 -0.2557
  687SOL     OW 2059   1.271   2.490   1.993 -0.5094  0.4327 -0.1181
  687SOL    HW1 2060   1.249   2.392   1.975 -1.6143 -1.7375 -0.7545
  687SOL    HW2 2061   1.337   2.491   2.075  1.5101 -0.7025 -1.3986
  688SOL     OW 2062   2.058   1.544   1.739 -0.0708  1.1011  0.3142
  688SOL    HW1 2063   2.150   1.583   1.761  1.6191 -0.4973 -2.4902
  688SOL    HW2 2064   2.038   1.521   1.638 -0.1879  0.2171  0.0139
  689SOL     OW 2065   2.441   1.066   2.686  0.1345 -0.1787 -0.3149
  689SOL    HW1 2066   2.352   1.019   2.697  1.1699  0.9096 -3.3607
  689SOL    HW2 2067   2.500   1.061   2.773  0.3522  1.3068 -2.5681
  690SOL     OW 2068   2.259   2.802   0.014  0.2726 -0.1301  0.1066
  690SOL    HW1 2069   2.198   2.765  -0.064 -2.1510 -0.4927  1.2595
  690SOL    HW2 2070   2.224   2.791   0.109  0.3234 -1.4923 -1.4975
  691SOL     OW 2071   2.589   0.481   2.217  0.0662  0.1542  0.2959
  691SOL    HW1 2072   2.661   0.413   2.184 -0.8734  1.4540 -1.1867
  691SOL    HW2 2073   2.593   0.567   2.166 -0.4422 -2.5611  3.0952
  692SOL     OW 2074   2.762   1.226   0.717  0.3737  0.0160 -0.2806
  692SOL    HW1 2075   2.661   1.217   0.701 -1.1276  1.8788 -0.0097
  692SOL    HW2 2076   2.781   1.283   0.801  0.0814 -1.2255 -1.5878
  693SOL     OW 2077   2.808   2.935   0.632 -0.2443 -0.1193  0.8179
  693SOL    HW1 2078   2.821   3.015   0.695  1.2319  1.8816 -0.5461
  693SOL    HW2 2079   2.773   2.974   0.540 -3.2356  1.8405  0.5831
  694SOL     OW 2080   2.352   2.185   0.075  0.3542  0.2307  0.1757
  694SOL    HW1 2081   2.350   2.283   0.104 -0.5175 -1.3007 -1.8918
  694SOL    HW2 2082   2.272   2.151   0.024  2.3464  0.0412 -1.4435
  695SOL     OW 2083   0.590   2.963   1.457 -0.0887 -0.8078  0.3035
  695SOL    HW1 2084   0.528   2.890   1.422 -0.2461  2.8086  0.9925
  695SOL    HW2 2085   0.560   2.994   1.549  1.9052 -2.5492  0.1191
  696SOL     OW 2086   2.809   1.947   0.778  0.2341  0.0625  0.1843
  696SOL    HW1 2087   2.867   1.870   0.822  0.2708  1.0152  3.8844
  696SOL    HW2 2088   2.751   1.918   0.699  3.3474 -0.4861 -1.5226
  697SOL     OW 2089   1.613   2.048   1.821 -0.3841  0.6296 -0.2882
  697SOL    HW1 2090   1.699   2.008   1.869  2.9355 -1.7758 -0.3910
  697SOL    HW2 2091   1.634   2.147   1.794  1.7634 -1.6463  0.8560
  698SOL     OW 2092   2.937   0.436   2.751  0.0943 -0.0544 -0.1267
  698SOL    HW1 2093   2.910   0.402   2.658 -0.6268 -0.0975 -0.4275
  698SOL    HW2 2094   3.017   0.383   2.796 -1.8040  3.5399  2.9678
  699SOL     OW 2095   1.576   0.085   2.931 -0.3947  0.0953  0.0232
  699SOL    HW1 2096   1.546   0.006   2.878  1.6238  2.5201  1.2471
  699SOL    HW2 2097   1.617   0.157   2.868  0.2336 -1.5085 -2.5738
  700SOL     OW 2098   0.989   2.304   1.325  0.7061 -0.3694 -0.1753
  700SOL    HW1 2099   1.080   2.262   1.296 -0.4099  0.4821  1.3630
  700SOL    HW2 2100   0.924   2.307   1.244  0.3169 -0.3409 -1.3577
  701SOL     OW 2101   1.942   2.835   3.060  0.2914 -0.1080  0.0800
  701SOL    HW1 2102   1.897   2.791   3.144 -0.2342 -0.4149  0.6143
  701SOL    HW2 2103   1.964   2.936   3.084  1.3283 -0.7523  2.2299
  702SOL     OW 2104   2.075   1.349   1.966 -0.2298 -0.2781 -1.1454
  702SOL    HW1 2105   2.158   1.295   1.941 -0.5734  0.4664 -0.6422
  702SOL    HW2 2106   2.038   1.401   1.879 -2.4752  2.0514 -0.9889
  703SOL     OW 2107   1.948   0.893   1.425  0.3107 -0.0171  0.1390
  703SOL    HW1 2108   1.936   0.809   1.492  1.3989 -1.3777  0.4357
  703SOL    HW2 2109   2.007   0.969   1.463  2.2763 -0.3959 -1.2130
  704SOL     OW 2110   0.320   2.051   1.659  0.4803  0.1050 -0.0886
  704SOL    HW1 2111   0.352   1.992   1.737 -1.9144 -3.5058  0.2739
  704SOL    HW2 2112   0.386   2.133   1.646 -2.2982  1.1654  0.3943
  705SOL     OW 2113   2.482   1.451   0.963 -0.3280 -0.6868 -0.0685
  705SOL    HW1 2114   2.458   1.449   0.861 -1.7489 -1.1755  1.7049
  705SOL    HW2 2115   2.576   1.409   0.985  1.2960 -0.3657  1.2064
  706SOL     OW 2116   0.665   1.672   1.833  0.3815  0.0567  0.0776
  706SOL    HW1 2117   0.689   1.580   1.867  0.9234  2.0434 -0.7971
  706SOL    HW2 2118   0.678   1.746   1.904  3.0221 -0.4156  0.6018
  707SOL     OW 2119   2.288   1.206   1.889 -0.2216 -0.2312 -0.2036
  707SOL    HW1 2120   2.388   1.201   1.926  0.5745 -0.2643  2.4717
  707SOL    HW2 2121   2.255   1.108   1.864  0.2979  0.5310  0.4611
  708SOL     OW 2122   3.035   0.530   3.071 -0.7516 -0.5164 -0.6779
  708SOL    HW1 2123   3.051   0.607   3.009  1.0371 -0.8113  0.7669
  708SOL    HW2 2124   3.046   0.449   3.009 -0.7088  0.2569  1.5541
  709SOL     OW 2125   1.819   1.851   0.203 -0.0555 -0.0436 -0.3604
  709SOL    HW1 2126   1.856   1.946   0.224 -0.3845  0.5113  1.0931
  709SOL    HW2 2127   1.821   1.824   0.101 -1.0735 -1.6042 -0.3051
  710SOL     OW 2128   1.720   1.633   2.438 -0.7591 -0.6314 -0.1880
  710SOL    HW1 2129   1.772   1.603   2.351  1.5424  2.2425 -1.1334
  710SOL    HW2 2130   1.715   1.549   2.506 -1.3593  0.6588 -0.1721
  711SOL     OW 2131   2.681   2.989   0.957  0.4540  0.0371  0.0062
  711SOL    HW1 2132   2.628   3.073   0.937 -0.2861  0.4419 -1.2722
  711SOL    HW2 2133   2.777   3.015   0.984  0.2390  1.6899  0.1610
  712SOL     OW 2134   1.340   2.202   1.993  0.1396 -0.1016 -0.2934
  712SOL    HW1 2135   1.422   2.255   2.038  0.2790  1.0559  0.3744
  712SOL    HW2 2136   1.341   2.202   1.887  0.6323 -0.1398 -1.4486
  713SOL     OW 2137   2.946   1.452   2.556  0.2137 -0.3478  0.5441
  713SOL    HW1 2138   2.894   1.365   2.537 -1.1910 -0.6318  0.7688
  713SOL    HW2 2139   2.927   1.486   2.651  2.0165  2.5501  0.5871
  714SOL     OW 2140   2.697   0.497   2.489 -0.7642  0.2616  0.0101
  714SOL    HW1 2141   2.659   0.419   2.551 -0.4985 -2.4472 -1.1202
  714SOL    HW2 2142   2.637   0.515   2.403 -0.7064  2.0590  0.9018
  715SOL     OW 2143   1.608   2.022   1.168  0.2699  0.5059  1.2200
  715SOL    HW1 2144   1.541   2.076   1.104 -2.4908 -1.2537  0.7308
  715SOL    HW2 2145   1.625   2.071   1.256 -1.6812  1.7712 -0.6600
  716SOL     OW 2146   1.222   0.105   1.463  0.4593 -0.5213 -0.1973
  716SOL    HW1 2147   1.120   0.130   1.448 -0.4074 -1.3284 -0.6054
  716SOL    HW2 2148   1.288   0.185   1.484 -0.8739  3.3644  2.3104
  717SOL     OW 2149   1.135   0.527   1.597 -0.2419  0.4808 -0.0412
  717SOL    HW1 2150   1.211   0.595   1.625  0.2252 -0.2678 -1.7271
  717SOL    HW2 2151   1.134   0.495   1.494 -0.6437  2.1585 -1.0794
  718SOL     OW 2152   0.682   0.942   0.994  0.6753 -0.9606  0.5078
  718SOL    HW1 2153   0.675   0.911   0.896 -1.1421  1.8219 -1.7772
  718SOL    HW2 2154   0.635   1.035   1.002 -0.6748  1.1395  2.1599
  719SOL     OW 2155   0.637   1.769   2.317  1.0686  0.2896  0.1152
  719SOL    HW1 2156   0.691   1.832   2.379 -0.6614  1.2795  1.0322
  719SOL    HW2 2157   0.534   1.744   2.336 -0.7793  0.7306 -2.5098
  720SOL     OW 2158   2.185   1.164   0.295  0.1601  0.2446  0.0856
  720SOL    HW1 2159   2.243   1.096   0.234  0.4360 -2.0897 -0.0855
  720SOL    HW2 2160   2.182   1.135   0.398  0.9157  0.3581  2.7507
  721SOL     OW 2161   2.256   2.989   2.122  0.1418 -0.0631  0.2737
  721SOL    HW1 2162   2.177   3.039   2.088  1.2043 -0.9278  0.3426
  721SOL    HW2 2163   2.252   2.986   2.224 -0.9473  1.6138 -1.7720
  722SOL     OW 2164   2.399   1.586   0.487 -0.2260  0.6161  0.4683
  722SOL    HW1 2165   2.460   1.545   0.417 -1.8615 -2.5770  1.4486
  722SOL    HW2 2166   2.328   1.651   0.449  1.2832 -2.3600 -0.5569
  723SOL     OW 2167   2.518   2.714   1.976 -0.2962  0.2256  0.4426
  723SOL    HW1 2168   2.550   2.794   2.034  0.8513  0.5923 -0.0674
  723SOL    HW2 2169   2.414   2.710   1.970  1.4693  1.4349  0.3492
  724SOL     OW 2170   0.526   2.481   2.422  0.3365  0.1010  0.4364
  724SOL    HW1 2171   0.431   2.466   2.465  1.4928 -1.0117 -1.3536
  724SOL    HW2 2172   0.601   2.499   2.492 -3.1166 -1.7602  0.2954
  725SOL     OW 2173   2.469   2.794   1.500 -0.4713 -0.2797 -0.3561
  725SOL    HW1 2174   2.447   2.832   1.405  0.0422  0.6280 -2.2708
  725SOL    HW2 2175   2.457   2.694   1.501 -4.0468  1.1400  1.3730
  726SOL     OW 2176   2.485   2.256   0.690 -0.0114 -0.2974  0.4677
  726SOL    HW1 2177   2.437   2.345   0.671 -1.8817  1.2022  0.0248
  726SOL    HW2 2178   2.481   2.184   0.610 -0.8465 -0.8812  0.5271
  727SOL     OW 2179   0.153   3.075   0.028 -0.2870  0.1762 -0.2376
  727SOL    HW1 2180   0.196   2.988   0.070  0.0700 -0.4774  2.4644
  727SOL    HW2 2181   0.164   3.089  -0.071 -1.3204  1.9047 -0.6245
  728SOL     OW 2182   2.886   0.663   0.971  0.7603  0.3808  0.2838
  728SOL    HW1 2183   2.797   0.642   0.916 -0.2018  0.3534  1.4339
  728SOL    HW2 2184   2.879   0.614   1.059  0.0360  1.1640 -2.3866
  729SOL     OW 2185   3.016   2.484   0.750  0.4594 -0.4129  0.1416
  729SOL    HW1 2186   2.982   2.391   0.783  0.1880  1.6212  1.1311
  729SOL    HW2 2187   3.109   2.469   0.721 -1.9684  0.0481  0.4895
  730SOL     OW 2188   2.636   0.665   0.828  0.1540  0.0422 -0.6599
  730SOL    HW1 2189   2.599   0.761   0.802  0.4417 -1.3127  1.1329
  730SOL    HW2 2190   2.663   0.612   0.740 -2.8705 -3.9857  0.1560
  731SOL     OW 2191   0.123   2.110   2.468  0.2723  0.1866 -0.9913
  731SOL    HW1 2192   0.052   2.153   2.534  0.8539  2.7049  0.0801
  731SOL    HW2 2193   0.202   2.174   2.458 -1.2632  0.8434 -0.3396
  732SOL     OW 2194   1.133   2.825   1.939 -0.0209  0.2411  0.2390
  732SOL    HW1 2195   1.171   2.795   2.029 -0.3219  1.5356 -0.5900
  732SOL    HW2 2196   1.152   2.759   1.864  0.6679  1.8415  2.5378
  733SOL     OW 2197   3.043   0.583   2.231 -0.4773 -0.0439  0.1175
  733SOL    HW1 2198   3.130   0.612   2.185 -1.5867  0.9775 -2.1176
  733SOL    HW2 2199   2.987   0.523   2.168  2.4603 -0.3306  4.9408
  734SOL     OW 2200   1.397   0.370   2.767  0.1342  0.0134  0.1806
  734SOL    HW1 2201   1.405   0.447   2.836  0.9870 -3.5043  0.7067
  734SOL    HW2 2202   1.317   0.306   2.786  0.4330 -2.0338 -0.0534
  735SOL     OW 2203   2.893   2.631   2.275  0.0410  0.0981 -0.4845
  735SOL    HW1 2204   2.845   2.610   2.184  0.1339 -1.8689  1.4089
  735SOL    HW2 2205   2.994   2.643   2.271 -0.0599 -0.8921  0.4527
  736SOL     OW 2206   0.783   0.305   2.652 -0.2764 -0.2536  0.4856
  736SOL    HW1 2207   0.676   0.318   2.643 -4.7278  0.3131  1.2410
  736SOL    HW2 2208   0.825   0.232   2.587 -0.4234 -0.7098 -0.0743
  737SOL     OW 2209   2.673   0.487   2.871  0.3373 -0.7093  0.1411
  737SOL    HW1 2210   2.645   0.437   2.958  1.9629 -2.2213 -0.2959
  737SOL    HW2 2211   2.776   0.480   2.856  0.0252 -4.6578 -1.1699
  738SOL     OW 2212   1.631   1.283   2.912 -0.0264  0.3723  0.1319
  738SOL    HW1 2213   1.735   1.265   2.907 -0.2360 -1.1163 -3.3638
  738SOL    HW2 2214   1.579   1.209   2.860 -2.6271 -0.4210 -1.0165
  739SOL     OW 2215   1.721   0.621   0.686  0.7871 -0.4360  0.6388
  739SOL    HW1 2216   1.793   0.666   0.742 -3.5154  1.4327 -1.1955
  739SOL    HW2 2217   1.758   0.537   0.640  3.2386  1.7155 -0.7670
  740SOL     OW 2218   1.972   1.902   2.220  0.2056  0.3368 -0.3051
  740SOL    HW1 2219   2.020   1.858   2.304  3.7360  1.3730  0.0635
  740SOL    HW2 2220   1.878   1.875   2.201  0.6163 -1.7668 -0.4341
  741SOL     OW 2221   2.526   0.041   2.604 -0.0639 -0.2705  0.1624
  741SOL    HW1 2222   2.626   0.069   2.603  0.2594 -1.3180  1.9239
  741SOL    HW2 2223   2.476   0.045   2.510 -1.6841  0.5239 -1.0159
  742SOL     OW 2224   2.240   1.428   0.232 -0.0820 -0.2191  0.4913
  742SOL    HW1 2225   2.183   1.508   0.269  0.9984 -2.6135  1.8779
  742SOL    HW2 2226   2.194   1.334   0.246 -2.9729  1.6087  0.3230
  743SOL     OW 2227   1.856   0.670   2.602 -0.1238  0.5728  0.4355
  743SOL    HW1 2228   1.808   0.616   2.531  1.1074  0.3188 -1.7933
  743SOL    HW2 2229   1.797   0.751   2.637  1.8043  0.0872  3.1322
  744SOL     OW 2230   2.610   2.105   0.138 -0.1999 -0.7929 -0.3032
  744SOL    HW1 2231   2.508   2.150   0.128 -1.3776  1.7792  1.0011
  744SOL    HW2 2232   2.615   2.003   0.146 -0.2840  0.7236 -0.2736
  745SOL     OW 2233   2.172   2.610   2.340  0.2709  0.0074  0.3310
  745SOL    HW1 2234   2.101   2.614   2.267 -0.8345 -0.3614  1.2416
  745SOL    HW2 2235   2.167   2.694   2.399  0.2616 -0.3937  3.4726
  746SOL     OW 2236   0.007   2.617   1.710 -0.0019  0.1401 -0.2586
  746SOL    HW1 2237   0.093   2.584   1.659  1.0766 -1.3632 -0.6005
  746SOL    HW2 2238   0.024   2.696   1.777 -0.9372  0.1291  3.5681
  747SOL     OW 2239   0.037   1.774   1.654 -0.7358  0.4721 -0.4076
  747SOL    HW1 2240  -0.017   1.689   1.641 -0.8686 -1.0989 -0.7949
  747SOL    HW2 2241   0.126   1.784   1.593  1.0517  0.9686 -1.3509
  748SOL     OW 2242   1.815   2.741   2.832  0.5684 -0.0574 -0.0792
  748SOL    HW1 2243   1.841   2.805   2.915 -1.2139  1.3258 -0.4130
  748SOL    HW2 2244   1.710   2.757   2.820  0.6024 -1.4803  1.6271
  749SOL     OW 2245   1.310   3.051   0.958 -0.9685  0.2040  0.1070
  749SOL    HW1 2246   1.225   2.997   0.972 -0.8964  0.9986 -0.4602
  749SOL    HW2 2247   1.381   3.008   0.889 -0.1318 -0.9998 -2.1374
  750SOL     OW 2248   2.308   0.184   1.883  0.3257  0.0282 -0.2489
  750SOL    HW1 2249   2.329   0.237   1.797 -0.1159 -3.0217 -1.5190
  750SOL    HW2 2250   2.334   0.233   1.972  1.1640  2.6808  0.9061
  751SOL     OW 2251   0.897   2.140   2.757  0.0110 -0.0835 -0.6871
  751SOL    HW1 2252   0.967   2.163   2.832 -0.2328 -1.6906 -1.9494
  751SOL    HW2 2253   0.806   2.108   2.798 -0.4881 -2.5497 -0.2770
  752SOL     OW 2254   1.290   0.872   1.370  0.5007  0.2360 -0.0221
  752SOL    HW1 2255   1.362   0.934   1.334 -1.9207  0.2816  2.2893
  752SOL    HW2 2256   1.334   0.782   1.385 -0.8064  2.2313  0.0646
  753SOL     OW 2257   0.920   2.569   1.679  0.0519  0.0649  0.4109
  753SOL    HW1 2258   1.017   2.608   1.696 -0.2606 -1.0084  1.0414
  753SOL    HW2 2259   0.857   2.638   1.630  1.4350  0.5644 -2.5765
  754SOL     OW 2260   1.096   1.221   3.030  0.4562  0.5862  0.7786
  754SOL    HW1 2261   1.184   1.160   3.019 -0.5181 -2.3006  0.5047
  754SOL    HW2 2262   1.112   1.327   3.039  0.3612  0.8169  1.2617
  755SOL     OW 2263   1.982   0.456   2.229 -0.1906 -0.3919 -0.1609
  755SOL    HW1 2264   2.055   0.399   2.280 -0.6477 -0.7401 -2.1335
  755SOL    HW2 2265   1.895   0.477   2.283  1.8877  1.3804  1.5366
  756SOL     OW 2266   2.545   1.033   2.951 -0.3230 -0.1997 -0.0868
  756SOL    HW1 2267   2.641   1.037   2.985 -0.6690  0.7038  1.6691
  756SOL    HW2 2268   2.497   0.945   2.978  1.0744  4.2787  2.1781
  757SOL     OW 2269   0.008   0.477   1.814 -0.4388 -0.9854 -0.9852
  757SOL    HW1 2270   0.067   0.464   1.732 -2.0178  3.4217 -1.3118
  757SOL    HW2 2271   0.047   0.421   1.895  0.2899  0.0174  1.3043
  758SOL     OW 2272   2.384   0.093   1.460  0.1365  0.2650 -0.5522
  758SOL    HW1 2273   2.323   0.020   1.506 -1.0336 -0.5681 -2.6678
  758SOL    HW2 2274   2.346   0.129   1.367 -0.8441 -2.3314  0.8387
  759SOL     OW 2275   1.711   0.069   0.064  0.5447  0.5049  0.1261
  759SOL    HW1 2276   1.650   0.074  -0.023  1.1296  1.0100 -1.7003
  759SOL    HW2 2277   1.813   0.063   0.046  0.8476 -1.9417  1.2639
  760SOL     OW 2278   2.723   2.085   2.806 -0.0152 -0.9950  0.3331
  760SOL    HW1 2279   2.727   1.999   2.865 -0.0631  1.2867  0.9724
  760SOL    HW2 2280   2.707   2.172   2.861  1.0512  1.0354 -0.4437
  761SOL     OW 2281   1.896   1.758   1.718  0.0299 -0.0332 -0.0008
  761SOL    HW1 2282   1.953   1.688   1.766 -0.4771  0.3905 -0.1316
  761SOL    HW2 2283   1.836   1.716   1.651  1.0435  1.1134  2.7333
  762SOL     OW 2284   0.476   2.354   0.988 -0.4939 -0.5116 -0.4527
  762SOL    HW1 2285   0.523   2.349   0.893  3.7721 -1.5907 -0.3999
  762SOL    HW2 2286   0.528   2.407   1.062  0.2819 -1.5508  3.4185
  763SOL     OW 2287   2.063   1.501   2.918 -0.1497  0.0418 -0.7842
  763SOL    HW1 2288   2.149   1.488   2.970  0.7762 -0.6914  2.5757
  763SOL    HW2 2289   1.982   1.490   2.980 -1.5420 -0.5109  0.0272
  764SOL     OW 2290   0.648   0.612   0.852 -0.6211  0.2995 -0.0029
  764SOL    HW1 2291   0.576   0.545   0.816 -2.3791  2.6556 -0.5077
  764SOL    HW2 2292   0.742   0.577   0.893  0.3987  0.8720 -0.0337
  765SOL     OW 2293   0.716   0.259   0.760 -0.0037 -0.1423  0.3695
  765SOL    HW1 2294   0.791   0.291   0.694  0.0267  0.4844 -1.1620
  765SOL    HW2 2295   0.738   0.300   0.858 -0.1736  2.0884 -0.5166
  766SOL     OW 2296   2.881   2.094   0.013  0.7055 -0.1107 -0.2677
  766SOL    HW1 2297   2.802   2.111   0.077  1.9439 -1.1882  2.1758
  766SOL    HW2 2298   2.936   2.182   0.002  0.7095 -4.2839  1.6441
  767SOL     OW 2299   2.800   1.573   0.614 -0.7205  0.3217  0.1015
  767SOL    HW1 2300   2.712   1.603   0.660 -0.4036 -1.9918  1.6423
  767SOL    HW2 2301   2.883   1.625   0.641  3.8310 -3.0463 -1.3504
  768SOL     OW 2302   1.076   0.160   0.286  1.2077 -0.2187  0.4975
  768SOL    HW1 2303   1.010   0.102   0.345 -3.9291  0.3887  1.4742
  768SOL    HW2 2304   1.171   0.122   0.271 -0.3879 -0.3092 -0.4228
  769SOL     OW 2305   0.988   1.907   2.214 -0.2842 -0.0782  0.2702
  769SOL    HW1 2306   0.916   1.912   2.286  0.3071  1.5432 -3.4599
  769SOL    HW2 2307   1.071   1.853   2.250 -0.3926 -2.1411 -1.3740
  770SOL     OW 2308   0.190   1.125   2.303  0.1056 -0.1011 -0.5148
  770SOL    HW1 2309   0.172   1.208   2.365  1.7759 -0.4892  0.2413
  770SOL    HW2 2310   0.100   1.086   2.269 -3.1973  0.8595 -2.9953
  771SOL     OW 2311   3.012   2.853   1.910  0.1029  0.5636  0.3454
  771SOL    HW1 2312   2.991   2.898   1.819 -1.3924  1.0496  0.4226
  771SOL    HW2 2313   2.991   2.905   1.996  1.5757 -0.1215 -0.8069
  772SOL     OW 2314   2.203   0.221   2.904  0.0085 -0.2051  0.6807
  772SOL    HW1 2315   2.302   0.182   2.919  2.7099 -0.9798 -0.5101
  772SOL    HW2 2316   2.171   0.285   2.982 -0.9070  0.3192 -2.4036
  773SOL     OW 2317   0.764   2.194   2.446  0.4586  0.0598 -0.2744
  773SOL    HW1 2318   0.721   2.227   2.352  1.5469 -0.5819  0.5464
  773SOL    HW2 2319   0.690   2.182   2.523  0.0843  1.5385  3.4730
  774SOL     OW 2320   2.038   3.094   2.643 -0.0374 -0.1036  0.0541
  774SOL    HW1 2321   2.058   3.188   2.692 -1.2466  4.6890  0.0888
  774SOL    HW2 2322   2.072   3.013   2.698 -0.4660  2.5829 -0.2526
  775SOL     OW 2323   2.536   2.839   2.418  0.4879  0.0756  0.2846
  775SOL    HW1 2324   2.534   2.941   2.393 -3.0246  0.2857 -2.9340
  775SOL    HW2 2325   2.629   2.809   2.457  0.0010 -0.6048  4.2124
  776SOL     OW 2326   0.021   1.327   0.190 -0.4600 -0.4506 -0.3300
  776SOL    HW1 2327   0.009   1.268   0.106  1.4301  0.6816  2.0590
  776SOL    HW2 2328  -0.031   1.294   0.275 -0.1501  0.8725  0.0433
  777SOL     OW 2329   0.300   2.850   0.413 -0.3504  0.2202  0.0313
  777SOL    HW1 2330   0.216   2.903   0.385 -0.6536  1.1030  0.0949
  777SOL    HW2 2331   0.389   2.906   0.408  2.3739  1.7764  0.0866
  778SOL     OW 2332   1.309   1.968   0.193 -0.1205  0.7385  0.2849
  778SOL    HW1 2333   1.264   2.006   0.283 -1.3126  2.0214  0.3245
  778SOL    HW2 2334   1.347   2.043   0.132 -3.0717 -0.6816  0.9929
  779SOL     OW 2335   0.189   0.848   0.463 -0.2328  0.4166  0.2711
  779SOL    HW1 2336   0.126   0.767   0.441  0.9953 -1.7331 -0.7400
  779SOL    HW2 2337   0.151   0.907   0.542 -0.1058 -2.6630  1.4302
  780SOL     OW 2338   0.094   0.217   2.228 -0.5657  0.4159 -0.7859
  780SOL    HW1 2339   0.146   0.295   2.257 -1.3318 -0.8918 -0.3452
  780SOL    HW2 2340   0.153   0.141   2.197  0.0577  1.1713 -1.5789
  781SOL     OW 2341   0.652   1.769   1.570 -0.5137 -0.4086  0.4719
  781SOL    HW1 2342   0.677   1.737   1.666 -0.8688  1.2169 -2.5230
  781SOL    HW2 2343   0.552   1.748   1.555  0.3041 -2.0557 -0.8143
  782SOL     OW 2344   2.599   0.190   0.893  0.1418  0.2915  0.3913
  782SOL    HW1 2345   2.533   0.185   0.809  1.5420  0.2066 -1.5602
  782SOL    HW2 2346   2.557   0.229   0.977  1.9907  0.8481 -1.6432
  783SOL     OW 2347   2.849   0.729   2.582  0.0570 -0.9458 -0.6657
  783SOL    HW1 2348   2.781   0.765   2.654  0.1974  0.0683 -2.6624
  783SOL    HW2 2349   2.809   0.650   2.531  0.2079  3.7325  0.4070
  784SOL     OW 2350   1.446   2.170   0.082 -0.8423 -0.1810  0.3112
  784SOL    HW1 2351   1.512   2.240   0.126  0.7782  1.1272  0.8187
  784SOL    HW2 2352   1.419   2.201  -0.017 -0.3335 -0.6166 -1.2893
  785SOL     OW 2353   2.133   0.360   0.038 -0.2204  0.2352 -0.4745
  785SOL    HW1 2354   2.050   0.373   0.100 -0.0050  1.5533 -1.5934
  785SOL    HW2 2355   2.171   0.455   0.018 -0.4915  2.8754  0.5805
  786SOL     OW 2356   2.045   2.179   2.204  0.1709  0.2743  0.5051
  786SOL    HW1 2357   2.031   2.075   2.212  3.3914 -1.4245 -2.3518
  786SOL    HW2 2358   2.132   2.204   2.145  1.4081 -0.2420  2.5619
  787SOL     OW 2359   1.410   0.626   0.977  0.5211  0.1886 -0.5631
  787SOL    HW1 2360   1.331   0.691   1.007 -1.2681  0.3896 -0.9063
  787SOL    HW2 2361   1.424   0.615   0.871  0.9771  1.4276 -2.5270
  788SOL     OW 2362   1.250   0.405   3.098  0.0094 -0.1650 -0.1412
  788SOL    HW1 2363   1.153   0.385   3.060  1.5746 -0.6192 -3.2176
  788SOL    HW2 2364   1.252   0.479   3.169  2.7746 -0.9581 -1.2741
  789SOL     OW 2365   2.577   0.075   1.821  0.2191 -0.7696 -0.9624
  789SOL    HW1 2366   2.476   0.108   1.837  2.8917 -3.1847  0.3314
  789SOL    HW2 2367   2.585  -0.027   1.803  0.5694 -2.8333 -0.1717
  790SOL     OW 2368   2.601   2.727   0.824 -0.8198 -0.8191  0.5593
  790SOL    HW1 2369   2.627   2.728   0.721 -2.5797  2.2651 -3.9726
  790SOL    HW2 2370   2.646   2.808   0.867 -1.9321  1.5309 -2.6871
  791SOL     OW 2371   1.917   1.245   0.232 -0.2168 -0.1126  0.2584
  791SOL    HW1 2372   1.820   1.210   0.252  1.0208  1.0984  1.3718
  791SOL    HW2 2373   1.996   1.191   0.272  1.1117  4.4372  2.3228
  792SOL     OW 2374   0.447   1.994   2.143  0.2024 -0.1912 -0.3930
  792SOL    HW1 2375   0.452   2.095   2.168  0.7255  2.3235  1.5957
  792SOL    HW2 2376   0.387   1.949   2.212 -2.1632  1.8026 -0.5256
  793SOL     OW 2377   2.100   1.566   2.137  0.2459  0.4088 -0.6834
  793SOL    HW1 2378   2.189   1.612   2.103 -2.9504  0.0984  0.5462
  793SOL    HW2 2379   2.078   1.485   2.077  0.2230  3.2318 -2.1100
  794SOL     OW 2380   0.427   1.330   2.435 -0.2998  0.2463  0.2316
  794SOL    HW1 2381   0.439   1.286   2.342 -0.2254 -0.6763 -0.0003
  794SOL    HW2 2382   0.461   1.427   2.442  1.6370 -0.3237  2.1657
  795SOL     OW 2383   2.382   2.281   1.700  0.1160  0.4372 -0.5495
  795SOL    HW1 2384   2.336   2.314   1.782 -1.1919 -0.8972 -1.1355
  795SOL    HW2 2385   2.383   2.177   1.694 -3.0904  0.0030 -0.6879
  796SOL     OW 2386   3.078   1.110   2.658  0.0291 -0.5558  0.0832
  796SOL    HW1 2387   2.981   1.096   2.685  1.9521  1.0712  2.4353
  796SOL    HW2 2388   3.138   1.109   2.744  0.5402  3.6058 -3.2500
  797SOL     OW 2389   0.779   0.617   1.349 -0.4298  0.6027  0.1233
  797SOL    HW1 2390   0.840   0.649   1.425 -1.0918 -1.3656 -0.8795
  797SOL    HW2 2391   0.723   0.691   1.303  1.2800  1.2445  1.4556
  798SOL     OW 2392   1.348   0.392   1.118 -0.1403  0.4790 -0.0135
  798SOL    HW1 2393   1.404   0.375   1.208 -0.1775  0.3274  1.7582
  798SOL    HW2 2394   1.377   0.475   1.067 -3.5304 -1.9598  1.1205
  799SOL     OW 2395   1.922   2.632   1.044 -0.0374 -0.9491  0.1189
  799SOL    HW1 2396   1.879   2.612   1.139  2.4322  2.9073  1.9382
  799SOL    HW2 2397   1.855   2.633   0.970  1.7549  0.3037 -0.2953
  800SOL     OW 2398   2.965   0.752   1.931  0.1076  0.2591  0.5255
  800SOL    HW1 2399   2.989   0.852   1.954  1.2493  1.5239  1.6004
  800SOL    HW2 2400   3.038   0.687   1.973  0.2404 -1.9601  0.4411
  801SOL     OW 2401   1.968   2.208   0.058  0.5743 -0.2671 -0.1412
  801SOL    HW1 2402   1.881   2.221   0.002 -1.3549 -1.2648 -1.4602
  801SOL    HW2 2403   2.024   2.134   0.017 -2.2799  1.8745 -2.3114
  802SOL     OW 2404   0.620   0.808   2.584 -0.3630  0.1668  0.3151
  802SOL    HW1 2405   0.642   0.732   2.522 -2.5472 -1.6893  2.2322
  802SOL    HW2 2406   0.527   0.851   2.559  0.7652  0.4610 -0.6574
  803SOL     OW 2407   0.964   0.054   0.789 -0.2489  0.1265  0.2190
  803SOL    HW1 2408   1.032   0.117   0.834 -0.3465 -2.1184 -0.1570
  803SOL    HW2 2409   0.964   0.054   0.685  0.9461  3.1248  0.5863
  804SOL     OW 2410   0.304   3.095   2.167 -0.1284 -0.7140  0.4753
  804SOL    HW1 2411   0.343   3.184   2.131  0.3479 -2.2599  1.3833
  804SOL    HW2 2412   0.257   3.039   2.090  1.0731  0.6326 -0.2461
  805SOL     OW 2413   2.340   0.378   0.399  0.2916  0.7553 -0.6185
  805SOL    HW1 2414   2.418   0.349   0.460  0.0576 -0.1416  0.3998
  805SOL    HW2 2415   2.350   0.354   0.301  0.5316  4.1493  0.9609
  806SOL     OW 2416   0.651   2.467   1.768 -0.0989  0.3894 -0.2174
  806SOL    HW1 2417   0.620   2.566   1.786 -0.4497 -0.6587 -2.7384
  806SOL    HW2 2418   0.747   2.468   1.729  1.4366  1.5976  3.2184
  807SOL     OW 2419   2.490   0.816   0.361  0.0278 -0.2874  0.0949
  807SOL    HW1 2420   2.564   0.855   0.423  0.3936  2.2756 -0.8219
  807SOL    HW2 2421   2.437   0.888   0.306  1.7249  1.5995  0.4161
  808SOL     OW 2422   0.660   2.099   2.896 -0.1679  0.8208  0.1386
  808SOL    HW1 2423   0.598   2.164   2.946 -0.4370  0.1013  2.2820
  808SOL    HW2 2424   0.654   2.003   2.932  0.2159  0.6911  0.7133
  809SOL     OW 2425   2.601   1.959   1.888 -0.5030  0.0654  0.0945
  809SOL    HW1 2426   2.703   1.986   1.877  2.0184 -0.7578 -0.2899
  809SOL    HW2 2427   2.569   1.918   1.796 -1.0667 -0.3636  0.5318
  810SOL     OW 2428   2.148   1.112   0.561  0.6710  0.6318 -0.8547
  810SOL    HW1 2429   2.098   1.027   0.582 -3.2206  0.4452 -0.7984
  810SOL    HW2 2430   2.107   1.194   0.609  0.7505  1.3725  0.1983
  811SOL     OW 2431   1.331   2.497   1.224 -0.1221 -0.1501  0.2317
  811SOL    HW1 2432   1.318   2.395   1.245 -2.5015  0.3748  0.4974
  811SOL    HW2 2433   1.252   2.551   1.255  3.3880  0.4653 -1.0853
  812SOL     OW 2434   1.420   0.761   1.944  0.3726  0.1196  0.3304
  812SOL    HW1 2435   1.450   0.834   2.013 -3.8807  0.6107 -0.7627
  812SOL    HW2 2436   1.335   0.791   1.900  0.7763 -1.1475  1.8461
  813SOL     OW 2437   1.647   2.044   2.527 -0.2757  0.3813  0.3990
  813SOL    HW1 2438   1.700   1.961   2.552 -0.3544 -0.2795  0.4428
  813SOL    HW2 2439   1.609   2.036   2.430 -0.2937  0.4436 -1.3388
  814SOL     OW 2440   2.936   1.552   2.805  0.2843  0.7660 -0.2456
  814SOL    HW1 2441   2.995   1.518   2.879 -1.4160  3.4410  0.0738
  814SOL    HW2 2442   2.923   1.653   2.805 -1.2980  0.8729 -1.4325
  815SOL     OW 2443   2.185   2.903   2.776  0.3033  0.5546  0.5738
  815SOL    HW1 2444   2.169   2.806   2.812 -0.5709 -0.6747  2.6327
  815SOL    HW2 2445   2.232   2.968   2.837  0.4948 -1.4397 -0.5428
  816SOL     OW 2446   1.617   0.318   1.633 -0.0786 -0.0287  0.4859
  816SOL    HW1 2447   1.659   0.232   1.667 -1.6060 -1.1427 -2.8399
  816SOL    HW2 2448   1.562   0.372   1.704  0.0675  0.6161 -0.3506
  817SOL     OW 2449   0.332   1.156   2.614  0.1532  0.0685 -0.0264
  817SOL    HW1 2450   0.233   1.149   2.637  2.2515  1.8768  0.6962
  817SOL    HW2 2451   0.358   1.227   2.544 -2.5551 -0.2667 -0.3962
  818SOL     OW 2452   1.950   0.986   0.331 -0.5247  0.4899  0.2381
  818SOL    HW1 2453   2.034   0.933   0.371  1.4281 -2.2311 -0.3899
  818SOL    HW2 2454   1.881   1.017   0.399  0.8396 -0.4034 -1.7244
  819SOL     OW 2455   2.718   2.960   2.971  0.8608 -0.1304  0.6304
  819SOL    HW1 2456   2.796   2.888   2.967  2.0771  1.3213 -1.1088
  819SOL    HW2 2457   2.623   2.916   2.943 -0.4248 -0.7623  0.6160
  820SOL     OW 2458   1.215   1.048   0.588 -0.0282 -0.4537  0.0196
  820SOL    HW1 2459   1.193   1.146   0.612  0.8238  0.1242 -0.7549
  820SOL    HW2 2460   1.190   0.985   0.666  1.1337  1.3816 -2.7132
  821SOL     OW 2461   0.024   1.287   0.672 -0.4958 -0.0873  0.1304
  821SOL    HW1 2462  -0.029   1.300   0.764 -3.1331  0.9528  3.2505
  821SOL    HW2 2463   0.072   1.375   0.631  2.2788 -0.8552 -1.7800
  822SOL     OW 2464   2.607   1.792   2.426 -0.7048  0.3806  0.3904
  822SOL    HW1 2465   2.601   1.846   2.515 -1.5480 -2.7912  2.6666
  822SOL    HW2 2466   2.515   1.791   2.382 -0.4022  0.1977  0.4926
  823SOL     OW 2467   2.024   0.846   1.128 -0.5535 -0.5365 -0.7120
  823SOL    HW1 2468   2.000   0.806   1.224  0.4721 -0.5916 -2.4731
  823SOL    HW2 2469   1.943   0.898   1.086 -0.9659  1.6802  0.7298
  824SOL     OW 2470   0.264   1.976   2.864 -0.8592 -0.1588  0.0515
  824SOL    HW1 2471   0.238   1.898   2.926 -0.3614  1.0485  0.7332
  824SOL    HW2 2472   0.302   1.943   2.773 -0.3768  2.2889 -1.6870
  825SOL     OW 2473   1.287   1.083   0.307  0.1459 -0.9006  0.4340
  825SOL    HW1 2474   1.282   1.177   0.268 -1.4779 -1.0711 -1.0260
  825SOL    HW2 2475   1.242   1.074   0.401  0.6775 -0.6322 -1.7409
  826SOL     OW 2476   1.896   0.641   1.557  0.6053  0.1742  0.1802
  826SOL    HW1 2477   1.954   0.563   1.595  3.2491  1.9642 -0.0996
  826SOL    HW2 2478   1.811   0.605   1.508  1.2190  2.0429 -0.0746
  827SOL     OW 2479   0.713   1.236   0.254 -0.3232 -0.3838  1.0153
  827SOL    HW1 2480   0.792   1.182   0.209  2.4639 -0.5361 -1.8597
  827SOL    HW2 2481   0.639   1.173   0.295 -2.6172 -1.1884  3.3850
  828SOL     OW 2482   2.634   0.197   1.572  0.2169 -0.2213  0.6094
  828SOL    HW1 2483   2.547   0.195   1.514 -0.4228  0.2672 -2.3554
  828SOL    HW2 2484   2.614   0.180   1.672  2.2935  1.2352 -0.2007
  829SOL     OW 2485   2.843   2.446   2.966  0.4413 -0.1982 -0.3394
  829SOL    HW1 2486   2.769   2.379   2.991  2.3537  0.1265  0.0719
  829SOL    HW2 2487   2.809   2.540   2.930 -0.7410 -0.2331 -1.0564
  830SOL     OW 2488   2.794   0.955   3.051  0.8471  0.1659  0.2097
  830SOL    HW1 2489   2.859   1.037   3.065  1.9307  0.7544 -1.3610
  830SOL    HW2 2490   2.814   0.887   3.128 -0.2286 -0.4022 -0.3466
  831SOL     OW 2491   3.096   0.638   0.382  0.9299 -0.4395  0.2336
  831SOL    HW1 2492   3.080   0.582   0.466 -0.2694 -0.0461 -0.1047
  831SOL    HW2 2493   3.145   0.579   0.309  1.1121  1.3595 -0.9450
  832SOL     OW 2494   1.822   0.790   3.021  0.3425  0.1497  0.3135
  832SOL    HW1 2495   1.743   0.839   2.968 -0.8957 -0.5809 -1.1515
  832SOL    HW2 2496   1.799   0.689   3.031 -0.2491  0.3138 -0.4634
  833SOL     OW 2497   2.435   2.104   0.486  0.5424 -0.2690 -0.5603
  833SOL    HW1 2498   2.337   2.122   0.454  1.0106  1.6019 -0.4108
  833SOL    HW2 2499   2.469   2.009   0.480  2.4522  0.0010 -2.0458
  834SOL     OW 2500   0.108   0.243   0.488 -0.1658 -0.1741  0.2725
  834SOL    HW1 2501   0.086   0.160   0.540 -3.7370  4.2151 -1.8453
  834SOL    HW2 2502   0.110   0.230   0.382 -0.6816 -2.1229  0.1590
  835SOL     OW 2503   2.302   1.545   1.149  0.9419 -0.1333  0.8384
  835SOL    HW1 2504   2.325   1.629   1.200 -0.6031 -2.0144 -1.9331
  835SOL    HW2 2505   2.370   1.513   1.073 -0.1790  1.0553 -0.2454
  836SOL     OW 2506   1.628   0.841   2.600  0.5627 -0.1085 -0.0498
  836SOL    HW1 2507   1.530   0.816   2.613 -0.5056  0.2255  2.3207
  836SOL    HW2 2508   1.646   0.858   2.502 -0.9527  0.5687 -1.0572
  837SOL     OW 2509   1.625   0.095   0.565 -0.6452 -0.0312  0.2760
  837SOL    HW1 2510   1.561   0.117   0.644 -1.1853  1.6622  1.6739
  837SOL    HW2 2511   1.587   0.127   0.471 -0.3141  1.3972  0.8852
  838SOL     OW 2512   1.236   1.506   2.767 -0.3304 -0.9626 -0.8205
  838SOL    HW1 2513   1.233   1.481   2.867 -1.2318 -1.9537 -0.8127
  838SOL    HW2 2514   1.174   1.453   2.704 -0.3061 -0.5646  0.9650
  839SOL     OW 2515   1.744   0.262   1.017 -0.3882  0.5433 -0.3761
  839SOL    HW1 2516   1.724   0.351   1.069  1.8013  1.7479  0.3605
  839SOL    HW2 2517   1.681   0.184   1.043  0.9862 -0.8460 -1.9600
  840SOL     OW 2518   2.586   2.912   1.732 -0.8630 -0.2347  0.3332
  840SOL    HW1 2519   2.557   2.870   1.643  0.9283 -0.6747 -0.4295
  840SOL    HW2 2520   2.561   2.854   1.815 -1.4498 -2.2411  2.8984
  841SOL     OW 2521   1.568   0.869   2.950  0.7690  0.4866 -0.0849
  841SOL    HW1 2522   1.506   0.894   3.029 -2.4795 -0.7708 -0.1044
  841SOL    HW2 2523   1.555   0.934   2.872 -0.3899  1.8161 -1.9403
  842SOL     OW 2524   0.827   1.515   0.925  0.0468 -0.1028 -0.1316
  842SOL    HW1 2525   0.790   1.584   0.991  0.7195 -1.7389 -2.6022
  842SOL    HW2 2526   0.752   1.452   0.890  0.6923  1.5044  2.9711
  843SOL     OW 2527   0.094   0.109   1.450  0.2163  0.6356  0.6997
  843SOL    HW1 2528   0.172   0.159   1.491  0.9912  0.6113 -1.3745
  843SOL    HW2 2529   0.092   0.003   1.464  1.5107  0.5222  2.6636
  844SOL     OW 2530   0.801   2.512   0.298  0.3265  0.1758  0.2782
  844SOL    HW1 2531   0.746   2.486   0.380 -3.4265  2.6809 -1.1773
  844SOL    HW2 2532   0.740   2.559   0.229 -1.6966  0.1353 -0.2421
  845SOL     OW 2533   1.606   2.884   1.364  0.5787 -0.0623  0.3381
  845SOL    HW1 2534   1.674   2.872   1.444 -1.3379 -2.5441  1.0173
  845SOL    HW2 2535   1.519   2.938   1.387  1.2349  0.7399  0.0939
  846SOL     OW 2536   1.542   2.957   0.824  0.5010  0.4404  0.7450
  846SOL    HW1 2537   1.512   2.978   0.728  1.1906 -0.9823 -0.3382
  846SOL    HW2 2538   1.641   2.975   0.828  0.0610 -0.4914 -1.8957
  847SOL     OW 2539   2.016   1.629   0.273 -0.2316  0.3116 -0.2729
  847SOL    HW1 2540   1.990   1.556   0.342 -0.3472  1.5387  0.2307
  847SOL    HW2 2541   1.945   1.655   0.200  2.5429 -1.3412 -0.3171
  848SOL     OW 2542   2.515   0.785   2.629  0.3278 -0.5720  0.5398
  848SOL    HW1 2543   2.501   0.893   2.634 -0.2237  1.3819  1.0531
  848SOL    HW2 2544   2.445   0.729   2.575  0.4892 -3.8093 -1.4296
  849SOL     OW 2545   2.559   0.841   2.344 -0.1923 -0.0667 -0.3702
  849SOL    HW1 2546   2.642   0.840   2.281  0.3479 -0.6681  1.4313
  849SOL    HW2 2547   2.569   0.782   2.426 -2.6532 -2.4673 -1.0454
  850SOL     OW 2548   1.535   0.126   1.346 -1.0469  0.5175  0.1923
  850SOL    HW1 2549   1.546   0.137   1.241  2.6176 -1.9699  0.2833
  850SOL    HW2 2550   1.486   0.041   1.379  1.6504  2.1735  0.5760
  851SOL     OW 2551   0.465   1.756   0.613  0.3450 -0.0607 -0.0598
  851SOL    HW1 2552   0.487   1.852   0.636  0.5802 -1.1245 -0.6346
  851SOL    HW2 2553   0.543   1.707   0.568  2.0298 -1.0237  0.8068
  852SOL     OW 2554   0.778   2.177   1.672  0.0747  0.6194 -0.4180
  852SOL    HW1 2555   0.764   2.252   1.604  1.3498 -3.2800  1.4765
  852SOL    HW2 2556   0.703   2.171   1.741  1.7225 -0.1381  0.1663
  853SOL     OW 2557   2.509   1.562   2.597 -0.2989  0.3306 -0.0855
  853SOL    HW1 2558   2.480   1.460   2.581  0.5280 -3.0415 -0.1081
  853SOL    HW2 2559   2.548   1.614   2.516 -2.2077  0.5097  0.0669
  854SOL     OW 2560   2.488   1.382   1.707  0.8763 -0.7564  0.5114
  854SOL    HW1 2561   2.526   1.343   1.616  1.5310 -0.1946 -2.4350
  854SOL    HW2 2562   2.410   1.329   1.748  3.0738 -0.6810  2.5271
  855SOL     OW 2563   2.110   2.360   0.969 -0.2533 -0.1898 -0.3918
  855SOL    HW1 2564   2.121   2.455   0.927  3.7201  1.6041 -0.8296
  855SOL    HW2 2565   2.163   2.351   1.055  0.1702  0.2393 -0.0499
  856SOL     OW 2566   1.375   1.511   0.857 -0.1468 -0.1761  0.1113
  856SOL    HW1 2567   1.430   1.573   0.910  1.3450  1.2965 -3.0908
  856SOL    HW2 2568   1.277   1.542   0.856  2.0334  0.4525 -0.5761
  857SOL     OW 2569   3.024   2.652   1.048 -0.9584 -0.1977 -0.3969
  857SOL    HW1 2570   2.934   2.606   1.063 -2.7562  0.1569  2.3192
  857SOL    HW2 2571   3.089   2.600   0.986 -4.5945 -0.0026 -1.8681
  858SOL     OW 2572   2.306   2.020   1.742 -0.3723 -0.0081 -0.7090
  858SOL    HW1 2573   2.219   2.064   1.703 -0.2779 -0.2128 -1.6181
  858SOL    HW2 2574   2.340   1.939   1.692 -2.1570  3.1639 -1.0223
  859SOL     OW 2575   2.488   0.548   1.036 -0.5632 -0.2769 -0.1076
  859SOL    HW1 2576   2.551   0.590   0.965 -1.0086 -1.0284  0.7438
  859SOL    HW2 2577   2.514   0.460   1.079  0.3357  0.9823 -0.5415
  860SOL     OW 2578   1.919   2.809   0.422 -0.3317  0.0746 -0.5821
  860SOL    HW1 2579   1.876   2.774   0.333  1.5276 -1.4226  1.9966
  860SOL    HW2 2580   2.022   2.836   0.403  4.8793  1.5051  2.8292
  861SOL     OW 2581   1.065   2.519   2.815 -0.2352  0.6233  0.2356
  861SOL    HW1 2582   1.123   2.602   2.811 -0.4574 -1.7959  1.2478
  861SOL    HW2 2583   1.071   2.474   2.905 -0.1155  1.2195 -0.9255
  862SOL     OW 2584   2.860   2.528   1.612 -0.0483  0.3132 -0.2488
  862SOL    HW1 2585   2.955   2.559   1.645 -1.0666 -0.9615 -0.4232
  862SOL    HW2 2586   2.806   2.605   1.570 -3.4311 -2.2078  0.0347
  863SOL     OW 2587   1.838   2.706   0.192  0.0934  0.1091  0.1652
  863SOL    HW1 2588   1.919   2.637   0.188 -1.1677  0.9409  0.5886
  863SOL    HW2 2589   1.750   2.666   0.227 -0.1591  0.6668  1.0849
  864SOL     OW 2590   1.902   1.174   2.848 -0.1301  0.1274  0.3189
  864SOL    HW1 2591   1.922   1.121   2.762 -2.3551 -1.3030  2.2212
  864SOL    HW2 2592   1.982   1.173   2.912 -0.3870 -0.1600 -1.7513
  865SOL     OW 2593   2.241   1.853   0.592 -0.6166 -0.3762  0.1964
  865SOL    HW1 2594   2.306   1.851   0.672  0.2548 -3.0707 -1.4298
  865SOL    HW2 2595   2.165   1.786   0.597  0.8826  1.3833 -0.5623
  866SOL     OW 2596   2.989   2.938   1.026 -0.0826 -0.5817 -0.4827
  866SOL    HW1 2597   3.045   2.971   0.945  0.1264  3.0038 -1.6391
  866SOL    HW2 2598   3.001   2.834   1.041  0.6915  0.3996 -0.5496
  867SOL     OW 2599   0.351   1.381   0.911  0.9665 -0.3880 -0.4209
  867SOL    HW1 2600   0.346   1.313   0.835 -2.1617  1.8512  0.7849
  867SOL    HW2 2601   0.313   1.476   0.879 -3.6796  0.6354  1.8276
  868SOL     OW 2602   0.712   1.837   2.023 -0.1383  0.6827 -0.3552
  868SOL    HW1 2603   0.702   1.828   2.126 -0.6206 -0.0498  0.7948
  868SOL    HW2 2604   0.694   1.932   1.992  1.7491 -0.7457  0.2251
  869SOL     OW 2605   2.536   1.948   1.601 -0.2164 -0.2126  0.0049
  869SOL    HW1 2606   2.619   2.010   1.595  0.0799  1.2906  2.4462
  869SOL    HW2 2607   2.551   1.852   1.575 -0.6061  1.6076 -1.2889
  870SOL     OW 2608   2.314   2.647   1.276  0.2330 -0.0755 -0.1366
  870SOL    HW1 2609   2.312   2.552   1.235 -1.8191  1.3546  1.7265
  870SOL    HW2 2610   2.269   2.637   1.373 -2.3489  0.2872  1.9529
  871SOL     OW 2611   3.014   2.157   0.574 -0.4591 -0.5821 -0.4078
  871SOL    HW1 2612   3.009   2.254   0.602 -1.6485 -2.1004 -0.2564
  871SOL    HW2 2613   2.937   2.132   0.507 -1.5067  1.4101  0.2825
  872SOL     OW 2614   2.112   0.476   1.694 -0.2157 -0.0510 -0.2166
  872SOL    HW1 2615   2.073   0.480   1.790  3.4883  1.3491  2.4382
  872SOL    HW2 2616   2.204   0.423   1.696  2.2143 -0.4674  0.6507
  873SOL     OW 2617   1.708   2.110   3.047  0.0204 -0.1403 -0.1511
  873SOL    HW1 2618   1.630   2.115   3.112  1.5918 -1.0451 -1.1568
  873SOL    HW2 2619   1.669   2.092   2.951 -1.1859  1.2297  0.9768
  874SOL     OW 2620   0.668   2.433   0.782  0.6265 -0.1130  0.4314
  874SOL    HW1 2621   0.667   2.526   0.825 -0.8288  0.2345  0.7743
  874SOL    HW2 2622   0.764   2.391   0.768 -1.3977  0.8822 -0.2936
  875SOL     OW 2623   2.273   1.571   1.423 -0.4669 -0.7355  0.1220
  875SOL    HW1 2624   2.368   1.606   1.464  1.7027  1.0132  2.4719
  875SOL    HW2 2625   2.282   1.511   1.341  0.5320  2.7654 -0.2608
  876SOL     OW 2626   0.081   2.236   2.750 -0.4775  0.3609  0.0656
  876SOL    HW1 2627   0.151   2.179   2.796 -2.0903  1.0623 -1.4666
  876SOL    HW2 2628   0.076   2.327   2.786  1.2315  1.3744 -1.6760
  877SOL     OW 2629   2.892   2.674   0.583 -0.4435  1.2507 -0.5476
  877SOL    HW1 2630   2.883   2.771   0.616 -1.2316 -0.2624 -0.3709
  877SOL    HW2 2631   2.941   2.609   0.648  1.9888 -0.5261  0.0587
  878SOL     OW 2632   2.833   1.524   2.198  0.4084  0.3457 -0.2890
  878SOL    HW1 2633   2.933   1.494   2.198 -1.6423 -2.2489  1.8257
  878SOL    HW2 2634   2.813   1.581   2.279 -1.8973  0.5522 -0.8582
  879SOL     OW 2635   2.357   0.067   1.157 -0.1899  0.2474 -0.2102
  879SOL    HW1 2636   2.411  -0.019   1.188  2.1932 -0.5668 -1.7306
  879SOL    HW2 2637   2.265   0.039   1.118  1.2540 -2.4742 -0.1183
  880SOL     OW 2638   0.721   0.481   2.260 -0.3581  0.4568 -0.6371
  880SOL    HW1 2639   0.664   0.412   2.313  1.5285 -0.1253 -0.2360
  880SOL    HW2 2640   0.761   0.437   2.172 -0.7663 -0.8031  0.9285
  881SOL     OW 2641   0.867   0.065   0.470  0.2734  0.1126 -0.1150
  881SOL    HW1 2642   0.920  -0.021   0.494 -2.1379 -0.2313 -0.1618
  881SOL    HW2 2643   0.777   0.057   0.416  3.3460 -1.2976 -0.1918
  882SOL     OW 2644   2.717   1.726   1.671  0.3939 -0.1297 -0.3482
  882SOL    HW1 2645   2.813   1.703   1.652 -2.3312  3.6631  0.8136
  882SOL    HW2 2646   2.688   1.693   1.766 -1.1062 -0.7845 -2.2703
  883SOL     OW 2647   0.869   0.583   0.982 -0.0554  0.5449 -0.3332
  883SOL    HW1 2648   0.878   0.680   1.027  0.9955  1.6627  2.0387
  883SOL    HW2 2649   0.895   0.505   1.046 -1.6220  0.6092 -0.9984
  884SOL     OW 2650   1.206   1.783   1.176 -0.5112  0.7503  0.0980
  884SOL    HW1 2651   1.163   1.697   1.127 -1.1629 -3.4200 -0.9080
  884SOL    HW2 2652   1.160   1.875   1.159 -3.7838 -1.9056 -0.7418
  885SOL     OW 2653   2.361   1.802   2.296  0.3330 -0.2083 -0.3480
  885SOL    HW1 2654   2.282   1.751   2.340 -0.0906  4.4975 -1.1486
  885SOL    HW2 2655   2.329   1.899   2.281 -1.7558 -0.9534  1.5520
  886SOL     OW 2656   2.616   0.417   1.787 -0.7327 -0.2813  0.0281
  886SOL    HW1 2657   2.648   0.382   1.881  1.2935 -2.9431 -0.0907
  886SOL    HW2 2658   2.674   0.497   1.756 -1.6296  0.6093 -1.0583
  887SOL     OW 2659   0.103   2.044   1.308 -0.0546 -0.3015 -0.6649
  887SOL    HW1 2660   0.028   2.008   1.244  0.0775  2.8560  0.4349
  887SOL    HW2 2661   0.123   2.145   1.288  0.2834 -0.2207 -1.8347
  888SOL     OW 2662   0.569   1.267   1.536  0.3460  0.1510 -0.1603
  888SOL    HW1 2663   0.592   1.291   1.439  0.9205 -0.0431 -1.1350
  888SOL    HW2 2664   0.552   1.167   1.543 -1.6167  2.0066  0.8632
  889SOL     OW 2665   0.802   2.481   2.149 -0.4314  0.3034  0.2190
  889SOL    HW1 2666   0.751   2.391   2.155  0.4482 -0.6896 -1.0525
  889SOL    HW2 2667   0.878   2.488   2.084 -0.5409 -2.2640  0.5159
  890SOL     OW 2668   2.420   2.454   0.202 -0.2706  0.1718  0.5060
  890SOL    HW1 2669   2.444   2.505   0.114  2.0018  0.5277  1.1917
  890SOL    HW2 2670   2.366   2.511   0.274  0.1603  2.3210  1.4222
  891SOL     OW 2671   2.572   1.684   0.718  0.5285 -0.1734  0.5269
  891SOL    HW1 2672   2.559   1.702   0.817  5.2990  2.5807 -0.9925
  891SOL    HW2 2673   2.517   1.606   0.682  2.3148 -0.4414 -0.5942
  892SOL     OW 2674   0.378   0.291   2.161 -0.0149 -0.6787 -0.5110
  892SOL    HW1 2675   0.370   0.374   2.102  0.0257 -1.8190  0.2818
  892SOL    HW2 2676   0.450   0.298   2.233  0.5847  0.6268 -0.9390
  893SOL     OW 2677   1.677   0.274   2.750  0.3557  0.2098 -0.0858
  893SOL    HW1 2678   1.754   0.346   2.751  0.7218  1.5313 -0.9036
  893SOL    HW2 2679   1.585   0.318   2.735 -0.0876 -2.0928  1.2757
  894SOL     OW 2680   2.148   2.010   3.073  0.4822 -0.7830 -0.2618
  894SOL    HW1 2681   2.144   1.947   2.992 -1.1195  2.4540  0.4050
  894SOL    HW2 2682   2.198   1.967   3.152  2.4527 -1.2877  0.8219
  895SOL     OW 2683   2.819   1.424   0.937  0.4227  0.0050  0.0845
  895SOL    HW1 2684   2.901   1.356   0.917  0.5574 -1.6150 -2.3642
  895SOL    HW2 2685   2.838   1.521   0.913  0.5802 -0.2941 -2.2010
  896SOL     OW 2686   1.789   1.815   1.215  1.0102 -0.0629 -0.3587
  896SOL    HW1 2687   1.823   1.768   1.128 -2.5209 -0.9227 -0.1319
  896SOL    HW2 2688   1.725   1.896   1.194  0.4443  0.6297 -0.8225
  897SOL     OW 2689   0.330   0.587   0.038 -0.1620  0.3382  0.6042
  897SOL    HW1 2690   0.279   0.622  -0.042  4.3651 -0.6927  0.8402
  897SOL    HW2 2691   0.430   0.606   0.024 -2.0024  0.0319 -1.8305
  898SOL     OW 2692   0.581   2.894   1.104  0.4099  0.2003  0.3764
  898SOL    HW1 2693   0.542   2.990   1.122 -0.3011  0.4225  0.1257
  898SOL    HW2 2694   0.651   2.865   1.170 -0.7323 -0.3137  0.0337
  899SOL     OW 2695   2.793   0.909   1.278 -0.1787 -0.2140 -0.2827
  899SOL    HW1 2696   2.726   0.902   1.197 -0.3049 -1.3678 -1.4955
  899SOL    HW2 2697   2.888   0.890   1.241  0.4942  1.6133 -0.4320
  900SOL     OW 2698   1.035   2.567   2.386  0.6340 -0.0040 -0.2341
  900SOL    HW1 2699   0.975   2.531   2.306 -0.3241  1.0954  0.4459
  900SOL    HW2 2700   0.999   2.544   2.480 -1.7258  2.9665 -0.2150
  901SOL     OW 2701   1.931   2.343   1.333 -0.4304  0.1181 -0.1721
  901SOL    HW1 2702   1.890   2.330   1.239  0.3004  1.6840  3.2650
  901SOL    HW2 2703   2.026   2.300   1.345 -0.2270  1.5784 -1.0999
  902SOL     OW 2704   2.575   1.647   1.436 -0.5098 -0.1245 -0.5012
  902SOL    HW1 2705   2.632   1.660   1.523  0.6574  0.6221  2.1620
  902SOL    HW2 2706   2.639   1.626   1.356  0.1848  0.9208 -0.9954
  903SOL     OW 2707   0.265   2.494   1.965  0.3679 -0.5159  0.6594
  903SOL    HW1 2708   0.178   2.457   1.915 -0.5994 -0.3198 -1.3353
  903SOL    HW2 2709   0.311   2.565   1.905  1.6763  1.2717 -0.4725
  904SOL     OW 2710   2.076   0.793   2.499 -0.0061 -0.0136  0.6287
  904SOL    HW1 2711   2.010   0.748   2.562  1.8688  0.1589  1.4927
  904SOL    HW2 2712   2.046   0.786   2.399  0.1594 -0.0925 -1.0319
  905SOL     OW 2713   2.810   0.077   2.562 -0.7181 -0.0646  0.0161
  905SOL    HW1 2714   2.863  -0.005   2.524  0.4011 -1.6810 -0.5447
  905SOL    HW2 2715   2.856   0.169   2.550 -1.8260  1.6248  2.7129
  906SOL     OW 2716   0.148   1.727   1.908  0.0018  0.4664 -0.1926
  906SOL    HW1 2717   0.100   1.724   1.814  3.9487  0.5625 -2.7631
  906SOL    HW2 2718   0.236   1.781   1.904 -0.1156  1.8166 -1.7153
  907SOL     OW 2719   0.185   2.442   1.000 -0.8853 -0.3647  0.2979
  907SOL    HW1 2720   0.287   2.438   1.005 -0.8775 -1.1064 -0.7515
  907SOL    HW2 2721   0.147   2.380   1.067 -0.8886  0.1683 -1.6359
  908SOL     OW 2722   2.723   2.989   0.379 -0.3859 -0.3402 -0.3399
  908SOL    HW1 2723   2.690   3.049   0.302 -1.6765 -0.4415  1.7380
  908SOL    HW2 2724   2.761   2.898   0.338 -0.1945 -0.6811 -1.3748
  909SOL     OW 2725   0.773   1.024   2.641 -0.4775  0.1307  0.1399
  909SOL    HW1 2726   0.712   0.946   2.618  0.1336 -0.0083  1.4329
  909SOL    HW2 2727   0.837   1.052   2.567 -0.8175 -0.7226  1.0135
  910SOL     OW 2728   1.704   1.858   2.148 -0.2382 -0.0168  0.0167
  910SOL    HW1 2729   1.737   1.911   2.068 -1.3668 -0.3408 -0.7598
  910SOL    HW2 2730   1.631   1.916   2.197 -0.6727  0.3744  1.2914
  911SOL     OW 2731   1.814   2.914   1.563  0.2245 -0.3556  0.0922
  911SOL    HW1 2732   1.874   2.859   1.499 -0.8241 -1.8909 -0.0566
  911SOL    HW2 2733   1.795   2.860   1.653  1.5894  0.6289 -0.0858
  912SOL     OW 2734   2.872   0.979   0.717  0.1497 -0.1334  0.2812
  912SOL    HW1 2735   2.884   0.943   0.814  1.8088 -3.2685  0.0046
  912SOL    HW2 2736   2.814   1.066   0.711  3.2755  0.1977 -1.3723
  913SOL     OW 2737   2.589   1.286   1.466 -0.4352  0.5688 -0.1369
  913SOL    HW1 2738   2.613   1.185   1.451 -0.5955 -0.1217  1.1467
  913SOL    HW2 2739   2.638   1.349   1.396  0.7972  1.9333 -0.9517
  914SOL     OW 2740   2.899   0.556   1.221  0.5607  0.4405 -0.5112
  914SOL    HW1 2741   2.874   0.453   1.224  1.8864  1.1912  0.9910
  914SOL    HW2 2742   2.852   0.615   1.291 -0.7891 -3.4134  1.0756
  915SOL     OW 2743   1.202   0.777   1.089  0.5383 -0.2236 -0.3932
  915SOL    HW1 2744   1.235   0.850   1.153 -1.1815  1.3245  0.9647
  915SOL    HW2 2745   1.094   0.775   1.082 -2.8027 -1.7871  3.1846
  916SOL     OW 2746   0.595   0.025   0.666  0.3655 -0.2125  0.1620
  916SOL    HW1 2747   0.622   0.118   0.705  1.4005 -0.1854  0.0822
  916SOL    HW2 2748   0.604   0.028   0.560 -0.8479  0.6778  0.2966
  917SOL     OW 2749   2.829   2.616   1.948  0.4918 -0.1358 -0.0149
  917SOL    HW1 2750   2.735   2.630   1.898 -0.3735 -1.0950 -1.5595
  917SOL    HW2 2751   2.905   2.682   1.920 -1.2577  0.4440 -0.5738
  918SOL     OW 2752   1.048   2.185   2.997  0.3312  0.3201 -0.5739
  918SOL    HW1 2753   1.003   2.223   3.082  0.3877 -1.3492 -2.5717
  918SOL    HW2 2754   1.121   2.114   3.008 -3.1038 -0.2174  1.2620
  919SOL     OW 2755   0.845   1.678   2.814  0.2041 -0.0096 -0.7910
  919SOL    HW1 2756   0.901   1.759   2.778 -2.0694  2.0812 -1.4239
  919SOL    HW2 2757   0.840   1.598   2.746 -0.6048 -3.4731  0.5039
  920SOL     OW 2758   1.219   1.895   2.431  0.3431 -0.1928 -0.0912
  920SOL    HW1 2759   1.281   1.896   2.350  0.2810  0.4102  2.4829
  920SOL    HW2 2760   1.233   1.825   2.504 -0.2139 -0.7149 -0.0152
  921SOL     OW 2761   1.023   0.022   2.632  0.1873 -0.2238 -0.0887
  921SOL    HW1 2762   1.033   0.012   2.528  2.2079  1.9195 -3.7018
  921SOL    HW2 2763   0.935  -0.019   2.668 -0.5486  0.3948 -2.9755
  922SOL     OW 2764   2.157   2.383   2.780 -0.3789 -0.1795 -0.3081
  922SOL    HW1 2765   2.197   2.283   2.783 -2.4708 -1.0597 -0.4450
  922SOL    HW2 2766   2.110   2.405   2.684  0.4062  1.4877 -3.4277
  923SOL     OW 2767   1.239   2.661   0.255  0.1366 -0.6230  0.0088
  923SOL    HW1 2768   1.322   2.709   0.303 -0.4547  0.1955 -2.0945
  923SOL    HW2 2769   1.249   2.555   0.253  1.1967  0.3455  1.7796
  924SOL     OW 2770   2.899   1.504   0.141  0.6227 -0.3292 -0.4361
  924SOL    HW1 2771   2.821   1.515   0.072  0.4055 -1.3048 -0.8618
  924SOL    HW2 2772   2.987   1.463   0.097  2.3207  4.0418  0.3783
  925SOL     OW 2773   0.041   2.945   1.553  0.0355  0.0127 -0.0800
  925SOL    HW1 2774  -0.043   2.963   1.611  1.2514 -2.8070  3.0070
  925SOL    HW2 2775   0.038   2.847   1.513  1.8668 -1.4084 -4.9007
  926SOL     OW 2776   1.303   2.831   1.222 -0.2479  0.1902 -0.5159
  926SOL    HW1 2777   1.387   2.812   1.162  1.4495  0.4119  0.4827
  926SOL    HW2 2778   1.326   2.912   1.285  1.5087 -0.8068 -0.4587
  927SOL     OW 2779   0.341   2.663   1.764  0.5431  0.1648 -0.6211
  927SOL    HW1 2780   0.299   2.598   1.696 -1.7328  1.5037  0.2369
  927SOL    HW2 2781   0.309   2.764   1.744 -0.9807  2.7212  1.7425
  928SOL     OW 2782   1.533   2.074   2.270  0.2542  0.1304 -0.5418
  928SOL    HW1 2783   1.567   2.153   2.221 -1.7358  1.2411  0.0917
  928SOL    HW2 2784   1.430   2.053   2.266  2.0624  0.4406  1.0419
  929SOL     OW 2785   2.409   2.486   2.874  1.0174 -0.4611  0.1648
  929SOL    HW1 2786   2.309   2.476   2.854  0.4076  0.0373 -2.5836
  929SOL    HW2 2787   2.467   2.496   2.788  0.3393  2.4784 -0.1565
  930SOL     OW 2788   2.181   1.974   1.072  0.3485 -0.3274  0.1863
  930SOL    HW1 2789   2.173   1.929   1.164 -0.3989  0.4585  2.1179
  930SOL    HW2 2790   2.241   2.058   1.075 -3.1582 -0.1649 -0.0417
  931SOL     OW 2791   0.561   1.709   2.709 -0.2369  0.0316 -0.3435
  931SOL    HW1 2792   0.582   1.735   2.810  1.2323 -0.9353  3.7403
  931SOL    HW2 2793   0.642   1.648   2.679  3.9516  0.7575 -3.0724
  932SOL     OW 2794   0.437   0.105   2.942  0.0183 -0.3804  0.4944
  932SOL    HW1 2795   0.529   0.156   2.937  0.0060  0.4246 -1.9437
  932SOL    HW2 2796   0.448   0.024   2.996 -0.7134  5.5513  2.1888
  933SOL     OW 2797   1.018   0.797   3.047  0.7638 -0.9023 -0.2131
  933SOL    HW1 2798   0.974   0.811   3.138  1.0021 -2.8319  0.2180
  933SOL    HW2 2799   0.988   0.869   2.976 -0.6889 -0.3754  1.6536
  934SOL     OW 2800   0.789   2.945   2.636  0.0979 -0.5250  0.4782
  934SOL    HW1 2801   0.786   2.882   2.547  0.9965 -0.9005 -2.7016
  934SOL    HW2 2802   0.845   2.907   2.718  3.4816 -1.1528  0.1042
  935SOL     OW 2803   3.096   0.566   0.839 -0.3382 -0.1436  0.0229
  935SOL    HW1 2804   3.072   0.508   0.753 -1.6580 -1.2851 -0.0284
  935SOL    HW2 2805   3.014   0.610   0.883 -2.7317 -0.5669  2.0257
  936SOL     OW 2806   1.097   2.832   0.086  0.2337  0.4790 -0.0697
  936SOL    HW1 2807   1.156   2.879   0.015  0.4254  1.8905 -3.3018
  936SOL    HW2 2808   1.152   2.789   0.168  0.5887 -1.3216  0.9907
  937SOL     OW 2809   1.958   2.620   2.074  0.3264  0.6484 -0.0576
  937SOL    HW1 2810   1.909   2.672   2.150  2.4908  1.5288  2.1124
  937SOL    HW2 2811   2.009   2.685   2.018 -2.8083 -2.5325  0.2446
  938SOL     OW 2812   2.791   2.084   1.552 -0.2365 -0.4661 -0.3303
  938SOL    HW1 2813   2.751   2.180   1.569  1.8525 -0.4606 -3.6543
  938SOL    HW2 2814   2.873   2.072   1.609 -0.9599  2.4568 -1.7167
  939SOL     OW 2815   2.805   1.203   2.517 -0.3718  0.0845 -0.1390
  939SOL    HW1 2816   2.851   1.134   2.453 -0.5132  0.6605 -1.9475
  939SOL    HW2 2817   2.795   1.170   2.618  2.8361  3.0612  4.1441
  940SOL     OW 2818   1.032   0.429   2.721 -0.0446  0.3231  0.0962
  940SOL    HW1 2819   1.077   0.342   2.742  0.9538  1.9050  0.8088
  940SOL    HW2 2820   0.943   0.426   2.675  0.1985  1.5451  1.6032
  941SOL     OW 2821   0.049   2.795   2.255  0.0616  0.7430  0.3467
  941SOL    HW1 2822   0.108   2.702   2.248 -0.6747 -3.0299  0.8938
  941SOL    HW2 2823   0.100   2.868   2.313 -1.0558 -1.7287 -0.6758
  942SOL     OW 2824   0.100   0.095   2.482 -0.2374 -0.8487 -0.7024
  942SOL    HW1 2825   0.142   0.143   2.561 -1.3166 -1.1324  2.3676
  942SOL    HW2 2826   0.076   0.159   2.407 -1.0784  0.0991 -0.5911
  943SOL     OW 2827   2.116   1.716   2.387  0.3839  0.5538  0.5618
  943SOL    HW1 2828   2.107   1.633   2.327 -0.9995  1.7804 -0.4614
  943SOL    HW2 2829   2.090   1.699   2.481  0.9149 -0.9953  0.7882
  944SOL     OW 2830   2.176   2.345   1.470  0.0351  0.1103  0.3119
  944SOL    HW1 2831   2.258   2.400   1.496  0.8667  1.0375 -0.6200
  944SOL    HW2 2832   2.130   2.283   1.541  0.1144 -2.7901 -0.0225
  945SOL     OW 2833   0.705   1.507   0.262  0.0299 -0.2050 -0.1242
  945SOL    HW1 2834   0.668   1.541   0.174 -0.3482  0.0908 -0.0406
  945SOL    HW2 2835   0.730   1.405   0.266  3.1901 -1.2538 -0.3705
  946SOL     OW 2836   0.398   0.952   2.442  0.2202 -0.0938  0.1337
  946SOL    HW1 2837   0.321   0.901   2.392 -2.7674 -1.7328 -1.1170
  946SOL    HW2 2838   0.367   1.036   2.499 -0.3551  0.5569  0.8456
  947SOL     OW 2839   1.529   0.447   3.092  0.0210 -0.4266  0.4057
  947SOL    HW1 2840   1.487   0.511   3.017  2.5922  2.4254 -0.6225
  947SOL    HW2 2841   1.466   0.385   3.134  2.0736  1.8406 -0.0343
  948SOL     OW 2842   1.920   3.047   2.165  0.7317  0.0197 -0.7716
  948SOL    HW1 2843   1.941   2.998   2.071 -1.4215 -0.7631 -0.6315
  948SOL    HW2 2844   1.906   2.986   2.247  1.2703  2.0698  0.1986
  949SOL     OW 2845   0.542   2.487   0.533  0.1188  0.0959  0.2975
  949SOL    HW1 2846   0.577   2.577   0.491  1.6161 -2.3862 -2.6036
  949SOL    HW2 2847   0.578   2.453   0.625  0.3584 -1.3850 -2.1344
  950SOL     OW 2848   0.192   2.201   3.026  0.3192  0.1729 -0.1231
  950SOL    HW1 2849   0.105   2.253   3.001  1.7535  1.5421 -1.0491
  950SOL    HW2 2850   0.208   2.116   2.970  0.1542 -2.2268  0.6872
  951SOL     OW 2851   1.261   2.713   2.738 -0.4402  0.2905  0.1218
  951SOL    HW1 2852   1.342   2.654   2.708  2.6013  0.0320 -2.4717
  951SOL    HW2 2853   1.225   2.779   2.668 -1.7180  0.5978  3.5281
  952SOL     OW 2854   0.016   1.731   0.401  0.2385  0.6449  0.2925
  952SOL    HW1 2855   0.087   1.801   0.394 -2.4628 -3.4653  3.3232
  952SOL    HW2 2856   0.025   1.683   0.487  1.3966  0.1660  0.0531
  953SOL     OW 2857   2.488   1.746   0.269 -0.2593  0.1468  0.0233
  953SOL    HW1 2858   2.511   1.647   0.283 -2.0021  0.8066  1.6127
  953SOL    HW2 2859   2.508   1.782   0.169 -0.6218  0.6319 -2.1246
  954SOL     OW 2860   2.221   0.560   0.964 -0.2603 -0.0354  0.2234
  954SOL    HW1 2861   2.209   0.592   0.867 -1.2196 -0.4388  0.0383
  954SOL    HW2 2862   2.318   0.536   0.987  0.9230 -2.5826 -0.3947
  955SOL     OW 2863   0.184   2.609   1.278  0.4570  0.6747 -0.3572
  955SOL    HW1 2864   0.088   2.651   1.287 -2.4291  1.3249  0.6036
  955SOL    HW2 2865   0.244   2.653   1.209 -3.0273 -1.6364  0.6772
  956SOL     OW 2866   2.772   2.442   2.449  0.1310 -0.4081 -0.3933
  956SOL    HW1 2867   2.801   2.337   2.440 -3.3727 -2.1171 -0.4690
  956SOL    HW2 2868   2.799   2.504   2.373 -1.7554 -2.6708 -0.5092
  957SOL     OW 2869   1.587   2.077   2.814 -0.1051 -0.1433 -0.3009
  957SOL    HW1 2870   1.567   1.980   2.780 -2.0514 -0.4377 -2.7134
  957SOL    HW2 2871   1.621   2.144   2.740  2.9871  1.9721  0.1352
  958SOL     OW 2872   2.637   2.276   3.018  0.2095  0.7584 -0.3062
  958SOL    HW1 2873   2.545   2.316   2.996  1.5011 -0.1595 -0.2853
  958SOL    HW2 2874   2.624   2.200   3.091 -0.0264  1.6442 -1.0001
  959SOL     OW 2875   0.266   2.821   0.092  0.3842 -0.0443 -0.2561
  959SOL    HW1 2876   0.185   2.790   0.036  1.3969 -0.0415 -1.4745
  959SOL    HW2 2877   0.296   2.753   0.168  0.0766 -1.6347 -0.0407
  960SOL     OW 2878   2.026   0.470   1.955 -0.5554 -0.4948  0.3955
  960SOL    HW1 2879   1.968   0.544   1.912  2.1214 -1.0178 -0.2464
  960SOL    HW2 2880   2.004   0.466   2.061 -1.0708 -0.3890 -0.0088
  961SOL     OW 2881   2.583   1.805   0.987  0.1609 -0.3134 -0.2422
  961SOL    HW1 2882   2.573   1.905   0.951 -3.3296  2.5421 -2.2025
  961SOL    HW2 2883   2.529   1.789   1.077 -0.9740  1.8168  0.4879
  962SOL     OW 2884   1.343   0.885   0.087 -0.0233 -0.2953 -0.2883
  962SOL    HW1 2885   1.268   0.856   0.027 -1.3288  2.7032  3.3425
  962SOL    HW2 2886   1.314   0.959   0.151 -0.6404 -0.7078  0.3742
  963SOL     OW 2887   2.203   2.570   1.869 -0.3410 -0.0969 -0.0363
  963SOL    HW1 2888   2.175   2.477   1.903  1.1654  3.3654 -1.5555
  963SOL    HW2 2889   2.200   2.639   1.949 -0.3468 -1.4669  1.0707
  964SOL     OW 2890   2.365   0.343   1.674  0.2242  0.0969 -0.4970
  964SOL    HW1 2891   2.455   0.385   1.708 -1.1956  0.5250  0.2380
  964SOL    HW2 2892   2.369   0.316   1.573  1.8076  3.3101  0.4765
  965SOL     OW 2893   2.637   3.062   0.114 -0.2043  0.0677  0.0920
  965SOL    HW1 2894   2.684   3.020   0.027 -0.6647 -2.6144 -2.4454
  965SOL    HW2 2895   2.534   3.072   0.113  1.8168 -0.3073 -2.2237
  966SOL     OW 2896   2.539   2.514   2.213 -0.6723 -0.5610 -0.1018
  966SOL    HW1 2897   2.522   2.555   2.305  0.6189 -0.7093  1.7941
  966SOL    HW2 2898   2.529   2.583   2.136 -0.8103 -1.6008 -1.0472
  967SOL     OW 2899   2.797   2.806   2.493 -0.4085 -0.0151  0.1282
  967SOL    HW1 2900   2.825   2.726   2.430 -0.9618 -0.6739 -1.8595
  967SOL    HW2 2901   2.871   2.877   2.503  2.0336 -0.7693 -0.9174
  968SOL     OW 2902   1.908   0.991   2.627  0.7662 -0.8028 -0.7317
  968SOL    HW1 2903   1.822   1.048   2.611  0.5711  2.4449 -0.6234
  968SOL    HW2 2904   1.950   0.937   2.554 -1.2729 -1.2391  2.3520
  969SOL     OW 2905   2.819   2.454   1.091 -0.1764  0.3030 -0.4501
  969SOL    HW1 2906   2.777   2.424   0.998  0.0841 -1.3083 -2.0089
  969SOL    HW2 2907   2.839   2.376   1.156 -0.9118  1.8420 -0.9508
  970SOL     OW 2908   1.027   2.125   1.811  0.4728  0.0197 -0.9195
  970SOL    HW1 2909   0.941   2.129   1.753 -0.0447 -0.3325  0.7362
  970SOL    HW2 2910   1.018   2.174   1.904 -3.0107 -1.1617 -1.0447
  971SOL     OW 2911   2.875   2.070   1.864 -0.1101 -0.1736 -0.2586
  971SOL    HW1 2912   2.865   2.168   1.913 -1.3713  2.0975  2.4676
  971SOL    HW2 2913   2.941   2.062   1.784  1.8884  1.5230 -2.1465
  972SOL     OW 2914   2.003   2.482   0.213  0.0374 -0.5965  0.0492
  972SOL    HW1 2915   1.993   2.392   0.163 -3.2212  1.5152  0.4711
  972SOL    HW2 2916   2.022   2.471   0.311 -0.8682  3.9048 -1.7138
  973SOL     OW 2917   1.312   1.056   1.883  0.0832  0.1455 -0.0385
  973SOL    HW1 2918   1.242   1.032   1.807 -2.8024  0.3192  0.4892
  973SOL    HW2 2919   1.296   1.149   1.927 -0.6825 -1.2832 -1.3658
  974SOL     OW 2920   1.599   0.559   1.974  0.3987 -0.2144  0.7732
  974SOL    HW1 2921   1.690   0.572   1.919 -0.2428  0.0118 -2.7451
  974SOL    HW2 2922   1.535   0.644   1.948 -2.0764  0.3064  0.1425
  975SOL     OW 2923   2.370   3.100   0.071 -0.0948  0.5612 -0.0321
  975SOL    HW1 2924   2.327   3.014   0.112  1.0189  0.4570  2.2158
  975SOL    HW2 2925   2.358   3.112  -0.031 -0.4139 -1.3679  1.2806
  976SOL     OW 2926   1.909   2.850   2.351 -0.0888 -0.0527 -0.5347
  976SOL    HW1 2927   1.819   2.810   2.322 -1.6994 -1.2055  0.6377
  976SOL    HW2 2928   1.922   2.837   2.456  1.3187 -1.6570 -0.2816
  977SOL     OW 2929   0.455   0.681   1.031  0.4468  0.3568  0.7583
  977SOL    HW1 2930   0.370   0.688   0.974  0.0896  1.6720 -0.4857
  977SOL    HW2 2931   0.539   0.678   0.971  2.2150 -1.9830 -2.3557
   3.10000   3.10000   3.10000
