1000 SPC/Fw water molecules t=   1.09000 step= 1090
 2931
    1SOL     OW    1   2.558   0.343   2.640 -0.2604 -0.3033 -0.6740
    1SOL    HW1    2   2.545   0.241   2.660 -2.1359  0.2688  0.8875
    1SOL    HW2    3   2.594   0.393   2.726  3.9182  1.0674 -0.0052
    2SOL     OW    4   2.725   3.023   1.402  0.6840 -0.5681 -0.3885
    2SOL    HW1    5   2.790   3.047   1.321  1.3213 -0.6625 -3.3263
    2SOL    HW2    6   2.694   3.110   1.450  0.0589  0.2221  0.3593
    3SOL     OW    7   2.608   2.616   0.441 -0.2674 -0.0841  0.0615
    3SOL    HW1    8   2.591   2.511   0.425 -1.4596 -0.0151 -2.4024
    3SOL    HW2    9   2.710   2.634   0.454 -0.1302 -1.5921 -0.9989
    4SOL     OW   10   1.227   1.560   2.325  0.1228  0.1166  0.5317
    4SOL    HW1   11   1.162   1.585   2.249  1.1200  1.4578 -2.1227
    4SOL    HW2   12   1.204   1.466   2.370 -2.7617 -2.5303  1.3820
    5SOL     OW   13   1.151   1.539   3.035  0.0497  0.1241 -1.0421
    5SOL    HW1   14   1.197   1.632   3.047  0.3823  1.8051 -1.3458
    5SOL    HW2   15   1.057   1.538   3.079  3.1480 -0.5717  1.0731
    6SOL     OW   16   0.163   1.740   2.985  0.3373  0.2352 -0.2654
    6SOL    HW1   17   0.082   1.790   3.041  0.9786 -0.0560  3.0116
    6SOL    HW2   18   0.231   1.699   3.052  0.2196 -1.8611  1.6708
    7SOL     OW   19   2.579   0.902   1.068 -0.3350  0.2000 -0.3391
    7SOL    HW1   20   2.476   0.905   1.094 -0.5947  0.7591  0.0863
    7SOL    HW2   21   2.594   0.866   0.971 -1.1448 -1.3092  0.5079
    8SOL     OW   22   0.401   0.613   1.505  0.0984 -0.6320 -0.5942
    8SOL    HW1   23   0.489   0.592   1.558 -0.0407 -1.3003  1.3533
    8SOL    HW2   24   0.408   0.592   1.404 -1.4650 -0.7348  1.6144
    9SOL     OW   25   1.196   0.925   2.424  0.0579  0.2130  0.0662
    9SOL    HW1   26   1.243   0.962   2.336  2.9252  2.8909 -0.2467
    9SOL    HW2   27   1.156   0.829   2.405 -0.9513 -0.0665  0.9253
   10SOL     OW   28   0.672   1.375   1.308 -0.1243  0.3375  0.0847
   10SOL    HW1   29   0.592   1.381   1.242 -1.4345  0.0006  0.1571
   10SOL    HW2   30   0.718   1.465   1.311 -1.9322 -3.8164 -2.3141
   11SOL     OW   31   2.308   2.800   0.859  0.1481  0.7088 -0.5011
   11SOL    HW1   32   2.264   2.817   0.947  1.8939  2.0448 -2.7449
   11SOL    HW2   33   2.408   2.797   0.863  1.8065  1.3573  0.2398
   12SOL     OW   34   1.518   0.870   0.371 -0.3218 -0.5915  0.7880
   12SOL    HW1   35   1.464   0.934   0.310  1.0934 -0.3741  0.0130
   12SOL    HW2   36   1.554   0.783   0.322  0.6269 -0.4830 -0.4304
   13SOL     OW   37   2.474   0.713   1.778 -0.1778 -0.1705 -0.6307
   13SOL    HW1   38   2.396   0.678   1.839  0.5227  2.3427  0.3256
   13SOL    HW2   39   2.461   0.691   1.679  3.0254 -1.5751  2.0617
   14SOL     OW   40   1.849   0.099   0.677 -0.0560 -0.1552  0.1896
   14SOL    HW1   41   1.761   0.096   0.622  0.6427  0.9269 -0.0286
   14SOL    HW2   42   1.848   0.037   0.761 -2.4225 -0.7604  0.2902
   15SOL     OW   43   1.950   2.091   2.729 -0.5281 -0.2456  0.3276
   15SOL    HW1   44   1.909   2.186   2.727 -1.6199 -0.0113 -0.6260
   15SOL    HW2   45   1.881   2.017   2.718 -0.2571  0.3937 -0.3004
   16SOL     OW   46   1.626   1.695   2.989 -0.0621 -0.0922  0.2230
   16SOL    HW1   47   1.618   1.606   3.038  0.6297 -0.6459 -1.5704
   16SOL    HW2   48   1.717   1.742   2.996  0.6447  1.2942  1.2105
   17SOL     OW   49   0.086   0.455   0.159 -0.3596 -0.0398 -0.2959
   17SOL    HW1   50   0.167   0.495   0.114 -3.6662 -3.3272  1.3735
   17SOL    HW2   51   0.001   0.461   0.100  0.0398 -0.8974  0.2966
   18SOL     OW   52   0.934   2.940   2.144 -0.2872  0.2918 -0.4738
   18SOL    HW1   53   0.845   2.892   2.147 -1.9246  1.4235 -1.9415
   18SOL    HW2   54   0.996   2.922   2.063 -1.7204 -1.4404  2.6197
   19SOL     OW   55   0.544   0.816   1.897 -0.1512 -0.0992  0.5782
   19SOL    HW1   56   0.568   0.773   1.987 -0.6809 -0.3419 -1.7855
   19SOL    HW2   57   0.613   0.883   1.865 -0.6904  0.3503 -3.7402
   20SOL     OW   58   0.180   2.790   0.871 -0.0410  0.1685  0.1660
   20SOL    HW1   59   0.123   2.854   0.816  1.1352 -1.1584  2.3584
   20SOL    HW2   60   0.221   2.716   0.813 -0.2082  2.2363 -1.2408
   21SOL     OW   61   2.691   0.266   2.013 -0.2142 -0.0351 -0.1899
   21SOL    HW1   62   2.657   0.196   1.946  0.4881 -1.4542 -2.6194
   21SOL    HW2   63   2.775   0.230   2.064 -0.8895 -0.9919 -0.0343
   22SOL     OW   64   2.330   0.271   0.151 -0.1118  0.0846  0.1592
   22SOL    HW1   65   2.356   0.175   0.138 -1.3530  1.8132  0.9015
   22SOL    HW2   66   2.262   0.307   0.078  0.6586  0.9630  0.5656
   23SOL     OW   67   2.788   0.590   0.611 -0.0967  0.0894  0.4250
   23SOL    HW1   68   2.810   0.495   0.642 -1.0637  2.4745 -0.9098
   23SOL    HW2   69   2.772   0.604   0.513  0.3521  0.3474  2.0178
   24SOL     OW   70   0.215   1.949   0.416  0.4602 -0.1104  0.1630
   24SOL    HW1   71   0.165   2.001   0.350  1.2327 -2.7594  3.1619
   24SOL    HW2   72   0.301   1.907   0.376 -1.3784  1.7392  3.1414
   25SOL     OW   73   2.240   0.630   0.246  0.4531  0.8977 -0.1398
   25SOL    HW1   74   2.262   0.625   0.147 -1.8288  3.1983  1.5932
   25SOL    HW2   75   2.295   0.565   0.307  1.0854 -0.1853  0.6198
   26SOL     OW   76   2.484   2.160   2.067 -0.1170 -0.0370  0.0633
   26SOL    HW1   77   2.567   2.208   2.097 -1.3819  1.0441 -1.2194
   26SOL    HW2   78   2.495   2.088   1.995 -2.2610  0.8579 -1.0779
   27SOL     OW   79   0.590   2.906   0.195 -0.2390 -0.2885 -0.1548
   27SOL    HW1   80   0.691   2.903   0.176 -0.8286 -0.4970  0.6263
   27SOL    HW2   81   0.531   2.938   0.113 -2.3855  0.9563  2.5734
   28SOL     OW   82   1.585   0.180   0.288  0.2703 -0.1755  0.0608
   28SOL    HW1   83   1.641   0.142   0.206  2.0506 -1.6996  3.2235
   28SOL    HW2   84   1.611   0.278   0.317 -2.4445  0.5817  0.0917
   29SOL     OW   85   1.986   0.588   0.337 -0.3695 -0.6485 -0.3305
   29SOL    HW1   86   1.928   0.676   0.329  2.9400  0.4777 -1.5330
   29SOL    HW2   87   2.085   0.615   0.319 -2.6684 -1.2664 -0.1890
   30SOL     OW   88   0.151   2.020   0.930 -0.0115  1.4324 -0.0109
   30SOL    HW1   89   0.135   1.998   0.828 -0.4196 -0.0855  0.9149
   30SOL    HW2   90   0.082   2.081   0.976 -0.9309  0.9425 -2.0494
   31SOL     OW   91   2.150   3.095   2.368  0.1371  0.1406  0.2472
   31SOL    HW1   92   2.146   3.059   2.468 -1.1839  1.8670  2.4792
   31SOL    HW2   93   2.066   3.151   2.343  1.6753  2.9422 -2.2938
   32SOL     OW   94   2.973   0.038   0.242  0.5839 -0.3383 -0.6823
   32SOL    HW1   95   2.957  -0.060   0.216  0.6805  2.0645  1.8774
   32SOL    HW2   96   3.070   0.063   0.219  1.8399 -0.1746 -2.2136
   33SOL     OW   97   0.903   0.325   0.584 -0.2898  0.2647  0.0569
   33SOL    HW1   98   0.912   0.225   0.555 -1.1206 -0.7787  2.6999
   33SOL    HW2   99   0.997   0.365   0.614  1.8024  0.1907 -0.2605
   34SOL     OW  100   0.335   2.729   1.085  0.0059 -0.4880 -0.1202
   34SOL    HW1  101   0.299   2.759   0.994  1.1859 -0.7162 -1.6471
   34SOL    HW2  102   0.429   2.775   1.100  1.4252 -0.6923  0.6290
   35SOL     OW  103   0.014   0.109   1.901  0.2278  0.2511 -0.1053
   35SOL    HW1  104   0.040   0.009   1.893  0.6110 -0.5104  1.4044
   35SOL    HW2  105  -0.061   0.133   1.830 -1.2013 -1.5797  0.0322
   36SOL     OW  106   1.919   1.282   1.644 -0.0093 -1.1498 -0.3836
   36SOL    HW1  107   1.977   1.200   1.642  1.7140 -0.9299 -3.2982
   36SOL    HW2  108   1.949   1.354   1.574  1.5634 -1.5238 -1.6957
   37SOL     OW  109   1.175   0.217   0.976 -0.2142  0.6443 -0.1757
   37SOL    HW1  110   1.236   0.297   1.009 -1.8742 -0.3719 -0.8672
   37SOL    HW2  111   1.232   0.127   0.962  0.4322  1.4719 -0.5519
   38SOL     OW  112   1.143   2.821   2.430 -0.1444 -0.9637 -0.9902
   38SOL    HW1  113   1.105   2.724   2.417 -2.3401  3.6914 -1.2378
   38SOL    HW2  114   1.097   2.888   2.367 -0.2533  0.1871 -1.3374
   39SOL     OW  115   2.309   1.455   3.055  0.0218 -0.1048  0.0463
   39SOL    HW1  116   2.362   1.368   3.067 -1.9681 -2.1040 -0.8521
   39SOL    HW2  117   2.268   1.484   3.143  1.1573  0.0600 -0.2955
   40SOL     OW  118   1.989   2.429   2.550 -0.4284  0.0520  0.1850
   40SOL    HW1  119   1.959   2.528   2.543 -0.4449 -1.6508  0.7203
   40SOL    HW2  120   1.941   2.362   2.485  0.2375  2.5539 -3.6155
   41SOL     OW  121   3.027   0.680   2.807 -0.3940 -0.1497 -0.0331
   41SOL    HW1  122   2.939   0.722   2.778  1.6950 -1.2461  1.6474
   41SOL    HW2  123   3.023   0.574   2.800  1.6424  1.2162  1.7303
   42SOL     OW  124   1.774   1.795   0.471 -0.0588  0.2624 -0.7174
   42SOL    HW1  125   1.744   1.694   0.473 -0.8449 -0.2992  1.7886
   42SOL    HW2  126   1.777   1.834   0.370  2.1384  1.2849 -2.8523
   43SOL     OW  127   0.429   1.692   1.134 -0.1247  0.1056  0.6481
   43SOL    HW1  128   0.426   1.595   1.172 -1.8926  1.5773 -2.9456
   43SOL    HW2  129   0.331   1.729   1.120 -2.4679 -0.8102 -4.4249
   44SOL     OW  130   1.726   2.390   3.008 -0.2290 -0.4345 -0.0395
   44SOL    HW1  131   1.643   2.448   3.006 -1.8940 -1.4695 -0.3511
   44SOL    HW2  132   1.782   2.398   2.926 -1.1189 -2.1419  0.4558
   45SOL     OW  133   0.358   1.900   2.631 -0.3935  0.5225  0.0563
   45SOL    HW1  134   0.327   1.880   2.531 -0.3446 -1.7246 -0.4949
   45SOL    HW2  135   0.429   1.832   2.668 -0.7383 -0.3988  0.3772
   46SOL     OW  136   1.257   0.619   0.144  0.8692  0.3121  0.0227
   46SOL    HW1  137   1.271   0.715   0.103 -1.0468 -0.3275 -1.1810
   46SOL    HW2  138   1.161   0.598   0.164  0.1784 -1.3521 -0.0993
   47SOL     OW  139   0.222   2.541   1.542  0.4687  0.0684  0.4026
   47SOL    HW1  140   0.213   2.438   1.530 -2.6093 -2.1908  0.4204
   47SOL    HW2  141   0.215   2.585   1.451 -0.7430 -3.8567 -0.0428
   48SOL     OW  142   2.628   0.625   0.133 -0.0202  0.0039  0.0069
   48SOL    HW1  143   2.594   0.602   0.230 -0.9249  0.0117 -1.8851
   48SOL    HW2  144   2.725   0.655   0.138  0.1175  0.1744  2.7875
   49SOL     OW  145   0.305   0.747   1.744 -0.5220 -0.0544 -0.4741
   49SOL    HW1  146   0.397   0.754   1.787 -0.1342  1.5244 -4.3403
   49SOL    HW2  147   0.317   0.720   1.643 -1.0148 -0.8939 -1.0952
   50SOL     OW  148   1.671   1.135   0.346  0.0159  0.0001  0.2643
   50SOL    HW1  149   1.688   1.050   0.296  0.8854  2.4966  0.7917
   50SOL    HW2  150   1.676   1.128   0.446  0.4067 -0.6568 -1.8877
   51SOL     OW  151   2.931   1.747   0.251  0.7863  0.0071  0.4035
   51SOL    HW1  152   2.904   1.674   0.180 -4.3143  0.3931  1.1183
   51SOL    HW2  153   2.979   1.714   0.333 -0.0789 -2.2179 -3.2262
   52SOL     OW  154   0.804   2.091   0.577  0.1930  0.5508  0.5031
   52SOL    HW1  155   0.705   2.108   0.604 -3.2242 -1.0528 -0.6412
   52SOL    HW2  156   0.844   2.016   0.634 -2.2917  2.3979  0.4086
   53SOL     OW  157   0.233   0.442   1.591  1.0402 -0.1648 -0.1438
   53SOL    HW1  158   0.301   0.510   1.555  1.5909 -1.0065  0.8485
   53SOL    HW2  159   0.139   0.473   1.565 -0.4678  0.6113  3.0684
   54SOL     OW  160   1.808   0.513   3.057  0.0071 -0.6738 -0.1727
   54SOL    HW1  161   1.860   0.460   3.127 -0.5849  1.3797 -0.9006
   54SOL    HW2  162   1.706   0.493   3.079  3.0525 -0.2354 -1.0204
   55SOL     OW  163   0.760   2.888   0.698  0.2745 -0.1291  0.0879
   55SOL    HW1  164   0.719   2.978   0.671 -0.8752 -3.1586  0.6965
   55SOL    HW2  165   0.858   2.876   0.673 -2.3157 -3.8656 -1.2445
   56SOL     OW  166   0.618   1.562   0.007  0.4136  0.3262  0.0724
   56SOL    HW1  167   0.541   1.618   0.043  1.0396 -1.9981 -0.4927
   56SOL    HW2  168   0.581   1.476  -0.039 -0.8557  1.1408 -3.0672
   57SOL     OW  169   1.751   2.525   2.344 -0.3126 -0.1682 -0.8353
   57SOL    HW1  170   1.780   2.430   2.333 -0.6392  2.7946  1.0831
   57SOL    HW2  171   1.695   2.544   2.430  0.4862 -0.4705  3.9384
   58SOL     OW  172   0.713   0.271   1.073 -0.1244  1.0477  0.4924
   58SOL    HW1  173   0.613   0.282   1.114 -3.7734  2.9972 -1.8154
   58SOL    HW2  174   0.731   0.174   1.039  1.1777  0.3183 -2.4860
   59SOL     OW  175   0.389   2.305   2.725 -0.1647 -0.4637 -0.1498
   59SOL    HW1  176   0.448   2.230   2.687 -0.3269 -0.8056  0.6874
   59SOL    HW2  177   0.440   2.343   2.813  2.5073  1.1988  1.0042
   60SOL     OW  178   2.325   2.087   2.275  0.2950  0.4911  0.1748
   60SOL    HW1  179   2.368   2.125   2.193 -1.1962  2.4295  2.6608
   60SOL    HW2  180   2.350   2.125   2.367 -1.6031  1.8169  0.3140
   61SOL     OW  181   1.303   0.622   0.444 -0.4434 -0.8505  0.0259
   61SOL    HW1  182   1.217   0.678   0.465 -0.9095  0.2359 -1.1659
   61SOL    HW2  183   1.315   0.614   0.342 -3.5483 -0.6102  3.2741
   62SOL     OW  184   2.713   1.796   2.927  0.1107 -0.6570 -0.1063
   62SOL    HW1  185   2.671   1.710   2.888  0.7593 -1.5880  0.5219
   62SOL    HW2  186   2.813   1.790   2.915 -0.4115 -0.4292 -1.0792
   63SOL     OW  187   0.522   0.804   0.184 -0.0431  0.0169  0.6092
   63SOL    HW1  188   0.559   0.893   0.138 -0.9660 -0.4855  0.5344
   63SOL    HW2  189   0.538   0.800   0.288 -0.4475  1.7876  0.5887
   64SOL     OW  190   0.061   0.431   2.456 -1.0257 -0.1577 -0.2233
   64SOL    HW1  191   0.125   0.453   2.533  4.2179  0.7643 -1.0030
   64SOL    HW2  192   0.026   0.510   2.402  2.1002 -0.8876 -3.6580
   65SOL     OW  193   0.171   1.509   0.592  0.3094 -0.1396 -0.3672
   65SOL    HW1  194   0.181   1.549   0.689 -1.5907 -0.1737  4.3158
   65SOL    HW2  195   0.259   1.512   0.533  2.5795 -3.4433  1.6589
   66SOL     OW  196   2.544   0.356   0.578 -0.0189  0.1991 -0.4330
   66SOL    HW1  197   2.647   0.352   0.593  0.2812  1.8266  0.9984
   66SOL    HW2  198   2.494   0.295   0.652  2.5334 -1.9423  2.2833
   67SOL     OW  199   0.564   2.480   1.448 -0.2153 -0.4070 -0.1193
   67SOL    HW1  200   0.664   2.452   1.455  0.4267 -2.3320 -1.2023
   67SOL    HW2  201   0.502   2.397   1.431 -1.5929  0.0869  0.6199
   68SOL     OW  202   0.983   1.074   2.497 -0.2741 -1.0361  0.2585
   68SOL    HW1  203   1.064   1.018   2.468  0.6402  2.3464 -0.8173
   68SOL    HW2  204   0.908   1.082   2.431  1.3124 -2.4900  1.5434
   69SOL     OW  205   0.699   2.782   2.161 -0.2827  0.7048 -0.2635
   69SOL    HW1  206   0.756   2.694   2.140  3.9115 -0.9579 -0.1619
   69SOL    HW2  207   0.601   2.761   2.173  0.4493 -1.3790  1.1747
   70SOL     OW  208   0.474   0.210   2.624 -0.0393 -0.5087 -0.5805
   70SOL    HW1  209   0.372   0.200   2.643  0.9468 -2.2382 -0.1327
   70SOL    HW2  210   0.521   0.115   2.619  1.8031 -2.4402  0.7510
   71SOL     OW  211   1.128   1.784   0.413 -0.2293  0.4360 -0.5481
   71SOL    HW1  212   1.070   1.721   0.467  1.9971  0.5298 -2.8009
   71SOL    HW2  213   1.099   1.778   0.311 -1.3075 -0.2498 -3.4002
   72SOL     OW  214   1.826   0.196   2.157 -0.0033 -0.2677  0.3009
   72SOL    HW1  215   1.898   0.272   2.170 -1.6364  2.0685  0.7182
   72SOL    HW2  216   1.864   0.105   2.149 -1.7808  3.3303  1.2958
   73SOL     OW  217   2.816   2.172   2.393 -0.0542  0.7754 -0.2947
   73SOL    HW1  218   2.826   2.074   2.363  0.2667 -0.2373 -2.5258
   73SOL    HW2  219   2.865   2.194   2.487 -1.4769  0.3667  1.9377
   74SOL     OW  220   2.685   2.849   2.170 -0.1578 -0.0441  0.5629
   74SOL    HW1  221   2.620   2.833   2.253  0.6587  0.8931  1.6334
   74SOL    HW2  222   2.782   2.861   2.190  0.1096  0.7009 -0.5137
   75SOL     OW  223   0.954   0.844   1.112  0.7616 -0.2659  0.1250
   75SOL    HW1  224   0.884   0.893   1.051  1.2828  2.2715  1.9579
   75SOL    HW2  225   0.976   0.882   1.209 -0.2306 -0.6610  0.2939
   76SOL     OW  226   1.726   1.204   2.502  0.1884 -0.3780 -0.4691
   76SOL    HW1  227   1.618   1.209   2.510  1.1898  0.3464  0.4887
   76SOL    HW2  228   1.775   1.289   2.538  1.0993 -0.8878 -1.4011
   77SOL     OW  229   2.931   0.955   1.003 -0.1882  0.2727  0.0168
   77SOL    HW1  230   2.899   0.857   0.986 -0.8320 -0.0458 -0.8337
   77SOL    HW2  231   2.994   0.963   1.089  0.9024  0.4588  1.1206
   78SOL     OW  232   2.002   1.475   1.460 -0.1009  0.5869 -0.1651
   78SOL    HW1  233   2.108   1.491   1.453  1.2760 -1.9588  0.2498
   78SOL    HW2  234   1.952   1.459   1.368  0.0667  1.6521 -2.1915
   79SOL     OW  235   0.617   1.405   0.794 -0.0203 -0.0906 -0.3028
   79SOL    HW1  236   0.525   1.426   0.823  2.0457  0.3646 -3.1446
   79SOL    HW2  237   0.624   1.354   0.704 -2.0133  1.8115  0.8744
   80SOL     OW  238   0.644   0.490   1.565  0.3970 -0.6708 -0.0967
   80SOL    HW1  239   0.696   0.549   1.496  1.9892 -2.0636 -2.5145
   80SOL    HW2  240   0.646   0.390   1.539 -1.1038  0.8978  0.2515
   81SOL     OW  241   1.044   1.317   2.620  0.6429 -0.3834  0.0460
   81SOL    HW1  242   1.024   1.218   2.594 -5.3047  0.2895 -0.2897
   81SOL    HW2  243   0.977   1.376   2.567 -1.7500  0.0589  0.9868
   82SOL     OW  244   0.965   3.012   1.541 -0.3142 -0.0266 -0.5285
   82SOL    HW1  245   0.860   3.023   1.537 -1.6216 -1.1038 -1.2765
   82SOL    HW2  246   1.006   2.965   1.459  1.2850  1.0124  0.0866
   83SOL     OW  247   2.635   2.400   0.849 -0.6037 -0.3507 -0.6543
   83SOL    HW1  248   2.536   2.358   0.829 -5.2226  1.7678  3.3007
   83SOL    HW2  249   2.666   2.471   0.783  1.9675 -1.0836 -1.3261
   84SOL     OW  250   0.645   3.047   2.390  0.3086 -0.0351  0.9139
   84SOL    HW1  251   0.600   3.071   2.481  0.5577  2.6907  2.5366
   84SOL    HW2  252   0.684   2.954   2.389  2.7019  0.1412 -0.4368
   85SOL     OW  253   0.288   1.617   1.435  0.1668 -0.0351  0.1896
   85SOL    HW1  254   0.245   1.710   1.437  3.7728  1.5184  0.5870
   85SOL    HW2  255   0.339   1.586   1.517 -1.5324 -1.4483 -2.3243
   86SOL     OW  256   0.456   1.032   1.523 -0.1767  0.9414 -0.4445
   86SOL    HW1  257   0.403   0.956   1.473  0.6096 -0.2548 -0.3444
   86SOL    HW2  258   0.561   1.015   1.526  0.0372  0.1097  0.2864
   87SOL     OW  259   1.586   0.650   0.233  0.7879  0.1560  0.4530
   87SOL    HW1  260   1.650   0.721   0.182 -0.3249  0.5223  1.9347
   87SOL    HW2  261   1.546   0.579   0.168  0.1792 -1.3950  1.0402
   88SOL     OW  262   1.533   1.356   0.270 -0.3291  0.1244  0.1236
   88SOL    HW1  263   1.583   1.269   0.301 -1.1561  0.4590 -1.6926
   88SOL    HW2  264   1.428   1.338   0.266  0.7006 -0.9775  0.3045
   89SOL     OW  265   3.081   0.452   0.586  0.2803 -0.0397 -0.1259
   89SOL    HW1  266   3.121   0.362   0.550  1.8530 -3.4978 -1.0684
   89SOL    HW2  267   2.978   0.445   0.611 -1.0758  0.6174  0.4479
   90SOL     OW  268   0.897   1.559   0.056 -0.7544  0.1431 -0.4530
   90SOL    HW1  269   0.910   1.516   0.150  1.4976 -1.2894  0.3584
   90SOL    HW2  270   0.795   1.560   0.029 -1.1555 -0.4443  2.8785
   91SOL     OW  271   1.230   1.481   1.797  0.5619 -0.1341 -0.2637
   91SOL    HW1  272   1.214   1.564   1.857  0.1428  1.5493 -2.0728
   91SOL    HW2  273   1.327   1.455   1.798 -1.4099 -1.0949  1.3332
   92SOL     OW  274   3.088   0.939   1.239  0.3791  0.0885  0.0008
   92SOL    HW1  275   3.154   1.014   1.206 -0.6100  3.6191  0.8765
   92SOL    HW2  276   3.084   0.945   1.345  0.6541 -1.9653  1.0378
   93SOL     OW  277   3.084   2.747   0.026 -0.8549  0.0109  0.5567
   93SOL    HW1  278   3.013   2.746  -0.047 -0.6301 -1.9320  0.3810
   93SOL    HW2  279   3.094   2.658   0.076 -0.7737 -0.8600 -0.5933
   94SOL     OW  280   1.502   1.468   1.804 -0.8268 -0.0356  0.0007
   94SOL    HW1  281   1.569   1.391   1.818 -0.0074  1.1659  0.9414
   94SOL    HW2  282   1.539   1.551   1.856  2.2371  0.7658  2.7854
   95SOL     OW  283   1.436   2.510   3.005  0.3703 -0.1570 -0.2227
   95SOL    HW1  284   1.352   2.544   3.046  2.6690  0.5448 -1.1022
   95SOL    HW2  285   1.423   2.414   2.965 -0.9774  1.1161 -1.7303
   96SOL     OW  286   0.564   2.102   1.307 -0.1352  0.1166  0.3800
   96SOL    HW1  287   0.508   2.025   1.267 -0.8416  1.3756  0.9964
   96SOL    HW2  288   0.631   2.062   1.376 -1.1540 -1.1944  1.2335
   97SOL     OW  289   0.349   1.610   2.444 -1.2840  0.0565 -0.1412
   97SOL    HW1  290   0.342   1.702   2.389  0.6685  3.7679  0.2483
   97SOL    HW2  291   0.313   1.621   2.542  1.6096 -3.1178  2.2548
   98SOL     OW  292   2.079   1.644   1.175  0.7323 -0.0480  0.1468
   98SOL    HW1  293   1.984   1.597   1.171  2.3061  0.6723  2.1636
   98SOL    HW2  294   2.145   1.600   1.106  1.1645 -1.0902  1.4910
   99SOL     OW  295   2.527   2.051   1.288  0.3886 -0.1757  0.3765
   99SOL    HW1  296   2.518   2.069   1.390  0.9969  2.2041 -0.3282
   99SOL    HW2  297   2.510   1.951   1.267 -0.2163  0.8836  3.2708
  100SOL     OW  298   2.319   0.390   2.090 -0.5646  0.4769  0.4097
  100SOL    HW1  299   2.262   0.342   2.163 -2.7475  1.7827 -1.8084
  100SOL    HW2  300   2.416   0.424   2.115 -0.5155  0.6521 -1.4159
  101SOL     OW  301   0.413   1.491   0.474 -0.0778  0.2444 -0.0641
  101SOL    HW1  302   0.405   1.582   0.527 -1.0249 -0.8261  1.7587
  101SOL    HW2  303   0.510   1.462   0.467 -0.5237  1.3972  1.2330
  102SOL     OW  304   2.250   1.041   0.835  0.1448 -0.1631 -0.5113
  102SOL    HW1  305   2.196   0.995   0.760 -0.4104  0.1236  0.3217
  102SOL    HW2  306   2.273   1.137   0.804  4.5826  2.3990 -0.2897
  103SOL     OW  307   2.226   0.073   0.372 -0.1227  0.0146  0.0731
  103SOL    HW1  308   2.257   0.168   0.351 -2.1523  2.0338 -0.5201
  103SOL    HW2  309   2.238   0.053   0.473  0.2889  1.4506 -1.2640
  104SOL     OW  310   0.097   1.804   2.150 -0.1777  0.4456 -0.4930
  104SOL    HW1  311   0.107   1.787   2.046 -1.3861  1.5814 -0.8058
  104SOL    HW2  312   0.005   1.828   2.178  0.8320 -0.4443 -2.0013
  105SOL     OW  313   1.287   2.094   0.786  0.0316  0.1899  0.1894
  105SOL    HW1  314   1.339   2.123   0.702 -1.8578  1.2652 -1.8488
  105SOL    HW2  315   1.225   2.014   0.766 -1.3958  1.5869 -2.1766
  106SOL     OW  316   2.129   0.382   1.414  0.1435 -0.4964 -0.1512
  106SOL    HW1  317   2.064   0.302   1.424 -0.0347 -2.4001 -0.1138
  106SOL    HW2  318   2.129   0.439   1.501 -1.1814  1.1162 -0.5332
  107SOL     OW  319   1.901   2.964   1.241  0.2515 -0.0868 -0.1213
  107SOL    HW1  320   1.842   3.045   1.264  1.2970 -2.2080 -1.6470
  107SOL    HW2  321   1.846   2.879   1.216  2.1671  0.4589 -0.0416
  108SOL     OW  322   0.801   2.794   1.281  0.0878  0.1687  0.1018
  108SOL    HW1  323   0.816   2.708   1.336  2.8470 -1.1738 -0.4428
  108SOL    HW2  324   0.891   2.839   1.262 -0.3227  2.5439  0.2405
  109SOL     OW  325   2.122   0.106   0.777 -0.3159  0.3746 -0.6797
  109SOL    HW1  326   2.030   0.134   0.738 -0.5131  1.2290  0.2127
  109SOL    HW2  327   2.114   0.069   0.873 -1.7383  0.0844 -0.7788
  110SOL     OW  328   0.471   2.822   2.772  1.1185 -0.5692 -0.1334
  110SOL    HW1  329   0.455   2.791   2.677 -0.5375 -1.8616  0.6090
  110SOL    HW2  330   0.549   2.770   2.820 -1.0074  0.4262 -0.1594
  111SOL     OW  331   1.304   0.479   2.329 -0.6968 -0.4522  0.4085
  111SOL    HW1  332   1.235   0.529   2.393  1.8341  1.0496 -1.0173
  111SOL    HW2  333   1.364   0.410   2.379 -0.6006 -0.5221  0.6777
  112SOL     OW  334   1.735   0.507   1.468  0.7255 -0.1473  0.6317
  112SOL    HW1  335   1.725   0.482   1.371 -1.4303 -0.8146  2.7945
  112SOL    HW2  336   1.680   0.452   1.532  0.9695  3.9278 -2.3084
  113SOL     OW  337   2.365   1.647   1.772  0.8444 -0.3376 -0.1824
  113SOL    HW1  338   2.415   1.564   1.732  2.4417 -2.5476 -0.5366
  113SOL    HW2  339   2.356   1.646   1.878  0.8182  2.0359  2.3344
  114SOL     OW  340   0.342   0.532   1.242 -0.4611 -0.3084 -0.1699
  114SOL    HW1  341   0.397   0.589   1.180 -2.3530  4.2708 -0.5769
  114SOL    HW2  342   0.241   0.552   1.253 -0.3875 -1.3145  1.4716
  115SOL     OW  343   2.725   1.632   1.198  0.7410  0.4587  0.0024
  115SOL    HW1  344   2.715   1.527   1.215  0.7660 -0.7885  0.5727
  115SOL    HW2  345   2.809   1.651   1.143 -3.6006 -3.2667  0.9155
  116SOL     OW  346   1.781   1.006   0.590 -0.4975 -0.0481  0.1382
  116SOL    HW1  347   1.703   0.941   0.620 -1.2894 -2.9145  1.6135
  116SOL    HW2  348   1.773   1.097   0.636  2.0959  2.5892  0.0886
  117SOL     OW  349   1.176   0.358   0.561 -0.4238  0.4978 -0.3941
  117SOL    HW1  350   1.218   0.442   0.537 -0.7844 -1.3320 -0.7683
  117SOL    HW2  351   1.150   0.307   0.472  1.7998 -0.8433 -0.7964
  118SOL     OW  352   1.110   1.164   1.107 -0.6780  0.8390 -0.3528
  118SOL    HW1  353   1.068   1.098   1.179 -3.1064 -1.6966  0.9959
  118SOL    HW2  354   1.166   1.245   1.149 -0.4328  0.3299  0.1969
  119SOL     OW  355   1.822   1.586   2.161  0.4164  0.1545 -0.3200
  119SOL    HW1  356   1.784   1.683   2.141  1.9329  1.2672  0.9808
  119SOL    HW2  357   1.924   1.581   2.139 -0.5815 -1.1807  0.1602
  120SOL     OW  358   2.925   2.858   0.218  0.0361 -0.1964  0.8471
  120SOL    HW1  359   3.009   2.831   0.163  0.4178  0.0122 -0.8298
  120SOL    HW2  360   2.840   2.802   0.198  1.5434  1.1837 -0.3742
  121SOL     OW  361   1.943   0.748   2.232 -0.2687 -0.3172  0.1688
  121SOL    HW1  362   1.939   0.805   2.147  1.9440  0.9950  1.7154
  121SOL    HW2  363   1.964   0.648   2.212  1.5999 -1.1170 -1.8010
  122SOL     OW  364   2.659   2.561   1.319  1.0561 -0.4094 -0.4076
  122SOL    HW1  365   2.699   2.540   1.224 -0.3769 -1.4030  1.3346
  122SOL    HW2  366   2.561   2.589   1.304  1.0825  2.0449 -0.6048
  123SOL     OW  367   1.749   0.033   1.707  0.6490 -0.0657 -0.1226
  123SOL    HW1  368   1.757  -0.035   1.626 -0.6701 -0.6384  3.2683
  123SOL    HW2  369   1.843   0.055   1.751  2.1583  1.9454  0.9848
  124SOL     OW  370   0.060   0.431   1.085  0.0451  0.4558  0.3432
  124SOL    HW1  371   0.065   0.503   1.161  0.3287  2.5503 -0.0427
  124SOL    HW2  372   0.068   0.470   0.990 -0.0376 -1.9974  3.2063
  125SOL     OW  373   0.866   1.872   0.720  0.2804  0.6021  0.3618
  125SOL    HW1  374   0.953   1.820   0.735  0.1610 -1.3749 -0.1925
  125SOL    HW2  375   0.796   1.856   0.793  2.1533  1.4353 -0.1506
  126SOL     OW  376   1.831   2.264   2.422  0.4813  0.2249  0.4841
  126SOL    HW1  377   1.880   2.225   2.334  0.3929 -0.1843 -2.6865
  126SOL    HW2  378   1.756   2.205   2.465 -1.4629  1.1150  1.6683
  127SOL     OW  379   0.946   0.917   0.175 -0.3688 -0.0380 -0.1779
  127SOL    HW1  380   0.957   0.980   0.259  1.8324  1.4953  0.9213
  127SOL    HW2  381   0.917   0.824   0.204 -2.2930  0.6531 -0.8230
  128SOL     OW  382   0.921   0.203   1.390 -0.3110  0.2733  0.1686
  128SOL    HW1  383   0.931   0.290   1.344 -1.3031  0.0701 -0.1446
  128SOL    HW2  384   0.850   0.136   1.351  1.4124  1.0140 -2.2449
  129SOL     OW  385   1.851   0.664   1.850  0.3278  0.1082  0.7652
  129SOL    HW1  386   1.866   0.649   1.750 -0.2899 -0.8283  1.7747
  129SOL    HW2  387   1.852   0.765   1.875 -0.6396  3.9594  1.0424
  130SOL     OW  388   1.392   2.140   1.024  0.7084  0.1675  0.3139
  130SOL    HW1  389   1.344   2.104   0.936  1.9280  1.0251 -2.9590
  130SOL    HW2  390   1.436   2.226   0.995  1.6805 -0.7586  0.3853
  131SOL     OW  391   2.994   1.413   1.369  0.3178  0.2098 -0.2174
  131SOL    HW1  392   2.966   1.333   1.427  1.2741  1.7657 -1.6217
  131SOL    HW2  393   3.086   1.393   1.328 -1.6004 -2.0493  1.4847
  132SOL     OW  394   2.034   2.426   0.473 -0.2642  0.2823 -0.2840
  132SOL    HW1  395   1.934   2.433   0.483  2.8864 -0.8169 -1.7610
  132SOL    HW2  396   2.078   2.391   0.562 -0.2563 -3.1779  1.9410
  133SOL     OW  397   1.783   2.353   2.729 -0.4458  0.0583 -0.2268
  133SOL    HW1  398   1.684   2.341   2.724 -0.2045 -0.6808  0.0734
  133SOL    HW2  399   1.831   2.405   2.656 -0.6061  0.5185  0.5062
  134SOL     OW  400   2.667   2.308   1.601  0.2448 -0.2509  0.1342
  134SOL    HW1  401   2.566   2.308   1.631 -0.0118  2.3693  0.2012
  134SOL    HW2  402   2.710   2.401   1.597 -0.4940 -0.9538 -0.4101
  135SOL     OW  403   0.724   1.460   2.681 -0.2379 -0.3594  0.3253
  135SOL    HW1  404   0.647   1.394   2.703  3.2067 -0.3320  0.9197
  135SOL    HW2  405   0.776   1.433   2.594  0.4107  0.5930 -0.7408
  136SOL     OW  406   1.210   2.035   0.469  0.6272 -0.0599  0.4889
  136SOL    HW1  407   1.148   2.118   0.479  0.4729 -0.4733  0.7200
  136SOL    HW2  408   1.162   1.941   0.482 -0.9920 -1.7435  2.0731
  137SOL     OW  409   0.439   1.196   2.230  0.3435 -0.3037  0.5683
  137SOL    HW1  410   0.334   1.183   2.253 -4.3765  0.6844 -0.1586
  137SOL    HW2  411   0.492   1.106   2.204 -0.4780 -0.7927  1.2179
  138SOL     OW  412   2.497   1.497   0.275 -0.1738  0.3847 -0.3972
  138SOL    HW1  413   2.395   1.464   0.270  0.1481  2.5020 -0.6758
  138SOL    HW2  414   2.562   1.449   0.344  0.6833  1.0458  0.2662
  139SOL     OW  415   1.900   2.627   1.373  0.3562 -0.0022  0.6716
  139SOL    HW1  416   1.801   2.630   1.342 -0.2234  1.0433  2.1603
  139SOL    HW2  417   1.939   2.537   1.353 -0.9947  1.6880  1.2012
  140SOL     OW  418   2.996   2.971   2.515 -0.1258 -0.3078  0.5036
  140SOL    HW1  419   3.053   2.884   2.519  0.9915 -0.3198 -1.6096
  140SOL    HW2  420   3.052   3.054   2.480  1.6574  2.5081 -0.1246
  141SOL     OW  421   1.322   1.699   1.600 -0.0468  0.4661  0.5202
  141SOL    HW1  422   1.223   1.728   1.589 -0.0963  1.5429  0.5692
  141SOL    HW2  423   1.339   1.638   1.682 -2.5103 -1.9369 -0.5451
  142SOL     OW  424   1.532   0.603   2.255  0.5305  0.1898  0.2765
  142SOL    HW1  425   1.558   0.583   2.157  0.7802  0.9970 -0.6818
  142SOL    HW2  426   1.431   0.572   2.270 -3.7350  0.3229 -1.8261
  143SOL     OW  427   2.743   0.903   0.496  0.0637 -0.0318  0.1539
  143SOL    HW1  428   2.785   0.980   0.436 -1.3068 -0.5210 -0.5073
  143SOL    HW2  429   2.766   0.915   0.599 -0.7243 -0.5727  1.8140
  144SOL     OW  430   2.885   1.201   1.504 -0.4843 -0.9062  0.7218
  144SOL    HW1  431   2.851   1.194   1.598  0.8311  0.5222  0.0861
  144SOL    HW2  432   2.904   1.108   1.468 -1.6964 -0.7973  0.8626
  145SOL     OW  433   1.040   1.823   0.134  0.0723 -0.2470 -0.1126
  145SOL    HW1  434   1.127   1.820   0.080 -1.1479  1.1319 -0.5127
  145SOL    HW2  435   0.962   1.771   0.095  1.3061  1.4195 -1.1712
  146SOL     OW  436   2.451   0.662   1.497  0.2206  0.4785  0.8335
  146SOL    HW1  437   2.447   0.572   1.440 -0.4417 -3.5913 -0.2895
  146SOL    HW2  438   2.380   0.730   1.462 -0.1819  1.8259 -2.1730
  147SOL     OW  439   1.097   2.545   0.595  0.2687  0.8498  0.5393
  147SOL    HW1  440   1.046   2.578   0.507 -1.8040 -0.8411 -2.0464
  147SOL    HW2  441   1.193   2.510   0.574  1.2755  0.1300 -4.1863
  148SOL     OW  442   1.609   1.460   0.027  0.1310 -0.3789 -0.1232
  148SOL    HW1  443   1.590   1.382  -0.036 -0.4865 -1.8629  0.5025
  148SOL    HW2  444   1.556   1.455   0.116 -1.0330 -0.6222 -1.0688
  149SOL     OW  445   0.647   1.448   1.963 -0.3378 -0.0523 -0.1948
  149SOL    HW1  446   0.545   1.434   1.977 -0.0343  0.3962  1.0007
  149SOL    HW2  447   0.696   1.373   1.913 -0.2957  1.3444  1.0347
  150SOL     OW  448   3.049   1.234   0.954 -0.1045 -0.5619  0.4526
  150SOL    HW1  449   3.110   1.205   1.037 -0.7012  2.8636  1.3917
  150SOL    HW2  450   2.990   1.153   0.924  1.5922  0.5407 -0.9084
  151SOL     OW  451   0.134   0.696   2.096  0.2116  0.0542  0.3712
  151SOL    HW1  452   0.144   0.765   2.020  0.0059 -2.0277 -0.4535
  151SOL    HW2  453   0.208   0.623   2.092  0.0917  0.1135  2.2694
  152SOL     OW  454   1.463   1.798   1.187 -0.0777  0.0092 -0.3899
  152SOL    HW1  455   1.503   1.890   1.189  1.0280 -0.8334  0.6419
  152SOL    HW2  456   1.355   1.796   1.190 -3.0711  1.2187 -1.0073
  153SOL     OW  457   0.129   1.576   0.207  0.0548 -0.9543  0.2978
  153SOL    HW1  458   0.093   1.483   0.197  1.2547  0.5197 -0.5501
  153SOL    HW2  459   0.092   1.622   0.291 -0.1500 -0.0937 -1.1359
  154SOL     OW  460   2.366   1.880   2.854 -0.3440  0.4082  0.3386
  154SOL    HW1  461   2.402   1.783   2.853  1.1264  1.1297 -1.2066
  154SOL    HW2  462   2.423   1.944   2.797  0.6854  3.9581 -0.2623
  155SOL     OW  463   2.523   1.175   0.396  0.4572 -0.7442  0.6764
  155SOL    HW1  464   2.579   1.160   0.309 -0.1256  0.4344 -1.5461
  155SOL    HW2  465   2.430   1.133   0.399 -1.1738  1.1123 -3.2800
  156SOL     OW  466   2.468   0.875   0.789 -0.3410 -0.4870 -0.3641
  156SOL    HW1  467   2.386   0.934   0.814  2.7683  1.2606  1.8845
  156SOL    HW2  468   2.536   0.921   0.722 -0.7618  0.7511 -2.4938
  157SOL     OW  469   1.214   3.000   2.957  0.3551 -0.1501 -0.2214
  157SOL    HW1  470   1.276   2.971   2.878 -1.6944 -0.7181 -1.3452
  157SOL    HW2  471   1.240   3.089   2.995  2.9525 -0.9351 -0.7066
  158SOL     OW  472   0.987   1.855   1.894 -0.1246  0.7685 -0.0175
  158SOL    HW1  473   1.033   1.939   1.857 -1.6465 -1.3858 -0.3613
  158SOL    HW2  474   0.928   1.880   1.977 -1.0205 -0.4138 -0.1336
  159SOL     OW  475   0.880   0.430   1.200 -0.3064  0.8487 -0.1437
  159SOL    HW1  476   0.822   0.499   1.248  0.4823 -2.0998  0.1857
  159SOL    HW2  477   0.830   0.361   1.142 -2.4399 -0.6807 -0.3753
  160SOL     OW  478   1.353   2.432   1.594  0.1224  0.8821 -0.3653
  160SOL    HW1  479   1.313   2.348   1.637  0.3528  1.9132 -1.3269
  160SOL    HW2  480   1.455   2.425   1.582 -3.1655 -0.6454 -0.4993
  161SOL     OW  481   3.101   2.932   0.475 -0.5996 -0.8262  0.8281
  161SOL    HW1  482   3.060   2.836   0.458  2.3149 -1.3917  1.3762
  161SOL    HW2  483   3.056   3.017   0.425  0.6399  0.6345 -1.9215
  162SOL     OW  484   2.604   1.865   0.488  0.2213 -0.5058 -0.3577
  162SOL    HW1  485   2.529   1.815   0.433 -2.2014  1.7001 -3.2722
  162SOL    HW2  486   2.634   1.802   0.566 -0.5529 -0.1272  0.7917
  163SOL     OW  487   1.941   2.740   0.735  0.6896 -0.4454  0.1848
  163SOL    HW1  488   1.949   2.767   0.637 -0.1022 -1.4467 -0.2485
  163SOL    HW2  489   1.991   2.653   0.762 -0.1247 -0.9162 -0.9680
  164SOL     OW  490   3.044   0.211   1.252  0.4790 -0.5986  0.1245
  164SOL    HW1  491   3.051   0.235   1.152 -2.0396 -0.4481  4.0113
  164SOL    HW2  492   3.131   0.228   1.302 -3.3153  0.2207 -1.0637
  165SOL     OW  493   0.984   1.374   0.748  1.0137 -0.0144 -0.1700
  165SOL    HW1  494   0.949   1.433   0.825  0.7062  3.4532 -0.1961
  165SOL    HW2  495   0.989   1.426   0.660  0.8015  0.5953  2.6266
  166SOL     OW  496   1.585   1.012   1.800  0.3106 -0.2077  0.6494
  166SOL    HW1  497   1.483   1.002   1.811 -1.0522  0.0151  1.6089
  166SOL    HW2  498   1.628   1.105   1.807 -0.1442  0.7538 -0.5827
  167SOL     OW  499   0.744   1.980   1.475  0.1090 -0.7631  0.5184
  167SOL    HW1  500   0.768   2.032   1.558 -0.3298 -1.4474 -0.7957
  167SOL    HW2  501   0.706   1.886   1.492 -0.8268  2.8506 -0.8150
  168SOL     OW  502   1.626   2.351   0.166  0.2188  0.0892  0.0389
  168SOL    HW1  503   1.695   2.374   0.093 -0.3857 -0.3387 -3.1810
  168SOL    HW2  504   1.652   2.312   0.259  1.1811  0.2900  0.9536
  169SOL     OW  505   0.178   2.580   2.226 -0.0875 -0.0598  0.1793
  169SOL    HW1  506   0.184   2.528   2.133  1.4923 -2.1110 -1.3595
  169SOL    HW2  507   0.194   2.531   2.315 -1.3816  1.2630  2.4183
  170SOL     OW  508   1.104   0.230   2.014  0.0916  0.0841 -0.3365
  170SOL    HW1  509   1.149   0.154   2.070  2.0051 -2.8424  2.2178
  170SOL    HW2  510   1.132   0.223   1.917  0.9763 -2.1713 -0.3331
  171SOL     OW  511   0.170   0.812   2.367  0.3343 -0.5196  0.2045
  171SOL    HW1  512   0.086   0.850   2.423 -3.3998  2.5187  0.8638
  171SOL    HW2  513   0.143   0.801   2.267 -0.7372  0.3336 -0.1248
  172SOL     OW  514   0.954   0.970   2.883 -0.0110 -0.3517  0.5444
  172SOL    HW1  515   0.912   1.021   2.961 -0.0306 -0.7175 -2.0327
  172SOL    HW2  516   0.928   1.010   2.789  1.4185  0.1845  0.1644
  173SOL     OW  517   0.564   2.564   0.127 -0.0543 -0.7482 -0.1464
  173SOL    HW1  518   0.569   2.591   0.027 -1.3019 -2.3286 -2.4590
  173SOL    HW2  519   0.475   2.608   0.165  0.8807  0.0785  3.4917
  174SOL     OW  520   1.539   2.790   1.035 -0.2051 -0.5000 -0.2667
  174SOL    HW1  521   1.556   2.866   0.967  0.6233  2.4848 -1.9591
  174SOL    HW2  522   1.519   2.694   1.000  0.1183  2.4604  0.9149
  175SOL     OW  523   0.473   3.049   1.723 -0.1068  0.1603  0.0984
  175SOL    HW1  524   0.558   3.058   1.777 -1.0977  0.0412 -0.4830
  175SOL    HW2  525   0.429   3.141   1.707  2.1037 -0.5293 -0.9962
  176SOL     OW  526   2.560   0.400   0.008 -0.5288 -0.5836  0.0027
  176SOL    HW1  527   2.603   0.495   0.037  1.6211  2.8833  1.5098
  176SOL    HW2  528   2.481   0.377   0.070 -1.2444  1.5697 -0.0605
  177SOL     OW  529   0.292   0.345   0.922  0.1968 -0.7109 -0.2228
  177SOL    HW1  530   0.215   0.278   0.898 -2.4119  0.8793 -1.2301
  177SOL    HW2  531   0.319   0.350   1.021 -1.6841 -0.1313  1.0298
  178SOL     OW  532   0.057   2.750   2.557 -0.5842  0.3027  0.3089
  178SOL    HW1  533  -0.004   2.660   2.551  1.1778 -2.0708 -0.3370
  178SOL    HW2  534   0.120   2.750   2.638  0.9596 -0.2913 -2.1613
  179SOL     OW  535   3.025   1.581   1.156 -0.5004 -0.1076  0.4996
  179SOL    HW1  536   3.054   1.520   1.078 -0.7883 -0.3672  1.2291
  179SOL    HW2  537   3.010   1.531   1.243 -0.1245 -1.1131  0.6888
  180SOL     OW  538   0.191   1.279   1.811 -0.1304  0.5506 -0.1129
  180SOL    HW1  539   0.263   1.232   1.876  0.4386 -1.7352  0.8693
  180SOL    HW2  540   0.155   1.365   1.855 -1.7497  2.3088  1.2869
  181SOL     OW  541   0.014   1.887   2.469  0.1954  0.2972  0.1335
  181SOL    HW1  542   0.043   1.977   2.501 -1.4936 -2.3893  0.0371
  181SOL    HW2  543  -0.089   1.887   2.444 -2.9178  2.8900  0.3932
  182SOL     OW  544   2.340   1.225   1.187  0.4279  0.0784  0.3416
  182SOL    HW1  545   2.264   1.161   1.158  5.5681 -2.7806  3.3596
  182SOL    HW2  546   2.316   1.329   1.169 -1.0245 -1.3295 -0.3607
  183SOL     OW  547   1.431   2.251   2.543 -0.5129  0.0497 -0.1863
  183SOL    HW1  548   1.343   2.195   2.564 -0.3773 -1.6069 -2.3156
  183SOL    HW2  549   1.494   2.210   2.477 -2.5274  1.1766  2.6281
  184SOL     OW  550   2.032   0.933   0.692  0.1254  0.5165  0.6366
  184SOL    HW1  551   1.936   0.949   0.650 -3.9824  0.2758 -1.4886
  184SOL    HW2  552   2.040   0.846   0.748  0.0632 -1.5379  3.0427
  185SOL     OW  553   1.577   2.772   1.948 -0.5936 -0.4806 -0.2846
  185SOL    HW1  554   1.488   2.828   1.933 -0.5562  1.6473  0.3771
  185SOL    HW2  555   1.610   2.779   2.047  0.8612  1.1968 -0.9383
  186SOL     OW  556   0.144   2.252   1.659 -0.5257 -0.2994 -0.1319
  186SOL    HW1  557   0.105   2.282   1.747 -0.9685 -0.2160  0.4143
  186SOL    HW2  558   0.233   2.197   1.677  1.6392  0.6053  2.9173
  187SOL     OW  559   1.376   0.680   1.647  0.4583 -0.1563 -0.0932
  187SOL    HW1  560   1.452   0.742   1.605 -0.1495  1.8452 -2.6073
  187SOL    HW2  561   1.408   0.608   1.720 -0.0078 -0.2180  3.0714
  188SOL     OW  562   2.814   2.771   1.453  0.1156  0.4863 -0.1882
  188SOL    HW1  563   2.772   2.862   1.435  1.1982  0.1439  2.5699
  188SOL    HW2  564   2.763   2.695   1.399 -0.1293 -0.0755 -0.3815
  189SOL     OW  565   0.910   1.184   1.466 -0.2886 -0.3855 -0.2728
  189SOL    HW1  566   0.974   1.224   1.533 -2.5011 -1.0951  2.2319
  189SOL    HW2  567   0.875   1.248   1.394 -3.8264  1.2400 -0.0258
  190SOL     OW  568   1.450   1.945   1.618  0.3642 -0.1139 -0.5458
  190SOL    HW1  569   1.405   1.854   1.638  1.1543 -0.8607  2.2643
  190SOL    HW2  570   1.488   2.003   1.699 -1.5477 -0.3988  1.0984
  191SOL     OW  571   0.922   0.751   1.505 -0.3064  0.4083 -0.5073
  191SOL    HW1  572   0.992   0.718   1.574 -1.4910  1.8257  0.0731
  191SOL    HW2  573   0.971   0.821   1.442  2.0141 -1.6257 -0.7757
  192SOL     OW  574   1.853   2.312   1.085 -0.1146  0.1037  0.2881
  192SOL    HW1  575   1.776   2.288   1.028  0.7594 -1.2464  2.2604
  192SOL    HW2  576   1.943   2.303   1.034 -2.1132 -2.8352 -0.3138
  193SOL     OW  577   0.527   0.550   0.426 -0.2618 -0.6587 -0.2385
  193SOL    HW1  578   0.471   0.467   0.449  0.0289  2.4983 -0.5002
  193SOL    HW2  579   0.594   0.536   0.341  0.6863  0.6841 -1.8101
  194SOL     OW  580   0.362   0.876   1.293 -0.4720  0.3430  0.1371
  194SOL    HW1  581   0.333   0.777   1.269  2.0869 -0.8232  0.0035
  194SOL    HW2  582   0.351   0.940   1.211  0.9746  0.1699 -0.8935
  195SOL     OW  583   1.023   2.930   0.526  0.2387 -0.5683  0.2374
  195SOL    HW1  584   1.002   2.843   0.478 -2.5739 -0.7131  1.8699
  195SOL    HW2  585   1.111   2.967   0.491  0.4217 -0.3420  3.5660
  196SOL     OW  586   0.192   1.339   1.371  0.0449 -0.4068 -0.6454
  196SOL    HW1  587   0.218   1.430   1.410  0.2222 -0.9979 -2.9714
  196SOL    HW2  588   0.183   1.263   1.442 -1.3422  1.2182  0.6055
  197SOL     OW  589   0.828   2.045   0.235 -0.2417  0.0140 -0.2363
  197SOL    HW1  590   0.819   2.039   0.338 -0.8104 -0.1579  1.2044
  197SOL    HW2  591   0.882   1.968   0.190  1.6699  3.8496 -2.4231
  198SOL     OW  592   0.282   1.266   0.342  0.2736  0.4953  0.5622
  198SOL    HW1  593   0.204   1.284   0.275  1.7968 -0.3945 -0.9632
  198SOL    HW2  594   0.322   1.354   0.393  0.2294  0.9136  2.4234
  199SOL     OW  595   2.320   0.385   2.543 -0.8022  0.4450  0.9167
  199SOL    HW1  596   2.236   0.352   2.591  3.7622 -1.2668 -0.9870
  199SOL    HW2  597   2.410   0.369   2.592  1.1950  0.7149 -0.9619
  200SOL     OW  598   3.086   2.944   0.737 -0.1659 -0.0754 -0.4648
  200SOL    HW1  599   2.994   2.903   0.761 -0.3657  0.7218 -1.8989
  200SOL    HW2  600   3.092   2.939   0.631 -1.7595  0.2734 -0.0727
  201SOL     OW  601   1.042   0.703   0.544 -0.2144 -0.1388 -0.4251
  201SOL    HW1  602   1.101   0.757   0.614  1.8267 -0.4496  2.5001
  201SOL    HW2  603   0.950   0.670   0.572 -2.5941 -3.3614 -0.9598
  202SOL     OW  604   0.397   1.117   1.953  0.1364  0.4909  0.0370
  202SOL    HW1  605   0.485   1.069   1.936 -0.8856 -1.3415 -0.7426
  202SOL    HW2  606   0.400   1.209   2.000 -4.7396 -1.0557  0.1461
  203SOL     OW  607   0.604   0.211   1.483 -0.7328  0.0196  0.3845
  203SOL    HW1  608   0.632   0.149   1.404  0.0872  1.4831  0.8009
  203SOL    HW2  609   0.660   0.190   1.569 -5.2054 -0.3695  0.9453
  204SOL     OW  610   2.100   1.780   2.901 -0.2613  0.3849  0.3245
  204SOL    HW1  611   2.079   1.679   2.915  0.1451 -2.0612  0.5856
  204SOL    HW2  612   2.197   1.787   2.878 -2.6441 -0.8430  0.3762
  205SOL     OW  613   1.860   1.834   3.022 -0.1192 -0.0844  0.0445
  205SOL    HW1  614   1.953   1.822   2.974  0.5742 -0.5926 -1.4439
  205SOL    HW2  615   1.829   1.935   3.021  1.7640  0.3449 -0.6624
  206SOL     OW  616   2.433   2.808   0.341 -0.1271 -0.1664  0.0456
  206SOL    HW1  617   2.479   2.726   0.384 -0.0946 -0.6483  0.1007
  206SOL    HW2  618   2.499   2.880   0.320  0.6204 -0.0010  1.5400
  207SOL     OW  619   0.694   1.824   2.951 -0.3900  0.3709 -0.3798
  207SOL    HW1  620   0.768   1.767   2.907 -0.5812  2.2589 -0.6592
  207SOL    HW2  621   0.636   1.765   3.013 -0.1079  0.0385 -2.8315
  208SOL     OW  622   1.156   1.582   1.404  0.5046  0.3875  0.1103
  208SOL    HW1  623   1.158   1.657   1.331 -0.9441  0.4217 -0.0211
  208SOL    HW2  624   1.214   1.604   1.485 -5.3603  3.8219  0.7717
  209SOL     OW  625   0.248   0.935   3.055 -0.2166 -0.1995  0.3119
  209SOL    HW1  626   0.195   0.857   3.005 -0.4684 -0.6140 -0.9462
  209SOL    HW2  627   0.266   0.914   3.159 -1.1591 -1.3271  1.4180
  210SOL     OW  628   1.729   0.480   1.162  0.1629  0.6391 -0.0040
  210SOL    HW1  629   1.678   0.565   1.144 -0.6631 -0.7032  2.1179
  210SOL    HW2  630   1.833   0.487   1.165  2.7656 -0.8726  0.2081
  211SOL     OW  631   2.108   1.058   1.597 -0.7194  0.3565  0.1878
  211SOL    HW1  632   2.150   0.994   1.670  2.3321 -1.6090 -0.0533
  211SOL    HW2  633   2.181   1.102   1.531 -1.1029 -2.4028 -1.3611
  212SOL     OW  634   0.012   0.969   1.500  0.0433  0.1276  0.0873
  212SOL    HW1  635   0.090   1.035   1.519  0.8138 -1.8011  0.7220
  212SOL    HW2  636   0.002   0.903   1.580 -0.3311 -1.9647 -2.6745
  213SOL     OW  637   2.792   0.167   0.384 -1.4449  0.2287  0.0482
  213SOL    HW1  638   2.868   0.134   0.312  0.2098 -0.0303 -3.4404
  213SOL    HW2  639   2.714   0.100   0.372  3.5695 -2.4069 -0.0118
  214SOL     OW  640   2.181   0.297   2.336  0.5703  0.5306  0.1997
  214SOL    HW1  641   2.231   0.352   2.408 -1.2985  2.5236  0.7020
  214SOL    HW2  642   2.188   0.191   2.346  2.8734 -1.9896 -0.4742
  215SOL     OW  643   1.609   2.319   2.084  0.6974  0.2917 -0.0865
  215SOL    HW1  644   1.709   2.334   2.049  0.3082  3.1880 -1.6224
  215SOL    HW2  645   1.577   2.394   2.150 -0.6066 -0.1189  2.3601
  216SOL     OW  646   2.196   0.623   0.695  0.1166  0.2509 -0.0367
  216SOL    HW1  647   2.207   0.531   0.656  1.4254  2.2311  3.3843
  216SOL    HW2  648   2.190   0.692   0.622 -0.5868 -0.0064  0.1625
  217SOL     OW  649   0.752   2.798   2.428  0.2809  0.3436  0.8583
  217SOL    HW1  650   0.748   2.709   2.481 -0.6197 -1.7064 -2.9412
  217SOL    HW2  651   0.720   2.782   2.328  0.3215  1.1496 -2.3134
  218SOL     OW  652   1.903   1.422   0.024 -0.0093  0.2164  0.0328
  218SOL    HW1  653   1.807   1.448   0.043  1.5111  0.2776  0.1218
  218SOL    HW2  654   1.936   1.363   0.099 -1.9466  3.8915 -1.4279
  219SOL     OW  655   2.434   1.316   2.507  0.3380 -0.1911  0.3276
  219SOL    HW1  656   2.480   1.313   2.415  1.2183  1.2767 -0.9035
  219SOL    HW2  657   2.452   1.227   2.562 -1.3839 -1.7687  0.7119
  220SOL     OW  658   1.470   1.070   1.304 -0.0512 -0.0808 -0.2526
  220SOL    HW1  659   1.568   1.041   1.320 -1.6440  1.1927  1.7032
  220SOL    HW2  660   1.447   1.061   1.205  1.2706 -0.2223  0.3819
  221SOL     OW  661   1.287   0.984   2.171 -0.1970 -0.2262  0.1529
  221SOL    HW1  662   1.235   1.040   2.098 -1.9973  2.1881  1.9327
  221SOL    HW2  663   1.390   0.987   2.162  1.2494 -2.2058 -0.5715
  222SOL     OW  664   1.113   0.071   1.202 -0.1071 -0.0315 -0.4243
  222SOL    HW1  665   1.152   0.116   1.287  2.1985 -1.0607 -1.0412
  222SOL    HW2  666   1.132   0.124   1.119 -0.3964 -0.1471  3.2114
  223SOL     OW  667   2.725   0.953   2.166 -0.2369 -0.3753 -0.0975
  223SOL    HW1  668   2.681   1.013   2.239 -0.1724 -1.0372 -0.8329
  223SOL    HW2  669   2.818   0.920   2.195  0.6843 -0.1071 -1.6762
  224SOL     OW  670   1.512   1.081   2.724 -0.2925  0.7289  0.0721
  224SOL    HW1  671   1.561   0.995   2.691  2.0792 -3.3087 -0.6778
  224SOL    HW2  672   1.488   1.138   2.643  1.5884 -1.4454  1.6647
  225SOL     OW  673   2.961   2.778   2.885  1.1499 -0.3871  0.1454
  225SOL    HW1  674   2.893   2.731   2.816 -1.8219 -0.9731 -2.3283
  225SOL    HW2  675   3.061   2.767   2.855 -0.4282 -2.8245 -1.0661
  226SOL     OW  676   2.454   1.623   2.872 -0.0179 -0.2425  0.0763
  226SOL    HW1  677   2.460   1.613   2.763 -0.2578 -2.4509  1.1938
  226SOL    HW2  678   2.385   1.567   2.918 -0.3550  1.7530 -0.3310
  227SOL     OW  679   0.854   0.145   0.025 -0.1311  0.2316 -1.1322
  227SOL    HW1  680   0.898   0.230  -0.018 -4.3898  1.2054  0.8588
  227SOL    HW2  681   0.824   0.071  -0.041 -1.9849  1.8385  1.1487
  228SOL     OW  682   2.427   0.591   2.857  0.2155 -0.4028  0.7035
  228SOL    HW1  683   2.409   0.647   2.766 -1.7699 -0.1008 -0.2647
  228SOL    HW2  684   2.512   0.531   2.857 -1.7468  0.4396  0.4304
  229SOL     OW  685   0.570   0.479   1.822  0.0943  0.3561 -0.4577
  229SOL    HW1  686   0.532   0.389   1.842 -3.0744  2.9257 -0.4249
  229SOL    HW2  687   0.629   0.484   1.737 -0.1655  3.3719 -0.6828
  230SOL     OW  688   1.934   1.150   2.083  0.6245  0.3058 -0.3923
  230SOL    HW1  689   1.985   1.210   2.012  0.8617 -1.1432 -1.7839
  230SOL    HW2  690   1.860   1.202   2.131  2.5367  0.2219 -0.5084
  231SOL     OW  691   0.627   1.017   0.067  0.2217  0.3966 -0.0403
  231SOL    HW1  692   0.716   1.065   0.034  3.4100  0.8737  0.1130
  231SOL    HW2  693   0.544   1.082   0.073  2.1922  0.1255  1.0001
  232SOL     OW  694   2.425   3.069   2.877  0.1993  0.0599  0.9912
  232SOL    HW1  695   2.457   2.971   2.882  1.4602  1.4346  2.8542
  232SOL    HW2  696   2.462   3.124   2.796  0.0259  0.1104  1.5717
  233SOL     OW  697   1.682   1.224   1.124  0.4976 -0.3484  0.2577
  233SOL    HW1  698   1.685   1.198   1.023  0.6585  0.5312 -0.8407
  233SOL    HW2  699   1.728   1.159   1.187  1.5210 -0.5115  1.0261
  234SOL     OW  700   1.562   2.508   1.875  0.4122 -0.3277 -0.1730
  234SOL    HW1  701   1.572   2.598   1.927 -0.4428 -3.0466  1.5060
  234SOL    HW2  702   1.543   2.425   1.936 -2.7338 -0.7295  0.9466
  235SOL     OW  703   0.016   3.050   2.811 -0.6449 -0.1345  0.2138
  235SOL    HW1  704  -0.057   3.018   2.743 -2.2626  0.2393 -0.8956
  235SOL    HW2  705  -0.037   3.073   2.896  0.3193 -0.5702 -1.4760
  236SOL     OW  706   2.883   0.739   0.084 -0.2274  0.3069 -0.3924
  236SOL    HW1  707   2.966   0.782   0.136  1.6052  0.1204 -0.6628
  236SOL    HW2  708   2.911   0.668   0.016 -1.6182  1.3618  0.7824
  237SOL     OW  709   1.567   1.652   0.958 -0.1157 -0.4675 -0.1604
  237SOL    HW1  710   1.666   1.649   0.939  1.4710  1.3741  0.8174
  237SOL    HW2  711   1.552   1.694   1.053 -0.5066  1.9055 -0.6059
  238SOL     OW  712   1.796   1.260   0.839  0.1571 -0.6232 -0.2040
  238SOL    HW1  713   1.862   1.307   0.903 -2.4321  1.0285 -2.7374
  238SOL    HW2  714   1.725   1.327   0.805  1.1433  1.5767 -3.2521
  239SOL     OW  715   2.105   0.321   2.704  0.2222  0.3027  0.5974
  239SOL    HW1  716   2.138   0.257   2.783  0.3427 -0.4791  1.7400
  239SOL    HW2  717   2.032   0.384   2.741 -0.8225 -1.5197 -0.3543
  240SOL     OW  718   0.936   0.657   0.274  0.1561 -0.4261 -0.2224
  240SOL    HW1  719   0.934   0.562   0.235  1.4144 -0.6764 -0.5523
  240SOL    HW2  720   0.963   0.651   0.374 -0.2026 -1.9005  0.1691
  241SOL     OW  721   0.605   0.034   0.389  0.4872  0.9831 -0.0052
  241SOL    HW1  722   0.635   0.121   0.331 -1.2736 -0.5383  0.0689
  241SOL    HW2  723   0.591  -0.047   0.324  0.0548 -0.9979  0.1904
  242SOL     OW  724   0.599   2.508   1.156  0.0710 -0.6160 -0.2086
  242SOL    HW1  725   0.583   2.553   1.248  0.3160  1.8008 -1.0088
  242SOL    HW2  726   0.615   2.580   1.083 -2.0114  1.0931  0.5232
  243SOL     OW  727   1.076   0.616   2.508 -0.1236 -0.6426  0.1427
  243SOL    HW1  728   0.999   0.650   2.451 -0.8021  1.7154  1.1509
  243SOL    HW2  729   1.048   0.587   2.602 -1.9521  0.5682 -1.5898
  244SOL     OW  730   2.848   1.896   2.345  0.1143 -0.8242 -0.0141
  244SOL    HW1  731   2.863   1.888   2.237 -2.1614  0.1671 -3.2100
  244SOL    HW2  732   2.750   1.882   2.375 -2.0464 -0.3498  0.1346
  245SOL     OW  733   2.297   0.827   2.157 -0.6387  0.5348 -0.3318
  245SOL    HW1  734   2.375   0.893   2.168 -0.2778  1.1094 -0.8350
  245SOL    HW2  735   2.254   0.799   2.240 -2.9158  1.1481 -0.9196
  246SOL     OW  736   0.242   2.930   1.729 -0.1763  0.1388 -0.3442
  246SOL    HW1  737   0.182   2.939   1.644 -2.0400  0.3362 -3.8079
  246SOL    HW2  738   0.338   2.976   1.724  1.4967  0.6169  2.0711
  247SOL     OW  739   2.215   0.644   3.025 -0.6083  0.3453 -0.7081
  247SOL    HW1  740   2.273   0.608   2.943 -1.2470  2.1024 -0.2883
  247SOL    HW2  741   2.163   0.730   2.997 -0.1043 -0.3888  0.8221
  248SOL     OW  742   2.159   1.818   1.601  0.3189 -0.2851  0.1438
  248SOL    HW1  743   2.217   1.745   1.650  0.1389  2.5697 -1.5519
  248SOL    HW2  744   2.063   1.828   1.639 -0.5427  2.8079  0.5079
  249SOL     OW  745   1.849   1.946   1.933  0.0718  0.3923  0.5506
  249SOL    HW1  746   1.868   1.889   1.849 -0.0729  1.1577  0.3400
  249SOL    HW2  747   1.941   1.977   1.976  1.7533 -0.0024  0.2198
  250SOL     OW  748   1.092   0.681   1.886 -0.2931  0.0527  0.0979
  250SOL    HW1  749   1.130   0.625   1.964  0.4789 -1.1543 -1.0184
  250SOL    HW2  750   1.077   0.624   1.799  1.3601 -0.7576 -2.1214
  251SOL     OW  751   0.050   1.624   2.505 -0.3659  0.0762  0.4822
  251SOL    HW1  752   0.039   1.730   2.483  0.4333  1.8637 -0.1776
  251SOL    HW2  753  -0.039   1.570   2.525 -0.5825 -0.5159  3.9714
  252SOL     OW  754   1.604   0.830   1.566  0.3041 -0.5661  0.1014
  252SOL    HW1  755   1.698   0.803   1.523  1.9920 -0.0290 -0.9734
  252SOL    HW2  756   1.612   0.887   1.658 -0.4601 -0.5094  0.1641
  253SOL     OW  757   1.011   1.560   0.537  0.0792  0.2184  0.5820
  253SOL    HW1  758   1.024   1.507   0.448 -0.7773  2.1730  1.9368
  253SOL    HW2  759   0.921   1.608   0.546 -1.1988  2.4235  1.3791
  254SOL     OW  760   2.049   2.158   1.627 -0.3348  0.7643  0.4769
  254SOL    HW1  761   1.997   2.082   1.575  0.2792  0.7407 -2.2023
  254SOL    HW2  762   1.974   2.215   1.674 -0.3251  0.2765  1.0793
  255SOL     OW  763   0.108   1.118   2.922 -0.0444  0.3857  0.7309
  255SOL    HW1  764   0.155   1.209   2.894 -2.9358 -3.3388  0.4059
  255SOL    HW2  765   0.169   1.042   2.966  0.7207  2.1612  0.1816
  256SOL     OW  766   2.809   1.409   1.777  1.1117 -0.2534 -0.1632
  256SOL    HW1  767   2.721   1.460   1.746 -0.6876  1.2697 -0.6285
  256SOL    HW2  768   2.797   1.305   1.769 -1.0619 -0.8825  0.9425
  257SOL     OW  769   0.758   0.143   1.753 -0.0847  0.3723 -0.3764
  257SOL    HW1  770   0.839   0.202   1.730  1.1686 -4.1421  1.6175
  257SOL    HW2  771   0.788   0.065   1.815  0.4979 -1.5847 -0.3705
  258SOL     OW  772   3.017   1.241   0.433 -0.3100 -0.1857  0.3846
  258SOL    HW1  773   2.932   1.300   0.414  0.1956  1.5305  1.5410
  258SOL    HW2  774   3.053   1.255   0.530 -0.4135  2.8143  2.7974
  259SOL     OW  775   0.464   2.933   3.055  0.1922 -0.1857  0.3795
  259SOL    HW1  776   0.397   2.875   3.110 -0.0683  1.5350 -0.9366
  259SOL    HW2  777   0.496   2.884   2.977 -2.1968 -0.5159  0.3374
  260SOL     OW  778   2.763   0.751   2.799 -0.1357 -0.9944 -0.1291
  260SOL    HW1  779   2.667   0.762   2.762  0.3930 -2.2186 -2.4005
  260SOL    HW2  780   2.757   0.757   2.904  1.9113 -1.3079  0.5609
  261SOL     OW  781   2.712   1.369   1.260 -0.5165  0.1758  0.2893
  261SOL    HW1  782   2.670   1.301   1.194  1.6277 -0.9736  2.3378
  261SOL    HW2  783   2.809   1.347   1.274 -0.9351 -1.5074  1.0169
  262SOL     OW  784   1.386   2.955   1.977  0.4544 -0.0408  0.3066
  262SOL    HW1  785   1.427   3.016   1.903 -2.0072  0.3297 -2.7295
  262SOL    HW2  786   1.289   2.929   1.952 -0.0902  0.0412 -1.3989
  263SOL     OW  787   0.851   0.690   2.361  0.0183 -0.4602  0.0069
  263SOL    HW1  788   0.777   0.626   2.321 -1.0135 -1.8205  0.5743
  263SOL    HW2  789   0.907   0.721   2.278  1.6142  0.0530 -0.2946
  264SOL     OW  790   2.197   0.825   0.456  0.4108 -0.2852 -0.3616
  264SOL    HW1  791   2.232   0.785   0.368 -3.2238 -1.3338 -1.1420
  264SOL    HW2  792   2.276   0.883   0.488  1.9168 -1.8414 -2.6065
  265SOL     OW  793   0.951   2.446   2.602 -0.0208  0.5321  0.7495
  265SOL    HW1  794   1.004   2.479   2.686 -2.2284  0.3560 -0.3336
  265SOL    HW2  795   0.944   2.339   2.602  0.2036  2.1197  1.1284
  266SOL     OW  796   1.302   1.763   3.086  0.2564  0.1664 -0.8783
  266SOL    HW1  797   1.298   1.847   3.154  2.4542  2.0110  1.3864
  266SOL    HW2  798   1.398   1.726   3.069  0.2114 -1.8395 -1.3561
  267SOL     OW  799   1.021   0.026   2.343  0.5824  0.2918  0.2870
  267SOL    HW1  800   0.988  -0.032   2.265  1.8022 -0.8889  0.2657
  267SOL    HW2  801   0.998   0.123   2.329 -0.5114 -1.6964  0.2504
  268SOL     OW  802   0.609   1.166   1.038 -0.0353 -0.5698 -0.0028
  268SOL    HW1  803   0.662   1.177   1.128  3.0603  2.8355  2.9883
  268SOL    HW2  804   0.633   1.235   0.967  0.0157 -2.2610  1.7572
  269SOL     OW  805   2.315   2.570   1.609 -0.3757  0.3223 -0.4011
  269SOL    HW1  806   2.360   2.481   1.644 -2.3826 -2.8920  0.5965
  269SOL    HW2  807   2.269   2.613   1.694 -1.2705 -0.1440  1.5978
  270SOL     OW  808   0.176   2.939   2.000 -0.1442  0.5188 -0.4816
  270SOL    HW1  809   0.188   2.927   1.895  0.9166 -1.5788 -1.1827
  270SOL    HW2  810   0.105   2.875   2.042  0.0268  0.9963  0.5208
  271SOL     OW  811   0.410   1.417   1.192  0.3513 -0.1413  0.1332
  271SOL    HW1  812   0.385   1.377   1.095 -2.7822 -0.2717 -1.3682
  271SOL    HW2  813   0.347   1.390   1.270  0.9938 -1.1774  1.2125
  272SOL     OW  814   2.016   2.909   1.938  0.8577  0.4837  0.0901
  272SOL    HW1  815   1.954   2.858   1.876 -1.1051 -1.4984 -0.5747
  272SOL    HW2  816   2.083   2.980   1.894 -0.6446 -0.8501 -0.5288
  273SOL     OW  817   1.477   1.431   2.735 -0.0165  0.5218  0.3921
  273SOL    HW1  818   1.377   1.454   2.738  0.7730 -0.0159  0.2311
  273SOL    HW2  819   1.519   1.412   2.826 -0.7765  1.4229 -0.8618
  274SOL     OW  820   1.180   0.493   2.060  0.2761  0.3407 -0.0799
  274SOL    HW1  821   1.125   0.405   2.050 -0.9222  0.9237 -4.4747
  274SOL    HW2  822   1.219   0.510   2.154 -0.0231 -0.6432 -0.6344
  275SOL     OW  823   0.617   2.099   1.880 -0.0944  0.5572 -0.2135
  275SOL    HW1  824   0.583   2.185   1.919  2.2821 -2.9197  0.8381
  275SOL    HW2  825   0.536   2.040   1.852 -0.3848  0.6683  3.6811
  276SOL     OW  826   2.200   1.018   2.726  0.5001  0.6201  0.2230
  276SOL    HW1  827   2.113   1.027   2.666 -2.4685  0.6574  0.5798
  276SOL    HW2  828   2.188   0.942   2.793  2.4316  2.1255  0.5901
  277SOL     OW  829   3.091   0.818   0.220  0.2240 -0.3266  0.1665
  277SOL    HW1  830   3.180   0.851   0.177  1.5389  0.0659  0.2228
  277SOL    HW2  831   3.108   0.745   0.291  0.6514 -3.2714 -0.1767
  278SOL     OW  832   0.239   0.312   3.014 -0.5532  0.3657 -0.7467
  278SOL    HW1  833   0.299   0.231   3.013  1.6378  2.1489 -0.7189
  278SOL    HW2  834   0.294   0.400   3.032  1.4381  1.0134  0.2607
  279SOL     OW  835   0.176   0.098   0.881  0.7753  0.0125  0.3072
  279SOL    HW1  836   0.209   0.041   0.959 -1.8338 -1.0565  1.0997
  279SOL    HW2  837   0.183   0.045   0.791  0.2155  0.2783  0.1998
  280SOL     OW  838   1.603   2.916   2.411 -0.1780  0.4597  0.6428
  280SOL    HW1  839   1.648   2.978   2.483 -0.6459  1.8829  1.6365
  280SOL    HW2  840   1.524   2.970   2.366 -0.2418  4.0015 -1.9374
  281SOL     OW  841   0.560   0.945   2.246  0.4161 -0.0974  0.4501
  281SOL    HW1  842   0.567   0.856   2.197 -0.0636 -0.1430 -0.6039
  281SOL    HW2  843   0.501   0.940   2.334 -0.0739 -2.0236  0.8587
  282SOL     OW  844   1.779   2.503   0.513  0.0567  0.0954 -0.0219
  282SOL    HW1  845   1.714   2.452   0.448  0.8460  0.1954 -1.3377
  282SOL    HW2  846   1.732   2.581   0.566  0.0154 -0.5890 -0.7296
  283SOL     OW  847   1.228   0.929   0.835  0.4706 -0.0405 -0.2600
  283SOL    HW1  848   1.218   0.855   0.910 -0.2921  0.1099  0.4922
  283SOL    HW2  849   1.148   0.999   0.850  1.3491  2.6338 -0.8173
  284SOL     OW  850   2.260   2.819   2.537 -0.8108  0.8660  0.1641
  284SOL    HW1  851   2.362   2.815   2.516  2.9536  3.8180  1.3922
  284SOL    HW2  852   2.241   2.877   2.624 -0.7344 -0.8712 -0.9670
  285SOL     OW  853   1.335   3.030   2.570 -0.0180  0.3209  0.0059
  285SOL    HW1  854   1.366   3.031   2.471  0.7161 -1.1049 -3.0194
  285SOL    HW2  855   1.232   3.061   2.575 -0.9814 -1.0402  1.6778
  286SOL     OW  856   0.442   0.424   0.718 -0.1728  0.0821 -0.1666
  286SOL    HW1  857   0.405   0.376   0.804  0.7771 -0.8710 -1.2104
  286SOL    HW2  858   0.424   0.364   0.640 -2.2626  1.6860  1.8206
  287SOL     OW  859   0.097   1.278   2.499  0.0812 -0.3108 -0.2153
  287SOL    HW1  860   0.028   1.215   2.543 -3.1303 -1.7720  1.0868
  287SOL    HW2  861   0.079   1.371   2.546 -0.1952 -2.7102  0.3397
  288SOL     OW  862   1.604   2.656   1.625 -0.3943 -0.0963 -0.2056
  288SOL    HW1  863   1.588   2.612   1.718 -2.7130  1.3384  1.8237
  288SOL    HW2  864   1.616   2.587   1.540  1.1946  0.2174 -1.5613
  289SOL     OW  865   0.630   2.727   0.875 -0.1150  0.2627 -0.6643
  289SOL    HW1  866   0.691   2.772   0.799  2.1371  1.4437  0.3679
  289SOL    HW2  867   0.630   2.780   0.963  0.7168 -1.5365 -0.5731
  290SOL     OW  868   2.813   1.135   1.778 -0.5419  0.7164  0.4659
  290SOL    HW1  869   2.741   1.059   1.756 -0.9674  0.6092 -1.3479
  290SOL    HW2  870   2.892   1.102   1.840  3.9083  1.0503 -0.0591
  291SOL     OW  871   1.999   0.009   0.014  0.3484  0.3776 -0.0959
  291SOL    HW1  872   2.004   0.062   0.106 -1.4094 -0.6526  0.7079
  291SOL    HW2  873   2.050   0.060  -0.058 -1.0894 -2.8837  0.0312
  292SOL     OW  874   3.003   1.188   3.088  0.3687  0.0421 -0.5031
  292SOL    HW1  875   2.942   1.257   3.038 -1.0553  1.6962 -1.5799
  292SOL    HW2  876   3.085   1.159   3.024  3.2471  0.6845 -1.6645
  293SOL     OW  877   0.542   2.121   0.257  0.5136  0.2701  0.4234
  293SOL    HW1  878   0.521   2.217   0.305 -0.1844  3.2038  0.4727
  293SOL    HW2  879   0.642   2.094   0.245 -2.0691 -1.8146  3.0143
  294SOL     OW  880   1.832   2.286   1.764  0.3549 -0.0245  0.1301
  294SOL    HW1  881   1.855   2.321   1.857  0.8663  0.5376 -2.6007
  294SOL    HW2  882   1.780   2.364   1.715 -2.0792 -1.5516 -0.4746
  295SOL     OW  883   0.972   1.080   0.421  0.0025 -0.1957  0.4393
  295SOL    HW1  884   1.058   1.060   0.480 -0.7542 -1.6774 -3.2152
  295SOL    HW2  885   0.883   1.086   0.479 -1.8614 -1.4217  2.3977
  296SOL     OW  886   1.171   2.128   2.594  0.3403 -0.1822  0.2148
  296SOL    HW1  887   1.082   2.169   2.629  0.0148  3.3643 -0.1052
  296SOL    HW2  888   1.162   2.049   2.526  3.2597  0.1280  3.0836
  297SOL     OW  889   1.400   0.632   1.334  0.0616 -0.0196 -0.9655
  297SOL    HW1  890   1.410   0.557   1.401 -1.7642  1.2751 -0.0940
  297SOL    HW2  891   1.494   0.680   1.317  0.1928  1.7857  0.9270
  298SOL     OW  892   0.507   1.349   2.987 -0.0927  0.5460 -0.1240
  298SOL    HW1  893   0.473   1.275   3.059 -1.7406 -1.3184  0.4829
  298SOL    HW2  894   0.553   1.306   2.909  1.1560  2.8585  2.3249
  299SOL     OW  895   0.465   0.287   1.212  0.1457 -0.3328 -0.0951
  299SOL    HW1  896   0.415   0.382   1.198 -0.7272 -0.2522  2.3050
  299SOL    HW2  897   0.494   0.274   1.309  0.7712 -0.6941 -1.2611
  300SOL     OW  898   1.253   1.723   2.682 -0.0936 -1.1545 -0.2428
  300SOL    HW1  899   1.230   1.624   2.695  0.4483  1.0036 -2.1650
  300SOL    HW2  900   1.356   1.738   2.709  1.3944 -0.7033 -1.4836
  301SOL     OW  901   0.391   0.285   0.488 -0.5531 -0.0783  0.1522
  301SOL    HW1  902   0.293   0.273   0.522 -0.3945  2.4370  1.8017
  301SOL    HW2  903   0.419   0.218   0.409 -0.3769  0.2744 -2.1822
  302SOL     OW  904   1.273   2.412   2.369  0.2304  0.3105 -0.0875
  302SOL    HW1  905   1.186   2.457   2.410 -1.3980 -1.4950  2.0133
  302SOL    HW2  906   1.334   2.373   2.438  0.2796  1.7844 -1.4581
  303SOL     OW  907   0.951   2.387   0.801 -0.0786  0.0485 -0.1848
  303SOL    HW1  908   0.982   2.439   0.720  0.5802  0.4796  0.0567
  303SOL    HW2  909   0.992   2.430   0.889  2.1226 -1.5823  0.2012
  304SOL     OW  910   0.096   1.949   0.669  0.5441  0.2872  0.1237
  304SOL    HW1  911   0.168   1.948   0.590  0.2129  1.1759  0.9903
  304SOL    HW2  912   0.011   1.997   0.629 -1.7458 -2.0322 -0.7724
  305SOL     OW  913   1.597   0.830   0.645  0.4295 -0.4824  0.5935
  305SOL    HW1  914   1.524   0.835   0.570 -0.1423  2.5874 -0.9690
  305SOL    HW2  915   1.652   0.745   0.648  1.3686  2.7348  2.5491
  306SOL     OW  916   0.425   1.884   1.884  0.6481 -0.0328  0.2375
  306SOL    HW1  917   0.475   1.791   1.876  3.0361  1.5303 -0.9737
  306SOL    HW2  918   0.426   1.928   1.982 -0.8272 -1.2923  2.0073
  307SOL     OW  919   3.057   0.882   2.501  0.5050 -0.3334  0.1296
  307SOL    HW1  920   3.075   0.961   2.568 -0.9072 -2.0050  3.1168
  307SOL    HW2  921   2.980   0.818   2.527  0.9554 -1.1907 -1.4354
  308SOL     OW  922   1.549   2.670   2.792  0.3906  0.2222 -0.3423
  308SOL    HW1  923   1.555   2.603   2.709  0.6352 -2.3465 -1.7236
  308SOL    HW2  924   1.479   2.646   2.866 -0.1909 -1.0998 -1.9468
  309SOL     OW  925   1.288   0.204   1.766 -0.4895  0.3885  0.0864
  309SOL    HW1  926   1.363   0.148   1.810  0.1672 -1.3500  0.3634
  309SOL    HW2  927   1.252   0.171   1.674 -1.0727 -0.7968  1.6678
  310SOL     OW  928   1.531   2.576   0.691 -0.1859 -0.5986  0.2733
  310SOL    HW1  929   1.497   2.593   0.787 -0.7473  1.4473 -2.6331
  310SOL    HW2  930   1.586   2.658   0.646 -2.8042  1.5038 -2.4903
  311SOL     OW  931   1.161   0.919   1.682 -0.2181 -0.4028  0.4157
  311SOL    HW1  932   1.141   0.847   1.756  0.0134  0.4837  0.1632
  311SOL    HW2  933   1.200   0.878   1.597 -1.8162  0.3819  2.0220
  312SOL     OW  934   1.579   0.735   1.139 -0.7906  0.1656  0.5208
  312SOL    HW1  935   1.602   0.839   1.131 -0.1974  2.1200  0.1855
  312SOL    HW2  936   1.533   0.697   1.047  1.5447 -0.1169 -2.0512
  313SOL     OW  937   1.577   1.409   0.704  0.2786 -0.0527 -0.0416
  313SOL    HW1  938   1.494   1.439   0.752  0.6592  2.0364 -1.5938
  313SOL    HW2  939   1.551   1.328   0.642 -1.6635  1.7876  2.2285
  314SOL     OW  940   2.967   0.049   3.026  0.3124 -0.0468  0.3793
  314SOL    HW1  941   2.988   0.043   3.126 -0.7720 -1.4043  1.2038
  314SOL    HW2  942   2.875   0.016   3.000 -0.3812 -0.3680  2.8310
  315SOL     OW  943   1.128   0.227   2.824 -0.3464  0.2900  0.1937
  315SOL    HW1  944   1.131   0.144   2.762 -0.8403  0.2986 -0.4520
  315SOL    HW2  945   1.147   0.200   2.924 -2.1803  1.3554 -0.5867
  316SOL     OW  946   1.770   2.065   0.951  0.1187  0.2092  0.3915
  316SOL    HW1  947   1.742   2.054   1.045 -0.9138 -1.5740 -1.1481
  316SOL    HW2  948   1.750   2.158   0.905 -1.8299  0.0670 -0.9401
  317SOL     OW  949   1.195   0.681   2.812 -0.0041 -0.5346  0.2282
  317SOL    HW1  950   1.136   0.728   2.887 -0.7281  2.4424 -1.2793
  317SOL    HW2  951   1.152   0.596   2.784  0.6843  3.5703  0.9918
  318SOL     OW  952   1.400   3.024   2.258  0.5792 -0.4621 -0.7956
  318SOL    HW1  953   1.389   3.129   2.256 -0.2415 -0.5737  1.3717
  318SOL    HW2  954   1.389   2.979   2.163  0.1292 -0.4512 -1.5345
  319SOL     OW  955   0.587   2.421   2.930 -0.2744  0.2806 -0.6633
  319SOL    HW1  956   0.550   2.371   3.015  1.4153 -1.1538  1.0477
  319SOL    HW2  957   0.674   2.376   2.897  2.7217 -0.5627 -1.4523
  320SOL     OW  958   1.673   2.253   0.402 -0.0124 -0.4456  0.2324
  320SOL    HW1  959   1.761   2.189   0.398  4.9695  0.2584  1.5822
  320SOL    HW2  960   1.594   2.216   0.454  0.6920  0.2828 -2.1720
  321SOL     OW  961   1.664   2.777   0.573  0.5765  0.2684  0.2033
  321SOL    HW1  962   1.599   2.812   0.507  0.1972 -1.8555 -1.1311
  321SOL    HW2  963   1.758   2.816   0.569 -0.0408  0.3882 -1.4429
  322SOL     OW  964   2.585   1.137   2.334  0.1001 -0.3219 -0.3962
  322SOL    HW1  965   2.637   1.173   2.419 -0.3291  0.2123  0.5286
  322SOL    HW2  966   2.526   1.051   2.354  0.9420  0.7614  0.4780
  323SOL     OW  967   1.195   2.688   0.874 -0.6593  0.3303  0.1986
  323SOL    HW1  968   1.182   2.657   0.776  0.2316 -0.1311 -2.6091
  323SOL    HW2  969   1.172   2.786   0.889  0.4783  0.1163 -0.9544
  324SOL     OW  970   0.266   2.432   2.489  0.0050  0.7411  0.1938
  324SOL    HW1  971   0.316   2.368   2.554  1.5638 -0.8434  0.4855
  324SOL    HW2  972   0.234   2.513   2.541 -0.4202  2.5609  0.7574
  325SOL     OW  973   1.269   3.059   0.452 -0.2475  0.0121  0.1545
  325SOL    HW1  974   1.301   3.105   0.364  2.2127 -0.5624 -2.1370
  325SOL    HW2  975   1.284   3.118   0.536  1.9438  1.0654  0.6057
  326SOL     OW  976   2.446   0.783   0.014  0.0254  0.1019 -0.2217
  326SOL    HW1  977   2.392   0.744  -0.065 -2.0828 -3.1429 -0.0272
  326SOL    HW2  978   2.518   0.722   0.056 -1.5613 -1.1969 -0.6418
  327SOL     OW  979   2.824   0.305   0.629 -0.3329 -0.4062 -0.0703
  327SOL    HW1  980   2.805   0.267   0.533  1.2810  1.2953 -3.4765
  327SOL    HW2  981   2.840   0.238   0.700  1.8876  3.5318  0.5057
  328SOL     OW  982   2.593   0.568   0.398 -0.0693  0.5078  0.2129
  328SOL    HW1  983   2.551   0.661   0.414 -1.4895  0.4127  0.4779
  328SOL    HW2  984   2.583   0.507   0.478 -1.1741 -0.1562 -3.6480
  329SOL     OW  985   2.956   2.955   2.165 -0.4730 -0.2155  0.0515
  329SOL    HW1  986   3.041   2.945   2.222 -2.1469 -0.4996 -0.6063
  329SOL    HW2  987   2.934   3.054   2.145  0.0149 -1.6631  0.4421
  330SOL     OW  988   0.526   0.218   1.895  0.3728  0.2748 -0.5659
  330SOL    HW1  989   0.618   0.189   1.849 -0.4181 -0.8918  1.8391
  330SOL    HW2  990   0.514   0.158   1.983  2.3218 -1.8865 -2.0686
  331SOL     OW  991   2.990   1.959   1.099  0.2381  0.1763  0.2009
  331SOL    HW1  992   3.019   2.058   1.093  0.5825 -1.0147  0.5666
  331SOL    HW2  993   2.945   1.934   1.190 -0.8530  2.8882  2.1311
  332SOL     OW  994   0.406   1.174   0.076  0.1174  0.8309  0.1057
  332SOL    HW1  995   0.333   1.105   0.070  0.8594 -2.5297 -1.3574
  332SOL    HW2  996   0.420   1.221   0.169 -1.4925 -0.4070  2.1934
  333SOL     OW  997   2.909   1.048   0.253  0.4140  0.1068 -0.5405
  333SOL    HW1  998   2.941   1.134   0.308  1.8949  1.2598  0.4084
  333SOL    HW2  999   2.977   0.969   0.262  2.4245 -3.3284 -2.8007
  334SOL     OW 1000   1.725   1.277   1.822 -0.0434  0.2406  0.2117
  334SOL    HW1 1001   1.805   1.288   1.757 -1.5655 -0.0263  2.5324
  334SOL    HW2 1002   1.751   1.287   1.921  1.2376  0.2549 -1.7837
  335SOL     OW 1003   2.001   2.707   2.593  0.3429  0.3178 -0.3068
  335SOL    HW1 1004   1.930   2.739   2.667 -1.7913 -1.9876 -0.3019
  335SOL    HW2 1005   2.099   2.744   2.608  1.7898  0.1860  0.1733
  336SOL     OW 1006   0.236   0.090   2.713  0.3101  0.0408 -0.0082
  336SOL    HW1 1007   0.306   0.085   2.786  1.2756 -1.8165 -1.6077
  336SOL    HW2 1008   0.139   0.058   2.739  0.7591 -0.4553 -0.4741
  337SOL     OW 1009   1.015   2.877   2.856  0.6138 -0.2110 -0.0362
  337SOL    HW1 1010   0.927   2.875   2.908 -1.4733  0.3528  1.5470
  337SOL    HW2 1011   1.086   2.942   2.891 -0.0383 -1.6482  2.0333
  338SOL     OW 1012   0.060   1.018   0.653  0.5428 -0.1511  0.4126
  338SOL    HW1 1013  -0.034   0.996   0.685  0.4299  2.6203  0.1129
  338SOL    HW2 1014   0.073   1.121   0.666  0.5715 -0.0968 -0.1443
  339SOL     OW 1015   1.706   1.328   2.090  0.1321 -0.4092  0.1988
  339SOL    HW1 1016   1.617   1.312   2.144  1.0027 -2.8246 -2.8934
  339SOL    HW2 1017   1.763   1.407   2.128 -0.2584 -0.2476 -3.5151
  340SOL     OW 1018   2.297   0.792   1.142 -0.1016 -0.3143  0.6480
  340SOL    HW1 1019   2.200   0.819   1.121 -1.8439 -1.9958  0.4734
  340SOL    HW2 1020   2.327   0.701   1.096 -0.1705 -0.2667 -1.5912
  341SOL     OW 1021   1.910   2.095   0.288  0.3480 -0.1691  0.1024
  341SOL    HW1 1022   1.948   2.144   0.202  0.1299  2.1573  0.6718
  341SOL    HW2 1023   1.980   2.090   0.365 -1.9109 -0.7535 -0.9877
  342SOL     OW 1024   2.201   2.111   2.797 -0.5892  0.1275  0.0139
  342SOL    HW1 1025   2.243   2.031   2.844 -2.2583 -0.7466  0.8063
  342SOL    HW2 1026   2.117   2.090   2.737 -1.3424  1.9903 -2.1987
  343SOL     OW 1027   0.372   0.831   2.761 -0.2274 -0.1149  0.8575
  343SOL    HW1 1028   0.429   0.844   2.671  1.2325 -0.0349  0.4497
  343SOL    HW2 1029   0.415   0.870   2.844  2.1347 -0.2492 -0.7581
  344SOL     OW 1030   1.946   1.468   0.435 -0.0859  0.0956 -0.1439
  344SOL    HW1 1031   1.953   1.383   0.376  0.4296 -0.8940  2.5200
  344SOL    HW2 1032   1.846   1.493   0.453  0.6975  2.8298  0.1184
  345SOL     OW 1033   1.409   2.255   2.914  0.3703  0.2487 -0.3608
  345SOL    HW1 1034   1.319   2.239   2.863 -0.3322  0.8406 -0.0881
  345SOL    HW2 1035   1.477   2.183   2.879  0.1618 -1.1219 -1.6598
  346SOL     OW 1036   2.345   0.894   1.399  0.1143 -0.1554 -0.1555
  346SOL    HW1 1037   2.318   0.988   1.437  1.5519 -1.1445 -0.2637
  346SOL    HW2 1038   2.310   0.872   1.305 -1.3750 -3.8011  0.6652
  347SOL     OW 1039   0.743   2.729   1.606  0.2978 -0.0821  0.0518
  347SOL    HW1 1040   0.702   2.706   1.700 -0.1506 -1.1913  2.1608
  347SOL    HW2 1041   0.689   2.798   1.552  1.4972  0.6443  3.3365
  348SOL     OW 1042   0.170   0.707   2.921  0.3197  0.1095  0.2327
  348SOL    HW1 1043   0.078   0.691   2.877 -3.5380  0.3469 -0.5294
  348SOL    HW2 1044   0.238   0.736   2.848 -0.4118  2.5206 -0.4685
  349SOL     OW 1045   1.863   0.456   2.798  0.4535 -0.7905 -0.2325
  349SOL    HW1 1046   1.854   0.520   2.717 -0.6963  0.0002  0.6223
  349SOL    HW2 1047   1.846   0.500   2.887 -0.1221  0.1180 -1.7631
  350SOL     OW 1048   1.654   0.430   0.389 -0.1907 -0.0766 -0.0384
  350SOL    HW1 1049   1.726   0.446   0.465 -2.1357  0.1287  0.6410
  350SOL    HW2 1050   1.630   0.519   0.339  0.8736 -1.5180  0.5413
  351SOL     OW 1051   0.978   0.798   2.132  0.0602  0.1729 -0.5912
  351SOL    HW1 1052   1.050   0.864   2.161  0.2192  1.8022 -2.9810
  351SOL    HW2 1053   0.994   0.773   2.031  0.6680  0.2107 -0.2994
  352SOL     OW 1054   2.029   1.326   0.649  0.6622  0.6901  0.0530
  352SOL    HW1 1055   2.007   1.371   0.561 -0.8227  0.2516  2.6950
  352SOL    HW2 1056   1.961   1.337   0.727  0.2396  0.7061 -2.0819
  353SOL     OW 1057   2.151   2.780   1.101 -0.6379  0.5661  0.3942
  353SOL    HW1 1058   2.210   2.758   1.181 -2.2105 -0.6913 -2.7912
  353SOL    HW2 1059   2.064   2.725   1.098  3.1291 -1.8004  2.4752
  354SOL     OW 1060   0.249   1.361   2.883 -0.4484  0.4387 -0.5207
  354SOL    HW1 1061   0.248   1.446   2.822 -1.2546  0.1105 -1.1167
  354SOL    HW2 1062   0.349   1.351   2.924  1.0567 -2.3319  0.9184
  355SOL     OW 1063   0.698   1.594   0.590  0.0714  0.1106 -0.6395
  355SOL    HW1 1064   0.716   1.547   0.679 -1.6523 -0.0441 -1.2333
  355SOL    HW2 1065   0.714   1.529   0.510  2.4253  0.1612  2.3856
  356SOL     OW 1066   0.810   0.342   2.042 -0.0953 -0.3010 -0.2119
  356SOL    HW1 1067   0.905   0.317   2.012 -3.8524  1.2461  0.9748
  356SOL    HW2 1068   0.740   0.339   1.962  0.9004  0.7947  1.5647
  357SOL     OW 1069   1.024   1.329   0.318  0.4733 -0.3664 -0.5498
  357SOL    HW1 1070   1.117   1.327   0.266  0.5757  1.3198  0.3406
  357SOL    HW2 1071   1.006   1.234   0.364 -1.4001 -2.2380 -1.2123
  358SOL     OW 1072   1.677   1.547   0.486 -0.2042 -0.0476 -0.1499
  358SOL    HW1 1073   1.636   1.491   0.565 -2.8679 -0.2388  1.2583
  358SOL    HW2 1074   1.604   1.566   0.412 -3.3651  1.3022 -2.3548
  359SOL     OW 1075   1.572   2.643   0.212 -0.2453  0.0469  0.3828
  359SOL    HW1 1076   1.546   2.565   0.148  0.6804 -3.1042 -2.0211
  359SOL    HW2 1077   1.493   2.676   0.269  1.7709 -0.3856 -0.9430
  360SOL     OW 1078   0.787   0.586   0.524  0.0594 -0.0420  0.0023
  360SOL    HW1 1079   0.685   0.582   0.510 -1.6594 -0.8185 -1.0620
  360SOL    HW2 1080   0.829   0.497   0.539 -0.4335 -0.1837  0.3825
  361SOL     OW 1081   1.244   1.298   0.671  0.2659  0.2488 -0.4266
  361SOL    HW1 1082   1.303   1.366   0.723  1.7763 -0.0532  2.3570
  361SOL    HW2 1083   1.144   1.307   0.695 -0.8675 -0.2356 -0.7291
  362SOL     OW 1084   1.387   1.821   0.827 -0.4712 -0.4583 -0.2141
  362SOL    HW1 1085   1.443   1.763   0.890 -0.5474  0.2263 -0.1872
  362SOL    HW2 1086   1.444   1.883   0.769  0.7143 -1.4053  0.0895
  363SOL     OW 1087   1.223   1.325   2.049  0.4974  0.6432 -0.0237
  363SOL    HW1 1088   1.312   1.356   2.091 -0.6663 -0.4130  1.2590
  363SOL    HW2 1089   1.189   1.370   1.964 -1.7097 -0.7370  0.8053
  364SOL     OW 1090   0.530   2.327   1.979  0.2133 -0.3299  0.0070
  364SOL    HW1 1091   0.440   2.371   1.954 -1.6687 -0.7066  1.2252
  364SOL    HW2 1092   0.608   2.369   1.921 -1.4875 -0.6501 -2.6268
  365SOL     OW 1093   0.988   1.967   1.343 -0.4555  0.0675 -0.0090
  365SOL    HW1 1094   0.890   1.982   1.372 -0.3227  0.8274 -1.4413
  365SOL    HW2 1095   0.998   1.959   1.242 -1.1560  4.3461 -0.8589
  366SOL     OW 1096   2.830   1.960   0.393 -0.3993 -0.6648 -0.4414
  366SOL    HW1 1097   2.750   1.918   0.436  0.8038 -0.5601  0.4566
  366SOL    HW2 1098   2.871   1.899   0.321  1.7047 -0.4552  1.0195
  367SOL     OW 1099   0.883   1.132   0.002 -0.0717  0.7839 -0.8688
  367SOL    HW1 1100   0.906   1.047   0.056 -0.1393 -1.1863 -1.2890
  367SOL    HW2 1101   0.964   1.201   0.007  0.6028  2.1121 -1.9641
  368SOL     OW 1102   1.440   0.572   0.676  0.1730 -0.7270 -0.6238
  368SOL    HW1 1103   1.400   0.567   0.582 -1.4219  1.3393  0.2840
  368SOL    HW2 1104   1.540   0.577   0.659  0.4176  0.3849  1.6931
  369SOL     OW 1105   0.360   1.682   0.092  0.1405 -0.1339  0.6601
  369SOL    HW1 1106   0.390   1.766   0.151 -0.0598 -1.7023  1.6422
  369SOL    HW2 1107   0.292   1.619   0.140 -0.4466  1.8352 -1.3106
  370SOL     OW 1108   0.421   2.040   1.014 -0.3637 -0.4160  0.4650
  370SOL    HW1 1109   0.457   2.138   1.010  1.1621 -1.0130  1.7487
  370SOL    HW2 1110   0.326   2.030   0.985  2.0205  0.1640  1.4904
  371SOL     OW 1111   2.921   2.210   2.641 -0.5038  0.0119  0.3888
  371SOL    HW1 1112   2.849   2.157   2.686 -0.8962 -1.7597 -0.9361
  371SOL    HW2 1113   3.010   2.213   2.691  0.9653  0.0420 -0.3235
  372SOL     OW 1114   1.048   2.015   1.052 -0.5816 -0.2047 -0.1322
  372SOL    HW1 1115   0.972   2.054   0.989  0.5602  0.8632  0.8318
  372SOL    HW2 1116   1.126   2.082   1.056 -0.9613 -0.7604 -0.1548
  373SOL     OW 1117   2.001   1.963   0.844 -0.1336 -0.0125  0.0893
  373SOL    HW1 1118   2.077   1.953   0.918  0.6947 -2.0010 -0.1313
  373SOL    HW2 1119   1.909   2.010   0.871 -2.0248 -0.3555 -0.6327
  374SOL     OW 1120   1.868   0.401   0.575  0.1101  0.1728 -0.3388
  374SOL    HW1 1121   1.865   0.305   0.615 -0.7815 -0.4150  0.6101
  374SOL    HW2 1122   1.967   0.421   0.559 -5.4663 -2.6145  0.6371
  375SOL     OW 1123   2.387   2.144   1.084  0.5057 -0.0969 -0.6408
  375SOL    HW1 1124   2.430   2.172   0.997 -0.5394  2.1426  0.5192
  375SOL    HW2 1125   2.454   2.115   1.158 -0.7928  1.6083 -1.6506
  376SOL     OW 1126   3.071   0.572   1.489 -0.7975 -0.0018  0.1537
  376SOL    HW1 1127   3.095   0.640   1.565  0.5554 -0.3148 -0.7808
  376SOL    HW2 1128   2.998   0.502   1.523 -0.3208 -1.8149  1.0501
  377SOL     OW 1129   2.190   2.921   0.282 -0.8412 -0.0527 -0.2207
  377SOL    HW1 1130   2.174   3.024   0.293  0.2355  2.7797 -1.1846
  377SOL    HW2 1131   2.281   2.893   0.327 -0.6297  1.5510 -0.0560
  378SOL     OW 1132   1.807   1.857   2.625 -0.7419  0.0690 -0.4206
  378SOL    HW1 1133   1.848   1.794   2.697  1.0128  1.6054  3.5079
  378SOL    HW2 1134   1.849   1.827   2.535 -1.0649 -0.5647 -0.0630
  379SOL     OW 1135   0.701   0.108   2.882 -0.0087 -0.1945  0.3799
  379SOL    HW1 1136   0.655   0.030   2.838  2.1264 -2.1500 -2.7393
  379SOL    HW2 1137   0.722   0.184   2.812 -1.4662 -0.6754 -0.4952
  380SOL     OW 1138   1.511   1.140   0.619  0.5725  0.1086  0.0504
  380SOL    HW1 1139   1.424   1.177   0.582 -0.1220 -0.6791  1.7627
  380SOL    HW2 1140   1.509   1.038   0.643 -0.9457 -2.1388  0.8505
  381SOL     OW 1141   1.345   1.177   1.523 -0.7241  0.4234  0.3021
  381SOL    HW1 1142   1.390   1.148   1.433  0.9165  1.2010  0.7778
  381SOL    HW2 1143   1.355   1.116   1.603 -1.7692 -0.5703 -0.3504
  382SOL     OW 1144   1.773   0.861   0.179  0.1838  0.1348 -0.2238
  382SOL    HW1 1145   1.804   0.843   0.082 -1.2616 -0.5589  0.3104
  382SOL    HW2 1146   1.852   0.888   0.243 -1.2920 -1.9125  0.4429
  383SOL     OW 1147   2.601   1.029   1.462 -0.2562  0.1628 -0.0108
  383SOL    HW1 1148   2.520   0.963   1.440 -0.5699  1.1125 -0.2844
  383SOL    HW2 1149   2.670   1.024   1.381  0.8915  0.3079 -3.9592
  384SOL     OW 1150   0.981   2.278   0.123  0.2581 -0.6123 -0.2141
  384SOL    HW1 1151   0.930   2.368   0.139  2.2361 -0.5356 -0.2340
  384SOL    HW2 1152   0.969   2.214   0.203  2.8052  1.2698 -0.9235
  385SOL     OW 1153   3.031   2.055   1.642 -0.5612  0.0027  0.1960
  385SOL    HW1 1154   3.116   2.117   1.640  2.1890  3.9852 -0.8042
  385SOL    HW2 1155   3.044   1.952   1.624 -1.1147 -0.3392 -1.6599
  386SOL     OW 1156   0.484   1.092   0.413 -0.2011 -0.6668  0.3548
  386SOL    HW1 1157   0.482   0.991   0.441  2.0951 -0.4065  1.9891
  386SOL    HW2 1158   0.391   1.124   0.389 -1.5019 -2.2154  0.0537
  387SOL     OW 1159   0.965   0.293   1.655  0.1609 -0.1338  0.6948
  387SOL    HW1 1160   1.022   0.378   1.658  2.7467 -0.6970  3.0648
  387SOL    HW2 1161   0.951   0.261   1.556  0.0334  0.9189 -0.1396
  388SOL     OW 1162   1.198   2.683   1.730  0.2205  0.5222 -0.0719
  388SOL    HW1 1163   1.198   2.687   1.625 -2.3467 -0.8997 -0.2566
  388SOL    HW2 1164   1.260   2.604   1.754 -0.5659  0.7281  2.0737
  389SOL     OW 1165   0.194   2.984   1.107  0.4967  1.1719  0.5769
  389SOL    HW1 1166   0.099   2.986   1.146 -0.2971 -0.4839  2.9372
  389SOL    HW2 1167   0.229   2.882   1.113  0.2163 -0.4270  0.1080
  390SOL     OW 1168   1.015   0.947   1.355 -0.3098  0.6811 -0.1154
  390SOL    HW1 1169   1.117   0.920   1.369  0.3145  0.9205  1.0036
  390SOL    HW2 1170   0.987   1.034   1.408  0.6707 -1.8101  0.0179
  391SOL     OW 1171   2.143   1.085   1.075  0.4066  0.2383  0.1795
  391SOL    HW1 1172   2.059   1.022   1.084 -1.6429 -3.2826 -0.2427
  391SOL    HW2 1173   2.207   1.057   0.998 -1.5843  0.3484 -0.5368
  392SOL     OW 1174   0.862   2.753   0.001 -0.4082  0.0326  0.3229
  392SOL    HW1 1175   0.888   2.652   0.014  0.8861  0.4231 -1.6988
  392SOL    HW2 1176   0.936   2.817   0.037  2.6952  2.0065  2.3766
  393SOL     OW 1177   0.333   0.529   2.006  0.9807 -0.0848  0.0168
  393SOL    HW1 1178   0.273   0.449   1.973 -2.0955 -2.3145  0.9469
  393SOL    HW2 1179   0.421   0.537   1.955 -0.6609  2.9051  2.8641
  394SOL     OW 1180   3.069   1.824   2.815  0.2513  0.3810 -0.0706
  394SOL    HW1 1181   3.151   1.784   2.859  1.2551 -0.0908 -1.9327
  394SOL    HW2 1182   3.084   1.922   2.781  0.6378 -0.2422  0.6303
  395SOL     OW 1183   1.620   1.939   0.684  0.2041  0.6975 -0.0039
  395SOL    HW1 1184   1.667   1.880   0.613  1.0694  2.6907  0.1385
  395SOL    HW2 1185   1.687   1.989   0.746 -0.2831 -0.0322 -1.4934
  396SOL     OW 1186   2.834   1.875   1.299  0.8352  0.0374 -0.1894
  396SOL    HW1 1187   2.808   1.774   1.300 -3.5846 -0.7417 -2.9190
  396SOL    HW2 1188   2.807   1.926   1.379 -0.7164 -2.6872 -3.6580
  397SOL     OW 1189   1.042   2.247   0.507  0.1769  0.2945 -0.1742
  397SOL    HW1 1190   0.952   2.203   0.532  0.1619 -2.7825  1.7029
  397SOL    HW2 1191   1.047   2.344   0.538 -2.0168 -3.0936  0.1672
  398SOL     OW 1192   2.128   3.048   1.017  0.3885  0.0040 -0.5556
  398SOL    HW1 1193   2.149   2.947   1.043  0.1708 -1.6448 -0.5404
  398SOL    HW2 1194   2.070   3.096   1.083  3.6139 -1.5161 -1.4710
  399SOL     OW 1195   3.017   2.524   2.547  0.4786 -0.3501 -0.5005
  399SOL    HW1 1196   2.916   2.518   2.547  2.1342  0.1881 -2.9036
  399SOL    HW2 1197   3.065   2.429   2.542 -0.5625  0.9474  0.9179
  400SOL     OW 1198   0.777   1.627   1.335  0.0681 -0.1535  0.1579
  400SOL    HW1 1199   0.758   1.636   1.434 -2.5144 -0.5241  1.6163
  400SOL    HW2 1200   0.703   1.669   1.273 -0.2764 -1.1169  1.9306
  401SOL     OW 1201   1.797   0.081   1.370 -0.2260 -0.0013 -0.5509
  401SOL    HW1 1202   1.872   0.097   1.438 -1.1811  3.8665 -2.3102
  401SOL    HW2 1203   1.701   0.107   1.399  0.6894  1.2692 -1.1469
  402SOL     OW 1204   1.320   0.137   3.036  0.0051  0.1839  0.4307
  402SOL    HW1 1205   1.416   0.122   3.001 -0.5743  2.7168  3.8300
  402SOL    HW2 1206   1.299   0.241   3.056  1.4880  1.9787 -1.3310
  403SOL     OW 1207   2.317   1.786   0.883  0.0813 -0.1216 -0.0540
  403SOL    HW1 1208   2.418   1.792   0.908  1.8262 -3.9383  0.3681
  403SOL    HW2 1209   2.259   1.852   0.934 -1.4278 -1.8072 -1.8657
  404SOL     OW 1210   0.185   2.502   2.815  0.0712  0.4621 -0.2545
  404SOL    HW1 1211   0.283   2.464   2.804  1.5116  2.4328  1.4850
  404SOL    HW2 1212   0.189   2.603   2.831  0.3341 -0.4552 -1.0621
  405SOL     OW 1213   0.164   2.402   0.659  0.3104  0.3208  0.4129
  405SOL    HW1 1214   0.125   2.334   0.587 -2.4773  2.6223 -0.2219
  405SOL    HW2 1215   0.184   2.492   0.620  0.4114 -1.1500  0.8852
  406SOL     OW 1216  -0.002   1.482   3.019  0.4527  0.4994  0.4377
  406SOL    HW1 1217   0.078   1.419   2.983 -0.7394 -2.4435  2.4330
  406SOL    HW2 1218   0.030   1.575   3.033 -0.0916 -0.7794 -2.0525
  407SOL     OW 1219   1.576   0.965   0.895 -0.0946 -0.2876 -0.3727
  407SOL    HW1 1220   1.577   0.913   0.805  0.9128  1.7474 -0.4721
  407SOL    HW2 1221   1.495   1.018   0.910 -0.4248  1.6516 -2.8128
  408SOL     OW 1222   1.584   2.321   0.936 -0.6261  0.0638  0.2236
  408SOL    HW1 1223   1.633   2.306   0.850  0.1906 -0.2870  0.8796
  408SOL    HW2 1224   1.538   2.417   0.939  2.2120  0.3322  0.1881
  409SOL     OW 1225   0.662   0.843   0.683 -0.7405 -0.0003 -0.3934
  409SOL    HW1 1226   0.595   0.845   0.606  0.1159  1.7048 -1.8114
  409SOL    HW2 1227   0.670   0.746   0.730 -0.0909  0.6253  0.6002
  410SOL     OW 1228   1.254   2.051   1.443  0.5990  0.1511 -0.0978
  410SOL    HW1 1229   1.300   1.996   1.516 -1.2033  0.4382 -2.9517
  410SOL    HW2 1230   1.169   1.999   1.399 -1.0931 -0.2745 -1.2928
  411SOL     OW 1231   2.504   1.856   0.011  0.1075  0.0307 -0.4523
  411SOL    HW1 1232   2.419   1.874  -0.046  0.5738  0.6857 -1.9054
  411SOL    HW2 1233   2.586   1.833  -0.052  0.7460 -1.6423 -0.8144
  412SOL     OW 1234   1.461   2.529   2.190  0.2162 -1.0344  0.0884
  412SOL    HW1 1235   1.474   2.630   2.195 -0.6540 -0.9382  1.3591
  412SOL    HW2 1236   1.394   2.493   2.260  1.1371 -1.6313 -0.5984
  413SOL     OW 1237   3.080   0.276   2.962  0.1546  0.0866  0.1980
  413SOL    HW1 1238   3.027   0.197   3.006 -1.9850  1.8716 -0.2343
  413SOL    HW2 1239   3.174   0.293   3.001 -1.3351  1.8010 -2.9941
  414SOL     OW 1240   1.827   1.476   1.232 -0.2620  0.4768  0.3349
  414SOL    HW1 1241   1.766   1.531   1.298  1.8075  0.8568 -1.8026
  414SOL    HW2 1242   1.781   1.392   1.199 -0.2021  3.2169 -0.9394
  415SOL     OW 1243   0.312   2.170   0.736  0.3783 -0.1423 -0.3716
  415SOL    HW1 1244   0.257   2.249   0.704  0.2973 -1.1439  0.0164
  415SOL    HW2 1245   0.289   2.142   0.837  0.3152 -0.0901  2.2107
  416SOL     OW 1246   0.333   1.008   1.033 -0.1955 -0.6623  0.1594
  416SOL    HW1 1247   0.305   0.977   0.938  1.0357  3.4734 -0.1747
  416SOL    HW2 1248   0.420   1.060   1.029 -1.4958  4.6349  0.8160
  417SOL     OW 1249   2.161   2.285   1.927  0.2547 -0.0101 -0.0294
  417SOL    HW1 1250   2.218   2.224   1.986  2.3498  1.4775 -0.1545
  417SOL    HW2 1251   2.092   2.233   1.871  1.3298  0.7653  1.4168
  418SOL     OW 1252   1.127   0.507   1.333  0.1431  0.0931  0.0551
  418SOL    HW1 1253   1.078   0.468   1.253 -1.8357  1.8499  0.6027
  418SOL    HW2 1254   1.224   0.537   1.311 -3.7380 -1.7659  1.6412
  419SOL     OW 1255   0.931   0.402   3.005 -0.2300  0.1759 -0.1488
  419SOL    HW1 1256   0.926   0.395   2.899 -1.2122  2.5234 -1.6786
  419SOL    HW2 1257   0.937   0.501   3.034  1.9249  2.7663 -2.2217
  420SOL     OW 1258   0.080   2.263   0.433 -0.4788 -0.3541  0.0437
  420SOL    HW1 1259   0.084   2.246   0.331 -0.9050 -0.9752 -0.4712
  420SOL    HW2 1260   0.002   2.204   0.474 -1.0687 -0.6155  1.1775
  421SOL     OW 1261   0.365   2.960   0.699  0.8123  0.8447 -0.4042
  421SOL    HW1 1262   0.366   2.901   0.785 -0.2552  1.2333  3.0328
  421SOL    HW2 1263   0.455   3.003   0.678  0.3012  1.7377 -1.7035
  422SOL     OW 1264   1.033   2.523   1.022  0.1112 -0.4563 -0.0215
  422SOL    HW1 1265   1.097   2.597   0.987  3.5167 -1.7730  2.8579
  422SOL    HW2 1266   1.004   2.532   1.124  2.5070  0.5261  1.7267
  423SOL     OW 1267   0.085   0.674   1.257 -0.6034  0.0472 -0.0932
  423SOL    HW1 1268   0.037   0.657   1.348  0.2373  2.7250 -0.8009
  423SOL    HW2 1269   0.050   0.763   1.216  3.6100 -3.0675  0.6738
  424SOL     OW 1270   1.020   2.221   2.038 -0.1797 -0.0494 -0.9319
  424SOL    HW1 1271   1.009   2.322   2.023 -0.9892 -1.4224 -0.3491
  424SOL    HW2 1272   1.025   2.206   2.140 -2.4509  0.4098 -0.3384
  425SOL     OW 1273   1.987   1.386   0.975  0.2191 -0.3953  0.1814
  425SOL    HW1 1274   2.027   1.314   1.033 -0.2771 -0.7978 -2.6274
  425SOL    HW2 1275   2.062   1.434   0.920  0.4384 -2.7904  0.7068
  426SOL     OW 1276   1.547   1.599   1.378 -0.2257  0.6513 -0.2109
  426SOL    HW1 1277   1.526   1.676   1.315 -1.5040 -0.3226  3.8073
  426SOL    HW2 1278   1.474   1.588   1.450 -1.3655 -0.4287  1.0356
  427SOL     OW 1279   1.873   2.368   2.045  0.2794  0.4100  0.3037
  427SOL    HW1 1280   1.932   2.301   2.099  0.3198  3.0819 -1.0448
  427SOL    HW2 1281   1.912   2.467   2.049  1.9619  1.5223 -2.0914
  428SOL     OW 1282   0.860   2.980   0.195  0.7885 -0.1225  0.1301
  428SOL    HW1 1283   0.873   3.077   0.169  1.6903  0.1657  0.4683
  428SOL    HW2 1284   0.941   2.919   0.178  1.7881  2.2202  0.5992
  429SOL     OW 1285   1.329   0.075   0.208  0.2150 -0.3228 -0.2477
  429SOL    HW1 1286   1.417   0.114   0.243  0.0617 -1.0648  1.6247
  429SOL    HW2 1287   1.325   0.076   0.104 -0.0843 -0.2265 -0.5759
  430SOL     OW 1288   2.831   1.408   0.349  0.0565 -0.2030 -1.4476
  430SOL    HW1 1289   2.858   1.477   0.278 -0.5361  0.2507  1.3079
  430SOL    HW2 1290   2.792   1.443   0.441  2.7201 -1.3177  2.7287
  431SOL     OW 1291   2.150   1.573   0.844 -0.4497  0.2929  0.6039
  431SOL    HW1 1292   2.225   1.647   0.857 -1.1493 -0.9870  0.0834
  431SOL    HW2 1293   2.075   1.610   0.778 -0.0045 -1.3540 -1.9961
  432SOL     OW 1294   2.901   2.250   1.205 -0.3771 -0.2236  0.3895
  432SOL    HW1 1295   2.820   2.189   1.202  0.8910  1.1542 -0.1658
  432SOL    HW2 1296   2.919   2.270   1.304 -2.6080 -0.2191  0.3772
  433SOL     OW 1297   1.954   0.401   0.865  0.1241 -0.0800 -0.1358
  433SOL    HW1 1298   1.866   0.355   0.902 -1.1315 -0.9432 -1.1204
  433SOL    HW2 1299   2.003   0.461   0.931  0.7502  1.6024  0.2462
  434SOL     OW 1300   1.529   0.284   0.760 -0.8149 -0.0922 -1.0607
  434SOL    HW1 1301   1.485   0.377   0.743 -0.4877 -0.2248 -0.4350
  434SOL    HW2 1302   1.598   0.279   0.842  3.5042  3.4967  1.3292
  435SOL     OW 1303   1.442   1.454   2.158  0.4141  0.0845 -1.0732
  435SOL    HW1 1304   1.381   1.480   2.238  1.3647  2.0373  2.8173
  435SOL    HW2 1305   1.448   1.538   2.104  0.0681 -1.0435  2.9655
  436SOL     OW 1306   1.675   2.743   2.209  0.1400 -0.0219 -0.4304
  436SOL    HW1 1307   1.647   2.817   2.281  1.4797 -2.7689  1.0675
  436SOL    HW2 1308   1.686   2.646   2.247  0.1695 -0.6606 -0.4343
  437SOL     OW 1309   1.047   2.918   0.927  0.2626 -0.2530  0.1134
  437SOL    HW1 1310   0.990   2.994   0.895 -2.0660 -1.1158  2.6633
  437SOL    HW2 1311   1.013   2.885   1.018 -2.2706  1.0758  0.5103
  438SOL     OW 1312   1.036   2.568   1.293 -0.4174 -0.3912 -0.7856
  438SOL    HW1 1313   1.080   2.609   1.380  0.0651  0.7211  1.0216
  438SOL    HW2 1314   1.020   2.466   1.294  1.8028  0.4412 -2.4232
  439SOL     OW 1315   0.685   1.710   1.064 -0.1065  0.5302 -0.1015
  439SOL    HW1 1316   0.709   1.807   1.028  0.8545  1.5825  2.0652
  439SOL    HW2 1317   0.583   1.698   1.090 -1.0807  0.8025 -0.2829
  440SOL     OW 1318   0.984   2.493   1.970 -0.2796 -0.3344  0.0615
  440SOL    HW1 1319   0.949   2.510   1.872 -0.8062 -1.3754  1.1402
  440SOL    HW2 1320   1.081   2.525   1.977  0.9030  1.6081 -0.2034
  441SOL     OW 1321   0.453   2.730   1.369  0.4018 -0.3281  0.2440
  441SOL    HW1 1322   0.466   2.639   1.423  2.5214 -0.0965 -0.8159
  441SOL    HW2 1323   0.377   2.719   1.306  1.7632 -1.9108 -1.6888
  442SOL     OW 1324   2.353   0.650   2.438  0.0374 -0.3343 -0.4558
  442SOL    HW1 1325   2.353   0.548   2.445  0.8220  1.0331 -2.5383
  442SOL    HW2 1326   2.262   0.696   2.466 -0.3932  1.9049 -0.0609
  443SOL     OW 1327   1.243   2.732   2.167  0.2914  0.1077 -0.3609
  443SOL    HW1 1328   1.213   2.746   2.263 -0.7388 -2.9507 -0.1928
  443SOL    HW2 1329   1.260   2.630   2.154 -0.7294  4.2711 -0.8879
  444SOL     OW 1330   1.123   1.294   1.601  0.3834 -0.7191  0.0430
  444SOL    HW1 1331   1.208   1.255   1.555 -2.5722 -0.1476 -0.7419
  444SOL    HW2 1332   1.148   1.372   1.665 -1.2032  2.8165 -3.0455
  445SOL     OW 1333   0.019   2.394   1.867  0.8621 -0.1334 -0.3238
  445SOL    HW1 1334  -0.011   2.463   1.794  1.3703 -0.4047 -3.0543
  445SOL    HW2 1335  -0.059   2.328   1.902 -2.2257 -0.9085  1.1862
  446SOL     OW 1336   0.277   1.921   2.343  0.2363  0.5894 -0.2776
  446SOL    HW1 1337   0.236   2.017   2.357 -0.6237  1.6089  1.5067
  446SOL    HW2 1338   0.217   1.854   2.289 -1.7219 -1.7829 -4.3111
  447SOL     OW 1339   1.205   1.719   1.921 -0.5271 -0.0940 -0.0663
  447SOL    HW1 1340   1.111   1.763   1.900 -0.1690  1.1173 -0.4279
  447SOL    HW2 1341   1.271   1.780   1.972  0.9242  0.8767 -1.1694
  448SOL     OW 1342   0.108   1.506   1.991 -0.1877  0.2843 -0.5321
  448SOL    HW1 1343   0.140   1.595   1.953 -0.6502  0.5616 -2.8883
  448SOL    HW2 1344   0.084   1.514   2.094  3.7878  2.0220  3.6917
  449SOL     OW 1345   1.883   2.971   0.856  0.3900 -0.6371  0.1571
  449SOL    HW1 1346   1.937   2.991   0.941  0.9989  1.6327 -3.5092
  449SOL    HW2 1347   1.905   2.881   0.809  0.3031  1.8205 -0.5396
  450SOL     OW 1348   2.358   1.425   0.722 -0.2890 -0.3876 -0.0193
  450SOL    HW1 1349   2.278   1.465   0.773 -1.8779  0.3141  0.1321
  450SOL    HW2 1350   2.382   1.484   0.639 -1.1551 -1.5876 -1.4371
  451SOL     OW 1351   1.373   2.981   1.458 -0.1192  0.0967  0.1355
  451SOL    HW1 1352   1.297   3.052   1.475 -2.3378 -0.0273  2.6227
  451SOL    HW2 1353   1.385   2.916   1.540 -0.8541 -1.0737 -0.4445
  452SOL     OW 1354   2.700   2.297   2.167  0.3701 -0.2080  0.1500
  452SOL    HW1 1355   2.620   2.352   2.200 -1.6555 -1.6776  0.1869
  452SOL    HW2 1356   2.743   2.249   2.246 -1.7511 -1.3509 -1.4769
  453SOL     OW 1357   2.488   2.646   0.010 -0.1198  0.1280 -0.3058
  453SOL    HW1 1358   2.405   2.705   0.022 -0.8759  1.3181 -2.6577
  453SOL    HW2 1359   2.466   2.567  -0.047 -0.5459 -0.9271 -0.5806
  454SOL     OW 1360   1.000   1.160   2.109  0.4001  0.2101  0.0579
  454SOL    HW1 1361   0.983   1.132   2.009  2.5267 -2.6890  0.1918
  454SOL    HW2 1362   1.068   1.239   2.112 -0.3024  2.0497  0.7894
  455SOL     OW 1363   0.638   2.691   2.934 -0.0790  0.0008 -0.1137
  455SOL    HW1 1364   0.721   2.720   2.987 -1.2766  1.1887 -1.7730
  455SOL    HW2 1365   0.610   2.587   2.941 -2.4522  0.2572 -1.1380
  456SOL     OW 1366   0.465   1.871   0.276 -0.0968 -0.0457  0.6866
  456SOL    HW1 1367   0.552   1.832   0.322  2.4984 -0.5971 -0.3009
  456SOL    HW2 1368   0.485   1.969   0.249 -0.5415 -0.4667 -0.7167
  457SOL     OW 1369   0.283   2.655   0.641 -0.9314 -0.2820  0.2236
  457SOL    HW1 1370   0.252   2.740   0.585 -0.2216  0.8481 -0.3834
  457SOL    HW2 1371   0.388   2.645   0.642  3.5786 -0.2413 -2.4332
  458SOL     OW 1372   2.944   3.048   1.225  0.2778 -0.3702 -0.5108
  458SOL    HW1 1373   2.985   3.146   1.231 -0.4744  2.3371 -1.2332
  458SOL    HW2 1374   2.930   3.024   1.126 -1.2342 -0.8905 -1.1248
  459SOL     OW 1375   2.187   2.571   0.783  0.0901 -0.3514 -0.7479
  459SOL    HW1 1376   2.226   2.660   0.820  0.9260 -0.1808 -0.6717
  459SOL    HW2 1377   2.244   2.546   0.704  0.1991 -0.6427  0.0583
  460SOL     OW 1378   1.203   2.005   2.846 -0.4945  0.0218  0.1463
  460SOL    HW1 1379   1.200   2.033   2.748 -2.5565 -1.1983  1.3594
  460SOL    HW2 1380   1.243   1.914   2.865 -1.9667  0.1451  1.4116
  461SOL     OW 1381   0.554   2.087   2.665 -0.0885 -0.2398  0.6490
  461SOL    HW1 1382   0.482   2.014   2.642 -0.2317 -0.2259 -0.5460
  461SOL    HW2 1383   0.577   2.078   2.772 -0.0993 -1.9557  1.8201
  462SOL     OW 1384   0.968   1.148   1.824 -0.0152  0.1668 -0.1503
  462SOL    HW1 1385   1.030   1.121   1.750 -3.2355 -1.1120  1.3820
  462SOL    HW2 1386   0.890   1.211   1.791  2.4716 -3.5963  0.0524
  463SOL     OW 1387   0.463   0.825   0.461 -0.0218 -0.5682  0.4987
  463SOL    HW1 1388   0.468   0.723   0.453 -0.1991 -1.4309 -3.5382
  463SOL    HW2 1389   0.368   0.847   0.505  1.0862  0.5555  0.5063
  464SOL     OW 1390   0.616   2.283   2.235  0.0013 -0.2535 -0.0653
  464SOL    HW1 1391   0.601   2.366   2.297 -0.2380 -0.5713  0.6672
  464SOL    HW2 1392   0.569   2.298   2.144  1.7646 -0.9979  1.1016
  465SOL     OW 1393   0.304   0.919   0.776  0.1855 -0.2559  0.1874
  465SOL    HW1 1394   0.206   0.941   0.732  0.2018  0.3203 -4.0035
  465SOL    HW2 1395   0.324   0.818   0.781 -1.7731 -1.4726 -2.7088
  466SOL     OW 1396   1.393   1.112   1.038 -0.5296 -0.1895  0.6397
  466SOL    HW1 1397   1.413   1.205   1.074  0.2462  1.4058  0.7547
  466SOL    HW2 1398   1.290   1.099   1.032 -1.4977 -0.6519  2.4366
  467SOL     OW 1399   0.469   0.364   2.372 -0.5302  0.2392 -0.5787
  467SOL    HW1 1400   0.433   0.462   2.374 -0.0269  1.4880  1.0181
  467SOL    HW2 1401   0.492   0.313   2.458  1.0165 -1.1716 -1.3545
  468SOL     OW 1402   0.456   2.281   1.676  0.0129 -0.1288 -0.0968
  468SOL    HW1 1403   0.534   2.336   1.717 -0.4266 -0.0168 -0.5389
  468SOL    HW2 1404   0.401   2.332   1.599 -3.9897 -0.3412 -0.7952
  469SOL     OW 1405   1.486   1.403   1.183  1.1018 -0.5008  0.1476
  469SOL    HW1 1406   1.546   1.316   1.173  0.8242  1.9013  1.7650
  469SOL    HW2 1407   1.523   1.476   1.247 -0.2813  2.7983 -1.8011
  470SOL     OW 1408   3.014   1.680   0.745  0.1491 -0.2097  0.8051
  470SOL    HW1 1409   3.104   1.719   0.738 -1.0877  0.7833  2.3028
  470SOL    HW2 1410   2.972   1.688   0.839 -1.4291 -0.5029  0.0389
  471SOL     OW 1411   2.705   1.313   2.115 -0.2970  0.0455  0.4689
  471SOL    HW1 1412   2.699   1.284   2.213 -1.4747  0.4010  0.5044
  471SOL    HW2 1413   2.756   1.402   2.107 -1.1162 -2.1683  1.1053
  472SOL     OW 1414   1.140   2.475   3.081 -0.3546  0.1051 -0.1655
  472SOL    HW1 1415   1.149   2.477   3.185 -0.9998 -1.9229 -1.3452
  472SOL    HW2 1416   1.145   2.374   3.057 -1.7932  1.2041  0.4062
  473SOL     OW 1417   1.121   1.552   1.021  0.2794 -0.1007 -0.1589
  473SOL    HW1 1418   1.027   1.524   0.980  0.7597 -0.7153  2.0579
  473SOL    HW2 1419   1.154   1.497   1.100  1.2031 -0.4592 -0.8789
  474SOL     OW 1420   0.692   1.304   0.542  0.2298  0.1253  0.2959
  474SOL    HW1 1421   0.726   1.293   0.444 -0.5227 -0.6129  0.2218
  474SOL    HW2 1422   0.710   1.220   0.598  0.6496  2.2585  0.2287
  475SOL     OW 1423   2.844   0.083   0.790  0.3096 -0.1090  0.1346
  475SOL    HW1 1424   2.924   0.124   0.838 -2.2162  0.5504 -2.6042
  475SOL    HW2 1425   2.758   0.123   0.827  2.9842  0.3550 -0.3538
  476SOL     OW 1426   0.961   3.019   1.833 -0.7629 -0.1854  0.4728
  476SOL    HW1 1427   1.036   2.945   1.847 -1.5142  0.7524  0.7170
  476SOL    HW2 1428   0.948   3.046   1.733  2.4034 -0.2452  1.7715
  477SOL     OW 1429   1.460   0.328   2.476  0.1511 -0.1891 -0.0138
  477SOL    HW1 1430   1.429   0.339   2.576  0.5978  3.0115 -1.6575
  477SOL    HW2 1431   1.548   0.280   2.453  2.0644  0.1614 -2.6969
  478SOL     OW 1432   2.205   1.852   0.227  0.5135  0.0718  0.5734
  478SOL    HW1 1433   2.133   1.776   0.230  2.6930  1.8915  3.4163
  478SOL    HW2 1434   2.288   1.826   0.280  0.6077  1.0910  0.9930
  479SOL     OW 1435   1.273   1.064   2.924 -0.3627  0.4287  0.0679
  479SOL    HW1 1436   1.345   1.053   2.854 -1.5792 -3.2353 -1.8792
  479SOL    HW2 1437   1.185   1.027   2.890  3.4667  0.8906 -0.1453
  480SOL     OW 1438   2.567   2.342   0.405  0.2601 -0.0200 -0.3751
  480SOL    HW1 1439   2.562   2.238   0.419 -0.6847 -1.2550  2.5089
  480SOL    HW2 1440   2.497   2.384   0.341 -1.4011  0.2750  0.5973
  481SOL     OW 1441   1.000   1.122   0.878  0.3134  0.0350 -0.3567
  481SOL    HW1 1442   0.980   1.210   0.831 -0.1884 -0.6383  3.4726
  481SOL    HW2 1443   1.014   1.135   0.981 -0.2965 -1.3512 -1.2537
  482SOL     OW 1444   1.551   0.277   2.055  0.2183  0.0228  0.2363
  482SOL    HW1 1445   1.552   0.377   2.024  0.5880  3.4574 -1.6198
  482SOL    HW2 1446   1.646   0.235   2.055 -1.8822 -0.6085  0.5067
  483SOL     OW 1447   0.119   2.331   1.289  0.6672 -0.4596 -0.2067
  483SOL    HW1 1448   0.035   2.332   1.353  0.4908 -1.9669  1.4974
  483SOL    HW2 1449   0.123   2.412   1.225 -1.0745  0.6200  0.5463
  484SOL     OW 1450   1.747   1.063   1.360  0.0925 -0.3804  0.1828
  484SOL    HW1 1451   1.814   0.983   1.362  1.6559  2.9490  0.1947
  484SOL    HW2 1452   1.713   1.095   1.453 -1.8724  0.0434 -1.6892
  485SOL     OW 1453   0.684   1.042   1.817 -0.9001 -0.1557 -0.1829
  485SOL    HW1 1454   0.710   1.025   1.717  2.0172 -0.7965  0.8538
  485SOL    HW2 1455   0.768   1.064   1.870  1.3370 -0.0541 -0.0959
  486SOL     OW 1456   0.828   1.941   2.455  0.4399  0.6124 -0.0000
  486SOL    HW1 1457   0.894   1.898   2.521 -2.2668 -2.2160 -0.1183
  486SOL    HW2 1458   0.796   2.041   2.472 -2.7131  1.0381 -4.3371
  487SOL     OW 1459   1.863   1.654   0.944  0.4522 -0.6858 -0.2807
  487SOL    HW1 1460   1.889   1.553   0.962 -2.1924  0.4677 -0.1069
  487SOL    HW2 1461   1.877   1.694   0.848  1.7055  2.2373 -2.0698
  488SOL     OW 1462   2.967   0.862   2.244 -0.5998 -0.1315  0.2785
  488SOL    HW1 1463   2.989   0.772   2.198  1.5980  1.1056 -1.0878
  488SOL    HW2 1464   2.997   0.858   2.345  1.7839  1.9386  0.0230
  489SOL     OW 1465   2.761   0.228   1.294 -0.0474 -0.2610  0.4353
  489SOL    HW1 1466   2.731   0.231   1.394 -1.8951 -3.1020  1.0854
  489SOL    HW2 1467   2.861   0.220   1.279 -4.6584 -0.9247 -0.8792
  490SOL     OW 1468   1.467   2.967   2.808 -0.5555 -0.4131  0.7323
  490SOL    HW1 1469   1.515   2.876   2.798 -3.3598  0.0007  1.8371
  490SOL    HW2 1470   1.431   3.000   2.719 -0.4735 -0.5518  0.9191
  491SOL     OW 1471   1.791   1.444   2.620  0.5189  0.1069  0.0328
  491SOL    HW1 1472   1.726   1.464   2.697  1.3149  0.5640 -0.3108
  491SOL    HW2 1473   1.890   1.478   2.639  3.1333  0.4315 -1.4616
  492SOL     OW 1474   0.515   1.989   0.680  0.1039 -0.4667  0.2583
  492SOL    HW1 1475   0.572   1.979   0.768 -0.6955  1.1438 -1.9136
  492SOL    HW2 1476   0.436   2.054   0.684 -0.5115 -1.8950  1.9336
  493SOL     OW 1477   0.392   1.408   2.031  0.1482 -0.0650  0.0502
  493SOL    HW1 1478   0.300   1.453   2.005 -2.7251  0.4615  0.6506
  493SOL    HW2 1479   0.392   1.358   2.120  2.3317 -0.1597  0.6622
  494SOL     OW 1480   2.732   2.684   0.145 -0.1851  0.3110  0.1346
  494SOL    HW1 1481   2.701   2.655   0.236  0.5559  0.1493 -0.2944
  494SOL    HW2 1482   2.664   2.665   0.072 -1.6716 -4.2871 -1.1498
  495SOL     OW 1483   2.735   2.703   2.745 -0.0996 -0.2900 -0.1527
  495SOL    HW1 1484   2.685   2.613   2.743  0.4070  0.9968 -1.3138
  495SOL    HW2 1485   2.763   2.733   2.645  2.7696 -0.6032  1.0267
  496SOL     OW 1486   2.069   2.259   0.702 -0.6718 -0.1937 -0.0195
  496SOL    HW1 1487   2.065   2.284   0.803  0.2812  2.0235  0.1786
  496SOL    HW2 1488   2.125   2.179   0.678  1.5030  0.7150 -0.8939
  497SOL     OW 1489   0.254   2.973   2.432 -0.1243  0.0295  0.1983
  497SOL    HW1 1490   0.215   3.049   2.490  0.0786  0.3509  2.1159
  497SOL    HW2 1491   0.306   3.000   2.346 -1.2817 -0.1975 -0.3422
  498SOL     OW 1492   1.221   1.395   1.221 -0.4985  0.8177 -0.4361
  498SOL    HW1 1493   1.325   1.400   1.199  1.3888 -3.5092  0.1441
  498SOL    HW2 1494   1.198   1.449   1.310  1.0009 -2.2634  1.6974
  499SOL     OW 1495   0.685   1.846   0.424  0.1440  0.3575 -0.1087
  499SOL    HW1 1496   0.716   1.776   0.496  0.1799 -0.1581  2.7466
  499SOL    HW2 1497   0.670   1.938   0.466 -0.2065 -1.3372  0.2917
  500SOL     OW 1498   1.421   2.846   1.690  0.5627  0.0775  0.2991
  500SOL    HW1 1499   1.366   2.774   1.732  3.2049  2.5283 -1.6209
  500SOL    HW2 1500   1.506   2.801   1.647  0.4724  4.1248 -1.5922
  501SOL     OW 1501   0.813   1.130   2.310  0.3717 -0.1787 -0.7073
  501SOL    HW1 1502   0.729   1.070   2.286 -0.2368 -1.4138  0.9688
  501SOL    HW2 1503   0.872   1.150   2.231 -1.4403  1.0311  1.7771
  502SOL     OW 1504   2.584   0.958   1.735  0.2768 -0.2226  0.0209
  502SOL    HW1 1505   2.592   0.992   1.634  3.0685 -1.0798 -0.4958
  502SOL    HW2 1506   2.564   0.858   1.745 -1.0025 -0.4477  0.0771
  503SOL     OW 1507   1.312   0.096   0.673 -0.2578  0.0142 -0.0782
  503SOL    HW1 1508   1.268   0.188   0.666 -1.2438 -1.0976 -3.3925
  503SOL    HW2 1509   1.414   0.100   0.664 -2.6057 -2.8464 -2.2309
  504SOL     OW 1510   3.006   2.323   1.473 -0.0193  0.3765  0.3933
  504SOL    HW1 1511   2.923   2.368   1.509 -0.3350  1.6148  0.9858
  504SOL    HW2 1512   3.085   2.296   1.537  0.1115 -1.1661 -1.0748
  505SOL     OW 1513   2.306   1.154   1.451 -0.2176  0.3760  0.3829
  505SOL    HW1 1514   2.306   1.179   1.349  1.5124 -3.1166  4.7827
  505SOL    HW2 1515   2.384   1.209   1.495  1.5314  0.2528 -0.2539
  506SOL     OW 1516   1.971   0.153   1.823 -0.3484  0.0605 -0.2365
  506SOL    HW1 1517   2.061   0.105   1.848 -2.9344  2.3285 -1.8766
  506SOL    HW2 1518   1.950   0.238   1.880  0.1932 -1.1780 -2.6512
  507SOL     OW 1519   0.526   0.696   2.143 -0.5682  0.2265 -0.4797
  507SOL    HW1 1520   0.454   0.665   2.082  0.1087  3.1919  3.9355
  507SOL    HW2 1521   0.602   0.632   2.164 -0.4448 -0.5469  0.3198
  508SOL     OW 1522   0.284   1.644   0.814 -0.6343  0.0253  0.7268
  508SOL    HW1 1523   0.356   1.690   0.755 -0.8262  0.9239 -1.4801
  508SOL    HW2 1524   0.271   1.678   0.911  2.7251 -1.2071  1.8717
  509SOL     OW 1525   1.218   1.262   2.350 -0.4278 -0.3820 -0.1304
  509SOL    HW1 1526   1.204   1.279   2.251  1.0366  0.5150 -0.1076
  509SOL    HW2 1527   1.155   1.180   2.379  4.5548  1.0328 -0.9638
  510SOL     OW 1528   1.272   1.998   2.140 -0.0953 -0.1495 -0.5083
  510SOL    HW1 1529   1.255   2.094   2.116 -0.5746 -2.1524  0.1345
  510SOL    HW2 1530   1.186   1.954   2.179  0.3901 -0.2801 -1.8643
  511SOL     OW 1531   3.049   2.762   1.322 -0.0087 -0.0964 -0.3427
  511SOL    HW1 1532   3.032   2.806   1.225  0.8828  2.1894 -0.1832
  511SOL    HW2 1533   2.956   2.756   1.378 -3.7547 -1.8077 -0.9679
  512SOL     OW 1534   2.408   0.423   1.379 -0.0046  0.9618 -0.3892
  512SOL    HW1 1535   2.307   0.404   1.356 -2.6387 -0.8540  1.0953
  512SOL    HW2 1536   2.477   0.397   1.298  1.9679  0.7074 -1.3672
  513SOL     OW 1537   2.546   2.040   0.855 -0.5697 -0.1529 -0.1568
  513SOL    HW1 1538   2.485   2.103   0.800  0.7944 -0.0197  0.7063
  513SOL    HW2 1539   2.633   2.028   0.798  1.9870  1.6764 -2.5263
  514SOL     OW 1540   0.610   2.740   0.448 -0.2600 -0.0374  0.7429
  514SOL    HW1 1541   0.575   2.794   0.366  0.7840 -0.8720 -0.0776
  514SOL    HW2 1542   0.692   2.782   0.492  0.0168  2.3203 -0.5750
  515SOL     OW 1543   1.979   1.177   2.353  0.3140 -0.4347  0.4338
  515SOL    HW1 1544   1.998   1.181   2.252 -3.0917 -1.7586 -3.0171
  515SOL    HW2 1545   1.889   1.141   2.389 -1.4424 -1.4568 -2.2395
  516SOL     OW 1546   0.232   0.293   1.871  0.2738  0.5273  0.4234
  516SOL    HW1 1547   0.318   0.256   1.827 -1.9983  0.7642 -0.6042
  516SOL    HW2 1548   0.158   0.218   1.891 -1.4358 -1.9188  2.0970
  517SOL     OW 1549   0.432   0.016   1.165  0.4836  0.0611  0.6065
  517SOL    HW1 1550   0.449   0.119   1.179 -2.1389 -0.2482 -0.1030
  517SOL    HW2 1551   0.332  -0.011   1.165 -0.1540  2.1269 -0.3088
  518SOL     OW 1552   2.197   3.071   1.823  1.2873  0.4514 -0.3893
  518SOL    HW1 1553   2.267   3.146   1.839  2.9269 -0.6215  1.3999
  518SOL    HW2 1554   2.209   3.020   1.732 -1.7654  0.8272  1.3696
  519SOL     OW 1555   2.331   2.169   2.553 -0.0082  0.7524  0.5237
  519SOL    HW1 1556   2.283   2.146   2.640  1.5055 -0.9195  0.3292
  519SOL    HW2 1557   2.339   2.269   2.540  2.5229 -0.8209  1.2254
  520SOL     OW 1558   1.822   2.772   1.790 -0.3999  0.1568 -0.2326
  520SOL    HW1 1559   1.734   2.762   1.847  0.9767  0.5634  1.4210
  520SOL    HW2 1560   1.872   2.684   1.771  0.1243  3.3377  1.7505
  521SOL     OW 1561   0.570   3.076   2.078 -0.2072  0.1677  0.9888
  521SOL    HW1 1562   0.478   3.044   2.115  1.8115 -0.7186  0.8897
  521SOL    HW2 1563   0.644   3.059   2.149  3.7705  0.5726 -1.0019
  522SOL     OW 1564   0.214   1.887   1.469 -0.8839  0.4927  0.0424
  522SOL    HW1 1565   0.271   1.951   1.528  0.0221  1.6474 -0.5359
  522SOL    HW2 1566   0.173   1.929   1.382  2.3464 -0.9993 -0.8152
  523SOL     OW 1567   2.251   2.994   1.573 -0.0842  0.2703 -0.1241
  523SOL    HW1 1568   2.323   2.923   1.575 -1.9548  1.4179 -0.3233
  523SOL    HW2 1569   2.174   2.970   1.515 -0.2174  0.7114  0.8802
  524SOL     OW 1570   0.170   2.792   2.823 -0.5467 -0.0744  0.5495
  524SOL    HW1 1571   0.136   2.887   2.812  1.4553 -0.4761 -1.3843
  524SOL    HW2 1572   0.268   2.793   2.846 -3.2402  1.7744  1.2290
  525SOL     OW 1573   2.159   2.036   0.427  0.1586 -0.3098  0.3990
  525SOL    HW1 1574   2.159   1.981   0.515 -3.7475  0.9661 -0.4697
  525SOL    HW2 1575   2.178   1.982   0.338 -1.2319 -2.1803  0.1860
  526SOL     OW 1576   0.449   1.553   1.649 -0.0956  0.0406 -0.3767
  526SOL    HW1 1577   0.496   1.588   1.731  2.1183  0.3269 -0.1158
  526SOL    HW2 1578   0.481   1.458   1.619  0.2892 -0.4980  2.2619
  527SOL     OW 1579   1.036   2.917   1.223  0.3273  0.3677 -0.2612
  527SOL    HW1 1580   1.123   2.864   1.246  0.6386  0.8371 -0.1113
  527SOL    HW2 1581   1.056   3.022   1.225  0.3315  2.1985  0.2049
  528SOL     OW 1582   1.352   2.427   0.533 -0.1787  0.3668  0.6346
  528SOL    HW1 1583   1.360   2.335   0.581 -1.2689  0.6640  1.9765
  528SOL    HW2 1584   1.423   2.493   0.565  2.2714 -0.2918  0.7726
  529SOL     OW 1585   1.960   1.734   0.678 -0.6311 -0.3453 -0.3856
  529SOL    HW1 1586   1.877   1.737   0.614 -1.5540 -2.1436  0.7290
  529SOL    HW2 1587   1.955   1.817   0.738 -2.0083  1.4302 -0.3267
  530SOL     OW 1588   0.329   2.612   0.264 -0.5174  0.1885  0.3293
  530SOL    HW1 1589   0.339   2.704   0.315 -1.5818  0.4328  1.6353
  530SOL    HW2 1590   0.321   2.533   0.325  1.4583  1.1965 -0.2649
  531SOL     OW 1591   1.852   0.976   0.945  0.0933  0.1365 -0.4232
  531SOL    HW1 1592   1.894   1.040   0.876 -0.0230  0.8249 -0.3657
  531SOL    HW2 1593   1.747   0.967   0.921 -2.0816  1.9396 -0.1971
  532SOL     OW 1594   0.394   1.196   0.711  0.6217 -0.1190 -0.3757
  532SOL    HW1 1595   0.421   1.195   0.613 -1.4035 -2.0649  1.4632
  532SOL    HW2 1596   0.390   1.102   0.741 -0.1842  1.6440 -0.3377
  533SOL     OW 1597   1.740   0.026   2.599  0.0586 -0.2806  0.0619
  533SOL    HW1 1598   1.840   0.007   2.633  1.7437 -1.1141  1.0730
  533SOL    HW2 1599   1.702   0.120   2.631  2.1097  2.3291  1.4606
  534SOL     OW 1600   0.381   0.201   1.623  0.4545  0.7156 -0.2867
  534SOL    HW1 1601   0.449   0.187   1.549 -1.3527  0.3202  0.0838
  534SOL    HW2 1602   0.342   0.293   1.629  0.2888 -0.7305  0.4766
  535SOL     OW 1603   1.944   0.369   0.178  0.6902  0.1307 -0.6359
  535SOL    HW1 1604   1.944   0.453   0.239 -1.9906 -0.1988  0.7226
  535SOL    HW2 1605   1.918   0.278   0.229 -2.9182 -2.9522 -0.7932
  536SOL     OW 1606   1.405   2.548   0.945  0.1423  0.1383 -0.3585
  536SOL    HW1 1607   1.399   2.516   1.045  0.8001 -0.4583  1.0202
  536SOL    HW2 1608   1.331   2.615   0.920 -0.5798  1.0674 -1.5013
  537SOL     OW 1609   0.819   0.212   2.356 -0.7044  0.5138  0.4226
  537SOL    HW1 1610   0.785   0.231   2.262  1.1974  2.0900  1.4005
  537SOL    HW2 1611   0.785   0.118   2.384 -0.0189  1.2629 -0.8817
  538SOL     OW 1612   1.672   2.357   1.529 -0.3415  0.3397  0.2969
  538SOL    HW1 1613   1.651   2.259   1.500  1.2776 -0.0436  1.0973
  538SOL    HW2 1614   1.743   2.390   1.458 -1.5895  0.3209 -0.5917
  539SOL     OW 1615   0.217   1.602   2.734 -0.0926  0.1305  0.1419
  539SOL    HW1 1616   0.152   1.624   2.657  1.4093  1.8771  0.6576
  539SOL    HW2 1617   0.190   1.643   2.824 -0.0395  1.0606  0.3850
  540SOL     OW 1618   2.708   1.668   1.920 -0.4357  0.4457 -0.7164
  540SOL    HW1 1619   2.730   1.608   1.999 -0.1688  2.0179 -0.4340
  540SOL    HW2 1620   2.641   1.737   1.960  3.1517  1.0645  0.3290
  541SOL     OW 1621   0.474   2.235   0.006  0.8032 -0.7142  0.2485
  541SOL    HW1 1622   0.481   2.217   0.110 -1.6448 -0.2889  0.4925
  541SOL    HW2 1623   0.373   2.216  -0.020 -2.3648 -2.1494 -0.5823
  542SOL     OW 1624   2.270   2.574   0.439 -0.3067  0.5405  0.3216
  542SOL    HW1 1625   2.242   2.675   0.438 -1.0023  0.6140 -1.6849
  542SOL    HW2 1626   2.186   2.509   0.431  1.6243 -3.2172  2.8814
  543SOL     OW 1627   1.069   1.836   1.567  0.4700  0.0519 -0.4360
  543SOL    HW1 1628   1.012   1.859   1.649 -1.4730  1.1578 -1.8117
  543SOL    HW2 1629   1.032   1.883   1.477  0.6445  0.5641 -3.4020
  544SOL     OW 1630   1.001   0.407   0.178 -0.5475  1.2176 -0.3270
  544SOL    HW1 1631   1.046   0.326   0.226 -1.0104 -1.6503 -1.4539
  544SOL    HW2 1632   0.953   0.387   0.089 -0.6417 -2.0769 -1.6229
  545SOL     OW 1633   1.126   1.756   0.793  0.1678 -0.8479  0.3126
  545SOL    HW1 1634   1.223   1.775   0.775 -2.7114 -0.9262  0.2766
  545SOL    HW2 1635   1.114   1.684   0.864 -0.8430 -2.2651 -2.5966
  546SOL     OW 1636   2.675   1.490   3.068 -0.1517 -0.1248 -0.8791
  546SOL    HW1 1637   2.625   1.575   3.032 -0.1504 -0.9462  0.9796
  546SOL    HW2 1638   2.613   1.447   3.135 -1.1101  0.2356 -3.5657
  547SOL     OW 1639   0.602   3.053   2.656  0.0992 -0.5014 -0.1973
  547SOL    HW1 1640   0.694   3.015   2.649 -3.1558  1.5976 -1.5951
  547SOL    HW2 1641   0.538   2.989   2.703 -0.1152 -2.4393 -1.8006
  548SOL     OW 1642   2.104   0.879   2.996  0.4373  0.0741 -0.1988
  548SOL    HW1 1643   2.000   0.845   2.985 -3.0506  0.0987 -2.0242
  548SOL    HW2 1644   2.106   0.980   3.023  0.4732 -0.4062  1.4922
  549SOL     OW 1645   0.692   0.504   0.218  0.2590 -0.1142  0.4394
  549SOL    HW1 1646   0.642   0.534   0.132 -1.5036  2.6072  1.6041
  549SOL    HW2 1647   0.764   0.563   0.247 -3.6213 -1.6451 -1.0391
  550SOL     OW 1648   2.536   2.825   2.876  0.6074 -0.0714 -0.1477
  550SOL    HW1 1649   2.496   2.771   2.955  2.3269 -1.1417 -0.5794
  550SOL    HW2 1650   2.611   2.778   2.813  2.7273 -1.9474 -0.1822
  551SOL     OW 1651   0.256   0.898   0.217 -0.3229 -0.2474 -0.4777
  551SOL    HW1 1652   0.348   0.850   0.229 -2.0243 -1.7545  2.0338
  551SOL    HW2 1653   0.213   0.905   0.314 -2.1482 -2.4822 -0.3436
  552SOL     OW 1654   0.712   2.967   1.881  0.1402 -0.4989  0.4214
  552SOL    HW1 1655   0.670   3.015   1.964  1.7786 -0.7316 -2.9504
  552SOL    HW2 1656   0.815   2.968   1.882 -0.8599  0.0767  0.4851
  553SOL     OW 1657   2.982   2.528   0.348 -0.2303 -0.0223  0.2900
  553SOL    HW1 1658   2.934   2.433   0.346  2.2221  1.5105  1.5816
  553SOL    HW2 1659   2.938   2.592   0.414  0.6704 -1.4415 -0.0405
  554SOL     OW 1660   2.165   0.371   0.572  0.2479  0.1140 -0.4796
  554SOL    HW1 1661   2.202   0.398   0.474  0.1516  0.6586 -1.9273
  554SOL    HW2 1662   2.236   0.342   0.641  1.0202  1.3928 -0.1843
  555SOL     OW 1663   0.376   2.741   2.516  0.3499 -0.3598  0.0126
  555SOL    HW1 1664   0.317   2.824   2.494  1.0643 -3.8705  1.4908
  555SOL    HW2 1665   0.416   2.695   2.431  1.5460 -0.8268 -0.7787
  556SOL     OW 1666   0.827   2.406   1.496  0.5524  0.2869  0.1430
  556SOL    HW1 1667   0.885   2.479   1.539 -1.7315  0.6925 -2.9590
  556SOL    HW2 1668   0.887   2.358   1.426  3.2145 -0.3469  0.7164
  557SOL     OW 1669   0.068   2.072   0.198  0.4151  0.8791  0.5486
  557SOL    HW1 1670   0.029   1.975   0.185  0.3512  0.2897 -1.6185
  557SOL    HW2 1671   0.090   2.115   0.106 -1.1997 -0.3538 -1.0834
  558SOL     OW 1672   2.846   2.277   0.308 -1.2679  0.0107  0.3107
  558SOL    HW1 1673   2.744   2.267   0.295 -1.4483  1.2767 -0.0255
  558SOL    HW2 1674   2.901   2.189   0.297  0.9776  0.4371  0.7784
  559SOL     OW 1675   0.378   2.291   1.386 -0.2524 -0.1391 -0.0424
  559SOL    HW1 1676   0.288   2.264   1.338  1.8989 -1.6085 -0.7488
  559SOL    HW2 1677   0.444   2.214   1.370 -1.3011  0.0411 -1.0353
  560SOL     OW 1678   2.092   1.131   3.054 -0.0528  0.4198 -0.1215
  560SOL    HW1 1679   2.084   1.159   3.152  2.4312 -0.9217  0.8637
  560SOL    HW2 1680   2.147   1.194   2.992  0.6986  0.0141 -1.0367
  561SOL     OW 1681   3.075   1.856   0.022 -0.1865 -0.2631  0.1120
  561SOL    HW1 1682   3.028   1.812   0.106  1.3107 -0.8949  0.0541
  561SOL    HW2 1683   3.021   1.939  -0.019  1.3557  0.7513  0.4685
  562SOL     OW 1684   0.983   2.240   2.326 -0.3768 -0.7773  0.2891
  562SOL    HW1 1685   0.892   2.244   2.382 -1.3386  0.6642 -0.5607
  562SOL    HW2 1686   1.029   2.330   2.342  2.5098  3.4008 -2.0003
  563SOL     OW 1687   0.720   2.578   2.618  0.4199 -0.0244 -0.0280
  563SOL    HW1 1688   0.806   2.521   2.624 -0.9332 -1.5558  1.0146
  563SOL    HW2 1689   0.677   2.603   2.710 -1.1699  1.0348  1.5996
  564SOL     OW 1690   2.860   1.329   2.901  0.0294  0.0565 -0.3388
  564SOL    HW1 1691   2.789   1.367   2.967 -1.7388  2.3195 -0.0866
  564SOL    HW2 1692   2.907   1.409   2.854  0.5904  0.8277  2.4634
  565SOL     OW 1693   2.533   1.999   2.637 -0.1259  0.9304 -0.0360
  565SOL    HW1 1694   2.476   2.079   2.608  1.0297 -1.6290  0.2295
  565SOL    HW2 1695   2.615   2.033   2.690 -1.3947  0.7551  0.2807
  566SOL     OW 1696   2.076   2.827   1.400  0.2132  0.3897  0.6814
  566SOL    HW1 1697   2.012   2.742   1.392  0.1139  0.0442  1.1893
  566SOL    HW2 1698   2.045   2.898   1.335 -0.2344 -0.1176  1.5059
  567SOL     OW 1699   2.417   3.094   2.359 -0.5175 -0.0913 -0.1693
  567SOL    HW1 1700   2.318   3.069   2.351 -2.0214 -0.9549  2.7625
  567SOL    HW2 1701   2.471   3.091   2.269  0.3101 -2.2755  1.5470
  568SOL     OW 1702   1.507   1.760   0.244 -0.0486 -0.6670 -0.3935
  568SOL    HW1 1703   1.435   1.834   0.231  2.2362  0.3740 -2.9430
  568SOL    HW2 1704   1.600   1.802   0.268 -0.1315  1.6100 -0.3825
  569SOL     OW 1705   0.282   0.647   0.829  0.5318 -0.3279  0.6907
  569SOL    HW1 1706   0.336   0.563   0.789  1.5567 -2.0937 -0.1630
  569SOL    HW2 1707   0.186   0.616   0.856 -0.3463 -3.6193  1.0040
  570SOL     OW 1708   0.607   0.878   2.920  0.1509 -0.3900  0.0614
  570SOL    HW1 1709   0.633   0.938   2.835  0.1064 -1.5365  0.5592
  570SOL    HW2 1710   0.600   0.930   3.013 -2.2711  0.1601 -0.1321
  571SOL     OW 1711   0.790   0.007   1.014  0.3553 -0.4295  0.1102
  571SOL    HW1 1712   0.861   0.043   0.952  0.0174 -3.5110  1.2653
  571SOL    HW2 1713   0.735  -0.062   0.963  1.1359 -3.7765  0.6822
  572SOL     OW 1714   1.613   2.589   1.321  0.2149  0.2659  0.1514
  572SOL    HW1 1715   1.526   2.542   1.295 -1.0341 -0.1162 -0.2404
  572SOL    HW2 1716   1.609   2.695   1.301 -1.5512  2.2159 -0.0506
  573SOL     OW 1717   2.881   0.523   2.012  0.5202 -0.1211 -0.1802
  573SOL    HW1 1718   2.807   0.452   2.005 -0.5727 -0.9477 -0.8704
  573SOL    HW2 1719   2.929   0.536   1.918  1.6912 -2.2169  3.1945
  574SOL     OW 1720   0.165   1.741   1.074 -0.1173  0.3877  0.3500
  574SOL    HW1 1721   0.161   1.832   1.028  0.8225 -1.7256  1.2546
  574SOL    HW2 1722   0.081   1.707   1.119  1.3072  0.1403  0.9073
  575SOL     OW 1723   0.860   2.153   0.916 -0.4538  0.0954  0.0423
  575SOL    HW1 1724   0.822   2.185   1.004 -0.9117 -0.2964 -1.3511
  575SOL    HW2 1725   0.896   2.228   0.854 -0.8186  2.7119  0.7591
  576SOL     OW 1726   2.899   3.027   1.706 -0.8028 -0.2023 -0.7130
  576SOL    HW1 1727   2.806   2.986   1.684 -1.6121 -0.3639 -1.7683
  576SOL    HW2 1728   2.915   3.128   1.684  1.2665 -0.6099  1.7459
  577SOL     OW 1729   2.470   1.238   0.008  0.2010 -0.7256 -0.1331
  577SOL    HW1 1730   2.466   1.170  -0.070 -0.7163 -0.5467 -1.3861
  577SOL    HW2 1731   2.546   1.225   0.078  1.8241  1.8431  1.9603
  578SOL     OW 1732   1.400   2.726   2.425  0.5661 -0.5626  0.1830
  578SOL    HW1 1733   1.305   2.774   2.436  0.0403 -0.3704 -0.8675
  578SOL    HW2 1734   1.474   2.798   2.432  2.1376  0.9716 -0.9144
  579SOL     OW 1735   0.068   2.502   0.153 -0.2390 -0.1610  0.1343
  579SOL    HW1 1736   0.018   2.518   0.245 -0.8059 -0.0997  0.8167
  579SOL    HW2 1737   0.169   2.492   0.161 -1.0201 -0.6023  1.6262
  580SOL     OW 1738   0.987   2.691   0.388 -0.2253 -0.1427 -0.2026
  580SOL    HW1 1739   1.078   2.689   0.332 -1.1707  1.8871  2.2877
  580SOL    HW2 1740   0.914   2.639   0.338 -1.7367 -0.5265 -3.0198
  581SOL     OW 1741   1.240   2.659   1.461 -0.0574  0.3746  0.0744
  581SOL    HW1 1742   1.265   2.562   1.492 -1.2620 -1.0049  1.7040
  581SOL    HW2 1743   1.301   2.709   1.389  1.7567  0.6893 -0.0704
  582SOL     OW 1744   1.510   0.070   1.849  0.0370 -0.5265  0.0529
  582SOL    HW1 1745   1.530   0.131   1.930 -0.4635  0.6755 -1.2886
  582SOL    HW2 1746   1.593   0.053   1.790  0.2542  1.8885  1.0999
  583SOL     OW 1747   2.460   3.063   0.559  0.0279  0.3794 -0.1391
  583SOL    HW1 1748   2.520   3.008   0.494 -2.2973  0.4281  0.4627
  583SOL    HW2 1749   2.376   3.001   0.583  0.2731 -3.5041  0.5345
  584SOL     OW 1750   1.555   1.015   2.139 -0.3708  1.0735  0.0740
  584SOL    HW1 1751   1.599   1.090   2.088 -0.8368  2.9551  2.0167
  584SOL    HW2 1752   1.627   0.969   2.204  2.5283  1.5003  0.6409
  585SOL     OW 1753   2.144   2.672   2.932  0.0897  0.1292  0.3725
  585SOL    HW1 1754   2.149   2.576   2.883  1.8585 -0.3061 -1.7222
  585SOL    HW2 1755   2.048   2.704   2.942  0.4538 -2.5790 -2.4058
  586SOL     OW 1756   2.826   0.373   1.600  0.0688 -0.0076  0.8356
  586SOL    HW1 1757   2.813   0.464   1.640 -0.2022 -2.3305 -1.5022
  586SOL    HW2 1758   2.736   0.331   1.581 -1.9156  2.3671 -1.0746
  587SOL     OW 1759   2.062   1.561   2.617  0.8288 -0.1578 -0.1464
  587SOL    HW1 1760   2.091   1.469   2.577 -2.0690  2.4106 -0.7426
  587SOL    HW2 1761   2.073   1.557   2.720 -1.0969  2.0388 -0.2343
  588SOL     OW 1762   0.471   2.678   2.256 -0.4258 -0.4283 -0.1019
  588SOL    HW1 1763   0.389   2.675   2.195  0.6941 -1.6357 -0.1540
  588SOL    HW2 1764   0.495   2.587   2.302  0.3635 -0.6620 -1.4620
  589SOL     OW 1765   2.159   1.348   2.487 -0.2914 -0.0821 -0.3853
  589SOL    HW1 1766   2.108   1.268   2.444 -1.0410 -0.7260  0.0595
  589SOL    HW2 1767   2.260   1.338   2.467 -1.6950 -0.9725  0.7470
  590SOL     OW 1768   2.351   1.679   2.043 -0.0712  0.1219 -0.5321
  590SOL    HW1 1769   2.406   1.587   2.040  2.1478  1.3507  2.8184
  590SOL    HW2 1770   2.370   1.724   2.137  0.4348 -1.1963 -0.2037
  591SOL     OW 1771   1.302   2.396   0.240 -0.2389  0.8803 -0.5504
  591SOL    HW1 1772   1.328   2.317   0.178  0.1812  4.6266 -0.8344
  591SOL    HW2 1773   1.307   2.376   0.341 -3.5692 -1.6137 -0.2542
  592SOL     OW 1774   1.788   2.272   0.749  0.3228  0.0359 -0.3616
  592SOL    HW1 1775   1.745   2.277   0.658 -1.5157  0.7128  1.1028
  592SOL    HW2 1776   1.893   2.264   0.742  1.3957 -1.6152 -1.9797
  593SOL     OW 1777   0.697   0.235   0.243 -0.1166 -0.4876  0.2354
  593SOL    HW1 1778   0.758   0.219   0.159 -0.8145 -1.0994 -1.2600
  593SOL    HW2 1779   0.677   0.339   0.245 -0.0331  2.4210  0.8977
  594SOL     OW 1780   1.007   1.862   2.677  0.6368 -0.4431 -0.1991
  594SOL    HW1 1781   1.096   1.802   2.680  2.8901 -3.1487 -0.4358
  594SOL    HW2 1782   1.004   1.939   2.745  2.9214 -0.0942  1.2995
  595SOL     OW 1783   1.532   0.007   1.081 -0.5597 -0.0321 -0.0731
  595SOL    HW1 1784   1.603  -0.046   1.027  1.8959  1.2447 -1.2166
  595SOL    HW2 1785   1.437   0.004   1.034  1.1269 -0.5862 -2.2784
  596SOL     OW 1786   0.024   1.450   2.243  0.0433  0.2542  0.1311
  596SOL    HW1 1787   0.008   1.350   2.243  3.0923  0.0855  1.6774
  596SOL    HW2 1788   0.083   1.487   2.318  3.9256  0.4181 -2.0074
  597SOL     OW 1789   1.948   2.549   1.715 -0.3573 -0.3267  0.1718
  597SOL    HW1 1790   1.959   2.506   1.619 -4.3713  0.8929 -1.7313
  597SOL    HW2 1791   2.033   2.545   1.773 -1.0558  2.7559  1.1653
  598SOL     OW 1792   2.548   2.954   1.197 -0.0237  0.1482  0.5555
  598SOL    HW1 1793   2.597   2.983   1.284  0.2311  1.0684 -0.3359
  598SOL    HW2 1794   2.604   2.952   1.106 -0.4799 -1.0531 -0.5790
  599SOL     OW 1795   2.890   0.318   2.502 -0.4151  0.0581 -0.0453
  599SOL    HW1 1796   2.986   0.359   2.486  0.5768  1.8017  0.6662
  599SOL    HW2 1797   2.820   0.379   2.456 -3.2948 -1.2357  2.5822
  600SOL     OW 1798   2.813   1.088   2.747 -0.7166  1.0024 -0.0436
  600SOL    HW1 1799   2.784   0.993   2.777 -1.6985  0.4277  0.5352
  600SOL    HW2 1800   2.810   1.163   2.819 -0.4178 -0.9933  0.2496
  601SOL     OW 1801   2.984   1.333   1.974  0.6146 -0.0915  0.1739
  601SOL    HW1 1802   2.930   1.360   1.888 -0.5933 -1.8996 -2.2707
  601SOL    HW2 1803   3.064   1.401   1.998 -1.0865  1.5593  1.8363
  602SOL     OW 1804   1.423   1.735   2.318 -0.8606  0.2347 -0.4685
  602SOL    HW1 1805   1.348   1.665   2.321  0.8075  0.8110  0.4143
  602SOL    HW2 1806   1.515   1.694   2.329  0.0165  1.1463  0.3040
  603SOL     OW 1807   0.591   1.232   2.761 -0.0579 -0.1405 -0.0495
  603SOL    HW1 1808   0.501   1.206   2.716  2.4129 -1.1851 -2.3278
  603SOL    HW2 1809   0.673   1.175   2.725 -1.0496 -1.1606  1.7435
  604SOL     OW 1810   2.369   0.991   0.158  0.0259  0.0725  0.0404
  604SOL    HW1 1811   2.423   1.077   0.120  1.1073  2.0673  1.0912
  604SOL    HW2 1812   2.382   0.905   0.098  0.1220 -1.7066 -0.3933
  605SOL     OW 1813   2.542   1.161   1.954 -0.2344 -0.3401 -0.5385
  605SOL    HW1 1814   2.577   1.078   1.904  0.2171  1.5047  0.6720
  605SOL    HW2 1815   2.610   1.192   2.022  0.1367  1.0274  0.7651
  606SOL     OW 1816   1.530   2.532   2.555 -0.1670 -0.3560  0.0634
  606SOL    HW1 1817   1.455   2.589   2.515  1.1181  0.9859  1.8006
  606SOL    HW2 1818   1.503   2.431   2.565  1.6023 -0.2034  4.1508
  607SOL     OW 1819   1.315   1.594   0.347  0.2853  0.3382 -0.2204
  607SOL    HW1 1820   1.246   1.661   0.391 -0.1024  0.3923  2.9998
  607SOL    HW2 1821   1.401   1.646   0.311 -0.1963 -2.1909  0.4761
  608SOL     OW 1822   1.416   2.820   0.389  0.5366 -0.3417  0.2431
  608SOL    HW1 1823   1.489   2.857   0.321 -0.8842  0.1983  0.1368
  608SOL    HW2 1824   1.346   2.898   0.407  0.9234  0.3772  0.8812
  609SOL     OW 1825   1.272   1.338   0.234 -0.0335  0.0607  0.9531
  609SOL    HW1 1826   1.284   1.429   0.278  2.4827 -3.4921 -0.8989
  609SOL    HW2 1827   1.251   1.343   0.130  1.4087 -2.5529  0.3182
  610SOL     OW 1828   2.962   1.169   2.247 -0.3942 -0.0851 -0.0586
  610SOL    HW1 1829   2.969   1.066   2.253 -2.6157  0.4759  1.1025
  610SOL    HW2 1830   2.922   1.204   2.157  0.8731  0.2822  0.6825
  611SOL     OW 1831   2.529   0.280   1.170  0.4576 -0.2293 -0.2779
  611SOL    HW1 1832   2.463   0.202   1.153 -0.2028  0.8052 -1.3447
  611SOL    HW2 1833   2.622   0.251   1.208  0.0171 -0.3235  1.8120
  612SOL     OW 1834   0.765   2.267   1.169  0.1678 -0.0978 -0.2552
  612SOL    HW1 1835   0.726   2.212   1.251 -1.0542  1.9202  3.4840
  612SOL    HW2 1836   0.732   2.362   1.161  0.1458 -1.6504 -0.9014
  613SOL     OW 1837   0.845   1.406   2.435 -0.3406 -0.1078 -0.7081
  613SOL    HW1 1838   0.812   1.470   2.361  0.9864 -1.0177  0.1447
  613SOL    HW2 1839   0.832   1.305   2.409 -2.9008  1.8563 -0.5865
  614SOL     OW 1840   1.563   1.691   1.961 -0.2532  0.8197  0.0256
  614SOL    HW1 1841   1.498   1.774   1.955  0.7287  2.9543  0.8340
  614SOL    HW2 1842   1.660   1.721   1.991  0.1870  1.5131 -0.3312
  615SOL     OW 1843   0.801   1.341   1.700  0.2554  0.0809 -0.0088
  615SOL    HW1 1844   0.718   1.364   1.648  3.4553 -1.7952  1.5188
  615SOL    HW2 1845   0.880   1.398   1.661 -0.3365 -0.9262  0.7863
  616SOL     OW 1846   1.025   1.595   2.150  0.8322 -0.0904  0.0297
  616SOL    HW1 1847   0.923   1.561   2.167 -1.7340 -0.9533 -0.8380
  616SOL    HW2 1848   1.034   1.640   2.056  0.7708  0.4336 -1.5680
  617SOL     OW 1849   2.968   1.557   1.608 -0.2806  0.0892 -0.7136
  617SOL    HW1 1850   2.911   1.494   1.672 -0.2746  0.6895  1.4014
  617SOL    HW2 1851   3.001   1.509   1.525  0.5853  0.2253 -2.8371
  618SOL     OW 1852   1.886   1.986   1.470 -0.3973 -0.0726 -1.0212
  618SOL    HW1 1853   1.943   1.972   1.380 -2.5268  0.9908 -3.4136
  618SOL    HW2 1854   1.828   1.902   1.496  0.8749  0.9353 -0.2252
  619SOL     OW 1855   1.762   0.501   2.401 -0.1270  0.2306  0.5436
  619SOL    HW1 1856   1.687   0.542   2.341 -0.5801  3.2919  0.6919
  619SOL    HW2 1857   1.750   0.402   2.428  2.0151  0.0673  0.4481
  620SOL     OW 1858   2.222   2.978   0.666 -0.3683  0.1523  0.0529
  620SOL    HW1 1859   2.180   3.065   0.705  0.5905 -3.1049  0.9663
  620SOL    HW2 1860   2.231   2.898   0.733  2.1184 -3.6178  1.0167
  621SOL     OW 1861   2.134   1.868   1.322 -0.5961 -0.2322  0.1598
  621SOL    HW1 1862   2.146   1.864   1.426 -1.8202 -0.4372 -2.3108
  621SOL    HW2 1863   2.112   1.767   1.288 -1.0529 -2.1582 -0.6629
  622SOL     OW 1864   2.245   0.906   1.799  0.2274 -0.7216 -0.1844
  622SOL    HW1 1865   2.341   0.886   1.766 -0.4397  1.5497  1.8053
  622SOL    HW2 1866   2.215   0.824   1.854 -0.2025  0.3500 -1.0642
  623SOL     OW 1867   1.362   0.807   2.652  0.5862 -0.1622 -0.3185
  623SOL    HW1 1868   1.297   0.754   2.712  1.2644  0.6872 -2.4057
  623SOL    HW2 1869   1.318   0.869   2.583 -0.6333  0.4701 -0.3246
  624SOL     OW 1870   0.592   0.639   3.094 -0.0890 -0.0292 -0.7540
  624SOL    HW1 1871   0.596   0.685   3.004  1.0864  0.4558 -2.3512
  624SOL    HW2 1872   0.570   0.711   3.170  1.1824 -1.0501  1.3270
  625SOL     OW 1873   2.871   1.751   0.959 -0.6576 -0.0996 -0.4887
  625SOL    HW1 1874   2.773   1.740   0.989 -0.2935  0.1292  1.9213
  625SOL    HW2 1875   2.921   1.824   1.019  1.7412 -1.7943  1.8388
  626SOL     OW 1876   0.609   2.702   1.846  0.2223 -0.2863  0.2506
  626SOL    HW1 1877   0.650   2.790   1.883  0.3621 -0.6900  1.7993
  626SOL    HW2 1878   0.505   2.708   1.836 -1.3470 -1.4085 -0.1606
  627SOL     OW 1879   0.725   0.992   1.509  0.5121 -0.2017 -0.1845
  627SOL    HW1 1880   0.746   0.898   1.471 -2.0583 -2.8948  1.5267
  627SOL    HW2 1881   0.790   1.070   1.480 -0.9421  2.0904 -2.1705
  628SOL     OW 1882   2.391   0.182   0.729 -0.0691 -0.3463  0.0009
  628SOL    HW1 1883   2.403   0.086   0.691  1.6310 -1.2543  1.4219
  628SOL    HW2 1884   2.304   0.183   0.785  2.8677  2.7207 -2.2148
  629SOL     OW 1885   1.959   0.901   1.979 -0.5356  0.2130  0.2161
  629SOL    HW1 1886   2.056   0.896   1.944  1.8641 -3.1686  2.3978
  629SOL    HW2 1887   1.943   1.000   2.008 -0.6614 -0.0394 -1.7280
  630SOL     OW 1888   2.857   2.211   0.856  0.1014 -0.0826 -0.2157
  630SOL    HW1 1889   2.777   2.278   0.853 -0.6625  0.6290 -1.5026
  630SOL    HW2 1890   2.834   2.107   0.840 -1.6843  0.5033 -2.4307
  631SOL     OW 1891   2.946   0.139   2.099 -0.1650 -0.2343 -0.2909
  631SOL    HW1 1892   2.984   0.197   2.169 -0.9355 -0.2639 -0.1423
  631SOL    HW2 1893   3.019   0.122   2.025  1.0701 -1.2111  1.7491
  632SOL     OW 1894   2.437   2.513   0.671 -0.3462 -0.0324  0.5382
  632SOL    HW1 1895   2.489   2.585   0.724 -1.9789 -2.6168  0.4155
  632SOL    HW2 1896   2.413   2.549   0.579  1.9901 -0.5047  0.7780
  633SOL     OW 1897   1.459   1.248   2.514  0.7667  0.1107 -0.0854
  633SOL    HW1 1898   1.458   1.330   2.576  1.9501 -1.0067  0.1430
  633SOL    HW2 1899   1.382   1.253   2.444  3.0960 -0.5710 -0.0710
  634SOL     OW 1900   0.688   1.947   0.937 -0.3949  0.0243 -0.1411
  634SOL    HW1 1901   0.597   1.969   0.984  0.8564  0.7644  0.2326
  634SOL    HW2 1902   0.755   2.027   0.924  1.6799 -0.3111  0.7377
  635SOL     OW 1903   3.086   2.318   3.062  0.3421  0.2765 -0.3562
  635SOL    HW1 1904   3.021   2.358   2.991  2.2498 -1.2144  0.4556
  635SOL    HW2 1905   3.115   2.389   3.130 -3.3075 -1.4076  0.3260
  636SOL     OW 1906   2.277   2.714   2.098  0.3040  0.0309 -0.5252
  636SOL    HW1 1907   2.250   2.813   2.092  0.6601 -3.3540  1.2253
  636SOL    HW2 1908   2.249   2.680   2.193 -0.3399  0.7865  1.8973
  637SOL     OW 1909   2.614   0.720   2.028 -0.5661  0.0365 -0.4272
  637SOL    HW1 1910   2.568   0.728   1.940 -0.5843  0.3127  3.3816
  637SOL    HW2 1911   2.669   0.802   2.058 -1.9518  1.3199 -0.1150
  638SOL     OW 1912   2.397   1.799   1.236 -0.1290  0.3905  0.3542
  638SOL    HW1 1913   2.303   1.833   1.259  1.4983  1.1073 -1.7500
  638SOL    HW2 1914   2.443   1.754   1.320  1.6614  1.2648  2.2803
  639SOL     OW 1915   1.303   2.181   1.709  0.4429 -0.1205 -0.1796
  639SOL    HW1 1916   1.340   2.104   1.654  0.3084  1.9996 -0.9485
  639SOL    HW2 1917   1.198   2.175   1.725 -0.0572 -3.1126 -2.3554
  640SOL     OW 1918   0.212   1.156   1.572  0.3966 -0.1340 -0.6910
  640SOL    HW1 1919   0.181   1.204   1.662  1.5667 -1.5135  0.0432
  640SOL    HW2 1920   0.313   1.125   1.572  1.1771  1.1846 -0.2372
  641SOL     OW 1921   2.029   0.150   1.524  0.3436 -0.3798  0.3957
  641SOL    HW1 1922   2.006   0.159   1.624 -2.1795  0.0134  1.2803
  641SOL    HW2 1923   2.132   0.153   1.510  0.4957 -2.1544  0.6159
  642SOL     OW 1924   1.946   0.132   0.292 -0.0782 -0.0930 -0.0695
  642SOL    HW1 1925   2.046   0.136   0.329  2.8466  1.9208  0.0123
  642SOL    HW2 1926   1.876   0.106   0.365 -2.1730  1.5686  2.4859
  643SOL     OW 1927   2.899   1.871   2.057 -0.2051 -0.4269  0.5293
  643SOL    HW1 1928   2.849   1.786   2.026 -3.0623  1.7977 -0.9791
  643SOL    HW2 1929   2.898   1.950   1.986 -0.6871  2.5668  0.2854
  644SOL     OW 1930   2.271   2.386   1.215 -0.2080 -0.2561 -0.0477
  644SOL    HW1 1931   2.320   2.299   1.195  0.3869  0.7141 -0.2633
  644SOL    HW2 1932   2.228   2.371   1.303  0.4846 -2.0297 -2.0087
  645SOL     OW 1933   0.641   0.866   1.275  0.3066  0.6963  0.3115
  645SOL    HW1 1934   0.539   0.854   1.281 -1.1267 -2.5006  0.1472
  645SOL    HW2 1935   0.669   0.872   1.177 -1.3403 -2.9386  0.5418
  646SOL     OW 1936   1.407   1.923   1.922  0.6824 -0.0448 -0.7377
  646SOL    HW1 1937   1.485   1.985   1.895  0.5272 -1.7932 -0.0487
  646SOL    HW2 1938   1.353   1.959   2.006 -0.6845 -0.2338 -1.2196
  647SOL     OW 1939   0.812   1.076   0.663  0.2782 -0.1724 -0.5431
  647SOL    HW1 1940   0.886   1.083   0.735 -1.3626  1.0891  0.0635
  647SOL    HW2 1941   0.769   0.984   0.651 -0.2063  3.8134 -2.0339
  648SOL     OW 1942   0.114   0.182   0.220  0.1799  0.0843  0.2085
  648SOL    HW1 1943   0.143   0.119   0.141 -3.2941  1.2558 -0.2297
  648SOL    HW2 1944   0.118   0.279   0.195  1.4288  0.7636  1.2748
  649SOL     OW 1945   3.046   0.222   0.883  0.2517  0.2426 -0.3394
  649SOL    HW1 1946   3.130   0.160   0.888 -3.4967 -2.6106  2.3257
  649SOL    HW2 1947   3.073   0.321   0.892 -0.0252 -0.3516  3.1744
  650SOL     OW 1948   2.722   0.662   1.424 -0.6949 -0.2296  0.2130
  650SOL    HW1 1949   2.626   0.630   1.440 -1.3635 -2.7331 -0.0037
  650SOL    HW2 1950   2.726   0.755   1.378  1.7533 -1.5815 -0.4691
  651SOL     OW 1951   0.936   1.567   1.586  0.3588  0.3065 -0.0124
  651SOL    HW1 1952   0.900   1.652   1.623 -1.6626 -2.5189 -0.4590
  651SOL    HW2 1953   1.004   1.574   1.506 -0.1750 -1.1176 -2.9831
  652SOL     OW 1954   2.296   2.450   2.513 -0.4570 -0.2399  0.6000
  652SOL    HW1 1955   2.250   2.459   2.605 -2.0770 -3.2657  0.1000
  652SOL    HW2 1956   2.263   2.524   2.444 -2.3211  2.8557 -0.9973
  653SOL     OW 1957   2.691   1.196   0.179  0.0285 -0.4202 -0.0107
  653SOL    HW1 1958   2.741   1.285   0.178 -1.4322 -0.6126 -1.2919
  653SOL    HW2 1959   2.753   1.116   0.187 -3.0249  0.1895  1.1683
  654SOL     OW 1960   1.296   2.254   1.261  0.2079  0.2685 -0.0538
  654SOL    HW1 1961   1.301   2.187   1.341 -0.5511  0.3107  0.3382
  654SOL    HW2 1962   1.327   2.218   1.172  0.4239 -1.8079 -0.8727
  655SOL     OW 1963   0.178   0.955   1.870  0.5040  0.4456 -0.2945
  655SOL    HW1 1964   0.217   0.879   1.810  1.5142 -0.5088 -1.3451
  655SOL    HW2 1965   0.258   1.019   1.890  2.3092  0.0185 -2.5987
  656SOL     OW 1966   2.549   2.498   2.618  0.5826  0.0600  0.1183
  656SOL    HW1 1967   2.622   2.517   2.548 -1.1876  1.9881 -0.0320
  656SOL    HW2 1968   2.455   2.485   2.563 -5.1834  0.7699  0.7079
  657SOL     OW 1969   3.026   1.051   1.940  0.5168  0.1836  0.1081
  657SOL    HW1 1970   3.009   1.142   1.983  0.5254 -0.1570 -0.9437
  657SOL    HW2 1971   3.121   1.034   1.897  2.5213 -0.5479 -0.9616
  658SOL     OW 1972   1.723   0.225   2.410  0.2290  0.2508 -0.0708
  658SOL    HW1 1973   1.742   0.136   2.459  1.0446 -0.2656  1.0097
  658SOL    HW2 1974   1.732   0.218   2.309 -1.2180 -0.8608  0.4817
  659SOL     OW 1975   1.461   0.647   2.943  0.0985  0.1822  0.0500
  659SOL    HW1 1976   1.521   0.728   2.958 -0.8631  1.3062  0.7866
  659SOL    HW2 1977   1.370   0.680   2.902 -0.0501  1.3876 -3.1104
  660SOL     OW 1978   1.396   0.361   1.456 -0.0898 -0.3912 -0.0593
  660SOL    HW1 1979   1.432   0.388   1.556  2.0151  2.6127  1.4733
  660SOL    HW2 1980   1.445   0.279   1.417 -0.3399 -0.9798  0.0903
  661SOL     OW 1981   2.499   1.190   0.654  0.3195 -0.0281  0.1139
  661SOL    HW1 1982   2.510   1.166   0.553  2.7435  1.6703 -1.5321
  661SOL    HW2 1983   2.449   1.277   0.668  3.1001 -1.8360  0.4084
  662SOL     OW 1984   1.374   0.450   1.833 -0.3961 -0.2827  0.5924
  662SOL    HW1 1985   1.350   0.349   1.816 -2.0215 -1.3119  1.3110
  662SOL    HW2 1986   1.320   0.492   1.910  1.1352  0.4998  2.1783
  663SOL     OW 1987   0.758   1.546   2.204 -0.0871  0.1709 -0.6439
  663SOL    HW1 1988   0.742   1.646   2.238 -0.3738 -0.7434 -1.7555
  663SOL    HW2 1989   0.733   1.529   2.108 -2.5164  1.8375  5.3173
  664SOL     OW 1990   1.640   2.087   1.485 -0.0443 -0.0444  0.3977
  664SOL    HW1 1991   1.570   2.020   1.512  2.7032 -0.2216  2.3617
  664SOL    HW2 1992   1.735   2.057   1.509  0.9585  1.0002  1.2400
  665SOL     OW 1993   2.270   0.654   1.953 -0.1999 -0.4232  0.3267
  665SOL    HW1 1994   2.231   0.564   1.989 -0.0083  1.0771  1.6555
  665SOL    HW2 1995   2.301   0.720   2.031 -2.5956  1.6234  2.3032
  666SOL     OW 1996   0.372   2.350   0.397  0.5218 -0.2256  0.6815
  666SOL    HW1 1997   0.436   2.393   0.470 -0.5143  0.6237  1.6281
  666SOL    HW2 1998   0.286   2.309   0.437 -2.2252  1.2768  3.3775
  667SOL     OW 1999   1.981   0.142   1.173 -0.0146  0.0658  0.0799
  667SOL    HW1 2000   2.011   0.239   1.177 -2.2428 -1.4969  0.5868
  667SOL    HW2 2001   1.918   0.108   1.246 -0.6820  1.4781  0.7898
  668SOL     OW 2002   2.002   0.504   1.183 -0.4781 -0.1119  0.4595
  668SOL    HW1 2003   2.062   0.564   1.122 -1.9172 -0.7681 -0.4958
  668SOL    HW2 2004   2.057   0.459   1.265 -1.0055 -1.0129  2.0286
  669SOL     OW 2005   3.066   2.211   1.005 -0.2518  0.3974 -0.5192
  669SOL    HW1 2006   2.991   2.207   0.938  1.6618  2.4866  3.4560
  669SOL    HW2 2007   3.025   2.255   1.088  0.0026  0.8920 -4.1896
  670SOL     OW 2008   2.851   2.334   1.938  0.0399  0.4682 -0.2248
  670SOL    HW1 2009   2.805   2.319   2.031 -0.6943 -0.2165  0.8229
  670SOL    HW2 2010   2.850   2.432   1.912  2.3882 -2.5374  1.9957
  671SOL     OW 2011   1.774   1.757   1.471 -0.4990  0.2209 -0.8739
  671SOL    HW1 2012   1.797   1.797   1.375  4.8080 -0.4486 -0.1095
  671SOL    HW2 2013   1.712   1.679   1.468  3.7359 -2.0864 -2.3278
  672SOL     OW 2014   0.385   0.619   2.372 -0.3729 -0.0582 -0.6514
  672SOL    HW1 2015   0.443   0.650   2.295 -0.1415  3.0382  1.2291
  672SOL    HW2 2016   0.302   0.678   2.384  1.8217 -1.4613  0.1813
  673SOL     OW 2017   0.123   1.173   1.170  0.8289 -0.0170  0.5165
  673SOL    HW1 2018   0.151   1.231   1.257 -0.5918  1.3795 -0.1160
  673SOL    HW2 2019   0.204   1.141   1.113  1.3635  1.6051 -1.0213
  674SOL     OW 2020   1.609   2.926   0.228 -0.2354 -0.1641  0.1935
  674SOL    HW1 2021   1.630   3.021   0.197 -0.9160  0.0091 -2.9153
  674SOL    HW2 2022   1.661   2.851   0.181 -1.0283  1.9831 -1.0772
  675SOL     OW 2023   1.683   0.822   2.312 -0.6760  0.2027 -0.0402
  675SOL    HW1 2024   1.777   0.790   2.284 -2.6863 -1.9055 -0.6135
  675SOL    HW2 2025   1.623   0.743   2.301 -1.3049 -0.2566 -0.2737
  676SOL     OW 2026   2.482   1.445   2.012 -0.1008  0.1898  0.3131
  676SOL    HW1 2027   2.490   1.432   1.909 -0.2119  1.0276 -2.1020
  676SOL    HW2 2028   2.543   1.380   2.068 -1.1594  1.7576 -0.2981
  677SOL     OW 2029   1.954   0.709   0.849  0.6509 -0.3294 -0.9155
  677SOL    HW1 2030   1.995   0.726   0.942 -1.3566 -0.8244 -3.0829
  677SOL    HW2 2031   1.991   0.624   0.804 -3.2200 -0.3547  0.4710
  678SOL     OW 2032   0.029   0.770   1.693  0.5292 -0.2633 -0.2128
  678SOL    HW1 2033   0.129   0.754   1.724  3.4997 -1.4784  0.4216
  678SOL    HW2 2034  -0.040   0.766   1.773  3.2758  1.6037  0.5119
  679SOL     OW 2035   2.604   1.189   1.106 -0.3990 -0.5576  0.3460
  679SOL    HW1 2036   2.502   1.192   1.135 -0.2433 -0.1231  0.0536
  679SOL    HW2 2037   2.644   1.100   1.073 -0.1738  0.4578 -1.3674
  680SOL     OW 2038   2.784   0.628   1.719 -0.0827 -0.0508 -0.0107
  680SOL    HW1 2039   2.775   0.654   1.620 -0.8434 -3.4191 -1.0833
  680SOL    HW2 2040   2.840   0.696   1.778 -1.3741  2.4270  0.3871
  681SOL     OW 2041   3.018   0.183   1.657 -0.3211 -0.3818 -0.3701
  681SOL    HW1 2042   3.096   0.184   1.587  1.2355 -2.2717  1.7683
  681SOL    HW2 2043   2.944   0.251   1.631 -5.7456 -0.3235 -1.2466
  682SOL     OW 2044   0.711   0.029   1.280 -0.4794  0.2327 -0.2100
  682SOL    HW1 2045   0.667  -0.040   1.341 -2.5510 -0.8022  0.5711
  682SOL    HW2 2046   0.745  -0.008   1.191  0.8362 -2.5774 -1.6616
  683SOL     OW 2047   1.335   0.196   2.203 -0.1906  0.5937 -0.2454
  683SOL    HW1 2048   1.282   0.275   2.246 -0.1131  1.0529 -0.1366
  683SOL    HW2 2049   1.420   0.220   2.150 -1.6044  0.0465  1.1964
  684SOL     OW 2050   1.467   2.120   0.554  0.2401  0.2276  0.3663
  684SOL    HW1 2051   1.536   2.051   0.586  0.2715 -0.0532 -0.4075
  684SOL    HW2 2052   1.387   2.077   0.503 -0.4147 -0.5441 -0.1974
  685SOL     OW 2053   2.161   1.998   1.962  0.5818  0.4940 -0.8261
  685SOL    HW1 2054   2.224   1.980   1.887 -2.4735 -0.3752  1.0102
  685SOL    HW2 2055   2.190   1.967   2.057 -1.0557  0.0029  1.2253
  686SOL     OW 2056   1.511   1.800   2.762  0.1449  0.1066  0.1014
  686SOL    HW1 2057   1.553   1.750   2.843 -0.4059  4.1222  2.2643
  686SOL    HW2 2058   1.557   1.797   2.669  1.1734 -1.5126  0.7751
  687SOL     OW 2059   1.265   2.489   1.981 -0.0307 -0.0729 -0.3028
  687SOL    HW1 2060   1.253   2.385   1.980 -1.7080  0.7141 -2.8784
  687SOL    HW2 2061   1.362   2.506   2.011  1.5122  2.4458  0.7367
  688SOL     OW 2062   2.072   1.590   1.751 -0.5003 -0.3416  0.1834
  688SOL    HW1 2063   2.175   1.589   1.780  1.4522  0.4225 -2.2961
  688SOL    HW2 2064   2.062   1.570   1.651  0.9953  0.0498 -0.5356
  689SOL     OW 2065   2.466   1.064   2.656  0.2626  0.3858  0.1592
  689SOL    HW1 2066   2.360   1.066   2.667  0.5792 -2.6582 -1.0474
  689SOL    HW2 2067   2.526   1.080   2.734 -0.1757 -0.6670 -0.0467
  690SOL     OW 2068   2.258   2.807   0.047  0.8551  0.0315  0.2692
  690SOL    HW1 2069   2.195   2.760  -0.020 -0.5026 -3.5521  2.8926
  690SOL    HW2 2070   2.216   2.811   0.144 -2.0331  0.0948  1.3186
  691SOL     OW 2071   2.584   0.493   2.167 -0.2206 -0.0700 -1.4920
  691SOL    HW1 2072   2.605   0.411   2.115 -1.6980  2.0073 -3.7795
  691SOL    HW2 2073   2.610   0.580   2.116  0.0288  1.4714  0.5559
  692SOL     OW 2074   2.764   1.216   0.712 -0.1032 -0.4935 -0.0926
  692SOL    HW1 2075   2.665   1.215   0.679  1.0149  0.6891  0.3447
  692SOL    HW2 2076   2.792   1.309   0.749  0.5624  0.6601  2.5904
  693SOL     OW 2077   2.782   2.957   0.663 -0.2868  0.1887 -0.0671
  693SOL    HW1 2078   2.799   3.052   0.710 -0.2100 -0.2063  1.0518
  693SOL    HW2 2079   2.730   2.969   0.575  1.1116 -2.1282 -0.8198
  694SOL     OW 2080   2.387   2.210   0.081  0.8160  0.3010  0.0635
  694SOL    HW1 2081   2.355   2.298   0.127 -2.2757  1.7390  1.1139
  694SOL    HW2 2082   2.310   2.147   0.048  0.0937 -0.4992  0.2760
  695SOL     OW 2083   0.598   2.951   1.492  0.2742  0.2396  0.2381
  695SOL    HW1 2084   0.549   2.874   1.446 -2.2789  0.5727 -1.3393
  695SOL    HW2 2085   0.542   2.991   1.567  0.2396  1.1620 -0.8074
  696SOL     OW 2086   2.839   1.937   0.767  0.1921  0.4669 -0.5992
  696SOL    HW1 2087   2.855   1.856   0.828 -3.8361 -0.1821 -2.8237
  696SOL    HW2 2088   2.892   1.934   0.677 -1.3976 -1.4047 -0.7543
  697SOL     OW 2089   1.636   2.081   1.814  0.4920 -0.0085  0.2294
  697SOL    HW1 2090   1.714   2.037   1.866 -2.9831  0.9244 -2.1682
  697SOL    HW2 2091   1.668   2.176   1.782  0.5786  1.3625 -1.0081
  698SOL     OW 2092   2.954   0.409   2.764  0.4069 -0.9413  0.0412
  698SOL    HW1 2093   2.911   0.371   2.676  3.8095  0.9668 -0.2422
  698SOL    HW2 2094   3.012   0.344   2.822  0.9497 -0.4873  0.7724
  699SOL     OW 2095   1.564   0.095   2.937  0.2926 -0.1292  0.5693
  699SOL    HW1 2096   1.518   0.013   2.889 -2.4112 -2.2740  0.1302
  699SOL    HW2 2097   1.613   0.145   2.862 -1.2869  0.0597  1.0724
  700SOL     OW 2098   1.016   2.307   1.311 -0.4123  0.1999 -0.3010
  700SOL    HW1 2099   1.113   2.272   1.306  1.8241  1.9614  2.0397
  700SOL    HW2 2100   0.949   2.253   1.256  1.2770  0.0969  1.7706
  701SOL     OW 2101   1.939   2.846   3.079 -0.1446 -0.2896 -0.0742
  701SOL    HW1 2102   1.918   2.793   3.168  0.8241 -0.8946 -2.3336
  701SOL    HW2 2103   1.980   2.941   3.095 -0.9625  0.2083 -2.8429
  702SOL     OW 2104   2.038   1.337   1.925 -0.0765 -0.0672 -0.0788
  702SOL    HW1 2105   2.133   1.285   1.914  1.3337 -0.7648  2.8528
  702SOL    HW2 2106   2.001   1.377   1.840 -0.0287 -1.7779 -0.4878
  703SOL     OW 2107   1.953   0.890   1.414 -0.0199 -0.1025 -0.3307
  703SOL    HW1 2108   1.939   0.795   1.453  1.0830  1.2721 -1.3461
  703SOL    HW2 2109   2.011   0.951   1.481 -1.1610 -0.7206  0.6490
  704SOL     OW 2110   0.349   2.036   1.690 -0.1306 -0.0855 -0.2752
  704SOL    HW1 2111   0.371   1.966   1.770 -0.9188  1.3161  0.7196
  704SOL    HW2 2112   0.406   2.124   1.679 -1.2984  2.2431 -1.4713
  705SOL     OW 2113   2.493   1.395   0.967  0.4516 -0.8264 -0.1044
  705SOL    HW1 2114   2.471   1.395   0.866  1.6188  1.6859 -1.0002
  705SOL    HW2 2115   2.564   1.326   1.000 -1.6562  1.6799  0.1638
  706SOL     OW 2116   0.665   1.704   1.831 -0.4927  0.7467  0.0034
  706SOL    HW1 2117   0.678   1.607   1.864  1.7648 -0.4610  0.0575
  706SOL    HW2 2118   0.708   1.767   1.903  1.0017 -0.5801 -0.2484
  707SOL     OW 2119   2.268   1.177   1.873 -0.3501 -0.3615  0.0040
  707SOL    HW1 2120   2.360   1.177   1.921 -3.1931  0.4737 -1.0994
  707SOL    HW2 2121   2.253   1.089   1.822 -0.4878 -0.6715  0.1065
  708SOL     OW 2122   2.981   0.543   3.040 -0.1496 -0.3340 -0.5360
  708SOL    HW1 2123   3.042   0.601   2.977  1.5226  2.0606 -0.8339
  708SOL    HW2 2124   3.005   0.445   3.040 -1.5687 -5.0990  2.3316
  709SOL     OW 2125   1.784   1.847   0.204 -0.5198  0.3243  0.4733
  709SOL    HW1 2126   1.841   1.936   0.219  1.2198 -1.7453 -0.4655
  709SOL    HW2 2127   1.765   1.825   0.105  1.2861 -1.2397  0.2436
  710SOL     OW 2128   1.706   1.623   2.412 -0.2858 -0.2956 -0.0952
  710SOL    HW1 2129   1.740   1.601   2.314 -1.9717  2.8699  0.7811
  710SOL    HW2 2130   1.715   1.549   2.485  1.1783  1.9059  0.8789
  711SOL     OW 2131   2.692   2.972   0.975  0.4737 -0.2936 -0.2730
  711SOL    HW1 2132   2.675   3.070   0.939 -0.0759 -0.2366 -1.2544
  711SOL    HW2 2133   2.795   2.953   0.967  1.7413 -1.1292 -1.8527
  712SOL     OW 2134   1.352   2.240   1.980  0.2896  0.2784  0.3471
  712SOL    HW1 2135   1.440   2.279   2.021 -0.3162  0.4771 -0.1028
  712SOL    HW2 2136   1.356   2.218   1.875 -0.7366  2.1386  0.3554
  713SOL     OW 2137   2.939   1.449   2.586 -0.0640  0.5008  0.0525
  713SOL    HW1 2138   2.879   1.365   2.563 -1.3195 -0.5773 -2.4619
  713SOL    HW2 2139   2.935   1.487   2.684 -1.3986  1.5894  2.4804
  714SOL     OW 2140   2.677   0.519   2.433 -0.2822 -0.5258 -0.7030
  714SOL    HW1 2141   2.622   0.466   2.503 -0.5011  1.7419 -1.8258
  714SOL    HW2 2142   2.639   0.509   2.338 -0.2318 -1.1036  1.5712
  715SOL     OW 2143   1.595   2.041   1.206 -0.0629  0.1106  0.2378
  715SOL    HW1 2144   1.522   2.079   1.144  1.1587 -2.5347 -0.4866
  715SOL    HW2 2145   1.611   2.100   1.292 -1.9158  2.2712 -1.0309
  716SOL     OW 2146   1.192   0.149   1.471 -0.3314  0.6223  0.4845
  716SOL    HW1 2147   1.091   0.177   1.472  0.7141  2.7040  2.1349
  716SOL    HW2 2148   1.258   0.228   1.461 -1.5099  0.9073  1.4451
  717SOL     OW 2149   1.109   0.563   1.606 -0.5169  0.4477  0.5305
  717SOL    HW1 2150   1.209   0.594   1.623  1.5991 -0.1328 -1.4042
  717SOL    HW2 2151   1.103   0.543   1.502  2.4469  0.1627  0.9501
  718SOL     OW 2152   0.718   0.923   0.952  0.0213  0.2856 -0.7988
  718SOL    HW1 2153   0.690   0.896   0.853 -0.5812 -1.0717 -0.9805
  718SOL    HW2 2154   0.675   1.016   0.972  1.4601  0.4788  1.9679
  719SOL     OW 2155   0.684   1.794   2.294  0.0032  0.0673 -0.9646
  719SOL    HW1 2156   0.737   1.859   2.359 -0.7895 -0.7369  1.6528
  719SOL    HW2 2157   0.592   1.767   2.327 -0.0262  1.6642  2.0959
  720SOL     OW 2158   2.186   1.159   0.255 -0.4563 -0.1018 -0.3003
  720SOL    HW1 2159   2.235   1.078   0.211  0.2272  0.4923 -0.2653
  720SOL    HW2 2160   2.189   1.153   0.362 -0.0569 -0.2021 -0.7463
  721SOL     OW 2161   2.279   2.997   2.122  0.3501 -0.0258 -0.7632
  721SOL    HW1 2162   2.257   3.041   2.032 -1.3352 -0.7677 -0.6913
  721SOL    HW2 2163   2.215   3.035   2.192 -0.5090  0.4107  1.4606
  722SOL     OW 2164   2.371   1.614   0.532 -0.5573  0.2691  1.5053
  722SOL    HW1 2165   2.391   1.600   0.432 -0.6826 -0.3749  1.5781
  722SOL    HW2 2166   2.293   1.678   0.549 -2.9361  1.2825  1.2118
  723SOL     OW 2167   2.515   2.724   1.984  0.3671 -0.3562  0.4694
  723SOL    HW1 2168   2.589   2.778   2.033 -1.0982  0.1800 -0.5034
  723SOL    HW2 2169   2.424   2.725   2.033 -1.6198 -0.3092 -1.1279
  724SOL     OW 2170   0.536   2.461   2.428 -0.3504  0.1804  0.0835
  724SOL    HW1 2171   0.447   2.429   2.455  2.8789 -0.3714 -0.3893
  724SOL    HW2 2172   0.587   2.503   2.504 -1.0712 -2.4497 -0.0032
  725SOL     OW 2173   2.428   2.803   1.510  0.0733 -0.0095  0.1233
  725SOL    HW1 2174   2.421   2.812   1.409  0.2916 -2.2161  0.6823
  725SOL    HW2 2175   2.418   2.701   1.540 -0.3374 -1.9326  3.3802
  726SOL     OW 2176   2.442   2.241   0.699 -0.4402  0.1506 -0.2411
  726SOL    HW1 2177   2.415   2.346   0.683 -2.6249 -0.6830 -1.7428
  726SOL    HW2 2178   2.462   2.196   0.609 -0.3815  0.0937 -1.8605
  727SOL     OW 2179   0.137   3.078   0.039  0.2373 -0.4828  0.1586
  727SOL    HW1 2180   0.187   2.989   0.059 -0.4914  0.0053 -0.0659
  727SOL    HW2 2181   0.101   3.094  -0.060 -0.6242 -0.7072  0.0992
  728SOL     OW 2182   2.864   0.683   0.972 -0.4295  0.0095 -0.2882
  728SOL    HW1 2183   2.780   0.660   0.924  2.0844 -0.6281 -0.0522
  728SOL    HW2 2184   2.875   0.623   1.056  2.2328  1.6716  1.8219
  729SOL     OW 2185   3.014   2.485   0.758 -0.4817  0.5214 -0.1603
  729SOL    HW1 2186   2.994   2.417   0.827 -4.4461 -0.7269  1.7757
  729SOL    HW2 2187   3.116   2.486   0.731  2.3763  0.1992  0.3549
  730SOL     OW 2188   2.635   0.664   0.833 -0.0902 -0.0968 -0.1380
  730SOL    HW1 2189   2.554   0.726   0.808 -1.9774 -2.5347  0.7599
  730SOL    HW2 2190   2.699   0.629   0.757  0.9274  1.7861  5.1939
  731SOL     OW 2191   0.136   2.172   2.435  0.0864 -0.0762 -0.1027
  731SOL    HW1 2192   0.159   2.188   2.533 -0.9421  1.3635 -1.8300
  731SOL    HW2 2193   0.105   2.264   2.396  1.4733  0.5829  0.1472
  732SOL     OW 2194   1.139   2.851   1.946 -0.2977  0.0770 -0.2441
  732SOL    HW1 2195   1.165   2.810   2.037 -2.0981 -0.0293  0.3183
  732SOL    HW2 2196   1.161   2.785   1.870 -1.1263 -3.2327 -0.6894
  733SOL     OW 2197   3.037   0.560   2.243  0.3207 -0.2609 -0.1757
  733SOL    HW1 2198   3.120   0.588   2.192 -1.2753 -1.8882  1.9353
  733SOL    HW2 2199   2.962   0.543   2.176 -2.1044  2.0136 -2.6717
  734SOL     OW 2200   1.422   0.352   2.759 -0.2230 -0.0103  0.0589
  734SOL    HW1 2201   1.448   0.442   2.802  0.6978  2.6192 -0.5145
  734SOL    HW2 2202   1.332   0.318   2.794  0.5142  1.4389 -1.3220
  735SOL     OW 2203   2.883   2.635   2.242 -0.0131  0.1865 -0.1918
  735SOL    HW1 2204   2.843   2.596   2.158  1.2781 -0.1379 -1.4381
  735SOL    HW2 2205   2.983   2.660   2.237 -0.6950 -2.0880  0.4886
  736SOL     OW 2206   0.750   0.297   2.673 -0.2853  0.3290 -0.3444
  736SOL    HW1 2207   0.648   0.300   2.648  3.3533 -0.7184  1.7522
  736SOL    HW2 2208   0.811   0.254   2.599 -0.2686  0.1008 -0.0930
  737SOL     OW 2209   2.680   0.406   2.881 -0.2050 -0.8470  0.0092
  737SOL    HW1 2210   2.653   0.390   2.981  0.5094  0.2934  0.4425
  737SOL    HW2 2211   2.781   0.391   2.871 -0.5525  1.6768 -0.3560
  738SOL     OW 2212   1.628   1.267   2.912 -0.8330 -0.2671  0.0673
  738SOL    HW1 2213   1.726   1.230   2.924  0.0288  1.0946 -0.6627
  738SOL    HW2 2214   1.574   1.210   2.842  0.6741  0.2037  1.8206
  739SOL     OW 2215   1.737   0.609   0.689 -0.4233  0.0244 -0.1711
  739SOL    HW1 2216   1.776   0.648   0.777 -0.0883  1.4400  2.5516
  739SOL    HW2 2217   1.797   0.534   0.649  0.0972 -0.3399  0.5652
  740SOL     OW 2218   2.004   1.922   2.244  0.2436  0.0571  0.8294
  740SOL    HW1 2219   2.052   1.865   2.315 -1.8491 -1.3638  2.6509
  740SOL    HW2 2220   1.953   1.866   2.169  0.9762 -1.8091  0.4637
  741SOL     OW 2221   2.536   0.057   2.624 -0.3308  0.6274  0.4534
  741SOL    HW1 2222   2.642   0.047   2.614  0.5600 -0.3200 -1.5137
  741SOL    HW2 2223   2.486   0.040   2.536  1.9656 -3.7672  1.8994
  742SOL     OW 2224   2.238   1.452   0.246  0.1773  0.5703 -0.5725
  742SOL    HW1 2225   2.160   1.515   0.267 -1.6377 -1.6756 -0.2063
  742SOL    HW2 2226   2.205   1.353   0.254  0.3278  1.9224  1.1298
  743SOL     OW 2227   1.835   0.673   2.627 -0.4276 -0.0184 -0.5070
  743SOL    HW1 2228   1.812   0.612   2.542  1.0811 -0.6763  0.2734
  743SOL    HW2 2229   1.766   0.744   2.653 -2.2646  0.8816  0.3276
  744SOL     OW 2230   2.632   2.086   0.098  0.5600  0.6015 -0.6910
  744SOL    HW1 2231   2.551   2.143   0.112  2.7053 -5.3813  0.6177
  744SOL    HW2 2232   2.603   1.989   0.066 -0.1317  2.0645  0.0361
  745SOL     OW 2233   2.175   2.637   2.331 -0.3937  0.3483 -0.0634
  745SOL    HW1 2234   2.085   2.587   2.319 -1.7067 -0.1845 -4.4809
  745SOL    HW2 2235   2.171   2.709   2.408  0.0797 -2.8905  3.5263
  746SOL     OW 2236   3.068   2.650   1.727 -0.1620 -0.2593  0.0923
  746SOL    HW1 2237   3.152   2.654   1.662 -0.8426  1.3606  0.1285
  746SOL    HW2 2238   3.058   2.734   1.790 -3.4628 -0.4083 -0.8529
  747SOL     OW 2239   3.098   1.785   1.624  0.1886  0.2950 -0.0068
  747SOL    HW1 2240   3.042   1.691   1.613  0.9428 -1.9041 -0.0882
  747SOL    HW2 2241   3.162   1.806   1.547 -2.0605  1.1588 -1.8645
  748SOL     OW 2242   1.846   2.737   2.823 -0.2204  0.0064  0.3359
  748SOL    HW1 2243   1.858   2.787   2.910  4.6484  1.2614 -3.5534
  748SOL    HW2 2244   1.756   2.692   2.814  1.3993 -0.5720 -0.5644
  749SOL     OW 2245   1.290   3.059   0.953  0.8635  0.0708 -0.3639
  749SOL    HW1 2246   1.272   2.967   1.002  1.0090  0.2530 -0.2850
  749SOL    HW2 2247   1.248   3.067   0.861 -1.8233 -2.2319  1.4584
  750SOL     OW 2248   2.373   0.197   1.854  0.7140  0.2528 -0.2009
  750SOL    HW1 2249   2.346   0.242   1.762  0.0810  2.0719 -1.0580
  750SOL    HW2 2250   2.372   0.266   1.933  0.0652 -0.6098 -0.6031
  751SOL     OW 2251   0.912   2.180   2.732  0.2252  0.5846 -0.5206
  751SOL    HW1 2252   0.955   2.206   2.822  1.0285 -0.1151 -0.9341
  751SOL    HW2 2253   0.821   2.134   2.744  2.4218  1.1913  0.0251
  752SOL     OW 2254   1.265   0.864   1.396 -0.5861  0.0426  0.4903
  752SOL    HW1 2255   1.334   0.939   1.385  1.1511  1.0556  2.0265
  752SOL    HW2 2256   1.298   0.768   1.383 -1.1513 -2.0329  1.7475
  753SOL     OW 2257   0.935   2.578   1.713  0.0674 -0.1079  0.2986
  753SOL    HW1 2258   1.021   2.630   1.738  0.5447  2.3014 -2.5147
  753SOL    HW2 2259   0.870   2.646   1.663  1.1746 -1.7109 -0.6764
  754SOL     OW 2260   1.120   1.260   3.088  0.5420  0.3962  0.5204
  754SOL    HW1 2261   1.161   1.200   3.014  0.6836  4.8253  1.1286
  754SOL    HW2 2262   1.131   1.361   3.072 -1.6983 -0.9522  1.7608
  755SOL     OW 2263   1.955   0.450   2.230  0.2732  0.1165 -0.5149
  755SOL    HW1 2264   2.037   0.404   2.266 -1.4654  1.3910  1.6652
  755SOL    HW2 2265   1.890   0.476   2.307  1.0679 -2.9654 -2.2461
  756SOL     OW 2266   2.552   1.013   2.963  0.4394 -0.2131  0.1513
  756SOL    HW1 2267   2.652   1.011   2.985 -1.0890 -2.2092 -0.4510
  756SOL    HW2 2268   2.499   0.946   3.018 -1.4048 -2.6851  1.3435
  757SOL     OW 2269   3.068   0.441   1.777 -0.4749 -0.0574  0.1742
  757SOL    HW1 2270   3.173   0.424   1.763  1.3053  2.5459  0.3318
  757SOL    HW2 2271   3.009   0.359   1.787 -0.9281  0.4810 -2.8623
  758SOL     OW 2272   2.394   0.086   1.424  0.2340 -0.1731 -0.1254
  758SOL    HW1 2273   2.334   0.020   1.479 -2.3049  4.3170 -2.5806
  758SOL    HW2 2274   2.356   0.086   1.326 -1.6323 -1.8088  0.8817
  759SOL     OW 2275   1.721   0.089   0.075 -0.5074 -0.0541 -0.2146
  759SOL    HW1 2276   1.676   0.077  -0.017  1.5375  0.1665 -0.9828
  759SOL    HW2 2277   1.823   0.060   0.075 -0.4667 -2.7299  0.2058
  760SOL     OW 2278   2.733   2.088   2.825 -0.0333  0.7606 -0.0120
  760SOL    HW1 2279   2.720   1.997   2.870  0.4719  1.0698  0.7107
  760SOL    HW2 2280   2.723   2.168   2.891  1.4416 -0.6888 -1.5320
  761SOL     OW 2281   1.892   1.787   1.713  0.4648 -0.1386  0.1721
  761SOL    HW1 2282   1.952   1.716   1.752 -0.8247 -0.9155  1.4851
  761SOL    HW2 2283   1.838   1.754   1.632 -0.6477 -0.9665 -0.7124
  762SOL     OW 2284   0.462   2.316   0.962 -0.2048 -0.2578  0.0286
  762SOL    HW1 2285   0.502   2.343   0.870  1.3531  2.9170  0.7743
  762SOL    HW2 2286   0.493   2.376   1.044 -0.1709  0.2974 -1.4650
  763SOL     OW 2287   2.079   1.521   2.922  0.1418 -0.1994  0.2031
  763SOL    HW1 2288   2.176   1.500   2.966  2.0083  2.0224  1.7036
  763SOL    HW2 2289   2.003   1.483   2.987 -1.4173 -1.4531  0.2550
  764SOL     OW 2290   0.612   0.602   0.847  0.0320 -0.4085  0.1297
  764SOL    HW1 2291   0.560   0.521   0.807  2.1303 -0.0560  0.5576
  764SOL    HW2 2292   0.703   0.586   0.891 -1.6924 -1.1332  0.8290
  765SOL     OW 2293   0.708   0.246   0.795  0.0010 -0.0518  0.2859
  765SOL    HW1 2294   0.740   0.319   0.727  0.1294 -2.4154  1.8055
  765SOL    HW2 2295   0.703   0.283   0.889 -1.1478 -1.7214  0.0250
  766SOL     OW 2296   2.918   2.084   0.002 -0.0115  0.1901 -0.0411
  766SOL    HW1 2297   2.839   2.098   0.063  1.6507 -0.8128 -1.1480
  766SOL    HW2 2298   2.984   2.163  -0.003  0.2889  1.7904 -2.7157
  767SOL     OW 2299   2.805   1.564   0.599  0.3580  0.1183 -0.3341
  767SOL    HW1 2300   2.722   1.583   0.655 -0.6354 -0.9635 -0.3929
  767SOL    HW2 2301   2.901   1.575   0.644 -1.7934 -1.0829  1.5867
  768SOL     OW 2302   1.097   0.199   0.343  0.2558  0.3701  1.0898
  768SOL    HW1 2303   1.006   0.174   0.381  3.1718  0.5229  1.3436
  768SOL    HW2 2304   1.168   0.120   0.330  1.8536  0.3193  0.8291
  769SOL     OW 2305   1.008   1.902   2.232  0.7337 -0.0114  0.3736
  769SOL    HW1 2306   0.946   1.963   2.292 -0.3925  1.7514  0.7021
  769SOL    HW2 2307   1.016   1.804   2.258  1.9411 -1.5129 -4.6963
  770SOL     OW 2308   0.170   1.149   2.253 -0.3607  0.8650 -0.5656
  770SOL    HW1 2309   0.135   1.183   2.346 -0.0003 -0.1039  1.9560
  770SOL    HW2 2310   0.095   1.121   2.189  1.7468 -0.3875  1.3942
  771SOL     OW 2311   3.000   2.843   1.900 -0.0971  0.0628  0.2992
  771SOL    HW1 2312   2.963   2.912   1.832 -1.1548 -1.2292 -0.8665
  771SOL    HW2 2313   2.962   2.860   1.997 -2.9053  3.2999  1.6243
  772SOL     OW 2314   2.203   0.174   2.934 -0.0175 -0.5201  0.1525
  772SOL    HW1 2315   2.304   0.161   2.937 -4.1347 -1.7715 -1.1132
  772SOL    HW2 2316   2.166   0.260   2.985 -1.9102 -1.6293  0.4513
  773SOL     OW 2317   0.716   2.198   2.488 -1.1181  0.2454  0.3539
  773SOL    HW1 2318   0.669   2.221   2.399 -0.2135 -3.2081 -0.0207
  773SOL    HW2 2319   0.652   2.160   2.562  1.1132  3.2819 -1.1666
  774SOL     OW 2320   2.004   0.021   2.637 -0.3160  0.4515  0.2859
  774SOL    HW1 2321   2.031   0.111   2.671 -5.1147 -1.3147 -2.1660
  774SOL    HW2 2322   2.059  -0.058   2.679  1.1449 -0.6619  0.7410
  775SOL     OW 2323   2.522   2.841   2.425  0.0277 -0.6346  0.1886
  775SOL    HW1 2324   2.568   2.935   2.417 -3.5117 -0.1290 -1.1944
  775SOL    HW2 2325   2.567   2.773   2.490 -0.3283  0.4202 -0.3967
  776SOL     OW 2326   0.048   1.299   0.201  1.0716  0.5104  0.1227
  776SOL    HW1 2327  -0.012   1.257   0.129  0.5102 -1.4004  0.2591
  776SOL    HW2 2328   0.007   1.296   0.296  3.1510 -3.9916 -2.0800
  777SOL     OW 2329   0.278   2.857   0.419 -0.1605 -0.2414  0.4831
  777SOL    HW1 2330   0.172   2.862   0.410 -2.0269 -1.8565  1.2625
  777SOL    HW2 2331   0.316   2.904   0.503 -1.4585 -1.9338  0.9927
  778SOL     OW 2332   1.308   1.949   0.178  0.2992  0.0076  0.2720
  778SOL    HW1 2333   1.247   1.971   0.255  1.1380 -1.7251 -2.0665
  778SOL    HW2 2334   1.366   2.033   0.155 -1.0606  1.9947  0.7969
  779SOL     OW 2335   0.195   0.849   0.487  0.3215  0.1452  0.1138
  779SOL    HW1 2336   0.165   0.751   0.463 -0.1810  0.2655  2.3006
  779SOL    HW2 2337   0.124   0.903   0.540 -0.1422 -0.3050 -0.4870
  780SOL     OW 2338   0.090   0.259   2.232 -0.1212  0.5683  0.9086
  780SOL    HW1 2339   0.079   0.324   2.315 -0.2512  3.8107  0.4895
  780SOL    HW2 2340   0.186   0.264   2.196  1.2855  0.8480 -0.0231
  781SOL     OW 2341   0.628   1.761   1.553 -0.0202 -0.1202 -0.2780
  781SOL    HW1 2342   0.655   1.739   1.648  1.0807  3.3416  0.3024
  781SOL    HW2 2343   0.536   1.730   1.527  1.6456  2.6610 -1.0179
  782SOL     OW 2344   2.615   0.187   0.908 -0.9245 -0.1694  0.5780
  782SOL    HW1 2345   2.544   0.180   0.837 -0.2806  0.8937  2.6795
  782SOL    HW2 2346   2.587   0.240   0.996  0.9797  1.7101  0.2146
  783SOL     OW 2347   2.857   0.710   2.547  0.3923  0.3426  0.1195
  783SOL    HW1 2348   2.807   0.721   2.632 -0.9163 -1.6705 -2.9853
  783SOL    HW2 2349   2.825   0.626   2.499  0.9197  0.9948 -1.8902
  784SOL     OW 2350   1.402   2.195   0.085 -0.4458 -0.0198 -0.3643
  784SOL    HW1 2351   1.485   2.256   0.112 -0.6807 -1.6825  0.4834
  784SOL    HW2 2352   1.380   2.202  -0.017  0.3399 -0.2053 -0.0031
  785SOL     OW 2353   2.146   0.392   3.094  0.4422  0.0014 -0.7155
  785SOL    HW1 2354   2.071   0.384   3.164  1.0570 -0.4328  1.6856
  785SOL    HW2 2355   2.149   0.493   3.063  1.1907 -2.1392 -0.7725
  786SOL     OW 2356   2.017   2.198   2.233 -0.6803  0.1811  0.4042
  786SOL    HW1 2357   2.006   2.094   2.254  0.7772  1.9560 -0.6884
  786SOL    HW2 2358   2.114   2.211   2.205 -0.7692 -1.6203 -2.3310
  787SOL     OW 2359   1.440   0.630   0.938 -0.1315 -0.3697 -0.4518
  787SOL    HW1 2360   1.371   0.707   0.965 -0.8248 -0.1996 -1.6669
  787SOL    HW2 2361   1.436   0.609   0.835 -0.3615 -0.2618  0.2878
  788SOL     OW 2362   1.247   0.387   3.068 -0.3775  0.0510 -0.2752
  788SOL    HW1 2363   1.151   0.385   3.039  1.5854 -1.5656 -0.5910
  788SOL    HW2 2364   1.282   0.467   3.124  0.4714 -1.6264 -2.4961
  789SOL     OW 2365   2.588   0.027   1.801 -0.0875 -0.7200 -0.1008
  789SOL    HW1 2366   2.522   0.072   1.859  0.0837 -0.3582  2.6972
  789SOL    HW2 2367   2.571  -0.076   1.794 -0.9709  2.2695  1.2019
  790SOL     OW 2368   2.567   2.713   0.814  0.1829  0.3773  0.3581
  790SOL    HW1 2369   2.618   2.800   0.840  0.6435 -3.1077  0.8488
  790SOL    HW2 2370   2.576   2.643   0.896  0.0291 -0.8916  0.2244
  791SOL     OW 2371   1.917   1.240   0.264 -0.1078  0.0359  0.2188
  791SOL    HW1 2372   1.826   1.203   0.288  1.3685 -0.4052  0.7859
  791SOL    HW2 2373   1.998   1.174   0.270 -0.7341  0.1304  0.4493
  792SOL     OW 2374   0.432   1.990   2.136  0.1987 -0.2359 -0.1056
  792SOL    HW1 2375   0.506   2.016   2.201 -2.1836  1.4689 -0.4620
  792SOL    HW2 2376   0.352   1.956   2.198 -2.3649 -0.6989 -1.2778
  793SOL     OW 2377   2.081   1.587   2.099 -0.4834  0.0211 -0.5334
  793SOL    HW1 2378   2.172   1.623   2.087 -0.6817 -1.8950  0.4265
  793SOL    HW2 2379   2.061   1.507   2.036 -0.4079 -0.2519  2.2254
  794SOL     OW 2380   0.433   1.362   2.464  0.2660 -0.1933  0.6492
  794SOL    HW1 2381   0.473   1.326   2.374 -0.4368 -0.3351 -0.8773
  794SOL    HW2 2382   0.405   1.463   2.463  2.5823  0.8439  1.5298
  795SOL     OW 2383   2.405   2.313   1.700  0.9921  0.2491  0.4600
  795SOL    HW1 2384   2.415   2.333   1.804 -0.3272 -0.8586  2.4503
  795SOL    HW2 2385   2.348   2.227   1.688 -4.0492  1.4774  0.3443
  796SOL     OW 2386   3.091   1.094   2.675  0.7633  0.1721  0.2524
  796SOL    HW1 2387   2.990   1.099   2.688  1.4765  1.9815  0.4886
  796SOL    HW2 2388   3.147   1.105   2.760  3.0473  0.4478 -1.2928
  797SOL     OW 2389   0.750   0.615   1.338 -0.1103 -0.2626 -0.2454
  797SOL    HW1 2390   0.820   0.643   1.408  0.1229 -0.1256  0.1178
  797SOL    HW2 2391   0.699   0.698   1.307  0.3519  0.7691  1.8573
  798SOL     OW 2392   1.338   0.422   1.115 -0.0130  0.1575 -0.1528
  798SOL    HW1 2393   1.373   0.415   1.207 -0.7363 -0.2029 -2.3044
  798SOL    HW2 2394   1.391   0.484   1.047 -0.1851 -0.2501 -2.5170
  799SOL     OW 2395   1.943   2.615   1.061  0.1858  0.0860 -0.1113
  799SOL    HW1 2396   1.937   2.524   1.107  2.5921 -0.4959  0.3273
  799SOL    HW2 2397   1.867   2.642   0.990  0.2099  2.5962  0.6676
  800SOL     OW 2398   2.958   0.785   1.893 -0.4276  0.8917 -0.7387
  800SOL    HW1 2399   2.972   0.885   1.927 -0.6862  0.6521 -1.2389
  800SOL    HW2 2400   2.965   0.719   1.973 -2.5787 -1.5635 -2.1134
  801SOL     OW 2401   1.977   2.198   0.030  0.1081  0.1722 -0.1607
  801SOL    HW1 2402   1.911   2.208  -0.046  3.2228 -1.7434  1.3581
  801SOL    HW2 2403   2.053   2.133  -0.004  2.2890 -0.8734  0.5764
  802SOL     OW 2404   0.605   0.816   2.590  0.1749  0.0024 -0.1354
  802SOL    HW1 2405   0.605   0.713   2.573  1.6304  0.9011 -1.5247
  802SOL    HW2 2406   0.539   0.863   2.529  0.5654  0.5260  0.2503
  803SOL     OW 2407   0.966   0.081   0.818  0.2703  0.2985  0.5177
  803SOL    HW1 2408   1.046   0.146   0.828  0.2054  1.2594  0.2883
  803SOL    HW2 2409   0.895   0.118   0.756  1.8748  2.0805  0.7637
  804SOL     OW 2410   0.315   3.082   2.174 -0.0249 -0.5220  0.0430
  804SOL    HW1 2411   0.328   3.180   2.143  1.0139 -1.8411  0.5782
  804SOL    HW2 2412   0.261   3.027   2.105 -0.2530  1.0448  1.9445
  805SOL     OW 2413   2.342   0.412   0.380 -0.1986 -0.2576 -0.2536
  805SOL    HW1 2414   2.423   0.387   0.436  1.6497  1.3153 -1.7730
  805SOL    HW2 2415   2.330   0.358   0.292 -0.1547 -3.2647 -1.2398
  806SOL     OW 2416   0.679   2.436   1.787  1.3297  0.2367  0.3032
  806SOL    HW1 2417   0.641   2.530   1.804 -2.6857 -1.4961  0.8526
  806SOL    HW2 2418   0.753   2.442   1.715 -0.6576  1.4851  0.4822
  807SOL     OW 2419   2.514   0.822   0.396  0.0350  0.1363  0.6791
  807SOL    HW1 2420   2.612   0.852   0.435  0.7746  1.3961 -1.2349
  807SOL    HW2 2421   2.484   0.900   0.335  1.0772  0.6652 -1.1918
  808SOL     OW 2422   0.636   2.108   2.929 -0.3373 -0.2554  0.1342
  808SOL    HW1 2423   0.581   2.148   3.009 -0.9151 -0.4180  2.1388
  808SOL    HW2 2424   0.673   2.012   2.955  0.6748 -1.8499  0.0275
  809SOL     OW 2425   2.588   1.972   1.890  0.1790  0.4648 -0.2740
  809SOL    HW1 2426   2.692   1.984   1.893 -2.3644 -0.6586  1.1639
  809SOL    HW2 2427   2.552   2.003   1.798 -1.7400 -0.0768  0.4001
  810SOL     OW 2428   2.194   1.107   0.542  0.6792 -0.5522 -0.2723
  810SOL    HW1 2429   2.138   1.017   0.557 -0.7511 -2.7242 -1.6628
  810SOL    HW2 2430   2.148   1.189   0.593  0.5341  1.8400  2.2417
  811SOL     OW 2431   1.372   2.513   1.214  0.4220 -0.3511 -0.3764
  811SOL    HW1 2432   1.336   2.424   1.246 -1.2292  0.2219  0.3997
  811SOL    HW2 2433   1.303   2.590   1.231  1.8262  2.5051  2.5276
  812SOL     OW 2434   1.419   0.741   1.967 -0.1032 -0.3948  0.2685
  812SOL    HW1 2435   1.454   0.807   2.036 -1.6508 -0.1362  0.8768
  812SOL    HW2 2436   1.351   0.791   1.909  2.0205  0.6813  0.6726
  813SOL     OW 2437   1.657   2.072   2.494  0.4004 -0.1495 -0.8349
  813SOL    HW1 2438   1.718   1.999   2.545  1.1396 -1.2670  0.5670
  813SOL    HW2 2439   1.615   2.034   2.406 -2.5073 -1.2451  0.0656
  814SOL     OW 2440   2.934   1.579   2.822 -0.3893 -0.5282  0.1605
  814SOL    HW1 2441   2.984   1.533   2.903 -0.1254 -1.3950  3.6960
  814SOL    HW2 2442   2.962   1.676   2.811 -0.1824  0.0854  0.3273
  815SOL     OW 2443   2.194   2.939   2.781 -0.5007  0.2990 -0.6486
  815SOL    HW1 2444   2.174   2.858   2.839  0.3776 -0.5329 -1.0828
  815SOL    HW2 2445   2.270   2.999   2.827  3.6678 -0.2130  1.8027
  816SOL     OW 2446   1.600   0.325   1.659  0.1036  0.4199  0.3558
  816SOL    HW1 2447   1.647   0.232   1.681 -3.1608 -2.4132 -0.2807
  816SOL    HW2 2448   1.589   0.390   1.737 -1.7533  0.1928  1.2365
  817SOL     OW 2449   0.364   1.153   2.628  0.8214 -0.0020  0.5268
  817SOL    HW1 2450   0.263   1.162   2.655 -2.6673  1.0284 -2.2257
  817SOL    HW2 2451   0.384   1.222   2.553  1.3617  0.8850 -1.1799
  818SOL     OW 2452   1.956   0.941   0.391  0.7399 -1.1869  0.4673
  818SOL    HW1 2453   2.036   0.885   0.420 -0.7826  0.9524 -0.3222
  818SOL    HW2 2454   1.877   0.947   0.463  1.4149  0.5097  3.6906
  819SOL     OW 2455   2.752   2.946   3.012  0.1325  0.1063  0.4749
  819SOL    HW1 2456   2.819   2.865   3.007  0.4099  1.0543  0.6998
  819SOL    HW2 2457   2.655   2.926   2.985  2.3099 -0.4797  0.3984
  820SOL     OW 2458   1.215   1.052   0.572 -0.3655  0.2444 -0.4107
  820SOL    HW1 2459   1.221   1.147   0.610 -1.3122 -1.3096 -0.2598
  820SOL    HW2 2460   1.235   0.979   0.641  1.5220 -2.2544  0.7547
  821SOL     OW 2461   0.020   1.291   0.684  0.5839  0.0250  0.0066
  821SOL    HW1 2462  -0.007   1.271   0.785 -0.5736  3.7997 -2.7925
  821SOL    HW2 2463   0.075   1.379   0.672 -2.1418  0.8060  2.3071
  822SOL     OW 2464   2.596   1.780   2.449  0.4153 -0.2360  0.4560
  822SOL    HW1 2465   2.579   1.847   2.526  0.6498  1.3228 -0.0666
  822SOL    HW2 2466   2.524   1.787   2.373  0.3415 -2.1050 -1.9863
  823SOL     OW 2467   2.011   0.804   1.111 -0.0915 -0.0146  0.6066
  823SOL    HW1 2468   1.984   0.785   1.207 -1.1602 -0.0853  1.1450
  823SOL    HW2 2469   1.944   0.867   1.058  3.2855 -0.6557  0.5036
  824SOL     OW 2470   0.192   1.994   2.825 -0.6653  0.2092 -0.7649
  824SOL    HW1 2471   0.191   1.910   2.890 -1.1081 -1.6409  0.7117
  824SOL    HW2 2472   0.257   1.989   2.744 -0.3423  1.6551 -0.6531
  825SOL     OW 2473   1.287   1.040   0.297  0.0533 -0.1150 -0.1415
  825SOL    HW1 2474   1.292   1.144   0.280 -2.2498 -1.7406  0.5554
  825SOL    HW2 2475   1.270   1.017   0.394  2.5342 -2.0842  1.3956
  826SOL     OW 2476   1.948   0.647   1.549  0.1925 -0.1032 -0.1113
  826SOL    HW1 2477   2.027   0.597   1.599  2.0065  1.1999 -0.0794
  826SOL    HW2 2478   1.872   0.586   1.507 -0.1047 -0.4078  0.1703
  827SOL     OW 2479   0.745   1.212   0.288  0.3090 -0.5476 -0.0357
  827SOL    HW1 2480   0.814   1.168   0.220  0.7470  1.2997 -0.8207
  827SOL    HW2 2481   0.659   1.153   0.316 -1.1497 -1.3571 -1.2350
  828SOL     OW 2482   2.627   0.156   1.547 -0.2695 -0.6020 -0.6808
  828SOL    HW1 2483   2.542   0.118   1.497  3.5810 -1.8148 -1.0017
  828SOL    HW2 2484   2.633   0.136   1.650 -0.0691  0.0650  0.9839
  829SOL     OW 2485   2.888   2.443   2.924  0.5253 -0.0530 -0.5809
  829SOL    HW1 2486   2.804   2.388   2.953 -0.3804  1.0292 -1.6118
  829SOL    HW2 2487   2.866   2.539   2.900 -0.5767 -0.8430  0.5379
  830SOL     OW 2488   2.807   0.972   3.047  0.1755  0.2864 -0.0998
  830SOL    HW1 2489   2.857   1.060   3.076 -3.1080  2.4952  1.0905
  830SOL    HW2 2490   2.831   0.887   3.104 -2.4815 -1.6176  0.5744
  831SOL     OW 2491   0.092   0.613   0.388  0.8909 -0.5780  0.3694
  831SOL    HW1 2492   0.035   0.575   0.468  1.9279 -1.1948  2.8633
  831SOL    HW2 2493   0.099   0.553   0.304  0.3542  0.6663 -0.9560
  832SOL     OW 2494   1.830   0.794   3.014  0.0331  0.2659 -0.3661
  832SOL    HW1 2495   1.736   0.822   2.983  0.5029 -0.4755  1.6946
  832SOL    HW2 2496   1.829   0.689   3.034  0.4043  0.8411  2.4044
  833SOL     OW 2497   2.473   2.105   0.441 -0.1429 -0.1325 -0.0078
  833SOL    HW1 2498   2.373   2.102   0.423 -0.3290 -2.5994 -0.6886
  833SOL    HW2 2499   2.525   2.016   0.471  0.5995  0.5118 -0.0729
  834SOL     OW 2500   0.108   0.212   0.492  0.0425 -0.2788 -0.2051
  834SOL    HW1 2501   0.079   0.130   0.550  2.2370 -3.8801  0.2609
  834SOL    HW2 2502   0.100   0.190   0.394  0.0290 -1.3331  2.2621
  835SOL     OW 2503   2.341   1.508   1.166  0.4550 -0.7102  0.0396
  835SOL    HW1 2504   2.352   1.611   1.175  1.0874  1.2753 -1.8748
  835SOL    HW2 2505   2.404   1.478   1.093 -1.7387  2.4894 -0.1781
  836SOL     OW 2506   1.614   0.857   2.610  0.2606 -0.0983 -0.2923
  836SOL    HW1 2507   1.517   0.834   2.647 -2.0969  4.2891  1.0191
  836SOL    HW2 2508   1.621   0.839   2.507  0.3110 -0.9624 -2.0163
  837SOL     OW 2509   1.597   0.124   0.568 -0.1031  0.3340 -0.2196
  837SOL    HW1 2510   1.570   0.192   0.644  0.6892 -0.1666 -1.6377
  837SOL    HW2 2511   1.593   0.166   0.473  1.3837  0.0880 -0.1286
  838SOL     OW 2512   1.219   1.473   2.775 -0.0728  0.3521  0.8892
  838SOL    HW1 2513   1.201   1.484   2.877 -2.0372  1.0200  0.5130
  838SOL    HW2 2514   1.150   1.404   2.735 -2.2370 -0.3056  2.8587
  839SOL     OW 2515   1.691   0.261   0.972 -0.4532 -0.4473  0.0183
  839SOL    HW1 2516   1.684   0.343   1.033 -0.1017 -1.4228 -0.1042
  839SOL    HW2 2517   1.661   0.169   1.010 -0.6487 -1.0328 -0.0353
  840SOL     OW 2518   2.526   2.855   1.758 -0.2658 -0.0016  0.1351
  840SOL    HW1 2519   2.507   2.817   1.659 -2.1284 -0.5010 -3.3211
  840SOL    HW2 2520   2.505   2.789   1.838 -1.7384 -0.8522 -0.4749
  841SOL     OW 2521   1.580   0.905   2.959 -0.1213  0.2999  0.1921
  841SOL    HW1 2522   1.594   0.971   3.040  1.5048 -0.0878  1.0083
  841SOL    HW2 2523   1.552   0.961   2.872  2.8844  0.1324 -0.8403
  842SOL     OW 2524   0.821   1.521   0.940  0.3847  0.1684  0.6998
  842SOL    HW1 2525   0.767   1.574   1.009 -0.1043 -1.2606  0.6862
  842SOL    HW2 2526   0.753   1.470   0.886  1.4674  2.8991  1.4571
  843SOL     OW 2527   0.134   0.135   1.486  0.6640  0.0428 -0.2785
  843SOL    HW1 2528   0.203   0.166   1.560  0.3759 -1.9500  1.2768
  843SOL    HW2 2529   0.131   0.032   1.478  1.4641 -1.6769  2.0977
  844SOL     OW 2530   0.780   2.501   0.305 -0.3012 -0.3210 -0.1358
  844SOL    HW1 2531   0.736   2.465   0.394 -2.1231  0.7312 -0.5561
  844SOL    HW2 2532   0.697   2.530   0.244  0.2858 -0.6408 -1.4903
  845SOL     OW 2533   1.633   2.850   1.371 -0.0044 -0.7565 -0.3462
  845SOL    HW1 2534   1.706   2.863   1.441 -1.2795  1.1391 -0.1615
  845SOL    HW2 2535   1.547   2.899   1.401  1.3338  1.0497  0.1728
  846SOL     OW 2536   1.619   2.980   0.837  1.0023 -0.0821 -0.0273
  846SOL    HW1 2537   1.580   3.004   0.746  2.2947  2.8818 -0.0097
  846SOL    HW2 2538   1.720   2.954   0.821  1.3283 -1.3130  0.9662
  847SOL     OW 2539   2.025   1.639   0.247 -0.3900 -0.1439 -0.2431
  847SOL    HW1 2540   1.987   1.566   0.309 -0.5476  3.3070  0.3843
  847SOL    HW2 2541   1.960   1.712   0.224 -0.4324  0.0692 -1.2053
  848SOL     OW 2542   2.509   0.792   2.653  0.0614  0.4197  0.6385
  848SOL    HW1 2543   2.499   0.894   2.649  0.0266 -0.2815 -3.4366
  848SOL    HW2 2544   2.468   0.743   2.567  3.4493  1.5043  0.0702
  849SOL     OW 2545   2.503   0.850   2.330 -0.5873  0.4610  0.3460
  849SOL    HW1 2546   2.574   0.837   2.256  0.4690  0.2403 -0.8558
  849SOL    HW2 2547   2.474   0.760   2.375  0.5114  1.0498  1.8496
  850SOL     OW 2548   1.513   0.109   1.337 -0.2407 -0.1132 -0.1239
  850SOL    HW1 2549   1.530   0.092   1.239  1.6145 -4.1485  2.4580
  850SOL    HW2 2550   1.472   0.026   1.384  1.3404 -0.3845  1.5649
  851SOL     OW 2551   0.470   1.730   0.634 -0.1117 -0.9547  0.1847
  851SOL    HW1 2552   0.482   1.835   0.632 -0.9221  1.8912  0.5726
  851SOL    HW2 2553   0.563   1.681   0.638  0.7261  0.4078  1.8799
  852SOL     OW 2554   0.790   2.161   1.683 -0.5069 -0.4414 -0.1394
  852SOL    HW1 2555   0.768   2.257   1.661  0.8386  2.2186 -0.5099
  852SOL    HW2 2556   0.730   2.114   1.754  0.5874 -0.0072 -1.8710
  853SOL     OW 2557   2.487   1.571   2.620 -0.1714  0.0532  0.2755
  853SOL    HW1 2558   2.446   1.482   2.589  0.7866  1.8324 -0.8856
  853SOL    HW2 2559   2.506   1.637   2.539 -1.6656  0.4932 -2.3999
  854SOL     OW 2560   2.523   1.342   1.754 -0.0137  0.0083  0.2893
  854SOL    HW1 2561   2.523   1.320   1.652  2.0613 -1.1177  1.7140
  854SOL    HW2 2562   2.535   1.261   1.821 -0.9156 -0.2345  1.9257
  855SOL     OW 2563   2.106   2.344   0.973  0.1157  0.0515  0.3628
  855SOL    HW1 2564   2.107   2.439   0.927 -0.0167  0.0387  0.4995
  855SOL    HW2 2565   2.166   2.352   1.062 -0.6308  0.9266  2.2565
  856SOL     OW 2566   1.341   1.481   0.861 -0.2586 -0.1029  0.3319
  856SOL    HW1 2567   1.424   1.538   0.891  0.9514 -0.7000 -0.0065
  856SOL    HW2 2568   1.258   1.504   0.914 -2.4148 -1.3023  1.9003
  857SOL     OW 2569   2.964   2.656   1.035 -0.2227 -0.4451  0.3929
  857SOL    HW1 2570   2.881   2.591   1.046  0.8777 -1.9149  1.1205
  857SOL    HW2 2571   3.047   2.607   0.998  1.8807 -0.8826 -3.9004
  858SOL     OW 2572   2.296   2.064   1.717  0.3345  0.8779  0.2175
  858SOL    HW1 2573   2.199   2.082   1.695  1.9045 -0.4643 -1.7598
  858SOL    HW2 2574   2.330   1.981   1.663 -0.2008 -0.0640 -1.7050
  859SOL     OW 2575   2.440   0.552   1.025 -0.7245  0.1975  0.1969
  859SOL    HW1 2576   2.504   0.588   0.954  1.4575 -1.1144 -2.3158
  859SOL    HW2 2577   2.485   0.473   1.077  0.8892 -1.3506  0.3000
  860SOL     OW 2578   1.933   2.833   0.456  0.5891  0.0424  0.3764
  860SOL    HW1 2579   1.880   2.768   0.389 -2.8962 -0.7905  0.2291
  860SOL    HW2 2580   2.019   2.873   0.417 -3.7136  2.2028  3.6419
  861SOL     OW 2581   1.071   2.547   2.835 -0.2292 -0.0728 -0.4391
  861SOL    HW1 2582   1.129   2.627   2.804 -0.7882  2.1458 -1.6936
  861SOL    HW2 2583   1.106   2.515   2.926  2.3235  0.3015  0.2069
  862SOL     OW 2584   2.841   2.524   1.590 -0.0137 -0.3170 -0.1406
  862SOL    HW1 2585   2.933   2.553   1.629  0.3735  0.2559  0.0352
  862SOL    HW2 2586   2.791   2.589   1.525 -2.4593 -3.5344  1.2493
  863SOL     OW 2587   1.839   2.688   0.176 -0.0192 -0.0297  0.0388
  863SOL    HW1 2588   1.890   2.600   0.189  0.9807  0.8543  1.2162
  863SOL    HW2 2589   1.736   2.669   0.188  1.7202 -2.6318 -0.3064
  864SOL     OW 2590   1.877   1.166   2.870  0.1487 -0.5158  0.0973
  864SOL    HW1 2591   1.863   1.124   2.778  0.8267 -0.6823 -0.0817
  864SOL    HW2 2592   1.938   1.111   2.928  1.6029  1.0147  0.9352
  865SOL     OW 2593   2.206   1.832   0.613  0.3843 -0.0630  0.2327
  865SOL    HW1 2594   2.261   1.850   0.696  0.8801 -1.3287 -0.2131
  865SOL    HW2 2595   2.117   1.784   0.632 -1.3981  1.3006  1.5316
  866SOL     OW 2596   2.954   2.921   0.968 -0.6225  0.8506 -0.2723
  866SOL    HW1 2597   3.036   2.965   0.918 -0.8166  0.5441  3.0107
  866SOL    HW2 2598   2.963   2.819   0.986 -1.7505  0.1681  1.8435
  867SOL     OW 2599   0.340   1.389   0.932 -0.5788  0.6568  0.5733
  867SOL    HW1 2600   0.353   1.326   0.847 -0.4508 -2.0260  0.6195
  867SOL    HW2 2601   0.315   1.483   0.906  3.1489 -0.5955 -1.1777
  868SOL     OW 2602   0.736   1.875   2.021  0.6301  0.1764  0.1537
  868SOL    HW1 2603   0.733   1.857   2.123 -1.4514 -0.8033 -0.4984
  868SOL    HW2 2604   0.695   1.968   1.993  0.4780  2.0762 -1.4833
  869SOL     OW 2605   2.534   1.941   1.591  0.0370 -0.0551  0.1506
  869SOL    HW1 2606   2.627   1.980   1.568 -0.7744 -1.3166 -2.2763
  869SOL    HW2 2607   2.531   1.839   1.613 -0.3832 -1.8751 -2.6370
  870SOL     OW 2608   2.309   2.661   1.278 -0.3443 -0.3038  0.4399
  870SOL    HW1 2609   2.302   2.567   1.231  1.3858  0.3138 -0.5388
  870SOL    HW2 2610   2.246   2.667   1.356  2.1981 -0.3370 -2.7616
  871SOL     OW 2611   2.977   2.116   0.569  0.1771 -0.4028  0.6973
  871SOL    HW1 2612   2.918   2.188   0.616 -1.1309  1.2163 -1.5965
  871SOL    HW2 2613   2.921   2.079   0.491  0.8679 -1.5366  3.0427
  872SOL     OW 2614   2.120   0.476   1.666  0.1731 -0.0577  0.0549
  872SOL    HW1 2615   2.089   0.450   1.765 -1.2930  1.1103  0.3398
  872SOL    HW2 2616   2.218   0.437   1.652  0.0631  1.5331  0.9101
  873SOL     OW 2617   1.734   2.070   3.042  0.1096 -0.6111 -0.4885
  873SOL    HW1 2618   1.683   2.146   3.089  2.5893  1.4453  0.5960
  873SOL    HW2 2619   1.702   2.061   2.946 -0.6962 -0.2874 -0.1535
  874SOL     OW 2620   0.659   2.473   0.807 -0.4409  0.7253 -0.0894
  874SOL    HW1 2621   0.634   2.573   0.835  0.8457 -0.9707 -0.7307
  874SOL    HW2 2622   0.756   2.451   0.814 -0.1714  1.0218 -0.0519
  875SOL     OW 2623   2.264   1.512   1.441  0.3421 -0.4920  0.1106
  875SOL    HW1 2624   2.326   1.584   1.470 -0.4617 -3.6845 -1.0956
  875SOL    HW2 2625   2.288   1.472   1.346  0.4658 -0.6456 -0.3042
  876SOL     OW 2626   0.086   2.247   2.728  0.1838 -0.1838 -0.8533
  876SOL    HW1 2627   0.135   2.168   2.771  2.0914 -3.8819  0.0148
  876SOL    HW2 2628   0.087   2.339   2.781 -0.4677  0.1689  2.2869
  877SOL     OW 2629   2.886   2.700   0.550  0.0013 -0.4069 -0.3133
  877SOL    HW1 2630   2.825   2.779   0.586 -1.2775  2.7638 -0.7133
  877SOL    HW2 2631   2.931   2.643   0.626 -2.4725  0.9781  0.0588
  878SOL     OW 2632   2.807   1.560   2.184  0.1348  0.7710  0.0496
  878SOL    HW1 2633   2.907   1.531   2.180  2.1383  1.5977  0.2817
  878SOL    HW2 2634   2.768   1.581   2.279 -0.8137  1.2013 -0.3525
  879SOL     OW 2635   2.369   0.049   1.152  0.1645 -0.7672 -0.1607
  879SOL    HW1 2636   2.443  -0.023   1.170 -1.5594  0.7954  2.4767
  879SOL    HW2 2637   2.295   0.007   1.093  0.1737 -0.4510  0.3331
  880SOL     OW 2638   0.669   0.485   2.242 -0.1488 -0.3209  0.2335
  880SOL    HW1 2639   0.619   0.416   2.299 -0.5218  0.0152 -2.9916
  880SOL    HW2 2640   0.722   0.438   2.167 -1.4167  1.7768 -0.1258
  881SOL     OW 2641   0.894   0.066   0.484 -0.3728  0.7703  0.1935
  881SOL    HW1 2642   0.946  -0.024   0.499 -1.6522 -0.8738  0.0968
  881SOL    HW2 2643   0.798   0.038   0.458 -2.9678 -3.1224  1.7323
  882SOL     OW 2644   2.722   1.704   1.658 -0.1034 -0.5204  0.0451
  882SOL    HW1 2645   2.801   1.644   1.625  1.7018 -0.4178 -1.1479
  882SOL    HW2 2646   2.716   1.715   1.758 -0.7398  0.8855 -0.5237
  883SOL     OW 2647   0.875   0.617   0.974 -0.3289  0.0474 -0.1802
  883SOL    HW1 2648   0.904   0.705   1.020  2.2096 -3.3693 -1.3928
  883SOL    HW2 2649   0.898   0.535   1.035  0.2465 -0.1284  0.0189
  884SOL     OW 2650   1.176   1.779   1.149  0.2060 -0.3645 -0.0984
  884SOL    HW1 2651   1.170   1.699   1.084 -2.0506  2.6930 -0.4788
  884SOL    HW2 2652   1.130   1.866   1.103  1.0382  2.1745 -2.9624
  885SOL     OW 2653   2.351   1.810   2.294 -0.4273  0.1832  0.0926
  885SOL    HW1 2654   2.274   1.789   2.358  0.5890  0.9609  0.4760
  885SOL    HW2 2655   2.341   1.910   2.273  0.0328 -4.2909 -0.4637
  886SOL     OW 2656   2.586   0.421   1.812  0.0591  0.5032  0.4275
  886SOL    HW1 2657   2.628   0.385   1.899 -0.1166  0.1281  0.5041
  886SOL    HW2 2658   2.641   0.500   1.768 -1.7048  1.1727 -1.7142
  887SOL     OW 2659   0.109   2.021   1.256  0.2212  0.0381 -0.2475
  887SOL    HW1 2660   0.031   1.997   1.195  1.1711 -0.3599 -0.2779
  887SOL    HW2 2661   0.105   2.120   1.282 -0.1527 -2.1726 -2.4782
  888SOL     OW 2662   0.571   1.324   1.564 -0.7007  0.9099  0.1362
  888SOL    HW1 2663   0.597   1.342   1.463  0.5146 -0.0553 -0.4257
  888SOL    HW2 2664   0.532   1.227   1.581 -1.3915 -1.9552  2.1471
  889SOL     OW 2665   0.816   2.534   2.170  0.2227  0.8446  0.5845
  889SOL    HW1 2666   0.748   2.459   2.179  0.5331 -1.7641  0.0674
  889SOL    HW2 2667   0.883   2.503   2.092  2.3273 -1.5218 -0.5353
  890SOL     OW 2668   2.396   2.454   0.201 -0.4895  0.1014 -0.0701
  890SOL    HW1 2669   2.445   2.533   0.154 -1.6752  0.7491  1.2280
  890SOL    HW2 2670   2.334   2.488   0.278  1.6074 -1.8112 -0.0492
  891SOL     OW 2671   2.607   1.660   0.766  0.1537 -0.6138  0.0703
  891SOL    HW1 2672   2.614   1.707   0.860  1.0850 -1.3466  2.3459
  891SOL    HW2 2673   2.535   1.591   0.747  0.8005 -0.5083 -1.5083
  892SOL     OW 2674   0.372   0.240   2.148 -0.2852  0.2042  0.3510
  892SOL    HW1 2675   0.379   0.306   2.068  0.7960 -1.7729 -3.9670
  892SOL    HW2 2676   0.444   0.262   2.221 -0.3344  2.6854  0.1356
  893SOL     OW 2677   1.671   0.254   2.739  0.3356 -0.1874 -0.1667
  893SOL    HW1 2678   1.749   0.322   2.744 -0.6308 -1.2589 -0.0429
  893SOL    HW2 2679   1.575   0.295   2.722 -0.2830 -0.0760 -1.3284
  894SOL     OW 2680   2.192   1.997   0.011  0.3267  0.3808  0.3397
  894SOL    HW1 2681   2.160   1.924  -0.054 -0.4119 -2.2017 -1.6839
  894SOL    HW2 2682   2.206   1.963   0.111 -1.2292  2.4733 -0.1037
  895SOL     OW 2683   2.847   1.424   0.906  0.1511  0.3016 -0.7787
  895SOL    HW1 2684   2.934   1.378   0.935 -1.7159 -0.6945  0.1817
  895SOL    HW2 2685   2.832   1.520   0.951  1.8015 -1.2797  2.6107
  896SOL     OW 2686   1.815   1.846   1.212 -0.1568  0.4898  0.0524
  896SOL    HW1 2687   1.833   1.786   1.130 -2.0051 -0.5390  0.7785
  896SOL    HW2 2688   1.736   1.909   1.198  1.5415 -0.1186  1.0291
  897SOL     OW 2689   0.298   0.575   0.027 -0.6566 -0.5096 -0.7091
  897SOL    HW1 2690   0.249   0.635  -0.044  0.0118  0.5842  0.3764
  897SOL    HW2 2691   0.389   0.620   0.036 -2.3424 -0.2956 -0.9428
  898SOL     OW 2692   0.575   2.875   1.106 -0.1383 -0.5254 -0.1922
  898SOL    HW1 2693   0.530   2.966   1.123  1.6038  0.3039 -0.1397
  898SOL    HW2 2694   0.648   2.853   1.178  1.1415 -0.5236  0.2848
  899SOL     OW 2695   2.772   0.891   1.283 -0.2564 -0.0513  0.0295
  899SOL    HW1 2696   2.714   0.891   1.196 -1.8204 -1.3863 -0.1442
  899SOL    HW2 2697   2.872   0.871   1.262  1.4990  1.5641  2.5600
  900SOL     OW 2698   1.042   2.579   2.370 -0.2134  0.3994 -0.0382
  900SOL    HW1 2699   0.988   2.577   2.284 -0.3561 -3.1455 -0.5711
  900SOL    HW2 2700   0.986   2.535   2.449  1.6862 -3.4551 -1.7018
  901SOL     OW 2701   1.901   2.353   1.353 -0.2007 -0.2324  0.7114
  901SOL    HW1 2702   1.881   2.336   1.254 -0.2208  0.6943  0.9006
  901SOL    HW2 2703   1.989   2.316   1.383 -0.1975  1.3331 -1.7692
  902SOL     OW 2704   2.525   1.659   1.451 -0.4814  0.3487 -0.1367
  902SOL    HW1 2705   2.589   1.673   1.534 -0.9609 -1.1085 -0.3729
  902SOL    HW2 2706   2.577   1.620   1.366 -1.1287 -1.0754 -1.9227
  903SOL     OW 2707   0.257   2.480   1.979 -0.2704  0.1686 -0.6843
  903SOL    HW1 2708   0.179   2.424   1.938 -2.0858 -1.7167  2.6329
  903SOL    HW2 2709   0.291   2.551   1.909  0.0094 -1.7534 -0.5812
  904SOL     OW 2710   2.073   0.751   2.474 -0.0609 -0.8092 -0.7485
  904SOL    HW1 2711   2.028   0.707   2.559 -0.1810 -1.6160  0.9164
  904SOL    HW2 2712   2.014   0.750   2.391  0.1863 -0.1316  0.5560
  905SOL     OW 2713   2.813   0.065   2.568  0.7279 -0.2323 -0.0130
  905SOL    HW1 2714   2.882   0.001   2.522  1.8695  1.9110  0.1997
  905SOL    HW2 2715   2.818   0.169   2.542 -1.4735  0.6480  0.2684
  906SOL     OW 2716   0.147   1.758   1.875 -0.2371  0.4559 -0.3343
  906SOL    HW1 2717   0.093   1.747   1.786  0.2499 -0.4478 -0.2307
  906SOL    HW2 2718   0.224   1.827   1.852 -0.9786  0.9141 -0.7561
  907SOL     OW 2719   0.135   2.414   0.993 -0.3476  0.1504 -0.0435
  907SOL    HW1 2720   0.237   2.409   1.007  1.4728 -0.9544  2.4714
  907SOL    HW2 2721   0.093   2.321   0.966 -3.5851 -1.6332 -1.1194
  908SOL     OW 2722   2.693   2.951   0.373 -0.1520 -0.4172  0.2688
  908SOL    HW1 2723   2.662   2.998   0.282 -3.7642 -1.0528  0.2285
  908SOL    HW2 2724   2.771   2.890   0.360 -1.9470 -0.8674  0.6429
  909SOL     OW 2725   0.761   1.035   2.673  0.2862  0.0406  0.8767
  909SOL    HW1 2726   0.706   0.956   2.633 -1.6705 -0.3953 -0.5756
  909SOL    HW2 2727   0.839   1.065   2.614 -0.4385  0.4857 -1.7556
  910SOL     OW 2728   1.737   1.838   2.144  0.5282 -0.2123 -0.2957
  910SOL    HW1 2729   1.785   1.894   2.069  0.2088  0.4208 -3.0097
  910SOL    HW2 2730   1.665   1.893   2.189  0.0508 -1.4426  3.1392
  911SOL     OW 2731   1.851   2.928   1.551  1.0072  0.2161  0.4580
  911SOL    HW1 2732   1.925   2.897   1.484 -2.2927 -0.9198 -0.1865
  911SOL    HW2 2733   1.839   2.860   1.629  0.0085 -0.7831 -0.5849
  912SOL     OW 2734   2.899   0.983   0.731 -0.1363  0.3425  0.5975
  912SOL    HW1 2735   2.913   0.980   0.836  1.6799  0.0309 -1.6168
  912SOL    HW2 2736   2.852   1.068   0.690 -0.4447 -0.0728 -0.4019
  913SOL     OW 2737   2.554   1.292   1.482 -0.3994 -0.0039  0.4797
  913SOL    HW1 2738   2.563   1.186   1.478 -1.1952 -0.8677  2.2356
  913SOL    HW2 2739   2.617   1.341   1.414 -2.2460 -1.2602  1.2099
  914SOL     OW 2740   2.908   0.563   1.221 -0.5975  0.1389  0.0457
  914SOL    HW1 2741   2.959   0.477   1.237 -1.1670 -1.4399  1.8271
  914SOL    HW2 2742   2.860   0.593   1.310  1.9059 -2.0231  2.8557
  915SOL     OW 2743   1.235   0.771   1.074 -0.2021 -0.0481 -0.0864
  915SOL    HW1 2744   1.271   0.771   1.175  1.7197  3.1005 -0.8608
  915SOL    HW2 2745   1.130   0.768   1.076 -0.0229 -0.3296  1.8585
  916SOL     OW 2746   0.592   0.020   0.677 -0.1498 -0.2934 -0.0000
  916SOL    HW1 2747   0.630   0.098   0.738 -1.5833 -1.4884  0.4562
  916SOL    HW2 2748   0.569   0.052   0.581  0.6234 -1.5260 -0.3819
  917SOL     OW 2749   2.846   2.619   1.952 -0.2566 -0.0113  0.4488
  917SOL    HW1 2750   2.753   2.660   1.952  2.0467 -1.4431 -3.1975
  917SOL    HW2 2751   2.914   2.681   1.904 -2.0686  0.1300 -0.7019
  918SOL     OW 2752   1.043   2.213   2.960  0.4573  0.4328  0.0136
  918SOL    HW1 2753   1.001   2.233   3.052 -0.3351 -0.3359  1.0135
  918SOL    HW2 2754   1.074   2.115   2.957 -4.1167 -1.3225  0.6140
  919SOL     OW 2755   0.859   1.669   2.808  0.2603 -0.5426  0.3204
  919SOL    HW1 2756   0.913   1.732   2.741  2.5622  0.2070  0.8038
  919SOL    HW2 2757   0.822   1.576   2.769 -1.4157  1.1801  0.2648
  920SOL     OW 2758   1.240   1.868   2.453 -0.0270  0.2744  0.6631
  920SOL    HW1 2759   1.294   1.829   2.373  1.2131 -1.1611 -1.3507
  920SOL    HW2 2760   1.246   1.809   2.538 -1.4304 -2.0266 -0.7130
  921SOL     OW 2761   1.063   0.018   2.614  1.0793  0.0871  0.0499
  921SOL    HW1 2762   1.070   0.030   2.509  0.7826  2.7611  0.7478
  921SOL    HW2 2763   0.968  -0.022   2.642 -3.3028 -0.3481 -0.8424
  922SOL     OW 2764   2.167   2.405   2.793  0.3857  0.3036  0.3458
  922SOL    HW1 2765   2.190   2.302   2.799  1.0095  0.6036 -0.5907
  922SOL    HW2 2766   2.091   2.422   2.722  3.5487  1.9802  2.2248
  923SOL     OW 2767   1.212   2.670   0.263  0.4414 -0.3727 -0.2967
  923SOL    HW1 2768   1.276   2.726   0.323 -0.4128 -1.3327 -0.8767
  923SOL    HW2 2769   1.245   2.571   0.257 -0.5650  1.1190  0.3608
  924SOL     OW 2770   2.906   1.519   0.112 -0.0534 -0.1847 -0.6649
  924SOL    HW1 2771   2.820   1.538   0.054  1.2855  1.6352  1.1123
  924SOL    HW2 2772   2.992   1.499   0.056  0.6119 -2.0100  0.4126
  925SOL     OW 2773   0.043   2.954   1.519  0.0602  0.3879 -0.0893
  925SOL    HW1 2774  -0.044   3.013   1.535  1.2446  3.7175  0.0204
  925SOL    HW2 2775   0.025   2.870   1.461  1.1129  2.3517 -2.6656
  926SOL     OW 2776   1.326   2.825   1.226  0.3962 -0.1433  0.5207
  926SOL    HW1 2777   1.402   2.817   1.157 -1.9953  0.6964  0.5045
  926SOL    HW2 2778   1.349   2.901   1.292  1.0767 -0.8494  0.3162
  927SOL     OW 2779   0.354   2.666   1.751 -0.1337  0.2279  0.4393
  927SOL    HW1 2780   0.322   2.610   1.666  0.4102 -0.9535  0.0633
  927SOL    HW2 2781   0.318   2.762   1.753 -2.4460 -1.7597 -1.2698
  928SOL     OW 2782   1.544   2.064   2.244  0.2536 -0.3930 -0.3351
  928SOL    HW1 2783   1.543   2.156   2.194 -2.5592  0.9177 -1.1718
  928SOL    HW2 2784   1.458   2.013   2.238 -1.0086 -1.3428 -1.1488
  929SOL     OW 2785   2.459   2.466   2.906 -0.4819  0.3107  0.0117
  929SOL    HW1 2786   2.356   2.441   2.905  1.5960 -1.1857 -2.0662
  929SOL    HW2 2787   2.493   2.471   2.808  0.9710  2.1501 -0.8097
  930SOL     OW 2788   2.177   1.959   1.040 -0.2461 -0.1580 -0.1940
  930SOL    HW1 2789   2.144   1.918   1.133 -2.4335 -0.0769 -0.8087
  930SOL    HW2 2790   2.247   2.034   1.054  0.1193  1.8504  0.4317
  931SOL     OW 2791   0.562   1.707   2.715  0.5928 -0.0584  0.2576
  931SOL    HW1 2792   0.630   1.754   2.778 -2.4024 -0.6748  3.1092
  931SOL    HW2 2793   0.613   1.632   2.660 -3.1315 -1.1840 -1.3288
  932SOL     OW 2794   0.432   0.086   2.967 -0.2231  0.0368  0.0641
  932SOL    HW1 2795   0.517   0.127   2.937 -2.0767  2.2800 -0.0719
  932SOL    HW2 2796   0.442  -0.003   3.026 -0.1331 -3.3627  0.1872
  933SOL     OW 2797   1.041   0.775   3.046  0.1444  0.0246 -0.3482
  933SOL    HW1 2798   1.043   0.802   3.145 -0.9793 -2.5264 -0.8465
  933SOL    HW2 2799   0.997   0.846   2.987  1.6084 -0.0795  0.4043
  934SOL     OW 2800   0.835   2.922   2.660  0.4523  0.3476  0.0603
  934SOL    HW1 2801   0.838   2.895   2.559  1.0081 -1.0156  1.3467
  934SOL    HW2 2802   0.915   2.878   2.717  1.4256 -1.3288 -3.1302
  935SOL     OW 2803   0.021   0.556   0.847 -0.0118  0.2317 -0.3735
  935SOL    HW1 2804   0.033   0.543   0.744 -0.1117 -1.1576 -1.7462
  935SOL    HW2 2805  -0.078   0.594   0.867  0.5544 -1.3873  0.6143
  936SOL     OW 2806   1.093   2.870   0.086 -0.4581  0.5219 -0.0086
  936SOL    HW1 2807   1.143   2.906  -0.003 -0.6193 -0.3167  0.9595
  936SOL    HW2 2808   1.140   2.794   0.138 -1.5643 -0.2601 -1.2310
  937SOL     OW 2809   1.951   2.624   2.096 -0.1357 -0.4092  0.2599
  937SOL    HW1 2810   1.940   2.667   2.185 -0.2721 -2.2092  0.4612
  937SOL    HW2 2811   2.032   2.668   2.046  0.9611  2.5756 -1.6946
  938SOL     OW 2812   2.772   2.052   1.528 -0.0346 -0.0967 -0.3939
  938SOL    HW1 2813   2.730   2.143   1.520  1.0814 -0.0534 -1.2301
  938SOL    HW2 2814   2.869   2.064   1.564  0.5896 -2.2190 -1.8896
  939SOL     OW 2815   2.789   1.210   2.483  0.4404  0.0340  0.0334
  939SOL    HW1 2816   2.849   1.176   2.402 -1.4167  0.3329 -1.8058
  939SOL    HW2 2817   2.807   1.169   2.579 -0.2109 -2.7237 -2.8884
  940SOL     OW 2818   1.013   0.471   2.739 -0.2061  0.3501  0.0799
  940SOL    HW1 2819   1.068   0.383   2.754  1.3595 -1.4993 -0.2972
  940SOL    HW2 2820   0.914   0.473   2.704 -2.7374 -0.5623  1.5815
  941SOL     OW 2821   0.064   2.824   2.280  0.6622 -0.3366  0.0121
  941SOL    HW1 2822   0.096   2.728   2.263 -2.0174  5.1558  2.3880
  941SOL    HW2 2823   0.127   2.881   2.341 -1.8317  2.2466 -0.0364
  942SOL     OW 2824   0.060   0.088   2.465 -0.2870  0.6962 -0.1217
  942SOL    HW1 2825   0.118   0.116   2.548  0.7983  0.4933  0.3552
  942SOL    HW2 2826   0.082   0.138   2.374  1.7983  1.1118 -3.2252
  943SOL     OW 2827   2.116   1.714   2.400 -0.1166 -0.3179 -0.3924
  943SOL    HW1 2828   2.095   1.636   2.337 -2.6507 -2.2120 -0.9746
  943SOL    HW2 2829   2.094   1.684   2.502 -0.6688 -1.4966  0.8744
  944SOL     OW 2830   2.170   2.363   1.464 -0.4821  0.3293 -0.0250
  944SOL    HW1 2831   2.220   2.435   1.519 -0.6994 -1.5826  3.2583
  944SOL    HW2 2832   2.144   2.275   1.511  0.7670 -0.4787 -0.1286
  945SOL     OW 2833   0.720   1.489   0.289  0.0649  0.0881  0.6957
  945SOL    HW1 2834   0.656   1.545   0.228  1.2163  2.2859 -1.8472
  945SOL    HW2 2835   0.753   1.398   0.249  0.5543 -1.2778 -1.9372
  946SOL     OW 2836   0.389   0.929   2.470 -0.1783 -0.1484  0.3517
  946SOL    HW1 2837   0.303   0.876   2.435  0.7521  1.1240 -0.1480
  946SOL    HW2 2838   0.371   1.029   2.494 -1.8010  0.5455  1.7633
  947SOL     OW 2839   1.557   0.462   0.032  0.1147  0.1442  0.6155
  947SOL    HW1 2840   1.516   0.521  -0.041 -0.1546  1.5301  3.1508
  947SOL    HW2 2841   1.519   0.360   0.043 -0.0666 -1.8337 -0.0447
  948SOL     OW 2842   1.957   3.060   2.151  0.3650  0.2118  0.4857
  948SOL    HW1 2843   1.988   3.027   2.061 -2.2894 -0.8675  1.9274
  948SOL    HW2 2844   1.938   2.974   2.211 -1.2142 -0.7688 -3.1950
  949SOL     OW 2845   0.568   2.487   0.536  0.2877 -0.1565  0.1078
  949SOL    HW1 2846   0.575   2.584   0.506  2.5589 -1.5126  2.3939
  949SOL    HW2 2847   0.607   2.471   0.627  2.2041  1.9934 -0.9891
  950SOL     OW 2848   0.203   2.168   3.043 -0.1679 -0.5856  0.3992
  950SOL    HW1 2849   0.116   2.225   3.050 -2.2841 -2.6340  2.5640
  950SOL    HW2 2850   0.206   2.108   2.956 -1.8031 -1.3675 -0.2487
  951SOL     OW 2851   1.206   2.757   2.727 -0.2917  0.8348 -0.4708
  951SOL    HW1 2852   1.262   2.806   2.659 -3.9101  1.2226  0.1289
  951SOL    HW2 2853   1.124   2.811   2.769 -1.4085 -1.0039  1.6973
  952SOL     OW 2854   0.028   1.696   0.449  0.6136 -0.7515  0.5818
  952SOL    HW1 2855   0.091   1.775   0.470  1.4232  1.9939  2.4065
  952SOL    HW2 2856   0.045   1.633   0.529  0.2538  1.2347 -0.0002
  953SOL     OW 2857   2.473   1.766   0.271  0.0892  0.3088 -0.3204
  953SOL    HW1 2858   2.494   1.661   0.259 -2.1729 -1.3649 -0.6437
  953SOL    HW2 2859   2.480   1.819   0.184 -2.2715 -1.2109  2.1592
  954SOL     OW 2860   2.178   0.544   0.951 -0.2194 -0.2748 -0.1834
  954SOL    HW1 2861   2.177   0.566   0.847 -0.6100  1.0137 -1.8835
  954SOL    HW2 2862   2.276   0.538   0.989  0.6461  0.1216 -0.3045
  955SOL     OW 2863   0.192   2.633   1.288 -0.2804  0.4457  0.2233
  955SOL    HW1 2864   0.099   2.676   1.295  1.6088  0.0149  0.1260
  955SOL    HW2 2865   0.226   2.623   1.190 -0.2012  1.5058 -3.4640
  956SOL     OW 2866   2.741   2.452   2.442 -0.1504  0.3208  0.2678
  956SOL    HW1 2867   2.768   2.356   2.451 -1.6632  1.1756 -2.6456
  956SOL    HW2 2868   2.741   2.486   2.342  1.9336  0.2593  0.2131
  957SOL     OW 2869   1.585   2.067   2.787 -0.0722 -0.0901  0.2433
  957SOL    HW1 2870   1.553   1.967   2.776 -0.9995  0.9415 -2.5707
  957SOL    HW2 2871   1.591   2.119   2.698 -0.0020 -0.3334  0.0775
  958SOL     OW 2872   2.647   2.295   2.987  0.7384 -0.6047 -0.0784
  958SOL    HW1 2873   2.571   2.364   2.976  1.3218  0.5802  1.0497
  958SOL    HW2 2874   2.629   2.228   3.059  2.3236 -2.1552 -2.2880
  959SOL     OW 2875   0.259   2.801   0.079 -0.1114  0.2863 -0.5957
  959SOL    HW1 2876   0.163   2.775   0.043 -1.0673 -1.7458  1.3185
  959SOL    HW2 2877   0.292   2.734   0.150  0.3680  2.4049 -0.7312
  960SOL     OW 2878   1.973   0.433   1.935 -0.5381 -0.4646 -0.3797
  960SOL    HW1 2879   1.938   0.521   1.888 -1.6672 -0.8576 -2.4440
  960SOL    HW2 2880   1.974   0.440   2.036 -0.7395 -1.9118 -2.7964
  961SOL     OW 2881   2.580   1.808   1.021  0.2479  0.0573  0.7428
  961SOL    HW1 2882   2.586   1.907   0.985 -1.6129 -1.3352  2.9269
  961SOL    HW2 2883   2.541   1.803   1.120 -0.4542 -0.3734  0.6002
  962SOL     OW 2884   1.294   0.884   0.069 -0.6824  0.0443 -0.1670
  962SOL    HW1 2885   1.266   0.928  -0.023 -1.5205 -0.8144 -2.6546
  962SOL    HW2 2886   1.292   0.960   0.141  1.2178  2.7963 -2.8615
  963SOL     OW 2887   2.218   2.548   1.865  0.0384 -0.2480  0.7082
  963SOL    HW1 2888   2.178   2.453   1.869  0.0873 -1.2051 -1.7474
  963SOL    HW2 2889   2.231   2.587   1.955  0.0751 -2.2576 -1.6194
  964SOL     OW 2890   2.372   0.369   1.644  0.2599  0.0955  0.3780
  964SOL    HW1 2891   2.453   0.376   1.707  0.5689  1.6795 -1.3739
  964SOL    HW2 2892   2.399   0.401   1.551 -1.9038  1.2788  0.0723
  965SOL     OW 2893   2.624   3.062   0.135 -0.1371  0.1554  0.6360
  965SOL    HW1 2894   2.680   3.003   0.068 -2.7361  0.1353  0.0833
  965SOL    HW2 2895   2.523   3.071   0.097 -3.5095 -1.4598 -2.0334
  966SOL     OW 2896   2.499   2.484   2.207 -0.7549  0.1111  0.0261
  966SOL    HW1 2897   2.451   2.526   2.290  0.1279 -1.6628  0.8415
  966SOL    HW2 2898   2.467   2.522   2.115  0.3652  1.1566 -1.2657
  967SOL     OW 2899   2.810   2.776   2.501 -0.0244 -0.7674 -0.3349
  967SOL    HW1 2900   2.828   2.731   2.409  0.1092  1.8644 -1.9064
  967SOL    HW2 2901   2.879   2.858   2.517  2.6565 -0.5363  0.2200
  968SOL     OW 2902   1.952   1.016   2.616  0.0557  0.8898  0.0507
  968SOL    HW1 2903   1.867   1.062   2.593  2.6921  0.7327 -0.2862
  968SOL    HW2 2904   1.977   0.935   2.559 -2.6106 -0.3399 -4.0649
  969SOL     OW 2905   2.775   2.458   1.076 -0.6867  0.4010  0.6954
  969SOL    HW1 2906   2.703   2.422   1.013 -0.2688 -0.4565  3.3260
  969SOL    HW2 2907   2.830   2.382   1.123  1.4488 -0.1875 -0.1354
  970SOL     OW 2908   1.045   2.123   1.784  0.5511 -0.2770  0.6843
  970SOL    HW1 2909   0.955   2.140   1.730 -0.1847  0.4829  2.1401
  970SOL    HW2 2910   1.027   2.159   1.882 -0.5600 -1.0367  0.9071
  971SOL     OW 2911   2.852   2.061   1.863 -0.4023 -0.3886  0.0148
  971SOL    HW1 2912   2.815   2.157   1.878 -0.1298 -0.4400 -2.3294
  971SOL    HW2 2913   2.919   2.055   1.777 -1.0640  2.6231 -2.3791
  972SOL     OW 2914   1.973   2.451   0.185 -0.3022 -0.8022 -0.6436
  972SOL    HW1 2915   1.976   2.362   0.136 -2.5039 -1.1737 -0.2373
  972SOL    HW2 2916   2.029   2.466   0.271 -1.2069  0.0308 -0.6409
  973SOL     OW 2917   1.300   1.065   1.874  0.1942 -0.1117 -0.0201
  973SOL    HW1 2918   1.236   1.034   1.799  2.5100  1.6360  0.4538
  973SOL    HW2 2919   1.269   1.157   1.912 -1.2598  1.0130 -2.5708
  974SOL     OW 2920   1.633   0.554   1.985  0.4094  0.4337 -0.3886
  974SOL    HW1 2921   1.727   0.581   1.948 -0.4525 -2.8687  0.3460
  974SOL    HW2 2922   1.556   0.622   1.961  0.9982 -3.5632 -1.6645
  975SOL     OW 2923   2.342   3.083   0.047 -0.2619 -0.7757 -0.6064
  975SOL    HW1 2924   2.283   3.003   0.065  1.9967 -0.1281 -3.0576
  975SOL    HW2 2925   2.373   3.091  -0.051  0.1383  0.7406 -0.0573
  976SOL     OW 2926   1.914   2.842   2.320  0.2830 -0.1671 -0.1403
  976SOL    HW1 2927   1.825   2.799   2.279 -0.7574  2.1616  0.4941
  976SOL    HW2 2928   1.927   2.812   2.418 -0.3372  0.6864  0.6011
  977SOL     OW 2929   0.454   0.700   1.068  0.4286  0.5645 -0.6153
  977SOL    HW1 2930   0.366   0.730   1.017 -1.9368 -1.3830 -1.3326
  977SOL    HW2 2931   0.531   0.683   0.995  0.2424 -1.9578  0.5113
   3.10000   3.10000   3.10000
