1000 SPC/Fw water molecules t=   1.52000 step= 1520
 2931
    1SOL     OW    1   2.446   0.351   2.653  0.3423  0.3904 -0.1090
    1SOL    HW1    2   2.467   0.247   2.661  0.4278 -1.9772 -1.1021
    1SOL    HW2    3   2.506   0.405   2.723 -1.0129 -0.2820 -1.4305
    2SOL     OW    4   2.716   2.988   1.401 -0.1378  0.0662 -0.2397
    2SOL    HW1    5   2.810   2.999   1.364 -1.5212 -0.4710 -0.9277
    2SOL    HW2    6   2.685   3.060   1.466  2.1261  0.9225  3.2362
    3SOL     OW    7   2.660   2.551   0.397  0.4168 -0.0588 -0.1370
    3SOL    HW1    8   2.617   2.457   0.399  1.2257  1.5540 -0.4386
    3SOL    HW2    9   2.716   2.574   0.483  0.1727  0.1858  0.2581
    4SOL     OW   10   1.243   1.530   2.410  0.6644  0.4493  0.2073
    4SOL    HW1   11   1.164   1.520   2.345 -1.2479 -0.0162  0.2669
    4SOL    HW2   12   1.231   1.466   2.489  1.0938  0.2637 -1.2274
    5SOL     OW   13   1.192   1.542   2.950 -0.0934 -0.6351  0.8170
    5SOL    HW1   14   1.237   1.634   2.977  0.3574 -1.0310 -0.7773
    5SOL    HW2   15   1.098   1.549   2.903 -1.1862  1.9312  0.2338
    6SOL     OW   16   0.282   1.787   3.012  0.0590  0.5422 -0.3587
    6SOL    HW1   17   0.231   1.818   3.096 -0.6008  0.1481  3.1349
    6SOL    HW2   18   0.325   1.689   3.022 -0.5708 -3.9882  0.1417
    7SOL     OW   19   2.467   0.898   1.016 -0.3891 -0.0652 -0.7048
    7SOL    HW1   20   2.373   0.885   1.054 -0.2724 -1.3085  0.0059
    7SOL    HW2   21   2.483   0.865   0.920  1.2314  0.4548 -0.0402
    8SOL     OW   22   0.368   0.686   1.534  0.0080 -0.2731  1.0200
    8SOL    HW1   23   0.450   0.622   1.523  1.2565  2.2236  1.6652
    8SOL    HW2   24   0.354   0.745   1.448 -0.2409 -2.7521 -0.7713
    9SOL     OW   25   1.164   0.862   2.335  0.2126  0.3840 -0.3461
    9SOL    HW1   26   1.252   0.893   2.280 -0.2633 -0.2027 -0.1054
    9SOL    HW2   27   1.125   0.770   2.304  0.3042 -0.8268 -2.3619
   10SOL     OW   28   0.742   1.408   1.254  0.2961  0.5291 -0.6814
   10SOL    HW1   29   0.653   1.388   1.200  1.1395  0.5787  3.0122
   10SOL    HW2   30   0.734   1.494   1.305  0.7127 -1.0818  2.3355
   11SOL     OW   31   2.308   2.828   0.863  0.4488  0.3152 -0.3317
   11SOL    HW1   32   2.254   2.793   0.942 -0.1071 -1.7518  1.8734
   11SOL    HW2   33   2.393   2.879   0.894 -0.3019  0.2509  0.7709
   12SOL     OW   34   1.515   0.914   0.383  0.1675 -0.5195 -0.2214
   12SOL    HW1   35   1.480   0.978   0.308 -0.3982  0.4070 -0.1949
   12SOL    HW2   36   1.544   0.817   0.354  0.2937 -2.2414  2.0408
   13SOL     OW   37   2.437   0.736   1.795  0.8432  0.7328  0.2220
   13SOL    HW1   38   2.375   0.669   1.847 -1.5506 -0.1018 -2.5334
   13SOL    HW2   39   2.456   0.698   1.697 -1.9602 -0.6644  0.6775
   14SOL     OW   40   1.975   3.078   0.595 -0.3714 -0.0954 -0.1078
   14SOL    HW1   41   1.882   3.121   0.591  1.7816  1.6275  2.2351
   14SOL    HW2   42   2.000   3.031   0.687  2.4438 -0.3238  1.8313
   15SOL     OW   43   1.886   2.064   2.657 -0.1639  0.0793 -0.4345
   15SOL    HW1   44   1.839   2.081   2.746 -0.3543  0.4170 -2.0220
   15SOL    HW2   45   1.840   1.994   2.596  0.7438 -0.8200  0.4266
   16SOL     OW   46   1.591   1.750   3.031  0.0373  0.1484 -0.0857
   16SOL    HW1   47   1.607   1.649   3.040  0.8802 -0.6115  0.4853
   16SOL    HW2   48   1.675   1.808   3.048 -0.4726 -2.7742 -0.3126
   17SOL     OW   49   0.118   0.429   0.182  0.2523  0.1388  0.1596
   17SOL    HW1   50   0.207   0.459   0.131  2.3163 -1.8254  1.2320
   17SOL    HW2   51   0.035   0.431   0.122 -0.9800 -0.8024  1.2210
   18SOL     OW   52   0.890   2.942   2.134 -0.5367 -0.8009  0.2772
   18SOL    HW1   53   0.887   2.861   2.201  1.7230  1.3239 -2.2523
   18SOL    HW2   54   0.968   2.938   2.068 -0.7476 -2.6018  1.1031
   19SOL     OW   55   0.599   0.854   1.913  0.0676 -0.0394  0.2257
   19SOL    HW1   56   0.669   0.800   1.964 -0.4272  0.1523  1.4269
   19SOL    HW2   57   0.636   0.944   1.877  0.1112 -1.1214  1.0818
   20SOL     OW   58   0.209   2.859   0.846 -0.3059  0.1289  0.4660
   20SOL    HW1   59   0.104   2.871   0.838 -3.0961  0.6325 -2.3844
   20SOL    HW2   60   0.238   2.774   0.793 -1.4616  1.9666  0.5563
   21SOL     OW   61   2.745   0.308   1.993 -0.7549  0.3653  0.2599
   21SOL    HW1   62   2.714   0.227   1.935 -1.9620  1.9515  1.6491
   21SOL    HW2   63   2.825   0.287   2.053  1.0188  1.7572 -1.3853
   22SOL     OW   64   2.354   0.195   0.135 -0.4714  0.0225 -0.4548
   22SOL    HW1   65   2.371   0.098   0.090  0.7868  1.7757  0.0321
   22SOL    HW2   66   2.295   0.256   0.080  1.6030 -0.9544  2.3629
   23SOL     OW   67   2.828   0.532   0.667 -0.2602  0.7329 -0.2412
   23SOL    HW1   68   2.845   0.434   0.628 -1.0491 -0.8252 -0.3132
   23SOL    HW2   69   2.818   0.612   0.600 -2.4447  0.6710 -0.5249
   24SOL     OW   70   0.248   1.849   0.407 -0.0234  0.3477 -0.6699
   24SOL    HW1   71   0.215   1.918   0.335  0.0123 -1.2260 -1.0144
   24SOL    HW2   72   0.348   1.834   0.392  2.4294  1.2761 -0.5427
   25SOL     OW   73   2.268   0.598   0.207  0.3873 -0.4016 -0.2890
   25SOL    HW1   74   2.269   0.608   0.104  0.4075  1.5421 -0.5860
   25SOL    HW2   75   2.314   0.512   0.243 -0.8825  0.0402  0.7231
   26SOL     OW   76   2.431   2.149   2.116 -0.3070  0.0992  0.4211
   26SOL    HW1   77   2.512   2.201   2.159 -1.7675  1.2981  1.9120
   26SOL    HW2   78   2.465   2.071   2.057  2.5590  0.3888  1.9360
   27SOL     OW   79   0.563   2.922   0.156  0.5722  0.1775  0.4467
   27SOL    HW1   80   0.633   2.990   0.186  0.3906 -2.4027  1.4605
   27SOL    HW2   81   0.529   2.925   0.059 -0.1510  0.5564 -0.8651
   28SOL     OW   82   1.614   0.132   0.300 -0.4766  0.6247 -0.9276
   28SOL    HW1   83   1.651   0.076   0.224 -0.9627 -0.2946  0.1758
   28SOL    HW2   84   1.646   0.235   0.293  0.1117  2.4350 -0.3382
   29SOL     OW   85   2.019   0.618   0.286  0.5019  0.1540  0.0770
   29SOL    HW1   86   2.014   0.684   0.366 -0.3850 -1.0250  1.8109
   29SOL    HW2   87   2.109   0.612   0.238 -1.0692 -0.1664 -2.8156
   30SOL     OW   88   0.183   2.075   0.911 -0.6144  0.4827  0.4009
   30SOL    HW1   89   0.224   1.989   0.873 -0.3888  0.7176  0.4561
   30SOL    HW2   90   0.080   2.081   0.903 -0.8845 -2.0408 -1.7336
   31SOL     OW   91   2.178   0.050   2.358 -0.4196 -0.2956 -0.1822
   31SOL    HW1   92   2.144   0.034   2.456  0.2341 -1.4126  1.8181
   31SOL    HW2   93   2.103   0.021   2.286 -3.4586 -0.5214 -0.0926
   32SOL     OW   94   3.006   3.070   0.280  0.5625  0.8145  0.5928
   32SOL    HW1   95   2.981   2.969   0.303  1.7215 -2.2407  1.7985
   32SOL    HW2   96   3.085   3.106   0.336 -0.0899 -0.7410  1.2558
   33SOL     OW   97   0.894   0.192   0.623  0.1765 -0.2190 -0.3758
   33SOL    HW1   98   0.895   0.129   0.536  0.8053 -0.2863 -0.5505
   33SOL    HW2   99   0.981   0.245   0.629 -1.6929 -0.1723  0.0262
   34SOL     OW  100   0.326   2.694   1.068  0.2455  0.0093 -0.5567
   34SOL    HW1  101   0.260   2.742   1.000 -1.1003 -1.7235  0.0809
   34SOL    HW2  102   0.417   2.742   1.089 -0.3649 -1.5673 -1.7060
   35SOL     OW  103   0.047   0.128   1.884  0.5103  0.1948  0.1961
   35SOL    HW1  104   0.054   0.032   1.926  1.5730  1.6300 -0.2419
   35SOL    HW2  105  -0.004   0.117   1.795  1.6903 -0.1014  1.1032
   36SOL     OW  106   1.893   1.183   1.516 -0.1753 -0.0344 -0.0735
   36SOL    HW1  107   1.966   1.117   1.546  1.3748  0.9220  1.2603
   36SOL    HW2  108   1.916   1.222   1.425  2.4021 -1.5338  1.3769
   37SOL     OW  109   1.121   0.199   0.967  0.1820  0.1953  0.1091
   37SOL    HW1  110   1.143   0.299   0.986 -1.7709  2.6235  0.8585
   37SOL    HW2  111   1.188   0.148   0.906 -0.6555 -0.6516  0.8630
   38SOL     OW  112   1.160   2.888   2.465 -0.3506  0.0501  0.0790
   38SOL    HW1  113   1.064   2.839   2.488 -2.0009 -3.7525  2.8904
   38SOL    HW2  114   1.157   2.978   2.414 -3.4138 -0.2413 -0.5502
   39SOL     OW  115   2.466   1.401   3.058 -0.6275 -0.1060  0.2886
   39SOL    HW1  116   2.548   1.339   3.087  0.3417 -0.1170  2.4677
   39SOL    HW2  117   2.381   1.390   3.111 -0.3752 -1.6294 -1.2503
   40SOL     OW  118   2.030   2.531   2.614 -0.1429  0.2361 -0.0231
   40SOL    HW1  119   1.988   2.624   2.606  1.3980  3.0904  0.9896
   40SOL    HW2  120   1.994   2.460   2.542 -1.5619 -3.3339 -0.6241
   41SOL     OW  121   3.028   0.709   2.810  0.0325  1.0078  0.0357
   41SOL    HW1  122   2.953   0.762   2.857 -1.4206 -0.0929 -2.7013
   41SOL    HW2  123   2.996   0.674   2.722  1.7110  1.0667  1.3474
   42SOL     OW  124   1.799   1.729   0.567  0.2267  0.1323 -0.1922
   42SOL    HW1  125   1.763   1.629   0.576 -0.0969 -2.2049 -2.0334
   42SOL    HW2  126   1.819   1.748   0.468 -0.2335 -1.0330  0.9287
   43SOL     OW  127   0.468   1.672   1.203 -0.5705  0.2621 -0.3156
   43SOL    HW1  128   0.456   1.586   1.146 -1.6889 -2.4752 -2.5516
   43SOL    HW2  129   0.392   1.701   1.269 -0.4915  1.9356 -2.3908
   44SOL     OW  130   1.638   2.374   2.982 -0.0731 -0.4603 -0.1852
   44SOL    HW1  131   1.534   2.382   2.969  1.1994  2.2184  2.4208
   44SOL    HW2  132   1.697   2.408   2.898 -0.3282  1.4530  0.8045
   45SOL     OW  133   0.352   1.913   2.562 -0.0547 -0.2742 -0.0601
   45SOL    HW1  134   0.282   1.895   2.487 -0.5819  0.9309  0.1713
   45SOL    HW2  135   0.426   1.838   2.573 -2.6761  0.8391 -1.2577
   46SOL     OW  136   1.244   0.723   0.281 -0.7289  0.3937  0.3234
   46SOL    HW1  137   1.240   0.811   0.228 -2.0797  1.1421 -2.2876
   46SOL    HW2  138   1.180   0.649   0.246 -0.8375 -0.1811  1.3602
   47SOL     OW  139   0.168   2.443   1.545 -0.1858 -0.4005 -0.2947
   47SOL    HW1  140   0.141   2.350   1.577 -0.3229  2.5852 -0.2701
   47SOL    HW2  141   0.202   2.446   1.444  0.2391 -1.1817  0.9853
   48SOL     OW  142   2.674   0.631   0.140 -0.4640  0.2927 -0.1003
   48SOL    HW1  143   2.637   0.642   0.235  1.4706  0.5904 -3.0541
   48SOL    HW2  144   2.777   0.661   0.137 -1.6636  0.0527 -0.0473
   49SOL     OW  145   0.350   0.831   1.752  0.6157  0.3417  0.2567
   49SOL    HW1  146   0.429   0.805   1.816  1.9497  1.6097  2.4260
   49SOL    HW2  147   0.351   0.764   1.670  0.7021  0.5408  0.1256
   50SOL     OW  148   1.744   1.148   0.304 -0.1346 -0.1483 -0.2389
   50SOL    HW1  149   1.770   1.050   0.289 -0.4992 -0.9129  0.4196
   50SOL    HW2  150   1.686   1.159   0.391 -0.7213  0.4454  0.5068
   51SOL     OW  151   3.007   1.747   0.263  0.4066  0.4847 -0.0495
   51SOL    HW1  152   2.958   1.681   0.201 -2.5821  2.6427  1.4511
   51SOL    HW2  153   3.029   1.712   0.359  2.1365 -0.6800  0.8403
   52SOL     OW  154   0.780   2.145   0.637 -0.4397 -0.0050 -0.6386
   52SOL    HW1  155   0.702   2.164   0.577  0.7252 -1.4372  0.6295
   52SOL    HW2  156   0.758   2.086   0.723  0.6514  0.7475  1.7024
   53SOL     OW  157   0.232   0.419   1.499 -0.1457 -0.7370  0.4172
   53SOL    HW1  158   0.289   0.507   1.498  2.0708  0.1661  1.2387
   53SOL    HW2  159   0.156   0.415   1.429  2.0028  1.1688 -1.0055
   54SOL     OW  160   1.737   0.479   3.088 -0.6987 -0.4776  0.1105
   54SOL    HW1  161   1.801   0.436   3.163 -0.6770 -1.0744 -0.2975
   54SOL    HW2  162   1.647   0.497   3.136  1.8906 -0.4001  1.3628
   55SOL     OW  163   0.725   2.931   0.654  0.0794 -0.6058 -0.7484
   55SOL    HW1  164   0.678   3.017   0.692 -0.5365 -1.9187  0.0720
   55SOL    HW2  165   0.828   2.948   0.638  0.8510 -2.8353 -1.5285
   56SOL     OW  166   0.584   1.574   3.059 -0.0408 -0.0416  0.0575
   56SOL    HW1  167   0.505   1.591   3.128  0.0638 -0.2723 -2.7835
   56SOL    HW2  168   0.567   1.484   3.005 -1.8867 -0.0286  0.7226
   57SOL     OW  169   1.722   2.509   2.384  0.2255 -0.2141 -0.6844
   57SOL    HW1  170   1.787   2.452   2.437  1.3901 -0.0402  0.1706
   57SOL    HW2  171   1.632   2.520   2.436  1.2165  0.8666 -2.3486
   58SOL     OW  172   0.664   0.226   1.099 -0.0465  0.0693  0.3027
   58SOL    HW1  173   0.564   0.226   1.129 -1.6289 -0.8030  2.3929
   58SOL    HW2  174   0.720   0.137   1.115  1.7112  0.1216 -3.5116
   59SOL     OW  175   0.458   2.385   2.718 -0.1132  0.1243  0.2218
   59SOL    HW1  176   0.479   2.282   2.727 -0.4871  1.2202 -1.6392
   59SOL    HW2  177   0.538   2.444   2.711  2.3549 -0.1696 -1.1699
   60SOL     OW  178   2.318   2.094   2.351  0.7728 -0.0912  0.2846
   60SOL    HW1  179   2.347   2.119   2.254  1.2903 -2.0440  1.3902
   60SOL    HW2  180   2.378   2.133   2.426  0.2683 -1.8090 -2.0117
   61SOL     OW  181   1.199   0.639   0.541 -0.2868 -0.4332 -0.0870
   61SOL    HW1  182   1.094   0.653   0.560  2.6181 -0.4772  3.8096
   61SOL    HW2  183   1.233   0.662   0.441  0.8116  2.4589 -1.7447
   62SOL     OW  184   2.739   1.712   2.737  0.3179  0.1155 -0.0057
   62SOL    HW1  185   2.700   1.630   2.693  0.8543 -0.9667 -1.7315
   62SOL    HW2  186   2.832   1.699   2.779  0.3290 -0.3677 -1.8090
   63SOL     OW  187   0.503   0.919   0.200 -0.4931  0.3076  0.2110
   63SOL    HW1  188   0.559   0.969   0.129 -0.8602  0.2049 -0.1938
   63SOL    HW2  189   0.536   0.927   0.299  0.0388  0.9399  0.4952
   64SOL     OW  190   3.018   0.589   2.297 -0.0984  0.0932 -0.2058
   64SOL    HW1  191   2.961   0.638   2.372 -1.9213 -2.0895 -1.2239
   64SOL    HW2  192   3.049   0.651   2.215 -0.3123 -1.1441 -2.0977
   65SOL     OW  193   0.226   1.442   0.730  0.7367  0.0732  0.3019
   65SOL    HW1  194   0.245   1.514   0.805  0.5354 -0.4756 -1.9559
   65SOL    HW2  195   0.257   1.467   0.635 -0.5845  1.9503 -0.5394
   66SOL     OW  196   2.550   0.349   0.529  0.2724 -0.3187  0.2518
   66SOL    HW1  197   2.653   0.321   0.532  3.3561 -1.1391  1.6307
   66SOL    HW2  198   2.492   0.294   0.593  1.0547 -1.0905 -2.1388
   67SOL     OW  199   0.623   2.489   1.468  0.2676  0.2557 -0.0533
   67SOL    HW1  200   0.699   2.433   1.515 -0.8509 -0.6012 -3.2237
   67SOL    HW2  201   0.543   2.428   1.440  0.3368 -1.4501 -0.8892
   68SOL     OW  202   0.965   1.011   2.440 -0.2762  0.3060  0.4543
   68SOL    HW1  203   1.041   0.950   2.412 -4.8265 -0.9805 -2.9156
   68SOL    HW2  204   0.893   1.026   2.368  1.0616  2.9138  1.0434
   69SOL     OW  205   0.811   2.747   2.311 -0.2349  0.0267 -0.2737
   69SOL    HW1  206   0.845   2.656   2.269  0.9783  0.0029  0.0863
   69SOL    HW2  207   0.710   2.750   2.343 -0.7301  1.9371 -1.4458
   70SOL     OW  208   0.426   0.128   2.490  0.1029  0.2889  0.2332
   70SOL    HW1  209   0.335   0.087   2.516 -3.6502  1.8243 -0.0396
   70SOL    HW2  210   0.508   0.065   2.507  2.4988  0.5271 -1.3958
   71SOL     OW  211   1.053   1.749   0.314 -0.7986  0.7426 -0.0778
   71SOL    HW1  212   1.007   1.672   0.367 -0.4921 -2.2078 -0.2162
   71SOL    HW2  213   0.993   1.808   0.257 -0.0342 -0.7273  2.3257
   72SOL     OW  214   1.828   0.224   2.168  0.3664  0.1390 -0.0502
   72SOL    HW1  215   1.886   0.309   2.163 -0.8280 -2.0315  0.0457
   72SOL    HW2  216   1.891   0.137   2.186  0.6586  1.7966  1.1533
   73SOL     OW  217   2.769   2.179   2.454  0.2943 -0.3553  0.7384
   73SOL    HW1  218   2.763   2.087   2.405 -1.9304 -0.6819  1.2379
   73SOL    HW2  219   2.830   2.181   2.537 -0.7410  2.2082  0.1496
   74SOL     OW  220   2.724   2.875   2.162 -0.4566  0.0448 -0.1087
   74SOL    HW1  221   2.646   2.883   2.223 -0.9843  0.0101  1.1403
   74SOL    HW2  222   2.791   2.957   2.164  1.4809 -1.3141 -2.2184
   75SOL     OW  223   0.986   0.848   1.115 -0.5390 -0.3995  0.0958
   75SOL    HW1  224   0.896   0.887   1.077 -1.9208  0.7185  1.2536
   75SOL    HW2  225   0.996   0.890   1.210 -0.7223  0.3937  0.1887
   76SOL     OW  226   1.871   1.268   2.539 -0.1442  0.0392  0.6553
   76SOL    HW1  227   1.762   1.273   2.542 -1.5975  0.0037  0.8500
   76SOL    HW2  228   1.917   1.333   2.608  2.5859  1.7421 -0.9425
   77SOL     OW  229   2.883   0.931   1.050 -0.0802 -0.3780 -0.1349
   77SOL    HW1  230   2.838   0.844   1.025  1.0974  2.7145 -0.4515
   77SOL    HW2  231   2.955   0.910   1.121  0.3787 -0.9366 -0.8718
   78SOL     OW  232   2.003   1.339   1.299  0.0654  0.1166  0.0179
   78SOL    HW1  233   2.104   1.377   1.298  2.3182  0.8893  0.1486
   78SOL    HW2  234   1.930   1.412   1.274 -1.7978  0.1799 -2.0371
   79SOL     OW  235   0.683   1.431   0.841  0.3101  0.3465  0.1919
   79SOL    HW1  236   0.579   1.394   0.845 -1.6383 -3.5560  2.9868
   79SOL    HW2  237   0.738   1.354   0.793  0.2227 -1.2172  1.9824
   80SOL     OW  238   0.557   0.487   1.546  0.1516 -1.2574  0.3464
   80SOL    HW1  239   0.609   0.533   1.463  1.7439 -1.5863 -2.0084
   80SOL    HW2  240   0.606   0.395   1.571  2.9056 -1.8416 -2.1020
   81SOL     OW  241   1.007   1.254   2.580  0.2867 -0.8371 -0.6049
   81SOL    HW1  242   1.000   1.158   2.536  0.1076 -1.7323 -0.0083
   81SOL    HW2  243   0.944   1.327   2.535  3.4526  0.6121 -1.7136
   82SOL     OW  244   0.941   2.871   1.523 -0.6428  0.3506  0.0224
   82SOL    HW1  245   0.907   2.775   1.505  2.2941 -1.8079 -0.4776
   82SOL    HW2  246   1.023   2.896   1.463  2.0322  0.3125 -0.8821
   83SOL     OW  247   2.561   2.373   0.890  0.2457  0.7581 -0.2398
   83SOL    HW1  248   2.493   2.311   0.839 -1.0505 -1.0660 -1.7310
   83SOL    HW2  249   2.562   2.473   0.854  0.7889 -2.0494  1.5030
   84SOL     OW  250   0.732   0.022   2.317  0.0953 -0.0276 -0.8729
   84SOL    HW1  251   0.704  -0.026   2.404 -0.0068 -1.2447 -2.8789
   84SOL    HW2  252   0.777  -0.047   2.250  0.5342  0.4012 -1.5615
   85SOL     OW  253   0.283   1.674   1.420  0.3041  0.6405 -0.4265
   85SOL    HW1  254   0.229   1.758   1.451  3.1735 -1.2697 -2.6282
   85SOL    HW2  255   0.356   1.642   1.488  0.5800  2.4225  0.9449
   86SOL     OW  256   0.389   1.026   1.571 -0.3471  0.5732 -0.3027
   86SOL    HW1  257   0.364   0.984   1.479 -2.9558  0.4659 -1.2183
   86SOL    HW2  258   0.385   0.953   1.646  2.6169 -3.2423  1.0081
   87SOL     OW  259   1.607   0.649   0.336 -0.5032  0.3368  0.2559
   87SOL    HW1  260   1.688   0.704   0.312  2.1322  0.9191  1.0594
   87SOL    HW2  261   1.556   0.625   0.249 -2.5454  0.6194 -1.0010
   88SOL     OW  262   1.604   1.392   0.268  0.2285 -0.2721  0.0134
   88SOL    HW1  263   1.643   1.298   0.258  1.2696  1.7285 -1.0345
   88SOL    HW2  264   1.513   1.402   0.223 -0.4929 -2.2158  0.2283
   89SOL     OW  265   0.020   0.340   0.578  0.4351 -0.5829  0.4285
   89SOL    HW1  266   0.074   0.252   0.585  2.1517  1.0603  0.0166
   89SOL    HW2  267  -0.076   0.329   0.545 -0.6458 -3.8985 -3.8895
   90SOL     OW  268   0.780   1.574   0.156  0.1565 -0.8344  0.0085
   90SOL    HW1  269   0.833   1.488   0.168 -1.2810 -0.0289 -1.0789
   90SOL    HW2  270   0.719   1.575   0.071  0.6960 -1.5185 -1.4170
   91SOL     OW  271   1.194   1.505   1.787  0.2483  0.3770  0.2768
   91SOL    HW1  272   1.209   1.580   1.857  2.0193 -0.6886 -2.7605
   91SOL    HW2  273   1.194   1.410   1.829 -1.2682 -0.1940 -2.4090
   92SOL     OW  274   0.019   0.990   1.209 -0.3177  0.3378 -0.1830
   92SOL    HW1  275   0.086   1.059   1.173 -0.4851  0.5860  1.8371
   92SOL    HW2  276   0.021   0.987   1.312  2.2031 -0.7532 -0.1687
   93SOL     OW  277   3.055   2.682   0.048  0.6976 -0.8191  0.9375
   93SOL    HW1  278   3.045   2.680  -0.056  4.2899  1.8231 -1.9760
   93SOL    HW2  279   3.086   2.592   0.090 -0.8702 -4.5888  0.2009
   94SOL     OW  280   1.501   1.330   1.694 -0.3916 -0.6113 -0.6453
   94SOL    HW1  281   1.578   1.274   1.736 -0.3876 -1.4647 -0.4411
   94SOL    HW2  282   1.505   1.428   1.728 -0.6698 -1.2604 -2.1072
   95SOL     OW  283   1.387   2.457   2.924 -0.6021 -0.4350 -0.3511
   95SOL    HW1  284   1.332   2.478   3.013  0.6406  0.6680 -0.0281
   95SOL    HW2  285   1.374   2.363   2.888  0.7813  0.5307 -1.4518
   96SOL     OW  286   0.580   2.135   1.282 -0.3434  0.5063  0.2037
   96SOL    HW1  287   0.492   2.114   1.229  0.7532  1.5153 -1.4855
   96SOL    HW2  288   0.612   2.060   1.349 -2.9269  0.5212 -1.1199
   97SOL     OW  289   0.273   1.646   2.432 -0.0437 -0.0002  0.2391
   97SOL    HW1  290   0.201   1.696   2.378 -2.4083 -0.3730  1.2708
   97SOL    HW2  291   0.238   1.629   2.532 -1.4219  0.0543 -0.7668
   98SOL     OW  292   2.211   1.661   1.233 -0.7071  0.3306  0.1590
   98SOL    HW1  293   2.127   1.623   1.192  0.3119  2.5647 -3.3589
   98SOL    HW2  294   2.292   1.632   1.173  0.7460 -1.7956 -1.7492
   99SOL     OW  295   2.584   2.119   1.279  0.6322 -0.4910 -0.2778
   99SOL    HW1  296   2.650   2.166   1.346 -0.1030 -1.5439 -3.1594
   99SOL    HW2  297   2.561   2.024   1.311  1.1402 -2.0130 -0.6484
  100SOL     OW  298   2.301   0.397   2.112 -0.0783 -0.2188  0.1465
  100SOL    HW1  299   2.235   0.380   2.193 -1.0422 -0.1425  0.1066
  100SOL    HW2  300   2.398   0.418   2.144  0.7140 -1.4574 -1.4673
  101SOL     OW  301   0.397   1.538   0.530 -0.4345 -0.6009  0.1880
  101SOL    HW1  302   0.423   1.608   0.598  0.2028  0.0801  1.1312
  101SOL    HW2  303   0.470   1.512   0.457  1.4159  0.9286 -3.4632
  102SOL     OW  304   2.280   1.081   0.843 -0.0684  0.0822 -0.8546
  102SOL    HW1  305   2.260   0.983   0.861 -2.6450 -0.0355 -2.0336
  102SOL    HW2  306   2.372   1.093   0.792 -2.4813 -1.5644  0.3877
  103SOL     OW  307   2.261   0.052   0.349  0.4402 -0.2499  0.0957
  103SOL    HW1  308   2.328   0.095   0.283  0.0603 -2.4643 -0.7402
  103SOL    HW2  309   2.312   0.019   0.433 -2.6960  0.1509  0.5854
  104SOL     OW  310   0.027   1.777   2.145 -0.1679 -0.2544  0.5748
  104SOL    HW1  311   0.070   1.763   2.051 -4.4609 -0.1924  1.4491
  104SOL    HW2  312  -0.065   1.821   2.132 -0.0069 -0.0610 -1.4681
  105SOL     OW  313   1.395   2.104   0.785  0.2113  0.5159 -0.3019
  105SOL    HW1  314   1.385   2.144   0.691 -0.3449  0.6461  1.8243
  105SOL    HW2  315   1.382   2.000   0.783  1.1761 -0.3271  1.1964
  106SOL     OW  316   2.158   0.392   1.443 -0.0925  0.2671 -0.5914
  106SOL    HW1  317   2.095   0.310   1.466  1.2725 -0.6230  0.5020
  106SOL    HW2  318   2.162   0.472   1.509  0.5194 -0.8041  1.0589
  107SOL     OW  319   1.953   2.926   1.155  0.0592 -0.4154 -0.1680
  107SOL    HW1  320   1.867   2.959   1.203  1.7011  0.5133  2.0605
  107SOL    HW2  321   1.931   2.836   1.105 -2.0058 -1.2464 -4.1420
  108SOL     OW  322   0.828   2.845   1.202  0.0406 -0.5867 -0.2227
  108SOL    HW1  323   0.839   2.743   1.191 -0.6072 -0.0150  2.4964
  108SOL    HW2  324   0.902   2.881   1.264 -1.5947  0.5762  0.0521
  109SOL     OW  325   2.146   0.197   0.707 -0.5995  0.6151 -0.1090
  109SOL    HW1  326   2.084   0.118   0.680  0.2807  0.5916 -0.4771
  109SOL    HW2  327   2.136   0.221   0.805  2.5492  0.4049  0.1753
  110SOL     OW  328   0.473   2.766   2.760  0.4391 -0.2721  0.1240
  110SOL    HW1  329   0.459   2.771   2.653  0.8683 -2.1383 -2.9636
  110SOL    HW2  330   0.559   2.723   2.794 -1.6997 -1.5621 -0.8570
  111SOL     OW  331   1.277   0.492   2.289 -0.2208  0.3380 -0.8797
  111SOL    HW1  332   1.203   0.541   2.345  0.6962 -0.3823 -0.1039
  111SOL    HW2  333   1.347   0.443   2.355  2.7456  0.1984  2.6096
  112SOL     OW  334   1.768   0.364   1.486 -0.4222 -0.2025  0.0140
  112SOL    HW1  335   1.738   0.428   1.405  2.5457  0.6725  0.3146
  112SOL    HW2  336   1.702   0.359   1.562 -1.8470 -1.5562  1.5318
  113SOL     OW  337   2.384   1.716   1.784 -0.0481  0.6039  0.6691
  113SOL    HW1  338   2.378   1.613   1.757 -0.3432  0.7290  0.8399
  113SOL    HW2  339   2.369   1.733   1.887 -1.8179 -1.0039  0.9128
  114SOL     OW  340   0.325   0.459   1.204  0.6987 -0.2879 -0.6182
  114SOL    HW1  341   0.400   0.512   1.157  0.3064 -1.1500 -1.7915
  114SOL    HW2  342   0.239   0.507   1.198  0.3440 -2.0664 -4.0219
  115SOL     OW  343   2.683   1.557   1.199 -0.4144 -0.0553  0.1877
  115SOL    HW1  344   2.692   1.459   1.245 -0.1095  0.4586  2.2724
  115SOL    HW2  345   2.753   1.565   1.122 -0.2142  1.5983  0.0645
  116SOL     OW  346   1.911   0.919   0.758 -0.0445  0.1738  0.1504
  116SOL    HW1  347   1.843   0.851   0.728  0.4244  1.0034  1.0469
  116SOL    HW2  348   1.888   1.010   0.730  1.3307 -0.0107  0.9599
  117SOL     OW  349   1.129   0.348   0.585  0.5196  0.2753 -0.0203
  117SOL    HW1  350   1.152   0.448   0.627 -0.3476  2.3229  2.0058
  117SOL    HW2  351   1.112   0.352   0.482  1.6387 -3.3904 -0.0987
  118SOL     OW  352   1.127   1.223   1.066  0.5110  0.2702 -0.4941
  118SOL    HW1  353   1.049   1.197   1.129 -1.4053 -0.2757  0.0522
  118SOL    HW2  354   1.165   1.317   1.087  2.7022 -1.3571  0.1256
  119SOL     OW  355   1.858   1.558   2.193 -0.3505  0.3335 -0.3103
  119SOL    HW1  356   1.810   1.619   2.122  2.4850  1.2321 -3.4994
  119SOL    HW2  357   1.959   1.541   2.174 -1.2455  2.0175  2.1329
  120SOL     OW  358   2.896   2.787   0.247 -0.2387  0.3657  0.3877
  120SOL    HW1  359   2.953   2.764   0.159 -0.7203 -2.4146 -1.2834
  120SOL    HW2  360   2.796   2.768   0.224  2.0439  1.7460 -2.1898
  121SOL     OW  361   1.977   0.748   2.268  0.5955  0.1942  0.6419
  121SOL    HW1  362   2.007   0.821   2.203  1.7044 -0.8133  1.6247
  121SOL    HW2  363   1.974   0.648   2.232  2.7412 -0.5328  0.0826
  122SOL     OW  364   2.611   2.483   1.323  0.5149 -0.0689 -0.2354
  122SOL    HW1  365   2.630   2.432   1.231  4.2815 -2.8963 -0.5977
  122SOL    HW2  366   2.640   2.423   1.398 -1.5127  0.1295  2.5171
  123SOL     OW  367   1.695   0.141   1.760  0.0721 -0.2448  0.8250
  123SOL    HW1  368   1.709   0.050   1.705 -1.0811 -1.9202 -1.8366
  123SOL    HW2  369   1.785   0.165   1.812 -0.5108  0.8796  0.1479
  124SOL     OW  370   3.069   0.438   1.097 -0.0540 -0.4344  0.4060
  124SOL    HW1  371   2.997   0.496   1.148  0.6966  3.5410 -0.4900
  124SOL    HW2  372   3.061   0.452   0.994 -0.8260 -0.3794  1.0764
  125SOL     OW  373   0.866   1.935   0.822  0.2569 -0.1154 -0.6029
  125SOL    HW1  374   0.954   1.880   0.806 -2.5406  2.4327 -0.0358
  125SOL    HW2  375   0.883   2.028   0.868 -2.2596  4.5456 -1.9310
  126SOL     OW  376   1.886   2.296   2.485 -0.4315 -0.1837  0.5271
  126SOL    HW1  377   1.944   2.245   2.420 -0.3605  2.6945  1.3955
  126SOL    HW2  378   1.838   2.239   2.556 -0.2738  1.5212  2.3968
  127SOL     OW  379   0.876   0.991   0.217 -0.0131  0.0055 -0.3831
  127SOL    HW1  380   0.941   1.008   0.294  0.6625  1.2304 -1.2340
  127SOL    HW2  381   0.863   0.887   0.203  0.3786 -2.0195  0.6074
  128SOL     OW  382   0.957   0.238   1.454  0.3293 -0.3642  0.5036
  128SOL    HW1  383   0.937   0.325   1.394 -0.7466 -2.6496 -4.5885
  128SOL    HW2  384   0.912   0.156   1.403  0.2441 -0.5232 -4.0705
  129SOL     OW  385   1.857   0.719   1.866  0.4291  0.8127  0.3771
  129SOL    HW1  386   1.842   0.736   1.766  0.9078  2.5967 -3.3155
  129SOL    HW2  387   1.886   0.800   1.925 -0.0371  1.1677  0.0802
  130SOL     OW  388   1.342   2.296   0.968 -0.6188 -0.3881 -0.2639
  130SOL    HW1  389   1.337   2.211   0.908 -1.2688  1.0434 -0.1739
  130SOL    HW2  390   1.428   2.353   0.950  0.2852  1.3337 -0.0991
  131SOL     OW  391   3.094   1.412   1.367 -0.0381 -0.5955  0.2462
  131SOL    HW1  392   3.021   1.346   1.393 -1.4332  3.5928  0.5179
  131SOL    HW2  393   3.187   1.362   1.349  0.0381 -0.9217  0.3359
  132SOL     OW  394   2.042   2.360   0.526 -0.2102  0.2773  0.2429
  132SOL    HW1  395   1.945   2.395   0.525 -1.7671  1.3087  1.3006
  132SOL    HW2  396   2.055   2.281   0.594 -1.1143  0.3549 -0.6718
  133SOL     OW  397   1.734   2.458   2.737 -0.4533  0.7508 -0.0956
  133SOL    HW1  398   1.656   2.500   2.683 -0.5662 -0.8836 -1.2165
  133SOL    HW2  399   1.829   2.483   2.698 -3.3244  0.6040 -1.0866
  134SOL     OW  400   2.697   2.394   1.585  0.3308 -0.2863 -0.1683
  134SOL    HW1  401   2.639   2.379   1.672 -1.5855 -1.2442  1.4663
  134SOL    HW2  402   2.739   2.487   1.572 -2.1594  2.0678 -0.3862
  135SOL     OW  403   0.742   1.425   2.649  0.4240  0.2223  0.1253
  135SOL    HW1  404   0.725   1.322   2.674 -1.8247 -2.5204 -1.1783
  135SOL    HW2  405   0.773   1.426   2.550  2.5298  2.2568 -0.5180
  136SOL     OW  406   1.190   2.038   0.383  0.2544  0.0015  0.1667
  136SOL    HW1  407   1.150   2.131   0.409  1.7109 -0.0565  0.9602
  136SOL    HW2  408   1.142   1.958   0.427  0.8808  1.2102 -2.7009
  137SOL     OW  409   0.407   1.219   2.249 -0.2166 -0.0624  0.6191
  137SOL    HW1  410   0.326   1.234   2.309  0.5832 -0.3710 -0.4768
  137SOL    HW2  411   0.426   1.121   2.232  0.2419 -2.1485 -1.1652
  138SOL     OW  412   2.428   1.531   0.267 -0.5655  0.0580  0.0101
  138SOL    HW1  413   2.381   1.509   0.179 -1.0100  1.1345  0.1375
  138SOL    HW2  414   2.434   1.441   0.323 -0.4523  0.7228  0.8434
  139SOL     OW  415   1.835   2.677   1.580  0.0794  0.2045 -0.2775
  139SOL    HW1  416   1.733   2.698   1.584 -2.1931  0.0366  1.3295
  139SOL    HW2  417   1.864   2.590   1.534  1.4216  1.0935 -0.0022
  140SOL     OW  418   2.991   2.973   2.597  0.3175  0.1794 -0.5684
  140SOL    HW1  419   3.037   2.883   2.578 -0.8495 -1.2604  0.6527
  140SOL    HW2  420   3.043   3.052   2.556 -0.6819 -1.3621  0.5069
  141SOL     OW  421   1.303   1.609   1.546 -0.0189 -0.2509  0.1314
  141SOL    HW1  422   1.243   1.694   1.533  1.4639  2.1550  2.3678
  141SOL    HW2  423   1.275   1.551   1.626  2.1283  1.1656  0.4041
  142SOL     OW  424   1.506   0.666   2.206  0.1108  0.1232  0.1549
  142SOL    HW1  425   1.466   0.740   2.143  0.8188  1.9118 -1.8491
  142SOL    HW2  426   1.429   0.599   2.232 -1.4868  0.7613  1.1553
  143SOL     OW  427   2.766   0.810   0.548 -0.4893 -0.4255 -0.2662
  143SOL    HW1  428   2.823   0.848   0.472  0.5554  1.8078 -3.1622
  143SOL    HW2  429   2.776   0.866   0.640 -1.4834  1.0879  0.6737
  144SOL     OW  430   2.924   1.185   1.477 -0.3592  0.5260  0.5618
  144SOL    HW1  431   2.879   1.169   1.572  0.2371 -2.6471 -0.0306
  144SOL    HW2  432   2.973   1.102   1.444 -0.5109  2.2737  1.6957
  145SOL     OW  433   0.860   1.836   0.108  0.1740  0.0927  0.6552
  145SOL    HW1  434   0.918   1.812   0.026  0.8140  0.6468 -1.8334
  145SOL    HW2  435   0.802   1.753   0.142 -2.9398 -0.3839 -4.1301
  146SOL     OW  436   2.462   0.678   1.516  0.4276 -0.3396 -0.0662
  146SOL    HW1  437   2.476   0.585   1.474  0.1546 -1.4857  2.5653
  146SOL    HW2  438   2.381   0.727   1.472 -2.3475 -2.6048 -1.2381
  147SOL     OW  439   1.104   2.505   0.592  0.4747 -0.0008 -0.0252
  147SOL    HW1  440   1.049   2.552   0.518  0.6199 -2.4385 -0.8130
  147SOL    HW2  441   1.191   2.465   0.553 -0.5957 -0.1952  0.2051
  148SOL     OW  442   1.613   1.477   3.078 -0.5130  0.0807  0.5360
  148SOL    HW1  443   1.624   1.371   3.060  0.4604 -1.4010 -3.1676
  148SOL    HW2  444   1.535   1.490   3.147 -1.9851 -0.0070  0.2363
  149SOL     OW  445   0.671   1.504   1.976  0.3223 -0.2856  0.1937
  149SOL    HW1  446   0.579   1.461   2.007  0.1257 -0.2787 -0.4962
  149SOL    HW2  447   0.711   1.449   1.894 -2.6486 -2.4839 -1.0818
  150SOL     OW  448   3.042   1.193   0.965  0.2215  0.8773 -0.1415
  150SOL    HW1  449   3.104   1.237   1.036  0.8296 -0.2913  1.7874
  150SOL    HW2  450   2.965   1.130   1.010 -0.2840 -2.7585  2.1258
  151SOL     OW  451   0.264   0.850   2.060 -0.6289  0.1113 -0.5809
  151SOL    HW1  452   0.308   0.924   2.004  0.8290  1.1876 -1.4945
  151SOL    HW2  453   0.311   0.759   2.045  1.4806  1.1124 -1.0209
  152SOL     OW  454   1.459   1.838   1.092 -0.0325  0.0637 -0.4882
  152SOL    HW1  455   1.508   1.931   1.114  1.6184  1.6957  0.8545
  152SOL    HW2  456   1.362   1.862   1.061 -2.7919  0.9263 -1.0164
  153SOL     OW  457   0.145   1.535   0.216 -0.3685  0.1990  0.2969
  153SOL    HW1  458   0.117   1.438   0.210  4.0304  0.6313  1.9615
  153SOL    HW2  459   0.125   1.575   0.311  0.6011 -1.8921 -0.4570
  154SOL     OW  460   2.283   1.771   2.761  0.5184 -0.1548 -0.3912
  154SOL    HW1  461   2.311   1.677   2.798  4.0416 -1.1206  0.8078
  154SOL    HW2  462   2.362   1.833   2.729 -0.3928 -0.2931 -1.3787
  155SOL     OW  463   2.423   1.279   0.373 -0.6659  0.0429  0.7327
  155SOL    HW1  464   2.507   1.221   0.377  0.4904  0.8287  0.3481
  155SOL    HW2  465   2.341   1.235   0.422 -0.2217 -0.4251  0.1556
  156SOL     OW  466   2.403   0.831   0.697 -0.0032 -0.4582  0.1665
  156SOL    HW1  467   2.300   0.816   0.711  1.7995 -1.3101 -0.0546
  156SOL    HW2  468   2.420   0.880   0.608  0.5508  2.7456  0.1165
  157SOL     OW  469   1.214   3.006   3.027  0.4840  0.6230  0.8908
  157SOL    HW1  470   1.298   2.974   2.986  0.0701  0.9186 -0.1019
  157SOL    HW2  471   1.214   3.101   3.067 -1.3299  1.0663 -0.1169
  158SOL     OW  472   1.074   1.871   1.841 -0.1532  0.8249  0.1230
  158SOL    HW1  473   1.127   1.952   1.806 -1.3330  0.2632  0.4196
  158SOL    HW2  474   0.987   1.903   1.893 -0.5776 -1.2093  2.1588
  159SOL     OW  475   0.846   0.430   1.246 -0.3219  0.2568  0.5349
  159SOL    HW1  476   0.795   0.520   1.248 -1.9670 -0.4808 -0.0409
  159SOL    HW2  477   0.785   0.354   1.200  0.2704 -0.2085  2.4036
  160SOL     OW  478   1.425   2.448   1.448 -0.5032 -0.0589 -0.0239
  160SOL    HW1  479   1.370   2.407   1.524  1.6635 -2.6133 -0.9292
  160SOL    HW2  480   1.504   2.387   1.419 -1.4694 -1.4487  1.0776
  161SOL     OW  481   3.052   2.661   0.429  0.0429 -0.0246  0.1087
  161SOL    HW1  482   3.013   2.563   0.454  0.6213 -2.2773  2.2491
  161SOL    HW2  483   2.993   2.716   0.362 -0.3690  2.0744 -2.4310
  162SOL     OW  484   2.541   1.868   0.451 -0.3942  0.1029 -0.6466
  162SOL    HW1  485   2.549   1.839   0.353 -1.2640  4.5809  0.4143
  162SOL    HW2  486   2.483   1.795   0.497  2.1848  1.9390  0.1861
  163SOL     OW  487   1.942   2.702   0.775  0.2753  0.0012  0.0560
  163SOL    HW1  488   1.940   2.710   0.671 -0.3998  1.0024 -1.6658
  163SOL    HW2  489   2.010   2.637   0.816 -0.5802 -3.6384  0.3501
  164SOL     OW  490   0.000   0.165   1.215  0.3305 -0.6748  0.1889
  164SOL    HW1  491  -0.019   0.262   1.176 -1.6837  1.0633 -1.5973
  164SOL    HW2  492   0.060   0.181   1.302  1.0202 -1.8159  1.0308
  165SOL     OW  493   1.132   1.417   0.667 -0.2069  0.4511 -0.1071
  165SOL    HW1  494   1.124   1.460   0.760 -3.1515  0.5563 -0.2584
  165SOL    HW2  495   1.064   1.462   0.601 -0.6050  3.2260 -0.7628
  166SOL     OW  496   1.517   1.008   1.809  0.5061  0.0115 -0.0040
  166SOL    HW1  497   1.429   1.056   1.839 -0.6924  0.0252  1.1473
  166SOL    HW2  498   1.599   1.070   1.791  0.4025  2.8273  1.0337
  167SOL     OW  499   0.679   1.977   1.498  0.1065  0.4691  0.6388
  167SOL    HW1  500   0.718   2.048   1.569 -1.7282 -0.0278  2.7856
  167SOL    HW2  501   0.622   1.904   1.544  2.5299  0.5624  1.5943
  168SOL     OW  502   1.586   2.337   0.148  0.6928  0.1569  0.5568
  168SOL    HW1  503   1.651   2.330   0.065 -0.1360 -0.9470 -1.8962
  168SOL    HW2  504   1.610   2.266   0.220  1.1394 -1.3029 -0.6228
  169SOL     OW  505   0.053   2.543   2.197 -0.2943  0.0591  0.3901
  169SOL    HW1  506   0.074   2.530   2.100 -1.6892  1.5773  1.5660
  169SOL    HW2  507   0.125   2.519   2.269  1.2355 -2.2088  0.3515
  170SOL     OW  508   1.176   0.157   2.037  0.1098 -0.1922  0.0758
  170SOL    HW1  509   1.257   0.197   2.090 -0.0216 -0.9480 -0.5882
  170SOL    HW2  510   1.192   0.158   1.932  1.2150  0.0911 -2.6982
  171SOL     OW  511   0.202   0.851   2.377 -0.6637 -0.3618  1.2376
  171SOL    HW1  512   0.109   0.865   2.413 -1.2014 -0.7181 -2.6968
  171SOL    HW2  513   0.203   0.855   2.271 -1.4448  0.5076 -0.0143
  172SOL     OW  514   0.967   1.049   2.871  0.1528 -0.3172  0.0116
  172SOL    HW1  515   0.948   1.142   2.904  1.3705 -1.9767  2.7327
  172SOL    HW2  516   0.942   1.033   2.772  0.9493  0.9333  0.9681
  173SOL     OW  517   0.479   2.520   0.089 -0.6109  0.6417 -0.5480
  173SOL    HW1  518   0.504   2.478  -0.005  2.0231  0.6273 -0.6249
  173SOL    HW2  519   0.407   2.472   0.149 -0.2507  3.5429  4.2326
  174SOL     OW  520   1.508   2.874   1.069 -0.1350  0.4326 -0.1628
  174SOL    HW1  521   1.578   2.937   1.025 -1.1593 -1.2499  1.0798
  174SOL    HW2  522   1.480   2.794   1.009 -0.4059 -0.0054 -1.2143
  175SOL     OW  523   0.399   3.069   1.724  0.1798  0.0648 -0.2138
  175SOL    HW1  524   0.486   3.049   1.781 -0.8400  0.1988 -0.8315
  175SOL    HW2  525   0.392   3.162   1.674 -0.8781 -0.9279  1.5739
  176SOL     OW  526   2.647   0.404   0.023  0.2426  0.2999 -0.6928
  176SOL    HW1  527   2.644   0.495   0.076  1.4777 -0.4010  0.1622
  176SOL    HW2  528   2.711   0.332   0.064 -0.0048 -0.6126  1.5109
  177SOL     OW  529   0.387   0.305   0.933 -0.2325 -0.3837 -0.4937
  177SOL    HW1  530   0.342   0.211   0.941  0.2067  1.5766 -1.8581
  177SOL    HW2  531   0.348   0.385   0.990  2.6148 -0.7373  1.0280
  178SOL     OW  532   0.054   2.746   2.577  0.3695  0.5109  0.2655
  178SOL    HW1  533   0.023   2.646   2.564  0.2600  1.6383  0.9868
  178SOL    HW2  534   0.104   2.762   2.670  0.0017 -2.1878  1.7337
  179SOL     OW  535   2.965   1.546   1.134 -0.2821 -0.0113  0.3972
  179SOL    HW1  536   2.980   1.648   1.105  0.1853  3.4787 -0.1206
  179SOL    HW2  537   3.021   1.512   1.218  1.1458  0.1830 -1.0846
  180SOL     OW  538   0.203   1.374   1.782  0.2407  0.1138 -0.6238
  180SOL    HW1  539   0.292   1.326   1.776  1.0657  0.5655  1.8171
  180SOL    HW2  540   0.185   1.417   1.878 -2.3709 -0.4811  2.6681
  181SOL     OW  541   2.949   1.890   2.540 -0.2504 -0.6417 -0.3504
  181SOL    HW1  542   3.019   1.962   2.503 -2.8851  0.8531 -4.9042
  181SOL    HW2  543   2.866   1.896   2.474 -0.0740 -1.0270  2.4982
  182SOL     OW  544   2.273   1.346   1.250 -0.3975  0.3408 -0.5270
  182SOL    HW1  545   2.217   1.289   1.178 -4.1319  1.5960 -2.0017
  182SOL    HW2  546   2.338   1.406   1.199  0.4244  0.0821  0.0117
  183SOL     OW  547   1.411   2.279   2.446  0.4061  0.3299 -0.5876
  183SOL    HW1  548   1.334   2.248   2.508  1.3683  1.8134 -0.4035
  183SOL    HW2  549   1.475   2.199   2.422 -0.8037 -0.5306 -0.8983
  184SOL     OW  550   2.158   0.818   0.755  0.9199  0.1526  0.1127
  184SOL    HW1  551   2.066   0.864   0.756  1.9232 -3.1698 -3.2026
  184SOL    HW2  552   2.147   0.721   0.715  3.6881  2.1770  2.6649
  185SOL     OW  553   1.585   2.783   2.010 -0.2177 -0.3134 -0.4949
  185SOL    HW1  554   1.499   2.838   2.034  0.9116  2.4971 -1.3461
  185SOL    HW2  555   1.641   2.758   2.098  0.4789  2.2799 -0.0006
  186SOL     OW  556   0.094   2.194   1.700  0.6988 -0.4149  0.4620
  186SOL    HW1  557   0.094   2.220   1.798 -0.1832 -2.8437 -0.0547
  186SOL    HW2  558   0.177   2.143   1.676 -1.6135 -0.0361  4.3811
  187SOL     OW  559   1.364   0.650   1.650  0.4596 -0.2474  0.2126
  187SOL    HW1  560   1.437   0.711   1.603  1.4012  2.6105 -1.1195
  187SOL    HW2  561   1.398   0.571   1.696 -0.0143  1.1007 -1.3801
  188SOL     OW  562   2.742   2.704   1.469 -0.3345 -0.1273  0.5280
  188SOL    HW1  563   2.704   2.800   1.491 -1.6809  1.9417  2.2578
  188SOL    HW2  564   2.672   2.635   1.440  1.3622 -1.0559 -1.3444
  189SOL     OW  565   0.921   1.225   1.368  0.1767  0.3241 -0.3065
  189SOL    HW1  566   0.984   1.255   1.447  0.2179  2.0969 -0.0992
  189SOL    HW2  567   0.862   1.302   1.335 -0.7662 -0.3359  2.1935
  190SOL     OW  568   1.456   1.878   1.525 -0.1684 -0.1987  0.0759
  190SOL    HW1  569   1.464   1.775   1.515  1.2012 -0.6735 -2.8111
  190SOL    HW2  570   1.448   1.920   1.621  0.9165 -1.4997  2.5720
  191SOL     OW  571   0.874   0.777   1.525 -0.3623 -0.7912 -0.0504
  191SOL    HW1  572   0.925   0.698   1.570  0.8855 -0.5293 -0.3406
  191SOL    HW2  573   0.941   0.833   1.461  3.9702 -0.9275 -0.8739
  192SOL     OW  574   1.824   2.448   1.101 -0.2611 -0.2900  0.4103
  192SOL    HW1  575   1.720   2.431   1.080  0.1825 -1.6647 -2.7142
  192SOL    HW2  576   1.896   2.382   1.060  2.9251 -1.2104 -2.2511
  193SOL     OW  577   0.567   0.582   0.476  0.2368 -0.0605  0.0258
  193SOL    HW1  578   0.522   0.482   0.465 -1.3070 -2.0700 -0.9977
  193SOL    HW2  579   0.612   0.605   0.386 -2.2180  1.2073  1.2679
  194SOL     OW  580   0.354   0.868   1.340  0.4223  0.3991 -0.5233
  194SOL    HW1  581   0.273   0.853   1.276  0.1891 -0.1142 -2.9193
  194SOL    HW2  582   0.442   0.865   1.285 -2.5007 -1.3297 -0.9728
  195SOL     OW  583   0.979   2.924   0.550  0.3968  0.5640  0.2243
  195SOL    HW1  584   0.979   2.835   0.497 -1.2362  0.1907 -0.0725
  195SOL    HW2  585   1.071   2.971   0.553 -0.7752  0.5738  2.5092
  196SOL     OW  586   0.283   1.401   1.327  0.2952 -0.1045 -0.5313
  196SOL    HW1  587   0.273   1.507   1.329 -4.6972 -0.4841  1.4173
  196SOL    HW2  588   0.282   1.356   1.423 -0.6138 -2.2933 -0.1037
  197SOL     OW  589   0.831   2.030   0.316 -0.2427 -0.4329  0.1755
  197SOL    HW1  590   0.835   1.966   0.398  2.3517  1.5421  0.3065
  197SOL    HW2  591   0.835   1.978   0.225 -0.7197  0.3683 -2.5123
  198SOL     OW  592   0.308   1.252   0.336 -0.2817  0.1752  0.0894
  198SOL    HW1  593   0.218   1.236   0.289  0.6180 -3.3362 -1.7809
  198SOL    HW2  594   0.302   1.326   0.406  2.2777 -0.1580  1.4691
  199SOL     OW  595   2.170   0.479   2.579 -0.2527  0.1536 -0.0421
  199SOL    HW1  596   2.106   0.442   2.649 -1.8237 -0.2216  0.0692
  199SOL    HW2  597   2.268   0.451   2.589 -2.2594  0.7538 -0.0946
  200SOL     OW  598   3.054   2.932   0.811 -0.4211 -0.5796 -0.5288
  200SOL    HW1  599   3.058   3.029   0.849 -3.4764 -2.4377 -0.8058
  200SOL    HW2  600   2.977   2.924   0.743  0.4990 -1.6141  1.8604
  201SOL     OW  601   0.937   0.683   0.514 -0.0666 -0.3304 -0.2759
  201SOL    HW1  602   0.889   0.760   0.563  1.5424 -0.7367 -1.3493
  201SOL    HW2  603   0.903   0.583   0.543  1.0826 -1.8838 -2.2412
  202SOL     OW  604   0.448   1.235   1.837  0.2000 -0.6573  0.5404
  202SOL    HW1  605   0.535   1.185   1.811  0.0859  5.1708  0.6052
  202SOL    HW2  606   0.447   1.295   1.922 -1.7825  0.6241 -1.5156
  203SOL     OW  607   0.658   0.262   1.584  0.1984 -0.2411  0.6647
  203SOL    HW1  608   0.708   0.208   1.507 -0.3894  2.4925 -0.1407
  203SOL    HW2  609   0.711   0.261   1.672  0.5231  3.3084 -1.5718
  204SOL     OW  610   2.077   1.794   2.947  0.3239 -0.2745 -0.2790
  204SOL    HW1  611   2.085   1.703   2.994 -0.8191  3.7832 -0.1496
  204SOL    HW2  612   2.123   1.797   2.854 -0.7132 -0.5027 -0.6014
  205SOL     OW  613   1.830   1.901   3.081  0.0160  0.3918 -0.2303
  205SOL    HW1  614   1.913   1.848   3.044  0.1256  2.0860  2.7606
  205SOL    HW2  615   1.801   1.978   3.012 -1.7330  1.0869  0.5430
  206SOL     OW  616   2.402   2.741   0.274 -0.6206 -0.1935 -0.4596
  206SOL    HW1  617   2.359   2.647   0.290 -0.2030 -1.6517 -0.1225
  206SOL    HW2  618   2.504   2.749   0.253 -1.5025 -0.5571  0.9840
  207SOL     OW  619   0.712   1.772   2.850 -0.3267 -0.2110  0.7128
  207SOL    HW1  620   0.792   1.721   2.811  0.2141  0.4901  1.2908
  207SOL    HW2  621   0.668   1.723   2.927 -1.4920 -1.5012 -0.1703
  208SOL     OW  622   1.020   1.584   1.226 -0.1874 -1.0482  0.3160
  208SOL    HW1  623   0.936   1.556   1.172 -1.2714  0.5648 -1.0185
  208SOL    HW2  624   0.995   1.634   1.314 -1.1449  5.0162 -1.4724
  209SOL     OW  625   0.265   0.959   3.097  0.1019 -0.1578 -0.1479
  209SOL    HW1  626   0.256   0.896   3.018  0.7458 -0.8771 -0.7382
  209SOL    HW2  627   0.228   0.923   3.189  0.9353  1.5086  2.1001
  210SOL     OW  628   1.709   0.509   1.252 -0.0425  0.4023  0.3524
  210SOL    HW1  629   1.668   0.573   1.182 -1.2348  1.2650 -1.3437
  210SOL    HW2  630   1.811   0.492   1.243 -3.0821 -0.1797 -0.0197
  211SOL     OW  631   2.102   1.012   1.588  0.7336 -0.4921 -0.0655
  211SOL    HW1  632   2.144   0.984   1.677  3.2350  0.5519 -1.0518
  211SOL    HW2  633   2.166   1.083   1.538  0.4340  6.8928  0.3982
  212SOL     OW  634   0.022   0.986   1.496  0.4508 -0.0750  0.1442
  212SOL    HW1  635   0.082   1.068   1.514  0.3007 -1.6977  1.9141
  212SOL    HW2  636   0.047   0.908   1.557 -1.0211  0.8742 -0.6413
  213SOL     OW  637   2.817   0.177   0.294  0.8456 -0.8099  0.8940
  213SOL    HW1  638   2.875   0.097   0.270 -2.4022 -1.0693 -1.3577
  213SOL    HW2  639   2.727   0.183   0.243  1.3935 -0.8021  0.1102
  214SOL     OW  640   2.173   0.341   2.345  0.0159 -0.1810  0.1297
  214SOL    HW1  641   2.167   0.401   2.433  0.5065  1.1232  3.7201
  214SOL    HW2  642   2.194   0.243   2.359 -0.2931  0.3925  1.0189
  215SOL     OW  643   1.646   2.230   2.056 -0.2319 -0.3101 -0.5206
  215SOL    HW1  644   1.750   2.250   2.068  0.1194 -1.0407  0.4600
  215SOL    HW2  645   1.583   2.315   2.047 -2.4284  0.0689 -2.2447
  216SOL     OW  646   2.168   0.557   0.688  0.7832 -0.4373  0.7289
  216SOL    HW1  647   2.114   0.488   0.628 -0.0491  1.6168 -0.6725
  216SOL    HW2  648   2.262   0.561   0.662 -3.8786 -0.4483  5.1833
  217SOL     OW  649   0.917   2.793   2.547  0.2794  0.2489  0.5010
  217SOL    HW1  650   0.953   2.708   2.599  0.0726  0.3975  2.2465
  217SOL    HW2  651   0.867   2.778   2.460  0.7814 -2.3664  2.4674
  218SOL     OW  652   1.883   1.455   0.036  0.5352 -0.0153  0.4360
  218SOL    HW1  653   1.778   1.463   0.037  0.6030  2.8820  0.5112
  218SOL    HW2  654   1.923   1.389   0.105  0.4936 -0.6456  1.5560
  219SOL     OW  655   2.449   1.262   2.531 -0.2331  0.1762  0.7219
  219SOL    HW1  656   2.503   1.227   2.446  2.8397 -0.5865 -0.1760
  219SOL    HW2  657   2.462   1.207   2.620 -2.9905 -0.8161  0.4664
  220SOL     OW  658   1.422   1.012   1.375 -0.1227  0.2270 -0.0916
  220SOL    HW1  659   1.523   0.999   1.396 -1.3505 -1.4519 -0.9980
  220SOL    HW2  660   1.408   1.025   1.273  2.3911  1.8195  0.7275
  221SOL     OW  661   1.370   0.962   2.205  0.2680 -0.2790 -0.6070
  221SOL    HW1  662   1.328   0.990   2.119  1.1513 -1.4823  0.2564
  221SOL    HW2  663   1.461   1.012   2.226  1.2992 -1.4488  0.3130
  222SOL     OW  664   1.131   0.083   1.235  0.3468  0.2374 -0.0705
  222SOL    HW1  665   1.174   0.123   1.319  0.3405  0.4386 -1.1795
  222SOL    HW2  666   1.117   0.153   1.156 -0.0892  1.2866 -0.8642
  223SOL     OW  667   2.709   0.945   2.099  0.1797  0.7007  0.3338
  223SOL    HW1  668   2.638   1.020   2.089  0.3473  1.0508 -0.9061
  223SOL    HW2  669   2.807   0.982   2.119  1.5841  0.0650 -2.0865
  224SOL     OW  670   1.599   1.027   2.756  0.0853 -0.3274  0.7420
  224SOL    HW1  671   1.621   0.940   2.705 -0.6682  0.8541 -0.7498
  224SOL    HW2  672   1.617   1.110   2.695  1.1608  3.1516 -2.0587
  225SOL     OW  673   2.958   2.692   2.882 -0.1313  0.3888 -0.0374
  225SOL    HW1  674   2.879   2.701   2.814  0.2714  0.7766  2.7805
  225SOL    HW2  675   3.020   2.782   2.884 -2.2347  2.0557  0.6722
  226SOL     OW  676   2.371   1.501   2.802  0.1784 -0.4535 -0.0980
  226SOL    HW1  677   2.425   1.529   2.715  1.9950 -0.4048  0.5812
  226SOL    HW2  678   2.426   1.456   2.881  2.4916  0.4298 -0.9662
  227SOL     OW  679   0.845   0.250   3.088 -0.0976 -0.2208  0.4148
  227SOL    HW1  680   0.905   0.328   3.066  1.1996 -2.4601 -0.7027
  227SOL    HW2  681   0.780   0.227   3.013  1.2752 -1.8089  1.9931
  228SOL     OW  682   2.418   0.654   2.837 -0.2584  0.2425  0.8460
  228SOL    HW1  683   2.433   0.727   2.761  1.0361  1.2497  2.1756
  228SOL    HW2  684   2.497   0.587   2.849  1.2720 -2.3744  2.1638
  229SOL     OW  685   0.465   0.498   1.816 -0.5680  0.3768  0.3103
  229SOL    HW1  686   0.461   0.393   1.828 -1.6190 -1.5280  0.5636
  229SOL    HW2  687   0.491   0.523   1.722 -4.1844 -0.7235  0.3991
  230SOL     OW  688   1.882   1.206   1.986  0.3499 -0.8867 -0.4742
  230SOL    HW1  689   1.946   1.284   1.963  1.1070  0.0033  0.6606
  230SOL    HW2  690   1.813   1.244   2.057 -0.3152 -1.4396 -1.0667
  231SOL     OW  691   0.626   1.065   3.090 -0.1609  0.2607 -0.0394
  231SOL    HW1  692   0.718   1.110   3.072 -2.1231 -4.7660  2.5105
  231SOL    HW2  693   0.549   1.130   3.090 -2.0671  1.5710  0.8987
  232SOL     OW  694   2.407   3.025   2.840 -0.0695  0.2766  0.0913
  232SOL    HW1  695   2.462   2.936   2.845 -1.0264  2.2351  0.9243
  232SOL    HW2  696   2.425   3.085   2.757 -0.2624 -0.2501  0.1289
  233SOL     OW  697   1.725   1.199   1.140  0.1780 -0.6830 -0.6396
  233SOL    HW1  698   1.811   1.261   1.143  0.6149  2.1399  1.6780
  233SOL    HW2  699   1.746   1.109   1.090  0.5435 -0.1846 -2.7462
  234SOL     OW  700   1.651   2.583   1.819  0.1315  0.5062  0.0264
  234SOL    HW1  701   1.635   2.621   1.909  0.4287  0.1011  0.7740
  234SOL    HW2  702   1.588   2.502   1.801  0.8030 -1.4504  0.5197
  235SOL     OW  703   3.085   2.926   2.892  0.0748 -0.0347 -0.4228
  235SOL    HW1  704   3.060   2.967   2.803  0.4992 -3.3807  0.9201
  235SOL    HW2  705   3.041   2.968   2.975  0.5180  2.4663 -1.0136
  236SOL     OW  706   2.945   0.681   0.068  1.0023  0.5464  0.1343
  236SOL    HW1  707   3.009   0.723   0.143 -1.9150 -0.4425  0.4043
  236SOL    HW2  708   2.974   0.585   0.041 -0.9090  1.0148  0.1158
  237SOL     OW  709   1.427   1.625   0.906  0.5361 -0.0311 -0.0720
  237SOL    HW1  710   1.523   1.583   0.900 -0.1591 -2.2561  1.3312
  237SOL    HW2  711   1.413   1.684   0.988  1.1776 -0.7825 -1.6536
  238SOL     OW  712   1.909   1.211   0.785  0.0976  0.4080  0.0874
  238SOL    HW1  713   1.917   1.254   0.879  0.7855 -0.2551 -0.7226
  238SOL    HW2  714   1.805   1.220   0.748  1.5122  1.1012 -0.0566
  239SOL     OW  715   2.058   0.238   2.721 -0.2551 -0.7358 -0.2643
  239SOL    HW1  716   2.087   0.180   2.798 -2.4460  0.0676 -0.2757
  239SOL    HW2  717   1.985   0.311   2.755 -0.4408  1.4684  2.8030
  240SOL     OW  718   0.900   0.699   0.236  0.0100  0.1201  0.3303
  240SOL    HW1  719   0.972   0.630   0.198  0.4077  2.9775  2.0809
  240SOL    HW2  720   0.903   0.701   0.342 -0.9531  0.5113 -1.6320
  241SOL     OW  721   0.571   0.143   0.363  0.2073  0.4232 -0.6219
  241SOL    HW1  722   0.640   0.208   0.320  2.1976  1.2902  2.0457
  241SOL    HW2  723   0.534   0.066   0.297 -0.3016  0.1941 -5.5245
  242SOL     OW  724   0.636   2.553   1.178  0.1242  0.4016  0.4113
  242SOL    HW1  725   0.614   2.551   1.280  0.2108 -1.1074  0.4059
  242SOL    HW2  726   0.633   2.639   1.127 -0.3221 -2.9586  0.8010
  243SOL     OW  727   1.036   0.593   2.387  0.0871 -0.1769 -0.2678
  243SOL    HW1  728   0.949   0.603   2.329 -1.1298 -1.9680  0.2842
  243SOL    HW2  729   1.005   0.584   2.485  1.2296  1.1114 -2.7609
  244SOL     OW  730   2.758   1.925   2.349 -0.2631  0.3951 -0.1790
  244SOL    HW1  731   2.795   1.919   2.250 -1.1683  2.4779 -0.9596
  244SOL    HW2  732   2.666   1.875   2.362 -2.4241 -1.5664 -0.5222
  245SOL     OW  733   2.178   0.975   2.145 -0.1972  0.9404  0.3823
  245SOL    HW1  734   2.270   0.932   2.165 -1.1562 -0.6593 -2.2383
  245SOL    HW2  735   2.154   1.056   2.204  2.2987  2.4747 -1.1720
  246SOL     OW  736   0.256   2.825   1.809  0.1153  0.2030  0.4780
  246SOL    HW1  737   0.160   2.819   1.765  0.4261 -2.3231 -0.5184
  246SOL    HW2  738   0.319   2.894   1.766  3.0461  1.6844 -0.1914
  247SOL     OW  739   2.227   0.614   3.033  0.0374 -0.2413 -0.2526
  247SOL    HW1  740   2.296   0.613   2.960 -0.0033 -1.3187 -0.0972
  247SOL    HW2  741   2.149   0.684   3.026 -2.3085 -1.8370  0.6424
  248SOL     OW  742   2.191   1.853   1.630 -0.1651 -0.2955  0.0632
  248SOL    HW1  743   2.265   1.826   1.694  1.3645  1.7250  1.3208
  248SOL    HW2  744   2.097   1.805   1.639  0.7049  1.7802 -0.9419
  249SOL     OW  745   1.909   1.896   1.823  0.1180  0.1894 -0.7180
  249SOL    HW1  746   1.895   1.825   1.748 -1.5853 -1.5303  1.9201
  249SOL    HW2  747   2.006   1.895   1.863 -1.0586  0.8826 -1.0831
  250SOL     OW  748   1.027   0.705   1.873 -1.2478  0.3857  0.2577
  250SOL    HW1  749   1.057   0.637   1.947 -0.1399 -2.0258  1.6075
  250SOL    HW2  750   1.045   0.669   1.778  1.8245 -0.9425  3.2964
  251SOL     OW  751   3.060   1.605   2.527  0.7017 -0.8509 -0.2244
  251SOL    HW1  752   3.015   1.699   2.525  2.7725 -3.0677 -4.7645
  251SOL    HW2  753   2.989   1.530   2.514 -0.3847  0.3845 -2.8265
  252SOL     OW  754   1.550   0.824   1.561 -0.3224  0.8067 -1.0267
  252SOL    HW1  755   1.612   0.868   1.488 -1.3147  0.6046 -1.5406
  252SOL    HW2  756   1.547   0.873   1.653 -2.1612  1.3258 -0.4976
  253SOL     OW  757   0.944   1.520   0.479 -0.9802 -0.3639  0.1373
  253SOL    HW1  758   0.964   1.450   0.409  2.1490 -0.6624  0.7783
  253SOL    HW2  759   0.852   1.516   0.522  0.5127  2.6372 -1.7350
  254SOL     OW  760   2.029   2.205   1.612 -0.2166 -0.2575 -0.4437
  254SOL    HW1  761   1.964   2.135   1.564  0.3612  1.3124 -1.6123
  254SOL    HW2  762   1.979   2.279   1.663  2.1043  0.7455 -0.0689
  255SOL     OW  763   0.137   1.150   2.931 -0.3516 -0.6503  0.2473
  255SOL    HW1  764   0.198   1.231   2.902 -0.5977  4.6193 -1.0143
  255SOL    HW2  765   0.176   1.075   2.992  1.0136  1.3800 -0.2539
  256SOL     OW  766   2.829   1.383   1.822 -0.1002  0.3141 -0.4330
  256SOL    HW1  767   2.779   1.468   1.811  0.3222 -0.6018 -0.8012
  256SOL    HW2  768   2.791   1.299   1.770 -1.7402 -0.5878 -1.5887
  257SOL     OW  769   0.814   0.182   1.822 -0.2472  0.8186 -0.0493
  257SOL    HW1  770   0.879   0.259   1.787  5.0473  4.1321  0.5111
  257SOL    HW2  771   0.842   0.086   1.786  0.2239  1.5338 -0.2872
  258SOL     OW  772   2.974   1.146   0.531 -0.4197 -0.7570  0.1584
  258SOL    HW1  773   2.897   1.199   0.568 -0.6856  2.6328 -1.2404
  258SOL    HW2  774   3.059   1.177   0.580 -1.4932  2.1892 -0.1056
  259SOL     OW  775   0.460   2.931   3.005  0.1250  0.3064 -0.2500
  259SOL    HW1  776   0.400   2.870   3.059  2.4396  0.9098 -2.5697
  259SOL    HW2  777   0.481   2.884   2.912  2.7443  2.1036 -0.7617
  260SOL     OW  778   2.710   0.760   2.722  0.3730 -0.0920 -0.4008
  260SOL    HW1  779   2.618   0.792   2.687 -2.1053 -1.0855  1.9494
  260SOL    HW2  780   2.709   0.710   2.810 -0.8038 -0.3727  0.4010
  261SOL     OW  781   2.710   1.307   1.323 -0.3430  0.5231 -0.2390
  261SOL    HW1  782   2.722   1.244   1.238  1.5805 -1.8174 -1.9661
  261SOL    HW2  783   2.783   1.280   1.392  0.9162 -1.7989 -1.8648
  262SOL     OW  784   1.370   2.972   2.048  0.4246  0.5007  0.7877
  262SOL    HW1  785   1.415   3.055   2.009 -1.5155 -1.0001  0.0325
  262SOL    HW2  786   1.268   2.969   2.020  0.1068  0.5041 -4.4334
  263SOL     OW  787   0.804   0.673   2.268  0.0392 -0.1182 -0.4202
  263SOL    HW1  788   0.765   0.589   2.227  3.0894 -1.6231  0.3399
  263SOL    HW2  789   0.829   0.741   2.191  1.1662 -1.5001  1.4649
  264SOL     OW  790   2.279   0.818   0.386 -0.1893 -0.1773 -0.8167
  264SOL    HW1  791   2.287   0.749   0.312 -0.5131  0.4811  1.9172
  264SOL    HW2  792   2.371   0.851   0.411 -1.9061  1.3812 -0.2147
  265SOL     OW  793   0.932   2.371   2.620 -0.6036 -0.6904 -0.0217
  265SOL    HW1  794   0.971   2.460   2.671  2.5682  2.6476  0.3501
  265SOL    HW2  795   0.886   2.307   2.686 -0.7890  2.7297 -0.7847
  266SOL     OW  796   1.333   1.756   3.061 -0.0894 -0.0452 -0.0014
  266SOL    HW1  797   1.333   1.816   3.148 -2.2461  1.2945 -2.4621
  266SOL    HW2  798   1.429   1.744   3.016  0.4345 -2.2664  0.9820
  267SOL     OW  799   1.077   0.040   2.266 -0.6855  0.1753  0.3770
  267SOL    HW1  800   0.987   0.007   2.245  1.1753  0.3374  3.2039
  267SOL    HW2  801   1.123   0.090   2.189  1.3531  1.2894 -0.4910
  268SOL     OW  802   0.835   1.236   1.047 -0.7512 -0.2979 -0.3409
  268SOL    HW1  803   0.793   1.298   1.112 -3.0865 -1.7060 -1.9025
  268SOL    HW2  804   0.919   1.274   0.998  1.3152  0.6613 -0.4522
  269SOL     OW  805   2.372   2.479   1.635 -0.0622  0.2427 -0.4007
  269SOL    HW1  806   2.437   2.410   1.682  0.4164 -0.7523 -1.2683
  269SOL    HW2  807   2.317   2.519   1.716  0.3113  1.1058  0.5180
  270SOL     OW  808   0.139   2.980   2.010  0.6762  0.0572  0.1403
  270SOL    HW1  809   0.184   2.944   1.923 -0.6993  0.3899 -1.0912
  270SOL    HW2  810   0.110   2.905   2.074 -0.8321 -0.3402  1.2460
  271SOL     OW  811   0.498   1.385   1.131 -0.4322 -0.5024  0.1127
  271SOL    HW1  812   0.452   1.372   1.039 -1.7485  2.8386  1.8491
  271SOL    HW2  813   0.429   1.383   1.212 -2.3194 -1.6414  2.4075
  272SOL     OW  814   1.900   3.078   1.948 -0.2143  0.4612 -0.0345
  272SOL    HW1  815   1.814   3.027   1.918  2.2557 -0.4132 -3.6113
  272SOL    HW2  816   1.976   3.088   1.875 -0.1530  2.0791 -0.6087
  273SOL     OW  817   1.535   1.475   2.808  0.0862  0.2187  0.2555
  273SOL    HW1  818   1.432   1.483   2.801  1.0658 -0.7713  0.0204
  273SOL    HW2  819   1.570   1.449   2.903  0.4386  3.4782  0.8269
  274SOL     OW  820   1.133   0.518   2.061 -0.7128 -0.2399  0.3924
  274SOL    HW1  821   1.044   0.469   2.049  2.5807 -1.3635 -0.6072
  274SOL    HW2  822   1.196   0.491   2.138 -0.1110  1.6741  1.6275
  275SOL     OW  823   0.642   2.113   1.947  0.3301  0.0702  0.0282
  275SOL    HW1  824   0.634   2.193   2.011  0.4645 -0.2724 -0.6785
  275SOL    HW2  825   0.554   2.064   1.926 -1.1936  0.9718 -1.5573
  276SOL     OW  826   2.221   0.986   2.790  0.0489 -0.4065  0.2246
  276SOL    HW1  827   2.126   1.013   2.764  1.2713  0.8611 -0.8008
  276SOL    HW2  828   2.227   0.883   2.785 -0.6930 -0.6933  0.3055
  277SOL     OW  829   3.074   0.788   0.269 -0.0729 -0.1720 -0.7263
  277SOL    HW1  830   3.163   0.840   0.255  1.1242  0.0031  0.2417
  277SOL    HW2  831   3.088   0.696   0.316 -0.4841 -1.2029 -0.3224
  278SOL     OW  832   0.279   0.264   3.024 -0.1304  0.4161  0.9804
  278SOL    HW1  833   0.375   0.225   3.000  1.6828 -0.0139  1.8642
  278SOL    HW2  834   0.280   0.366   3.040  1.6903 -0.2978 -2.7917
  279SOL     OW  835   0.269   0.027   0.933  0.2479 -0.2221  0.4709
  279SOL    HW1  836   0.279   0.003   1.036 -1.9517 -0.9192 -0.6475
  279SOL    HW2  837   0.327  -0.029   0.868  2.0513 -1.4218 -1.0810
  280SOL     OW  838   1.649   2.938   2.421  0.1753 -0.7429  0.1009
  280SOL    HW1  839   1.708   2.988   2.494  1.9361  1.3688 -0.5366
  280SOL    HW2  840   1.583   2.998   2.379  3.5037 -1.2251  4.1987
  281SOL     OW  841   0.527   0.948   2.253 -0.1268  0.4356  0.0355
  281SOL    HW1  842   0.547   0.853   2.211 -0.4444  0.4718 -0.6621
  281SOL    HW2  843   0.500   0.951   2.354 -0.4989  0.8841 -0.5965
  282SOL     OW  844   1.778   2.452   0.540  0.1240 -0.0148 -0.8054
  282SOL    HW1  845   1.760   2.381   0.468  0.1604  0.0890  0.1412
  282SOL    HW2  846   1.730   2.541   0.521 -0.7296  2.5562 -0.7273
  283SOL     OW  847   1.134   0.887   0.753 -0.3116  0.0744 -0.6521
  283SOL    HW1  848   1.144   0.807   0.815 -0.0876 -0.2784 -1.7815
  283SOL    HW2  849   1.109   0.971   0.807  2.2451  0.1570 -0.2197
  284SOL     OW  850   2.236   2.826   2.461 -0.3197 -0.2932 -0.3201
  284SOL    HW1  851   2.330   2.832   2.418 -1.0497 -0.8172 -0.0009
  284SOL    HW2  852   2.222   2.874   2.549  1.4677  0.9750  3.9483
  285SOL     OW  853   1.373   0.019   2.576 -0.4219 -0.0692 -0.0945
  285SOL    HW1  854   1.397  -0.001   2.476 -2.9961 -1.6423  1.0219
  285SOL    HW2  855   1.280   0.063   2.594 -0.2030  1.5447 -1.5223
  286SOL     OW  856   0.422   0.484   0.728 -0.0215 -0.4329 -0.5888
  286SOL    HW1  857   0.433   0.401   0.786 -2.7394  0.7879  0.1914
  286SOL    HW2  858   0.431   0.455   0.628 -2.9013  2.3783  0.0370
  287SOL     OW  859   0.080   1.321   2.652  0.1663 -0.3516 -0.1542
  287SOL    HW1  860   0.037   1.247   2.704 -2.4531  1.0409  1.1816
  287SOL    HW2  861   0.040   1.413   2.683 -2.6121  2.0019 -0.0775
  288SOL     OW  862   1.507   2.743   1.641 -0.0152  0.3526  0.1267
  288SOL    HW1  863   1.576   2.705   1.713  1.2803  1.4221  1.8532
  288SOL    HW2  864   1.528   2.700   1.550  2.4246 -2.9590  0.3411
  289SOL     OW  865   0.622   2.743   0.867  0.2821  0.0855 -0.5468
  289SOL    HW1  866   0.659   2.814   0.794 -0.1603 -0.1345  0.0223
  289SOL    HW2  867   0.561   2.799   0.934  0.6643  3.1899  2.5826
  290SOL     OW  868   2.816   1.133   1.708  0.6855  0.4095 -0.1820
  290SOL    HW1  869   2.734   1.072   1.713 -1.6146  2.3938 -1.0512
  290SOL    HW2  870   2.898   1.114   1.770 -1.5747  0.9290 -1.3802
  291SOL     OW  871   1.954   3.086   0.054 -0.0536 -0.4973 -0.0562
  291SOL    HW1  872   1.957   3.115   0.151 -3.1844 -1.6342 -1.4939
  291SOL    HW2  873   2.018   3.147  -0.001 -0.0268 -2.1563 -0.3810
  292SOL     OW  874   2.995   1.150   3.056 -0.2450 -0.5544 -0.1448
  292SOL    HW1  875   2.928   1.235   3.039 -0.0654 -0.0531 -2.6671
  292SOL    HW2  876   3.085   1.157   2.999  2.3559 -1.0387  0.2060
  293SOL     OW  877   0.580   2.087   0.308  0.2080 -0.0989  0.1634
  293SOL    HW1  878   0.535   2.167   0.353 -0.2989  1.1847 -3.6717
  293SOL    HW2  879   0.682   2.076   0.332  1.0481  0.7048 -2.8295
  294SOL     OW  880   1.865   2.382   1.770  0.1072 -0.3974 -0.0170
  294SOL    HW1  881   1.906   2.369   1.864 -0.6298  1.3740  0.9883
  294SOL    HW2  882   1.813   2.467   1.768  2.7891 -0.3923 -1.7297
  295SOL     OW  883   1.023   1.047   0.453  0.1794 -0.6265 -0.0021
  295SOL    HW1  884   1.118   1.021   0.476 -0.3908  2.3585 -2.9773
  295SOL    HW2  885   0.952   1.017   0.527 -0.9229  1.8388  2.3298
  296SOL     OW  886   1.134   2.142   2.754 -0.6226  0.2163  0.1552
  296SOL    HW1  887   1.052   2.204   2.742  0.7216 -0.2258 -1.0729
  296SOL    HW2  888   1.178   2.104   2.664  0.0834 -0.9032 -0.2599
  297SOL     OW  889   1.314   0.546   1.201 -0.2665 -0.2230 -0.7657
  297SOL    HW1  890   1.347   0.495   1.284 -0.0917 -0.8259  1.7070
  297SOL    HW2  891   1.400   0.569   1.149 -0.1167  0.8237 -0.2934
  298SOL     OW  892   0.474   1.339   2.944  0.0957 -0.4729 -0.1786
  298SOL    HW1  893   0.432   1.301   3.030 -0.1899  2.1413 -0.3500
  298SOL    HW2  894   0.525   1.268   2.893 -2.1191 -1.4087  0.8988
  299SOL     OW  895   0.421   0.213   1.240  0.2087  0.4162 -0.4095
  299SOL    HW1  896   0.393   0.311   1.223  0.1795  1.0164 -2.6952
  299SOL    HW2  897   0.438   0.184   1.339  0.8515  0.3443 -0.3110
  300SOL     OW  898   1.287   1.779   2.562  0.5200  0.3742 -0.0244
  300SOL    HW1  899   1.249   1.692   2.525  1.9210  1.3766 -0.9811
  300SOL    HW2  900   1.387   1.774   2.567 -2.3244  1.7876 -0.6503
  301SOL     OW  901   0.425   0.343   0.474 -0.1200  0.2133 -0.3715
  301SOL    HW1  902   0.321   0.336   0.456  0.1799  4.9290  0.0369
  301SOL    HW2  903   0.476   0.267   0.420 -0.8578 -0.0187 -0.1359
  302SOL     OW  904   1.277   2.453   2.250  0.1231 -0.4954  0.3236
  302SOL    HW1  905   1.179   2.429   2.267  0.3158  1.7102  2.6860
  302SOL    HW2  906   1.337   2.421   2.329  0.2970  0.1025  1.6498
  303SOL     OW  907   0.986   2.399   0.823  0.3791  0.1167 -0.2779
  303SOL    HW1  908   1.031   2.432   0.730  0.7370  2.0773 -1.1492
  303SOL    HW2  909   1.007   2.450   0.914 -0.6630 -0.0433 -0.2744
  304SOL     OW  910   0.132   1.905   0.677  0.6596  0.1380  0.0081
  304SOL    HW1  911   0.176   1.896   0.586 -2.2926 -0.0648 -0.3269
  304SOL    HW2  912   0.047   1.975   0.679 -0.1658  0.2411  0.1343
  305SOL     OW  913   1.577   0.829   0.700 -0.2839 -0.2664 -0.2755
  305SOL    HW1  914   1.562   0.864   0.609  4.2157 -3.9705  0.1138
  305SOL    HW2  915   1.648   0.754   0.699  1.6440  0.7320 -2.4030
  306SOL     OW  916   0.411   1.878   1.943 -0.5976 -0.6274  0.9196
  306SOL    HW1  917   0.502   1.836   1.907 -0.2477  1.4075 -0.2805
  306SOL    HW2  918   0.409   1.897   2.048 -0.2253  1.2141 -0.9508
  307SOL     OW  919   3.049   0.880   2.465 -0.5186 -0.0553  0.4656
  307SOL    HW1  920   3.062   0.962   2.528  3.3640  1.4444 -0.4068
  307SOL    HW2  921   2.974   0.813   2.493  0.9167 -0.2702  2.5655
  308SOL     OW  922   1.486   2.711   2.808  0.0777 -0.1013  0.1785
  308SOL    HW1  923   1.452   2.735   2.713 -0.0866  0.6682  2.6500
  308SOL    HW2  924   1.442   2.622   2.850  0.4923 -2.0459 -0.8957
  309SOL     OW  925   1.252   0.152   1.772  0.1473  0.3252 -0.2954
  309SOL    HW1  926   1.346   0.145   1.811 -1.4994  2.5361  0.6666
  309SOL    HW2  927   1.253   0.179   1.673  1.1689  0.3191  0.6781
  310SOL     OW  928   1.462   2.600   0.638 -0.3748 -0.3136 -0.3012
  310SOL    HW1  929   1.443   2.606   0.743  1.5681 -1.6787  2.3548
  310SOL    HW2  930   1.545   2.654   0.611 -3.0604 -4.2203  1.6147
  311SOL     OW  931   1.075   0.972   1.789 -0.3622  0.1222  0.0628
  311SOL    HW1  932   1.013   0.895   1.817 -0.2911  1.4938 -1.3293
  311SOL    HW2  933   1.123   0.961   1.697 -0.2302  1.0946  1.2462
  312SOL     OW  934   1.512   0.664   1.059  0.2699  0.1239 -0.4466
  312SOL    HW1  935   1.605   0.702   1.035 -0.1679 -1.6578  1.3465
  312SOL    HW2  936   1.447   0.651   0.975 -1.3900 -0.5631 -0.5778
  313SOL     OW  937   1.642   1.268   0.752 -0.4197 -0.2793  0.9440
  313SOL    HW1  938   1.567   1.277   0.825 -0.1010 -0.7203  0.3018
  313SOL    HW2  939   1.611   1.248   0.656  2.1263 -1.6699 -0.5623
  314SOL     OW  940   2.972   3.073   0.002 -0.5037  0.1878 -0.0112
  314SOL    HW1  941   3.006   3.082   0.100 -2.0398 -1.8534 -0.8540
  314SOL    HW2  942   2.882   3.011   0.001  0.6727 -1.5123  0.4724
  315SOL     OW  943   1.188   0.200   2.806  0.0401 -0.0391  0.2470
  315SOL    HW1  944   1.120   0.173   2.729  0.1621  0.5607 -0.7978
  315SOL    HW2  945   1.174   0.160   2.898 -1.8460  0.2116  0.8755
  316SOL     OW  946   1.699   2.087   0.885  0.4087 -0.0278  0.5272
  316SOL    HW1  947   1.614   2.092   0.953  1.2996  0.6319 -1.2078
  316SOL    HW2  948   1.711   2.185   0.848  1.5205  0.3072 -2.8066
  317SOL     OW  949   1.174   0.687   2.781  0.4170 -0.0668  0.2585
  317SOL    HW1  950   1.129   0.728   2.865  2.0965 -0.1568 -1.9927
  317SOL    HW2  951   1.114   0.614   2.732  1.0973 -1.6499  1.0451
  318SOL     OW  952   1.429   3.090   2.321  0.0147  0.7760 -0.1508
  318SOL    HW1  953   1.469   3.178   2.282  0.7775 -1.2483  0.7405
  318SOL    HW2  954   1.388   3.025   2.248 -2.0198 -0.1908  2.8985
  319SOL     OW  955   0.672   2.396   2.981  0.2816  0.1095  0.5392
  319SOL    HW1  956   0.657   2.310   3.037 -0.6376 -2.0127 -0.5495
  319SOL    HW2  957   0.706   2.372   2.887  0.4079 -0.4463 -1.3531
  320SOL     OW  958   1.678   2.236   0.388 -0.6326 -0.3435  0.5356
  320SOL    HW1  959   1.754   2.167   0.414  2.6686  0.3617 -2.4729
  320SOL    HW2  960   1.584   2.215   0.440 -2.0546  0.3781  0.4927
  321SOL     OW  961   1.656   2.738   0.532  0.7578 -0.8648  0.4093
  321SOL    HW1  962   1.578   2.796   0.486 -0.9445 -0.3628  1.4649
  321SOL    HW2  963   1.753   2.777   0.530  3.0194  1.9825  0.3602
  322SOL     OW  964   2.577   1.118   2.325  0.8006  0.1223  0.0484
  322SOL    HW1  965   2.664   1.099   2.379  0.0831  1.5719  1.3593
  322SOL    HW2  966   2.534   1.035   2.284 -0.6978 -2.0582 -1.9619
  323SOL     OW  967   1.181   2.693   0.821 -0.4398 -0.5466 -0.8412
  323SOL    HW1  968   1.162   2.645   0.734  0.6428  1.3813  2.0806
  323SOL    HW2  969   1.166   2.794   0.831 -1.4853  0.6162  1.9889
  324SOL     OW  970   0.197   2.532   2.441 -0.4160  0.1545  0.1045
  324SOL    HW1  971   0.117   2.473   2.476 -2.4673  1.9673 -0.1449
  324SOL    HW2  972   0.189   2.630   2.464  0.0803 -2.1134 -1.5610
  325SOL     OW  973   1.246   3.058   0.470  0.2583  0.8367  0.1852
  325SOL    HW1  974   1.271   3.093   0.375  2.6861  0.3382  0.7157
  325SOL    HW2  975   1.277   3.134   0.536 -2.0634 -1.3236  1.4084
  326SOL     OW  976   2.509   0.782   3.083 -0.1070  0.3576 -0.3227
  326SOL    HW1  977   2.456   0.748   3.000  0.7929  0.9472 -0.4131
  326SOL    HW2  978   2.541   0.710   3.146 -0.0980 -0.8460 -0.5653
  327SOL     OW  979   2.849   0.289   0.540  0.0885 -0.5231  0.3459
  327SOL    HW1  980   2.855   0.253   0.439  1.7489 -0.9294  0.1205
  327SOL    HW2  981   2.848   0.215   0.617  0.8038 -5.3494  0.3221
  328SOL     OW  982   2.555   0.662   0.390  0.2586  0.0489  0.4591
  328SOL    HW1  983   2.614   0.730   0.441  0.5644  0.8285  1.0631
  328SOL    HW2  984   2.505   0.595   0.451 -0.0562  1.5401  2.0399
  329SOL     OW  985   2.938   3.059   2.140 -0.3575 -0.0304  0.3964
  329SOL    HW1  986   3.017   3.005   2.185 -0.1080  0.2367  0.0784
  329SOL    HW2  987   2.960   3.161   2.144  2.5843  0.4238  2.1074
  330SOL     OW  988   0.530   0.228   1.867 -0.3093 -0.2418 -0.5110
  330SOL    HW1  989   0.628   0.229   1.833  1.4474 -1.5964 -0.3651
  330SOL    HW2  990   0.530   0.184   1.957 -1.4288  0.5431  0.3829
  331SOL     OW  991   3.032   1.910   1.136  0.5902  0.5786  0.4043
  331SOL    HW1  992   3.012   1.937   1.036  0.3877 -0.5753 -1.8436
  331SOL    HW2  993   2.948   1.866   1.185 -1.1211  0.2973 -2.7793
  332SOL     OW  994   0.395   1.212   0.074  0.1771  0.0387 -0.3746
  332SOL    HW1  995   0.341   1.131   0.044  2.1844  0.6883 -2.2780
  332SOL    HW2  996   0.369   1.254   0.166  0.3765 -1.3287 -0.0273
  333SOL     OW  997   2.868   0.969   0.358  0.3424 -0.5161  0.3808
  333SOL    HW1  998   2.915   1.039   0.422 -1.7517  1.4565  3.4275
  333SOL    HW2  999   2.930   0.896   0.338  1.0320  2.3516 -2.0448
  334SOL     OW 1000   1.730   1.171   1.768  0.6044 -0.9970 -0.3483
  334SOL    HW1 1001   1.788   1.176   1.681 -1.5800 -0.0745 -1.2987
  334SOL    HW2 1002   1.781   1.178   1.860 -2.5915  2.9007 -0.6296
  335SOL     OW 1003   1.905   2.813   2.637 -0.7906 -0.2566  0.0198
  335SOL    HW1 1004   1.869   2.782   2.731 -1.3998  1.2909  0.1237
  335SOL    HW2 1005   1.947   2.910   2.638  0.6871  0.9050 -0.1020
  336SOL     OW 1006   0.242   3.096   2.697  0.4736  0.5063 -0.0836
  336SOL    HW1 1007   0.301   3.163   2.751 -0.2982 -3.2545  2.0159
  336SOL    HW2 1008   0.271   3.000   2.711 -3.1211  0.4936  0.9513
  337SOL     OW 1009   0.941   2.889   2.957 -1.0768 -0.5370  0.1399
  337SOL    HW1 1010   0.897   2.824   3.023 -0.2228  1.2516  0.2805
  337SOL    HW2 1011   1.040   2.903   2.983  4.7052  0.1893 -0.6876
  338SOL     OW 1012   3.099   0.919   0.674 -0.3323 -0.4735  0.0698
  338SOL    HW1 1013   3.006   0.918   0.725  0.0009  2.2582  1.5464
  338SOL    HW2 1014   3.132   1.016   0.660  0.8507 -0.5412  1.6207
  339SOL     OW 1015   1.709   1.332   2.149  0.9368 -0.9175  0.3098
  339SOL    HW1 1016   1.626   1.370   2.092 -3.3089 -0.2533  0.9380
  339SOL    HW2 1017   1.759   1.405   2.209  0.0655  6.3405 -1.6941
  340SOL     OW 1018   2.241   0.808   1.149 -0.0679  0.4362 -0.2334
  340SOL    HW1 1019   2.152   0.859   1.136  2.8187 -0.3314 -1.0694
  340SOL    HW2 1020   2.242   0.711   1.108  0.2990  0.4598 -2.5950
  341SOL     OW 1021   1.916   2.072   0.410 -0.0541  0.6109 -0.1934
  341SOL    HW1 1022   1.932   2.118   0.317 -0.7109 -2.4768 -2.1585
  341SOL    HW2 1023   1.996   2.009   0.438  3.1058 -0.0318 -0.0334
  342SOL     OW 1024   2.152   2.108   2.702  0.8292  0.0120 -0.2069
  342SOL    HW1 1025   2.192   2.016   2.741  0.6031 -2.0444  1.6511
  342SOL    HW2 1026   2.054   2.096   2.668 -0.5853  0.9206  0.1192
  343SOL     OW 1027   0.376   0.808   2.749 -0.5297  0.5443  0.2788
  343SOL    HW1 1028   0.383   0.853   2.657 -0.1810  0.0728  0.5378
  343SOL    HW2 1029   0.466   0.799   2.800 -2.0622  0.0772 -1.2221
  344SOL     OW 1030   1.940   1.476   0.424  0.5110  0.2660 -0.2938
  344SOL    HW1 1031   1.937   1.414   0.340  1.9684  0.6679  0.0408
  344SOL    HW2 1032   1.846   1.490   0.468  1.0594 -0.2437 -1.5250
  345SOL     OW 1033   1.379   2.203   2.847 -0.0528  0.0977  0.1574
  345SOL    HW1 1034   1.277   2.177   2.834 -3.6070  0.2953 -1.4959
  345SOL    HW2 1035   1.432   2.155   2.772 -0.2014 -1.6003  2.2591
  346SOL     OW 1036   2.318   0.875   1.385 -0.1926 -0.2109 -0.0435
  346SOL    HW1 1037   2.282   0.969   1.402  2.7904  0.5419 -1.1479
  346SOL    HW2 1038   2.297   0.838   1.290  2.2451 -0.1996 -0.5774
  347SOL     OW 1039   0.701   2.779   1.662 -0.2351  0.1975 -0.2404
  347SOL    HW1 1040   0.745   2.855   1.610 -0.5861 -2.5790 -1.5609
  347SOL    HW2 1041   0.602   2.762   1.629 -3.2612  0.7844  1.6428
  348SOL     OW 1042   0.178   0.744   2.929  0.5692 -0.9191 -0.0331
  348SOL    HW1 1043   0.080   0.748   2.894  0.0098 -1.6042  0.2779
  348SOL    HW2 1044   0.241   0.758   2.850 -0.7427  0.3431 -1.0874
  349SOL     OW 1045   1.864   0.431   2.806  0.2381 -0.2903  0.1684
  349SOL    HW1 1046   1.825   0.490   2.730 -0.3693 -0.8695  0.3206
  349SOL    HW2 1047   1.837   0.468   2.901 -0.8512  1.6869 -1.5704
  350SOL     OW 1048   1.683   0.389   0.358  0.2810 -0.3196  0.1447
  350SOL    HW1 1049   1.757   0.393   0.433 -2.4454  0.1251  0.8467
  350SOL    HW2 1050   1.644   0.486   0.350 -1.5433  0.9843  1.9202
  351SOL     OW 1051   0.878   0.855   2.066 -0.2663  0.3590  0.1079
  351SOL    HW1 1052   0.895   0.955   2.094 -1.4501 -1.9098 -1.0024
  351SOL    HW2 1053   0.922   0.837   1.979 -1.1339  2.2323 -1.7462
  352SOL     OW 1054   2.063   1.339   0.615  0.4734 -0.1453  0.0713
  352SOL    HW1 1055   2.009   1.399   0.548 -4.2198 -4.0891 -0.8227
  352SOL    HW2 1056   2.000   1.299   0.686 -0.1296 -1.3137 -1.5924
  353SOL     OW 1057   2.188   2.754   1.088  0.0580  0.0308  0.0515
  353SOL    HW1 1058   2.241   2.692   1.158 -1.9628  1.2242  1.0194
  353SOL    HW2 1059   2.156   2.845   1.131 -1.2404 -1.1155 -2.4865
  354SOL     OW 1060   0.241   1.428   2.885 -0.3683  0.2299 -0.0315
  354SOL    HW1 1061   0.226   1.502   2.812 -2.5602 -0.2552 -0.3983
  354SOL    HW2 1062   0.344   1.415   2.902 -1.2496  2.2023  0.4117
  355SOL     OW 1063   0.694   1.564   0.601 -0.0122 -0.3124 -0.3218
  355SOL    HW1 1064   0.691   1.527   0.699 -0.4168 -3.0686  0.5297
  355SOL    HW2 1065   0.657   1.494   0.538  0.4825 -0.3997 -1.0031
  356SOL     OW 1066   0.915   0.290   2.067  0.2847  0.2948  0.7384
  356SOL    HW1 1067   1.004   0.236   2.066  0.1251 -0.3240  0.9480
  356SOL    HW2 1068   0.876   0.304   1.976  0.9656  1.1397  2.2783
  357SOL     OW 1069   1.023   1.352   0.264  0.0359  0.3288 -0.6659
  357SOL    HW1 1070   1.102   1.416   0.235  2.1320 -0.5338 -3.7464
  357SOL    HW2 1071   1.046   1.256   0.287  2.3040 -0.4670 -1.2605
  358SOL     OW 1072   1.692   1.467   0.541 -0.0100 -0.4162  0.0669
  358SOL    HW1 1073   1.642   1.418   0.612 -0.5961 -0.3438  1.7584
  358SOL    HW2 1074   1.661   1.437   0.446  1.9619 -1.0656 -2.2606
  359SOL     OW 1075   1.628   2.601   0.290 -0.1489 -0.3539 -0.5666
  359SOL    HW1 1076   1.577   2.510   0.278  0.4065  0.2113 -3.1050
  359SOL    HW2 1077   1.587   2.665   0.361 -2.1154  0.9495 -0.4540
  360SOL     OW 1078   0.814   0.456   0.587  0.1304 -0.2718 -0.0023
  360SOL    HW1 1079   0.729   0.498   0.553 -0.0408 -2.0208  2.4031
  360SOL    HW2 1080   0.807   0.352   0.596 -2.3105 -3.6526  0.7528
  361SOL     OW 1081   1.371   1.323   0.605  0.0980  0.1504  0.1767
  361SOL    HW1 1082   1.398   1.326   0.702 -1.3279 -0.6899 -0.7751
  361SOL    HW2 1083   1.279   1.376   0.594 -1.2937  0.8029 -0.6237
  362SOL     OW 1084   1.354   1.825   0.732 -0.4818  0.2901 -0.0353
  362SOL    HW1 1085   1.388   1.740   0.787  1.3277  0.3157  1.8300
  362SOL    HW2 1086   1.402   1.836   0.641 -2.1130 -2.1730 -1.7708
  363SOL     OW 1087   1.296   1.312   2.103  0.5819 -0.2075 -0.1356
  363SOL    HW1 1088   1.386   1.337   2.056 -1.4940 -0.3852 -0.8575
  363SOL    HW2 1089   1.246   1.398   2.135  0.4667 -0.9329 -0.7925
  364SOL     OW 1090   0.539   2.379   2.047  0.0552 -0.1289  0.0398
  364SOL    HW1 1091   0.434   2.382   2.050  0.5672 -0.5855 -2.0163
  364SOL    HW2 1092   0.568   2.406   1.951  0.9058  0.4754  0.7289
  365SOL     OW 1093   0.948   1.954   1.358 -0.7945 -0.0134  0.7197
  365SOL    HW1 1094   0.845   1.928   1.366 -2.4427  0.4898 -2.4712
  365SOL    HW2 1095   0.974   2.028   1.285  3.3219  0.6735  1.7966
  366SOL     OW 1096   2.810   1.953   0.294 -0.6756  0.1769 -0.4909
  366SOL    HW1 1097   2.729   1.890   0.267 -1.2563 -1.4606 -1.4284
  366SOL    HW2 1098   2.896   1.924   0.249  0.1883 -2.8243  0.4441
  367SOL     OW 1099   0.890   1.193   0.015 -0.1707 -0.5464 -0.4029
  367SOL    HW1 1100   0.879   1.114   0.080 -1.5537 -2.1296 -0.8176
  367SOL    HW2 1101   0.979   1.241   0.020  0.1525  0.1198 -0.6961
  368SOL     OW 1102   1.460   0.597   0.563 -0.6936  0.1196 -0.1913
  368SOL    HW1 1103   1.361   0.616   0.550  1.6329 -0.3584 -1.1082
  368SOL    HW2 1104   1.511   0.632   0.480  3.1896 -0.0209  1.0548
  369SOL     OW 1105   0.393   1.649   0.156  0.1298 -1.2341 -0.2659
  369SOL    HW1 1106   0.432   1.720   0.223 -0.7978 -0.5429  2.6717
  369SOL    HW2 1107   0.300   1.611   0.183  3.2054 -1.9842  1.4367
  370SOL     OW 1108   0.374   2.198   1.082  0.2006  0.0343  0.1210
  370SOL    HW1 1109   0.424   2.278   1.037  0.3743 -2.6645  2.0181
  370SOL    HW2 1110   0.302   2.150   1.023  0.3709 -1.1249  0.3214
  371SOL     OW 1111   2.922   2.248   2.712  0.2500 -0.5968  0.5811
  371SOL    HW1 1112   2.982   2.168   2.738  0.6049 -0.5210 -1.0642
  371SOL    HW2 1113   2.888   2.306   2.792  1.2168 -0.2677  3.2404
  372SOL     OW 1114   1.033   2.093   1.145  0.2676 -0.9319 -0.1679
  372SOL    HW1 1115   0.976   2.123   1.061 -0.4914 -0.2755  0.8157
  372SOL    HW2 1116   1.096   2.164   1.187 -1.1079 -1.0278  1.5674
  373SOL     OW 1117   1.893   1.935   0.985  0.1334  0.0820  0.7152
  373SOL    HW1 1118   1.987   1.971   1.007 -0.8108  4.7868 -3.5895
  373SOL    HW2 1119   1.832   2.009   0.942 -0.9428  1.7592 -1.1280
  374SOL     OW 1120   1.873   0.420   0.583 -0.0137 -0.5561  0.3142
  374SOL    HW1 1121   1.854   0.362   0.665 -3.2439  1.6006 -3.3132
  374SOL    HW2 1122   1.956   0.387   0.527  1.9969  0.4082 -1.8099
  375SOL     OW 1123   2.409   2.216   1.076 -0.3210 -0.2316 -0.0654
  375SOL    HW1 1124   2.461   2.283   1.009  0.7432 -0.2450  0.1234
  375SOL    HW2 1125   2.476   2.181   1.150  0.5041  1.3293  2.3519
  376SOL     OW 1126   0.017   0.648   1.402 -0.1532 -0.0895 -0.4893
  376SOL    HW1 1127   0.048   0.680   1.497  0.8678  1.5005  0.7281
  376SOL    HW2 1128  -0.083   0.657   1.391 -3.6144  1.9372  2.8121
  377SOL     OW 1129   2.171   2.868   0.254  0.4121  0.3842 -0.5925
  377SOL    HW1 1130   2.150   2.957   0.304  0.9736  1.1567 -1.2684
  377SOL    HW2 1131   2.270   2.838   0.270  1.3167 -0.2044 -2.7830
  378SOL     OW 1132   1.798   1.893   2.447 -0.0470  0.1541 -0.3726
  378SOL    HW1 1133   1.877   1.893   2.385 -0.1454  0.6883  0.8433
  378SOL    HW2 1134   1.769   1.793   2.458  0.3556 -1.2824 -0.3892
  379SOL     OW 1135   0.722   0.155   2.841 -0.1536 -1.5362  0.1852
  379SOL    HW1 1136   0.768   0.079   2.791 -1.2754  0.6396 -2.8851
  379SOL    HW2 1137   0.727   0.242   2.781  1.3196  1.5773 -2.3939
  380SOL     OW 1138   1.567   1.158   0.508 -0.6499  0.0287 -0.3374
  380SOL    HW1 1139   1.483   1.215   0.540  1.9172 -0.2940 -1.2012
  380SOL    HW2 1140   1.538   1.066   0.474  2.8539  0.5836 -0.0437
  381SOL     OW 1141   1.304   1.203   1.560 -0.6572  0.1942 -0.2963
  381SOL    HW1 1142   1.341   1.172   1.471  0.1480  2.6219 -1.7094
  381SOL    HW2 1143   1.377   1.249   1.622  0.5036 -0.2273 -0.2647
  382SOL     OW 1144   1.813   0.882   0.252  0.1847 -0.0943  0.4315
  382SOL    HW1 1145   1.842   0.883   0.154 -1.6020  0.0182  0.6323
  382SOL    HW2 1146   1.895   0.862   0.314  1.1721  1.2526 -1.5787
  383SOL     OW 1147   2.555   1.016   1.480 -0.5070 -0.3155 -0.2699
  383SOL    HW1 1148   2.462   0.970   1.469 -0.9910  0.6378  0.8022
  383SOL    HW2 1149   2.620   0.989   1.395 -1.0000 -1.3903  0.3225
  384SOL     OW 1150   0.869   2.275   0.175  0.2849  0.5527  0.9110
  384SOL    HW1 1151   0.815   2.361   0.187 -1.2363  0.1456 -1.0793
  384SOL    HW2 1152   0.851   2.198   0.245 -0.6397  0.3192  2.5008
  385SOL     OW 1153   2.968   2.051   1.687  0.1579  0.5326  0.2081
  385SOL    HW1 1154   3.039   2.127   1.704 -2.1249  0.4936  0.1436
  385SOL    HW2 1155   3.004   1.956   1.672  0.3276  1.2036  2.5744
  386SOL     OW 1156   0.491   1.055   0.470  0.0776  0.0513 -0.4343
  386SOL    HW1 1157   0.452   0.979   0.523  2.6330 -0.3945 -2.2766
  386SOL    HW2 1158   0.423   1.126   0.427 -3.0440  0.1855 -0.7130
  387SOL     OW 1159   0.958   0.358   1.700  0.5743  0.0462  0.2877
  387SOL    HW1 1160   0.999   0.450   1.675  0.6731 -1.4407 -0.8507
  387SOL    HW2 1161   0.983   0.292   1.624 -1.3795  0.4285 -3.0329
  388SOL     OW 1162   1.211   2.695   1.739  0.5236 -0.4019 -0.5977
  388SOL    HW1 1163   1.248   2.677   1.644  2.9644 -0.1880 -2.1929
  388SOL    HW2 1164   1.263   2.651   1.815  0.7334 -1.3032  0.4045
  389SOL     OW 1165   0.135   2.969   1.371  0.0505  0.0530  0.1471
  389SOL    HW1 1166   0.034   2.981   1.344  0.3858 -1.9299 -0.9953
  389SOL    HW2 1167   0.166   2.873   1.352  1.2414 -1.1551 -0.6385
  390SOL     OW 1168   1.047   0.957   1.368  0.1857 -0.8470  0.6343
  390SOL    HW1 1169   1.131   0.945   1.425 -1.7564  1.8197  0.0642
  390SOL    HW2 1170   1.007   1.053   1.382  0.2966  1.2893 -1.4365
  391SOL     OW 1171   2.170   1.160   1.086  0.0985 -0.4071  0.0964
  391SOL    HW1 1172   2.124   1.085   1.139 -3.2590  1.6938 -1.2401
  391SOL    HW2 1173   2.205   1.131   0.993  0.0089 -2.1927 -2.3316
  392SOL     OW 1174   0.902   2.634   0.011 -0.1529  0.1477  0.5680
  392SOL    HW1 1175   0.985   2.566  -0.002  1.4761 -1.4190 -0.3802
  392SOL    HW2 1176   0.844   2.611   0.092 -1.5000  2.0225 -1.6272
  393SOL     OW 1177   0.300   0.582   2.007 -0.8616  0.4347  0.5964
  393SOL    HW1 1178   0.221   0.519   1.996  0.8205  2.8585  1.8890
  393SOL    HW2 1179   0.380   0.560   1.944  0.8022  0.7532  0.3414
  394SOL     OW 1180   3.036   1.996   2.770  0.6224  0.4370 -0.1180
  394SOL    HW1 1181   3.137   1.986   2.800 -1.4039  1.3372 -1.5382
  394SOL    HW2 1182   3.017   1.959   2.675 -2.5930 -3.0619  0.3476
  395SOL     OW 1183   1.619   1.952   0.588  0.1271 -0.0648 -1.1870
  395SOL    HW1 1184   1.665   1.861   0.570 -0.6232 -0.5926 -0.0608
  395SOL    HW2 1185   1.656   1.998   0.673 -2.5793 -1.3647 -0.5665
  396SOL     OW 1186   2.831   1.807   1.309 -0.1011  0.1110 -0.1196
  396SOL    HW1 1187   2.773   1.739   1.258 -0.1275 -0.7743  2.7450
  396SOL    HW2 1188   2.798   1.835   1.405  2.2547  0.6949  0.3783
  397SOL     OW 1189   1.034   2.246   0.513  0.1508 -0.3765 -0.0660
  397SOL    HW1 1190   0.946   2.197   0.539  0.8865  0.2157 -2.0548
  397SOL    HW2 1191   1.043   2.334   0.562  0.9210  0.7395 -0.6578
  398SOL     OW 1192   2.146   0.003   1.070 -0.5266  0.2644  0.5689
  398SOL    HW1 1193   2.061  -0.042   1.115 -0.7095  1.1968  0.1826
  398SOL    HW2 1194   2.126   0.103   1.048  0.4464  1.0412 -0.2579
  399SOL     OW 1195   3.053   2.467   2.564 -0.4999  0.1368 -0.3011
  399SOL    HW1 1196   2.951   2.479   2.560  1.5495  1.8093  2.2911
  399SOL    HW2 1197   3.084   2.412   2.648  0.8287 -3.2826  0.5636
  400SOL     OW 1198   0.776   1.671   1.386 -0.1472  0.7152 -0.1235
  400SOL    HW1 1199   0.734   1.722   1.466 -1.1217 -0.9943 -2.4709
  400SOL    HW2 1200   0.750   1.714   1.293 -1.6250  1.0407 -0.8842
  401SOL     OW 1201   1.877   0.140   1.198  0.1274  0.6951 -0.3130
  401SOL    HW1 1202   1.913   0.145   1.300  1.5673  1.7394 -0.4795
  401SOL    HW2 1203   1.775   0.117   1.198  2.5437  0.0291  2.1194
  402SOL     OW 1204   1.336   0.161   3.041  0.3766  0.3702  0.3480
  402SOL    HW1 1205   1.428   0.134   3.000 -1.0807  0.8009 -2.3459
  402SOL    HW2 1206   1.305   0.261   3.033  2.4796  0.0668 -1.5253
  403SOL     OW 1207   2.283   1.767   0.907 -0.1449 -0.3829 -0.0501
  403SOL    HW1 1208   2.385   1.766   0.890 -0.8573  1.5008  0.1049
  403SOL    HW2 1209   2.259   1.836   0.989  1.1296  1.2775  1.9573
  404SOL     OW 1210   0.201   2.440   2.803  0.1300 -0.0099 -0.4383
  404SOL    HW1 1211   0.298   2.426   2.768 -2.3570  2.0195  0.6830
  404SOL    HW2 1212   0.193   2.519   2.872  2.1345 -1.0525 -1.2301
  405SOL     OW 1213   0.098   2.450   0.747  0.4116  0.0098 -0.4697
  405SOL    HW1 1214   0.069   2.394   0.669  0.8091  1.2648  3.0225
  405SOL    HW2 1215   0.174   2.509   0.712 -2.8431 -0.4802 -1.0514
  406SOL     OW 1216   0.051   1.569   3.057  0.0838  0.4256  0.4447
  406SOL    HW1 1217   0.128   1.536   2.999  1.6025 -0.5975  0.7516
  406SOL    HW2 1218   0.076   1.573   3.161 -3.0521 -0.8148  0.8336
  407SOL     OW 1219   1.547   0.946   0.964 -0.2278  0.1247  0.6040
  407SOL    HW1 1220   1.517   0.899   0.879 -0.7049 -2.2951 -0.8230
  407SOL    HW2 1221   1.471   0.982   1.026  0.3548 -1.5774  0.6091
  408SOL     OW 1222   1.595   2.446   0.968  0.5386  0.1634  0.4972
  408SOL    HW1 1223   1.667   2.412   0.902  0.1915 -1.6236 -1.1182
  408SOL    HW2 1224   1.535   2.523   0.935 -0.4652 -1.9565  0.1900
  409SOL     OW 1225   0.677   0.757   0.767  0.0282 -0.2263  0.1513
  409SOL    HW1 1226   0.591   0.777   0.713 -1.0467 -0.6872  0.6396
  409SOL    HW2 1227   0.681   0.661   0.809 -3.3100  0.0822  0.1383
  410SOL     OW 1228   1.254   2.040   1.372 -0.2493 -0.3171  0.0707
  410SOL    HW1 1229   1.322   1.964   1.394 -3.8616 -0.2403  1.0234
  410SOL    HW2 1230   1.161   2.004   1.372 -0.4312 -0.5313  0.8116
  411SOL     OW 1231   2.612   1.833   3.006 -0.4400  0.7087 -0.7616
  411SOL    HW1 1232   2.639   1.920   3.055  2.3026 -2.0238  0.4960
  411SOL    HW2 1233   2.664   1.816   2.918 -2.8519 -0.7495 -2.0446
  412SOL     OW 1234   1.527   2.486   2.139 -0.1048 -0.2819 -0.2821
  412SOL    HW1 1235   1.584   2.417   2.185 -2.2818  0.3158 -1.0694
  412SOL    HW2 1236   1.428   2.481   2.165  1.6409 -0.2343  3.4058
  413SOL     OW 1237   3.096   0.200   2.907  0.2098 -0.3992 -0.3594
  413SOL    HW1 1238   3.054   0.129   2.971  0.5524  0.2658  0.9673
  413SOL    HW2 1239   3.196   0.184   2.883  2.0336  2.8203  0.2343
  414SOL     OW 1240   1.863   1.542   1.191 -0.7822 -0.1876  0.5505
  414SOL    HW1 1241   1.829   1.640   1.178  0.3143  2.4692  1.5651
  414SOL    HW2 1242   1.851   1.489   1.102  0.9692  1.0278  1.7415
  415SOL     OW 1243   0.365   2.280   0.705 -0.9712 -0.3549  0.0712
  415SOL    HW1 1244   0.388   2.343   0.787  0.7847  2.7863  0.7203
  415SOL    HW2 1245   0.271   2.273   0.663 -0.9853 -1.2800  0.0829
  416SOL     OW 1246   0.370   1.019   1.057 -0.1338  0.1232 -0.3356
  416SOL    HW1 1247   0.333   0.970   0.971 -1.2885  1.5176 -4.1661
  416SOL    HW2 1248   0.462   1.069   1.040  1.8269  0.5264 -0.0232
  417SOL     OW 1249   2.290   2.378   2.039  0.1916  0.6242  0.2249
  417SOL    HW1 1250   2.330   2.308   2.103  1.2462  0.5032 -3.5117
  417SOL    HW2 1251   2.224   2.334   1.969 -0.3334 -0.8226  2.0202
  418SOL     OW 1252   1.059   0.580   1.336 -0.7668 -0.7608 -0.4966
  418SOL    HW1 1253   0.999   0.516   1.279  1.4672  1.8625 -0.4864
  418SOL    HW2 1254   1.130   0.621   1.267 -0.2382  0.1573 -0.2438
  419SOL     OW 1255   0.945   0.502   2.954 -0.2192  0.4448  0.2800
  419SOL    HW1 1256   0.879   0.451   2.890  1.1699 -2.8877 -1.5277
  419SOL    HW2 1257   0.909   0.596   2.971  1.6881  3.6842 -0.6318
  420SOL     OW 1258   0.089   2.256   0.565  0.5857 -0.5418  0.2544
  420SOL    HW1 1259   0.066   2.276   0.465 -1.8845  1.7354  1.4625
  420SOL    HW2 1260   0.045   2.166   0.592 -1.6226  1.5996 -2.1471
  421SOL     OW 1261   0.328   2.947   0.599  0.0832 -0.3856 -0.3361
  421SOL    HW1 1262   0.297   2.912   0.690 -0.9231  2.7755  0.2468
  421SOL    HW2 1263   0.416   3.004   0.607 -0.0856  3.0705  0.2184
  422SOL     OW 1264   0.995   2.604   1.034  0.2518  0.7485  0.6316
  422SOL    HW1 1265   1.067   2.638   0.964 -1.2463  0.0166  0.9967
  422SOL    HW2 1266   1.008   2.641   1.130 -2.2257  2.5385  1.5978
  423SOL     OW 1267   0.147   0.738   1.180  0.0162 -0.2352 -0.5165
  423SOL    HW1 1268   0.117   0.688   1.269  3.3127 -0.4593 -3.1799
  423SOL    HW2 1269   0.090   0.824   1.168 -0.5940 -1.8604  2.3934
  424SOL     OW 1270   1.138   2.205   2.044  0.3620 -0.9660  0.2089
  424SOL    HW1 1271   1.096   2.296   2.015 -0.8248  0.0098  2.5934
  424SOL    HW2 1272   1.119   2.187   2.145  0.2680 -0.6874 -0.4154
  425SOL     OW 1273   1.958   1.335   1.027 -0.1836  0.6213 -0.9984
  425SOL    HW1 1274   2.010   1.280   1.099  0.1585  1.7372  1.0867
  425SOL    HW2 1275   2.011   1.416   0.992  1.9623  0.4603  2.4782
  426SOL     OW 1276   1.464   1.586   1.316 -0.2893  0.2994 -0.3592
  426SOL    HW1 1277   1.424   1.672   1.268 -1.9484  4.0422 -2.6392
  426SOL    HW2 1278   1.411   1.568   1.403  0.1830 -0.9418 -3.8546
  427SOL     OW 1279   1.906   2.338   2.081 -0.0215 -0.0026 -0.7111
  427SOL    HW1 1280   1.966   2.272   2.146 -1.0431 -0.8816  1.5695
  427SOL    HW2 1281   1.931   2.438   2.087  0.8670 -3.3265 -2.2412
  428SOL     OW 1282   0.814  -0.000   0.135 -0.3736  0.3518 -0.2613
  428SOL    HW1 1283   0.810   0.084   0.072 -0.2592  2.7219 -0.6353
  428SOL    HW2 1284   0.894  -0.070   0.120  4.0009 -1.4342  0.0729
  429SOL     OW 1285   1.356   0.116   0.222 -0.0996  0.3154 -0.2057
  429SOL    HW1 1286   1.449   0.126   0.270  1.1110 -1.1956  1.8718
  429SOL    HW2 1287   1.368   0.153   0.125  0.8163  2.3840  0.1582
  430SOL     OW 1288   2.871   1.400   0.284  0.3754 -0.6448  0.4641
  430SOL    HW1 1289   2.860   1.461   0.198  2.2929  3.4531 -2.0493
  430SOL    HW2 1290   2.862   1.456   0.376 -2.6009  0.3696 -0.5815
  431SOL     OW 1291   2.086   1.572   0.972 -0.4815  0.1506  0.2077
  431SOL    HW1 1292   2.188   1.603   0.955  1.3211 -2.4666 -3.6190
  431SOL    HW2 1293   2.019   1.638   0.933 -1.2488  0.6147  0.3600
  432SOL     OW 1294   2.950   2.186   1.169  0.0994 -0.7056  0.7183
  432SOL    HW1 1295   2.950   2.084   1.197 -2.0061 -2.1413 -2.1612
  432SOL    HW2 1296   2.952   2.253   1.249  0.5730 -0.0417 -1.0677
  433SOL     OW 1297   1.847   0.278   0.805  0.4631  0.4233  0.3394
  433SOL    HW1 1298   1.749   0.303   0.835 -4.8608 -0.8169  0.6348
  433SOL    HW2 1299   1.916   0.262   0.889  1.3728  0.4176 -1.4722
  434SOL     OW 1300   1.549   0.347   0.695  0.3209 -0.2284 -0.1018
  434SOL    HW1 1301   1.539   0.442   0.652  0.8873  3.3361  1.7754
  434SOL    HW2 1302   1.547   0.357   0.798 -0.2434  2.0385 -0.7328
  435SOL     OW 1303   1.495   1.484   2.008  0.7929 -0.0558 -0.2180
  435SOL    HW1 1304   1.473   1.520   2.106 -0.4262 -1.5040 -2.3496
  435SOL    HW2 1305   1.538   1.555   1.943  0.7496  0.3765 -1.2341
  436SOL     OW 1306   1.706   2.736   2.250 -0.0402  0.3539  0.0960
  436SOL    HW1 1307   1.661   2.816   2.294  1.4551 -1.3530 -1.9888
  436SOL    HW2 1308   1.699   2.646   2.310 -1.3293 -0.1933 -0.0159
  437SOL     OW 1309   1.118   2.933   0.911  0.2705  0.1718  0.1810
  437SOL    HW1 1310   1.034   2.980   0.874  0.3700  0.5027  0.1894
  437SOL    HW2 1311   1.124   2.930   1.013 -1.5213  0.2449  0.5142
  438SOL     OW 1312   1.014   2.650   1.311  0.2743 -0.2910 -0.3113
  438SOL    HW1 1313   1.110   2.695   1.314 -2.9641 -1.3746  1.8210
  438SOL    HW2 1314   1.010   2.552   1.347 -0.7600  1.0919  2.2033
  439SOL     OW 1315   0.704   1.808   1.148 -0.0152 -0.4292  0.0234
  439SOL    HW1 1316   0.680   1.899   1.101  1.6369 -0.4740 -1.9442
  439SOL    HW2 1317   0.620   1.745   1.158 -1.8554  0.5840  0.2320
  440SOL     OW 1318   1.068   2.438   1.937  0.0074 -0.1351  0.0152
  440SOL    HW1 1319   1.007   2.492   1.870 -0.7543  0.8739 -0.8089
  440SOL    HW2 1320   1.161   2.487   1.943 -1.9508  1.4182 -0.9231
  441SOL     OW 1321   0.472   2.722   1.492 -0.9477  0.1052  0.8333
  441SOL    HW1 1322   0.546   2.654   1.475 -0.8550  0.4019  0.2645
  441SOL    HW2 1323   0.383   2.687   1.443  1.8087  0.9619 -1.2406
  442SOL     OW 1324   2.271   0.745   2.495 -0.3658  0.0539 -0.3039
  442SOL    HW1 1325   2.250   0.647   2.522 -0.0088 -0.7780  0.4414
  442SOL    HW2 1326   2.185   0.801   2.484  1.9335  3.1784  1.1619
  443SOL     OW 1327   1.192   2.734   2.194 -0.0935 -0.0969 -0.5225
  443SOL    HW1 1328   1.247   2.791   2.261  0.6505 -2.0535 -0.7932
  443SOL    HW2 1329   1.217   2.631   2.191  1.9203 -1.8850 -0.5749
  444SOL     OW 1330   1.055   1.345   1.559  0.6207  0.0990  0.2188
  444SOL    HW1 1331   1.139   1.281   1.558 -0.5236 -0.1404 -0.6831
  444SOL    HW2 1332   1.058   1.431   1.617 -1.0225  1.0800 -1.3965
  445SOL     OW 1333   3.085   2.325   1.933 -0.2400  0.5760  0.2515
  445SOL    HW1 1334   3.088   2.409   1.869 -0.4318  1.6019  0.2636
  445SOL    HW2 1335   2.986   2.314   1.963  0.0868 -0.7596 -0.0328
  446SOL     OW 1336   0.162   1.909   2.357  0.3712  0.1253 -0.0547
  446SOL    HW1 1337   0.129   1.997   2.410  1.8091  0.1071 -1.7587
  446SOL    HW2 1338   0.091   1.864   2.295  1.2368  2.9921 -0.5349
  447SOL     OW 1339   1.242   1.706   1.959 -0.2880 -0.1835 -0.2150
  447SOL    HW1 1340   1.182   1.783   1.920  1.1704  1.8082 -1.1951
  447SOL    HW2 1341   1.342   1.717   1.933 -0.5905  1.1915  3.9455
  448SOL     OW 1342   0.145   1.517   2.021 -0.1773 -0.9891 -0.0659
  448SOL    HW1 1343   0.158   1.616   1.989  0.9661 -0.1673  0.1525
  448SOL    HW2 1344   0.105   1.521   2.115 -0.1683  1.4369 -5.0328
  449SOL     OW 1345   2.022   2.986   0.837 -0.3134  0.7210 -0.1216
  449SOL    HW1 1346   2.069   3.018   0.926 -0.7109  1.8112 -0.6643
  449SOL    HW2 1347   2.006   2.880   0.824 -1.9913 -0.1657  1.3336
  450SOL     OW 1348   2.292   1.360   0.779 -0.9685 -0.5748 -0.2707
  450SOL    HW1 1349   2.275   1.261   0.808 -1.0046  3.9536  1.3701
  450SOL    HW2 1350   2.209   1.408   0.738 -0.8703 -1.1881  0.2134
  451SOL     OW 1351   1.452   0.034   1.472 -0.3456 -0.3437  0.5182
  451SOL    HW1 1352   1.395   0.123   1.488 -1.5493  0.4338  1.2729
  451SOL    HW2 1353   1.442  -0.031   1.554  0.0041 -1.4742  0.8817
  452SOL     OW 1354   2.635   2.293   2.220 -0.3928 -0.2251  0.0334
  452SOL    HW1 1355   2.585   2.388   2.216 -0.0493  1.1143 -0.5901
  452SOL    HW2 1356   2.684   2.275   2.313  0.5319 -0.4161 -0.4625
  453SOL     OW 1357   2.442   2.653   3.077 -0.1858 -0.4254 -0.4530
  453SOL    HW1 1358   2.361   2.716   3.074  1.3321 -2.8079  0.6105
  453SOL    HW2 1359   2.446   2.585   2.999 -2.6536  1.4129 -0.4396
  454SOL     OW 1360   0.965   1.112   2.113 -0.0659 -0.0002  1.0283
  454SOL    HW1 1361   0.952   1.139   2.010 -0.6305  1.0908 -0.4773
  454SOL    HW2 1362   1.064   1.120   2.147  1.3093 -3.6263  0.4427
  455SOL     OW 1363   0.722   2.658   2.863  0.4671  0.5192 -0.1557
  455SOL    HW1 1364   0.810   2.703   2.899  0.9537 -0.3654 -1.1132
  455SOL    HW2 1365   0.692   2.579   2.925 -2.4000 -1.6368  2.2161
  456SOL     OW 1366   0.523   1.817   0.332 -0.1324 -0.7059 -0.1568
  456SOL    HW1 1367   0.572   1.783   0.415  2.8729 -2.2192 -3.5002
  456SOL    HW2 1368   0.543   1.919   0.305  2.4300  2.3651  0.5269
  457SOL     OW 1369   0.341   2.649   0.741 -0.2120 -0.2634  0.3054
  457SOL    HW1 1370   0.332   2.651   0.636 -2.7992  1.2116 -1.4639
  457SOL    HW2 1371   0.438   2.658   0.766 -1.6258  1.8344  0.3812
  458SOL     OW 1372   2.988   2.972   1.246 -0.0633 -0.3105 -0.0035
  458SOL    HW1 1373   2.984   3.055   1.188 -1.6645  2.0432  2.9979
  458SOL    HW2 1374   3.005   2.891   1.185  2.6904 -0.3394 -2.6559
  459SOL     OW 1375   2.130   2.553   0.923 -0.3545  0.0492  0.0165
  459SOL    HW1 1376   2.174   2.606   0.998 -0.5042  1.3195  0.1021
  459SOL    HW2 1377   2.184   2.550   0.835 -0.3393 -0.7310  0.1732
  460SOL     OW 1378   1.134   1.940   2.947 -0.1415 -0.4656 -0.5822
  460SOL    HW1 1379   1.177   2.003   2.880 -1.1079 -0.4544 -0.9008
  460SOL    HW2 1380   1.201   1.888   3.002 -1.2755  1.6346 -2.1494
  461SOL     OW 1381   0.470   2.130   2.679 -0.2776 -0.2932  0.2330
  461SOL    HW1 1382   0.427   2.057   2.621 -0.1141  0.5716  2.1656
  461SOL    HW2 1383   0.513   2.093   2.762 -1.9681 -0.9802 -2.1372
  462SOL     OW 1384   0.936   1.219   1.849  0.0881 -0.1237 -0.4372
  462SOL    HW1 1385   0.996   1.148   1.797 -0.0510 -0.6538  1.2499
  462SOL    HW2 1386   0.898   1.294   1.788 -0.3608  4.4509 -2.8441
  463SOL     OW 1387   0.442   0.789   0.614 -0.2333 -0.1451  0.6496
  463SOL    HW1 1388   0.486   0.700   0.578  2.9424 -1.2044 -1.1037
  463SOL    HW2 1389   0.342   0.795   0.605 -0.0622  1.2735 -0.3344
  464SOL     OW 1390   0.593   2.237   2.272 -0.3220 -0.1024 -0.6089
  464SOL    HW1 1391   0.575   2.293   2.356  0.9197 -2.2681 -2.4754
  464SOL    HW2 1392   0.570   2.292   2.185 -1.2702  0.8343  0.7814
  465SOL     OW 1393   0.248   0.923   0.840  0.3474  0.6825  0.3651
  465SOL    HW1 1394   0.161   0.973   0.843  1.2708  0.9670 -0.2322
  465SOL    HW2 1395   0.238   0.822   0.860 -1.8538  1.9080  1.5623
  466SOL     OW 1396   1.371   1.112   1.132  0.7195 -0.2373 -0.3893
  466SOL    HW1 1397   1.429   1.193   1.160 -1.5416 -0.4414  1.2825
  466SOL    HW2 1398   1.278   1.146   1.101 -0.4983  0.3126 -3.0126
  467SOL     OW 1399   0.470   0.370   2.357 -0.1285 -0.2198 -0.4897
  467SOL    HW1 1400   0.466   0.466   2.402 -0.7002 -1.3623  0.7406
  467SOL    HW2 1401   0.471   0.289   2.424 -1.0080 -0.2546 -0.0009
  468SOL     OW 1402   0.448   2.281   1.666  0.5800 -0.0256 -0.2006
  468SOL    HW1 1403   0.442   2.364   1.729  0.2090 -0.5406  1.1388
  468SOL    HW2 1404   0.452   2.308   1.566 -1.6538 -0.9357 -1.1012
  469SOL     OW 1405   1.502   1.361   1.168  0.0035  0.0173 -1.0991
  469SOL    HW1 1406   1.579   1.292   1.172  0.6101  1.1616 -2.5431
  469SOL    HW2 1407   1.527   1.460   1.197  1.2286 -2.4873 -1.2738
  470SOL     OW 1408   3.020   1.687   0.733  0.2138 -0.1941 -0.3569
  470SOL    HW1 1409   3.096   1.755   0.714 -1.8068  4.0278  0.0636
  470SOL    HW2 1410   2.957   1.717   0.806  1.3831 -0.7985  2.5257
  471SOL     OW 1411   2.627   1.328   2.132  0.6856 -0.3514 -0.2743
  471SOL    HW1 1412   2.609   1.268   2.216  0.0368 -1.4385 -1.6841
  471SOL    HW2 1413   2.673   1.416   2.156 -0.8629  0.1529 -0.0665
  472SOL     OW 1414   1.099   2.429   3.052  0.1064  0.1780  0.3977
  472SOL    HW1 1415   1.117   2.434   3.154 -0.2562 -1.2444 -0.5533
  472SOL    HW2 1416   1.060   2.338   3.026 -0.8467  2.0241 -2.1307
  473SOL     OW 1417   1.107   1.553   0.915  0.5848  0.4602 -0.1611
  473SOL    HW1 1418   1.016   1.574   0.956 -1.8083 -0.1750 -2.3883
  473SOL    HW2 1419   1.175   1.512   0.989 -1.2227 -3.0693  1.3697
  474SOL     OW 1420   0.825   1.217   0.657 -0.1318  0.1502  0.6550
  474SOL    HW1 1421   0.803   1.232   0.555  2.7028  1.6640 -0.0064
  474SOL    HW2 1422   0.851   1.117   0.671  1.9924 -1.5431 -2.2663
  475SOL     OW 1423   2.867   0.110   0.765  0.3184  0.1801 -0.2678
  475SOL    HW1 1424   2.953   0.128   0.820  0.7964  0.5709  0.1812
  475SOL    HW2 1425   2.777   0.132   0.817 -1.5517 -0.7034 -1.6865
  476SOL     OW 1426   0.913   3.030   1.799 -0.2745  0.8516  0.4859
  476SOL    HW1 1427   0.980   3.002   1.876  0.1318 -3.8758  1.1601
  476SOL    HW2 1428   0.928   2.978   1.706 -1.9973 -0.0721 -1.7634
  477SOL     OW 1429   1.422   0.329   2.450 -0.0763 -0.3311 -0.0103
  477SOL    HW1 1430   1.389   0.323   2.549  1.4659  1.9146  1.3621
  477SOL    HW2 1431   1.512   0.276   2.432  0.4003  0.1889 -0.8360
  478SOL     OW 1432   2.259   1.792   0.224  0.0536 -0.2025 -0.1493
  478SOL    HW1 1433   2.179   1.729   0.206  0.2482  0.5285 -1.7704
  478SOL    HW2 1434   2.355   1.745   0.222  0.9648 -0.2841 -0.9845
  479SOL     OW 1435   1.299   1.023   2.886  0.7249  0.4579 -0.1022
  479SOL    HW1 1436   1.341   1.053   2.794 -0.7617 -1.1921 -1.6164
  479SOL    HW2 1437   1.208   0.971   2.865 -1.0599 -2.1436 -1.3889
  480SOL     OW 1438   2.506   2.321   0.384 -0.3185 -0.0149  0.2177
  480SOL    HW1 1439   2.465   2.242   0.442 -2.0753  1.9985 -0.9904
  480SOL    HW2 1440   2.431   2.372   0.331 -1.9707  0.6561  0.9939
  481SOL     OW 1441   1.092   1.144   0.794  0.6149 -0.5340 -0.0473
  481SOL    HW1 1442   1.099   1.225   0.728 -2.6916  1.3697  1.4188
  481SOL    HW2 1443   1.114   1.164   0.895 -1.6965  1.7297  0.5751
  482SOL     OW 1444   1.603   0.347   2.057 -0.0727  0.0396 -0.2139
  482SOL    HW1 1445   1.599   0.441   2.007  1.8919 -0.6076  1.6717
  482SOL    HW2 1446   1.700   0.309   2.068  3.2616 -1.7896  0.4620
  483SOL     OW 1447   0.159   2.353   1.259 -0.0426 -0.8768 -0.0379
  483SOL    HW1 1448   0.058   2.361   1.290 -2.8849 -0.2756  0.4678
  483SOL    HW2 1449   0.169   2.368   1.157  2.7112 -0.3711 -0.2746
  484SOL     OW 1450   1.711   0.969   1.403  0.3123  0.1278  0.1474
  484SOL    HW1 1451   1.784   0.900   1.373 -1.9402  0.0269 -0.0854
  484SOL    HW2 1452   1.757   1.057   1.438  1.7175 -1.8365  1.6751
  485SOL     OW 1453   0.686   1.093   1.776 -0.3621  0.0990  0.2484
  485SOL    HW1 1454   0.715   1.058   1.681  3.0738  2.5317 -2.5956
  485SOL    HW2 1455   0.767   1.141   1.825 -0.8838  0.6642 -2.3935
  486SOL     OW 1456   0.934   1.980   2.475 -0.0845  0.4885 -0.7312
  486SOL    HW1 1457   0.971   1.930   2.562 -0.0833 -2.4999 -0.1547
  486SOL    HW2 1458   0.837   2.026   2.481 -0.5989  2.0863  2.6123
  487SOL     OW 1459   1.703   1.509   0.909 -0.2891  0.3969  0.5222
  487SOL    HW1 1460   1.728   1.414   0.872  1.7061  2.3418 -1.1407
  487SOL    HW2 1461   1.781   1.577   0.893 -2.1660 -2.9835  0.7395
  488SOL     OW 1462   2.969   0.964   2.216 -0.7260  0.5424 -0.0099
  488SOL    HW1 1463   3.016   0.906   2.139 -1.5028 -0.2357  0.6984
  488SOL    HW2 1464   2.998   0.922   2.305  0.7663 -1.0778 -0.0823
  489SOL     OW 1465   2.726   0.280   1.334 -0.0590  0.4738  0.0355
  489SOL    HW1 1466   2.669   0.244   1.419  0.8263 -0.3004  1.3466
  489SOL    HW2 1467   2.821   0.237   1.332  3.2189 -1.4134 -1.1598
  490SOL     OW 1468   1.426   2.971   2.807  0.4934 -0.0751 -0.1232
  490SOL    HW1 1469   1.484   2.886   2.818 -2.7730  0.6810  2.6022
  490SOL    HW2 1470   1.415   3.004   2.709 -1.6473 -0.2778  3.1675
  491SOL     OW 1471   1.844   1.541   2.704  0.2025  0.3828  0.4162
  491SOL    HW1 1472   1.807   1.534   2.802 -1.0188  1.6499  2.5604
  491SOL    HW2 1473   1.947   1.525   2.707  2.7432  1.7125 -0.5134
  492SOL     OW 1474   0.501   2.035   0.760 -0.3726 -0.8184 -0.0022
  492SOL    HW1 1475   0.550   2.023   0.851 -0.4363  0.8955  1.7341
  492SOL    HW2 1476   0.444   2.119   0.756 -1.7082 -0.6469  0.2224
  493SOL     OW 1477   0.417   1.420   2.070 -0.4468 -1.0342 -0.1089
  493SOL    HW1 1478   0.331   1.474   2.080  1.3725 -0.2183  2.8459
  493SOL    HW2 1479   0.419   1.337   2.135  2.7657 -1.8655  0.7352
  494SOL     OW 1480   2.653   2.694   0.156  0.1712 -0.1975 -0.1004
  494SOL    HW1 1481   2.660   2.620   0.229 -0.6661 -1.7439  0.7111
  494SOL    HW2 1482   2.588   2.666   0.078  0.1297  0.4108 -0.0891
  495SOL     OW 1483   2.732   2.674   2.731  0.2187  0.0760  0.1179
  495SOL    HW1 1484   2.734   2.571   2.716  0.4160  1.2263 -0.6261
  495SOL    HW2 1485   2.723   2.732   2.644 -2.8679  1.7570 -0.6540
  496SOL     OW 1486   2.054   2.170   0.720  0.3685 -0.0440  0.0783
  496SOL    HW1 1487   2.067   2.188   0.820  0.4206 -0.5490  1.8160
  496SOL    HW2 1488   2.036   2.073   0.706  2.6831  3.6319  1.1573
  497SOL     OW 1489   0.218   2.967   2.394 -0.1114 -0.1089 -0.1584
  497SOL    HW1 1490   0.159   3.029   2.456  0.0140 -0.3495  0.8264
  497SOL    HW2 1491   0.260   3.022   2.314 -0.0203 -1.1057 -3.3655
  498SOL     OW 1492   1.242   1.453   1.146  0.3350 -0.3482 -0.2877
  498SOL    HW1 1493   1.342   1.453   1.171 -1.3809  1.1509  1.2188
  498SOL    HW2 1494   1.181   1.516   1.205 -0.6153  4.4462  0.2918
  499SOL     OW 1495   0.813   1.822   0.518  0.6826  0.3148 -0.3885
  499SOL    HW1 1496   0.804   1.723   0.535 -0.7109  0.2691  0.4353
  499SOL    HW2 1497   0.836   1.878   0.605 -0.1200  0.2197  3.3813
  500SOL     OW 1498   1.402   2.984   1.696 -0.1434 -0.2906 -0.0394
  500SOL    HW1 1499   1.361   3.000   1.788 -0.4965  0.5732  0.7191
  500SOL    HW2 1500   1.418   2.883   1.675 -1.4371  0.3782 -1.6646
  501SOL     OW 1501   0.762   1.134   2.289 -0.4724  0.1669 -0.7226
  501SOL    HW1 1502   0.667   1.118   2.256 -0.3839 -1.0790  0.6253
  501SOL    HW2 1503   0.835   1.145   2.217 -2.7200  0.3579 -0.7843
  502SOL     OW 1504   2.572   0.963   1.739  0.5169 -0.5463 -0.4307
  502SOL    HW1 1505   2.577   0.981   1.639 -1.1142  0.4981 -0.1387
  502SOL    HW2 1506   2.513   0.880   1.767 -1.5135 -0.3547 -2.3494
  503SOL     OW 1507   1.337   0.190   0.607 -0.0502  0.6192 -0.7677
  503SOL    HW1 1508   1.260   0.257   0.612  1.7514 -1.9063  1.3327
  503SOL    HW2 1509   1.427   0.237   0.605 -0.0434 -1.1950  0.8203
  504SOL     OW 1510   3.003   2.332   1.405 -0.4224  0.4011 -0.4500
  504SOL    HW1 1511   2.999   2.412   1.478  0.3235 -2.4376  0.9796
  504SOL    HW2 1512   2.937   2.252   1.417 -1.3971 -3.4768  1.4230
  505SOL     OW 1513   2.278   1.175   1.459  0.1372  0.5115  0.0735
  505SOL    HW1 1514   2.286   1.223   1.366 -0.4040  1.5483  0.0165
  505SOL    HW2 1515   2.343   1.214   1.522 -3.2017  0.5569 -2.6412
  506SOL     OW 1516   1.974   0.260   1.778 -0.8076  0.0183  0.0676
  506SOL    HW1 1517   2.055   0.187   1.789  2.2789 -0.3705 -1.1849
  506SOL    HW2 1518   1.977   0.348   1.832 -3.6343 -0.4031  2.3909
  507SOL     OW 1519   0.505   0.638   2.170 -0.2159 -0.4936 -0.3908
  507SOL    HW1 1520   0.415   0.617   2.118 -1.7970  1.8107 -2.3252
  507SOL    HW2 1521   0.573   0.561   2.163 -0.3728  0.9764  4.2322
  508SOL     OW 1522   0.274   1.652   0.895  0.0323  0.5808 -0.2501
  508SOL    HW1 1523   0.341   1.715   0.844 -0.7518  1.5437 -1.7391
  508SOL    HW2 1524   0.232   1.688   0.981 -0.8208 -2.2447  0.0571
  509SOL     OW 1525   1.324   1.196   2.480 -0.5068 -0.3856  0.6131
  509SOL    HW1 1526   1.257   1.128   2.445  3.1969  2.8085  1.3815
  509SOL    HW2 1527   1.409   1.186   2.416  1.4021  1.7088 -0.2907
  510SOL     OW 1528   1.311   1.968   2.038  0.4446  0.3158 -0.2606
  510SOL    HW1 1529   1.248   2.054   2.018  1.7292 -2.0647  0.4231
  510SOL    HW2 1530   1.266   1.885   2.076  2.0875  0.3209  1.9530
  511SOL     OW 1531   3.086   2.646   1.299  0.7578  0.1145  0.5649
  511SOL    HW1 1532   3.031   2.635   1.212 -0.9945 -0.1676 -0.6812
  511SOL    HW2 1533   3.028   2.625   1.385 -0.1728  0.5615 -0.7677
  512SOL     OW 1534   2.418   0.424   1.388  0.4091  0.5011 -0.2808
  512SOL    HW1 1535   2.318   0.445   1.409  0.4757 -2.3566  2.1117
  512SOL    HW2 1536   2.432   0.360   1.307  1.7790 -1.9640 -1.8198
  513SOL     OW 1537   2.461   1.984   0.854  0.0128 -0.0961  0.3266
  513SOL    HW1 1538   2.413   2.075   0.845 -0.5965  0.6865 -0.0616
  513SOL    HW2 1539   2.530   1.967   0.779 -1.8789 -0.8604  1.2866
  514SOL     OW 1540   0.673   2.782   0.386  0.3471 -0.5110 -0.4684
  514SOL    HW1 1541   0.625   2.825   0.304  1.0030  2.2750 -0.3850
  514SOL    HW2 1542   0.701   2.845   0.463  1.3340  0.8709 -0.2400
  515SOL     OW 1543   2.014   1.176   2.302 -0.2313 -0.2426 -0.3744
  515SOL    HW1 1544   1.955   1.185   2.215 -0.9057 -0.1643  0.4494
  515SOL    HW2 1545   1.946   1.207   2.380  0.2261  2.2144 -1.9208
  516SOL     OW 1546   0.254   0.258   1.965 -0.2421  0.4060  0.1064
  516SOL    HW1 1547   0.337   0.237   1.901 -0.5833  0.4748 -2.6759
  516SOL    HW2 1548   0.170   0.202   1.943  0.4038 -0.2297  1.9682
  517SOL     OW 1549   0.372   3.046   1.168 -0.4923 -0.0768 -1.1417
  517SOL    HW1 1550   0.397   3.148   1.174 -0.7877  2.3402  1.7503
  517SOL    HW2 1551   0.324   3.015   1.253  0.2051  3.5662 -0.6096
  518SOL     OW 1552   2.157   0.026   1.779  0.0591  1.2549  0.5841
  518SOL    HW1 1553   2.232   0.098   1.786 -2.1619 -0.9706 -0.0680
  518SOL    HW2 1554   2.181  -0.057   1.718  1.5680 -0.4023  1.2889
  519SOL     OW 1555   2.397   2.211   2.598  0.1524 -0.3676 -0.3191
  519SOL    HW1 1556   2.314   2.201   2.660  1.0737  0.8935  0.8246
  519SOL    HW2 1557   2.430   2.310   2.588 -3.3471 -0.1328  1.7975
  520SOL     OW 1558   1.775   2.864   1.827  0.2134  0.9610 -0.9850
  520SOL    HW1 1559   1.695   2.816   1.871  0.8546 -0.4203 -1.5307
  520SOL    HW2 1560   1.864   2.823   1.855  1.6797  0.6027 -0.2848
  521SOL     OW 1561   0.564   0.076   2.110  0.7309  0.6116  0.0112
  521SOL    HW1 1562   0.467   0.040   2.132 -1.3292 -2.0309  1.8906
  521SOL    HW2 1563   0.630   0.062   2.191  0.2766  0.7615  2.0227
  522SOL     OW 1564   0.163   1.906   1.509 -0.7264 -0.3896  0.2180
  522SOL    HW1 1565   0.212   1.959   1.589  0.8198  0.4387  0.8280
  522SOL    HW2 1566   0.128   1.974   1.435  1.4731  1.4956  0.7613
  523SOL     OW 1567   2.219   2.912   1.616 -0.6254  0.3924  0.0328
  523SOL    HW1 1568   2.283   2.854   1.567 -1.1405  0.7698 -0.6719
  523SOL    HW2 1569   2.128   2.911   1.564 -1.2329 -0.1587  1.4241
  524SOL     OW 1570   0.184   2.761   2.799  0.2800 -0.3403 -0.0454
  524SOL    HW1 1571   0.142   2.805   2.886 -0.5477  0.7658  3.0314
  524SOL    HW2 1572   0.289   2.755   2.804  1.6552  0.5528  1.8747
  525SOL     OW 1573   2.177   1.915   0.492  0.5050 -0.5369  0.1795
  525SOL    HW1 1574   2.157   1.840   0.563  3.5554 -0.9275 -0.0931
  525SOL    HW2 1575   2.225   1.872   0.405  0.8992 -1.4210 -0.8578
  526SOL     OW 1576   0.428   1.503   1.599 -0.2199 -0.0752  0.2678
  526SOL    HW1 1577   0.358   1.485   1.674 -1.5080 -3.8260 -2.1252
  526SOL    HW2 1578   0.490   1.420   1.573  1.5133 -0.4247 -0.6693
  527SOL     OW 1579   1.120   2.915   1.248  0.5706 -0.2707 -0.3846
  527SOL    HW1 1580   1.223   2.911   1.271  3.0517 -0.1451  0.5311
  527SOL    HW2 1581   1.082   3.013   1.250  0.5827 -1.3585  1.2421
  528SOL     OW 1582   1.355   2.414   0.493 -0.2852  0.0917  0.4682
  528SOL    HW1 1583   1.411   2.329   0.497  1.0945  0.6898 -3.4438
  528SOL    HW2 1584   1.402   2.497   0.540  0.6080  0.9083 -0.9271
  529SOL     OW 1585   1.887   1.701   0.840 -0.0403 -0.4883  0.0447
  529SOL    HW1 1586   1.835   1.719   0.755 -1.1836 -0.2173  0.9387
  529SOL    HW2 1587   1.899   1.786   0.902 -0.0223 -2.5055  0.4368
  530SOL     OW 1588   0.285   2.427   0.336 -0.0655 -0.1845  0.1860
  530SOL    HW1 1589   0.290   2.518   0.387  2.7903 -1.4749 -1.9826
  530SOL    HW2 1590   0.363   2.367   0.367  0.1598 -4.7888 -0.6085
  531SOL     OW 1591   1.810   0.936   1.020 -0.2314 -0.8644  0.5501
  531SOL    HW1 1592   1.857   0.942   0.924  1.5050 -3.8511  2.4268
  531SOL    HW2 1593   1.706   0.945   1.017  0.6559 -4.8112 -1.4660
  532SOL     OW 1594   0.471   1.042   0.756 -0.3454 -0.6564 -0.3829
  532SOL    HW1 1595   0.507   1.030   0.660 -0.3619  0.0308 -1.7386
  532SOL    HW2 1596   0.393   0.976   0.785  1.1693  0.4189  1.5841
  533SOL     OW 1597   1.760   0.035   2.574  0.0597 -0.4092 -0.0690
  533SOL    HW1 1598   1.865   0.023   2.581  0.2343  2.6707 -1.8111
  533SOL    HW2 1599   1.719   0.106   2.645  2.1338  0.0052  0.5499
  534SOL     OW 1600   0.388   0.209   1.557  0.4797 -0.1169 -0.4255
  534SOL    HW1 1601   0.489   0.222   1.564 -2.1549  0.1665 -0.8740
  534SOL    HW2 1602   0.336   0.297   1.562  1.8705 -1.0284  2.4588
  535SOL     OW 1603   1.949   0.373   0.172 -0.3189  0.2623  0.2289
  535SOL    HW1 1604   1.975   0.436   0.249  0.1750  1.0270  1.4863
  535SOL    HW2 1605   1.950   0.278   0.207  0.0956 -0.6777  1.2586
  536SOL     OW 1606   1.395   2.632   0.952 -0.2832 -0.2459  0.1364
  536SOL    HW1 1607   1.377   2.618   1.057 -0.0042 -0.1962 -1.9993
  536SOL    HW2 1608   1.302   2.641   0.896 -2.4322 -1.3569  0.7362
  537SOL     OW 1609   0.826   0.282   2.420  0.4424 -0.0418 -0.3846
  537SOL    HW1 1610   0.871   0.329   2.334  1.8537 -0.0493 -1.4625
  537SOL    HW2 1611   0.790   0.184   2.400 -2.8758 -1.1424  0.1175
  538SOL     OW 1612   1.655   2.299   1.354 -0.2639  0.1298 -0.5678
  538SOL    HW1 1613   1.669   2.197   1.374  0.0428  1.3476  0.6540
  538SOL    HW2 1614   1.746   2.353   1.354  0.2662 -1.4272 -2.0281
  539SOL     OW 1615   0.173   1.645   2.698 -0.7300  0.1592 -0.1207
  539SOL    HW1 1616   0.087   1.625   2.642 -0.3811  0.6952  0.4569
  539SOL    HW2 1617   0.173   1.737   2.744 -0.1734 -2.3770  0.5041
  540SOL     OW 1618   2.661   1.732   1.937  0.3300 -0.3692  0.0751
  540SOL    HW1 1619   2.602   1.646   1.959  1.8204 -1.7430 -0.0739
  540SOL    HW2 1620   2.598   1.813   1.914  0.6666 -1.3521 -0.5811
  541SOL     OW 1621   0.579   2.165   0.036 -0.1603 -0.1853  0.3106
  541SOL    HW1 1622   0.612   2.140   0.130 -0.0613  0.4281  1.1571
  541SOL    HW2 1623   0.477   2.163   0.030  0.9671 -0.0757 -0.1826
  542SOL     OW 1624   2.224   2.602   0.462  0.5436  0.2226  0.0441
  542SOL    HW1 1625   2.191   2.701   0.454 -2.1010 -0.0666  1.3022
  542SOL    HW2 1626   2.147   2.534   0.462 -0.3737 -0.9921  0.7749
  543SOL     OW 1627   1.068   1.807   1.577 -0.3004  0.2026  0.0104
  543SOL    HW1 1628   1.058   1.830   1.679 -0.4699  0.0221 -2.6502
  543SOL    HW2 1629   1.008   1.866   1.516 -2.0454  1.4420 -1.6725
  544SOL     OW 1630   1.106   0.511   0.171 -0.0717  0.5858  0.0905
  544SOL    HW1 1631   1.101   0.434   0.240  2.2352 -1.5346  0.8354
  544SOL    HW2 1632   1.140   0.480   0.076 -0.3668 -2.4530 -0.8928
  545SOL     OW 1633   1.092   1.792   0.785 -0.3448  0.7806  0.1710
  545SOL    HW1 1634   1.185   1.812   0.741 -0.8455 -2.7160 -1.1124
  545SOL    HW2 1635   1.088   1.691   0.806 -0.9089  0.7343 -2.2591
  546SOL     OW 1636   2.688   1.552   3.021 -0.3698 -0.4010 -0.4024
  546SOL    HW1 1637   2.664   1.650   2.988  0.4336  0.9922  2.1072
  546SOL    HW2 1638   2.603   1.494   3.033  0.8368  4.6869 -1.8514
  547SOL     OW 1639   0.631   3.007   2.546 -0.3823 -0.0786 -0.3017
  547SOL    HW1 1640   0.695   3.019   2.627  1.9422  1.1603  0.6635
  547SOL    HW2 1641   0.540   2.955   2.559  0.6009  3.1707 -0.7246
  548SOL     OW 1642   2.052   0.819   3.047 -0.1564 -0.6582  0.5854
  548SOL    HW1 1643   1.950   0.803   3.048 -0.3267  0.0816  0.6410
  548SOL    HW2 1644   2.071   0.918   3.048 -1.4964 -0.0535  0.0856
  549SOL     OW 1645   0.664   0.578   0.216  0.3542 -0.1711 -0.9054
  549SOL    HW1 1646   0.607   0.611   0.137  2.6416  0.4785  2.9090
  549SOL    HW2 1647   0.755   0.635   0.236  0.0498 -1.3312  0.3321
  550SOL     OW 1648   2.562   2.805   2.893  0.1713  0.5468 -0.5253
  550SOL    HW1 1649   2.511   2.745   2.965  0.7103 -0.0284  0.0996
  550SOL    HW2 1650   2.621   2.746   2.830 -0.8329 -2.1736  2.2390
  551SOL     OW 1651   0.229   0.912   0.257 -0.3753 -0.5587  0.2170
  551SOL    HW1 1652   0.332   0.931   0.239  1.0135 -1.4300 -0.8265
  551SOL    HW2 1653   0.225   0.879   0.355 -1.4508  0.2019 -0.5111
  552SOL     OW 1654   0.663   2.966   1.890 -0.2088  0.4770  0.8251
  552SOL    HW1 1655   0.653   3.028   1.971  1.0644  0.2836 -0.1518
  552SOL    HW2 1656   0.761   2.977   1.848 -1.8545 -0.3069 -0.9311
  553SOL     OW 1657   2.909   2.413   0.329  0.2384  0.1755 -0.1145
  553SOL    HW1 1658   2.873   2.320   0.358  1.9409 -1.5625 -1.2413
  553SOL    HW2 1659   2.827   2.482   0.330  2.1392 -1.2681 -2.2462
  554SOL     OW 1660   2.110   0.354   0.462 -0.1293 -0.2489  0.0319
  554SOL    HW1 1661   2.194   0.370   0.408 -1.4588  0.8602  0.8793
  554SOL    HW2 1662   2.120   0.291   0.545  0.1102  2.2002 -0.2345
  555SOL     OW 1663   0.416   2.844   2.517  0.7191  0.4394 -0.1771
  555SOL    HW1 1664   0.334   2.888   2.471 -1.1267  3.9526 -0.8901
  555SOL    HW2 1665   0.478   2.783   2.453  2.4161 -0.0147  0.3999
  556SOL     OW 1666   0.859   2.394   1.587 -0.3422  0.7042 -0.0531
  556SOL    HW1 1667   0.883   2.470   1.654 -1.8697  2.0883  4.3786
  556SOL    HW2 1668   0.931   2.377   1.512 -0.2586  3.0505 -1.0567
  557SOL     OW 1669   0.154   2.045   0.214  0.6385 -0.0574  0.6671
  557SOL    HW1 1670   0.075   1.989   0.169  0.6964  0.3164  0.5829
  557SOL    HW2 1671   0.210   2.101   0.147 -0.6173 -1.6284  2.2756
  558SOL     OW 1672   2.749   2.184   0.433  0.2941 -0.2467  0.2013
  558SOL    HW1 1673   2.656   2.224   0.397 -2.9357 -3.4964 -1.2998
  558SOL    HW2 1674   2.783   2.102   0.378  0.4125 -0.2319 -4.6178
  559SOL     OW 1675   0.429   2.330   1.383 -0.6058  0.5533  0.3952
  559SOL    HW1 1676   0.348   2.353   1.321 -1.6842 -1.4457  0.7343
  559SOL    HW2 1677   0.489   2.252   1.342  2.2152 -1.3875 -0.1569
  560SOL     OW 1678   2.122   1.092   3.075  0.5068 -0.2252 -0.0208
  560SOL    HW1 1679   2.158   1.067   3.170  1.9726  1.6091 -1.7188
  560SOL    HW2 1680   2.200   1.093   3.013  0.9628 -0.4141  3.1857
  561SOL     OW 1681   0.025   1.882   0.027  0.1457 -0.3931  0.9605
  561SOL    HW1 1682  -0.002   1.817   0.104 -1.0294 -0.2190  1.5488
  561SOL    HW2 1683  -0.035   1.964   0.005  0.3590 -0.0742  1.8399
  562SOL     OW 1684   1.086   2.164   2.311  0.4304 -1.4222 -1.1461
  562SOL    HW1 1685   1.055   2.265   2.324  2.4301 -0.2083 -0.6800
  562SOL    HW2 1686   1.019   2.091   2.335  4.3025  1.9100 -0.0897
  563SOL     OW 1687   0.702   2.521   2.623 -0.2916  0.0686  0.0488
  563SOL    HW1 1688   0.786   2.470   2.591  1.2178 -0.1728  3.8642
  563SOL    HW2 1689   0.725   2.596   2.692  1.1134  0.3000  0.9030
  564SOL     OW 1690   2.920   1.393   2.896 -0.3393 -0.1521 -0.5161
  564SOL    HW1 1691   2.838   1.420   2.956  2.5049  0.4818 -0.2503
  564SOL    HW2 1692   2.993   1.464   2.893  4.3885 -2.9423  1.1597
  565SOL     OW 1693   2.496   1.944   2.650  0.3242  0.0929  0.2247
  565SOL    HW1 1694   2.470   2.039   2.626 -2.0090 -1.8010  0.4671
  565SOL    HW2 1695   2.574   1.942   2.717  0.4628 -1.2214 -2.7441
  566SOL     OW 1696   1.976   2.891   1.471 -0.3809  0.1674  0.4436
  566SOL    HW1 1697   1.920   2.811   1.505 -1.4889  0.7570 -2.9419
  566SOL    HW2 1698   1.964   2.909   1.367  0.0589 -1.0218 -1.3013
  567SOL     OW 1699   2.448   0.002   2.335 -0.1861  0.0216  0.2074
  567SOL    HW1 1700   2.346   0.020   2.343 -0.1344  0.6353 -0.2439
  567SOL    HW2 1701   2.483   0.008   2.237  3.8438  0.2273 -0.2801
  568SOL     OW 1702   1.530   1.765   0.317 -0.4505 -0.6540  0.2999
  568SOL    HW1 1703   1.487   1.839   0.260 -0.4480  0.4011  0.4502
  568SOL    HW2 1704   1.629   1.781   0.339 -0.9704  1.3119  1.3880
  569SOL     OW 1705   0.237   0.640   0.878 -0.0916 -0.4930  0.9408
  569SOL    HW1 1706   0.295   0.598   0.804  1.2785  0.0745  0.4150
  569SOL    HW2 1707   0.137   0.601   0.882 -3.4905 -0.1530  2.4232
  570SOL     OW 1708   0.608   0.856   2.898 -0.3482 -0.3282  0.9856
  570SOL    HW1 1709   0.688   0.873   2.835  1.7112  0.9393  1.1043
  570SOL    HW2 1710   0.611   0.918   2.983 -2.5590  1.2181 -2.1106
  571SOL     OW 1711   0.818   0.013   1.115 -0.4355 -0.3098  0.4634
  571SOL    HW1 1712   0.868   0.041   1.031 -0.9635 -1.1393  0.8593
  571SOL    HW2 1713   0.819  -0.086   1.135 -0.5090  1.2560 -2.5113
  572SOL     OW 1714   1.630   2.708   1.394  0.3182 -0.1555  0.8844
  572SOL    HW1 1715   1.650   2.621   1.339 -0.9427  0.7422  0.6711
  572SOL    HW2 1716   1.672   2.796   1.366  1.1829  0.7145 -0.4243
  573SOL     OW 1717   3.094   0.478   2.022  0.8636 -0.5848 -0.0313
  573SOL    HW1 1718   3.031   0.396   2.045  1.7400  1.2951 -2.7709
  573SOL    HW2 1719   3.143   0.467   1.929  1.4472 -0.0593 -0.6979
  574SOL     OW 1720   0.154   1.752   1.135 -0.2935 -0.3265  0.0212
  574SOL    HW1 1721   0.170   1.703   1.223  0.9289 -1.2070 -1.2931
  574SOL    HW2 1722   0.072   1.814   1.139 -1.2431 -3.2599  0.7036
  575SOL     OW 1723   0.875   2.183   0.939 -0.2443  0.0717  0.0372
  575SOL    HW1 1724   0.851   2.244   1.019 -0.4575  0.6333  1.2148
  575SOL    HW2 1725   0.905   2.235   0.855 -1.6758 -1.4735  3.1927
  576SOL     OW 1726   2.909   3.015   1.701  0.0747 -0.5462  0.0238
  576SOL    HW1 1727   2.805   3.010   1.705  2.1331 -0.5579  1.7573
  576SOL    HW2 1728   2.949   3.095   1.657  0.2010 -2.3980  1.3177
  577SOL     OW 1729   2.668   1.243   0.018  0.1679 -0.6247 -0.6731
  577SOL    HW1 1730   2.688   1.159  -0.038  1.9447  1.7142  0.8642
  577SOL    HW2 1731   2.674   1.240   0.125 -1.4264  0.5622 -0.8602
  578SOL     OW 1732   1.425   2.788   2.522  0.9528 -0.5573  0.2650
  578SOL    HW1 1733   1.333   2.831   2.508  1.2372 -0.9709  1.9808
  578SOL    HW2 1734   1.506   2.852   2.499 -0.5091 -0.0005  1.1364
  579SOL     OW 1735   0.057   2.446   0.192  0.3839  0.3173 -0.4394
  579SOL    HW1 1736  -0.024   2.425   0.255  1.3952 -0.8364 -1.9905
  579SOL    HW2 1737   0.147   2.450   0.245  1.0829 -2.0771  1.0300
  580SOL     OW 1738   0.977   2.635   0.402 -0.3443  0.1617 -0.0000
  580SOL    HW1 1739   1.062   2.655   0.342  0.7117  0.1239 -1.7954
  580SOL    HW2 1740   0.887   2.632   0.342 -1.3945 -0.5935  0.2189
  581SOL     OW 1741   1.290   2.696   1.443 -0.5557  0.1063 -0.1816
  581SOL    HW1 1742   1.359   2.618   1.448  0.7744  1.0586 -3.5684
  581SOL    HW2 1743   1.330   2.784   1.405  1.7184  1.8556 -0.8487
  582SOL     OW 1744   1.475   0.086   1.936  0.0008 -0.3574  0.1320
  582SOL    HW1 1745   1.482   0.158   2.006  0.9714 -2.6910 -0.5366
  582SOL    HW2 1746   1.555   0.086   1.868  2.4369  1.4746  0.8313
  583SOL     OW 1747   2.456   3.082   0.527 -0.1144 -0.2947  0.1612
  583SOL    HW1 1748   2.545   3.041   0.489  1.2154 -0.9541  1.6818
  583SOL    HW2 1749   2.386   3.008   0.548  1.1328  0.0828  0.3257
  584SOL     OW 1750   1.569   1.131   2.326  0.8452  0.2178  0.1866
  584SOL    HW1 1751   1.637   1.197   2.290  0.2090 -1.1588  0.1577
  584SOL    HW2 1752   1.624   1.066   2.377 -0.5119 -0.7224 -1.7845
  585SOL     OW 1753   2.058   2.663   2.888  0.0614 -0.3476 -0.1234
  585SOL    HW1 1754   2.094   2.577   2.853 -2.7099 -1.0210 -0.6366
  585SOL    HW2 1755   1.952   2.667   2.896  0.1704  0.3567  0.4111
  586SOL     OW 1756   2.901   0.404   1.523  0.1832 -0.0698  0.0870
  586SOL    HW1 1757   2.907   0.500   1.570  1.4444  1.4117  1.8524
  586SOL    HW2 1758   2.809   0.378   1.499  0.7375 -3.4101 -0.3639
  587SOL     OW 1759   2.114   1.462   2.702  0.1760  0.0046 -0.1111
  587SOL    HW1 1760   2.122   1.400   2.619 -0.2078 -0.1219 -1.6186
  587SOL    HW2 1761   2.200   1.460   2.761  2.0693  1.0966 -1.6445
  588SOL     OW 1762   0.541   2.702   2.312 -0.0305  0.0408 -0.2738
  588SOL    HW1 1763   0.524   2.721   2.207  0.0064 -0.6122  0.9776
  588SOL    HW2 1764   0.532   2.604   2.340  0.9800  1.1768 -0.6091
  589SOL     OW 1765   2.187   1.295   2.500  0.0944  0.2654  0.2391
  589SOL    HW1 1766   2.145   1.232   2.436 -0.9728  1.9515  0.5186
  589SOL    HW2 1767   2.290   1.282   2.506  0.0497 -0.9557 -0.8548
  590SOL     OW 1768   2.362   1.744   2.063 -0.5697 -0.6729  0.0775
  590SOL    HW1 1769   2.422   1.657   2.065  2.7212  0.6062  0.0574
  590SOL    HW2 1770   2.339   1.760   2.162 -0.8450  1.6860  0.0669
  591SOL     OW 1771   1.227   2.377   0.226 -0.1588 -0.0815 -0.1074
  591SOL    HW1 1772   1.242   2.282   0.185  1.5766 -2.8631 -0.0809
  591SOL    HW2 1773   1.226   2.380   0.333  1.3038  1.4768 -2.9676
  592SOL     OW 1774   1.785   2.338   0.791  0.2559  0.1046  0.3915
  592SOL    HW1 1775   1.781   2.393   0.699 -0.6134 -2.9308  0.1804
  592SOL    HW2 1776   1.880   2.302   0.808  1.8106  0.7488  1.2566
  593SOL     OW 1777   0.731   0.323   0.236 -0.2181  0.5321  0.3019
  593SOL    HW1 1778   0.787   0.307   0.150 -0.2577 -0.2212  2.5227
  593SOL    HW2 1779   0.687   0.417   0.230 -0.7578 -0.2878  0.7969
  594SOL     OW 1780   1.059   1.860   2.691  0.5435 -0.1647  0.1792
  594SOL    HW1 1781   1.148   1.834   2.647 -1.3440  0.3886 -2.1333
  594SOL    HW2 1782   1.060   1.911   2.781 -1.8704  2.0306  1.5201
  595SOL     OW 1783   1.513   0.070   0.998 -0.3650  0.5208 -0.4433
  595SOL    HW1 1784   1.583   0.026   0.939 -3.7360  2.3446 -0.7127
  595SOL    HW2 1785   1.420   0.065   0.950  0.4978 -1.5627 -1.2405
  596SOL     OW 1786   0.069   1.469   2.288 -0.0139 -0.2271  0.0473
  596SOL    HW1 1787   0.066   1.372   2.314 -0.7629 -1.9935 -0.9962
  596SOL    HW2 1788   0.026   1.530   2.359  2.7120 -0.2232 -0.4734
  597SOL     OW 1789   1.970   2.680   1.826  0.2658 -0.2488 -0.6409
  597SOL    HW1 1790   1.917   2.683   1.732 -0.6381 -0.4176 -1.1964
  597SOL    HW2 1791   2.071   2.645   1.813 -0.9725  2.4849 -0.2816
  598SOL     OW 1792   2.523   2.875   1.220 -0.0494 -0.3871  0.1978
  598SOL    HW1 1793   2.606   2.904   1.274  1.0982 -3.8267  1.3098
  598SOL    HW2 1794   2.538   2.864   1.121 -0.8100  2.2449  0.9210
  599SOL     OW 1795   2.800   0.267   2.499 -0.3376  0.4181 -0.1038
  599SOL    HW1 1796   2.870   0.262   2.420  1.7732 -1.4375  0.9306
  599SOL    HW2 1797   2.717   0.329   2.471 -2.1849 -1.1941  0.2309
  600SOL     OW 1798   2.809   1.202   2.744 -0.1479 -0.7030 -0.4549
  600SOL    HW1 1799   2.746   1.149   2.804  0.9783  0.5161 -0.7623
  600SOL    HW2 1800   2.849   1.293   2.786  1.1048 -0.1032  0.2921
  601SOL     OW 1801   3.023   1.325   2.017 -1.1025 -0.7218  0.1660
  601SOL    HW1 1802   2.938   1.346   1.958  1.1975 -2.9366  0.2790
  601SOL    HW2 1803   3.105   1.374   1.978 -0.6164 -0.6779 -0.0095
  602SOL     OW 1804   1.486   1.573   2.278  0.1504 -0.3921  0.0287
  602SOL    HW1 1805   1.401   1.553   2.330 -0.9017  1.1102  0.4248
  602SOL    HW2 1806   1.566   1.618   2.328  0.5576  0.2212  0.7747
  603SOL     OW 1807   0.668   1.164   2.710  0.0324  0.8268 -0.1250
  603SOL    HW1 1808   0.592   1.200   2.652 -0.4211 -0.2238  2.1604
  603SOL    HW2 1809   0.697   1.068   2.690 -2.7891  0.8888 -1.4571
  604SOL     OW 1810   2.469   0.978   0.186  0.1869  0.2338  0.5939
  604SOL    HW1 1811   2.555   1.036   0.181  0.7248  1.7478 -0.4896
  604SOL    HW2 1812   2.472   0.892   0.128  0.2749  0.8037  1.0254
  605SOL     OW 1813   2.512   1.127   1.962  0.5586 -0.2873  0.5333
  605SOL    HW1 1814   2.541   1.079   1.876  0.5638  0.2690  1.0102
  605SOL    HW2 1815   2.567   1.207   1.997 -0.3693 -2.7894  1.5955
  606SOL     OW 1816   1.511   2.517   2.538 -0.2579 -0.7217  0.5146
  606SOL    HW1 1817   1.461   2.608   2.541 -1.5915 -0.3820  0.8724
  606SOL    HW2 1818   1.450   2.433   2.543  0.9644  1.4482  1.2264
  607SOL     OW 1819   1.313   1.606   0.251 -0.2161 -0.1093 -0.4167
  607SOL    HW1 1820   1.224   1.665   0.248  0.0521 -0.1367 -0.9862
  607SOL    HW2 1821   1.394   1.655   0.295  2.2369  0.5118 -0.5564
  608SOL     OW 1822   1.439   2.853   0.397 -0.7034  0.6450 -0.5512
  608SOL    HW1 1823   1.470   2.865   0.299  0.0532  0.0784  0.4663
  608SOL    HW2 1824   1.383   2.936   0.426  0.2307  0.6814 -0.1579
  609SOL     OW 1825   1.352   1.336   0.151 -0.3067 -0.7989 -0.5999
  609SOL    HW1 1826   1.334   1.439   0.180 -3.1529  4.1021  0.4329
  609SOL    HW2 1827   1.291   1.306   0.073  1.6441 -1.6959 -0.0039
  610SOL     OW 1828   3.035   1.224   2.274  0.5173  0.3998 -0.0039
  610SOL    HW1 1829   3.008   1.125   2.249 -1.9694  0.6895  0.6048
  610SOL    HW2 1830   3.036   1.282   2.184  0.2066  0.9316 -0.9187
  611SOL     OW 1831   2.496   0.250   1.175  0.0702  0.0104 -0.4369
  611SOL    HW1 1832   2.444   0.165   1.187  3.2234 -0.6422 -2.4444
  611SOL    HW2 1833   2.579   0.259   1.235 -1.2771  0.4462 -0.4415
  612SOL     OW 1834   0.780   2.311   1.164  0.6041  0.1790 -0.0945
  612SOL    HW1 1835   0.726   2.236   1.208  2.5596  1.6712  1.4814
  612SOL    HW2 1836   0.731   2.406   1.168 -2.1635  0.8758 -1.4208
  613SOL     OW 1837   0.823   1.388   2.406 -0.6383  0.2004 -0.0521
  613SOL    HW1 1838   0.823   1.463   2.331 -0.0938 -0.3998 -3.0161
  613SOL    HW2 1839   0.793   1.292   2.374 -0.1107 -1.4955 -3.0451
  614SOL     OW 1840   1.570   1.687   1.812 -0.1710 -0.3697  0.1426
  614SOL    HW1 1841   1.529   1.779   1.795 -0.4650  0.2487 -0.6774
  614SOL    HW2 1842   1.662   1.694   1.860  0.3962  4.0311  1.8407
  615SOL     OW 1843   0.756   1.402   1.721 -0.0836  0.2880  0.1328
  615SOL    HW1 1844   0.677   1.380   1.652 -0.6233 -1.5229 -2.5951
  615SOL    HW2 1845   0.815   1.477   1.686 -1.6088 -0.2298  1.2911
  616SOL     OW 1846   1.107   1.546   2.148 -0.4127  0.2549  0.4824
  616SOL    HW1 1847   1.004   1.547   2.161  0.7744 -0.6055  2.0604
  616SOL    HW2 1848   1.132   1.600   2.063 -2.0638  2.8839  0.5342
  617SOL     OW 1849   3.016   1.555   1.657  0.5542  0.2681 -0.0005
  617SOL    HW1 1850   3.006   1.486   1.733 -1.7673 -1.2951 -1.1724
  617SOL    HW2 1851   3.054   1.507   1.572 -0.4342  2.7269  0.1758
  618SOL     OW 1852   1.953   1.953   1.439  0.6191  0.1509  0.3612
  618SOL    HW1 1853   2.035   1.976   1.382 -0.4591 -1.7777  0.9266
  618SOL    HW2 1854   1.968   1.873   1.500  0.4337  2.8429 -0.5986
  619SOL     OW 1855   1.718   0.486   2.343  0.1749  0.7893 -0.1219
  619SOL    HW1 1856   1.665   0.570   2.299 -0.4113  2.2976 -2.2800
  619SOL    HW2 1857   1.660   0.411   2.381  0.4038 -0.2886  1.8608
  620SOL     OW 1858   2.232   2.939   0.608  0.9323 -0.0198  0.8055
  620SOL    HW1 1859   2.143   2.990   0.597 -1.2086 -0.8209  1.6968
  620SOL    HW2 1860   2.249   2.905   0.703  0.7145 -0.8146 -1.8058
  621SOL     OW 1861   2.240   1.894   1.363  0.0788  0.1880 -0.2538
  621SOL    HW1 1862   2.222   1.892   1.463  1.0419 -2.5978 -1.1070
  621SOL    HW2 1863   2.222   1.799   1.321 -0.3356  0.0809 -2.3771
  622SOL     OW 1864   2.235   0.910   1.808 -0.1645  0.3147  0.7452
  622SOL    HW1 1865   2.326   0.858   1.821 -0.0009  0.9397 -1.7864
  622SOL    HW2 1866   2.162   0.850   1.851 -0.8553 -1.7279  2.1682
  623SOL     OW 1867   1.316   0.808   2.566 -0.5934  0.3613  0.2011
  623SOL    HW1 1868   1.264   0.766   2.642  0.2221  0.3213 -2.6768
  623SOL    HW2 1869   1.263   0.842   2.486  1.3391 -0.6584  2.5014
  624SOL     OW 1870   0.520   0.695   0.019  0.4376 -0.5347  0.5271
  624SOL    HW1 1871   0.562   0.728  -0.079 -0.6873 -2.2091 -0.8342
  624SOL    HW2 1872   0.479   0.783   0.067 -2.5192  1.2685  1.2874
  625SOL     OW 1873   2.736   1.687   0.887 -0.5803  0.0772 -0.1251
  625SOL    HW1 1874   2.681   1.732   0.963  0.1571  1.0112 -2.1253
  625SOL    HW2 1875   2.706   1.591   0.867  0.3442  0.7294  1.1904
  626SOL     OW 1876   0.498   2.749   1.941 -0.2306 -0.7617  0.8004
  626SOL    HW1 1877   0.567   2.817   1.901  1.6626  0.0463  1.5602
  626SOL    HW2 1878   0.399   2.785   1.935 -1.8039 -0.6864  1.6573
  627SOL     OW 1879   0.743   1.073   1.511  0.1110  0.3957 -0.3392
  627SOL    HW1 1880   0.786   0.986   1.489 -0.3642  2.2157  2.8099
  627SOL    HW2 1881   0.789   1.149   1.456 -0.8886  1.3179 -0.1502
  628SOL     OW 1882   2.423   0.181   0.717  0.1171  0.2253  0.1287
  628SOL    HW1 1883   2.448   0.095   0.655 -1.6489 -2.2873  0.0107
  628SOL    HW2 1884   2.324   0.202   0.726  0.2339 -2.2903  2.5728
  629SOL     OW 1885   1.963   0.946   1.976 -0.1444  0.3208 -0.0256
  629SOL    HW1 1886   2.050   0.968   2.025 -0.8873 -2.2172  0.8458
  629SOL    HW2 1887   1.909   1.035   1.963  0.5072 -1.6854 -1.2728
  630SOL     OW 1888   2.779   2.187   0.771  1.3363  0.0233  0.0115
  630SOL    HW1 1889   2.698   2.249   0.809  1.2114  3.3017  1.0210
  630SOL    HW2 1890   2.756   2.094   0.738 -0.3471 -2.9963 -0.4000
  631SOL     OW 1891   3.017   0.217   2.107  0.6040  0.1408  0.3713
  631SOL    HW1 1892   3.085   0.245   2.182 -2.5032  1.7885 -0.6583
  631SOL    HW2 1893   3.061   0.192   2.016 -0.0102  2.1370  0.3570
  632SOL     OW 1894   2.298   2.540   0.732  0.1462  1.0377  1.2248
  632SOL    HW1 1895   2.360   2.609   0.771  1.1915 -2.2444  4.5609
  632SOL    HW2 1896   2.261   2.573   0.639 -1.2721  1.2821  2.4638
  633SOL     OW 1897   1.603   1.284   2.580 -0.5687  0.1191  0.5407
  633SOL    HW1 1898   1.587   1.354   2.654 -0.1720  0.4925 -1.8224
  633SOL    HW2 1899   1.517   1.276   2.523  1.5513  1.5274 -1.2246
  634SOL     OW 1900   0.640   2.055   1.004 -0.0700  0.6876 -0.1625
  634SOL    HW1 1901   0.568   2.107   1.058 -0.6660  2.1996 -0.5412
  634SOL    HW2 1902   0.725   2.118   0.982  0.4892 -1.6058  1.6509
  635SOL     OW 1903   0.058   2.273   3.089  0.2059 -0.7438  0.3609
  635SOL    HW1 1904   0.003   2.301   3.006  0.7019  1.7241  0.7475
  635SOL    HW2 1905   0.059   2.356   3.153 -2.5453 -3.8348  1.7060
  636SOL     OW 1906   2.288   2.852   2.022  0.5909  0.5588  0.1892
  636SOL    HW1 1907   2.310   2.952   2.047  1.4744  0.8340 -2.5072
  636SOL    HW2 1908   2.234   2.798   2.088  2.1788  3.8971 -3.2910
  637SOL     OW 1909   2.540   0.735   2.052  0.1686  0.0329 -0.0633
  637SOL    HW1 1910   2.514   0.710   1.953 -0.2189  1.9082 -1.0312
  637SOL    HW2 1911   2.619   0.805   2.064  1.1415  0.0442  1.3500
  638SOL     OW 1912   2.500   1.865   1.349 -0.3389  0.0775  0.5587
  638SOL    HW1 1913   2.399   1.869   1.355 -3.1172  0.2815 -0.6423
  638SOL    HW2 1914   2.530   1.777   1.392 -1.5536  2.1761  0.8091
  639SOL     OW 1915   1.302   2.242   1.616 -0.4344  0.3107 -0.1945
  639SOL    HW1 1916   1.300   2.195   1.520 -0.1213 -3.5409 -1.1202
  639SOL    HW2 1917   1.227   2.209   1.683  0.5667 -0.4834  1.4715
  640SOL     OW 1918   0.201   1.207   1.542  0.8190  0.0512 -0.2628
  640SOL    HW1 1919   0.190   1.281   1.613  0.4674  1.5180 -1.8903
  640SOL    HW2 1920   0.282   1.150   1.567 -1.0669  3.3728 -0.8064
  641SOL     OW 1921   1.956   0.193   1.454 -0.6717  0.8299 -0.3214
  641SOL    HW1 1922   1.875   0.257   1.479 -0.5753  1.7063  2.7607
  641SOL    HW2 1923   1.974   0.119   1.530 -0.9401 -0.9893 -0.7447
  642SOL     OW 1924   1.992   0.092   0.319 -0.0875 -0.0827  0.1823
  642SOL    HW1 1925   2.096   0.103   0.334  2.8194  0.6929  0.7871
  642SOL    HW2 1926   1.943   0.083   0.411  0.0609  1.3723  0.4493
  643SOL     OW 1927   2.840   1.875   2.094 -0.4381 -0.0351  0.3049
  643SOL    HW1 1928   2.782   1.798   2.051  0.5880 -1.0872 -1.8592
  643SOL    HW2 1929   2.852   1.959   2.035  1.0973  0.4203  0.7675
  644SOL     OW 1930   2.193   2.288   1.231 -0.1396 -0.0059  0.2946
  644SOL    HW1 1931   2.292   2.282   1.194  0.8205 -3.0257 -1.0843
  644SOL    HW2 1932   2.189   2.321   1.330 -1.6240  1.2024  2.9074
  645SOL     OW 1933   0.598   0.818   1.162  0.1253  0.3686  0.5346
  645SOL    HW1 1934   0.565   0.742   1.099 -1.8687  3.4726 -1.6520
  645SOL    HW2 1935   0.600   0.908   1.115 -0.9417 -0.2451 -1.6151
  646SOL     OW 1936   1.502   1.966   1.803 -0.6635  0.1906 -0.4015
  646SOL    HW1 1937   1.580   2.037   1.787  1.6022  2.1251 -0.7348
  646SOL    HW2 1938   1.434   1.992   1.879  0.7552 -1.2392  1.4750
  647SOL     OW 1939   0.878   0.929   0.654  0.6787 -0.0244 -0.0636
  647SOL    HW1 1940   0.972   0.924   0.699  1.8246 -0.9979 -0.8977
  647SOL    HW2 1941   0.799   0.873   0.702 -2.9668 -2.0872 -0.5969
  648SOL     OW 1942   0.206   0.202   0.320  0.1794  0.7836  0.2433
  648SOL    HW1 1943   0.220   0.124   0.250 -0.9485  2.7152 -1.0667
  648SOL    HW2 1944   0.174   0.292   0.267 -1.0347 -1.7279 -1.4511
  649SOL     OW 1945   3.090   0.114   0.939 -0.3438 -0.3731 -0.4182
  649SOL    HW1 1946   3.190   0.107   0.914  1.7067 -0.4034  3.5190
  649SOL    HW2 1947   3.082   0.150   1.038  1.3955 -1.6854  2.4542
  650SOL     OW 1948   2.726   0.720   1.434  0.1208 -0.0017  0.4901
  650SOL    HW1 1949   2.625   0.705   1.462  2.7564 -0.7313 -1.1960
  650SOL    HW2 1950   2.723   0.800   1.370 -2.2597 -1.5001  1.8375
  651SOL     OW 1951   0.900   1.583   1.604  0.1941 -0.6304  0.2872
  651SOL    HW1 1952   0.973   1.656   1.617 -1.0931  1.6719 -2.4089
  651SOL    HW2 1953   0.840   1.600   1.520 -1.4781  1.3934 -2.8860
  652SOL     OW 1954   2.273   2.513   2.372  0.3969  0.5124 -0.6582
  652SOL    HW1 1955   2.213   2.512   2.460 -0.9052 -0.7710  2.2674
  652SOL    HW2 1956   2.233   2.569   2.297  0.7922  0.6689  0.2363
  653SOL     OW 1957   2.695   1.187   0.281  0.2347  0.1691 -0.0617
  653SOL    HW1 1958   2.758   1.270   0.303 -2.2997 -0.7598 -0.6747
  653SOL    HW2 1959   2.751   1.100   0.291  1.3314 -0.4398 -1.0779
  654SOL     OW 1960   1.260   2.276   1.218 -1.0996 -0.0604  0.1336
  654SOL    HW1 1961   1.312   2.193   1.249 -0.4843  1.3088 -1.5043
  654SOL    HW2 1962   1.271   2.288   1.111 -0.7536  1.3605  0.0173
  655SOL     OW 1963   0.224   1.051   1.853  0.8762  0.3469 -0.1349
  655SOL    HW1 1964   0.276   0.976   1.802 -2.1595  3.8032 -0.1555
  655SOL    HW2 1965   0.276   1.140   1.842  0.1763  0.8421  0.4982
  656SOL     OW 1966   2.508   2.480   2.557 -0.1224 -0.1365  0.3480
  656SOL    HW1 1967   2.594   2.471   2.499  0.3235 -0.4694 -3.5887
  656SOL    HW2 1968   2.444   2.550   2.521 -2.0176 -3.8721 -1.6610
  657SOL     OW 1969   3.053   1.098   1.856 -0.1048  0.2466 -0.0147
  657SOL    HW1 1970   3.042   1.191   1.896 -1.1684  1.6344 -1.8834
  657SOL    HW2 1971   3.153   1.071   1.865  0.2925  2.9645 -1.3831
  658SOL     OW 1972   1.645   0.192   2.365  0.2846  0.2273 -0.2284
  658SOL    HW1 1973   1.678   0.114   2.420 -1.9672  2.6941  1.0374
  658SOL    HW2 1974   1.716   0.229   2.298  1.1723  3.8335 -1.6535
  659SOL     OW 1975   1.407   0.566   2.885 -0.1245  0.1428 -0.2791
  659SOL    HW1 1976   1.494   0.622   2.891  1.2458  0.2360 -4.0553
  659SOL    HW2 1977   1.341   0.614   2.821 -1.6185  0.7035 -0.9494
  660SOL     OW 1978   1.419   0.388   1.400 -0.2362  0.3599 -0.2776
  660SOL    HW1 1979   1.453   0.406   1.495  1.0146  2.8890 -0.3461
  660SOL    HW2 1980   1.486   0.320   1.354  1.9552 -0.9703  1.1745
  661SOL     OW 1981   2.481   1.159   0.661 -0.2019 -0.5018 -0.1676
  661SOL    HW1 1982   2.498   1.097   0.579  1.6460  0.2971  0.6487
  661SOL    HW2 1983   2.430   1.246   0.642  1.4496  1.1025 -1.1395
  662SOL     OW 1984   1.313   0.428   1.826 -0.4001  0.1746 -0.1457
  662SOL    HW1 1985   1.252   0.351   1.799  2.0634  0.6695 -1.2397
  662SOL    HW2 1986   1.288   0.482   1.909 -0.6384  0.6887 -1.2820
  663SOL     OW 1987   0.838   1.591   2.159  0.1564  0.0903 -0.1342
  663SOL    HW1 1988   0.843   1.693   2.165 -0.2324 -2.2733 -0.2493
  663SOL    HW2 1989   0.766   1.552   2.095 -0.4242 -0.2391  0.7421
  664SOL     OW 1990   1.679   2.019   1.390 -0.3633  0.2532  0.3443
  664SOL    HW1 1991   1.620   1.950   1.440  1.8869 -1.9186 -1.4535
  664SOL    HW2 1992   1.782   1.997   1.395  0.0741  0.4033 -1.3914
  665SOL     OW 1993   2.242   0.622   1.978  0.8103  0.0282  0.2571
  665SOL    HW1 1994   2.283   0.535   2.025  0.7507 -0.0553  1.7307
  665SOL    HW2 1995   2.207   0.698   2.040 -0.7536 -1.7924  1.3874
  666SOL     OW 1996   0.487   2.295   0.462 -0.2687 -0.0977 -0.7799
  666SOL    HW1 1997   0.547   2.381   0.469  1.9147  2.2089 -0.8155
  666SOL    HW2 1998   0.444   2.270   0.555  1.2807  2.8504 -0.5321
  667SOL     OW 1999   2.065   0.283   1.008  0.5356 -0.0438 -0.0621
  667SOL    HW1 2000   2.101   0.376   0.980  1.5021  0.9108 -1.1240
  667SOL    HW2 2001   2.008   0.280   1.094  1.5182  1.3835 -2.3641
  668SOL     OW 2002   1.992   0.496   1.196 -0.2039 -0.5538  0.5731
  668SOL    HW1 2003   2.065   0.543   1.136  1.9630  0.3720 -0.8827
  668SOL    HW2 2004   2.037   0.445   1.272  0.0616 -0.9692 -2.6249
  669SOL     OW 2005   2.997   2.080   0.910  0.0701 -0.2063  0.0638
  669SOL    HW1 2006   2.902   2.094   0.867 -2.6621 -2.3419 -3.4329
  669SOL    HW2 2007   3.024   2.163   0.967  1.9579  2.9769  1.5345
  670SOL     OW 2008   2.820   2.349   2.009 -0.0974  0.5290 -0.0901
  670SOL    HW1 2009   2.781   2.307   2.098  1.9137  1.4498  0.1717
  670SOL    HW2 2010   2.788   2.443   1.986 -0.5810  1.3571 -2.0328
  671SOL     OW 2011   1.745   1.637   1.445 -0.1986 -0.6021 -0.3811
  671SOL    HW1 2012   1.763   1.677   1.348 -0.0331  1.3179 -1.7088
  671SOL    HW2 2013   1.683   1.556   1.454  1.9190  0.2833  1.6858
  672SOL     OW 2014   0.425   0.664   2.441 -0.1453  0.7473 -0.2833
  672SOL    HW1 2015   0.445   0.658   2.338  0.3341  0.6670  2.7370
  672SOL    HW2 2016   0.346   0.729   2.465 -0.8586  2.0085  2.1136
  673SOL     OW 2017   0.185   1.203   1.139  0.1850 -0.0771 -0.3423
  673SOL    HW1 2018   0.222   1.260   1.213 -0.6346 -1.0188 -1.4165
  673SOL    HW2 2019   0.255   1.162   1.078 -0.9523  0.1455 -0.7812
  674SOL     OW 2020   1.524   2.858   0.141 -0.1766 -0.3859  0.1435
  674SOL    HW1 2021   1.576   2.939   0.107 -1.3499 -1.9730 -0.7717
  674SOL    HW2 2022   1.564   2.764   0.124  2.9163 -1.6898 -1.0371
  675SOL     OW 2023   1.703   0.812   2.338 -0.1432 -0.5102  0.5006
  675SOL    HW1 2024   1.798   0.764   2.332  0.6555  0.8596 -1.4171
  675SOL    HW2 2025   1.626   0.765   2.278  2.6842  2.0502 -2.2707
  676SOL     OW 2026   2.491   1.509   1.991 -0.5482 -0.2690  0.1300
  676SOL    HW1 2027   2.450   1.482   1.895  1.0450 -1.5711 -3.9742
  676SOL    HW2 2028   2.552   1.436   2.029  0.6413 -0.7275  0.1654
  677SOL     OW 2029   1.790   0.551   0.980  0.1442 -0.7025 -0.3771
  677SOL    HW1 2030   1.880   0.532   1.030  0.9989 -0.6375 -0.8550
  677SOL    HW2 2031   1.732   0.463   0.965 -0.0562 -3.1961 -0.1723
  678SOL     OW 2032   0.077   0.773   1.681  0.1451  0.6763  0.2826
  678SOL    HW1 2033   0.160   0.820   1.725  0.5731 -0.4572  1.1466
  678SOL    HW2 2034  -0.013   0.784   1.732 -1.1984  1.5385  2.5285
  679SOL     OW 2035   2.532   1.195   1.078  0.5720 -0.3009  0.9149
  679SOL    HW1 2036   2.466   1.223   1.153 -1.0529  0.0729  1.1396
  679SOL    HW2 2037   2.503   1.111   1.026  0.3589 -2.1916 -0.2334
  680SOL     OW 2038   2.840   0.632   1.658 -0.1506  0.3122 -0.0908
  680SOL    HW1 2039   2.795   0.684   1.576  0.3295  0.2519 -1.2800
  680SOL    HW2 2040   2.887   0.695   1.728 -0.6359  0.5414  0.2845
  681SOL     OW 2041   3.012   0.170   1.629 -0.0350  0.2775  0.6672
  681SOL    HW1 2042   3.097   0.156   1.572 -0.1289  1.1777 -1.3474
  681SOL    HW2 2043   2.973   0.266   1.609 -0.9411 -0.5924  0.2992
  682SOL     OW 2044   0.762   0.055   1.385 -0.4031  0.5735 -0.5179
  682SOL    HW1 2045   0.682  -0.004   1.427 -0.1483 -1.8470  0.6895
  682SOL    HW2 2046   0.780   0.031   1.284 -2.4138 -0.1303  0.6751
  683SOL     OW 2047   1.404   0.234   2.177 -0.5873 -0.2172  0.5548
  683SOL    HW1 2048   1.386   0.283   2.265  0.8013 -2.7932  0.6038
  683SOL    HW2 2049   1.478   0.287   2.126 -0.4399 -0.5409 -2.5144
  684SOL     OW 2050   1.437   2.143   0.490 -0.0825 -0.0432  0.0088
  684SOL    HW1 2051   1.501   2.067   0.523  0.6390 -0.0546 -0.0006
  684SOL    HW2 2052   1.361   2.105   0.430  0.8116 -1.5114  0.8032
  685SOL     OW 2053   2.164   1.882   1.930 -0.2676 -0.5004  0.4374
  685SOL    HW1 2054   2.198   1.964   1.873 -1.2367 -0.3724  0.6074
  685SOL    HW2 2055   2.243   1.834   1.975 -4.5895 -1.1457 -0.0034
  686SOL     OW 2056   1.580   1.749   2.730  0.2833  0.1308  0.9604
  686SOL    HW1 2057   1.570   1.645   2.727 -2.0143  2.5068 -3.3719
  686SOL    HW2 2058   1.576   1.792   2.827 -3.6784  0.4815  1.7511
  687SOL     OW 2059   1.348   2.521   1.924 -0.0248  0.1771  0.3874
  687SOL    HW1 2060   1.396   2.449   1.867  0.5966 -0.3779  3.0197
  687SOL    HW2 2061   1.405   2.569   1.998 -2.3005 -0.7136 -1.7229
  688SOL     OW 2062   2.085   1.389   1.639 -0.0184  0.1158  0.0386
  688SOL    HW1 2063   2.171   1.425   1.594  0.0545  1.5857 -1.2628
  688SOL    HW2 2064   2.034   1.319   1.584  1.1992  0.0114  0.5378
  689SOL     OW 2065   2.453   1.116   2.763 -0.0432  0.0424 -0.0412
  689SOL    HW1 2066   2.359   1.077   2.782  3.3095 -2.2310  0.2377
  689SOL    HW2 2067   2.526   1.098   2.839  0.6589  0.2140 -1.4773
  690SOL     OW 2068   2.219   2.811   3.076  0.1846 -0.3633  0.5528
  690SOL    HW1 2069   2.145   2.769   3.013 -1.1266  0.6331  1.1550
  690SOL    HW2 2070   2.177   2.817   3.170 -5.7722  0.0947 -0.5455
  691SOL     OW 2071   2.555   0.479   2.174 -0.4614  0.2298  0.0747
  691SOL    HW1 2072   2.642   0.432   2.135  1.6575  0.6581  1.6751
  691SOL    HW2 2073   2.551   0.580   2.144 -0.0873  1.1775  1.4840
  692SOL     OW 2074   2.754   1.216   0.708 -0.2232 -0.6482 -0.4523
  692SOL    HW1 2075   2.654   1.207   0.689 -0.4413 -0.8155 -0.4263
  692SOL    HW2 2076   2.782   1.309   0.753 -4.1489  0.6796 -0.2445
  693SOL     OW 2077   2.880   2.981   0.595  0.1010 -0.7169 -0.2546
  693SOL    HW1 2078   2.887   3.076   0.645 -3.0136  2.2020 -0.8310
  693SOL    HW2 2079   2.804   2.977   0.520 -2.7150  0.3488 -1.6340
  694SOL     OW 2080   2.374   2.187   0.064  0.1467 -0.7157 -0.1561
  694SOL    HW1 2081   2.355   2.281   0.109 -1.9187  1.2114 -1.1323
  694SOL    HW2 2082   2.289   2.132   0.049 -3.3216 -2.9055  2.2319
  695SOL     OW 2083   0.530   3.004   1.473  0.0298 -0.3646  0.2658
  695SOL    HW1 2084   0.522   2.902   1.455  0.5232  1.2551  0.8607
  695SOL    HW2 2085   0.472   3.032   1.554  0.2689 -3.3806  1.3336
  696SOL     OW 2086   2.703   1.911   0.722  0.3926  0.6091 -0.3484
  696SOL    HW1 2087   2.735   1.827   0.775  2.2720  0.4895 -0.4603
  696SOL    HW2 2088   2.645   1.890   0.644 -0.6676 -2.1921  1.1966
  697SOL     OW 2089   1.733   2.102   1.749 -0.2497  0.6558  0.1116
  697SOL    HW1 2090   1.794   2.037   1.809  0.9668  0.0232  0.3295
  697SOL    HW2 2091   1.764   2.200   1.737 -2.9894 -0.5134 -0.2207
  698SOL     OW 2092   2.936   0.374   2.735  0.4285 -0.5636  0.1743
  698SOL    HW1 2093   2.886   0.338   2.653  0.7625 -1.6983  0.6918
  698SOL    HW2 2094   2.966   0.293   2.796 -3.0906  1.7102 -1.0744
  699SOL     OW 2095   1.566   0.066   2.931  0.1023  0.3719 -0.4326
  699SOL    HW1 2096   1.498  -0.002   2.887 -0.3554 -2.2905  2.2898
  699SOL    HW2 2097   1.625   0.123   2.865  3.2558  0.2013 -0.6804
  700SOL     OW 2098   1.033   2.369   1.371  0.7204 -0.2615  0.1378
  700SOL    HW1 2099   1.123   2.331   1.347 -1.9377  2.9914  0.1595
  700SOL    HW2 2100   0.961   2.353   1.296 -1.3398  1.3401  1.0253
  701SOL     OW 2101   1.865   2.830   0.042 -0.4606  0.1344 -0.3931
  701SOL    HW1 2102   1.875   2.797   0.139 -0.6259 -0.2580  1.3470
  701SOL    HW2 2103   1.908   2.924   0.027 -1.2283 -1.2563 -3.3454
  702SOL     OW 2104   2.087   1.396   1.906 -0.2946  0.4859  0.2072
  702SOL    HW1 2105   2.162   1.328   1.916 -2.1032  0.4509 -0.3182
  702SOL    HW2 2106   2.054   1.405   1.804  1.7530 -1.2431 -2.7584
  703SOL     OW 2107   1.952   0.824   1.425  0.2286  0.6029  0.1399
  703SOL    HW1 2108   1.936   0.734   1.474 -1.8603 -1.7339  1.3751
  703SOL    HW2 2109   2.012   0.885   1.486  0.6042 -0.2213  1.9469
  704SOL     OW 2110   0.312   2.027   1.696 -0.0775  0.1415  0.2588
  704SOL    HW1 2111   0.331   1.974   1.782  2.1079  0.3213  3.5237
  704SOL    HW2 2112   0.383   2.099   1.671  0.9312  0.2048  1.0045
  705SOL     OW 2113   2.523   1.405   0.881  0.6318  0.2138 -0.7566
  705SOL    HW1 2114   2.422   1.400   0.844  1.4533 -0.4747 -0.0999
  705SOL    HW2 2115   2.548   1.317   0.934 -0.5066 -0.2846  3.9030
  706SOL     OW 2116   0.672   1.763   1.854  0.6215  0.2064  0.5294
  706SOL    HW1 2117   0.675   1.665   1.904 -3.8946 -0.6654  1.3227
  706SOL    HW2 2118   0.738   1.830   1.898  3.8375  0.1921  1.5886
  707SOL     OW 2119   2.273   1.195   1.854 -0.3432  0.8019  0.5936
  707SOL    HW1 2120   2.362   1.178   1.906  0.7829  0.1044  1.1201
  707SOL    HW2 2121   2.235   1.102   1.820  1.0529  1.5556  1.2690
  708SOL     OW 2122   3.080   0.465   3.025  0.3474 -0.0505 -0.1530
  708SOL    HW1 2123   3.080   0.538   2.953 -0.1791  2.5813  1.8606
  708SOL    HW2 2124   3.094   0.366   2.989 -2.8115 -2.0194  2.4264
  709SOL     OW 2125   1.826   1.822   0.294 -0.1576  0.4055 -0.2892
  709SOL    HW1 2126   1.858   1.916   0.326  0.6596  2.8598  2.2782
  709SOL    HW2 2127   1.828   1.806   0.190  1.6958  2.4323  1.2838
  710SOL     OW 2128   1.727   1.632   2.466  0.3774  0.7683 -0.0428
  710SOL    HW1 2129   1.780   1.600   2.382  0.0334  1.6008  1.2445
  710SOL    HW2 2130   1.779   1.607   2.559  0.3678  0.3187  0.8749
  711SOL     OW 2131   2.635   2.929   0.967 -0.3119  0.1587  0.2405
  711SOL    HW1 2132   2.642   3.032   0.940  3.8453  0.4874 -0.7227
  711SOL    HW2 2133   2.722   2.900   1.021 -2.9726 -2.4375 -1.2464
  712SOL     OW 2134   1.511   2.340   1.774  0.0944 -0.8207  0.3261
  712SOL    HW1 2135   1.573   2.278   1.829 -2.0417 -2.1962 -0.4139
  712SOL    HW2 2136   1.460   2.294   1.698 -1.4349  1.6948 -0.3179
  713SOL     OW 2137   2.808   1.428   2.473 -0.0910 -0.6408  0.9362
  713SOL    HW1 2138   2.804   1.339   2.423  3.4854  0.7654 -4.4537
  713SOL    HW2 2139   2.730   1.442   2.542 -2.4788 -0.9320 -0.2832
  714SOL     OW 2140   2.619   0.469   2.446  0.4019 -0.5018  0.7552
  714SOL    HW1 2141   2.532   0.453   2.504  1.5144  2.1272  1.7118
  714SOL    HW2 2142   2.603   0.488   2.344  1.7022  0.5939  1.6494
  715SOL     OW 2143   1.570   2.099   1.129 -0.0386 -0.1730 -0.2756
  715SOL    HW1 2144   1.514   2.186   1.150  2.2234  0.0660  3.3737
  715SOL    HW2 2145   1.625   2.066   1.211  0.1348  1.2667 -0.8813
  716SOL     OW 2146   1.235   0.211   1.500  0.3014 -0.4525 -0.3507
  716SOL    HW1 2147   1.135   0.222   1.475 -0.1298 -2.2947 -0.5729
  716SOL    HW2 2148   1.299   0.278   1.450 -1.5570 -0.3130  0.4503
  717SOL     OW 2149   1.088   0.604   1.614 -0.2199  0.5775 -0.0858
  717SOL    HW1 2150   1.189   0.610   1.627 -0.7828  3.2142  0.9772
  717SOL    HW2 2151   1.068   0.599   1.513  0.0775 -2.3653  0.0167
  718SOL     OW 2152   0.627   1.053   1.005 -0.1590  1.1216 -0.6199
  718SOL    HW1 2153   0.599   1.032   0.910 -0.8589  3.1317  1.7606
  718SOL    HW2 2154   0.710   1.111   1.006 -0.5176 -0.5916  0.2270
  719SOL     OW 2155   0.795   1.883   2.233 -0.1265 -0.0835 -0.3214
  719SOL    HW1 2156   0.850   1.889   2.321  2.2389  2.5102  0.5220
  719SOL    HW2 2157   0.701   1.912   2.261  2.7964 -0.6000 -2.8967
  720SOL     OW 2158   2.211   1.080   0.242  0.0947  0.2038 -0.4675
  720SOL    HW1 2159   2.313   1.061   0.227  1.8268  0.4728 -1.3176
  720SOL    HW2 2160   2.181   1.060   0.341 -0.1898  0.0706  1.9404
  721SOL     OW 2161   2.285   0.002   2.039 -1.0030 -0.1618  0.2646
  721SOL    HW1 2162   2.302   0.072   1.962 -0.6893  1.6615  1.4976
  721SOL    HW2 2163   2.185  -0.021   2.048  0.1828  0.4289  0.3789
  722SOL     OW 2164   2.393   1.668   0.524 -0.5139 -0.3526 -0.5297
  722SOL    HW1 2165   2.373   1.629   0.431 -0.3831 -2.3179 -0.5174
  722SOL    HW2 2166   2.309   1.704   0.576 -0.6745  2.7740 -4.4703
  723SOL     OW 2167   2.549   2.835   1.937  0.0315  0.4505 -0.1112
  723SOL    HW1 2168   2.613   2.854   2.016  0.1755 -2.6786  0.0644
  723SOL    HW2 2169   2.443   2.833   1.967 -1.0965 -2.5976  0.9245
  724SOL     OW 2170   0.467   2.438   2.445 -0.7809 -0.2683 -0.0838
  724SOL    HW1 2171   0.370   2.475   2.435 -0.2791  0.5561 -0.9059
  724SOL    HW2 2172   0.497   2.414   2.540  1.0521 -2.1972  0.1730
  725SOL     OW 2173   2.379   2.761   1.435 -0.7543  0.0144 -0.4616
  725SOL    HW1 2174   2.426   2.803   1.355 -0.3746 -0.5606  2.4277
  725SOL    HW2 2175   2.399   2.666   1.456 -0.3499  1.4160 -2.0854
  726SOL     OW 2176   2.389   2.259   0.704  0.0801  0.2879  0.0707
  726SOL    HW1 2177   2.383   2.360   0.689 -0.5551 -1.9770  0.3654
  726SOL    HW2 2178   2.375   2.200   0.615 -2.3392 -1.0228 -0.0104
  727SOL     OW 2179   0.217   0.008   0.121 -0.2061  0.1679  0.1370
  727SOL    HW1 2180   0.274  -0.081   0.124  0.6607  1.1931 -1.0427
  727SOL    HW2 2181   0.221   0.055   0.028  0.5664 -0.6307 -0.0750
  728SOL     OW 2182   2.762   0.687   0.998 -0.4482 -0.2286  0.0602
  728SOL    HW1 2183   2.699   0.651   0.922 -1.5622  3.4623  1.8394
  728SOL    HW2 2184   2.779   0.619   1.070 -0.3118  2.8751  0.0540
  729SOL     OW 2185   2.902   2.464   0.691 -0.3050  0.0348  0.1714
  729SOL    HW1 2186   2.872   2.367   0.679 -0.6184  3.0846  0.3760
  729SOL    HW2 2187   3.000   2.464   0.719 -0.6367 -0.7627 -1.0298
  730SOL     OW 2188   2.574   0.596   0.810 -0.1111  0.7104  0.6601
  730SOL    HW1 2189   2.538   0.681   0.761  2.0886 -1.1297  1.4436
  730SOL    HW2 2190   2.666   0.566   0.767  0.2943  3.2108 -0.6287
  731SOL     OW 2191   0.015   2.112   2.469  0.2480  0.5759  0.5226
  731SOL    HW1 2192   0.081   2.153   2.546  0.1223 -3.8124 -0.2014
  731SOL    HW2 2193  -0.039   2.181   2.419  2.7700 -1.3327 -1.4030
  732SOL     OW 2194   1.108   2.898   1.952  0.1949 -0.0648  0.4536
  732SOL    HW1 2195   1.130   2.821   2.018  1.5178 -0.7806 -1.9768
  732SOL    HW2 2196   1.161   2.882   1.863  0.6222  0.6218 -0.9870
  733SOL     OW 2197   3.067   0.748   2.042 -0.3507  0.2025 -0.3128
  733SOL    HW1 2198   3.161   0.788   2.045  0.4209  2.6607 -1.8280
  733SOL    HW2 2199   3.073   0.643   2.029 -1.4554  1.9603 -0.2035
  734SOL     OW 2200   1.408   0.336   2.732 -0.0191  0.3401 -0.5865
  734SOL    HW1 2201   1.413   0.427   2.786  1.7515 -1.2514  0.1788
  734SOL    HW2 2202   1.327   0.274   2.759 -0.9470 -1.3216  1.5406
  735SOL     OW 2203   2.862   2.604   2.265 -0.1720 -0.2991  0.3794
  735SOL    HW1 2204   2.823   2.621   2.174 -0.7004 -0.4069  2.3689
  735SOL    HW2 2205   2.967   2.589   2.264 -0.1731  0.7110 -0.9560
  736SOL     OW 2206   0.785   0.402   2.667  0.4061  0.3836  0.0814
  736SOL    HW1 2207   0.750   0.499   2.648 -0.5101  0.1892 -1.3639
  736SOL    HW2 2208   0.802   0.349   2.578  3.2274  1.0198  5.8431
  737SOL     OW 2209   2.661   0.494   2.859  0.4702 -0.4384 -0.0113
  737SOL    HW1 2210   2.675   0.471   2.956 -0.7034 -0.5103  0.0189
  737SOL    HW2 2211   2.744   0.478   2.803  1.6036  0.4331 -1.0025
  738SOL     OW 2212   1.623   1.220   2.988  0.6135 -0.3028  0.2162
  738SOL    HW1 2213   1.723   1.198   2.959 -0.3943  2.9920  1.9951
  738SOL    HW2 2214   1.561   1.150   2.944  1.4388 -1.1224  3.4474
  739SOL     OW 2215   1.808   0.659   0.695 -0.1353 -0.3624 -0.3094
  739SOL    HW1 2216   1.810   0.618   0.792  1.4989  0.2026 -0.7409
  739SOL    HW2 2217   1.841   0.587   0.628 -1.1295  0.0930  0.3100
  740SOL     OW 2218   1.966   1.868   2.182  0.2558  0.1076 -0.6260
  740SOL    HW1 2219   2.051   1.835   2.131 -1.1840  0.5711 -0.1768
  740SOL    HW2 2220   1.883   1.815   2.152  0.4321 -2.1900  1.2841
  741SOL     OW 2221   2.480   0.057   2.606 -0.0530  0.8881 -0.7082
  741SOL    HW1 2222   2.584   0.039   2.627 -1.3007 -0.5866 -0.7039
  741SOL    HW2 2223   2.462   0.045   2.504  1.4380  0.2009 -1.8001
  742SOL     OW 2224   2.230   1.377   0.123  0.0594  0.1041 -0.5416
  742SOL    HW1 2225   2.145   1.435   0.142  2.2732  0.7652  2.0097
  742SOL    HW2 2226   2.243   1.298   0.186 -0.9663  1.7449 -0.5674
  743SOL     OW 2227   1.743   0.593   2.625 -0.2733 -0.2800  0.4938
  743SOL    HW1 2228   1.734   0.548   2.533  1.1222  0.0932 -0.3495
  743SOL    HW2 2229   1.692   0.685   2.638  2.5189 -0.0630 -0.4625
  744SOL     OW 2230   2.665   2.099   0.031  0.1258 -0.2192  0.0690
  744SOL    HW1 2231   2.574   2.145   0.062 -2.3434  2.2148  2.3837
  744SOL    HW2 2232   2.719   2.060   0.108 -2.3752  1.9018  0.5817
  745SOL     OW 2233   2.151   2.712   2.203  0.4593 -0.0971  0.2990
  745SOL    HW1 2234   2.065   2.665   2.169  1.7442 -0.9119 -0.4259
  745SOL    HW2 2235   2.123   2.776   2.285  0.1833 -0.8216  1.9501
  746SOL     OW 2236   3.083   2.581   1.814  0.1220  0.2926 -0.4051
  746SOL    HW1 2237   3.147   2.591   1.735  0.1577  0.1140 -2.1770
  746SOL    HW2 2238   3.040   2.674   1.839  1.0702  2.3200  1.8964
  747SOL     OW 2239   3.074   1.809   1.677 -0.3368  0.2327 -0.2467
  747SOL    HW1 2240   3.059   1.707   1.669 -0.3860  0.6885  1.6405
  747SOL    HW2 2241   3.143   1.845   1.605  0.4288  1.0247  1.3391
  748SOL     OW 2242   1.780   2.697   2.883 -0.1599  0.6814  0.1485
  748SOL    HW1 2243   1.788   2.730   2.978  0.2867 -2.4455 -0.7018
  748SOL    HW2 2244   1.686   2.692   2.845 -1.8833  0.2207  3.5739
  749SOL     OW 2245   1.300   0.039   0.829 -0.3643  0.5290  0.2868
  749SOL    HW1 2246   1.257  -0.054   0.861 -2.1071 -2.8063  0.1678
  749SOL    HW2 2247   1.289   0.068   0.729 -2.4972  0.7296 -0.9816
  750SOL     OW 2248   2.325   0.232   1.879  0.8669 -0.1511 -0.9447
  750SOL    HW1 2249   2.381   0.268   1.800 -1.9926 -1.3357  1.3542
  750SOL    HW2 2250   2.341   0.275   1.976  1.5846  1.8716  0.0866
  751SOL     OW 2251   0.829   2.207   2.800  0.3731  0.2959  0.2689
  751SOL    HW1 2252   0.895   2.202   2.883 -0.2750  1.8763  1.3593
  751SOL    HW2 2253   0.753   2.136   2.814 -1.3038 -1.3095 -0.6325
  752SOL     OW 2254   1.248   0.895   1.573 -0.1470  0.0967  0.4288
  752SOL    HW1 2255   1.314   0.945   1.511 -0.5670 -1.9259  0.7339
  752SOL    HW2 2256   1.284   0.804   1.609  0.5530  1.5614  0.8934
  753SOL     OW 2257   0.946   2.617   1.762  0.0571 -0.0635  0.5770
  753SOL    HW1 2258   1.042   2.658   1.738 -1.8225 -1.5391  0.3949
  753SOL    HW2 2259   0.864   2.679   1.738  0.3954  2.4375  1.7864
  754SOL     OW 2260   1.175   1.262   3.055 -0.6449  0.2419  0.5307
  754SOL    HW1 2261   1.207   1.204   2.974  2.5046  1.1654 -1.8374
  754SOL    HW2 2262   1.166   1.361   3.023  2.0863 -1.6895  1.1702
  755SOL     OW 2263   1.952   0.473   2.210  0.6245  0.2263 -0.3344
  755SOL    HW1 2264   2.034   0.430   2.264 -1.5855 -0.0661  0.6101
  755SOL    HW2 2265   1.860   0.470   2.258  0.4893  0.1260 -0.5368
  756SOL     OW 2266   2.636   0.996   2.952 -0.5412  0.4808 -0.2556
  756SOL    HW1 2267   2.733   0.992   2.979 -0.8001  2.0120 -0.8876
  756SOL    HW2 2268   2.584   0.912   2.984  1.1498  2.9970 -1.6690
  757SOL     OW 2269   0.104   0.509   1.774  1.1954  0.3879 -0.7300
  757SOL    HW1 2270   0.086   0.604   1.739  0.5420  0.0260 -1.5539
  757SOL    HW2 2271   0.159   0.450   1.705 -1.3412  0.8766 -3.7865
  758SOL     OW 2272   2.401   3.080   1.481 -0.2419 -0.2475  0.7029
  758SOL    HW1 2273   2.323   3.019   1.523 -0.8262 -2.9044  1.3555
  758SOL    HW2 2274   2.383   3.100   1.379 -0.4495 -0.2625  0.2280
  759SOL     OW 2275   1.675   3.092   0.065  0.1225 -0.1438 -0.0136
  759SOL    HW1 2276   1.626   3.111  -0.027  0.4585  0.8250  1.4022
  759SOL    HW2 2277   1.771   3.066   0.052 -2.3178  1.0719 -2.9178
  760SOL     OW 2278   2.750   2.022   2.778 -0.2592 -0.1844  0.6237
  760SOL    HW1 2279   2.832   1.955   2.769 -1.8760 -2.3395  1.0473
  760SOL    HW2 2280   2.769   2.117   2.739 -0.5391  2.2242 -0.1596
  761SOL     OW 2281   1.946   1.699   1.619 -0.2480  0.1506 -0.3139
  761SOL    HW1 2282   1.997   1.611   1.632 -3.2681 -1.5604  1.2953
  761SOL    HW2 2283   1.873   1.687   1.550 -1.0406  0.0781  2.9646
  762SOL     OW 2284   0.520   2.407   0.959  0.1856 -0.3339 -0.1835
  762SOL    HW1 2285   0.595   2.427   0.893 -2.8305  1.9939 -1.9322
  762SOL    HW2 2286   0.511   2.468   1.045 -1.4795  2.3636  0.0497
  763SOL     OW 2287   2.105   1.526   2.988 -0.1479  0.5494  0.3745
  763SOL    HW1 2288   2.162   1.442   2.960 -2.2601 -0.5643 -0.4094
  763SOL    HW2 2289   2.015   1.502   3.041 -1.3225 -2.6181 -0.3688
  764SOL     OW 2290   0.684   0.510   0.905 -0.0255 -0.4407 -0.2091
  764SOL    HW1 2291   0.659   0.414   0.876 -3.2250 -1.1628 -1.6498
  764SOL    HW2 2292   0.785   0.522   0.923  1.3168  1.1291 -1.1492
  765SOL     OW 2293   0.667   0.237   0.801 -0.0567  0.3964 -0.5817
  765SOL    HW1 2294   0.750   0.205   0.746 -0.3979 -1.2702 -2.6384
  765SOL    HW2 2295   0.688   0.236   0.904  2.7470 -2.3897  1.7797
  766SOL     OW 2296   2.946   2.091   0.036 -0.2469  0.1863  0.0092
  766SOL    HW1 2297   2.858   2.122  -0.007 -2.0451  1.7953 -2.1782
  766SOL    HW2 2298   3.019   2.166   0.036  1.2857 -1.7210  0.2888
  767SOL     OW 2299   2.846   1.545   0.518 -0.5477  0.2117  0.0421
  767SOL    HW1 2300   2.758   1.513   0.570 -0.7386  1.7758 -0.6604
  767SOL    HW2 2301   2.921   1.574   0.585  2.3004  0.6063  2.2274
  768SOL     OW 2302   1.096   0.259   0.306  0.2238  0.0944 -0.4528
  768SOL    HW1 2303   1.018   0.188   0.323 -0.5789  1.9046  3.3738
  768SOL    HW2 2304   1.185   0.216   0.282 -1.8663 -1.0845  1.2680
  769SOL     OW 2305   1.188   1.813   2.273  0.1023  0.0208  0.0272
  769SOL    HW1 2306   1.148   1.835   2.362 -0.6635  2.4585  4.1938
  769SOL    HW2 2307   1.181   1.713   2.237 -0.0505 -1.0577 -1.1343
  770SOL     OW 2308   0.162   1.224   2.405 -0.3672 -0.3805 -0.2926
  770SOL    HW1 2309   0.141   1.264   2.499  3.1772 -1.6712 -3.1181
  770SOL    HW2 2310   0.078   1.188   2.351 -0.3794  1.1265 -0.7831
  771SOL     OW 2311   2.962   2.824   1.915 -0.6872  0.5183  0.7281
  771SOL    HW1 2312   2.961   2.894   1.832  0.5126  2.5229 -2.0713
  771SOL    HW2 2313   2.960   2.876   2.002 -0.4019 -1.7945 -0.1055
  772SOL     OW 2314   2.117   0.113   2.979 -0.3006  0.4979  0.0092
  772SOL    HW1 2315   2.208   0.067   2.954  3.1817 -0.3827 -0.8813
  772SOL    HW2 2316   2.133   0.202   3.026  3.8207  1.3407 -0.6031
  773SOL     OW 2317   0.680   2.060   2.463 -0.0624 -0.1284 -0.3144
  773SOL    HW1 2318   0.644   2.123   2.385  0.0513  0.3460 -0.3267
  773SOL    HW2 2319   0.634   2.075   2.555  1.1637  1.5654  1.1866
  774SOL     OW 2320   2.036   3.085   2.612  0.2670  0.3740  0.1217
  774SOL    HW1 2321   2.030   3.183   2.647 -1.3864  1.8676 -1.0012
  774SOL    HW2 2322   2.086   3.023   2.678 -2.0655  1.2559 -4.2363
  775SOL     OW 2323   2.508   2.840   2.361 -0.4462  0.0729 -1.0217
  775SOL    HW1 2324   2.500   2.946   2.371 -1.6038  0.2715 -2.8435
  775SOL    HW2 2325   2.590   2.808   2.417  0.7328  0.7937 -0.4144
  776SOL     OW 2326   0.020   1.249   0.202  0.8176 -0.2101 -0.1557
  776SOL    HW1 2327  -0.006   1.194   0.118 -0.0278  0.1340  1.6807
  776SOL    HW2 2328  -0.063   1.278   0.253 -2.2708  0.4728 -2.7732
  777SOL     OW 2329   0.223   2.687   0.496  0.7296 -0.3031  0.4162
  777SOL    HW1 2330   0.125   2.661   0.469  1.2165 -0.4584 -3.7706
  777SOL    HW2 2331   0.235   2.792   0.492  0.4206  0.3879 -2.5800
  778SOL     OW 2332   1.323   1.959   0.156  0.0545 -0.1864  0.3547
  778SOL    HW1 2333   1.272   1.970   0.248 -2.1193  0.7981  0.5225
  778SOL    HW2 2334   1.330   2.052   0.107  2.1093  0.9362 -0.9625
  779SOL     OW 2335   0.184   0.807   0.494  0.0614  0.2300  0.1538
  779SOL    HW1 2336   0.163   0.717   0.448 -0.4682  2.9327  2.5702
  779SOL    HW2 2337   0.105   0.837   0.556  1.0492  0.5846  1.7446
  780SOL     OW 2338   0.042   0.310   2.395  0.5674 -0.1413  0.2386
  780SOL    HW1 2339  -0.002   0.404   2.397  0.5284  0.1203  0.5809
  780SOL    HW2 2340   0.129   0.321   2.337 -0.1985  0.9084  0.9389
  781SOL     OW 2341   0.591   1.727   1.588 -0.1562 -0.4487 -0.2052
  781SOL    HW1 2342   0.625   1.725   1.687 -2.0662 -1.7873 -0.3248
  781SOL    HW2 2343   0.522   1.646   1.575 -1.3609 -3.3171  1.3160
  782SOL     OW 2344   2.615   0.144   0.924  0.6043 -0.4530 -0.1551
  782SOL    HW1 2345   2.535   0.148   0.853 -0.9873  1.0387  0.3004
  782SOL    HW2 2346   2.594   0.187   1.017  4.7919  0.5141  1.4982
  783SOL     OW 2347   2.852   0.695   2.501 -0.3108  0.5211 -0.0102
  783SOL    HW1 2348   2.794   0.728   2.584 -1.5814 -3.4835 -0.1918
  783SOL    HW2 2349   2.798   0.618   2.460 -1.3224  1.5201  2.2636
  784SOL     OW 2350   1.351   2.197   0.018  0.3456 -0.2882 -0.3730
  784SOL    HW1 2351   1.431   2.242   0.068  1.2357 -2.2350 -2.2992
  784SOL    HW2 2352   1.370   2.200  -0.090 -0.6349 -0.2857 -2.8266
  785SOL     OW 2353   2.171   0.340   0.008 -0.4230  0.3478 -0.1392
  785SOL    HW1 2354   2.100   0.351   0.080  0.5983 -1.5390 -0.1863
  785SOL    HW2 2355   2.201   0.428  -0.029  1.5194 -0.4356  1.5342
  786SOL     OW 2356   2.031   2.171   2.247 -0.4001  0.2922  0.5944
  786SOL    HW1 2357   2.014   2.071   2.215  1.4468 -0.5417  1.7101
  786SOL    HW2 2358   2.114   2.170   2.317 -0.7940 -0.9080  0.2054
  787SOL     OW 2359   1.374   0.630   0.831 -0.1019  0.0133 -0.2281
  787SOL    HW1 2360   1.326   0.714   0.862 -0.8943  0.1089  0.7811
  787SOL    HW2 2361   1.423   0.640   0.738  1.4176 -0.2362 -2.1025
  788SOL     OW 2362   1.216   0.427   3.027 -0.3903  0.3679 -0.2038
  788SOL    HW1 2363   1.115   0.457   3.019  2.1224 -0.4048  1.1499
  788SOL    HW2 2364   1.281   0.486   2.972  0.1821  2.1608  1.3065
  789SOL     OW 2365   2.626   0.094   1.820  0.1382  0.1466  0.1929
  789SOL    HW1 2366   2.545   0.156   1.843  1.2018  0.9109 -1.3096
  789SOL    HW2 2367   2.596   0.007   1.782 -2.3012  0.3470 -0.9307
  790SOL     OW 2368   2.593   2.625   0.805 -0.1629 -0.3722 -0.5455
  790SOL    HW1 2369   2.642   2.654   0.718 -2.2549  0.0920  0.2771
  790SOL    HW2 2370   2.590   2.704   0.865  0.4532  1.5687 -4.0638
  791SOL     OW 2371   1.965   1.289   0.223  0.9096 -0.0809 -0.4086
  791SOL    HW1 2372   1.878   1.235   0.249  1.4564  1.5668 -0.3853
  791SOL    HW2 2373   2.043   1.234   0.191 -3.8280 -0.0804  0.4827
  792SOL     OW 2374   0.412   1.977   2.212 -0.0901  0.0941 -0.1532
  792SOL    HW1 2375   0.447   2.063   2.258  0.5012 -0.1210  1.6105
  792SOL    HW2 2376   0.325   1.943   2.261 -1.1690 -1.7090  0.3395
  793SOL     OW 2377   2.146   1.545   2.146  0.2101 -0.2465 -0.0219
  793SOL    HW1 2378   2.201   1.633   2.130  0.0669  2.6786 -0.2746
  793SOL    HW2 2379   2.136   1.493   2.064  1.8749  0.1664 -3.0725
  794SOL     OW 2380   0.468   1.447   2.478  0.7956  0.7205 -0.1694
  794SOL    HW1 2381   0.468   1.378   2.403  0.8943  2.4804 -0.2752
  794SOL    HW2 2382   0.416   1.528   2.449  0.8894 -0.7266 -0.1842
  795SOL     OW 2383   2.536   2.322   1.807  0.1232 -0.2120  0.0198
  795SOL    HW1 2384   2.554   2.364   1.901  0.7042  1.6053  1.6861
  795SOL    HW2 2385   2.498   2.224   1.809 -0.3248  1.5566  0.1377
  796SOL     OW 2386   3.054   1.063   2.694 -0.2522  0.2255  0.1312
  796SOL    HW1 2387   2.967   1.109   2.738 -1.6261  2.4534 -0.5762
  796SOL    HW2 2388   3.094   0.977   2.741  1.9632 -3.0218 -0.5685
  797SOL     OW 2389   0.683   0.661   1.358 -0.1825  0.0157  0.1208
  797SOL    HW1 2390   0.746   0.714   1.424  0.6813  0.0466 -0.1242
  797SOL    HW2 2391   0.636   0.727   1.291  1.5425 -1.8247 -3.3246
  798SOL     OW 2392   1.204   0.460   0.970 -0.2608  0.1103 -0.9030
  798SOL    HW1 2393   1.212   0.520   1.060 -0.4729 -0.1735  2.6782
  798SOL    HW2 2394   1.285   0.468   0.908  1.9211  0.2264 -0.0652
  799SOL     OW 2395   1.832   2.732   1.008  0.0125 -0.3870  0.1433
  799SOL    HW1 2396   1.826   2.632   1.047  0.1120  0.3292  0.3897
  799SOL    HW2 2397   1.881   2.725   0.915 -2.4809  1.7285 -1.3474
  800SOL     OW 2398   2.954   0.843   1.816  0.0838 -0.0566 -0.1595
  800SOL    HW1 2399   2.985   0.942   1.801 -0.1536  2.4514  1.2681
  800SOL    HW2 2400   2.986   0.812   1.912 -0.9472  1.9155  1.7070
  801SOL     OW 2401   1.971   2.155   0.135  0.0074 -0.1308 -0.3383
  801SOL    HW1 2402   1.886   2.103   0.103 -0.1652 -2.8144  0.2555
  801SOL    HW2 2403   2.051   2.126   0.079  0.7811  0.7256  1.4005
  802SOL     OW 2404   0.681   0.656   2.542 -0.5957 -0.9493  0.1005
  802SOL    HW1 2405   0.720   0.674   2.448 -1.5644 -1.2385 -1.5004
  802SOL    HW2 2406   0.577   0.660   2.534 -2.2559 -1.6900  1.6341
  803SOL     OW 2407   0.909   0.082   0.862  0.0283  0.4380  0.2048
  803SOL    HW1 2408   0.993   0.122   0.912  0.6852  1.2877 -1.8689
  803SOL    HW2 2409   0.897   0.122   0.762 -0.0813 -0.9788 -1.9514
  804SOL     OW 2410   0.312   0.022   2.199 -0.3227 -0.1341  0.1897
  804SOL    HW1 2411   0.289   0.121   2.211 -1.7204 -0.2648 -0.9726
  804SOL    HW2 2412   0.249  -0.016   2.126 -1.3536 -0.0782 -0.2561
  805SOL     OW 2413   2.382   0.375   0.328  0.5339  0.5916  0.1357
  805SOL    HW1 2414   2.450   0.359   0.411  4.0067 -1.8868  2.7484
  805SOL    HW2 2415   2.393   0.302   0.254 -0.8833  1.4002 -1.2407
  806SOL     OW 2416   0.635   2.512   1.835 -0.0237  0.9159 -0.2531
  806SOL    HW1 2417   0.602   2.603   1.868 -1.0533  1.7888 -1.7031
  806SOL    HW2 2418   0.694   2.519   1.748  0.3383  0.9905 -1.7677
  807SOL     OW 2419   2.528   0.987   0.469 -0.8402 -0.0287  0.9391
  807SOL    HW1 2420   2.629   0.952   0.461  3.0346  0.1563  0.3699
  807SOL    HW2 2421   2.488   0.993   0.370  0.3664 -1.1902  2.2362
  808SOL     OW 2422   0.626   2.031   2.875  0.6167 -0.0849 -0.1535
  808SOL    HW1 2423   0.588   2.061   2.970  0.8208 -0.0599  0.7940
  808SOL    HW2 2424   0.672   1.937   2.870  2.4723  1.5646 -0.7493
  809SOL     OW 2425   2.554   1.982   1.903  0.1708 -0.1598 -0.1375
  809SOL    HW1 2426   2.648   2.024   1.925  2.0126 -0.4300  2.7450
  809SOL    HW2 2427   2.535   1.997   1.797  0.7397 -1.1632 -2.8561
  810SOL     OW 2428   2.174   1.086   0.545  0.2888  0.4949  0.2722
  810SOL    HW1 2429   2.205   1.036   0.633  3.1428 -0.7949 -2.4274
  810SOL    HW2 2430   2.125   1.174   0.572  0.5413  1.3985  1.2813
  811SOL     OW 2431   1.273   2.593   1.196 -0.1643  0.3949  0.3669
  811SOL    HW1 2432   1.270   2.487   1.198 -0.2126  0.4502 -0.4215
  811SOL    HW2 2433   1.287   2.644   1.288 -1.1074 -1.0560  2.0027
  812SOL     OW 2434   1.424   0.781   1.966  0.4232 -0.4815  0.1739
  812SOL    HW1 2435   1.388   0.739   1.880  0.2030 -2.3931  1.3334
  812SOL    HW2 2436   1.420   0.886   1.956  0.1051  2.7652  3.1336
  813SOL     OW 2437   1.589   2.067   2.426  1.2423  0.1173 -0.3607
  813SOL    HW1 2438   1.669   2.013   2.467 -1.2740 -1.7090  1.2613
  813SOL    HW2 2439   1.568   2.033   2.329 -1.4029 -0.9205 -0.5161
  814SOL     OW 2440   2.983   1.698   2.891  0.4133  0.1866 -0.4291
  814SOL    HW1 2441   3.063   1.672   2.948 -0.8443  1.0994 -2.3323
  814SOL    HW2 2442   2.980   1.798   2.875 -0.8510  1.4355 -2.0562
  815SOL     OW 2443   2.174   2.904   2.771  0.4747 -0.1064 -0.2691
  815SOL    HW1 2444   2.124   2.816   2.802 -1.6157 -0.9343 -0.0212
  815SOL    HW2 2445   2.250   2.929   2.836 -2.1248  1.5584  2.2572
  816SOL     OW 2446   1.523   0.370   1.653  0.0421  0.2254 -0.4104
  816SOL    HW1 2447   1.592   0.301   1.697  0.7587 -1.8992 -0.6737
  816SOL    HW2 2448   1.451   0.395   1.727 -1.6866 -1.7682 -1.9376
  817SOL     OW 2449   0.385   1.232   2.654  0.0253  0.5010  0.0349
  817SOL    HW1 2450   0.285   1.217   2.650  1.5248 -0.4346 -2.5498
  817SOL    HW2 2451   0.412   1.322   2.618 -4.2245 -2.2076 -0.1307
  818SOL     OW 2452   2.012   0.820   0.464  0.3498  0.4723  0.1662
  818SOL    HW1 2453   2.119   0.819   0.451  1.2675 -3.2862  0.3310
  818SOL    HW2 2454   1.980   0.822   0.561 -1.9745 -0.2378 -1.4936
  819SOL     OW 2455   2.757   2.895   3.096 -0.2407 -0.3005 -0.1167
  819SOL    HW1 2456   2.727   2.819   3.166  2.4441 -0.1847  2.1707
  819SOL    HW2 2457   2.733   2.872   2.996 -0.0115 -2.9447 -2.1309
  820SOL     OW 2458   1.276   1.053   0.551  0.3077 -0.0549  0.2621
  820SOL    HW1 2459   1.261   1.149   0.585  1.3863 -1.2577  3.6946
  820SOL    HW2 2460   1.257   0.989   0.627 -1.6320  1.5265 -2.7060
  821SOL     OW 2461   0.085   1.183   0.720  0.3706  0.0439 -0.4834
  821SOL    HW1 2462   0.031   1.182   0.805  1.3734 -1.7202 -1.3448
  821SOL    HW2 2463   0.136   1.278   0.713  1.8481  1.6267 -2.1724
  822SOL     OW 2464   2.524   1.766   2.427  0.2588 -0.5586 -0.0064
  822SOL    HW1 2465   2.526   1.830   2.512  0.7031  0.0601  1.7347
  822SOL    HW2 2466   2.449   1.794   2.358 -0.3179  1.8238 -0.4522
  823SOL     OW 2467   2.015   0.954   1.204  0.2898 -0.1508  0.4523
  823SOL    HW1 2468   2.001   0.888   1.284 -1.9432 -1.7737 -0.6357
  823SOL    HW2 2469   1.933   0.966   1.149 -0.9401  0.7170  1.7775
  824SOL     OW 2470   0.201   1.906   2.780 -0.5804 -0.1129  0.0885
  824SOL    HW1 2471   0.242   1.866   2.868 -0.6095  1.1283 -1.4409
  824SOL    HW2 2472   0.263   1.908   2.692 -1.3817 -1.6235  2.5919
  825SOL     OW 2473   1.322   1.075   0.260 -0.2891  0.3708 -0.1431
  825SOL    HW1 2474   1.352   1.168   0.233  0.0128 -0.9545  0.0821
  825SOL    HW2 2475   1.293   1.063   0.360  0.3760 -1.4568  0.1744
  826SOL     OW 2476   1.929   0.599   1.578 -0.1104 -0.1056  0.0048
  826SOL    HW1 2477   2.007   0.561   1.634  0.5021  1.1465  0.3053
  826SOL    HW2 2478   1.866   0.522   1.548  2.3908 -0.1587 -2.8336
  827SOL     OW 2479   0.730   1.160   0.396  0.0756 -0.2313  0.6255
  827SOL    HW1 2480   0.776   1.095   0.330 -0.8416 -0.6552  3.3332
  827SOL    HW2 2481   0.646   1.115   0.440 -1.0853  0.0783 -1.5162
  828SOL     OW 2482   2.638   0.129   1.550 -0.1928  0.0468  0.7603
  828SOL    HW1 2483   2.539   0.096   1.537 -1.2947 -1.6882  0.3610
  828SOL    HW2 2484   2.667   0.130   1.647 -0.4964 -0.9068 -1.7375
  829SOL     OW 2485   2.915   2.427   2.928 -0.5398 -0.3678  0.5981
  829SOL    HW1 2486   2.813   2.411   2.936  0.9656 -1.0058  0.7618
  829SOL    HW2 2487   2.936   2.532   2.911  0.2442 -0.0641  0.4846
  830SOL     OW 2488   2.877   0.912   3.046  0.5922 -0.4360 -0.0424
  830SOL    HW1 2489   2.944   0.990   3.054 -1.9275  0.9340 -2.6264
  830SOL    HW2 2490   2.914   0.824   3.077  0.8819  2.4472 -1.6309
  831SOL     OW 2491   0.079   0.562   0.416  0.8887  0.5289 -0.5587
  831SOL    HW1 2492   0.078   0.505   0.503  2.3698  1.1443 -0.7630
  831SOL    HW2 2493   0.103   0.509   0.327  0.7110  1.6202 -2.3420
  832SOL     OW 2494   1.784   0.767   3.022  0.4002 -0.2344 -0.0911
  832SOL    HW1 2495   1.694   0.785   2.970 -3.1828  1.3390  0.4615
  832SOL    HW2 2496   1.790   0.667   3.045 -1.7341 -1.6044 -0.0654
  833SOL     OW 2497   2.391   2.086   0.484 -0.2436 -0.3292  0.2884
  833SOL    HW1 2498   2.295   2.053   0.512 -1.2982  0.8174  2.7105
  833SOL    HW2 2499   2.463   2.017   0.490 -0.7634  0.1498 -0.3769
  834SOL     OW 2500   0.185   0.115   0.585 -0.6558  0.1911 -0.0491
  834SOL    HW1 2501   0.228   0.025   0.615 -3.5158  0.2780  1.9721
  834SOL    HW2 2502   0.210   0.138   0.490  1.6321 -1.7325  0.7739
  835SOL     OW 2503   2.419   1.551   1.091  0.2404  1.1206 -0.0561
  835SOL    HW1 2504   2.513   1.573   1.125 -0.3711  1.7439  2.1525
  835SOL    HW2 2505   2.432   1.484   1.007  0.0556 -0.3072 -1.0093
  836SOL     OW 2506   1.590   0.819   2.593 -0.4144 -0.3854 -0.3924
  836SOL    HW1 2507   1.487   0.812   2.581 -1.1162  0.1748 -1.2929
  836SOL    HW2 2508   1.644   0.831   2.502  1.1809  2.8575 -3.5393
  837SOL     OW 2509   1.709   0.111   0.574  0.3891 -0.3362 -0.0672
  837SOL    HW1 2510   1.650   0.185   0.614 -0.1935  2.2190  0.6442
  837SOL    HW2 2511   1.682   0.097   0.475  0.4841 -0.0642  0.1911
  838SOL     OW 2512   1.206   1.407   2.710 -0.1671  0.6454  0.1226
  838SOL    HW1 2513   1.195   1.434   2.808  0.3356 -0.8993  1.0611
  838SOL    HW2 2514   1.138   1.334   2.674  1.8427 -2.0044 -0.8116
  839SOL     OW 2515   1.574   0.347   0.966  0.0207 -0.1804 -0.1558
  839SOL    HW1 2516   1.533   0.413   1.034  0.5810  1.4246  1.6742
  839SOL    HW2 2517   1.554   0.252   0.992  3.0406 -0.7910 -1.7295
  840SOL     OW 2518   2.591   2.946   1.691  0.3598 -0.1390 -0.6227
  840SOL    HW1 2519   2.513   2.943   1.623  1.9919  1.2385 -1.4481
  840SOL    HW2 2520   2.570   2.888   1.777  0.6537  1.9151  1.4458
  841SOL     OW 2521   1.536   0.803   2.938 -0.6584 -0.2905 -0.0148
  841SOL    HW1 2522   1.503   0.802   3.032  3.0189 -0.5936 -1.3007
  841SOL    HW2 2523   1.523   0.886   2.883 -1.6337 -0.1707 -0.4156
  842SOL     OW 2524   0.847   1.565   1.017  0.4154  0.3905  0.4129
  842SOL    HW1 2525   0.813   1.665   1.021 -1.6902  0.7253 -0.6733
  842SOL    HW2 2526   0.796   1.510   0.947  0.5214  1.7681  3.6191
  843SOL     OW 2527   0.140   0.146   1.447  0.5613 -0.6285  0.2145
  843SOL    HW1 2528   0.238   0.177   1.472  1.0034  2.6366 -0.6963
  843SOL    HW2 2529   0.142   0.043   1.417 -0.6439  0.3018 -0.1426
  844SOL     OW 2530   0.719   2.544   0.196 -0.2897 -0.0654  0.0141
  844SOL    HW1 2531   0.685   2.547   0.295 -1.4072 -0.5651 -0.9125
  844SOL    HW2 2532   0.636   2.530   0.132 -1.1820  3.4903  0.9109
  845SOL     OW 2533   1.708   2.951   1.293  0.7819  0.8763 -0.1962
  845SOL    HW1 2534   1.672   3.005   1.376 -0.4920  0.9231  1.3687
  845SOL    HW2 2535   1.632   2.915   1.234  0.8514  2.8519 -0.0305
  846SOL     OW 2536   1.706   2.987   0.890 -0.6711  0.4900  0.1110
  846SOL    HW1 2537   1.743   3.043   0.810  2.1357  0.3412  0.3477
  846SOL    HW2 2538   1.753   2.892   0.897  1.6938 -1.0520  0.5078
  847SOL     OW 2539   2.066   1.604   0.187  0.0675 -0.3110 -0.2031
  847SOL    HW1 2540   2.029   1.603   0.289 -1.6029  0.9384  2.6477
  847SOL    HW2 2541   1.995   1.589   0.114  1.4862 -2.1037  0.8322
  848SOL     OW 2542   2.469   0.842   2.651  0.0208  0.7053 -0.7813
  848SOL    HW1 2543   2.475   0.949   2.664 -0.8738  0.3386 -0.8417
  848SOL    HW2 2544   2.401   0.809   2.577 -3.6041  1.1157 -0.0603
  849SOL     OW 2545   2.414   0.848   2.252 -0.3457 -0.6810 -0.1276
  849SOL    HW1 2546   2.449   0.798   2.170 -0.5875  3.6896  0.7625
  849SOL    HW2 2547   2.376   0.782   2.325 -0.2688 -3.5759 -0.8036
  850SOL     OW 2548   1.550   0.151   1.257 -0.0433  0.7773 -0.0409
  850SOL    HW1 2549   1.526   0.113   1.162  0.0367 -0.2423  0.6246
  850SOL    HW2 2550   1.522   0.097   1.340  1.5730  0.1442 -1.4885
  851SOL     OW 2551   0.496   1.776   0.683  0.3402  0.1606 -0.0478
  851SOL    HW1 2552   0.484   1.874   0.709  1.1556 -0.8156 -0.8906
  851SOL    HW2 2553   0.596   1.752   0.675 -0.6466 -3.2178 -0.8277
  852SOL     OW 2554   0.798   2.139   1.691  0.2877  0.0276  0.2068
  852SOL    HW1 2555   0.815   2.241   1.658  3.2848 -0.1557  0.8948
  852SOL    HW2 2556   0.738   2.132   1.774  0.1554 -2.1543  2.8369
  853SOL     OW 2557   2.525   1.516   2.583  0.6144  0.3003 -0.0185
  853SOL    HW1 2558   2.491   1.418   2.557 -0.8497 -3.6775  1.2226
  853SOL    HW2 2559   2.493   1.587   2.515  0.4091  0.5490  1.0632
  854SOL     OW 2560   2.378   1.440   1.758  0.5959  0.4044  0.0180
  854SOL    HW1 2561   2.421   1.411   1.669  0.9169 -0.4115 -1.7284
  854SOL    HW2 2562   2.310   1.367   1.785  1.0969 -0.4710  2.4677
  855SOL     OW 2563   2.054   2.306   0.981 -0.3722 -0.8012  0.4575
  855SOL    HW1 2564   2.088   2.401   0.953  1.6770  1.0176  0.1259
  855SOL    HW2 2565   2.091   2.273   1.071  1.2688  2.4574  1.3276
  856SOL     OW 2566   1.414   1.335   0.887  0.1670 -0.4336  0.1290
  856SOL    HW1 2567   1.370   1.424   0.900  1.1884  0.9912 -0.5398
  856SOL    HW2 2568   1.445   1.297   0.975  0.9349 -0.1048 -3.0034
  857SOL     OW 2569   2.933   2.571   1.042 -0.6472 -0.5342 -0.4834
  857SOL    HW1 2570   2.886   2.480   1.031 -0.4898 -2.8794  2.1777
  857SOL    HW2 2571   2.989   2.592   0.960 -1.7990 -0.8044  0.2391
  858SOL     OW 2572   2.270   2.121   1.748 -0.0713 -0.4663  0.4680
  858SOL    HW1 2573   2.195   2.157   1.687 -0.1310  1.6845 -0.8932
  858SOL    HW2 2574   2.335   2.068   1.690 -2.3322  0.4808 -2.5342
  859SOL     OW 2575   2.428   0.487   1.000 -0.3861 -0.2761 -0.2350
  859SOL    HW1 2576   2.487   0.529   0.924 -1.2985 -0.0835  1.2556
  859SOL    HW2 2577   2.449   0.396   1.034 -0.4477 -2.9494 -2.8039
  860SOL     OW 2578   1.966   2.776   0.501 -0.2634  0.0526  0.0918
  860SOL    HW1 2579   1.956   2.725   0.410 -0.4781  2.5412 -3.9920
  860SOL    HW2 2580   2.001   2.876   0.487  1.7765  3.2596  1.5614
  861SOL     OW 2581   1.071   2.574   2.768 -0.2445  0.1743  0.2173
  861SOL    HW1 2582   1.106   2.672   2.757  1.0344  1.2730 -2.6918
  861SOL    HW2 2583   1.125   2.532   2.848 -2.1782  0.4303  1.6713
  862SOL     OW 2584   2.952   2.562   1.555  0.2299  0.1823  0.5143
  862SOL    HW1 2585   2.986   2.578   1.655 -0.2670  0.9971  0.2679
  862SOL    HW2 2586   2.876   2.631   1.525  0.5561  0.4046 -3.6891
  863SOL     OW 2587   1.879   2.621   0.245  0.0960  0.1955  0.2168
  863SOL    HW1 2588   1.955   2.546   0.228  1.3614 -0.6649  0.3092
  863SOL    HW2 2589   1.784   2.577   0.250 -0.5508 -2.3992  0.9173
  864SOL     OW 2590   1.874   1.149   2.924 -0.0378 -0.3627 -0.3777
  864SOL    HW1 2591   1.910   1.107   2.841  0.1808 -1.2840 -1.1375
  864SOL    HW2 2592   1.945   1.158   2.998 -2.2518 -2.5744  0.8473
  865SOL     OW 2593   2.135   1.740   0.681  0.3963 -0.2850 -0.0655
  865SOL    HW1 2594   2.186   1.752   0.768 -2.7460  0.1409 -1.1816
  865SOL    HW2 2595   2.053   1.685   0.693  0.4130  1.3702 -0.8102
  866SOL     OW 2596   2.909   2.847   1.014 -0.4383  0.4545 -0.3461
  866SOL    HW1 2597   2.956   2.885   0.933  0.5749 -0.1005  1.7977
  866SOL    HW2 2598   2.893   2.741   1.010  2.6116 -0.6151  1.3863
  867SOL     OW 2599   0.435   1.298   0.849  0.0254 -0.0335  0.0026
  867SOL    HW1 2600   0.439   1.201   0.815  0.0458  0.7653 -0.7830
  867SOL    HW2 2601   0.355   1.349   0.798  0.7967  0.6756 -3.1879
  868SOL     OW 2602   0.844   1.939   1.982 -0.0275  0.6413 -0.3365
  868SOL    HW1 2603   0.841   1.925   2.082 -1.2721 -1.4247  1.5425
  868SOL    HW2 2604   0.763   1.997   1.956  0.7709 -1.2834  1.2578
  869SOL     OW 2605   2.510   2.034   1.604  0.4810  0.1690  0.1706
  869SOL    HW1 2606   2.586   2.074   1.546 -0.5005  0.4399 -1.0406
  869SOL    HW2 2607   2.472   1.947   1.555  0.3652 -1.1152 -1.1976
  870SOL     OW 2608   2.361   2.535   1.192  0.3819 -0.7822 -0.1758
  870SOL    HW1 2609   2.294   2.461   1.195  3.1506 -1.8993 -0.2983
  870SOL    HW2 2610   2.444   2.522   1.256  1.2781  2.7762 -0.1122
  871SOL     OW 2611   2.997   2.023   0.554  0.0463 -0.1629 -0.0509
  871SOL    HW1 2612   2.913   2.073   0.581 -0.7252 -1.9439 -1.9133
  871SOL    HW2 2613   2.974   1.941   0.488 -0.7577 -2.5520 -0.5741
  872SOL     OW 2614   2.173   0.502   1.693  0.1258  0.0176  0.2512
  872SOL    HW1 2615   2.130   0.538   1.778  2.3240  0.5844 -0.6756
  872SOL    HW2 2616   2.257   0.446   1.707 -0.1791  2.2052 -1.7653
  873SOL     OW 2617   1.730   2.110   2.949 -0.0007 -0.4988 -0.3114
  873SOL    HW1 2618   1.697   2.206   2.984 -0.1695  1.4612  0.1346
  873SOL    HW2 2619   1.655   2.071   2.884 -2.7157 -1.3410 -0.6498
  874SOL     OW 2620   0.705   2.497   0.763  0.1477  0.5239 -0.5066
  874SOL    HW1 2621   0.699   2.586   0.812  3.7472 -0.9206  1.2337
  874SOL    HW2 2622   0.807   2.472   0.748 -0.2883  0.9980  1.6189
  875SOL     OW 2623   2.339   1.507   1.487  0.2689 -0.0987 -0.1677
  875SOL    HW1 2624   2.421   1.567   1.524 -1.0332  2.4881 -0.7451
  875SOL    HW2 2625   2.310   1.512   1.390 -0.4146 -1.0990  1.7205
  876SOL     OW 2626   0.138   2.205   2.701 -0.2690 -0.8232 -0.0316
  876SOL    HW1 2627   0.193   2.132   2.755  2.8429  1.1336  0.7039
  876SOL    HW2 2628   0.151   2.301   2.741 -4.1482  2.9651 -1.1824
  877SOL     OW 2629   2.761   2.678   0.609 -0.2740  0.1768 -0.3217
  877SOL    HW1 2630   2.819   2.746   0.557  0.3034 -3.7474 -1.3905
  877SOL    HW2 2631   2.819   2.606   0.660  2.3474  1.1709  3.1408
  878SOL     OW 2632   2.828   1.542   2.206 -0.5921  0.7667  0.3288
  878SOL    HW1 2633   2.927   1.568   2.198 -3.1669 -0.1702 -1.7402
  878SOL    HW2 2634   2.799   1.527   2.303  0.6327 -1.4537 -1.7511
  879SOL     OW 2635   2.380   0.007   1.215 -0.1453 -0.1276 -0.1107
  879SOL    HW1 2636   2.441  -0.078   1.218  2.9932  0.9652  1.1077
  879SOL    HW2 2637   2.300  -0.000   1.148 -1.4297  0.1576  0.0020
  880SOL     OW 2638   0.666   0.424   2.165 -0.1420 -0.3568  0.4802
  880SOL    HW1 2639   0.576   0.382   2.205  1.0271 -2.4891 -1.0895
  880SOL    HW2 2640   0.737   0.353   2.125 -1.6470 -1.5186  1.1645
  881SOL     OW 2641   0.906   0.041   0.387 -0.1415  0.4053 -0.5033
  881SOL    HW1 2642   0.949  -0.046   0.421 -1.6837 -1.6885 -0.7619
  881SOL    HW2 2643   0.863   0.028   0.291  0.9911 -1.2819  0.8118
  882SOL     OW 2644   2.751   1.636   1.670  0.0011 -0.0035  0.1618
  882SOL    HW1 2645   2.846   1.613   1.650  0.3289  0.5475 -2.4142
  882SOL    HW2 2646   2.748   1.699   1.756  0.6855  0.0063  0.6013
  883SOL     OW 2647   0.949   0.594   0.936  0.0710  0.3055  0.0101
  883SOL    HW1 2648   0.949   0.686   0.986 -3.2328  2.0227  1.9841
  883SOL    HW2 2649   1.032   0.536   0.945 -1.7010 -0.3161 -1.8686
  884SOL     OW 2650   1.205   1.914   1.006  0.8126 -0.2940  0.5402
  884SOL    HW1 2651   1.160   1.877   0.915 -1.1406  1.1012 -1.4227
  884SOL    HW2 2652   1.143   1.981   1.059  0.4492 -0.1347  0.3989
  885SOL     OW 2653   2.245   1.826   2.307  0.1483 -0.6967 -0.3350
  885SOL    HW1 2654   2.171   1.768   2.352  2.3838  2.4270  0.9810
  885SOL    HW2 2655   2.249   1.918   2.351 -1.1813 -1.8510 -1.3852
  886SOL     OW 2656   2.648   0.458   1.773  0.3722  0.0658  0.2877
  886SOL    HW1 2657   2.688   0.413   1.857 -1.0338 -1.1450 -0.2543
  886SOL    HW2 2658   2.714   0.540   1.741  1.1697  0.0078 -2.5361
  887SOL     OW 2659   0.106   2.060   1.286  0.4117  0.1333  0.4103
  887SOL    HW1 2660   0.050   2.013   1.214  0.9725 -0.8716  2.6792
  887SOL    HW2 2661   0.163   2.139   1.246  2.1319  0.2249 -2.6033
  888SOL     OW 2662   0.572   1.301   1.496  0.1171  0.1340 -0.0947
  888SOL    HW1 2663   0.627   1.305   1.407  0.6085  1.8830 -1.9702
  888SOL    HW2 2664   0.556   1.201   1.526  1.4812  1.7658  2.5519
  889SOL     OW 2665   0.845   2.543   2.143  0.2322 -0.0020  0.4398
  889SOL    HW1 2666   0.751   2.539   2.100  3.0102  0.4923 -2.2433
  889SOL    HW2 2667   0.914   2.515   2.073  0.0884  0.6383 -1.7295
  890SOL     OW 2668   2.325   2.451   0.177 -0.3806 -0.2743 -0.3171
  890SOL    HW1 2669   2.316   2.522   0.106  1.8831 -0.9419 -0.5037
  890SOL    HW2 2670   2.232   2.425   0.221 -0.4394  1.8564  3.5949
  891SOL     OW 2671   2.626   1.510   0.637 -0.4237  0.2156 -0.3150
  891SOL    HW1 2672   2.580   1.455   0.711 -2.9628  3.3435 -2.6510
  891SOL    HW2 2673   2.564   1.587   0.605  2.3887 -0.0422  0.2368
  892SOL     OW 2674   0.240   0.306   2.228 -0.3903 -0.2020 -0.3458
  892SOL    HW1 2675   0.241   0.315   2.126 -0.7154 -0.3373  1.9652
  892SOL    HW2 2676   0.329   0.324   2.282  0.9814 -0.9031  0.0015
  893SOL     OW 2677   1.662   0.240   2.729 -0.7113  0.0449  0.1753
  893SOL    HW1 2678   1.704   0.311   2.791  0.1288 -0.5433 -0.9829
  893SOL    HW2 2679   1.568   0.274   2.701  0.2310  0.6739  1.2676
  894SOL     OW 2680   2.167   1.985   0.033 -0.9086 -0.4681 -0.0050
  894SOL    HW1 2681   2.146   1.936  -0.055 -1.4720  1.5607  1.6491
  894SOL    HW2 2682   2.202   1.924   0.110  0.4149 -1.2387  2.3026
  895SOL     OW 2683   2.918   1.425   0.812  0.1509 -0.6455  0.4970
  895SOL    HW1 2684   2.976   1.356   0.865  1.5246 -0.4306 -1.1754
  895SOL    HW2 2685   2.975   1.504   0.782 -1.8913 -0.6508 -0.4225
  896SOL     OW 2686   1.754   1.769   1.176  0.0553  0.0808  0.1282
  896SOL    HW1 2687   1.791   1.842   1.116 -0.0313 -0.6701 -0.0135
  896SOL    HW2 2688   1.652   1.751   1.157  0.7903 -1.0632  1.8301
  897SOL     OW 2689   0.300   0.542   3.098  0.7898  0.1383  0.1022
  897SOL    HW1 2690   0.265   0.598   3.015 -2.0921 -1.7408  1.7898
  897SOL    HW2 2691   0.390   0.588   3.131 -0.6117  0.9658 -1.2176
  898SOL     OW 2692   0.551   2.857   1.141 -0.1584 -0.4451  0.2439
  898SOL    HW1 2693   0.479   2.930   1.153 -0.3599 -0.8050 -2.3122
  898SOL    HW2 2694   0.639   2.872   1.193 -1.1518 -0.0586  0.4310
  899SOL     OW 2695   2.672   0.922   1.249  0.1928 -0.4238  0.1982
  899SOL    HW1 2696   2.592   0.900   1.191  1.0707  1.7059  0.7149
  899SOL    HW2 2697   2.752   0.942   1.186  1.3102  2.3940  2.5963
  900SOL     OW 2698   1.005   2.417   2.350 -0.6964 -0.3114  0.1099
  900SOL    HW1 2699   0.927   2.444   2.281 -1.5603  0.5586 -1.1055
  900SOL    HW2 2700   0.973   2.403   2.451  0.3720  1.8679 -1.6022
  901SOL     OW 2701   1.905   2.434   1.373  0.0603  0.2516  0.1747
  901SOL    HW1 2702   1.898   2.429   1.269  2.4459  1.3951  3.2575
  901SOL    HW2 2703   2.005   2.436   1.410 -0.0157 -0.5674 -1.4989
  902SOL     OW 2704   2.585   1.634   1.466  0.3155 -0.0293 -0.1850
  902SOL    HW1 2705   2.655   1.639   1.548  1.5480  0.3871  0.3237
  902SOL    HW2 2706   2.617   1.586   1.382 -0.0389  0.0442 -0.6177
  903SOL     OW 2707   0.270   2.365   1.986 -0.4774 -0.7572 -0.2956
  903SOL    HW1 2708   0.169   2.331   1.983 -2.3429 -1.4243  0.0530
  903SOL    HW2 2709   0.294   2.424   1.907  2.6879 -1.0590 -0.3637
  904SOL     OW 2710   1.969   0.835   2.561  0.1601 -0.1819  0.7152
  904SOL    HW1 2711   1.964   0.735   2.580 -1.4309  1.2759  0.0438
  904SOL    HW2 2712   1.938   0.851   2.462 -1.3843  1.7982 -0.4114
  905SOL     OW 2713   2.740   0.003   2.625 -0.1878 -0.1265  0.5517
  905SOL    HW1 2714   2.807  -0.070   2.636 -1.1262 -0.1833 -1.4394
  905SOL    HW2 2715   2.771   0.084   2.565 -1.1150 -0.5002  0.2305
  906SOL     OW 2716   0.148   1.766   1.902 -0.4614 -0.1157  1.0773
  906SOL    HW1 2717   0.100   1.799   1.814  0.3289  2.5595  1.6562
  906SOL    HW2 2718   0.247   1.799   1.912  1.0513 -1.2488 -0.0666
  907SOL     OW 2719   0.160   2.469   1.001  0.1168 -0.4226  0.6959
  907SOL    HW1 2720   0.229   2.544   1.013 -1.9805  1.9437  1.6140
  907SOL    HW2 2721   0.152   2.440   0.902 -1.0665 -0.3208 -0.0498
  908SOL     OW 2722   2.640   2.924   0.438  0.2223 -0.5988  0.1436
  908SOL    HW1 2723   2.592   2.945   0.354  1.9501 -1.1311  3.0634
  908SOL    HW2 2724   2.617   2.829   0.470 -0.2605  0.6720 -0.7334
  909SOL     OW 2725   0.819   0.897   2.657 -0.1191  0.1201 -0.1787
  909SOL    HW1 2726   0.770   0.824   2.597 -0.4888 -0.6503  0.0151
  909SOL    HW2 2727   0.888   0.948   2.594 -2.2203 -0.2445  0.2941
  910SOL     OW 2728   1.741   1.793   2.017 -0.5090 -0.5332  0.2115
  910SOL    HW1 2729   1.785   1.852   1.941 -0.0702 -0.1061  0.3822
  910SOL    HW2 2730   1.677   1.853   2.073  1.6466  0.8777  0.6521
  911SOL     OW 2731   1.761   3.026   1.609  0.0605 -0.0101 -0.4425
  911SOL    HW1 2732   1.847   2.994   1.556  0.5725 -4.1906 -1.8174
  911SOL    HW2 2733   1.740   2.960   1.687  2.4062 -2.2856  1.4574
  912SOL     OW 2734   2.830   0.968   0.767 -0.0133  0.5266  0.2062
  912SOL    HW1 2735   2.813   0.960   0.868 -3.8434  1.3072 -0.0460
  912SOL    HW2 2736   2.817   1.066   0.732  0.5871  0.2086  0.5283
  913SOL     OW 2737   2.530   1.286   1.551  0.0740 -0.2709  0.3772
  913SOL    HW1 2738   2.550   1.182   1.541  1.0035  0.8803  1.0664
  913SOL    HW2 2739   2.587   1.339   1.489 -0.8630  1.7164 -0.6143
  914SOL     OW 2740   2.837   0.528   1.230  0.0897  0.4097 -0.3440
  914SOL    HW1 2741   2.796   0.429   1.223 -1.1328 -1.2579  2.8612
  914SOL    HW2 2742   2.804   0.581   1.315 -1.3649 -0.0526  1.4556
  915SOL     OW 2743   1.235   0.794   1.000  0.6390 -0.2186  0.1404
  915SOL    HW1 2744   1.299   0.750   1.066  2.0711  1.1481  1.3146
  915SOL    HW2 2745   1.144   0.818   1.047 -0.2896 -1.5489  0.3302
  916SOL     OW 2746   0.552   0.048   0.637 -0.2672  0.4275 -0.2228
  916SOL    HW1 2747   0.576   0.133   0.691 -0.6722  1.2474 -1.0333
  916SOL    HW2 2748   0.559   0.067   0.536 -0.9089  3.5224 -1.2872
  917SOL     OW 2749   2.741   2.623   1.944  0.1982  0.1342 -0.0725
  917SOL    HW1 2750   2.645   2.664   1.923 -2.7649 -1.8868  0.1431
  917SOL    HW2 2751   2.817   2.690   1.935  0.0532 -3.6745 -1.9666
  918SOL     OW 2752   0.966   2.181   3.015  0.0232  0.2660 -0.3047
  918SOL    HW1 2753   0.932   2.212   3.112 -1.3737  0.5739  1.0275
  918SOL    HW2 2754   0.991   2.080   3.016  0.0100 -0.6433 -1.4255
  919SOL     OW 2755   0.946   1.608   2.815 -0.2516  0.0993  0.0552
  919SOL    HW1 2756   0.999   1.677   2.759  1.9962 -2.3168  4.0455
  919SOL    HW2 2757   0.885   1.546   2.760  0.0937  2.6830  0.8522
  920SOL     OW 2758   1.257   2.062   2.509 -0.3514 -0.3442  0.4221
  920SOL    HW1 2759   1.208   2.077   2.417 -0.8896  1.0998 -0.4419
  920SOL    HW2 2760   1.297   1.965   2.504  2.6624 -1.9861  2.4576
  921SOL     OW 2761   1.061   0.109   2.566 -0.2828  0.8656  0.0785
  921SOL    HW1 2762   1.060   0.134   2.468 -3.7849  1.3574 -0.9718
  921SOL    HW2 2763   0.974   0.067   2.603  1.0126  3.5751 -0.5183
  922SOL     OW 2764   2.204   2.381   2.769 -0.6237  0.4388 -0.3194
  922SOL    HW1 2765   2.175   2.280   2.756  0.3127 -0.5934  2.7195
  922SOL    HW2 2766   2.150   2.444   2.704  1.4097  0.9831 -1.0829
  923SOL     OW 2767   1.216   2.655   0.303 -0.6667 -0.2458  0.2191
  923SOL    HW1 2768   1.294   2.702   0.355  0.4007  1.0892 -1.4894
  923SOL    HW2 2769   1.244   2.566   0.260 -2.1902 -1.0375 -2.4188
  924SOL     OW 2770   2.892   1.587   0.091  0.4235  0.2264 -0.3755
  924SOL    HW1 2771   2.809   1.579   0.025  0.7263 -2.6749  0.1915
  924SOL    HW2 2772   2.984   1.567   0.043 -0.3809 -0.0974  2.4781
  925SOL     OW 2773   0.023   2.827   1.662 -0.0801 -0.0699  0.9286
  925SOL    HW1 2774  -0.052   2.897   1.668  0.4362  1.2608 -0.2650
  925SOL    HW2 2775   0.055   2.816   1.565 -1.2351 -1.3052  1.2572
  926SOL     OW 2776   1.376   2.926   1.318  0.5886 -0.0451 -0.2210
  926SOL    HW1 2777   1.426   2.935   1.225 -0.1656  3.0898  0.5529
  926SOL    HW2 2778   1.399   3.011   1.374 -1.3544 -0.7111  0.0875
  927SOL     OW 2779   0.275   2.541   1.789 -0.1228 -0.4322 -0.1583
  927SOL    HW1 2780   0.248   2.515   1.691  0.8325  4.7541  0.3801
  927SOL    HW2 2781   0.285   2.644   1.804  3.1628  0.2627  2.0506
  928SOL     OW 2782   1.580   1.971   2.140  0.3608 -0.4222 -0.2152
  928SOL    HW1 2783   1.597   2.069   2.119 -3.8932 -3.0642  1.0383
  928SOL    HW2 2784   1.479   1.954   2.137  1.4668  0.4933  0.5588
  929SOL     OW 2785   2.458   2.458   2.848 -0.0613  0.0079 -0.5722
  929SOL    HW1 2786   2.367   2.404   2.838  0.0661 -2.9493  0.5862
  929SOL    HW2 2787   2.493   2.498   2.753  3.3219  0.1305  1.3952
  930SOL     OW 2788   2.207   1.979   1.076  0.1440  0.0979  0.2978
  930SOL    HW1 2789   2.200   1.965   1.175  0.4541 -1.8752 -2.0345
  930SOL    HW2 2790   2.280   2.045   1.061  0.1072 -3.7083  0.0760
  931SOL     OW 2791   0.545   1.721   2.615  0.0843  0.1375 -0.5424
  931SOL    HW1 2792   0.630   1.744   2.671 -2.0990  0.4736  1.8404
  931SOL    HW2 2793   0.524   1.623   2.586  1.4328 -0.9763  1.7334
  932SOL     OW 2794   0.483   0.110   2.935  0.2662 -0.2744  0.2398
  932SOL    HW1 2795   0.574   0.136   2.884  0.0703  2.1965 -2.0653
  932SOL    HW2 2796   0.473   0.015   2.969  0.8995  0.2591 -1.0098
  933SOL     OW 2797   1.036   0.806   2.983 -0.3590 -0.0889  0.0056
  933SOL    HW1 2798   1.100   0.815   3.067  2.7588  2.7958  0.0913
  933SOL    HW2 2799   1.006   0.903   2.949  1.7466  1.3747 -1.1689
  934SOL     OW 2800   0.850   3.033   2.720 -0.5104 -0.6201 -0.2026
  934SOL    HW1 2801   0.877   2.956   2.652  1.3535 -2.1210  2.3662
  934SOL    HW2 2802   0.876   2.997   2.812  0.1665 -0.9812 -0.5078
  935SOL     OW 2803   3.086   0.501   0.801  0.1795 -0.1158  0.2143
  935SOL    HW1 2804   3.117   0.438   0.726  1.0835  0.4387  2.8482
  935SOL    HW2 2805   2.996   0.537   0.776 -1.1110 -0.6611 -1.3521
  936SOL     OW 2806   1.080   2.918   0.172  0.0053  0.4559 -0.0044
  936SOL    HW1 2807   1.143   2.934   0.091 -0.2844  0.3020  0.8717
  936SOL    HW2 2808   1.108   2.838   0.238 -1.0208 -2.6368  1.5071
  937SOL     OW 2809   1.924   2.609   2.096 -0.1436  0.2215  0.1304
  937SOL    HW1 2810   1.834   2.635   2.142 -0.3971  1.9425  0.9375
  937SOL    HW2 2811   1.931   2.626   1.996 -2.0408  1.1106  1.8755
  938SOL     OW 2812   2.803   2.159   1.487  0.2344  0.3573 -0.1635
  938SOL    HW1 2813   2.780   2.249   1.535  0.2169 -0.9064 -2.3947
  938SOL    HW2 2814   2.871   2.104   1.542 -0.5103  1.2138 -1.4449
  939SOL     OW 2815   2.804   1.102   2.496 -0.6522 -0.3799  0.1086
  939SOL    HW1 2816   2.897   1.087   2.449  0.7114 -1.1086 -2.0686
  939SOL    HW2 2817   2.809   1.122   2.598 -1.1826 -0.0963  0.6314
  940SOL     OW 2818   1.051   0.478   2.641 -0.0234  0.8761  0.1517
  940SOL    HW1 2819   1.136   0.426   2.616  1.2719 -3.9128 -0.6223
  940SOL    HW2 2820   0.966   0.423   2.651 -0.9052 -3.5839 -0.3065
  941SOL     OW 2821   0.050   2.830   2.225  0.7466  0.5315  0.0099
  941SOL    HW1 2822   0.043   2.721   2.219  0.1369 -2.0726 -1.0270
  941SOL    HW2 2823   0.103   2.861   2.313  0.7055 -1.3687 -2.8147
  942SOL     OW 2824   0.043   0.075   2.519 -0.2145 -0.2065 -0.0760
  942SOL    HW1 2825   0.127   0.075   2.582  0.9076  0.7666 -1.3424
  942SOL    HW2 2826   0.033   0.167   2.476 -1.4151 -1.6044 -1.6980
  943SOL     OW 2827   2.086   1.604   2.424 -0.1043 -0.5706 -0.0476
  943SOL    HW1 2828   2.121   1.531   2.365 -3.0043 -2.1633  1.5894
  943SOL    HW2 2829   2.079   1.579   2.521 -0.0592 -3.8145  1.2606
  944SOL     OW 2830   2.172   2.401   1.479 -0.5315  0.5563 -0.2295
  944SOL    HW1 2831   2.259   2.448   1.511  3.3229  0.7018  2.2542
  944SOL    HW2 2832   2.145   2.319   1.540  0.9327 -1.9775 -3.2050
  945SOL     OW 2833   0.595   1.408   0.359 -0.6588  0.2322  0.3022
  945SOL    HW1 2834   0.574   1.440   0.263 -2.1167  3.8407 -0.6023
  945SOL    HW2 2835   0.654   1.322   0.359 -0.4352 -0.7267 -0.2258
  946SOL     OW 2836   0.420   0.977   2.531  0.2243  1.0157  0.6282
  946SOL    HW1 2837   0.330   0.964   2.486  0.5385  2.8290  0.3727
  946SOL    HW2 2838   0.431   1.067   2.579 -2.6169 -2.2165 -0.0441
  947SOL     OW 2839   1.472   0.531   0.106 -0.0867 -0.3525  0.3524
  947SOL    HW1 2840   1.441   0.557   0.008  0.5312 -1.6588 -0.3424
  947SOL    HW2 2841   1.398   0.494   0.161  0.7657 -1.2862  0.4657
  948SOL     OW 2842   1.967   3.082   2.213 -0.4581 -0.2239 -0.3094
  948SOL    HW1 2843   1.945   3.075   2.110 -1.5470 -0.4435 -1.1514
  948SOL    HW2 2844   1.949   2.998   2.266  0.0563  2.9721  2.3343
  949SOL     OW 2845   0.626   2.537   0.493  0.0975  0.2143 -0.0045
  949SOL    HW1 2846   0.646   2.639   0.465 -0.9293  2.0399  1.4929
  949SOL    HW2 2847   0.634   2.528   0.598 -2.0578  0.7287  0.2555
  950SOL     OW 2848   0.310   2.133   3.092 -0.0091 -0.3161 -0.0487
  950SOL    HW1 2849   0.223   2.189   3.099  0.0480 -1.2469 -3.1907
  950SOL    HW2 2850   0.295   2.046   3.043 -0.9790  0.7431 -0.7468
  951SOL     OW 2851   1.190   2.835   2.735  0.0944 -1.2664  0.5001
  951SOL    HW1 2852   1.149   2.870   2.647 -0.5814 -0.3656  1.5534
  951SOL    HW2 2853   1.240   2.908   2.785 -1.0049  0.9131  1.9195
  952SOL     OW 2854   0.098   1.630   0.475  0.3741  0.1357 -0.2449
  952SOL    HW1 2855   0.140   1.725   0.455 -0.8289  0.8423  1.1978
  952SOL    HW2 2856   0.114   1.604   0.580  3.2595  0.1178  2.2396
  953SOL     OW 2857   2.579   1.762   0.196  0.3521  0.3644  0.9772
  953SOL    HW1 2858   2.537   1.672   0.226  0.0101  1.3085  0.0408
  953SOL    HW2 2859   2.567   1.787   0.092  0.6893 -0.2989 -4.3296
  954SOL     OW 2860   2.166   0.589   0.983 -0.5894 -0.3025 -0.2457
  954SOL    HW1 2861   2.136   0.604   0.887  1.5900  0.0204  2.1183
  954SOL    HW2 2862   2.266   0.566   0.987  1.9553  0.7328 -0.0012
  955SOL     OW 2863   0.262   2.649   1.326  0.5565  0.0095 -0.8894
  955SOL    HW1 2864   0.158   2.638   1.325 -0.5298 -2.0427 -0.2424
  955SOL    HW2 2865   0.293   2.660   1.224 -1.4177  0.1979 -0.8213
  956SOL     OW 2866   2.776   2.464   2.470  0.2170 -0.2127 -0.0068
  956SOL    HW1 2867   2.786   2.358   2.471  1.0824  0.4353  0.0009
  956SOL    HW2 2868   2.794   2.504   2.381  0.7167 -2.6029  2.7455
  957SOL     OW 2869   1.550   2.054   2.698 -0.3772 -0.0407  0.1277
  957SOL    HW1 2870   1.547   1.949   2.689  0.7209 -0.5734 -2.6628
  957SOL    HW2 2871   1.570   2.098   2.604 -2.7450 -2.1979  0.7329
  958SOL     OW 2872   2.670   2.347   2.975 -0.4586  0.1059 -0.1285
  958SOL    HW1 2873   2.589   2.399   2.942  0.5004  3.0642  0.6794
  958SOL    HW2 2874   2.644   2.254   3.013  1.8584 -1.3076  1.4589
  959SOL     OW 2875   0.286   2.765   0.064  0.0075  0.2048 -0.5728
  959SOL    HW1 2876   0.189   2.747   0.094 -0.3587  2.1854 -1.5243
  959SOL    HW2 2877   0.365   2.712   0.114  1.0704  0.3322 -1.1531
  960SOL     OW 2878   1.990   0.481   1.935 -0.1643  0.3694  0.0953
  960SOL    HW1 2879   1.929   0.561   1.909  0.1601 -2.1625 -0.3513
  960SOL    HW2 2880   1.999   0.477   2.037  2.5344  2.6742  1.4576
  961SOL     OW 2881   2.576   1.843   1.047  0.0882 -0.4545  0.0490
  961SOL    HW1 2882   2.529   1.915   0.981 -0.6193  0.2828  0.6838
  961SOL    HW2 2883   2.557   1.846   1.149  1.7363 -2.1266  1.3758
  962SOL     OW 2884   1.296   0.908   0.033 -0.4175 -0.3024  0.6294
  962SOL    HW1 2885   1.313   0.948  -0.061  3.7754 -1.0752  0.1437
  962SOL    HW2 2886   1.310   0.980   0.110  0.4822  2.6829 -2.0747
  963SOL     OW 2887   2.276   2.591   1.884  0.7563  0.3004  0.3633
  963SOL    HW1 2888   2.295   2.505   1.938  0.4001  1.6142 -0.7689
  963SOL    HW2 2889   2.279   2.671   1.950  1.9045 -0.5835  1.4971
  964SOL     OW 2890   2.423   0.363   1.659 -0.1041 -0.5135  0.1699
  964SOL    HW1 2891   2.500   0.409   1.708 -3.2548 -0.3624  0.3336
  964SOL    HW2 2892   2.434   0.391   1.559  0.3108 -1.1605  1.1089
  965SOL     OW 2893   2.598   3.028   0.174  0.4382 -0.9228 -0.3191
  965SOL    HW1 2894   2.683   2.999   0.122  0.4884  1.7564 -4.3016
  965SOL    HW2 2895   2.511   3.027   0.128  5.4753 -2.2083  2.2737
  966SOL     OW 2896   2.514   2.537   2.252  0.5139  1.0375 -0.4462
  966SOL    HW1 2897   2.427   2.545   2.307  1.8844  2.7597  1.1049
  966SOL    HW2 2898   2.538   2.620   2.195 -1.5484 -1.3225 -0.0759
  967SOL     OW 2899   2.746   2.793   2.478 -0.1128  0.0002 -0.5457
  967SOL    HW1 2900   2.778   2.720   2.409  1.3473 -0.7348 -0.8573
  967SOL    HW2 2901   2.816   2.859   2.502 -0.2141 -2.3360 -0.3811
  968SOL     OW 2902   1.973   1.058   2.694  1.0232 -0.2698  0.6025
  968SOL    HW1 2903   1.943   1.138   2.628 -1.6685  1.8065 -2.3002
  968SOL    HW2 2904   1.984   0.974   2.637  2.7023 -2.3679  2.2171
  969SOL     OW 2905   2.739   2.356   1.110  0.4287 -0.6339  0.5187
  969SOL    HW1 2906   2.688   2.335   1.021 -0.1259 -1.6008  0.5389
  969SOL    HW2 2907   2.823   2.295   1.121  0.1563 -1.7262  1.1722
  970SOL     OW 2908   1.086   2.151   1.769  0.9181  0.7184  0.1186
  970SOL    HW1 2909   0.990   2.149   1.728 -0.4604  0.9381 -1.7865
  970SOL    HW2 2910   1.090   2.160   1.874 -0.6139  0.7082  1.7247
  971SOL     OW 2911   2.821   2.067   1.916  0.1995 -1.0924  0.1822
  971SOL    HW1 2912   2.807   2.163   1.952  0.8146  0.5279 -2.6729
  971SOL    HW2 2913   2.867   2.062   1.822  1.4995 -1.2618  0.1181
  972SOL     OW 2914   2.078   2.395   0.242 -0.2079 -0.3306  0.4500
  972SOL    HW1 2915   2.017   2.322   0.205  1.9661  1.9679  0.2037
  972SOL    HW2 2916   2.086   2.394   0.345 -2.1722 -0.1237 -1.0594
  973SOL     OW 2917   1.263   1.073   1.984 -1.2853  0.4310 -0.6515
  973SOL    HW1 2918   1.184   1.061   1.915 -1.2608 -1.9538  0.3050
  973SOL    HW2 2919   1.257   1.170   2.033  1.0530 -1.6301  1.2811
  974SOL     OW 2920   1.625   0.585   1.918 -0.0144 -0.4199 -0.3618
  974SOL    HW1 2921   1.714   0.630   1.927  0.4028 -2.4697  1.4520
  974SOL    HW2 2922   1.546   0.647   1.933  2.5676 -0.9070  0.7651
  975SOL     OW 2923   2.354   3.056   0.017 -0.1483  0.2944 -1.0418
  975SOL    HW1 2924   2.287   2.973   0.026 -2.3268 -0.9365  2.0354
  975SOL    HW2 2925   2.405   3.054  -0.074 -2.0206 -0.8109  0.7272
  976SOL     OW 2926   1.951   2.843   2.347  0.1318  0.1914 -0.1580
  976SOL    HW1 2927   1.883   2.782   2.303 -1.2590  1.5143  1.2800
  976SOL    HW2 2928   1.933   2.849   2.453 -0.7801  1.6142  4.7466
  977SOL     OW 2929   0.473   0.622   1.038  0.0227  0.3878  0.5152
  977SOL    HW1 2930   0.392   0.628   0.969  4.5065  1.2064  0.1344
  977SOL    HW2 2931   0.555   0.581   0.993  0.8024  0.5821  0.5369
   3.10000   3.10000   3.10000
