1000 SPC/Fw water molecules t=   1.61000 step= 1610
 2931
    1SOL     OW    1   2.453   0.389   2.655  0.0131  0.7957  0.1871
    1SOL    HW1    2   2.435   0.291   2.649 -1.3313  1.0628 -0.0930
    1SOL    HW2    3   2.530   0.400   2.727  0.8704 -2.5620  0.9125
    2SOL     OW    4   2.732   2.982   1.376  0.0597  0.0909 -0.0884
    2SOL    HW1    5   2.831   2.961   1.334 -0.3017 -1.7657 -0.3075
    2SOL    HW2    6   2.733   3.061   1.441  0.6404 -1.4833  1.0879
    3SOL     OW    7   2.687   2.503   0.372  0.2066 -0.8593  0.1396
    3SOL    HW1    8   2.598   2.448   0.367 -0.3812 -0.1370 -0.0304
    3SOL    HW2    9   2.698   2.560   0.458  1.5790  0.4064  0.3061
    4SOL     OW   10   1.288   1.564   2.447  0.7832  0.2928  0.4284
    4SOL    HW1   11   1.231   1.560   2.358 -0.4173 -0.3153 -0.5084
    4SOL    HW2   12   1.237   1.518   2.528 -0.8044  0.1026 -0.8326
    5SOL     OW   13   1.130   1.539   3.005 -0.9962  0.4523  0.2189
    5SOL    HW1   14   1.197   1.605   3.048 -0.2660 -1.0866 -0.4337
    5SOL    HW2   15   1.047   1.578   2.958 -0.0155  0.4889 -1.6072
    6SOL     OW   16   0.269   1.833   3.056 -0.3790  0.3221  1.0693
    6SOL    HW1   17   0.175   1.843   3.092  2.9713  0.8304 -4.3216
    6SOL    HW2   18   0.337   1.791   3.121 -1.1345 -1.9361  0.4982
    7SOL     OW   19   2.492   0.930   0.993  0.2975  0.2513  0.0107
    7SOL    HW1   20   2.401   0.887   1.023 -0.5675  1.3040  1.2560
    7SOL    HW2   21   2.521   0.899   0.896  0.5854  0.7852 -0.0993
    8SOL     OW   22   0.365   0.678   1.556  0.4371  0.5625 -0.2417
    8SOL    HW1   23   0.442   0.609   1.548 -0.2885  1.6385 -1.3944
    8SOL    HW2   24   0.345   0.732   1.470 -0.6342 -0.3017 -0.7728
    9SOL     OW   25   1.154   0.868   2.323 -0.0713  0.0542  0.1179
    9SOL    HW1   26   1.225   0.911   2.263 -1.0998  0.6551 -2.4602
    9SOL    HW2   27   1.136   0.771   2.311 -0.8166  0.9719  1.1036
   10SOL     OW   28   0.725   1.418   1.242 -0.0802  0.0019  0.2110
   10SOL    HW1   29   0.631   1.390   1.191 -2.5109  0.7158 -2.2638
   10SOL    HW2   30   0.716   1.500   1.301 -0.9401  0.5941 -0.9662
   11SOL     OW   31   2.371   2.871   0.914 -0.5696  0.2360  0.7870
   11SOL    HW1   32   2.330   2.817   0.988  1.7757  0.6168 -1.6542
   11SOL    HW2   33   2.473   2.901   0.935  0.7121 -1.4511 -0.9743
   12SOL     OW   34   1.498   0.913   0.423 -0.0456 -0.2871  0.5690
   12SOL    HW1   35   1.420   0.970   0.388 -0.3235  0.6477  0.7979
   12SOL    HW2   36   1.495   0.820   0.380  2.2001 -1.9085  2.2691
   13SOL     OW   37   2.465   0.735   1.795  0.7360  0.4124  0.5117
   13SOL    HW1   38   2.398   0.703   1.861 -1.1347  0.4973 -2.5869
   13SOL    HW2   39   2.461   0.685   1.705 -0.5244  1.1691  0.0344
   14SOL     OW   40   1.960   3.092   0.603  0.1968  0.3132  0.3028
   14SOL    HW1   41   1.864   3.142   0.592  0.4561 -0.6581  0.0720
   14SOL    HW2   42   1.988   3.066   0.699  0.6633 -1.1740  0.4438
   15SOL     OW   43   1.899   2.077   2.662  0.5197  0.1063  0.6652
   15SOL    HW1   44   1.821   2.058   2.730 -0.7116 -0.1589 -1.6710
   15SOL    HW2   45   1.896   2.014   2.575  0.6475  0.4700 -1.3526
   16SOL     OW   46   1.633   1.726   3.034  0.2203 -0.4400  0.3964
   16SOL    HW1   47   1.626   1.625   3.057 -0.7102  1.1507 -0.6963
   16SOL    HW2   48   1.728   1.772   3.050 -0.0894 -1.8760  0.3756
   17SOL     OW   49   0.127   0.454   0.169 -0.4483  0.3329  0.2440
   17SOL    HW1   50   0.211   0.485   0.119 -0.3640 -0.0779  2.3570
   17SOL    HW2   51   0.048   0.451   0.106  2.0317  1.4820  3.2677
   18SOL     OW   52   0.902   2.928   2.138  0.6778 -0.2852 -0.1596
   18SOL    HW1   53   0.859   2.856   2.202 -1.6937 -2.6554 -2.2530
   18SOL    HW2   54   0.983   2.906   2.083 -0.0672 -1.1154  0.5029
   19SOL     OW   55   0.617   0.885   1.930 -0.2704  0.4550  0.0369
   19SOL    HW1   56   0.688   0.871   2.005  0.1083  1.4062 -0.9269
   19SOL    HW2   57   0.629   0.979   1.881  1.7259  0.4158 -1.4110
   20SOL     OW   58   0.189   2.843   0.835 -0.0363 -0.1093 -0.7728
   20SOL    HW1   59   0.088   2.857   0.831 -1.1287 -1.8140  1.2178
   20SOL    HW2   60   0.210   2.743   0.802 -1.8184  0.5024 -1.3165
   21SOL     OW   61   2.700   0.317   2.038  0.2763 -0.3047  0.6015
   21SOL    HW1   62   2.681   0.242   1.963 -0.6176  1.1988 -2.4321
   21SOL    HW2   63   2.798   0.314   2.068  0.4781  0.9481  0.5621
   22SOL     OW   64   2.345   0.206   0.127 -0.1101  0.1903  0.3307
   22SOL    HW1   65   2.369   0.143   0.049  2.6363 -1.6085 -2.0955
   22SOL    HW2   66   2.264   0.264   0.097  0.8839  0.9417 -2.1008
   23SOL     OW   67   2.796   0.561   0.667  0.1385 -0.0399  0.0223
   23SOL    HW1   68   2.829   0.483   0.606  2.5322 -2.4661  1.8738
   23SOL    HW2   69   2.798   0.658   0.629 -1.0511  0.1459  1.3582
   24SOL     OW   70   0.294   1.850   0.428  0.9387  0.1464  0.5979
   24SOL    HW1   71   0.275   1.939   0.372  1.5317  0.8207  0.5943
   24SOL    HW2   72   0.393   1.830   0.426 -1.6174  0.5492  0.7939
   25SOL     OW   73   2.299   0.606   0.183  0.0846 -0.1347 -0.2036
   25SOL    HW1   74   2.295   0.585   0.082 -1.1166  0.9394 -0.8479
   25SOL    HW2   75   2.365   0.541   0.232  0.6226 -0.0016 -0.5489
   26SOL     OW   76   2.440   2.135   2.101  0.1997 -0.3878 -0.1142
   26SOL    HW1   77   2.524   2.181   2.139  1.0693 -1.2651 -2.0655
   26SOL    HW2   78   2.463   2.070   2.024 -0.6191 -0.5314  0.5968
   27SOL     OW   79   0.613   2.953   0.184 -0.0579  0.4355 -0.1028
   27SOL    HW1   80   0.711   2.998   0.180  0.8977 -0.0678  0.5688
   27SOL    HW2   81   0.561   2.964   0.095 -4.7453 -0.0481 -0.0505
   28SOL     OW   82   1.582   0.145   0.287 -0.4700 -0.2125  0.3615
   28SOL    HW1   83   1.642   0.094   0.221 -2.2649  0.3736  2.5917
   28SOL    HW2   84   1.623   0.239   0.309  0.3962  1.5243 -2.0786
   29SOL     OW   85   2.010   0.615   0.290  0.1269  0.1688 -0.0433
   29SOL    HW1   86   1.998   0.676   0.375  0.2500 -0.8119  1.9963
   29SOL    HW2   87   2.097   0.641   0.240 -1.0829 -2.4815  0.1754
   30SOL     OW   88   0.188   2.093   0.936  0.1644 -0.2860 -0.3355
   30SOL    HW1   89   0.248   2.029   0.880  0.6359  0.1635  0.5479
   30SOL    HW2   90   0.083   2.079   0.923  0.9059 -0.6221  1.0311
   31SOL     OW   91   2.144   0.053   2.376 -0.2326 -0.0848  0.4550
   31SOL    HW1   92   2.109   0.012   2.463  0.6753  0.1300 -0.3042
   31SOL    HW2   93   2.078   0.035   2.298 -1.6772  0.3702  1.7154
   32SOL     OW   94   3.075   3.057   0.297  0.7498 -0.3699 -0.4092
   32SOL    HW1   95   3.046   2.959   0.294  0.5088 -0.6747 -2.0768
   32SOL    HW2   96   3.173   3.081   0.277 -2.0807  1.1076 -0.5235
   33SOL     OW   97   0.915   0.194   0.632  0.4630  0.4385  0.6932
   33SOL    HW1   98   0.915   0.123   0.553  1.0038  0.1297 -1.6743
   33SOL    HW2   99   0.992   0.263   0.620 -1.0113 -2.4422  0.7095
   34SOL     OW  100   0.339   2.694   1.026  0.1446 -0.1912  0.3893
   34SOL    HW1  101   0.292   2.770   0.978 -1.0377  0.1556 -0.8171
   34SOL    HW2  102   0.434   2.714   1.060  1.9472 -0.9847  0.4557
   35SOL     OW  103   0.043   0.125   1.915  0.0208  0.6550  0.7425
   35SOL    HW1  104   0.095   0.032   1.924  0.4892 -2.6384 -0.2667
   35SOL    HW2  105  -0.006   0.126   1.823 -1.0897 -0.8830 -0.1247
   36SOL     OW  106   1.928   1.157   1.515  0.3255 -0.7248  0.3426
   36SOL    HW1  107   2.022   1.122   1.544  1.8087  1.7195 -2.4845
   36SOL    HW2  108   1.937   1.238   1.445  0.3711 -1.4314 -0.3497
   37SOL     OW  109   1.123   0.238   0.995 -0.0786  0.4704 -0.4245
   37SOL    HW1  110   1.123   0.332   0.954 -1.9629 -0.1627  1.2897
   37SOL    HW2  111   1.189   0.169   0.946 -0.3603 -1.8254  0.8500
   38SOL     OW  112   1.162   2.881   2.448  0.0330 -0.3444 -0.5221
   38SOL    HW1  113   1.084   2.825   2.484  1.4197 -4.0031  2.5900
   38SOL    HW2  114   1.139   2.971   2.406  0.5144 -2.2064  1.0181
   39SOL     OW  115   2.474   1.394   3.034  0.2430  0.3767 -0.4037
   39SOL    HW1  116   2.548   1.322   3.033  0.1378 -0.8415  0.3402
   39SOL    HW2  117   2.408   1.386   3.113  0.8130  0.6542 -2.8987
   40SOL     OW  118   2.004   2.543   2.574 -0.2526  0.5269 -0.3676
   40SOL    HW1  119   1.941   2.622   2.580  3.7316 -2.4554 -1.0495
   40SOL    HW2  120   1.956   2.460   2.535  0.5079  0.9600  1.2210
   41SOL     OW  121   3.036   0.767   2.810  0.1324 -0.0154 -0.2273
   41SOL    HW1  122   2.996   0.834   2.884 -1.4912  1.2987  0.5079
   41SOL    HW2  123   2.966   0.712   2.758  0.2171  1.5711  0.3646
   42SOL     OW  124   1.792   1.710   0.547  0.0463  0.0993 -0.3840
   42SOL    HW1  125   1.747   1.617   0.540  0.1234 -0.9873 -2.9692
   42SOL    HW2  126   1.835   1.739   0.457 -1.3977 -0.6582 -0.3556
   43SOL     OW  127   0.457   1.670   1.143 -0.0097 -0.5556 -0.4309
   43SOL    HW1  128   0.483   1.572   1.137  2.6993  0.5339 -0.9649
   43SOL    HW2  129   0.403   1.701   1.229 -1.5891  1.9191 -2.0951
   44SOL     OW  130   1.655   2.355   2.971 -0.0249 -0.4139  0.1369
   44SOL    HW1  131   1.568   2.404   2.998 -0.9232 -1.2004  1.4720
   44SOL    HW2  132   1.709   2.398   2.894  1.6892  0.5890  0.1113
   45SOL     OW  133   0.353   1.892   2.563  0.2040 -0.0446 -0.0384
   45SOL    HW1  134   0.289   1.899   2.487 -0.9053 -0.1644  0.2964
   45SOL    HW2  135   0.425   1.817   2.558  0.3460 -0.9443  0.7926
   46SOL     OW  136   1.224   0.761   0.279  0.5982 -0.0720 -0.1437
   46SOL    HW1  137   1.243   0.830   0.204 -1.1303 -1.4543  0.8486
   46SOL    HW2  138   1.205   0.664   0.240  0.4237  2.0705  0.6850
   47SOL     OW  139   0.141   2.424   1.574 -0.6141  0.2322  0.2802
   47SOL    HW1  140   0.133   2.342   1.639  0.4518  0.4862  3.6705
   47SOL    HW2  141   0.180   2.395   1.481 -0.4470 -3.4699 -2.6401
   48SOL     OW  142   2.657   0.678   0.134 -0.1492  0.4679 -0.4209
   48SOL    HW1  143   2.622   0.658   0.231 -0.5380  0.0931  1.1096
   48SOL    HW2  144   2.760   0.664   0.128  3.6260 -2.4461  0.5640
   49SOL     OW  145   0.370   0.831   1.787 -0.1232 -0.6522 -0.3573
   49SOL    HW1  146   0.446   0.834   1.855 -1.6603  0.6608 -0.5016
   49SOL    HW2  147   0.391   0.759   1.714  2.0536  0.5410  0.0448
   50SOL     OW  148   1.749   1.118   0.301 -0.3561 -0.8130  0.2239
   50SOL    HW1  149   1.762   1.016   0.300 -0.5539  1.1971  1.8275
   50SOL    HW2  150   1.691   1.147   0.382  0.1477 -0.5160  0.5933
   51SOL     OW  151   3.008   1.777   0.329 -0.6286  0.1145  0.4508
   51SOL    HW1  152   2.924   1.716   0.317 -1.6810  2.7457  1.9427
   51SOL    HW2  153   3.086   1.725   0.377 -0.2195  1.8493  2.4183
   52SOL     OW  154   0.764   2.160   0.567 -0.4726  0.4754 -1.0136
   52SOL    HW1  155   0.673   2.206   0.564  1.8796  1.0050 -1.0289
   52SOL    HW2  156   0.775   2.101   0.651  0.1736  0.9882  1.6409
   53SOL     OW  157   0.264   0.406   1.500  0.5094 -0.5511 -0.8287
   53SOL    HW1  158   0.321   0.490   1.492 -0.2587  0.3614  2.4068
   53SOL    HW2  159   0.214   0.380   1.413  1.4199 -0.3202  0.2178
   54SOL     OW  160   1.740   0.453   0.007  0.0841 -0.3359 -0.1500
   54SOL    HW1  161   1.800   0.400   0.075 -0.2704 -3.0186  2.7571
   54SOL    HW2  162   1.641   0.445   0.036 -0.4753 -1.0550 -0.7885
   55SOL     OW  163   0.720   2.915   0.606  0.0084  1.1823 -0.0396
   55SOL    HW1  164   0.671   3.006   0.595  1.9913  1.0791  0.2177
   55SOL    HW2  165   0.817   2.929   0.573  0.6857  1.7269  2.0689
   56SOL     OW  166   0.570   1.544   3.054  0.1550 -0.3483  0.5903
   56SOL    HW1  167   0.508   1.546   3.138 -2.3944 -1.6759  0.0992
   56SOL    HW2  168   0.548   1.467   2.992 -1.5733  0.6921 -0.8653
   57SOL     OW  169   1.703   2.481   2.341 -0.8812 -0.3085 -0.0405
   57SOL    HW1  170   1.791   2.447   2.382 -0.6126 -1.0814 -2.1582
   57SOL    HW2  171   1.625   2.466   2.413  0.7042 -0.2718  1.4401
   58SOL     OW  172   0.675   0.240   1.089 -0.1745 -0.4877 -0.4361
   58SOL    HW1  173   0.582   0.236   1.128  0.3303  3.6777 -0.0003
   58SOL    HW2  174   0.723   0.148   1.079 -0.4296 -0.5833  0.4485
   59SOL     OW  175   0.452   2.401   2.707 -0.5139 -0.3849 -0.5266
   59SOL    HW1  176   0.462   2.292   2.715  0.5301 -2.1337  0.7648
   59SOL    HW2  177   0.541   2.449   2.687 -2.7241 -2.0085 -1.5682
   60SOL     OW  178   2.301   2.043   2.351 -0.6118 -0.1905 -0.5533
   60SOL    HW1  179   2.348   2.060   2.261 -1.0080  0.7471 -1.7376
   60SOL    HW2  180   2.355   2.071   2.435  0.3138  0.3591 -0.3140
   61SOL     OW  181   1.187   0.636   0.513 -0.4662  0.1639 -0.3600
   61SOL    HW1  182   1.093   0.650   0.553 -0.1850  1.3954  1.4521
   61SOL    HW2  183   1.207   0.692   0.432  2.9321  0.6051 -1.7892
   62SOL     OW  184   2.763   1.726   2.711  0.2627  0.2154 -0.4171
   62SOL    HW1  185   2.682   1.672   2.676  1.2088  1.6493 -0.9605
   62SOL    HW2  186   2.823   1.675   2.783 -0.2237  0.4094  0.2305
   63SOL     OW  187   0.510   0.927   0.194  0.8927  0.2921  0.2377
   63SOL    HW1  188   0.552   0.984   0.117 -1.6302 -1.2535 -0.3614
   63SOL    HW2  189   0.509   0.975   0.288  0.4610  2.2717 -0.5826
   64SOL     OW  190   3.004   0.562   2.315 -0.2570 -0.0237  0.4934
   64SOL    HW1  191   2.929   0.606   2.363 -0.1300 -1.2798 -1.4188
   64SOL    HW2  192   3.021   0.618   2.231 -1.5291 -0.5605 -1.0167
   65SOL     OW  193   0.232   1.441   0.741 -0.2220  0.0588 -0.1841
   65SOL    HW1  194   0.239   1.522   0.811  2.5636  1.0199  0.8880
   65SOL    HW2  195   0.278   1.463   0.651  0.7901 -2.3479  2.1123
   66SOL     OW  196   2.581   0.332   0.552 -0.5465  0.0702  0.1958
   66SOL    HW1  197   2.682   0.323   0.571  0.5678  0.2417 -1.2052
   66SOL    HW2  198   2.521   0.289   0.628  1.7440  1.6989 -0.6969
   67SOL     OW  199   0.616   2.527   1.463 -0.5568  0.2171  0.3608
   67SOL    HW1  200   0.699   2.496   1.523  0.4878 -0.9639 -0.0416
   67SOL    HW2  201   0.537   2.464   1.462  0.4261  1.1620  1.6774
   68SOL     OW  202   0.907   0.989   2.431 -0.3987 -0.5883 -0.3323
   68SOL    HW1  203   0.993   0.953   2.388 -1.0038  2.4716  2.8221
   68SOL    HW2  204   0.874   1.085   2.403  1.7518  1.2274  0.2536
   69SOL     OW  205   0.801   2.706   2.331 -0.1087 -1.0083  0.4136
   69SOL    HW1  206   0.843   2.630   2.274  1.6285  1.0309 -3.4551
   69SOL    HW2  207   0.701   2.696   2.348 -0.8251 -0.7967 -0.4490
   70SOL     OW  208   0.445   0.142   2.528  0.1177 -0.0433  0.5379
   70SOL    HW1  209   0.376   0.094   2.585  1.2871  4.8064  1.7394
   70SOL    HW2  210   0.533   0.089   2.527 -3.0555  1.2319 -0.3259
   71SOL     OW  211   1.066   1.777   0.334  0.3973  0.1403  0.1056
   71SOL    HW1  212   1.005   1.749   0.412  1.2878 -0.9988  2.8093
   71SOL    HW2  213   1.024   1.777   0.236  1.7375  0.0420 -0.8795
   72SOL     OW  214   1.856   0.245   2.159 -0.1411  0.5562  0.2993
   72SOL    HW1  215   1.909   0.332   2.150  0.6833 -0.7294 -2.5262
   72SOL    HW2  216   1.914   0.161   2.181  2.9855 -1.6923 -0.8417
   73SOL     OW  217   2.784   2.178   2.502 -0.0421  0.1070  0.3630
   73SOL    HW1  218   2.740   2.088   2.484  1.8488  0.0244 -1.7034
   73SOL    HW2  219   2.822   2.182   2.598  0.0862  1.0021 -0.1377
   74SOL     OW  220   2.700   2.887   2.147 -0.4156  0.3355  0.0871
   74SOL    HW1  221   2.613   2.884   2.200  2.0874 -1.7240 -2.1163
   74SOL    HW2  222   2.766   2.961   2.187 -0.0200 -0.3349  0.4899
   75SOL     OW  223   0.964   0.812   1.137  0.1968 -0.4530  0.5536
   75SOL    HW1  224   0.863   0.830   1.129 -0.9295  1.9275  1.8560
   75SOL    HW2  225   1.004   0.854   1.221 -0.5635  1.0493 -0.1822
   76SOL     OW  226   1.856   1.275   2.567 -0.1734  0.2700 -0.0977
   76SOL    HW1  227   1.761   1.272   2.603  0.7307 -0.7155  1.6431
   76SOL    HW2  228   1.902   1.362   2.582  0.5338 -1.7840  0.3953
   77SOL     OW  229   2.906   0.956   1.046  0.3301  0.8664 -0.0420
   77SOL    HW1  230   2.873   0.856   1.030 -0.4391 -0.1054 -0.2854
   77SOL    HW2  231   2.983   0.954   1.117  1.0967 -0.7842  1.7742
   78SOL     OW  232   2.002   1.351   1.337  0.1283  0.9872 -0.3731
   78SOL    HW1  233   2.083   1.382   1.281 -0.0512  2.3323 -0.5196
   78SOL    HW2  234   1.914   1.376   1.295  1.1073  0.3105  3.2658
   79SOL     OW  235   0.706   1.429   0.826  0.3285  0.3637 -0.1233
   79SOL    HW1  236   0.609   1.402   0.838 -0.9823 -0.9760 -2.8303
   79SOL    HW2  237   0.760   1.342   0.821 -0.4168  2.3757  3.3048
   80SOL     OW  238   0.571   0.459   1.552  0.2554 -0.7799  0.5363
   80SOL    HW1  239   0.608   0.521   1.482  0.0074 -2.1020  2.4083
   80SOL    HW2  240   0.622   0.372   1.560  0.7844  2.2722 -0.5659
   81SOL     OW  241   1.067   1.251   2.555  0.3484  0.2136 -0.4800
   81SOL    HW1  242   1.025   1.162   2.533  0.7766 -1.7216  1.5851
   81SOL    HW2  243   0.997   1.326   2.572  0.9113  2.0821  0.8378
   82SOL     OW  244   0.917   2.881   1.520 -0.0593  0.1194 -0.3287
   82SOL    HW1  245   0.980   2.814   1.476 -1.4771  1.5307  0.5994
   82SOL    HW2  246   0.906   2.969   1.471 -1.7064 -0.6660  0.9342
   83SOL     OW  247   2.605   2.336   0.890  0.4353 -0.2841 -0.1643
   83SOL    HW1  248   2.535   2.293   0.835  1.8239 -1.6622  1.4125
   83SOL    HW2  249   2.599   2.443   0.893  0.1627  0.2452 -0.5117
   84SOL     OW  250   0.767   0.038   2.282 -0.0378  0.8579 -0.1088
   84SOL    HW1  251   0.719   0.008   2.370  1.6875 -0.8890 -1.5497
   84SOL    HW2  252   0.791  -0.043   2.222  2.0814  0.5650 -0.9203
   85SOL     OW  253   0.295   1.690   1.382  0.0422 -0.3250 -0.2513
   85SOL    HW1  254   0.245   1.773   1.425 -0.8253 -0.0525  0.1355
   85SOL    HW2  255   0.345   1.630   1.450  1.0220 -1.9184  1.3518
   86SOL     OW  256   0.395   1.040   1.503 -0.0133  0.2734 -0.6631
   86SOL    HW1  257   0.375   0.978   1.422 -0.4694 -0.7133  3.6380
   86SOL    HW2  258   0.420   0.987   1.586 -0.0904  2.2933 -0.6000
   87SOL     OW  259   1.613   0.646   0.301  0.5508  0.3820 -0.2120
   87SOL    HW1  260   1.684   0.721   0.291 -2.5305 -1.3251 -1.3350
   87SOL    HW2  261   1.583   0.601   0.207  2.6362  1.7880 -0.5795
   88SOL     OW  262   1.597   1.369   0.267 -0.3829 -0.3151  0.1192
   88SOL    HW1  263   1.669   1.293   0.242  1.1184  0.6444 -0.1080
   88SOL    HW2  264   1.497   1.339   0.254 -0.1746 -1.3974 -0.8517
   89SOL     OW  265   0.023   0.385   0.610 -0.0005  0.8297  0.2835
   89SOL    HW1  266   0.083   0.297   0.603 -0.1086  0.6821 -0.4209
   89SOL    HW2  267  -0.072   0.374   0.570 -0.4155  0.0421  3.1952
   90SOL     OW  268   0.773   1.509   0.152 -0.1125 -0.2801  0.1046
   90SOL    HW1  269   0.864   1.455   0.152 -0.9816  0.1873  0.0796
   90SOL    HW2  270   0.721   1.510   0.063  0.5780 -0.4708 -0.9026
   91SOL     OW  271   1.238   1.486   1.767  0.6985 -0.0362 -0.0799
   91SOL    HW1  272   1.213   1.556   1.838 -1.0875 -0.4291 -0.3160
   91SOL    HW2  273   1.176   1.407   1.784  2.3844 -2.5676  0.3951
   92SOL     OW  274  -0.001   0.996   1.215 -0.1371  0.3902  0.0343
   92SOL    HW1  275   0.057   1.074   1.176  1.9865 -1.0859 -0.2467
   92SOL    HW2  276   0.023   0.969   1.312 -1.1613  1.0996 -0.0004
   93SOL     OW  277   0.006   2.690   0.083  0.7080  0.1363 -0.2185
   93SOL    HW1  278  -0.024   2.706  -0.013  1.6061  0.0019  1.5592
   93SOL    HW2  279   0.019   2.590   0.104 -2.2225  3.7008 -0.0490
   94SOL     OW  280   1.514   1.286   1.673  0.0556 -0.2458 -0.0681
   94SOL    HW1  281   1.608   1.245   1.673 -0.8291 -2.3944  2.0541
   94SOL    HW2  282   1.510   1.367   1.740  1.9976  0.3328 -0.4688
   95SOL     OW  283   1.334   2.474   2.913 -0.4185 -0.3680  0.0055
   95SOL    HW1  284   1.279   2.466   3.003 -2.0276 -0.1477  2.0771
   95SOL    HW2  285   1.325   2.389   2.859  0.7529  2.4625 -0.8266
   96SOL     OW  286   0.592   2.185   1.314  0.5901  0.2459  0.5324
   96SOL    HW1  287   0.527   2.164   1.237  0.6463  1.4225 -1.2453
   96SOL    HW2  288   0.598   2.114   1.391 -0.9425 -0.0527  0.8951
   97SOL     OW  289   0.257   1.615   2.440 -0.4688 -0.3494 -0.4862
   97SOL    HW1  290   0.223   1.702   2.405 -2.2617 -1.1372  0.4581
   97SOL    HW2  291   0.229   1.591   2.537  0.0813 -1.0101  1.0489
   98SOL     OW  292   2.172   1.669   1.216 -0.6290 -0.0461  0.3141
   98SOL    HW1  293   2.104   1.714   1.153  5.4916  1.6711 -0.9110
   98SOL    HW2  294   2.258   1.642   1.165 -1.6039  0.0086 -0.5151
   99SOL     OW  295   2.638   2.077   1.242  0.7333 -0.5093 -0.0602
   99SOL    HW1  296   2.704   2.116   1.317  2.5635 -2.6963  1.3647
   99SOL    HW2  297   2.586   1.999   1.288 -2.2335  0.8616 -0.6105
  100SOL     OW  298   2.327   0.365   2.116  0.4738  0.2093  0.6075
  100SOL    HW1  299   2.261   0.340   2.193  0.6808  0.6778  0.4003
  100SOL    HW2  300   2.417   0.400   2.151 -0.8854 -1.3493 -1.7607
  101SOL     OW  301   0.371   1.526   0.514 -0.3418  0.1144 -0.2935
  101SOL    HW1  302   0.392   1.625   0.547 -2.5346 -1.5859 -1.5050
  101SOL    HW2  303   0.432   1.484   0.436 -2.1767 -2.3647 -0.5676
  102SOL     OW  304   2.239   1.070   0.821 -0.3719 -0.2641  0.2265
  102SOL    HW1  305   2.213   0.973   0.816  0.7020  0.1380  2.5932
  102SOL    HW2  306   2.334   1.094   0.774  0.0989  1.0482 -4.6575
  103SOL     OW  307   2.276   0.054   0.349  0.3934  0.6116  0.4767
  103SOL    HW1  308   2.320   0.108   0.273 -1.9991  0.8385 -0.4426
  103SOL    HW2  309   2.350   0.033   0.422  2.1486  2.0284 -1.6252
  104SOL     OW  310   3.079   1.793   2.214 -0.1660  0.0767  0.5478
  104SOL    HW1  311   3.144   1.765   2.138 -1.4106 -2.5023 -0.7480
  104SOL    HW2  312   2.983   1.806   2.186  1.6416 -0.3307 -1.7617
  105SOL     OW  313   1.391   2.113   0.764 -0.4415 -0.0515  0.2883
  105SOL    HW1  314   1.365   2.141   0.667 -1.0334 -0.7547  0.8864
  105SOL    HW2  315   1.389   2.009   0.767  1.4205 -0.9849 -0.6158
  106SOL     OW  316   2.150   0.405   1.413  0.2357  0.1368 -0.0523
  106SOL    HW1  317   2.091   0.316   1.419 -0.9746 -1.8425 -2.3797
  106SOL    HW2  318   2.153   0.469   1.497  1.4315  1.5689  1.2542
  107SOL     OW  319   1.941   2.896   1.190 -0.5190 -0.2345  0.1913
  107SOL    HW1  320   1.860   2.958   1.218  1.9126 -1.8992  2.2848
  107SOL    HW2  321   1.902   2.815   1.141 -1.7732  1.8006  0.2756
  108SOL     OW  322   0.825   2.815   1.192  0.0096 -0.1745  0.0377
  108SOL    HW1  323   0.806   2.714   1.171  0.9912 -1.4356 -2.1415
  108SOL    HW2  324   0.925   2.826   1.219  0.7147  1.2078 -0.2397
  109SOL     OW  325   2.136   0.211   0.719  0.4075 -0.4492  0.1073
  109SOL    HW1  326   2.069   0.143   0.676 -1.4727 -0.8824  1.2556
  109SOL    HW2  327   2.101   0.245   0.812  0.8533  0.9779 -0.2668
  110SOL     OW  328   0.507   2.760   2.775  0.7358 -0.0475 -0.5762
  110SOL    HW1  329   0.511   2.791   2.676 -0.2973  0.0721 -0.9946
  110SOL    HW2  330   0.597   2.725   2.820 -1.8886 -0.4100 -2.6186
  111SOL     OW  331   1.302   0.522   2.285  0.0238 -0.0112 -0.0126
  111SOL    HW1  332   1.203   0.548   2.316  0.6850 -1.4202  1.6577
  111SOL    HW2  333   1.335   0.447   2.342 -2.1506  1.3076 -0.4927
  112SOL     OW  334   1.738   0.411   1.508  0.1336  0.3113  0.6418
  112SOL    HW1  335   1.692   0.462   1.426  2.0764  1.3982 -1.3250
  112SOL    HW2  336   1.679   0.405   1.589  2.9692 -0.5326 -1.7614
  113SOL     OW  337   2.373   1.738   1.787  0.1356 -0.2843 -0.1869
  113SOL    HW1  338   2.400   1.646   1.746  0.6354 -1.5008  0.5562
  113SOL    HW2  339   2.370   1.741   1.888  0.2882 -0.9523 -1.2017
  114SOL     OW  340   0.320   0.430   1.154 -0.1637 -0.4917 -0.0203
  114SOL    HW1  341   0.352   0.534   1.151 -2.6994  1.5096  0.3120
  114SOL    HW2  342   0.272   0.405   1.066  3.1713 -1.3601  1.2767
  115SOL     OW  343   2.708   1.562   1.226  0.6603 -0.1084  0.2190
  115SOL    HW1  344   2.694   1.464   1.261 -2.7911 -0.7685 -1.8213
  115SOL    HW2  345   2.805   1.568   1.196 -0.7777 -1.1199  2.3674
  116SOL     OW  346   1.921   0.924   0.761  0.1365 -0.8295 -0.0357
  116SOL    HW1  347   1.830   0.879   0.726 -0.0993  0.6779 -0.3937
  116SOL    HW2  348   1.920   1.031   0.752  0.2839 -1.0156 -0.6040
  117SOL     OW  349   1.125   0.360   0.552  0.1954 -0.2893 -0.0527
  117SOL    HW1  350   1.131   0.460   0.539  0.1491  0.1111  0.4605
  117SOL    HW2  351   1.114   0.325   0.459 -2.7103  2.4893  2.9886
  118SOL     OW  352   1.128   1.217   1.068  0.0385  0.1581  0.4023
  118SOL    HW1  353   1.057   1.181   1.135 -0.1638 -2.1760  0.8693
  118SOL    HW2  354   1.160   1.316   1.094 -3.6170  0.0060 -1.4624
  119SOL     OW  355   1.841   1.582   2.196  0.2168 -0.2033  0.3335
  119SOL    HW1  356   1.805   1.639   2.118  0.5756  0.5119  0.1483
  119SOL    HW2  357   1.944   1.564   2.196 -1.2734  0.0579 -0.1505
  120SOL     OW  358   2.935   2.822   0.257  0.5413  0.4060  0.3081
  120SOL    HW1  359   3.003   2.772   0.199 -1.6698 -0.0179 -1.6874
  120SOL    HW2  360   2.839   2.821   0.219  1.3877  0.8022 -0.6236
  121SOL     OW  361   2.007   0.783   2.311 -0.2040  0.8161  0.0482
  121SOL    HW1  362   2.053   0.859   2.260 -1.4920 -1.9365 -0.9351
  121SOL    HW2  363   2.045   0.687   2.297  0.0700 -0.7310  3.4903
  122SOL     OW  364   2.637   2.492   1.327 -0.2768  0.5186  0.1692
  122SOL    HW1  365   2.701   2.455   1.249  1.2479 -4.4467  2.2163
  122SOL    HW2  366   2.633   2.426   1.406 -0.3506  3.8803 -0.9494
  123SOL     OW  367   1.673   0.131   1.725 -0.3989 -0.3095 -1.0160
  123SOL    HW1  368   1.691   0.086   1.634  1.7519  0.4070  0.6774
  123SOL    HW2  369   1.761   0.182   1.749 -3.0143  0.6918 -1.1206
  124SOL     OW  370   3.068   0.388   1.115 -0.1339 -0.1658  0.0641
  124SOL    HW1  371   3.048   0.478   1.159  0.8829  0.6470 -0.4959
  124SOL    HW2  372   3.058   0.391   1.011 -1.2264  0.8552 -0.1846
  125SOL     OW  373   0.843   1.985   0.766  0.0055  0.6498  0.0925
  125SOL    HW1  374   0.940   1.944   0.772  0.1639  0.5378 -0.4027
  125SOL    HW2  375   0.814   2.007   0.857  0.1209  0.6547 -0.1158
  126SOL     OW  376   1.896   2.320   2.484  0.1088 -0.0156 -0.7052
  126SOL    HW1  377   1.939   2.275   2.399 -0.4147  2.7891 -0.5226
  126SOL    HW2  378   1.895   2.247   2.558  1.9028  0.8761  1.3553
  127SOL     OW  379   0.893   0.978   0.200  0.1603 -0.0980  0.1438
  127SOL    HW1  380   0.955   1.003   0.281 -1.0999 -3.2296 -0.4700
  127SOL    HW2  381   0.889   0.874   0.193 -1.5513 -1.1928 -0.4247
  128SOL     OW  382   0.952   0.243   1.431 -0.3040  0.2175 -0.3513
  128SOL    HW1  383   0.914   0.326   1.390 -3.6103 -2.5693  2.9224
  128SOL    HW2  384   0.926   0.160   1.385 -0.3468  3.0797 -0.4598
  129SOL     OW  385   1.875   0.728   1.831 -0.1091 -0.0532 -0.7625
  129SOL    HW1  386   1.867   0.704   1.733 -0.8243 -1.0034 -0.4066
  129SOL    HW2  387   1.901   0.828   1.856 -0.7564 -1.5166  0.9840
  130SOL     OW  388   1.330   2.291   0.979  0.4592 -0.3950  0.0937
  130SOL    HW1  389   1.342   2.236   0.891  0.0462  2.3540  0.0188
  130SOL    HW2  390   1.415   2.344   1.000 -0.0980  0.5936  0.8822
  131SOL     OW  391   3.076   1.427   1.392 -0.4223  0.7719  0.0347
  131SOL    HW1  392   3.014   1.349   1.413  0.6926  2.1940  0.1198
  131SOL    HW2  393   3.165   1.381   1.362  1.1742 -0.4079 -0.1552
  132SOL     OW  394   2.048   2.391   0.558  0.1549  0.4640  0.4710
  132SOL    HW1  395   1.947   2.402   0.546  2.2677 -1.8761  0.2575
  132SOL    HW2  396   2.078   2.320   0.632  1.2979 -1.1825  1.4303
  133SOL     OW  397   1.723   2.486   2.748  0.4721  0.3869  0.3312
  133SOL    HW1  398   1.645   2.476   2.686  0.7706  0.7341  0.5420
  133SOL    HW2  399   1.736   2.580   2.793  2.4714  1.4261 -0.1734
  134SOL     OW  400   2.683   2.384   1.589 -0.2778  0.2273  0.1472
  134SOL    HW1  401   2.613   2.352   1.659  1.9498 -1.5015  0.8050
  134SOL    HW2  402   2.709   2.485   1.598  0.2958 -0.8393 -4.1168
  135SOL     OW  403   0.799   1.457   2.677  0.3096 -0.0920 -0.6711
  135SOL    HW1  404   0.762   1.363   2.704  0.4100 -0.7104  0.3346
  135SOL    HW2  405   0.779   1.474   2.578 -0.5214 -4.3129  2.3056
  136SOL     OW  406   1.175   2.006   0.397 -0.2760 -0.6277 -0.0052
  136SOL    HW1  407   1.105   2.073   0.431 -0.6712  0.7193  1.3819
  136SOL    HW2  408   1.137   1.906   0.390 -1.3190 -2.2102 -2.8428
  137SOL     OW  409   0.416   1.217   2.302  0.4083 -0.1319  0.7638
  137SOL    HW1  410   0.316   1.198   2.337  0.1470  0.8241  0.0345
  137SOL    HW2  411   0.464   1.130   2.277 -0.5658  1.3554  0.4040
  138SOL     OW  412   2.420   1.529   0.258  0.4596  0.0107 -0.6507
  138SOL    HW1  413   2.346   1.473   0.213  1.1099 -0.7102  1.4399
  138SOL    HW2  414   2.482   1.463   0.314 -0.7091 -1.2244  0.9264
  139SOL     OW  415   1.888   2.660   1.572  0.0158  0.2351  0.4393
  139SOL    HW1  416   1.804   2.716   1.591  1.2851  3.8016  3.2899
  139SOL    HW2  417   1.871   2.589   1.499 -0.1011  0.7171  2.8284
  140SOL     OW  418   2.953   2.951   2.574 -0.2197 -0.0597 -0.2692
  140SOL    HW1  419   3.030   2.882   2.591  1.5975  0.0020  1.5657
  140SOL    HW2  420   2.992   3.039   2.526 -1.7795  1.2178 -2.7516
  141SOL     OW  421   1.302   1.657   1.528 -0.1487  0.5179 -0.6121
  141SOL    HW1  422   1.220   1.719   1.543 -1.2215  2.0974 -1.0964
  141SOL    HW2  423   1.302   1.569   1.585  0.0472  0.1754 -1.1522
  142SOL     OW  424   1.532   0.670   2.241  0.6984  0.7505  0.2113
  142SOL    HW1  425   1.517   0.735   2.165  1.7608 -2.1791  0.9687
  142SOL    HW2  426   1.441   0.633   2.274  1.8539  2.4100 -1.0599
  143SOL     OW  427   2.758   0.824   0.564  0.1399  0.2808 -0.2387
  143SOL    HW1  428   2.785   0.858   0.470 -1.4944 -3.1708  2.2673
  143SOL    HW2  429   2.787   0.885   0.648 -0.9348  0.7163  0.3798
  144SOL     OW  430   2.900   1.191   1.461 -0.3185 -0.9553 -0.0515
  144SOL    HW1  431   2.870   1.180   1.560 -1.5928 -2.0505  0.7339
  144SOL    HW2  432   2.949   1.111   1.415  0.3124 -0.0461  0.9730
  145SOL     OW  433   0.869   1.818   0.100 -0.1282 -0.7107 -0.2222
  145SOL    HW1  434   0.844   1.845   0.007  1.2438 -1.0276  0.3485
  145SOL    HW2  435   0.840   1.722   0.126  1.0919 -0.0337 -0.2120
  146SOL     OW  436   2.471   0.655   1.528 -0.2653  0.1711 -0.5307
  146SOL    HW1  437   2.468   0.573   1.465 -3.4842  1.1906  1.5919
  146SOL    HW2  438   2.409   0.728   1.492 -0.9608  0.2450  0.9178
  147SOL     OW  439   1.092   2.505   0.569 -0.6409 -0.1402 -0.3000
  147SOL    HW1  440   1.043   2.577   0.512 -0.9483 -0.0708 -0.5883
  147SOL    HW2  441   1.162   2.447   0.516 -0.2009  0.5571 -1.5447
  148SOL     OW  442   1.578   1.469   0.010 -0.1613  0.1117 -0.0881
  148SOL    HW1  443   1.579   1.369  -0.016 -0.1027  1.9555  0.2285
  148SOL    HW2  444   1.561   1.473   0.113  0.3673 -2.5802 -1.4208
  149SOL     OW  445   0.654   1.491   1.980 -0.2047  0.3886  0.1502
  149SOL    HW1  446   0.581   1.443   2.034  1.1247 -1.0876  0.4024
  149SOL    HW2  447   0.684   1.436   1.901 -2.0554 -1.5808  1.7674
  150SOL     OW  448   3.062   1.212   0.937 -0.1037 -0.2924 -0.5680
  150SOL    HW1  449   3.141   1.216   1.000 -3.3362 -1.6482 -1.5839
  150SOL    HW2  450   2.986   1.150   0.967 -1.6096 -2.3699 -1.9138
  151SOL     OW  451   0.174   0.903   2.072 -0.6050  0.7487  0.6053
  151SOL    HW1  452   0.191   0.982   2.011 -0.2533 -1.4214  0.4919
  151SOL    HW2  453   0.249   0.828   2.067 -0.7466  1.9708 -0.7697
  152SOL     OW  454   1.486   1.851   1.091 -0.7045  0.3231  0.0263
  152SOL    HW1  455   1.522   1.951   1.088 -0.2061 -0.3514 -0.9355
  152SOL    HW2  456   1.383   1.856   1.075  3.4799  1.0177 -0.0948
  153SOL     OW  457   0.155   1.500   0.230  0.3805 -0.2597 -0.1752
  153SOL    HW1  458   0.160   1.401   0.199  2.4252  0.7180 -0.7273
  153SOL    HW2  459   0.114   1.515   0.325  0.4805 -0.8427  2.3624
  154SOL     OW  460   2.329   1.779   2.753 -0.0578  0.1808  0.5151
  154SOL    HW1  461   2.352   1.685   2.781 -0.5770  2.3234 -1.9894
  154SOL    HW2  462   2.406   1.832   2.704 -0.1092 -0.2228 -1.1492
  155SOL     OW  463   2.414   1.298   0.424  0.8941  0.5626  0.3483
  155SOL    HW1  464   2.500   1.255   0.392 -0.7191 -0.3297 -0.3321
  155SOL    HW2  465   2.329   1.240   0.401  0.0091  0.5465 -1.4769
  156SOL     OW  466   2.474   0.829   0.724  0.1264  0.1386  0.9773
  156SOL    HW1  467   2.369   0.834   0.713 -0.1346  3.6422  2.1585
  156SOL    HW2  468   2.515   0.875   0.646 -2.3136 -1.5256  1.1552
  157SOL     OW  469   1.249   3.053   3.079  0.5135  0.6166 -0.0488
  157SOL    HW1  470   1.309   3.006   3.012 -1.7107 -0.7018  0.9730
  157SOL    HW2  471   1.293   3.146   3.101 -0.3610  1.3153  3.6069
  158SOL     OW  472   1.094   1.918   1.811  0.4028 -0.1019 -0.3824
  158SOL    HW1  473   1.110   2.014   1.775  1.7160 -1.2752  0.3162
  158SOL    HW2  474   1.030   1.926   1.893 -1.4286  3.0006  1.4757
  159SOL     OW  475   0.795   0.406   1.288 -0.0308 -0.2757  0.4276
  159SOL    HW1  476   0.735   0.479   1.320 -0.3853 -2.1598  0.3913
  159SOL    HW2  477   0.757   0.363   1.199  0.2214  1.0574 -2.6509
  160SOL     OW  478   1.413   2.466   1.442  0.1315  0.7855 -0.1001
  160SOL    HW1  479   1.371   2.384   1.491 -0.0580  1.3992 -1.7018
  160SOL    HW2  480   1.490   2.440   1.376  0.2875 -1.3750  1.0935
  161SOL     OW  481   3.087   2.633   0.451  0.5560 -0.3304  0.1732
  161SOL    HW1  482   3.042   2.544   0.429  1.3730  0.3136  0.5875
  161SOL    HW2  483   3.037   2.707   0.411  4.5568 -3.7124 -0.7462
  162SOL     OW  484   2.536   1.891   0.481 -0.1047 -0.0210  0.7605
  162SOL    HW1  485   2.582   1.915   0.388  0.5366  1.4765  1.6912
  162SOL    HW2  486   2.472   1.809   0.456 -0.8618 -0.5011  0.1219
  163SOL     OW  487   1.965   2.744   0.757  0.2978  0.5159  0.1019
  163SOL    HW1  488   1.953   2.764   0.653 -2.7821  1.2971  2.1364
  163SOL    HW2  489   2.004   2.650   0.777  0.3987  2.3875 -0.2255
  164SOL     OW  490   3.079   0.138   1.212 -0.2344 -0.7644  0.1325
  164SOL    HW1  491   3.088   0.239   1.186 -2.8770 -2.1192  1.5432
  164SOL    HW2  492   3.151   0.121   1.287  0.2664  2.0940 -2.6814
  165SOL     OW  493   1.119   1.453   0.646  0.5745 -0.1151 -0.1860
  165SOL    HW1  494   1.110   1.525   0.719 -2.6920 -0.3237 -3.1954
  165SOL    HW2  495   1.048   1.464   0.570  0.0106  0.6128 -0.2618
  166SOL     OW  496   1.515   0.990   1.804 -0.1989  0.0989  0.4962
  166SOL    HW1  497   1.422   1.025   1.831  1.0104 -0.5761  0.6673
  166SOL    HW2  498   1.591   1.060   1.802 -0.7148 -2.3920 -1.4939
  167SOL     OW  499   0.662   2.000   1.525 -0.4008  0.2865 -0.0852
  167SOL    HW1  500   0.730   2.066   1.563  1.2652 -0.4055  0.4246
  167SOL    HW2  501   0.617   1.939   1.591  1.6750  1.6034  0.0502
  168SOL     OW  502   1.605   2.306   0.139  0.2540 -0.5225 -0.0811
  168SOL    HW1  503   1.659   2.313   0.051  3.0016 -0.7299  0.3634
  168SOL    HW2  504   1.665   2.304   0.222  0.2671  0.7603 -2.0971
  169SOL     OW  505   0.011   2.567   2.210 -0.2415 -0.0988 -0.7196
  169SOL    HW1  506   0.004   2.519   2.119  0.0584  2.3465  0.7465
  169SOL    HW2  507   0.085   2.528   2.273  0.1294  1.2655  2.6363
  170SOL     OW  508   1.149   0.149   2.054 -0.0460  0.0292  0.2199
  170SOL    HW1  509   1.238   0.182   2.100 -0.0941 -2.1054 -0.4098
  170SOL    HW2  510   1.158   0.140   1.954 -0.2231 -0.1498  0.8158
  171SOL     OW  511   0.191   0.856   2.422 -0.2959 -0.0241  0.2225
  171SOL    HW1  512   0.109   0.840   2.477  0.6435  2.2904 -3.0385
  171SOL    HW2  513   0.172   0.896   2.327 -1.0996  3.7349  0.1037
  172SOL     OW  514   0.998   1.030   2.861  0.2573 -0.5853 -0.4833
  172SOL    HW1  515   0.944   1.069   2.943  1.2262 -2.9413  0.8023
  172SOL    HW2  516   0.930   1.008   2.782  0.5287  0.1149 -2.5367
  173SOL     OW  517   0.413   2.573   0.048 -0.4649  0.0125 -0.5858
  173SOL    HW1  518   0.471   2.530  -0.019  0.5268  0.9078  1.6293
  173SOL    HW2  519   0.371   2.502   0.102  2.2089  1.9348  2.1735
  174SOL     OW  520   1.486   2.878   1.052 -0.2605 -0.1768 -0.2956
  174SOL    HW1  521   1.556   2.936   1.000 -0.8532 -3.0923 -1.6261
  174SOL    HW2  522   1.437   2.809   0.993 -3.5147 -1.4678  1.7400
  175SOL     OW  523   0.436   3.064   1.717  0.8602 -0.0429 -0.1587
  175SOL    HW1  524   0.499   3.066   1.801  1.1420 -0.6140  2.7663
  175SOL    HW2  525   0.406   3.158   1.685 -2.0353  1.2932 -0.7921
  176SOL     OW  526   2.665   0.403   3.083 -0.1130  0.4421 -0.3538
  176SOL    HW1  527   2.677   0.487   3.139  0.4218  1.0862 -2.0355
  176SOL    HW2  528   2.632   0.319   3.132  0.1512 -0.4329 -0.3950
  177SOL     OW  529   0.374   0.286   0.897  0.2761 -0.0337 -0.4714
  177SOL    HW1  530   0.332   0.196   0.869 -2.2991 -1.5460  0.2760
  177SOL    HW2  531   0.479   0.287   0.909  3.4747  0.4582  0.5009
  178SOL     OW  532   0.047   2.729   2.616 -0.2951 -0.4026  0.8929
  178SOL    HW1  533  -0.011   2.642   2.601  0.1360 -0.9137 -0.5572
  178SOL    HW2  534   0.118   2.729   2.690 -0.3859 -1.4011 -0.6916
  179SOL     OW  535   2.974   1.574   1.180  0.8971  0.1753  0.6321
  179SOL    HW1  536   3.025   1.586   1.094 -0.9868  1.2864 -1.9263
  179SOL    HW2  537   3.025   1.531   1.259  0.0300  0.9831 -0.1821
  180SOL     OW  538   0.241   1.372   1.770  0.6652 -0.4182  0.2584
  180SOL    HW1  539   0.329   1.326   1.805 -2.4082 -0.1136 -1.6067
  180SOL    HW2  540   0.181   1.407   1.848  0.0605 -1.0107  0.6356
  181SOL     OW  541   2.974   1.834   2.511  0.0941 -0.7547 -0.1864
  181SOL    HW1  542   3.031   1.879   2.440  2.5016 -2.1230 -1.9289
  181SOL    HW2  543   2.871   1.840   2.506  0.3107  0.2940 -0.9250
  182SOL     OW  544   2.261   1.368   1.186 -0.2433  0.0209 -0.0291
  182SOL    HW1  545   2.236   1.286   1.124  0.8597 -0.6173 -0.7512
  182SOL    HW2  546   2.272   1.450   1.124 -1.5735 -2.8598  0.7908
  183SOL     OW  547   1.424   2.256   2.420 -0.5117 -0.2986  0.1483
  183SOL    HW1  548   1.353   2.206   2.479  0.1131 -2.2589  0.4224
  183SOL    HW2  549   1.514   2.205   2.412  1.7598  1.7899 -1.5921
  184SOL     OW  550   2.169   0.809   0.768  0.1524 -0.5689 -0.1978
  184SOL    HW1  551   2.067   0.831   0.773 -2.3693 -0.9693 -0.7693
  184SOL    HW2  552   2.185   0.708   0.745  0.2848 -4.2785 -1.6708
  185SOL     OW  553   1.572   2.793   1.989  0.1058  0.1072 -0.0795
  185SOL    HW1  554   1.496   2.862   1.991 -0.0417 -0.0528  1.2809
  185SOL    HW2  555   1.617   2.778   2.081  1.7026 -2.2970  0.4492
  186SOL     OW  556   0.103   2.219   1.744 -0.1913 -0.0713  0.2063
  186SOL    HW1  557   0.044   2.259   1.821 -1.4678 -1.1895  2.7617
  186SOL    HW2  558   0.173   2.143   1.766 -1.5210 -1.0075  1.1937
  187SOL     OW  559   1.345   0.678   1.665 -0.1964  0.0376  0.0502
  187SOL    HW1  560   1.448   0.700   1.654  1.3822  2.2137  2.0540
  187SOL    HW2  561   1.331   0.594   1.728 -3.1608  3.7423  0.0438
  188SOL     OW  562   2.710   2.682   1.526 -0.1288 -0.5460  0.5212
  188SOL    HW1  563   2.733   2.784   1.525  1.0410 -0.3039  1.7894
  188SOL    HW2  564   2.672   2.648   1.437  1.6178  0.7313  2.9539
  189SOL     OW  565   0.947   1.225   1.343  0.4202 -0.4669 -0.1426
  189SOL    HW1  566   0.963   1.250   1.442 -0.7274 -0.6565 -1.1651
  189SOL    HW2  567   0.883   1.286   1.290 -0.8024 -1.9905  1.9815
  190SOL     OW  568   1.459   1.867   1.508  0.3477 -0.0086 -0.3359
  190SOL    HW1  569   1.440   1.767   1.486  1.9349  0.9842 -1.4843
  190SOL    HW2  570   1.448   1.895   1.609 -0.9226  2.3921 -1.2763
  191SOL     OW  571   0.857   0.765   1.512 -0.3909 -0.3005  0.1830
  191SOL    HW1  572   0.901   0.679   1.540 -0.3314  4.1734  0.1116
  191SOL    HW2  573   0.919   0.832   1.468 -1.3589 -0.7151  0.3187
  192SOL     OW  574   1.847   2.440   1.127 -0.7042 -0.3007 -0.5896
  192SOL    HW1  575   1.745   2.417   1.113 -0.2853  3.3168 -1.0742
  192SOL    HW2  576   1.918   2.391   1.071  2.0106  3.6926 -0.1007
  193SOL     OW  577   0.574   0.583   0.457 -0.1121 -0.0682 -0.3774
  193SOL    HW1  578   0.497   0.517   0.453 -0.0460 -0.7040 -1.6498
  193SOL    HW2  579   0.622   0.580   0.365 -0.2348 -2.4624  2.7269
  194SOL     OW  580   0.364   0.840   1.318  0.0630 -0.8670  0.3499
  194SOL    HW1  581   0.288   0.836   1.251  1.0718  0.4432 -0.9943
  194SOL    HW2  582   0.456   0.874   1.279 -0.7116 -2.3996 -0.3655
  195SOL     OW  583   1.027   2.939   0.528  0.3622  0.0507 -0.8874
  195SOL    HW1  584   1.022   2.848   0.479 -0.6296 -0.2952  0.9510
  195SOL    HW2  585   1.104   2.998   0.490  0.2080 -1.2967 -0.8507
  196SOL     OW  586   0.260   1.398   1.302 -0.3034  1.0414 -0.1083
  196SOL    HW1  587   0.256   1.496   1.329 -1.4763  0.0609 -1.0210
  196SOL    HW2  588   0.244   1.331   1.379 -3.0985 -0.3557 -1.4235
  197SOL     OW  589   0.844   2.010   0.324 -0.2218 -0.1538 -0.3076
  197SOL    HW1  590   0.847   1.955   0.415 -0.4689 -0.0166 -0.5867
  197SOL    HW2  591   0.884   1.958   0.247  1.6478  2.7573  0.1452
  198SOL     OW  592   0.290   1.231   0.347 -0.2108 -0.2021  0.1297
  198SOL    HW1  593   0.196   1.221   0.302  2.5215  0.3767  1.2324
  198SOL    HW2  594   0.289   1.312   0.411  0.9223 -2.9569  0.2334
  199SOL     OW  595   2.197   0.472   2.598  0.9588 -0.7257  0.2449
  199SOL    HW1  596   2.145   0.471   2.688 -0.2131  0.5045  0.1566
  199SOL    HW2  597   2.300   0.444   2.611  1.3094  1.4675 -1.0996
  200SOL     OW  598   3.033   2.918   0.791 -0.0537 -0.5943  0.4102
  200SOL    HW1  599   3.049   3.001   0.856  0.5157  0.8853  2.3144
  200SOL    HW2  600   2.984   2.943   0.702  1.5147  1.5274 -0.2272
  201SOL     OW  601   0.897   0.684   0.512  0.1014  0.4191 -0.1169
  201SOL    HW1  602   0.890   0.774   0.562  0.3362 -1.1637 -2.2255
  201SOL    HW2  603   0.856   0.611   0.568  1.1523  0.8672  0.6637
  202SOL     OW  604   0.456   1.232   1.842 -0.2361  0.1629 -0.5295
  202SOL    HW1  605   0.545   1.176   1.822  1.0928 -0.0146 -1.0821
  202SOL    HW2  606   0.454   1.282   1.935 -1.2981  0.8081  2.7115
  203SOL     OW  607   0.682   0.199   1.597 -0.5273 -0.0355  0.3606
  203SOL    HW1  608   0.724   0.149   1.516  1.5835  2.4453 -3.5550
  203SOL    HW2  609   0.729   0.175   1.685  0.3042  0.9787 -0.2817
  204SOL     OW  610   2.103   1.819   2.921  0.2299  0.2355 -0.3242
  204SOL    HW1  611   2.082   1.720   2.953 -3.3831 -1.3574  1.1921
  204SOL    HW2  612   2.166   1.820   2.839  5.4243  1.0313 -0.3341
  205SOL     OW  613   1.837   1.902   3.082 -0.1197 -0.1499 -0.2705
  205SOL    HW1  614   1.932   1.906   3.043 -0.8682 -1.1548  0.1447
  205SOL    HW2  615   1.781   1.965   3.027  1.7254  1.1407  0.1238
  206SOL     OW  616   2.368   2.721   0.267 -0.4542 -0.0189  0.3354
  206SOL    HW1  617   2.325   2.650   0.331 -2.3151 -0.7223  0.5611
  206SOL    HW2  618   2.474   2.719   0.254  0.2141  1.0944 -1.6200
  207SOL     OW  619   0.692   1.746   2.906  0.2854  0.0476  0.1491
  207SOL    HW1  620   0.796   1.730   2.895  0.9065  0.5343 -0.1686
  207SOL    HW2  621   0.643   1.675   2.965  2.4139  0.9954  0.5538
  208SOL     OW  622   1.006   1.553   1.267 -0.3068 -0.2324  0.2016
  208SOL    HW1  623   0.949   1.583   1.188  1.3472 -0.7730  1.6306
  208SOL    HW2  624   0.949   1.531   1.351  0.2812  1.3302  0.3459
  209SOL     OW  625   0.266   0.962   3.064  0.1174 -0.0427 -0.7180
  209SOL    HW1  626   0.311   0.911   2.989 -1.4399  1.9696 -1.2064
  209SOL    HW2  627   0.222   0.896   3.133 -2.5651  1.3985  1.3535
  210SOL     OW  628   1.698   0.553   1.261  0.2302  0.4818 -0.2729
  210SOL    HW1  629   1.630   0.590   1.195 -1.7637 -0.9486 -0.3625
  210SOL    HW2  630   1.798   0.547   1.227  0.2712  0.8684 -0.2032
  211SOL     OW  631   2.160   1.021   1.576  0.5885  0.2474  0.1754
  211SOL    HW1  632   2.160   1.012   1.680  2.9592  2.8258 -3.0954
  211SOL    HW2  633   2.220   1.101   1.548  3.7515 -0.4027  1.7262
  212SOL     OW  634   0.055   1.024   1.479 -0.0924  0.4077 -0.2868
  212SOL    HW1  635   0.087   1.120   1.512  2.8383  1.4658  0.2429
  212SOL    HW2  636   0.091   0.945   1.540  1.2036  0.1154  0.7286
  213SOL     OW  637   2.817   0.109   0.337 -0.0578 -0.9532  0.6657
  213SOL    HW1  638   2.901   0.045   0.331 -1.3777  1.3595  0.2789
  213SOL    HW2  639   2.727   0.078   0.289 -0.5713 -1.1556 -0.5429
  214SOL     OW  640   2.156   0.316   2.351 -0.0970 -0.2207  0.0984
  214SOL    HW1  641   2.173   0.371   2.438  1.2012  2.2058 -1.4149
  214SOL    HW2  642   2.151   0.210   2.362  1.2491  3.2500  0.4602
  215SOL     OW  643   1.652   2.215   2.038  0.3689  0.7622  0.2275
  215SOL    HW1  644   1.744   2.254   2.028  0.7010 -0.8042  2.2142
  215SOL    HW2  645   1.580   2.285   2.046 -0.5654  0.1896  0.9128
  216SOL     OW  646   2.205   0.535   0.728  0.3795  0.0814  0.2766
  216SOL    HW1  647   2.183   0.502   0.629 -2.9741 -3.4476 -3.9946
  216SOL    HW2  648   2.256   0.459   0.777  0.8746  2.1933 -0.0913
  217SOL     OW  649   0.923   2.746   2.577 -0.0240 -0.8397 -0.4700
  217SOL    HW1  650   0.952   2.675   2.653 -0.3563 -2.3675  2.2458
  217SOL    HW2  651   0.871   2.709   2.494  2.2570  1.6616  0.0665
  218SOL     OW  652   1.861   1.451   0.037 -0.0506 -0.4700 -0.0456
  218SOL    HW1  653   1.757   1.464   0.029  0.1237  3.6000  0.5258
  218SOL    HW2  654   1.890   1.372   0.094  0.4472 -1.9438 -3.3212
  219SOL     OW  655   2.463   1.275   2.522  0.1049  0.2924 -0.1470
  219SOL    HW1  656   2.479   1.217   2.438  0.7853  2.4974 -0.6155
  219SOL    HW2  657   2.466   1.224   2.613 -1.2365  0.8395 -1.2331
  220SOL     OW  658   1.389   1.035   1.347 -0.3495 -0.3286 -0.5749
  220SOL    HW1  659   1.469   0.975   1.376  1.3680 -0.3446 -1.7716
  220SOL    HW2  660   1.379   1.052   1.245  0.4295 -0.5083 -1.7436
  221SOL     OW  661   1.397   0.979   2.172 -0.1923 -0.0682  0.1206
  221SOL    HW1  662   1.358   1.032   2.093  0.2049 -3.1044  1.6587
  221SOL    HW2  663   1.476   1.033   2.221  4.3454  0.8745 -0.5775
  222SOL     OW  664   1.161   0.074   1.223  0.3429  0.0281  0.3967
  222SOL    HW1  665   1.196   0.128   1.304  0.3779 -0.0541 -0.9942
  222SOL    HW2  666   1.130   0.132   1.143  1.0787 -0.2281 -0.8234
  223SOL     OW  667   2.713   0.961   2.107  0.2191  0.0223  0.1853
  223SOL    HW1  668   2.673   1.044   2.064  1.1318  0.9852  2.9684
  223SOL    HW2  669   2.804   0.976   2.154  0.3743 -1.0592  1.6924
  224SOL     OW  670   1.564   1.020   2.774 -0.6413  0.0101 -0.3861
  224SOL    HW1  671   1.594   0.941   2.710  3.2656  2.3612  3.2985
  224SOL    HW2  672   1.590   1.108   2.730  1.9432 -0.7499 -1.6504
  225SOL     OW  673   2.947   2.672   2.915 -0.1175 -0.2155  0.2865
  225SOL    HW1  674   2.871   2.644   2.854  1.8356 -2.7148  1.4994
  225SOL    HW2  675   3.008   2.744   2.878  0.1741  1.0109 -2.4754
  226SOL     OW  676   2.390   1.517   2.797  0.3961  0.6265 -0.5812
  226SOL    HW1  677   2.458   1.489   2.725 -0.4674  0.9614  0.9976
  226SOL    HW2  678   2.384   1.460   2.886 -1.3524  0.6473 -2.0864
  227SOL     OW  679   0.839   0.240   3.074  0.1639  0.0125 -0.7136
  227SOL    HW1  680   0.911   0.311   3.044  0.4603  0.3429 -0.0416
  227SOL    HW2  681   0.792   0.197   2.986 -0.8967  1.1955 -2.6827
  228SOL     OW  682   2.451   0.665   2.853  0.3619  0.0660 -0.2625
  228SOL    HW1  683   2.443   0.707   2.757  1.5311  1.4444  0.3360
  228SOL    HW2  684   2.513   0.585   2.851 -1.0733  0.5706 -1.7650
  229SOL     OW  685   0.453   0.513   1.824  0.7085  0.7437 -0.1436
  229SOL    HW1  686   0.537   0.576   1.823  2.2823  1.3415 -2.5576
  229SOL    HW2  687   0.447   0.452   1.742  0.6660  2.0482  3.2641
  230SOL     OW  688   1.888   1.211   1.958 -0.6414 -0.2286 -0.6513
  230SOL    HW1  689   1.936   1.295   1.924  0.2442  0.0048  1.3210
  230SOL    HW2  690   1.835   1.238   2.045 -0.0397  0.3314 -1.1420
  231SOL     OW  691   0.620   1.066   3.090 -0.1464  0.2276 -0.1330
  231SOL    HW1  692   0.724   1.103   3.081  2.5240 -1.7547  0.5665
  231SOL    HW2  693   0.561   1.142   3.115 -0.2520  0.0618 -1.0384
  232SOL     OW  694   2.415   3.061   2.796 -0.2998 -0.0372 -0.4637
  232SOL    HW1  695   2.498   2.998   2.794  0.5288 -1.4757 -0.9730
  232SOL    HW2  696   2.411   3.128   2.718 -0.5106  2.3234  0.3425
  233SOL     OW  697   1.761   1.164   1.086  0.7702 -0.3708 -0.3439
  233SOL    HW1  698   1.848   1.216   1.070 -0.2775  1.3596  2.9421
  233SOL    HW2  699   1.772   1.098   1.161  1.0122  0.0009 -1.3729
  234SOL     OW  700   1.654   2.560   1.834 -0.1368 -0.5638  0.3694
  234SOL    HW1  701   1.627   2.603   1.925 -0.2957 -2.9293 -1.9564
  234SOL    HW2  702   1.588   2.482   1.799 -1.6937 -1.0593  1.1504
  235SOL     OW  703   3.094   2.972   2.856 -0.0707  0.3659 -0.3480
  235SOL    HW1  704   3.065   2.977   2.755  0.4655 -1.3163  0.2896
  235SOL    HW2  705   3.035   3.028   2.922  0.9785  1.3606 -0.7091
  236SOL     OW  706   2.933   0.681   0.049 -0.8744  0.3493  0.0659
  236SOL    HW1  707   2.990   0.694   0.134 -0.8849 -0.1476  2.2097
  236SOL    HW2  708   2.965   0.599  -0.001 -1.9241  0.8536  0.5126
  237SOL     OW  709   1.457   1.657   0.898  0.0880  0.6809 -0.4193
  237SOL    HW1  710   1.525   1.583   0.915  0.4726 -0.3896  0.5583
  237SOL    HW2  711   1.462   1.737   0.970 -1.3548 -1.0381  0.2552
  238SOL     OW  712   1.899   1.195   0.772  0.1943  0.4735 -0.4820
  238SOL    HW1  713   1.934   1.232   0.860 -1.2565 -3.0155 -0.4117
  238SOL    HW2  714   1.796   1.202   0.774 -3.5549 -0.1590 -0.1397
  239SOL     OW  715   2.018   0.215   2.747 -0.0120 -0.5455  0.2407
  239SOL    HW1  716   2.076   0.186   2.831 -2.6667  1.0999 -1.9853
  239SOL    HW2  717   1.947   0.285   2.770  0.7316  0.9043  1.8537
  240SOL     OW  718   0.938   0.712   0.231  0.5910 -0.2874 -0.1043
  240SOL    HW1  719   1.017   0.655   0.202  0.9687 -0.6621  0.3179
  240SOL    HW2  720   0.917   0.702   0.330 -2.2501 -1.2257 -0.0343
  241SOL     OW  721   0.553   0.133   0.333  0.5767  0.0681 -0.6490
  241SOL    HW1  722   0.639   0.185   0.316 -1.7396 -2.5268 -1.9883
  241SOL    HW2  723   0.541   0.047   0.277 -4.0768 -0.3873 -1.1431
  242SOL     OW  724   0.646   2.566   1.184  0.0971 -0.0101 -0.4962
  242SOL    HW1  725   0.648   2.538   1.284  2.8988 -3.3054  2.0586
  242SOL    HW2  726   0.610   2.664   1.175  0.5709  0.3134 -1.0730
  243SOL     OW  727   1.055   0.600   2.372  0.4518  0.4719  0.3378
  243SOL    HW1  728   0.958   0.614   2.336 -2.4783 -1.8413 -3.0547
  243SOL    HW2  729   1.052   0.550   2.467 -2.7568 -1.6144 -0.3703
  244SOL     OW  730   2.684   1.952   2.350 -0.6409  0.0983  0.0633
  244SOL    HW1  731   2.719   1.938   2.254 -0.4730  1.3918  1.9697
  244SOL    HW2  732   2.611   1.889   2.379  0.2189  1.8589 -0.5276
  245SOL     OW  733   2.165   1.007   2.199 -0.7165  0.4001  0.8671
  245SOL    HW1  734   2.256   0.964   2.231  0.4635 -0.1843 -0.4680
  245SOL    HW2  735   2.140   1.095   2.243 -0.4278  0.5746  0.4415
  246SOL     OW  736   0.295   2.841   1.804  0.1598  0.1197 -0.4435
  246SOL    HW1  737   0.214   2.825   1.737  0.9147 -2.1452 -0.1992
  246SOL    HW2  738   0.353   2.918   1.775  1.9338 -3.1144  0.3616
  247SOL     OW  739   2.229   0.591   3.015  0.5173 -0.3284 -0.4242
  247SOL    HW1  740   2.291   0.612   2.933  1.8786 -1.1705  1.0025
  247SOL    HW2  741   2.157   0.669   3.037 -4.3997  0.5742  0.4737
  248SOL     OW  742   2.200   1.807   1.594  0.1742 -0.4578 -0.1899
  248SOL    HW1  743   2.277   1.796   1.659  0.6561 -0.5296 -1.6290
  248SOL    HW2  744   2.104   1.772   1.630 -4.5546 -1.2343 -1.5098
  249SOL     OW  745   1.875   1.899   1.803 -0.5469 -0.0695  0.1158
  249SOL    HW1  746   1.878   1.810   1.751 -0.1535  0.5802 -0.1832
  249SOL    HW2  747   1.963   1.920   1.855  0.3757  0.8760  0.2325
  250SOL     OW  748   0.964   0.721   1.892 -0.6250  0.3229 -0.2362
  250SOL    HW1  749   0.996   0.662   1.969 -0.0171  0.1293 -0.5775
  250SOL    HW2  750   0.971   0.678   1.797  1.4822  0.9386  1.8175
  251SOL     OW  751   3.040   1.543   2.525 -0.0394 -0.0882  0.3556
  251SOL    HW1  752   3.013   1.643   2.543 -0.0402  0.3997 -0.6143
  251SOL    HW2  753   2.960   1.479   2.508 -1.1966  1.1128 -0.8277
  252SOL     OW  754   1.556   0.862   1.582  0.6601 -0.0797  0.0238
  252SOL    HW1  755   1.624   0.905   1.517 -0.2989  0.9855 -0.5549
  252SOL    HW2  756   1.544   0.913   1.673 -3.5120 -0.3711 -0.0276
  253SOL     OW  757   0.934   1.520   0.436 -0.2969  0.4178 -0.7379
  253SOL    HW1  758   0.896   1.553   0.346  0.6726 -0.8663 -1.3328
  253SOL    HW2  759   0.853   1.524   0.507  0.6393 -1.7198  1.8353
  254SOL     OW  760   2.048   2.199   1.598  0.5638  0.1460  0.8157
  254SOL    HW1  761   2.000   2.124   1.543  0.4203 -0.9118 -2.5719
  254SOL    HW2  762   1.984   2.245   1.662 -0.6012  0.1225 -1.3670
  255SOL     OW  763   0.132   1.154   2.909  0.1295  0.0769 -0.0886
  255SOL    HW1  764   0.148   1.254   2.896 -3.7378  1.9243 -0.7120
  255SOL    HW2  765   0.211   1.100   2.956 -0.8772 -0.5640 -2.4578
  256SOL     OW  766   2.828   1.418   1.780 -0.3874  0.4347 -0.4036
  256SOL    HW1  767   2.780   1.483   1.714  4.1200 -0.5189  0.4439
  256SOL    HW2  768   2.818   1.315   1.759 -0.4409 -1.2641 -0.7457
  257SOL     OW  769   0.848   0.247   1.877  1.2590  0.3219  0.5784
  257SOL    HW1  770   0.913   0.290   1.812 -2.8312  0.3405  1.2106
  257SOL    HW2  771   0.840   0.139   1.866 -0.5179  1.4250 -0.6985
  258SOL     OW  772   2.962   1.158   0.535  0.4010 -0.1581 -0.5428
  258SOL    HW1  773   2.876   1.206   0.570  1.3100 -1.1254  0.4674
  258SOL    HW2  774   3.048   1.179   0.596 -0.3592  3.3052  0.8860
  259SOL     OW  775   0.470   2.937   2.987  0.2647  0.4850  0.1932
  259SOL    HW1  776   0.392   2.898   3.044  0.7057  2.4707  1.4854
  259SOL    HW2  777   0.499   2.858   2.925  0.3124 -2.8290 -0.5000
  260SOL     OW  778   2.721   0.751   2.746  0.0579  0.0679 -0.2019
  260SOL    HW1  779   2.634   0.777   2.694  1.8433 -0.0684  3.0531
  260SOL    HW2  780   2.716   0.666   2.806 -0.4333  0.4205 -3.3059
  261SOL     OW  781   2.699   1.302   1.302 -0.1307 -0.0066  0.4469
  261SOL    HW1  782   2.656   1.241   1.231  3.1320 -2.5667  1.5150
  261SOL    HW2  783   2.763   1.253   1.364 -0.6376  1.9944 -1.8374
  262SOL     OW  784   1.373   2.975   2.078 -0.0563 -0.1830 -0.2627
  262SOL    HW1  785   1.401   3.066   2.035 -1.9421 -1.1635 -0.2123
  262SOL    HW2  786   1.284   2.935   2.047 -1.2702  0.2364 -1.2666
  263SOL     OW  787   0.809   0.634   2.272  0.0941 -0.1794  0.7293
  263SOL    HW1  788   0.765   0.549   2.235 -1.0772  2.3190  1.3914
  263SOL    HW2  789   0.788   0.718   2.209  0.8288  2.4491 -0.0996
  264SOL     OW  790   2.267   0.806   0.370 -0.0802  0.1856  0.6096
  264SOL    HW1  791   2.283   0.756   0.277 -1.4352  1.4495 -1.2857
  264SOL    HW2  792   2.360   0.841   0.404  0.2026  2.6016 -1.2690
  265SOL     OW  793   0.926   2.401   2.594 -0.4044  0.0453 -0.3940
  265SOL    HW1  794   0.968   2.463   2.664  0.2738  1.0272  0.7302
  265SOL    HW2  795   0.884   2.321   2.643  0.9102  2.9672 -0.6335
  266SOL     OW  796   1.296   1.769   3.048 -0.1998  0.1305 -0.1543
  266SOL    HW1  797   1.307   1.838   3.125 -2.6023  1.7385  0.2269
  266SOL    HW2  798   1.387   1.729   3.021  2.9809 -1.4661  1.6195
  267SOL     OW  799   1.057   0.050   2.322 -0.1198 -0.0069  0.3886
  267SOL    HW1  800   0.951   0.048   2.320  1.8745  2.4923  2.2830
  267SOL    HW2  801   1.090   0.059   2.222  4.3212 -0.7817  0.5676
  268SOL     OW  802   0.843   1.249   1.040  0.2499  0.2459  0.2853
  268SOL    HW1  803   0.783   1.323   1.080 -1.1630 -2.9346 -1.6383
  268SOL    HW2  804   0.924   1.287   0.985  1.1324  0.7852 -1.8924
  269SOL     OW  805   2.372   2.527   1.615 -0.0607  0.6551 -1.2600
  269SOL    HW1  806   2.426   2.439   1.635 -0.8834 -0.5361  1.6677
  269SOL    HW2  807   2.355   2.574   1.709  0.1573 -0.6239  1.0267
  270SOL     OW  808   0.160   2.996   1.990  0.0660 -0.1326 -0.2099
  270SOL    HW1  809   0.201   2.923   1.923  0.5145  0.8508 -1.5817
  270SOL    HW2  810   0.111   2.951   2.067 -1.2939  0.6194 -3.7704
  271SOL     OW  811   0.491   1.382   1.130  0.3218  0.5744 -0.0518
  271SOL    HW1  812   0.465   1.399   1.029  0.1820 -3.4769  1.1049
  271SOL    HW2  813   0.412   1.387   1.192 -1.3222 -2.1649 -3.0443
  272SOL     OW  814   1.912   0.000   1.925 -0.3394 -0.1687 -0.2374
  272SOL    HW1  815   1.837  -0.063   1.887  0.1449 -0.1232  1.7125
  272SOL    HW2  816   1.921   0.097   1.887  1.1050  0.4187 -0.2751
  273SOL     OW  817   1.497   1.492   2.806 -0.8749  0.0285  0.1991
  273SOL    HW1  818   1.400   1.507   2.772 -1.3309 -0.8971 -0.7316
  273SOL    HW2  819   1.503   1.485   2.908 -0.0253  2.2524  0.7475
  274SOL     OW  820   1.100   0.518   2.022  0.2164 -0.1218 -0.5140
  274SOL    HW1  821   1.053   0.422   2.040  0.0563 -0.7152  0.2289
  274SOL    HW2  822   1.185   0.535   2.081  0.9099  4.1530 -0.8068
  275SOL     OW  823   0.646   2.146   1.900  0.0521 -0.3996 -0.5568
  275SOL    HW1  824   0.607   2.243   1.927  2.6746  1.6080 -2.3525
  275SOL    HW2  825   0.591   2.069   1.941 -0.7950  0.5788  1.6322
  276SOL     OW  826   2.243   0.940   2.845  0.2392 -0.5394  0.2328
  276SOL    HW1  827   2.188   0.992   2.771 -1.1817  0.9855  1.3428
  276SOL    HW2  828   2.177   0.897   2.916 -1.5073 -0.9782  0.8299
  277SOL     OW  829   3.083   0.782   0.272  0.0670 -0.3951 -0.1746
  277SOL    HW1  830   3.170   0.837   0.252 -0.1174 -0.3825  0.9315
  277SOL    HW2  831   3.096   0.720   0.353 -1.3837  2.1697  0.4048
  278SOL     OW  832   0.258   0.231   3.067 -0.0969 -0.0504 -0.4007
  278SOL    HW1  833   0.317   0.175   3.003  1.1876  1.5265 -1.6974
  278SOL    HW2  834   0.299   0.324   3.087 -1.1936 -1.8893  0.1764
  279SOL     OW  835   0.255   0.031   0.884  0.1158 -1.0739 -0.2694
  279SOL    HW1  836   0.274   0.007   0.987 -0.8593  0.2373  1.0846
  279SOL    HW2  837   0.247  -0.047   0.819  1.1518 -0.3065 -2.6492
  280SOL     OW  838   1.631   2.928   2.441  0.4194 -0.3537 -0.0721
  280SOL    HW1  839   1.685   2.995   2.499  0.1110  2.0780  1.9207
  280SOL    HW2  840   1.559   2.974   2.380 -0.2037 -0.6349  4.7088
  281SOL     OW  841   0.517   0.957   2.275 -0.0232 -0.5036  0.2491
  281SOL    HW1  842   0.539   0.872   2.219  3.8870 -1.6568  0.0861
  281SOL    HW2  843   0.483   0.937   2.371 -2.3864  1.6747  1.4779
  282SOL     OW  844   1.786   2.452   0.513  0.2046 -0.0146  0.4008
  282SOL    HW1  845   1.705   2.387   0.487  1.9612  0.9582  0.8350
  282SOL    HW2  846   1.756   2.550   0.531  1.9453 -1.4009  1.2403
  283SOL     OW  847   1.159   0.879   0.733  0.2080 -0.1552  0.1148
  283SOL    HW1  848   1.171   0.823   0.822  0.5929  3.1697  3.0345
  283SOL    HW2  849   1.133   0.980   0.755 -0.8100  0.7102 -1.5658
  284SOL     OW  850   2.227   2.814   2.477  0.2906 -0.0133 -0.1198
  284SOL    HW1  851   2.325   2.811   2.436 -2.3885 -2.1410 -1.4390
  284SOL    HW2  852   2.219   2.854   2.571 -0.9531 -3.2207 -0.6345
  285SOL     OW  853   1.324   3.087   2.604  0.0193 -0.3591  0.3549
  285SOL    HW1  854   1.379   3.071   2.519 -0.8165 -2.5772  1.2128
  285SOL    HW2  855   1.251   3.161   2.599 -2.1906 -1.4380 -0.2369
  286SOL     OW  856   0.354   0.463   0.697 -0.8146 -0.4930 -0.9279
  286SOL    HW1  857   0.340   0.397   0.773 -0.2393  2.2019 -0.6811
  286SOL    HW2  858   0.360   0.408   0.606 -0.9946  0.4487 -3.2354
  287SOL     OW  859   0.088   1.299   2.617  0.2631  0.0484 -0.0145
  287SOL    HW1  860   0.033   1.231   2.668  1.5278  4.5388 -0.7519
  287SOL    HW2  861   0.034   1.383   2.587 -3.1017 -0.8058  0.4327
  288SOL     OW  862   1.520   2.743   1.656 -0.0179  0.3029  0.1672
  288SOL    HW1  863   1.568   2.665   1.709  2.2428 -0.6737  0.1320
  288SOL    HW2  864   1.560   2.750   1.562  0.4591 -1.4896  1.6163
  289SOL     OW  865   0.637   2.762   0.827  0.1465 -0.1415 -0.1685
  289SOL    HW1  866   0.656   2.803   0.732 -0.9167  2.8126  0.1288
  289SOL    HW2  867   0.603   2.838   0.883 -1.5714  1.6475 -0.7839
  290SOL     OW  868   2.820   1.160   1.728  0.2523  0.3023 -0.1636
  290SOL    HW1  869   2.746   1.089   1.727 -1.0318  1.4749 -2.0983
  290SOL    HW2  870   2.908   1.133   1.784  4.2870 -1.6862 -1.1236
  291SOL     OW  871   1.939   3.073   0.051 -0.1233 -0.0373 -0.2087
  291SOL    HW1  872   1.974   3.088   0.150 -0.0586  1.6493 -0.5041
  291SOL    HW2  873   2.020   3.097  -0.014  0.6724 -0.9289 -2.2505
  292SOL     OW  874   2.986   1.163   3.061  0.2325  0.0996  0.0957
  292SOL    HW1  875   2.931   1.238   3.016 -1.0982  0.6784 -1.1271
  292SOL    HW2  876   3.071   1.145   3.015 -1.5764 -0.3401  2.3737
  293SOL     OW  877   0.579   2.067   0.298  0.2633  0.0271 -0.0388
  293SOL    HW1  878   0.541   2.138   0.365 -0.0609 -0.8504 -0.2717
  293SOL    HW2  879   0.685   2.058   0.310  2.3428 -2.1522 -1.7448
  294SOL     OW  880   1.878   2.340   1.760  0.0244  0.0293 -0.6672
  294SOL    HW1  881   1.885   2.337   1.866  1.1707  1.7091  0.1728
  294SOL    HW2  882   1.834   2.428   1.725  3.1410 -0.0610  0.3348
  295SOL     OW  883   1.020   1.042   0.439 -0.4228  0.1259  0.3804
  295SOL    HW1  884   1.113   0.999   0.458 -0.1511  2.3233 -1.1926
  295SOL    HW2  885   0.965   1.041   0.527 -2.7357  0.6237  2.2021
  296SOL     OW  886   1.092   2.160   2.738 -0.4470  0.2220 -0.0000
  296SOL    HW1  887   0.998   2.184   2.776  2.0124 -0.5168  1.8647
  296SOL    HW2  888   1.097   2.098   2.654 -0.6286  0.9180 -1.9550
  297SOL     OW  889   1.277   0.534   1.169 -0.5711 -0.1363 -0.3303
  297SOL    HW1  890   1.320   0.468   1.239  1.0627  3.8434  0.1879
  297SOL    HW2  891   1.351   0.604   1.138 -0.7478 -1.0508  0.4612
  298SOL     OW  892   0.498   1.332   2.921 -0.1064 -0.4371 -0.3636
  298SOL    HW1  893   0.435   1.274   2.983 -1.0579 -2.2609 -0.2516
  298SOL    HW2  894   0.538   1.276   2.843  0.4631 -0.3425 -0.0922
  299SOL     OW  895   0.439   0.207   1.263 -0.0577  0.1264  0.0205
  299SOL    HW1  896   0.392   0.294   1.231  1.5572  0.4373  0.5377
  299SOL    HW2  897   0.427   0.185   1.366  0.9047 -3.9076  1.4881
  300SOL     OW  898   1.347   1.795   2.573  0.4185  0.6145  0.4950
  300SOL    HW1  899   1.333   1.697   2.529  0.3386 -1.1723 -2.1784
  300SOL    HW2  900   1.436   1.802   2.633  0.9649 -2.1221  1.6600
  301SOL     OW  901   0.404   0.365   0.439  0.1705  0.0147 -0.2526
  301SOL    HW1  902   0.306   0.334   0.433  0.4997  1.4110  0.3272
  301SOL    HW2  903   0.460   0.284   0.416 -1.4322 -0.3157 -0.4913
  302SOL     OW  904   1.250   2.459   2.297  0.2441  0.1728  0.3308
  302SOL    HW1  905   1.149   2.438   2.316  2.4027 -0.5276  2.4029
  302SOL    HW2  906   1.309   2.375   2.307 -0.1491 -0.4782 -4.1516
  303SOL     OW  907   0.962   2.437   0.832 -0.6090  0.6319  0.4741
  303SOL    HW1  908   1.025   2.469   0.758  0.1803 -1.7658 -2.3065
  303SOL    HW2  909   0.958   2.490   0.921 -2.0618  0.8727  0.9133
  304SOL     OW  910   0.149   1.919   0.670  0.1750  0.1712 -0.1071
  304SOL    HW1  911   0.212   1.871   0.607  0.5570  1.3938  3.4931
  304SOL    HW2  912   0.048   1.923   0.642 -3.1693  0.7382 -1.3821
  305SOL     OW  913   1.605   0.857   0.685  0.5079  1.0269  0.1376
  305SOL    HW1  914   1.573   0.889   0.593 -1.0000 -3.7060  1.3946
  305SOL    HW2  915   1.622   0.756   0.692  0.7894  0.0746 -3.1107
  306SOL     OW  916   0.397   1.849   1.959  0.1335 -0.1218 -0.0931
  306SOL    HW1  917   0.488   1.822   1.919  1.1294 -1.8711  0.5554
  306SOL    HW2  918   0.401   1.892   2.054 -1.5809  0.3796 -0.3752
  307SOL     OW  919   2.995   0.901   2.500  0.0717 -0.1763  0.8352
  307SOL    HW1  920   3.034   0.934   2.591 -0.2628 -0.1093 -0.4593
  307SOL    HW2  921   2.939   0.812   2.508 -0.5006 -0.0442 -1.9699
  308SOL     OW  922   1.505   2.682   2.827 -0.2620  0.2782 -0.4053
  308SOL    HW1  923   1.485   2.715   2.732  0.8377 -1.6553 -0.5171
  308SOL    HW2  924   1.431   2.621   2.865 -2.8298  0.0341  1.1632
  309SOL     OW  925   1.264   0.174   1.775 -0.3182 -0.0722  0.1497
  309SOL    HW1  926   1.348   0.123   1.816  1.1335  0.1988 -0.2975
  309SOL    HW2  927   1.266   0.176   1.670 -0.1226 -1.5050 -0.9174
  310SOL     OW  928   1.469   2.567   0.678  0.5097 -0.7245 -0.1721
  310SOL    HW1  929   1.440   2.576   0.774  0.4527  1.0107  2.4769
  310SOL    HW2  930   1.555   2.619   0.652 -0.5546 -1.9952 -0.3685
  311SOL     OW  931   1.046   0.971   1.756 -0.1884 -0.2548 -0.2919
  311SOL    HW1  932   1.001   0.879   1.777 -1.7337 -0.4159  0.9034
  311SOL    HW2  933   1.126   0.966   1.689  1.1504 -0.6591 -1.2864
  312SOL     OW  934   1.550   0.632   1.048 -0.0319  0.0956  0.1422
  312SOL    HW1  935   1.575   0.733   1.041  2.2104 -1.4281 -1.9783
  312SOL    HW2  936   1.498   0.599   0.964 -0.1601 -3.6188 -0.2922
  313SOL     OW  937   1.625   1.233   0.761 -0.6401 -0.1365 -0.2950
  313SOL    HW1  938   1.538   1.274   0.803 -0.6168 -0.0554 -0.0813
  313SOL    HW2  939   1.612   1.175   0.679  3.3615 -0.5909  0.0725
  314SOL     OW  940   2.967   3.081   3.080  0.4759  0.1211 -0.2671
  314SOL    HW1  941   2.972   3.091   3.180  0.0959 -0.5996 -1.8204
  314SOL    HW2  942   2.892   3.018   3.049 -1.1803 -0.2945 -0.4920
  315SOL     OW  943   1.184   0.205   2.791  0.1733 -0.1143  0.0899
  315SOL    HW1  944   1.101   0.191   2.725 -0.7778  0.7660 -1.0093
  315SOL    HW2  945   1.190   0.139   2.868  0.6947  2.3424  0.1031
  316SOL     OW  946   1.731   2.086   0.881  0.7272 -0.2824 -0.1451
  316SOL    HW1  947   1.659   2.103   0.959  0.4636  0.3684  0.5806
  316SOL    HW2  948   1.751   2.178   0.844 -1.4743  0.0899  1.9152
  317SOL     OW  949   1.171   0.695   2.770 -0.2885  0.3611 -0.2213
  317SOL    HW1  950   1.150   0.732   2.866  1.4431 -0.4565  1.4060
  317SOL    HW2  951   1.109   0.619   2.733  0.6672 -2.6281 -0.5050
  318SOL     OW  952   1.437   3.080   2.322 -0.5984  0.5093  0.0049
  318SOL    HW1  953   1.471   3.170   2.282  1.9811  1.0243 -0.3604
  318SOL    HW2  954   1.419   3.016   2.243 -3.4289 -1.1202 -1.4730
  319SOL     OW  955   0.677   2.391   3.018 -0.1409  0.1489  0.1395
  319SOL    HW1  956   0.644   2.306   3.071  0.6011  0.4746 -1.5134
  319SOL    HW2  957   0.720   2.369   2.928  0.6156  1.0954  2.6120
  320SOL     OW  958   1.680   2.225   0.406  0.1269  0.0400 -0.1714
  320SOL    HW1  959   1.768   2.181   0.426 -3.4780 -0.0195  0.1274
  320SOL    HW2  960   1.607   2.160   0.433  0.4055 -1.1617 -3.2792
  321SOL     OW  961   1.684   2.712   0.563 -0.3322  0.2081 -0.0015
  321SOL    HW1  962   1.602   2.761   0.520 -3.4831 -1.9804  2.5631
  321SOL    HW2  963   1.771   2.764   0.557 -1.8483 -1.2315 -0.4562
  322SOL     OW  964   2.574   1.140   2.318 -0.0127 -0.2811  0.1398
  322SOL    HW1  965   2.659   1.093   2.363 -1.9791  0.8289  0.4841
  322SOL    HW2  966   2.520   1.078   2.261 -0.4197  2.5726 -0.9553
  323SOL     OW  967   1.153   2.674   0.799 -0.1564  0.5639 -0.2443
  323SOL    HW1  968   1.124   2.646   0.700  1.3836 -0.6526 -1.1646
  323SOL    HW2  969   1.130   2.773   0.815  2.0621  2.6568  1.8277
  324SOL     OW  970   0.164   2.535   2.432 -0.1825  0.1976 -0.1471
  324SOL    HW1  971   0.090   2.477   2.478 -1.5984 -0.0205  0.8832
  324SOL    HW2  972   0.166   2.633   2.469 -1.2615  0.0297 -2.3794
  325SOL     OW  973   1.250   3.084   0.452 -0.1676 -0.3360 -0.0324
  325SOL    HW1  974   1.257   3.130   0.359 -0.5921  2.3758  0.9162
  325SOL    HW2  975   1.311   3.146   0.513  0.3184  0.7325  0.9103
  326SOL     OW  976   2.495   0.853   3.099 -0.2091  0.3628  0.8911
  326SOL    HW1  977   2.415   0.800   3.056 -1.8708  2.8276 -0.2627
  326SOL    HW2  978   2.563   0.791   3.145 -0.5747 -0.1526 -1.6520
  327SOL     OW  979   2.864   0.292   0.563  0.4177  0.0819  0.0307
  327SOL    HW1  980   2.850   0.234   0.475  1.6925  2.0720  0.8537
  327SOL    HW2  981   2.877   0.239   0.649  0.1073  1.3590 -2.9529
  328SOL     OW  982   2.579   0.642   0.398  0.3119 -0.7231 -0.1757
  328SOL    HW1  983   2.606   0.695   0.482 -0.3620 -1.3187  0.4306
  328SOL    HW2  984   2.517   0.560   0.412 -0.7711  0.0502 -1.1812
  329SOL     OW  985   2.936   3.015   2.196  0.3310 -0.3888  0.5640
  329SOL    HW1  986   3.016   2.949   2.199  0.5702 -0.4045  0.4854
  329SOL    HW2  987   2.960   3.112   2.204  1.7032 -1.5446  1.5812
  330SOL     OW  988   0.531   0.194   1.846  0.1786  0.0159 -0.2250
  330SOL    HW1  989   0.622   0.241   1.822  1.4455 -1.1623  1.2698
  330SOL    HW2  990   0.524   0.174   1.950 -0.1101  1.7919 -2.6524
  331SOL     OW  991   3.062   1.873   1.142  0.6153 -0.9318 -0.4829
  331SOL    HW1  992   3.044   1.935   1.063 -2.1614  0.8150  3.3282
  331SOL    HW2  993   2.975   1.853   1.192  0.9735  1.8579  1.1140
  332SOL     OW  994   0.378   1.192   0.058 -0.1609 -0.2645 -0.2516
  332SOL    HW1  995   0.327   1.109   0.016 -0.6681  0.8341 -1.7289
  332SOL    HW2  996   0.356   1.201   0.162 -1.5533  1.2779  0.7832
  333SOL     OW  997   2.883   0.950   0.362  0.4643  0.1333 -0.1230
  333SOL    HW1  998   2.936   1.033   0.414  0.4686  2.9756 -0.4527
  333SOL    HW2  999   2.953   0.889   0.310 -2.7009 -0.0938  3.8983
  334SOL     OW 1000   1.743   1.146   1.716  0.0797  0.1186  0.1581
  334SOL    HW1 1001   1.807   1.138   1.635  1.5508  0.1942 -1.5101
  334SOL    HW2 1002   1.795   1.150   1.806 -2.0372 -2.3563  3.2182
  335SOL     OW 1003   1.882   2.789   2.633  0.6705 -0.3375 -0.4706
  335SOL    HW1 1004   1.808   2.768   2.703  0.0898  1.1020 -1.4491
  335SOL    HW2 1005   1.970   2.819   2.674 -0.2484 -0.4407  0.7781
  336SOL     OW 1006   0.279   0.034   2.723 -0.0274  0.3902  0.3658
  336SOL    HW1 1007   0.333   0.108   2.778  1.2346  1.3613  2.3038
  336SOL    HW2 1008   0.249  -0.046   2.781  0.5937 -0.0700  0.5170
  337SOL     OW 1009   0.900   2.861   2.982  0.3166  0.2268  0.6352
  337SOL    HW1 1010   0.889   2.785   3.060  0.2152  1.4502 -0.5696
  337SOL    HW2 1011   0.977   2.919   3.005  0.1060 -0.1783  1.9419
  338SOL     OW 1012   3.088   0.934   0.709  0.2020  0.5160  0.4512
  338SOL    HW1 1013   2.987   0.916   0.730 -0.7582  1.5714  1.6410
  338SOL    HW2 1014   3.109   1.018   0.657 -0.4762 -0.1381  1.4244
  339SOL     OW 1015   1.745   1.314   2.172 -0.0374  0.4617  0.3438
  339SOL    HW1 1016   1.665   1.326   2.107  2.0743 -2.5877  0.7117
  339SOL    HW2 1017   1.773   1.394   2.228  2.8652 -2.1712 -2.8472
  340SOL     OW 1018   2.227   0.811   1.078  0.1303  0.3986 -0.5108
  340SOL    HW1 1019   2.152   0.874   1.119 -0.3885 -0.3849  1.0074
  340SOL    HW2 1020   2.200   0.711   1.068 -0.3557 -2.5500 -2.4064
  341SOL     OW 1021   1.925   2.104   0.393  0.1566  0.5135  0.2968
  341SOL    HW1 1022   1.929   2.131   0.291 -0.0008 -1.1056  2.2575
  341SOL    HW2 1023   2.015   2.065   0.426 -1.2055 -3.9176 -2.3297
  342SOL     OW 1024   2.175   2.102   2.719 -0.3897  0.0413 -0.0010
  342SOL    HW1 1025   2.209   2.005   2.729 -0.0819  0.0993  1.9991
  342SOL    HW2 1026   2.079   2.103   2.689  2.3124 -1.3274  1.5271
  343SOL     OW 1027   0.374   0.866   2.785 -0.2557  0.5192  0.8097
  343SOL    HW1 1028   0.363   0.915   2.694 -1.8030  1.7835 -0.1873
  343SOL    HW2 1029   0.474   0.858   2.822  1.8131  1.7346  0.1207
  344SOL     OW 1030   1.943   1.470   0.385 -0.3449 -0.3173 -0.8916
  344SOL    HW1 1031   1.963   1.401   0.311  1.5218 -1.2448 -0.3639
  344SOL    HW2 1032   1.849   1.453   0.430  0.9326 -3.6689  1.4864
  345SOL     OW 1033   1.349   2.194   2.841 -0.2289  0.2485  0.4633
  345SOL    HW1 1034   1.262   2.193   2.784 -0.0480 -2.1029 -0.5992
  345SOL    HW2 1035   1.430   2.157   2.784 -3.3330  1.5083 -3.0111
  346SOL     OW 1036   2.296   0.855   1.391 -0.3644 -0.4290  0.2519
  346SOL    HW1 1037   2.237   0.900   1.466  1.0430  0.2658 -0.4413
  346SOL    HW2 1038   2.289   0.900   1.296  0.2128 -3.0960 -1.7118
  347SOL     OW 1039   0.720   2.774   1.654  0.6825 -0.2728  0.1296
  347SOL    HW1 1040   0.788   2.799   1.577 -0.0911  1.2821  2.4569
  347SOL    HW2 1041   0.623   2.798   1.628 -0.7042 -0.3601 -0.2401
  348SOL     OW 1042   0.179   0.686   2.921  0.0081 -0.6216 -0.1666
  348SOL    HW1 1043   0.092   0.705   2.864 -0.1591  2.5384 -2.1967
  348SOL    HW2 1044   0.258   0.742   2.883  0.6687 -2.4208 -0.6909
  349SOL     OW 1045   1.829   0.429   2.829 -0.9301  0.5683  0.1180
  349SOL    HW1 1046   1.800   0.506   2.769 -1.7163  0.1919  2.9622
  349SOL    HW2 1047   1.817   0.443   2.931 -1.2247 -1.8937  1.0133
  350SOL     OW 1048   1.683   0.395   0.365 -0.4460 -0.3070 -0.2932
  350SOL    HW1 1049   1.756   0.379   0.440  0.4663  2.3238  1.3006
  350SOL    HW2 1050   1.682   0.494   0.342  2.5208  0.2391 -0.1431
  351SOL     OW 1051   0.823   0.850   2.095  0.1043 -0.4502  1.0206
  351SOL    HW1 1052   0.881   0.941   2.105 -1.0910  2.1191 -2.6682
  351SOL    HW2 1053   0.852   0.802   2.009 -1.1278  1.5806 -0.5041
  352SOL     OW 1054   2.061   1.327   0.587  0.1175 -0.5759  0.2309
  352SOL    HW1 1055   2.036   1.404   0.522 -0.8539  0.2954  1.3549
  352SOL    HW2 1056   1.981   1.288   0.639  0.2042  1.2649 -2.3884
  353SOL     OW 1057   2.211   2.745   1.100  0.5580 -0.1664 -0.0832
  353SOL    HW1 1058   2.239   2.671   1.168  0.9305 -3.9725  1.0761
  353SOL    HW2 1059   2.138   2.806   1.140 -1.9302 -0.5730  0.8218
  354SOL     OW 1060   0.209   1.446   2.893  0.3511 -0.5062 -0.0708
  354SOL    HW1 1061   0.192   1.500   2.805  1.5505  1.9127  1.2741
  354SOL    HW2 1062   0.313   1.431   2.905  0.9385 -1.9165 -1.1952
  355SOL     OW 1063   0.697   1.552   0.590  0.6311  0.5806  0.0106
  355SOL    HW1 1064   0.682   1.527   0.691 -2.3010 -0.8490 -0.5557
  355SOL    HW2 1065   0.648   1.480   0.529 -0.8337  1.8146  0.4181
  356SOL     OW 1066   0.930   0.292   2.129 -0.5387 -0.0009  0.3853
  356SOL    HW1 1067   1.015   0.228   2.129  1.2260 -1.1542  0.6365
  356SOL    HW2 1068   0.876   0.282   2.039  2.6046  2.1970 -0.1323
  357SOL     OW 1069   1.006   1.377   0.197 -0.4653 -0.0211 -0.6291
  357SOL    HW1 1070   1.067   1.313   0.141 -2.2252 -0.5959 -1.5965
  357SOL    HW2 1071   1.032   1.397   0.295 -1.5245  3.8690 -3.2607
  358SOL     OW 1072   1.706   1.459   0.507 -0.2296 -0.0861 -0.2883
  358SOL    HW1 1073   1.663   1.416   0.589  0.2945  1.5819 -3.3031
  358SOL    HW2 1074   1.665   1.416   0.418  1.2809 -0.2272  0.6033
  359SOL     OW 1075   1.589   2.591   0.224 -0.0846  0.0327 -0.4458
  359SOL    HW1 1076   1.570   2.493   0.196 -1.0068  1.4356 -1.4382
  359SOL    HW2 1077   1.515   2.633   0.282  0.3172  1.8256 -0.8898
  360SOL     OW 1078   0.777   0.449   0.585 -0.9338  0.1723 -0.2210
  360SOL    HW1 1079   0.711   0.504   0.526  1.4005 -2.7392  2.2179
  360SOL    HW2 1080   0.813   0.364   0.543  0.0774  2.2908 -1.8162
  361SOL     OW 1081   1.343   1.311   0.620 -0.4856 -0.6465 -0.0940
  361SOL    HW1 1082   1.358   1.326   0.723 -1.3200  0.8595 -1.6073
  361SOL    HW2 1083   1.254   1.360   0.596 -1.9546  0.2818 -1.1904
  362SOL     OW 1084   1.368   1.823   0.697  0.2703 -0.1593 -0.3973
  362SOL    HW1 1085   1.394   1.768   0.779  0.9274  1.0225 -0.7732
  362SOL    HW2 1086   1.444   1.832   0.630  0.6406  0.6647  1.9134
  363SOL     OW 1087   1.305   1.324   2.056 -0.0166 -0.0022 -0.6956
  363SOL    HW1 1088   1.371   1.363   1.987 -0.2023  1.5594 -1.4323
  363SOL    HW2 1089   1.301   1.381   2.141 -1.7455  0.8389 -0.3427
  364SOL     OW 1090   0.535   2.372   1.991 -0.1317  0.1239 -0.4621
  364SOL    HW1 1091   0.430   2.357   1.989 -1.8350  0.5083 -0.6389
  364SOL    HW2 1092   0.556   2.464   1.948 -1.8739  1.4445 -1.3636
  365SOL     OW 1093   0.919   1.973   1.408  0.0620  0.3810  0.1655
  365SOL    HW1 1094   0.820   1.959   1.430  1.4888 -0.2107  2.7018
  365SOL    HW2 1095   0.942   1.994   1.309  1.3827  0.1234 -0.5504
  366SOL     OW 1096   2.768   1.953   0.232  0.1577 -0.0011 -0.4474
  366SOL    HW1 1097   2.713   1.872   0.187 -1.1928  0.6161  0.6697
  366SOL    HW2 1098   2.870   1.935   0.237 -2.7536 -0.9998 -0.4564
  367SOL     OW 1099   0.877   1.135   3.091  0.1204  0.3727 -0.2369
  367SOL    HW1 1100   0.882   1.093   3.189  0.1840 -1.1709 -0.3152
  367SOL    HW2 1101   0.949   1.208   3.075 -1.4666  0.0723 -1.7386
  368SOL     OW 1102   1.468   0.556   0.540 -0.1505  0.0467 -0.6286
  368SOL    HW1 1103   1.364   0.576   0.524 -0.2005 -0.8996 -0.1226
  368SOL    HW2 1104   1.524   0.598   0.460  0.8617 -1.3116 -2.1957
  369SOL     OW 1105   0.405   1.565   0.160 -0.1415 -0.3033  0.2037
  369SOL    HW1 1106   0.435   1.649   0.209  0.1855 -0.8251 -0.0141
  369SOL    HW2 1107   0.304   1.537   0.177  0.8450  0.1891  2.2447
  370SOL     OW 1108   0.397   2.175   1.075  0.3558  0.0894  0.0204
  370SOL    HW1 1109   0.423   2.268   1.031 -0.0300  1.9686  0.2406
  370SOL    HW2 1110   0.304   2.141   1.047 -0.4309 -0.9293  1.7279
  371SOL     OW 1111   2.923   2.222   2.749 -0.0766 -0.2612  0.1018
  371SOL    HW1 1112   2.981   2.139   2.776 -2.5321  0.2946 -0.3280
  371SOL    HW2 1113   2.925   2.301   2.816  0.3625 -0.4018 -1.0622
  372SOL     OW 1114   1.023   2.056   1.145 -0.4491 -0.1511  0.3743
  372SOL    HW1 1115   0.960   2.092   1.068 -3.6386  0.0571  1.0212
  372SOL    HW2 1116   1.086   2.127   1.182 -1.3440 -1.4478  0.6144
  373SOL     OW 1117   1.930   1.919   1.022  0.3475 -0.4303 -0.0230
  373SOL    HW1 1118   2.030   1.948   1.034 -1.4607  1.4021  1.2106
  373SOL    HW2 1119   1.870   1.991   0.987  3.0855 -0.0246  1.0360
  374SOL     OW 1120   1.884   0.400   0.579  0.6179 -0.1480  0.4988
  374SOL    HW1 1121   1.885   0.343   0.666 -2.4987  0.0370 -2.3481
  374SOL    HW2 1122   1.976   0.407   0.537  1.4132  0.4057 -0.5931
  375SOL     OW 1123   2.431   2.183   1.103  0.0961 -0.2914  0.3291
  375SOL    HW1 1124   2.454   2.243   1.024 -0.7543 -0.0421 -0.4354
  375SOL    HW2 1125   2.512   2.144   1.148 -0.5959  2.7876 -0.2678
  376SOL     OW 1126   0.007   0.648   1.410  0.1004 -0.2489  0.2431
  376SOL    HW1 1127  -0.009   0.720   1.482 -0.0707 -2.0725 -1.3630
  376SOL    HW2 1128   0.005   0.556   1.443  0.3860  4.0787  0.8415
  377SOL     OW 1129   2.171   2.919   0.224  0.1796 -0.2666 -0.0961
  377SOL    HW1 1130   2.222   2.998   0.268 -0.4505 -0.3967  1.2700
  377SOL    HW2 1131   2.233   2.835   0.224 -0.2894  1.0695 -1.8978
  378SOL     OW 1132   1.874   1.907   2.426  0.7539  0.0723  0.3891
  378SOL    HW1 1133   1.918   1.926   2.330  0.7687 -0.4586  0.1405
  378SOL    HW2 1134   1.823   1.816   2.425  2.7781 -2.0026 -2.1021
  379SOL     OW 1135   0.767   0.139   2.833  0.3491  0.5510  0.7161
  379SOL    HW1 1136   0.773   0.041   2.797  1.0858  3.0029 -1.6276
  379SOL    HW2 1137   0.755   0.205   2.758 -0.5702 -0.7849 -2.1805
  380SOL     OW 1138   1.568   1.174   0.512  0.2432  0.0854  0.2945
  380SOL    HW1 1139   1.487   1.238   0.538 -0.6979  3.2861  2.6782
  380SOL    HW2 1140   1.534   1.084   0.479 -0.1986  2.2096 -1.1231
  381SOL     OW 1141   1.284   1.234   1.522 -0.2968  0.6812 -0.0679
  381SOL    HW1 1142   1.311   1.166   1.451  1.3044  4.7300  1.2651
  381SOL    HW2 1143   1.366   1.275   1.573 -0.3669  1.5102 -0.5628
  382SOL     OW 1144   1.827   0.847   0.263 -0.3351 -0.5783 -0.2680
  382SOL    HW1 1145   1.858   0.816   0.169 -0.1839 -1.0390 -0.1107
  382SOL    HW2 1146   1.902   0.837   0.338  3.0111 -0.4461 -0.5236
  383SOL     OW 1147   2.554   1.004   1.459  0.3608 -0.5982  0.0224
  383SOL    HW1 1148   2.473   0.951   1.437  0.9650  0.5636 -1.0600
  383SOL    HW2 1149   2.620   0.996   1.379  1.8846  0.2594 -3.4288
  384SOL     OW 1150   0.892   2.314   0.202 -0.1277  0.3842  0.6680
  384SOL    HW1 1151   0.816   2.384   0.194  2.1375 -0.5601  2.0741
  384SOL    HW2 1152   0.877   2.238   0.275  1.5136  0.0202  0.9027
  385SOL     OW 1153   2.973   2.087   1.673  0.0463 -0.2786 -0.0062
  385SOL    HW1 1154   3.061   2.146   1.681  2.6198  1.6477  1.2241
  385SOL    HW2 1155   2.987   1.985   1.664  0.1615 -0.3573 -0.8255
  386SOL     OW 1156   0.458   1.023   0.448 -0.1731 -0.6002  0.1128
  386SOL    HW1 1157   0.441   0.938   0.505  3.2925  1.1193 -0.8339
  386SOL    HW2 1158   0.371   1.073   0.409 -2.1678  2.0560 -1.4606
  387SOL     OW 1159   1.018   0.366   1.683 -0.1252 -0.3903  0.0193
  387SOL    HW1 1160   1.078   0.453   1.681  2.0626 -1.1373 -1.3418
  387SOL    HW2 1161   0.995   0.331   1.588  0.1429  2.6206 -0.5378
  388SOL     OW 1162   1.194   2.680   1.734 -0.2773 -0.0384  0.3055
  388SOL    HW1 1163   1.217   2.691   1.633 -0.9904  2.6710  1.3561
  388SOL    HW2 1164   1.267   2.629   1.788 -1.8901  2.4240  0.5759
  389SOL     OW 1165   0.167   2.922   1.357  0.2371 -0.5323  0.1778
  389SOL    HW1 1166   0.066   2.900   1.336  0.5522  0.4530 -0.3835
  389SOL    HW2 1167   0.224   2.839   1.378  0.1514 -1.0429 -3.6653
  390SOL     OW 1168   1.033   0.936   1.391 -0.1063  0.4628 -0.3629
  390SOL    HW1 1169   1.114   0.930   1.459 -0.6222  0.9753 -1.1525
  390SOL    HW2 1170   1.016   1.031   1.353  1.6445  0.8013 -1.8769
  391SOL     OW 1171   2.180   1.143   1.074  0.0733 -0.1987  0.0335
  391SOL    HW1 1172   2.109   1.070   1.111 -0.5137  0.7340 -0.1467
  391SOL    HW2 1173   2.219   1.120   0.980 -2.0178  2.5952 -0.9008
  392SOL     OW 1174   0.903   2.644   0.042 -0.4712 -0.2098  0.8040
  392SOL    HW1 1175   0.994   2.597   0.028  2.0589  0.4737 -0.1212
  392SOL    HW2 1176   0.851   2.599   0.118  1.1798  0.4756 -1.2130
  393SOL     OW 1177   0.277   0.628   2.024  0.3681  0.3054 -0.3063
  393SOL    HW1 1178   0.184   0.582   2.045  0.4567  2.1343  0.2289
  393SOL    HW2 1179   0.326   0.575   1.947  0.3305  1.5822 -2.8399
  394SOL     OW 1180   3.016   1.964   2.746  0.1088  0.3654 -0.7899
  394SOL    HW1 1181   3.119   1.950   2.770  1.3610  0.3380 -0.3201
  394SOL    HW2 1182   2.994   1.916   2.660 -1.1004  0.5674  1.5173
  395SOL     OW 1183   1.621   1.944   0.553  0.0020 -0.0930  0.1772
  395SOL    HW1 1184   1.671   1.861   0.517  0.7658 -1.1287  2.0814
  395SOL    HW2 1185   1.661   1.983   0.642 -0.2529  1.6812 -0.3470
  396SOL     OW 1186   2.837   1.838   1.297 -0.2788  0.1837 -0.1041
  396SOL    HW1 1187   2.838   1.746   1.254  2.9050  1.1381  0.1697
  396SOL    HW2 1188   2.779   1.848   1.384 -2.2747  0.9859  0.3607
  397SOL     OW 1189   1.018   2.212   0.511 -0.5068 -0.0080  0.1253
  397SOL    HW1 1190   0.922   2.181   0.545 -0.9461  1.4423 -0.1116
  397SOL    HW2 1191   1.037   2.305   0.548  1.7802 -0.9370 -0.6978
  398SOL     OW 1192   2.120   0.005   1.092 -0.1270 -0.3377 -0.0211
  398SOL    HW1 1193   2.044  -0.021   1.159 -0.1822 -0.9923 -0.6017
  398SOL    HW2 1194   2.126   0.105   1.074  0.6281 -0.4414  2.0072
  399SOL     OW 1195   3.040   2.476   2.578 -0.1858  0.1674  0.9540
  399SOL    HW1 1196   2.941   2.447   2.573  1.7876 -1.5543 -0.0385
  399SOL    HW2 1197   3.092   2.423   2.648  2.0019 -2.6232 -1.2183
  400SOL     OW 1198   0.739   1.677   1.382 -0.5631 -0.5209 -0.0013
  400SOL    HW1 1199   0.658   1.685   1.450 -0.1300 -2.9790 -1.5972
  400SOL    HW2 1200   0.734   1.734   1.295 -1.0368  0.6600 -0.4104
  401SOL     OW 1201   1.890   0.227   1.155 -0.1159  0.8818 -0.4146
  401SOL    HW1 1202   1.900   0.201   1.252 -1.1694  0.6201  2.1015
  401SOL    HW2 1203   1.800   0.278   1.145 -1.7814  0.8273  0.4823
  402SOL     OW 1204   1.352   0.219   3.080 -0.1962  0.6303  0.0525
  402SOL    HW1 1205   1.430   0.182   3.020  0.4708  0.8272  1.6117
  402SOL    HW2 1206   1.292   0.302   3.049 -0.6713  0.5193 -0.7429
  403SOL     OW 1207   2.293   1.798   0.912  0.3749  0.6736 -0.1113
  403SOL    HW1 1208   2.383   1.823   0.875 -2.0222  0.5643 -0.9685
  403SOL    HW2 1209   2.254   1.867   0.975 -0.2326  2.4003  0.2362
  404SOL     OW 1210   0.201   2.467   2.772 -0.0721 -0.1386 -0.4172
  404SOL    HW1 1211   0.295   2.454   2.728  0.9861  1.1159 -0.1985
  404SOL    HW2 1212   0.188   2.551   2.833 -0.9522  3.2218 -2.8396
  405SOL     OW 1213   0.078   2.476   0.740 -0.3949 -0.2427  0.1560
  405SOL    HW1 1214   0.120   2.408   0.670  3.1829 -0.8501 -0.9869
  405SOL    HW2 1215   0.134   2.567   0.750  2.3456  2.2704  0.3947
  406SOL     OW 1216   0.045   1.575   3.083 -0.0696  0.1668 -0.0581
  406SOL    HW1 1217   0.105   1.538   3.009 -0.0002  1.6484  0.9763
  406SOL    HW2 1218   0.080   1.556   3.181 -3.2584 -0.7476  2.6567
  407SOL     OW 1219   1.553   0.899   0.968  0.1880 -0.6787 -0.3755
  407SOL    HW1 1220   1.534   0.884   0.868 -0.7367 -2.9401  1.0594
  407SOL    HW2 1221   1.514   0.992   1.006 -0.3456 -1.3886  0.9591
  408SOL     OW 1222   1.588   2.421   0.983 -0.1946 -0.3819  0.0251
  408SOL    HW1 1223   1.652   2.406   0.904  0.3206 -0.1766  0.6034
  408SOL    HW2 1224   1.553   2.520   0.992  0.6840 -1.2298  1.9044
  409SOL     OW 1225   0.662   0.763   0.768 -0.6064  0.2545  0.1448
  409SOL    HW1 1226   0.569   0.784   0.728  0.8069 -0.7849  1.1141
  409SOL    HW2 1227   0.669   0.676   0.830 -1.8671 -0.7678 -1.3955
  410SOL     OW 1228   1.244   2.034   1.416  0.0305  0.2234  0.1826
  410SOL    HW1 1229   1.314   1.996   1.488  0.4594 -2.1885 -0.7767
  410SOL    HW2 1230   1.170   1.971   1.392  1.5104 -0.7480  1.0221
  411SOL     OW 1231   2.573   1.842   3.002 -0.8262 -0.2160  0.7474
  411SOL    HW1 1232   2.605   1.937   3.030 -1.9862 -1.1706  2.8661
  411SOL    HW2 1233   2.494   1.847   2.936 -0.7535 -1.6133  0.1915
  412SOL     OW 1234   1.511   2.464   2.141 -0.4056 -0.3515 -0.0607
  412SOL    HW1 1235   1.599   2.444   2.195 -0.5279  1.1652  0.7727
  412SOL    HW2 1236   1.426   2.494   2.196 -0.1113  1.1916  1.4905
  413SOL     OW 1237   0.012   0.186   2.927 -0.1310  0.0071  0.5609
  413SOL    HW1 1238  -0.036   0.137   3.004 -0.5858  0.3025 -0.4393
  413SOL    HW2 1239   0.096   0.231   2.961 -1.0072 -0.2752  0.4671
  414SOL     OW 1240   1.804   1.504   1.195 -0.7733 -0.1683  0.0843
  414SOL    HW1 1241   1.811   1.601   1.225  0.3061 -0.5167  0.6325
  414SOL    HW2 1242   1.751   1.500   1.102 -0.9560  0.5754 -0.0106
  415SOL     OW 1243   0.338   2.240   0.696 -0.2296 -0.2277 -0.4307
  415SOL    HW1 1244   0.322   2.256   0.799  1.8962  0.6142  3.4950
  415SOL    HW2 1245   0.253   2.214   0.641  1.4587 -4.6585 -2.5260
  416SOL     OW 1246   0.356   1.051   1.064 -0.5213 -0.0401 -0.5334
  416SOL    HW1 1247   0.330   0.976   1.001  2.5008 -0.2517  1.5284
  416SOL    HW2 1248   0.458   1.067   1.060 -0.5380 -1.2536  2.4291
  417SOL     OW 1249   2.296   2.394   2.047  0.0391  0.5441 -0.1097
  417SOL    HW1 1250   2.337   2.302   2.025  2.3014  2.4957  0.0505
  417SOL    HW2 1251   2.248   2.407   2.139  1.5407 -0.0362  3.0036
  418SOL     OW 1252   1.061   0.534   1.349  0.2408 -0.3005  0.4100
  418SOL    HW1 1253   0.975   0.491   1.311 -0.4488 -3.3575  0.5320
  418SOL    HW2 1254   1.131   0.533   1.270  1.8436 -3.4639 -3.7494
  419SOL     OW 1255   0.933   0.529   2.967 -0.2499 -0.0023 -0.0431
  419SOL    HW1 1256   0.886   0.490   2.883  1.4325  3.2235 -0.8939
  419SOL    HW2 1257   0.969   0.621   2.947 -2.7558 -3.5717  1.8974
  420SOL     OW 1258   0.107   2.208   0.548  0.5301 -0.0822 -0.1567
  420SOL    HW1 1259   0.125   2.163   0.456 -0.7657  0.5884 -3.5882
  420SOL    HW2 1260   0.034   2.166   0.607 -0.7717 -0.4705 -1.1890
  421SOL     OW 1261   0.338   2.952   0.597  0.0645 -0.3076 -0.0139
  421SOL    HW1 1262   0.340   2.909   0.690 -0.3904  2.1594 -0.5351
  421SOL    HW2 1263   0.419   3.015   0.578 -1.4572  3.0463  2.1609
  422SOL     OW 1264   0.990   2.630   1.038 -0.1950 -0.2382  0.0022
  422SOL    HW1 1265   1.039   2.671   0.954  0.0442 -1.9414 -1.8264
  422SOL    HW2 1266   1.046   2.641   1.118  0.9932 -1.2412 -0.6542
  423SOL     OW 1267   0.152   0.756   1.183 -0.1172  0.0206  0.4306
  423SOL    HW1 1268   0.129   0.707   1.273  0.6038 -0.7760  3.0122
  423SOL    HW2 1269   0.089   0.835   1.164 -0.5908  3.5504  1.6243
  424SOL     OW 1270   1.161   2.187   2.029  0.0251  0.5822 -0.0701
  424SOL    HW1 1271   1.140   2.287   2.026  0.8189  0.4430  2.4986
  424SOL    HW2 1272   1.143   2.154   2.125  1.6865  2.4163  1.1052
  425SOL     OW 1273   1.990   1.316   0.999  0.7202 -0.6980 -0.2191
  425SOL    HW1 1274   2.049   1.267   1.072  2.3429  2.0164  0.8110
  425SOL    HW2 1275   1.997   1.420   0.999  1.9265 -3.0902 -1.5708
  426SOL     OW 1276   1.427   1.616   1.248 -0.2406 -0.4398 -0.2831
  426SOL    HW1 1277   1.417   1.712   1.213 -0.5479  0.6301 -2.5906
  426SOL    HW2 1278   1.396   1.614   1.349 -0.0169  3.5328 -2.3815
  427SOL     OW 1279   1.898   2.331   2.045  0.2177  0.3424  0.1487
  427SOL    HW1 1280   1.943   2.296   2.128  0.4350 -0.1253  3.4108
  427SOL    HW2 1281   1.919   2.429   2.026 -2.1280 -0.8724  0.7926
  428SOL     OW 1282   0.846   3.084   0.109  1.1581  0.2203 -0.4918
  428SOL    HW1 1283   0.838   3.167   0.048 -0.1647 -0.4457  1.4491
  428SOL    HW2 1284   0.937   3.038   0.120 -0.9243 -2.5377  2.4373
  429SOL     OW 1285   1.313   0.137   0.239  0.1614  0.1226  0.0349
  429SOL    HW1 1286   1.408   0.157   0.280 -0.7617 -0.4662 -0.1116
  429SOL    HW2 1287   1.318   0.161   0.135  3.6894  0.3080 -0.3859
  430SOL     OW 1288   2.908   1.388   0.298  0.4665  0.2181  0.1539
  430SOL    HW1 1289   2.924   1.443   0.218 -4.5982 -1.3708  1.1392
  430SOL    HW2 1290   2.878   1.445   0.380 -1.2244 -0.8949 -3.0864
  431SOL     OW 1291   2.065   1.601   0.950 -0.6943  0.1767 -0.6420
  431SOL    HW1 1292   2.155   1.653   0.955 -0.1410  1.3201  0.4080
  431SOL    HW2 1293   1.992   1.653   0.897 -0.0357 -1.2308  0.6917
  432SOL     OW 1294   2.945   2.150   1.189  0.1291 -0.1782  0.5993
  432SOL    HW1 1295   2.932   2.066   1.246 -0.9107  0.9542  1.3472
  432SOL    HW2 1296   2.965   2.232   1.249 -0.0918  1.0367 -2.2402
  433SOL     OW 1297   1.842   0.249   0.822 -0.2764 -0.7971 -0.6624
  433SOL    HW1 1298   1.807   0.334   0.845  2.1193 -0.7087 -0.8808
  433SOL    HW2 1299   1.916   0.225   0.891 -2.8543 -1.8942  1.9565
  434SOL     OW 1300   1.591   0.344   0.674  0.6567 -0.6233  0.0931
  434SOL    HW1 1301   1.562   0.417   0.610 -0.2718  1.3255  1.5327
  434SOL    HW2 1302   1.610   0.378   0.771  1.7916  1.5896 -1.1160
  435SOL     OW 1303   1.559   1.450   2.030  0.7011 -0.5194  0.2117
  435SOL    HW1 1304   1.568   1.497   2.125 -2.1153 -0.3211  2.8061
  435SOL    HW2 1305   1.540   1.514   1.955  0.2903 -1.9301 -0.6989
  436SOL     OW 1306   1.709   2.739   2.229 -0.3655  0.1941 -0.2767
  436SOL    HW1 1307   1.695   2.810   2.303  1.3662 -0.6775 -0.0297
  436SOL    HW2 1308   1.698   2.643   2.269  1.7823 -3.1131  2.3368
  437SOL     OW 1309   1.091   2.953   0.936 -0.2770 -0.2984  0.2072
  437SOL    HW1 1310   1.019   3.025   0.905  0.2744 -0.3125 -0.2596
  437SOL    HW2 1311   1.108   2.953   1.039  0.7039 -0.8471 -1.5470
  438SOL     OW 1312   0.997   2.659   1.364  0.3141  0.6762  0.9834
  438SOL    HW1 1313   1.082   2.672   1.430  2.3650  1.2285  1.4435
  438SOL    HW2 1314   0.978   2.567   1.325 -0.3178  0.0220 -1.7603
  439SOL     OW 1315   0.681   1.817   1.090 -0.3476  0.8349 -0.8310
  439SOL    HW1 1316   0.662   1.886   1.015 -1.8386 -0.5676 -1.0031
  439SOL    HW2 1317   0.600   1.756   1.111  2.2018  1.0720  0.9605
  440SOL     OW 1318   1.086   2.455   1.977  0.6060  0.1514  0.2339
  440SOL    HW1 1319   1.026   2.501   1.911  0.4962 -1.6022  0.6185
  440SOL    HW2 1320   1.186   2.481   1.962  0.1163  0.4189 -1.8023
  441SOL     OW 1321   0.412   2.712   1.527 -0.2151 -0.3866  0.2755
  441SOL    HW1 1322   0.478   2.638   1.546 -0.8339  1.2348 -1.0506
  441SOL    HW2 1323   0.360   2.698   1.437 -1.2967 -1.5525 -1.5249
  442SOL     OW 1324   2.232   0.738   2.494  0.0102 -0.2908  0.5467
  442SOL    HW1 1325   2.219   0.643   2.533  0.0969  1.4926  1.1107
  442SOL    HW2 1326   2.154   0.796   2.530  1.7423 -0.1119 -1.4757
  443SOL     OW 1327   1.191   2.686   2.179 -0.1139 -0.4528  0.8182
  443SOL    HW1 1328   1.210   2.770   2.236  2.8739 -1.3925 -1.9810
  443SOL    HW2 1329   1.205   2.594   2.224 -0.9987 -1.0857  0.2820
  444SOL     OW 1330   1.027   1.328   1.582 -0.8212 -0.1656  0.2941
  444SOL    HW1 1331   1.123   1.304   1.548 -0.8849 -1.7077 -0.7742
  444SOL    HW2 1332   1.001   1.426   1.565 -1.3816 -0.0163  0.4790
  445SOL     OW 1333   3.071   2.364   1.962 -0.0994  0.0230  0.5918
  445SOL    HW1 1334   3.068   2.453   1.905 -0.6773  1.4207  3.0490
  445SOL    HW2 1335   2.972   2.346   1.992  0.1199  1.0058 -0.1745
  446SOL     OW 1336   0.179   1.913   2.338  0.4345 -0.2245  0.4082
  446SOL    HW1 1337   0.144   2.001   2.383  1.4061  4.4193 -3.4014
  446SOL    HW2 1338   0.110   1.866   2.278  1.5659  0.4279  0.6291
  447SOL     OW 1339   1.205   1.708   1.971 -0.5312 -0.3468 -0.2659
  447SOL    HW1 1340   1.162   1.784   1.917  0.5691  1.2817  1.2132
  447SOL    HW2 1341   1.308   1.721   1.979 -0.7914  0.2229 -0.8307
  448SOL     OW 1342   0.106   1.459   1.970 -0.6990 -0.0023 -0.9825
  448SOL    HW1 1343   0.101   1.561   1.957 -1.6628  2.2504  2.4339
  448SOL    HW2 1344   0.110   1.439   2.077  2.5022 -0.7584  0.9549
  449SOL     OW 1345   1.998   2.998   0.856 -0.1201 -0.1299  0.1170
  449SOL    HW1 1346   2.052   3.027   0.937 -0.6341 -0.0368 -0.6531
  449SOL    HW2 1347   1.992   2.895   0.837 -0.8423 -2.1560 -2.6834
  450SOL     OW 1348   2.264   1.358   0.827  0.0836  0.3817  0.7905
  450SOL    HW1 1349   2.239   1.255   0.837 -1.2538 -1.5506  2.2269
  450SOL    HW2 1350   2.215   1.416   0.760 -0.1068  2.3967  0.8949
  451SOL     OW 1351   1.443   0.026   1.467 -0.0525  0.1543 -0.2436
  451SOL    HW1 1352   1.362   0.085   1.449  0.2557  0.2480 -0.0364
  451SOL    HW2 1353   1.437  -0.020   1.558  0.2519  0.6734 -1.8312
  452SOL     OW 1354   2.656   2.319   2.242  0.3056  0.4477  0.3124
  452SOL    HW1 1355   2.631   2.407   2.280  1.2937  0.1531  1.6735
  452SOL    HW2 1356   2.682   2.247   2.311  0.2427 -0.8695 -1.6622
  453SOL     OW 1357   2.433   2.612   3.052  0.0946  0.2568  0.3533
  453SOL    HW1 1358   2.349   2.675   3.068 -1.6304 -0.9084 -0.6706
  453SOL    HW2 1359   2.427   2.546   2.971  0.1549 -1.9319  1.1418
  454SOL     OW 1360   0.975   1.117   2.110 -0.3189 -0.0554 -0.5879
  454SOL    HW1 1361   0.966   1.162   2.020 -2.3537  0.1147 -0.4970
  454SOL    HW2 1362   1.070   1.110   2.143 -0.8397 -0.3346  0.5167
  455SOL     OW 1363   0.738   2.661   2.880 -0.2358 -0.4191  0.3973
  455SOL    HW1 1364   0.824   2.723   2.892 -1.5479 -0.8897  1.1939
  455SOL    HW2 1365   0.726   2.604   2.962 -2.5476  0.4314 -0.2939
  456SOL     OW 1366   0.537   1.786   0.292  0.5278 -0.2955 -0.7046
  456SOL    HW1 1367   0.617   1.753   0.349 -4.9612 -0.4556  0.7692
  456SOL    HW2 1368   0.544   1.885   0.256 -0.3230  0.6372 -0.1896
  457SOL     OW 1369   0.319   2.611   0.748 -0.1457 -0.5112 -0.1052
  457SOL    HW1 1370   0.335   2.606   0.644 -0.0951 -2.4225 -0.4329
  457SOL    HW2 1371   0.394   2.562   0.798 -1.0386 -0.0005 -3.0724
  458SOL     OW 1372   2.969   3.005   1.266  0.1290  0.2531 -0.0429
  458SOL    HW1 1373   3.005   3.104   1.254  0.8507 -1.3603  1.5967
  458SOL    HW2 1374   2.961   2.957   1.173 -3.4484  4.6613 -1.9993
  459SOL     OW 1375   2.094   2.525   0.925  0.2251 -0.1839 -0.5143
  459SOL    HW1 1376   2.076   2.606   0.987  2.2868 -0.9986  0.0855
  459SOL    HW2 1377   2.171   2.544   0.850  0.8750 -0.7063 -0.1456
  460SOL     OW 1378   1.100   1.930   2.927 -0.5689 -0.1832 -0.3392
  460SOL    HW1 1379   1.122   2.033   2.929 -2.0058  1.5212  1.4152
  460SOL    HW2 1380   1.187   1.868   2.940  0.0541  1.0623 -0.9673
  461SOL     OW 1381   0.474   2.105   2.698  0.5721  0.3808  0.4269
  461SOL    HW1 1382   0.426   2.025   2.648  1.3210 -1.6479 -1.2631
  461SOL    HW2 1383   0.533   2.079   2.781 -1.0119 -0.7093  2.2218
  462SOL     OW 1384   0.939   1.211   1.850 -0.1172 -0.1936  0.1290
  462SOL    HW1 1385   0.986   1.133   1.798  0.1407  1.3437  1.5549
  462SOL    HW2 1386   0.940   1.291   1.795  1.1524 -2.1888  1.1833
  463SOL     OW 1387   0.458   0.789   0.596  0.3275  0.2080 -0.4012
  463SOL    HW1 1388   0.513   0.705   0.565  1.5826  1.2362 -1.7800
  463SOL    HW2 1389   0.354   0.776   0.586  1.7051  3.6086  0.0139
  464SOL     OW 1390   0.524   2.234   2.263 -0.7059 -0.3295 -0.4413
  464SOL    HW1 1391   0.467   2.312   2.308 -0.8321  0.1557  0.7443
  464SOL    HW2 1392   0.551   2.250   2.166 -1.7555  0.9662 -2.1430
  465SOL     OW 1393   0.225   0.882   0.857  0.0760 -0.6629  0.5657
  465SOL    HW1 1394   0.131   0.909   0.816  0.3445 -1.2062  0.6323
  465SOL    HW2 1395   0.244   0.776   0.865 -0.5446 -0.6318  1.2470
  466SOL     OW 1396   1.380   1.112   1.079 -0.1090 -0.2790 -0.5342
  466SOL    HW1 1397   1.432   1.194   1.121 -0.9549  0.0164 -1.0575
  466SOL    HW2 1398   1.280   1.135   1.067 -0.1723  0.7497  1.3719
  467SOL     OW 1399   0.457   0.363   2.365 -0.1639  0.0482  0.2763
  467SOL    HW1 1400   0.453   0.456   2.415  0.1248  1.1770  0.5035
  467SOL    HW2 1401   0.450   0.279   2.426  0.7209  1.3525 -0.7563
  468SOL     OW 1402   0.471   2.252   1.666  0.1623 -0.1898  0.2494
  468SOL    HW1 1403   0.534   2.324   1.706  1.0600 -1.3774  1.5862
  468SOL    HW2 1404   0.427   2.290   1.579  1.6090  0.5857  0.8082
  469SOL     OW 1405   1.543   1.331   1.122  0.1523 -0.3772  0.0669
  469SOL    HW1 1406   1.627   1.271   1.116 -0.9036  0.0453 -1.2927
  469SOL    HW2 1407   1.548   1.427   1.167  1.2304  1.0100  1.4645
  470SOL     OW 1408   3.019   1.672   0.722 -0.0066 -0.3264  0.2270
  470SOL    HW1 1409   3.107   1.692   0.775 -1.6891  0.8546 -1.2209
  470SOL    HW2 1410   2.937   1.722   0.755  3.3789 -1.6987  0.4012
  471SOL     OW 1411   2.687   1.309   2.124  0.2786  0.1053 -0.3099
  471SOL    HW1 1412   2.673   1.257   2.215 -0.6828 -1.0204  0.9897
  471SOL    HW2 1413   2.753   1.389   2.137  0.2280  0.1157 -0.2420
  472SOL     OW 1414   1.096   2.466   3.082 -0.2335  0.1359  0.2272
  472SOL    HW1 1415   1.155   2.451   3.167  1.9173  0.4329 -0.6229
  472SOL    HW2 1416   1.042   2.381   3.063  1.0513  1.4266 -0.1710
  473SOL     OW 1417   1.092   1.573   0.903 -0.5233  0.0257 -0.0363
  473SOL    HW1 1418   0.994   1.577   0.933  2.0724  0.2434 -1.3436
  473SOL    HW2 1419   1.160   1.552   0.982  1.4926  2.6613  0.6117
  474SOL     OW 1420   0.832   1.209   0.723  0.0669 -0.5529  0.2469
  474SOL    HW1 1421   0.788   1.228   0.632 -0.5865 -1.3278  0.6671
  474SOL    HW2 1422   0.871   1.116   0.728  0.0871  0.1879 -0.6999
  475SOL     OW 1423   2.889   0.083   0.757  0.2173 -0.3816 -0.2558
  475SOL    HW1 1424   2.975   0.085   0.819 -0.0947  1.4634 -3.3746
  475SOL    HW2 1425   2.798   0.086   0.813 -1.2364  2.2130 -1.1787
  476SOL     OW 1426   0.894   3.061   1.811 -0.0291  0.3212  0.2456
  476SOL    HW1 1427   0.988   3.064   1.845 -1.4204 -0.8609 -0.1681
  476SOL    HW2 1428   0.879   3.002   1.730 -2.2727  2.9308 -0.1828
  477SOL     OW 1429   1.409   0.326   2.431  0.1587  0.1098  0.0539
  477SOL    HW1 1430   1.394   0.332   2.534 -0.5081 -2.8745 -0.9699
  477SOL    HW2 1431   1.505   0.292   2.406  0.7399  1.1403 -0.4597
  478SOL     OW 1432   2.283   1.802   0.233  0.8684 -0.1426  0.1699
  478SOL    HW1 1433   2.216   1.723   0.222  1.7306  2.7593 -0.9177
  478SOL    HW2 1434   2.384   1.776   0.214  2.7146  2.0334 -1.0719
  479SOL     OW 1435   1.315   1.062   2.879 -0.0610  0.6371  0.3795
  479SOL    HW1 1436   1.406   1.072   2.833 -2.6889 -0.0997 -2.8617
  479SOL    HW2 1437   1.241   1.045   2.814 -2.0250 -2.1540  1.4839
  480SOL     OW 1438   2.469   2.343   0.383  0.3648  0.4831 -0.0350
  480SOL    HW1 1439   2.414   2.281   0.446 -0.8122  0.2607  0.1667
  480SOL    HW2 1440   2.423   2.358   0.295 -0.8153 -0.4748  1.0733
  481SOL     OW 1441   1.127   1.154   0.774  0.3932  0.3151 -0.1820
  481SOL    HW1 1442   1.141   1.225   0.699  0.2896  0.2441  0.1101
  481SOL    HW2 1443   1.143   1.181   0.873 -1.3041 -0.2022 -0.2788
  482SOL     OW 1444   1.600   0.315   2.052 -0.0062 -0.1052 -0.0282
  482SOL    HW1 1445   1.612   0.394   1.980 -0.4443 -1.5276 -1.7051
  482SOL    HW2 1446   1.682   0.301   2.105  0.5782 -0.0793 -2.6645
  483SOL     OW 1447   0.136   2.328   1.287  0.0094  0.3813 -0.0338
  483SOL    HW1 1448   0.048   2.342   1.340  1.8673 -0.3991  1.0832
  483SOL    HW2 1449   0.139   2.393   1.203 -0.7451 -0.1510  2.6064
  484SOL     OW 1450   1.733   0.988   1.403 -0.0844  0.1174 -0.2515
  484SOL    HW1 1451   1.784   0.908   1.363 -0.4605 -1.5392 -0.7182
  484SOL    HW2 1452   1.799   1.054   1.450  3.4962 -1.3963  2.7042
  485SOL     OW 1453   0.687   1.100   1.791  0.4485 -0.0150 -0.1762
  485SOL    HW1 1454   0.696   1.078   1.693  1.2166  1.2441 -0.3505
  485SOL    HW2 1455   0.768   1.153   1.830 -0.0171 -1.4395  0.2881
  486SOL     OW 1456   0.917   1.960   2.458 -0.7469 -0.7742  0.4309
  486SOL    HW1 1457   0.940   1.885   2.525  1.6279  0.9687  0.7003
  486SOL    HW2 1458   0.836   2.022   2.475  2.6461 -0.5151  0.6517
  487SOL     OW 1459   1.727   1.494   0.933  0.7573 -0.2125 -0.2349
  487SOL    HW1 1460   1.731   1.408   0.880  0.6401 -1.3118 -0.9137
  487SOL    HW2 1461   1.769   1.578   0.895  2.8678  0.4362 -0.5358
  488SOL     OW 1462   2.969   0.942   2.234  0.3655 -0.4499  0.1059
  488SOL    HW1 1463   3.000   0.864   2.165 -0.7589 -1.6565 -2.1730
  488SOL    HW2 1464   2.974   0.907   2.330  2.6903 -2.7730 -2.4345
  489SOL     OW 1465   2.751   0.275   1.333  0.6338 -0.1582 -0.4330
  489SOL    HW1 1466   2.703   0.224   1.411  2.4626  0.3796 -0.4107
  489SOL    HW2 1467   2.846   0.250   1.322 -0.1263  1.3524  1.3657
  490SOL     OW 1468   1.416   2.968   2.840 -0.0221 -0.1436  0.4531
  490SOL    HW1 1469   1.462   2.878   2.834  1.6514  0.9882  1.6814
  490SOL    HW2 1470   1.403   3.002   2.742 -1.7656 -0.0688 -0.2028
  491SOL     OW 1471   1.862   1.582   2.709  0.0761  0.4496 -0.4569
  491SOL    HW1 1472   1.834   1.512   2.781  1.7039  0.0360 -1.0327
  491SOL    HW2 1473   1.962   1.576   2.693 -2.9063 -3.3164  2.0637
  492SOL     OW 1474   0.464   1.994   0.753 -0.4649 -0.8668 -0.6147
  492SOL    HW1 1475   0.519   2.046   0.827 -0.6713 -0.8530 -1.0120
  492SOL    HW2 1476   0.407   2.057   0.694  3.4242 -1.4479 -1.2723
  493SOL     OW 1477   0.420   1.385   2.097  0.0364  0.4631  0.5020
  493SOL    HW1 1478   0.346   1.452   2.122  1.9767  2.2751 -2.9799
  493SOL    HW2 1479   0.415   1.302   2.159 -0.1121  1.5537  1.8196
  494SOL     OW 1480   2.647   2.663   0.131 -0.1073 -0.3592 -0.3538
  494SOL    HW1 1481   2.677   2.580   0.179 -1.9167  0.7628 -1.5464
  494SOL    HW2 1482   2.576   2.647   0.056 -0.3836 -0.4835 -1.2684
  495SOL     OW 1483   2.739   2.672   2.688 -0.0570  0.1424 -0.3167
  495SOL    HW1 1484   2.713   2.580   2.642  1.4849 -0.0836 -1.1780
  495SOL    HW2 1485   2.753   2.747   2.622  1.7532  2.4374  2.3477
  496SOL     OW 1486   2.101   2.202   0.743  0.2976  0.4015 -0.4727
  496SOL    HW1 1487   2.099   2.235   0.842  1.2576  0.9231  2.9907
  496SOL    HW2 1488   2.135   2.102   0.733  0.4089  0.5301  3.2912
  497SOL     OW 1489   0.218   2.981   2.402  0.3753  0.1997 -0.1641
  497SOL    HW1 1490   0.155   3.046   2.455  2.6974  0.7389 -0.3075
  497SOL    HW2 1491   0.282   3.040   2.348 -0.3356 -1.8947  0.3815
  498SOL     OW 1492   1.226   1.476   1.133 -0.2759  0.2472 -0.0441
  498SOL    HW1 1493   1.321   1.519   1.149 -4.1785  1.4238 -2.7015
  498SOL    HW2 1494   1.157   1.511   1.200  1.2565  1.4015  0.2742
  499SOL     OW 1495   0.845   1.821   0.543  0.1992 -1.1277  0.0485
  499SOL    HW1 1496   0.810   1.732   0.580  0.6498  2.2498 -1.3422
  499SOL    HW2 1497   0.839   1.900   0.612 -1.3253  0.0121 -1.5956
  500SOL     OW 1498   1.392   2.979   1.743  0.4542  0.1353  0.5444
  500SOL    HW1 1499   1.436   3.020   1.827 -0.3234  1.4141 -0.1676
  500SOL    HW2 1500   1.428   2.880   1.724 -1.3170 -0.2487  2.3154
  501SOL     OW 1501   0.733   1.147   2.262  0.4464 -0.1638 -0.4101
  501SOL    HW1 1502   0.668   1.064   2.249 -0.7215 -0.8396 -1.7085
  501SOL    HW2 1503   0.808   1.156   2.188 -0.0040  0.8632  0.5682
  502SOL     OW 1504   2.619   0.957   1.735 -0.2500 -0.5219 -0.1496
  502SOL    HW1 1505   2.600   0.988   1.637 -0.9637  2.3429  3.7443
  502SOL    HW2 1506   2.564   0.872   1.769 -0.8387 -0.9102 -0.6985
  503SOL     OW 1507   1.360   0.195   0.607 -0.2263 -0.2630 -0.0432
  503SOL    HW1 1508   1.292   0.271   0.578 -3.0754 -0.5997  2.4781
  503SOL    HW2 1509   1.456   0.237   0.618  0.9975 -0.1397  1.0590
  504SOL     OW 1510   2.991   2.357   1.384 -0.7119  0.2233  0.1460
  504SOL    HW1 1511   3.000   2.454   1.431 -0.1550 -1.6192  1.5265
  504SOL    HW2 1512   2.914   2.300   1.410  1.9084 -1.3661 -1.5706
  505SOL     OW 1513   2.287   1.224   1.452 -0.1579  0.3585 -0.0954
  505SOL    HW1 1514   2.276   1.269   1.357  0.8348  1.2600 -3.0174
  505SOL    HW2 1515   2.359   1.274   1.513  0.0464 -0.4305 -1.1491
  506SOL     OW 1516   1.910   0.261   1.811 -0.0961  0.5737  0.7652
  506SOL    HW1 1517   1.983   0.205   1.761 -0.3206 -1.7529 -0.3480
  506SOL    HW2 1518   1.940   0.349   1.853 -3.4040  0.2034 -1.4126
  507SOL     OW 1519   0.490   0.638   2.176  0.3100 -0.2939 -0.3079
  507SOL    HW1 1520   0.407   0.637   2.114 -0.4121  2.8637  0.4462
  507SOL    HW2 1521   0.556   0.567   2.145 -2.3713  1.8350 -0.5611
  508SOL     OW 1522   0.250   1.677   0.872 -0.8297  0.0029  0.1966
  508SOL    HW1 1523   0.335   1.724   0.838 -0.0636 -0.7392 -3.4249
  508SOL    HW2 1524   0.227   1.701   0.969  0.9037 -1.4126 -0.2709
  509SOL     OW 1525   1.340   1.193   2.520  0.2894  0.5469  0.7699
  509SOL    HW1 1526   1.236   1.204   2.501 -0.2779 -4.0642  0.8088
  509SOL    HW2 1527   1.372   1.097   2.492  3.2682 -3.9392  0.7637
  510SOL     OW 1528   1.334   1.959   2.074  0.1363 -0.1631  0.0830
  510SOL    HW1 1529   1.284   2.047   2.038 -1.9488  3.2441 -1.5902
  510SOL    HW2 1530   1.280   1.902   2.141  1.3757 -1.1675 -1.8034
  511SOL     OW 1531   0.024   2.641   1.331  0.4176  0.1989 -0.1899
  511SOL    HW1 1532  -0.045   2.621   1.261  0.2027 -0.5977  1.2084
  511SOL    HW2 1533  -0.011   2.623   1.429  0.7693  0.5055 -0.7350
  512SOL     OW 1534   2.421   0.433   1.354 -0.5257 -0.1129 -0.3884
  512SOL    HW1 1535   2.318   0.430   1.369  0.2226  2.6501  0.5668
  512SOL    HW2 1536   2.454   0.373   1.279  2.2655 -2.5882  0.7920
  513SOL     OW 1537   2.483   1.992   0.843  0.6253 -0.0536 -0.0542
  513SOL    HW1 1538   2.437   2.083   0.839 -0.9348  0.1526 -2.0096
  513SOL    HW2 1539   2.567   1.982   0.779 -0.0739 -1.8937 -1.6673
  514SOL     OW 1540   0.688   2.773   0.377 -0.5327 -0.1681 -0.0685
  514SOL    HW1 1541   0.667   2.836   0.294  2.8629 -1.3271 -0.1466
  514SOL    HW2 1542   0.692   2.822   0.470  3.1860 -0.7648 -1.3862
  515SOL     OW 1543   1.985   1.192   2.308 -0.1342  0.3782  0.5011
  515SOL    HW1 1544   1.908   1.214   2.243 -1.8426  0.1103  0.2004
  515SOL    HW2 1545   1.938   1.198   2.403 -4.1695  0.6576  2.5260
  516SOL     OW 1546   0.272   0.301   1.943 -0.5988 -0.2859  0.2644
  516SOL    HW1 1547   0.365   0.297   1.895  1.7698  0.0386 -0.8046
  516SOL    HW2 1548   0.195   0.258   1.892 -0.2985  2.1638 -0.5978
  517SOL     OW 1549   0.345   3.046   1.188 -0.0058 -0.3680  0.0249
  517SOL    HW1 1550   0.379   3.135   1.226 -0.8722 -1.1202  0.0388
  517SOL    HW2 1551   0.259   3.005   1.230  1.8570  0.8407 -1.6130
  518SOL     OW 1552   2.137   0.119   1.745  0.4959  1.0020 -1.1952
  518SOL    HW1 1553   2.233   0.147   1.771 -0.3152  0.5020 -1.2229
  518SOL    HW2 1554   2.124   0.018   1.733 -1.1868 -0.8516 -1.4727
  519SOL     OW 1555   2.414   2.182   2.578 -0.2905  0.2319 -0.4436
  519SOL    HW1 1556   2.331   2.175   2.638  0.8347  1.4653 -0.3299
  519SOL    HW2 1557   2.456   2.275   2.560  0.9578 -1.6804  1.2780
  520SOL     OW 1558   1.771   2.891   1.814 -0.1527 -0.1143 -0.1269
  520SOL    HW1 1559   1.687   2.832   1.842  2.6472 -0.1433  1.3349
  520SOL    HW2 1560   1.859   2.838   1.803 -1.8860  0.9643 -1.8478
  521SOL     OW 1561   0.548   0.121   2.119 -0.0228  0.7085  0.8208
  521SOL    HW1 1562   0.456   0.083   2.149  1.4160  1.1062 -0.2064
  521SOL    HW2 1563   0.623   0.111   2.190 -2.3068 -1.5046  0.4641
  522SOL     OW 1564   0.180   1.911   1.554  0.6194  0.1088  0.9359
  522SOL    HW1 1565   0.251   1.946   1.619 -0.3432  2.3990  0.8012
  522SOL    HW2 1566   0.177   1.965   1.468  2.3495 -1.2771  1.3066
  523SOL     OW 1567   2.190   2.938   1.617  0.2344  0.4294  0.0377
  523SOL    HW1 1568   2.237   2.857   1.569 -0.8068  0.9017  1.5381
  523SOL    HW2 1569   2.095   2.949   1.569 -1.1098 -1.2486  0.3795
  524SOL     OW 1570   0.227   2.733   2.830  0.4555  0.0667  0.3917
  524SOL    HW1 1571   0.232   2.753   2.930  0.1953  0.3936 -0.6739
  524SOL    HW2 1572   0.315   2.756   2.783 -2.4988 -1.3655  1.9220
  525SOL     OW 1573   2.172   1.914   0.452 -0.7570  0.5840  0.3158
  525SOL    HW1 1574   2.161   1.848   0.528  0.6663  0.6284 -1.8081
  525SOL    HW2 1575   2.232   1.876   0.379  1.0019 -0.0549 -0.2135
  526SOL     OW 1576   0.394   1.516   1.562 -0.0782  0.2515 -1.3787
  526SOL    HW1 1577   0.340   1.477   1.643  0.7498  2.6113 -1.5936
  526SOL    HW2 1578   0.480   1.465   1.541  0.9420  2.6966  1.7735
  527SOL     OW 1579   1.120   2.919   1.201 -0.3267 -0.4544 -0.5414
  527SOL    HW1 1580   1.184   2.851   1.236 -1.5159 -1.9950 -1.1830
  527SOL    HW2 1581   1.151   3.020   1.207 -0.2333 -1.4727 -1.3787
  528SOL     OW 1582   1.338   2.376   0.457  0.3284 -0.3241 -0.2636
  528SOL    HW1 1583   1.370   2.278   0.452 -0.3031  1.1013  2.1321
  528SOL    HW2 1584   1.372   2.426   0.541 -1.7498  1.8016  0.5078
  529SOL     OW 1585   1.860   1.725   0.816 -0.2971  0.5351 -0.4172
  529SOL    HW1 1586   1.807   1.740   0.729 -1.9724 -0.8272  0.8645
  529SOL    HW2 1587   1.870   1.811   0.880 -0.3315  1.7019  1.9317
  530SOL     OW 1588   0.302   2.447   0.342  0.6929  0.1011 -0.1548
  530SOL    HW1 1589   0.319   2.532   0.408  0.3610 -1.8501  0.8180
  530SOL    HW2 1590   0.331   2.361   0.387 -2.0202  0.3956  1.1445
  531SOL     OW 1591   1.813   0.854   1.052  0.2852 -0.8458  0.0204
  531SOL    HW1 1592   1.873   0.880   0.966  3.0313 -0.1597 -4.3505
  531SOL    HW2 1593   1.712   0.872   1.040 -1.7731 -2.4978  0.9690
  532SOL     OW 1594   0.495   1.070   0.724  0.0990  0.3662 -0.3740
  532SOL    HW1 1595   0.543   1.059   0.636  0.3041  0.6348 -1.1171
  532SOL    HW2 1596   0.414   1.003   0.728 -1.1153 -0.6885  1.0357
  533SOL     OW 1597   1.775   0.042   2.553  0.1554  0.1380 -0.3284
  533SOL    HW1 1598   1.863  -0.001   2.582 -0.7748 -0.3729 -0.2172
  533SOL    HW2 1599   1.728   0.105   2.619 -0.9325 -0.3252  0.1961
  534SOL     OW 1600   0.414   0.184   1.532 -0.2187 -0.3173  0.0164
  534SOL    HW1 1601   0.514   0.179   1.569  1.2366  1.3005  0.0269
  534SOL    HW2 1602   0.369   0.278   1.531 -0.4233 -0.3279 -1.2996
  535SOL     OW 1603   1.915   0.366   0.179 -0.1681 -0.6266 -0.0083
  535SOL    HW1 1604   1.949   0.461   0.215 -1.9977 -0.6002  3.0720
  535SOL    HW2 1605   1.930   0.294   0.251 -0.3911  3.1477  2.6733
  536SOL     OW 1606   1.380   2.636   0.928 -0.3201  0.2246 -0.4042
  536SOL    HW1 1607   1.353   2.608   1.023  1.9068  0.5915 -0.8325
  536SOL    HW2 1608   1.306   2.652   0.862  0.1486 -1.0316  0.4197
  537SOL     OW 1609   0.844   0.269   2.393 -0.3192  0.0935 -0.1396
  537SOL    HW1 1610   0.913   0.300   2.325  0.2360 -0.2354 -0.2803
  537SOL    HW2 1611   0.800   0.187   2.363  1.2602  0.6459  1.4932
  538SOL     OW 1612   1.625   2.328   1.344 -0.0143  0.5790  0.3199
  538SOL    HW1 1613   1.605   2.232   1.371 -0.7656  0.1407 -1.3392
  538SOL    HW2 1614   1.723   2.354   1.353  1.4803 -1.0378 -1.0029
  539SOL     OW 1615   0.130   1.624   2.690  0.2986 -0.1379 -0.0947
  539SOL    HW1 1616   0.038   1.622   2.642 -0.4104 -2.1639 -2.3577
  539SOL    HW2 1617   0.150   1.715   2.736  0.1758  0.0739 -1.2416
  540SOL     OW 1618   2.676   1.702   1.940 -0.0876  0.3371 -0.1012
  540SOL    HW1 1619   2.656   1.626   2.008 -0.4652  0.9082  2.2985
  540SOL    HW2 1620   2.594   1.763   1.931 -0.4557 -0.3469  1.3186
  541SOL     OW 1621   0.558   2.156   0.018 -0.0539 -0.1914 -0.1510
  541SOL    HW1 1622   0.573   2.139   0.120 -0.8197 -0.6984  0.4958
  541SOL    HW2 1623   0.464   2.115  -0.016 -0.2608 -0.7733 -1.5767
  542SOL     OW 1624   2.238   2.602   0.506 -0.0765 -0.0240  0.1901
  542SOL    HW1 1625   2.227   2.704   0.497  1.2923 -0.3121  0.9521
  542SOL    HW2 1626   2.152   2.548   0.520 -0.5171  2.5547 -0.0340
  543SOL     OW 1627   1.086   1.809   1.569  0.6057 -0.0821 -0.2158
  543SOL    HW1 1628   1.111   1.854   1.666 -1.4939  0.8189  1.2266
  543SOL    HW2 1629   1.020   1.869   1.521  0.1900 -1.8785  0.8361
  544SOL     OW 1630   1.108   0.512   0.175  0.1189 -0.0842 -0.2314
  544SOL    HW1 1631   1.086   0.426   0.226  0.9393  3.4266 -0.3965
  544SOL    HW2 1632   1.114   0.501   0.072 -1.1275 -0.8599  1.1470
  545SOL     OW 1633   1.090   1.821   0.794 -0.0241  0.2791 -0.2593
  545SOL    HW1 1634   1.175   1.832   0.736 -0.4609  0.0582 -0.2996
  545SOL    HW2 1635   1.077   1.727   0.833  2.6499  0.2743 -0.2670
  546SOL     OW 1636   2.692   1.577   2.979  0.3776  0.2182 -0.3760
  546SOL    HW1 1637   2.677   1.678   2.969 -1.8247  2.8644 -0.3481
  546SOL    HW2 1638   2.612   1.513   2.975  1.5383 -0.4225 -0.1708
  547SOL     OW 1639   0.649   3.063   2.516  0.5293 -0.1450  0.2427
  547SOL    HW1 1640   0.709   3.042   2.595  0.2966 -1.2955  0.8163
  547SOL    HW2 1641   0.571   2.989   2.500 -1.9052  0.3851 -2.5582
  548SOL     OW 1642   2.056   0.797   3.078 -0.1186 -0.2377  0.0185
  548SOL    HW1 1643   1.955   0.773   3.057 -1.2055  1.5293  1.6501
  548SOL    HW2 1644   2.076   0.899   3.090 -0.9983 -0.3687  1.9066
  549SOL     OW 1645   0.701   0.589   0.217 -0.2757  0.0652  0.0055
  549SOL    HW1 1646   0.625   0.631   0.160  1.7318 -1.3608 -1.6581
  549SOL    HW2 1647   0.792   0.639   0.226  2.9233  1.1750  2.0860
  550SOL     OW 1648   2.564   2.830   2.858 -0.0908 -0.2169 -0.5543
  550SOL    HW1 1649   2.518   2.765   2.922 -0.6895 -2.3274 -1.9275
  550SOL    HW2 1650   2.616   2.787   2.783  0.1535  0.9252  1.1100
  551SOL     OW 1651   0.242   0.896   0.263 -0.2444 -0.1427  0.2802
  551SOL    HW1 1652   0.336   0.924   0.226  0.6308  0.6916  0.9409
  551SOL    HW2 1653   0.258   0.862   0.360  0.2294 -0.6037 -1.4949
  552SOL     OW 1654   0.587   2.994   1.961 -0.8085 -0.3813  0.3535
  552SOL    HW1 1655   0.585   3.073   2.028 -0.3954  0.0608 -1.5939
  552SOL    HW2 1656   0.680   2.989   1.913  0.5740 -0.8793 -0.7845
  553SOL     OW 1657   2.940   2.401   0.344  0.2466 -0.1907  0.5578
  553SOL    HW1 1658   2.921   2.312   0.384 -0.4465  1.6386  0.5204
  553SOL    HW2 1659   2.842   2.438   0.319 -2.2853 -0.1807  0.7388
  554SOL     OW 1660   2.151   0.372   0.483  1.0789  0.5639  0.2318
  554SOL    HW1 1661   2.236   0.392   0.430 -0.8952  0.6434 -0.3230
  554SOL    HW2 1662   2.163   0.299   0.559  1.2515 -1.0742  2.3727
  555SOL     OW 1663   0.451   2.843   2.496  0.0318  0.1510 -0.0919
  555SOL    HW1 1664   0.368   2.898   2.489  4.1883 -0.9929  2.8837
  555SOL    HW2 1665   0.464   2.773   2.417  3.2539 -0.6724 -0.9414
  556SOL     OW 1666   0.847   2.434   1.607 -0.2718 -0.0238  0.3218
  556SOL    HW1 1667   0.897   2.503   1.661 -0.1151 -2.7013 -0.0913
  556SOL    HW2 1668   0.900   2.393   1.524 -4.5316 -1.6298 -0.1135
  557SOL     OW 1669   0.200   2.077   0.245  0.5831  0.4490  0.4786
  557SOL    HW1 1670   0.129   2.017   0.203 -1.8652 -0.4456 -1.0965
  557SOL    HW2 1671   0.248   2.137   0.177  2.0476  1.5700  0.8849
  558SOL     OW 1672   2.808   2.162   0.415  0.6879 -0.2041 -0.7122
  558SOL    HW1 1673   2.723   2.218   0.438  2.3449 -1.6088  2.9450
  558SOL    HW2 1674   2.790   2.080   0.356 -2.3619  2.9760  3.4821
  559SOL     OW 1675   0.398   2.347   1.417  0.1244 -0.0507  0.2333
  559SOL    HW1 1676   0.306   2.308   1.380  1.2265  2.5831  1.2531
  559SOL    HW2 1677   0.474   2.314   1.359 -1.7012  0.3299  0.4819
  560SOL     OW 1678   2.137   1.056   3.076 -0.0620 -0.1439  0.6223
  560SOL    HW1 1679   2.144   1.070   3.180  3.3655  0.5297  2.2932
  560SOL    HW2 1680   2.198   1.110   3.015  1.1000 -0.3814  1.5109
  561SOL     OW 1681   0.048   1.901   0.087  0.1437  0.4803  0.8359
  561SOL    HW1 1682   0.029   1.838   0.169 -0.7662 -1.2439 -1.4005
  561SOL    HW2 1683  -0.037   1.948   0.040  1.6669 -1.6780 -1.0425
  562SOL     OW 1684   1.114   2.120   2.289 -0.0762  0.3341 -0.2620
  562SOL    HW1 1685   1.070   2.211   2.309 -2.1220  3.2066 -0.6314
  562SOL    HW2 1686   1.059   2.035   2.320 -0.4295 -0.8282 -0.8127
  563SOL     OW 1687   0.694   2.529   2.644 -0.0180  0.2250 -0.0126
  563SOL    HW1 1688   0.784   2.491   2.606 -0.1473  1.9941 -0.6775
  563SOL    HW2 1689   0.703   2.575   2.738  2.3778 -1.8838 -0.0832
  564SOL     OW 1690   2.903   1.384   2.887 -0.5208  0.3284  0.1851
  564SOL    HW1 1691   2.843   1.445   2.950 -1.5169  0.5526 -0.7735
  564SOL    HW2 1692   2.953   1.437   2.817 -2.1623 -2.4119 -2.4574
  565SOL     OW 1693   2.512   1.941   2.636  0.2944  0.3752 -0.2923
  565SOL    HW1 1694   2.479   2.038   2.610  1.4681  0.1607 -1.3704
  565SOL    HW2 1695   2.592   1.953   2.706  0.6765 -1.7154  0.6756
  566SOL     OW 1696   1.971   2.886   1.444 -0.2767  0.2763 -0.1451
  566SOL    HW1 1697   1.966   2.797   1.497  0.1653  2.4327 -0.4819
  566SOL    HW2 1698   1.973   2.878   1.340  3.0054 -2.7412 -0.4514
  567SOL     OW 1699   2.409   0.027   2.312 -0.6631  0.3845 -0.0388
  567SOL    HW1 1700   2.309   0.049   2.334  1.0969 -1.2769 -0.8086
  567SOL    HW2 1701   2.431   0.064   2.219 -1.2242 -2.8136 -0.9743
  568SOL     OW 1702   1.483   1.750   0.306 -0.3573 -0.1198 -0.4424
  568SOL    HW1 1703   1.425   1.826   0.260 -1.4364 -1.1635  1.4792
  568SOL    HW2 1704   1.585   1.773   0.314 -1.3011  0.3808 -2.4970
  569SOL     OW 1705   0.256   0.618   0.886  0.3351  0.2930 -0.4104
  569SOL    HW1 1706   0.302   0.576   0.805 -0.1625  1.4738  3.1390
  569SOL    HW2 1707   0.153   0.606   0.888 -1.2700 -0.0380  2.1604
  570SOL     OW 1708   0.610   0.872   2.901  0.7055  0.5216 -0.8291
  570SOL    HW1 1709   0.678   0.889   2.830  0.5619  0.2451  0.2930
  570SOL    HW2 1710   0.610   0.941   2.981  1.6294  0.4104 -0.5645
  571SOL     OW 1711   0.778   3.080   1.109 -0.4367  0.1400 -0.1179
  571SOL    HW1 1712   0.836   3.097   1.022 -1.5128 -0.2662 -1.5314
  571SOL    HW2 1713   0.783   2.979   1.145 -0.9268 -1.4474 -1.5695
  572SOL     OW 1714   1.628   2.696   1.405 -0.1721 -0.1752 -0.1997
  572SOL    HW1 1715   1.576   2.604   1.385  1.7329 -2.3821 -0.8058
  572SOL    HW2 1716   1.580   2.781   1.369 -0.6026  0.4308  2.8287
  573SOL     OW 1717   0.020   0.498   1.971 -0.9531  0.5468  0.2005
  573SOL    HW1 1718  -0.024   0.403   1.976 -2.5605 -1.4354 -1.2532
  573SOL    HW2 1719   0.076   0.513   1.889  0.1008  0.1917  1.4321
  574SOL     OW 1720   0.136   1.677   1.141 -0.2115 -0.9791  0.2405
  574SOL    HW1 1721   0.205   1.669   1.219  1.8635 -0.7955 -1.0462
  574SOL    HW2 1722   0.084   1.770   1.139  2.4479 -0.2115 -1.9552
  575SOL     OW 1723   0.891   2.211   0.964 -0.0269  0.5306  0.5150
  575SOL    HW1 1724   0.870   2.256   1.054  1.0820  1.0832  1.0238
  575SOL    HW2 1725   0.932   2.281   0.893  0.2172 -0.5086 -0.1186
  576SOL     OW 1726   2.907   2.995   1.716  0.5635  0.1856  0.1752
  576SOL    HW1 1727   2.801   2.985   1.694 -3.2939 -0.6275  0.2423
  576SOL    HW2 1728   2.943   3.091   1.696  1.3039 -0.3232  1.0917
  577SOL     OW 1729   2.660   1.227   3.095  0.0500 -0.0558  0.2506
  577SOL    HW1 1730   2.693   1.148   3.036  1.6165  0.6563 -1.9579
  577SOL    HW2 1731   2.666   1.220   3.198  1.7204  0.8983  3.5615
  578SOL     OW 1732   1.443   2.757   2.546 -0.9279  0.0204 -0.0056
  578SOL    HW1 1733   1.351   2.799   2.532  0.5813  0.7371  3.6316
  578SOL    HW2 1734   1.522   2.816   2.508  1.2295  1.1374  1.0072
  579SOL     OW 1735   0.062   2.407   0.182 -0.0294 -0.2561 -0.3030
  579SOL    HW1 1736  -0.032   2.403   0.230 -0.1187 -2.4533  0.7243
  579SOL    HW2 1737   0.139   2.429   0.248 -0.4800  1.4652  0.2376
  580SOL     OW 1738   0.941   2.683   0.427  0.1316  0.5306  0.4949
  580SOL    HW1 1739   0.988   2.650   0.345  1.0444  3.5416  1.5104
  580SOL    HW2 1740   0.842   2.704   0.398  0.5372  2.8341 -2.9031
  581SOL     OW 1741   1.275   2.699   1.431 -0.2094 -0.6142 -0.2344
  581SOL    HW1 1742   1.331   2.610   1.450 -2.7383  0.9199  0.0095
  581SOL    HW2 1743   1.333   2.781   1.406  0.9061 -2.9937  0.3986
  582SOL     OW 1744   1.484   0.077   1.926 -0.2636 -0.2521  0.0977
  582SOL    HW1 1745   1.488   0.145   2.007  1.7937 -2.0594 -1.1797
  582SOL    HW2 1746   1.562   0.090   1.856 -0.9978 -0.9655 -2.5492
  583SOL     OW 1747   2.481   3.069   0.552  0.1030 -0.4150  0.0433
  583SOL    HW1 1748   2.539   3.010   0.491 -0.1636 -0.9992 -2.2037
  583SOL    HW2 1749   2.398   3.020   0.586  0.4216  0.3066  1.0645
  584SOL     OW 1750   1.611   1.094   2.308 -0.0030 -0.8721 -0.4041
  584SOL    HW1 1751   1.678   1.168   2.263  3.4972 -0.6287 -0.1654
  584SOL    HW2 1752   1.659   0.998   2.315  0.9104 -2.0849 -1.3420
  585SOL     OW 1753   2.059   2.662   2.879  0.1714 -0.3002 -0.3310
  585SOL    HW1 1754   2.094   2.566   2.869 -1.5524  1.1745 -1.1173
  585SOL    HW2 1755   1.954   2.673   2.864 -1.2240  3.1556  0.7261
  586SOL     OW 1756   2.920   0.394   1.570  0.1341 -0.1505  0.2443
  586SOL    HW1 1757   2.906   0.484   1.623  1.3291 -0.5865  2.0716
  586SOL    HW2 1758   2.845   0.381   1.504  2.4857  0.5830  5.0055
  587SOL     OW 1759   2.139   1.472   2.702  0.4382 -0.2469  0.0811
  587SOL    HW1 1760   2.135   1.405   2.623  0.6443 -1.1004  1.6037
  587SOL    HW2 1761   2.234   1.516   2.717  0.6714 -0.5195  0.9391
  588SOL     OW 1762   0.506   2.656   2.273 -0.3501 -0.8112 -0.2081
  588SOL    HW1 1763   0.490   2.678   2.169 -2.1220 -0.4209 -3.9280
  588SOL    HW2 1764   0.486   2.562   2.302  0.6009  0.8663  0.7008
  589SOL     OW 1765   2.177   1.293   2.479 -0.0007  0.2997  0.0002
  589SOL    HW1 1766   2.131   1.254   2.395  0.7170  0.7186  1.6604
  589SOL    HW2 1767   2.285   1.291   2.476  1.8139  0.2096 -1.1626
  590SOL     OW 1768   2.319   1.704   2.067 -0.4084 -0.1488  0.2015
  590SOL    HW1 1769   2.387   1.621   2.059  0.2188 -0.0179  0.7489
  590SOL    HW2 1770   2.336   1.746   2.161 -1.6691  0.7865 -0.5476
  591SOL     OW 1771   1.261   2.389   0.190  0.8110  0.4013 -0.4714
  591SOL    HW1 1772   1.296   2.304   0.155  0.7038  0.7924 -0.8676
  591SOL    HW2 1773   1.279   2.402   0.294  0.5663  0.7811  0.4692
  592SOL     OW 1774   1.797   2.361   0.794 -0.2333  0.4596  0.0381
  592SOL    HW1 1775   1.775   2.377   0.692 -0.6605 -1.0365 -1.1374
  592SOL    HW2 1776   1.895   2.337   0.808  0.1215  0.9000 -1.7635
  593SOL     OW 1777   0.772   0.307   0.254  0.3044 -0.4753  0.0600
  593SOL    HW1 1778   0.801   0.277   0.156 -1.7974  0.3931 -1.7406
  593SOL    HW2 1779   0.751   0.407   0.251  2.7773  0.0785  2.2222
  594SOL     OW 1780   1.056   1.804   2.655  0.1952 -0.3576 -0.3074
  594SOL    HW1 1781   1.156   1.794   2.625  0.5104 -3.4692 -0.9689
  594SOL    HW2 1782   1.047   1.868   2.733 -1.4347  0.1039  0.6152
  595SOL     OW 1783   1.509   0.110   0.981  0.1457  0.5602  0.3036
  595SOL    HW1 1784   1.587   0.041   0.970 -0.7761 -1.5477 -1.0389
  595SOL    HW2 1785   1.420   0.082   0.935 -0.6475 -2.8856 -0.3923
  596SOL     OW 1786   0.104   1.475   2.250  0.7614  0.1292  0.1681
  596SOL    HW1 1787   0.033   1.413   2.291  0.8007 -2.3348 -3.1397
  596SOL    HW2 1788   0.175   1.506   2.322 -0.3950 -0.7267  0.3687
  597SOL     OW 1789   2.014   2.669   1.822  0.4194 -0.1122  0.3944
  597SOL    HW1 1790   1.970   2.642   1.737  0.8577  2.7647 -2.2937
  597SOL    HW2 1791   2.117   2.661   1.810  2.1754  1.6928 -1.0126
  598SOL     OW 1792   2.518   2.856   1.259 -0.7242 -0.6574  0.8427
  598SOL    HW1 1793   2.610   2.912   1.272 -1.8329  3.2611  1.6810
  598SOL    HW2 1794   2.526   2.776   1.192  1.3382  1.1039 -0.5748
  599SOL     OW 1795   2.837   0.242   2.518  0.8757  0.0668 -0.1433
  599SOL    HW1 1796   2.915   0.262   2.456 -0.5727  1.2289  1.2837
  599SOL    HW2 1797   2.781   0.327   2.518  0.5846 -1.8808 -2.9831
  600SOL     OW 1798   2.787   1.155   2.766 -0.3331 -0.3789  0.4880
  600SOL    HW1 1799   2.735   1.090   2.830  1.1706 -1.0728 -1.3754
  600SOL    HW2 1800   2.827   1.242   2.810  2.5846  0.0170  1.8497
  601SOL     OW 1801   2.964   1.341   2.004  0.0672  0.1453  0.0778
  601SOL    HW1 1802   2.897   1.359   1.922  0.5641  1.2712 -2.4802
  601SOL    HW2 1803   3.037   1.411   1.996  1.3302 -0.7455 -0.1638
  602SOL     OW 1804   1.527   1.552   2.278  0.5886  0.0401  0.5642
  602SOL    HW1 1805   1.444   1.575   2.337  1.0168 -0.3191 -1.5287
  602SOL    HW2 1806   1.618   1.598   2.306  2.8331 -0.9224 -0.5942
  603SOL     OW 1807   0.634   1.200   2.714 -0.6629  0.3878  0.2205
  603SOL    HW1 1808   0.556   1.260   2.676  0.5483  1.7003 -0.2878
  603SOL    HW2 1809   0.634   1.101   2.680  0.0785  0.5217 -1.1465
  604SOL     OW 1810   2.495   1.027   0.210  0.0954  0.8785 -0.3263
  604SOL    HW1 1811   2.581   1.081   0.233  0.0578  2.1046 -1.1411
  604SOL    HW2 1812   2.500   0.971   0.121 -0.3268  1.1589  0.8407
  605SOL     OW 1813   2.545   1.129   1.967  0.4717  0.5417 -0.5262
  605SOL    HW1 1814   2.545   1.094   1.867 -0.7315 -1.0224 -1.2824
  605SOL    HW2 1815   2.616   1.207   1.987  3.6123  1.1696  0.3399
  606SOL     OW 1816   1.505   2.480   2.558  0.3461 -0.8630 -0.3361
  606SOL    HW1 1817   1.457   2.568   2.571 -0.7245 -1.4877 -0.7921
  606SOL    HW2 1818   1.456   2.413   2.491 -0.5295 -0.2764 -0.1233
  607SOL     OW 1819   1.272   1.587   0.222 -0.4500  0.5009  0.2826
  607SOL    HW1 1820   1.197   1.653   0.253 -1.3409 -0.0850  0.1117
  607SOL    HW2 1821   1.363   1.623   0.251 -1.6371 -0.1375 -2.0641
  608SOL     OW 1822   1.391   2.839   0.375 -0.4451 -0.9481 -0.6289
  608SOL    HW1 1823   1.442   2.865   0.287 -0.2395 -0.1561  0.2082
  608SOL    HW2 1824   1.335   2.922   0.407 -0.0943  1.2949  0.3114
  609SOL     OW 1825   1.348   1.328   0.170 -0.2074 -0.2343  0.0680
  609SOL    HW1 1826   1.310   1.418   0.200 -1.2746 -2.2056  2.2761
  609SOL    HW2 1827   1.308   1.295   0.079  1.3277  0.7680  3.0872
  610SOL     OW 1828   3.009   1.225   2.264 -0.1447 -0.0754 -0.0689
  610SOL    HW1 1829   2.994   1.125   2.250 -0.5453  2.3331 -1.8610
  610SOL    HW2 1830   2.977   1.275   2.181 -1.2755  1.4307  1.1787
  611SOL     OW 1831   2.549   0.249   1.123  0.7342 -0.4046 -0.4135
  611SOL    HW1 1832   2.491   0.167   1.163 -0.5938  1.2423  0.3966
  611SOL    HW2 1833   2.633   0.275   1.186 -0.0094  0.3405  2.8744
  612SOL     OW 1834   0.798   2.335   1.215 -0.3966 -0.0613  0.6196
  612SOL    HW1 1835   0.741   2.281   1.281  0.7965  0.8269 -1.7116
  612SOL    HW2 1836   0.741   2.410   1.172 -0.1831  1.5292  0.8630
  613SOL     OW 1837   0.793   1.393   2.364 -0.5080  0.0554  0.4963
  613SOL    HW1 1838   0.812   1.477   2.306  3.5244 -2.3919  1.2748
  613SOL    HW2 1839   0.764   1.307   2.313  0.6545  1.7087  1.7906
  614SOL     OW 1840   1.544   1.668   1.842 -0.3321 -0.0833  0.2337
  614SOL    HW1 1841   1.505   1.733   1.773 -0.8086 -3.9476  1.9241
  614SOL    HW2 1842   1.631   1.701   1.889 -3.0762  2.5140  0.8147
  615SOL     OW 1843   0.723   1.416   1.709  0.3131  0.7824 -0.0856
  615SOL    HW1 1844   0.676   1.382   1.621 -0.6697 -1.2789 -2.2550
  615SOL    HW2 1845   0.782   1.500   1.692 -2.8640 -1.1482  0.4551
  616SOL     OW 1846   1.136   1.566   2.216  0.2432  0.0362  0.5781
  616SOL    HW1 1847   1.033   1.537   2.220 -1.1396  0.9903 -0.0160
  616SOL    HW2 1848   1.165   1.586   2.119 -0.1174 -1.7074  0.7633
  617SOL     OW 1849   3.037   1.540   1.631  0.0780  0.4371 -0.1327
  617SOL    HW1 1850   3.005   1.457   1.686 -2.5447 -0.6721 -1.2688
  617SOL    HW2 1851   3.077   1.509   1.537  1.8968 -1.2902 -1.0736
  618SOL     OW 1852   1.940   1.976   1.473 -1.0399 -0.0358  0.4177
  618SOL    HW1 1853   2.017   1.971   1.403  0.6180 -0.7644 -1.9872
  618SOL    HW2 1854   1.919   1.883   1.516 -0.8209 -0.0639  1.0587
  619SOL     OW 1855   1.732   0.507   2.340  0.4222 -0.7698  0.1020
  619SOL    HW1 1856   1.664   0.546   2.271  1.0748 -0.3438 -0.3648
  619SOL    HW2 1857   1.715   0.412   2.371  4.0253  1.3926  0.9661
  620SOL     OW 1858   2.248   2.925   0.644  0.1248 -0.0656  0.3488
  620SOL    HW1 1859   2.147   2.945   0.651 -1.5390  0.4379  0.9471
  620SOL    HW2 1860   2.293   2.905   0.739 -0.4502 -2.0466  0.1865
  621SOL     OW 1861   2.190   1.898   1.347 -0.2484  0.2953 -0.2243
  621SOL    HW1 1862   2.188   1.878   1.451 -1.3968  0.2023  0.2473
  621SOL    HW2 1863   2.187   1.803   1.298 -0.7851 -2.2369 -0.1197
  622SOL     OW 1864   2.208   0.971   1.839 -0.0070  0.9354 -0.1558
  622SOL    HW1 1865   2.290   0.910   1.866 -0.3850  1.0205  0.1985
  622SOL    HW2 1866   2.128   0.944   1.899  1.6220 -0.0700  2.8301
  623SOL     OW 1867   1.282   0.849   2.573 -0.1222  0.7418 -0.3027
  623SOL    HW1 1868   1.241   0.807   2.662  0.9961 -0.4603  2.7043
  623SOL    HW2 1869   1.218   0.852   2.487 -3.2148  0.5471 -1.0644
  624SOL     OW 1870   0.516   0.712   0.051  0.0790 -0.4083  0.4110
  624SOL    HW1 1871   0.572   0.743  -0.030 -2.2001  4.4374  1.3972
  624SOL    HW2 1872   0.513   0.795   0.107  2.3082 -2.8413  0.0331
  625SOL     OW 1873   2.749   1.711   0.847  0.4998  0.3190 -0.6903
  625SOL    HW1 1874   2.678   1.752   0.911  0.9935  2.0712  1.4850
  625SOL    HW2 1875   2.721   1.613   0.826 -2.2194  1.1007 -1.8231
  626SOL     OW 1876   0.488   2.749   2.025 -0.2198  0.7424  0.7894
  626SOL    HW1 1877   0.537   2.838   2.012 -1.2889 -1.0138  2.1457
  626SOL    HW2 1878   0.397   2.755   1.976  1.3285  0.6329  0.1029
  627SOL     OW 1879   0.751   1.068   1.514 -0.1526 -0.5425  0.2574
  627SOL    HW1 1880   0.741   0.972   1.479  0.0237  2.5990  0.9451
  627SOL    HW2 1881   0.847   1.105   1.483  1.3797  0.9803 -1.0255
  628SOL     OW 1882   2.431   0.177   0.733 -0.1000 -0.2036  0.0969
  628SOL    HW1 1883   2.461   0.094   0.674  1.4140 -0.3606 -1.0094
  628SOL    HW2 1884   2.330   0.195   0.747  3.5163  0.7526 -1.4939
  629SOL     OW 1885   1.990   0.948   1.998 -0.0501  0.1505 -0.1980
  629SOL    HW1 1886   2.065   0.966   2.066 -0.4270 -2.0310 -0.2570
  629SOL    HW2 1887   1.926   1.033   2.003 -1.7894  0.5254  1.2727
  630SOL     OW 1888   2.817   2.207   0.749 -0.4647 -0.1488 -0.4104
  630SOL    HW1 1889   2.752   2.267   0.809  1.4185  0.7664  3.7840
  630SOL    HW2 1890   2.780   2.118   0.721  3.6955  2.1080 -0.4708
  631SOL     OW 1891   3.027   0.236   2.127 -0.2654 -0.3843 -0.2734
  631SOL    HW1 1892   3.101   0.288   2.177 -1.1750  2.4256  0.2327
  631SOL    HW2 1893   3.070   0.182   2.052  0.9906  0.7983 -0.9953
  632SOL     OW 1894   2.300   2.554   0.758 -0.3103 -0.5600  0.4804
  632SOL    HW1 1895   2.379   2.608   0.796 -4.7436  1.2524  0.4334
  632SOL    HW2 1896   2.291   2.579   0.653 -2.1707 -2.2526 -1.2375
  633SOL     OW 1897   1.595   1.268   2.656 -0.0678 -1.0672  0.6660
  633SOL    HW1 1898   1.552   1.349   2.708  0.9503  0.9007 -1.0971
  633SOL    HW2 1899   1.548   1.254   2.564 -0.1599  0.5093 -0.2792
  634SOL     OW 1900   0.622   2.066   0.985  0.2651 -0.3926 -0.2471
  634SOL    HW1 1901   0.543   2.111   1.026  3.1153  0.3636  1.0492
  634SOL    HW2 1902   0.709   2.122   1.006  2.5039  0.1125 -0.2970
  635SOL     OW 1903   0.074   2.242   3.056  0.3815 -0.3644 -0.8839
  635SOL    HW1 1904   0.023   2.294   2.981 -2.1309  5.0031  0.8404
  635SOL    HW2 1905   0.053   2.280   3.152  0.4895 -1.9857  1.7262
  636SOL     OW 1906   2.320   2.864   2.038  0.2604  0.4633  0.2276
  636SOL    HW1 1907   2.292   2.963   2.060 -0.4023  3.9699  1.4092
  636SOL    HW2 1908   2.271   2.795   2.102  1.2624 -1.5607 -1.4166
  637SOL     OW 1909   2.597   0.716   2.056  0.2719 -0.3600 -0.0213
  637SOL    HW1 1910   2.565   0.730   1.957 -0.4022 -2.5189  0.3894
  637SOL    HW2 1911   2.649   0.795   2.098  0.1041 -1.0288 -0.1414
  638SOL     OW 1912   2.492   1.891   1.391 -0.4140  0.6919  0.6634
  638SOL    HW1 1913   2.396   1.893   1.349 -0.3834 -3.6110 -0.1172
  638SOL    HW2 1914   2.524   1.788   1.415 -0.1653 -1.1297  0.3029
  639SOL     OW 1915   1.298   2.237   1.570  0.1970  0.1186 -0.0297
  639SOL    HW1 1916   1.298   2.155   1.507  0.6175  0.5325 -2.7327
  639SOL    HW2 1917   1.214   2.242   1.632  0.8718  0.8247 -2.3122
  640SOL     OW 1918   0.212   1.238   1.528  0.0577 -0.5357  0.3984
  640SOL    HW1 1919   0.219   1.281   1.624  2.4649  3.1360  1.3544
  640SOL    HW2 1920   0.298   1.172   1.513  0.9966 -1.2745 -0.3535
  641SOL     OW 1921   1.938   0.218   1.451 -0.6960  0.5148 -0.0788
  641SOL    HW1 1922   1.857   0.273   1.469  3.5595  0.5429 -0.7166
  641SOL    HW2 1923   1.965   0.154   1.529  0.0225 -0.1070  1.7263
  642SOL     OW 1924   1.988   0.094   0.294 -0.1466  0.2765 -0.2095
  642SOL    HW1 1925   2.088   0.082   0.286 -0.8805 -2.0588 -0.6450
  642SOL    HW2 1926   1.957   0.072   0.391  2.0106 -0.3148 -0.7925
  643SOL     OW 1927   2.827   1.833   2.110 -0.7998  0.1242 -0.1876
  643SOL    HW1 1928   2.783   1.763   2.043  0.9941 -2.1016 -0.4343
  643SOL    HW2 1929   2.841   1.928   2.068  1.6918 -0.1590  1.2060
  644SOL     OW 1930   2.163   2.268   1.237  0.1958 -0.3229  0.2243
  644SOL    HW1 1931   2.241   2.206   1.206 -2.2249 -1.5223  1.0500
  644SOL    HW2 1932   2.193   2.331   1.312  0.4217 -1.6165 -2.4203
  645SOL     OW 1933   0.635   0.886   1.165  0.9059 -0.3873  0.1017
  645SOL    HW1 1934   0.576   0.814   1.117 -0.4505  2.4656 -2.1441
  645SOL    HW2 1935   0.644   0.969   1.103 -2.9117 -0.3319 -0.8131
  646SOL     OW 1936   1.459   1.961   1.772 -0.1189  0.0359  0.2085
  646SOL    HW1 1937   1.551   2.001   1.762 -0.1989 -3.4454  0.3551
  646SOL    HW2 1938   1.424   1.972   1.869  0.8290 -1.2804 -0.9686
  647SOL     OW 1939   0.868   0.911   0.658  0.6278  0.4027  0.1470
  647SOL    HW1 1940   0.954   0.891   0.711 -1.3952  1.0744 -1.2608
  647SOL    HW2 1941   0.784   0.858   0.689 -2.0152  4.2580 -1.5678
  648SOL     OW 1942   0.205   0.225   0.329 -0.6526 -0.0128  0.0222
  648SOL    HW1 1943   0.235   0.150   0.271  0.8742  3.0511  1.7071
  648SOL    HW2 1944   0.145   0.297   0.288 -0.5339  0.3112 -1.3658
  649SOL     OW 1945   3.090   0.043   0.928 -0.1608 -0.7018  0.2243
  649SOL    HW1 1946   3.185   0.040   0.889 -2.8579 -1.1382  2.3122
  649SOL    HW2 1947   3.087   0.061   1.029  2.9019  1.3342 -0.1405
  650SOL     OW 1948   2.723   0.721   1.436  0.5029  0.1744  0.3058
  650SOL    HW1 1949   2.632   0.719   1.490 -3.1974 -1.2709  1.2960
  650SOL    HW2 1950   2.718   0.791   1.359 -2.2935  3.5702  0.1992
  651SOL     OW 1951   0.912   1.593   1.577 -0.1852 -0.0372 -0.4605
  651SOL    HW1 1952   0.993   1.661   1.569 -1.0489 -3.3600  0.3310
  651SOL    HW2 1953   0.829   1.623   1.526  2.8422  1.2764 -1.1399
  652SOL     OW 1954   2.313   2.520   2.390  0.0608 -0.0964 -0.0402
  652SOL    HW1 1955   2.221   2.519   2.440 -1.5612  1.3505  1.9327
  652SOL    HW2 1956   2.314   2.598   2.322  2.9353 -1.9287  2.8815
  653SOL     OW 1957   2.720   1.163   0.285  0.4119 -0.2484 -0.2181
  653SOL    HW1 1958   2.758   1.257   0.311  1.7746 -0.5360  0.1755
  653SOL    HW2 1959   2.789   1.090   0.308 -0.7424 -1.8024  2.1957
  654SOL     OW 1960   1.206   2.250   1.213  0.0214 -0.3060  0.2290
  654SOL    HW1 1961   1.254   2.186   1.277 -1.5035 -1.4892 -0.7904
  654SOL    HW2 1962   1.263   2.266   1.127  2.2003 -0.8794 -0.3499
  655SOL     OW 1963   0.231   1.051   1.839 -0.4460 -0.1456  0.0051
  655SOL    HW1 1964   0.283   0.961   1.813  0.9798 -1.7516  2.8606
  655SOL    HW2 1965   0.293   1.128   1.822  1.3147  1.6784 -0.1804
  656SOL     OW 1966   2.504   2.460   2.561  0.2477 -0.3818 -0.2089
  656SOL    HW1 1967   2.605   2.472   2.544 -0.5987 -0.3398 -1.7213
  656SOL    HW2 1968   2.442   2.486   2.478 -0.1494 -1.3323  3.3639
  657SOL     OW 1969   3.068   1.110   1.840  0.1051  0.4264  0.2595
  657SOL    HW1 1970   3.049   1.183   1.910  2.1962 -0.0067 -0.3151
  657SOL    HW2 1971   3.172   1.098   1.825  0.2424 -0.7429 -1.2970
  658SOL     OW 1972   1.685   0.238   2.380  0.5755  0.3202  0.1417
  658SOL    HW1 1973   1.724   0.168   2.451 -1.3063  3.4851  0.7449
  658SOL    HW2 1974   1.745   0.237   2.298 -0.5124  1.1344 -0.8373
  659SOL     OW 1975   1.414   0.580   2.869 -0.1890  0.2509 -0.0583
  659SOL    HW1 1976   1.493   0.638   2.906 -0.5159 -0.1696  0.6158
  659SOL    HW2 1977   1.339   0.640   2.833  2.9738 -0.3117 -2.0716
  660SOL     OW 1978   1.414   0.392   1.387 -0.5276 -0.0771  0.5187
  660SOL    HW1 1979   1.446   0.420   1.478  0.9277 -1.1753 -2.2028
  660SOL    HW2 1980   1.489   0.341   1.332  1.3372  2.7973 -0.9559
  661SOL     OW 1981   2.460   1.162   0.679  0.4728 -0.1025 -0.1429
  661SOL    HW1 1982   2.475   1.104   0.593 -2.6983 -0.8085 -0.3679
  661SOL    HW2 1983   2.433   1.259   0.656  0.4229  0.1489  2.0460
  662SOL     OW 1984   1.285   0.452   1.828 -0.0419  0.6212  0.1469
  662SOL    HW1 1985   1.255   0.352   1.804  0.6369 -3.6788  0.6586
  662SOL    HW2 1986   1.218   0.500   1.892 -0.2883  2.2172  2.3066
  663SOL     OW 1987   0.833   1.591   2.169  0.0555 -0.3498 -0.3557
  663SOL    HW1 1988   0.799   1.683   2.214  0.4057  2.7645 -0.6375
  663SOL    HW2 1989   0.786   1.565   2.079  0.1187 -0.7728 -1.1111
  664SOL     OW 1990   1.665   2.048   1.400 -0.2330  0.2437  0.3532
  664SOL    HW1 1991   1.580   1.991   1.417  0.2043  1.8468 -0.0756
  664SOL    HW2 1992   1.754   2.006   1.436  0.3656 -0.1971  1.1547
  665SOL     OW 1993   2.293   0.626   1.989 -0.1510 -0.4570  0.1745
  665SOL    HW1 1994   2.310   0.527   2.021  1.9144 -0.5841 -0.2847
  665SOL    HW2 1995   2.208   0.676   2.018  1.1971  0.6742  0.7828
  666SOL     OW 1996   0.510   2.284   0.479  0.0640 -0.4056  0.7666
  666SOL    HW1 1997   0.552   2.377   0.474 -2.7567 -1.7965  1.4156
  666SOL    HW2 1998   0.462   2.259   0.573  0.4988 -2.0174  0.3735
  667SOL     OW 1999   2.083   0.271   0.982 -0.0154 -0.4759 -0.0442
  667SOL    HW1 2000   2.118   0.365   1.010 -0.3746  2.4823 -1.1793
  667SOL    HW2 2001   2.003   0.238   1.044  1.8791 -3.1872  0.5658
  668SOL     OW 2002   1.965   0.499   1.206 -0.9264  0.8320  0.5681
  668SOL    HW1 2003   2.034   0.504   1.129  1.6272 -3.4833  0.0481
  668SOL    HW2 2004   2.013   0.470   1.293 -2.2771  1.2335  0.2993
  669SOL     OW 2005   2.991   2.074   0.940 -0.5346  0.4276  0.1901
  669SOL    HW1 2006   2.928   2.109   0.867  2.6076 -0.5326  3.5481
  669SOL    HW2 2007   2.975   2.125   1.029 -0.4932 -3.8840 -1.9036
  670SOL     OW 2008   2.792   2.348   2.011 -0.2454 -0.1001 -0.0009
  670SOL    HW1 2009   2.735   2.320   2.099 -2.4436 -2.2426 -0.4008
  670SOL    HW2 2010   2.777   2.447   1.985  0.1705 -1.7045 -0.5720
  671SOL     OW 2011   1.706   1.660   1.457 -0.3095  0.6256  0.0730
  671SOL    HW1 2012   1.694   1.717   1.373 -1.2574  2.3187 -2.3702
  671SOL    HW2 2013   1.697   1.561   1.434 -0.3060  0.5808  2.6496
  672SOL     OW 2014   0.427   0.686   2.434 -0.0491 -0.0653  0.4914
  672SOL    HW1 2015   0.441   0.669   2.330  0.7331 -1.0801  0.0007
  672SOL    HW2 2016   0.352   0.748   2.455  1.4984  1.4566  0.3876
  673SOL     OW 2017   0.160   1.214   1.142 -0.0408  0.1737  0.6967
  673SOL    HW1 2018   0.199   1.303   1.190 -0.4479  2.4815 -1.6920
  673SOL    HW2 2019   0.241   1.150   1.107  0.1466 -2.3907  0.7312
  674SOL     OW 2020   1.536   2.846   0.134 -0.0136  0.3865  0.1326
  674SOL    HW1 2021   1.591   2.936   0.119 -2.6618 -0.0986  1.1679
  674SOL    HW2 2022   1.592   2.758   0.134  1.4766  0.3868  1.2052
  675SOL     OW 2023   1.735   0.853   2.334  0.3588  1.1682 -0.1268
  675SOL    HW1 2024   1.832   0.847   2.306  1.9823  0.2080 -0.9850
  675SOL    HW2 2025   1.672   0.780   2.295 -1.1502 -0.0494  1.9624
  676SOL     OW 2026   2.512   1.499   2.033  0.3056 -0.4653  0.4140
  676SOL    HW1 2027   2.493   1.481   1.931  2.0785 -0.5130  0.7891
  676SOL    HW2 2028   2.573   1.428   2.077 -0.9597  2.3726 -2.0515
  677SOL     OW 2029   1.839   0.536   0.949  0.8959  0.4726  0.4291
  677SOL    HW1 2030   1.868   0.595   1.026 -1.3646  0.4190 -1.2690
  677SOL    HW2 2031   1.762   0.472   0.971  0.6811 -0.0138 -0.7200
  678SOL     OW 2032   0.106   0.818   1.676 -0.0981  0.4584 -0.1270
  678SOL    HW1 2033   0.204   0.812   1.715  0.1758  1.2324 -2.1416
  678SOL    HW2 2034   0.030   0.806   1.745  0.4699  3.0110 -0.2122
  679SOL     OW 2035   2.544   1.150   1.135 -0.7115 -0.6279  0.0015
  679SOL    HW1 2036   2.456   1.192   1.169  1.4435 -0.1128 -0.9241
  679SOL    HW2 2037   2.528   1.065   1.079 -0.7194  2.0827  0.7982
  680SOL     OW 2038   2.840   0.650   1.675 -0.0390  0.0630 -0.2252
  680SOL    HW1 2039   2.800   0.680   1.588 -0.8714 -0.0740  1.4672
  680SOL    HW2 2040   2.886   0.727   1.726 -0.4785 -1.2566 -1.2728
  681SOL     OW 2041   3.050   0.142   1.647  0.1422 -0.7451  0.0212
  681SOL    HW1 2042   3.118   0.112   1.576  0.7531 -0.1710  0.9775
  681SOL    HW2 2043   3.002   0.233   1.620  1.8998  0.8333 -2.0330
  682SOL     OW 2044   0.709   0.035   1.366 -0.2832 -1.2393 -0.3178
  682SOL    HW1 2045   0.649  -0.034   1.409  0.1201 -0.4784 -1.6667
  682SOL    HW2 2046   0.719   0.035   1.263  0.9905  0.2536  0.9279
  683SOL     OW 2047   1.376   0.243   2.176 -0.1804  0.0324 -0.2845
  683SOL    HW1 2048   1.369   0.252   2.283 -0.2721 -0.8967 -0.5571
  683SOL    HW2 2049   1.464   0.286   2.144 -1.5301 -0.1042 -0.5964
  684SOL     OW 2050   1.420   2.112   0.479 -0.1133 -0.3102 -0.5903
  684SOL    HW1 2051   1.484   2.049   0.529 -0.7871  1.2416  0.7920
  684SOL    HW2 2052   1.330   2.065   0.452 -0.2295 -1.4867  0.8245
  685SOL     OW 2053   2.128   1.914   1.958  0.0659  0.8561  0.0379
  685SOL    HW1 2054   2.187   1.983   1.910  1.0205  1.4703 -1.6318
  685SOL    HW2 2055   2.185   1.827   1.969 -1.0788 -0.4529 -1.0683
  686SOL     OW 2056   1.552   1.767   2.778 -0.4122 -0.6650 -0.2530
  686SOL    HW1 2057   1.569   1.674   2.739 -1.8731 -0.9925  0.7625
  686SOL    HW2 2058   1.579   1.767   2.877  1.1215  1.8452  1.3954
  687SOL     OW 2059   1.343   2.502   1.911  0.3542 -0.3873 -0.4952
  687SOL    HW1 2060   1.380   2.408   1.880  0.3538 -2.8775  1.0909
  687SOL    HW2 2061   1.398   2.544   1.994 -0.4622  1.7793  3.2434
  688SOL     OW 2062   2.083   1.475   1.613  0.0371  1.2712 -0.4483
  688SOL    HW1 2063   2.176   1.493   1.573 -0.5062  1.7634 -1.1005
  688SOL    HW2 2064   2.036   1.398   1.559  0.2784  1.7684  0.9365
  689SOL     OW 2065   2.446   1.103   2.752 -0.2481 -0.0948 -0.7028
  689SOL    HW1 2066   2.366   1.040   2.775 -0.4744  1.9018  1.5251
  689SOL    HW2 2067   2.527   1.092   2.814  1.6105  1.3552  1.2144
  690SOL     OW 2068   2.203   2.762   3.090  0.3465 -0.6347 -0.2775
  690SOL    HW1 2069   2.138   2.731   3.015 -2.7507  0.8083  1.6982
  690SOL    HW2 2070   2.159   2.798   3.172  0.6807  1.8743 -3.0519
  691SOL     OW 2071   2.559   0.488   2.181  0.0408 -0.1450  0.6903
  691SOL    HW1 2072   2.621   0.412   2.146 -2.2935 -0.8594 -2.0799
  691SOL    HW2 2073   2.593   0.580   2.152  0.6315 -2.5046  0.2730
  692SOL     OW 2074   2.736   1.230   0.686 -0.4358 -0.1591  0.2244
  692SOL    HW1 2075   2.637   1.227   0.708  2.1798  0.1876 -0.0618
  692SOL    HW2 2076   2.798   1.301   0.735  0.0787  1.7869 -1.0163
  693SOL     OW 2077   2.860   2.961   0.569 -0.1641  0.0674 -0.2563
  693SOL    HW1 2078   2.880   3.038   0.631 -0.0125 -2.6576 -0.1579
  693SOL    HW2 2079   2.773   2.964   0.520  0.6713 -0.4245  3.1736
  694SOL     OW 2080   2.367   2.127   0.068 -0.5876 -0.5793  0.2245
  694SOL    HW1 2081   2.342   2.230   0.078 -3.3655 -1.7760  0.9064
  694SOL    HW2 2082   2.286   2.070   0.063  2.2383  3.2239 -1.8668
  695SOL     OW 2083   0.551   2.963   1.490  0.0089 -0.3786  0.0845
  695SOL    HW1 2084   0.521   2.867   1.460  2.1040 -1.1487  2.3867
  695SOL    HW2 2085   0.504   2.999   1.572  1.2212 -0.1905 -0.5486
  696SOL     OW 2086   2.695   1.954   0.689 -0.5270  0.2197 -0.3633
  696SOL    HW1 2087   2.757   1.881   0.737  1.3843  0.5413 -0.4305
  696SOL    HW2 2088   2.637   1.915   0.609  2.6253  1.7444 -0.7585
  697SOL     OW 2089   1.700   2.122   1.755 -0.5399 -0.7936 -0.4944
  697SOL    HW1 2090   1.753   2.036   1.766 -0.3391 -2.9425  1.0857
  697SOL    HW2 2091   1.756   2.210   1.751 -0.9975  0.8571  1.9105
  698SOL     OW 2092   2.925   0.340   2.763 -0.0695 -0.0977  0.7117
  698SOL    HW1 2093   2.897   0.302   2.674 -0.6553 -1.3259  1.0419
  698SOL    HW2 2094   2.992   0.272   2.814  2.3131 -4.0033  0.4088
  699SOL     OW 2095   1.563   0.096   2.937 -0.4063  0.2831 -0.1632
  699SOL    HW1 2096   1.530   0.005   2.906 -2.4361  0.2541  1.2315
  699SOL    HW2 2097   1.600   0.158   2.866 -0.1337  1.8261  2.0579
  700SOL     OW 2098   0.984   2.365   1.390 -0.4656 -0.3901  0.2893
  700SOL    HW1 2099   1.078   2.322   1.376 -2.0923 -0.8688  0.2937
  700SOL    HW2 2100   0.927   2.350   1.304 -2.8235  0.9501 -1.8219
  701SOL     OW 2101   1.847   2.797   0.052  0.2310  0.2401  0.2336
  701SOL    HW1 2102   1.888   2.738   0.125  0.1049 -3.3900 -3.3453
  701SOL    HW2 2103   1.900   2.887   0.045  0.8148 -0.9282  1.6104
  702SOL     OW 2104   2.081   1.399   1.893  0.4998 -0.3163 -0.6222
  702SOL    HW1 2105   2.153   1.325   1.906  0.4377  3.9439 -0.4755
  702SOL    HW2 2106   2.079   1.449   1.801  2.4642  0.6421 -1.3307
  703SOL     OW 2107   1.968   0.842   1.475 -0.1426  0.0845 -0.0163
  703SOL    HW1 2108   1.957   0.744   1.506  0.6274  1.3153  0.3417
  703SOL    HW2 2109   2.036   0.895   1.535  0.7287 -2.7556  0.0344
  704SOL     OW 2110   0.344   2.022   1.750 -0.1045 -0.0449  0.4079
  704SOL    HW1 2111   0.361   1.973   1.838  0.7759  0.4178 -2.6410
  704SOL    HW2 2112   0.398   2.114   1.732 -0.9680 -1.3027 -0.1359
  705SOL     OW 2113   2.551   1.404   0.873 -0.0605 -0.0076 -0.0019
  705SOL    HW1 2114   2.449   1.387   0.868 -0.1044 -1.5194 -0.9031
  705SOL    HW2 2115   2.601   1.329   0.913  0.0562  1.6411  0.5293
  706SOL     OW 2116   0.646   1.749   1.887 -0.3896  0.0865  0.3979
  706SOL    HW1 2117   0.642   1.657   1.937 -0.4242 -0.9572 -1.0012
  706SOL    HW2 2118   0.736   1.789   1.884 -3.0531 -1.1425  0.2288
  707SOL     OW 2119   2.294   1.225   1.934  0.2346  0.2430  0.4981
  707SOL    HW1 2120   2.384   1.198   1.973  1.0858  0.0609 -0.3573
  707SOL    HW2 2121   2.235   1.141   1.910 -1.6542 -0.7658  2.2398
  708SOL     OW 2122   3.072   0.463   3.028  0.1816 -0.2111 -0.1214
  708SOL    HW1 2123   3.167   0.477   3.002 -3.2651  1.3862 -1.7033
  708SOL    HW2 2124   3.034   0.395   2.962  0.2262  1.7019  0.5089
  709SOL     OW 2125   1.797   1.865   0.299 -0.4993  0.2969  0.0865
  709SOL    HW1 2126   1.843   1.945   0.341 -0.9895 -0.0527 -1.5740
  709SOL    HW2 2127   1.793   1.866   0.192 -0.6155 -3.6693  0.4639
  710SOL     OW 2128   1.756   1.624   2.451  0.1848 -0.1334 -0.1751
  710SOL    HW1 2129   1.836   1.607   2.391 -0.8785  0.9767 -0.9613
  710SOL    HW2 2130   1.780   1.623   2.551  1.4329  2.8030  1.8739
  711SOL     OW 2131   2.612   2.937   0.969  0.8372  0.2775 -0.0865
  711SOL    HW1 2132   2.644   3.021   0.922  2.1047  2.1092 -2.4260
  711SOL    HW2 2133   2.693   2.873   0.987  3.2685  1.6846  3.7614
  712SOL     OW 2134   1.473   2.304   1.801 -0.8336 -0.1974 -0.3207
  712SOL    HW1 2135   1.534   2.218   1.810 -0.1557 -0.7636  0.2905
  712SOL    HW2 2136   1.416   2.298   1.716  0.6775  1.9553  0.2658
  713SOL     OW 2137   2.831   1.390   2.502 -0.6421 -1.2753 -0.0629
  713SOL    HW1 2138   2.831   1.292   2.482  1.8562  1.4282  1.4647
  713SOL    HW2 2139   2.746   1.415   2.558 -0.3029 -2.4356 -1.5360
  714SOL     OW 2140   2.641   0.484   2.454 -0.1952 -0.3889 -0.6306
  714SOL    HW1 2141   2.569   0.447   2.516 -0.7693  0.4346 -0.8819
  714SOL    HW2 2142   2.615   0.480   2.354  1.1102  0.9469 -1.3179
  715SOL     OW 2143   1.590   2.092   1.139  0.3828  0.3631 -0.0310
  715SOL    HW1 2144   1.546   2.186   1.135 -0.0396  0.7058 -0.5746
  715SOL    HW2 2145   1.628   2.060   1.230  0.2737  1.4322 -1.3245
  716SOL     OW 2146   1.224   0.206   1.463 -0.0659  0.3596 -0.4091
  716SOL    HW1 2147   1.125   0.235   1.454  1.0441  0.7744 -1.8552
  716SOL    HW2 2148   1.292   0.288   1.462  0.9527  0.0617  2.9497
  717SOL     OW 2149   1.093   0.629   1.594 -0.4924 -0.1344 -0.1575
  717SOL    HW1 2150   1.195   0.652   1.614 -0.1319 -0.0716 -1.2803
  717SOL    HW2 2151   1.079   0.599   1.492 -0.3105  0.3758 -2.0599
  718SOL     OW 2152   0.628   1.072   0.979  0.6255  0.2650  0.0354
  718SOL    HW1 2153   0.595   1.053   0.879  1.7114 -1.5641 -1.6695
  718SOL    HW2 2154   0.700   1.152   0.982  1.9545  2.1740  0.1158
  719SOL     OW 2155   0.794   1.849   2.246 -0.5740 -0.2374  0.0640
  719SOL    HW1 2156   0.854   1.887   2.325 -0.4156  1.2574  1.1779
  719SOL    HW2 2157   0.690   1.874   2.272  0.4124 -1.1591  1.8586
  720SOL     OW 2158   2.231   1.109   0.230  0.6095  0.1218 -0.5934
  720SOL    HW1 2159   2.326   1.075   0.208 -1.5795 -1.6384  1.1712
  720SOL    HW2 2160   2.213   1.106   0.332 -1.2619  1.0149 -1.7879
  721SOL     OW 2161   2.218   0.061   2.092 -0.6890  0.1267 -0.1054
  721SOL    HW1 2162   2.247   0.123   2.016 -1.4553  0.9722 -0.6567
  721SOL    HW2 2163   2.126   0.017   2.072  0.3874 -0.8547 -0.2340
  722SOL     OW 2164   2.343   1.653   0.505 -0.3709  0.3998 -0.0145
  722SOL    HW1 2165   2.316   1.578   0.442  0.6729  0.6451 -0.0410
  722SOL    HW2 2166   2.272   1.672   0.581 -1.0429 -1.3907  1.7503
  723SOL     OW 2167   2.587   2.839   1.897  0.0464 -0.2380 -0.1311
  723SOL    HW1 2168   2.644   2.870   1.976 -2.7788  0.5483 -3.2799
  723SOL    HW2 2169   2.487   2.843   1.922 -2.4609  1.4087 -0.6305
  724SOL     OW 2170   0.412   2.424   2.403 -0.6634  0.3203  0.1197
  724SOL    HW1 2171   0.308   2.445   2.406 -2.7062 -1.2912 -2.7129
  724SOL    HW2 2172   0.451   2.422   2.497  1.3526  1.9506 -0.6137
  725SOL     OW 2173   2.301   2.757   1.425 -0.7525 -0.1230  0.4042
  725SOL    HW1 2174   2.360   2.814   1.351  0.8258  1.7441 -0.6772
  725SOL    HW2 2175   2.342   2.667   1.460 -0.2556 -1.4894 -1.2214
  726SOL     OW 2176   2.383   2.260   0.758 -0.1046  0.1436  1.0299
  726SOL    HW1 2177   2.349   2.357   0.745  1.6866 -1.2589  1.5505
  726SOL    HW2 2178   2.401   2.212   0.668  1.8492 -1.2975  0.1203
  727SOL     OW 2179   0.224   0.036   0.133 -0.3515 -0.2988  0.4273
  727SOL    HW1 2180   0.233  -0.050   0.074  2.6563 -1.7959  1.7227
  727SOL    HW2 2181   0.236   0.125   0.081  1.5591 -1.7110  0.6739
  728SOL     OW 2182   2.765   0.720   1.038  0.4949  0.0322  0.5873
  728SOL    HW1 2183   2.701   0.696   0.959 -1.0465  2.7688 -2.0089
  728SOL    HW2 2184   2.781   0.635   1.094 -0.9823 -0.2231 -1.0597
  729SOL     OW 2185   2.922   2.462   0.724 -0.1915  0.2824  0.3592
  729SOL    HW1 2186   2.904   2.356   0.712  1.6213 -1.8013  1.7295
  729SOL    HW2 2187   3.022   2.478   0.748  1.5507  1.4945  2.0891
  730SOL     OW 2188   2.603   0.586   0.853  0.2662 -0.9749  1.1924
  730SOL    HW1 2189   2.537   0.648   0.805 -1.3530 -1.5604  1.7243
  730SOL    HW2 2190   2.682   0.565   0.795 -1.9429 -0.6803 -3.5864
  731SOL     OW 2191   0.037   2.116   2.450  0.0626  0.1765 -0.3109
  731SOL    HW1 2192   0.099   2.135   2.532  2.4283 -1.3258  1.3004
  731SOL    HW2 2193  -0.048   2.159   2.474  0.3191 -4.2481  3.1251
  732SOL     OW 2194   1.133   2.852   1.947  0.1899 -0.2298 -0.3100
  732SOL    HW1 2195   1.139   2.779   2.022  0.0292  0.0961 -1.3707
  732SOL    HW2 2196   1.166   2.812   1.856  0.1978 -1.6978 -0.0864
  733SOL     OW 2197   3.050   0.728   2.078 -0.6388 -0.5728  0.6896
  733SOL    HW1 2198   3.130   0.792   2.063 -2.9451 -1.2262  0.6839
  733SOL    HW2 2199   3.063   0.641   2.019 -2.3822 -0.9988  0.6621
  734SOL     OW 2200   1.386   0.352   2.703 -0.1601  0.2098 -0.1781
  734SOL    HW1 2201   1.403   0.445   2.754  1.0395  0.2923 -0.0884
  734SOL    HW2 2202   1.322   0.287   2.750  2.5724  0.2433  1.1754
  735SOL     OW 2203   2.849   2.603   2.272 -0.9350 -0.2088  0.2339
  735SOL    HW1 2204   2.773   2.611   2.203 -0.1095 -0.3064 -0.0083
  735SOL    HW2 2205   2.944   2.585   2.228  2.7306  0.6287 -1.0787
  736SOL     OW 2206   0.801   0.397   2.652 -0.0474 -0.9656 -0.6881
  736SOL    HW1 2207   0.748   0.486   2.645 -1.4144  1.3261  2.0563
  736SOL    HW2 2208   0.792   0.347   2.557 -0.1226  0.0069 -2.7495
  737SOL     OW 2209   2.684   0.471   2.799  0.0260 -0.2473 -0.1312
  737SOL    HW1 2210   2.667   0.448   2.903 -1.2812 -0.9231 -1.9439
  737SOL    HW2 2211   2.782   0.440   2.772 -1.0705 -1.4232 -1.8193
  738SOL     OW 2212   1.647   1.221   3.025  0.2326 -0.1941  0.2861
  738SOL    HW1 2213   1.750   1.195   3.017  1.8106  0.0902  0.4255
  738SOL    HW2 2214   1.597   1.138   2.994  1.0307  0.0257  0.3389
  739SOL     OW 2215   1.774   0.632   0.705 -0.7391 -0.1619 -0.2820
  739SOL    HW1 2216   1.797   0.605   0.803  1.6344  0.5668  0.8731
  739SOL    HW2 2217   1.798   0.553   0.643  1.3365  0.0001  0.8401
  740SOL     OW 2218   1.949   1.929   2.177 -0.6010  1.0125  0.1153
  740SOL    HW1 2219   2.012   1.910   2.094 -1.6734  0.3620 -2.3002
  740SOL    HW2 2220   1.866   1.870   2.176 -0.1703  0.2561 -0.5787
  741SOL     OW 2221   2.489   0.115   2.584  0.5050  0.3283 -0.3743
  741SOL    HW1 2222   2.578   0.066   2.612  0.5469 -1.3636  0.5889
  741SOL    HW2 2223   2.460   0.096   2.489  1.0948  0.2329  1.8725
  742SOL     OW 2224   2.243   1.369   0.112  0.3796 -0.1165 -0.0079
  742SOL    HW1 2225   2.181   1.455   0.130 -1.6320  1.6045 -0.4947
  742SOL    HW2 2226   2.204   1.276   0.141 -0.3691 -0.6958 -3.1110
  743SOL     OW 2227   1.744   0.591   2.610  0.1737  0.3830 -0.4598
  743SOL    HW1 2228   1.745   0.553   2.514  0.2265 -0.0128 -1.2582
  743SOL    HW2 2229   1.672   0.669   2.623 -1.9397 -0.3174  3.0261
  744SOL     OW 2230   2.638   2.093   0.046  0.4203 -0.1027 -0.1283
  744SOL    HW1 2231   2.538   2.106   0.063  1.0591 -1.3018 -0.2793
  744SOL    HW2 2232   2.693   2.065   0.133 -2.4644 -0.5731 -0.9481
  745SOL     OW 2233   2.160   2.713   2.215 -0.0467 -0.0129  0.1388
  745SOL    HW1 2234   2.078   2.689   2.157 -0.4299 -0.5278  0.2395
  745SOL    HW2 2235   2.129   2.755   2.307 -2.7263  2.4147  1.4437
  746SOL     OW 2236   3.084   2.605   1.819  0.0042  0.6109  0.1881
  746SOL    HW1 2237   3.179   2.626   1.790 -1.9462 -0.3190  1.0737
  746SOL    HW2 2238   3.048   2.677   1.883  3.1374  1.2414 -1.1259
  747SOL     OW 2239   3.069   1.810   1.704  0.5125 -0.3604  0.2676
  747SOL    HW1 2240   3.058   1.709   1.688 -1.8932  0.3251 -0.9813
  747SOL    HW2 2241   3.143   1.848   1.641 -0.0200  0.0412  0.1060
  748SOL     OW 2242   1.744   2.768   2.868 -0.4401  0.4959  0.0782
  748SOL    HW1 2243   1.788   2.768   2.966  0.1923 -1.3550 -0.5455
  748SOL    HW2 2244   1.652   2.719   2.860  0.1506 -1.6367  3.3036
  749SOL     OW 2245   1.267   0.062   0.838 -0.1128  0.2602 -0.0431
  749SOL    HW1 2246   1.218  -0.026   0.819  1.1503  0.2066  0.4769
  749SOL    HW2 2247   1.309   0.112   0.759 -0.8146  1.7412  3.7891
  750SOL     OW 2248   2.378   0.209   1.904 -0.1602  0.0053 -0.1575
  750SOL    HW1 2249   2.406   0.277   1.830 -0.3720 -0.2226  0.1899
  750SOL    HW2 2250   2.346   0.255   1.988  2.5800  2.6189  2.7689
  751SOL     OW 2251   0.836   2.233   2.826  0.4589  0.1336  0.7478
  751SOL    HW1 2252   0.882   2.238   2.921 -1.2847  0.5235  0.8557
  751SOL    HW2 2253   0.768   2.156   2.825  2.6233  0.0494 -1.2642
  752SOL     OW 2254   1.239   0.909   1.573 -0.1598  0.5331 -0.3525
  752SOL    HW1 2255   1.300   0.984   1.536  0.5044  0.4433 -1.0185
  752SOL    HW2 2256   1.289   0.820   1.597 -0.2194 -0.7421  1.1504
  753SOL     OW 2257   0.946   2.629   1.775 -0.1741  0.2615  0.1478
  753SOL    HW1 2258   1.050   2.653   1.761  0.5573 -1.2048 -0.8478
  753SOL    HW2 2259   0.875   2.702   1.765  0.1050  0.8603  0.9445
  754SOL     OW 2260   1.126   1.249   3.067 -0.5131 -0.1719  0.2350
  754SOL    HW1 2261   1.155   1.180   2.999  2.2926 -0.9803 -0.2705
  754SOL    HW2 2262   1.146   1.349   3.036  1.5698 -0.1006 -0.6528
  755SOL     OW 2263   1.997   0.510   2.228 -0.2517  0.5997 -0.0984
  755SOL    HW1 2264   2.060   0.443   2.285  1.9024 -0.0030  0.4883
  755SOL    HW2 2265   1.902   0.524   2.263  1.6768  2.3873  1.2363
  756SOL     OW 2266   2.641   1.002   2.928 -0.2400 -0.0578 -0.5765
  756SOL    HW1 2267   2.718   0.934   2.910  1.2514  0.7955 -2.0877
  756SOL    HW2 2268   2.567   0.959   2.994 -1.1853 -1.3999  1.7211
  757SOL     OW 2269   0.130   0.541   1.729 -0.0770  0.5867 -0.7234
  757SOL    HW1 2270   0.137   0.639   1.702 -1.5692 -2.2472 -1.6407
  757SOL    HW2 2271   0.169   0.473   1.659 -0.5234 -0.3673 -1.5445
  758SOL     OW 2272   2.406   3.084   1.543  0.0879  0.1149 -0.0290
  758SOL    HW1 2273   2.324   3.035   1.583  0.8023 -0.2726  1.9807
  758SOL    HW2 2274   2.397   3.094   1.443 -1.0235 -0.6373  2.2297
  759SOL     OW 2275   1.674   3.087   0.061  0.0750 -0.1258  0.3632
  759SOL    HW1 2276   1.634   3.132  -0.026  0.4211  2.0130 -2.6902
  759SOL    HW2 2277   1.780   3.089   0.070  0.9546  0.9784 -0.8382
  760SOL     OW 2278   2.711   2.012   2.807  0.3036 -0.1250  0.2102
  760SOL    HW1 2279   2.750   1.917   2.822  2.3959  0.5422 -3.1382
  760SOL    HW2 2280   2.787   2.073   2.791 -1.3140  0.9221  1.5935
  761SOL     OW 2281   1.937   1.695   1.606 -0.1887  0.0299 -0.4560
  761SOL    HW1 2282   1.996   1.609   1.627  1.7151 -0.4910  1.2453
  761SOL    HW2 2283   1.845   1.670   1.562  0.2398 -0.9643  1.3415
  762SOL     OW 2284   0.526   2.398   0.944  0.3852  0.1964 -0.1899
  762SOL    HW1 2285   0.584   2.421   0.860 -0.5331 -2.5323  0.4376
  762SOL    HW2 2286   0.515   2.474   1.016 -0.9211  1.3392  2.4105
  763SOL     OW 2287   2.074   1.548   2.978 -0.8943  0.0220 -0.3373
  763SOL    HW1 2288   2.093   1.503   2.887  1.8938  1.5604  0.1619
  763SOL    HW2 2289   2.011   1.506   3.044 -0.1053  0.5566 -1.6709
  764SOL     OW 2290   0.689   0.528   0.888 -0.0180  0.2283 -0.2648
  764SOL    HW1 2291   0.685   0.467   0.804 -0.2545  2.3357  1.0486
  764SOL    HW2 2292   0.788   0.568   0.901 -2.4504  2.7142  1.1089
  765SOL     OW 2293   0.671   0.242   0.778 -0.1385 -0.3890  0.2208
  765SOL    HW1 2294   0.746   0.238   0.705 -0.1541 -1.1771  1.5227
  765SOL    HW2 2295   0.705   0.267   0.871 -1.0899 -0.6581 -0.7176
  766SOL     OW 2296   2.941   2.060   0.010  0.0453 -0.4273 -0.1780
  766SOL    HW1 2297   2.845   2.090  -0.003  1.1606 -3.3589 -2.3287
  766SOL    HW2 2298   3.007   2.141  -0.006 -2.6316  0.3309 -3.3582
  767SOL     OW 2299   2.866   1.568   0.510 -0.0839 -0.1744  0.0248
  767SOL    HW1 2300   2.779   1.555   0.564  0.7253  0.5962 -0.9224
  767SOL    HW2 2301   2.936   1.616   0.565 -2.5503  3.4323 -2.1114
  768SOL     OW 2302   1.086   0.276   0.309 -0.8885  0.0764 -0.5614
  768SOL    HW1 2303   0.993   0.228   0.334 -3.8081 -1.5106 -1.1478
  768SOL    HW2 2304   1.161   0.207   0.281  0.3022  0.0651  3.2025
  769SOL     OW 2305   1.208   1.826   2.248  0.2313 -0.3670  0.8190
  769SOL    HW1 2306   1.265   1.823   2.326  0.9582  0.9960 -3.6767
  769SOL    HW2 2307   1.161   1.733   2.224 -0.7361  1.5781 -0.5339
  770SOL     OW 2308   0.163   1.158   2.398 -0.3347 -0.8298 -0.5956
  770SOL    HW1 2309   0.131   1.206   2.486 -0.4847  0.6133  0.7665
  770SOL    HW2 2310   0.091   1.165   2.327 -2.2966 -2.4879 -4.0771
  771SOL     OW 2311   2.913   2.835   1.951  0.0450  0.0028  0.2456
  771SOL    HW1 2312   2.933   2.900   1.874 -0.1728  2.0361 -1.0760
  771SOL    HW2 2313   2.888   2.889   2.034  0.2327 -1.3764 -3.9152
  772SOL     OW 2314   2.144   0.119   2.973  0.0231 -0.2766  0.2343
  772SOL    HW1 2315   2.227   0.060   2.994  0.9614  0.6018  1.6531
  772SOL    HW2 2316   2.131   0.202   3.038  0.4793 -3.1931 -0.0506
  773SOL     OW 2317   0.668   2.076   2.463  0.0421  0.2475  0.2789
  773SOL    HW1 2318   0.655   2.147   2.388  1.1820  0.0932 -0.4998
  773SOL    HW2 2319   0.626   2.096   2.553 -0.4661 -0.9217 -0.8222
  774SOL     OW 2320   2.045   3.085   2.610 -0.3173  0.0358  0.4116
  774SOL    HW1 2321   2.045   3.177   2.653 -0.5228  1.6936 -2.2466
  774SOL    HW2 2322   2.090   3.012   2.674 -0.0274 -1.1184  0.2468
  775SOL     OW 2323   2.490   2.839   2.322  0.2657  0.2980  0.2775
  775SOL    HW1 2324   2.439   2.931   2.309  1.8699  3.0544  1.2948
  775SOL    HW2 2325   2.566   2.853   2.390 -1.1613 -0.6279  2.3933
  776SOL     OW 2326   0.041   1.247   0.214 -0.5392 -0.5467  0.3358
  776SOL    HW1 2327   0.025   1.241   0.109 -0.5915 -0.6281  0.6001
  776SOL    HW2 2328  -0.038   1.284   0.268  1.0356  1.8278 -2.8273
  777SOL     OW 2329   0.259   2.681   0.460 -0.0420  0.4373 -0.5671
  777SOL    HW1 2330   0.157   2.675   0.456  1.5658 -0.1692 -1.0792
  777SOL    HW2 2331   0.298   2.776   0.473 -0.8516  1.3727  0.7107
  778SOL     OW 2332   1.352   1.942   0.188  0.4840 -0.1389  0.2864
  778SOL    HW1 2333   1.283   1.964   0.263  2.5205  0.3433  0.0333
  778SOL    HW2 2334   1.385   2.028   0.142 -2.2117 -1.5579 -0.5053
  779SOL     OW 2335   0.188   0.814   0.548  0.1531 -0.0636 -0.0994
  779SOL    HW1 2336   0.176   0.716   0.505  0.5432 -1.9120 -0.8678
  779SOL    HW2 2337   0.116   0.832   0.620 -2.8271 -0.8493  0.6490
  780SOL     OW 2338   0.010   0.337   2.389 -0.5975 -0.2088 -0.0074
  780SOL    HW1 2339  -0.026   0.430   2.362  0.4123  0.0902 -0.8601
  780SOL    HW2 2340   0.096   0.316   2.332  0.3758  0.7737 -2.2548
  781SOL     OW 2341   0.590   1.707   1.621  0.3045  0.4696  0.6456
  781SOL    HW1 2342   0.602   1.749   1.714 -2.5841 -1.9867 -0.5273
  781SOL    HW2 2343   0.508   1.648   1.617 -1.6224  1.4927 -0.4518
  782SOL     OW 2344   2.646   0.110   0.901 -0.6092 -0.0406 -0.1644
  782SOL    HW1 2345   2.555   0.130   0.855 -0.7882 -0.0867  0.3221
  782SOL    HW2 2346   2.662   0.172   0.979  1.9446 -2.8035  0.5812
  783SOL     OW 2347   2.817   0.673   2.485  0.2111 -0.1641 -0.0004
  783SOL    HW1 2348   2.765   0.739   2.545 -2.8949 -1.0027  1.7037
  783SOL    HW2 2349   2.763   0.589   2.470 -1.7552  1.6167  0.8748
  784SOL     OW 2350   1.404   2.178   0.042  0.1157 -0.1755  0.5240
  784SOL    HW1 2351   1.486   2.235   0.072 -1.1807 -3.0396 -0.8660
  784SOL    HW2 2352   1.383   2.194  -0.057  0.9473  2.3259 -0.1751
  785SOL     OW 2353   2.128   0.343   0.015  0.0000 -0.2334 -0.0003
  785SOL    HW1 2354   2.037   0.360   0.074 -3.3380 -1.9115  2.1500
  785SOL    HW2 2355   2.161   0.433  -0.032 -0.1087  2.1700 -0.9850
  786SOL     OW 2356   2.019   2.155   2.314  0.2215 -0.2501  0.1398
  786SOL    HW1 2357   1.985   2.088   2.247  0.3276 -2.4813  2.1471
  786SOL    HW2 2358   2.108   2.130   2.357  0.9789 -0.3238  1.3623
  787SOL     OW 2359   1.406   0.615   0.812  0.5730  0.1557  0.0196
  787SOL    HW1 2360   1.380   0.703   0.856  2.5684 -3.2362 -0.4090
  787SOL    HW2 2361   1.407   0.619   0.707  0.1671 -2.2092 -0.6371
  788SOL     OW 2362   1.208   0.453   3.025  0.5337  0.0498  0.2002
  788SOL    HW1 2363   1.123   0.493   2.972 -1.9801  1.0679  0.3224
  788SOL    HW2 2364   1.300   0.485   2.991  0.8313 -0.1963 -0.7283
  789SOL     OW 2365   2.631   0.114   1.869  0.6112 -0.3517  0.3433
  789SOL    HW1 2366   2.533   0.158   1.887 -1.9391 -1.3076  1.9613
  789SOL    HW2 2367   2.626   0.017   1.839  1.9757  1.4780  1.1620
  790SOL     OW 2368   2.594   2.664   0.802  0.3675  0.4198  0.3982
  790SOL    HW1 2369   2.652   2.653   0.713  1.3790  0.7483 -0.7350
  790SOL    HW2 2370   2.554   2.754   0.822  0.1684 -0.1980 -2.4129
  791SOL     OW 2371   1.982   1.242   0.239  0.1191  0.2620  0.2609
  791SOL    HW1 2372   1.897   1.178   0.246 -2.5611 -2.0504 -1.0451
  791SOL    HW2 2373   2.074   1.205   0.277 -1.3299 -0.2423  0.5154
  792SOL     OW 2374   0.425   1.993   2.197  0.3226  0.0461 -0.1464
  792SOL    HW1 2375   0.451   2.087   2.232  0.1014 -0.6801 -2.2488
  792SOL    HW2 2376   0.348   1.957   2.253  0.1178  2.8704  0.4550
  793SOL     OW 2377   2.111   1.521   2.158 -1.0858 -0.6306  0.2584
  793SOL    HW1 2378   2.170   1.611   2.165  1.7372  0.0562 -1.4555
  793SOL    HW2 2379   2.099   1.487   2.064  0.0180  5.3715  2.0427
  794SOL     OW 2380   0.502   1.485   2.472  0.5161  0.4735  0.1958
  794SOL    HW1 2381   0.556   1.406   2.425 -0.3321 -1.4148 -2.4945
  794SOL    HW2 2382   0.422   1.527   2.418  0.3501 -0.6493 -0.5251
  795SOL     OW 2383   2.526   2.314   1.801 -0.4058 -0.2990  0.0310
  795SOL    HW1 2384   2.583   2.307   1.883  0.1132 -0.8641  0.6206
  795SOL    HW2 2385   2.452   2.240   1.797 -0.9428  1.4804 -1.7480
  796SOL     OW 2386   3.054   1.073   2.714 -0.0859  0.0507  0.4282
  796SOL    HW1 2387   2.965   1.103   2.750  1.6832  0.6727 -1.9232
  796SOL    HW2 2388   3.120   1.054   2.788  0.8709  2.9067 -0.4642
  797SOL     OW 2389   0.666   0.649   1.353 -0.3255  0.7119 -0.4806
  797SOL    HW1 2390   0.717   0.702   1.425 -0.9960 -1.5258 -0.6659
  797SOL    HW2 2391   0.645   0.710   1.273 -2.2872 -1.3427  0.1956
  798SOL     OW 2392   1.165   0.495   0.916 -0.0215  0.7174 -0.2918
  798SOL    HW1 2393   1.209   0.478   1.011  1.4653  0.3150  0.5159
  798SOL    HW2 2394   1.226   0.548   0.852 -3.6762 -0.4617 -0.4749
  799SOL     OW 2395   1.816   2.697   1.005  0.3177 -0.2914 -0.3528
  799SOL    HW1 2396   1.799   2.602   1.048 -1.2204 -1.3044 -0.5808
  799SOL    HW2 2397   1.808   2.686   0.904 -1.1140 -0.1831  1.5332
  800SOL     OW 2398   2.952   0.855   1.828  0.5552 -0.1698  0.4156
  800SOL    HW1 2399   2.981   0.954   1.843 -1.1333 -1.8458  2.1419
  800SOL    HW2 2400   2.952   0.797   1.915  0.0036  0.8976  0.0402
  801SOL     OW 2401   1.958   2.158   0.119  0.3220  0.4494 -0.3647
  801SOL    HW1 2402   1.910   2.161   0.027 -2.6739 -0.0081 -0.4081
  801SOL    HW2 2403   2.026   2.079   0.121 -0.9502  0.9237 -0.8124
  802SOL     OW 2404   0.658   0.605   2.527  0.1414  0.1234 -0.3695
  802SOL    HW1 2405   0.711   0.620   2.440 -1.0484 -0.9040  0.6279
  802SOL    HW2 2406   0.559   0.634   2.510  1.6065 -0.6873 -3.4465
  803SOL     OW 2407   0.935   0.057   0.893  0.3578  0.0885  0.1963
  803SOL    HW1 2408   0.996   0.130   0.934 -0.7622 -0.6998 -0.2900
  803SOL    HW2 2409   0.887   0.083   0.807 -1.4359  0.2524  0.4547
  804SOL     OW 2410   0.316   0.029   2.184  0.2305 -0.3905  0.2849
  804SOL    HW1 2411   0.274   0.123   2.208 -2.0841 -0.3229 -1.0511
  804SOL    HW2 2412   0.270  -0.013   2.098 -1.4535 -0.6292  0.5662
  805SOL     OW 2413   2.420   0.379   0.346  0.2754 -0.5780  0.1545
  805SOL    HW1 2414   2.484   0.352   0.421 -1.9718 -0.4196  0.0748
  805SOL    HW2 2415   2.401   0.303   0.281  2.1305  2.5710  0.9816
  806SOL     OW 2416   0.606   2.582   1.823 -0.7445  0.7649  0.3572
  806SOL    HW1 2417   0.584   2.652   1.897  0.3645 -0.3807 -2.2655
  806SOL    HW2 2418   0.682   2.609   1.757  0.6648 -0.7072 -0.4267
  807SOL     OW 2419   2.513   0.939   0.471 -0.0365 -0.0479 -0.0389
  807SOL    HW1 2420   2.604   0.915   0.505  1.5658  0.3750 -1.3153
  807SOL    HW2 2421   2.518   0.956   0.368  0.8519  0.0812  0.0336
  808SOL     OW 2422   0.649   2.014   2.896 -0.1145 -0.2149  0.2321
  808SOL    HW1 2423   0.637   2.067   2.986 -1.0529  1.8488  1.8151
  808SOL    HW2 2424   0.656   1.909   2.901 -0.9626 -0.7341 -0.6804
  809SOL     OW 2425   2.572   1.974   1.897  0.4305 -0.0643  0.4968
  809SOL    HW1 2426   2.672   2.001   1.900 -2.9633 -0.9746 -3.2846
  809SOL    HW2 2427   2.547   1.982   1.795  1.3578 -0.0089 -0.1376
  810SOL     OW 2428   2.217   1.124   0.496 -0.1873  0.2257 -0.2249
  810SOL    HW1 2429   2.220   1.035   0.553 -0.0021 -0.3392  0.1881
  810SOL    HW2 2430   2.167   1.195   0.553  0.7697 -1.7090  3.0188
  811SOL     OW 2431   1.293   2.545   1.188  0.0699 -0.8244  0.0896
  811SOL    HW1 2432   1.267   2.445   1.194  0.2430 -1.5089 -2.8122
  811SOL    HW2 2433   1.265   2.612   1.263  1.9067  0.2442 -0.5776
  812SOL     OW 2434   1.453   0.741   1.927  0.0174 -0.0742 -0.4300
  812SOL    HW1 2435   1.389   0.758   2.006  2.9142  1.9810 -2.4166
  812SOL    HW2 2436   1.458   0.829   1.872 -0.4638  0.1562  1.1433
  813SOL     OW 2437   1.636   2.077   2.375  0.7351 -0.2344  0.0178
  813SOL    HW1 2438   1.725   2.063   2.427 -0.0304  1.3024  0.8757
  813SOL    HW2 2439   1.623   2.019   2.292  1.4596  0.9027 -1.4690
  814SOL     OW 2440   3.007   1.712   2.862 -0.1121 -1.1336  0.6861
  814SOL    HW1 2441   3.046   1.695   2.960  0.5121 -0.1597  0.2780
  814SOL    HW2 2442   3.022   1.809   2.831 -1.4533 -1.0461 -0.5281
  815SOL     OW 2443   2.175   2.876   2.735  0.0706 -0.2037  0.1663
  815SOL    HW1 2444   2.150   2.785   2.780  0.9802 -0.9967  0.7969
  815SOL    HW2 2445   2.249   2.926   2.785  0.4481 -1.4335 -2.5361
  816SOL     OW 2446   1.515   0.337   1.681 -0.7228  0.1647  0.0939
  816SOL    HW1 2447   1.571   0.257   1.716 -0.1008  0.8149 -0.4037
  816SOL    HW2 2448   1.453   0.371   1.756  0.7379 -3.0474  1.5230
  817SOL     OW 2449   0.380   1.312   2.631 -0.0673  0.6616 -0.2715
  817SOL    HW1 2450   0.277   1.299   2.617 -1.5627  1.0210 -1.9840
  817SOL    HW2 2451   0.431   1.390   2.580 -1.2896  1.9253 -1.7094
  818SOL     OW 2452   2.015   0.853   0.466  0.0604  0.4980  0.0537
  818SOL    HW1 2453   2.115   0.863   0.442  1.9832 -1.2942  0.9559
  818SOL    HW2 2454   1.994   0.887   0.560 -0.1520 -2.2718  0.3323
  819SOL     OW 2455   2.778   2.877   3.045  0.5268  0.2138 -0.4993
  819SOL    HW1 2456   2.848   2.806   3.022  0.7160  1.3621  0.6499
  819SOL    HW2 2457   2.702   2.882   2.981  1.6232  1.8456  2.1379
  820SOL     OW 2458   1.269   1.042   0.532 -0.2377  0.0023 -0.5444
  820SOL    HW1 2459   1.303   1.136   0.562  2.5689  0.6576  2.2456
  820SOL    HW2 2460   1.240   0.974   0.606 -0.6606  0.4807  0.9975
  821SOL     OW 2461   0.083   1.208   0.695 -0.7651  0.2442  0.0488
  821SOL    HW1 2462   0.039   1.187   0.788  0.9610  2.1718 -3.2572
  821SOL    HW2 2463   0.139   1.296   0.712  2.9376  0.8995  0.2478
  822SOL     OW 2464   2.518   1.750   2.461  0.3778 -0.4176  0.5808
  822SOL    HW1 2465   2.516   1.827   2.532 -1.8094 -1.6123  0.0918
  822SOL    HW2 2466   2.432   1.747   2.405  0.5833 -1.7671  2.3687
  823SOL     OW 2467   2.014   0.941   1.211  0.0973 -0.2907  0.1473
  823SOL    HW1 2468   2.012   0.921   1.317  0.2111 -1.7689  1.0882
  823SOL    HW2 2469   1.946   0.884   1.155 -0.1348 -0.3525  2.7732
  824SOL     OW 2470   0.188   1.895   2.781 -0.0911 -0.4877  0.3214
  824SOL    HW1 2471   0.238   1.873   2.866 -0.4151  1.6060 -0.5248
  824SOL    HW2 2472   0.240   1.915   2.693 -0.3657  1.4163 -1.1689
  825SOL     OW 2473   1.305   1.081   0.270 -0.0284  0.0936  0.2580
  825SOL    HW1 2474   1.312   1.178   0.229  0.1296 -2.6127 -2.6532
  825SOL    HW2 2475   1.254   1.078   0.363 -3.3521 -0.0861  2.1218
  826SOL     OW 2476   1.934   0.593   1.587  0.0008  0.3277  0.1278
  826SOL    HW1 2477   2.022   0.557   1.632  0.3499 -0.0340  1.5713
  826SOL    HW2 2478   1.870   0.515   1.557  0.3635 -1.1905  2.1272
  827SOL     OW 2479   0.711   1.194   0.429 -0.4129  0.5916  0.3808
  827SOL    HW1 2480   0.779   1.166   0.357 -0.3220 -1.0883  1.2268
  827SOL    HW2 2481   0.641   1.121   0.453 -1.5083 -1.3260  0.7496
  828SOL     OW 2482   2.627   0.145   1.529  0.2950  0.4283 -0.2553
  828SOL    HW1 2483   2.538   0.091   1.540 -0.4545 -0.4868  0.1882
  828SOL    HW2 2484   2.661   0.185   1.622  0.2882  0.4063 -1.4740
  829SOL     OW 2485   2.937   2.397   2.963 -0.2206 -0.3954  0.3211
  829SOL    HW1 2486   2.835   2.378   2.983  1.4687  1.3223 -0.9297
  829SOL    HW2 2487   2.945   2.500   2.964  0.1336  0.7329  1.5626
  830SOL     OW 2488   2.881   0.894   2.974  0.9374 -0.1388 -0.2103
  830SOL    HW1 2489   2.889   0.979   3.035 -0.1755  1.2490  0.1223
  830SOL    HW2 2490   2.878   0.807   3.036  3.8197 -1.4297 -0.4587
  831SOL     OW 2491   0.128   0.573   0.418  0.0248 -0.5210  0.4399
  831SOL    HW1 2492   0.096   0.504   0.490 -1.6743 -0.0812  0.6304
  831SOL    HW2 2493   0.144   0.532   0.324  2.0778  1.0180 -0.9478
  832SOL     OW 2494   1.789   0.699   3.043  0.1875 -0.4144  0.4392
  832SOL    HW1 2495   1.705   0.759   3.032  0.1848  0.0953 -3.1117
  832SOL    HW2 2496   1.762   0.600   3.058 -1.8406  2.7722  0.9405
  833SOL     OW 2497   2.364   2.114   0.510 -0.1680 -0.1658  0.1987
  833SOL    HW1 2498   2.280   2.056   0.487  0.3881  0.4317 -4.4607
  833SOL    HW2 2499   2.449   2.056   0.512 -2.2330  2.6762  0.8568
  834SOL     OW 2500   0.162   0.069   0.566 -0.3723 -0.4339 -0.4051
  834SOL    HW1 2501   0.226  -0.016   0.582  0.8861 -2.3159 -0.6911
  834SOL    HW2 2502   0.149   0.089   0.466  0.4414 -0.2550  0.5155
  835SOL     OW 2503   2.424   1.596   1.125  0.4502  0.4527  0.7057
  835SOL    HW1 2504   2.512   1.562   1.165 -2.5163  0.1445 -1.6266
  835SOL    HW2 2505   2.454   1.677   1.063  2.8933 -0.9497 -1.3694
  836SOL     OW 2506   1.559   0.815   2.587 -0.3106 -0.0997  0.0742
  836SOL    HW1 2507   1.454   0.829   2.590  1.9437  2.1443 -0.8881
  836SOL    HW2 2508   1.599   0.818   2.495  1.2036  2.6265  2.3528
  837SOL     OW 2509   1.707   0.118   0.538 -0.4756  0.3057 -0.5785
  837SOL    HW1 2510   1.673   0.196   0.597  1.6273  0.8325 -2.2643
  837SOL    HW2 2511   1.663   0.119   0.441 -2.5625  0.6585  0.0682
  838SOL     OW 2512   1.222   1.452   2.680  0.3007  0.5767  0.2351
  838SOL    HW1 2513   1.179   1.454   2.773 -0.5738  0.5269 -1.8196
  838SOL    HW2 2514   1.211   1.360   2.634  0.3511  1.9555 -2.8798
  839SOL     OW 2515   1.612   0.365   0.966  0.3953  0.1355  0.2223
  839SOL    HW1 2516   1.581   0.411   1.054  0.2087  3.1724 -1.5423
  839SOL    HW2 2517   1.579   0.265   0.964  0.8794  3.2524 -1.9967
  840SOL     OW 2518   2.652   2.956   1.668  0.3758  0.3393 -0.5341
  840SOL    HW1 2519   2.580   2.955   1.593  0.8747 -1.0546 -0.0505
  840SOL    HW2 2520   2.628   2.881   1.735  1.2094  2.0475  0.7628
  841SOL     OW 2521   1.514   0.822   2.960  0.1255  0.2279  0.8805
  841SOL    HW1 2522   1.421   0.859   3.002  0.5098  0.3672  2.7652
  841SOL    HW2 2523   1.557   0.892   2.891  1.7363 -1.6164 -2.3910
  842SOL     OW 2524   0.858   1.622   1.006 -0.1197  0.0093 -0.1055
  842SOL    HW1 2525   0.804   1.710   1.026 -1.9530  2.1234 -1.1484
  842SOL    HW2 2526   0.800   1.548   0.958  0.5626  2.7620 -2.6037
  843SOL     OW 2527   0.139   0.072   1.472 -0.0372 -0.6103 -0.0168
  843SOL    HW1 2528   0.236   0.100   1.492 -0.5615 -0.6198  1.9815
  843SOL    HW2 2529   0.146  -0.031   1.454  1.5895  0.8744  1.0305
  844SOL     OW 2530   0.713   2.511   0.216  0.0403 -0.6837 -0.3424
  844SOL    HW1 2531   0.690   2.498   0.316 -0.5168  0.3103  0.0868
  844SOL    HW2 2532   0.632   2.511   0.152 -0.6939 -0.8111  0.1562
  845SOL     OW 2533   1.726   3.035   1.276 -0.4694  1.2810 -0.8449
  845SOL    HW1 2534   1.739   3.036   1.380  2.7151  0.8654 -0.1976
  845SOL    HW2 2535   1.709   3.131   1.241  2.8409  0.8200  0.6874
  846SOL     OW 2536   1.694   3.014   0.914  0.3312  0.3705  0.4001
  846SOL    HW1 2537   1.728   3.079   0.844 -1.3215  0.3648  1.7133
  846SOL    HW2 2538   1.760   2.942   0.940  1.0221 -0.4477 -1.7164
  847SOL     OW 2539   2.096   1.613   0.203 -0.0577  0.2316  0.0825
  847SOL    HW1 2540   2.050   1.580   0.288 -2.4536  1.7801  1.2394
  847SOL    HW2 2541   2.031   1.644   0.130  4.4253 -2.7985 -1.0605
  848SOL     OW 2542   2.482   0.850   2.615  0.3580 -0.7856 -0.2214
  848SOL    HW1 2543   2.509   0.952   2.618  0.2635  1.2128 -0.0420
  848SOL    HW2 2544   2.399   0.821   2.565  0.8038 -3.1122  2.5827
  849SOL     OW 2545   2.353   0.838   2.260  0.1507 -0.1733  0.2295
  849SOL    HW1 2546   2.440   0.800   2.217 -1.0286 -0.7814  1.2157
  849SOL    HW2 2547   2.330   0.788   2.349 -0.6343 -1.9666  2.5543
  850SOL     OW 2548   1.560   0.202   1.246  0.0698 -0.2160 -0.0383
  850SOL    HW1 2549   1.527   0.172   1.151  1.4746  1.3279 -1.9605
  850SOL    HW2 2550   1.532   0.138   1.325  0.7292 -2.1111 -1.6848
  851SOL     OW 2551   0.482   1.728   0.653 -0.4507 -0.1082 -0.2021
  851SOL    HW1 2552   0.490   1.818   0.711 -1.2281 -0.6142  1.1346
  851SOL    HW2 2553   0.575   1.680   0.643  0.3074 -1.6668 -0.0655
  852SOL     OW 2554   0.843   2.185   1.723 -0.0530  0.9892 -0.1880
  852SOL    HW1 2555   0.836   2.280   1.673  0.7698  2.0409 -0.1338
  852SOL    HW2 2556   0.766   2.172   1.784  5.3767  1.1146  0.2044
  853SOL     OW 2557   2.613   1.514   2.577  0.5551 -0.3529 -0.1539
  853SOL    HW1 2558   2.563   1.429   2.549 -0.2792  1.2587  1.1682
  853SOL    HW2 2559   2.580   1.595   2.516  1.4711 -1.0593  3.6308
  854SOL     OW 2560   2.404   1.445   1.770  0.0890 -0.0237  0.5962
  854SOL    HW1 2561   2.454   1.401   1.690  0.0861 -2.0559  4.1065
  854SOL    HW2 2562   2.339   1.377   1.815  0.2588  1.7979 -2.8799
  855SOL     OW 2563   2.023   2.267   0.995 -0.4367 -0.1120  0.0346
  855SOL    HW1 2564   2.058   2.365   0.977 -0.7081 -1.0191  1.2148
  855SOL    HW2 2565   2.041   2.232   1.094 -0.4179  0.7297 -2.7597
  856SOL     OW 2566   1.401   1.371   0.892 -0.0833  1.0615  0.2030
  856SOL    HW1 2567   1.377   1.472   0.885 -0.4278  0.9987 -0.9398
  856SOL    HW2 2568   1.460   1.353   0.981  1.1300 -0.2002 -0.1566
  857SOL     OW 2569   2.893   2.556   1.026  0.0434  0.3382 -0.4852
  857SOL    HW1 2570   2.866   2.460   1.058 -2.8017  1.4422 -0.3530
  857SOL    HW2 2571   2.891   2.558   0.922 -1.2589 -1.3813  1.4771
  858SOL     OW 2572   2.257   2.095   1.785 -0.0474 -0.3279  0.5416
  858SOL    HW1 2573   2.187   2.135   1.721  0.5866 -2.5097 -1.8202
  858SOL    HW2 2574   2.323   2.033   1.737 -2.1689  0.4618 -0.5461
  859SOL     OW 2575   2.396   0.436   0.981  0.1811 -0.3407 -0.2539
  859SOL    HW1 2576   2.479   0.493   0.934  1.2652 -1.0968 -3.8715
  859SOL    HW2 2577   2.428   0.364   1.050 -2.0321 -1.5304 -0.8077
  860SOL     OW 2578   1.953   2.812   0.482  0.4867  0.5386  0.0681
  860SOL    HW1 2579   1.972   2.761   0.395 -2.4320  3.0229  2.7183
  860SOL    HW2 2580   1.979   2.911   0.482 -1.3709 -0.5921 -0.8390
  861SOL     OW 2581   1.018   2.562   2.791 -0.1406  0.1940  0.5061
  861SOL    HW1 2582   1.093   2.633   2.784 -1.5207 -1.7864 -0.2830
  861SOL    HW2 2583   1.054   2.490   2.858  0.7079  1.2631  0.2462
  862SOL     OW 2584   2.973   2.593   1.547 -0.2397  0.4776  0.0423
  862SOL    HW1 2585   3.007   2.582   1.645  0.8742 -0.3990 -0.1679
  862SOL    HW2 2586   2.880   2.631   1.549  1.6132  1.1503  1.3485
  863SOL     OW 2587   1.922   2.649   0.268 -0.0827  0.0712  0.3061
  863SOL    HW1 2588   1.983   2.564   0.252 -1.9257 -3.5560  0.4534
  863SOL    HW2 2589   1.828   2.619   0.277  2.4932  0.6711 -0.7805
  864SOL     OW 2590   1.908   1.126   2.956  0.0125 -0.1118  0.0480
  864SOL    HW1 2591   1.920   1.119   2.853 -1.3348  2.1741  2.0137
  864SOL    HW2 2592   1.995   1.085   3.007  1.5180 -0.0990  0.0152
  865SOL     OW 2593   2.134   1.687   0.667 -0.4753 -0.2259 -0.2000
  865SOL    HW1 2594   2.189   1.685   0.760  0.1161 -0.5067  0.1990
  865SOL    HW2 2595   2.037   1.645   0.672 -0.4435 -2.5180 -0.1843
  866SOL     OW 2596   2.861   2.820   1.006 -0.2424 -0.2494 -0.3721
  866SOL    HW1 2597   2.930   2.834   0.932 -1.0524 -0.8484  0.0628
  866SOL    HW2 2598   2.866   2.723   1.046 -0.7024 -2.6131  1.8111
  867SOL     OW 2599   0.458   1.308   0.867  0.1849  0.3749 -0.1794
  867SOL    HW1 2600   0.459   1.210   0.838 -0.8588  2.8644  1.3601
  867SOL    HW2 2601   0.365   1.351   0.843 -2.2267 -0.0032 -0.0139
  868SOL     OW 2602   0.840   1.965   1.996 -0.0194 -0.3148  0.1683
  868SOL    HW1 2603   0.821   1.938   2.095 -0.5163  2.0832 -0.4324
  868SOL    HW2 2604   0.792   2.056   1.962 -1.0595  1.6754  0.6542
  869SOL     OW 2605   2.528   2.038   1.629 -0.1621  0.3543  0.5598
  869SOL    HW1 2606   2.596   2.105   1.598  0.2803 -2.5379 -1.6980
  869SOL    HW2 2607   2.502   1.972   1.554  1.5122 -3.3363  0.6727
  870SOL     OW 2608   2.386   2.517   1.181  0.1385  0.1632 -0.0824
  870SOL    HW1 2609   2.328   2.434   1.169 -0.3101  2.7014  0.3311
  870SOL    HW2 2610   2.480   2.494   1.222  1.9717  0.2930 -0.3773
  871SOL     OW 2611   3.005   2.013   0.524 -0.1211 -0.1642 -0.4751
  871SOL    HW1 2612   2.928   2.074   0.499  1.8324 -3.3076  0.7229
  871SOL    HW2 2613   3.013   1.925   0.473  1.9133 -1.5177 -1.3210
  872SOL     OW 2614   2.174   0.507   1.691 -0.3936 -0.4164 -0.3627
  872SOL    HW1 2615   2.146   0.494   1.793  0.9634 -1.9958  1.9730
  872SOL    HW2 2616   2.273   0.473   1.670  1.4523  2.4469 -2.8513
  873SOL     OW 2617   1.702   2.088   2.890  0.2933 -0.1797 -0.2659
  873SOL    HW1 2618   1.697   2.183   2.923 -2.3979 -2.2635  0.2823
  873SOL    HW2 2619   1.636   2.072   2.816  3.7106  2.7404  0.7712
  874SOL     OW 2620   0.715   2.519   0.744 -0.4206 -0.2613 -0.1335
  874SOL    HW1 2621   0.698   2.609   0.787  1.3384 -1.6015 -1.9422
  874SOL    HW2 2622   0.797   2.463   0.779  2.2285  2.0229  2.1083
  875SOL     OW 2623   2.319   1.517   1.456 -0.3761  0.2176 -0.4504
  875SOL    HW1 2624   2.416   1.558   1.471  3.3997  1.2837  1.2047
  875SOL    HW2 2625   2.283   1.511   1.358 -2.3202  0.5027  0.4667
  876SOL     OW 2626   0.170   2.208   2.710  0.3925  0.6107 -0.0020
  876SOL    HW1 2627   0.231   2.153   2.772 -1.9949 -0.0729 -0.3595
  876SOL    HW2 2628   0.177   2.305   2.731  0.9607 -2.9938  0.6561
  877SOL     OW 2629   2.796   2.663   0.586  0.1378 -0.5657 -0.0833
  877SOL    HW1 2630   2.856   2.748   0.577 -1.1737 -1.7626  0.4029
  877SOL    HW2 2631   2.842   2.587   0.635  2.2325  1.8792  0.6399
  878SOL     OW 2632   2.766   1.546   2.227 -0.4404 -0.3687  0.3314
  878SOL    HW1 2633   2.803   1.644   2.242 -0.9389  2.2597  1.1160
  878SOL    HW2 2634   2.763   1.495   2.319  0.6658 -0.7338  1.9893
  879SOL     OW 2635   2.375   3.104   1.220  0.5080  0.0719  0.1364
  879SOL    HW1 2636   2.432   3.019   1.202 -0.8450 -0.2754  1.8608
  879SOL    HW2 2637   2.298   3.112   1.151 -0.4630  0.8745  1.6841
  880SOL     OW 2638   0.676   0.419   2.191 -0.4010 -0.0962  0.2621
  880SOL    HW1 2639   0.606   0.392   2.260  1.3191  1.9314 -0.6250
  880SOL    HW2 2640   0.766   0.368   2.173 -1.2798 -1.1070 -2.5316
  881SOL     OW 2641   0.913   0.059   0.365  0.3338 -0.2108  0.3062
  881SOL    HW1 2642   0.964  -0.017   0.406  1.3977  0.7956 -1.4884
  881SOL    HW2 2643   0.882   0.041   0.267  1.6260  0.7098  0.7206
  882SOL     OW 2644   2.756   1.653   1.669 -0.0495  0.5034 -1.0154
  882SOL    HW1 2645   2.857   1.646   1.655 -2.1258 -0.2608  2.9995
  882SOL    HW2 2646   2.735   1.687   1.769 -0.4075  1.2863  1.3982
  883SOL     OW 2647   0.928   0.613   0.946  0.0670  0.0168  0.1786
  883SOL    HW1 2648   0.934   0.656   1.038 -1.7723  1.8114  1.1596
  883SOL    HW2 2649   1.017   0.562   0.921 -2.4306 -0.7566 -1.5107
  884SOL     OW 2650   1.219   1.864   1.033  0.2537 -0.7898  0.6452
  884SOL    HW1 2651   1.173   1.836   0.945  1.2601  1.3817  0.3601
  884SOL    HW2 2652   1.162   1.922   1.096  1.6782 -1.3898 -0.0259
  885SOL     OW 2653   2.284   1.774   2.342 -0.0421 -0.8341  0.1584
  885SOL    HW1 2654   2.220   1.719   2.407 -1.1911 -0.2050  3.6174
  885SOL    HW2 2655   2.272   1.875   2.343 -1.8005  0.4796  0.8538
  886SOL     OW 2656   2.658   0.468   1.775  0.1382 -0.0016  0.3672
  886SOL    HW1 2657   2.686   0.439   1.867 -1.0325 -0.0960 -2.7583
  886SOL    HW2 2658   2.729   0.534   1.741  0.8198  1.2622  0.8205
  887SOL     OW 2659   0.162   2.049   1.304  0.6612 -0.5333 -0.0167
  887SOL    HW1 2660   0.126   1.972   1.244 -1.0832  1.0573  2.0142
  887SOL    HW2 2661   0.148   2.142   1.260 -0.3660 -0.3820  0.2629
  888SOL     OW 2662   0.607   1.334   1.478  0.1503  0.2074 -0.1249
  888SOL    HW1 2663   0.662   1.303   1.400 -1.0304 -1.2924  0.8671
  888SOL    HW2 2664   0.560   1.250   1.518 -0.4467  2.3188 -1.0406
  889SOL     OW 2665   0.873   2.519   2.134 -0.1870 -0.3416  0.5215
  889SOL    HW1 2666   0.792   2.527   2.068  2.0316  1.3466  0.2480
  889SOL    HW2 2667   0.960   2.492   2.091 -3.0394  0.3108 -0.1380
  890SOL     OW 2668   2.340   2.397   0.151 -0.2451 -0.8023 -0.9545
  890SOL    HW1 2669   2.387   2.450   0.076  0.1151 -2.9032  1.9265
  890SOL    HW2 2670   2.242   2.431   0.163  0.4155  1.6160  1.0810
  891SOL     OW 2671   2.574   1.535   0.605  0.6732  0.1201 -0.3508
  891SOL    HW1 2672   2.590   1.485   0.693 -0.0933 -0.7373  0.6866
  891SOL    HW2 2673   2.476   1.560   0.581 -1.4420 -0.5592 -0.4310
  892SOL     OW 2674   0.231   0.298   2.219 -0.1306  0.6519 -0.0137
  892SOL    HW1 2675   0.231   0.292   2.111 -1.7770  0.0437 -0.8149
  892SOL    HW2 2676   0.317   0.331   2.269  1.5429  0.5779  0.2700
  893SOL     OW 2677   1.673   0.245   2.706  0.0535 -0.0919 -0.2837
  893SOL    HW1 2678   1.739   0.316   2.749 -0.2072  2.0488 -1.1066
  893SOL    HW2 2679   1.577   0.285   2.704  0.0543 -0.1724 -0.5337
  894SOL     OW 2680   2.143   1.962   0.048 -0.0695  0.1745  0.1585
  894SOL    HW1 2681   2.140   1.921  -0.053 -0.5218  1.2451 -2.0190
  894SOL    HW2 2682   2.193   1.902   0.117  1.8407  1.6091  0.6361
  895SOL     OW 2683   2.895   1.391   0.815 -0.2533  0.5806 -0.2922
  895SOL    HW1 2684   2.958   1.333   0.877 -1.5790 -1.2170  1.8937
  895SOL    HW2 2685   2.924   1.491   0.816  0.4176 -0.3110  1.6691
  896SOL     OW 2686   1.730   1.794   1.199  0.2995 -0.5909  0.4934
  896SOL    HW1 2687   1.812   1.832   1.147  0.5954 -0.3188  2.3709
  896SOL    HW2 2688   1.638   1.820   1.150 -0.7570  2.1843  0.5363
  897SOL     OW 2689   0.332   0.524   3.091  0.1213 -0.2614 -0.5007
  897SOL    HW1 2690   0.285   0.591   3.027 -0.1683 -0.3860 -2.1443
  897SOL    HW2 2691   0.427   0.558   3.104 -0.0304 -0.0343 -0.8768
  898SOL     OW 2692   0.547   2.827   1.150 -0.3713  0.9774  0.1626
  898SOL    HW1 2693   0.492   2.915   1.158 -0.3862  0.7279  1.3077
  898SOL    HW2 2694   0.650   2.845   1.151  1.6245 -1.7176 -2.9161
  899SOL     OW 2695   2.691   0.917   1.229 -0.1638 -0.0327 -0.1875
  899SOL    HW1 2696   2.631   0.882   1.152  2.4222  1.3879 -0.8234
  899SOL    HW2 2697   2.783   0.942   1.186  0.8989  0.2636 -0.6313
  900SOL     OW 2698   1.009   2.356   2.329  0.0499 -0.9893 -0.5255
  900SOL    HW1 2699   0.948   2.405   2.266 -2.1739 -2.1781  0.0279
  900SOL    HW2 2700   0.983   2.363   2.428  2.3090 -1.0353 -0.8271
  901SOL     OW 2701   1.900   2.457   1.380 -0.0692 -0.7986 -0.1924
  901SOL    HW1 2702   1.882   2.449   1.277  3.3732  0.3643 -1.0507
  901SOL    HW2 2703   1.996   2.453   1.412  0.4235 -0.0968  1.2500
  902SOL     OW 2704   2.569   1.631   1.469 -0.4323 -0.2099  0.4092
  902SOL    HW1 2705   2.621   1.653   1.559  0.4380  4.0076  0.9274
  902SOL    HW2 2706   2.627   1.609   1.388 -3.8577  0.5227  0.7704
  903SOL     OW 2707   0.267   2.322   1.968  0.3128  0.2092 -0.6369
  903SOL    HW1 2708   0.182   2.315   2.028  1.4943 -1.5710  2.1811
  903SOL    HW2 2709   0.245   2.354   1.875 -0.8663  0.7569  3.9315
  904SOL     OW 2710   1.969   0.788   2.589 -0.0425 -0.2187  0.4303
  904SOL    HW1 2711   1.912   0.701   2.610  1.5451 -0.6962 -1.1124
  904SOL    HW2 2712   1.971   0.801   2.484 -0.1458 -0.5572 -2.5166
  905SOL     OW 2713   2.738   0.027   2.647 -0.1621  0.2238  0.1387
  905SOL    HW1 2714   2.815  -0.041   2.635 -1.8673  1.4156 -1.0270
  905SOL    HW2 2715   2.762   0.121   2.603 -0.8994  1.6947 -1.0753
  906SOL     OW 2716   0.119   1.746   1.967 -0.3840 -0.2531  0.5114
  906SOL    HW1 2717   0.050   1.788   1.904  0.6653 -0.6828  0.9237
  906SOL    HW2 2718   0.214   1.777   1.955 -2.1421 -2.0538 -0.2644
  907SOL     OW 2719   0.176   2.461   1.051  0.2665  0.2711  0.1325
  907SOL    HW1 2720   0.257   2.527   1.047 -0.1406 -1.6893  0.3899
  907SOL    HW2 2721   0.134   2.447   0.956  1.5448 -0.3832 -0.7103
  908SOL     OW 2722   2.641   2.883   0.422 -0.7303 -0.3310  0.3062
  908SOL    HW1 2723   2.660   2.936   0.329  3.6910  0.6041  0.0740
  908SOL    HW2 2724   2.673   2.781   0.422  2.0891 -1.3422 -0.6422
  909SOL     OW 2725   0.745   0.899   2.654 -1.0819  0.1677  0.4306
  909SOL    HW1 2726   0.705   0.808   2.632  0.2679 -2.1811 -0.2929
  909SOL    HW2 2727   0.808   0.920   2.574 -2.9067  0.5002 -2.5185
  910SOL     OW 2728   1.757   1.788   2.009  0.5194  0.1692 -0.3648
  910SOL    HW1 2729   1.789   1.839   1.923 -0.8502  2.8209 -0.1687
  910SOL    HW2 2730   1.688   1.848   2.059  1.8806  0.2459  0.8341
  911SOL     OW 2731   1.754   3.056   1.552  0.0699 -0.0633  0.0426
  911SOL    HW1 2732   1.839   3.014   1.511 -2.6206 -0.3468  0.1871
  911SOL    HW2 2733   1.720   3.004   1.633  3.5005  0.1605 -2.6002
  912SOL     OW 2734   2.814   0.943   0.790 -0.3660  0.1173  0.1503
  912SOL    HW1 2735   2.816   0.936   0.893  1.9082 -0.3174 -0.0033
  912SOL    HW2 2736   2.814   1.041   0.757 -1.7470  0.1377  0.7228
  913SOL     OW 2737   2.544   1.257   1.552  0.3907  0.2899 -0.3796
  913SOL    HW1 2738   2.550   1.153   1.527  1.4220 -1.6144 -0.2464
  913SOL    HW2 2739   2.594   1.312   1.484 -1.3589 -0.5101  0.9501
  914SOL     OW 2740   2.802   0.529   1.250 -0.2835 -0.8736  0.5613
  914SOL    HW1 2741   2.796   0.429   1.269 -0.0509  1.2416 -0.8874
  914SOL    HW2 2742   2.761   0.596   1.316  0.5036 -0.1788 -3.3427
  915SOL     OW 2743   1.236   0.827   1.004 -0.3320  0.7820 -0.2595
  915SOL    HW1 2744   1.292   0.904   1.041 -0.2162 -1.7352  0.5952
  915SOL    HW2 2745   1.146   0.813   1.059 -0.7888  2.3996  0.1993
  916SOL     OW 2746   0.516   0.049   0.589  0.2158 -0.6524  0.1707
  916SOL    HW1 2747   0.539   0.118   0.665 -0.2160  0.1825 -2.2844
  916SOL    HW2 2748   0.521   0.089   0.493 -0.9736 -0.6774  1.8078
  917SOL     OW 2749   2.764   2.615   1.926  0.3820 -0.3933 -0.0290
  917SOL    HW1 2750   2.674   2.648   1.892 -1.3144 -0.4512 -0.8858
  917SOL    HW2 2751   2.821   2.702   1.943  1.5938 -3.6398 -2.0036
  918SOL     OW 2752   0.980   2.212   3.077  0.2793  0.2128 -0.1391
  918SOL    HW1 2753   0.958   2.243   3.175 -0.5089 -0.5581 -1.0116
  918SOL    HW2 2754   0.983   2.110   3.075 -0.8691  0.8705  0.5868
  919SOL     OW 2755   0.946   1.629   2.837  0.2245  0.5013  0.6248
  919SOL    HW1 2756   0.983   1.677   2.750 -1.0076  1.7783 -1.4652
  919SOL    HW2 2757   0.873   1.561   2.803 -0.7405 -1.9096  3.0951
  920SOL     OW 2758   1.254   2.064   2.524  0.5326  0.0724 -0.1080
  920SOL    HW1 2759   1.225   2.073   2.421  2.6628  1.1891  1.7688
  920SOL    HW2 2760   1.296   1.968   2.533 -0.6034  1.1865 -2.1006
  921SOL     OW 2761   1.035   0.153   2.570 -0.0932 -0.2795 -0.0172
  921SOL    HW1 2762   1.058   0.119   2.474  0.3165 -0.7573  1.4230
  921SOL    HW2 2763   0.930   0.154   2.598 -0.3089  2.2794 -0.2444
  922SOL     OW 2764   2.149   2.409   2.768 -1.1240  0.3584 -0.0400
  922SOL    HW1 2765   2.145   2.307   2.784  1.7187  0.8936  0.4640
  922SOL    HW2 2766   2.095   2.432   2.682  0.6987 -0.7923  0.4507
  923SOL     OW 2767   1.181   2.675   0.261 -0.2993  0.3491 -0.5981
  923SOL    HW1 2768   1.264   2.717   0.313  0.0043  0.9289 -1.7942
  923SOL    HW2 2769   1.207   2.589   0.214 -1.1010  3.8495 -0.2641
  924SOL     OW 2770   2.898   1.573   0.088 -0.3200 -0.1185  0.5079
  924SOL    HW1 2771   2.824   1.547   0.023 -0.9392 -1.3105 -0.3189
  924SOL    HW2 2772   2.992   1.588   0.045  0.0534  0.1062  1.1668
  925SOL     OW 2773   0.059   2.848   1.672  0.6808  0.2094 -0.1864
  925SOL    HW1 2774  -0.028   2.905   1.684 -0.6628  0.8867 -1.0715
  925SOL    HW2 2775   0.043   2.753   1.633 -1.3559  1.1241 -1.0695
  926SOL     OW 2776   1.430   2.888   1.328  0.2208 -0.8146  0.2826
  926SOL    HW1 2777   1.445   2.891   1.223 -0.1518  3.0260 -1.7148
  926SOL    HW2 2778   1.456   2.982   1.364 -0.1575 -1.0190  0.0809
  927SOL     OW 2779   0.293   2.529   1.762  0.1219  0.0164  0.1022
  927SOL    HW1 2780   0.235   2.490   1.683  0.9764 -0.2107 -1.0844
  927SOL    HW2 2781   0.374   2.585   1.737  1.2922  0.3942  1.0459
  928SOL     OW 2782   1.609   1.964   2.132  0.4741 -0.5184 -0.0124
  928SOL    HW1 2783   1.636   2.061   2.097 -0.6372 -0.2762 -2.0552
  928SOL    HW2 2784   1.505   1.963   2.136 -1.3781  2.1064 -3.2961
  929SOL     OW 2785   2.408   2.472   2.821 -0.8407 -0.1119 -0.2240
  929SOL    HW1 2786   2.314   2.450   2.801  0.9995  0.9152  2.1321
  929SOL    HW2 2787   2.459   2.455   2.732 -1.6267 -0.1384 -1.2182
  930SOL     OW 2788   2.221   1.990   1.094 -0.1114  0.4080 -0.1417
  930SOL    HW1 2789   2.194   1.971   1.197  1.2010 -0.4961  2.3742
  930SOL    HW2 2790   2.302   2.061   1.088  1.2931  1.1427  0.5943
  931SOL     OW 2791   0.557   1.722   2.605  0.2767 -0.2316  0.0328
  931SOL    HW1 2792   0.617   1.736   2.691 -0.8128  3.0171  2.7359
  931SOL    HW2 2793   0.553   1.629   2.554  0.5134 -1.2817 -2.0828
  932SOL     OW 2794   0.460   0.101   2.942 -0.0571 -0.0125 -0.3936
  932SOL    HW1 2795   0.558   0.135   2.929  0.6123  2.0157  0.1135
  932SOL    HW2 2796   0.450  -0.003   2.960 -1.4890  0.4541  0.2986
  933SOL     OW 2797   1.055   0.782   3.008  0.0078  0.0674  0.3684
  933SOL    HW1 2798   1.111   0.787   3.091  0.7076 -0.3694 -1.1501
  933SOL    HW2 2799   1.027   0.873   2.971  1.4934 -0.2926  1.9452
  934SOL     OW 2800   0.816   2.977   2.742 -0.7269  0.0395  0.2879
  934SOL    HW1 2801   0.869   2.910   2.679  1.6223 -2.7919 -0.0956
  934SOL    HW2 2802   0.812   2.938   2.838 -1.9882 -2.8721 -1.9754
  935SOL     OW 2803   3.083   0.497   0.862 -0.0833  0.0839  0.8630
  935SOL    HW1 2804   3.112   0.444   0.770 -0.6872  0.0904 -0.7090
  935SOL    HW2 2805   2.990   0.540   0.854  0.4665 -0.0184  0.2358
  936SOL     OW 2806   1.062   2.954   0.158  0.2258  0.2615 -0.6513
  936SOL    HW1 2807   1.139   2.975   0.091  0.2743  0.8709  1.6937
  936SOL    HW2 2808   1.064   2.860   0.196 -2.3140 -0.8125  0.9232
  937SOL     OW 2809   1.931   2.624   2.069  0.5079 -0.0778 -0.4615
  937SOL    HW1 2810   1.848   2.677   2.099 -0.5390 -0.3109 -0.7031
  937SOL    HW2 2811   1.962   2.639   1.968  1.0397 -1.4415  0.8087
  938SOL     OW 2812   2.791   2.162   1.471 -0.4204  0.2438 -0.2022
  938SOL    HW1 2813   2.753   2.256   1.500 -1.8537  1.1086  3.4438
  938SOL    HW2 2814   2.862   2.130   1.541  2.9028  0.0292 -2.4392
  939SOL     OW 2815   2.784   1.080   2.493 -0.6551  0.5548  0.1568
  939SOL    HW1 2816   2.877   1.037   2.491 -0.0987 -0.1340  2.5391
  939SOL    HW2 2817   2.759   1.100   2.591 -3.5609  0.7600 -2.5271
  940SOL     OW 2818   1.067   0.484   2.633  0.1836 -0.4797 -0.3128
  940SOL    HW1 2819   1.146   0.420   2.646 -2.5632  0.4061 -1.7045
  940SOL    HW2 2820   0.975   0.441   2.625  4.5074  4.3817 -0.9552
  941SOL     OW 2821   0.047   2.844   2.196 -0.5078  0.3763  0.1333
  941SOL    HW1 2822   0.043   2.744   2.204  0.3566 -0.6066 -0.0509
  941SOL    HW2 2823   0.114   2.885   2.263  2.5271 -0.1207 -2.5801
  942SOL     OW 2824   0.056   0.078   2.526 -0.0451  0.2520  0.4060
  942SOL    HW1 2825   0.114   0.083   2.615  0.1176  1.1892  3.4745
  942SOL    HW2 2826   0.053   0.172   2.481  0.6344 -0.2537  1.4151
  943SOL     OW 2827   2.068   1.586   2.411 -0.1075  0.3572 -0.4094
  943SOL    HW1 2828   2.071   1.544   2.312 -0.1479  0.6816  1.9312
  943SOL    HW2 2829   2.135   1.545   2.478 -2.5601 -1.1954 -1.2155
  944SOL     OW 2830   2.150   2.415   1.485  0.0025  0.0453  0.2581
  944SOL    HW1 2831   2.215   2.475   1.533 -0.9075 -2.1237 -2.9048
  944SOL    HW2 2832   2.108   2.336   1.545  1.7141  0.5858 -0.7744
  945SOL     OW 2833   0.597   1.419   0.352  0.7580 -0.4497 -0.3271
  945SOL    HW1 2834   0.622   1.452   0.257  0.5827  0.9166  1.1435
  945SOL    HW2 2835   0.642   1.327   0.373  1.4587  1.7394 -1.1193
  946SOL     OW 2836   0.386   1.009   2.539 -0.3005 -0.0571  0.0612
  946SOL    HW1 2837   0.295   0.977   2.505 -3.0452  0.9300  4.0605
  946SOL    HW2 2838   0.405   1.114   2.533 -1.1041  0.8551 -1.4613
  947SOL     OW 2839   1.473   0.495   0.121 -0.1778 -0.7712 -0.0589
  947SOL    HW1 2840   1.379   0.546   0.112 -2.3225 -0.8483  1.1415
  947SOL    HW2 2841   1.460   0.396   0.134  1.6422  0.5437 -2.2545
  948SOL     OW 2842   1.943   3.089   2.194 -0.0175  0.1323  0.0692
  948SOL    HW1 2843   1.926   3.059   2.094  1.3038  1.6289 -2.8770
  948SOL    HW2 2844   1.936   3.009   2.265  1.4631  2.7650  0.0854
  949SOL     OW 2845   0.626   2.534   0.481  0.1779 -0.3409 -0.0362
  949SOL    HW1 2846   0.637   2.632   0.448  1.1990 -0.6278 -0.1152
  949SOL    HW2 2847   0.672   2.521   0.573 -1.7455  2.4412  0.7030
  950SOL     OW 2848   0.306   2.089   3.059 -0.0617 -0.1000 -0.4590
  950SOL    HW1 2849   0.214   2.140   3.068 -2.5576 -1.9871 -2.0005
  950SOL    HW2 2850   0.298   1.986   3.041  1.4722  0.6834  0.5092
  951SOL     OW 2851   1.206   2.772   2.769 -0.0061 -0.4200 -0.0731
  951SOL    HW1 2852   1.144   2.838   2.718  0.2136 -2.9362  1.9491
  951SOL    HW2 2853   1.278   2.816   2.827 -3.3495 -0.5445  1.9724
  952SOL     OW 2854   0.091   1.652   0.470 -0.2628 -0.0167  0.0339
  952SOL    HW1 2855   0.182   1.690   0.456 -2.2232 -1.1581  2.7303
  952SOL    HW2 2856   0.063   1.654   0.567 -0.8608  1.2099  1.5376
  953SOL     OW 2857   2.578   1.746   0.159 -0.5175 -0.9495 -0.8357
  953SOL    HW1 2858   2.535   1.656   0.188 -0.5882  2.5140 -1.5417
  953SOL    HW2 2859   2.573   1.768   0.060 -0.4690  0.2285 -0.8546
  954SOL     OW 2860   2.149   0.553   1.020  0.2699  0.2812  0.1830
  954SOL    HW1 2861   2.100   0.549   0.925  1.3858 -2.5996  1.9183
  954SOL    HW2 2862   2.248   0.523   1.014 -0.0866 -1.9126  0.8446
  955SOL     OW 2863   0.283   2.680   1.293 -0.0888  0.2906 -0.0477
  955SOL    HW1 2864   0.186   2.659   1.313  3.1199 -0.8990 -1.4033
  955SOL    HW2 2865   0.297   2.676   1.191 -0.9765 -1.8577 -0.2956
  956SOL     OW 2866   2.761   2.454   2.505 -0.1096  0.5596  0.0531
  956SOL    HW1 2867   2.782   2.350   2.501  0.2962 -3.7978  0.0352
  956SOL    HW2 2868   2.792   2.507   2.420 -0.2674 -1.9643 -0.9868
  957SOL     OW 2869   1.535   2.045   2.674 -0.3188  0.6738 -0.9598
  957SOL    HW1 2870   1.521   1.948   2.692  0.4796  2.0224 -1.5656
  957SOL    HW2 2871   1.535   2.077   2.574 -1.4720 -1.9539 -1.5359
  958SOL     OW 2872   2.652   2.344   2.999  0.0275 -0.1325  0.0700
  958SOL    HW1 2873   2.567   2.372   2.950  3.7512  2.1810  2.0931
  958SOL    HW2 2874   2.640   2.247   3.040  0.0311  0.6842  2.1590
  959SOL     OW 2875   0.253   2.798   0.006 -1.5829  0.0013 -0.1153
  959SOL    HW1 2876   0.167   2.781   0.060 -0.5971  1.8930  1.6412
  959SOL    HW2 2877   0.322   2.724   0.022 -0.9013 -1.8421 -2.6557
  960SOL     OW 2878   1.997   0.497   1.917  0.6838 -0.1144 -0.0826
  960SOL    HW1 2879   1.953   0.592   1.887  0.6507  1.3981  1.3306
  960SOL    HW2 2880   2.002   0.492   2.020 -1.1398 -2.3078  0.1554
  961SOL     OW 2881   2.577   1.830   1.079  0.1528  0.5043 -0.3094
  961SOL    HW1 2882   2.543   1.916   1.034 -2.3188  1.1328 -0.5892
  961SOL    HW2 2883   2.658   1.839   1.140  0.7528 -1.3686  0.2538
  962SOL     OW 2884   1.260   0.916   0.053 -0.4400  0.6603 -0.5868
  962SOL    HW1 2885   1.262   0.967  -0.034  0.8149  1.1417  3.3152
  962SOL    HW2 2886   1.276   0.975   0.139 -1.0612  1.2477 -0.8517
  963SOL     OW 2887   2.313   2.628   1.856 -0.2657  0.1398 -0.0051
  963SOL    HW1 2888   2.300   2.541   1.910  0.2564  0.2653  1.2618
  963SOL    HW2 2889   2.318   2.712   1.917 -0.5143  0.6409  3.0342
  964SOL     OW 2890   2.441   0.378   1.654  0.0398  0.1884  0.5795
  964SOL    HW1 2891   2.526   0.434   1.685 -0.0718  2.5276 -2.3255
  964SOL    HW2 2892   2.433   0.386   1.549 -1.4664 -2.3600 -2.4916
  965SOL     OW 2893   2.625   2.993   0.167 -0.0286  0.3819 -1.0341
  965SOL    HW1 2894   2.689   2.943   0.095  0.8377 -2.0927 -3.5291
  965SOL    HW2 2895   2.531   3.036   0.131  0.0591 -1.5119  0.8895
  966SOL     OW 2896   2.564   2.583   2.208  0.3824 -0.1170 -0.6590
  966SOL    HW1 2897   2.475   2.546   2.173  0.9691 -1.2316 -1.2192
  966SOL    HW2 2898   2.561   2.684   2.239 -1.4353  0.2795  0.9941
  967SOL     OW 2899   2.761   2.794   2.437  0.0670  0.4851  0.1229
  967SOL    HW1 2900   2.794   2.724   2.364  1.0777  0.3828 -1.3807
  967SOL    HW2 2901   2.838   2.847   2.484 -2.9497  0.5191 -1.7323
  968SOL     OW 2902   2.029   1.068   2.672  0.2945 -0.6623 -0.3117
  968SOL    HW1 2903   1.981   1.144   2.616  0.7312 -0.3244 -1.0576
  968SOL    HW2 2904   2.001   0.974   2.633 -1.7012  3.2007  1.8091
  969SOL     OW 2905   2.745   2.337   1.112 -0.5078 -0.1223 -0.1814
  969SOL    HW1 2906   2.684   2.328   1.027  2.1197  0.0482 -1.0097
  969SOL    HW2 2907   2.776   2.242   1.140  1.6894  0.1205 -2.9702
  970SOL     OW 2908   1.104   2.203   1.745 -0.3699  0.2801 -0.1840
  970SOL    HW1 2909   1.001   2.211   1.733  1.3041  3.0855 -1.7308
  970SOL    HW2 2910   1.135   2.217   1.844  2.7304  4.5619 -2.8972
  971SOL     OW 2911   2.826   2.088   1.935 -0.0831  0.5392  0.3165
  971SOL    HW1 2912   2.805   2.192   1.946 -1.7819 -0.6894  0.6965
  971SOL    HW2 2913   2.902   2.065   1.866  1.6102  0.5991  2.0810
  972SOL     OW 2914   2.015   2.386   0.260 -0.3584  0.2673 -0.5286
  972SOL    HW1 2915   2.004   2.300   0.203 -0.4418 -0.9024 -0.6772
  972SOL    HW2 2916   2.008   2.368   0.364  2.9631 -1.1204  2.3144
  973SOL     OW 2917   1.232   1.074   1.983  0.1618  0.2012  0.0119
  973SOL    HW1 2918   1.149   1.053   1.929  0.5338  1.3727  3.1536
  973SOL    HW2 2919   1.239   1.179   1.982 -0.5660 -0.2353 -1.2820
  974SOL     OW 2920   1.654   0.545   1.898  0.5447 -0.6174 -0.0799
  974SOL    HW1 2921   1.734   0.599   1.859  0.7114 -1.1527 -1.3133
  974SOL    HW2 2922   1.567   0.607   1.919 -0.4128  1.6911  1.5676
  975SOL     OW 2923   2.327   3.054   3.082 -0.0602 -0.0136 -0.2997
  975SOL    HW1 2924   2.273   2.986   3.130 -1.4189  0.5160 -0.2186
  975SOL    HW2 2925   2.365   3.019   2.994 -0.7680 -0.4649  0.4229
  976SOL     OW 2926   1.932   2.876   2.354 -0.4683 -0.0131 -0.2560
  976SOL    HW1 2927   1.893   2.797   2.304  2.8548  3.5097  0.2119
  976SOL    HW2 2928   1.913   2.873   2.455 -0.8955 -1.6539  1.4704
  977SOL     OW 2929   0.505   0.673   1.036  0.5454  0.7387  0.2152
  977SOL    HW1 2930   0.406   0.670   0.993 -2.5602 -0.8168 -1.4729
  977SOL    HW2 2931   0.569   0.606   0.991 -0.9329  0.8186 -2.1937
   3.10000   3.10000   3.10000
