1000 SPC/Fw water molecules t=   0.93000 step= 930
 2931
    1SOL     OW    1   2.510   0.330   2.661  0.8689 -0.7504 -0.0376
    1SOL    HW1    2   2.550   0.236   2.643 -0.5564  0.1126  2.0832
    1SOL    HW2    3   2.564   0.398   2.719 -0.0442 -0.4666  0.0697
    2SOL     OW    4   2.707   3.050   1.440 -0.4916 -0.1205 -0.2139
    2SOL    HW1    5   2.788   3.069   1.375 -2.7549  1.2557 -0.4018
    2SOL    HW2    6   2.691   3.119   1.512  0.4379 -1.2594  0.2656
    3SOL     OW    7   2.680   2.609   0.416 -0.0745  0.2410  0.9409
    3SOL    HW1    8   2.676   2.512   0.380  2.0744 -0.3231 -0.4692
    3SOL    HW2    9   2.759   2.626   0.477  0.1720  1.2063  0.2758
    4SOL     OW   10   1.246   1.540   2.303  0.0369  0.0938  0.0994
    4SOL    HW1   11   1.159   1.581   2.274  3.0435 -2.4823 -0.3510
    4SOL    HW2   12   1.220   1.448   2.344 -0.2158  0.6415 -0.0986
    5SOL     OW   13   1.158   1.495   3.084  0.0408 -0.0396 -0.8527
    5SOL    HW1   14   1.233   1.569   3.093  1.7738  0.2584  0.6699
    5SOL    HW2   15   1.066   1.528   3.125  1.5532 -1.1513  0.8331
    6SOL     OW   16   0.140   1.796   2.951 -0.2312 -0.7130  0.5802
    6SOL    HW1   17   0.056   1.795   3.011  0.6669  1.1914 -2.2159
    6SOL    HW2   18   0.216   1.749   2.997  1.4916 -0.2462 -0.9389
    7SOL     OW   19   2.615   0.923   1.103 -0.1095 -0.1821 -0.0907
    7SOL    HW1   20   2.526   0.871   1.105 -0.0569 -1.3050  0.6131
    7SOL    HW2   21   2.657   0.922   1.012 -1.3475 -1.5589 -0.0864
    8SOL     OW   22   0.372   0.634   1.575 -0.0149  0.8025 -0.0034
    8SOL    HW1   23   0.447   0.565   1.591  0.3650 -0.4787  0.2556
    8SOL    HW2   24   0.362   0.655   1.476  1.7099 -1.6809  0.8631
    9SOL     OW   25   1.189   0.886   2.418  0.3298  0.2892 -0.0824
    9SOL    HW1   26   1.222   0.932   2.335  0.9732 -2.2419  0.7230
    9SOL    HW2   27   1.154   0.793   2.407 -0.1599  2.4784 -0.6908
   10SOL     OW   28   0.665   1.353   1.280  0.2319  0.2746 -0.3406
   10SOL    HW1   29   0.575   1.356   1.220 -2.9011 -2.0326 -1.2139
   10SOL    HW2   30   0.716   1.445   1.288  1.0640 -0.5322 -0.9616
   11SOL     OW   31   2.331   2.745   0.847 -0.4082  0.6632 -0.0640
   11SOL    HW1   32   2.275   2.776   0.931  0.6815 -0.6355 -0.1799
   11SOL    HW2   33   2.429   2.780   0.838  0.9098 -2.6634 -1.8911
   12SOL     OW   34   1.489   0.900   0.343 -0.0134 -0.1509 -0.4564
   12SOL    HW1   35   1.413   0.965   0.317  1.3760 -1.5870 -2.0705
   12SOL    HW2   36   1.481   0.802   0.310 -1.2468  0.2962  1.3002
   13SOL     OW   37   2.497   0.695   1.785  0.1148  0.4332 -0.3040
   13SOL    HW1   38   2.409   0.683   1.845 -3.0134  0.8664 -0.1173
   13SOL    HW2   39   2.491   0.641   1.698 -1.6403  0.4035 -0.5248
   14SOL     OW   40   1.880   0.087   0.702 -0.0831  0.6712 -0.7805
   14SOL    HW1   41   1.806   0.095   0.629  2.2485 -0.1505 -0.9343
   14SOL    HW2   42   1.848   0.029   0.784  0.2586  2.5363  1.4760
   15SOL     OW   43   1.989   2.078   2.724  0.4131  0.4450 -0.2648
   15SOL    HW1   44   1.917   2.140   2.770  0.3179  0.0834 -0.5945
   15SOL    HW2   45   1.948   2.011   2.659  1.8523 -0.8935  2.9781
   16SOL     OW   46   1.597   1.732   2.980  0.3515 -0.4258  0.0416
   16SOL    HW1   47   1.646   1.639   2.989  0.1701  1.4418  3.1599
   16SOL    HW2   48   1.662   1.813   2.989  0.2549 -0.2926 -2.5835
   17SOL     OW   49   0.118   0.511   0.210 -0.0765  0.0426  0.3851
   17SOL    HW1   50   0.218   0.519   0.194 -0.7172 -1.8411 -2.7451
   17SOL    HW2   51   0.062   0.518   0.117 -0.9164  0.9184 -1.1498
   18SOL     OW   52   0.949   2.891   2.145  0.2666 -0.0348  0.0029
   18SOL    HW1   53   0.859   2.845   2.151  1.6464 -2.1439 -0.5643
   18SOL    HW2   54   0.989   2.877   2.049  1.9184  1.4747  3.4191
   19SOL     OW   55   0.521   0.822   1.890  0.2660 -0.2583  0.1744
   19SOL    HW1   56   0.527   0.776   1.985  1.7683  1.0754 -2.8691
   19SOL    HW2   57   0.610   0.861   1.857 -0.7569  0.2963  3.1800
   20SOL     OW   58   0.179   2.707   0.823  0.1691 -0.4827 -0.4237
   20SOL    HW1   59   0.098   2.768   0.799  0.4237  0.5691 -1.3520
   20SOL    HW2   60   0.246   2.691   0.745  2.5647 -3.0767  0.8614
   21SOL     OW   61   2.685   0.246   2.075 -0.5677  0.1465 -0.6711
   21SOL    HW1   62   2.620   0.191   2.014 -1.3797  1.4575 -0.7700
   21SOL    HW2   63   2.764   0.186   2.114 -1.8223  0.4192 -3.2588
   22SOL     OW   64   2.379   0.240   0.165 -0.2049  0.4311  0.4799
   22SOL    HW1   65   2.392   0.148   0.124  0.3507  0.4981 -1.9618
   22SOL    HW2   66   2.285   0.280   0.137 -0.4914  0.3581 -0.7173
   23SOL     OW   67   2.790   0.636   0.646  0.0293 -0.4735 -0.3701
   23SOL    HW1   68   2.836   0.545   0.606  0.8742 -3.0142 -0.8780
   23SOL    HW2   69   2.751   0.700   0.572  1.3573  0.9473 -0.1570
   24SOL     OW   70   0.212   1.920   0.373  0.4215  0.0310  0.8601
   24SOL    HW1   71   0.175   1.970   0.289 -0.0489 -0.6577 -2.3370
   24SOL    HW2   72   0.312   1.883   0.352  1.4552 -1.0190 -0.9356
   25SOL     OW   73   2.202   0.598   0.241  0.1276  1.0205 -0.0661
   25SOL    HW1   74   2.224   0.610   0.139  1.8608  1.8403 -0.2461
   25SOL    HW2   75   2.276   0.533   0.282  2.1812 -4.1963 -1.6738
   26SOL     OW   76   2.510   2.102   2.073 -0.2559  0.6006  0.1039
   26SOL    HW1   77   2.580   2.174   2.101 -0.1602 -2.0959 -0.9358
   26SOL    HW2   78   2.557   2.035   2.002  1.3987  0.8316 -0.6700
   27SOL     OW   79   0.607   2.955   0.197  0.3229 -0.2845  0.0969
   27SOL    HW1   80   0.711   2.957   0.205  0.3710  0.6812 -1.2513
   27SOL    HW2   81   0.574   2.978   0.099  2.1826 -2.4562 -2.2177
   28SOL     OW   82   1.592   0.179   0.283  0.1157  0.0886  0.2978
   28SOL    HW1   83   1.637   0.151   0.193  1.7766  0.4910  1.9302
   28SOL    HW2   84   1.612   0.282   0.305  0.4815  2.4594  1.3003
   29SOL     OW   85   1.973   0.644   0.407  0.5014  0.0378 -0.1712
   29SOL    HW1   86   1.933   0.738   0.391  0.1653  1.1737 -1.7416
   29SOL    HW2   87   2.063   0.631   0.355 -1.7122  2.3852 -3.4752
   30SOL     OW   88   0.160   1.971   0.885 -0.4566 -0.1221 -0.1207
   30SOL    HW1   89   0.138   1.958   0.783  2.4511  0.2865  2.1722
   30SOL    HW2   90   0.093   2.039   0.932  0.6588  1.6543 -0.6774
   31SOL     OW   91   2.102   3.089   2.359  0.3153 -0.1021  0.5284
   31SOL    HW1   92   2.081   3.117   2.459 -1.7816  1.0944 -0.7147
   31SOL    HW2   93   2.036   3.013   2.339  0.9846  3.1987 -0.5304
   32SOL     OW   94   2.970   0.043   0.187  0.0252 -0.6733  0.9659
   32SOL    HW1   95   2.986  -0.059   0.170 -0.3029  3.6231 -1.6129
   32SOL    HW2   96   3.053   0.111   0.190  1.4264 -0.8407  0.0276
   33SOL     OW   97   0.942   0.298   0.587  0.1651 -0.2845 -0.5077
   33SOL    HW1   98   0.887   0.223   0.545 -0.3822  2.4800  0.6697
   33SOL    HW2   99   1.043   0.299   0.565 -0.9429 -2.2767  0.2666
   34SOL     OW  100   0.282   2.745   1.096  0.9710 -0.3205  0.3350
   34SOL    HW1  101   0.245   2.707   1.010  0.9163  4.0617  1.8498
   34SOL    HW2  102   0.384   2.770   1.091 -2.0285  1.7243 -1.4997
   35SOL     OW  103   0.024   0.069   1.906 -0.2530 -0.1142  0.2828
   35SOL    HW1  104   0.041  -0.030   1.895  0.0990  1.3987  0.8265
   35SOL    HW2  105  -0.021   0.109   1.825  1.3762  0.4921  1.3422
   36SOL     OW  106   1.913   1.198   1.718  0.1962  0.8964 -0.6532
   36SOL    HW1  107   1.959   1.147   1.644 -0.5439 -2.7063  0.6523
   36SOL    HW2  108   1.954   1.293   1.740  0.7663  0.8389  1.9576
   37SOL     OW  109   1.175   0.195   0.960 -0.3610  0.6219  0.8379
   37SOL    HW1  110   1.228   0.256   1.027  0.2095  0.3718  0.7809
   37SOL    HW2  111   1.239   0.148   0.892  0.9897 -0.0586 -1.0669
   38SOL     OW  112   1.077   2.817   2.496  0.6476 -0.2261  0.1441
   38SOL    HW1  113   1.033   2.723   2.497 -0.9806  2.8346  2.7207
   38SOL    HW2  114   1.014   2.891   2.455 -0.7728  2.5439  0.5418
   39SOL     OW  115   2.329   1.409   3.039 -0.0611  0.3165  0.5449
   39SOL    HW1  116   2.399   1.334   3.065 -0.0141  0.5039  1.8422
   39SOL    HW2  117   2.256   1.423   3.115  0.1641  1.3082 -0.5340
   40SOL     OW  118   2.037   2.424   2.539 -0.2766 -0.1710  0.0365
   40SOL    HW1  119   2.033   2.525   2.520 -1.9942  0.5606  2.7105
   40SOL    HW2  120   1.984   2.365   2.470 -0.7269 -2.1836 -0.6176
   41SOL     OW  121   3.042   0.690   2.844  0.0808 -0.3404  0.1613
   41SOL    HW1  122   2.959   0.747   2.861  2.6383  1.8837  2.8602
   41SOL    HW2  123   3.013   0.613   2.780 -0.7255 -2.4337 -0.0062
   42SOL     OW  124   1.792   1.738   0.485  0.0326 -0.2866  0.2100
   42SOL    HW1  125   1.726   1.663   0.492  2.6271  0.0520 -0.5315
   42SOL    HW2  126   1.803   1.777   0.392 -3.4760  1.1883 -0.4408
   43SOL     OW  127   0.457   1.652   1.141  0.3671  0.0800 -0.0987
   43SOL    HW1  128   0.447   1.557   1.181  1.2723  4.7424  3.5178
   43SOL    HW2  129   0.374   1.676   1.081 -3.2767 -0.6422 -1.0985
   44SOL     OW  130   1.756   2.499   3.013 -0.4695 -0.4020  0.1686
   44SOL    HW1  131   1.775   2.591   2.969  0.3075 -0.3522 -1.6059
   44SOL    HW2  132   1.777   2.425   2.942 -1.0662  0.9499 -0.2247
   45SOL     OW  133   0.400   1.936   2.604 -0.3498 -0.0990  0.3829
   45SOL    HW1  134   0.381   1.916   2.502  0.5088  0.6198 -0.5330
   45SOL    HW2  135   0.468   1.868   2.640  0.0364 -2.6263  1.0466
   46SOL     OW  136   1.243   0.676   0.185 -0.1418  0.0957 -0.1647
   46SOL    HW1  137   1.294   0.762   0.149 -1.0195 -1.8617 -1.6252
   46SOL    HW2  138   1.146   0.696   0.205  0.1522 -2.0833 -2.4336
   47SOL     OW  139   0.220   2.514   1.551 -0.0859 -0.1035 -0.4550
   47SOL    HW1  140   0.141   2.445   1.555 -2.0376 -2.7747  0.3500
   47SOL    HW2  141   0.248   2.543   1.454 -1.1646  1.9785  1.1145
   48SOL     OW  142   2.651   0.643   0.124 -0.2848  0.0820 -0.0406
   48SOL    HW1  143   2.645   0.634   0.229  3.7573 -1.8688 -0.7854
   48SOL    HW2  144   2.740   0.683   0.095 -0.5687 -1.8206 -3.1027
   49SOL     OW  145   0.289   0.802   1.763  0.0020 -0.3186  0.1307
   49SOL    HW1  146   0.384   0.801   1.806 -2.2581 -0.9397  1.5223
   49SOL    HW2  147   0.288   0.738   1.679  0.4195  0.6467 -1.4911
   50SOL     OW  148   1.679   1.137   0.347 -0.1250 -0.2869  0.2243
   50SOL    HW1  149   1.668   1.038   0.315  2.4256 -0.1084 -1.9751
   50SOL    HW2  150   1.605   1.173   0.411  1.6367  2.9600  0.5420
   51SOL     OW  151   2.862   1.792   0.266  0.3960 -0.7482 -0.4822
   51SOL    HW1  152   2.822   1.699   0.229 -2.2441 -1.6957 -0.8930
   51SOL    HW2  153   2.951   1.772   0.313 -3.6709  0.4784  1.2627
   52SOL     OW  154   0.769   2.018   0.517  0.0024 -0.0282  0.6762
   52SOL    HW1  155   0.672   2.044   0.550 -1.6991  0.1740 -1.7474
   52SOL    HW2  156   0.819   1.944   0.571  0.4825  2.9049 -3.0847
   53SOL     OW  157   0.191   0.428   1.582 -0.1516 -0.0595  0.0938
   53SOL    HW1  158   0.263   0.503   1.573  0.4299 -0.7255  0.9422
   53SOL    HW2  159   0.101   0.472   1.556  1.4639  3.6439  1.6502
   54SOL     OW  160   1.791   0.505   3.077 -0.3578  0.7598  0.0470
   54SOL    HW1  161   1.846   0.502   3.166  0.3312 -3.7561  0.5520
   54SOL    HW2  162   1.688   0.474   3.082  1.5587 -1.9227  1.4382
   55SOL     OW  163   0.740   2.866   0.680 -0.4268 -1.0415  0.0176
   55SOL    HW1  164   0.693   2.955   0.711  0.4242  2.1871  1.6053
   55SOL    HW2  165   0.822   2.885   0.617 -1.5002  0.8776 -3.0352
   56SOL     OW  166   0.569   1.579   0.024  0.2832 -0.2607 -0.1912
   56SOL    HW1  167   0.474   1.616   0.044  1.1400 -1.4255 -0.3075
   56SOL    HW2  168   0.567   1.494  -0.041 -0.2407 -2.3387 -1.0615
   57SOL     OW  169   1.736   2.514   2.445  0.9243 -0.6804 -0.5592
   57SOL    HW1  170   1.767   2.419   2.434  0.0202  3.9563 -3.0841
   57SOL    HW2  171   1.655   2.530   2.512 -2.2318  1.9036  0.0049
   58SOL     OW  172   0.670   0.268   1.065  0.1355  0.4700  0.0769
   58SOL    HW1  173   0.567   0.275   1.070  2.8658  0.4445  1.1520
   58SOL    HW2  174   0.698   0.174   1.041 -2.0443  4.0171 -0.1039
   59SOL     OW  175   0.455   2.423   2.718 -0.3540 -0.6488  0.2483
   59SOL    HW1  176   0.466   2.336   2.669  0.3425  2.2625  0.7428
   59SOL    HW2  177   0.539   2.457   2.772  1.3336 -0.4804 -0.7036
   60SOL     OW  178   2.292   2.054   2.230  0.5339  0.1761  0.1284
   60SOL    HW1  179   2.365   2.078   2.163 -2.8870 -1.6719  3.2076
   60SOL    HW2  180   2.328   2.082   2.325 -0.3583 -1.6888 -2.1425
   61SOL     OW  181   1.318   0.658   0.508  0.7825 -0.0315 -0.0590
   61SOL    HW1  182   1.226   0.693   0.545 -0.8877  1.3428  1.2182
   61SOL    HW2  183   1.319   0.636   0.407 -1.4122  0.5375 -0.2396
   62SOL     OW  184   2.755   1.818   2.927 -0.2924 -0.0028  0.2230
   62SOL    HW1  185   2.701   1.734   2.893 -0.5247 -1.4112  0.4551
   62SOL    HW2  186   2.837   1.839   2.866 -2.6425 -3.3330 -0.3184
   63SOL     OW  187   0.556   0.844   0.199 -0.2046 -0.7395 -0.4312
   63SOL    HW1  188   0.581   0.926   0.140  0.6365  1.8022  0.2426
   63SOL    HW2  189   0.617   0.840   0.280 -0.0162 -2.2235  1.1486
   64SOL     OW  190   0.082   0.473   2.454 -0.6984  0.3792 -0.6681
   64SOL    HW1  191   0.173   0.526   2.460  2.1722 -2.6797 -0.7150
   64SOL    HW2  192   0.020   0.509   2.377  0.4410 -1.0226  2.9789
   65SOL     OW  193   0.143   1.526   0.540 -0.0882  0.1384  0.5184
   65SOL    HW1  194   0.196   1.554   0.626 -1.8639 -1.4934  0.3696
   65SOL    HW2  195   0.214   1.522   0.465 -0.5539  0.1469  3.3044
   66SOL     OW  196   2.559   0.356   0.613 -0.2649 -0.1293 -0.2603
   66SOL    HW1  197   2.650   0.373   0.655  2.0600  0.1731 -0.7523
   66SOL    HW2  198   2.487   0.306   0.668 -1.6024  1.1256 -0.3339
   67SOL     OW  199   0.544   2.527   1.403  0.4721 -0.5950  0.4616
   67SOL    HW1  200   0.617   2.513   1.472 -2.2439 -0.6239  0.4793
   67SOL    HW2  201   0.490   2.442   1.377  3.6154 -0.3484  1.3875
   68SOL     OW  202   0.992   1.072   2.473 -0.7228  0.1007 -0.0925
   68SOL    HW1  203   1.056   0.989   2.462  0.3308 -0.3460  1.7537
   68SOL    HW2  204   0.912   1.074   2.400 -1.2219 -0.7071 -1.1343
   69SOL     OW  205   0.717   2.732   2.156 -0.7946 -0.4492 -0.4554
   69SOL    HW1  206   0.741   2.630   2.148 -1.7784  0.6986  0.9584
   69SOL    HW2  207   0.618   2.746   2.153  2.6297 -0.0564 -0.1778
   70SOL     OW  208   0.534   0.284   2.670 -0.6210  0.1173 -0.6850
   70SOL    HW1  209   0.454   0.325   2.717  0.5912 -1.0493 -1.4877
   70SOL    HW2  210   0.542   0.182   2.672  1.3410  0.1303 -0.6426
   71SOL     OW  211   1.110   1.764   0.466 -0.3765  0.2335 -0.0686
   71SOL    HW1  212   1.095   1.676   0.516  1.9140  3.6354 -1.4999
   71SOL    HW2  213   1.048   1.782   0.382 -1.8668 -0.7053 -1.4190
   72SOL     OW  214   1.829   0.209   2.163 -0.0492 -0.1581 -0.4951
   72SOL    HW1  215   1.927   0.252   2.183  3.0740  0.0643  1.0433
   72SOL    HW2  216   1.839   0.108   2.142  1.3600 -0.8457  2.7861
   73SOL     OW  217   2.804   2.157   2.400  0.0254 -0.5446 -0.0741
   73SOL    HW1  218   2.816   2.070   2.354  2.9943 -2.2176  0.8513
   73SOL    HW2  219   2.848   2.152   2.495 -0.8159 -0.1617 -1.0263
   74SOL     OW  220   2.670   2.884   2.124  0.3633 -0.5464 -0.5210
   74SOL    HW1  221   2.613   2.900   2.216 -1.7942 -0.8472 -0.3482
   74SOL    HW2  222   2.762   2.930   2.124  2.0557 -4.1867  1.1476
   75SOL     OW  223   0.890   0.816   1.093  0.1990  0.4742 -0.1194
   75SOL    HW1  224   0.833   0.890   1.043 -1.3168  0.8369 -0.6404
   75SOL    HW2  225   0.932   0.858   1.182  2.2408  1.0841  1.0972
   76SOL     OW  226   1.700   1.168   2.507  0.5885  0.6049 -0.0432
   76SOL    HW1  227   1.596   1.172   2.524 -1.1394 -2.2963 -0.2257
   76SOL    HW2  228   1.736   1.258   2.538  1.1147  0.3033  3.5800
   77SOL     OW  229   2.958   0.923   0.956 -0.0269  0.6418  0.0337
   77SOL    HW1  230   2.936   0.822   0.963 -2.7208  2.2198  4.7820
   77SOL    HW2  231   3.021   0.949   1.032  1.2287 -0.1185 -2.1651
   78SOL     OW  232   2.035   1.486   1.487 -0.2498 -0.0748 -0.0168
   78SOL    HW1  233   2.133   1.471   1.459 -1.1102  0.4537  0.5240
   78SOL    HW2  234   1.970   1.500   1.408 -0.9460 -1.8880  0.3422
   79SOL     OW  235   0.601   1.380   0.828  0.6595 -0.0137  0.2675
   79SOL    HW1  236   0.512   1.370   0.878  0.4741 -2.4132 -0.1460
   79SOL    HW2  237   0.588   1.373   0.722  0.6050  0.1361 -2.2817
   80SOL     OW  238   0.608   0.505   1.588 -0.2962 -0.1554 -0.4983
   80SOL    HW1  239   0.654   0.564   1.516  1.9945  0.0988 -0.1821
   80SOL    HW2  240   0.638   0.406   1.582 -3.1113  0.6365 -0.9068
   81SOL     OW  241   1.039   1.386   2.645 -0.0138 -0.5711 -0.2457
   81SOL    HW1  242   1.063   1.284   2.644 -1.9224 -2.6802  0.9399
   81SOL    HW2  243   0.971   1.421   2.577 -0.4038  1.3461  0.6759
   82SOL     OW  244   1.002   2.974   1.513 -0.3916  0.2138 -0.5961
   82SOL    HW1  245   0.940   3.032   1.451 -1.4015  0.7832  1.0596
   82SOL    HW2  246   0.968   2.879   1.521  0.9882  1.2962 -0.7696
   83SOL     OW  247   2.723   2.437   0.857 -0.4112 -0.4926 -0.3329
   83SOL    HW1  248   2.640   2.393   0.808 -3.2709  0.1103 -0.5740
   83SOL    HW2  249   2.728   2.534   0.835 -1.2588 -1.3681  0.2381
   84SOL     OW  250   0.656   3.030   2.355  0.0702  0.1763 -0.0992
   84SOL    HW1  251   0.590   3.043   2.437 -1.4893 -1.4099  3.0557
   84SOL    HW2  252   0.692   2.934   2.365 -1.0801  0.6548 -0.7611
   85SOL     OW  253   0.266   1.561   1.483  0.2172  0.9413  0.0773
   85SOL    HW1  254   0.250   1.662   1.457  0.5322 -0.0078  0.8677
   85SOL    HW2  255   0.328   1.551   1.568 -2.1023 -2.9859 -1.1881
   86SOL     OW  256   0.404   0.989   1.536  0.5765 -0.3420  0.2374
   86SOL    HW1  257   0.365   0.960   1.445 -0.1298  1.4604 -0.0905
   86SOL    HW2  258   0.372   0.927   1.613  1.1154  0.0450  1.0517
   87SOL     OW  259   1.561   0.648   0.213 -0.3887 -0.4080  0.1163
   87SOL    HW1  260   1.638   0.715   0.185  3.2186 -2.3635  0.2375
   87SOL    HW2  261   1.531   0.593   0.133  0.6851 -3.3363 -0.8775
   88SOL     OW  262   1.568   1.391   0.240  0.0800  0.1918  0.3232
   88SOL    HW1  263   1.614   1.301   0.249  1.4301  0.8460 -0.0370
   88SOL    HW2  264   1.470   1.375   0.203 -0.0852 -0.5037 -0.5745
   89SOL     OW  265   3.094   0.461   0.579 -0.3114 -0.0612 -0.2182
   89SOL    HW1  266   3.174   0.399   0.573 -2.7155 -0.2939  3.3659
   89SOL    HW2  267   3.006   0.411   0.587  1.7820  0.7726 -1.2764
   90SOL     OW  268   0.912   1.568   0.070 -0.0334 -0.1935  0.4041
   90SOL    HW1  269   0.869   1.503   0.135 -1.3108  0.7816  0.9354
   90SOL    HW2  270   0.853   1.591  -0.014  1.3108 -2.5811 -0.6625
   91SOL     OW  271   1.230   1.436   1.846  0.6601 -0.1909  0.5093
   91SOL    HW1  272   1.211   1.541   1.853  1.5849 -1.0090  1.6914
   91SOL    HW2  273   1.326   1.416   1.815 -1.5600  2.5612 -0.4276
   92SOL     OW  274   3.082   0.962   1.227 -0.2716 -0.2679  0.3947
   92SOL    HW1  275   3.124   1.045   1.180  1.0228 -2.0324 -1.2161
   92SOL    HW2  276   3.107   0.958   1.329  0.1094  0.6208  0.7022
   93SOL     OW  277   0.033   2.713   3.045 -0.0712  0.2576 -0.0532
   93SOL    HW1  278  -0.039   2.719   2.971  0.9004 -0.3862 -0.1098
   93SOL    HW2  279   0.065   2.618   3.070  1.4808  1.1700  1.4940
   94SOL     OW  280   1.510   1.488   1.740 -0.6402 -0.1820 -0.5758
   94SOL    HW1  281   1.569   1.403   1.744 -0.0623  0.9600 -0.3992
   94SOL    HW2  282   1.517   1.556   1.821 -2.6222  2.2762 -0.7247
   95SOL     OW  283   1.390   2.524   2.978  1.0448 -0.2554 -0.0618
   95SOL    HW1  284   1.294   2.537   3.006  0.5277 -1.7836  1.1491
   95SOL    HW2  285   1.407   2.427   2.936  0.3156 -1.2756 -2.8257
   96SOL     OW  286   0.551   2.111   1.238  0.0273  0.3499 -0.1209
   96SOL    HW1  287   0.511   2.074   1.148 -0.6680  2.8237  1.7970
   96SOL    HW2  288   0.605   2.044   1.298 -0.9951 -0.3335 -0.9068
   97SOL     OW  289   0.446   1.615   2.483  0.5883  0.5625  0.3549
   97SOL    HW1  290   0.346   1.595   2.463 -1.1277  2.5013 -2.5397
   97SOL    HW2  291   0.458   1.647   2.579 -1.3427 -1.9743 -0.3214
   98SOL     OW  292   2.024   1.596   1.202 -0.1277  0.1055 -0.0442
   98SOL    HW1  293   1.923   1.583   1.193  0.0699 -2.3241 -0.3364
   98SOL    HW2  294   2.079   1.532   1.147  0.8088 -0.1594  0.2892
   99SOL     OW  295   2.498   2.049   1.329  0.6617 -0.2087 -0.9323
   99SOL    HW1  296   2.496   2.087   1.426 -1.3183  0.2219 -1.3403
   99SOL    HW2  297   2.465   1.950   1.326 -1.9869  0.4549  0.0738
  100SOL     OW  298   2.387   0.305   2.119 -0.0648 -0.1447  0.3822
  100SOL    HW1  299   2.303   0.315   2.183 -1.4371 -1.0929  2.0840
  100SOL    HW2  300   2.455   0.385   2.143  1.9658  2.2886  0.8770
  101SOL     OW  301   0.396   1.475   0.435 -0.0536 -0.5595  0.0395
  101SOL    HW1  302   0.435   1.492   0.530 -2.0684  1.1084  1.9717
  101SOL    HW2  303   0.458   1.506   0.362  2.2166 -3.6515  0.6963
  102SOL     OW  304   2.249   1.031   0.856 -0.3373  0.1068 -0.0106
  102SOL    HW1  305   2.174   0.963   0.834  1.7369  2.2337 -0.3174
  102SOL    HW2  306   2.287   1.076   0.775  0.1484 -1.9025 -0.9725
  103SOL     OW  307   2.258   0.076   0.407  0.0739  0.1851  0.2674
  103SOL    HW1  308   2.263   0.176   0.405  0.5719  0.1040 -0.0616
  103SOL    HW2  309   2.352   0.033   0.427 -0.5223  3.9869  1.7825
  104SOL     OW  310   0.070   1.763   2.200  0.1006  0.2788 -0.4145
  104SOL    HW1  311   0.113   1.721   2.114  1.5780 -2.1071 -0.4628
  104SOL    HW2  312  -0.015   1.813   2.179  0.5180 -0.0871  0.6711
  105SOL     OW  313   1.241   2.086   0.788  0.8444 -0.1633 -0.2752
  105SOL    HW1  314   1.172   2.126   0.725 -1.4336 -1.0420  1.6691
  105SOL    HW2  315   1.278   1.993   0.767 -0.2441  0.5522  1.2091
  106SOL     OW  316   2.088   0.422   1.401 -0.1073 -0.1603  0.0016
  106SOL    HW1  317   2.056   0.324   1.398 -2.3951 -0.6032  0.9694
  106SOL    HW2  318   2.107   0.446   1.499  2.0525 -2.0883  0.1141
  107SOL     OW  319   1.816   2.994   1.178  0.0421 -0.8910  0.7695
  107SOL    HW1  320   1.816   3.077   1.241  0.5546 -0.4053  0.6437
  107SOL    HW2  321   1.737   2.928   1.204 -2.7760 -2.6690  0.7512
  108SOL     OW  322   0.756   2.765   1.265  0.2346 -0.4911  0.0497
  108SOL    HW1  323   0.742   2.729   1.363 -1.9727 -0.0317 -0.6494
  108SOL    HW2  324   0.854   2.792   1.242 -0.3820 -2.6470  3.0237
  109SOL     OW  325   2.129   0.099   0.802  0.0845 -0.1052  0.2155
  109SOL    HW1  326   2.030   0.096   0.770  0.2790  0.7903 -0.6408
  109SOL    HW2  327   2.143   0.066   0.900  1.3886  0.0034  0.7778
  110SOL     OW  328   0.449   2.835   2.792 -0.1790  0.4011 -0.5142
  110SOL    HW1  329   0.438   2.833   2.686  1.7936  0.4119 -0.4562
  110SOL    HW2  330   0.540   2.788   2.823 -2.9691  0.7671  0.4490
  111SOL     OW  331   1.314   0.537   2.313 -0.3410 -0.8549 -0.2460
  111SOL    HW1  332   1.214   0.558   2.335  0.9770  0.7426  1.5399
  111SOL    HW2  333   1.349   0.460   2.373  0.4131 -0.7448  1.5824
  112SOL     OW  334   1.665   0.521   1.444 -0.3033 -0.5116  0.2382
  112SOL    HW1  335   1.717   0.492   1.356 -2.5203  0.5546 -1.9528
  112SOL    HW2  336   1.676   0.450   1.520 -2.1563  1.4267 -0.5143
  113SOL     OW  337   2.307   1.669   1.761  0.0982  0.5545  0.0973
  113SOL    HW1  338   2.369   1.598   1.720  0.4444  0.0284  1.9366
  113SOL    HW2  339   2.328   1.678   1.862 -0.8296 -1.2405 -0.2700
  114SOL     OW  340   0.409   0.553   1.257 -0.1709  0.3743  0.2015
  114SOL    HW1  341   0.428   0.601   1.168  1.2291 -2.6359  1.7408
  114SOL    HW2  342   0.308   0.553   1.287  1.8529 -1.5250  1.3430
  115SOL     OW  343   2.729   1.603   1.216 -0.1738  0.6067 -1.0109
  115SOL    HW1  344   2.749   1.497   1.224  1.8634 -2.7506 -1.3720
  115SOL    HW2  345   2.768   1.647   1.133  1.1315  0.6877  2.3991
  116SOL     OW  346   1.802   1.063   0.673 -0.0522  0.2601 -0.5616
  116SOL    HW1  347   1.732   1.002   0.629 -0.6965 -0.0007 -0.0002
  116SOL    HW2  348   1.752   1.139   0.717 -0.2128  0.1013 -2.6173
  117SOL     OW  349   1.220   0.361   0.565 -0.4786 -0.6172  0.7623
  117SOL    HW1  350   1.245   0.446   0.617  0.1135 -0.8700 -3.0898
  117SOL    HW2  351   1.248   0.374   0.461 -0.0477  0.3150 -3.0008
  118SOL     OW  352   1.167   1.097   1.117  0.6268 -0.4981 -0.0938
  118SOL    HW1  353   1.116   1.033   1.180 -2.9143 -0.0555  2.4846
  118SOL    HW2  354   1.149   1.190   1.151  3.8395 -2.2240 -0.1402
  119SOL     OW  355   1.818   1.601   2.174  0.1710  0.1447  0.0848
  119SOL    HW1  356   1.798   1.705   2.179 -0.6571  1.9214  3.0191
  119SOL    HW2  357   1.916   1.583   2.140  0.2473  2.8869  1.2442
  120SOL     OW  358   2.955   2.885   0.116 -0.1402 -0.3965  0.3852
  120SOL    HW1  359   3.009   2.846   0.037  0.3532  0.4774 -1.5202
  120SOL    HW2  360   2.880   2.817   0.134  1.6839  2.1403 -0.3791
  121SOL     OW  361   2.004   0.749   2.203 -0.1638  0.0867  0.3421
  121SOL    HW1  362   1.991   0.801   2.115  2.8709 -1.5956  1.1401
  121SOL    HW2  363   2.009   0.644   2.192  2.7305 -0.9334  0.5237
  122SOL     OW  364   2.586   2.636   1.271 -0.2277 -0.5697  0.4323
  122SOL    HW1  365   2.632   2.549   1.233 -1.6289 -0.3703  1.6396
  122SOL    HW2  366   2.484   2.644   1.259 -0.0492 -0.8507 -1.9388
  123SOL     OW  367   1.736   0.081   1.692 -0.0520  0.0378 -0.3563
  123SOL    HW1  368   1.730  -0.011   1.643  0.5335  2.4154 -0.5051
  123SOL    HW2  369   1.830   0.101   1.730  3.1276 -0.1322 -0.4784
  124SOL     OW  370   0.080   0.476   1.096 -0.2058 -0.2210 -0.2514
  124SOL    HW1  371   0.096   0.566   1.153 -0.8964  2.9756  2.7056
  124SOL    HW2  372   0.069   0.503   0.993  0.5536 -2.4483  1.5444
  125SOL     OW  373   0.865   1.829   0.691 -0.1576  0.4611  0.2273
  125SOL    HW1  374   0.954   1.808   0.744  0.5110 -0.0521  0.4877
  125SOL    HW2  375   0.786   1.857   0.753  0.4729 -0.1668 -1.8491
  126SOL     OW  376   1.858   2.272   2.394 -0.1052  0.3043 -0.8371
  126SOL    HW1  377   1.888   2.234   2.300 -1.4337 -0.2815 -1.3199
  126SOL    HW2  378   1.803   2.201   2.441  0.9332  1.7437 -2.5010
  127SOL     OW  379   1.028   0.898   0.258  0.2434  0.0996 -0.6116
  127SOL    HW1  380   1.030   0.951   0.348 -0.4429 -0.3527  0.6531
  127SOL    HW2  381   1.000   0.801   0.270  0.1176  2.6285  0.2095
  128SOL     OW  382   0.936   0.217   1.396  0.7869 -0.1028 -0.6199
  128SOL    HW1  383   0.906   0.279   1.325 -0.5251 -0.3926  2.6356
  128SOL    HW2  384   0.917   0.120   1.357  0.4600  1.0432  1.0614
  129SOL     OW  385   1.836   0.677   1.883 -0.0753 -0.8393 -0.3110
  129SOL    HW1  386   1.839   0.688   1.778  0.6220  0.6242  3.5331
  129SOL    HW2  387   1.872   0.765   1.929  0.3888 -1.1426  1.9227
  130SOL     OW  388   1.383   2.181   1.010  0.3526 -0.1206 -0.5117
  130SOL    HW1  389   1.307   2.145   0.946 -1.0061 -0.3347  1.4497
  130SOL    HW2  390   1.457   2.234   0.965 -0.3164 -1.9973  1.6725
  131SOL     OW  391   3.037   1.450   1.402 -0.6046 -0.5970 -0.3929
  131SOL    HW1  392   2.993   1.356   1.417 -2.0263  1.4697  1.4781
  131SOL    HW2  393   3.142   1.454   1.402 -0.9208  1.5224 -0.6686
  132SOL     OW  394   2.057   2.433   0.528 -0.4717  0.0689  0.0428
  132SOL    HW1  395   1.960   2.465   0.521  2.4714 -0.1355  1.7805
  132SOL    HW2  396   2.065   2.335   0.574 -0.3063 -3.8949 -1.7761
  133SOL     OW  397   1.858   2.329   2.808 -0.5937  0.3216 -0.9254
  133SOL    HW1  398   1.780   2.333   2.740 -0.1079 -4.6096  0.0480
  133SOL    HW2  399   1.949   2.377   2.784  1.1464 -1.1462 -0.9492
  134SOL     OW  400   2.653   2.352   1.596 -0.1201 -0.3362 -0.3544
  134SOL    HW1  401   2.568   2.354   1.656 -0.4842 -0.6117 -0.8760
  134SOL    HW2  402   2.713   2.436   1.600  0.4365 -1.4719 -1.8818
  135SOL     OW  403   0.652   1.462   2.639  0.2450  0.1433 -0.2817
  135SOL    HW1  404   0.604   1.376   2.676 -1.5713  1.5434 -0.0727
  135SOL    HW2  405   0.735   1.432   2.583  3.8809 -2.8750 -1.1431
  136SOL     OW  406   1.222   2.027   0.420 -0.0028 -0.0545  0.3408
  136SOL    HW1  407   1.151   2.097   0.436  1.9437 -2.1375  0.4986
  136SOL    HW2  408   1.192   1.934   0.456  0.3997 -0.0901 -3.2238
  137SOL     OW  409   0.403   1.196   2.147  0.0390  0.1168  0.1161
  137SOL    HW1  410   0.326   1.176   2.214 -1.2827  0.3584  2.7152
  137SOL    HW2  411   0.484   1.148   2.182 -1.0527 -0.8152 -2.0063
  138SOL     OW  412   2.494   1.490   0.232 -0.0602 -0.4633  0.4255
  138SOL    HW1  413   2.394   1.456   0.234  0.8411 -0.5995 -0.0481
  138SOL    HW2  414   2.555   1.422   0.281  2.4486  0.9970 -0.4313
  139SOL     OW  415   1.838   2.597   1.310  0.4051 -0.2476  0.5041
  139SOL    HW1  416   1.735   2.603   1.289  0.9940 -1.4553  1.6222
  139SOL    HW2  417   1.869   2.505   1.344 -1.4248  1.6911 -1.1179
  140SOL     OW  418   3.048   3.011   2.550  0.2773  0.1860  0.0519
  140SOL    HW1  419   3.092   2.920   2.537 -0.4747  1.0041  0.0176
  140SOL    HW2  420   3.119   3.087   2.549 -0.3995  1.2623  2.5752
  141SOL     OW  421   1.343   1.656   1.603 -0.0050 -0.0385  0.5267
  141SOL    HW1  422   1.255   1.694   1.641 -0.3295  0.2300 -0.4885
  141SOL    HW2  423   1.407   1.611   1.672  0.4882 -0.0833 -0.2305
  142SOL     OW  424   1.572   0.611   2.258 -0.4055  0.0648 -0.1238
  142SOL    HW1  425   1.578   0.596   2.157 -0.3114  1.1410  2.1781
  142SOL    HW2  426   1.478   0.590   2.306 -0.9278  3.2076  1.5306
  143SOL     OW  427   2.689   0.889   0.501 -0.2163 -0.3143  0.1176
  143SOL    HW1  428   2.729   0.930   0.418 -0.5392  0.3167  1.2828
  143SOL    HW2  429   2.731   0.930   0.585  1.5221 -1.1031  2.6021
  144SOL     OW  430   2.911   1.176   1.464  0.1753  0.5832  0.1523
  144SOL    HW1  431   2.844   1.143   1.538 -0.3262 -0.0160 -1.5398
  144SOL    HW2  432   2.983   1.098   1.452 -0.3695 -0.8240  4.1420
  145SOL     OW  433   0.971   1.825   0.205  0.1504  0.3121  0.3651
  145SOL    HW1  434   1.046   1.877   0.158 -0.5214  2.1546  1.9834
  145SOL    HW2  435   0.948   1.733   0.166  0.5869 -0.1152  2.9074
  146SOL     OW  436   2.518   0.637   1.492 -0.4021 -0.4680 -0.2347
  146SOL    HW1  437   2.502   0.548   1.440  3.3198  0.4981  1.8154
  146SOL    HW2  438   2.473   0.725   1.454  0.4025 -2.3749 -1.3974
  147SOL     OW  439   1.115   2.488   0.628  0.4456 -0.4606 -0.9575
  147SOL    HW1  440   1.060   2.537   0.553 -0.4641  3.7704 -1.2968
  147SOL    HW2  441   1.196   2.434   0.604  1.5867  0.2363  0.6302
  148SOL     OW  442   1.619   1.469   3.075  0.2157 -0.3852  1.0255
  148SOL    HW1  443   1.623   1.385   3.016 -0.3731  3.4318 -2.1078
  148SOL    HW2  444   1.597   1.454   3.176 -2.0630  0.7790 -0.8890
  149SOL     OW  445   0.706   1.390   1.985 -0.0548  0.3345  0.2057
  149SOL    HW1  446   0.607   1.356   1.999 -0.6666 -0.9239 -1.2004
  149SOL    HW2  447   0.752   1.343   1.901  0.0032  0.4401  0.3471
  150SOL     OW  448   3.008   1.219   0.944 -0.1482  0.2082 -0.1997
  150SOL    HW1  449   3.086   1.246   1.003  0.2185  1.1168  0.5261
  150SOL    HW2  450   3.006   1.120   0.917  1.6151 -1.7018  3.3423
  151SOL     OW  451   0.150   0.706   2.099 -0.2538 -0.6876 -0.5160
  151SOL    HW1  452   0.120   0.795   2.054 -1.2752 -1.8528 -3.3866
  151SOL    HW2  453   0.194   0.640   2.032 -0.4222 -2.3028 -0.9698
  152SOL     OW  454   1.460   1.778   1.287  0.6155  0.3779 -0.6481
  152SOL    HW1  455   1.512   1.858   1.257 -0.1907 -1.7692  1.1777
  152SOL    HW2  456   1.359   1.782   1.257  0.0333  0.8742 -1.2793
  153SOL     OW  457   0.073   1.554   0.150  0.8179  0.8450 -0.0264
  153SOL    HW1  458   0.078   1.450   0.158 -2.9094  0.4629  1.5989
  153SOL    HW2  459   0.031   1.595   0.238 -1.5288 -1.1331 -1.0814
  154SOL     OW  460   2.384   1.821   2.826  0.0481 -0.3134  0.2446
  154SOL    HW1  461   2.417   1.727   2.856 -0.3991  2.7979 -0.6504
  154SOL    HW2  462   2.438   1.853   2.741 -0.1444 -0.5305  1.0384
  155SOL     OW  463   2.466   1.194   0.394  0.0146  0.2074  0.3514
  155SOL    HW1  464   2.515   1.126   0.334  1.1080 -2.4020  3.0629
  155SOL    HW2  465   2.376   1.231   0.367  1.1096 -0.8600 -0.0763
  156SOL     OW  466   2.553   0.976   0.831  0.1137 -0.3765  0.1297
  156SOL    HW1  467   2.487   1.014   0.899  0.1969 -1.6822 -1.6760
  156SOL    HW2  468   2.552   1.023   0.739 -0.4778 -2.1493 -2.4582
  157SOL     OW  469   1.254   2.935   3.008 -0.5093 -0.0869 -0.3967
  157SOL    HW1  470   1.343   2.893   2.965  1.4158  0.0315 -0.7036
  157SOL    HW2  471   1.262   3.036   3.031 -0.8218  1.4102 -1.4929
  158SOL     OW  472   0.973   1.842   1.913 -0.1103  0.4630 -0.1781
  158SOL    HW1  473   0.987   1.943   1.899 -0.4346  0.3460  0.2926
  158SOL    HW2  474   0.881   1.823   1.957 -2.4526  0.6921  1.3168
  159SOL     OW  475   0.862   0.388   1.219  0.5479 -0.1717  0.0740
  159SOL    HW1  476   0.835   0.472   1.274  3.5393 -2.7032 -1.3467
  159SOL    HW2  477   0.792   0.360   1.145  0.7422 -0.3884 -0.3716
  160SOL     OW  478   1.415   2.367   1.580  0.0987  0.5084  0.4538
  160SOL    HW1  479   1.347   2.299   1.618 -4.2222 -0.2786 -0.8103
  160SOL    HW2  480   1.506   2.324   1.551 -0.5821 -0.5303 -1.4181
  161SOL     OW  481   0.078   2.948   0.378  0.0913 -0.0849  0.6832
  161SOL    HW1  482  -0.012   2.897   0.359  1.7110 -0.1490  1.7661
  161SOL    HW2  483   0.077   3.037   0.325  2.5354  1.1254  0.6115
  162SOL     OW  484   2.582   1.880   0.480 -0.3272  0.0056  0.2534
  162SOL    HW1  485   2.575   1.845   0.385  0.8623  0.7561  0.2759
  162SOL    HW2  486   2.568   1.812   0.553 -2.6341  1.0837 -3.4427
  163SOL     OW  487   1.918   2.821   0.716  0.1443 -0.5812 -0.0789
  163SOL    HW1  488   1.924   2.835   0.613  0.6900  1.0863  0.0581
  163SOL    HW2  489   1.990   2.748   0.744 -0.8034  1.5107  0.8360
  164SOL     OW  490   3.053   0.237   1.246 -0.4531 -0.5407  0.4343
  164SOL    HW1  491   3.080   0.320   1.185 -0.2901  1.2183 -2.2638
  164SOL    HW2  492   3.130   0.215   1.318  3.1927 -0.8651  1.3669
  165SOL     OW  493   0.971   1.396   0.734 -0.9091 -0.6490 -0.7879
  165SOL    HW1  494   0.942   1.451   0.814  0.9769 -2.3338  2.9247
  165SOL    HW2  495   0.959   1.438   0.641  1.2556 -2.3790  1.9398
  166SOL     OW  496   1.537   1.064   1.740  0.2914  0.4679  0.2245
  166SOL    HW1  497   1.470   1.031   1.813  1.0893  0.7935 -1.4572
  166SOL    HW2  498   1.597   1.140   1.781 -2.1709  1.1292 -0.9226
  167SOL     OW  499   0.729   2.006   1.421  0.2100 -0.0270  0.3135
  167SOL    HW1  500   0.749   2.076   1.497 -0.5136  2.3218 -0.0473
  167SOL    HW2  501   0.665   1.929   1.455  0.1806  0.8395  0.9877
  168SOL     OW  502   1.664   2.357   0.155 -0.3058  0.1130  0.0624
  168SOL    HW1  503   1.742   2.406   0.101 -3.0721 -2.6448 -1.0698
  168SOL    HW2  504   1.695   2.345   0.255 -0.1172  2.4242 -2.0870
  169SOL     OW  505   0.220   2.562   2.241  0.1750 -0.1358 -0.5439
  169SOL    HW1  506   0.256   2.514   2.152 -0.4235 -1.2823 -0.5990
  169SOL    HW2  507   0.208   2.488   2.314 -2.3163 -0.7367 -2.0658
  170SOL     OW  508   1.128   0.202   2.046 -0.1861 -0.2354  0.0393
  170SOL    HW1  509   1.210   0.216   2.116 -0.2087  0.4466  1.0195
  170SOL    HW2  510   1.152   0.172   1.947 -2.3851  1.3455  1.1352
  171SOL     OW  511   0.185   0.778   2.368  0.0689 -0.0399 -0.2396
  171SOL    HW1  512   0.109   0.832   2.417 -2.0310  0.5982  1.9669
  171SOL    HW2  513   0.182   0.768   2.264 -0.2967 -0.9196 -0.8502
  172SOL     OW  514   0.945   1.015   2.862  0.4050  0.6626 -0.3561
  172SOL    HW1  515   0.982   1.104   2.899  0.9278 -0.2826 -0.8183
  172SOL    HW2  516   0.872   1.027   2.787 -0.6713  0.0177 -0.3166
  173SOL     OW  517   0.671   2.682   0.123 -0.1722 -0.4243 -0.3475
  173SOL    HW1  518   0.625   2.757   0.166  1.1198 -2.6851 -0.3541
  173SOL    HW2  519   0.613   2.644   0.049  0.2891  2.1365  1.6509
  174SOL     OW  520   1.508   2.828   1.049  0.0337 -0.1660  0.1145
  174SOL    HW1  521   1.513   2.907   0.984  1.9670  0.4519 -0.9455
  174SOL    HW2  522   1.488   2.743   0.993  2.2330  2.7250  2.2547
  175SOL     OW  523   0.444   3.073   1.670  0.4342 -0.4874  0.2226
  175SOL    HW1  524   0.495   3.122   1.745  0.5540  0.7413  0.4949
  175SOL    HW2  525   0.379   3.137   1.614 -1.0380 -2.0015  1.3013
  176SOL     OW  526   2.603   0.385   0.004 -0.3233 -0.2487  0.0073
  176SOL    HW1  527   2.599   0.474   0.061  0.7643 -0.5348  0.3951
  176SOL    HW2  528   2.575   0.300   0.049 -0.6871  2.9699 -1.6916
  177SOL     OW  529   0.333   0.310   0.939 -0.2580  0.0513 -0.4904
  177SOL    HW1  530   0.272   0.225   0.927  3.3775  0.3503 -2.5611
  177SOL    HW2  531   0.312   0.370   1.019 -3.0861 -0.9375 -3.1123
  178SOL     OW  532   0.024   2.744   2.579  0.1885 -0.3375 -0.3207
  178SOL    HW1  533  -0.058   2.683   2.607 -1.1457  0.1438 -0.0210
  178SOL    HW2  534   0.095   2.756   2.653 -0.5265 -1.1875  0.4935
  179SOL     OW  535   3.061   1.569   1.131 -0.2854 -0.3907  0.0486
  179SOL    HW1  536   3.033   1.672   1.151  0.5238  0.0297  0.0603
  179SOL    HW2  537   3.048   1.501   1.207  2.2326 -1.2662 -2.4209
  180SOL     OW  538   0.179   1.218   1.856 -0.0581  0.4028 -0.4560
  180SOL    HW1  539   0.278   1.198   1.831 -1.8118  1.1548  0.5970
  180SOL    HW2  540   0.157   1.313   1.876  1.0684 -1.0766  1.8690
  181SOL     OW  541   3.034   1.840   2.483 -0.3995  0.0756  0.2082
  181SOL    HW1  542   3.101   1.919   2.490 -0.4374 -0.3912 -1.1777
  181SOL    HW2  543   2.953   1.852   2.419 -2.6266 -1.1695 -1.0467
  182SOL     OW  544   2.316   1.294   1.167  0.6543 -0.9890 -0.1891
  182SOL    HW1  545   2.235   1.247   1.126 -0.3517 -0.0268 -2.8770
  182SOL    HW2  546   2.315   1.398   1.142  0.9434  2.8668 -0.7162
  183SOL     OW  547   1.453   2.248   2.599 -0.6416 -0.3538  0.0258
  183SOL    HW1  548   1.351   2.216   2.595 -3.7568 -0.3736 -1.4356
  183SOL    HW2  549   1.515   2.171   2.609 -0.2688  3.5413 -0.1977
  184SOL     OW  550   1.984   0.864   0.743 -0.2048  0.2856 -0.3854
  184SOL    HW1  551   1.911   0.916   0.691  1.9885 -0.8705  0.4922
  184SOL    HW2  552   1.948   0.779   0.787  0.4042  1.9648 -1.9412
  185SOL     OW  553   1.631   2.778   2.019 -0.1647  0.4842 -1.1955
  185SOL    HW1  554   1.555   2.850   2.025  0.7329  2.4088  0.6157
  185SOL    HW2  555   1.669   2.753   2.110 -0.5888  0.6788 -1.8484
  186SOL     OW  556   0.109   2.244   1.662  0.1050  0.4718 -0.1703
  186SOL    HW1  557   0.087   2.289   1.752 -0.2582 -1.8787 -2.1829
  186SOL    HW2  558   0.196   2.183   1.653  0.9822  0.9225 -1.2135
  187SOL     OW  559   1.299   0.716   1.675  0.2456 -0.8657 -0.1843
  187SOL    HW1  560   1.357   0.733   1.593  1.5438 -1.0747 -1.5963
  187SOL    HW2  561   1.354   0.736   1.761  1.9559 -0.0376 -1.1867
  188SOL     OW  562   2.768   2.756   1.421  0.4899  0.1335  0.1989
  188SOL    HW1  563   2.738   2.848   1.448  0.2465 -0.0186 -1.2367
  188SOL    HW2  564   2.705   2.710   1.348 -2.8014 -0.3396  1.4059
  189SOL     OW  565   0.945   1.203   1.435  0.2719 -0.1481  0.3069
  189SOL    HW1  566   1.025   1.238   1.500  0.6060 -0.2688 -1.6287
  189SOL    HW2  567   0.883   1.284   1.408 -1.5553  0.6261  1.4643
  190SOL     OW  568   1.457   1.917   1.613 -0.3404  0.0746  0.6708
  190SOL    HW1  569   1.402   1.836   1.634  0.1746  1.5351 -1.6205
  190SOL    HW2  570   1.527   1.934   1.688 -0.1447  1.6789 -0.7837
  191SOL     OW  571   0.950   0.719   1.577 -0.1855 -0.2315 -0.2478
  191SOL    HW1  572   1.026   0.648   1.579  1.3860  0.0774 -1.3013
  191SOL    HW2  573   0.924   0.767   1.666 -0.9317  0.9910  0.8562
  192SOL     OW  574   1.860   2.256   1.099 -0.1911  0.4916 -0.2757
  192SOL    HW1  575   1.776   2.302   1.054  0.1345 -0.6709 -1.2353
  192SOL    HW2  576   1.950   2.281   1.049  0.2336  2.3297 -0.0073
  193SOL     OW  577   0.590   0.583   0.461 -0.5523 -0.0975 -0.1131
  193SOL    HW1  578   0.531   0.509   0.500  1.7600  1.2326 -1.5208
  193SOL    HW2  579   0.597   0.563   0.358  0.7624  1.5484 -3.4909
  194SOL     OW  580   0.324   0.913   1.281  0.1174  0.0357 -0.1537
  194SOL    HW1  581   0.240   0.852   1.275 -1.4827  0.7727  0.3221
  194SOL    HW2  582   0.342   0.957   1.192 -1.4827 -0.6503  1.5607
  195SOL     OW  583   1.002   2.922   0.537 -0.1134  0.8823 -0.1081
  195SOL    HW1  584   1.037   2.841   0.490  0.9474  3.4593  1.5002
  195SOL    HW2  585   1.076   2.971   0.586 -1.0791 -0.7042 -2.7425
  196SOL     OW  586   0.219   1.324   1.375  0.0905 -0.4794 -0.4160
  196SOL    HW1  587   0.265   1.413   1.413 -0.0515  0.8115 -3.0752
  196SOL    HW2  588   0.205   1.254   1.452  0.4286  0.2553  1.8284
  197SOL     OW  589   0.826   2.074   0.257  0.6460 -0.4397  0.3680
  197SOL    HW1  590   0.803   2.063   0.360  2.4891  0.6766  2.4577
  197SOL    HW2  591   0.878   1.988   0.229  0.1428 -2.0235  1.5118
  198SOL     OW  592   0.291   1.266   0.266 -0.1731  0.3177  0.6372
  198SOL    HW1  593   0.193   1.266   0.262  2.6747 -0.3391 -0.6222
  198SOL    HW2  594   0.328   1.344   0.324 -0.4337  2.1305  0.2289
  199SOL     OW  595   2.283   0.362   2.505 -0.1573 -0.2866 -0.4658
  199SOL    HW1  596   2.206   0.327   2.570  0.0564  0.9040 -2.2377
  199SOL    HW2  597   2.380   0.338   2.543  3.0668 -0.9943  0.7385
  200SOL     OW  598   0.018   2.929   0.744 -0.6689  0.5132 -0.4841
  200SOL    HW1  599  -0.075   2.947   0.698  1.4635  2.2741 -3.3460
  200SOL    HW2  600   0.103   2.964   0.691 -0.0445 -0.0871 -1.4497
  201SOL     OW  601   1.095   0.746   0.603 -0.0526  0.2366  0.0206
  201SOL    HW1  602   1.111   0.818   0.679 -2.3573  1.4608 -1.8367
  201SOL    HW2  603   0.995   0.723   0.604  1.8341  1.7959  3.9282
  202SOL     OW  604   0.427   1.093   1.894  0.0380 -0.4567  0.2324
  202SOL    HW1  605   0.493   1.015   1.886  1.5500 -3.3282  1.9501
  202SOL    HW2  606   0.412   1.124   1.994 -1.9141  2.8351  1.8792
  203SOL     OW  607   0.653   0.215   1.514 -0.1222  0.1580 -0.3259
  203SOL    HW1  608   0.738   0.199   1.458  1.1971  2.5464 -2.0933
  203SOL    HW2  609   0.672   0.191   1.614  0.2893 -0.1557  0.6059
  204SOL     OW  610   2.080   1.809   2.879  0.4475 -0.3961 -0.1752
  204SOL    HW1  611   2.077   1.711   2.918 -2.8678 -2.5281  0.1671
  204SOL    HW2  612   2.175   1.844   2.855 -1.5512 -2.4094 -1.0611
  205SOL     OW  613   1.833   1.880   3.033  0.3209  0.4737 -0.5162
  205SOL    HW1  614   1.906   1.851   2.971 -0.3197  1.4010 -0.4830
  205SOL    HW2  615   1.819   1.982   3.048 -2.5612 -1.1682  0.8165
  206SOL     OW  616   2.498   2.820   0.328 -0.0944  0.5044  0.1320
  206SOL    HW1  617   2.552   2.744   0.381 -0.5957 -2.4094 -1.3110
  206SOL    HW2  618   2.559   2.867   0.259  0.5050 -0.5257 -1.3112
  207SOL     OW  619   0.665   1.820   3.008  0.4933  0.6962 -0.0677
  207SOL    HW1  620   0.737   1.762   2.958 -0.1135 -2.2579 -1.3645
  207SOL    HW2  621   0.621   1.766   3.088  0.5613 -1.5896  0.1374
  208SOL     OW  622   1.090   1.570   1.383 -0.0697  0.2335  0.3658
  208SOL    HW1  623   1.069   1.649   1.321 -1.0397  3.1061  0.3000
  208SOL    HW2  624   1.152   1.594   1.463  1.4914 -0.1401 -1.3815
  209SOL     OW  625   0.215   0.926   3.036  0.2137 -0.2502 -0.3961
  209SOL    HW1  626   0.227   0.860   2.959  2.4552  0.3946  0.4251
  209SOL    HW2  627   0.242   0.887   3.126 -0.6075  2.6423  0.7418
  210SOL     OW  628   1.784   0.483   1.192 -0.4941 -0.2181  0.2538
  210SOL    HW1  629   1.751   0.573   1.153  1.3306 -2.2215 -1.0197
  210SOL    HW2  630   1.890   0.468   1.172  0.3536 -1.0676 -0.7327
  211SOL     OW  631   2.118   1.086   1.567 -0.2379  0.4817  0.5426
  211SOL    HW1  632   2.162   1.020   1.630 -0.3877 -0.3321 -1.1244
  211SOL    HW2  633   2.193   1.149   1.524 -2.0857  2.0555  0.8966
  212SOL     OW  634   0.031   0.959   1.487 -0.3773 -0.0881  0.1592
  212SOL    HW1  635   0.089   1.042   1.513  0.0741 -0.4099  2.6476
  212SOL    HW2  636   0.037   0.882   1.560  1.3148 -0.7288 -0.4405
  213SOL     OW  637   2.825   0.242   0.375 -0.3165 -0.2412  0.0353
  213SOL    HW1  638   2.878   0.178   0.308  2.1458 -2.0121 -2.4926
  213SOL    HW2  639   2.740   0.295   0.343 -0.8292 -2.5745 -1.6233
  214SOL     OW  640   2.162   0.240   2.282  0.4494 -0.1972 -0.3786
  214SOL    HW1  641   2.223   0.268   2.362  0.3022  2.2839 -2.5522
  214SOL    HW2  642   2.140   0.138   2.298  2.2105  1.2237  4.2414
  215SOL     OW  643   1.613   2.260   2.121 -0.1924  0.1256  0.0206
  215SOL    HW1  644   1.712   2.260   2.088 -1.3123  1.1662 -0.3572
  215SOL    HW2  645   1.594   2.351   2.161 -1.0708 -0.5945  1.1827
  216SOL     OW  646   2.192   0.617   0.677 -0.3276 -0.3589  0.8205
  216SOL    HW1  647   2.162   0.529   0.626 -0.7664  1.1447 -1.2743
  216SOL    HW2  648   2.137   0.698   0.648 -0.4553  0.0836 -2.3430
  217SOL     OW  649   0.758   2.773   2.429  0.0061 -0.0692 -0.1962
  217SOL    HW1  650   0.741   2.687   2.486 -0.6382  0.4434 -0.2965
  217SOL    HW2  651   0.778   2.760   2.327 -1.5097 -0.6804 -1.4689
  218SOL     OW  652   1.901   1.423   0.018 -0.1242 -0.2993 -0.2210
  218SOL    HW1  653   1.806   1.471   0.012 -1.8736  4.1212 -0.3710
  218SOL    HW2  654   1.915   1.360   0.104 -0.3465 -0.0927  1.0244
  219SOL     OW  655   2.417   1.275   2.540  0.2694 -0.2437 -0.4358
  219SOL    HW1  656   2.470   1.253   2.456  1.7868 -0.8473  0.7406
  219SOL    HW2  657   2.399   1.187   2.597 -0.3920  0.7364 -1.3317
  220SOL     OW  658   1.497   1.050   1.253  0.1322 -0.1686 -0.4091
  220SOL    HW1  659   1.592   1.080   1.287 -0.5328  0.6132 -1.2211
  220SOL    HW2  660   1.480   1.056   1.151  0.6575  3.2296  0.5522
  221SOL     OW  661   1.330   1.004   2.200 -0.9254  0.0301  0.0782
  221SOL    HW1  662   1.289   1.018   2.105 -0.8793 -0.0885 -1.3880
  221SOL    HW2  663   1.430   0.990   2.188 -1.0436  2.2190 -1.4097
  222SOL     OW  664   1.100   0.011   1.166 -0.0796  0.3953 -0.1768
  222SOL    HW1  665   1.155   0.053   1.245  1.2921  0.8371  3.5339
  222SOL    HW2  666   1.120   0.056   1.073 -1.2493 -0.1330 -1.9087
  223SOL     OW  667   2.746   0.933   2.058 -0.1342  0.5394  0.6841
  223SOL    HW1  668   2.697   0.991   2.128  0.4865 -0.2265 -0.6652
  223SOL    HW2  669   2.847   0.925   2.075 -0.7610 -0.1813  2.7419
  224SOL     OW  670   1.520   1.047   2.778 -0.1025  0.4351 -0.2584
  224SOL    HW1  671   1.561   0.966   2.722 -0.4809 -2.1092 -1.2091
  224SOL    HW2  672   1.467   1.113   2.717  2.0817 -1.4123  1.3813
  225SOL     OW  673   2.928   2.767   2.869  0.0654  0.1245 -0.0825
  225SOL    HW1  674   2.885   2.681   2.834 -0.3281 -1.5535  1.2966
  225SOL    HW2  675   3.005   2.811   2.816 -1.4258 -1.4479  0.2701
  226SOL     OW  676   2.494   1.574   2.872  0.6163  0.2865 -0.0429
  226SOL    HW1  677   2.527   1.562   2.772 -2.1125  0.8321  0.1980
  226SOL    HW2  678   2.457   1.489   2.907  0.5591  1.2273  0.6862
  227SOL     OW  679   0.858   0.144   0.029  0.4037 -0.4721  0.5980
  227SOL    HW1  680   0.910   0.072   0.084  2.7838 -0.8206 -0.5119
  227SOL    HW2  681   0.812   0.104  -0.057 -2.7681  2.2977 -1.2994
  228SOL     OW  682   2.403   0.627   2.852  0.4930 -0.4958 -0.1303
  228SOL    HW1  683   2.358   0.645   2.760 -1.0513  0.3698 -2.0420
  228SOL    HW2  684   2.484   0.568   2.847  0.0321 -0.6398 -0.1489
  229SOL     OW  685   0.583   0.466   1.871 -0.0614  0.4774  0.4991
  229SOL    HW1  686   0.570   0.368   1.878 -2.0942  2.2618 -3.4987
  229SOL    HW2  687   0.589   0.490   1.773  0.8726 -4.0833  1.5057
  230SOL     OW  688   1.893   1.139   2.066  0.1626  0.3331 -0.2417
  230SOL    HW1  689   1.956   1.214   2.021  0.8352  3.0487 -2.4577
  230SOL    HW2  690   1.803   1.184   2.086 -1.7685 -0.4461  0.2186
  231SOL     OW  691   0.635   1.023   3.095 -0.9322 -0.0604  0.6940
  231SOL    HW1  692   0.731   1.051   3.122  1.2118 -2.3542  2.0313
  231SOL    HW2  693   0.568   1.102   3.104  1.2038  2.0175  0.6047
  232SOL     OW  694   2.352   3.090   2.885  0.0719 -0.0205  0.3051
  232SOL    HW1  695   2.400   2.998   2.894 -0.2071 -0.2537  2.0961
  232SOL    HW2  696   2.394   3.142   2.803  2.5875  0.8789 -0.0830
  233SOL     OW  697   1.705   1.289   1.150  0.0513 -0.3028 -0.2817
  233SOL    HW1  698   1.706   1.274   1.043 -0.2415  0.1427 -1.7657
  233SOL    HW2  699   1.767   1.220   1.201 -0.7425 -0.7346 -0.5032
  234SOL     OW  700   1.563   2.551   1.869 -0.1278 -0.3338  0.1960
  234SOL    HW1  701   1.572   2.640   1.920  0.4769 -0.0497 -1.2935
  234SOL    HW2  702   1.497   2.486   1.914 -1.5155 -2.9116  0.2568
  235SOL     OW  703   3.105   3.004   2.815 -0.1680  0.6366 -0.6836
  235SOL    HW1  704   3.072   3.006   2.715 -2.5574  0.8356  0.1898
  235SOL    HW2  705   3.042   3.045   2.887  1.1065 -2.9704 -2.0370
  236SOL     OW  706   2.896   0.732   0.081  0.1631  0.5156  0.4310
  236SOL    HW1  707   2.963   0.798   0.128  2.3836 -1.2283  0.7041
  236SOL    HW2  708   2.938   0.639   0.076 -4.5488 -0.2822 -0.9526
  237SOL     OW  709   1.520   1.682   1.002  0.2005 -0.2205  0.3255
  237SOL    HW1  710   1.617   1.658   0.985  0.3819 -1.1447 -0.2938
  237SOL    HW2  711   1.496   1.707   1.100  0.7422 -0.1035 -2.1020
  238SOL     OW  712   1.785   1.273   0.848  0.3724  0.0937  0.1579
  238SOL    HW1  713   1.854   1.348   0.878 -0.7101 -2.3371  1.1792
  238SOL    HW2  714   1.704   1.310   0.790 -0.5476  1.5285 -0.2229
  239SOL     OW  715   2.061   0.269   2.658  0.1562  0.2876 -0.6450
  239SOL    HW1  716   2.118   0.252   2.747  2.5122  0.7015 -1.0303
  239SOL    HW2  717   2.002   0.353   2.663  2.3479  0.0939 -0.8456
  240SOL     OW  718   0.913   0.648   0.307  0.3345 -0.6827  0.0980
  240SOL    HW1  719   0.952   0.560   0.267  1.7478 -1.0284 -2.7967
  240SOL    HW2  720   0.898   0.651   0.411 -0.3462  1.8271  0.3032
  241SOL     OW  721   0.547   0.055   0.374 -0.0929 -0.3718  0.6710
  241SOL    HW1  722   0.597   0.138   0.336 -0.9639 -1.0968  0.0955
  241SOL    HW2  723   0.544  -0.031   0.312 -0.7913 -3.8061 -3.5705
  242SOL     OW  724   0.660   2.541   1.142 -0.4215  0.2290 -0.1099
  242SOL    HW1  725   0.618   2.549   1.240  1.8708 -1.1679  3.4385
  242SOL    HW2  726   0.736   2.612   1.122  0.5235  1.3019  0.3307
  243SOL     OW  727   1.079   0.603   2.495 -0.1230  0.4033 -0.1049
  243SOL    HW1  728   0.985   0.640   2.487 -1.1583  2.0344 -1.7248
  243SOL    HW2  729   1.086   0.529   2.568  1.7911 -1.1787 -3.2242
  244SOL     OW  730   2.828   1.890   2.307  0.4781  0.2878  0.5032
  244SOL    HW1  731   2.876   1.902   2.216  1.0710  2.7370  2.2986
  244SOL    HW2  732   2.740   1.848   2.303  2.1861 -1.7175  0.1167
  245SOL     OW  733   2.327   0.702   2.191 -0.3880  0.7622  0.1638
  245SOL    HW1  734   2.421   0.707   2.247  1.3051 -0.6237  1.9720
  245SOL    HW2  735   2.264   0.781   2.206  0.2286  0.1853 -3.0875
  246SOL     OW  736   0.217   2.906   1.725  0.2863 -0.1549  0.8745
  246SOL    HW1  737   0.150   2.926   1.651  3.2207 -1.4420 -2.9065
  246SOL    HW2  738   0.299   2.970   1.714 -1.7766  0.9619  0.2032
  247SOL     OW  739   2.217   0.584   3.065  0.9281  0.1677  0.2979
  247SOL    HW1  740   2.264   0.581   2.970  2.9098  0.3072 -4.2305
  247SOL    HW2  741   2.150   0.662   3.080 -2.3005  0.1523  1.0594
  248SOL     OW  742   2.132   1.823   1.588  0.2008 -0.3997 -0.1402
  248SOL    HW1  743   2.205   1.770   1.639 -0.7510 -0.3227  3.1027
  248SOL    HW2  744   2.039   1.802   1.633 -3.9916  1.5147  0.6899
  249SOL     OW  745   1.854   1.933   1.908 -0.3129  0.7053  0.4886
  249SOL    HW1  746   1.862   1.848   1.852 -0.5544  2.5465  0.7166
  249SOL    HW2  747   1.944   1.987   1.915  0.5801  0.9536  1.2638
  250SOL     OW  748   1.136   0.726   1.932  0.0885 -0.4587 -0.6600
  250SOL    HW1  749   1.150   0.629   1.964 -0.0022  1.2904 -1.3241
  250SOL    HW2  750   1.148   0.734   1.829 -0.5445  0.4764 -0.5871
  251SOL     OW  751   0.052   1.587   2.467  0.6648 -0.2597 -0.1910
  251SOL    HW1  752   0.033   1.686   2.450  1.0267  0.3420  0.9973
  251SOL    HW2  753  -0.033   1.541   2.491 -0.2987  2.3776 -0.1279
  252SOL     OW  754   1.526   0.850   1.562  0.0565 -0.2751  0.3987
  252SOL    HW1  755   1.587   0.840   1.484  0.1672 -0.4851 -2.5357
  252SOL    HW2  756   1.554   0.926   1.622 -0.2523 -1.2574  0.2297
  253SOL     OW  757   0.956   1.526   0.491  0.5617  0.9122  0.4348
  253SOL    HW1  758   0.957   1.439   0.428 -1.0729  2.8700 -0.3917
  253SOL    HW2  759   0.876   1.592   0.477 -2.5129  5.0162  2.1511
  254SOL     OW  760   2.032   2.140   1.609  0.2948  0.4683  0.3914
  254SOL    HW1  761   1.978   2.081   1.542 -0.1712 -0.6136  1.3214
  254SOL    HW2  762   1.984   2.165   1.698  0.6345  0.0565  0.3282
  255SOL     OW  763   0.143   1.142   2.874 -0.4793 -0.4338  0.1004
  255SOL    HW1  764   0.213   1.219   2.900  0.0240  1.9598  1.8439
  255SOL    HW2  765   0.172   1.054   2.931 -0.1510 -3.6483  1.3381
  256SOL     OW  766   2.797   1.367   1.778 -0.4841 -0.3785  0.2241
  256SOL    HW1  767   2.731   1.437   1.743 -2.0460 -0.3285  0.3654
  256SOL    HW2  768   2.789   1.273   1.739  0.3061  0.0438 -0.6578
  257SOL     OW  769   0.783   0.207   1.762 -0.7414  0.0965 -0.2174
  257SOL    HW1  770   0.817   0.291   1.705 -0.9037  1.4808  0.5097
  257SOL    HW2  771   0.864   0.146   1.794  0.1199 -3.7517  1.5835
  258SOL     OW  772   2.973   1.284   0.438  0.0908 -0.2026  0.1991
  258SOL    HW1  773   2.884   1.331   0.453  1.1298 -1.7878 -3.5938
  258SOL    HW2  774   3.042   1.308   0.507  2.0112 -1.0484  0.7622
  259SOL     OW  775   0.464   2.956   3.057  0.2792  0.2986 -0.7348
  259SOL    HW1  776   0.380   2.912   3.113  0.2366  0.4040  0.5648
  259SOL    HW2  777   0.460   2.927   2.960 -0.1594 -0.0093 -0.6818
  260SOL     OW  778   2.704   0.835   2.811  0.1867 -0.2253  0.1462
  260SOL    HW1  779   2.625   0.784   2.781  0.6704  1.8826  0.2340
  260SOL    HW2  780   2.700   0.840   2.913 -1.5808 -1.2718 -0.0720
  261SOL     OW  781   2.747   1.335   1.238 -0.1597  0.2243 -0.7416
  261SOL    HW1  782   2.672   1.307   1.164 -1.2861 -0.2683  0.4661
  261SOL    HW2  783   2.808   1.257   1.268  2.2556  1.1110 -0.0653
  262SOL     OW  784   1.411   2.967   2.036  0.3480 -0.0614  0.3194
  262SOL    HW1  785   1.449   3.048   1.987  1.9541 -1.5538 -0.3666
  262SOL    HW2  786   1.320   2.928   2.004  0.2374 -1.0469  1.4487
  263SOL     OW  787   0.843   0.729   2.345 -0.2906 -0.6709  0.3173
  263SOL    HW1  788   0.796   0.638   2.325  2.4348 -2.3651  2.6818
  263SOL    HW2  789   0.901   0.780   2.275  0.3831 -1.2176  1.1073
  264SOL     OW  790   2.198   0.836   0.387 -0.2470 -0.5660  0.3118
  264SOL    HW1  791   2.213   0.745   0.350  2.4171  3.2038  4.4217
  264SOL    HW2  792   2.279   0.866   0.440  0.3168 -2.0652 -3.2368
  265SOL     OW  793   0.920   2.386   2.641 -0.3999 -0.0627 -0.6348
  265SOL    HW1  794   0.975   2.452   2.693 -0.1216  0.1248 -0.6507
  265SOL    HW2  795   0.899   2.299   2.697 -0.1677 -0.6838  1.4311
  266SOL     OW  796   1.338   1.690   0.006 -0.4265  0.7718  0.4572
  266SOL    HW1  797   1.325   1.770   0.068 -0.8318 -1.3224 -0.1649
  266SOL    HW2  798   1.416   1.710  -0.056 -2.5409 -0.0647  3.0544
  267SOL     OW  799   0.987   3.053   2.364 -0.1004  0.9355 -0.3064
  267SOL    HW1  800   0.980   3.013   2.265  1.1514  1.0445 -1.2535
  267SOL    HW2  801   0.927   3.139   2.376  1.4178  1.2632 -0.8214
  268SOL     OW  802   0.624   1.199   1.060 -0.8979  0.8554 -0.2667
  268SOL    HW1  803   0.649   1.243   1.150  0.3953  0.6077  2.9052
  268SOL    HW2  804   0.655   1.249   0.974 -1.2558 -3.6390 -0.4894
  269SOL     OW  805   2.348   2.524   1.602 -0.0498 -0.0378  0.7242
  269SOL    HW1  806   2.423   2.458   1.617 -2.2191  0.1469 -2.2365
  269SOL    HW2  807   2.291   2.544   1.687  2.5624 -1.8563  0.8956
  270SOL     OW  808   0.186   2.944   1.995  0.1941 -0.8745 -0.0049
  270SOL    HW1  809   0.204   2.920   1.897  2.5043 -0.6744  1.6859
  270SOL    HW2  810   0.225   2.875   2.059 -0.4002  1.2961  0.8076
  271SOL     OW  811   0.400   1.368   1.184 -0.4247 -0.2771  0.4049
  271SOL    HW1  812   0.368   1.332   1.093  1.6714  1.2684  1.6948
  271SOL    HW2  813   0.324   1.360   1.252 -0.4012 -1.6478 -2.4711
  272SOL     OW  814   1.987   2.879   1.972  0.3984  0.2988 -0.1781
  272SOL    HW1  815   1.921   2.838   1.903 -0.5572 -1.4157  1.1504
  272SOL    HW2  816   2.071   2.917   1.919 -3.6608 -3.9440  0.1400
  273SOL     OW  817   1.466   1.439   2.742 -0.0515  0.2949 -0.4084
  273SOL    HW1  818   1.380   1.488   2.781 -0.5777 -0.7567  0.4345
  273SOL    HW2  819   1.523   1.390   2.814  1.9554  0.0879 -2.6686
  274SOL     OW  820   1.224   0.472   2.046 -0.4009  0.3689  0.4535
  274SOL    HW1  821   1.192   0.373   2.034  1.0403  0.2085  1.2241
  274SOL    HW2  822   1.265   0.484   2.138  2.4920 -3.4836  0.6053
  275SOL     OW  823   0.592   2.095   1.901  0.0136  0.5128  0.1240
  275SOL    HW1  824   0.543   2.179   1.935 -1.6862 -4.2803  3.4236
  275SOL    HW2  825   0.541   2.011   1.925 -0.7230 -0.5093  0.9892
  276SOL     OW  826   2.193   0.924   2.749  0.1878  0.6137  0.2617
  276SOL    HW1  827   2.145   0.920   2.656 -1.8101 -0.7456 -0.9372
  276SOL    HW2  828   2.144   0.878   2.824  2.2827  1.7978 -1.7697
  277SOL     OW  829   3.075   0.895   0.230  0.3319 -0.5673  0.2132
  277SOL    HW1  830   3.169   0.926   0.203 -2.1064  1.7626  1.4603
  277SOL    HW2  831   3.071   0.809   0.288  0.3609 -0.7329 -3.0666
  278SOL     OW  832   0.240   0.288   3.059  0.3922 -0.0204  0.5619
  278SOL    HW1  833   0.308   0.221   3.029 -3.5082 -0.1197 -3.5976
  278SOL    HW2  834   0.279   0.382   3.086  0.4986 -0.2450  1.7420
  279SOL     OW  835   0.192   0.089   0.865  0.8235 -0.2599 -0.1035
  279SOL    HW1  836   0.175   0.046   0.955  1.3579  0.9235 -0.7590
  279SOL    HW2  837   0.256   0.027   0.809  2.3585 -0.3847  1.5181
  280SOL     OW  838   1.579   2.949   2.422  0.5514 -0.5096 -0.0337
  280SOL    HW1  839   1.655   2.988   2.481  1.7899 -1.3977 -0.6412
  280SOL    HW2  840   1.516   3.015   2.372 -0.0219 -0.9346 -0.1119
  281SOL     OW  841   0.576   0.979   2.225  0.1353  0.2958  0.4030
  281SOL    HW1  842   0.569   0.906   2.155 -0.2400  0.3700  0.5192
  281SOL    HW2  843   0.515   0.958   2.308  0.9432  3.6586  0.8536
  282SOL     OW  844   1.784   2.492   0.532 -0.3772 -0.1063 -0.1507
  282SOL    HW1  845   1.741   2.425   0.468  0.1196  0.7486 -1.5367
  282SOL    HW2  846   1.723   2.573   0.553  2.3134  2.8087 -0.3367
  283SOL     OW  847   1.136   0.880   0.820  0.1882 -0.5480 -0.8280
  283SOL    HW1  848   1.187   0.831   0.893  0.2615  3.9395 -1.2591
  283SOL    HW2  849   1.055   0.940   0.842  1.2612 -0.6372 -0.5167
  284SOL     OW  850   2.287   2.729   2.525 -0.5609  0.5369  1.0694
  284SOL    HW1  851   2.373   2.766   2.489  0.6432  2.8582 -1.7093
  284SOL    HW2  852   2.271   2.744   2.627 -1.9280  6.0750 -0.8011
  285SOL     OW  853   1.308   3.043   2.603  0.0203 -0.0603 -0.2337
  285SOL    HW1  854   1.316   3.088   2.517 -0.2416 -0.2555  0.8464
  285SOL    HW2  855   1.206   3.042   2.629  1.5553  3.1102 -0.5619
  286SOL     OW  856   0.437   0.456   0.748 -0.2567  0.0739 -0.1704
  286SOL    HW1  857   0.408   0.390   0.829  0.4531  0.4810  0.5796
  286SOL    HW2  858   0.444   0.405   0.657 -0.1159 -1.3938  0.6072
  287SOL     OW  859   0.095   1.301   2.515 -0.0917  0.3694 -0.3835
  287SOL    HW1  860   0.056   1.236   2.588  1.7678 -1.4546  0.7339
  287SOL    HW2  861   0.096   1.408   2.528  0.6930 -1.2985 -0.4354
  288SOL     OW  862   1.579   2.637   1.576 -0.1629  0.1830  0.1667
  288SOL    HW1  863   1.562   2.598   1.667  0.1280  3.0369  0.2967
  288SOL    HW2  864   1.599   2.550   1.514 -4.2345 -3.2245 -0.7054
  289SOL     OW  865   0.669   2.699   0.872  0.0570 -0.2701 -0.2046
  289SOL    HW1  866   0.703   2.769   0.800 -0.6886 -0.1141 -0.5656
  289SOL    HW2  867   0.618   2.738   0.949  1.1028 -2.7302  0.2424
  290SOL     OW  868   2.813   1.084   1.715  0.5093  0.2421  0.3754
  290SOL    HW1  869   2.717   1.047   1.726  0.3305 -0.3146 -2.0776
  290SOL    HW2  870   2.875   1.028   1.775 -0.2820 -1.1999  1.9830
  291SOL     OW  871   1.970   0.049   0.037  0.1708  0.0172 -0.5127
  291SOL    HW1  872   1.983   0.047   0.139  1.3151  4.5776  0.8998
  291SOL    HW2  873   2.022   0.120  -0.007 -0.1027 -1.2533  0.7635
  292SOL     OW  874   2.994   1.147   3.004  0.4662  0.2403 -0.1581
  292SOL    HW1  875   2.927   1.217   2.970  1.0749 -2.7983  0.4116
  292SOL    HW2  876   3.081   1.142   2.951 -1.1658 -0.4030  1.3070
  293SOL     OW  877   0.571   2.143   0.195 -0.0275 -0.4618  0.7603
  293SOL    HW1  878   0.535   2.190   0.281 -0.5554  3.1653  2.5474
  293SOL    HW2  879   0.673   2.137   0.203 -2.1241  2.1457  0.0985
  294SOL     OW  880   1.814   2.267   1.789  0.4181 -0.0109  0.6621
  294SOL    HW1  881   1.824   2.300   1.883 -2.4030  2.3901 -1.8435
  294SOL    HW2  882   1.762   2.336   1.733 -0.4049 -0.3792  1.8049
  295SOL     OW  883   0.992   1.075   0.468 -0.1953  0.0976 -0.1516
  295SOL    HW1  884   1.076   1.063   0.524 -1.2718 -1.4340 -1.8545
  295SOL    HW2  885   0.909   1.077   0.532 -2.6852  0.9276  4.1084
  296SOL     OW  886   1.202   2.152   2.553  0.3269 -0.4557  1.0949
  296SOL    HW1  887   1.168   2.210   2.476  0.5627  2.4248 -0.5879
  296SOL    HW2  888   1.240   2.062   2.516 -2.6685  0.9052 -2.1110
  297SOL     OW  889   1.437   0.616   1.348 -0.0109  0.0157 -0.0873
  297SOL    HW1  890   1.378   0.541   1.322  3.1258  1.1655  0.8035
  297SOL    HW2  891   1.531   0.583   1.384 -0.2199 -1.3534 -0.0103
  298SOL     OW  892   0.551   1.338   2.960 -0.5513 -0.2971  0.3969
  298SOL    HW1  893   0.522   1.269   3.035 -0.4160 -2.1781 -1.1759
  298SOL    HW2  894   0.569   1.292   2.875  2.0190  0.6186  3.4016
  299SOL     OW  895   0.480   0.267   1.306  0.0141  0.0316 -0.2310
  299SOL    HW1  896   0.466   0.355   1.255 -0.4856 -0.3302 -1.5083
  299SOL    HW2  897   0.557   0.267   1.370  2.0876 -0.8553 -0.2662
  300SOL     OW  898   1.244   1.801   2.739  0.3862 -0.2518  0.0335
  300SOL    HW1  899   1.221   1.711   2.776  0.7853  0.4537 -0.4349
  300SOL    HW2  900   1.347   1.818   2.719  2.1156 -1.5823 -0.3037
  301SOL     OW  901   0.436   0.326   0.511  0.0534 -0.8744 -0.1792
  301SOL    HW1  902   0.333   0.303   0.501  0.3079  1.3308 -2.5999
  301SOL    HW2  903   0.488   0.237   0.495  1.5396 -0.8281 -1.1401
  302SOL     OW  904   1.272   2.472   2.343  0.0911 -0.3585 -0.0539
  302SOL    HW1  905   1.187   2.517   2.389 -1.6700  0.4662  0.9601
  302SOL    HW2  906   1.258   2.374   2.328 -0.2593  2.6227 -1.1282
  303SOL     OW  907   0.933   2.395   0.833  0.2264  0.1870  0.0264
  303SOL    HW1  908   1.003   2.430   0.765 -0.9246  0.5786 -0.9824
  303SOL    HW2  909   0.927   2.445   0.925  0.8528 -1.0704 -0.0315
  304SOL     OW  910   0.084   1.967   0.597 -0.2948 -0.5742  0.2901
  304SOL    HW1  911   0.139   1.939   0.513 -0.3098 -0.3896  2.1956
  304SOL    HW2  912   0.017   2.045   0.582  0.3574 -1.6255 -1.7005
  305SOL     OW  913   1.626   0.883   0.576 -0.4220 -0.4519  0.5643
  305SOL    HW1  914   1.561   0.874   0.493 -1.0442 -1.0596 -1.2707
  305SOL    HW2  915   1.664   0.793   0.609  0.6300  0.2905 -1.0847
  306SOL     OW  916   0.417   1.845   1.920 -0.1322  0.0315  0.2173
  306SOL    HW1  917   0.454   1.749   1.914 -0.3620  0.5426 -1.5918
  306SOL    HW2  918   0.430   1.878   2.015  1.5966  1.0306  1.7706
  307SOL     OW  919   3.063   0.901   2.482 -0.5330 -0.3083 -0.4785
  307SOL    HW1  920   3.098   0.975   2.544 -0.5688 -0.0506 -3.6734
  307SOL    HW2  921   2.988   0.846   2.530  2.3965 -0.5596  0.6233
  308SOL     OW  922   1.548   2.676   2.790 -0.4640 -0.4990  0.0835
  308SOL    HW1  923   1.546   2.625   2.701 -0.9600 -3.6258  0.7748
  308SOL    HW2  924   1.499   2.628   2.867  0.2787  4.2419  1.1493
  309SOL     OW  925   1.260   0.179   1.741  0.5662  0.3524 -0.6980
  309SOL    HW1  926   1.342   0.129   1.777  0.1208  0.7280 -0.7568
  309SOL    HW2  927   1.236   0.152   1.644  0.3466  0.9114  0.9444
  310SOL     OW  928   1.515   2.573   0.689  0.0941  0.5766  0.4494
  310SOL    HW1  929   1.481   2.607   0.778 -0.9492 -0.7549 -1.5426
  310SOL    HW2  930   1.551   2.654   0.632 -0.4734  1.3539  0.0181
  311SOL     OW  931   1.188   0.991   1.641 -0.1903 -0.3322  0.5422
  311SOL    HW1  932   1.185   0.889   1.626  0.4567 -2.7955 -0.1157
  311SOL    HW2  933   1.233   1.040   1.561  0.9365  0.9274  0.8201
  312SOL     OW  934   1.647   0.729   1.092  0.1016  0.2467  0.6093
  312SOL    HW1  935   1.630   0.810   1.033  1.4343 -0.3875 -0.0686
  312SOL    HW2  936   1.564   0.673   1.101  1.5412  2.5409  1.2535
  313SOL     OW  937   1.545   1.365   0.722  0.0737 -0.5021 -0.4834
  313SOL    HW1  938   1.484   1.426   0.775  2.4986  2.7875  1.3648
  313SOL    HW2  939   1.501   1.277   0.684  0.0714 -1.1606  0.3452
  314SOL     OW  940   2.950   0.055   3.006 -0.1922 -0.7471 -0.5899
  314SOL    HW1  941   2.950   0.068   3.108  2.8280  2.2175 -1.5543
  314SOL    HW2  942   2.867   0.001   2.971 -2.6698  3.7254 -1.3575
  315SOL     OW  943   1.220   0.197   2.754  0.0211  0.0732  0.1001
  315SOL    HW1  944   1.140   0.146   2.715 -1.7856 -1.6917 -0.7938
  315SOL    HW2  945   1.282   0.141   2.814 -0.2226 -1.0909 -2.5264
  316SOL     OW  946   1.747   2.046   0.868  0.3650 -0.4009  0.5137
  316SOL    HW1  947   1.683   2.036   0.949 -1.6055  1.0525 -1.5107
  316SOL    HW2  948   1.748   2.147   0.831  0.0564  0.0894 -1.6938
  317SOL     OW  949   1.130   0.620   2.879  0.3083 -0.5260 -0.5949
  317SOL    HW1  950   1.069   0.668   2.952 -3.2147  1.2172 -0.1846
  317SOL    HW2  951   1.080   0.559   2.817  0.7717 -1.6114  3.8327
  318SOL     OW  952   1.351   3.076   2.301 -0.2684 -0.4953 -0.5912
  318SOL    HW1  953   1.358   3.162   2.246  0.1404 -0.2218  1.0779
  318SOL    HW2  954   1.356   2.995   2.236 -0.2664 -0.9875 -0.9309
  319SOL     OW  955   0.663   2.402   2.926 -0.7913  0.4081  0.0741
  319SOL    HW1  956   0.579   2.357   2.966  0.5070  2.7959  0.5480
  319SOL    HW2  957   0.750   2.349   2.933 -1.2040 -0.0544 -0.5428
  320SOL     OW  958   1.689   2.265   0.417 -0.3102 -0.2411  0.4159
  320SOL    HW1  959   1.777   2.205   0.411  2.3333 -1.6672 -0.1674
  320SOL    HW2  960   1.610   2.209   0.445  3.1639 -0.2489 -0.9082
  321SOL     OW  961   1.612   2.748   0.520  0.0468  0.6644 -0.2426
  321SOL    HW1  962   1.536   2.764   0.451 -1.4657 -2.1153  1.3133
  321SOL    HW2  963   1.710   2.776   0.488  1.8439 -2.5346  0.3967
  322SOL     OW  964   2.594   1.128   2.375  0.1019 -0.6203 -0.0758
  322SOL    HW1  965   2.690   1.164   2.394  0.8126  1.1192  2.2028
  322SOL    HW2  966   2.584   1.027   2.351  3.2453 -0.7519 -2.4933
  323SOL     OW  967   1.188   2.648   0.830  0.5031  0.4418 -0.0453
  323SOL    HW1  968   1.161   2.587   0.749  2.1182 -0.5232  0.7539
  323SOL    HW2  969   1.148   2.747   0.831  1.0551 -0.9199  0.3682
  324SOL     OW  970   0.262   2.459   2.535  0.0945 -0.0920 -0.5513
  324SOL    HW1  971   0.326   2.451   2.619 -1.5479  0.7921 -1.7894
  324SOL    HW2  972   0.191   2.531   2.556  0.6171 -3.3655  2.6902
  325SOL     OW  973   1.296   3.062   0.492  0.0883  0.0243  0.0088
  325SOL    HW1  974   1.286   3.131   0.415  2.9223 -0.1056  0.8759
  325SOL    HW2  975   1.330   3.102   0.581 -1.4261 -2.4623 -1.2531
  326SOL     OW  976   2.474   0.803   3.073  0.1828  0.2129  0.7211
  326SOL    HW1  977   2.406   0.742   3.019 -1.1343  0.8262  0.8044
  326SOL    HW2  978   2.545   0.743   3.123  0.6092  1.1524 -2.5821
  327SOL     OW  979   2.850   0.340   0.666  0.3195  0.0083  0.4958
  327SOL    HW1  980   2.829   0.286   0.581 -0.0697 -3.4323  0.7889
  327SOL    HW2  981   2.900   0.286   0.732 -0.0965 -0.6783 -1.4698
  328SOL     OW  982   2.585   0.583   0.410  0.4206 -0.1979  0.3072
  328SOL    HW1  983   2.528   0.671   0.386 -0.1506  1.0371  1.1229
  328SOL    HW2  984   2.563   0.542   0.504 -1.0699  1.0736 -0.0170
  329SOL     OW  985   2.949   2.958   2.147 -0.3852  0.8672  0.0827
  329SOL    HW1  986   3.022   2.904   2.199  0.5610  2.7229  2.2528
  329SOL    HW2  987   2.971   3.061   2.133  1.1489 -0.3096 -2.6065
  330SOL     OW  988   0.536   0.153   1.856 -0.1072  0.4176 -0.1871
  330SOL    HW1  989   0.630   0.178   1.813  1.9235  1.4495 -0.8892
  330SOL    HW2  990   0.540   0.075   1.926 -0.0695 -2.6494  0.9170
  331SOL     OW  991   2.996   1.913   1.167 -0.1619  0.4483 -0.2776
  331SOL    HW1  992   3.023   1.990   1.105 -1.0469 -1.0646  0.0082
  331SOL    HW2  993   2.908   1.919   1.221 -0.0117 -2.4444  0.9934
  332SOL     OW  994   0.395   1.167   0.025 -0.5844 -0.2801  0.7676
  332SOL    HW1  995   0.329   1.092   0.026  2.7560 -1.6591 -0.2052
  332SOL    HW2  996   0.387   1.233   0.106 -1.4281  1.9890 -0.1770
  333SOL     OW  997   2.852   1.026   0.307  0.2540  0.2483 -0.5542
  333SOL    HW1  998   2.887   1.094   0.376  0.2954 -0.3320 -1.6152
  333SOL    HW2  999   2.933   0.987   0.260  0.9048  2.9393 -1.4128
  334SOL     OW 1000   1.671   1.280   1.838  0.3850 -0.8189  0.1964
  334SOL    HW1 1001   1.767   1.243   1.809  1.7282  0.5058 -2.0927
  334SOL    HW2 1002   1.658   1.292   1.942 -1.2470 -0.3174  2.4553
  335SOL     OW 1003   1.988   2.730   2.610 -0.0993  0.0330 -0.2981
  335SOL    HW1 1004   1.910   2.744   2.676  1.2264 -0.0097  2.5597
  335SOL    HW2 1005   2.056   2.805   2.632 -0.5146  1.1915  0.4218
  336SOL     OW 1006   0.233   0.161   2.783 -0.2372 -0.5448 -0.8815
  336SOL    HW1 1007   0.300   0.140   2.858  1.0937  1.8782 -1.4852
  336SOL    HW2 1008   0.144   0.205   2.815 -2.5255 -3.5474  1.2550
  337SOL     OW 1009   0.910   2.853   2.840 -0.0467  0.4889  0.1692
  337SOL    HW1 1010   0.904   2.808   2.934 -1.1719  2.3550 -1.2857
  337SOL    HW2 1011   1.008   2.873   2.809 -0.8757  0.6108 -1.2774
  338SOL     OW 1012   0.014   1.012   0.612 -0.0986 -0.0365  0.4031
  338SOL    HW1 1013  -0.088   0.980   0.607 -0.8225  1.8159 -0.6998
  338SOL    HW2 1014   0.028   1.116   0.633  1.8114  0.3820  1.0179
  339SOL     OW 1015   1.691   1.359   2.124 -0.3664 -0.2801 -0.4580
  339SOL    HW1 1016   1.599   1.363   2.170 -0.5777  2.8722  0.9366
  339SOL    HW2 1017   1.753   1.434   2.149  0.1284  0.7793  1.3553
  340SOL     OW 1018   2.343   0.788   1.116 -0.1765 -0.1496 -0.2844
  340SOL    HW1 1019   2.252   0.818   1.082  1.0499  0.8948 -0.0988
  340SOL    HW2 1020   2.373   0.687   1.097  0.4416  0.1531 -2.3061
  341SOL     OW 1021   1.916   2.106   0.331 -0.1959 -0.2232  0.0806
  341SOL    HW1 1022   1.922   2.150   0.238  1.5974  3.2198 -0.1850
  341SOL    HW2 1023   2.009   2.071   0.362 -0.6611  2.1096 -0.1967
  342SOL     OW 1024   2.254   2.128   2.724 -0.4567  0.1348  0.3708
  342SOL    HW1 1025   2.314   2.084   2.795 -2.5331  1.0262  0.2111
  342SOL    HW2 1026   2.157   2.088   2.733  0.6176 -0.2977  1.6361
  343SOL     OW 1027   0.337   0.867   2.728  0.4900 -0.5896 -0.0229
  343SOL    HW1 1028   0.324   0.918   2.640 -1.8486  1.5553  0.1361
  343SOL    HW2 1029   0.431   0.861   2.755 -0.7617  2.5561  0.7634
  344SOL     OW 1030   1.902   1.420   0.411  0.1864  0.0827  0.5344
  344SOL    HW1 1031   1.909   1.336   0.353 -1.5372  1.0810 -0.8296
  344SOL    HW2 1032   1.805   1.445   0.440  0.5876 -0.7137 -1.6341
  345SOL     OW 1033   1.427   2.248   2.916 -0.4624  0.2777  0.0604
  345SOL    HW1 1034   1.346   2.183   2.893  0.5625  0.3604  1.3130
  345SOL    HW2 1035   1.504   2.239   2.849 -1.9806 -1.0546  0.4514
  346SOL     OW 1036   2.380   0.868   1.359  0.2565  0.1945 -0.1292
  346SOL    HW1 1037   2.330   0.955   1.390 -1.7397  0.7289 -0.5002
  346SOL    HW2 1038   2.361   0.849   1.259 -1.1631  1.5059 -1.0895
  347SOL     OW 1039   0.752   2.779   1.550  0.0176 -0.3482  0.4094
  347SOL    HW1 1040   0.713   2.759   1.644 -3.0704 -2.6502 -0.7880
  347SOL    HW2 1041   0.714   2.870   1.521 -0.2828 -2.8898  1.2335
  348SOL     OW 1042   0.220   0.687   2.893 -0.2241  0.2271  0.7767
  348SOL    HW1 1043   0.116   0.685   2.881 -0.8159  1.1974 -2.6390
  348SOL    HW2 1044   0.261   0.757   2.827 -2.9951 -1.6946  3.5046
  349SOL     OW 1045   1.889   0.456   2.802  0.0644  0.6093  0.3964
  349SOL    HW1 1046   1.919   0.549   2.759 -0.0993  0.8031 -1.4980
  349SOL    HW2 1047   1.868   0.457   2.903 -2.4147 -1.4457  0.0187
  350SOL     OW 1048   1.647   0.435   0.368  0.1766  0.8702  0.1426
  350SOL    HW1 1049   1.714   0.444   0.449  0.6798  1.6230  1.8389
  350SOL    HW2 1050   1.622   0.525   0.321 -0.5477  1.4459  2.5283
  351SOL     OW 1051   0.995   0.856   2.151  0.2439 -0.6310  0.1149
  351SOL    HW1 1052   0.977   0.952   2.119  0.7835  0.2928  2.9568
  351SOL    HW2 1053   1.075   0.804   2.104  0.8130 -0.2621 -2.7188
  352SOL     OW 1054   2.017   1.314   0.673 -0.8150  0.0549  0.1027
  352SOL    HW1 1055   1.997   1.381   0.599  1.2712 -2.1937 -1.9113
  352SOL    HW2 1056   1.934   1.245   0.683 -0.8447 -1.6756  2.5886
  353SOL     OW 1057   2.159   2.805   1.064 -0.3180 -0.2441  0.7932
  353SOL    HW1 1058   2.217   2.769   1.141  1.1841  0.7470 -2.5341
  353SOL    HW2 1059   2.067   2.754   1.060  0.5917  1.2664 -2.6456
  354SOL     OW 1060   0.280   1.386   2.904  0.0662 -0.2014  0.4526
  354SOL    HW1 1061   0.264   1.455   2.831  2.5402 -1.0817 -0.1365
  354SOL    HW2 1062   0.379   1.360   2.922  0.4459 -0.5837 -0.0254
  355SOL     OW 1063   0.633   1.545   0.598  0.7574  0.5144 -0.3583
  355SOL    HW1 1064   0.652   1.537   0.698  1.3276 -0.8702 -0.0446
  355SOL    HW2 1065   0.678   1.468   0.541  0.4366  0.5009 -0.7293
  356SOL     OW 1066   0.852   0.315   2.078 -0.3118  0.3198 -0.1470
  356SOL    HW1 1067   0.942   0.275   2.058  0.1950  0.9684 -1.0669
  356SOL    HW2 1068   0.813   0.372   2.000 -0.4181  3.1443 -2.4351
  357SOL     OW 1069   1.002   1.306   0.340  0.6153 -0.0325 -0.4235
  357SOL    HW1 1070   1.008   1.289   0.240 -0.7852  0.4246 -0.0004
  357SOL    HW2 1071   0.996   1.218   0.392  0.1675 -1.6196 -0.7975
  358SOL     OW 1072   1.646   1.502   0.501  0.4183  0.1248  0.0762
  358SOL    HW1 1073   1.608   1.454   0.584  0.9165  4.2337  0.5557
  358SOL    HW2 1074   1.603   1.481   0.409 -0.0146  1.0282 -0.5689
  359SOL     OW 1075   1.572   2.638   0.191  0.1210 -0.1143  0.1231
  359SOL    HW1 1076   1.575   2.536   0.183 -0.0640 -1.2151 -0.5189
  359SOL    HW2 1077   1.477   2.674   0.189  3.2630 -1.0207  0.7035
  360SOL     OW 1078   0.863   0.565   0.583 -0.4051 -0.0286 -0.3598
  360SOL    HW1 1079   0.759   0.581   0.592 -0.4930 -0.6798 -2.2797
  360SOL    HW2 1080   0.890   0.464   0.583 -0.3577  2.7520 -2.1677
  361SOL     OW 1081   1.232   1.308   0.729  0.8082 -0.0634 -0.0226
  361SOL    HW1 1082   1.281   1.370   0.792 -0.5545  0.4658 -2.3247
  361SOL    HW2 1083   1.132   1.334   0.728  1.4848  0.5963  0.5390
  362SOL     OW 1084   1.389   1.841   0.808  0.0149  0.0133  0.1536
  362SOL    HW1 1085   1.422   1.761   0.869  1.7456  1.9063  2.3681
  362SOL    HW2 1086   1.455   1.851   0.728  1.2197  1.3795  1.3609
  363SOL     OW 1087   1.213   1.245   2.054  0.1239 -0.1055 -0.4024
  363SOL    HW1 1088   1.281   1.318   2.093  1.8399 -1.2018  0.6592
  363SOL    HW2 1089   1.177   1.286   1.962 -0.6143  3.4407  0.5774
  364SOL     OW 1090   0.493   2.346   1.980 -0.0179 -0.1883  0.4123
  364SOL    HW1 1091   0.393   2.375   1.984  0.2870  2.6095 -0.3240
  364SOL    HW2 1092   0.548   2.397   1.901  0.5966 -2.9381 -1.3758
  365SOL     OW 1093   1.010   1.891   1.418 -0.4696  0.4666 -0.4857
  365SOL    HW1 1094   0.910   1.900   1.451  0.0788  0.8971  0.4257
  365SOL    HW2 1095   1.025   1.912   1.320  2.8989  1.7101  1.0627
  366SOL     OW 1096   2.802   2.036   0.439  0.6034  0.1157 -0.4077
  366SOL    HW1 1097   2.712   1.989   0.452  0.5640 -1.2714 -0.7874
  366SOL    HW2 1098   2.836   2.011   0.339 -1.5387 -2.5107 -1.8760
  367SOL     OW 1099   0.931   1.123   0.126 -0.5335 -0.5626 -0.1184
  367SOL    HW1 1100   0.967   1.057   0.196  0.8408  1.6440 -0.2013
  367SOL    HW2 1101   0.997   1.129   0.044 -0.7897  0.6727  0.2969
  368SOL     OW 1102   1.438   0.536   0.723  0.0202  0.3539 -0.8070
  368SOL    HW1 1103   1.384   0.581   0.648 -1.0768 -0.5406  0.0300
  368SOL    HW2 1104   1.543   0.533   0.723 -1.9798 -0.8053 -3.5521
  369SOL     OW 1105   0.330   1.718   0.074  0.0032 -0.5235 -0.2494
  369SOL    HW1 1106   0.374   1.796   0.129  1.6321 -0.9608  2.0127
  369SOL    HW2 1107   0.239   1.695   0.113 -0.9377 -0.0705 -0.9644
  370SOL     OW 1108   0.462   2.087   0.974 -0.1805 -0.2282  0.1876
  370SOL    HW1 1109   0.451   2.192   0.955 -3.0771  2.8192  0.9085
  370SOL    HW2 1110   0.382   2.031   0.941 -0.8234  0.5652  0.3977
  371SOL     OW 1111   2.934   2.182   2.659 -0.2886  0.0432 -0.2053
  371SOL    HW1 1112   2.863   2.147   2.722  1.2298  0.5024  1.6804
  371SOL    HW2 1113   3.026   2.184   2.709 -2.3172  0.4900  0.0775
  372SOL     OW 1114   1.130   2.012   1.090 -0.0685  0.6518  0.2740
  372SOL    HW1 1115   1.055   2.065   1.039  1.1014  2.6860 -0.4639
  372SOL    HW2 1116   1.208   2.068   1.127  1.4365  0.5098 -2.5313
  373SOL     OW 1117   2.009   1.993   0.849 -0.0753 -0.2978 -0.2419
  373SOL    HW1 1118   2.058   2.001   0.939 -0.0522  0.1555  0.2653
  373SOL    HW2 1119   1.907   2.012   0.867 -1.5863 -2.6843  3.1942
  374SOL     OW 1120   1.839   0.399   0.582  0.2180 -0.7758 -0.6996
  374SOL    HW1 1121   1.844   0.390   0.685  1.7767  1.0926  1.8627
  374SOL    HW2 1122   1.933   0.407   0.537 -1.2761 -0.4117  4.6558
  375SOL     OW 1123   2.435   2.179   1.109 -0.0442 -0.3949 -0.6192
  375SOL    HW1 1124   2.510   2.150   1.041  1.0182  1.7032  0.0883
  375SOL    HW2 1125   2.458   2.140   1.204 -1.9839 -1.0885 -1.1725
  376SOL     OW 1126   3.075   0.555   1.471 -0.2587  0.1776 -0.2505
  376SOL    HW1 1127   3.062   0.647   1.514  0.3144 -0.3640 -3.8176
  376SOL    HW2 1128   2.990   0.496   1.486 -1.6744  0.9679 -0.3913
  377SOL     OW 1129   2.233   2.860   0.325  0.0226  0.4411  0.1724
  377SOL    HW1 1130   2.201   2.936   0.385 -1.8397  2.2964 -1.1685
  377SOL    HW2 1131   2.336   2.842   0.327 -1.8122  0.6733 -1.1530
  378SOL     OW 1132   1.869   1.856   2.588 -0.7088 -0.3099  0.0024
  378SOL    HW1 1133   1.946   1.811   2.632 -0.6886  0.0833 -2.9122
  378SOL    HW2 1134   1.826   1.784   2.529  2.2985 -1.0902  1.6426
  379SOL     OW 1135   0.752   0.159   2.854 -0.4635  0.0245  0.9910
  379SOL    HW1 1136   0.701   0.074   2.826  2.6584 -3.0266  0.1672
  379SOL    HW2 1137   0.782   0.223   2.773  3.3730  0.8329  0.4635
  380SOL     OW 1138   1.491   1.138   0.559 -0.6839 -0.0291  0.5649
  380SOL    HW1 1139   1.393   1.111   0.553  2.8449  2.6066  1.1126
  380SOL    HW2 1140   1.558   1.061   0.548  0.7409  1.6712 -0.0819
  381SOL     OW 1141   1.390   1.174   1.494 -0.1423  0.1480  1.3588
  381SOL    HW1 1142   1.405   1.120   1.404 -0.8075  1.7141 -0.7301
  381SOL    HW2 1143   1.453   1.145   1.571 -1.6206  0.7348 -0.0366
  382SOL     OW 1144   1.780   0.828   0.170 -0.3311  0.2782  0.3220
  382SOL    HW1 1145   1.820   0.812   0.075  0.4077 -0.8918 -1.7773
  382SOL    HW2 1146   1.851   0.874   0.236  3.2417 -0.8806 -0.3755
  383SOL     OW 1147   2.600   0.987   1.441 -0.3472  0.0494  0.1894
  383SOL    HW1 1148   2.512   0.933   1.417  0.0456  2.4808 -0.1498
  383SOL    HW2 1149   2.686   0.967   1.391  0.0860 -0.6703 -0.9418
  384SOL     OW 1150   0.892   2.310   0.121  0.5012 -0.1370 -0.1505
  384SOL    HW1 1151   0.848   2.382   0.178  0.2665 -1.3988  0.9257
  384SOL    HW2 1152   0.885   2.215   0.165 -3.5675 -1.0742 -1.5378
  385SOL     OW 1153   3.040   2.010   1.680  0.4695  0.6350 -0.6696
  385SOL    HW1 1154   3.112   2.072   1.639  2.5469  0.1712 -1.3065
  385SOL    HW2 1155   3.077   1.913   1.673 -1.7194  2.0052  0.4073
  386SOL     OW 1156   0.478   1.107   0.412 -0.0206 -0.0227 -0.2920
  386SOL    HW1 1157   0.464   1.008   0.446 -0.0641  2.1481 -1.4643
  386SOL    HW2 1158   0.425   1.127   0.327  0.4465 -1.6988 -1.9507
  387SOL     OW 1159   0.918   0.382   1.609  0.3630 -0.6064  0.2582
  387SOL    HW1 1160   0.997   0.449   1.610 -1.9471  2.5867  0.1857
  387SOL    HW2 1161   0.924   0.313   1.530  1.4077  2.3496  0.8164
  388SOL     OW 1162   1.194   2.600   1.757  0.0276 -0.5013  0.3028
  388SOL    HW1 1163   1.230   2.562   1.667  0.2818 -1.1264  2.7481
  388SOL    HW2 1164   1.232   2.558   1.843  0.1582  0.4732 -2.7471
  389SOL     OW 1165   0.159   3.014   1.084 -0.2366 -0.2538 -0.4275
  389SOL    HW1 1166   0.074   3.031   1.138 -0.4225  0.0462  0.0491
  389SOL    HW2 1167   0.199   2.917   1.086  0.3531  1.1444  2.7016
  390SOL     OW 1168   1.017   0.943   1.324  0.3022 -0.0097  0.6573
  390SOL    HW1 1169   1.024   0.878   1.401  2.3778 -2.0782 -0.3491
  390SOL    HW2 1170   0.974   1.030   1.356  0.6675 -1.8190  1.2563
  391SOL     OW 1171   2.084   1.194   1.016  0.1692 -0.7023  0.5676
  391SOL    HW1 1172   2.008   1.153   1.074 -1.4409 -1.0062  3.0202
  391SOL    HW2 1173   2.142   1.126   0.963  0.7055  2.2160  2.3920
  392SOL     OW 1174   0.877   2.668   3.045 -0.5901  0.1626  0.5417
  392SOL    HW1 1175   0.799   2.664   3.110  1.4514  0.8201 -1.8145
  392SOL    HW2 1176   0.971   2.662   3.086  0.2442  0.2248 -1.9768
  393SOL     OW 1177   0.342   0.491   1.986 -1.4006  0.6069  0.0824
  393SOL    HW1 1178   0.299   0.399   1.961  0.5103 -1.8271  1.0283
  393SOL    HW2 1179   0.437   0.502   1.948 -4.5663 -1.2754 -0.1145
  394SOL     OW 1180   2.965   1.860   2.780  1.1755  0.3762 -0.6886
  394SOL    HW1 1181   3.056   1.840   2.817  1.2633  2.6895 -1.4868
  394SOL    HW2 1182   2.967   1.866   2.674  0.5420  0.2137 -0.9691
  395SOL     OW 1183   1.610   1.912   0.622 -0.3198  1.1408  0.1095
  395SOL    HW1 1184   1.671   1.859   0.557 -1.1030 -0.9959 -0.2396
  395SOL    HW2 1185   1.670   1.967   0.688 -2.1353 -0.0556  3.6336
  396SOL     OW 1186   2.748   1.964   1.319  0.1412 -0.1981  0.8728
  396SOL    HW1 1187   2.646   1.990   1.296 -1.2738  2.0922 -1.2587
  396SOL    HW2 1188   2.774   1.984   1.419  1.6842 -0.8321 -1.4244
  397SOL     OW 1189   0.981   2.191   0.515  0.2198  0.3806 -0.4179
  397SOL    HW1 1190   0.890   2.144   0.535 -2.6520  0.1408  1.9412
  397SOL    HW2 1191   0.979   2.293   0.533 -1.5028 -1.2796 -2.2242
  398SOL     OW 1192   2.132   3.097   1.066 -0.9754 -0.6869  0.9175
  398SOL    HW1 1193   2.130   2.995   1.105 -0.6898 -3.0624 -1.4942
  398SOL    HW2 1194   2.084   3.167   1.123  1.0898 -3.0713 -0.3500
  399SOL     OW 1195   2.950   2.511   2.716  0.3865  0.1211 -1.1380
  399SOL    HW1 1196   2.885   2.485   2.644  1.0624 -0.0793 -1.5991
  399SOL    HW2 1197   2.971   2.430   2.780  3.5109 -1.3525  0.1144
  400SOL     OW 1198   0.788   1.595   1.313  0.3930  0.1507 -0.0920
  400SOL    HW1 1199   0.757   1.642   1.397  1.3556 -1.1947  2.5548
  400SOL    HW2 1200   0.796   1.655   1.225  0.6047 -0.1802  0.1388
  401SOL     OW 1201   1.832   0.100   1.372 -0.1974  0.2723  0.3235
  401SOL    HW1 1202   1.903   0.085   1.444 -1.6455 -1.0997 -1.3148
  401SOL    HW2 1203   1.740   0.133   1.413 -1.7292 -1.2157 -1.6080
  402SOL     OW 1204   1.330   0.115   3.047  0.3411  0.6520 -0.4189
  402SOL    HW1 1205   1.415   0.103   2.996 -1.3555 -0.3503  1.1511
  402SOL    HW2 1206   1.305   0.215   3.062 -1.7975  3.0002  0.2088
  403SOL     OW 1207   2.313   1.823   0.894  0.1735 -0.1267 -0.4677
  403SOL    HW1 1208   2.397   1.809   0.957  0.4044 -1.0797  4.9106
  403SOL    HW2 1209   2.251   1.898   0.934  2.0694  1.1574  0.2450
  404SOL     OW 1210   0.177   2.496   2.806 -0.0850  0.4157 -0.2053
  404SOL    HW1 1211   0.277   2.465   2.825  1.1785 -0.4713  3.8550
  404SOL    HW2 1212   0.156   2.597   2.820  1.4394  0.3123  1.7837
  405SOL     OW 1213   0.144   2.418   0.607 -0.1984  0.1821  0.6721
  405SOL    HW1 1214   0.172   2.387   0.512 -3.0884  0.4752 -1.9656
  405SOL    HW2 1215   0.197   2.496   0.640 -0.8159 -0.9995  2.3766
  406SOL     OW 1216   0.036   1.477   3.002 -0.2719  0.3999  0.2040
  406SOL    HW1 1217   0.131   1.437   2.979  1.9639 -1.4897  1.6141
  406SOL    HW2 1218   0.043   1.527   3.087 -0.0616 -1.5370  0.5137
  407SOL     OW 1219   1.564   0.929   0.907  0.1865 -0.0277  0.0308
  407SOL    HW1 1220   1.575   0.895   0.806 -2.6378 -2.2584  0.2589
  407SOL    HW2 1221   1.509   1.017   0.915  4.0434  1.8278 -0.3573
  408SOL     OW 1222   1.615   2.361   0.929 -0.2641 -0.8560  0.2985
  408SOL    HW1 1223   1.672   2.342   0.848 -0.1178  0.2117  0.4577
  408SOL    HW2 1224   1.540   2.436   0.910  0.6018 -0.6796  2.0861
  409SOL     OW 1225   0.629   0.873   0.726  0.6176 -0.2766  0.0973
  409SOL    HW1 1226   0.559   0.884   0.655  2.3680  0.5291 -1.8866
  409SOL    HW2 1227   0.630   0.775   0.767 -1.2728 -1.5897 -1.7544
  410SOL     OW 1228   1.268   2.011   1.422  0.1488  0.1155  0.2619
  410SOL    HW1 1229   1.322   1.973   1.494 -1.7876  2.1246 -1.0243
  410SOL    HW2 1230   1.169   1.983   1.426 -4.3573  0.0674  0.9104
  411SOL     OW 1231   2.512   1.871   3.084 -0.5024 -0.4114  0.9089
  411SOL    HW1 1232   2.442   1.873   3.009 -0.5101  0.2217  2.4443
  411SOL    HW2 1233   2.611   1.859   3.048 -0.3793 -0.5235  0.5825
  412SOL     OW 1234   1.500   2.549   2.179  0.0723  0.0903 -0.5268
  412SOL    HW1 1235   1.557   2.635   2.199 -0.1934  1.4067 -0.5105
  412SOL    HW2 1236   1.444   2.516   2.263  1.1707 -2.3865 -0.1805
  413SOL     OW 1237   3.095   0.260   2.930 -0.2115  0.0423 -0.3173
  413SOL    HW1 1238   3.024   0.192   2.969 -0.2517  0.3140  1.6657
  413SOL    HW2 1239   3.183   0.266   2.983 -1.0542 -3.1760 -2.2243
  414SOL     OW 1240   1.794   1.483   1.310  0.9688 -0.0546 -1.1551
  414SOL    HW1 1241   1.721   1.536   1.365 -1.3644 -1.0520 -1.1953
  414SOL    HW2 1242   1.752   1.412   1.248 -1.2194 -2.7473  0.2804
  415SOL     OW 1243   0.302   2.187   0.716  0.0985 -0.2819  0.2997
  415SOL    HW1 1244   0.281   2.283   0.688 -1.1871 -3.1904  0.5390
  415SOL    HW2 1245   0.221   2.137   0.764 -0.2260 -0.8168  2.3243
  416SOL     OW 1246   0.361   1.062   1.057  0.2164 -0.0768 -0.5180
  416SOL    HW1 1247   0.333   0.997   0.980  0.8139  0.7894  0.0043
  416SOL    HW2 1248   0.463   1.094   1.061  1.6628  2.0960  3.3255
  417SOL     OW 1249   2.128   2.308   1.902  0.4838 -0.0972  0.0957
  417SOL    HW1 1250   2.129   2.208   1.932 -1.3798  0.2300 -0.1754
  417SOL    HW2 1251   2.033   2.334   1.869  1.6578  1.6264  1.2006
  418SOL     OW 1252   1.137   0.494   1.305  0.1676 -0.1303  0.8119
  418SOL    HW1 1253   1.050   0.448   1.276 -3.1555  0.8933 -2.6438
  418SOL    HW2 1254   1.170   0.563   1.232  0.9601  0.2378 -0.0771
  419SOL     OW 1255   0.994   0.366   3.029  0.0202  0.1779 -0.1386
  419SOL    HW1 1256   0.978   0.409   2.933 -1.4956  1.7419 -1.2327
  419SOL    HW2 1257   0.947   0.276   3.055 -0.5678 -1.8671 -0.0614
  420SOL     OW 1258   0.145   2.268   0.372 -0.3557  0.1579  0.3247
  420SOL    HW1 1259   0.147   2.202   0.294  1.3253  1.8009  1.2992
  420SOL    HW2 1260   0.059   2.256   0.429  0.0445 -1.1866 -0.7825
  421SOL     OW 1261   0.328   3.021   0.699 -0.3561 -0.3938  0.6273
  421SOL    HW1 1262   0.341   2.917   0.687 -0.5397 -1.7870 -1.9573
  421SOL    HW2 1263   0.423   3.063   0.695 -0.9802 -2.4003  1.7907
  422SOL     OW 1264   0.986   2.596   1.035  0.1863 -0.1833 -0.0180
  422SOL    HW1 1265   1.053   2.612   0.962 -2.0979 -1.9022  0.8329
  422SOL    HW2 1266   1.022   2.615   1.128 -0.3652  0.6102 -0.9669
  423SOL     OW 1267   0.099   0.713   1.276  0.1833  0.1360 -0.1732
  423SOL    HW1 1268   0.062   0.645   1.345 -0.8262 -1.5331  4.2630
  423SOL    HW2 1269   0.032   0.790   1.252 -1.6813 -1.7875 -1.8199
  424SOL     OW 1270   1.019   2.253   2.063  0.1010  0.5313  0.3195
  424SOL    HW1 1271   1.008   2.346   2.016 -1.9495  1.3156  1.9271
  424SOL    HW2 1272   1.008   2.253   2.167  1.1561 -0.0676  0.3001
  425SOL     OW 1273   1.984   1.423   0.957 -0.2665  0.0945  0.4889
  425SOL    HW1 1274   2.015   1.327   0.988 -2.4119 -3.0229 -1.9225
  425SOL    HW2 1275   2.063   1.479   0.917  3.1975  1.5212 -0.8345
  426SOL     OW 1276   1.516   1.523   1.394  0.4507  0.3941 -0.2950
  426SOL    HW1 1277   1.495   1.620   1.356  0.5522  0.5314 -0.3908
  426SOL    HW2 1278   1.454   1.488   1.474 -1.2187 -2.3031  1.2214
  427SOL     OW 1279   1.863   2.350   2.045 -0.3317 -0.0241  0.4390
  427SOL    HW1 1280   1.920   2.274   2.087 -0.3158 -1.3656  0.5443
  427SOL    HW2 1281   1.896   2.446   2.071  2.0754  2.0216 -2.0519
  428SOL     OW 1282   0.872   2.959   0.192 -0.4555 -0.2700 -0.1020
  428SOL    HW1 1283   0.937   3.029   0.240 -0.7047  2.3636 -0.6434
  428SOL    HW2 1284   0.922   2.873   0.161 -1.6176  1.3042 -2.5835
  429SOL     OW 1285   1.324   0.081   0.231  0.0688 -0.1296 -0.4589
  429SOL    HW1 1286   1.422   0.113   0.240 -1.0339  2.0443 -2.6875
  429SOL    HW2 1287   1.291   0.081   0.132 -0.4360  0.4226  0.6568
  430SOL     OW 1288   2.733   1.449   0.387  1.0097 -0.1559 -0.1111
  430SOL    HW1 1289   2.771   1.516   0.320  0.6095  0.4003  1.9627
  430SOL    HW2 1290   2.749   1.492   0.483  0.9884 -0.0494  0.8240
  431SOL     OW 1291   2.161   1.603   0.814  0.5377 -0.6822 -0.1111
  431SOL    HW1 1292   2.229   1.673   0.847  0.6583 -1.9038  0.5208
  431SOL    HW2 1293   2.086   1.646   0.757  0.1956  0.3010 -0.2725
  432SOL     OW 1294   2.858   2.204   1.282 -0.1225 -0.4198 -0.1297
  432SOL    HW1 1295   2.806   2.116   1.299  2.4709  2.3878  1.6392
  432SOL    HW2 1296   2.920   2.237   1.360 -1.8183 -0.0582 -0.8986
  433SOL     OW 1297   1.922   0.369   0.856 -0.1215  0.4090  0.3220
  433SOL    HW1 1298   1.856   0.313   0.916  1.2089 -0.9849 -0.4155
  433SOL    HW2 1299   2.016   0.364   0.896 -0.2668  1.3556  0.3850
  434SOL     OW 1300   1.542   0.286   0.794 -0.8139  0.7875 -0.4746
  434SOL    HW1 1301   1.489   0.368   0.785  2.3986 -2.6007  0.3116
  434SOL    HW2 1302   1.606   0.288   0.874 -1.4222 -1.6818  2.3054
  435SOL     OW 1303   1.408   1.428   2.121 -0.0261  0.6175 -0.4199
  435SOL    HW1 1304   1.350   1.463   2.206 -1.0323  0.8160  1.3396
  435SOL    HW2 1305   1.458   1.499   2.065 -0.8508 -2.0355  1.4524
  436SOL     OW 1306   1.679   2.729   2.285  0.0733  0.4316 -0.3655
  436SOL    HW1 1307   1.636   2.813   2.329  1.2772  2.0086 -2.3626
  436SOL    HW2 1308   1.708   2.656   2.356  0.6134 -1.7578  2.3273
  437SOL     OW 1309   1.087   2.902   0.920 -0.7754  0.4176 -0.0666
  437SOL    HW1 1310   1.035   2.971   0.859 -1.2755  1.0710 -2.3399
  437SOL    HW2 1311   1.037   2.863   1.005 -0.9055 -0.9822  2.6154
  438SOL     OW 1312   1.064   2.576   1.316 -0.5840  0.0612 -0.0343
  438SOL    HW1 1313   1.123   2.608   1.399  2.0172  1.3454 -1.1159
  438SOL    HW2 1314   1.013   2.492   1.340  0.9724 -0.5780 -0.5589
  439SOL     OW 1315   0.712   1.754   1.074 -0.6086 -0.3264 -0.4503
  439SOL    HW1 1316   0.706   1.847   1.031 -0.5345  0.0756  2.5919
  439SOL    HW2 1317   0.618   1.717   1.091 -0.0346  0.0214 -1.6994
  440SOL     OW 1318   0.969   2.484   1.917  0.0522 -0.0436 -0.0525
  440SOL    HW1 1319   0.921   2.477   1.826  1.7548 -0.0338  1.3979
  440SOL    HW2 1320   1.064   2.515   1.905 -0.6834 -0.7253 -1.5052
  441SOL     OW 1321   0.401   2.782   1.381 -0.2238  0.1730  0.2242
  441SOL    HW1 1322   0.454   2.691   1.366 -0.3070 -0.1663  1.0766
  441SOL    HW2 1323   0.304   2.770   1.392  1.5783 -1.2702 -0.6491
  442SOL     OW 1324   2.283   0.639   2.541  0.5967  0.1340 -0.9575
  442SOL    HW1 1325   2.279   0.536   2.524 -2.1194  0.2896  0.3179
  442SOL    HW2 1326   2.192   0.686   2.516 -1.4332  2.1341 -0.1535
  443SOL     OW 1327   1.214   2.729   2.190 -0.0701 -0.1337 -0.2006
  443SOL    HW1 1328   1.281   2.673   2.242  0.3278  3.6137  2.0453
  443SOL    HW2 1329   1.141   2.779   2.250  0.5112 -3.4520  1.6004
  444SOL     OW 1330   1.149   1.301   1.600  0.1161  0.0037 -0.3421
  444SOL    HW1 1331   1.236   1.263   1.562 -1.9076 -0.7893  2.0939
  444SOL    HW2 1332   1.151   1.322   1.701  1.2477 -1.2434  0.5133
  445SOL     OW 1333   0.013   2.377   1.869 -0.1962  0.5238  0.5910
  445SOL    HW1 1334   0.007   2.464   1.819  0.8159 -1.5955  0.1837
  445SOL    HW2 1335  -0.082   2.356   1.912  0.1471  1.3746 -0.0729
  446SOL     OW 1336   0.254   1.906   2.362  0.3324  0.1318 -0.3017
  446SOL    HW1 1337   0.188   1.961   2.419  2.0679 -2.6846 -3.8084
  446SOL    HW2 1338   0.200   1.859   2.289  0.7206  1.8857 -3.0786
  447SOL     OW 1339   1.223   1.716   1.922 -0.3020  0.2558 -0.8448
  447SOL    HW1 1340   1.124   1.751   1.928  0.9721 -0.9584  1.3438
  447SOL    HW2 1341   1.286   1.785   1.965 -0.1025 -1.9954 -0.2407
  448SOL     OW 1342   0.118   1.445   1.996 -0.1147  0.2551  0.8895
  448SOL    HW1 1343   0.149   1.540   1.973 -2.8134 -1.4174  1.9337
  448SOL    HW2 1344   0.075   1.437   2.093  2.2239 -1.2823  1.3566
  449SOL     OW 1345   1.786   2.981   0.889  0.9396 -0.2302 -0.8494
  449SOL    HW1 1346   1.837   2.989   0.981  2.4115  0.5550 -1.4129
  449SOL    HW2 1347   1.835   2.911   0.826  2.9580 -0.2165 -3.3969
  450SOL     OW 1348   2.367   1.425   0.717  0.7073  0.1689 -0.2148
  450SOL    HW1 1349   2.280   1.457   0.760  1.3714  0.3057  0.1857
  450SOL    HW2 1350   2.373   1.469   0.621 -1.7149  0.9613  2.7034
  451SOL     OW 1351   1.340   3.028   1.433  0.2377  0.0207  0.1223
  451SOL    HW1 1352   1.268   3.100   1.459  0.8755  0.0527  2.2615
  451SOL    HW2 1353   1.367   2.969   1.512  3.3698  0.9169 -1.7275
  452SOL     OW 1354   2.693   2.293   2.180  0.1899 -0.1950  0.1451
  452SOL    HW1 1355   2.647   2.388   2.187 -1.2380 -0.0521  0.3720
  452SOL    HW2 1356   2.709   2.250   2.271  0.1330 -0.8641 -3.7973
  453SOL     OW 1357   2.477   2.633   3.102 -0.0253 -0.4073 -0.4382
  453SOL    HW1 1358   2.382   2.686   3.105  2.2932 -0.3308 -1.7849
  453SOL    HW2 1359   2.481   2.569   3.022 -0.0911  2.4573 -0.1998
  454SOL     OW 1360   0.980   1.127   2.079 -0.4861  0.6954  0.1701
  454SOL    HW1 1361   0.965   1.138   1.975  1.9113  0.0894 -0.4466
  454SOL    HW2 1362   1.070   1.177   2.104 -1.1390  0.2128  2.4295
  455SOL     OW 1363   0.683   2.678   2.846  0.1002  0.1489  0.8681
  455SOL    HW1 1364   0.774   2.716   2.846 -0.5876 -2.4210  2.8383
  455SOL    HW2 1365   0.676   2.609   2.923 -0.4593 -1.4450  3.0864
  456SOL     OW 1366   0.453   1.898   0.262  0.1223 -0.0470  0.2747
  456SOL    HW1 1367   0.535   1.850   0.311  0.2193  0.4767  1.3346
  456SOL    HW2 1368   0.476   1.986   0.213 -1.8715 -0.2855  2.3712
  457SOL     OW 1369   0.334   2.637   0.600 -0.0226  0.5901 -0.3924
  457SOL    HW1 1370   0.296   2.708   0.536 -0.5143 -0.8567  0.9929
  457SOL    HW2 1371   0.427   2.597   0.580  0.8022  0.0704 -1.0172
  458SOL     OW 1372   2.907   3.092   1.264  0.0898 -0.1261  0.4498
  458SOL    HW1 1373   2.974   3.172   1.269 -2.3998  1.2135 -0.3928
  458SOL    HW2 1374   2.909   3.036   1.179 -0.9046  3.0647  2.0038
  459SOL     OW 1375   2.103   2.615   0.738  0.3901 -0.4213  0.1610
  459SOL    HW1 1376   2.202   2.627   0.774 -0.7271  1.1142 -0.3724
  459SOL    HW2 1377   2.097   2.553   0.658  3.2797  0.8860  2.0992
  460SOL     OW 1378   1.218   2.078   2.825  0.1727 -0.3356  0.1091
  460SOL    HW1 1379   1.179   2.129   2.739  1.3015  2.3471 -0.9890
  460SOL    HW2 1380   1.249   1.981   2.796  0.1800 -1.6923 -2.5770
  461SOL     OW 1381   0.544   2.168   2.654  0.1762 -0.6256 -0.5996
  461SOL    HW1 1382   0.468   2.101   2.637 -1.4936 -1.3586  2.3625
  461SOL    HW2 1383   0.612   2.142   2.730  0.9589 -0.3982 -0.0213
  462SOL     OW 1384   0.965   1.155   1.797  0.3723  0.2060  0.2147
  462SOL    HW1 1385   1.026   1.102   1.733 -1.0656 -3.7206  1.9373
  462SOL    HW2 1386   0.931   1.246   1.754 -2.0831  0.7675  1.7576
  463SOL     OW 1387   0.457   0.825   0.513  0.4515  0.5863  0.1506
  463SOL    HW1 1388   0.508   0.738   0.496 -2.9528 -1.0936 -1.2991
  463SOL    HW2 1389   0.351   0.814   0.525  2.0758  1.5489 -3.1840
  464SOL     OW 1390   0.597   2.286   2.244  0.1029  0.1321 -0.2851
  464SOL    HW1 1391   0.553   2.358   2.310  0.1051 -0.9106  0.8304
  464SOL    HW2 1392   0.559   2.275   2.148 -0.9028 -0.1001  3.1372
  465SOL     OW 1393   0.233   0.961   0.835  0.0553 -0.3384 -0.1534
  465SOL    HW1 1394   0.132   0.959   0.803  0.7875  0.5914  1.3953
  465SOL    HW2 1395   0.270   0.871   0.827 -0.5845  2.4039 -2.1852
  466SOL     OW 1396   1.401   1.136   0.975 -0.5624  0.5172  0.3476
  466SOL    HW1 1397   1.427   1.234   0.990  0.9444 -1.6071  1.0684
  466SOL    HW2 1398   1.308   1.118   1.023  1.3695  3.0331  1.1295
  467SOL     OW 1399   0.527   0.378   2.421 -0.0972 -0.7163  0.4917
  467SOL    HW1 1400   0.473   0.465   2.434  0.5790 -2.2711 -0.7082
  467SOL    HW2 1401   0.529   0.329   2.511 -0.8330  3.1501 -1.4004
  468SOL     OW 1402   0.469   2.272   1.648  0.3713  0.0956  0.6244
  468SOL    HW1 1403   0.525   2.335   1.703 -2.7187  0.3404 -2.1207
  468SOL    HW2 1404   0.455   2.307   1.549  0.1019  1.0650  0.8068
  469SOL     OW 1405   1.438   1.369   1.172  0.0488  0.1484 -0.7272
  469SOL    HW1 1406   1.537   1.337   1.188 -1.8333  0.8473 -2.0778
  469SOL    HW2 1407   1.417   1.437   1.246 -1.0468 -0.1632  2.6314
  470SOL     OW 1408   3.002   1.775   0.738 -0.0344 -1.0175 -0.5626
  470SOL    HW1 1409   3.075   1.847   0.719 -0.0055  0.4583  0.3531
  470SOL    HW2 1410   3.037   1.677   0.715  2.5603 -2.8299 -0.1262
  471SOL     OW 1411   2.688   1.255   2.122  0.6190  0.1513 -0.1914
  471SOL    HW1 1412   2.619   1.230   2.197 -1.1736 -0.3049  1.7244
  471SOL    HW2 1413   2.762   1.323   2.152  0.6242 -1.3211 -0.6691
  472SOL     OW 1414   1.120   2.453   0.051  0.2980 -0.0991 -0.3324
  472SOL    HW1 1415   1.198   2.424   0.116 -1.0171  0.6230  0.9962
  472SOL    HW2 1416   1.024   2.424   0.081  0.3613 -0.9891 -0.5483
  473SOL     OW 1417   1.105   1.553   1.002 -0.1564  0.0733  0.2929
  473SOL    HW1 1418   1.000   1.540   0.992  1.3154  2.1521 -0.0477
  473SOL    HW2 1419   1.140   1.476   1.059 -0.9044  0.6982  1.6590
  474SOL     OW 1420   0.645   1.268   0.526 -0.1523  0.3627  0.2216
  474SOL    HW1 1421   0.572   1.204   0.483  1.6460 -2.2197  0.4604
  474SOL    HW2 1422   0.716   1.213   0.582  0.8285  2.5834  2.3444
  475SOL     OW 1423   2.853   0.037   0.807 -0.7125  0.7188 -0.2096
  475SOL    HW1 1424   2.928   0.111   0.811  0.0772 -1.4335 -2.0098
  475SOL    HW2 1425   2.755   0.078   0.828 -1.4526 -0.6221 -1.8776
  476SOL     OW 1426   0.987   3.076   1.781 -0.0610 -0.1803  0.9045
  476SOL    HW1 1427   1.040   3.025   1.855  0.9773 -1.2318  1.0465
  476SOL    HW2 1428   1.010   3.042   1.687  0.9610  1.3364  0.3882
  477SOL     OW 1429   1.410   0.320   2.457 -0.2193  0.4276  0.9931
  477SOL    HW1 1430   1.418   0.344   2.562  1.1270  0.4553 -0.9307
  477SOL    HW2 1431   1.503   0.277   2.432  0.3053 -0.1132  2.1911
  478SOL     OW 1432   2.237   1.833   0.161  0.1142  0.1394  0.1927
  478SOL    HW1 1433   2.186   1.751   0.205 -1.9765 -0.9025 -1.4541
  478SOL    HW2 1434   2.339   1.824   0.156  2.8183  1.7753  3.1709
  479SOL     OW 1435   1.252   0.995   2.897  0.0198  0.6422  0.3615
  479SOL    HW1 1436   1.308   0.988   2.809  1.8317  1.0803 -2.6184
  479SOL    HW2 1437   1.169   0.928   2.900  1.5707 -2.0797  1.8308
  480SOL     OW 1438   2.665   2.338   0.362 -0.6233  0.1680  0.2251
  480SOL    HW1 1439   2.646   2.282   0.449 -1.2992  0.6367  1.0119
  480SOL    HW2 1440   2.575   2.350   0.311 -1.4309  2.1416  1.5154
  481SOL     OW 1441   0.970   1.149   0.911  0.0747  0.1316 -0.0593
  481SOL    HW1 1442   0.963   1.245   0.871  1.4206  1.1324 -1.0981
  481SOL    HW2 1443   1.058   1.132   0.966  0.8034 -2.0448 -0.0695
  482SOL     OW 1444   1.577   0.307   2.043  0.1214  0.2900 -0.1540
  482SOL    HW1 1445   1.596   0.410   2.031  0.5539  1.6703 -1.1472
  482SOL    HW2 1446   1.662   0.255   2.077 -2.8126  3.2805 -1.5857
  483SOL     OW 1447   0.111   2.314   1.268  0.4488  0.1981  0.1725
  483SOL    HW1 1448   0.027   2.301   1.328  0.0294 -0.6835 -1.1388
  483SOL    HW2 1449   0.120   2.417   1.264  0.5383 -0.6831  2.9516
  484SOL     OW 1450   1.764   1.102   1.341 -0.0015 -0.3420 -0.0768
  484SOL    HW1 1451   1.818   1.014   1.357  1.8136 -0.8431 -0.2161
  484SOL    HW2 1452   1.777   1.168   1.422 -0.8703  1.8819  1.1958
  485SOL     OW 1453   0.727   1.005   1.788  0.1598  0.9208  0.0032
  485SOL    HW1 1454   0.743   0.981   1.685 -1.2279  1.8656  0.3539
  485SOL    HW2 1455   0.806   1.047   1.838 -0.5084  0.5175  2.8453
  486SOL     OW 1456   0.816   1.897   2.426  0.2145  0.0254 -0.1081
  486SOL    HW1 1457   0.841   1.873   2.522  1.2434  1.9518 -2.2326
  486SOL    HW2 1458   0.791   2.001   2.422 -0.1265  3.1678  4.1291
  487SOL     OW 1459   1.800   1.652   0.967  0.1149  0.1634  0.0286
  487SOL    HW1 1460   1.846   1.557   0.957 -1.0897 -0.2211 -2.6019
  487SOL    HW2 1461   1.844   1.710   0.895  1.7597  0.3603 -1.7708
  488SOL     OW 1462   3.006   0.874   2.214 -0.2680  0.1557  0.1507
  488SOL    HW1 1463   3.051   0.783   2.190 -0.7226  0.3503 -1.0437
  488SOL    HW2 1464   2.982   0.871   2.315  1.9443  1.3248  0.2515
  489SOL     OW 1465   2.774   0.300   1.274 -0.1205  0.4059 -0.2145
  489SOL    HW1 1466   2.775   0.341   1.374  2.8865  1.6529  2.3817
  489SOL    HW2 1467   2.869   0.259   1.251  0.7748 -1.2862  0.3341
  490SOL     OW 1468   1.516   2.953   2.763  0.6355  0.4922  0.4191
  490SOL    HW1 1469   1.527   2.849   2.756  0.3901  0.8153  0.7403
  490SOL    HW2 1470   1.434   2.986   2.710 -1.6021 -0.3533 -0.1594
  491SOL     OW 1471   1.743   1.426   2.613 -0.0173 -0.4339  0.1595
  491SOL    HW1 1472   1.657   1.439   2.672  1.0952 -0.2417 -0.7940
  491SOL    HW2 1473   1.831   1.459   2.663  0.4140 -0.3415  1.3399
  492SOL     OW 1474   0.552   2.130   0.663  0.0751 -0.6277  0.0244
  492SOL    HW1 1475   0.576   2.069   0.746  1.1520 -1.0223 -1.5072
  492SOL    HW2 1476   0.453   2.151   0.659  0.8629 -0.0712 -0.1394
  493SOL     OW 1477   0.415   1.438   2.023 -0.0359 -0.0927 -0.0366
  493SOL    HW1 1478   0.343   1.459   1.947 -0.3771  2.0828  0.3295
  493SOL    HW2 1479   0.399   1.349   2.069  0.1389  2.0637 -1.1025
  494SOL     OW 1480   2.715   2.713   0.148  0.0463 -0.5450  0.4652
  494SOL    HW1 1481   2.726   2.660   0.236  2.9071 -0.4194 -1.5973
  494SOL    HW2 1482   2.625   2.708   0.098  0.0631  1.5122 -0.9503
  495SOL     OW 1483   2.667   2.726   2.721  1.0752 -0.0964  0.7202
  495SOL    HW1 1484   2.634   2.631   2.712  1.6572 -0.9781  0.5334
  495SOL    HW2 1485   2.717   2.766   2.637  0.8493  0.6339 -3.2955
  496SOL     OW 1486   2.076   2.226   0.717  0.1905 -0.1939 -0.3920
  496SOL    HW1 1487   2.108   2.298   0.789  0.7242 -0.0720 -1.6568
  496SOL    HW2 1488   2.068   2.133   0.760 -1.3681  1.9296 -1.3293
  497SOL     OW 1489   0.202   2.988   2.391  0.4457 -0.1429  0.5748
  497SOL    HW1 1490   0.181   3.072   2.450  0.6068 -0.2388 -0.3883
  497SOL    HW2 1491   0.278   3.014   2.320 -0.9291 -0.0028 -0.6959
  498SOL     OW 1492   1.168   1.358   1.177  0.1541 -0.4905  0.0976
  498SOL    HW1 1493   1.274   1.358   1.178  1.6794  1.2587  0.9689
  498SOL    HW2 1494   1.123   1.406   1.258 -0.0776 -0.8661  1.3485
  499SOL     OW 1495   0.654   1.749   0.370  0.2194  0.4273  0.3513
  499SOL    HW1 1496   0.662   1.650   0.335 -1.8929 -0.9532 -1.9159
  499SOL    HW2 1497   0.732   1.786   0.427 -0.2420 -2.7197 -0.5655
  500SOL     OW 1498   1.418   2.842   1.635  0.0727 -0.3291  0.0316
  500SOL    HW1 1499   1.447   2.879   1.726  0.4801 -3.8860 -3.0105
  500SOL    HW2 1500   1.484   2.776   1.580  1.6292 -2.5623  2.3407
  501SOL     OW 1501   0.801   1.105   2.289  0.0748  0.4573  0.7818
  501SOL    HW1 1502   0.708   1.056   2.255 -0.1667 -0.5123 -0.1787
  501SOL    HW2 1503   0.865   1.124   2.212 -2.3020 -1.8686  1.7315
  502SOL     OW 1504   2.568   0.955   1.718 -0.0171  0.7077  0.1109
  502SOL    HW1 1505   2.564   0.969   1.616 -0.1602 -0.4497  0.8124
  502SOL    HW2 1506   2.579   0.856   1.743  2.8520 -1.6271  0.6820
  503SOL     OW 1507   1.339   0.132   0.699  0.2788 -0.5390 -0.0145
  503SOL    HW1 1508   1.296   0.209   0.640  0.2821  2.2234 -0.9338
  503SOL    HW2 1509   1.426   0.163   0.744 -1.1667  0.7945  0.6707
  504SOL     OW 1510   3.023   2.346   1.454 -0.3115  0.1611  0.5049
  504SOL    HW1 1511   2.975   2.438   1.458  0.7613 -1.9193 -0.5579
  504SOL    HW2 1512   3.055   2.316   1.550 -1.5114 -0.2533 -1.4548
  505SOL     OW 1513   2.322   1.190   1.418 -0.5521 -0.0254  0.2805
  505SOL    HW1 1514   2.304   1.221   1.319  0.5172 -0.7685 -1.0325
  505SOL    HW2 1515   2.418   1.222   1.453  4.8090  2.1408  1.0963
  506SOL     OW 1516   1.962   0.209   1.825 -0.0945 -0.4988 -0.1050
  506SOL    HW1 1517   1.967   0.146   1.905 -0.2671 -1.8257  0.2325
  506SOL    HW2 1518   1.959   0.308   1.850 -0.8410  2.1787 -1.3672
  507SOL     OW 1519   0.533   0.659   2.146 -0.9126  0.4099 -0.1542
  507SOL    HW1 1520   0.453   0.614   2.090  0.4898  0.4903  0.7074
  507SOL    HW2 1521   0.617   0.589   2.162  4.0868 -0.4904  0.6765
  508SOL     OW 1522   0.292   1.601   0.745  0.4471 -0.1752  0.2557
  508SOL    HW1 1523   0.355   1.670   0.702 -1.9532  0.6311  0.2161
  508SOL    HW2 1524   0.272   1.626   0.843 -1.7803 -2.2546 -2.4228
  509SOL     OW 1525   1.200   1.238   2.357 -0.5136  0.2697 -0.2709
  509SOL    HW1 1526   1.224   1.221   2.267 -1.2073  0.9237  0.6049
  509SOL    HW2 1527   1.116   1.184   2.388 -0.8864  0.4220 -2.5689
  510SOL     OW 1528   1.254   2.100   2.210  0.2727 -0.5682  0.6361
  510SOL    HW1 1529   1.262   2.156   2.122 -0.5666 -0.6971 -0.8569
  510SOL    HW2 1530   1.168   2.033   2.208 -1.4420 -0.9208 -1.0129
  511SOL     OW 1531   3.017   2.703   1.332 -0.1590  0.2691 -0.3976
  511SOL    HW1 1532   3.021   2.709   1.232  0.3131 -1.2431  1.3767
  511SOL    HW2 1533   2.924   2.723   1.372 -2.3910  0.7086  0.3870
  512SOL     OW 1534   2.370   0.436   1.373  0.1397 -0.1241  0.2888
  512SOL    HW1 1535   2.272   0.441   1.379  1.0535  0.6410 -0.9101
  512SOL    HW2 1536   2.388   0.376   1.291  1.1218  0.2580 -0.3834
  513SOL     OW 1537   2.612   2.098   0.901 -0.7948  0.2488  0.2236
  513SOL    HW1 1538   2.579   2.177   0.843 -0.5000 -1.1593  1.8805
  513SOL    HW2 1539   2.669   2.022   0.849  1.3895 -1.5257  2.1516
  514SOL     OW 1540   0.620   2.739   0.480  0.3133  0.3127  0.1944
  514SOL    HW1 1541   0.645   2.802   0.400 -2.0402 -1.1823  0.3055
  514SOL    HW2 1542   0.638   2.785   0.572  0.4791  0.0917  0.7810
  515SOL     OW 1543   1.953   1.255   2.371  0.0979 -0.4866  0.0351
  515SOL    HW1 1544   1.997   1.212   2.294 -1.6811 -0.9626 -0.4405
  515SOL    HW2 1545   1.858   1.235   2.392  1.4770  0.7073  1.8087
  516SOL     OW 1546   0.267   0.229   1.922  0.1161  0.0914 -0.1417
  516SOL    HW1 1547   0.361   0.193   1.907 -2.1741  2.5061  0.6838
  516SOL    HW2 1548   0.195   0.156   1.907 -0.9420 -0.0800 -0.4336
  517SOL     OW 1549   0.433   0.027   1.141 -1.2404 -0.0426 -0.6654
  517SOL    HW1 1550   0.463   0.097   1.210  2.1660  0.4137  0.8250
  517SOL    HW2 1551   0.341  -0.013   1.157 -1.0116 -1.9517 -0.9511
  518SOL     OW 1552   2.173   3.039   1.801  0.0582  0.1464  0.1895
  518SOL    HW1 1553   2.227   3.124   1.805  1.9085  0.8970 -2.0625
  518SOL    HW2 1554   2.186   2.987   1.710  0.4386  0.3688 -1.2922
  519SOL     OW 1555   2.392   2.147   2.474  0.2639 -0.5454  0.4762
  519SOL    HW1 1556   2.331   2.118   2.557  2.2743 -0.6463  2.6877
  519SOL    HW2 1557   2.382   2.246   2.453 -1.2516 -1.2516  0.6741
  520SOL     OW 1558   1.861   2.732   1.769 -0.1841  0.1323  0.5585
  520SOL    HW1 1559   1.763   2.690   1.768 -1.4874  2.0244  0.9780
  520SOL    HW2 1560   1.930   2.678   1.711 -0.5808 -0.9493  1.3877
  521SOL     OW 1561   0.561   3.049   2.070 -0.1159 -0.1474 -0.7936
  521SOL    HW1 1562   0.471   3.095   2.095  0.8194 -0.6574  0.7097
  521SOL    HW2 1563   0.607   3.027   2.158  0.8764  2.2923 -0.2961
  522SOL     OW 1564   0.247   1.865   1.486  0.0280  0.4794 -0.7810
  522SOL    HW1 1565   0.268   1.939   1.558 -0.7456  1.2910 -0.8968
  522SOL    HW2 1566   0.192   1.908   1.407 -1.0812 -2.2930  0.6033
  523SOL     OW 1567   2.228   2.936   1.545 -0.0714 -0.4739 -0.1678
  523SOL    HW1 1568   2.327   2.895   1.546 -0.4973  0.5282  0.3541
  523SOL    HW2 1569   2.159   2.877   1.487 -2.4852  0.2609  1.3990
  524SOL     OW 1570   0.189   2.783   2.794  0.0970 -0.0705  0.7297
  524SOL    HW1 1571   0.143   2.878   2.819 -1.3273  2.3736  0.4414
  524SOL    HW2 1572   0.295   2.791   2.788  0.5154 -0.0630  0.4353
  525SOL     OW 1573   2.147   2.013   0.382 -0.0691  0.8491  0.1049
  525SOL    HW1 1574   2.176   1.957   0.464 -3.0733  2.3713 -1.0328
  525SOL    HW2 1575   2.176   1.961   0.294 -0.8378 -1.3214 -0.7801
  526SOL     OW 1576   0.474   1.494   1.650  0.4524 -0.4870  0.3682
  526SOL    HW1 1577   0.539   1.537   1.714 -0.4820  1.1687  0.2260
  526SOL    HW2 1578   0.505   1.406   1.601 -0.5241  1.1688 -1.9336
  527SOL     OW 1579   1.020   2.858   1.200 -0.1248  0.3412  1.0595
  527SOL    HW1 1580   1.096   2.797   1.230 -1.2860  0.6674 -1.6943
  527SOL    HW2 1581   1.042   2.961   1.196  1.7389 -1.2186  0.9569
  528SOL     OW 1582   1.356   2.362   0.547 -0.0114 -0.0919 -0.1222
  528SOL    HW1 1583   1.403   2.268   0.535 -1.8570  1.8546 -1.3129
  528SOL    HW2 1584   1.421   2.440   0.562 -0.7830  0.1472 -0.6027
  529SOL     OW 1585   1.963   1.766   0.707 -0.1466  0.3988  0.2448
  529SOL    HW1 1586   1.904   1.742   0.624 -0.7495 -2.4056  3.0819
  529SOL    HW2 1587   1.957   1.860   0.748  3.0760  0.8906  2.2034
  530SOL     OW 1588   0.334   2.614   0.240 -0.2843  0.1101  0.6702
  530SOL    HW1 1589   0.371   2.678   0.318 -2.5423  2.5752  1.2255
  530SOL    HW2 1590   0.380   2.523   0.237 -0.8700  2.1714 -1.9056
  531SOL     OW 1591   1.834   1.019   1.030 -0.3302  0.0570 -0.0782
  531SOL    HW1 1592   1.829   1.058   0.935 -0.5256 -0.6826  1.1610
  531SOL    HW2 1593   1.748   0.974   1.070 -2.1013  3.1276 -0.9869
  532SOL     OW 1594   0.380   1.201   0.689  0.1211  0.2096 -0.4511
  532SOL    HW1 1595   0.426   1.189   0.593  0.9242 -2.6535  0.7468
  532SOL    HW2 1596   0.348   1.110   0.730  1.0489  0.0589 -2.0699
  533SOL     OW 1597   1.773   0.045   2.557  0.5803 -0.1634  0.2451
  533SOL    HW1 1598   1.868   0.016   2.569 -0.5364  0.3238  0.9721
  533SOL    HW2 1599   1.737   0.110   2.627 -1.2750 -3.5893 -0.6435
  534SOL     OW 1600   0.323   0.175   1.544 -0.2133 -0.6159  0.7734
  534SOL    HW1 1601   0.397   0.194   1.468  3.6040 -1.0945  2.9188
  534SOL    HW2 1602   0.290   0.264   1.593 -2.0284 -0.0602  2.4872
  535SOL     OW 1603   1.924   0.429   0.240  0.0136  0.1306  0.3082
  535SOL    HW1 1604   1.943   0.503   0.310 -0.7948 -2.4517 -1.6866
  535SOL    HW2 1605   1.842   0.373   0.275 -0.0771 -0.3183  0.7016
  536SOL     OW 1606   1.403   2.577   0.954 -0.3652 -0.1898  0.2441
  536SOL    HW1 1607   1.383   2.529   1.044 -0.5131  0.9981 -0.9736
  536SOL    HW2 1608   1.315   2.599   0.908 -1.0225 -0.0943  2.5834
  537SOL     OW 1609   0.816   0.172   2.331  0.2212 -0.0585  0.0354
  537SOL    HW1 1610   0.868   0.233   2.267 -1.2164  0.7279 -1.1393
  537SOL    HW2 1611   0.746   0.117   2.278  0.7467 -0.4951 -1.0546
  538SOL     OW 1612   1.700   2.328   1.528  0.0777  0.7542 -0.3085
  538SOL    HW1 1613   1.654   2.235   1.515 -0.7365  3.0818 -0.0939
  538SOL    HW2 1614   1.785   2.348   1.467  0.3733 -1.6247  0.3949
  539SOL     OW 1615   0.189   1.570   2.718  0.1875 -0.5713 -0.3948
  539SOL    HW1 1616   0.151   1.599   2.621 -1.7577  1.1173 -2.1629
  539SOL    HW2 1617   0.147   1.627   2.795  0.0801  1.1168  0.3001
  540SOL     OW 1618   2.729   1.710   1.984  0.0768 -0.3254 -0.1892
  540SOL    HW1 1619   2.720   1.617   2.030  1.0310  0.1406  0.0619
  540SOL    HW2 1620   2.649   1.777   2.006 -1.0609 -1.7539  1.9362
  541SOL     OW 1621   0.458   2.293   3.072 -0.2260  0.3479 -0.1233
  541SOL    HW1 1622   0.496   2.241   3.152  0.3304 -0.6180 -0.6806
  541SOL    HW2 1623   0.357   2.285   3.052 -4.3081  0.5151 -0.7925
  542SOL     OW 1624   2.264   2.581   0.383  0.2700 -0.0809  0.2589
  542SOL    HW1 1625   2.240   2.681   0.362 -2.4425 -1.2571 -3.0951
  542SOL    HW2 1626   2.183   2.536   0.430 -0.5886 -1.2277 -0.5791
  543SOL     OW 1627   1.089   1.764   1.651  0.4156 -0.0035  0.3607
  543SOL    HW1 1628   1.054   1.786   1.745  1.0042 -0.7216 -1.4964
  543SOL    HW2 1629   1.053   1.831   1.578  0.6796  0.6428  0.3020
  544SOL     OW 1630   1.014   0.423   0.218 -0.2238  0.2554  0.1620
  544SOL    HW1 1631   1.006   0.336   0.262  1.5094  2.8947  1.8514
  544SOL    HW2 1632   1.018   0.422   0.118  3.2261  0.3885  2.0335
  545SOL     OW 1633   1.096   1.786   0.846 -0.2383  0.6913 -0.5277
  545SOL    HW1 1634   1.183   1.828   0.806  1.5055 -1.1388  1.5364
  545SOL    HW2 1635   1.118   1.713   0.918  0.5588  1.3969  0.9055
  546SOL     OW 1636   2.640   1.552   3.089  0.4038 -0.8875  0.2142
  546SOL    HW1 1637   2.597   1.542   2.988  1.0019 -4.8584 -0.3589
  546SOL    HW2 1638   2.578   1.529   3.169 -0.1292 -1.1193 -0.2896
  547SOL     OW 1639   0.559   0.011   2.680 -0.0607 -0.5191  0.4438
  547SOL    HW1 1640   0.651  -0.031   2.647 -0.2653 -0.8247  0.1658
  547SOL    HW2 1641   0.476  -0.060   2.680 -0.7001 -2.6058 -0.7203
  548SOL     OW 1642   2.090   0.841   3.025  0.5618 -0.0900 -0.7513
  548SOL    HW1 1643   1.999   0.808   2.985  0.4450 -1.8265 -1.6015
  548SOL    HW2 1644   2.101   0.940   3.038 -2.5518 -2.4583  0.3955
  549SOL     OW 1645   0.679   0.517   0.197  0.3686 -0.0659  0.5399
  549SOL    HW1 1646   0.651   0.579   0.114 -1.9403  0.5852 -0.3504
  549SOL    HW2 1647   0.765   0.547   0.241 -3.8947 -2.8822  2.6242
  550SOL     OW 1648   2.469   2.842   2.877 -0.2884 -0.3192  0.6558
  550SOL    HW1 1649   2.465   2.770   2.948 -0.1245  2.8476 -1.0490
  550SOL    HW2 1650   2.532   2.816   2.800  0.8985  0.8114  1.2053
  551SOL     OW 1651   0.283   0.901   0.223 -0.3629  0.5844 -0.3763
  551SOL    HW1 1652   0.364   0.844   0.196 -1.4626 -1.2772 -1.9886
  551SOL    HW2 1653   0.246   0.888   0.323 -1.1366  1.5801  2.1496
  552SOL     OW 1654   0.722   2.986   1.838  0.3152 -0.2928  0.1413
  552SOL    HW1 1655   0.706   2.997   1.942 -1.2382 -0.5140  1.5418
  552SOL    HW2 1656   0.803   3.038   1.801  2.1103  1.8331 -2.2855
  553SOL     OW 1657   3.008   2.555   0.333 -0.3228 -0.0832 -0.2919
  553SOL    HW1 1658   2.978   2.454   0.337  1.1741 -2.5795 -1.0748
  553SOL    HW2 1659   3.016   2.596   0.425  2.5412  0.0397  0.3897
  554SOL     OW 1660   2.117   0.374   0.600  0.5748 -0.1065  0.0090
  554SOL    HW1 1661   2.201   0.345   0.551 -1.2901  0.3884 -1.1197
  554SOL    HW2 1662   2.071   0.294   0.644  2.3199  0.1882  1.4068
  555SOL     OW 1663   0.413   2.814   2.519 -0.1491 -0.7134  0.5584
  555SOL    HW1 1664   0.334   2.866   2.481  1.5717 -3.0521  1.7249
  555SOL    HW2 1665   0.460   2.764   2.440 -0.4053 -3.5315 -0.4768
  556SOL     OW 1666   0.781   2.405   1.526  0.0503  0.1843 -0.3892
  556SOL    HW1 1667   0.850   2.472   1.567 -1.0496 -0.1673 -0.9812
  556SOL    HW2 1668   0.811   2.347   1.443 -1.4183 -0.4866 -1.8084
  557SOL     OW 1669   0.107   2.044   0.161  0.2059  0.6399 -0.6067
  557SOL    HW1 1670   0.018   1.999   0.125 -1.9527 -1.6727  2.0774
  557SOL    HW2 1671   0.165   2.096   0.093 -0.5086  0.6400 -1.9600
  558SOL     OW 1672   2.934   2.301   0.289  0.1188 -0.4228  0.0800
  558SOL    HW1 1673   2.836   2.276   0.315  0.7082 -1.3223  1.6441
  558SOL    HW2 1674   2.949   2.289   0.186 -1.8205  0.0114 -1.7798
  559SOL     OW 1675   0.394   2.310   1.360  0.4849 -0.1871  0.2370
  559SOL    HW1 1676   0.288   2.304   1.337  0.0909  0.5305 -0.3770
  559SOL    HW2 1677   0.458   2.245   1.306 -0.2622 -0.8889 -1.9938
  560SOL     OW 1678   2.096   1.139   3.074 -0.2699  0.3861  0.1378
  560SOL    HW1 1679   2.003   1.181   3.093 -0.0527 -0.4533 -2.2274
  560SOL    HW2 1680   2.178   1.204   3.081  0.0884  0.2946 -2.0482
  561SOL     OW 1681   3.006   1.881   0.012 -0.2146  0.3675 -0.2588
  561SOL    HW1 1682   2.939   1.827   0.064  0.4270  0.1507  1.3898
  561SOL    HW2 1683   2.962   1.968  -0.020 -1.6957  0.7592 -1.6829
  562SOL     OW 1684   1.044   2.276   2.344 -0.1557 -0.3543 -0.6998
  562SOL    HW1 1685   0.966   2.233   2.402  0.6676  3.2781 -3.8346
  562SOL    HW2 1686   1.035   2.374   2.347  1.4236 -1.8573 -0.5736
  563SOL     OW 1687   0.719   2.563   2.597 -0.0310 -0.5728  0.8460
  563SOL    HW1 1688   0.786   2.483   2.607 -1.7383  1.3902  0.4317
  563SOL    HW2 1689   0.683   2.598   2.692  0.2688  0.0557  1.3068
  564SOL     OW 1690   2.746   1.317   2.962 -0.4828 -0.1647  0.1742
  564SOL    HW1 1691   2.675   1.359   3.023  1.2028  2.1392  2.4985
  564SOL    HW2 1692   2.790   1.380   2.891 -0.3543 -0.5928  0.4261
  565SOL     OW 1693   2.571   1.964   2.608 -0.6281  0.6372 -0.1383
  565SOL    HW1 1694   2.518   2.031   2.551  0.1270  0.5994  0.9671
  565SOL    HW2 1695   2.638   2.010   2.674 -1.6268  1.3900  1.0018
  566SOL     OW 1696   1.996   2.825   1.395  1.0295 -0.1453  0.2516
  566SOL    HW1 1697   1.944   2.732   1.380  2.6632 -0.2571 -0.8245
  566SOL    HW2 1698   1.970   2.889   1.322  1.4099 -2.1587 -0.5761
  567SOL     OW 1699   2.496   0.083   2.265 -0.5185  0.6172  0.2332
  567SOL    HW1 1700   2.495   0.147   2.185  2.4070 -0.1891 -0.6648
  567SOL    HW2 1701   2.398   0.077   2.306 -2.9314 -1.0846 -1.2827
  568SOL     OW 1702   1.538   1.790   0.312 -0.5655  0.1290  0.0227
  568SOL    HW1 1703   1.474   1.850   0.253 -2.1822  0.3981 -0.5427
  568SOL    HW2 1704   1.638   1.802   0.292  0.1916 -2.1351 -2.0360
  569SOL     OW 1705   0.278   0.678   0.772 -0.0498 -0.3946  0.0875
  569SOL    HW1 1706   0.357   0.613   0.743  1.3963 -0.8221  2.5327
  569SOL    HW2 1707   0.187   0.637   0.796 -0.0063  0.5391  2.4095
  570SOL     OW 1708   0.600   0.844   2.854 -0.1498  0.4453  0.4017
  570SOL    HW1 1709   0.691   0.837   2.802  0.0205  0.0811 -1.7034
  570SOL    HW2 1710   0.608   0.912   2.928 -2.4531  0.9216  0.7769
  571SOL     OW 1711   0.779   3.097   1.022  0.0392 -0.5977 -0.2202
  571SOL    HW1 1712   0.822   3.108   0.926 -2.5245 -0.4689  0.4746
  571SOL    HW2 1713   0.723   3.010   1.028 -3.1389 -0.1646 -1.7577
  572SOL     OW 1714   1.576   2.611   1.283 -0.2900  0.5540  0.4686
  572SOL    HW1 1715   1.495   2.577   1.235  3.1936 -1.8457  0.5181
  572SOL    HW2 1716   1.591   2.714   1.280  0.7189 -1.3487 -3.0660
  573SOL     OW 1717   2.881   0.460   2.058  0.3369 -0.2527 -0.0371
  573SOL    HW1 1718   2.856   0.367   2.084 -1.6527  1.5277  0.2866
  573SOL    HW2 1719   2.803   0.518   2.021  1.3317 -0.0994  1.8418
  574SOL     OW 1720   0.204   1.703   1.024 -0.2078  0.2409  0.3194
  574SOL    HW1 1721   0.173   1.802   1.007 -1.6510 -0.6917  1.3870
  574SOL    HW2 1722   0.123   1.640   1.052  0.6619 -1.6946  0.0390
  575SOL     OW 1723   0.924   2.161   0.973 -0.7909 -0.0736 -0.4648
  575SOL    HW1 1724   0.864   2.201   1.047  2.6010 -2.0442  1.3669
  575SOL    HW2 1725   0.948   2.232   0.901  0.1810 -0.4376 -0.0838
  576SOL     OW 1726   2.883   3.005   1.695 -0.5324  0.1172  0.3291
  576SOL    HW1 1727   2.780   2.982   1.688 -2.2474  0.5576  0.9000
  576SOL    HW2 1728   2.901   3.105   1.674  0.5671  0.4115  0.6161
  577SOL     OW 1729   2.512   1.250   0.028 -0.3329  0.1145 -0.1981
  577SOL    HW1 1730   2.532   1.174  -0.039  2.9013  1.9871  1.8903
  577SOL    HW2 1731   2.595   1.257   0.090  1.6533 -0.5885 -0.4061
  578SOL     OW 1732   1.336   2.771   2.468  0.3875  0.3751 -0.3938
  578SOL    HW1 1733   1.239   2.808   2.474  2.0977 -1.2794 -1.4224
  578SOL    HW2 1734   1.410   2.842   2.476 -1.9125  1.1845 -0.3763
  579SOL     OW 1735   0.083   2.507   0.126  0.2398  0.3103  0.1573
  579SOL    HW1 1736   0.008   2.538   0.193  0.2088  1.4345 -1.4065
  579SOL    HW2 1737   0.179   2.533   0.159 -0.9150 -2.8141 -1.3855
  580SOL     OW 1738   1.028   2.639   0.424  0.4511  0.3473 -0.3100
  580SOL    HW1 1739   1.107   2.656   0.358 -4.1175  0.1543 -1.2282
  580SOL    HW2 1740   0.953   2.588   0.381 -2.5277  1.5118 -0.1558
  581SOL     OW 1741   1.260   2.601   1.497  0.3329  0.7334 -0.3873
  581SOL    HW1 1742   1.336   2.532   1.510 -2.0196  2.0862  0.4838
  581SOL    HW2 1743   1.296   2.696   1.525 -0.8446 -0.0490 -0.1455
  582SOL     OW 1744   1.499   0.092   1.863 -0.0744  0.1910  0.1908
  582SOL    HW1 1745   1.539   0.173   1.918  1.1623  1.2936 -2.6259
  582SOL    HW2 1746   1.560   0.062   1.784 -0.8074 -1.6063 -1.6001
  583SOL     OW 1747   2.501   3.078   0.513 -0.3306  0.4795  0.4465
  583SOL    HW1 1748   2.591   3.062   0.461 -1.2786 -0.1183  2.0080
  583SOL    HW2 1749   2.445   2.993   0.534  0.4594 -2.2512 -0.5481
  584SOL     OW 1750   1.580   0.904   2.092  0.0284 -0.2365 -0.1643
  584SOL    HW1 1751   1.654   0.956   2.044 -2.9192  1.5943  2.6911
  584SOL    HW2 1752   1.603   0.861   2.187 -0.0410 -3.2906 -0.7752
  585SOL     OW 1753   2.103   2.660   2.895  0.2291  0.0729 -0.0295
  585SOL    HW1 1754   2.121   2.556   2.869  2.5044 -2.9834 -1.2478
  585SOL    HW2 1755   2.004   2.688   2.889  1.1426 -1.8983 -0.6815
  586SOL     OW 1756   2.815   0.383   1.536  0.4027  0.7177  0.2547
  586SOL    HW1 1757   2.809   0.462   1.605  2.1123 -1.7959 -1.1223
  586SOL    HW2 1758   2.744   0.304   1.556  0.2990 -0.9303 -3.1340
  587SOL     OW 1759   1.976   1.557   2.700  0.0556  0.2339 -0.3777
  587SOL    HW1 1760   2.045   1.516   2.628  2.3114  0.0999  0.0993
  587SOL    HW2 1761   2.006   1.554   2.800  1.7312 -0.7004  1.1657
  588SOL     OW 1762   0.476   2.702   2.253  0.1201  0.2793 -0.1041
  588SOL    HW1 1763   0.381   2.691   2.216  2.6673  2.8276 -0.3884
  588SOL    HW2 1764   0.509   2.614   2.298 -0.4066 -0.5672 -1.5164
  589SOL     OW 1765   2.139   1.424   2.511  0.2796 -0.3381  0.2304
  589SOL    HW1 1766   2.069   1.364   2.460 -0.6098 -2.3039 -0.4782
  589SOL    HW2 1767   2.224   1.374   2.548 -0.2977  0.0126  0.2710
  590SOL     OW 1768   2.335   1.665   2.047  0.1581  0.4434 -0.2310
  590SOL    HW1 1769   2.422   1.611   2.026 -0.2765 -1.8535 -2.4975
  590SOL    HW2 1770   2.337   1.717   2.136 -1.2436  1.8917 -0.5378
  591SOL     OW 1771   1.323   2.373   0.269 -0.2302  0.0073  0.0584
  591SOL    HW1 1772   1.391   2.307   0.226 -0.6903 -0.2146  0.3467
  591SOL    HW2 1773   1.316   2.363   0.373 -0.2505 -1.3577  1.5349
  592SOL     OW 1774   1.799   2.289   0.744  0.2783  0.0679 -0.6777
  592SOL    HW1 1775   1.792   2.348   0.660 -0.6033 -3.1347 -0.2324
  592SOL    HW2 1776   1.898   2.256   0.759  0.9338  0.4339 -0.1842
  593SOL     OW 1777   0.711   0.245   0.242 -0.0341 -0.3366  0.0575
  593SOL    HW1 1778   0.740   0.206   0.151  1.3484  0.8560  2.3526
  593SOL    HW2 1779   0.701   0.350   0.238  0.4782  0.1688 -0.8130
  594SOL     OW 1780   0.952   1.878   2.699  0.1318  0.2307  0.2728
  594SOL    HW1 1781   1.053   1.854   2.717 -0.7385 -1.2027 -1.6162
  594SOL    HW2 1782   0.929   1.972   2.726  1.3714 -1.7489  0.0987
  595SOL     OW 1783   1.574   0.059   1.081 -0.8339  0.4540 -0.3265
  595SOL    HW1 1784   1.647   0.020   1.022 -1.2754 -0.7876 -1.4088
  595SOL    HW2 1785   1.477   0.022   1.061 -0.8625  1.3907  2.3094
  596SOL     OW 1786   0.007   1.418   2.250 -0.0103  0.3181  0.1045
  596SOL    HW1 1787  -0.037   1.326   2.264  0.0717  2.2393 -3.4895
  596SOL    HW2 1788   0.034   1.468   2.333 -0.0302  1.0475 -0.4577
  597SOL     OW 1789   1.999   2.542   1.629  0.0057  0.2685  0.6183
  597SOL    HW1 1790   1.978   2.472   1.554 -1.7412 -2.0698 -2.7941
  597SOL    HW2 1791   2.097   2.528   1.657  3.5829  0.6829  0.1049
  598SOL     OW 1792   2.515   2.958   1.268  0.1823  0.0357 -0.0766
  598SOL    HW1 1793   2.597   2.988   1.326 -0.5964  2.0387  0.2409
  598SOL    HW2 1794   2.545   2.942   1.169  1.1925 -1.8258 -1.3956
  599SOL     OW 1795   2.948   0.328   2.498 -0.4486 -0.2604 -0.1148
  599SOL    HW1 1796   3.045   0.359   2.481 -1.6782 -1.1951 -2.7143
  599SOL    HW2 1797   2.878   0.396   2.476  1.5310  0.7993  2.1997
  600SOL     OW 1798   2.807   1.133   2.771  0.3296 -0.2988  0.3269
  600SOL    HW1 1799   2.751   1.051   2.780 -0.5714  0.3992 -0.3600
  600SOL    HW2 1800   2.778   1.212   2.830  3.5514  0.7974 -0.2347
  601SOL     OW 1801   2.978   1.288   1.970 -0.1030  0.4138  0.4110
  601SOL    HW1 1802   2.930   1.326   1.887  0.0946  1.2983 -2.1873
  601SOL    HW2 1803   3.062   1.349   1.985  1.0188 -0.1487  0.1758
  602SOL     OW 1804   1.436   1.750   2.381  0.3180  0.1035 -0.0205
  602SOL    HW1 1805   1.372   1.679   2.336  1.6013  2.0767 -0.4289
  602SOL    HW2 1806   1.537   1.746   2.349  2.0741 -0.9113 -1.7747
  603SOL     OW 1807   0.594   1.202   2.736 -0.0788  0.2943 -0.2464
  603SOL    HW1 1808   0.518   1.153   2.690 -0.9788 -0.0134 -0.2607
  603SOL    HW2 1809   0.684   1.151   2.725  1.8624  0.1868 -0.1402
  604SOL     OW 1810   2.386   1.005   0.152  0.0936  0.1645  0.0046
  604SOL    HW1 1811   2.446   1.086   0.127  0.8911 -0.7225 -1.7554
  604SOL    HW2 1812   2.390   0.935   0.082 -0.8447  1.4369  1.0655
  605SOL     OW 1813   2.525   1.146   1.933  0.2603 -0.5009  0.3182
  605SOL    HW1 1814   2.555   1.046   1.907  3.7404  2.5106 -0.5426
  605SOL    HW2 1815   2.599   1.198   1.989 -1.2173  1.5134  2.1207
  606SOL     OW 1816   1.485   2.529   2.586  0.1417  0.6595 -0.0629
  606SOL    HW1 1817   1.422   2.582   2.529  0.5900 -2.5695  0.1755
  606SOL    HW2 1818   1.480   2.425   2.573  0.0626  0.3308 -1.3796
  607SOL     OW 1819   1.342   1.592   0.340  0.3259 -0.5967 -0.6157
  607SOL    HW1 1820   1.262   1.650   0.369 -2.5146  0.9012 -2.7128
  607SOL    HW2 1821   1.429   1.651   0.336 -1.7818  2.1483 -0.0947
  608SOL     OW 1822   1.426   2.895   0.325 -0.4055 -0.2517  0.4087
  608SOL    HW1 1823   1.516   2.931   0.289  0.4431 -1.6587 -0.8700
  608SOL    HW2 1824   1.375   2.959   0.391 -0.8307  1.1120 -1.2074
  609SOL     OW 1825   1.310   1.368   0.183 -0.6514 -0.7960  0.2723
  609SOL    HW1 1826   1.343   1.446   0.241 -0.6908  1.9224 -0.0406
  609SOL    HW2 1827   1.246   1.403   0.102 -2.2166  2.1878 -1.7671
  610SOL     OW 1828   3.013   1.155   2.205  0.0940  0.2175 -0.0798
  610SOL    HW1 1829   3.002   1.052   2.195 -0.0310 -1.2582 -1.1423
  610SOL    HW2 1830   3.003   1.203   2.112  1.0621  0.4835 -1.4716
  611SOL     OW 1831   2.533   0.294   1.116 -0.2017 -0.1947  0.1050
  611SOL    HW1 1832   2.481   0.219   1.162  0.4187  2.2412  1.9334
  611SOL    HW2 1833   2.631   0.301   1.151  0.5069  0.0160  0.1668
  612SOL     OW 1834   0.754   2.276   1.157 -0.3365  0.1453  0.4820
  612SOL    HW1 1835   0.676   2.215   1.190  0.5743 -1.0608  0.2703
  612SOL    HW2 1836   0.735   2.376   1.164  1.4412 -2.3987  0.8378
  613SOL     OW 1837   0.825   1.368   2.426 -0.3030 -0.0430 -0.3320
  613SOL    HW1 1838   0.809   1.447   2.357  2.2439  3.1103 -1.0397
  613SOL    HW2 1839   0.833   1.276   2.375  2.2668  0.3327 -1.6671
  614SOL     OW 1840   1.558   1.620   1.971 -0.3906 -0.4053  0.6140
  614SOL    HW1 1841   1.511   1.702   2.011 -1.0753  0.1609 -1.8444
  614SOL    HW2 1842   1.641   1.580   2.018 -0.0756  2.0891  2.3179
  615SOL     OW 1843   0.762   1.341   1.718  0.0220  0.5515  0.6850
  615SOL    HW1 1844   0.689   1.290   1.663  3.1967  1.6334 -1.6331
  615SOL    HW2 1845   0.806   1.429   1.670  0.0437  0.6473 -0.0688
  616SOL     OW 1846   1.011   1.644   2.185 -0.6856 -0.2390 -0.6923
  616SOL    HW1 1847   0.920   1.600   2.202  1.7619 -1.5566 -1.4875
  616SOL    HW2 1848   1.009   1.743   2.165 -2.5640 -1.0872  0.9453
  617SOL     OW 1849   2.942   1.568   1.637 -0.0940 -0.1203  0.4099
  617SOL    HW1 1850   2.892   1.488   1.681  1.4083 -0.1454 -0.9938
  617SOL    HW2 1851   2.973   1.540   1.546  2.1668 -0.6151  0.6588
  618SOL     OW 1852   1.888   1.996   1.448 -0.1900 -0.0440  0.2742
  618SOL    HW1 1853   1.921   2.022   1.355 -1.7926  0.3767 -0.3415
  618SOL    HW2 1854   1.869   1.896   1.456 -0.3477  3.1738  2.5959
  619SOL     OW 1855   1.765   0.449   2.400  0.3633  0.7071  0.6830
  619SOL    HW1 1856   1.691   0.487   2.343 -0.9487 -0.3592  1.7321
  619SOL    HW2 1857   1.730   0.367   2.450 -0.8255 -0.1161 -1.8176
  620SOL     OW 1858   2.256   2.966   0.625 -0.5199  0.7419  0.0953
  620SOL    HW1 1859   2.232   3.062   0.657 -0.1542 -3.6212 -2.0019
  620SOL    HW2 1860   2.236   2.896   0.699 -0.0164 -0.2757  1.1092
  621SOL     OW 1861   2.170   1.831   1.314  0.4448  0.3489 -0.0612
  621SOL    HW1 1862   2.171   1.852   1.415  1.1244 -2.4304 -0.4680
  621SOL    HW2 1863   2.110   1.746   1.287 -1.7614 -2.7462 -1.4112
  622SOL     OW 1864   2.253   0.942   1.815 -0.4310 -0.0537  0.4256
  622SOL    HW1 1865   2.352   0.950   1.779  0.0046 -2.3290 -1.9537
  622SOL    HW2 1866   2.237   0.855   1.867  0.2452 -0.5397 -2.1982
  623SOL     OW 1867   1.323   0.838   2.644  0.2605  0.1282 -0.1347
  623SOL    HW1 1868   1.298   0.737   2.648  1.1310 -0.0001 -0.0754
  623SOL    HW2 1869   1.271   0.888   2.568 -0.6577  2.5402  1.2635
  624SOL     OW 1870   0.589   0.672   3.083  0.2030  0.3282 -0.2104
  624SOL    HW1 1871   0.575   0.698   2.986  0.4026  1.4248 -0.1924
  624SOL    HW2 1872   0.571   0.749   3.152  2.2061 -1.1661 -1.0171
  625SOL     OW 1873   2.815   1.695   0.967  0.4102 -0.1168 -0.1273
  625SOL    HW1 1874   2.738   1.761   0.980  1.6629  0.6469  2.7621
  625SOL    HW2 1875   2.868   1.705   0.876  0.1545  0.6638 -1.7276
  626SOL     OW 1876   0.601   2.734   1.772  0.0148  0.8188  0.7761
  626SOL    HW1 1877   0.633   2.812   1.832 -1.4005 -0.5429 -0.5352
  626SOL    HW2 1878   0.497   2.726   1.770  1.0444  1.8946  0.0788
  627SOL     OW 1879   0.774   0.999   1.508 -0.8056  0.5308  0.5102
  627SOL    HW1 1880   0.776   0.952   1.421  2.5993 -1.0943  2.1084
  627SOL    HW2 1881   0.835   1.084   1.499 -1.4107  1.8527 -0.5905
  628SOL     OW 1882   2.387   0.165   0.710 -0.5245 -0.0925  0.2518
  628SOL    HW1 1883   2.429   0.119   0.626 -2.3819 -1.1300 -1.0757
  628SOL    HW2 1884   2.281   0.161   0.728  2.4092 -1.1716 -0.0292
  629SOL     OW 1885   1.954   0.893   1.978  0.0644 -0.3798 -0.0595
  629SOL    HW1 1886   2.037   0.896   1.918 -1.6982  1.6177 -0.8447
  629SOL    HW2 1887   1.934   0.986   2.024  1.7365 -2.7905 -1.0745
  630SOL     OW 1888   2.914   2.236   0.843  0.1137  0.6863  0.3194
  630SOL    HW1 1889   2.843   2.311   0.852  1.7010  1.2778 -0.7418
  630SOL    HW2 1890   2.864   2.147   0.828  2.7981  1.0323 -1.8538
  631SOL     OW 1891   2.974   0.153   2.118 -0.2334 -0.4136  0.1322
  631SOL    HW1 1892   3.030   0.206   2.185 -1.2340  1.6996 -0.9680
  631SOL    HW2 1893   3.029   0.125   2.029  0.7848  1.0944 -0.8739
  632SOL     OW 1894   2.368   2.531   0.653  0.0954 -0.1892  0.4398
  632SOL    HW1 1895   2.435   2.598   0.698  1.6117  0.5404 -1.0815
  632SOL    HW2 1896   2.342   2.554   0.554 -0.7024  1.9612 -2.8557
  633SOL     OW 1897   1.424   1.212   2.575  0.0066 -0.4032 -0.6137
  633SOL    HW1 1898   1.439   1.302   2.629 -0.3947  0.9005 -1.3844
  633SOL    HW2 1899   1.370   1.228   2.489 -0.8720  3.2969  0.8815
  634SOL     OW 1900   0.709   1.992   0.871  0.5328 -1.0372 -0.0399
  634SOL    HW1 1901   0.630   2.039   0.920  1.2604 -1.2754  0.2013
  634SOL    HW2 1902   0.799   2.037   0.896 -0.0226 -1.0023 -0.9573
  635SOL     OW 1903   3.013   2.334   3.097  0.3108 -0.2388  0.1699
  635SOL    HW1 1904   2.943   2.396   3.045  1.5543  1.2031  0.4472
  635SOL    HW2 1905   3.097   2.388   3.131 -0.0259  0.0525  1.1605
  636SOL     OW 1906   2.289   2.725   2.069 -0.6220  0.0888  0.6933
  636SOL    HW1 1907   2.287   2.827   2.093 -1.9684 -1.5736 -1.3578
  636SOL    HW2 1908   2.242   2.663   2.140 -2.6365 -4.2652  1.0387
  637SOL     OW 1909   2.637   0.679   2.033 -0.1391  0.5278  0.5908
  637SOL    HW1 1910   2.612   0.676   1.933 -0.7869  0.9888  3.6488
  637SOL    HW2 1911   2.678   0.773   2.060  0.0445  0.6364  2.7657
  638SOL     OW 1912   2.431   1.782   1.250 -0.2934 -0.1788  0.1920
  638SOL    HW1 1913   2.330   1.772   1.272  0.6439  0.5047  1.2239
  638SOL    HW2 1914   2.495   1.728   1.316  0.6793 -0.7151  0.2561
  639SOL     OW 1915   1.278   2.165   1.729  0.4109  0.3596 -0.0069
  639SOL    HW1 1916   1.323   2.088   1.678 -0.1119  2.3058 -0.7078
  639SOL    HW2 1917   1.180   2.143   1.756 -0.9903  0.9581 -0.0578
  640SOL     OW 1918   0.183   1.154   1.580 -0.0333  0.3919  0.0764
  640SOL    HW1 1919   0.183   1.196   1.675  0.4938  1.4917 -0.3466
  640SOL    HW2 1920   0.277   1.108   1.565  0.4180 -2.8553 -2.5657
  641SOL     OW 1921   2.044   0.177   1.534 -0.0733  0.2504 -0.1849
  641SOL    HW1 1922   2.014   0.208   1.626  1.0312  0.2809 -0.8033
  641SOL    HW2 1923   2.147   0.157   1.537 -0.7964  0.2784  1.6373
  642SOL     OW 1924   2.006   0.055   0.323 -0.4177  0.5729 -0.0160
  642SOL    HW1 1925   2.096   0.063   0.375 -1.2457  0.2805 -2.6598
  642SOL    HW2 1926   1.928   0.088   0.380  1.4420  0.6433 -0.1011
  643SOL     OW 1927   2.956   1.848   2.068 -0.3926 -0.0564  0.1911
  643SOL    HW1 1928   2.886   1.779   2.037  0.9693  0.4476  1.4950
  643SOL    HW2 1929   2.970   1.924   2.001  2.3860 -1.7786 -2.8460
  644SOL     OW 1930   2.234   2.362   1.194  0.0908  0.5653  0.3430
  644SOL    HW1 1931   2.311   2.289   1.175  0.3523  2.9042  1.0998
  644SOL    HW2 1932   2.195   2.356   1.288  1.6953 -2.7592 -2.4335
  645SOL     OW 1933   0.619   0.797   1.275  0.4890  0.2185 -0.4620
  645SOL    HW1 1934   0.528   0.835   1.309 -1.0368  0.7141  3.3146
  645SOL    HW2 1935   0.635   0.787   1.172 -1.5046 -0.1462 -0.7190
  646SOL     OW 1936   1.448   1.874   2.044  0.5450  0.3978 -0.4402
  646SOL    HW1 1937   1.475   1.936   1.966 -1.1965  2.3260 -1.2151
  646SOL    HW2 1938   1.430   1.929   2.132 -1.7406  1.1233 -0.3120
  647SOL     OW 1939   0.801   1.079   0.700  0.2181 -0.0997 -0.7073
  647SOL    HW1 1940   0.857   1.115   0.787 -0.3973  0.6585  2.7464
  647SOL    HW2 1941   0.748   0.989   0.723  1.8649  0.2855  1.2137
  648SOL     OW 1942   0.077   0.220   0.209  0.2131 -0.5001 -0.2806
  648SOL    HW1 1943   0.125   0.171   0.126  0.7674  1.6028  0.4769
  648SOL    HW2 1944   0.085   0.324   0.202  1.5425 -0.5617 -1.1003
  649SOL     OW 1945   3.026   0.247   0.880 -0.4334  0.5797  0.3028
  649SOL    HW1 1946   3.115   0.199   0.861  0.4508  0.5057 -0.2928
  649SOL    HW2 1947   3.037   0.305   0.965  1.1096 -1.4295  3.4110
  650SOL     OW 1948   2.784   0.710   1.469 -0.2877 -0.4274 -0.2686
  650SOL    HW1 1949   2.682   0.696   1.474 -0.5386 -0.6245 -1.7669
  650SOL    HW2 1950   2.809   0.791   1.409 -1.7809 -0.3158 -1.2263
  651SOL     OW 1951   0.911   1.534   1.603  0.0921  0.4779  0.5599
  651SOL    HW1 1952   0.968   1.613   1.637 -1.0829 -0.2281 -1.4274
  651SOL    HW2 1953   0.931   1.524   1.498 -0.7915  1.2818 -3.0553
  652SOL     OW 1954   2.310   2.416   2.496  0.0584 -0.2044  0.1036
  652SOL    HW1 1955   2.208   2.413   2.493  3.1813  3.0154  0.0496
  652SOL    HW2 1956   2.340   2.514   2.492  1.5319 -1.2955  0.4379
  653SOL     OW 1957   2.704   1.232   0.191 -0.0634 -0.1905 -0.2783
  653SOL    HW1 1958   2.732   1.328   0.222  0.3185  2.4206 -0.7861
  653SOL    HW2 1959   2.769   1.158   0.229  2.0173  0.5886  0.3255
  654SOL     OW 1960   1.226   2.245   1.258 -0.2310 -0.4722  0.0727
  654SOL    HW1 1961   1.257   2.171   1.321 -1.4905  1.4475 -0.8703
  654SOL    HW2 1962   1.279   2.248   1.167 -1.0683 -1.9983  0.6784
  655SOL     OW 1963   0.152   0.955   1.971 -0.1181 -0.1529 -0.3487
  655SOL    HW1 1964   0.227   0.905   1.920 -1.7812 -0.7575 -0.7638
  655SOL    HW2 1965   0.148   1.059   1.956 -0.8391  0.6417  0.3565
  656SOL     OW 1966   2.571   2.433   2.650  0.5059  0.2582 -0.4452
  656SOL    HW1 1967   2.655   2.408   2.602 -2.3599  1.5257  0.1202
  656SOL    HW2 1968   2.480   2.397   2.612 -1.5587  0.5307  0.6366
  657SOL     OW 1969   3.004   1.007   1.895 -0.0964  0.2122  0.2881
  657SOL    HW1 1970   2.991   1.106   1.918  0.0304 -0.7019 -0.6634
  657SOL    HW2 1971   3.103   0.981   1.930  1.2604  0.8845  0.4321
  658SOL     OW 1972   1.639   0.194   2.388  0.5847 -0.0315  0.0393
  658SOL    HW1 1973   1.679   0.126   2.457 -1.2778  1.5366 -0.3135
  658SOL    HW2 1974   1.690   0.192   2.295 -1.5134  0.7245  0.0675
  659SOL     OW 1975   1.418   0.612   2.846  0.5412 -0.0754  0.6032
  659SOL    HW1 1976   1.472   0.687   2.889  0.9292 -3.2546  0.3605
  659SOL    HW2 1977   1.312   0.620   2.859 -0.3145 -2.1595  0.7326
  660SOL     OW 1978   1.390   0.341   1.407 -0.7380 -0.2911  0.4783
  660SOL    HW1 1979   1.414   0.396   1.494  2.5163 -2.3715  2.5949
  660SOL    HW2 1980   1.463   0.272   1.392 -2.8386 -0.5395 -0.6833
  661SOL     OW 1981   2.476   1.194   0.659  0.4946  0.3766 -0.2687
  661SOL    HW1 1982   2.475   1.193   0.551 -0.9494 -1.3045 -3.6212
  661SOL    HW2 1983   2.427   1.277   0.697 -0.4660 -1.6053 -0.3699
  662SOL     OW 1984   1.416   0.415   1.747 -0.0637  0.2934  0.3397
  662SOL    HW1 1985   1.337   0.348   1.748 -0.0474  2.1690 -0.6523
  662SOL    HW2 1986   1.448   0.443   1.840  1.7711 -0.3635 -0.9163
  663SOL     OW 1987   0.767   1.546   2.232 -0.7776 -0.4412 -0.0597
  663SOL    HW1 1988   0.695   1.628   2.221 -1.0094  5.6364  1.4214
  663SOL    HW2 1989   0.745   1.469   2.164  2.4045 -1.4308  0.4796
  664SOL     OW 1990   1.632   2.084   1.440  0.7552 -0.0275  0.1747
  664SOL    HW1 1991   1.560   2.031   1.494  1.1912  0.5257 -1.8816
  664SOL    HW2 1992   1.728   2.038   1.447  1.4622 -1.8590  0.9319
  665SOL     OW 1993   2.265   0.672   1.929  0.1654 -0.3732 -0.3885
  665SOL    HW1 1994   2.218   0.581   1.915  2.8352  1.6284 -0.2834
  665SOL    HW2 1995   2.282   0.685   2.029 -0.1810  0.1741 -1.4773
  666SOL     OW 1996   0.428   2.305   0.361 -0.6152  0.2518 -0.0337
  666SOL    HW1 1997   0.482   2.368   0.427  0.3143 -2.5551 -1.6438
  666SOL    HW2 1998   0.329   2.295   0.382  0.1678  1.1499  1.1929
  667SOL     OW 1999   2.026   0.201   1.190 -0.9677  0.4913 -0.0800
  667SOL    HW1 2000   2.050   0.301   1.174  1.0548 -1.7506 -0.1752
  667SOL    HW2 2001   1.942   0.193   1.251  0.9406 -0.5875 -0.0374
  668SOL     OW 2002   2.065   0.464   1.131 -0.0579 -0.1243 -0.0938
  668SOL    HW1 2003   2.119   0.503   1.057 -1.5457  1.1449 -1.5100
  668SOL    HW2 2004   2.082   0.511   1.221  0.3161  1.3838 -0.8900
  669SOL     OW 2005   0.008   2.160   1.031  0.0346  0.2049 -0.7114
  669SOL    HW1 2006  -0.069   2.213   0.980 -0.5903  1.6198 -2.8922
  669SOL    HW2 2007   0.046   2.213   1.118  1.2233  0.4440  4.2501
  670SOL     OW 2008   2.861   2.348   1.973  0.3430  0.0938 -0.7104
  670SOL    HW1 2009   2.785   2.315   2.043 -2.6799 -0.9404  0.5882
  670SOL    HW2 2010   2.848   2.448   1.951  1.6346 -0.4048 -2.1279
  671SOL     OW 2011   1.739   1.704   1.484  0.3383  0.1053 -0.1360
  671SOL    HW1 2012   1.757   1.741   1.384 -0.7453  0.2141 -0.8661
  671SOL    HW2 2013   1.641   1.673   1.494  3.0755 -2.6181  0.5448
  672SOL     OW 2014   0.416   0.626   2.391 -0.1161 -0.1261 -0.0822
  672SOL    HW1 2015   0.479   0.642   2.310  1.2876  2.6948  0.2191
  672SOL    HW2 2016   0.332   0.690   2.389  0.9896 -0.8557  0.2950
  673SOL     OW 2017   0.131   1.187   1.152  0.0712 -0.3726  0.1372
  673SOL    HW1 2018   0.156   1.232   1.244 -0.2851 -0.2252  0.1061
  673SOL    HW2 2019   0.218   1.150   1.110  2.0999 -1.5132  1.6788
  674SOL     OW 2020   1.681   2.936   0.235 -0.4207  0.4239 -0.4594
  674SOL    HW1 2021   1.687   3.019   0.177 -0.6596  2.1592  0.7642
  674SOL    HW2 2022   1.740   2.854   0.205  1.1903  0.0727  3.5331
  675SOL     OW 2023   1.739   0.815   2.339  0.2131  0.3959  0.2268
  675SOL    HW1 2024   1.844   0.808   2.327 -0.0958 -0.9926  3.2322
  675SOL    HW2 2025   1.681   0.732   2.315 -0.1480  0.8825 -0.2891
  676SOL     OW 2026   2.513   1.465   1.963  0.0579 -0.4649  0.5032
  676SOL    HW1 2027   2.517   1.453   1.859 -0.1830 -0.9144 -2.3151
  676SOL    HW2 2028   2.575   1.393   2.009 -0.8281  0.7879  0.1567
  677SOL     OW 2029   1.874   0.656   0.895  0.9684  0.1497 -0.4118
  677SOL    HW1 2030   1.869   0.684   0.991  2.1536 -1.4500 -0.0213
  677SOL    HW2 2031   1.892   0.554   0.883  2.2875 -2.1207 -2.9808
  678SOL     OW 2032   0.033   0.759   1.677 -0.4001  0.1351  0.5521
  678SOL    HW1 2033   0.128   0.770   1.720  2.0498 -0.0370  0.9342
  678SOL    HW2 2034  -0.043   0.758   1.747 -0.4132  1.8229 -1.2475
  679SOL     OW 2035   2.572   1.197   1.101  0.3141  0.2134  0.0999
  679SOL    HW1 2036   2.473   1.237   1.117  1.1010  0.4706 -1.5644
  679SOL    HW2 2037   2.566   1.095   1.089  1.6771  1.8927 -1.9682
  680SOL     OW 2038   2.835   0.592   1.701 -0.5005  0.5592  0.2900
  680SOL    HW1 2039   2.813   0.650   1.619  2.3457  2.2380  2.0662
  680SOL    HW2 2040   2.871   0.650   1.782  1.3055  1.5488 -0.6258
  681SOL     OW 2041   3.010   0.171   1.641  0.0794  0.6137  0.2884
  681SOL    HW1 2042   3.099   0.161   1.597 -4.0995  1.8273  1.7094
  681SOL    HW2 2043   2.954   0.236   1.592  1.4117 -0.2998 -2.7525
  682SOL     OW 2044   0.826   3.095   1.302 -0.3662 -0.4249 -0.1461
  682SOL    HW1 2045   0.735   3.052   1.328  4.2964  0.4662  0.2031
  682SOL    HW2 2046   0.859   3.085   1.205  1.6627 -1.6551  2.5647
  683SOL     OW 2047   1.345   0.232   2.195 -0.0805 -0.1318  0.3876
  683SOL    HW1 2048   1.382   0.246   2.291 -0.8509 -0.7493  0.1108
  683SOL    HW2 2049   1.415   0.252   2.123 -4.4724 -3.2205 -0.2889
  684SOL     OW 2050   1.456   2.112   0.490 -0.1553 -0.5237  0.7485
  684SOL    HW1 2051   1.502   2.029   0.531  0.0632 -0.4058  1.7578
  684SOL    HW2 2052   1.355   2.093   0.467 -0.1287  1.0633  2.3169
  685SOL     OW 2053   2.121   2.035   1.957 -0.4404 -0.5297  0.0944
  685SOL    HW1 2054   2.201   1.999   1.897 -1.4833  1.3424 -0.6218
  685SOL    HW2 2055   2.136   2.018   2.061  0.2223 -0.0852  3.1346
  686SOL     OW 2056   1.527   1.805   2.704 -0.4060 -0.4776  0.1108
  686SOL    HW1 2057   1.561   1.768   2.794 -1.0595  0.0617 -1.1913
  686SOL    HW2 2058   1.596   1.792   2.627 -0.9927  3.7194 -0.5663
  687SOL     OW 2059   1.289   2.479   1.977  0.1084  0.0143 -0.1061
  687SOL    HW1 2060   1.294   2.376   1.987 -4.3866  1.2290 -0.3798
  687SOL    HW2 2061   1.324   2.520   2.060 -2.0233 -3.5440  1.5550
  688SOL     OW 2062   2.081   1.501   1.759 -0.0902  0.4186 -1.1147
  688SOL    HW1 2063   2.170   1.557   1.772  0.5766  0.2993  1.2137
  688SOL    HW2 2064   2.051   1.491   1.662 -0.4793 -1.0963 -3.2878
  689SOL     OW 2065   2.407   1.080   2.714  0.6744 -0.1429 -0.4050
  689SOL    HW1 2066   2.325   1.013   2.734  1.2012  0.1180 -1.3588
  689SOL    HW2 2067   2.455   1.100   2.805  0.0155 -2.5178  0.5529
  690SOL     OW 2068   2.223   2.813   0.025  0.1134 -0.0204 -0.5992
  690SOL    HW1 2069   2.146   2.820  -0.042  1.1178  0.4510 -1.1366
  690SOL    HW2 2070   2.204   2.818   0.128 -0.5179 -0.0400  1.1327
  691SOL     OW 2071   2.604   0.459   2.207 -0.4091 -0.0043 -0.6087
  691SOL    HW1 2072   2.644   0.375   2.160 -1.2544  1.6889  2.9490
  691SOL    HW2 2073   2.612   0.551   2.147  1.6746  0.2072 -0.0718
  692SOL     OW 2074   2.717   1.228   0.747 -0.1281  0.1027 -0.1596
  692SOL    HW1 2075   2.614   1.221   0.726  2.7608  0.3804 -1.1296
  692SOL    HW2 2076   2.739   1.300   0.821 -1.8223  1.1168  1.0390
  693SOL     OW 2077   2.871   2.937   0.624 -0.3867 -0.2972  0.0551
  693SOL    HW1 2078   2.877   3.004   0.706 -1.6430 -1.3322 -0.5589
  693SOL    HW2 2079   2.817   2.964   0.541 -0.4077  0.6527  1.6148
  694SOL     OW 2080   2.361   2.176   0.082 -0.3551  0.2864 -0.2667
  694SOL    HW1 2081   2.368   2.273   0.124  1.8032 -0.7647  2.3235
  694SOL    HW2 2082   2.264   2.145   0.056  0.3565  0.1506  2.6710
  695SOL     OW 2083   0.582   2.995   1.425 -0.2517 -0.1824  0.3960
  695SOL    HW1 2084   0.524   2.913   1.396  1.8155 -0.4799  0.9837
  695SOL    HW2 2085   0.540   3.045   1.507 -0.6651 -2.8114 -1.6991
  696SOL     OW 2086   2.770   1.946   0.731  0.3392 -0.0598  0.5953
  696SOL    HW1 2087   2.854   1.888   0.726 -0.6244 -1.2849  1.0910
  696SOL    HW2 2088   2.745   1.984   0.637 -0.5897 -3.0271 -0.8452
  697SOL     OW 2089   1.597   2.028   1.824  0.1818 -0.3234  0.0093
  697SOL    HW1 2090   1.665   1.969   1.873  0.6239  0.9707 -0.6410
  697SOL    HW2 2091   1.639   2.119   1.799  2.9123  2.4188 -0.1537
  698SOL     OW 2092   2.940   0.434   2.782  0.1810  0.2022 -0.3795
  698SOL    HW1 2093   2.921   0.432   2.676 -1.7208  1.4106 -0.0772
  698SOL    HW2 2094   3.016   0.363   2.802  0.0225 -2.5909  0.4434
  699SOL     OW 2095   1.571   0.076   2.916  0.3485  0.1046 -0.3200
  699SOL    HW1 2096   1.577  -0.023   2.876  0.8876 -0.0799 -2.3129
  699SOL    HW2 2097   1.615   0.150   2.860 -1.4919 -0.5328  3.1817
  700SOL     OW 2098   0.960   2.311   1.325  0.1235 -0.3883 -0.3051
  700SOL    HW1 2099   1.061   2.306   1.300  1.2113 -2.3031 -2.0201
  700SOL    HW2 2100   0.901   2.273   1.248  1.0073  0.8889  0.1453
  701SOL     OW 2101   1.908   2.878   3.064  0.3211 -1.0717 -0.2814
  701SOL    HW1 2102   1.911   2.814   3.147 -2.4833  0.7494  1.5522
  701SOL    HW2 2103   1.938   2.975   3.084  3.3841 -1.1368  2.4814
  702SOL     OW 2104   2.063   1.326   2.007 -0.0336  0.0436  0.2634
  702SOL    HW1 2105   2.149   1.274   1.967  1.0050 -0.5289 -0.6074
  702SOL    HW2 2106   2.059   1.415   1.961  0.0182 -0.5751  2.2597
  703SOL     OW 2107   1.927   0.884   1.431 -0.1555  0.0041 -0.5038
  703SOL    HW1 2108   1.926   0.797   1.488  0.0523 -0.4356  0.3291
  703SOL    HW2 2109   1.992   0.959   1.471 -1.4916  3.6383 -0.8946
  704SOL     OW 2110   0.308   2.057   1.702 -0.0221 -0.1485 -0.8127
  704SOL    HW1 2111   0.345   2.002   1.785 -0.8429  0.9301  0.2970
  704SOL    HW2 2112   0.374   2.138   1.689  0.0181  2.7239 -0.4619
  705SOL     OW 2113   2.523   1.501   0.965 -0.3718 -0.2865  0.4134
  705SOL    HW1 2114   2.478   1.441   0.893 -1.9368 -1.5790  0.3877
  705SOL    HW2 2115   2.623   1.475   0.979 -0.6487  1.4460 -1.4229
  706SOL     OW 2116   0.638   1.625   1.838 -0.0660  0.4278 -0.4450
  706SOL    HW1 2117   0.673   1.534   1.877 -0.6691 -0.4726 -3.3912
  706SOL    HW2 2118   0.682   1.710   1.876 -0.6656 -1.9077 -0.7755
  707SOL     OW 2119   2.267   1.208   1.878  0.1534  0.4450  0.1829
  707SOL    HW1 2120   2.368   1.202   1.907 -0.9341  0.7977  1.9175
  707SOL    HW2 2121   2.238   1.116   1.842  0.8833 -2.7365  1.2407
  708SOL     OW 2122   3.081   0.522   3.067 -0.5890  1.1597 -0.4746
  708SOL    HW1 2123   3.098   0.589   2.991  0.5152 -2.9483 -2.4367
  708SOL    HW2 2124   3.047   0.439   3.020  0.3975  1.6914 -0.5439
  709SOL     OW 2125   1.827   1.842   0.239 -0.2081  0.0695 -0.3089
  709SOL    HW1 2126   1.841   1.938   0.285  1.3074  1.0543  1.1011
  709SOL    HW2 2127   1.807   1.855   0.138 -0.4760 -0.8986 -1.2430
  710SOL     OW 2128   1.759   1.661   2.437  0.0374  0.4830  0.2929
  710SOL    HW1 2129   1.779   1.623   2.341  1.7286  1.8604 -1.3768
  710SOL    HW2 2130   1.786   1.588   2.505  2.7584 -2.6100  0.3309
  711SOL     OW 2131   2.632   2.973   1.000  0.4743  0.2219 -1.0593
  711SOL    HW1 2132   2.615   3.054   0.938  1.5031 -0.4689  1.1488
  711SOL    HW2 2133   2.716   2.987   1.056 -1.4402  0.2464 -1.1422
  712SOL     OW 2134   1.372   2.215   1.991 -0.9056  0.3806 -0.0845
  712SOL    HW1 2135   1.475   2.210   2.007  0.9246  2.6918  1.2431
  712SOL    HW2 2136   1.341   2.191   1.894  0.7860 -0.7227 -2.7486
  713SOL     OW 2137   2.900   1.468   2.536  0.4599 -0.5389  0.0162
  713SOL    HW1 2138   2.867   1.385   2.487 -1.2388  1.4733 -1.8799
  713SOL    HW2 2139   2.872   1.462   2.635  0.6660 -2.9707 -0.0310
  714SOL     OW 2140   2.727   0.505   2.462  0.1667 -0.0746  0.4463
  714SOL    HW1 2141   2.665   0.490   2.542  1.0146 -1.7231  1.5424
  714SOL    HW2 2142   2.677   0.487   2.372 -0.9317 -0.4851 -0.9648
  715SOL     OW 2143   1.575   2.018   1.109  0.2658 -0.4602  0.4213
  715SOL    HW1 2144   1.481   2.045   1.076  2.1778 -0.5666 -2.2211
  715SOL    HW2 2145   1.616   2.090   1.176  0.0142  3.7866 -0.0827
  716SOL     OW 2146   1.210   0.162   1.465  0.8467 -0.2518 -0.3173
  716SOL    HW1 2147   1.116   0.184   1.436 -1.6975  0.0083  0.7960
  716SOL    HW2 2148   1.277   0.239   1.458  2.6257 -1.8816  0.3742
  717SOL     OW 2149   1.159   0.504   1.569 -0.2807 -0.1705  0.2546
  717SOL    HW1 2150   1.250   0.532   1.614  0.4301  1.7117  3.6244
  717SOL    HW2 2151   1.162   0.493   1.464 -2.8681 -0.4091 -0.4771
  718SOL     OW 2152   0.690   0.948   0.987 -0.1792  0.0978 -0.5643
  718SOL    HW1 2153   0.659   0.919   0.893  1.2684  2.5637 -1.9765
  718SOL    HW2 2154   0.682   1.046   1.010  0.2720 -1.0887 -0.9456
  719SOL     OW 2155   0.619   1.788   2.275  0.3168 -0.1568 -0.0295
  719SOL    HW1 2156   0.696   1.820   2.340  1.1948  2.2685 -1.4059
  719SOL    HW2 2157   0.558   1.721   2.315 -0.2781  1.1612 -3.2780
  720SOL     OW 2158   2.190   1.160   0.305 -0.2095 -0.0978 -0.5315
  720SOL    HW1 2159   2.255   1.095   0.261  3.3178 -0.0701 -0.8020
  720SOL    HW2 2160   2.162   1.130   0.400 -0.8775 -1.4036  1.1847
  721SOL     OW 2161   2.262   3.008   2.127 -0.1831 -0.1273  0.2308
  721SOL    HW1 2162   2.236   3.044   2.031 -0.5216 -1.4014  0.8185
  721SOL    HW2 2163   2.183   3.024   2.192 -1.3714 -1.1144 -2.6434
  722SOL     OW 2164   2.379   1.573   0.495  0.5464  0.0822 -0.6806
  722SOL    HW1 2165   2.425   1.526   0.413 -1.8740 -1.9571 -0.2725
  722SOL    HW2 2166   2.375   1.676   0.496  3.0980  0.7012  0.1337
  723SOL     OW 2167   2.553   2.724   1.960  0.3296 -0.1402  0.5731
  723SOL    HW1 2168   2.618   2.781   2.021 -2.1575  0.4467  0.6246
  723SOL    HW2 2169   2.461   2.712   2.009 -1.2669  1.1207  1.3981
  724SOL     OW 2170   0.530   2.488   2.428  0.1635 -0.2811  0.0388
  724SOL    HW1 2171   0.425   2.494   2.444  0.6291 -1.8144  1.4824
  724SOL    HW2 2172   0.592   2.536   2.503  1.8089 -0.1288  0.1417
  725SOL     OW 2173   2.474   2.840   1.515  0.3255  0.0252 -0.3572
  725SOL    HW1 2174   2.475   2.860   1.416  1.8321 -3.6617  1.2444
  725SOL    HW2 2175   2.444   2.740   1.527 -0.4364 -0.8730  1.1468
  726SOL     OW 2176   2.517   2.279   0.713 -0.1115 -0.4974 -0.1381
  726SOL    HW1 2177   2.455   2.364   0.709  1.5152 -0.6432  0.9919
  726SOL    HW2 2178   2.486   2.210   0.649  0.2176 -1.9487 -0.7985
  727SOL     OW 2179   0.156   3.091   0.047  0.2070 -0.4304 -0.1656
  727SOL    HW1 2180   0.181   2.993   0.059 -0.8480 -0.2080  2.5839
  727SOL    HW2 2181   0.092   3.098  -0.037  1.6992  0.6906 -1.1334
  728SOL     OW 2182   2.885   0.650   0.974 -0.5744 -0.2815  0.1117
  728SOL    HW1 2183   2.793   0.652   0.930  1.1670 -2.0378  2.0241
  728SOL    HW2 2184   2.877   0.642   1.081 -2.3414  0.1757 -0.5820
  729SOL     OW 2185   3.048   2.475   0.771 -0.6470 -0.5105 -0.2289
  729SOL    HW1 2186   3.003   2.393   0.804  2.3774 -3.3129 -5.0376
  729SOL    HW2 2187   3.126   2.444   0.706 -0.2469 -1.9059  0.6163
  730SOL     OW 2188   2.621   0.720   0.846  0.1076 -0.8404  0.1357
  730SOL    HW1 2189   2.579   0.816   0.832 -1.7143  2.2156 -0.8761
  730SOL    HW2 2190   2.683   0.697   0.762 -0.5683  1.1526 -2.2573
  731SOL     OW 2191   0.104   2.084   2.510  0.1591  0.4606  0.1711
  731SOL    HW1 2192   0.117   2.126   2.602 -0.6718  0.3658 -0.4604
  731SOL    HW2 2193   0.116   2.151   2.432  2.1895  3.9197  1.3545
  732SOL     OW 2194   1.159   2.814   1.946 -0.5634 -0.2113 -0.2229
  732SOL    HW1 2195   1.187   2.773   2.039 -1.5666 -0.2771 -2.5568
  732SOL    HW2 2196   1.169   2.745   1.869 -1.9014  0.6651  0.1058
  733SOL     OW 2197   3.059   0.586   2.241  0.6219 -0.2500  0.6824
  733SOL    HW1 2198   3.148   0.618   2.191 -0.8143 -2.7660  2.6444
  733SOL    HW2 2199   2.995   0.534   2.177 -0.1861  1.3688 -2.4028
  734SOL     OW 2200   1.422   0.374   2.713 -0.1200 -0.5042  0.3993
  734SOL    HW1 2201   1.409   0.466   2.762  0.3517  0.3408  0.3071
  734SOL    HW2 2202   1.342   0.309   2.730 -0.3351  0.7365  1.4798
  735SOL     OW 2203   2.901   2.653   2.279  0.1521 -0.3099  0.0417
  735SOL    HW1 2204   2.846   2.654   2.192 -1.4807 -1.3477  1.5757
  735SOL    HW2 2205   3.003   2.682   2.267 -0.8928  0.3896  0.6359
  736SOL     OW 2206   0.802   0.309   2.609 -0.0300 -0.0914  0.6979
  736SOL    HW1 2207   0.707   0.329   2.641 -0.1206 -3.2955  3.0143
  736SOL    HW2 2208   0.804   0.270   2.516  0.3168  4.2068 -3.5623
  737SOL     OW 2209   2.686   0.497   2.869 -0.1089  0.3502  0.4248
  737SOL    HW1 2210   2.659   0.452   2.960 -0.7758  1.0900  1.4279
  737SOL    HW2 2211   2.788   0.508   2.850  0.5986 -0.1088  1.0684
  738SOL     OW 2212   1.646   1.256   2.892 -0.0184 -0.2904  0.0351
  738SOL    HW1 2213   1.748   1.244   2.886  0.8636 -0.5460  1.7305
  738SOL    HW2 2214   1.594   1.181   2.846  1.3055  0.8727  0.5029
  739SOL     OW 2215   1.732   0.652   0.653 -0.5217  0.2301 -0.1077
  739SOL    HW1 2216   1.785   0.659   0.746  0.0804 -0.4540  0.5945
  739SOL    HW2 2217   1.779   0.582   0.592 -1.9581  1.6717  1.1110
  740SOL     OW 2218   1.985   1.915   2.267  0.1316 -0.0080 -0.7337
  740SOL    HW1 2219   2.022   1.839   2.320 -2.6167  2.2921  0.4052
  740SOL    HW2 2220   1.892   1.884   2.229  0.3484  0.7897 -1.5248
  741SOL     OW 2221   2.560   0.045   2.572 -0.2975 -0.0844  0.4728
  741SOL    HW1 2222   2.665   0.055   2.579  0.5862  2.5457  1.5538
  741SOL    HW2 2223   2.536   0.041   2.474 -1.8011 -2.0041  2.2345
  742SOL     OW 2224   2.224   1.439   0.219  0.3999  0.4277  0.1424
  742SOL    HW1 2225   2.146   1.511   0.222 -0.6091  3.0755  2.3925
  742SOL    HW2 2226   2.204   1.340   0.256 -1.3113 -1.7455 -0.2491
  743SOL     OW 2227   1.855   0.673   2.630  0.2319 -0.2455 -0.4602
  743SOL    HW1 2228   1.809   0.584   2.595  0.4322 -0.0423 -0.1386
  743SOL    HW2 2229   1.780   0.740   2.634  1.1275  0.8466 -1.2122
  744SOL     OW 2230   2.618   2.125   0.162 -0.4104  0.0263 -0.2320
  744SOL    HW1 2231   2.523   2.116   0.125  0.4646  4.8466 -1.8326
  744SOL    HW2 2232   2.627   2.075   0.256  3.7328 -3.9710  1.3622
  745SOL     OW 2233   2.157   2.617   2.294  0.0883 -0.2252  0.0543
  745SOL    HW1 2234   2.055   2.619   2.299  0.9313 -0.0686  2.1532
  745SOL    HW2 2235   2.194   2.653   2.385  2.0689  1.8060 -2.1713
  746SOL     OW 2236   3.094   2.615   1.734  0.3471  0.2894 -0.3784
  746SOL    HW1 2237   3.173   2.651   1.680  1.7908 -1.6452 -1.3551
  746SOL    HW2 2238   3.057   2.689   1.794  0.9817 -1.0492  0.7061
  747SOL     OW 2239   0.052   1.757   1.676  0.2011 -0.0484 -0.3696
  747SOL    HW1 2240  -0.008   1.676   1.649 -0.6540 -0.3942 -1.2266
  747SOL    HW2 2241   0.129   1.776   1.618  0.6221  0.8417  1.5333
  748SOL     OW 2242   1.838   2.741   2.833  0.1055  0.1498 -0.7093
  748SOL    HW1 2243   1.847   2.814   2.910 -1.6020 -0.4982 -0.0175
  748SOL    HW2 2244   1.739   2.727   2.797 -3.4240  3.4803  4.0663
  749SOL     OW 2245   1.343   3.051   0.957  0.7768 -0.0359  0.5344
  749SOL    HW1 2246   1.245   3.008   0.971 -2.8614 -0.1962  0.0995
  749SOL    HW2 2247   1.379   3.041   0.866 -0.5546  0.7157  0.7766
  750SOL     OW 2248   2.288   0.178   1.905  0.3207  0.1380  0.2433
  750SOL    HW1 2249   2.274   0.253   1.832  1.9990 -0.4530 -0.0373
  750SOL    HW2 2250   2.317   0.219   1.994  0.0164 -2.7294 -1.9338
  751SOL     OW 2251   0.885   2.160   2.801  0.3399  0.3025 -0.0400
  751SOL    HW1 2252   0.950   2.163   2.884  2.5793  2.3425 -0.2395
  751SOL    HW2 2253   0.792   2.121   2.824  2.2026 -1.2092  0.2303
  752SOL     OW 2254   1.314   0.854   1.332 -0.5405  0.0476  0.8258
  752SOL    HW1 2255   1.393   0.922   1.327  1.0579 -3.3468  2.5000
  752SOL    HW2 2256   1.358   0.762   1.348  0.7095  1.6818 -1.2645
  753SOL     OW 2257   0.927   2.604   1.660  0.1931 -0.5141  0.4765
  753SOL    HW1 2258   1.022   2.620   1.690  2.0020  0.6567 -0.5982
  753SOL    HW2 2259   0.885   2.683   1.605 -2.1779  0.5366  1.7299
  754SOL     OW 2260   1.086   1.218   2.985 -0.2339 -0.7479  0.0585
  754SOL    HW1 2261   1.167   1.159   2.951 -0.1895 -1.8635 -3.1783
  754SOL    HW2 2262   1.118   1.312   3.014 -2.5072  1.9295  0.8578
  755SOL     OW 2263   1.999   0.463   2.239 -0.4182  0.1278  0.1241
  755SOL    HW1 2264   2.073   0.415   2.294  1.4320  2.1737  0.2590
  755SOL    HW2 2265   1.901   0.455   2.281 -2.2850  0.0900 -0.5441
  756SOL     OW 2266   2.551   1.047   2.950  0.0156 -0.0764 -0.2462
  756SOL    HW1 2267   2.650   1.065   2.982 -1.2723  0.4832 -1.9225
  756SOL    HW2 2268   2.512   0.952   2.964 -2.0388 -0.8039 -1.3075
  757SOL     OW 2269   0.041   0.525   1.885 -0.0623 -0.3001 -0.5901
  757SOL    HW1 2270   0.109   0.471   1.825  1.5663 -3.6812 -1.2614
  757SOL    HW2 2271  -0.054   0.496   1.860 -0.7269  3.5335 -0.8635
  758SOL     OW 2272   2.360   0.086   1.492  0.8679  0.2624  0.2619
  758SOL    HW1 2273   2.325  -0.010   1.525 -1.3330 -0.5980  1.0349
  758SOL    HW2 2274   2.355   0.101   1.387 -1.2079  0.8123 -3.7943
  759SOL     OW 2275   1.714   0.106   0.056 -0.2111 -0.5730 -0.0448
  759SOL    HW1 2276   1.658   0.089  -0.029 -0.7619 -2.5104  1.8873
  759SOL    HW2 2277   1.816   0.088   0.044  1.7422  0.6894 -0.0843
  760SOL     OW 2278   2.693   2.099   2.822  0.2576  0.8732 -0.0468
  760SOL    HW1 2279   2.721   2.011   2.871 -0.9454 -0.8635  0.6673
  760SOL    HW2 2280   2.657   2.172   2.888 -0.7051 -0.4331 -1.1781
  761SOL     OW 2281   1.895   1.753   1.701  0.0415  0.0893 -0.3039
  761SOL    HW1 2282   1.920   1.658   1.729 -1.5790  2.7521  0.2802
  761SOL    HW2 2283   1.821   1.748   1.622  2.0399 -1.7580  0.5650
  762SOL     OW 2284   0.496   2.363   0.962 -0.3301  0.2621  0.3805
  762SOL    HW1 2285   0.543   2.361   0.874 -0.8820 -0.5275  0.7089
  762SOL    HW2 2286   0.554   2.409   1.034 -2.7745  2.8730 -0.5575
  763SOL     OW 2287   2.102   1.551   2.954 -0.2314 -0.8757 -0.3470
  763SOL    HW1 2288   2.196   1.515   2.945 -3.4716  2.1733 -0.9192
  763SOL    HW2 2289   2.048   1.525   3.035  1.9675 -0.2016 -1.2746
  764SOL     OW 2290   0.666   0.625   0.822  0.3201 -0.3811  0.2364
  764SOL    HW1 2291   0.600   0.545   0.796 -3.1141  2.4032 -0.1744
  764SOL    HW2 2292   0.756   0.591   0.861  0.1685  0.7197  0.4848
  765SOL     OW 2293   0.710   0.254   0.744  0.0429  0.1964  0.0529
  765SOL    HW1 2294   0.802   0.296   0.714  1.5891  2.2226  0.9876
  765SOL    HW2 2295   0.692   0.277   0.839  0.7009  4.7408  0.2940
  766SOL     OW 2296   2.859   2.103   0.026  0.5377 -1.0451  0.0340
  766SOL    HW1 2297   2.763   2.109   0.071  2.5037  1.5581  0.4219
  766SOL    HW2 2298   2.898   2.202   0.010 -1.1546  1.6440 -2.9005
  767SOL     OW 2299   2.805   1.591   0.623  0.5099 -0.1780 -0.0616
  767SOL    HW1 2300   2.726   1.573   0.683  0.6226 -1.4269 -1.3402
  767SOL    HW2 2301   2.856   1.669   0.673 -1.6822 -0.1456 -0.2541
  768SOL     OW 2302   1.030   0.092   0.263  0.0974  1.5262 -0.1429
  768SOL    HW1 2303   0.996   0.082   0.360 -0.0011  0.4257 -2.4180
  768SOL    HW2 2304   1.132   0.117   0.266  3.6843 -1.6694 -0.8875
  769SOL     OW 2305   1.029   1.919   2.245 -0.6887 -0.3238 -0.8902
  769SOL    HW1 2306   0.934   1.913   2.297 -3.2605 -0.4642  0.7886
  769SOL    HW2 2307   1.097   1.867   2.306 -2.1016  3.2973  1.4713
  770SOL     OW 2308   0.192   1.110   2.307 -0.0953  0.0244 -0.2815
  770SOL    HW1 2309   0.177   1.176   2.383  0.2284 -0.3751  1.6547
  770SOL    HW2 2310   0.102   1.091   2.262  0.0561 -2.9547  4.1857
  771SOL     OW 2311   2.983   2.835   1.877  0.3642  0.1537  0.2044
  771SOL    HW1 2312   2.944   2.896   1.804 -0.6622 -1.6315  1.1467
  771SOL    HW2 2313   3.006   2.878   1.969  1.6460 -1.8719  1.1100
  772SOL     OW 2314   2.203   0.221   2.891  0.4831 -0.1757  0.0453
  772SOL    HW1 2315   2.266   0.140   2.910  0.6215 -1.0246  0.4730
  772SOL    HW2 2316   2.163   0.262   2.980 -3.0205  3.5443  2.5597
  773SOL     OW 2317   0.733   2.150   2.440  0.2661  0.2719  0.5665
  773SOL    HW1 2318   0.703   2.204   2.354  0.5486  3.7340 -1.9733
  773SOL    HW2 2319   0.660   2.169   2.515 -0.4308 -0.8602  0.8654
  774SOL     OW 2320   2.039   3.094   2.627 -0.4795  0.1687 -0.3219
  774SOL    HW1 2321   2.052   3.187   2.666  0.8333 -1.9765 -0.3379
  774SOL    HW2 2322   2.091   3.021   2.683  1.2338 -4.3620  1.0420
  775SOL     OW 2323   2.527   2.852   2.388  0.4004 -0.1239  0.5377
  775SOL    HW1 2324   2.458   2.930   2.373 -2.7059 -2.1642 -1.0493
  775SOL    HW2 2325   2.596   2.876   2.462  1.3995 -0.5336  0.8409
  776SOL     OW 2326   3.098   1.292   0.206  0.2605  0.7069  0.1946
  776SOL    HW1 2327   3.041   1.260   0.125  0.8941 -1.5172 -2.6358
  776SOL    HW2 2328   3.050   1.280   0.303  0.5359  1.9357  0.8727
  777SOL     OW 2329   0.328   2.853   0.415 -0.8100 -0.3190 -0.1647
  777SOL    HW1 2330   0.238   2.899   0.402 -1.5886 -0.7889  0.3759
  777SOL    HW2 2331   0.408   2.908   0.394 -3.1212 -0.8910  1.8245
  778SOL     OW 2332   1.334   1.956   0.181 -0.3532 -0.1112  0.1694
  778SOL    HW1 2333   1.271   1.981   0.261 -1.8043  0.7936 -2.1282
  778SOL    HW2 2334   1.399   2.037   0.154  2.5799  1.6898 -1.8705
  779SOL     OW 2335   0.186   0.843   0.486  0.1595 -0.3514 -0.4557
  779SOL    HW1 2336   0.122   0.762   0.479  0.3699  1.1404  0.8086
  779SOL    HW2 2337   0.136   0.924   0.529  1.0940  1.2207 -0.4286
  780SOL     OW 2338   0.128   0.202   2.278  0.1774 -0.3316 -0.5262
  780SOL    HW1 2339   0.183   0.289   2.256 -0.8537 -0.6821 -1.2858
  780SOL    HW2 2340   0.175   0.117   2.242  1.2428  2.1756  2.6347
  781SOL     OW 2341   0.662   1.740   1.553  0.1173  0.8954  0.2789
  781SOL    HW1 2342   0.685   1.708   1.650 -0.6673 -2.0498  1.5972
  781SOL    HW2 2343   0.577   1.687   1.522 -0.1704  0.7266  1.1534
  782SOL     OW 2344   2.602   0.126   0.882  0.2789  0.7591 -0.1642
  782SOL    HW1 2345   2.521   0.131   0.819  4.0340  1.0241 -1.1155
  782SOL    HW2 2346   2.589   0.202   0.958  0.8937  1.9587  0.7860
  783SOL     OW 2347   2.857   0.763   2.586 -0.3939  0.2613  0.6940
  783SOL    HW1 2348   2.802   0.818   2.658 -0.8197 -1.6559  0.8533
  783SOL    HW2 2349   2.808   0.670   2.558 -0.0914 -2.7274  0.2926
  784SOL     OW 2350   1.471   2.172   0.094  0.0888 -0.2571 -0.0003
  784SOL    HW1 2351   1.544   2.237   0.128  0.2983 -2.4509  1.1833
  784SOL    HW2 2352   1.445   2.192  -0.003  0.1981  2.3206 -1.6939
  785SOL     OW 2353   2.130   0.355   0.064 -0.0431  0.3126 -0.4808
  785SOL    HW1 2354   2.063   0.377   0.138  1.7338 -0.3502 -0.1290
  785SOL    HW2 2355   2.168   0.441   0.017 -1.6598  0.7634  3.5463
  786SOL     OW 2356   1.995   2.162   2.179 -0.0125  0.1456 -0.5202
  786SOL    HW1 2357   1.971   2.058   2.191 -1.1616 -3.3575 -0.2606
  786SOL    HW2 2358   2.094   2.184   2.193  2.4038 -1.7719  3.4296
  787SOL     OW 2359   1.408   0.601   1.007  0.0906  0.4162 -0.1324
  787SOL    HW1 2360   1.353   0.683   1.040 -2.8789  1.2308  2.0852
  787SOL    HW2 2361   1.404   0.586   0.905 -2.6295 -0.6628 -0.3344
  788SOL     OW 2362   1.268   0.416   0.026 -0.4546  0.2312 -0.6225
  788SOL    HW1 2363   1.173   0.417  -0.018  0.4594  0.3463 -0.8224
  788SOL    HW2 2364   1.271   0.497   0.098 -0.7508 -1.8241  1.6806
  789SOL     OW 2365   2.552   0.119   1.861  0.4192  0.1979  0.3145
  789SOL    HW1 2366   2.451   0.119   1.881 -3.3728  0.0788 -0.5884
  789SOL    HW2 2367   2.593   0.027   1.822  0.4172  1.8684 -0.7196
  790SOL     OW 2368   2.654   2.767   0.800 -0.3592 -0.2668  0.1012
  790SOL    HW1 2369   2.695   2.812   0.720 -1.6118 -1.6323  3.3750
  790SOL    HW2 2370   2.630   2.825   0.882  2.7413  2.1385  0.9301
  791SOL     OW 2371   1.911   1.223   0.205 -0.0850  0.2412  0.2544
  791SOL    HW1 2372   1.821   1.197   0.250 -0.0742  1.5374 -1.7320
  791SOL    HW2 2373   1.994   1.163   0.229  1.2889  2.0224 -1.9614
  792SOL     OW 2374   0.444   2.005   2.145  0.2094 -0.3273 -0.3423
  792SOL    HW1 2375   0.522   1.990   2.205 -3.3181  3.1718 -0.1446
  792SOL    HW2 2376   0.356   1.988   2.195  0.8610 -0.0125  0.4860
  793SOL     OW 2377   2.108   1.560   2.157 -0.1718 -0.3480  0.4359
  793SOL    HW1 2378   2.187   1.612   2.109  1.8541 -0.4733 -1.5459
  793SOL    HW2 2379   2.113   1.453   2.137 -0.6207 -0.3243 -0.2976
  794SOL     OW 2380   0.450   1.333   2.419 -0.2356 -0.0483 -0.0850
  794SOL    HW1 2381   0.446   1.337   2.317 -0.6545 -0.4080  0.6364
  794SOL    HW2 2382   0.483   1.423   2.459  0.6309 -1.4683  1.8191
  795SOL     OW 2383   2.420   2.292   1.759 -0.5923  0.0722 -1.0558
  795SOL    HW1 2384   2.374   2.322   1.847 -0.9034  1.1222 -2.1418
  795SOL    HW2 2385   2.413   2.192   1.737 -2.0108  1.3078  0.3716
  796SOL     OW 2386   3.061   1.123   2.676  0.0968  0.0853 -0.0153
  796SOL    HW1 2387   2.968   1.129   2.729  1.2571  1.8926 -1.7432
  796SOL    HW2 2388   3.145   1.109   2.741  0.2169 -1.3193 -1.1826
  797SOL     OW 2389   0.798   0.611   1.376 -0.0645  0.0626 -0.5711
  797SOL    HW1 2390   0.857   0.629   1.460  0.7290  0.0350 -2.3381
  797SOL    HW2 2391   0.739   0.692   1.344 -0.1950 -1.9944 -0.7703
  798SOL     OW 2392   1.359   0.342   1.121  0.2244  0.6587  0.0947
  798SOL    HW1 2393   1.371   0.344   1.223 -1.2930  0.4892 -2.7328
  798SOL    HW2 2394   1.402   0.431   1.074  1.6636  3.5051 -0.9849
  799SOL     OW 2395   1.905   2.686   1.037 -0.1397 -0.7912 -0.1809
  799SOL    HW1 2396   1.863   2.652   1.124  1.8891  2.7126  1.7508
  799SOL    HW2 2397   1.829   2.704   0.963 -0.8928 -1.1012 -1.4598
  800SOL     OW 2398   2.949   0.744   1.893 -0.2224 -0.0590 -0.2278
  800SOL    HW1 2399   2.956   0.847   1.897  1.2200  0.5207  0.1544
  800SOL    HW2 2400   3.024   0.699   1.944  0.4055 -2.0810 -0.4719
  801SOL     OW 2401   1.935   2.237   0.091 -0.2013 -0.6888 -0.7711
  801SOL    HW1 2402   1.848   2.238   0.032  3.9587  1.0986 -1.5985
  801SOL    HW2 2403   2.022   2.197   0.046  1.2168 -0.7735  0.6150
  802SOL     OW 2404   0.684   0.801   2.542 -0.9069 -0.2074  0.5447
  802SOL    HW1 2405   0.745   0.780   2.458 -1.8496 -0.2642  0.5756
  802SOL    HW2 2406   0.596   0.842   2.516 -0.8508 -0.2303 -1.6144
  803SOL     OW 2407   0.972   0.028   0.796  0.2280 -0.0944 -0.5558
  803SOL    HW1 2408   1.045   0.075   0.856 -1.6125  2.1260  1.8218
  803SOL    HW2 2409   0.936   0.085   0.715  0.7641  0.1498 -1.3564
  804SOL     OW 2410   0.320   0.048   2.145 -0.0488 -0.2119 -0.0041
  804SOL    HW1 2411   0.316   0.153   2.143 -1.4330  0.5172 -0.9762
  804SOL    HW2 2412   0.259   0.006   2.072 -1.0550  1.5105 -0.8747
  805SOL     OW 2413   2.354   0.338   0.430 -0.2058 -0.0461  0.1115
  805SOL    HW1 2414   2.435   0.353   0.492 -3.1570 -1.3732  0.2958
  805SOL    HW2 2415   2.385   0.309   0.333 -0.7312  1.4824  0.1707
  806SOL     OW 2416   0.641   2.461   1.787  0.3880 -0.4445 -0.4865
  806SOL    HW1 2417   0.615   2.561   1.787  0.4855  0.2020  2.6348
  806SOL    HW2 2418   0.744   2.448   1.797  0.9422  1.3680 -0.1890
  807SOL     OW 2419   2.469   0.821   0.350 -0.5754 -0.4025 -0.0985
  807SOL    HW1 2420   2.544   0.847   0.420  0.5786 -0.6604  1.3682
  807SOL    HW2 2421   2.433   0.895   0.289 -2.3367 -0.8976 -0.0628
  808SOL     OW 2422   0.643   2.058   2.876  0.2420 -0.0289 -0.2457
  808SOL    HW1 2423   0.572   2.121   2.912  2.3999  0.1138  0.8530
  808SOL    HW2 2424   0.652   1.969   2.931  3.2893  2.2800  0.6417
  809SOL     OW 2425   2.637   1.961   1.877 -0.2023 -0.2628  0.3193
  809SOL    HW1 2426   2.732   1.993   1.905  1.9414  0.7191 -1.7147
  809SOL    HW2 2427   2.635   1.935   1.779  0.0013  5.0219 -2.3037
  810SOL     OW 2428   2.116   1.071   0.572  0.3152  0.4561  0.4993
  810SOL    HW1 2429   2.111   0.993   0.638 -1.6574  1.4230 -1.6860
  810SOL    HW2 2430   2.079   1.160   0.601 -0.3443 -0.2601 -0.5043
  811SOL     OW 2431   1.336   2.514   1.222  0.2429 -0.2487  0.0353
  811SOL    HW1 2432   1.299   2.427   1.264  0.6329  2.2453 -0.6863
  811SOL    HW2 2433   1.282   2.600   1.255 -0.1008  1.5119  0.0695
  812SOL     OW 2434   1.402   0.749   1.923  0.0005  0.2993 -0.0715
  812SOL    HW1 2435   1.473   0.807   1.975 -1.3196 -2.6572  2.3292
  812SOL    HW2 2436   1.303   0.756   1.966  1.1470  0.7164  2.1016
  813SOL     OW 2437   1.676   2.060   2.523 -0.5575 -0.6011 -0.1783
  813SOL    HW1 2438   1.748   1.986   2.532 -0.3446 -1.5858 -1.9085
  813SOL    HW2 2439   1.611   2.042   2.448 -1.0969 -0.3419  1.0817
  814SOL     OW 2440   2.913   1.502   2.830  0.5075  0.6734 -0.2664
  814SOL    HW1 2441   2.994   1.490   2.897 -0.8163  0.1342  0.1925
  814SOL    HW2 2442   2.888   1.599   2.813  0.8498 -1.8760  0.4324
  815SOL     OW 2443   2.177   2.892   2.772  0.0141 -0.3302  0.1337
  815SOL    HW1 2444   2.165   2.804   2.823 -0.3653  0.1867 -2.6377
  815SOL    HW2 2445   2.232   2.968   2.820  2.0521  0.7893 -0.4114
  816SOL     OW 2446   1.635   0.319   1.616 -0.3956 -0.1026  0.4562
  816SOL    HW1 2447   1.666   0.220   1.647  0.5522  0.1637  2.4372
  816SOL    HW2 2448   1.546   0.344   1.664 -0.5746  0.1371 -0.1167
  817SOL     OW 2449   0.348   1.153   2.594 -0.7508  0.2169  0.3586
  817SOL    HW1 2450   0.282   1.173   2.672 -2.6605 -1.8684  1.2155
  817SOL    HW2 2451   0.377   1.231   2.527  0.7131  0.5107  0.7552
  818SOL     OW 2452   1.963   0.923   0.365  0.8164  0.4330 -0.6818
  818SOL    HW1 2453   2.057   0.883   0.374 -1.0797  0.7283 -2.6423
  818SOL    HW2 2454   1.946   0.989   0.445 -0.1079  2.3493  2.2215
  819SOL     OW 2455   2.743   2.988   2.961 -0.3880  0.4344  0.1311
  819SOL    HW1 2456   2.801   2.902   2.941  1.5392 -2.6727 -0.4342
  819SOL    HW2 2457   2.644   2.970   2.941 -1.6995 -2.3679 -1.0526
  820SOL     OW 2458   1.218   1.075   0.604  0.3981  0.3186 -0.4203
  820SOL    HW1 2459   1.229   1.162   0.663 -2.0959 -1.3298  0.2927
  820SOL    HW2 2460   1.226   0.991   0.664 -0.4916 -1.8486  2.4082
  821SOL     OW 2461   0.031   1.279   0.681  0.2662  0.2314 -0.2162
  821SOL    HW1 2462  -0.008   1.287   0.777 -1.1151 -2.5577 -0.6315
  821SOL    HW2 2463   0.059   1.372   0.649  1.8130  1.1912 -2.6376
  822SOL     OW 2464   2.589   1.744   2.418  0.4472  0.6073 -0.2793
  822SOL    HW1 2465   2.601   1.800   2.503 -0.2155 -0.2947 -0.1001
  822SOL    HW2 2466   2.495   1.762   2.377  1.1243  0.2967  2.1667
  823SOL     OW 2467   2.055   0.887   1.179  0.1602 -0.5161 -0.4661
  823SOL    HW1 2468   2.001   0.864   1.265 -2.0475 -1.8143  1.5191
  823SOL    HW2 2469   1.996   0.938   1.106 -1.6347  0.0345  0.5915
  824SOL     OW 2470   0.279   2.021   2.858  0.2871 -0.4195  0.5792
  824SOL    HW1 2471   0.224   1.936   2.883  1.5562 -1.7691  1.8116
  824SOL    HW2 2472   0.331   1.999   2.771 -1.8058  0.0940 -0.0825
  825SOL     OW 2473   1.289   1.088   0.283 -0.1459  0.4135  0.4586
  825SOL    HW1 2474   1.282   1.193   0.269  0.3921 -1.7451  0.0622
  825SOL    HW2 2475   1.241   1.057   0.368 -2.9547  1.0721 -0.8011
  826SOL     OW 2476   1.889   0.658   1.598  0.0980 -0.4844 -0.8162
  826SOL    HW1 2477   1.978   0.605   1.585  0.1625 -0.9187 -0.6116
  826SOL    HW2 2478   1.811   0.595   1.563 -0.7218 -2.1992 -0.1970
  827SOL     OW 2479   0.693   1.251   0.203  0.5042 -0.0147  0.1413
  827SOL    HW1 2480   0.774   1.193   0.188  1.9137 -1.0715 -0.0575
  827SOL    HW2 2481   0.643   1.218   0.285 -0.8613  1.1149  0.9981
  828SOL     OW 2482   2.621   0.189   1.563  0.2129  0.0781 -0.7778
  828SOL    HW1 2483   2.532   0.171   1.511  1.6012 -2.8594  0.8946
  828SOL    HW2 2484   2.594   0.205   1.662 -0.8641  0.4902  0.0883
  829SOL     OW 2485   2.797   2.467   2.985  0.6495 -0.1975 -0.5271
  829SOL    HW1 2486   2.712   2.408   2.960  0.5875 -1.2556 -0.4268
  829SOL    HW2 2487   2.780   2.541   3.051  2.9372 -2.4555  0.2470
  830SOL     OW 2488   2.790   0.955   3.071 -0.6565 -0.4937 -0.0559
  830SOL    HW1 2489   2.866   1.024   3.066  0.6833 -0.5877  0.4798
  830SOL    HW2 2490   2.828   0.868   3.112  1.2975 -2.7302 -0.9161
  831SOL     OW 2491   3.071   0.668   0.378 -0.0194 -0.0518 -0.7288
  831SOL    HW1 2492   3.050   0.624   0.471 -0.5092  1.1058  0.0152
  831SOL    HW2 2493   3.117   0.595   0.321 -0.3843 -1.9495  0.6143
  832SOL     OW 2494   1.828   0.765   2.984 -0.0958  0.4219  0.5232
  832SOL    HW1 2495   1.739   0.806   2.960  0.8130 -0.5313 -2.0670
  832SOL    HW2 2496   1.821   0.659   2.994 -3.1932 -0.2481  0.0942
  833SOL     OW 2497   2.407   2.115   0.493 -0.1987 -1.0511 -0.3023
  833SOL    HW1 2498   2.310   2.119   0.463  0.6255  2.6105 -0.4039
  833SOL    HW2 2499   2.437   2.015   0.510 -2.0328 -1.2058 -1.4432
  834SOL     OW 2500   0.172   0.227   0.480 -1.1674  0.4295 -0.2880
  834SOL    HW1 2501   0.122   0.154   0.539  0.3209 -3.3480  3.6225
  834SOL    HW2 2502   0.171   0.213   0.377  1.0566 -0.0563  1.2446
  835SOL     OW 2503   2.290   1.559   1.084 -0.1417 -0.1354  0.1134
  835SOL    HW1 2504   2.241   1.653   1.073 -1.1375  2.1132  2.4403
  835SOL    HW2 2505   2.391   1.556   1.054 -1.3573 -4.1464  1.9473
  836SOL     OW 2506   1.599   0.849   2.609 -0.4550  0.3367  0.1827
  836SOL    HW1 2507   1.500   0.836   2.616  1.8066  2.5783 -0.9543
  836SOL    HW2 2508   1.628   0.852   2.513 -1.9338  0.0799  2.9152
  837SOL     OW 2509   1.674   0.114   0.526 -0.4370 -0.5077  0.3443
  837SOL    HW1 2510   1.616   0.154   0.602 -0.0083  0.4922  0.2910
  837SOL    HW2 2511   1.632   0.128   0.432 -1.3863  1.4927 -1.8435
  838SOL     OW 2512   1.192   1.529   2.820  0.8133 -0.0245  0.1568
  838SOL    HW1 2513   1.167   1.520   2.921  3.0439 -0.4354  0.2204
  838SOL    HW2 2514   1.133   1.476   2.750 -0.4855  0.4164 -1.3421
  839SOL     OW 2515   1.736   0.271   1.012  0.6800 -0.6343  0.0929
  839SOL    HW1 2516   1.740   0.351   1.079 -0.3334 -0.3595 -0.8642
  839SOL    HW2 2517   1.666   0.204   1.053 -0.0492 -1.0974  0.5270
  840SOL     OW 2518   2.636   2.949   1.736  0.7298 -0.5018 -0.5075
  840SOL    HW1 2519   2.598   2.914   1.648  1.4053 -0.4585 -0.7026
  840SOL    HW2 2520   2.609   2.891   1.812  2.6176  2.0558 -2.2499
  841SOL     OW 2521   1.523   0.831   2.984  0.4583  0.6231 -0.3102
  841SOL    HW1 2522   1.446   0.856   3.044 -0.5220 -0.1603 -2.2339
  841SOL    HW2 2523   1.539   0.903   2.915 -0.1183 -1.1757  1.0759
  842SOL     OW 2524   0.834   1.536   0.945 -0.4638 -0.3641 -0.3403
  842SOL    HW1 2525   0.804   1.637   0.956  0.9494 -0.4782  2.6061
  842SOL    HW2 2526   0.762   1.469   0.907  1.9964 -0.0182 -1.6912
  843SOL     OW 2527   0.094   0.069   1.446  0.3416  0.2594 -0.0683
  843SOL    HW1 2528   0.192   0.100   1.478  1.6820  1.3889 -1.4612
  843SOL    HW2 2529   0.064  -0.025   1.469 -1.4382  1.4506  3.5242
  844SOL     OW 2530   0.791   2.492   0.308  0.1372 -0.2146 -0.2569
  844SOL    HW1 2531   0.729   2.460   0.388 -1.5911  2.9424  0.4778
  844SOL    HW2 2532   0.759   2.568   0.245  1.9242 -0.8491 -0.4507
  845SOL     OW 2533   1.614   2.902   1.361 -0.2091 -0.2327 -0.0759
  845SOL    HW1 2534   1.674   2.910   1.447  2.4160 -0.0119 -0.6101
  845SOL    HW2 2535   1.533   2.966   1.362  0.1632  1.4995  0.3595
  846SOL     OW 2536   1.542   2.937   0.766 -0.2472  0.2068  0.7264
  846SOL    HW1 2537   1.555   2.895   0.674 -0.3167 -0.1415  3.8615
  846SOL    HW2 2538   1.634   2.949   0.819  0.3547  3.5514 -2.9027
  847SOL     OW 2539   2.044   1.640   0.289 -0.2752 -0.6268 -0.1495
  847SOL    HW1 2540   2.010   1.560   0.353  1.9764 -1.7342 -1.4481
  847SOL    HW2 2541   1.970   1.704   0.258 -0.7474  0.3217 -1.3822
  848SOL     OW 2542   2.489   0.839   2.604 -0.0606 -0.5583  0.3196
  848SOL    HW1 2543   2.476   0.923   2.656  3.7906  0.4029 -0.5948
  848SOL    HW2 2544   2.399   0.803   2.569  0.9346 -1.4064 -1.6585
  849SOL     OW 2545   2.583   0.834   2.341 -0.3412  0.5391 -0.0822
  849SOL    HW1 2546   2.662   0.770   2.333 -0.1426  0.9613 -0.2065
  849SOL    HW2 2547   2.558   0.858   2.440  0.3026  0.0360 -0.3669
  850SOL     OW 2548   1.537   0.102   1.358  0.2619 -0.3350 -0.2774
  850SOL    HW1 2549   1.559   0.091   1.258  2.9078  2.5857  1.9126
  850SOL    HW2 2550   1.450   0.054   1.390  0.1182  1.0466  3.5721
  851SOL     OW 2551   0.444   1.795   0.614  0.2097 -0.6379  0.1775
  851SOL    HW1 2552   0.450   1.895   0.595 -1.1877 -0.3951  0.9640
  851SOL    HW2 2553   0.526   1.738   0.587 -1.0572  1.4264 -0.3404
  852SOL     OW 2554   0.770   2.132   1.690  0.3932  0.0741  0.1329
  852SOL    HW1 2555   0.747   2.233   1.668 -1.5463  0.5587 -1.1478
  852SOL    HW2 2556   0.691   2.098   1.755  0.9643  2.1086 -1.3034
  853SOL     OW 2557   2.540   1.537   2.616 -0.4941  0.6394  0.5384
  853SOL    HW1 2558   2.506   1.448   2.586  1.6708  0.0636  5.3115
  853SOL    HW2 2559   2.571   1.599   2.542 -0.8743  1.2910 -1.4425
  854SOL     OW 2560   2.423   1.441   1.693  0.5587 -0.2775 -0.2177
  854SOL    HW1 2561   2.482   1.405   1.618  1.9064  0.9539  2.8200
  854SOL    HW2 2562   2.351   1.368   1.719 -1.2350 -1.3101  0.4684
  855SOL     OW 2563   2.086   2.381   0.948  0.6836 -0.3230  0.5730
  855SOL    HW1 2564   2.069   2.479   0.930  2.1984 -2.7858  2.1201
  855SOL    HW2 2565   2.156   2.360   1.018 -1.6581 -0.7388 -0.2559
  856SOL     OW 2566   1.349   1.506   0.880  0.1316 -0.6216 -0.8955
  856SOL    HW1 2567   1.419   1.569   0.931 -2.1483 -0.0275 -3.2368
  856SOL    HW2 2568   1.254   1.526   0.911  0.8849  0.6171 -1.7615
  857SOL     OW 2569   3.091   2.657   1.029  0.0220 -0.1976  0.3794
  857SOL    HW1 2570   3.027   2.575   1.039 -1.2484  2.6635  2.6213
  857SOL    HW2 2571   3.173   2.641   0.970 -0.4334 -2.1410 -1.5701
  858SOL     OW 2572   2.319   2.013   1.761 -0.1348  0.2800  0.5437
  858SOL    HW1 2573   2.267   2.012   1.670 -1.2975 -0.7017  1.4651
  858SOL    HW2 2574   2.398   1.943   1.772  2.1763 -1.4795  0.2476
  859SOL     OW 2575   2.486   0.568   1.043  0.2817  0.0631  0.0687
  859SOL    HW1 2576   2.552   0.609   0.977 -2.1461  1.1901  0.2756
  859SOL    HW2 2577   2.500   0.470   1.075 -2.3529  1.0402  0.0599
  860SOL     OW 2578   1.946   2.813   0.449 -0.1119  0.1541  0.5149
  860SOL    HW1 2579   1.899   2.779   0.363 -2.4565 -3.6836 -3.1453
  860SOL    HW2 2580   2.035   2.854   0.423 -1.7808  0.1789  1.0833
  861SOL     OW 2581   1.100   2.492   2.827  0.0068  0.7278 -0.0895
  861SOL    HW1 2582   1.174   2.565   2.800  1.4272 -2.1853  0.4206
  861SOL    HW2 2583   1.086   2.478   2.930 -1.0119  1.9729 -1.8154
  862SOL     OW 2584   2.834   2.564   1.604  0.3774 -0.5376  0.2872
  862SOL    HW1 2585   2.918   2.597   1.657  1.9939  1.0631 -1.3117
  862SOL    HW2 2586   2.779   2.648   1.567 -1.7203 -1.1983  0.8715
  863SOL     OW 2587   1.840   2.706   0.166 -0.5565 -0.3935 -0.0370
  863SOL    HW1 2588   1.905   2.628   0.187 -0.4709 -0.4809  0.5293
  863SOL    HW2 2589   1.744   2.669   0.140  0.4442  1.2649 -0.3326
  864SOL     OW 2590   1.903   1.192   2.866 -0.0931 -0.2382  0.0072
  864SOL    HW1 2591   1.913   1.113   2.798  1.9106  0.9773 -0.6694
  864SOL    HW2 2592   1.992   1.213   2.916  0.0520  0.3495 -0.4230
  865SOL     OW 2593   2.245   1.851   0.595  0.3255  0.4004 -0.2038
  865SOL    HW1 2594   2.280   1.861   0.694  1.8130  0.1203 -1.3572
  865SOL    HW2 2595   2.150   1.810   0.582 -0.5605  0.1962 -0.7438
  866SOL     OW 2596   2.947   2.931   1.023  0.5747  0.4591  0.1435
  866SOL    HW1 2597   2.952   2.984   0.933 -0.0657 -0.9491  0.2285
  866SOL    HW2 2598   2.997   2.843   1.010 -0.1029 -2.0999  0.4499
  867SOL     OW 2599   0.323   1.356   0.909 -0.1118  0.9758  0.3908
  867SOL    HW1 2600   0.323   1.277   0.836  0.0798 -1.0396 -0.1904
  867SOL    HW2 2601   0.275   1.436   0.873 -0.1779 -2.0879  0.8387
  868SOL     OW 2602   0.729   1.858   2.021 -0.2481 -0.6915  0.9343
  868SOL    HW1 2603   0.683   1.835   2.110 -1.5659  0.0974 -1.1974
  868SOL    HW2 2604   0.738   1.961   2.004  1.7526  1.1953  3.2302
  869SOL     OW 2605   2.576   1.950   1.596  0.2371  0.2078 -0.2897
  869SOL    HW1 2606   2.655   2.014   1.595 -2.2430 -1.9702 -0.4333
  869SOL    HW2 2607   2.602   1.849   1.606 -1.6566  0.0632  0.6736
  870SOL     OW 2608   2.271   2.663   1.271  0.7837  0.3032  0.2928
  870SOL    HW1 2609   2.277   2.571   1.226 -0.2044 -2.7032  2.1037
  870SOL    HW2 2610   2.193   2.662   1.333  2.9757 -1.8976 -2.2332
  871SOL     OW 2611   3.031   2.202   0.549 -0.0471 -0.2047  0.4951
  871SOL    HW1 2612   3.008   2.222   0.649 -0.4475 -0.0066  0.4741
  871SOL    HW2 2613   2.946   2.189   0.491  0.7686  0.2323  1.5602
  872SOL     OW 2614   2.109   0.485   1.664 -0.2750 -0.0505  0.1208
  872SOL    HW1 2615   2.068   0.505   1.758  0.6472  0.6577  1.0138
  872SOL    HW2 2616   2.207   0.458   1.661 -1.1872 -0.8318  0.1262
  873SOL     OW 2617   1.720   2.129   3.058  0.4252 -0.2425  0.6734
  873SOL    HW1 2618   1.641   2.139   3.128 -1.8805 -0.1287 -0.4198
  873SOL    HW2 2619   1.686   2.116   2.960  0.0403 -0.3450  1.1877
  874SOL     OW 2620   0.649   2.456   0.769 -0.5192  0.7309  0.8911
  874SOL    HW1 2621   0.653   2.555   0.810  0.9353 -0.4031 -0.6064
  874SOL    HW2 2622   0.724   2.398   0.808  0.9201 -1.8387 -1.4193
  875SOL     OW 2623   2.323   1.551   1.422 -0.5686  0.9283  0.1954
  875SOL    HW1 2624   2.405   1.600   1.451 -0.6373 -0.2790  0.6455
  875SOL    HW2 2625   2.326   1.524   1.321  0.5615 -1.9853 -3.1661
  876SOL     OW 2626   0.097   2.224   2.765 -0.0412 -0.0613 -0.3131
  876SOL    HW1 2627   0.166   2.179   2.824  0.3965  0.6878 -2.7437
  876SOL    HW2 2628   0.117   2.328   2.760  0.3819 -4.0347 -0.5486
  877SOL     OW 2629   2.910   2.658   0.584 -0.0852 -0.2535  0.2357
  877SOL    HW1 2630   2.896   2.758   0.611  0.1850  2.3621  0.3463
  877SOL    HW2 2631   2.968   2.608   0.651 -0.8441 -0.1360 -1.0514
  878SOL     OW 2632   2.780   1.503   2.221  0.3928  0.2911 -0.2503
  878SOL    HW1 2633   2.883   1.504   2.227  0.7979  1.1316 -1.6873
  878SOL    HW2 2634   2.738   1.552   2.303  1.0966  0.0057 -1.8909
  879SOL     OW 2635   2.368   0.097   1.205 -0.0042 -0.2478 -0.9251
  879SOL    HW1 2636   2.403   0.001   1.227 -1.2382 -1.1416 -1.7408
  879SOL    HW2 2637   2.294   0.098   1.131 -0.9232  0.5571 -2.1152
  880SOL     OW 2638   0.729   0.487   2.272 -0.0886 -0.1712  0.4719
  880SOL    HW1 2639   0.655   0.440   2.332  0.1483  0.7283 -0.2020
  880SOL    HW2 2640   0.784   0.421   2.213  0.2042 -2.3602  0.8559
  881SOL     OW 2641   0.852   0.054   0.478  0.0471 -0.2279  0.1406
  881SOL    HW1 2642   0.879  -0.039   0.517  2.1288 -1.1820  1.2327
  881SOL    HW2 2643   0.762   0.068   0.433 -1.5514  4.6461 -0.1990
  882SOL     OW 2644   2.715   1.702   1.704 -0.0328  0.2559 -0.1425
  882SOL    HW1 2645   2.816   1.696   1.664  2.6266  1.2591  0.2940
  882SOL    HW2 2646   2.723   1.710   1.809 -0.2466  0.7510 -0.9561
  883SOL     OW 2647   0.916   0.567   0.983 -0.2543  0.1390  0.2940
  883SOL    HW1 2648   0.903   0.660   1.028 -2.4601  0.3045  1.0500
  883SOL    HW2 2649   0.938   0.491   1.050 -2.0675 -2.3827  1.1923
  884SOL     OW 2650   1.196   1.761   1.150 -0.1043 -0.4575  0.0536
  884SOL    HW1 2651   1.163   1.683   1.098  1.2175 -0.3139  1.1318
  884SOL    HW2 2652   1.163   1.856   1.117  1.3836  3.9669 -2.1037
  885SOL     OW 2653   2.346   1.783   2.298  0.6509  0.6705  0.1618
  885SOL    HW1 2654   2.269   1.730   2.350  0.6692 -1.1870 -0.0409
  885SOL    HW2 2655   2.329   1.885   2.272 -2.2520 -1.5710  1.5399
  886SOL     OW 2656   2.615   0.416   1.789  0.4723  0.3656  0.0532
  886SOL    HW1 2657   2.652   0.347   1.854 -1.9359  2.6178  1.5974
  886SOL    HW2 2658   2.683   0.489   1.765  2.1735 -0.4466 -1.0367
  887SOL     OW 2659   0.089   2.040   1.323  0.2871  0.5501  0.0052
  887SOL    HW1 2660   0.033   1.983   1.253 -2.8057  1.6589 -0.7913
  887SOL    HW2 2661   0.085   2.143   1.312  1.2073  0.5809 -0.7848
  888SOL     OW 2662   0.573   1.243   1.543 -0.3208  0.6863 -0.1085
  888SOL    HW1 2663   0.587   1.260   1.443 -0.9514 -1.9990  1.8021
  888SOL    HW2 2664   0.549   1.144   1.557 -1.0668  0.5649  0.6895
  889SOL     OW 2665   0.832   2.478   2.166 -0.1770  0.0520 -0.3257
  889SOL    HW1 2666   0.761   2.412   2.193 -0.1520  1.3312 -0.8023
  889SOL    HW2 2667   0.875   2.480   2.071  1.2261  0.2079 -0.4344
  890SOL     OW 2668   2.422   2.416   0.192 -0.0299  0.1120 -0.3991
  890SOL    HW1 2669   2.439   2.489   0.121 -0.3061 -1.7097 -3.3256
  890SOL    HW2 2670   2.365   2.451   0.270  1.3265  0.8264  0.4548
  891SOL     OW 2671   2.546   1.702   0.725 -0.2452 -0.5775 -0.0938
  891SOL    HW1 2672   2.568   1.730   0.825  1.7675  0.9259 -0.8670
  891SOL    HW2 2673   2.483   1.617   0.728  1.0678  0.5731 -1.2224
  892SOL     OW 2674   0.370   0.325   2.200  0.0790  0.0055 -0.7187
  892SOL    HW1 2675   0.366   0.404   2.134  1.5358 -0.5995 -1.6037
  892SOL    HW2 2676   0.421   0.344   2.288 -0.9331 -1.2623 -3.4010
  893SOL     OW 2677   1.670   0.272   2.755 -0.7512 -0.0790 -0.0170
  893SOL    HW1 2678   1.746   0.333   2.782 -2.3031 -0.2684  0.5188
  893SOL    HW2 2679   1.580   0.326   2.749 -1.7615  1.2298  2.0900
  894SOL     OW 2680   2.117   2.027   0.002  0.1328  0.1462 -0.3953
  894SOL    HW1 2681   2.102   1.972  -0.082  0.2971 -2.1397  1.0344
  894SOL    HW2 2682   2.171   1.967   0.069 -1.8018  2.5181 -2.0347
  895SOL     OW 2683   2.781   1.425   0.919  0.1573 -0.3152  0.2120
  895SOL    HW1 2684   2.848   1.353   0.938  1.9293  1.0143 -1.0867
  895SOL    HW2 2685   2.812   1.523   0.948 -2.2346  1.8097 -1.1743
  896SOL     OW 2686   1.774   1.813   1.225 -0.2467  0.1054  0.3321
  896SOL    HW1 2687   1.821   1.752   1.156 -0.1005 -1.8712 -0.3458
  896SOL    HW2 2688   1.741   1.903   1.185  0.9510 -0.6657 -0.9205
  897SOL     OW 2689   0.339   0.518   0.011 -0.2146  0.5206  0.2799
  897SOL    HW1 2690   0.284   0.575  -0.063 -1.1523 -0.1777  2.5009
  897SOL    HW2 2691   0.433   0.553   0.039 -0.9943  0.0768  0.1277
  898SOL     OW 2692   0.551   2.869   1.082  0.1617  0.1609  0.3610
  898SOL    HW1 2693   0.521   2.966   1.092  0.4766 -0.4566 -1.6626
  898SOL    HW2 2694   0.614   2.844   1.162  0.2583  1.8946 -0.7640
  899SOL     OW 2695   2.815   0.914   1.283 -0.4266 -0.0429  0.3319
  899SOL    HW1 2696   2.742   0.917   1.210  0.8821 -0.0486 -0.3971
  899SOL    HW2 2697   2.912   0.909   1.245 -1.6229 -3.0107 -2.2171
  900SOL     OW 2698   0.966   2.537   2.419  0.7401  0.7545 -0.3819
  900SOL    HW1 2699   0.934   2.512   2.327  0.0044  1.4966 -0.6742
  900SOL    HW2 2700   0.929   2.477   2.500  1.8792 -0.7423  0.9043
  901SOL     OW 2701   1.919   2.339   1.357  0.2694 -0.0168 -0.3443
  901SOL    HW1 2702   1.907   2.306   1.255 -2.1002  0.1171 -1.3393
  901SOL    HW2 2703   2.015   2.329   1.393 -0.4019  0.8325 -3.0603
  902SOL     OW 2704   2.578   1.651   1.466 -0.1579  0.1988  0.3565
  902SOL    HW1 2705   2.620   1.659   1.559  0.6478 -1.9753 -1.2416
  902SOL    HW2 2706   2.644   1.614   1.397  0.2182  0.0307 -1.1136
  903SOL     OW 2707   0.264   2.476   1.975  0.0771  0.4749  0.4316
  903SOL    HW1 2708   0.182   2.428   1.941 -0.5248  0.1260  0.6628
  903SOL    HW2 2709   0.302   2.549   1.911 -0.4909 -1.1573 -2.2899
  904SOL     OW 2710   2.044   0.813   2.485  0.2542 -0.2673 -0.6932
  904SOL    HW1 2711   1.966   0.752   2.525  0.2183 -1.5823 -1.9408
  904SOL    HW2 2712   2.031   0.820   2.385  0.4936 -0.6340  0.2967
  905SOL     OW 2713   2.818   0.082   2.556  0.0687 -0.1603 -0.0283
  905SOL    HW1 2714   2.897   0.017   2.557 -1.8276 -2.1851  0.2413
  905SOL    HW2 2715   2.857   0.178   2.545  1.0885  0.5502  0.2195
  906SOL     OW 2716   0.172   1.715   1.936 -0.9117  0.3441  0.0371
  906SOL    HW1 2717   0.117   1.724   1.847 -2.1587 -0.2903 -1.5566
  906SOL    HW2 2718   0.272   1.750   1.939  1.2089 -1.8786 -0.2699
  907SOL     OW 2719   0.246   2.465   1.015  0.0176 -0.0415 -0.4704
  907SOL    HW1 2720   0.330   2.411   0.990 -2.5604 -1.1490 -0.9957
  907SOL    HW2 2721   0.171   2.402   1.050  0.0431  0.6141  1.4110
  908SOL     OW 2722   2.733   2.983   0.370 -0.3593  0.2082  0.1313
  908SOL    HW1 2723   2.683   3.023   0.284 -2.5237 -0.5605 -2.3480
  908SOL    HW2 2724   2.818   2.936   0.339 -1.5293 -0.6845 -1.4979
  909SOL     OW 2725   0.793   1.025   2.645  0.8758 -0.1823 -0.2645
  909SOL    HW1 2726   0.763   0.934   2.604  2.2085  1.5727  0.9521
  909SOL    HW2 2727   0.855   1.080   2.582 -0.5591 -0.1323  1.3475
  910SOL     OW 2728   1.725   1.878   2.168 -0.6815 -0.2495 -0.3405
  910SOL    HW1 2729   1.752   1.910   2.075 -1.5741 -0.1637  0.9495
  910SOL    HW2 2730   1.648   1.932   2.199  0.8643 -1.3895 -2.6078
  911SOL     OW 2731   1.806   2.941   1.567 -0.4067  0.0268 -0.3555
  911SOL    HW1 2732   1.866   2.896   1.492 -0.7272 -0.3153 -1.4257
  911SOL    HW2 2733   1.815   2.892   1.657  2.9849 -0.2449  1.1129
  912SOL     OW 2734   2.845   0.997   0.693  0.3461 -0.7878 -0.2119
  912SOL    HW1 2735   2.863   0.957   0.789 -0.3983  2.9113  1.0353
  912SOL    HW2 2736   2.784   1.083   0.709 -0.3732  2.0063 -1.2975
  913SOL     OW 2737   2.596   1.250   1.485  0.2756 -0.4401 -0.3475
  913SOL    HW1 2738   2.621   1.148   1.481  1.4867 -2.0246  0.2057
  913SOL    HW2 2739   2.662   1.307   1.431 -1.9145  0.8925 -0.6545
  914SOL     OW 2740   2.839   0.594   1.229  0.6313 -1.1128  0.0515
  914SOL    HW1 2741   2.798   0.499   1.221  1.5130 -2.9376 -0.8821
  914SOL    HW2 2742   2.824   0.649   1.318  2.1816  1.4536 -0.7279
  915SOL     OW 2743   1.202   0.776   1.096  0.3508  0.2121 -0.0107
  915SOL    HW1 2744   1.232   0.834   1.178  0.8937  0.6805  1.4242
  915SOL    HW2 2745   1.106   0.767   1.079  0.5910 -0.5345 -1.9934
  916SOL     OW 2746   0.576   0.005   0.674 -0.2203  0.0369 -0.0240
  916SOL    HW1 2747   0.623   0.096   0.703 -1.9693  1.9165 -0.7176
  916SOL    HW2 2748   0.553   0.002   0.573  0.5342  1.3024 -0.8957
  917SOL     OW 2749   2.807   2.629   1.970 -0.3623  0.3021 -0.3102
  917SOL    HW1 2750   2.713   2.661   1.937 -0.0097  1.4059 -2.3738
  917SOL    HW2 2751   2.883   2.701   1.959  3.2673  0.7373  0.1559
  918SOL     OW 2752   1.031   2.168   3.047  0.0020  0.4128 -0.5293
  918SOL    HW1 2753   0.986   2.253   3.092 -2.2977  1.2201 -1.9159
  918SOL    HW2 2754   1.124   2.131   3.080  1.0600 -0.4575 -0.7408
  919SOL     OW 2755   0.840   1.660   2.872 -0.1241  0.4246 -0.4130
  919SOL    HW1 2756   0.880   1.743   2.826 -0.8674  2.5363 -0.8309
  919SOL    HW2 2757   0.864   1.578   2.811  0.3758  0.1584 -1.1780
  920SOL     OW 2758   1.202   1.857   2.436  0.6005  0.3796 -0.6438
  920SOL    HW1 2759   1.294   1.835   2.394  0.5971 -0.7755 -0.7384
  920SOL    HW2 2760   1.187   1.828   2.534 -2.2050  1.3264 -1.5591
  921SOL     OW 2761   1.029   0.028   2.638 -0.2486 -0.0947  0.2664
  921SOL    HW1 2762   1.050   0.031   2.539  0.2476  1.8352  3.8894
  921SOL    HW2 2763   0.935  -0.007   2.654 -2.2538  0.3961 -0.8001
  922SOL     OW 2764   2.130   2.400   2.785  0.2587  0.3287  0.2757
  922SOL    HW1 2765   2.165   2.303   2.793  2.2573 -1.5413  2.4863
  922SOL    HW2 2766   2.113   2.425   2.685  1.2500  0.8826 -1.0604
  923SOL     OW 2767   1.257   2.691   0.277 -0.5915  0.2008  0.1409
  923SOL    HW1 2768   1.322   2.776   0.291  2.2472  1.0952  2.4605
  923SOL    HW2 2769   1.307   2.598   0.275 -0.4816 -2.4851 -0.6617
  924SOL     OW 2770   2.852   1.529   0.153 -0.3111 -0.3926  0.0535
  924SOL    HW1 2771   2.770   1.531   0.085 -0.0541  3.2139 -1.7571
  924SOL    HW2 2772   2.940   1.504   0.105  1.0375 -0.9329  0.5369
  925SOL     OW 2773   3.102   2.909   1.538  0.6657  0.6154  0.4036
  925SOL    HW1 2774   3.004   2.919   1.569 -1.5535 -2.1256 -0.2208
  925SOL    HW2 2775   3.101   2.868   1.445  1.0228  5.7898 -0.6531
  926SOL     OW 2776   1.305   2.807   1.246 -0.1020  0.2230 -0.3904
  926SOL    HW1 2777   1.383   2.808   1.175  0.6134  0.4419  0.4799
  926SOL    HW2 2778   1.304   2.892   1.305  3.0956  1.7363  0.3699
  927SOL     OW 2779   0.318   2.658   1.751  0.0082  0.4128  0.1662
  927SOL    HW1 2780   0.302   2.583   1.677 -2.4472 -2.3425  0.8395
  927SOL    HW2 2781   0.278   2.747   1.724  0.9970 -0.8251 -1.8237
  928SOL     OW 2782   1.524   2.061   2.280 -0.2580  0.5937 -0.3652
  928SOL    HW1 2783   1.571   2.142   2.232  1.2037 -2.5611 -0.0669
  928SOL    HW2 2784   1.423   2.071   2.290 -0.7403 -1.3931  2.5452
  929SOL     OW 2785   2.405   2.491   2.861 -0.4893  0.3680  0.3710
  929SOL    HW1 2786   2.302   2.480   2.849 -1.6247 -2.8480  2.4750
  929SOL    HW2 2787   2.469   2.465   2.785 -1.2009  1.8259 -0.4206
  930SOL     OW 2788   2.213   2.018   1.075 -0.5481 -0.5016  0.0496
  930SOL    HW1 2789   2.176   1.973   1.162  0.3636  0.2841 -1.9155
  930SOL    HW2 2790   2.290   2.088   1.089  0.5599  0.3623 -1.2259
  931SOL     OW 2791   0.549   1.717   2.726 -0.2020  0.0579 -0.6052
  931SOL    HW1 2792   0.531   1.727   2.823  3.3201 -1.1109 -0.8818
  931SOL    HW2 2793   0.605   1.636   2.701  1.5329  0.4081  0.8061
  932SOL     OW 2794   0.447   0.134   2.963 -0.1960 -0.6075 -0.4582
  932SOL    HW1 2795   0.540   0.168   2.943 -3.0846 -3.8014 -0.3683
  932SOL    HW2 2796   0.454   0.045   3.024  1.5245  0.7432  2.1916
  933SOL     OW 2797   0.996   0.823   3.055 -0.1948  0.0201  0.1300
  933SOL    HW1 2798   0.976   0.849   3.155  1.4105  1.3994 -0.2664
  933SOL    HW2 2799   0.961   0.889   2.982  0.5265  0.3631 -0.9832
  934SOL     OW 2800   0.787   2.966   2.636 -0.0280 -0.2732 -0.1136
  934SOL    HW1 2801   0.785   2.908   2.554  0.8523  0.9015 -1.2939
  934SOL    HW2 2802   0.822   2.913   2.719  1.3210  0.8144  1.9338
  935SOL     OW 2803   0.029   0.572   0.849 -0.0154  0.0731  0.3218
  935SOL    HW1 2804   0.036   0.520   0.765  2.2571 -1.6675  0.6172
  935SOL    HW2 2805  -0.069   0.592   0.877 -0.0843  0.0897 -1.9213
  936SOL     OW 2806   1.074   2.822   0.088 -0.4223  0.3373  0.1903
  936SOL    HW1 2807   1.129   2.872   0.015 -2.2707 -0.9986 -0.2354
  936SOL    HW2 2808   1.140   2.783   0.155  0.3315  1.1525  1.6872
  937SOL     OW 2809   1.918   2.612   2.091  0.4199 -0.4975 -0.2520
  937SOL    HW1 2810   1.852   2.679   2.049  0.6224 -2.8185  2.1189
  937SOL    HW2 2811   2.011   2.662   2.103  1.0835  2.2119 -1.3619
  938SOL     OW 2812   2.787   2.107   1.603 -0.3175 -0.3408 -0.5646
  938SOL    HW1 2813   2.749   2.203   1.599  1.8607 -0.7340 -0.3759
  938SOL    HW2 2814   2.891   2.101   1.626 -0.9664 -0.2802 -0.6214
  939SOL     OW 2815   2.848   1.208   2.449 -0.8906 -0.1154  0.9104
  939SOL    HW1 2816   2.924   1.166   2.391  0.9652  0.8334 -0.1233
  939SOL    HW2 2817   2.841   1.158   2.541 -3.5458  0.9777  2.0011
  940SOL     OW 2818   1.033   0.406   2.722  0.0341  0.1353 -0.0272
  940SOL    HW1 2819   1.104   0.332   2.741 -1.9563  2.5073  1.1621
  940SOL    HW2 2820   0.940   0.365   2.699  0.1547  3.4189  1.5194
  941SOL     OW 2821   0.048   2.765   2.246 -0.1476 -0.1253 -0.4065
  941SOL    HW1 2822   0.101   2.675   2.260 -0.4565 -1.0493 -0.3463
  941SOL    HW2 2823   0.081   2.840   2.312  0.0190  4.3685  2.9406
  942SOL     OW 2824   0.120   0.107   2.555 -0.2832  0.4924 -0.4337
  942SOL    HW1 2825   0.174   0.134   2.637 -1.0821  0.4473 -2.6204
  942SOL    HW2 2826   0.102   0.186   2.496 -0.6458 -2.6788  1.0402
  943SOL     OW 2827   2.083   1.677   2.408  0.0415  0.3988 -0.9402
  943SOL    HW1 2828   2.080   1.648   2.311 -0.1170 -0.5019  2.1156
  943SOL    HW2 2829   2.110   1.591   2.463 -0.0343  1.5548 -2.7762
  944SOL     OW 2830   2.188   2.345   1.478  0.1572  0.1359  0.1767
  944SOL    HW1 2831   2.258   2.411   1.511 -2.1700  0.5038 -1.3854
  944SOL    HW2 2832   2.178   2.268   1.542 -0.5081  1.3093 -2.0220
  945SOL     OW 2833   0.676   1.513   0.263  0.4698  0.4101  0.7701
  945SOL    HW1 2834   0.641   1.544   0.170  1.0557  1.4902  2.2360
  945SOL    HW2 2835   0.696   1.415   0.268  2.1913  2.3209  1.1502
  946SOL     OW 2836   0.411   0.930   2.424  0.1202  0.1888 -0.2236
  946SOL    HW1 2837   0.325   0.881   2.396  0.5672  1.1079 -2.7815
  946SOL    HW2 2838   0.393   1.021   2.463  0.5343  2.1061 -1.5391
  947SOL     OW 2839   1.509   0.487   3.076 -0.1107 -0.4482 -0.3034
  947SOL    HW1 2840   1.485   0.541   2.994  3.2323 -1.0613  2.9330
  947SOL    HW2 2841   1.421   0.429   3.105 -0.7698 -0.6126 -0.0146
  948SOL     OW 2842   1.879   3.033   2.153  0.8459 -0.0403  0.3936
  948SOL    HW1 2843   1.913   2.967   2.081 -3.3201  0.9151 -2.3725
  948SOL    HW2 2844   1.886   2.989   2.250 -2.3078  0.0599  1.8150
  949SOL     OW 2845   0.578   2.470   0.500 -1.1248  0.0226  0.3687
  949SOL    HW1 2846   0.593   2.573   0.484  2.0359 -2.5770 -3.7048
  949SOL    HW2 2847   0.598   2.457   0.602  0.1428  0.3844 -0.9195
  950SOL     OW 2848   0.217   2.204   3.037 -0.1263 -0.6519 -0.0470
  950SOL    HW1 2849   0.119   2.227   3.020 -0.0113  1.0039 -2.5784
  950SOL    HW2 2850   0.246   2.122   2.978 -1.0824  0.3165  0.0150
  951SOL     OW 2851   1.259   2.693   2.731  0.0878  0.1358  0.2261
  951SOL    HW1 2852   1.327   2.741   2.788 -2.5527 -0.8899 -0.0604
  951SOL    HW2 2853   1.256   2.727   2.634  1.1047 -1.2421 -1.8494
  952SOL     OW 2854   0.009   1.691   0.376 -0.0323 -0.3905 -0.0852
  952SOL    HW1 2855   0.068   1.777   0.393 -2.1187 -0.4424 -0.1662
  952SOL    HW2 2856   0.040   1.607   0.430 -0.6074  5.8920 -3.2723
  953SOL     OW 2857   2.531   1.779   0.246 -0.3103 -0.3852  0.3829
  953SOL    HW1 2858   2.536   1.673   0.229  1.1293 -2.8889  0.8417
  953SOL    HW2 2859   2.542   1.833   0.160 -1.3313  1.9072  1.9504
  954SOL     OW 2860   2.240   0.561   0.938 -0.1416  0.3240  0.4517
  954SOL    HW1 2861   2.238   0.565   0.834  0.4039 -3.7127 -0.0274
  954SOL    HW2 2862   2.336   0.551   0.972 -1.4671  0.6384  1.2319
  955SOL     OW 2863   0.154   2.591   1.287  0.0132 -0.0619  0.0736
  955SOL    HW1 2864   0.065   2.637   1.305  1.9417 -1.7574 -2.5021
  955SOL    HW2 2865   0.218   2.646   1.223  3.1611 -0.9073 -2.2002
  956SOL     OW 2866   2.799   2.460   2.473 -0.6642  0.1405 -0.5839
  956SOL    HW1 2867   2.842   2.370   2.451 -0.9325 -0.4745  3.0560
  956SOL    HW2 2868   2.806   2.528   2.389  1.6598  2.5177 -0.7361
  957SOL     OW 2869   1.607   2.062   2.796 -0.5149  0.1528  0.3835
  957SOL    HW1 2870   1.554   1.975   2.804 -1.8750  1.3741 -0.4105
  957SOL    HW2 2871   1.661   2.061   2.710 -1.1495  0.9756  1.2213
  958SOL     OW 2872   2.584   2.284   3.002  1.0695 -0.7613  0.2641
  958SOL    HW1 2873   2.491   2.329   2.987 -0.3756 -3.6691 -0.0461
  958SOL    HW2 2874   2.585   2.232   3.094 -1.6257 -2.0645  0.0892
  959SOL     OW 2875   0.245   2.824   0.064 -0.3266  0.0897  0.7137
  959SOL    HW1 2876   0.152   2.790   0.030  0.7008 -0.6535 -1.3255
  959SOL    HW2 2877   0.291   2.757   0.125  2.0250  1.7294 -0.9451
  960SOL     OW 2878   2.043   0.493   1.950 -0.0232 -0.1700 -0.2205
  960SOL    HW1 2879   1.959   0.558   1.959  1.4670  4.4345  2.3148
  960SOL    HW2 2880   2.052   0.438   2.036 -1.7101  0.2550  1.9174
  961SOL     OW 2881   2.562   1.819   1.003 -0.0028 -0.5689 -0.3308
  961SOL    HW1 2882   2.569   1.920   0.978 -2.0738 -0.8644  1.5940
  961SOL    HW2 2883   2.524   1.794   1.096 -1.0817  0.3326  1.4170
  962SOL     OW 2884   1.316   0.941   0.059  0.5408 -0.8761  0.7899
  962SOL    HW1 2885   1.321   0.975  -0.041  0.2932 -1.9020 -0.3078
  962SOL    HW2 2886   1.312   1.011   0.138 -0.6265 -1.4666 -1.5923
  963SOL     OW 2887   2.220   2.570   1.829 -0.2680 -0.0185  0.0866
  963SOL    HW1 2888   2.181   2.478   1.871 -0.4248 -0.5449  2.3529
  963SOL    HW2 2889   2.235   2.643   1.902 -1.7283 -1.0038 -1.0201
  964SOL     OW 2890   2.365   0.354   1.682 -0.1394 -0.5309  0.1522
  964SOL    HW1 2891   2.457   0.370   1.732  0.3365  0.1335  0.1086
  964SOL    HW2 2892   2.378   0.330   1.579  1.6357  0.0010 -2.3220
  965SOL     OW 2893   2.633   3.075   0.128  0.6420 -0.1211  0.0759
  965SOL    HW1 2894   2.698   3.061   0.050  1.5110 -0.6034  0.6253
  965SOL    HW2 2895   2.529   3.063   0.110 -3.6613  0.3174  0.8225
  966SOL     OW 2896   2.603   2.553   2.198 -0.8006 -0.4069  0.2958
  966SOL    HW1 2897   2.606   2.625   2.271 -3.4750 -1.5291 -0.2941
  966SOL    HW2 2898   2.624   2.595   2.106  0.9974 -0.4056  0.8624
  967SOL     OW 2899   2.804   2.808   2.498 -0.1627 -0.4485  0.0380
  967SOL    HW1 2900   2.832   2.735   2.433 -0.6271 -0.1749 -0.6240
  967SOL    HW2 2901   2.883   2.867   2.531  0.6279  0.0808 -1.2138
  968SOL     OW 2902   1.896   1.022   2.626 -0.4761 -0.0538  0.0491
  968SOL    HW1 2903   1.809   1.063   2.589  3.5171  0.8571  3.5398
  968SOL    HW2 2904   1.934   0.943   2.574  0.4241 -1.0566  0.6718
  969SOL     OW 2905   2.833   2.445   1.111 -0.4383  0.1958 -0.4656
  969SOL    HW1 2906   2.779   2.433   1.025  1.4550 -0.5699 -0.8346
  969SOL    HW2 2907   2.844   2.359   1.170  0.3232 -0.1817  1.5937
  970SOL     OW 2908   1.018   2.102   1.815 -0.2059 -0.0370 -0.1133
  970SOL    HW1 2909   0.924   2.130   1.774 -0.7405 -2.0120 -2.1843
  970SOL    HW2 2910   1.040   2.133   1.912 -1.5496  1.5970  0.7806
  971SOL     OW 2911   2.889   2.077   1.906 -1.0448 -0.2691 -0.4921
  971SOL    HW1 2912   2.874   2.173   1.928 -0.7870 -0.3464  2.9981
  971SOL    HW2 2913   2.955   2.064   1.827  1.0102 -2.1155 -0.9117
  972SOL     OW 2914   1.994   2.483   0.215  0.4471  0.2313 -0.0846
  972SOL    HW1 2915   1.976   2.385   0.183 -2.3955  0.9354  1.0792
  972SOL    HW2 2916   2.037   2.479   0.315  1.6142  0.7059  0.6699
  973SOL     OW 2917   1.288   1.012   1.902  0.3390  0.2649 -0.4863
  973SOL    HW1 2918   1.273   0.982   1.805  0.6712 -0.9156  0.1585
  973SOL    HW2 2919   1.242   1.103   1.930 -1.0128  0.9408  1.4198
  974SOL     OW 2920   1.601   0.567   1.969 -0.0121 -0.3746 -0.3458
  974SOL    HW1 2921   1.681   0.619   1.929 -0.4919  3.1136  0.1549
  974SOL    HW2 2922   1.510   0.610   1.946  0.5634  1.4643 -2.1962
  975SOL     OW 2923   2.370   3.061   0.051 -0.3507  0.4329 -0.2956
  975SOL    HW1 2924   2.321   2.979   0.092  2.4599 -0.7349  0.1672
  975SOL    HW2 2925   2.360   3.070  -0.055  1.5838  2.4749 -1.6037
  976SOL     OW 2926   1.914   2.858   2.374 -0.1592  0.0525 -0.3902
  976SOL    HW1 2927   1.830   2.813   2.332 -0.2233 -0.0365  1.0939
  976SOL    HW2 2928   1.943   2.814   2.461  0.4747 -1.1512  0.4056
  977SOL     OW 2929   0.413   0.652   1.007 -0.1232  0.3201 -0.1873
  977SOL    HW1 2930   0.334   0.654   0.944  0.4167  0.8570  0.2591
  977SOL    HW2 2931   0.507   0.641   0.971 -2.4269 -0.1859  0.7390
   3.10000   3.10000   3.10000
