1000 SPC/Fw water molecules t=   0.55000 step= 550
 2931
    1SOL     OW    1   2.479   0.354   2.617  0.0244  0.6097 -0.2126
    1SOL    HW1    2   2.510   0.254   2.622  1.5430 -0.2934  0.4387
    1SOL    HW2    3   2.518   0.418   2.688  1.6093  0.2297 -1.3646
    2SOL     OW    4   2.693   3.062   1.442  0.1715 -0.6341 -0.5319
    2SOL    HW1    5   2.751   3.094   1.359 -0.2655 -1.5755  0.0740
    2SOL    HW2    6   2.684   3.133   1.516 -2.3044  1.0887 -0.8731
    3SOL     OW    7   2.748   2.590   0.400 -0.2047 -0.2504  0.0141
    3SOL    HW1    8   2.698   2.498   0.402  2.7299  0.0505 -0.1681
    3SOL    HW2    9   2.808   2.608   0.483  1.8374  0.5071 -2.0134
    4SOL     OW   10   1.308   1.472   2.359 -0.0441 -0.5902 -0.2463
    4SOL    HW1   11   1.214   1.519   2.330 -2.4265 -0.6050  1.2548
    4SOL    HW2   12   1.290   1.371   2.395 -1.1890 -0.9650  2.2754
    5SOL     OW   13   1.187   1.503   3.053  0.1136 -0.4290  0.5607
    5SOL    HW1   14   1.251   1.577   3.097 -0.2463  2.1818 -0.3902
    5SOL    HW2   15   1.090   1.517   3.082 -0.2337  0.8629 -0.8717
    6SOL     OW   16   0.076   1.829   2.911 -0.2915  0.1744  0.6917
    6SOL    HW1   17   0.026   1.878   2.988  0.8728  0.5804 -2.2250
    6SOL    HW2   18   0.143   1.754   2.940  4.9651  1.9758 -2.5636
    7SOL     OW   19   2.596   0.907   1.168 -0.8515 -0.0902 -0.3190
    7SOL    HW1   20   2.528   0.833   1.195  1.7660  2.1762 -1.5127
    7SOL    HW2   21   2.592   0.918   1.065 -1.0646 -0.4490  0.4933
    8SOL     OW   22   0.448   0.598   1.514  0.2079  0.0032  0.3450
    8SOL    HW1   23   0.536   0.549   1.545 -1.4268 -3.9629  0.6898
    8SOL    HW2   24   0.413   0.567   1.422  0.3009  3.8220  1.0600
    9SOL     OW   25   1.150   0.925   2.288  0.6456  0.2503  0.4977
    9SOL    HW1   26   1.228   0.983   2.256 -2.1217 -0.7084  2.3120
    9SOL    HW2   27   1.075   0.910   2.213 -1.0119 -0.6983  0.2609
   10SOL     OW   28   0.686   1.338   1.260 -0.6897  0.6026 -0.0222
   10SOL    HW1   29   0.604   1.389   1.219 -0.2479 -2.3968  2.2607
   10SOL    HW2   30   0.760   1.405   1.274  0.9115 -1.0645 -1.3648
   11SOL     OW   31   2.377   2.702   0.937 -0.2180  0.2408  0.1327
   11SOL    HW1   32   2.353   2.706   1.040  0.7324  0.3229  2.0987
   11SOL    HW2   33   2.472   2.735   0.907 -0.2785 -0.4768  1.6071
   12SOL     OW   34   1.472   0.934   0.341  0.1964  0.0376 -0.3964
   12SOL    HW1   35   1.385   0.993   0.353 -0.4537 -1.0729 -2.0352
   12SOL    HW2   36   1.448   0.844   0.295  0.2535 -1.1427  0.2910
   13SOL     OW   37   2.542   0.681   1.813 -0.5618  0.3678 -0.5157
   13SOL    HW1   38   2.457   0.668   1.876 -0.0064  0.2261  1.1159
   13SOL    HW2   39   2.520   0.671   1.712  1.6363 -0.7228 -1.3868
   14SOL     OW   40   1.978   0.072   0.730 -0.2638  0.0179  0.3532
   14SOL    HW1   41   1.900   0.132   0.702  1.2632 -1.3747  1.0400
   14SOL    HW2   42   1.951  -0.024   0.760  0.4686  1.4436  0.9896
   15SOL     OW   43   1.947   2.014   2.804  0.1770 -0.2177 -0.5631
   15SOL    HW1   44   1.932   2.121   2.816  0.7407 -0.5971 -3.2835
   15SOL    HW2   45   1.868   1.968   2.757 -0.5273  0.0277  1.4992
   16SOL     OW   46   1.609   1.715   3.024  0.1269 -0.1763 -0.8974
   16SOL    HW1   47   1.622   1.610   3.043 -1.4258  0.0913  2.6189
   16SOL    HW2   48   1.689   1.771   3.063  2.0268 -2.1455  0.4153
   17SOL     OW   49   0.101   0.502   0.152 -0.1124  0.1880  0.0842
   17SOL    HW1   50   0.166   0.527   0.074 -0.1940  0.0110 -0.2173
   17SOL    HW2   51   0.005   0.478   0.116  0.7368 -0.5897  0.8537
   18SOL     OW   52   0.995   2.933   2.129  0.1701  0.6160 -0.6770
   18SOL    HW1   53   0.907   2.878   2.125 -1.0340 -2.2031 -2.0904
   18SOL    HW2   54   1.070   2.906   2.058  1.7076 -0.5097  2.5013
   19SOL     OW   55   0.539   0.832   1.912 -0.4427 -0.1232 -0.1979
   19SOL    HW1   56   0.542   0.779   2.001  0.6847 -0.0212 -0.1993
   19SOL    HW2   57   0.630   0.818   1.858  2.8745 -0.7102 -2.8207
   20SOL     OW   58   0.183   2.795   0.807  0.2498  0.0292 -0.1371
   20SOL    HW1   59   0.101   2.849   0.781  0.2240 -0.4431  2.6039
   20SOL    HW2   60   0.249   2.785   0.730 -0.1123  0.4652 -0.5394
   21SOL     OW   61   2.767   0.201   2.075  0.1949 -0.1830 -0.3590
   21SOL    HW1   62   2.683   0.161   2.024 -0.6333  1.3675 -2.4460
   21SOL    HW2   63   2.820   0.124   2.125  1.2397 -2.1863 -0.7585
   22SOL     OW   64   2.343   0.241   0.080  0.2402  0.0819  0.3721
   22SOL    HW1   65   2.371   0.138   0.077  1.6315 -3.1223 -1.3579
   22SOL    HW2   66   2.240   0.253   0.078  2.8510  0.2032  0.8659
   23SOL     OW   67   2.746   0.629   0.626 -0.5009  0.4042 -0.5761
   23SOL    HW1   68   2.694   0.555   0.575  1.2021 -0.0687 -0.9904
   23SOL    HW2   69   2.740   0.718   0.575 -0.3024 -2.3388  2.2028
   24SOL     OW   70   0.122   1.911   0.382  0.2108  0.2199 -0.4697
   24SOL    HW1   71   0.107   2.008   0.352 -1.3144 -1.3860  0.2579
   24SOL    HW2   72   0.201   1.875   0.321  0.2583 -1.2429  3.0938
   25SOL     OW   73   2.227   0.520   0.213 -0.2602  0.3015  0.9805
   25SOL    HW1   74   2.230   0.614   0.255  0.8978 -4.0357 -0.0780
   25SOL    HW2   75   2.254   0.525   0.112 -1.2723 -3.4269  0.2337
   26SOL     OW   76   2.552   2.136   2.079  0.6566 -0.8373 -0.2454
   26SOL    HW1   77   2.594   2.188   2.159 -0.4210  0.3179  0.4083
   26SOL    HW2   78   2.613   2.057   2.042 -0.7095  0.2832  2.6484
   27SOL     OW   79   0.599   2.940   0.162 -0.0550 -0.1535  0.4189
   27SOL    HW1   80   0.699   2.973   0.168  0.9801  0.5845 -1.8345
   27SOL    HW2   81   0.567   2.943   0.062 -0.9047 -2.2901 -0.3000
   28SOL     OW   82   1.562   0.174   0.313 -0.7870  0.6716 -0.1373
   28SOL    HW1   83   1.593   0.165   0.215 -3.0769 -2.9821 -1.1294
   28SOL    HW2   84   1.548   0.274   0.343  0.0969  0.3058 -0.1542
   29SOL     OW   85   1.975   0.499   0.367 -0.6446 -0.3741 -0.2643
   29SOL    HW1   86   1.979   0.607   0.382  1.9657  3.6440 -0.1751
   29SOL    HW2   87   2.070   0.465   0.347 -2.0580 -0.5806 -0.5863
   30SOL     OW   88   0.206   2.047   0.923  1.2830 -0.2712 -0.5453
   30SOL    HW1   89   0.198   2.035   0.821 -2.6998 -1.2912 -0.5376
   30SOL    HW2   90   0.173   2.138   0.966  0.6358  1.8473 -0.7095
   31SOL     OW   91   2.108   3.084   2.312 -0.6301  0.1365 -0.2277
   31SOL    HW1   92   2.117   3.080   2.419  2.4464  2.8760  1.1602
   31SOL    HW2   93   2.010   3.084   2.273 -0.6978 -1.9119 -0.8355
   32SOL     OW   94   2.967   0.205   0.240 -0.4677 -0.0734  0.0313
   32SOL    HW1   95   2.919   0.166   0.319  1.4743  0.2717 -0.8735
   32SOL    HW2   96   3.070   0.222   0.255  1.6061  0.0376  1.9849
   33SOL     OW   97   0.908   0.344   0.557 -0.0342  0.1979  0.2905
   33SOL    HW1   98   0.893   0.242   0.517  2.2223  0.5531 -1.2328
   33SOL    HW2   99   1.004   0.356   0.596  1.9929 -1.6090  2.2546
   34SOL     OW  100   0.362   2.861   1.066  0.0647 -0.4705  0.7600
   34SOL    HW1  101   0.320   2.867   0.972  1.0398 -0.4367  0.2130
   34SOL    HW2  102   0.463   2.887   1.070 -1.3747  1.4873  0.4511
   35SOL     OW  103   0.023   0.205   1.862 -0.1110  0.3146 -0.1068
   35SOL    HW1  104   0.052   0.104   1.865  0.4806  1.7375 -0.3485
   35SOL    HW2  105  -0.048   0.225   1.787 -0.0886  0.8082  0.3811
   36SOL     OW  106   1.936   1.088   1.845 -0.2715 -0.0187  0.1406
   36SOL    HW1  107   1.971   1.069   1.749 -1.7193 -4.9266 -1.6756
   36SOL    HW2  108   1.980   1.181   1.885  1.9989  2.8198  0.5929
   37SOL     OW  109   1.204   0.164   0.933 -0.1367 -0.4846 -0.3912
   37SOL    HW1  110   1.234   0.243   0.987 -0.5643  0.0755 -1.7534
   37SOL    HW2  111   1.278   0.097   0.907 -1.0372 -1.4429  0.8092
   38SOL     OW  112   1.085   2.756   2.419  0.8327  0.2526  0.4011
   38SOL    HW1  113   1.025   2.676   2.423  4.1726  0.6939  2.7134
   38SOL    HW2  114   1.033   2.847   2.411 -0.4762  1.8666 -2.1456
   39SOL     OW  115   2.297   1.371   3.006  0.2907  0.4521  0.1724
   39SOL    HW1  116   2.393   1.337   3.016 -0.9041  1.9713 -0.8963
   39SOL    HW2  117   2.260   1.385   3.104  0.5289  0.1959  0.1090
   40SOL     OW  118   2.107   2.523   2.514 -0.1026 -0.0424  0.1608
   40SOL    HW1  119   2.082   2.612   2.556 -0.2331 -1.0895  0.1260
   40SOL    HW2  120   2.033   2.460   2.474 -0.5590  1.9098  1.9144
   41SOL     OW  121   2.951   0.681   2.740 -0.1778  0.0325 -0.2505
   41SOL    HW1  122   2.864   0.735   2.741  4.7079 -1.2755  0.3795
   41SOL    HW2  123   2.945   0.580   2.720 -1.3745  0.8536  3.0887
   42SOL     OW  124   1.752   1.759   0.570  0.8822 -0.6215  0.1767
   42SOL    HW1  125   1.723   1.659   0.549  0.7568 -0.7506  1.1215
   42SOL    HW2  126   1.793   1.809   0.489 -2.9799  2.3146 -1.6935
   43SOL     OW  127   0.464   1.711   1.107  0.4780  0.0792 -0.4896
   43SOL    HW1  128   0.476   1.610   1.138  0.6579  1.3177  0.7312
   43SOL    HW2  129   0.366   1.733   1.077 -1.9662 -4.6301 -3.3843
   44SOL     OW  130   1.822   2.477   3.041 -0.2005 -0.1186  0.6228
   44SOL    HW1  131   1.807   2.572   2.992  0.8983  3.9281 -2.8020
   44SOL    HW2  132   1.919   2.453   3.061  1.1827 -1.4504  2.2740
   45SOL     OW  133   0.305   1.910   2.604  0.0804  0.1955 -0.0512
   45SOL    HW1  134   0.254   1.926   2.516 -0.1511 -1.7215  2.6669
   45SOL    HW2  135   0.393   1.863   2.588 -2.2946 -0.3177  0.3258
   46SOL     OW  136   1.209   0.648   0.153 -0.4529 -0.3761 -0.1008
   46SOL    HW1  137   1.263   0.735   0.139 -0.0117 -0.6440 -0.5031
   46SOL    HW2  138   1.118   0.666   0.195  1.9845  2.3625  1.0952
   47SOL     OW  139   0.183   2.452   1.635  0.0182  0.3291  0.4393
   47SOL    HW1  140   0.244   2.370   1.622  1.1255  0.0412 -2.2501
   47SOL    HW2  141   0.149   2.489   1.541  1.1308 -0.6785  3.0916
   48SOL     OW  142   2.614   0.592   0.146 -0.2956  0.0789 -0.4068
   48SOL    HW1  143   2.557   0.584   0.240  0.5287 -1.0457  1.5352
   48SOL    HW2  144   2.703   0.648   0.150  1.8409  0.6562  2.9827
   49SOL     OW  145   0.360   0.776   1.698 -0.0759 -0.2588 -0.0966
   49SOL    HW1  146   0.422   0.770   1.786  0.0080 -1.0974  0.3044
   49SOL    HW2  147   0.394   0.702   1.631 -1.4327  1.3532  0.2607
   50SOL     OW  148   1.660   1.129   0.304  0.0171 -0.4294 -0.1385
   50SOL    HW1  149   1.622   1.033   0.282  1.0962 -1.0733  0.1168
   50SOL    HW2  150   1.611   1.164   0.388 -1.6764  1.3542  3.8941
   51SOL     OW  151   2.933   1.889   0.320 -0.7693 -0.8773  0.9380
   51SOL    HW1  152   2.885   1.847   0.238 -0.0446  1.2216 -0.4963
   51SOL    HW2  153   3.020   1.841   0.343 -1.5321  1.0410 -0.0212
   52SOL     OW  154   0.828   1.920   0.464  0.3794 -0.2802 -0.2204
   52SOL    HW1  155   0.742   1.977   0.486 -1.4313 -0.1435 -0.4646
   52SOL    HW2  156   0.834   1.838   0.524  1.2649  1.1606  1.5072
   53SOL     OW  157   3.093   0.364   1.558  0.0149  0.3570 -0.0100
   53SOL    HW1  158   3.095   0.409   1.652 -0.1592  2.2862  2.7827
   53SOL    HW2  159   3.053   0.421   1.487 -2.0303  0.6765  1.5586
   54SOL     OW  160   1.771   0.452   3.075  0.4932  0.4356 -0.3469
   54SOL    HW1  161   1.805   0.393   3.158 -0.2172 -2.1500  1.9439
   54SOL    HW2  162   1.665   0.454   3.068  1.2688  0.1612  1.4606
   55SOL     OW  163   0.747   2.911   0.626 -0.0271 -0.2034  0.8068
   55SOL    HW1  164   0.717   3.011   0.625 -1.4463 -1.8003 -2.1594
   55SOL    HW2  165   0.841   2.897   0.588  1.1186 -4.6465  4.2188
   56SOL     OW  166   0.435   1.574   3.047  0.0191 -0.0479  0.3347
   56SOL    HW1  167   0.347   1.614   3.065  2.1772  0.0219  0.2935
   56SOL    HW2  168   0.423   1.485   2.989 -0.9855 -1.9230  1.8458
   57SOL     OW  169   1.811   2.512   2.669  0.1437 -0.0492  0.1707
   57SOL    HW1  170   1.843   2.481   2.578  1.5325  1.2557  0.8055
   57SOL    HW2  171   1.708   2.504   2.688 -0.5108 -2.0442  2.4479
   58SOL     OW  172   0.655   0.382   1.067 -0.1406 -0.5261 -0.6154
   58SOL    HW1  173   0.613   0.482   1.054 -2.0951 -1.2062  1.3664
   58SOL    HW2  174   0.588   0.304   1.066  0.6163  0.9216  1.1496
   59SOL     OW  175   0.408   2.362   2.759 -0.1927  0.5935 -0.0915
   59SOL    HW1  176   0.420   2.264   2.732  0.3863  2.6150 -0.9403
   59SOL    HW2  177   0.501   2.399   2.790  1.0184  0.4006  1.7696
   60SOL     OW  178   2.330   2.077   2.232 -0.5544 -0.3404 -0.4945
   60SOL    HW1  179   2.416   2.108   2.178  3.4361 -0.1330  1.5085
   60SOL    HW2  180   2.339   2.106   2.334  0.2786  0.1085 -0.9265
   61SOL     OW  181   1.296   0.590   0.524 -0.0877 -0.7884  0.3792
   61SOL    HW1  182   1.215   0.642   0.575  0.1186  0.5974 -0.4633
   61SOL    HW2  183   1.311   0.629   0.428 -1.5495 -1.7878  0.3396
   62SOL     OW  184   2.662   1.781   2.949  0.4862 -0.1340 -0.5576
   62SOL    HW1  185   2.666   1.680   2.982 -0.4867 -1.8506 -1.0593
   62SOL    HW2  186   2.749   1.803   2.903 -2.8458  0.5693  1.2456
   63SOL     OW  187   0.577   0.914   0.157  0.1950  1.0747  0.1798
   63SOL    HW1  188   0.510   0.992   0.149 -0.3900  1.0070 -0.9465
   63SOL    HW2  189   0.641   0.916   0.239  1.1474 -4.8840  0.9133
   64SOL     OW  190   0.063   0.571   2.544  0.3601  0.4846 -0.0928
   64SOL    HW1  191   0.100   0.578   2.638 -0.5853  1.0033  3.1842
   64SOL    HW2  192   0.042   0.668   2.515 -0.5385  0.4159 -0.6111
   65SOL     OW  193   0.193   1.483   0.556 -0.0023  0.0024 -0.5491
   65SOL    HW1  194   0.236   1.540   0.638 -0.0374 -0.6087 -1.6993
   65SOL    HW2  195   0.268   1.455   0.488  2.6339  0.1924  1.6826
   66SOL     OW  196   2.512   0.435   0.613  0.2694 -0.4299 -0.4263
   66SOL    HW1  197   2.469   0.505   0.679 -1.7803  1.8183  1.1014
   66SOL    HW2  198   2.488   0.337   0.639  2.5088 -0.4317  1.2967
   67SOL     OW  199   0.545   2.507   1.398  0.6364  0.6903 -0.5231
   67SOL    HW1  200   0.575   2.457   1.483  0.4355 -0.9962 -1.8828
   67SOL    HW2  201   0.494   2.440   1.337 -0.5881  0.1162 -0.9824
   68SOL     OW  202   1.016   1.102   2.456  0.4771 -0.1492 -0.1458
   68SOL    HW1  203   1.051   1.017   2.407 -2.7217  0.6789 -0.0302
   68SOL    HW2  204   0.946   1.158   2.405  0.1174 -2.2456 -0.5869
   69SOL     OW  205   0.773   2.769   2.175  0.8268 -0.3972  0.5466
   69SOL    HW1  206   0.801   2.664   2.187 -2.6361  1.2411  0.6008
   69SOL    HW2  207   0.672   2.782   2.157  0.6388  1.6313 -0.6350
   70SOL     OW  208   0.640   0.282   2.707 -0.4907 -0.2146  0.3985
   70SOL    HW1  209   0.635   0.332   2.799 -0.0951  0.1128 -1.6784
   70SOL    HW2  210   0.620   0.177   2.717  0.2938 -0.2190 -1.8077
   71SOL     OW  211   1.060   1.779   0.335 -0.2562 -0.3768  0.1015
   71SOL    HW1  212   1.000   1.698   0.356 -0.0556  2.9882 -3.4205
   71SOL    HW2  213   1.050   1.806   0.232 -3.8479  1.2410 -0.2276
   72SOL     OW  214   1.770   0.141   2.027  0.0009  0.6334  0.1786
   72SOL    HW1  215   1.810   0.155   1.930  0.4861  2.9552 -1.3477
   72SOL    HW2  216   1.785   0.047   2.061 -2.1215 -0.8512 -0.2620
   73SOL     OW  217   2.778   2.160   2.495  0.6471  0.4563 -0.4801
   73SOL    HW1  218   2.725   2.067   2.501 -1.5773 -2.8998  0.7526
   73SOL    HW2  219   2.804   2.191   2.593 -2.6644 -1.5978 -3.8444
   74SOL     OW  220   2.715   2.944   2.022  0.2478 -0.2844  0.0727
   74SOL    HW1  221   2.637   2.967   2.083 -1.0993 -2.2629 -1.2852
   74SOL    HW2  222   2.800   2.936   2.076  2.0625  1.3465  2.3002
   75SOL     OW  223   0.961   0.765   1.027 -0.2615 -0.0706  0.4593
   75SOL    HW1  224   0.865   0.794   1.012  2.6450  0.3050  0.0252
   75SOL    HW2  225   1.005   0.811   1.103  0.5080  1.1413 -1.1015
   76SOL     OW  226   1.722   1.252   2.554 -0.7057  0.1881 -0.1207
   76SOL    HW1  227   1.623   1.214   2.565 -0.4054  0.4659 -2.6201
   76SOL    HW2  228   1.733   1.346   2.591 -2.1526  1.1643 -0.4274
   77SOL     OW  229   2.925   0.960   0.974  0.0488  0.0484 -0.4837
   77SOL    HW1  230   2.904   0.858   0.951  3.5741 -4.7730  0.9967
   77SOL    HW2  231   2.960   0.961   1.074  0.6570  0.6141  0.4118
   78SOL     OW  232   2.062   1.401   1.529 -0.0496 -0.2218  0.0152
   78SOL    HW1  233   2.154   1.434   1.489  0.3209 -4.2173  2.5500
   78SOL    HW2  234   2.013   1.338   1.463  1.3197  0.6738 -1.1817
   79SOL     OW  235   0.634   1.314   0.853  0.3521  0.0559  0.6546
   79SOL    HW1  236   0.535   1.338   0.872 -0.7755 -3.0315  2.6321
   79SOL    HW2  237   0.647   1.276   0.754  1.1704 -0.7355 -2.9310
   80SOL     OW  238   0.683   0.470   1.609  0.1763  0.0980  0.0029
   80SOL    HW1  239   0.755   0.542   1.605 -1.5000  0.9678  2.3145
   80SOL    HW2  240   0.718   0.376   1.599 -1.2550  2.5024  0.1000
   81SOL     OW  241   1.058   1.370   2.595  0.0184  0.8695  0.4149
   81SOL    HW1  242   1.082   1.265   2.580 -0.1584 -3.3705 -1.8271
   81SOL    HW2  243   0.969   1.393   2.544  1.7743  2.7533 -0.4182
   82SOL     OW  244   0.951   2.948   1.504 -0.4788 -0.1126  0.2782
   82SOL    HW1  245   0.984   3.019   1.433 -1.3430  1.0996 -1.0141
   82SOL    HW2  246   0.862   2.894   1.485 -0.2412 -1.4580 -0.6182
   83SOL     OW  247   2.694   2.477   0.852  0.2325 -0.3114 -0.1119
   83SOL    HW1  248   2.623   2.422   0.802  1.6101  3.3870  1.2585
   83SOL    HW2  249   2.707   2.570   0.814  0.1102  0.3239 -0.2886
   84SOL     OW  250   0.711   3.090   2.324 -0.4996  0.2654 -0.4723
   84SOL    HW1  251   0.651   3.011   2.361  1.0241 -4.0463  1.1752
   84SOL    HW2  252   0.810   3.059   2.328 -1.4006  1.8283  0.9091
   85SOL     OW  253   0.379   1.611   1.551 -0.7881  0.1605 -0.4138
   85SOL    HW1  254   0.331   1.694   1.507 -0.6703  2.1430 -2.7443
   85SOL    HW2  255   0.358   1.592   1.653 -0.4669 -4.2673  1.5323
   86SOL     OW  256   0.357   0.963   1.504  0.3656 -0.2980  0.1966
   86SOL    HW1  257   0.327   0.916   1.416  0.1457 -0.4478  1.2450
   86SOL    HW2  258   0.373   0.894   1.580  0.6342  1.4922 -1.2339
   87SOL     OW  259   1.543   0.658   0.199  0.7438 -0.1800 -0.4601
   87SOL    HW1  260   1.623   0.711   0.233 -2.4441 -1.7927 -3.0466
   87SOL    HW2  261   1.554   0.621   0.105  0.9716  2.5211 -1.5867
   88SOL     OW  262   1.562   1.381   0.244  0.2528  0.5543  0.0800
   88SOL    HW1  263   1.595   1.281   0.244  0.2468  1.8333 -1.3421
   88SOL    HW2  264   1.455   1.378   0.257  1.1719  1.8955  2.3660
   89SOL     OW  265   0.028   0.411   0.602  0.3380 -0.2332 -0.2372
   89SOL    HW1  266   0.082   0.330   0.570 -1.3547  1.9435 -0.5966
   89SOL    HW2  267  -0.073   0.402   0.573 -0.0955 -0.1391  0.1799
   90SOL     OW  268   0.918   1.552   3.070 -0.2364 -0.0263  0.7074
   90SOL    HW1  269   0.836   1.557   3.131 -1.1424  0.1971  1.7854
   90SOL    HW2  270   0.892   1.582   2.973 -0.4795 -0.4369 -0.0216
   91SOL     OW  271   1.275   1.425   1.823 -0.2632 -0.3759 -0.5130
   91SOL    HW1  272   1.272   1.518   1.867  1.7901 -1.5135  0.2161
   91SOL    HW2  273   1.356   1.418   1.763  0.7178  0.4395 -0.7574
   92SOL     OW  274   3.049   1.000   1.204  0.3667  0.0097 -0.0555
   92SOL    HW1  275   3.122   1.066   1.170 -0.4989 -1.0214 -2.4999
   92SOL    HW2  276   3.056   0.977   1.306  1.2252 -2.2778  2.3912
   93SOL     OW  277   3.086   2.731   0.034 -0.2167  0.0975 -0.2651
   93SOL    HW1  278   3.028   2.742  -0.054  0.4880 -0.9216 -1.4697
   93SOL    HW2  279   3.124   2.637   0.061 -1.7519 -0.1582 -1.1213
   94SOL     OW  280   1.550   1.471   1.687 -0.1426  0.3260 -0.1292
   94SOL    HW1  281   1.567   1.375   1.710 -0.2065  1.4089  4.2682
   94SOL    HW2  282   1.597   1.536   1.755 -0.2202 -0.2163 -0.2368
   95SOL     OW  283   1.334   2.531   3.009  0.7687  0.0691  0.3780
   95SOL    HW1  284   1.276   2.492   3.087 -3.4778 -0.7609 -2.2155
   95SOL    HW2  285   1.378   2.452   2.952  1.8001 -1.7688 -2.1980
   96SOL     OW  286   0.536   2.020   1.291 -0.4989  0.2147  0.1643
   96SOL    HW1  287   0.483   2.023   1.200 -0.4798  0.6119  0.3287
   96SOL    HW2  288   0.584   1.929   1.296  2.1614  0.8306  2.9045
   97SOL     OW  289   0.383   1.587   2.453  0.6568  0.6183 -0.4887
   97SOL    HW1  290   0.299   1.564   2.507 -0.2905 -1.3771  0.7897
   97SOL    HW2  291   0.444   1.654   2.502 -1.9682  1.5414  0.1172
   98SOL     OW  292   1.952   1.591   1.263  0.3448 -0.1208 -0.1134
   98SOL    HW1  293   1.883   1.546   1.324  0.3856  2.4880 -1.3038
   98SOL    HW2  294   1.987   1.530   1.184 -0.0852 -3.3225 -2.5396
   99SOL     OW  295   2.479   2.107   1.371  0.5366  0.2738  0.0237
   99SOL    HW1  296   2.454   2.146   1.464 -0.8049 -0.2646 -0.4857
   99SOL    HW2  297   2.437   2.013   1.357  0.9092 -0.0190  2.4273
  100SOL     OW  298   2.297   0.388   2.087 -0.2679 -0.2205  0.3747
  100SOL    HW1  299   2.246   0.345   2.168  0.8253  0.9814 -2.4194
  100SOL    HW2  300   2.399   0.415   2.110 -0.5746  0.6627 -0.8743
  101SOL     OW  301   0.379   1.488   0.247 -0.1713  0.3870  0.0687
  101SOL    HW1  302   0.447   1.502   0.327 -0.0056 -0.9302 -0.4357
  101SOL    HW2  303   0.402   1.546   0.163 -1.4145 -0.6616 -0.6740
  102SOL     OW  304   2.324   1.022   0.833 -0.3311 -0.4650  0.0848
  102SOL    HW1  305   2.223   1.000   0.830  2.3482 -1.4472 -0.1324
  102SOL    HW2  306   2.355   1.112   0.791  0.8972  2.2573  0.5264
  103SOL     OW  307   2.281   0.001   0.408  0.0836 -0.5245  0.0401
  103SOL    HW1  308   2.317   0.096   0.380  0.3390  2.3736  0.0976
  103SOL    HW2  309   2.358  -0.039   0.464 -1.2666  1.5278  1.4690
  104SOL     OW  310   0.083   1.745   2.205  0.0167 -0.3112 -0.0819
  104SOL    HW1  311   0.150   1.688   2.146 -2.8630 -0.5996  2.4270
  104SOL    HW2  312  -0.016   1.757   2.172 -0.0755 -0.9867  0.7640
  105SOL     OW  313   1.256   2.065   0.808  0.6284  0.9331 -0.4127
  105SOL    HW1  314   1.175   2.105   0.756  0.5495  2.9322 -0.4689
  105SOL    HW2  315   1.281   1.969   0.779 -0.7823 -0.1799 -0.8348
  106SOL     OW  316   2.142   0.550   1.368 -0.1099  0.0035  0.1821
  106SOL    HW1  317   2.109   0.472   1.432  0.9954 -0.4911  2.7631
  106SOL    HW2  318   2.101   0.642   1.393  2.2823  0.8126  2.2777
  107SOL     OW  319   1.756   3.008   1.093  0.0196 -0.0586  0.1619
  107SOL    HW1  320   1.790   3.097   1.130 -3.7239 -0.6215 -0.8212
  107SOL    HW2  321   1.731   2.942   1.172  0.0834  1.2545  1.3044
  108SOL     OW  322   0.818   2.759   1.228 -0.1201  0.1164 -0.2992
  108SOL    HW1  323   0.782   2.765   1.328 -0.8884 -0.1976 -1.4752
  108SOL    HW2  324   0.921   2.774   1.222 -0.5915  1.1586 -0.3266
  109SOL     OW  325   2.225   0.151   0.789  0.4095  0.0412 -0.5103
  109SOL    HW1  326   2.121   0.134   0.769  0.0968 -0.2793  2.3815
  109SOL    HW2  327   2.245   0.170   0.890  1.2479  1.5459 -0.7701
  110SOL     OW  328   0.439   2.813   2.723  0.4717  0.7756  0.4142
  110SOL    HW1  329   0.453   2.832   2.622  1.0327 -0.7633  0.3692
  110SOL    HW2  330   0.517   2.764   2.767 -2.4632 -0.4741 -0.3808
  111SOL     OW  331   1.317   0.532   2.283 -0.0552 -0.1209  0.0579
  111SOL    HW1  332   1.230   0.570   2.327  2.0264 -3.2157  1.2178
  111SOL    HW2  333   1.361   0.455   2.339 -0.0362 -2.6753 -0.9874
  112SOL     OW  334   1.751   0.508   1.475 -0.0681 -0.4750 -0.2570
  112SOL    HW1  335   1.741   0.493   1.370  1.4518 -0.9155 -1.2094
  112SOL    HW2  336   1.710   0.432   1.533  0.2359 -1.0287  1.5803
  113SOL     OW  337   2.265   1.625   1.757 -0.2608  0.2365  0.0284
  113SOL    HW1  338   2.329   1.560   1.712  1.6294  1.0169  0.3149
  113SOL    HW2  339   2.291   1.645   1.856  0.1529 -1.8848 -0.8654
  114SOL     OW  340   0.358   0.530   1.264  0.2939 -0.2805 -0.5814
  114SOL    HW1  341   0.354   0.628   1.240  2.3475  0.6466  0.5277
  114SOL    HW2  342   0.305   0.476   1.200  0.6787  1.2359  0.4330
  115SOL     OW  343   2.722   1.638   1.264  0.9638  0.2515 -0.3553
  115SOL    HW1  344   2.716   1.532   1.274  3.0811  0.9502  0.2220
  115SOL    HW2  345   2.752   1.668   1.171  1.4151  0.9147 -0.0432
  116SOL     OW  346   1.804   1.010   0.711  0.8397 -0.1265  0.1344
  116SOL    HW1  347   1.727   0.963   0.656 -1.7610 -1.1776  0.6057
  116SOL    HW2  348   1.760   1.078   0.779 -0.2619  0.2073 -0.8512
  117SOL     OW  349   1.152   0.399   0.684  0.3895  0.5931 -0.0875
  117SOL    HW1  350   1.203   0.402   0.775  0.0942  0.7887 -1.8602
  117SOL    HW2  351   1.185   0.469   0.614 -0.1913  1.3376 -2.3509
  118SOL     OW  352   1.100   1.148   1.073 -0.1514 -0.1148 -0.1325
  118SOL    HW1  353   1.056   1.066   1.131  0.3424 -0.5500 -0.7009
  118SOL    HW2  354   1.143   1.210   1.140 -1.5171 -0.0461 -0.9643
  119SOL     OW  355   1.852   1.609   2.117  0.1335  0.4784 -0.1533
  119SOL    HW1  356   1.820   1.709   2.131 -1.2328  0.5414 -0.2142
  119SOL    HW2  357   1.947   1.609   2.130 -2.1902 -0.4555 -2.1273
  120SOL     OW  358   2.959   2.842   0.246 -0.1651  0.0092 -0.3060
  120SOL    HW1  359   3.011   2.813   0.160 -0.1229  0.8217 -4.2599
  120SOL    HW2  360   2.918   2.764   0.297 -0.7504  3.4804 -1.9077
  121SOL     OW  361   2.008   0.759   2.293  0.4089  0.3491 -0.3184
  121SOL    HW1  362   1.994   0.817   2.209  2.0634  0.8579 -1.5519
  121SOL    HW2  363   2.020   0.655   2.267 -0.8099 -0.0543 -1.3305
  122SOL     OW  364   2.642   2.660   1.250 -1.3874  0.1411 -0.6018
  122SOL    HW1  365   2.679   2.578   1.194 -2.4709  2.0354  0.4274
  122SOL    HW2  366   2.581   2.719   1.201 -0.2043  2.3767 -0.2497
  123SOL     OW  367   1.734   0.063   1.682  0.2818 -0.1090 -0.1092
  123SOL    HW1  368   1.755  -0.027   1.643  0.7393  1.0654 -1.4626
  123SOL    HW2  369   1.821   0.112   1.709 -1.4983  0.6286 -1.3356
  124SOL     OW  370   0.120   0.417   1.104  0.0914 -0.4718 -0.0010
  124SOL    HW1  371   0.090   0.499   1.163 -2.2712  1.4237  2.8175
  124SOL    HW2  372   0.093   0.417   1.007 -0.0264 -1.2815  0.9758
  125SOL     OW  373   0.848   1.725   0.678 -0.5419  1.1857  0.0285
  125SOL    HW1  374   0.948   1.717   0.643  1.7279  2.6525  0.8505
  125SOL    HW2  375   0.839   1.704   0.777 -0.2051  0.4840  0.5975
  126SOL     OW  376   1.918   2.362   2.434  0.0009 -0.1735  0.2519
  126SOL    HW1  377   1.992   2.320   2.376  1.4272 -0.5593  1.6854
  126SOL    HW2  378   1.833   2.304   2.429  0.4848 -0.6000 -1.9198
  127SOL     OW  379   0.823   0.909   0.308  0.4276  0.1076  0.5315
  127SOL    HW1  380   0.905   0.936   0.365 -0.0481 -2.3638  1.9083
  127SOL    HW2  381   0.844   0.812   0.282  1.1184  1.6797 -0.5364
  128SOL     OW  382   0.949   0.189   1.363  0.2258 -0.3372  0.4487
  128SOL    HW1  383   0.927   0.290   1.338 -0.1650  0.8185  0.3685
  128SOL    HW2  384   0.864   0.123   1.355  3.0873 -1.1790  0.2738
  129SOL     OW  385   1.835   0.688   1.872 -0.3763  0.1476  0.0629
  129SOL    HW1  386   1.880   0.689   1.784 -5.1027 -1.1610  1.5395
  129SOL    HW2  387   1.871   0.765   1.935 -1.0660  1.1326  2.1547
  130SOL     OW  388   1.341   2.228   1.028  0.1915  0.1562  0.3670
  130SOL    HW1  389   1.296   2.172   0.948  1.2947 -0.9573  0.5602
  130SOL    HW2  390   1.406   2.304   0.997  0.8135 -0.9993 -0.3610
  131SOL     OW  391   0.000   1.476   1.401 -0.4121 -0.5535 -0.4125
  131SOL    HW1  392  -0.067   1.397   1.411  0.7186 -2.7485  0.4258
  131SOL    HW2  393   0.101   1.442   1.395  0.0959 -2.9240  0.9937
  132SOL     OW  394   2.011   2.421   0.508  0.1836  0.3169  0.0576
  132SOL    HW1  395   1.912   2.407   0.486 -0.8710  2.1190  3.3541
  132SOL    HW2  396   2.046   2.372   0.593 -0.6164  2.1693 -0.2856
  133SOL     OW  397   1.877   2.274   2.829 -0.4960 -0.2197 -1.2955
  133SOL    HW1  398   1.840   2.275   2.927 -0.2532  0.9504 -1.9880
  133SOL    HW2  399   1.858   2.364   2.779 -0.9738  1.9616 -1.5219
  134SOL     OW  400   2.706   2.348   1.622 -0.4963 -0.1011 -0.2766
  134SOL    HW1  401   2.642   2.351   1.705  0.9387 -0.9921  0.2668
  134SOL    HW2  402   2.783   2.420   1.620  0.1896 -0.7668  1.6988
  135SOL     OW  403   0.713   1.514   2.644 -0.3451 -0.1503  0.7296
  135SOL    HW1  404   0.679   1.425   2.666  0.9473  1.1868 -2.9699
  135SOL    HW2  405   0.775   1.492   2.563  2.0773 -0.5046 -1.1817
  136SOL     OW  406   1.199   2.001   0.441 -0.5277 -0.8749  0.6062
  136SOL    HW1  407   1.135   2.060   0.499  0.1285  2.0781  0.9513
  136SOL    HW2  408   1.156   1.912   0.400 -1.4981 -3.0531  0.4680
  137SOL     OW  409   0.369   1.138   2.117 -0.3752  0.0711  0.3350
  137SOL    HW1  410   0.288   1.136   2.187  0.7543  3.7773  0.6515
  137SOL    HW2  411   0.454   1.089   2.153  0.0194 -0.8188  1.8665
  138SOL     OW  412   2.425   1.485   0.243 -0.2635 -0.1624  0.8022
  138SOL    HW1  413   2.355   1.424   0.195 -1.2394 -1.0193 -0.7252
  138SOL    HW2  414   2.495   1.435   0.301  1.0923 -0.3455 -0.6597
  139SOL     OW  415   1.811   2.668   1.271  0.3262 -0.0809  0.6753
  139SOL    HW1  416   1.727   2.653   1.200 -0.1957 -1.0440 -1.8099
  139SOL    HW2  417   1.838   2.578   1.322  2.2641 -1.3950  0.0936
  140SOL     OW  418   3.019   2.962   2.621 -0.1161 -0.7047 -0.0967
  140SOL    HW1  419   3.050   2.860   2.610 -0.2040 -0.8195  1.1795
  140SOL    HW2  420   3.072   3.022   2.687 -4.7744  0.9620  1.9933
  141SOL     OW  421   1.259   1.713   1.606  0.5137  0.0718 -0.3612
  141SOL    HW1  422   1.168   1.746   1.644 -0.7768  0.5732  2.0271
  141SOL    HW2  423   1.299   1.639   1.667  2.2991  0.2443  1.3942
  142SOL     OW  424   1.579   0.610   2.181 -0.8223  0.3245  0.0001
  142SOL    HW1  425   1.582   0.596   2.080  0.7996 -1.5721  0.2121
  142SOL    HW2  426   1.488   0.593   2.225  1.2636  1.4608 -1.3940
  143SOL     OW  427   2.740   0.878   0.497 -0.1302 -0.2835 -0.1364
  143SOL    HW1  428   2.760   0.921   0.404  1.1890 -0.3086 -0.4304
  143SOL    HW2  429   2.789   0.920   0.583 -2.2323  0.4812  3.4159
  144SOL     OW  430   2.941   1.256   1.436 -0.4657 -0.6161  0.2927
  144SOL    HW1  431   2.891   1.213   1.517 -1.1139  1.1512  0.2916
  144SOL    HW2  432   3.015   1.192   1.406 -0.0124 -0.4576  1.5651
  145SOL     OW  433   1.015   1.846   0.056 -0.0420  0.3086  0.9645
  145SOL    HW1  434   1.022   1.917  -0.019 -1.1182 -0.3646  0.8336
  145SOL    HW2  435   1.024   1.747   0.022 -0.7928  1.1976 -0.0463
  146SOL     OW  436   2.451   0.661   1.528  0.0573 -0.2490  0.0736
  146SOL    HW1  437   2.419   0.592   1.457  0.9858 -1.9220 -1.7289
  146SOL    HW2  438   2.412   0.762   1.522  1.4493  1.5805 -1.1127
  147SOL     OW  439   1.113   2.449   0.580 -0.0115  0.1231  0.0327
  147SOL    HW1  440   1.078   2.524   0.518  0.9920 -2.2063  2.1218
  147SOL    HW2  441   1.197   2.400   0.550  0.1726  1.3383  1.4962
  148SOL     OW  442   1.640   1.453   3.080 -0.0414 -0.1879 -0.2176
  148SOL    HW1  443   1.666   1.395   2.993  1.6765  0.2387 -0.8493
  148SOL    HW2  444   1.606   1.402   3.165  3.1233 -0.5130 -0.8817
  149SOL     OW  445   0.718   1.428   1.917  0.3151  0.9868  0.7658
  149SOL    HW1  446   0.646   1.395   1.986 -1.6136 -0.7739  2.3807
  149SOL    HW2  447   0.737   1.357   1.841 -1.6231  1.0329 -1.7410
  150SOL     OW  448   3.030   1.246   0.942  0.3929  0.3778  0.8453
  150SOL    HW1  449   3.105   1.269   1.009  0.5279 -1.4397 -1.0548
  150SOL    HW2  450   2.975   1.160   0.970 -0.8782 -0.9401 -1.3717
  151SOL     OW  451   0.185   0.774   2.118  0.4950  0.0037 -0.8016
  151SOL    HW1  452   0.168   0.835   2.038  1.6553 -0.0050  1.2235
  151SOL    HW2  453   0.221   0.680   2.102 -0.8562  1.5206  2.8265
  152SOL     OW  454   1.359   1.755   1.282  0.1126  1.0754  0.2525
  152SOL    HW1  455   1.369   1.844   1.327  1.3359 -0.5763 -0.0987
  152SOL    HW2  456   1.259   1.728   1.272 -0.9815  0.2531  0.9340
  153SOL     OW  457   0.049   1.552   0.176 -0.1522  0.4150 -0.7278
  153SOL    HW1  458   0.065   1.450   0.179 -0.2969  2.0754  2.3423
  153SOL    HW2  459   0.060   1.596   0.273  0.0669  1.0404 -0.5487
  154SOL     OW  460   2.354   1.860   2.826 -0.7267 -0.5035 -0.5921
  154SOL    HW1  461   2.401   1.768   2.813  0.4235 -1.6555 -1.1612
  154SOL    HW2  462   2.423   1.933   2.853 -0.2228  0.8500 -0.3082
  155SOL     OW  463   2.449   1.232   0.369 -0.6205 -0.0969  0.6652
  155SOL    HW1  464   2.539   1.218   0.323 -3.1385 -0.4805  0.5291
  155SOL    HW2  465   2.364   1.189   0.322 -0.7694  1.7380  3.3323
  156SOL     OW  466   2.575   0.949   0.899 -0.2358  0.0831 -0.2107
  156SOL    HW1  467   2.478   0.956   0.852 -1.0811 -0.9581  0.5062
  156SOL    HW2  468   2.630   1.035   0.883  0.9609  1.6376  2.2183
  157SOL     OW  469   1.226   2.985   3.013  0.6686  0.2804  0.3684
  157SOL    HW1  470   1.264   2.970   2.919  1.5171  2.8088  1.9391
  157SOL    HW2  471   1.255   3.079   3.041 -0.4764  0.6107 -0.0692
  158SOL     OW  472   0.998   1.863   1.997  0.3098 -0.6275  0.4687
  158SOL    HW1  473   1.074   1.931   2.006  0.0798  0.0959 -2.5447
  158SOL    HW2  474   0.906   1.891   2.046 -3.5655 -0.8921  1.0921
  159SOL     OW  475   0.849   0.452   1.277  0.5491 -0.2314 -0.6853
  159SOL    HW1  476   0.799   0.523   1.333  0.2568  1.1737 -0.7323
  159SOL    HW2  477   0.789   0.395   1.210 -1.0988  0.7046 -3.3937
  160SOL     OW  478   1.439   2.420   1.686  0.3203 -0.5061  0.2559
  160SOL    HW1  479   1.462   2.502   1.627 -1.8637 -0.1582 -0.6016
  160SOL    HW2  480   1.464   2.335   1.633  1.1474  2.3280 -3.2343
  161SOL     OW  481   0.135   2.897   0.319 -0.7615  0.1260  0.2337
  161SOL    HW1  482   0.036   2.869   0.327  5.0996 -0.2662 -2.2953
  161SOL    HW2  483   0.155   2.963   0.245 -1.4090 -1.4774  0.2473
  162SOL     OW  484   2.580   1.919   0.443 -0.3900  0.2990 -0.2970
  162SOL    HW1  485   2.570   1.871   0.348 -1.5808 -1.9589 -2.0385
  162SOL    HW2  486   2.547   1.868   0.527 -1.3810 -0.0384 -3.0477
  163SOL     OW  487   1.965   2.697   0.767 -0.6674  0.9740  0.4445
  163SOL    HW1  488   1.934   2.684   0.670 -1.7792  0.4854  1.1741
  163SOL    HW2  489   2.055   2.656   0.787 -1.8184  0.8804  0.1933
  164SOL     OW  490   3.043   0.230   1.210  0.0080 -0.8521 -1.1315
  164SOL    HW1  491   3.116   0.289   1.171 -1.4101  0.5310 -2.2983
  164SOL    HW2  492   3.076   0.157   1.273  0.4566  1.9560  2.0005
  165SOL     OW  493   0.934   1.434   0.662  0.0960 -0.4006 -0.3277
  165SOL    HW1  494   0.888   1.493   0.738  0.5077  1.5317 -0.6599
  165SOL    HW2  495   0.924   1.474   0.565 -0.8754 -2.4618  1.2499
  166SOL     OW  496   1.471   1.093   1.722  0.0269 -0.0442  0.5669
  166SOL    HW1  497   1.411   1.024   1.761 -0.3219 -0.5783  1.5420
  166SOL    HW2  498   1.551   1.118   1.782  0.9291 -0.6258  0.5274
  167SOL     OW  499   0.777   1.898   1.494 -0.1975 -0.3350 -0.3681
  167SOL    HW1  500   0.771   1.984   1.558  1.0481  1.2281  0.1141
  167SOL    HW2  501   0.712   1.821   1.519 -0.9616  1.3394 -0.0465
  168SOL     OW  502   1.637   2.392   0.137  0.6566  0.2940 -0.1585
  168SOL    HW1  503   1.669   2.435   0.044 -1.3228  2.6099 -0.8133
  168SOL    HW2  504   1.685   2.301   0.154  0.0014  0.5335  0.7137
  169SOL     OW  505   0.227   2.599   2.230 -0.4441 -0.3296  0.4034
  169SOL    HW1  506   0.235   2.561   2.133 -5.7376 -1.9996 -0.4627
  169SOL    HW2  507   0.275   2.548   2.305  3.4916 -1.1278  0.1649
  170SOL     OW  508   1.242   0.297   1.948 -0.1369  0.0630  0.4612
  170SOL    HW1  509   1.277   0.253   2.036 -1.4233  1.7676  1.0858
  170SOL    HW2  510   1.224   0.227   1.874 -2.1012 -1.8986  1.5315
  171SOL     OW  511   0.215   0.827   2.377 -0.0116  0.1883 -0.7268
  171SOL    HW1  512   0.144   0.868   2.440  1.5675  0.1406  0.3354
  171SOL    HW2  513   0.196   0.830   2.274  1.2418  1.0593  1.4677
  172SOL     OW  514   0.908   1.113   2.949  0.5376  0.1308 -0.2406
  172SOL    HW1  515   0.996   1.150   2.987  2.1646 -0.7397 -0.9245
  172SOL    HW2  516   0.896   1.130   2.847  0.3017 -0.6559 -2.6174
  173SOL     OW  517   0.674   2.676   0.072 -0.1194  0.3504 -0.5777
  173SOL    HW1  518   0.668   2.776   0.086  0.7538  3.3181  1.1392
  173SOL    HW2  519   0.582   2.628   0.100 -2.1614 -0.1328 -0.2968
  174SOL     OW  520   1.396   2.844   1.065  0.0192  0.6142 -0.0425
  174SOL    HW1  521   1.376   2.930   1.009  1.5571  3.6609 -1.4339
  174SOL    HW2  522   1.351   2.759   1.022  0.3382  0.7361  0.2414
  175SOL     OW  523   0.409   0.061   1.639 -0.3010 -0.0182  0.3715
  175SOL    HW1  524   0.468   0.128   1.690  1.5734 -0.2889 -0.1225
  175SOL    HW2  525   0.335   0.105   1.584 -0.0557 -0.3362 -0.3599
  176SOL     OW  526   2.546   0.388   3.088  0.6733 -0.3638 -0.7012
  176SOL    HW1  527   2.573   0.467   3.153 -4.4581 -0.6048  1.1256
  176SOL    HW2  528   2.471   0.336   3.129  1.7277  3.3318  1.1424
  177SOL     OW  529   0.351   0.289   0.938  0.0184 -0.0729  0.4517
  177SOL    HW1  530   0.387   0.223   1.012  1.3553 -0.9633  2.2582
  177SOL    HW2  531   0.256   0.317   0.967 -3.5110  1.6341 -0.0697
  178SOL     OW  532   0.027   2.697   2.621 -0.2055 -0.4820  0.0863
  178SOL    HW1  533  -0.050   2.628   2.648 -0.0512 -0.9331 -0.1095
  178SOL    HW2  534   0.087   2.735   2.694  1.6021 -1.5975 -0.9156
  179SOL     OW  535   0.024   1.698   1.183  0.3014 -0.1427  0.1247
  179SOL    HW1  536  -0.040   1.782   1.151 -3.7160  1.3847 -3.2250
  179SOL    HW2  537  -0.030   1.631   1.243 -0.3980  0.1047  1.4143
  180SOL     OW  538   0.212   1.211   1.854 -0.1880 -0.3742 -0.1270
  180SOL    HW1  539   0.312   1.208   1.848 -2.1158  0.7676 -1.0443
  180SOL    HW2  540   0.183   1.291   1.919 -2.2389  2.5136  2.0799
  181SOL     OW  541   3.024   1.853   2.536 -0.5015 -0.3256 -0.6426
  181SOL    HW1  542   3.089   1.913   2.478 -3.5062  0.5200  0.0075
  181SOL    HW2  543   2.935   1.846   2.494  3.2089  0.5903 -4.2175
  182SOL     OW  544   2.283   1.288   1.160 -0.5505  0.0865 -0.1079
  182SOL    HW1  545   2.200   1.250   1.105  1.7827 -0.6862 -0.7704
  182SOL    HW2  546   2.291   1.392   1.153 -1.0663  1.0760  2.2368
  183SOL     OW  547   1.509   2.263   2.508 -0.3004 -0.7035  0.1534
  183SOL    HW1  548   1.425   2.202   2.526  1.9763 -1.0035 -1.0485
  183SOL    HW2  549   1.593   2.208   2.506 -4.2202  0.0557 -1.8192
  184SOL     OW  550   2.048   0.935   0.820  0.0896 -0.2195 -0.6993
  184SOL    HW1  551   1.964   0.988   0.784  1.5051 -0.9527 -1.9630
  184SOL    HW2  552   2.024   0.847   0.867  0.9529 -0.0444  1.9486
  185SOL     OW  553   1.573   2.710   2.078 -0.2312  0.6131  0.0839
  185SOL    HW1  554   1.523   2.794   2.041 -0.9794  0.9721  1.6874
  185SOL    HW2  555   1.527   2.679   2.161  0.0065  2.6597 -0.0939
  186SOL     OW  556   0.083   2.186   1.706 -0.2264 -0.6499 -0.5505
  186SOL    HW1  557   0.098   2.287   1.694  3.4862 -1.4857  1.8530
  186SOL    HW2  558   0.171   2.124   1.716  0.6318 -1.3852 -1.5546
  187SOL     OW  559   1.382   0.704   1.675  0.0773  0.1006 -0.3882
  187SOL    HW1  560   1.443   0.724   1.595  2.9022 -2.0613  1.3388
  187SOL    HW2  561   1.432   0.729   1.762  0.7229  2.2895 -2.8519
  188SOL     OW  562   2.796   2.798   1.465 -0.1080  0.9085 -0.2662
  188SOL    HW1  563   2.791   2.901   1.450 -0.7231  1.2562 -0.2093
  188SOL    HW2  564   2.734   2.748   1.398 -0.7012 -1.1764  3.2203
  189SOL     OW  565   0.861   1.058   1.377  0.2365  0.4080 -0.4072
  189SOL    HW1  566   0.933   1.119   1.429  0.5010  0.4296  0.6720
  189SOL    HW2  567   0.798   1.102   1.310 -0.0293  1.0562  0.5175
  190SOL     OW  568   1.540   1.876   1.568  0.0447 -0.0685  0.5218
  190SOL    HW1  569   1.439   1.883   1.545  0.4163  1.0545 -1.8170
  190SOL    HW2  570   1.563   1.914   1.665  0.6282 -0.1823  1.3841
  191SOL     OW  571   0.971   0.752   1.555 -0.3150  0.2272 -0.3224
  191SOL    HW1  572   1.031   0.666   1.567  1.7712  0.4191 -2.8565
  191SOL    HW2  573   1.037   0.834   1.550  0.1410  0.4697 -0.0125
  192SOL     OW  574   1.847   2.257   1.124 -0.0019 -1.0626 -0.1160
  192SOL    HW1  575   1.772   2.227   1.061  0.6949 -0.8159  3.4316
  192SOL    HW2  576   1.907   2.331   1.078 -1.2188  0.8896 -0.1288
  193SOL     OW  577   0.512   0.616   0.399 -0.0447 -0.1001  0.0342
  193SOL    HW1  578   0.470   0.548   0.462  1.3158  2.4896 -0.2088
  193SOL    HW2  579   0.539   0.571   0.309  1.2444 -0.5581 -0.3716
  194SOL     OW  580   0.282   0.837   1.254 -0.0013 -0.4514  0.0310
  194SOL    HW1  581   0.189   0.791   1.235 -1.8434 -0.8941  1.7968
  194SOL    HW2  582   0.308   0.908   1.183 -1.3990 -1.8351  0.5889
  195SOL     OW  583   0.994   2.920   0.447 -0.0996  0.0674  0.6622
  195SOL    HW1  584   0.988   2.819   0.413  0.8431 -3.1189 -0.4405
  195SOL    HW2  585   1.097   2.960   0.445  3.7984 -1.0281 -1.0210
  196SOL     OW  586   0.273   1.407   1.404 -0.3352 -0.0366 -0.1952
  196SOL    HW1  587   0.308   1.490   1.460  1.7104 -1.6038 -1.6160
  196SOL    HW2  588   0.269   1.322   1.463 -1.2346  2.1432 -0.9791
  197SOL     OW  589   0.896   2.047   0.225 -0.8689 -0.2645 -0.3665
  197SOL    HW1  590   0.905   2.012   0.325 -0.7969 -0.1902 -0.2797
  197SOL    HW2  591   0.942   1.980   0.159 -2.1687  0.6703 -1.0311
  198SOL     OW  592   0.273   1.242   0.280  0.2965 -0.4913 -0.2331
  198SOL    HW1  593   0.178   1.219   0.251 -0.7068  0.8351  2.5598
  198SOL    HW2  594   0.299   1.348   0.268 -1.2744 -0.4868 -0.6761
  199SOL     OW  595   2.216   0.382   2.528 -0.4298 -0.6251  0.3819
  199SOL    HW1  596   2.145   0.361   2.597  0.6681  1.8635 -1.4915
  199SOL    HW2  597   2.317   0.365   2.562  3.5199 -3.4152  0.5905
  200SOL     OW  598   0.010   2.963   0.667  0.7050 -0.0627 -0.1104
  200SOL    HW1  599  -0.071   2.961   0.602  0.5587  1.3829  1.0014
  200SOL    HW2  600   0.043   3.053   0.704  0.6545 -2.5054  0.9406
  201SOL     OW  601   1.100   0.724   0.646 -0.1039  0.0430  0.1839
  201SOL    HW1  602   1.087   0.790   0.724 -2.8849  2.6397 -0.4685
  201SOL    HW2  603   1.008   0.702   0.604 -0.7759 -1.9309 -0.1030
  202SOL     OW  604   0.502   1.242   1.808 -0.1078 -0.1081  0.9828
  202SOL    HW1  605   0.546   1.217   1.721 -2.6483 -2.0976  0.4716
  202SOL    HW2  606   0.519   1.162   1.876  0.7722 -2.2013  0.5758
  203SOL     OW  607   0.735   0.203   1.584 -0.2299 -0.6256 -0.3796
  203SOL    HW1  608   0.745   0.137   1.505  2.0985 -1.5186 -0.7546
  203SOL    HW2  609   0.782   0.160   1.665 -0.0159 -1.1882 -3.5500
  204SOL     OW  610   2.102   1.853   3.003 -0.1604  0.7460 -0.0506
  204SOL    HW1  611   2.134   1.753   2.984  1.1719  1.5613  1.3096
  204SOL    HW2  612   2.069   1.917   2.924 -1.0616 -1.2182  2.1876
  205SOL     OW  613   1.836   1.879   0.033 -0.3220  0.4400  0.1374
  205SOL    HW1  614   1.936   1.875   0.019 -0.0706  1.0281  0.2099
  205SOL    HW2  615   1.792   1.973   0.018 -1.2501 -0.4225  1.0163
  206SOL     OW  616   2.518   2.774   0.330  0.0021  0.0630 -0.4425
  206SOL    HW1  617   2.581   2.704   0.367 -2.9690  0.7645 -0.3145
  206SOL    HW2  618   2.560   2.822   0.253 -1.6897 -1.3539 -2.6159
  207SOL     OW  619   0.564   1.785   2.911 -0.6817 -0.0522  0.1413
  207SOL    HW1  620   0.666   1.772   2.908 -0.5089 -0.6721 -1.2829
  207SOL    HW2  621   0.510   1.709   2.952  0.8876 -0.9207 -0.9974
  208SOL     OW  622   1.102   1.542   1.414  0.5667  0.1808 -0.3165
  208SOL    HW1  623   1.058   1.583   1.332  3.1068  0.4492 -0.2391
  208SOL    HW2  624   1.166   1.608   1.459 -1.2773 -3.4609 -1.3452
  209SOL     OW  625   0.278   0.948   2.996 -0.2593  0.0265  0.0085
  209SOL    HW1  626   0.310   0.897   2.910  0.3031 -1.2701 -0.0574
  209SOL    HW2  627   0.282   0.893   3.085 -0.9707  0.2947 -0.7357
  210SOL     OW  628   1.732   0.479   1.192  0.6616 -0.3437  0.3926
  210SOL    HW1  629   1.693   0.566   1.150  0.7333  1.7185  2.3285
  210SOL    HW2  630   1.836   0.471   1.181 -1.1456  0.3111  2.0782
  211SOL     OW  631   2.094   1.069   1.614 -0.2799 -0.5085  0.0560
  211SOL    HW1  632   2.158   1.017   1.673  0.2796  2.2800  3.0625
  211SOL    HW2  633   2.141   1.129   1.540 -1.3177 -0.1212 -1.3948
  212SOL     OW  634   0.030   0.998   1.460  0.6713 -0.0988 -0.2269
  212SOL    HW1  635   0.085   1.045   1.533 -2.1011  1.0420  2.7718
  212SOL    HW2  636   0.014   0.903   1.493 -0.1792  0.8053 -0.5346
  213SOL     OW  637   2.760   0.379   0.254  0.2067  0.1989  0.1142
  213SOL    HW1  638   2.830   0.310   0.224  1.0853 -2.8634 -2.7432
  213SOL    HW2  639   2.720   0.447   0.181 -1.2025  2.9785 -2.0772
  214SOL     OW  640   2.166   0.258   2.275 -0.7523 -0.7760 -0.1782
  214SOL    HW1  641   2.198   0.283   2.371  0.9714  0.0944  0.0005
  214SOL    HW2  642   2.123   0.163   2.277  0.6709 -0.8791 -1.0336
  215SOL     OW  643   1.641   2.279   2.022 -0.1527  0.0705  0.1312
  215SOL    HW1  644   1.743   2.300   2.017 -2.1974 -1.1788 -1.2359
  215SOL    HW2  645   1.594   2.335   2.091 -1.1424  0.5966 -0.3613
  216SOL     OW  646   2.218   0.541   0.700  0.1751  0.0215  0.2456
  216SOL    HW1  647   2.228   0.466   0.627  0.9779  2.2471  1.4135
  216SOL    HW2  648   2.151   0.614   0.680 -1.1381  1.0799  1.0283
  217SOL     OW  649   0.733   2.779   2.488 -0.1447 -0.0826  0.2123
  217SOL    HW1  650   0.682   2.699   2.529 -1.3383 -1.3339  2.2402
  217SOL    HW2  651   0.758   2.751   2.390  0.8822 -2.9282 -0.0315
  218SOL     OW  652   1.912   1.416   0.061 -0.0366  0.3974 -0.0678
  218SOL    HW1  653   1.819   1.442   0.016  0.2457  1.2382 -0.4610
  218SOL    HW2  654   1.890   1.340   0.132 -1.6629  0.6429 -3.1548
  219SOL     OW  655   2.346   1.296   2.562  0.0639  0.1462  0.9464
  219SOL    HW1  656   2.381   1.272   2.472 -0.8892  0.0570 -1.0239
  219SOL    HW2  657   2.361   1.219   2.631 -1.5616  0.7118 -0.5059
  220SOL     OW  658   1.538   0.990   1.223  0.3250 -0.3490  0.3152
  220SOL    HW1  659   1.603   1.033   1.291 -0.7109  0.6723 -1.3693
  220SOL    HW2  660   1.500   1.052   1.145  1.2512  1.5781  1.6303
  221SOL     OW  661   1.374   1.082   2.200 -0.3707 -0.8849  0.2084
  221SOL    HW1  662   1.310   1.141   2.137  0.9513  0.6187 -1.7925
  221SOL    HW2  663   1.463   1.055   2.151 -0.0757  0.0347 -0.3407
  222SOL     OW  664   1.243   0.023   1.218 -0.3735 -0.0636 -1.0103
  222SOL    HW1  665   1.283   0.061   1.305  0.1977 -4.1746  0.2458
  222SOL    HW2  666   1.200   0.096   1.157 -0.0504  0.5706  1.2044
  223SOL     OW  667   2.848   0.865   2.041 -1.0820 -0.0689  0.3328
  223SOL    HW1  668   2.868   0.876   2.142  2.3302 -0.7559  0.2747
  223SOL    HW2  669   2.899   0.935   1.985  2.7766 -0.3226  0.6001
  224SOL     OW  670   1.493   0.952   2.743  0.1339  0.1149 -0.2169
  224SOL    HW1  671   1.535   0.907   2.660 -1.2795  2.7946  2.3637
  224SOL    HW2  672   1.483   1.053   2.726  0.0990 -1.3127 -3.4249
  225SOL     OW  673   2.962   2.774   2.891 -0.0627  0.4721  0.3156
  225SOL    HW1  674   2.936   2.703   2.824 -1.3703  2.2583  0.6761
  225SOL    HW2  675   3.015   2.851   2.852 -1.5217 -2.4561  0.3575
  226SOL     OW  676   2.419   1.590   2.839 -0.2565 -0.0036 -0.1369
  226SOL    HW1  677   2.450   1.556   2.746  1.1336 -0.1526  0.3113
  226SOL    HW2  678   2.362   1.521   2.886 -1.5917 -1.4611 -0.5786
  227SOL     OW  679   0.889   0.133   3.033 -0.2193  0.4679  0.3012
  227SOL    HW1  680   0.913   0.071   3.111 -3.4973  1.1003 -2.6544
  227SOL    HW2  681   0.916   0.089   2.944 -0.7101  1.8644  2.8667
  228SOL     OW  682   2.373   0.630   2.846  0.4886 -0.0140 -0.0761
  228SOL    HW1  683   2.317   0.648   2.758  1.1568 -0.1673  1.4895
  228SOL    HW2  684   2.460   0.581   2.831 -0.8488  0.4625 -1.8196
  229SOL     OW  685   0.573   0.528   1.888  0.1992  0.0969  0.2637
  229SOL    HW1  686   0.487   0.491   1.846  1.7094  0.2036  2.1361
  229SOL    HW2  687   0.646   0.582   1.838  2.4316 -2.7093  2.2631
  230SOL     OW  688   1.920   1.199   2.159 -0.1933 -0.4267 -0.1444
  230SOL    HW1  689   1.999   1.202   2.091  0.7630 -0.1215  1.7956
  230SOL    HW2  690   1.838   1.243   2.120  3.0195 -0.8174  3.0946
  231SOL     OW  691   0.640   0.988   2.991  0.2573  0.2034 -0.7483
  231SOL    HW1  692   0.736   1.029   2.983  0.2045 -0.5429  0.1801
  231SOL    HW2  693   0.627   0.948   3.089  2.0710  1.0474 -0.6638
  232SOL     OW  694   2.447   0.024   2.745 -0.2397  0.5017 -0.1265
  232SOL    HW1  695   2.475  -0.070   2.768  0.8801  0.3616  1.3008
  232SOL    HW2  696   2.503   0.058   2.663 -0.1292 -1.8755 -2.2150
  233SOL     OW  697   1.697   1.303   1.100  0.3729  0.1111  0.2854
  233SOL    HW1  698   1.673   1.328   1.000  0.6146  0.2609 -0.8737
  233SOL    HW2  699   1.770   1.237   1.107 -3.4819 -0.8031 -0.5906
  234SOL     OW  700   1.622   2.565   1.840 -0.3979  0.4956 -0.2332
  234SOL    HW1  701   1.579   2.624   1.917 -0.1163  2.0329 -1.3679
  234SOL    HW2  702   1.562   2.491   1.796 -1.1506 -0.0545 -1.9019
  235SOL     OW  703   0.018   3.025   2.907 -0.0218 -0.3579 -0.0270
  235SOL    HW1  704   0.104   3.074   2.869 -0.8719  2.5172  1.0025
  235SOL    HW2  705  -0.026   3.073   2.989 -1.0477  1.3125 -0.1912
  236SOL     OW  706   2.879   0.686   0.138  0.6035  0.1570 -0.1239
  236SOL    HW1  707   2.957   0.742   0.179 -3.3920 -0.2294 -0.3598
  236SOL    HW2  708   2.909   0.628   0.056  4.5112  1.1034  3.0804
  237SOL     OW  709   1.459   1.640   1.035 -0.9391  0.5290  0.1159
  237SOL    HW1  710   1.561   1.640   1.034  0.8226  3.6472  0.7716
  237SOL    HW2  711   1.414   1.698   1.112  0.1949 -1.4921  1.2816
  238SOL     OW  712   1.769   1.291   0.818  0.2303 -0.3343  0.4678
  238SOL    HW1  713   1.866   1.296   0.786  1.6069  0.7373 -0.5935
  238SOL    HW2  714   1.715   1.364   0.766 -0.1536  2.1346 -0.1516
  239SOL     OW  715   2.038   0.271   2.707  0.2512 -0.4968  0.5604
  239SOL    HW1  716   2.114   0.237   2.768  2.6424 -1.0928 -0.1170
  239SOL    HW2  717   1.963   0.318   2.758  1.4392  1.6150  3.5048
  240SOL     OW  718   0.958   0.677   0.273  0.9835 -0.4244  0.5938
  240SOL    HW1  719   0.917   0.592   0.220  2.9501 -1.3712 -2.8552
  240SOL    HW2  720   0.945   0.674   0.374  2.1471  1.4891 -1.8595
  241SOL     OW  721   0.585   0.105   0.315  0.1889  0.1497  0.3143
  241SOL    HW1  722   0.589   0.131   0.219 -1.7406  1.6550  1.0319
  241SOL    HW2  723   0.534   0.012   0.336 -2.4826 -1.1945 -2.8231
  242SOL     OW  724   0.662   2.483   1.140  0.5926  0.0972 -0.3049
  242SOL    HW1  725   0.630   2.556   1.207 -0.6866  0.9929 -0.0272
  242SOL    HW2  726   0.754   2.502   1.093 -2.6067 -1.2133 -0.2095
  243SOL     OW  727   1.120   0.621   2.433 -0.5387 -0.0936  0.0399
  243SOL    HW1  728   1.057   0.691   2.402 -2.3437 -2.5918  2.0791
  243SOL    HW2  729   1.073   0.563   2.504  2.1123  1.5813 -1.6654
  244SOL     OW  730   2.808   1.854   2.389  0.0378 -0.2074 -0.2296
  244SOL    HW1  731   2.836   1.826   2.291  0.4404  0.5536 -0.2265
  244SOL    HW2  732   2.709   1.836   2.408 -1.5824  0.2243  1.5792
  245SOL     OW  733   2.505   0.682   2.174  0.1308 -0.3739  0.1617
  245SOL    HW1  734   2.523   0.756   2.248  1.7405 -0.9582  1.5533
  245SOL    HW2  735   2.584   0.623   2.152 -1.5740  2.1170  2.5852
  246SOL     OW  736   0.274   2.936   1.693 -0.8737  0.4004  0.0337
  246SOL    HW1  737   0.228   2.891   1.613  0.8687  0.6315  0.6808
  246SOL    HW2  738   0.340   3.015   1.665 -0.1350  0.7270  0.3689
  247SOL     OW  739   2.217   0.564   3.050 -0.5654 -0.5402  0.1940
  247SOL    HW1  740   2.270   0.567   2.960 -2.4117  0.1426 -3.5498
  247SOL    HW2  741   2.142   0.640   3.052  1.2132  0.0763  0.6792
  248SOL     OW  742   2.134   1.821   1.607 -0.1126 -0.8269 -0.6550
  248SOL    HW1  743   2.196   1.738   1.624  2.2366  2.0244 -1.8342
  248SOL    HW2  744   2.055   1.830   1.675 -1.8339 -0.0677 -0.6885
  249SOL     OW  745   1.951   1.968   1.953  0.3674 -0.7876 -0.5068
  249SOL    HW1  746   1.941   1.900   1.873  0.3204 -2.3505 -0.6229
  249SOL    HW2  747   2.046   2.019   1.949 -1.6295  0.8255 -2.7337
  250SOL     OW  748   1.103   0.738   1.860  0.6579 -0.0469  0.0399
  250SOL    HW1  749   1.138   0.668   1.928 -1.6212 -0.0967  2.1342
  250SOL    HW2  750   1.101   0.700   1.766  0.8200  1.9783 -1.0705
  251SOL     OW  751   3.036   1.563   2.544 -0.2007 -0.1955  0.0493
  251SOL    HW1  752   3.030   1.663   2.512 -0.3075 -1.8448  0.6061
  251SOL    HW2  753   2.960   1.509   2.500  0.3400  1.2530 -0.9951
  252SOL     OW  754   1.532   0.890   1.497  0.2572 -0.1422  0.3378
  252SOL    HW1  755   1.521   0.929   1.401  0.2719  0.1820 -0.3241
  252SOL    HW2  756   1.547   0.966   1.568 -0.4367 -1.0594 -2.6803
  253SOL     OW  757   0.915   1.550   0.391 -0.4108  0.0745  0.3112
  253SOL    HW1  758   0.968   1.458   0.384 -4.2146  1.1288  0.2979
  253SOL    HW2  759   0.827   1.534   0.345 -0.4900 -1.4819 -2.5997
  254SOL     OW  760   2.083   2.162   1.589  0.0389 -0.5890 -0.5896
  254SOL    HW1  761   2.042   2.108   1.512 -2.3419  0.4677  1.4587
  254SOL    HW2  762   2.015   2.183   1.665  0.6993 -1.5868 -0.2502
  255SOL     OW  763   0.116   1.157   2.927 -0.9320 -0.1290  0.1322
  255SOL    HW1  764   0.166   1.250   2.920 -0.4438  4.2418  0.1767
  255SOL    HW2  765   0.180   1.078   2.955  0.6783  1.5899 -0.1957
  256SOL     OW  766   2.806   1.358   1.834 -0.1756 -0.1820 -0.2761
  256SOL    HW1  767   2.765   1.453   1.841  1.4613 -0.3823  0.9015
  256SOL    HW2  768   2.754   1.287   1.887 -1.1857  0.6037 -2.2343
  257SOL     OW  769   0.898   0.141   1.826 -0.1514 -0.5301 -0.7588
  257SOL    HW1  770   0.948   0.204   1.767 -1.4033 -3.0117  0.4023
  257SOL    HW2  771   0.955   0.056   1.842  1.1499  1.2437  2.4592
  258SOL     OW  772   2.969   1.284   0.435 -0.9302 -0.0600 -0.6871
  258SOL    HW1  773   2.895   1.352   0.436 -0.2480 -3.1289 -0.5142
  258SOL    HW2  774   3.028   1.291   0.519  3.0001  0.4331 -0.7896
  259SOL     OW  775   0.471   2.946   3.005  0.0801 -0.5722  0.3226
  259SOL    HW1  776   0.426   2.864   3.055 -0.5227  2.5579 -0.8125
  259SOL    HW2  777   0.487   2.922   2.904  4.6943 -0.6870 -0.8869
  260SOL     OW  778   2.710   0.849   2.730  0.2042 -0.4440 -0.4215
  260SOL    HW1  779   2.627   0.837   2.668  0.3374  2.2559 -0.8628
  260SOL    HW2  780   2.689   0.863   2.831  2.3429 -1.0741  0.6726
  261SOL     OW  781   2.722   1.374   1.322 -0.1702 -0.1031  0.5882
  261SOL    HW1  782   2.665   1.302   1.269  1.5868 -1.6552 -1.0904
  261SOL    HW2  783   2.816   1.346   1.348  1.9239  0.9651  0.5767
  262SOL     OW  784   1.435   2.948   1.991 -0.0966  0.0518  0.2870
  262SOL    HW1  785   1.467   3.044   1.980  3.6011 -2.2350  0.1647
  262SOL    HW2  786   1.333   2.940   1.966 -0.3164  2.6311  0.4743
  263SOL     OW  787   0.865   0.737   2.339  0.3190 -0.3109  1.0069
  263SOL    HW1  788   0.822   0.644   2.311  2.6229  0.1922 -1.0719
  263SOL    HW2  789   0.879   0.804   2.262 -0.5977 -0.3825  3.3288
  264SOL     OW  790   2.241   0.734   0.389 -0.6449  0.2753 -0.7927
  264SOL    HW1  791   2.140   0.748   0.419 -2.8729  2.9722 -0.0048
  264SOL    HW2  792   2.312   0.815   0.393  1.1635  2.8347 -0.0602
  265SOL     OW  793   0.906   2.287   2.640 -0.0154 -0.0943 -0.7745
  265SOL    HW1  794   0.940   2.324   2.732 -0.3679  0.6041  1.3208
  265SOL    HW2  795   0.865   2.189   2.646  0.9458 -0.4650 -0.1455
  266SOL     OW  796   1.328   1.744   0.026 -0.0653  0.5912 -0.4289
  266SOL    HW1  797   1.297   1.826   0.086 -0.2759 -1.2485  0.2104
  266SOL    HW2  798   1.432   1.737   0.008  0.5742  1.6437  1.2956
  267SOL     OW  799   1.035   3.060   2.378 -0.3456  0.1426  0.0470
  267SOL    HW1  800   1.012   3.017   2.284  0.2571  0.7964 -0.8953
  267SOL    HW2  801   1.012   3.160   2.377 -0.0387 -0.9854 -0.3136
  268SOL     OW  802   0.659   1.142   1.073 -0.4866 -0.2763 -0.1757
  268SOL    HW1  803   0.661   1.206   1.153  0.4314  0.1813  1.0266
  268SOL    HW2  804   0.672   1.194   0.987 -1.7125 -2.5039  1.2015
  269SOL     OW  805   2.432   2.450   1.556  0.4372  0.6453 -0.0253
  269SOL    HW1  806   2.532   2.420   1.571 -0.1895 -2.3823 -0.6766
  269SOL    HW2  807   2.392   2.491   1.646  0.3296 -0.2566 -0.5847
  270SOL     OW  808   0.138   3.055   1.909 -0.4410  0.4958 -0.7847
  270SOL    HW1  809   0.212   3.029   1.839 -0.4300 -1.6384 -0.3720
  270SOL    HW2  810   0.083   2.972   1.938  1.1850  0.5509  2.3349
  271SOL     OW  811   0.469   1.445   1.151 -0.0024 -0.1086 -0.7224
  271SOL    HW1  812   0.430   1.435   1.054  2.0124  2.6924 -2.0544
  271SOL    HW2  813   0.401   1.411   1.224 -1.4978 -1.3714  1.5849
  272SOL     OW  814   1.973   2.902   1.927  0.3203 -0.6355  0.3604
  272SOL    HW1  815   1.930   2.841   1.850  0.1478 -2.3202 -3.1103
  272SOL    HW2  816   2.049   2.969   1.896 -1.3375 -1.1450 -0.9239
  273SOL     OW  817   1.383   1.430   2.840 -0.0529  0.3699  0.1661
  273SOL    HW1  818   1.311   1.475   2.784 -0.4842 -0.7507 -1.3527
  273SOL    HW2  819   1.350   1.425   2.935 -0.9798  0.8681 -0.5541
  274SOL     OW  820   1.161   0.539   2.053  0.5318 -0.6838 -0.5727
  274SOL    HW1  821   1.191   0.449   2.006  0.2915  3.0925 -0.5703
  274SOL    HW2  822   1.214   0.549   2.143 -0.2319 -1.5735  2.2642
  275SOL     OW  823   0.610   2.076   1.930  0.2240  0.3036 -0.3959
  275SOL    HW1  824   0.575   2.174   1.934 -1.0312 -0.3582 -0.4154
  275SOL    HW2  825   0.527   2.007   1.924 -1.9918 -3.0030 -1.4425
  276SOL     OW  826   2.187   0.896   2.778  0.1095  0.0414  0.9381
  276SOL    HW1  827   2.125   0.931   2.706 -0.6609  0.9407 -0.8790
  276SOL    HW2  828   2.141   0.849   2.861 -1.6007  0.8761 -0.0710
  277SOL     OW  829   3.067   0.880   0.226 -0.3752  0.0848 -0.1579
  277SOL    HW1  830   3.135   0.934   0.172  0.9199 -0.7517  0.5011
  277SOL    HW2  831   3.120   0.814   0.288 -0.9758 -0.7530  2.4755
  278SOL     OW  832   0.235   0.292   3.006  0.1514 -0.0730  0.3621
  278SOL    HW1  833   0.320   0.242   3.049  0.1604 -1.4837  0.8580
  278SOL    HW2  834   0.228   0.398   3.019 -0.3255 -2.3940  0.8389
  279SOL     OW  835   0.126   0.070   0.892 -0.4506 -0.1333  0.4811
  279SOL    HW1  836   0.169   0.038   0.981  0.5037 -1.2370 -1.7838
  279SOL    HW2  837   0.193   0.047   0.814 -1.7555  1.1541 -1.6824
  280SOL     OW  838   1.637   2.887   2.562 -0.4184  0.3033  0.4620
  280SOL    HW1  839   1.717   2.956   2.564 -1.3078 -1.1026  0.0828
  280SOL    HW2  840   1.544   2.928   2.551  0.6816 -1.6501 -1.9011
  281SOL     OW  841   0.570   0.966   2.290 -0.0762  0.0919  0.1742
  281SOL    HW1  842   0.553   0.882   2.235 -0.6636  0.6599 -0.9052
  281SOL    HW2  843   0.522   0.965   2.379  0.1021 -1.3796 -0.3030
  282SOL     OW  844   1.690   2.380   0.509  0.1408  0.2296 -0.0030
  282SOL    HW1  845   1.662   2.305   0.440  1.5531 -3.0428  2.2194
  282SOL    HW2  846   1.680   2.483   0.485 -0.7807  2.8811  0.4711
  283SOL     OW  847   1.173   0.947   0.833 -0.4173  0.0454 -0.0684
  283SOL    HW1  848   1.203   0.870   0.899 -0.8754  0.2661 -0.3793
  283SOL    HW2  849   1.100   1.012   0.874  0.7004 -0.8288 -3.0313
  284SOL     OW  850   2.365   2.792   2.304 -0.2629 -0.1909  0.2848
  284SOL    HW1  851   2.425   2.878   2.300  0.8928  2.4014 -0.5039
  284SOL    HW2  852   2.371   2.743   2.397 -2.8277  0.8750 -1.4590
  285SOL     OW  853   1.388   2.978   2.526  0.7483  0.7070  0.0863
  285SOL    HW1  854   1.383   2.998   2.421 -2.6975  2.8667 -1.1799
  285SOL    HW2  855   1.321   3.038   2.573  2.7533 -0.5135 -0.8161
  286SOL     OW  856   0.441   0.421   0.725 -0.0472  0.1605  0.1245
  286SOL    HW1  857   0.430   0.360   0.811  0.2284 -1.3317  1.9309
  286SOL    HW2  858   0.472   0.361   0.644 -0.5465 -0.4901 -1.6329
  287SOL     OW  859   0.146   1.290   2.544  0.2080  0.3440  0.1539
  287SOL    HW1  860   0.076   1.219   2.578 -2.9238 -1.0726 -2.4494
  287SOL    HW2  861   0.115   1.390   2.555 -0.1812 -0.9717  0.3209
  288SOL     OW  862   1.531   2.659   1.558  0.1417 -0.6902  0.8333
  288SOL    HW1  863   1.630   2.639   1.591 -1.6254 -1.8075 -1.1267
  288SOL    HW2  864   1.529   2.701   1.458  1.7566  0.9964 -2.8396
  289SOL     OW  865   0.683   2.690   0.814 -0.0861 -0.0994 -0.3811
  289SOL    HW1  866   0.730   2.747   0.743 -1.0869 -0.3385  1.3670
  289SOL    HW2  867   0.671   2.747   0.902 -2.6643  1.0778  2.0659
  290SOL     OW  868   2.842   1.081   1.626  0.0809  0.2648  0.4862
  290SOL    HW1  869   2.738   1.068   1.648 -0.6068 -3.6059  1.0334
  290SOL    HW2  870   2.904   1.041   1.700 -0.3967  0.8199  0.5101
  291SOL     OW  871   1.959   0.057   0.064 -0.4276 -0.0796 -0.5743
  291SOL    HW1  872   1.986   0.045   0.167  0.1309  1.7591  0.3962
  291SOL    HW2  873   2.010   0.144   0.035 -0.7955 -0.7308 -0.1931
  292SOL     OW  874   2.975   1.174   3.050 -0.1641  0.3035  0.1497
  292SOL    HW1  875   2.900   1.219   2.996 -1.3336  0.3684  1.8377
  292SOL    HW2  876   3.063   1.190   3.004 -0.0816 -0.5626  1.0534
  293SOL     OW  877   0.587   2.127   0.141 -0.5336 -0.1875  0.3584
  293SOL    HW1  878   0.547   2.191   0.220  0.4049  0.9176 -0.0651
  293SOL    HW2  879   0.664   2.071   0.177 -1.1530  0.8454  1.9012
  294SOL     OW  880   1.693   2.227   1.755  0.2310  0.4342  0.6696
  294SOL    HW1  881   1.660   2.275   1.839  0.3755  0.2224 -0.8481
  294SOL    HW2  882   1.684   2.294   1.672  1.6196 -2.0129 -0.0862
  295SOL     OW  883   1.042   1.011   0.459 -0.1589 -0.0324  0.5440
  295SOL    HW1  884   1.125   0.966   0.504 -0.8142  1.5080 -0.7190
  295SOL    HW2  885   0.972   1.050   0.528 -6.0005 -0.3205  2.4928
  296SOL     OW  886   1.290   2.058   2.517 -0.1469  0.8163 -0.2548
  296SOL    HW1  887   1.240   2.077   2.432 -1.0733 -0.6481 -2.2135
  296SOL    HW2  888   1.294   1.955   2.543 -0.8082 -0.0889  2.2419
  297SOL     OW  889   1.476   0.619   1.385 -0.3062 -0.5673  0.4013
  297SOL    HW1  890   1.426   0.527   1.378  1.1138 -1.0452 -1.1458
  297SOL    HW2  891   1.573   0.602   1.421  0.1513 -2.2631  0.7103
  298SOL     OW  892   0.485   1.267   2.914  0.6869  0.8004  0.6660
  298SOL    HW1  893   0.515   1.212   2.997  0.3926  1.5240  0.3777
  298SOL    HW2  894   0.551   1.238   2.839  0.8821 -0.8175  0.1144
  299SOL     OW  895   0.469   0.260   1.419  0.0093 -0.1725 -0.3279
  299SOL    HW1  896   0.448   0.352   1.385  0.0273 -1.9829  1.6205
  299SOL    HW2  897   0.561   0.248   1.453  0.0283  3.9134 -1.5270
  300SOL     OW  898   1.192   1.817   2.894  0.0197 -0.3121 -0.1527
  300SOL    HW1  899   1.144   1.734   2.853  0.2115 -1.6688 -0.4673
  300SOL    HW2  900   1.245   1.796   2.987  0.1260  2.9112  1.2071
  301SOL     OW  901   0.454   0.273   0.492  0.1564 -0.2025 -0.0163
  301SOL    HW1  902   0.354   0.249   0.509  0.1949 -0.3457  4.6437
  301SOL    HW2  903   0.498   0.212   0.420  3.2202  0.9930  0.2616
  302SOL     OW  904   1.232   2.370   2.257 -1.0350  0.0748 -0.6274
  302SOL    HW1  905   1.159   2.389   2.335 -2.1698 -0.3009  2.1642
  302SOL    HW2  906   1.234   2.275   2.226  2.0427  0.8812  1.4459
  303SOL     OW  907   0.950   2.330   0.798 -0.0287 -0.4026 -0.1115
  303SOL    HW1  908   1.002   2.353   0.714  1.3125 -0.5446  3.1798
  303SOL    HW2  909   0.969   2.394   0.878 -1.8556 -0.5457 -0.5251
  304SOL     OW  910   0.158   2.063   0.626  0.5390 -0.1097  0.3397
  304SOL    HW1  911   0.168   1.994   0.550 -0.1457  0.3172 -0.5314
  304SOL    HW2  912   0.080   2.136   0.614 -2.3825  0.7120 -2.2804
  305SOL     OW  913   1.577   0.899   0.595 -0.2965 -0.0231 -0.1089
  305SOL    HW1  914   1.538   0.927   0.497  1.7499 -0.5671  0.0479
  305SOL    HW2  915   1.628   0.808   0.601  1.7008  1.3794  1.2304
  306SOL     OW  916   0.456   1.865   1.870 -0.1078 -0.5201  0.0815
  306SOL    HW1  917   0.538   1.828   1.818 -1.2773  2.6400  1.2324
  306SOL    HW2  918   0.433   1.811   1.959  0.7189  1.5677  0.5625
  307SOL     OW  919   0.023   0.855   2.590 -0.6339  0.0702 -0.2835
  307SOL    HW1  920   0.016   0.955   2.619 -2.6926 -3.0946  3.4441
  307SOL    HW2  921  -0.022   0.788   2.655  1.4655 -0.4251 -0.4689
  308SOL     OW  922   1.536   2.685   2.852 -0.1320  0.6462  0.0536
  308SOL    HW1  923   1.532   2.643   2.757  0.3595 -4.9716 -2.7820
  308SOL    HW2  924   1.477   2.631   2.920  2.3305  1.7431  0.7955
  309SOL     OW  925   1.221   0.065   1.781 -0.4751 -0.3132  0.0814
  309SOL    HW1  926   1.323   0.060   1.787  1.0745  0.0915 -1.3526
  309SOL    HW2  927   1.181   0.098   1.690  0.0175  2.2568 -0.0845
  310SOL     OW  928   1.513   2.546   0.682  0.2464 -0.4346 -0.1340
  310SOL    HW1  929   1.496   2.600   0.771  2.1277  3.2258  1.4073
  310SOL    HW2  930   1.581   2.595   0.617  0.5633 -0.0241 -2.0535
  311SOL     OW  931   1.185   0.896   1.589  0.1713 -0.4484  0.2082
  311SOL    HW1  932   1.253   0.818   1.594  1.9945 -0.0775  0.6608
  311SOL    HW2  933   1.230   0.992   1.598 -0.0182 -1.5404  0.4506
  312SOL     OW  934   1.663   0.680   1.024  0.0682 -0.2673 -0.5116
  312SOL    HW1  935   1.599   0.759   1.050 -1.6779  1.2506  0.5101
  312SOL    HW2  936   1.643   0.645   0.928 -2.3022 -1.2988 -0.5880
  313SOL     OW  937   1.530   1.424   0.675  0.5872 -0.2656 -0.2764
  313SOL    HW1  938   1.440   1.446   0.720  2.1925 -0.9665 -0.1793
  313SOL    HW2  939   1.529   1.331   0.625  0.7766 -0.3803  1.2914
  314SOL     OW  940   2.996   3.096   0.054 -0.0123  1.2104  0.3661
  314SOL    HW1  941   2.965   3.161   0.125 -1.4444  1.4169  0.8773
  314SOL    HW2  942   2.925   3.022   0.037  3.0001 -1.0138 -0.1473
  315SOL     OW  943   1.217   0.214   2.797 -0.0073 -0.4246  0.6591
  315SOL    HW1  944   1.177   0.131   2.748 -2.2529 -2.2533 -0.4736
  315SOL    HW2  945   1.265   0.194   2.889 -4.0037  1.0695  1.6549
  316SOL     OW  946   1.668   2.110   0.924  0.6388 -0.0349 -0.0925
  316SOL    HW1  947   1.615   2.093   1.012  0.1256 -1.2359  0.2532
  316SOL    HW2  948   1.659   2.203   0.883 -0.9070 -2.2324  1.4398
  317SOL     OW  949   1.114   0.722   2.854 -0.4166  0.1412 -0.0091
  317SOL    HW1  950   1.050   0.763   2.924  0.6716 -3.5107  1.9211
  317SOL    HW2  951   1.093   0.624   2.839  0.3965 -0.8388  0.6265
  318SOL     OW  952   1.372   3.014   2.253 -0.7026  0.1521 -0.2289
  318SOL    HW1  953   1.379   3.106   2.204 -3.1555 -2.4804  1.1579
  318SOL    HW2  954   1.373   2.935   2.182  2.1447  2.4350  2.5559
  319SOL     OW  955   0.643   2.416   2.916 -0.2596  0.2155  0.4286
  319SOL    HW1  956   0.557   2.393   2.969  1.5304  1.4097 -0.8448
  319SOL    HW2  957   0.725   2.382   2.966 -0.3318  1.3603 -0.6869
  320SOL     OW  958   1.629   2.168   0.318 -0.1955 -0.1845 -0.4919
  320SOL    HW1  959   1.734   2.163   0.343  0.1346  0.6913  1.0637
  320SOL    HW2  960   1.571   2.110   0.381  1.5014  0.0790 -2.7785
  321SOL     OW  961   1.669   2.657   0.483  0.5681  0.2328  0.2223
  321SOL    HW1  962   1.585   2.694   0.433  1.6134 -0.0022 -2.6977
  321SOL    HW2  963   1.754   2.713   0.463 -0.1378  0.4657 -2.2528
  322SOL     OW  964   2.570   1.135   2.302 -0.8367  0.1775 -0.0735
  322SOL    HW1  965   2.652   1.176   2.356 -0.0239  0.2174  2.0748
  322SOL    HW2  966   2.559   1.031   2.321  0.9193 -2.1307 -1.1997
  323SOL     OW  967   1.007   2.638   0.811  0.4873  0.1283  0.3012
  323SOL    HW1  968   1.040   2.590   0.727  0.8539  1.7817  2.1270
  323SOL    HW2  969   1.037   2.737   0.820 -2.4164  2.6140 -0.4161
  324SOL     OW  970   0.241   2.489   2.504  0.0329  0.7092  0.2312
  324SOL    HW1  971   0.217   2.394   2.536 -2.0325  0.9664  1.6085
  324SOL    HW2  972   0.175   2.565   2.529  1.5990  1.3088  0.2158
  325SOL     OW  973   1.260   3.034   0.437  0.6257 -0.3164  0.2937
  325SOL    HW1  974   1.282   3.067   0.340 -1.5816  0.1888 -0.9410
  325SOL    HW2  975   1.274   3.107   0.511  1.1631 -0.1927 -0.3067
  326SOL     OW  976   2.468   0.763   3.080 -0.4334 -0.4745  0.2774
  326SOL    HW1  977   2.432   0.707   2.999 -2.9005 -0.4636  1.8263
  326SOL    HW2  978   2.536   0.708   3.137  0.4130 -0.1397  1.1044
  327SOL     OW  979   2.875   0.353   0.507 -0.4880 -0.6655  0.6131
  327SOL    HW1  980   2.827   0.397   0.425 -0.5259  0.6890  0.2912
  327SOL    HW2  981   2.815   0.283   0.550  0.4735  2.2293 -0.5711
  328SOL     OW  982   2.518   0.634   0.391  0.3842  0.5642 -0.2011
  328SOL    HW1  983   2.420   0.671   0.389 -1.7716  1.9744  0.9744
  328SOL    HW2  984   2.515   0.552   0.454 -3.0297  0.5555  1.1829
  329SOL     OW  985   2.981   2.971   2.164  0.2686  0.5685 -0.1685
  329SOL    HW1  986   3.031   2.900   2.221  2.7559  1.9110 -0.7469
  329SOL    HW2  987   2.999   3.068   2.196  0.6738 -0.2666 -1.5766
  330SOL     OW  988   0.552   0.186   1.876  0.6321 -0.5544 -0.0319
  330SOL    HW1  989   0.641   0.223   1.846 -0.1917 -0.9694 -0.1503
  330SOL    HW2  990   0.562   0.123   1.956 -1.4724 -1.6564 -2.2635
  331SOL     OW  991   2.951   1.935   1.114  0.7026  0.1539  0.1515
  331SOL    HW1  992   2.992   2.017   1.066 -0.8336  1.0879 -0.1439
  331SOL    HW2  993   2.866   1.952   1.172 -0.0024  0.3303 -2.7521
  332SOL     OW  994   0.424   1.127   0.071  0.2004  0.0465  0.2386
  332SOL    HW1  995   0.379   1.079  -0.008  0.8921  1.1616 -0.1661
  332SOL    HW2  996   0.366   1.196   0.120  0.3469 -1.3264 -0.8533
  333SOL     OW  997   2.859   1.053   0.312  0.0995  0.5538  0.1015
  333SOL    HW1  998   2.907   1.130   0.363 -1.4991 -0.8398 -0.9797
  333SOL    HW2  999   2.927   0.979   0.282  1.2732  1.1001 -0.8493
  334SOL     OW 1000   1.690   1.180   1.885  0.2547 -0.0176 -0.4399
  334SOL    HW1 1001   1.782   1.138   1.872  0.3225  3.1833 -0.1224
  334SOL    HW2 1002   1.698   1.271   1.938  0.2303  0.6425 -1.3820
  335SOL     OW 1003   1.990   2.747   2.606 -0.0834 -0.5507 -0.1587
  335SOL    HW1 1004   1.921   2.683   2.654 -1.0374 -3.4293  2.2298
  335SOL    HW2 1005   2.054   2.795   2.673  2.0119  0.5105  1.6452
  336SOL     OW 1006   0.243   0.075   2.827 -0.1422  0.1113  0.4899
  336SOL    HW1 1007   0.340   0.044   2.809 -0.1530 -0.7075  0.5848
  336SOL    HW2 1008   0.242   0.156   2.899  0.6015  1.1277  2.1265
  337SOL     OW 1009   0.929   2.808   2.818 -0.0758  0.0747 -0.3190
  337SOL    HW1 1010   0.925   2.766   2.916  0.7545  1.7587 -0.1940
  337SOL    HW2 1011   1.006   2.764   2.759  0.0497 -0.3821  1.3143
  338SOL     OW 1012   0.059   1.013   0.694  0.4428  0.2550 -0.2837
  338SOL    HW1 1013  -0.033   0.973   0.716 -1.4656  0.4788 -2.0450
  338SOL    HW2 1014   0.051   1.112   0.670 -2.2545  2.3819 -0.8905
  339SOL     OW 1015   1.710   1.361   2.081 -0.0348 -0.4533 -0.0118
  339SOL    HW1 1016   1.610   1.379   2.072  0.3719 -2.6212  1.3233
  339SOL    HW2 1017   1.763   1.450   2.082  1.1705  1.2865  0.7235
  340SOL     OW 1018   2.355   0.734   1.232  0.2520 -0.4919  0.0894
  340SOL    HW1 1019   2.254   0.737   1.215  0.3473 -0.3251 -1.3984
  340SOL    HW2 1020   2.408   0.671   1.164 -1.4357 -0.4519 -2.7437
  341SOL     OW 1021   1.926   2.169   0.356  0.4875 -0.6270  0.4254
  341SOL    HW1 1022   1.930   2.216   0.264  1.1105 -1.5721 -0.2699
  341SOL    HW2 1023   2.016   2.136   0.388  2.4825  0.3207 -0.5713
  342SOL     OW 1024   2.202   2.087   2.751 -0.4066 -0.1924 -0.1620
  342SOL    HW1 1025   2.254   2.009   2.789  0.1527  4.3442  2.3198
  342SOL    HW2 1026   2.097   2.073   2.751 -0.6562 -0.7209 -0.0121
  343SOL     OW 1027   0.378   0.783   2.746  0.2719  0.0665  0.2678
  343SOL    HW1 1028   0.384   0.841   2.654  4.4591  3.5261 -1.9115
  343SOL    HW2 1029   0.469   0.759   2.788  0.6209 -2.9714 -2.5874
  344SOL     OW 1030   1.934   1.399   0.444  0.5236 -0.1831  0.4997
  344SOL    HW1 1031   1.931   1.342   0.353  0.2719 -0.4192 -1.0177
  344SOL    HW2 1032   1.840   1.446   0.463  2.4541  2.6617  1.9534
  345SOL     OW 1033   1.376   2.259   2.894 -0.7751 -0.0054 -0.0389
  345SOL    HW1 1034   1.306   2.199   2.849  0.3514  0.3943 -0.7649
  345SOL    HW2 1035   1.467   2.212   2.881 -0.5251  1.3358 -0.1001
  346SOL     OW 1036   2.308   0.894   1.436  0.1059  0.0591 -0.6266
  346SOL    HW1 1037   2.273   0.992   1.427 -0.2370 -1.1139  0.5272
  346SOL    HW2 1038   2.312   0.852   1.343 -0.0300  0.3639 -0.0576
  347SOL     OW 1039   0.724   2.790   1.474 -0.2905 -0.4011 -0.2604
  347SOL    HW1 1040   0.696   2.739   1.562 -0.6373 -1.5880  1.2836
  347SOL    HW2 1041   0.654   2.863   1.450  0.6071 -1.0221 -1.8333
  348SOL     OW 1042   0.136   0.669   2.830  0.3884  0.0558 -0.5097
  348SOL    HW1 1043   0.043   0.710   2.832 -0.6474  4.6998  3.4410
  348SOL    HW2 1044   0.202   0.732   2.784  1.9629 -2.2642  0.5106
  349SOL     OW 1045   1.813   0.406   2.807 -0.4937  0.2396  0.3739
  349SOL    HW1 1046   1.792   0.497   2.754 -0.8246 -0.7019 -1.5300
  349SOL    HW2 1047   1.804   0.405   2.911 -0.2417 -1.2879  1.4061
  350SOL     OW 1048   1.572   0.440   0.360 -0.7957 -0.0192 -0.2377
  350SOL    HW1 1049   1.635   0.465   0.440 -1.3929  0.3600 -0.3920
  350SOL    HW2 1050   1.542   0.529   0.319 -1.7996 -0.2773 -0.0188
  351SOL     OW 1051   0.960   0.861   2.095 -0.2334 -0.3643  0.0825
  351SOL    HW1 1052   0.951   0.951   2.053 -1.4504 -3.8720 -0.5459
  351SOL    HW2 1053   0.998   0.793   2.027 -2.4284  2.6609 -2.7312
  352SOL     OW 1054   2.041   1.297   0.693 -0.3233 -0.2286 -0.2673
  352SOL    HW1 1055   1.986   1.335   0.616  1.4145 -0.6610  1.9725
  352SOL    HW2 1056   2.133   1.353   0.701 -1.5859  0.2173  0.6394
  353SOL     OW 1057   2.136   2.921   1.094  0.1795 -0.2601 -0.2024
  353SOL    HW1 1058   2.224   2.869   1.119  1.0287 -3.4430 -0.6359
  353SOL    HW2 1059   2.065   2.857   1.045 -3.3994 -0.2914 -0.9306
  354SOL     OW 1060   0.250   1.405   2.895 -0.2069  0.3359  0.0719
  354SOL    HW1 1061   0.215   1.440   2.810  1.0668 -3.3184  0.6148
  354SOL    HW2 1062   0.326   1.335   2.877 -0.8458 -0.1102  0.8177
  355SOL     OW 1063   0.519   1.532   0.505 -0.3583 -0.0717 -0.1792
  355SOL    HW1 1064   0.513   1.612   0.569 -2.0299  0.6575 -3.4600
  355SOL    HW2 1065   0.539   1.440   0.549  1.6616  1.1687  0.0441
  356SOL     OW 1066   0.953   0.288   2.095  0.3748 -0.3774 -0.1045
  356SOL    HW1 1067   1.033   0.348   2.081 -1.9826 -1.9058  1.9450
  356SOL    HW2 1068   0.943   0.217   2.016 -3.1010  0.8420 -0.3518
  357SOL     OW 1069   1.027   1.301   0.388 -0.3920 -0.5439  0.2003
  357SOL    HW1 1070   0.972   1.239   0.331  3.4522 -1.0768 -0.1510
  357SOL    HW2 1071   1.048   1.274   0.483  1.8907  0.4363 -0.3511
  358SOL     OW 1072   1.692   1.509   0.481  0.1866  0.2793 -0.1514
  358SOL    HW1 1073   1.631   1.468   0.555  0.1369  0.0618 -0.8517
  358SOL    HW2 1074   1.638   1.508   0.392 -0.6502  0.2477  0.1747
  359SOL     OW 1075   1.590   2.732   0.062  0.4420  0.4280  0.0762
  359SOL    HW1 1076   1.508   2.674   0.049 -0.9077  1.7231 -1.2317
  359SOL    HW2 1077   1.568   2.835   0.059  1.2537 -0.8412 -0.6234
  360SOL     OW 1078   0.871   0.614   0.539  0.2355 -0.3885 -0.0010
  360SOL    HW1 1079   0.774   0.619   0.577  0.3478  1.0681  0.1414
  360SOL    HW2 1080   0.906   0.520   0.559 -0.7239 -0.3804  3.0427
  361SOL     OW 1081   1.218   1.392   0.694 -0.8226  0.2073  0.1066
  361SOL    HW1 1082   1.267   1.417   0.781 -1.4124  0.0587 -0.7938
  361SOL    HW2 1083   1.116   1.426   0.697 -3.2454  0.7132  2.6425
  362SOL     OW 1084   1.353   1.758   0.774 -0.2713  0.1983  0.1351
  362SOL    HW1 1085   1.340   1.723   0.873 -1.2207  0.6426 -0.2232
  362SOL    HW2 1086   1.443   1.804   0.763 -0.1555  2.2920  1.7240
  363SOL     OW 1087   1.201   1.267   2.049 -0.2527 -0.0775 -0.3297
  363SOL    HW1 1088   1.300   1.291   2.073 -1.7399  1.1205 -0.6921
  363SOL    HW2 1089   1.169   1.326   1.969  0.1353 -0.1180 -1.4731
  364SOL     OW 1090   0.546   2.338   1.934 -0.5937  0.3248 -0.4714
  364SOL    HW1 1091   0.457   2.382   1.964 -0.7073  0.6044 -1.3167
  364SOL    HW2 1092   0.577   2.373   1.840  2.2278  0.7066  2.7914
  365SOL     OW 1093   1.035   1.897   1.396 -0.4328 -0.7919 -0.1986
  365SOL    HW1 1094   0.937   1.889   1.428  0.4256 -2.0672 -0.5777
  365SOL    HW2 1095   1.050   1.854   1.308 -0.1801  1.5743  0.2761
  366SOL     OW 1096   2.817   2.057   0.496  0.2648  0.0853 -0.0147
  366SOL    HW1 1097   2.718   2.034   0.493 -1.2565 -0.2725 -0.4954
  366SOL    HW2 1098   2.871   1.999   0.423  0.4147  1.3617  0.2958
  367SOL     OW 1099   0.828   1.157   0.175  0.7832 -0.4076  0.2765
  367SOL    HW1 1100   0.772   1.076   0.210 -1.7492 -0.1613 -2.2529
  367SOL    HW2 1101   0.880   1.148   0.085  0.3203 -0.5676  0.2796
  368SOL     OW 1102   1.518   0.592   0.722 -0.2104  0.1023 -0.2116
  368SOL    HW1 1103   1.451   0.592   0.644 -0.4756 -0.1266  0.1082
  368SOL    HW2 1104   1.602   0.647   0.699 -3.8749  1.2225 -2.3642
  369SOL     OW 1105   0.233   1.692   0.054 -0.7500 -0.5966  0.5501
  369SOL    HW1 1106   0.254   1.783   0.106 -1.3787  1.3716  1.8439
  369SOL    HW2 1107   0.147   1.648   0.087 -0.1317 -1.1027  1.3071
  370SOL     OW 1108   0.441   2.111   1.043  0.3964 -0.1983 -0.1360
  370SOL    HW1 1109   0.462   2.207   1.002 -1.4750 -0.1158  1.3294
  370SOL    HW2 1110   0.349   2.075   1.015 -0.6597  1.7765 -0.2148
  371SOL     OW 1111   2.895   2.235   2.727  0.4679  0.0127 -0.1026
  371SOL    HW1 1112   2.868   2.199   2.822 -3.2453 -0.6285  2.1145
  371SOL    HW2 1113   2.986   2.289   2.724 -0.6575 -1.1236 -1.3428
  372SOL     OW 1114   1.070   1.943   1.001  0.1379  0.4156  0.8960
  372SOL    HW1 1115   0.972   1.973   1.005  1.6489  2.2371  1.7164
  372SOL    HW2 1116   1.113   1.982   0.913 -1.8596 -2.0447  1.2764
  373SOL     OW 1117   1.964   1.985   0.899 -0.2041  0.0711  0.0889
  373SOL    HW1 1118   2.027   1.981   0.984  0.7198 -1.7430  0.9823
  373SOL    HW2 1119   1.869   2.026   0.921 -1.9963 -0.3143  0.4730
  374SOL     OW 1120   1.785   0.466   0.554 -0.4938  0.2299  0.0207
  374SOL    HW1 1121   1.825   0.418   0.638  3.4001 -3.2682  2.9233
  374SOL    HW2 1122   1.842   0.460   0.465  0.0766 -1.8914  2.6494
  375SOL     OW 1123   2.362   2.148   1.131 -0.3983  0.2048 -1.1294
  375SOL    HW1 1124   2.413   2.144   1.035 -0.3809 -2.3617 -1.9246
  375SOL    HW2 1125   2.426   2.141   1.215  1.8174  0.2755 -0.8200
  376SOL     OW 1126   2.998   0.616   1.420  0.0733  0.1389 -0.0086
  376SOL    HW1 1127   3.051   0.678   1.487 -1.2416 -2.3667  2.4702
  376SOL    HW2 1128   2.896   0.631   1.418  1.5252 -0.5228  0.9490
  377SOL     OW 1129   2.248   2.836   0.351 -0.4825 -0.2598 -0.1341
  377SOL    HW1 1130   2.232   2.934   0.381 -2.6748  1.8893 -1.2953
  377SOL    HW2 1131   2.343   2.811   0.317 -0.0588  1.2219 -0.0193
  378SOL     OW 1132   1.751   1.857   2.672 -0.4093 -0.6798  0.4917
  378SOL    HW1 1133   1.652   1.840   2.679 -1.7678  0.7584  1.5147
  378SOL    HW2 1134   1.800   1.769   2.658 -0.1851 -2.0872  1.6666
  379SOL     OW 1135   0.873   0.143   2.748  0.0238 -0.1243 -0.5039
  379SOL    HW1 1136   0.830   0.055   2.720 -0.1276  1.6655  0.9923
  379SOL    HW2 1137   0.810   0.224   2.718 -0.1466  0.2093 -1.4476
  380SOL     OW 1138   1.506   1.179   0.534 -0.5518  0.9322 -0.0954
  380SOL    HW1 1139   1.409   1.198   0.554  1.9388  0.6835 -2.3881
  380SOL    HW2 1140   1.542   1.107   0.594 -0.6407 -1.4533 -0.2213
  381SOL     OW 1141   1.302   1.192   1.543  0.1173  0.0894 -0.5579
  381SOL    HW1 1142   1.344   1.252   1.470  1.7630 -0.3083 -2.6309
  381SOL    HW2 1143   1.360   1.180   1.629 -0.1640  0.0487 -1.0362
  382SOL     OW 1144   1.766   0.801   0.258  0.1061  0.0488 -0.7088
  382SOL    HW1 1145   1.794   0.793   0.159  0.5731  0.4898 -0.5821
  382SOL    HW2 1146   1.841   0.805   0.329 -0.9801 -1.6429  0.1663
  383SOL     OW 1147   2.568   0.956   1.518 -0.1117 -0.1928 -0.0349
  383SOL    HW1 1148   2.482   0.923   1.473  1.5467  0.0665  1.5784
  383SOL    HW2 1149   2.647   0.941   1.458  0.1328  0.8428 -0.0636
  384SOL     OW 1150   0.904   2.283   0.065 -0.0428 -0.4462  0.4133
  384SOL    HW1 1151   0.853   2.350   0.124  1.7866  0.9096  3.2398
  384SOL    HW2 1152   0.899   2.182   0.095  2.8227  1.4223  1.8600
  385SOL     OW 1153   3.009   1.985   1.802 -0.1225 -0.2949 -0.0604
  385SOL    HW1 1154   3.083   2.047   1.770  1.1940 -1.5736  1.8541
  385SOL    HW2 1155   3.019   1.897   1.745 -2.9647 -0.3683  1.5125
  386SOL     OW 1156   0.433   1.162   0.481 -0.1161 -0.1234 -0.4838
  386SOL    HW1 1157   0.439   1.060   0.498  0.1035  1.2497 -2.2933
  386SOL    HW2 1158   0.383   1.190   0.389  0.3738  1.9082 -4.2111
  387SOL     OW 1159   1.004   0.317   1.658  0.0019  0.5872  0.3512
  387SOL    HW1 1160   1.065   0.403   1.651  0.2715  3.5139 -2.2825
  387SOL    HW2 1161   0.932   0.310   1.591 -0.1484  1.5489  2.1964
  388SOL     OW 1162   1.212   2.643   1.790  0.3624  0.0380 -0.0290
  388SOL    HW1 1163   1.211   2.651   1.682 -0.3470  1.5029 -0.3847
  388SOL    HW2 1164   1.259   2.561   1.835  0.0676  1.9392  1.9495
  389SOL     OW 1165   0.243   3.081   1.123 -0.1531  0.2739  0.1147
  389SOL    HW1 1166   0.158   3.089   1.184 -1.9288  1.0191  0.1375
  389SOL    HW2 1167   0.286   2.985   1.124 -2.0616  2.2393 -0.2270
  390SOL     OW 1168   1.052   0.934   1.237 -0.3605  0.7460 -0.0856
  390SOL    HW1 1169   1.137   0.894   1.287  0.8956  3.3796  1.1554
  390SOL    HW2 1170   0.975   0.973   1.296  0.4997 -2.1210  0.7663
  391SOL     OW 1171   2.071   1.126   1.039 -0.2232  0.7185 -0.1061
  391SOL    HW1 1172   1.990   1.072   1.082 -2.7002 -3.1258  1.7253
  391SOL    HW2 1173   2.126   1.079   0.965 -1.1204  0.9914  0.5161
  392SOL     OW 1174   0.903   2.681   3.055  0.8968 -0.7210  0.0374
  392SOL    HW1 1175   0.808   2.668   3.100 -1.4106 -1.0961 -1.0545
  392SOL    HW2 1176   0.973   2.735   3.116  1.0687  2.7924  0.0627
  393SOL     OW 1177   0.384   0.514   2.097  0.4822 -0.4668 -0.3902
  393SOL    HW1 1178   0.292   0.490   2.057  0.3626 -0.2209  0.8499
  393SOL    HW2 1179   0.465   0.507   2.029 -2.3046 -0.7535 -2.0396
  394SOL     OW 1180   2.921   1.843   2.784  0.0272 -0.4254  0.1828
  394SOL    HW1 1181   3.005   1.827   2.843  1.4568  2.7530  2.5206
  394SOL    HW2 1182   2.958   1.858   2.687 -0.6754 -0.4221  0.3781
  395SOL     OW 1183   1.582   1.928   0.717 -0.1475 -0.1070 -0.1512
  395SOL    HW1 1184   1.637   1.852   0.676 -1.1275 -0.8724 -0.8759
  395SOL    HW2 1185   1.631   1.991   0.779 -0.5129 -0.6014 -0.9270
  396SOL     OW 1186   2.755   2.061   1.322 -0.6659 -0.4446  0.1010
  396SOL    HW1 1187   2.794   2.062   1.418 -0.6584  1.2674  1.5566
  396SOL    HW2 1188   2.653   2.079   1.326  0.8463  3.0615  0.3737
  397SOL     OW 1189   1.034   2.107   0.621  0.0286  0.4427  0.0235
  397SOL    HW1 1190   0.965   2.049   0.569  0.0042 -2.4281 -2.9041
  397SOL    HW2 1191   0.988   2.182   0.677  1.3557 -2.6072  0.6669
  398SOL     OW 1192   2.203   0.101   1.082  0.4366 -0.1831 -0.4105
  398SOL    HW1 1193   2.173   0.001   1.090 -0.3816  2.5187 -0.4805
  398SOL    HW2 1194   2.125   0.166   1.074  0.2141  2.1815 -2.6770
  399SOL     OW 1195   2.931   2.542   2.726 -0.6712  0.7324  0.0536
  399SOL    HW1 1196   2.876   2.498   2.651  0.1852 -0.6946  1.0904
  399SOL    HW2 1197   2.906   2.505   2.826  0.7458 -0.1366  2.7868
  400SOL     OW 1198   0.813   1.590   1.290  0.0380 -0.1277 -0.3295
  400SOL    HW1 1199   0.770   1.624   1.380 -0.5342 -0.4543  1.1681
  400SOL    HW2 1200   0.825   1.660   1.213 -2.8385  0.4521  0.5175
  401SOL     OW 1201   1.809   0.132   1.262  0.0278 -0.1501 -0.0518
  401SOL    HW1 1202   1.880   0.165   1.325 -2.3492 -0.3447  0.2280
  401SOL    HW2 1203   1.707   0.142   1.295 -0.2585  0.4023  1.6810
  402SOL     OW 1204   1.315   0.159   3.046  0.1736  0.5475  0.1121
  402SOL    HW1 1205   1.414   0.124   3.034 -1.3464  0.6055 -1.8075
  402SOL    HW2 1206   1.311   0.255   3.094  0.3704  4.1626  0.8038
  403SOL     OW 1207   2.327   1.821   0.938 -0.6460  0.6234 -0.4710
  403SOL    HW1 1208   2.429   1.849   0.929  1.9096 -0.7732  1.5480
  403SOL    HW2 1209   2.267   1.883   0.993  2.2018  0.5629 -0.1767
  404SOL     OW 1210   0.165   2.498   2.867  0.1378 -0.1377  0.4454
  404SOL    HW1 1211   0.249   2.467   2.816 -2.1285 -1.6852  0.2748
  404SOL    HW2 1212   0.158   2.597   2.858 -0.3662 -1.3289 -1.0662
  405SOL     OW 1213   0.237   2.556   0.535 -0.0265  0.0930  0.0190
  405SOL    HW1 1214   0.171   2.540   0.460  1.5047 -2.8945  2.2706
  405SOL    HW2 1215   0.281   2.647   0.537  0.2007 -2.3777  0.4885
  406SOL     OW 1216   0.001   1.529   2.972  0.3939  0.0195  0.2549
  406SOL    HW1 1217   0.096   1.494   2.936 -0.4772  0.8005 -0.1058
  406SOL    HW2 1218   0.003   1.559   3.071 -0.3830  0.1723  1.8038
  407SOL     OW 1219   1.508   0.900   0.924 -0.1224  0.2651 -0.1406
  407SOL    HW1 1220   1.556   0.896   0.832  1.9756 -0.4423  0.4860
  407SOL    HW2 1221   1.431   0.964   0.929  0.9414 -1.6647  0.6699
  408SOL     OW 1222   1.553   2.417   0.969  0.4768  0.3117  0.3261
  408SOL    HW1 1223   1.624   2.423   0.892  1.9839  0.6193 -1.0627
  408SOL    HW2 1224   1.579   2.488   1.046 -1.8196  0.7606 -2.4471
  409SOL     OW 1225   0.669   0.842   0.700 -0.4702 -0.8764  0.7127
  409SOL    HW1 1226   0.601   0.858   0.620 -3.1784  0.1955 -0.8969
  409SOL    HW2 1227   0.680   0.740   0.722 -1.1400 -0.1044  1.9582
  410SOL     OW 1228   1.270   2.021   1.471 -0.3432 -0.1150 -0.3648
  410SOL    HW1 1229   1.273   2.105   1.532  1.7425 -2.7336 -5.6141
  410SOL    HW2 1230   1.174   1.977   1.484 -1.3240  0.6446  1.2063
  411SOL     OW 1231   2.388   1.818   3.102 -0.0528 -0.3819 -0.0761
  411SOL    HW1 1232   2.290   1.833   3.076  1.1030 -2.7534 -0.6867
  411SOL    HW2 1233   2.445   1.780   3.026  1.5143  1.2611  0.1609
  412SOL     OW 1234   1.500   2.425   2.209  0.1679  0.6091  0.0442
  412SOL    HW1 1235   1.557   2.461   2.287 -0.6871  1.1342 -0.8329
  412SOL    HW2 1236   1.401   2.418   2.224  3.3527  3.3407  0.6246
  413SOL     OW 1237   3.046   0.249   2.981  0.6923  0.3113 -0.1288
  413SOL    HW1 1238   3.007   0.163   3.031 -0.4950  1.2187 -0.1222
  413SOL    HW2 1239   3.150   0.254   2.981 -0.1365 -3.7758  3.0275
  414SOL     OW 1240   1.752   1.383   1.374 -0.3490 -0.0515  0.8034
  414SOL    HW1 1241   1.680   1.435   1.423  1.7887  1.7826 -0.1978
  414SOL    HW2 1242   1.729   1.368   1.274 -2.3680 -1.4400  0.4220
  415SOL     OW 1243   0.353   2.266   0.626 -0.3667 -0.0147 -0.3473
  415SOL    HW1 1244   0.318   2.355   0.601  1.0507 -2.9432 -0.5673
  415SOL    HW2 1245   0.281   2.191   0.636  0.7024  2.5276 -2.3995
  416SOL     OW 1246   0.372   1.032   1.065 -0.1813  0.9642 -0.4835
  416SOL    HW1 1247   0.350   1.000   0.968 -0.1036 -0.0856  1.9458
  416SOL    HW2 1248   0.472   1.050   1.088  1.5586 -0.2728 -2.0163
  417SOL     OW 1249   2.119   2.370   1.914 -0.1058  0.2976 -0.3882
  417SOL    HW1 1250   2.130   2.271   1.899  1.4782 -2.2193  4.0718
  417SOL    HW2 1251   2.039   2.397   1.970  0.0583  1.8329 -0.5013
  418SOL     OW 1252   1.138   0.519   1.312 -0.1609  0.3820  0.0482
  418SOL    HW1 1253   1.042   0.496   1.298 -1.6400  0.4906  0.9210
  418SOL    HW2 1254   1.199   0.461   1.247  0.4110 -1.7142 -2.0599
  419SOL     OW 1255   1.005   0.376   3.048  0.0693 -0.0200 -0.0313
  419SOL    HW1 1256   0.997   0.410   2.950  0.2103 -2.8402 -1.0062
  419SOL    HW2 1257   0.962   0.283   3.053 -0.4673  1.1441 -2.1822
  420SOL     OW 1258   0.231   2.256   0.334  0.3940 -0.1100 -0.2739
  420SOL    HW1 1259   0.202   2.195   0.255 -0.4342  0.7579  1.7875
  420SOL    HW2 1260   0.156   2.289   0.401 -0.2206  1.2765  0.0006
  421SOL     OW 1261   0.349   3.086   0.676  0.4790 -0.2623  0.3522
  421SOL    HW1 1262   0.321   2.987   0.671 -1.1484 -1.5191 -3.0813
  421SOL    HW2 1263   0.451   3.102   0.676  0.7090  3.5577  1.3542
  422SOL     OW 1264   0.926   2.502   1.034 -0.0663  0.0830  0.1943
  422SOL    HW1 1265   0.943   2.580   0.968  1.9514  3.7284  2.0623
  422SOL    HW2 1266   0.994   2.517   1.112  1.5190 -1.6510 -0.8554
  423SOL     OW 1267   0.059   0.698   1.207  0.0201 -0.4689 -0.0674
  423SOL    HW1 1268  -0.003   0.651   1.275 -0.3250 -2.0476 -1.3295
  423SOL    HW2 1269   0.008   0.781   1.167  2.4687 -1.2467  1.8538
  424SOL     OW 1270   0.988   2.169   2.098 -0.2293  0.3184 -0.5344
  424SOL    HW1 1271   1.003   2.271   2.100  0.4671  1.2327 -0.0545
  424SOL    HW2 1272   0.932   2.135   2.175 -1.1340  0.4263 -1.1503
  425SOL     OW 1273   1.995   1.427   1.029 -0.0240 -0.0494 -0.3766
  425SOL    HW1 1274   2.017   1.329   1.007  0.1684 -0.0821  1.9089
  425SOL    HW2 1275   2.045   1.495   0.974 -1.2818  2.8443  0.3224
  426SOL     OW 1276   1.526   1.546   1.433 -0.4545  0.1906  0.4351
  426SOL    HW1 1277   1.479   1.623   1.386 -0.8131  0.9923  3.7648
  426SOL    HW2 1278   1.554   1.575   1.528  1.8593 -0.3992  1.7509
  427SOL     OW 1279   1.903   2.401   2.096 -0.2430  0.6833  0.4459
  427SOL    HW1 1280   1.962   2.344   2.157 -0.0365  0.6267 -1.6238
  427SOL    HW2 1281   1.920   2.505   2.090 -0.1438 -1.2994 -0.0007
  428SOL     OW 1282   0.873   3.011   0.136 -0.3844 -0.5181  0.2336
  428SOL    HW1 1283   0.928   3.087   0.179  0.3015  0.0017  0.6676
  428SOL    HW2 1284   0.928   2.930   0.130 -1.8663 -0.6680  3.7948
  429SOL     OW 1285   1.314   0.084   0.224 -0.2000  0.5210 -0.0715
  429SOL    HW1 1286   1.390   0.119   0.284  0.8726 -0.0007 -0.3858
  429SOL    HW2 1287   1.300   0.136   0.131  0.3827 -0.5391  0.3923
  430SOL     OW 1288   2.809   1.518   0.353  0.1077  0.8953  0.2298
  430SOL    HW1 1289   2.856   1.580   0.289  2.7065  0.4084  1.0551
  430SOL    HW2 1290   2.785   1.572   0.442  0.6403  1.1025 -1.0499
  431SOL     OW 1291   2.127   1.627   0.907 -0.0355  0.2139 -0.0288
  431SOL    HW1 1292   2.209   1.692   0.914  2.0348 -0.0711 -2.9141
  431SOL    HW2 1293   2.039   1.670   0.869 -0.4591 -0.2848 -0.5872
  432SOL     OW 1294   2.919   2.257   1.223  0.1842 -0.3085  0.2255
  432SOL    HW1 1295   2.851   2.180   1.256  0.0924 -4.5070  2.4161
  432SOL    HW2 1296   2.990   2.280   1.305  2.2315  1.0264  2.0300
  433SOL     OW 1297   1.840   0.348   0.824  0.5340 -0.2882  0.0442
  433SOL    HW1 1298   1.747   0.316   0.849  0.1085  2.1831  1.1978
  433SOL    HW2 1299   1.909   0.332   0.902  3.9098 -0.6042 -1.9276
  434SOL     OW 1300   1.526   0.301   0.729  0.3481  0.3497  0.2685
  434SOL    HW1 1301   1.540   0.398   0.715  1.0743 -3.1754  0.8748
  434SOL    HW2 1302   1.550   0.274   0.829  1.4400 -0.3149  2.7057
  435SOL     OW 1303   1.426   1.440   2.114  0.1207 -0.6430  0.6093
  435SOL    HW1 1304   1.401   1.461   2.213  0.5176  0.0938  0.7052
  435SOL    HW2 1305   1.397   1.515   2.055 -0.2839 -2.5369  2.6889
  436SOL     OW 1306   1.637   2.639   2.426 -0.8236 -0.4398 -0.0952
  436SOL    HW1 1307   1.638   2.726   2.480 -0.3734 -2.4414 -1.6845
  436SOL    HW2 1308   1.631   2.555   2.490  2.0150 -0.6043  0.2621
  437SOL     OW 1309   1.093   2.901   0.930  0.0153 -0.5690 -0.5246
  437SOL    HW1 1310   1.043   2.989   0.904  0.3305  0.8405  1.0442
  437SOL    HW2 1311   1.071   2.886   1.031  2.1121  1.1316  2.6092
  438SOL     OW 1312   1.098   2.556   1.277 -0.3906  1.0672  0.0165
  438SOL    HW1 1313   1.116   2.632   1.348  2.2224 -1.6442 -1.7725
  438SOL    HW2 1314   1.080   2.460   1.313  2.8615  1.6185 -1.9154
  439SOL     OW 1315   0.742   1.782   1.018 -0.0216  0.1143 -0.1790
  439SOL    HW1 1316   0.732   1.854   0.940 -1.6237  0.3234 -0.5799
  439SOL    HW2 1317   0.649   1.771   1.068 -1.0483  3.1998 -0.2458
  440SOL     OW 1318   1.036   2.447   2.045  0.6720  0.1776  0.1858
  440SOL    HW1 1319   1.001   2.491   1.958  1.7545 -0.0454 -0.3234
  440SOL    HW2 1320   1.138   2.442   2.045 -1.9557 -2.3510  0.1602
  441SOL     OW 1321   0.376   2.733   1.433  0.6728  1.1713 -0.4225
  441SOL    HW1 1322   0.424   2.634   1.431  2.1586 -0.0157  3.3973
  441SOL    HW2 1323   0.340   2.759   1.339  1.7187  1.3231  1.1415
  442SOL     OW 1324   2.233   0.659   2.599  0.3074  1.0543 -0.0090
  442SOL    HW1 1325   2.219   0.571   2.547 -0.2354  0.5761  3.8831
  442SOL    HW2 1326   2.143   0.706   2.609 -0.4961 -0.8036  0.6864
  443SOL     OW 1327   1.262   2.674   2.203 -0.4528  0.0595 -0.3163
  443SOL    HW1 1328   1.217   2.591   2.171  2.6646  1.2074  0.6963
  443SOL    HW2 1329   1.219   2.705   2.294 -0.2327 -1.9550 -0.3100
  444SOL     OW 1330   1.025   1.216   1.487 -0.1855 -0.1693 -0.2301
  444SOL    HW1 1331   1.114   1.206   1.437  0.4548  0.2380 -1.2431
  444SOL    HW2 1332   1.046   1.249   1.587  1.9982  0.0193  4.4355
  445SOL     OW 1333   0.057   2.326   1.957 -0.8111  1.1660 -0.3099
  445SOL    HW1 1334   0.040   2.262   1.879 -2.0233 -1.7622 -0.1423
  445SOL    HW2 1335  -0.028   2.367   2.005 -1.1059 -1.8352  0.2988
  446SOL     OW 1336   0.170   1.940   2.372  0.4502  0.0365 -0.1680
  446SOL    HW1 1337   0.133   2.036   2.356 -0.9882  0.1904  1.0262
  446SOL    HW2 1338   0.133   1.862   2.307 -0.9640 -4.0204 -2.1568
  447SOL     OW 1339   1.240   1.684   1.945 -0.6665 -0.0790 -0.4700
  447SOL    HW1 1340   1.148   1.723   1.967 -1.1289 -1.1688 -0.0124
  447SOL    HW2 1341   1.317   1.749   1.970  1.3965 -0.8724 -3.3713
  448SOL     OW 1342   0.168   1.417   2.026 -0.2254 -0.2307 -0.1369
  448SOL    HW1 1343   0.167   1.505   1.972  1.1385  3.5665  0.4070
  448SOL    HW2 1344   0.110   1.430   2.115 -0.2779 -0.6696  1.3608
  449SOL     OW 1345   1.848   2.932   0.847 -0.2365  0.5625  0.4646
  449SOL    HW1 1346   1.822   2.955   0.944 -0.4060  1.2681 -0.9353
  449SOL    HW2 1347   1.905   2.842   0.834  1.2801 -1.6122  0.3540
  450SOL     OW 1348   2.261   1.477   0.682  0.5245  0.1525  0.1334
  450SOL    HW1 1349   2.191   1.531   0.738 -1.1698  2.8180  1.4984
  450SOL    HW2 1350   2.279   1.530   0.593 -1.2136 -0.3102  0.0353
  451SOL     OW 1351   1.394   3.062   1.493 -0.1356  0.6934 -0.4895
  451SOL    HW1 1352   1.311   3.124   1.501  2.8567  0.0457 -0.9402
  451SOL    HW2 1353   1.420   3.002   1.572  1.3610 -1.6849  2.2537
  452SOL     OW 1354   2.651   2.284   2.273  0.0634 -0.7898 -0.5422
  452SOL    HW1 1355   2.612   2.381   2.287  0.3375  0.9944 -0.9729
  452SOL    HW2 1356   2.685   2.236   2.357 -1.1870 -0.6553 -1.7074
  453SOL     OW 1357   2.470   2.664   0.020 -0.1931 -0.0457  0.5044
  453SOL    HW1 1358   2.395   2.740   0.030 -0.2570 -1.9216  1.1145
  453SOL    HW2 1359   2.457   2.614  -0.070 -0.0940  3.4508 -2.5999
  454SOL     OW 1360   0.940   1.130   2.018  0.7824 -0.1113  0.3342
  454SOL    HW1 1361   0.924   1.113   1.916 -1.4795  2.1992 -1.7458
  454SOL    HW2 1362   1.025   1.185   2.041  3.6581 -2.3420  1.8579
  455SOL     OW 1363   0.662   2.681   2.826 -0.0171  0.2458 -0.4784
  455SOL    HW1 1364   0.754   2.735   2.828 -1.4302  1.4853 -1.1540
  455SOL    HW2 1365   0.667   2.582   2.875 -1.8379 -1.8091  0.1468
  456SOL     OW 1366   0.380   1.896   0.231  0.0401 -0.3064  0.2816
  456SOL    HW1 1367   0.449   1.824   0.254  0.5528  0.6428 -1.9620
  456SOL    HW2 1368   0.421   1.981   0.195 -0.7709 -3.0778 -1.5793
  457SOL     OW 1369   0.387   2.789   0.632 -0.2679  0.0529 -0.9026
  457SOL    HW1 1370   0.407   2.832   0.537  0.8632 -1.1954  1.4785
  457SOL    HW2 1371   0.480   2.754   0.672  1.0006  0.8987  0.1485
  458SOL     OW 1372   2.810   0.034   1.209 -0.3311 -0.0646 -0.2604
  458SOL    HW1 1373   2.868   0.121   1.201  1.6638  0.8505  0.9252
  458SOL    HW2 1374   2.835  -0.031   1.133  0.5589  2.0949 -2.8105
  459SOL     OW 1375   2.205   2.539   0.816  0.0585 -0.0504  0.5370
  459SOL    HW1 1376   2.278   2.595   0.863  2.0617  1.1937  0.0635
  459SOL    HW2 1377   2.243   2.459   0.767 -0.1788 -0.0624 -2.5859
  460SOL     OW 1378   1.222   2.059   2.780  0.2245  0.2343 -0.1965
  460SOL    HW1 1379   1.245   2.079   2.682 -1.1451  1.7970 -0.5479
  460SOL    HW2 1380   1.208   1.957   2.802 -1.9402 -0.4132  0.6287
  461SOL     OW 1381   0.463   2.096   2.723  0.7412 -0.0461 -0.0774
  461SOL    HW1 1382   0.412   2.027   2.666 -1.1829 -0.5424 -1.7277
  461SOL    HW2 1383   0.496   2.064   2.814  3.9131  0.5768 -1.1839
  462SOL     OW 1384   0.971   1.055   1.762  0.3918  0.4713 -0.7948
  462SOL    HW1 1385   0.993   0.984   1.688  2.1736  0.0985 -0.5163
  462SOL    HW2 1386   0.907   1.136   1.733 -2.3141 -0.7693 -1.1124
  463SOL     OW 1387   0.464   0.868   0.489  0.4147 -0.1375  0.1838
  463SOL    HW1 1388   0.494   0.781   0.431  0.8312 -2.5915 -1.1691
  463SOL    HW2 1389   0.371   0.856   0.535  0.6615  0.3950 -0.9937
  464SOL     OW 1390   0.623   2.339   2.194  0.3615  0.3994  0.2282
  464SOL    HW1 1391   0.547   2.366   2.259 -0.8659 -1.7360  2.6025
  464SOL    HW2 1392   0.592   2.323   2.098 -1.0966 -3.4341  0.1899
  465SOL     OW 1393   0.268   0.908   0.837  0.7258  0.2769  0.2614
  465SOL    HW1 1394   0.176   0.942   0.798 -2.1805  0.9206 -0.7602
  465SOL    HW2 1395   0.293   0.810   0.807  0.7995 -2.2587 -2.7224
  466SOL     OW 1396   1.388   1.154   1.039  0.5149  0.0692  0.1779
  466SOL    HW1 1397   1.395   1.256   1.015  0.3017  1.2164  1.5757
  466SOL    HW2 1398   1.295   1.122   1.076 -0.7759  0.3066  2.8583
  467SOL     OW 1399   0.615   0.420   2.460  0.1726 -0.0637 -0.4141
  467SOL    HW1 1400   0.557   0.510   2.467 -0.5802  1.1298  1.4841
  467SOL    HW2 1401   0.624   0.374   2.554  0.9816  0.6231  1.0543
  468SOL     OW 1402   0.384   2.264   1.616 -0.1724 -0.1110  0.3755
  468SOL    HW1 1403   0.458   2.331   1.637 -0.1632  0.6921 -2.9421
  468SOL    HW2 1404   0.374   2.250   1.513 -1.8231  0.8149 -0.6917
  469SOL     OW 1405   1.459   1.302   1.337  0.3945 -0.2019  0.3274
  469SOL    HW1 1406   1.536   1.269   1.286 -2.6126  0.6871  1.0679
  469SOL    HW2 1407   1.485   1.391   1.387  4.8917  0.7111  3.9830
  470SOL     OW 1408   3.012   1.825   0.713 -0.0943  0.7970 -0.1005
  470SOL    HW1 1409   3.084   1.885   0.668 -1.2577 -0.0937  0.2510
  470SOL    HW2 1410   3.052   1.777   0.802  2.2824 -1.8304  0.2320
  471SOL     OW 1411   2.591   1.365   2.157  0.2889  0.2097 -0.2517
  471SOL    HW1 1412   2.558   1.285   2.214 -0.0335 -2.1676 -0.1359
  471SOL    HW2 1413   2.679   1.404   2.197 -0.8197 -0.2544  1.3267
  472SOL     OW 1414   1.167   2.379   0.093  0.0165 -0.2241 -0.5308
  472SOL    HW1 1415   1.237   2.388   0.168 -0.9658  1.7581 -1.0294
  472SOL    HW2 1416   1.077   2.344   0.126  0.1507 -2.9291 -0.0147
  473SOL     OW 1417   1.086   1.492   1.031 -0.3730  0.2118  0.0471
  473SOL    HW1 1418   1.005   1.496   0.968 -0.6235 -0.4393 -0.0819
  473SOL    HW2 1419   1.073   1.420   1.109 -1.6204 -2.0155  0.5170
  474SOL     OW 1420   0.650   1.275   0.578 -0.1950  0.6628  0.6531
  474SOL    HW1 1421   0.567   1.245   0.524  0.4317  0.3641  1.5654
  474SOL    HW2 1422   0.728   1.205   0.581 -0.5632 -2.2107 -1.5278
  475SOL     OW 1423   2.832   0.025   0.805 -0.2148  0.3040  0.1729
  475SOL    HW1 1424   2.901   0.101   0.801  1.2830 -1.6167 -0.9035
  475SOL    HW2 1425   2.747   0.060   0.849  0.1319 -1.3745  1.5961
  476SOL     OW 1426   0.995   2.977   1.774  0.2911 -0.1436 -0.0364
  476SOL    HW1 1427   1.090   2.966   1.819  1.4660  0.5319  0.8848
  476SOL    HW2 1428   0.997   2.975   1.670 -0.0324  0.0838 -1.2041
  477SOL     OW 1429   1.454   0.315   2.410 -0.5961  0.0826 -0.1313
  477SOL    HW1 1430   1.433   0.303   2.510 -1.5024 -0.4851 -1.0826
  477SOL    HW2 1431   1.550   0.277   2.388  0.6266  0.0172  0.1202
  478SOL     OW 1432   2.225   1.855   0.248  0.2082 -0.1913 -0.5161
  478SOL    HW1 1433   2.164   1.773   0.285 -0.4384 -0.9374 -1.6225
  478SOL    HW2 1434   2.288   1.837   0.173  1.0188  0.5701  1.0350
  479SOL     OW 1435   1.264   0.955   2.902  0.3288 -0.1696 -1.0207
  479SOL    HW1 1436   1.346   0.960   2.839 -1.4555  0.2190 -1.2599
  479SOL    HW2 1437   1.209   0.867   2.884  1.6497 -0.0843 -0.6583
  480SOL     OW 1438   2.598   2.340   0.375 -0.5791 -0.2807  0.3551
  480SOL    HW1 1439   2.549   2.264   0.422 -2.9652  1.2556 -1.8216
  480SOL    HW2 1440   2.532   2.404   0.321  2.8100  1.4350  0.8438
  481SOL     OW 1441   0.992   1.177   0.821 -0.3483 -0.4545  0.3846
  481SOL    HW1 1442   1.008   1.257   0.757 -0.3682  2.1011  1.3091
  481SOL    HW2 1443   1.030   1.194   0.911 -2.9074 -0.6234 -0.6350
  482SOL     OW 1444   1.556   0.320   1.989  0.0355 -0.3084  0.0102
  482SOL    HW1 1445   1.565   0.416   1.945  1.8193  0.7646 -1.0995
  482SOL    HW2 1446   1.646   0.282   2.014 -1.8417  1.2503  0.6949
  483SOL     OW 1447   0.152   2.322   1.248 -0.5182 -0.0926  0.0147
  483SOL    HW1 1448   0.150   2.409   1.306  2.1727  0.4046  2.6148
  483SOL    HW2 1449   0.126   2.339   1.148  0.5473 -2.2131 -0.8663
  484SOL     OW 1450   1.775   1.096   1.344 -0.3033  0.2183 -0.6605
  484SOL    HW1 1451   1.819   1.028   1.404  1.1480 -0.2622 -2.0794
  484SOL    HW2 1452   1.769   1.191   1.390 -1.9258  0.4503 -1.1429
  485SOL     OW 1453   0.768   0.762   1.784 -0.6517  0.3437  0.4996
  485SOL    HW1 1454   0.762   0.840   1.711  0.2227  0.9203  0.3889
  485SOL    HW2 1455   0.867   0.738   1.809  2.2708 -1.8559 -2.0321
  486SOL     OW 1456   0.845   1.857   2.439  0.0295  0.4576  0.6708
  486SOL    HW1 1457   0.886   1.846   2.531 -0.6785 -0.8282 -1.2466
  486SOL    HW2 1458   0.851   1.958   2.408  2.2660  1.5726 -2.2323
  487SOL     OW 1459   1.750   1.575   0.959  0.1178 -0.1366 -0.2795
  487SOL    HW1 1460   1.812   1.508   1.009  0.2682  1.0589 -1.0734
  487SOL    HW2 1461   1.803   1.633   0.893  0.4477  0.2525 -2.1904
  488SOL     OW 1462   2.961   0.863   2.315 -0.4396  0.0420  0.0390
  488SOL    HW1 1463   2.991   0.769   2.274 -0.5904 -1.2075  0.2554
  488SOL    HW2 1464   2.970   0.861   2.418 -0.5232  1.7907 -0.4196
  489SOL     OW 1465   2.786   0.372   1.283  0.0223 -0.3289  0.6511
  489SOL    HW1 1466   2.779   0.333   1.379 -0.6294  0.3326  2.0569
  489SOL    HW2 1467   2.879   0.360   1.239  1.2868  1.6380  0.7418
  490SOL     OW 1468   1.403   2.949   2.794 -0.3486 -0.2364 -0.2243
  490SOL    HW1 1469   1.464   2.866   2.797 -2.7263  0.4137  1.8255
  490SOL    HW2 1470   1.384   2.971   2.696  2.1889  1.1276  0.8140
  491SOL     OW 1471   1.724   1.508   2.667 -0.3570  0.3581 -0.1812
  491SOL    HW1 1472   1.658   1.488   2.741  1.3489  0.0529 -1.5172
  491SOL    HW2 1473   1.810   1.546   2.699 -2.5064  1.3197 -1.5601
  492SOL     OW 1474   0.570   2.058   0.631  0.5279 -0.1741  0.6349
  492SOL    HW1 1475   0.593   2.035   0.731  0.0929  0.3252 -2.2807
  492SOL    HW2 1476   0.516   2.145   0.619 -2.1271  1.6057  2.2174
  493SOL     OW 1477   0.491   1.390   2.067 -0.4448 -0.0903 -0.0479
  493SOL    HW1 1478   0.417   1.457   2.037 -0.2788 -0.4465  0.2253
  493SOL    HW2 1479   0.453   1.297   2.083 -2.1775  1.1008  0.7124
  494SOL     OW 1480   2.711   2.548   0.084  0.4357  0.1728 -0.6199
  494SOL    HW1 1481   2.747   2.515   0.177  1.1617 -0.9776 -1.2357
  494SOL    HW2 1482   2.623   2.608   0.088 -0.0332  2.6212  1.2549
  495SOL     OW 1483   2.557   2.764   2.602  0.4409 -0.5016 -0.5141
  495SOL    HW1 1484   2.535   2.665   2.602  1.0826  0.9414  0.3185
  495SOL    HW2 1485   2.631   2.783   2.533 -0.3206 -4.7938  2.3870
  496SOL     OW 1486   2.024   2.287   0.823  0.0455 -0.3914  0.0600
  496SOL    HW1 1487   2.078   2.357   0.882  2.3028  1.8728 -1.2942
  496SOL    HW2 1488   2.054   2.190   0.832 -1.6672  1.9400 -1.9193
  497SOL     OW 1489   0.136   3.016   2.364  0.6451  0.1987 -0.2508
  497SOL    HW1 1490   0.138   3.065   2.456  1.2148 -1.6086  0.9246
  497SOL    HW2 1491   0.188   3.066   2.289 -2.0174 -0.4334  1.1525
  498SOL     OW 1492   1.192   1.323   1.257  0.2453 -0.3156  0.1671
  498SOL    HW1 1493   1.291   1.297   1.282 -0.2307 -0.4724  1.3719
  498SOL    HW2 1494   1.152   1.391   1.323  2.5155 -2.1223 -0.6764
  499SOL     OW 1495   0.628   1.803   0.261 -0.2011  0.5810 -0.2856
  499SOL    HW1 1496   0.662   1.720   0.204  4.8689 -2.9919  0.5329
  499SOL    HW2 1497   0.711   1.845   0.316 -0.6724  2.5341  0.0692
  500SOL     OW 1498   1.411   2.876   1.684 -0.9557  0.0007  0.2597
  500SOL    HW1 1499   1.442   2.899   1.779  1.6499 -2.9916 -2.9492
  500SOL    HW2 1500   1.453   2.791   1.647 -0.8175  0.0931  0.9852
  501SOL     OW 1501   0.783   1.159   2.258 -0.3599  0.5057  0.8515
  501SOL    HW1 1502   0.703   1.093   2.283 -0.8070 -0.2996  1.2701
  501SOL    HW2 1503   0.826   1.138   2.171 -1.1063  0.5990 -2.8019
  502SOL     OW 1504   2.585   0.939   1.781 -0.8484 -0.6669 -0.2358
  502SOL    HW1 1505   2.586   0.946   1.679 -1.4827 -0.4696  0.4778
  502SOL    HW2 1506   2.575   0.842   1.815 -1.5925  1.1978  0.8440
  503SOL     OW 1507   1.296   0.161   0.595 -0.1635  0.1409 -0.2841
  503SOL    HW1 1508   1.227   0.242   0.607  0.1246  0.7364 -1.5359
  503SOL    HW2 1509   1.382   0.175   0.656  0.5181 -0.9936 -1.2188
  504SOL     OW 1510   3.023   2.343   1.485 -0.0999 -0.1443 -0.4698
  504SOL    HW1 1511   2.955   2.414   1.520 -0.3754 -0.6881 -2.7295
  504SOL    HW2 1512   3.029   2.256   1.538 -0.7015 -1.0243  0.6635
  505SOL     OW 1513   2.270   1.170   1.412  0.8062  0.6982 -0.2327
  505SOL    HW1 1514   2.261   1.194   1.315 -1.3117 -1.1358  1.2684
  505SOL    HW2 1515   2.350   1.212   1.464 -0.1621  0.4930  2.7976
  506SOL     OW 1516   1.937   0.201   1.806 -0.4182 -0.0250  0.0044
  506SOL    HW1 1517   1.994   0.114   1.794 -1.3577  2.6185 -1.2365
  506SOL    HW2 1518   1.983   0.279   1.855  0.0928 -1.3900  0.0937
  507SOL     OW 1519   0.551   0.705   2.187 -0.1438 -0.6156 -0.1653
  507SOL    HW1 1520   0.478   0.641   2.164  3.7897  0.4020  1.0082
  507SOL    HW2 1521   0.645   0.662   2.181  1.9879  0.5762  0.6936
  508SOL     OW 1522   0.327   1.661   0.787 -0.0880 -0.2175  0.3519
  508SOL    HW1 1523   0.367   1.740   0.725  0.2446 -0.5076 -1.2585
  508SOL    HW2 1524   0.287   1.696   0.880 -1.6680  0.3214 -1.5199
  509SOL     OW 1525   1.286   1.192   2.448 -0.0307  0.1678 -0.2062
  509SOL    HW1 1526   1.344   1.155   2.371 -3.1106 -2.3372 -3.5837
  509SOL    HW2 1527   1.219   1.116   2.479  0.5374  0.4480 -0.6222
  510SOL     OW 1528   1.267   2.082   2.222 -0.1502  0.7145  0.1726
  510SOL    HW1 1529   1.328   2.091   2.143  0.4222  1.1016  0.4814
  510SOL    HW2 1530   1.217   1.991   2.235  0.5554  0.7606  2.1512
  511SOL     OW 1531   3.019   2.708   1.268 -0.1668 -0.3513 -0.0450
  511SOL    HW1 1532   3.035   2.725   1.167 -1.2401 -0.4995  4.3655
  511SOL    HW2 1533   2.923   2.717   1.302  0.6122 -0.4437 -0.3743
  512SOL     OW 1534   2.390   0.450   1.369  0.3109  0.6276  0.4182
  512SOL    HW1 1535   2.302   0.490   1.337  3.1261 -1.7384 -1.2534
  512SOL    HW2 1536   2.448   0.424   1.288 -1.0756  2.3533 -0.0401
  513SOL     OW 1537   2.564   2.174   0.938  0.0229  0.1043  0.5671
  513SOL    HW1 1538   2.530   2.232   0.861  0.9012 -2.0387 -3.1750
  513SOL    HW2 1539   2.665   2.165   0.929 -1.9444 -2.3822  1.1974
  514SOL     OW 1540   0.672   2.766   0.405  0.1362  0.5804  0.1483
  514SOL    HW1 1541   0.686   2.771   0.302 -0.6091  1.5718  0.9122
  514SOL    HW2 1542   0.663   2.856   0.451 -0.0898  0.8734  1.9620
  515SOL     OW 1543   1.916   1.370   2.377 -0.2996 -0.5832 -0.5528
  515SOL    HW1 1544   1.934   1.301   2.307  1.8842 -0.1093  0.5818
  515SOL    HW2 1545   1.831   1.348   2.431  0.1951  1.6260 -2.0301
  516SOL     OW 1546   0.293   0.311   1.896  0.2954  0.1730 -0.0935
  516SOL    HW1 1547   0.376   0.262   1.862 -1.7337  1.4904 -0.2676
  516SOL    HW2 1548   0.205   0.258   1.874 -2.6212 -1.2866  0.4090
  517SOL     OW 1549   0.468   0.124   1.129 -0.2504 -0.6578 -0.5907
  517SOL    HW1 1550   0.520   0.123   1.223 -2.9959  0.5306  0.1655
  517SOL    HW2 1551   0.393   0.052   1.122  4.2795 -0.3139 -0.5105
  518SOL     OW 1552   2.122   3.089   1.792 -0.0084  0.1723 -0.0371
  518SOL    HW1 1553   2.208   3.144   1.812  0.4111 -1.6973 -2.5579
  518SOL    HW2 1554   2.124   3.038   1.701  0.7151  3.6447  2.2648
  519SOL     OW 1555   2.309   2.143   2.504 -0.4358 -0.4485 -0.0128
  519SOL    HW1 1556   2.247   2.123   2.587  0.6170 -2.3530 -4.1643
  519SOL    HW2 1557   2.329   2.244   2.492  0.1281 -3.0373 -1.2226
  520SOL     OW 1558   1.818   2.719   1.730 -0.4951 -0.6358  0.1718
  520SOL    HW1 1559   1.752   2.660   1.785  3.8125 -0.5387 -0.7670
  520SOL    HW2 1560   1.889   2.667   1.682  0.1239 -0.8129 -0.2838
  521SOL     OW 1561   0.552   0.002   2.098 -0.0611  0.1055 -0.4329
  521SOL    HW1 1562   0.451  -0.016   2.126 -0.6519  0.2142 -2.5743
  521SOL    HW2 1563   0.616   0.020   2.175  0.5231  0.0427 -1.2227
  522SOL     OW 1564   0.213   1.852   1.513 -0.5113 -0.5579  0.6456
  522SOL    HW1 1565   0.212   1.912   1.598 -0.7983  1.6129  0.3068
  522SOL    HW2 1566   0.210   1.913   1.432  1.4466 -0.4778  1.0715
  523SOL     OW 1567   2.181   2.920   1.519  0.2776 -0.0085  0.5120
  523SOL    HW1 1568   2.265   2.861   1.529 -0.4532  0.3509  2.3386
  523SOL    HW2 1569   2.112   2.893   1.440 -1.7682 -1.8770 -1.7384
  524SOL     OW 1570   0.191   2.785   2.835 -0.0317  0.1045  0.4576
  524SOL    HW1 1571   0.161   2.878   2.880 -0.3676  2.3710  0.3452
  524SOL    HW2 1572   0.281   2.792   2.791 -0.3902 -0.6987  3.6630
  525SOL     OW 1573   2.173   2.048   0.426 -0.2605 -0.2853 -0.6196
  525SOL    HW1 1574   2.152   2.012   0.516  3.3340  2.4743  0.0304
  525SOL    HW2 1575   2.214   1.973   0.363  1.9727  1.2781 -0.3755
  526SOL     OW 1576   0.423   1.544   1.834  0.4295 -0.1675  0.0346
  526SOL    HW1 1577   0.475   1.606   1.895  2.2411 -2.7671 -2.5334
  526SOL    HW2 1578   0.468   1.447   1.821  0.6101  2.7232  2.4812
  527SOL     OW 1579   1.081   2.904   1.210  0.5335 -0.6432  0.0575
  527SOL    HW1 1580   1.155   2.854   1.263  4.1897  0.9944  1.7086
  527SOL    HW2 1581   1.125   2.999   1.188  1.6850  0.4736 -1.4971
  528SOL     OW 1582   1.358   2.344   0.532 -0.0585 -0.0218 -0.6120
  528SOL    HW1 1583   1.389   2.247   0.524 -1.3502  4.1430 -0.8415
  528SOL    HW2 1584   1.432   2.402   0.575  2.0018 -0.2026  2.2658
  529SOL     OW 1585   1.914   1.748   0.789 -0.2553  0.7075 -0.9246
  529SOL    HW1 1586   1.863   1.741   0.699  2.9628 -0.4381  0.9567
  529SOL    HW2 1587   1.939   1.846   0.817  0.7345 -0.1600 -1.2555
  530SOL     OW 1588   0.434   2.553   0.155 -0.8085  0.1260 -0.1056
  530SOL    HW1 1589   0.438   2.543   0.263 -0.1211  0.4391  2.9396
  530SOL    HW2 1590   0.431   2.464   0.100 -2.4559 -0.6507  0.2025
  531SOL     OW 1591   1.826   0.970   1.097 -0.2462 -0.2782  0.8178
  531SOL    HW1 1592   1.750   0.924   1.048 -0.7616  1.2768  1.9139
  531SOL    HW2 1593   1.796   0.998   1.194  1.0045 -1.1462 -0.6993
  532SOL     OW 1594   0.287   1.195   0.704 -0.3065 -1.1123  0.3441
  532SOL    HW1 1595   0.355   1.183   0.624 -2.6815 -0.0425 -0.1187
  532SOL    HW2 1596   0.223   1.115   0.704 -1.2861 -0.4180  1.7364
  533SOL     OW 1597   1.787   0.015   2.565 -0.0134 -0.0253  0.9346
  533SOL    HW1 1598   1.889  -0.002   2.567  0.4289 -2.0042  0.1089
  533SOL    HW2 1599   1.754   0.091   2.632 -0.3611  0.1929 -3.7623
  534SOL     OW 1600   0.230   0.210   1.517  0.1716  0.2490 -0.4766
  534SOL    HW1 1601   0.311   0.241   1.463 -0.9835  0.1541 -0.1882
  534SOL    HW2 1602   0.155   0.278   1.540 -0.3504  1.7104 -0.3908
  535SOL     OW 1603   1.848   0.319   0.219  0.0217  0.3710 -0.2839
  535SOL    HW1 1604   1.888   0.413   0.246  2.7765  1.8736 -1.6113
  535SOL    HW2 1605   1.774   0.290   0.281  1.5017 -0.2086  3.5991
  536SOL     OW 1606   1.315   2.616   0.936  1.0170 -0.7883 -0.1987
  536SOL    HW1 1607   1.357   2.530   0.892  0.3573 -1.4149  0.2188
  536SOL    HW2 1608   1.223   2.639   0.901 -0.3894  0.2936  1.2580
  537SOL     OW 1609   0.895   0.213   2.351 -0.1723  0.3565 -0.6279
  537SOL    HW1 1610   0.923   0.259   2.263 -2.1372  1.1396  2.1263
  537SOL    HW2 1611   0.793   0.201   2.353  1.8356 -2.9989  2.2940
  538SOL     OW 1612   1.660   2.334   1.500 -0.1471  0.6386 -0.4626
  538SOL    HW1 1613   1.616   2.245   1.458 -0.0315 -1.6031  0.8605
  538SOL    HW2 1614   1.753   2.362   1.462 -0.4170 -1.0345 -2.3810
  539SOL     OW 1615   0.176   1.593   2.691 -0.3255 -0.0103 -0.4486
  539SOL    HW1 1616   0.083   1.577   2.656 -0.4395 -1.4270  0.6882
  539SOL    HW2 1617   0.199   1.685   2.716 -0.7156 -2.2813 -0.6700
  540SOL     OW 1618   2.713   1.691   1.987 -0.0392 -0.4870  0.0769
  540SOL    HW1 1619   2.641   1.630   1.935 -2.5339 -2.4019 -1.9459
  540SOL    HW2 1620   2.687   1.794   2.001 -0.5562  2.7135  0.1167
  541SOL     OW 1621   0.442   2.337   3.090  0.7090  0.1116  0.6865
  541SOL    HW1 1622   0.504   2.258   3.105 -2.6306  2.3644 -3.5364
  541SOL    HW2 1623   0.356   2.314   3.038  0.4344  0.7444  1.5570
  542SOL     OW 1624   2.243   2.568   0.471  0.2946  0.0861 -0.4982
  542SOL    HW1 1625   2.231   2.672   0.473  1.7735 -0.6543  0.0477
  542SOL    HW2 1626   2.157   2.514   0.479 -0.3093 -1.3580  0.5085
  543SOL     OW 1627   0.988   1.790   1.715  0.0606 -0.3084  0.1625
  543SOL    HW1 1628   0.996   1.806   1.819  0.3876 -0.8817 -0.8958
  543SOL    HW2 1629   0.919   1.851   1.669 -0.6871  0.7761 -0.0815
  544SOL     OW 1630   0.903   0.406   0.224 -0.7406 -0.3411 -0.0484
  544SOL    HW1 1631   0.909   0.338   0.301  0.0642 -2.8447 -0.6657
  544SOL    HW2 1632   0.975   0.387   0.151  1.2527  2.9326  0.4526
  545SOL     OW 1633   1.125   1.721   0.609 -0.4069 -0.1785  0.2876
  545SOL    HW1 1634   1.206   1.738   0.669 -2.4033  1.5122  0.0290
  545SOL    HW2 1635   1.145   1.734   0.509 -0.1211  0.1265  1.5012
  546SOL     OW 1636   2.650   1.540   3.090 -0.0351  0.0360 -0.7449
  546SOL    HW1 1637   2.556   1.528   3.040 -1.3330 -1.0109 -2.2441
  546SOL    HW2 1638   2.644   1.500   3.181  0.1369  0.4202 -1.1115
  547SOL     OW 1639   0.541   0.023   2.776  0.1964  0.3872 -0.3820
  547SOL    HW1 1640   0.592  -0.047   2.720 -0.8851 -0.0753  1.3353
  547SOL    HW2 1641   0.539  -0.019   2.872  0.1738 -3.4490  1.1085
  548SOL     OW 1642   2.064   0.837   3.031 -0.6956 -0.0118 -0.0926
  548SOL    HW1 1643   1.972   0.787   3.032  2.2456 -0.3434 -0.4655
  548SOL    HW2 1644   2.056   0.940   3.040 -2.7095  0.6714  0.5749
  549SOL     OW 1645   0.636   0.485   0.178  0.9072  0.5433  0.3223
  549SOL    HW1 1646   0.619   0.555   0.101  0.8086  0.8669  1.7997
  549SOL    HW2 1647   0.732   0.449   0.192 -1.4496  3.1800 -2.4096
  550SOL     OW 1648   2.558   2.860   2.862 -0.3656 -0.0316  0.3639
  550SOL    HW1 1649   2.518   2.788   2.923 -0.0226  0.0438  2.2972
  550SOL    HW2 1650   2.577   2.816   2.769  0.0398 -1.8894 -3.0291
  551SOL     OW 1651   0.263   0.914   0.209  0.3269  0.1441  1.1057
  551SOL    HW1 1652   0.358   0.885   0.196  0.2374  2.3027  0.4404
  551SOL    HW2 1653   0.242   0.939   0.308  0.4082 -2.4259  0.5947
  552SOL     OW 1654   0.791   2.847   1.845  0.1561  0.6777 -0.2875
  552SOL    HW1 1655   0.743   2.887   1.927  2.7415 -0.2942 -2.8421
  552SOL    HW2 1656   0.883   2.889   1.835 -0.7002  0.4616  0.8231
  553SOL     OW 1657   3.073   2.529   0.357  0.3898 -0.2187  0.0981
  553SOL    HW1 1658   3.014   2.445   0.353  0.3100  3.2627  1.5557
  553SOL    HW2 1659   3.048   2.600   0.425  0.4544 -1.9158 -2.2229
  554SOL     OW 1660   2.236   0.314   0.565  0.5455  0.3595  0.1346
  554SOL    HW1 1661   2.320   0.311   0.508 -0.6502 -3.1185 -2.1759
  554SOL    HW2 1662   2.228   0.236   0.637 -0.3276 -1.4403 -0.3122
  555SOL     OW 1663   0.419   2.896   2.441  0.2130 -0.5984  0.6165
  555SOL    HW1 1664   0.346   2.964   2.410  1.6010  1.6867  0.9267
  555SOL    HW2 1665   0.457   2.835   2.362 -0.9995  1.4626 -3.2602
  556SOL     OW 1666   0.915   2.371   1.687 -0.1440  0.1035 -0.4159
  556SOL    HW1 1667   0.935   2.461   1.737 -0.9340 -0.5863  0.8405
  556SOL    HW2 1668   0.982   2.351   1.608 -0.1846  1.8314 -1.1879
  557SOL     OW 1669   0.121   2.097   0.122 -0.3113  0.0589  0.3979
  557SOL    HW1 1670   0.047   2.037   0.077  0.5295  1.3430 -0.6932
  557SOL    HW2 1671   0.170   2.158   0.056 -0.4461 -3.2074 -0.3692
  558SOL     OW 1672   2.954   2.274   0.337 -0.0554  0.2104  0.2948
  558SOL    HW1 1673   2.869   2.238   0.385  0.6356  1.2793  1.3336
  558SOL    HW2 1674   2.941   2.268   0.235 -3.8828 -2.6216  0.4847
  559SOL     OW 1675   0.405   2.268   1.329 -0.6533  0.0784 -0.6566
  559SOL    HW1 1676   0.307   2.262   1.291  0.5440 -2.5280  2.8237
  559SOL    HW2 1677   0.461   2.182   1.312  0.4026 -0.9807  1.3723
  560SOL     OW 1678   2.090   1.110   3.074  0.1422 -0.2851 -0.3379
  560SOL    HW1 1679   2.038   1.199   3.093  0.7559 -0.1169  0.4134
  560SOL    HW2 1680   2.192   1.123   3.080 -0.5846 -3.0591 -0.9914
  561SOL     OW 1681   3.008   1.942   0.003 -0.0289 -0.2875 -0.2772
  561SOL    HW1 1682   2.942   1.881   0.056 -1.7438  0.8085 -2.6543
  561SOL    HW2 1683   2.961   2.007  -0.067  0.8503 -2.7509  1.3769
  562SOL     OW 1684   0.914   2.136   2.358  0.6059 -0.4858  0.4566
  562SOL    HW1 1685   0.808   2.140   2.354  2.1531 -1.1892 -0.4316
  562SOL    HW2 1686   0.949   2.195   2.434 -1.7998  3.9189  3.5669
  563SOL     OW 1687   0.691   2.440   2.599  0.0352 -0.3716 -0.2193
  563SOL    HW1 1688   0.751   2.359   2.610 -2.1402  1.5823  0.5469
  563SOL    HW2 1689   0.651   2.471   2.693  1.1114 -0.7667 -0.1181
  564SOL     OW 1690   2.743   1.317   2.873  0.2685 -0.4392  0.9183
  564SOL    HW1 1691   2.670   1.320   2.948 -1.2117 -0.3706  1.3364
  564SOL    HW2 1692   2.781   1.415   2.850  0.1176 -1.8448 -3.3096
  565SOL     OW 1693   2.532   1.972   2.565 -0.0987  0.2928 -0.0401
  565SOL    HW1 1694   2.455   2.024   2.521  1.4289  0.6079  1.4879
  565SOL    HW2 1695   2.541   2.006   2.664  3.8449  0.2005 -1.3203
  566SOL     OW 1696   2.003   2.877   1.334  0.5525  0.0290 -0.2424
  566SOL    HW1 1697   1.943   2.795   1.313  0.1312 -0.0615 -2.0313
  566SOL    HW2 1698   2.042   2.922   1.249  2.8316  0.5560 -1.9815
  567SOL     OW 1699   2.435   0.121   2.199  0.5042  0.1513  0.1641
  567SOL    HW1 1700   2.406   0.091   2.106 -0.4129 -0.0893  2.4716
  567SOL    HW2 1701   2.354   0.161   2.247 -0.7847  4.4844  0.0145
  568SOL     OW 1702   1.546   1.812   0.305  0.5055  0.1348 -0.6154
  568SOL    HW1 1703   1.463   1.840   0.252  0.1304  1.5780 -0.7543
  568SOL    HW2 1704   1.580   1.879   0.369  1.5146 -2.2629 -1.6358
  569SOL     OW 1705   0.309   0.637   0.810  0.2011  0.3518  0.6746
  569SOL    HW1 1706   0.356   0.557   0.756 -3.7271  1.3472 -0.1166
  569SOL    HW2 1707   0.205   0.626   0.799  2.1826  1.2234 -0.9262
  570SOL     OW 1708   0.626   0.756   2.822  0.0931 -0.0901 -0.0815
  570SOL    HW1 1709   0.694   0.731   2.746  1.0023 -1.6329  2.3449
  570SOL    HW2 1710   0.653   0.845   2.868  1.2993 -2.6181 -1.2566
  571SOL     OW 1711   0.865   3.062   1.109  0.1367  0.1073 -0.4422
  571SOL    HW1 1712   0.896   3.109   1.020  1.3369 -1.8389 -1.0201
  571SOL    HW2 1713   0.940   3.006   1.152  0.1268 -3.2219 -0.9019
  572SOL     OW 1714   1.568   2.636   1.155  0.2409  0.0907 -0.9256
  572SOL    HW1 1715   1.499   2.572   1.206 -1.9214  1.3609  1.8336
  572SOL    HW2 1716   1.524   2.729   1.129  0.6435  1.6284  0.0533
  573SOL     OW 1717   2.929   0.442   2.051 -0.1669 -0.5147 -0.0164
  573SOL    HW1 1718   2.902   0.344   2.061  0.8626 -0.1515 -1.0312
  573SOL    HW2 1719   2.847   0.503   2.015 -2.0480  1.9558 -1.0282
  574SOL     OW 1720   0.205   1.787   1.001  0.1322 -0.1584 -0.1769
  574SOL    HW1 1721   0.210   1.890   0.990 -2.2127 -1.5772  0.3115
  574SOL    HW2 1722   0.123   1.758   1.059 -0.4392  1.5428  1.4320
  575SOL     OW 1723   0.803   2.168   0.962 -0.2443 -0.1000 -0.3351
  575SOL    HW1 1724   0.817   2.190   1.062 -0.7869  0.3300  0.9455
  575SOL    HW2 1725   0.855   2.235   0.901  0.5800  1.2690  0.4983
  576SOL     OW 1726   2.938   2.920   1.715 -0.1547  0.2761 -0.0925
  576SOL    HW1 1727   2.876   2.867   1.656  0.8768  1.4429  0.5205
  576SOL    HW2 1728   2.944   3.015   1.683  0.5163 -3.1991 -0.8515
  577SOL     OW 1729   2.552   1.248   3.083 -0.1385 -0.1644  0.0309
  577SOL    HW1 1730   2.574   1.157   3.047  1.3017  2.6089 -0.0530
  577SOL    HW2 1731   2.593   1.270   3.175  0.1719 -1.8475 -1.9152
  578SOL     OW 1732   1.322   2.711   2.576 -0.5503 -0.4384  0.1964
  578SOL    HW1 1733   1.249   2.697   2.503 -1.6448  2.1045 -3.8747
  578SOL    HW2 1734   1.379   2.798   2.552  2.7509  0.1554  0.0242
  579SOL     OW 1735   0.116   2.515   0.105  0.0569  0.4270 -0.3074
  579SOL    HW1 1736   0.065   2.504   0.195  0.3714 -1.4489  0.3302
  579SOL    HW2 1737   0.217   2.506   0.112 -1.1409 -1.9420 -2.2055
  580SOL     OW 1738   1.013   2.626   0.388 -0.1719 -0.5202 -0.0079
  580SOL    HW1 1739   1.100   2.642   0.336 -0.2109 -1.2087  0.7827
  580SOL    HW2 1740   0.943   2.561   0.347 -1.4586 -2.3581 -1.3844
  581SOL     OW 1741   1.251   2.634   1.520 -0.3484 -0.0848 -0.5420
  581SOL    HW1 1742   1.312   2.553   1.501  0.5301  1.8546  0.2158
  581SOL    HW2 1743   1.268   2.721   1.464  1.2972 -0.5037  0.8091
  582SOL     OW 1744   1.492   0.077   1.850 -0.4506  0.3108 -0.4130
  582SOL    HW1 1745   1.514   0.164   1.900  1.9307  0.0105 -0.1444
  582SOL    HW2 1746   1.574   0.055   1.786  0.6697  1.0690 -0.1629
  583SOL     OW 1747   2.491   2.967   0.542  0.5906  0.2240 -0.6894
  583SOL    HW1 1748   2.495   2.890   0.475 -0.2353 -1.6018  3.0146
  583SOL    HW2 1749   2.436   2.933   0.628 -3.8053 -0.2542  2.0618
  584SOL     OW 1750   1.613   1.034   2.084  0.0663  0.0860 -0.7107
  584SOL    HW1 1751   1.653   1.087   2.007 -1.0493  0.3564  0.7794
  584SOL    HW2 1752   1.678   1.018   2.163  1.0248 -2.6277 -0.5872
  585SOL     OW 1753   2.095   2.630   2.887 -0.0894  0.5844  0.7595
  585SOL    HW1 1754   2.128   2.528   2.875  1.7084 -3.6495 -0.8190
  585SOL    HW2 1755   1.994   2.633   2.880 -1.1304  0.1323 -1.5965
  586SOL     OW 1756   2.731   0.241   1.509  0.0117  0.3055  0.0609
  586SOL    HW1 1757   2.766   0.302   1.582  0.5466  0.6430  0.3772
  586SOL    HW2 1758   2.642   0.199   1.541  2.6816 -1.5788 -2.2258
  587SOL     OW 1759   1.962   1.615   2.728  0.3308 -0.0590 -0.0179
  587SOL    HW1 1760   2.029   1.552   2.678  0.2128  0.7841 -0.2677
  587SOL    HW2 1761   1.994   1.645   2.819 -0.3481 -1.8765  2.7176
  588SOL     OW 1762   0.477   2.733   2.218 -0.7078  0.2377  0.4438
  588SOL    HW1 1763   0.392   2.736   2.161  0.4194 -1.8276  1.6450
  588SOL    HW2 1764   0.490   2.646   2.270 -0.5930 -0.1527 -0.4158
  589SOL     OW 1765   2.108   1.445   2.561  0.2617 -0.0824 -0.6777
  589SOL    HW1 1766   2.037   1.414   2.489 -2.2472 -0.7838 -0.3170
  589SOL    HW2 1767   2.176   1.375   2.588 -1.6824 -1.7528 -0.7182
  590SOL     OW 1768   2.363   1.675   2.028  0.5620 -0.0831  0.2133
  590SOL    HW1 1769   2.436   1.603   2.021 -0.2199 -2.6249  0.9771
  590SOL    HW2 1770   2.345   1.716   2.122  1.0969  0.8806 -0.1165
  591SOL     OW 1771   1.356   2.428   0.267  0.3503 -0.0395  0.2679
  591SOL    HW1 1772   1.445   2.401   0.223  0.0584 -2.2331  0.3326
  591SOL    HW2 1773   1.344   2.380   0.358 -0.6492 -1.1021  1.2581
  592SOL     OW 1774   1.747   2.368   0.784  0.3294  0.3575  0.3043
  592SOL    HW1 1775   1.714   2.382   0.686  2.6064 -1.5311  2.5783
  592SOL    HW2 1776   1.849   2.349   0.788  1.9210 -0.5838  0.6930
  593SOL     OW 1777   0.630   0.229   0.067 -0.5641  0.4768 -0.1850
  593SOL    HW1 1778   0.717   0.219   0.010  0.8958  0.2537  1.8163
  593SOL    HW2 1779   0.634   0.314   0.130  1.1576  4.4448  3.2398
  594SOL     OW 1780   0.946   1.904   2.685  0.7727 -0.3105  0.0393
  594SOL    HW1 1781   1.030   1.955   2.718 -0.4789 -1.4973  1.9747
  594SOL    HW2 1782   0.857   1.938   2.727 -0.4450 -0.7512 -0.9554
  595SOL     OW 1783   1.544   0.039   1.016 -0.1187  0.0437 -0.3599
  595SOL    HW1 1784   1.631  -0.015   1.033 -0.1147  1.4697  1.0122
  595SOL    HW2 1785   1.473  -0.016   0.967  1.1257  2.2646  2.3335
  596SOL     OW 1786   3.069   1.439   2.214 -0.1568  0.3182 -0.5329
  596SOL    HW1 1787   2.965   1.425   2.196  1.1578  1.5186  1.8217
  596SOL    HW2 1788   3.093   1.518   2.274 -1.1027  2.4840 -0.5010
  597SOL     OW 1789   2.053   2.614   1.631 -0.1583  0.1330  0.5327
  597SOL    HW1 1790   2.096   2.553   1.550  1.7212  0.4530 -2.3920
  597SOL    HW2 1791   2.121   2.636   1.708 -0.7560  1.7341  0.3595
  598SOL     OW 1792   2.461   2.927   1.379 -0.0898  0.0864  0.0370
  598SOL    HW1 1793   2.549   2.959   1.431 -0.9700  0.6879 -0.5861
  598SOL    HW2 1794   2.481   2.897   1.280 -1.8304 -2.4138 -0.1468
  599SOL     OW 1795   2.913   0.393   2.450  0.5932  0.1491  0.0094
  599SOL    HW1 1796   2.999   0.434   2.407  0.8304  1.1871 -0.3725
  599SOL    HW2 1797   2.825   0.419   2.403  0.2350  0.3773  0.9012
  600SOL     OW 1798   2.820   1.133   2.677  0.4763 -0.2217  0.3096
  600SOL    HW1 1799   2.762   1.046   2.699  0.3808 -1.2863  3.0408
  600SOL    HW2 1800   2.795   1.213   2.743 -0.6428  2.0930  3.0983
  601SOL     OW 1801   3.048   1.246   1.993  0.0810  0.5268 -0.2450
  601SOL    HW1 1802   2.991   1.288   1.915 -2.0218 -2.2159 -1.2134
  601SOL    HW2 1803   3.111   1.309   2.035  0.4418 -0.5057 -2.1507
  602SOL     OW 1804   1.446   1.713   2.369 -0.3583 -0.0778  0.4814
  602SOL    HW1 1805   1.386   1.631   2.356 -0.4559  1.7099  0.8612
  602SOL    HW2 1806   1.547   1.688   2.385 -4.3559 -0.3855 -0.2449
  603SOL     OW 1807   0.644   1.269   2.681 -0.3466  0.1227 -0.2085
  603SOL    HW1 1808   0.560   1.263   2.622  2.0152 -0.6785 -2.7297
  603SOL    HW2 1809   0.716   1.195   2.654  1.1315 -1.3062 -0.3576
  604SOL     OW 1810   2.404   0.980   0.158 -0.1023  0.2275  0.2565
  604SOL    HW1 1811   2.448   1.050   0.089 -2.1629  1.0924 -0.3893
  604SOL    HW2 1812   2.401   0.888   0.113  1.8364  1.6178  1.4805
  605SOL     OW 1813   2.654   1.154   1.944 -0.2041  0.0509  0.0085
  605SOL    HW1 1814   2.646   1.072   1.883  0.5630  0.4623  2.7148
  605SOL    HW2 1815   2.675   1.127   2.038 -3.7462  0.9716  0.5916
  606SOL     OW 1816   1.511   2.496   2.646  0.1880  0.4539  0.3046
  606SOL    HW1 1817   1.434   2.554   2.614  1.0600 -1.2506 -1.6306
  606SOL    HW2 1818   1.507   2.394   2.611 -1.4842 -0.8093  3.8146
  607SOL     OW 1819   1.387   1.597   0.389 -0.2248  0.3064  0.1359
  607SOL    HW1 1820   1.388   1.602   0.492  2.4632  0.0719  1.7345
  607SOL    HW2 1821   1.446   1.672   0.350 -1.5184 -2.0762 -1.2764
  608SOL     OW 1822   1.437   2.829   0.420 -0.1721 -0.2228 -0.1665
  608SOL    HW1 1823   1.508   2.889   0.370  2.0801  1.3614  0.9300
  608SOL    HW2 1824   1.367   2.885   0.474 -1.7990  0.6138 -1.4697
  609SOL     OW 1825   1.260   1.378   0.267 -0.1842  0.5141 -0.1737
  609SOL    HW1 1826   1.298   1.461   0.312 -0.3264 -2.2542  1.2694
  609SOL    HW2 1827   1.170   1.345   0.317 -1.4986  1.4307 -2.0288
  610SOL     OW 1828   2.981   1.134   2.258  0.9578  0.0304 -0.5800
  610SOL    HW1 1829   2.977   1.033   2.277  1.7594 -0.1035 -0.1045
  610SOL    HW2 1830   3.020   1.159   2.167 -1.3909  0.5282  0.5449
  611SOL     OW 1831   2.543   0.314   1.169  0.5937  0.1605  0.1065
  611SOL    HW1 1832   2.490   0.231   1.202  0.8025  0.3299  0.0086
  611SOL    HW2 1833   2.633   0.335   1.220 -0.4668 -0.7254  0.6002
  612SOL     OW 1834   0.820   2.231   1.246 -0.0029 -0.2888 -0.2681
  612SOL    HW1 1835   0.781   2.149   1.298 -1.9483  1.4767  1.7337
  612SOL    HW2 1836   0.752   2.310   1.232 -0.6765  1.3674  0.7175
  613SOL     OW 1837   0.839   1.430   2.422 -0.2888 -0.6224  0.2565
  613SOL    HW1 1838   0.919   1.460   2.365  0.4461 -3.1795  2.2115
  613SOL    HW2 1839   0.767   1.381   2.369 -0.3516 -0.3520  1.1942
  614SOL     OW 1840   1.652   1.620   1.899 -0.1670  0.5427  0.7866
  614SOL    HW1 1841   1.591   1.693   1.943  0.7258  0.6196  1.6546
  614SOL    HW2 1842   1.742   1.611   1.948  0.9774  1.8451 -1.2887
  615SOL     OW 1843   0.793   1.277   1.708 -0.0329 -0.3755 -0.2391
  615SOL    HW1 1844   0.739   1.245   1.620 -0.8573 -3.9270 -4.1893
  615SOL    HW2 1845   0.847   1.368   1.687 -1.4454  2.4233 -2.8004
  616SOL     OW 1846   1.088   1.605   2.280 -0.0407  0.0541  0.8003
  616SOL    HW1 1847   1.020   1.589   2.201 -1.4474  0.7716 -0.9319
  616SOL    HW2 1848   1.099   1.712   2.297 -1.8887  2.5912  2.0019
  617SOL     OW 1849   2.921   1.534   1.606 -0.1729 -0.0004  0.4096
  617SOL    HW1 1850   2.871   1.453   1.648  0.8280  1.8775  0.4352
  617SOL    HW2 1851   2.980   1.509   1.525  0.3262  2.1243 -0.6517
  618SOL     OW 1852   1.915   2.075   1.326  0.6922 -0.4103 -0.7992
  618SOL    HW1 1853   1.921   2.147   1.254  0.1067  0.9759  0.2406
  618SOL    HW2 1854   1.907   1.985   1.270  0.8414  0.5862 -0.9436
  619SOL     OW 1855   1.740   0.496   2.370  0.0157 -0.4665  0.1002
  619SOL    HW1 1856   1.688   0.553   2.301  1.4225 -0.6117 -2.1579
  619SOL    HW2 1857   1.726   0.396   2.341  3.2621 -0.7286 -2.4764
  620SOL     OW 1858   2.328   2.941   0.753  0.1376  0.7737 -0.1787
  620SOL    HW1 1859   2.278   3.020   0.800  1.6196  0.1803 -0.1492
  620SOL    HW2 1860   2.319   2.851   0.803  0.1026 -2.7631  0.1968
  621SOL     OW 1861   2.097   1.813   1.322 -0.3799  0.0543  0.3944
  621SOL    HW1 1862   2.097   1.826   1.423  1.3258 -0.5461 -1.4260
  621SOL    HW2 1863   2.046   1.723   1.295 -3.7858  0.1545  0.3988
  622SOL     OW 1864   2.276   0.916   1.816  0.3281 -0.0622 -0.3504
  622SOL    HW1 1865   2.380   0.937   1.802  0.9318 -2.4511 -0.1365
  622SOL    HW2 1866   2.261   0.821   1.849  1.7303  0.0923 -1.7463
  623SOL     OW 1867   1.346   0.790   2.442 -0.2030  0.0039  1.0764
  623SOL    HW1 1868   1.303   0.707   2.480 -1.6377 -0.8668 -1.5549
  623SOL    HW2 1869   1.279   0.826   2.377  0.0372  1.7241 -0.6729
  624SOL     OW 1870   0.574   0.664   3.100 -0.0351 -0.2657 -0.1699
  624SOL    HW1 1871   0.589   0.675   3.001 -2.1589  3.2951 -0.0905
  624SOL    HW2 1872   0.575   0.751   3.153  0.8760 -2.0453 -0.5982
  625SOL     OW 1873   2.771   1.732   0.991 -0.1307 -0.2863 -0.0196
  625SOL    HW1 1874   2.685   1.786   0.985 -0.7309 -1.1027  1.7648
  625SOL    HW2 1875   2.852   1.794   1.008 -0.6866 -0.7534  0.4101
  626SOL     OW 1876   0.622   2.679   1.713  0.0306  0.3565 -0.3457
  626SOL    HW1 1877   0.681   2.733   1.779  1.2291 -0.2700  0.6391
  626SOL    HW2 1878   0.521   2.688   1.742 -1.0796 -0.7513  0.5290
  627SOL     OW 1879   0.694   0.954   1.567  0.1548  0.3053 -0.1921
  627SOL    HW1 1880   0.602   0.932   1.534  2.2352  1.1395 -1.7763
  627SOL    HW2 1881   0.761   0.976   1.488 -1.7104 -1.2324 -1.2776
  628SOL     OW 1882   2.498   0.157   0.651 -0.0779 -0.4501 -0.1078
  628SOL    HW1 1883   2.533   0.061   0.623 -0.8252 -4.1227  0.7725
  628SOL    HW2 1884   2.394   0.153   0.668  1.8048 -0.5557  0.8678
  629SOL     OW 1885   1.919   0.940   2.072  0.5033  0.1166  0.8148
  629SOL    HW1 1886   1.936   0.976   1.975  1.2368  0.9606 -0.7482
  629SOL    HW2 1887   1.932   1.011   2.145  0.5616 -2.2806  1.0194
  630SOL     OW 1888   2.918   2.337   0.808 -0.4490  0.1689  0.2283
  630SOL    HW1 1889   2.835   2.399   0.811  0.4436 -1.0421  0.6252
  630SOL    HW2 1890   2.889   2.244   0.774 -0.3212 -0.8491  0.4591
  631SOL     OW 1891   3.085   0.148   2.191 -0.0534 -0.5183 -0.1966
  631SOL    HW1 1892   3.127   0.209   2.260 -1.0961  3.7250 -0.9283
  631SOL    HW2 1893   3.114   0.173   2.094 -1.1932  1.3978  0.6433
  632SOL     OW 1894   2.465   2.567   0.648 -0.0233 -0.1563  0.0877
  632SOL    HW1 1895   2.492   2.659   0.685 -1.0132 -3.1723 -1.6698
  632SOL    HW2 1896   2.408   2.569   0.559  0.4525 -0.2700  1.1563
  633SOL     OW 1897   1.459   1.227   2.685 -0.0235  0.4791 -0.0820
  633SOL    HW1 1898   1.423   1.305   2.743 -0.8673 -0.9607  1.1956
  633SOL    HW2 1899   1.389   1.218   2.607 -1.6972  1.4988 -2.8835
  634SOL     OW 1900   0.625   1.986   0.880  0.1730  0.1731 -0.5425
  634SOL    HW1 1901   0.532   1.996   0.928  0.1546 -4.0987  1.2969
  634SOL    HW2 1902   0.697   2.058   0.911  1.2375  0.5717 -0.5990
  635SOL     OW 1903   2.991   2.352   0.061  0.2844 -0.1082 -0.1332
  635SOL    HW1 1904   2.929   2.401  -0.009 -2.0359  0.8503  0.9706
  635SOL    HW2 1905   3.082   2.402   0.075  2.7340  0.6706  1.5773
  636SOL     OW 1906   2.349   2.754   1.957 -0.3642 -0.3739 -0.0977
  636SOL    HW1 1907   2.352   2.852   1.989 -1.6554 -3.0284 -0.9950
  636SOL    HW2 1908   2.281   2.700   2.019 -1.6322 -0.4718  0.4526
  637SOL     OW 1909   2.753   0.614   1.967 -0.2072 -0.0812  0.0507
  637SOL    HW1 1910   2.672   0.628   1.905 -0.5988  0.3411 -1.0748
  637SOL    HW2 1911   2.794   0.709   2.005  2.5503  1.6996 -1.7364
  638SOL     OW 1912   2.420   1.848   1.314  0.1462 -0.2121 -0.0745
  638SOL    HW1 1913   2.322   1.831   1.341  0.6628  0.0086  0.4761
  638SOL    HW2 1914   2.481   1.824   1.395  0.4326  2.1209 -2.5270
  639SOL     OW 1915   1.305   2.187   1.703 -0.0171 -0.3291 -0.1853
  639SOL    HW1 1916   1.326   2.286   1.703  0.3533 -3.1413  2.1854
  639SOL    HW2 1917   1.209   2.166   1.732  0.2900  0.1398 -1.4705
  640SOL     OW 1918   0.224   1.195   1.585  0.0418 -0.0487  0.9160
  640SOL    HW1 1919   0.211   1.218   1.686 -0.5212  2.5716  0.9027
  640SOL    HW2 1920   0.282   1.117   1.554 -0.0901  1.9658 -0.8677
  641SOL     OW 1921   2.033   0.308   1.438 -0.0830  0.9777  0.3589
  641SOL    HW1 1922   1.975   0.350   1.508 -1.5688  0.7074 -0.4059
  641SOL    HW2 1923   2.087   0.226   1.472 -1.2975 -0.0518  0.3518
  642SOL     OW 1924   2.019   0.060   0.336  0.0289 -0.4573 -0.2513
  642SOL    HW1 1925   2.116   0.033   0.361 -1.5760 -1.1204  3.3703
  642SOL    HW2 1926   1.989   0.153   0.367  0.5943 -1.5327 -0.5648
  643SOL     OW 1927   2.911   1.786   2.134  0.2745  0.0965 -0.5944
  643SOL    HW1 1928   2.866   1.729   2.059  0.4549 -2.4219  0.6907
  643SOL    HW2 1929   2.928   1.887   2.113 -0.2920 -0.1544 -0.8666
  644SOL     OW 1930   2.275   2.413   1.212 -0.2973 -0.3939 -0.2234
  644SOL    HW1 1931   2.308   2.317   1.187 -2.3440  1.9646 -0.6395
  644SOL    HW2 1932   2.246   2.419   1.312  0.1735  0.6439 -1.7574
  645SOL     OW 1933   0.571   0.855   1.292 -0.0361  0.5098 -0.0488
  645SOL    HW1 1934   0.472   0.829   1.290  0.7333 -0.4510 -4.4216
  645SOL    HW2 1935   0.609   0.836   1.199 -1.7159  0.5642  0.8478
  646SOL     OW 1936   1.463   1.832   2.041  0.2272 -0.1712  0.1881
  646SOL    HW1 1937   1.500   1.901   1.970 -1.6445  0.9362 -0.1823
  646SOL    HW2 1938   1.512   1.842   2.131 -0.5921  1.5140  0.9273
  647SOL     OW 1939   0.830   1.043   0.637  0.4116 -0.8008 -0.3398
  647SOL    HW1 1940   0.882   1.088   0.714 -0.3761 -0.2542 -0.8937
  647SOL    HW2 1941   0.775   0.964   0.672 -1.1076 -0.7312  0.1936
  648SOL     OW 1942   0.128   0.221   0.225  0.4551  0.1585 -0.1694
  648SOL    HW1 1943   0.150   0.120   0.197 -1.0900 -0.4215 -0.3945
  648SOL    HW2 1944   0.177   0.294   0.177  1.3536  0.3839 -0.2234
  649SOL     OW 1945   3.000   0.224   0.846 -0.2135  0.6408  0.4085
  649SOL    HW1 1946   3.075   0.157   0.876  1.6353  0.6187 -1.4149
  649SOL    HW2 1947   3.023   0.324   0.874  0.4095  2.1428  0.1852
  650SOL     OW 1948   2.716   0.631   1.527  0.3390 -0.1038 -0.4369
  650SOL    HW1 1949   2.614   0.619   1.513  2.5182 -2.1718  0.1862
  650SOL    HW2 1950   2.739   0.729   1.502 -1.4215  0.0285  0.1523
  651SOL     OW 1951   0.916   1.516   1.635  0.5639 -0.0369 -0.0916
  651SOL    HW1 1952   0.937   1.595   1.698  1.1055 -0.2134  0.5059
  651SOL    HW2 1953   0.967   1.518   1.541 -1.7589 -0.6400 -4.3730
  652SOL     OW 1954   2.361   2.391   2.443 -1.4170 -0.0843 -0.1870
  652SOL    HW1 1955   2.269   2.435   2.431 -1.6440  0.2222  0.3098
  652SOL    HW2 1956   2.434   2.428   2.381 -1.8224 -0.0447  0.4576
  653SOL     OW 1957   2.696   1.284   0.247 -0.0385 -0.3841  0.0062
  653SOL    HW1 1958   2.747   1.352   0.311  1.0528 -3.3979  0.8664
  653SOL    HW2 1959   2.738   1.189   0.239 -2.4212  0.9608 -0.3273
  654SOL     OW 1960   1.268   2.224   1.280  0.3196  0.0906 -0.1235
  654SOL    HW1 1961   1.266   2.133   1.324  0.4223  0.7553  0.9327
  654SOL    HW2 1962   1.282   2.232   1.176 -2.4763  1.9015  0.5964
  655SOL     OW 1963   0.188   0.927   1.865  0.5700  0.0633  0.1102
  655SOL    HW1 1964   0.262   0.882   1.807 -0.6909 -2.6479 -0.9340
  655SOL    HW2 1965   0.208   1.028   1.891  0.8564  0.6586 -2.4296
  656SOL     OW 1966   2.550   2.495   2.617  0.4732 -0.2964 -0.1146
  656SOL    HW1 1967   2.645   2.458   2.592 -0.7661 -0.8717 -2.0947
  656SOL    HW2 1968   2.473   2.428   2.595 -2.4770 -1.7681 -1.7537
  657SOL     OW 1969   3.007   1.019   1.866 -0.4266 -0.2942  0.3811
  657SOL    HW1 1970   3.042   1.110   1.904  1.1716  1.4413 -0.4581
  657SOL    HW2 1971   3.094   0.964   1.851 -2.0497  1.3283  0.7221
  658SOL     OW 1972   1.717   0.212   2.365  0.0941 -0.2089  0.1637
  658SOL    HW1 1973   1.765   0.154   2.434  3.0130  1.0028 -0.5654
  658SOL    HW2 1974   1.702   0.162   2.275 -0.0260  1.8737  2.6137
  659SOL     OW 1975   1.383   0.616   2.806  0.4885 -0.2573  0.6938
  659SOL    HW1 1976   1.425   0.693   2.858  1.4459  0.0475  0.2350
  659SOL    HW2 1977   1.283   0.637   2.773 -1.8706 -1.9845  0.0543
  660SOL     OW 1978   1.395   0.343   1.433 -0.6098  0.6098 -0.3295
  660SOL    HW1 1979   1.410   0.345   1.537  3.3193 -1.9022  0.8217
  660SOL    HW2 1980   1.457   0.269   1.387  1.0514 -3.7151 -1.0822
  661SOL     OW 1981   2.400   1.241   0.687 -0.9343 -0.6511 -0.4350
  661SOL    HW1 1982   2.429   1.204   0.595  1.3637  1.6228  4.5434
  661SOL    HW2 1983   2.341   1.323   0.674  2.6613  2.2068  0.5289
  662SOL     OW 1984   1.395   0.405   1.744 -0.3598  0.1620  0.0983
  662SOL    HW1 1985   1.325   0.388   1.825 -1.6292 -1.9750  1.6337
  662SOL    HW2 1986   1.441   0.498   1.748 -1.3557 -0.3225  1.8440
  663SOL     OW 1987   0.858   1.550   2.118 -0.2863  0.5072 -0.2163
  663SOL    HW1 1988   0.777   1.550   2.186  0.0132  1.3928  2.0739
  663SOL    HW2 1989   0.842   1.520   2.025  0.3344 -0.6465  0.7600
  664SOL     OW 1990   1.644   2.089   1.412 -0.2129 -0.5426 -0.6398
  664SOL    HW1 1991   1.623   2.004   1.466  1.8272  2.3250 -0.6074
  664SOL    HW2 1992   1.743   2.092   1.381  2.4378  1.3934  2.1258
  665SOL     OW 1993   2.302   0.673   1.962  0.0946  0.6621  0.0877
  665SOL    HW1 1994   2.261   0.576   1.962 -0.3615  2.0896 -0.0119
  665SOL    HW2 1995   2.355   0.693   2.049 -0.8276 -1.3795  3.2959
  666SOL     OW 1996   0.514   2.251   0.369 -0.1101  0.0406 -0.7180
  666SOL    HW1 1997   0.557   2.326   0.427  1.1187  0.6144 -2.7280
  666SOL    HW2 1998   0.413   2.240   0.396 -1.2874 -0.5284  1.0959
  667SOL     OW 1999   1.950   0.229   1.050  0.0424 -0.6938 -0.1299
  667SOL    HW1 2000   1.960   0.327   1.090 -1.0817  0.3728  0.5796
  667SOL    HW2 2001   1.891   0.164   1.108  1.2392 -1.0239 -0.8828
  668SOL     OW 2002   2.014   0.508   1.135  0.5462  0.4569  0.0157
  668SOL    HW1 2003   2.088   0.529   1.064 -0.1007  1.5931 -0.5548
  668SOL    HW2 2004   2.046   0.517   1.235 -2.7890 -3.8184 -2.1341
  669SOL     OW 2005   3.072   2.186   1.005 -0.0794 -0.2192  0.0780
  669SOL    HW1 2006   3.020   2.241   0.936  1.8445 -0.8072  4.1680
  669SOL    HW2 2007   3.027   2.203   1.101  1.8771  1.6329  0.5264
  670SOL     OW 2008   2.874   2.324   2.130  0.0208 -0.0830 -0.3448
  670SOL    HW1 2009   2.784   2.299   2.175  2.1927 -0.0458  0.1993
  670SOL    HW2 2010   2.862   2.403   2.071  1.1919  0.0853 -0.4117
  671SOL     OW 2011   1.786   1.801   1.483  0.0986  0.2717 -0.4282
  671SOL    HW1 2012   1.816   1.853   1.398  1.2971  0.6471 -0.3479
  671SOL    HW2 2013   1.685   1.800   1.510  0.7981  1.1375 -1.1921
  672SOL     OW 2014   0.464   0.652   2.454 -0.0692  0.1292 -1.4654
  672SOL    HW1 2015   0.463   0.689   2.359 -1.0779 -0.1037 -2.8310
  672SOL    HW2 2016   0.370   0.665   2.498  1.6475 -2.3951 -0.2985
  673SOL     OW 2017   0.142   1.198   1.138  0.6446 -1.1645  0.2401
  673SOL    HW1 2018   0.163   1.268   1.207 -1.6859 -2.7161 -0.2167
  673SOL    HW2 2019   0.230   1.152   1.104  2.6269  0.4862  1.2473
  674SOL     OW 2020   1.618   3.007   0.313  0.1780 -0.3724 -0.1974
  674SOL    HW1 2021   1.596   3.106   0.316  0.7136 -0.2004  2.4012
  674SOL    HW2 2022   1.721   2.989   0.300  3.7503 -0.4982 -0.3241
  675SOL     OW 2023   1.711   0.830   2.287  0.1850 -0.2265 -0.4893
  675SOL    HW1 2024   1.809   0.802   2.312 -1.1054 -0.9119 -0.3215
  675SOL    HW2 2025   1.661   0.755   2.234  0.5704 -2.8979 -0.4132
  676SOL     OW 2026   2.545   1.495   1.915 -0.2151  0.5057  0.5234
  676SOL    HW1 2027   2.509   1.430   1.839 -1.4607 -0.3031 -2.6897
  676SOL    HW2 2028   2.554   1.440   2.001  0.7148 -0.3447 -3.1504
  677SOL     OW 2029   1.919   0.696   0.916 -0.0008  0.4559  0.2671
  677SOL    HW1 2030   1.821   0.685   0.952 -0.7691  3.7976 -0.4729
  677SOL    HW2 2031   1.985   0.614   0.923  1.2946 -1.0246 -1.8744
  678SOL     OW 2032   0.073   0.745   1.587 -0.4434  0.1297 -0.4276
  678SOL    HW1 2033   0.167   0.774   1.622 -0.0783  1.3750  0.6586
  678SOL    HW2 2034   0.020   0.696   1.657  1.0437 -1.2546 -1.9676
  679SOL     OW 2035   2.586   1.186   1.214 -0.3547  0.2481  0.3809
  679SOL    HW1 2036   2.488   1.216   1.206 -0.2911  0.8591  1.9893
  679SOL    HW2 2037   2.600   1.090   1.183  0.3428 -1.3118 -0.7653
  680SOL     OW 2038   2.828   0.439   1.668  0.0428 -0.5010 -0.9014
  680SOL    HW1 2039   2.781   0.515   1.611 -1.6925  0.3015  1.3653
  680SOL    HW2 2040   2.864   0.484   1.759  1.3598  0.1673 -0.8785
  681SOL     OW 2041   2.954   0.060   1.590  0.0925  0.5330  0.2189
  681SOL    HW1 2042   3.052   0.079   1.552 -0.2952 -0.6750 -0.1381
  681SOL    HW2 2043   2.888   0.140   1.564 -2.0889  1.7939 -2.6954
  682SOL     OW 2044   0.725   0.040   1.347  0.4390  0.6568  0.3767
  682SOL    HW1 2045   0.634  -0.009   1.373  1.6492  0.3194 -0.1994
  682SOL    HW2 2046   0.748   0.034   1.243 -0.9295  0.9063 -1.1443
  683SOL     OW 2047   1.397   0.194   2.165  0.3521  0.4564  0.7001
  683SOL    HW1 2048   1.388   0.250   2.255  0.1063  0.0551  2.2930
  683SOL    HW2 2049   1.455   0.239   2.085  0.7611  0.4256  0.6807
  684SOL     OW 2050   1.469   2.085   0.522 -0.1123 -0.3784 -0.7764
  684SOL    HW1 2051   1.503   2.041   0.611 -0.5305 -1.9033  0.6715
  684SOL    HW2 2052   1.382   2.044   0.476  1.0633  0.5865 -0.0589
  685SOL     OW 2053   2.191   2.068   1.957  0.0227  0.3483  0.3087
  685SOL    HW1 2054   2.265   2.090   1.891 -4.1444 -0.7780  2.0621
  685SOL    HW2 2055   2.226   2.079   2.057  2.7496 -0.2422  0.0244
  686SOL     OW 2056   1.507   1.849   2.813  1.0595 -0.0229 -0.4582
  686SOL    HW1 2057   1.532   1.785   2.889  0.2309  2.5433  0.6088
  686SOL    HW2 2058   1.416   1.832   2.761  0.3537 -0.5813 -1.0838
  687SOL     OW 2059   1.331   2.455   1.976  0.3259 -0.2567  0.5616
  687SOL    HW1 2060   1.344   2.350   1.985  2.0617 -0.1854 -0.8010
  687SOL    HW2 2061   1.401   2.502   2.033  1.5632  0.9200 -1.1570
  688SOL     OW 2062   1.996   1.544   1.776 -0.0942  0.5120 -0.3513
  688SOL    HW1 2063   2.097   1.579   1.760 -0.1688  0.2622  1.3890
  688SOL    HW2 2064   1.965   1.477   1.702 -1.1517  1.2508 -2.7130
  689SOL     OW 2065   2.386   1.085   2.770 -0.4094  0.1410 -0.0816
  689SOL    HW1 2066   2.305   1.023   2.793  0.0610 -1.9655  2.8201
  689SOL    HW2 2067   2.470   1.033   2.800  1.4164 -0.6775 -1.8346
  690SOL     OW 2068   2.217   2.808   0.015 -0.0531  0.3744  0.0467
  690SOL    HW1 2069   2.165   2.784  -0.074  0.1978  0.0586 -0.5116
  690SOL    HW2 2070   2.162   2.770   0.098 -3.7159 -3.9071  2.4649
  691SOL     OW 2071   2.590   0.411   2.148  0.0610  0.3936  0.6134
  691SOL    HW1 2072   2.624   0.313   2.158  1.8020 -0.3041  0.8446
  691SOL    HW2 2073   2.625   0.454   2.057  1.1473  2.6214 -0.8811
  692SOL     OW 2074   2.653   1.214   0.768 -0.1510  0.0990 -0.9642
  692SOL    HW1 2075   2.569   1.247   0.719  1.3923  0.8358  2.7024
  692SOL    HW2 2076   2.716   1.292   0.793  1.1573 -1.8658  2.2452
  693SOL     OW 2077   2.852   2.958   0.571 -0.3164 -0.7973  0.6730
  693SOL    HW1 2078   2.841   3.006   0.663 -1.6746 -1.3054  1.5205
  693SOL    HW2 2079   2.815   3.005   0.484 -0.9487 -0.3148  1.2382
  694SOL     OW 2080   2.413   2.229   0.086 -0.3685  0.7032 -0.4111
  694SOL    HW1 2081   2.420   2.272   0.181  2.8516 -1.2260  1.6813
  694SOL    HW2 2082   2.332   2.172   0.068 -2.7373  1.9054  0.5832
  695SOL     OW 2083   0.521   2.981   1.439  0.1985 -0.3628  0.7338
  695SOL    HW1 2084   0.469   2.891   1.436 -2.6118  0.9904 -0.0516
  695SOL    HW2 2085   0.498   3.036   1.524  0.9269 -1.1612  1.2911
  696SOL     OW 2086   2.862   2.065   0.771 -0.7110 -0.1326 -0.0526
  696SOL    HW1 2087   2.913   1.974   0.782  3.2253 -0.0640 -1.9289
  696SOL    HW2 2088   2.843   2.087   0.672  0.5368  0.6226  0.1660
  697SOL     OW 2089   1.663   1.920   1.856 -0.1510  0.2812  0.0598
  697SOL    HW1 2090   1.725   1.850   1.812 -1.4312 -0.2861 -0.6007
  697SOL    HW2 2091   1.709   2.012   1.871 -2.1123  3.4120  0.2994
  698SOL     OW 2092   2.894   0.417   2.736  0.2195 -0.4994 -0.0967
  698SOL    HW1 2093   2.896   0.389   2.638 -1.9035 -0.3030  0.6341
  698SOL    HW2 2094   2.925   0.347   2.799  0.9457  0.7771  0.7127
  699SOL     OW 2095   1.564   0.037   2.933 -0.5276  0.2404  0.0064
  699SOL    HW1 2096   1.503  -0.035   2.889 -0.5329 -0.3116 -0.0686
  699SOL    HW2 2097   1.602   0.094   2.858  0.3572 -1.5908 -0.5050
  700SOL     OW 2098   1.049   2.317   1.399 -0.2123  0.4174 -0.2072
  700SOL    HW1 2099   1.131   2.259   1.370 -1.7150  0.2296 -1.1188
  700SOL    HW2 2100   0.971   2.297   1.340  2.3756  0.8435 -0.1404
  701SOL     OW 2101   1.932   2.890   0.007  0.3920  0.4082 -0.1848
  701SOL    HW1 2102   1.917   2.825   0.084 -4.0081  0.5169  0.2497
  701SOL    HW2 2103   1.935   2.990   0.032  0.9541  2.6656 -2.9151
  702SOL     OW 2104   2.058   1.315   1.948  0.3026  0.0283  0.3070
  702SOL    HW1 2105   2.149   1.267   1.945  0.9694  1.2648  1.8568
  702SOL    HW2 2106   2.048   1.384   1.873 -2.7703  0.2627 -0.0527
  703SOL     OW 2107   1.937   0.909   1.465 -0.1628  0.6067 -0.1890
  703SOL    HW1 2108   1.928   0.813   1.500 -0.7108 -0.3642 -0.1483
  703SOL    HW2 2109   1.997   0.969   1.523 -1.1956  2.1508  0.7406
  704SOL     OW 2110   0.289   2.014   1.745 -0.2793  0.2333  0.7176
  704SOL    HW1 2111   0.344   1.953   1.804  0.3567  1.4189 -3.5138
  704SOL    HW2 2112   0.355   2.077   1.694  0.2613 -1.2250 -1.7472
  705SOL     OW 2113   2.528   1.557   0.884  1.0432  0.1740  0.1729
  705SOL    HW1 2114   2.477   1.465   0.874  1.4034 -1.6124 -0.4486
  705SOL    HW2 2115   2.630   1.547   0.890  1.6290 -0.0444 -2.0010
  706SOL     OW 2116   0.712   1.714   1.882 -0.2318 -0.4605  0.2095
  706SOL    HW1 2117   0.717   1.611   1.890  0.4569  1.3696  1.4985
  706SOL    HW2 2118   0.752   1.764   1.959 -0.7183  1.7402  0.4436
  707SOL     OW 2119   2.307   1.169   1.909  0.3201 -0.3788 -1.1391
  707SOL    HW1 2120   2.403   1.172   1.951 -1.6942 -1.2644  1.5440
  707SOL    HW2 2121   2.283   1.076   1.875 -1.2734  1.7459 -2.9449
  708SOL     OW 2122   2.958   0.530   3.034  0.1006  0.0628  0.5182
  708SOL    HW1 2123   2.944   0.590   2.953 -0.5979 -0.1795  1.1211
  708SOL    HW2 2124   2.966   0.433   3.016 -3.6907  1.6418 -2.0862
  709SOL     OW 2125   1.848   1.872   0.315 -0.6017 -0.0311 -0.8462
  709SOL    HW1 2126   1.883   1.965   0.345 -0.6550 -1.7141 -0.8433
  709SOL    HW2 2127   1.819   1.874   0.216 -1.6729  1.2821  1.7563
  710SOL     OW 2128   1.716   1.620   2.393 -0.1679 -0.1109 -0.4984
  710SOL    HW1 2129   1.775   1.566   2.325  1.2816  1.7197 -0.9663
  710SOL    HW2 2130   1.710   1.571   2.482 -4.9034  1.3173  0.2450
  711SOL     OW 2131   2.566   2.915   1.061 -0.1111  0.3970  1.0194
  711SOL    HW1 2132   2.525   3.008   1.055 -1.0883  0.3647  1.1384
  711SOL    HW2 2133   2.669   2.911   1.062 -0.9561  2.3234 -0.3413
  712SOL     OW 2134   1.414   2.143   1.972 -0.2748  0.5746  0.1975
  712SOL    HW1 2135   1.510   2.188   1.981  1.6024  0.1452  1.0248
  712SOL    HW2 2136   1.378   2.137   1.871  1.9958 -0.6403 -3.0171
  713SOL     OW 2137   2.785   1.458   2.503  0.1573 -0.2193 -0.7354
  713SOL    HW1 2138   2.802   1.359   2.482  3.2086  0.0435 -1.2517
  713SOL    HW2 2139   2.693   1.469   2.549  0.2914  0.4752  0.7379
  714SOL     OW 2140   2.648   0.438   2.401  0.0769  0.0050 -0.0373
  714SOL    HW1 2141   2.579   0.418   2.478 -0.5077  0.1809  1.1715
  714SOL    HW2 2142   2.599   0.430   2.302  0.0351  1.6975 -2.2346
  715SOL     OW 2143   1.533   2.081   1.159 -0.2226 -0.7023 -0.0185
  715SOL    HW1 2144   1.453   2.140   1.143  0.2600  0.9342 -0.1909
  715SOL    HW2 2145   1.564   2.082   1.261  1.3468  1.7716 -1.2499
  716SOL     OW 2146   1.179   0.128   1.501 -0.4086 -0.2138  0.1492
  716SOL    HW1 2147   1.086   0.129   1.449  1.5713 -0.3076  0.6855
  716SOL    HW2 2148   1.222   0.219   1.507 -2.1578 -5.8125  0.5763
  717SOL     OW 2149   1.152   0.549   1.597  0.5983  0.0718 -0.2485
  717SOL    HW1 2150   1.217   0.551   1.675  0.4305  2.9319  1.6922
  717SOL    HW2 2151   1.187   0.550   1.499 -0.7616 -1.4537 -0.4321
  718SOL     OW 2152   0.662   0.892   0.970  0.0676 -0.2838 -0.0479
  718SOL    HW1 2153   0.673   0.890   0.868 -0.2523 -2.0596  2.7326
  718SOL    HW2 2154   0.671   0.983   1.018  1.6545  0.3259  0.8639
  719SOL     OW 2155   0.655   1.725   2.312  0.6590 -0.3057 -0.4272
  719SOL    HW1 2156   0.733   1.786   2.361  0.4767  1.0806  0.9283
  719SOL    HW2 2157   0.649   1.632   2.355  5.0007 -1.5518  3.0952
  720SOL     OW 2158   2.209   1.134   0.279 -0.4742 -0.1762 -0.6597
  720SOL    HW1 2159   2.262   1.058   0.235 -0.6736  1.6350  1.1624
  720SOL    HW2 2160   2.151   1.100   0.363  2.0363  2.0504  0.8589
  721SOL     OW 2161   2.242   3.035   2.069  0.5178 -0.3386  0.1331
  721SOL    HW1 2162   2.171   3.039   1.990 -0.6722  0.9681 -0.8445
  721SOL    HW2 2163   2.198   3.048   2.163 -3.2207  1.2463 -0.6957
  722SOL     OW 2164   2.303   1.610   0.453  0.0602 -0.5136  0.1820
  722SOL    HW1 2165   2.347   1.560   0.371 -1.5750 -3.3213 -2.7063
  722SOL    HW2 2166   2.206   1.642   0.438 -1.1136  0.9852 -0.5796
  723SOL     OW 2167   2.652   2.680   1.891 -0.3270 -0.2777 -0.2660
  723SOL    HW1 2168   2.663   2.780   1.920 -0.9849  1.5020  0.0908
  723SOL    HW2 2169   2.555   2.653   1.861 -2.0438 -2.0469 -0.4646
  724SOL     OW 2170   0.501   2.501   2.395  0.2209  0.4041  0.0572
  724SOL    HW1 2171   0.406   2.490   2.437 -0.4379 -1.9060 -1.0513
  724SOL    HW2 2172   0.584   2.484   2.461  0.8159  3.8091  3.3455
  725SOL     OW 2173   2.364   2.705   1.505 -0.0079  0.0415 -0.5147
  725SOL    HW1 2174   2.432   2.781   1.471  1.0928  1.8968 -1.2867
  725SOL    HW2 2175   2.414   2.609   1.515  3.1906 -2.7742 -3.7582
  726SOL     OW 2176   2.485   2.329   0.729  0.3082  0.5081  0.0831
  726SOL    HW1 2177   2.493   2.424   0.695  2.4495 -2.3663  0.9748
  726SOL    HW2 2178   2.462   2.264   0.647 -2.1272 -0.5297 -3.2728
  727SOL     OW 2179   0.161   3.085   0.125  0.5873 -0.6978 -0.2340
  727SOL    HW1 2180   0.233   3.080   0.052  0.4124 -1.2912  0.5196
  727SOL    HW2 2181   0.060   3.071   0.091 -0.5383  1.1670 -2.3105
  728SOL     OW 2182   2.890   0.686   0.889 -0.5634  0.2296  0.4254
  728SOL    HW1 2183   2.870   0.652   0.794  1.9920 -0.8341  0.7512
  728SOL    HW2 2184   2.822   0.661   0.966 -1.6670 -0.1902  1.1109
  729SOL     OW 2185   0.027   2.549   0.719 -0.1056  0.1351 -0.2221
  729SOL    HW1 2186   0.028   2.468   0.778 -0.7186 -1.8264  0.5987
  729SOL    HW2 2187   0.120   2.566   0.675 -0.8488  0.0880 -2.1875
  730SOL     OW 2188   2.547   0.670   0.822  0.6037  0.6970  0.2227
  730SOL    HW1 2189   2.551   0.768   0.858 -0.5054  1.9579 -0.9798
  730SOL    HW2 2190   2.618   0.660   0.751 -1.5996  0.1000  0.0324
  731SOL     OW 2191   0.023   2.184   2.431  0.0655  0.2538  0.2931
  731SOL    HW1 2192   0.044   2.223   2.525  0.3308 -1.9951  1.1493
  731SOL    HW2 2193  -0.071   2.201   2.396  0.7846 -0.2957 -1.5411
  732SOL     OW 2194   1.191   2.818   1.988 -0.3860  0.5403 -0.1215
  732SOL    HW1 2195   1.228   2.775   2.077  0.8788  0.7386  1.8950
  732SOL    HW2 2196   1.210   2.752   1.908  0.1314 -0.3435 -1.0167
  733SOL     OW 2197   3.059   0.632   2.223 -0.4981  0.4354  0.1158
  733SOL    HW1 2198   3.143   0.644   2.162 -1.4324 -1.0155  2.0492
  733SOL    HW2 2199   2.987   0.570   2.179 -3.0600 -1.3415 -0.1998
  734SOL     OW 2200   1.423   0.359   2.679 -0.1970  0.5264  0.0850
  734SOL    HW1 2201   1.408   0.457   2.707  0.7042 -0.0733 -4.2685
  734SOL    HW2 2202   1.355   0.294   2.717  2.0378  1.8717  0.5341
  735SOL     OW 2203   2.896   2.614   2.279 -0.5434 -0.3423  0.3003
  735SOL    HW1 2204   2.904   2.568   2.193 -0.7675 -0.0991  1.5173
  735SOL    HW2 2205   2.977   2.673   2.298  0.6376  0.3705 -2.4009
  736SOL     OW 2206   0.932   0.456   2.539  0.3368 -0.1580  0.2476
  736SOL    HW1 2207   0.881   0.513   2.467 -0.4752 -2.9160  1.0026
  736SOL    HW2 2208   0.941   0.357   2.512 -2.0403  2.5537  0.5971
  737SOL     OW 2209   2.621   0.494   2.824  0.0371 -0.5583  0.1315
  737SOL    HW1 2210   2.609   0.468   2.927 -0.5653 -0.8301 -0.6914
  737SOL    HW2 2211   2.714   0.472   2.791  0.9772  0.6381  3.6165
  738SOL     OW 2212   1.729   1.258   2.901 -0.4450 -0.1661  0.3781
  738SOL    HW1 2213   1.831   1.275   2.872  0.0735  0.0809 -0.9089
  738SOL    HW2 2214   1.670   1.211   2.828 -0.5060  1.7649 -0.6805
  739SOL     OW 2215   1.758   0.701   0.680 -0.0913 -0.1952  0.1297
  739SOL    HW1 2216   1.828   0.723   0.751 -3.6090 -1.6181  1.1255
  739SOL    HW2 2217   1.769   0.607   0.643  0.6824 -0.5593  0.9663
  740SOL     OW 2218   1.931   1.925   2.384  0.4156 -0.9881 -0.3430
  740SOL    HW1 2219   1.971   1.843   2.423 -0.9109  1.9613  1.4972
  740SOL    HW2 2220   1.863   1.898   2.307  2.6758  1.1939  1.3023
  741SOL     OW 2221   2.581   0.109   2.520 -0.4061  0.4889  0.4321
  741SOL    HW1 2222   2.681   0.140   2.532  0.1034 -0.0953  0.0416
  741SOL    HW2 2223   2.540   0.125   2.430  0.1357 -2.4043  2.3150
  742SOL     OW 2224   2.191   1.369   0.154  1.1594  0.1107  0.2287
  742SOL    HW1 2225   2.100   1.403   0.134  1.0102 -0.9833  1.6131
  742SOL    HW2 2226   2.187   1.300   0.227  0.2728  0.9016  2.1912
  743SOL     OW 2227   1.751   0.625   2.630 -0.2516 -0.0247 -0.1646
  743SOL    HW1 2228   1.726   0.552   2.553  1.4161 -1.4236  4.1226
  743SOL    HW2 2229   1.695   0.710   2.623 -0.5342 -0.3783  1.6029
  744SOL     OW 2230   2.709   2.012   0.057  0.0347 -0.0548  0.3698
  744SOL    HW1 2231   2.652   2.057   0.129  0.8467 -1.1136 -4.1942
  744SOL    HW2 2232   2.663   1.924   0.029 -0.9571  0.4259  2.0702
  745SOL     OW 2233   2.159   2.646   2.148  0.2167  0.0625 -0.2266
  745SOL    HW1 2234   2.059   2.638   2.171  0.4523  2.2031 -2.2794
  745SOL    HW2 2235   2.212   2.711   2.207  3.8287 -2.1709 -3.3402
  746SOL     OW 2236   0.014   2.647   1.729  0.0435 -0.1642  0.1081
  746SOL    HW1 2237   0.078   2.571   1.691  1.3611  1.8077 -0.8336
  746SOL    HW2 2238   0.038   2.695   1.819 -0.9974 -1.4711 -1.8852
  747SOL     OW 2239   3.088   1.744   1.656 -0.0690 -0.1472  0.6565
  747SOL    HW1 2240   3.045   1.645   1.642 -1.7261 -0.3652 -0.7595
  747SOL    HW2 2241   3.149   1.778   1.580  0.4978 -0.8908 -1.9493
  748SOL     OW 2242   1.814   2.711   2.905 -0.3392 -0.2068  0.3965
  748SOL    HW1 2243   1.840   2.791   2.967 -0.4329  0.4505 -3.3027
  748SOL    HW2 2244   1.720   2.726   2.858 -0.9396  0.9442 -1.9202
  749SOL     OW 2245   1.338   3.043   0.850 -0.9288 -0.5255  0.0822
  749SOL    HW1 2246   1.231   3.016   0.841 -0.3987 -0.8639 -0.3296
  749SOL    HW2 2247   1.400   2.996   0.785  2.0797  1.3100  0.0952
  750SOL     OW 2248   2.298   0.195   1.865  0.1746  0.1205 -0.0647
  750SOL    HW1 2249   2.335   0.243   1.781 -1.0923 -0.4371 -0.2901
  750SOL    HW2 2250   2.289   0.256   1.944 -0.4926  0.7026 -0.4200
  751SOL     OW 2251   0.771   2.054   2.835  0.0891 -0.6014 -0.1980
  751SOL    HW1 2252   0.858   2.062   2.894  0.6364 -1.6336 -1.7061
  751SOL    HW2 2253   0.679   2.071   2.887 -0.7072  0.0121  0.9306
  752SOL     OW 2254   1.322   0.842   1.274 -0.0343  0.5625 -0.0978
  752SOL    HW1 2255   1.399   0.908   1.254  1.9842 -0.6998  1.5497
  752SOL    HW2 2256   1.355   0.765   1.338 -1.6057 -1.1659  0.5914
  753SOL     OW 2257   0.947   2.614   1.825 -0.3334  1.3658 -0.3280
  753SOL    HW1 2258   1.042   2.652   1.812 -0.3631  2.1286 -0.9576
  753SOL    HW2 2259   0.876   2.693   1.835 -1.3641 -0.2319 -0.0381
  754SOL     OW 2260   1.142   1.210   3.039 -0.3203 -0.6906 -0.1747
  754SOL    HW1 2261   1.196   1.137   2.989 -4.6846  1.4574 -1.2734
  754SOL    HW2 2262   1.194   1.294   3.066  0.5789 -2.6359 -1.4549
  755SOL     OW 2263   1.990   0.488   2.247  0.3525  0.3450  0.2909
  755SOL    HW1 2264   2.049   0.407   2.259 -1.1173  2.3837 -1.4419
  755SOL    HW2 2265   1.890   0.482   2.284  1.0150  0.9957  2.2239
  756SOL     OW 2266   2.585   0.998   2.968  0.1483  0.4548 -0.1720
  756SOL    HW1 2267   2.690   0.991   2.978  0.5293 -0.5272 -1.9116
  756SOL    HW2 2268   2.528   0.920   3.014 -3.0186 -1.7801 -0.3577
  757SOL     OW 2269   0.118   0.488   2.014 -1.0495 -0.1751  0.4225
  757SOL    HW1 2270   0.160   0.412   1.954  1.5852  0.2778  0.6063
  757SOL    HW2 2271   0.022   0.467   2.030  3.1395 -0.5644 -3.8113
  758SOL     OW 2272   2.207   0.085   1.506  0.7684  0.1205 -0.5809
  758SOL    HW1 2273   2.202  -0.019   1.493 -0.9891  1.0459 -1.6038
  758SOL    HW2 2274   2.252   0.129   1.427 -0.1343 -0.0392 -0.3187
  759SOL     OW 2275   1.674   0.129   0.075  0.1899  0.3965  0.1466
  759SOL    HW1 2276   1.637   0.087  -0.014 -0.4898  0.8826  1.6218
  759SOL    HW2 2277   1.779   0.110   0.080  1.8188 -0.4254  1.7169
  760SOL     OW 2278   2.555   2.055   2.830  0.7350 -0.0773  0.2218
  760SOL    HW1 2279   2.640   2.006   2.865  1.5278 -2.5661  0.0793
  760SOL    HW2 2280   2.537   2.145   2.880  0.9261 -0.2625 -0.6071
  761SOL     OW 2281   1.887   1.788   1.739 -0.9250 -0.2713 -0.2011
  761SOL    HW1 2282   1.924   1.694   1.766  0.6094 -1.7318 -0.3134
  761SOL    HW2 2283   1.858   1.796   1.636 -0.1919  1.4974 -2.5772
  762SOL     OW 2284   0.482   2.367   0.955  0.0745  0.2406  0.1107
  762SOL    HW1 2285   0.542   2.361   0.872  0.5373 -1.7328  0.5606
  762SOL    HW2 2286   0.529   2.414   1.035 -0.3667 -1.4188 -2.0340
  763SOL     OW 2287   2.107   1.567   3.009 -0.1690 -0.1257 -0.1283
  763SOL    HW1 2288   2.181   1.498   3.003  1.6667  2.7013  0.7222
  763SOL    HW2 2289   2.027   1.520   3.059 -0.6185  0.7885  5.6884
  764SOL     OW 2290   0.678   0.560   0.737 -0.0408  0.8691 -0.2190
  764SOL    HW1 2291   0.585   0.515   0.757  0.6670  0.0498  2.3827
  764SOL    HW2 2292   0.749   0.539   0.811  2.9922 -0.1156  1.2069
  765SOL     OW 2293   0.774   0.249   0.790  0.4098  0.4459 -0.0130
  765SOL    HW1 2294   0.816   0.301   0.705  0.3475 -1.2664  1.7638
  765SOL    HW2 2295   0.791   0.292   0.876 -2.2641 -1.4887  0.8919
  766SOL     OW 2296   2.867   2.160   2.988 -0.7120 -0.0045 -0.3748
  766SOL    HW1 2297   2.775   2.145   3.030  0.5240 -1.5399 -0.5292
  766SOL    HW2 2298   2.927   2.209   3.059  1.2658 -0.1548  2.1189
  767SOL     OW 2299   2.785   1.676   0.573 -0.1306 -0.0125 -0.2979
  767SOL    HW1 2300   2.694   1.692   0.619 -3.0434 -1.8786  0.1523
  767SOL    HW2 2301   2.867   1.733   0.611  1.3109 -0.8012  1.7675
  768SOL     OW 2302   1.034   0.121   0.234 -0.1177 -1.2423  0.0158
  768SOL    HW1 2303   0.989   0.110   0.328 -0.3439  2.4754 -1.3378
  768SOL    HW2 2304   1.140   0.120   0.248  1.9151  1.7741 -0.9744
  769SOL     OW 2305   1.102   1.892   2.338 -0.3039 -0.0558  0.3511
  769SOL    HW1 2306   1.000   1.905   2.344 -2.4422 -1.5008 -2.2501
  769SOL    HW2 2307   1.148   1.872   2.429 -1.1624  0.8772 -0.9565
  770SOL     OW 2308   0.174   1.140   2.305 -0.0603  0.2945 -0.3977
  770SOL    HW1 2309   0.168   1.185   2.397  1.6388 -0.6210  0.1417
  770SOL    HW2 2310   0.095   1.162   2.243  1.3679  0.2825  0.7256
  771SOL     OW 2311   3.070   2.845   1.938  0.0678  0.2563  0.0555
  771SOL    HW1 2312   3.020   2.864   1.851  3.2050  1.4659 -3.8772
  771SOL    HW2 2313   3.028   2.885   2.024 -2.4100 -1.0726  0.2203
  772SOL     OW 2314   2.255   0.187   2.858 -0.9468 -0.4495 -0.0565
  772SOL    HW1 2315   2.322   0.125   2.813  0.2290  2.0656 -0.5978
  772SOL    HW2 2316   2.296   0.220   2.949 -1.1614  0.2250  1.4951
  773SOL     OW 2317   0.642   2.126   2.378  0.0178 -0.1686  0.3992
  773SOL    HW1 2318   0.611   2.198   2.314  0.0470 -4.0905 -2.5388
  773SOL    HW2 2319   0.573   2.110   2.450  4.4348 -0.0616  0.0901
  774SOL     OW 2320   2.107   3.065   2.580 -0.3751 -0.3612  0.3810
  774SOL    HW1 2321   2.109   3.158   2.620 -1.4226 -2.0791 -0.7924
  774SOL    HW2 2322   2.137   2.987   2.648 -1.5219  1.0912  0.8516
  775SOL     OW 2323   2.561   2.984   2.237  0.1282  0.1665  0.6506
  775SOL    HW1 2324   2.524   3.079   2.225  0.1189 -2.6035  1.5334
  775SOL    HW2 2325   2.640   2.981   2.301 -0.2512 -1.7235  1.6426
  776SOL     OW 2326   0.013   1.236   0.192  0.6576 -0.3976  0.0330
  776SOL    HW1 2327  -0.044   1.203   0.112 -1.9823 -0.7714 -0.4448
  776SOL    HW2 2328  -0.039   1.259   0.282  1.9842  1.7025  0.0960
  777SOL     OW 2329   0.413   2.906   0.377 -0.4791 -0.4734 -0.6034
  777SOL    HW1 2330   0.309   2.890   0.362 -1.8385 -1.0555  1.5913
  777SOL    HW2 2331   0.467   2.890   0.288  1.1620 -1.7988 -0.7013
  778SOL     OW 2332   1.332   1.982   0.172  0.3486  0.2525 -0.8351
  778SOL    HW1 2333   1.269   2.014   0.244  2.5741 -0.0929 -2.0042
  778SOL    HW2 2334   1.381   2.063   0.123 -0.0782  0.0235  1.5857
  779SOL     OW 2335   0.185   0.904   0.473 -0.2800 -0.1100  0.2459
  779SOL    HW1 2336   0.141   0.820   0.438  0.2476  2.3054  1.7958
  779SOL    HW2 2337   0.117   0.954   0.540  0.2966  3.1545  2.4441
  780SOL     OW 2338   0.134   0.316   2.420 -0.7997 -0.3206  0.1493
  780SOL    HW1 2339   0.121   0.419   2.443 -0.3173  1.0909  0.6125
  780SOL    HW2 2340   0.230   0.292   2.388 -3.1715 -1.0056 -0.0192
  781SOL     OW 2341   0.669   1.655   1.519 -0.2958  0.1517  0.4156
  781SOL    HW1 2342   0.740   1.607   1.576 -0.2263 -1.8151 -0.1468
  781SOL    HW2 2343   0.572   1.614   1.529 -0.0660 -1.3245 -1.8946
  782SOL     OW 2344   2.609   0.149   0.921  0.0433 -0.1065 -0.5479
  782SOL    HW1 2345   2.549   0.173   0.840  0.4546 -0.4580 -0.8872
  782SOL    HW2 2346   2.594   0.222   0.999  1.8004 -0.7616  2.2916
  783SOL     OW 2347   2.773   0.677   2.439  0.6472 -0.4388  0.2621
  783SOL    HW1 2348   2.787   0.706   2.534 -1.4079  0.4060 -2.4599
  783SOL    HW2 2349   2.721   0.592   2.430  2.6866  3.8037 -0.0543
  784SOL     OW 2350   1.467   2.172   0.046  0.5290 -0.4182 -0.2534
  784SOL    HW1 2351   1.511   2.251   0.089 -0.1755 -1.1099 -2.8637
  784SOL    HW2 2352   1.398   2.199  -0.031 -2.2361 -2.3380 -1.9755
  785SOL     OW 2353   2.067   0.309   0.036 -0.0138  0.6744  0.6226
  785SOL    HW1 2354   2.002   0.340   0.108 -1.1196 -0.4755  0.3606
  785SOL    HW2 2355   2.089   0.387  -0.025  0.7479 -1.9816  3.3751
  786SOL     OW 2356   2.059   2.189   2.247  0.7429 -0.0842  0.5291
  786SOL    HW1 2357   2.011   2.095   2.249 -0.2289  0.6633  0.1668
  786SOL    HW2 2358   2.154   2.172   2.230 -2.1190 -2.1968 -0.3746
  787SOL     OW 2359   1.337   0.509   0.919  0.0848 -0.3553 -0.2062
  787SOL    HW1 2360   1.289   0.598   0.953  2.2850  2.6868  3.1534
  787SOL    HW2 2361   1.418   0.529   0.866 -1.1747 -1.5404  0.6610
  788SOL     OW 2362   1.248   0.393   0.086  1.1263 -0.5098  0.0225
  788SOL    HW1 2363   1.168   0.381   0.024  1.9106 -4.3545 -0.2280
  788SOL    HW2 2364   1.241   0.490   0.117  0.2928 -0.1106 -0.9089
  789SOL     OW 2365   2.559   0.086   1.925  0.2284 -0.4480  0.8643
  789SOL    HW1 2366   2.469   0.108   1.891  0.6258 -3.3515 -0.6418
  789SOL    HW2 2367   2.587  -0.014   1.915 -1.8891  2.1001  0.0688
  790SOL     OW 2368   2.614   2.795   0.780  0.1209  0.3858  0.1056
  790SOL    HW1 2369   2.665   2.841   0.697 -2.3336  0.8782 -0.1934
  790SOL    HW2 2370   2.599   2.863   0.860 -2.2753  0.1024  2.6919
  791SOL     OW 2371   1.909   1.215   0.249 -0.5421 -0.3834 -0.8098
  791SOL    HW1 2372   1.816   1.166   0.262 -2.8835 -2.1585  0.2683
  791SOL    HW2 2373   1.987   1.141   0.243  1.9319  0.1648 -0.8678
  792SOL     OW 2374   0.421   1.762   2.143  0.3643  0.3385  0.0306
  792SOL    HW1 2375   0.502   1.762   2.208  0.7645 -0.3595 -2.7017
  792SOL    HW2 2376   0.341   1.814   2.183  1.0223 -0.6481  0.7611
  793SOL     OW 2377   2.125   1.570   2.128 -0.6223 -0.2666  0.5790
  793SOL    HW1 2378   2.201   1.619   2.076 -0.4355  0.2134 -0.0468
  793SOL    HW2 2379   2.107   1.477   2.086 -0.2238  0.5644  0.5428
  794SOL     OW 2380   0.554   1.412   2.344 -0.4408 -0.6189 -0.1876
  794SOL    HW1 2381   0.529   1.371   2.254 -1.0722  0.6853  1.2050
  794SOL    HW2 2382   0.483   1.479   2.373  1.9155 -0.9387  0.7804
  795SOL     OW 2383   2.518   2.268   1.826 -0.3822  0.0927  0.4432
  795SOL    HW1 2384   2.516   2.238   1.923  1.9097 -0.6498 -1.3632
  795SOL    HW2 2385   2.444   2.225   1.768  1.5972  0.8967  0.5590
  796SOL     OW 2386   3.095   1.114   2.683 -0.3327  0.3075  0.0179
  796SOL    HW1 2387   2.996   1.147   2.683  0.0034  0.8665 -3.5359
  796SOL    HW2 2388   3.144   1.138   2.771  3.1410  1.5645 -1.4243
  797SOL     OW 2389   0.752   0.676   1.401 -0.3531  0.0894  0.4171
  797SOL    HW1 2390   0.823   0.725   1.459  0.3377  1.0764 -1.2049
  797SOL    HW2 2391   0.669   0.731   1.374  0.1544 -0.2161  1.1326
  798SOL     OW 2392   1.294   0.343   1.125 -0.5721 -0.4567  0.0776
  798SOL    HW1 2393   1.366   0.322   1.187 -1.9721  0.2355  0.6370
  798SOL    HW2 2394   1.318   0.404   1.044 -0.4579  0.0001  0.6114
  799SOL     OW 2395   1.968   2.713   1.049  0.0465  0.0303  0.3712
  799SOL    HW1 2396   1.898   2.686   1.121  3.8165 -1.4030  0.9131
  799SOL    HW2 2397   1.956   2.677   0.949 -0.5060  1.9323  1.5205
  800SOL     OW 2398   3.046   0.612   1.826  0.1619  0.5693  0.3233
  800SOL    HW1 2399   2.955   0.647   1.853  1.8688 -0.8854  1.1271
  800SOL    HW2 2400   3.103   0.607   1.910 -1.0641  0.6265 -1.0310
  801SOL     OW 2401   1.977   2.256   0.075 -0.0395 -0.2092 -0.2124
  801SOL    HW1 2402   1.895   2.201   0.041 -0.5516  1.0771 -1.5723
  801SOL    HW2 2403   2.072   2.217   0.054  1.7486 -0.5766  0.4595
  802SOL     OW 2404   0.725   0.832   2.566  0.4814 -0.0779 -0.3633
  802SOL    HW1 2405   0.776   0.789   2.487 -2.0432  2.1605  0.5432
  802SOL    HW2 2406   0.624   0.818   2.553 -2.5744  2.0704 -0.1112
  803SOL     OW 2407   0.954   0.075   0.881  0.2321  0.3716 -0.1290
  803SOL    HW1 2408   1.042   0.121   0.893 -1.3296  2.2874  0.5224
  803SOL    HW2 2409   0.881   0.129   0.833  1.4706 -0.3026  0.2949
  804SOL     OW 2410   0.280   0.030   2.145  0.0718 -0.2159  0.4531
  804SOL    HW1 2411   0.279   0.134   2.160  1.5095  2.2499 -3.7610
  804SOL    HW2 2412   0.214  -0.003   2.068  0.9795 -0.2631 -4.1535
  805SOL     OW 2413   2.422   0.265   0.356 -0.5490  0.3587  0.5902
  805SOL    HW1 2414   2.526   0.264   0.376 -0.1487  1.6350  1.6023
  805SOL    HW2 2415   2.402   0.287   0.253  2.3735 -1.3867  1.2377
  806SOL     OW 2416   0.636   2.433   1.664  0.3935  0.0904  0.4712
  806SOL    HW1 2417   0.628   2.538   1.661 -0.4418  1.0327  1.2231
  806SOL    HW2 2418   0.734   2.408   1.693 -0.2296 -0.8676  0.6897
  807SOL     OW 2419   2.436   0.916   0.425  0.8658 -0.3555 -0.2232
  807SOL    HW1 2420   2.506   0.848   0.470  0.0869  0.4088  1.6034
  807SOL    HW2 2421   2.461   0.957   0.334  2.0978 -2.0554 -0.3301
  808SOL     OW 2422   0.536   2.039   2.995  0.3890  0.2139  0.7280
  808SOL    HW1 2423   0.536   2.061   3.097 -1.2772 -2.1263  2.3790
  808SOL    HW2 2424   0.538   1.941   2.972 -0.1411  2.1477 -2.6578
  809SOL     OW 2425   2.684   1.951   1.933  0.1465 -0.3322  0.7424
  809SOL    HW1 2426   2.776   1.979   1.971  2.9130 -0.2554  0.7224
  809SOL    HW2 2427   2.649   2.001   1.849  1.3108 -1.1366 -0.7267
  810SOL     OW 2428   2.110   1.049   0.513  0.0846 -0.2051  0.0741
  810SOL    HW1 2429   2.191   1.014   0.569 -1.2099  0.0072 -0.7753
  810SOL    HW2 2430   2.055   1.118   0.565  0.4314 -1.5564 -3.5088
  811SOL     OW 2431   1.366   2.491   1.289 -0.4206 -0.5557  0.0795
  811SOL    HW1 2432   1.326   2.395   1.298 -0.2032  1.5726  0.6212
  811SOL    HW2 2433   1.297   2.554   1.240 -0.2584 -0.6420 -2.5492
  812SOL     OW 2434   1.467   0.847   1.951 -0.0232 -0.1103 -0.3588
  812SOL    HW1 2435   1.531   0.895   2.019 -0.9470  0.2079  2.3624
  812SOL    HW2 2436   1.384   0.909   1.944  0.0180  4.8006  1.1365
  813SOL     OW 2437   1.738   2.134   2.469  0.0810 -0.3125  0.2075
  813SOL    HW1 2438   1.789   2.055   2.518  1.2807 -3.5170 -4.1534
  813SOL    HW2 2439   1.715   2.114   2.370  0.9060 -0.9267  2.4362
  814SOL     OW 2440   2.867   1.550   2.837  0.3352  0.5805 -0.2299
  814SOL    HW1 2441   2.956   1.538   2.886 -1.7588  2.9856 -0.7573
  814SOL    HW2 2442   2.873   1.618   2.762 -0.3443 -0.5376  1.4937
  815SOL     OW 2443   2.185   2.865   2.760 -0.3144  0.8198  0.1880
  815SOL    HW1 2444   2.156   2.786   2.815  1.2052  6.5903  0.2743
  815SOL    HW2 2445   2.287   2.876   2.752 -0.7945 -1.3391  1.6844
  816SOL     OW 2446   1.641   0.322   1.644  0.2378  0.3046  0.7285
  816SOL    HW1 2447   1.666   0.221   1.651 -1.9305  1.5768 -0.0138
  816SOL    HW2 2448   1.552   0.348   1.702 -3.2697  0.3651  0.5160
  817SOL     OW 2449   0.411   1.227   2.533  0.1551  0.0383 -0.0047
  817SOL    HW1 2450   0.313   1.253   2.536  0.1163 -0.2516  1.1445
  817SOL    HW2 2451   0.469   1.261   2.453 -0.1036  1.4600  1.7715
  818SOL     OW 2452   1.974   0.786   0.464  0.6117 -0.1799 -0.1318
  818SOL    HW1 2453   2.005   0.882   0.482  0.1538 -2.1455 -1.9078
  818SOL    HW2 2454   1.899   0.751   0.530 -0.1592  2.6850  0.6620
  819SOL     OW 2455   2.789   2.914   3.031 -0.2506  0.0007  0.1231
  819SOL    HW1 2456   2.872   2.862   2.990 -1.8815 -0.2128  0.5343
  819SOL    HW2 2457   2.705   2.902   2.970 -0.0941 -0.0674  0.6811
  820SOL     OW 2458   1.257   1.121   0.641  0.5616  0.0243  0.4405
  820SOL    HW1 2459   1.239   1.210   0.687  1.4909 -4.1714  0.1106
  820SOL    HW2 2460   1.256   1.043   0.713 -1.1907  0.4583  3.0312
  821SOL     OW 2461  -0.002   1.292   0.675 -0.2183  0.3404  0.4522
  821SOL    HW1 2462  -0.027   1.278   0.773 -0.8922 -0.1606 -3.1370
  821SOL    HW2 2463   0.064   1.368   0.651 -1.3686  1.5381 -1.1131
  822SOL     OW 2464   2.549   1.738   2.435 -0.3419  0.4017 -0.0205
  822SOL    HW1 2465   2.555   1.807   2.513 -1.4037 -0.4271  1.1035
  822SOL    HW2 2466   2.463   1.752   2.380  2.2062 -3.8084  1.2796
  823SOL     OW 2467   2.066   0.777   1.214  0.8759 -0.2337 -0.2428
  823SOL    HW1 2468   1.999   0.837   1.263 -0.0459 -2.0125  0.4019
  823SOL    HW2 2469   2.034   0.761   1.116  0.7460  0.8317  1.6525
  824SOL     OW 2470   0.134   2.058   2.791  0.3628 -0.0337 -0.1064
  824SOL    HW1 2471   0.116   1.980   2.860 -1.2610  0.6917  0.4833
  824SOL    HW2 2472   0.199   2.029   2.717 -1.2217  4.8079  1.6755
  825SOL     OW 2473   1.256   1.098   0.306 -0.6749  0.2672  0.4121
  825SOL    HW1 2474   1.290   1.193   0.283 -1.0766 -2.7044  0.2009
  825SOL    HW2 2475   1.158   1.103   0.334  2.9725  0.4779  5.6470
  826SOL     OW 2476   1.929   0.661   1.609 -0.1174  0.3836  0.1964
  826SOL    HW1 2477   2.014   0.603   1.633  1.3867  0.4350  1.1471
  826SOL    HW2 2478   1.859   0.609   1.547 -1.9957  0.3703 -1.6452
  827SOL     OW 2479   0.704   1.371   0.274 -0.0341 -0.1005  0.4820
  827SOL    HW1 2480   0.766   1.304   0.222 -0.5587 -0.7441 -0.0386
  827SOL    HW2 2481   0.683   1.323   0.362  2.2103 -1.3718 -2.2965
  828SOL     OW 2482   2.518   0.101   1.596  0.3465 -0.1581 -0.4595
  828SOL    HW1 2483   2.456   0.132   1.517 -1.4873 -1.2404 -0.3309
  828SOL    HW2 2484   2.495   0.006   1.645  0.1574 -1.6539  1.7428
  829SOL     OW 2485   2.827   2.453   2.966 -0.1846 -0.0906  0.5624
  829SOL    HW1 2486   2.805   2.352   2.951  0.8602 -0.0338  0.0109
  829SOL    HW2 2487   2.777   2.497   3.048 -0.1293 -2.2608  1.3881
  830SOL     OW 2488   2.851   0.937   3.000  0.8609  0.8744 -0.4847
  830SOL    HW1 2489   2.894   1.033   3.013 -0.5424  0.4998  2.4426
  830SOL    HW2 2490   2.866   0.878   3.087 -0.4975  0.5175  0.3454
  831SOL     OW 2491   0.089   0.665   0.379  0.8896 -0.4560  0.3373
  831SOL    HW1 2492   0.087   0.609   0.467 -0.6314  0.9905  0.7134
  831SOL    HW2 2493   0.102   0.607   0.294  2.0011  3.6966 -1.0418
  832SOL     OW 2494   1.806   0.741   3.073 -0.3483 -0.2583 -0.2731
  832SOL    HW1 2495   1.726   0.791   3.036  2.1324  0.9348  1.1126
  832SOL    HW2 2496   1.793   0.639   3.070 -0.9544  1.3421 -0.6585
  833SOL     OW 2497   2.435   2.150   0.520  0.7517  0.7846 -0.2365
  833SOL    HW1 2498   2.332   2.138   0.509 -0.0624 -0.8637  0.1474
  833SOL    HW2 2499   2.484   2.060   0.497 -1.5781 -0.4833  3.2730
  834SOL     OW 2500   0.197   0.202   0.496 -0.1483  0.6620 -0.0273
  834SOL    HW1 2501   0.231   0.105   0.519  2.6541 -4.1683  1.4192
  834SOL    HW2 2502   0.179   0.211   0.395 -0.4611  0.3602 -1.3606
  835SOL     OW 2503   2.371   1.575   1.124  0.3111  0.0117  0.1032
  835SOL    HW1 2504   2.412   1.654   1.180  0.9452  3.8746  1.3765
  835SOL    HW2 2505   2.413   1.578   1.031  0.3411 -2.6118 -0.2234
  836SOL     OW 2506   1.600   0.830   2.526  0.7288  0.0148  0.1170
  836SOL    HW1 2507   1.501   0.829   2.488 -0.6530 -1.2737 -0.7371
  836SOL    HW2 2508   1.665   0.836   2.443  0.8960 -1.2175 -0.9468
  837SOL     OW 2509   1.727   0.166   0.551 -0.3105  0.5752  0.4517
  837SOL    HW1 2510   1.651   0.223   0.594  1.3148  1.0793  1.7799
  837SOL    HW2 2511   1.695   0.069   0.524 -1.1377 -2.7138  1.3032
  838SOL     OW 2512   1.133   1.565   2.781  0.3739 -0.1993 -0.0844
  838SOL    HW1 2513   1.140   1.524   2.875 -1.2113 -1.6980 -2.1841
  838SOL    HW2 2514   1.104   1.496   2.705 -3.7090  0.9584  2.0807
  839SOL     OW 2515   1.626   0.298   0.981 -0.0680  0.1697  0.1789
  839SOL    HW1 2516   1.653   0.361   1.063  2.4910 -0.9686  1.1240
  839SOL    HW2 2517   1.602   0.198   1.004 -2.2824  1.1100 -1.1771
  840SOL     OW 2518   2.455   2.936   1.734  0.2432  0.4515  0.0462
  840SOL    HW1 2519   2.382   2.862   1.753 -1.5050 -1.5555  2.5148
  840SOL    HW2 2520   2.542   2.888   1.717 -2.0065 -2.3586  2.4724
  841SOL     OW 2521   1.557   0.830   2.991  0.1806  0.0000 -0.2712
  841SOL    HW1 2522   1.470   0.849   3.050 -5.4041 -1.8165  1.1841
  841SOL    HW2 2523   1.548   0.889   2.903  0.2674 -1.7219 -0.8566
  842SOL     OW 2524   0.854   1.545   0.900  0.4205  0.4966  0.5004
  842SOL    HW1 2525   0.815   1.625   0.953 -1.2211  1.6674 -2.6831
  842SOL    HW2 2526   0.779   1.474   0.884  1.0118  1.6112  2.1909
  843SOL     OW 2527   0.059   0.021   1.368 -0.2700  0.3108 -0.1004
  843SOL    HW1 2528   0.145   0.058   1.411 -0.0368 -2.2351  1.6581
  843SOL    HW2 2529   0.040  -0.070   1.405 -0.1974  1.7520  2.0448
  844SOL     OW 2530   0.787   2.474   0.236  0.4641 -0.1755  0.0270
  844SOL    HW1 2531   0.728   2.461   0.323  2.2422 -1.9807  0.7119
  844SOL    HW2 2532   0.761   2.551   0.167 -1.6950 -0.5979  0.9656
  845SOL     OW 2533   1.648   2.889   1.318 -0.2261  0.4635  0.3222
  845SOL    HW1 2534   1.686   2.793   1.296  0.3794  1.4314 -0.4800
  845SOL    HW2 2535   1.696   2.932   1.397 -3.4371 -0.5338  0.7493
  846SOL     OW 2536   1.568   2.919   0.755 -0.5029 -0.4956 -0.3930
  846SOL    HW1 2537   1.559   2.867   0.669  0.7106  1.3698 -0.5026
  846SOL    HW2 2538   1.667   2.924   0.783 -0.3358 -0.6557  0.8474
  847SOL     OW 2539   2.037   1.661   0.373 -0.3630 -0.3719  0.3626
  847SOL    HW1 2540   2.008   1.558   0.379 -1.1254  1.3859 -3.4224
  847SOL    HW2 2541   1.968   1.730   0.348  0.7492  2.0589 -1.2724
  848SOL     OW 2542   2.452   0.850   2.620  0.0174  0.0617 -0.6083
  848SOL    HW1 2543   2.386   0.926   2.636  2.3614  0.4789 -0.4403
  848SOL    HW2 2544   2.409   0.757   2.630  0.5423 -0.6435 -2.1819
  849SOL     OW 2545   2.563   0.861   2.373 -0.4537 -0.1186 -0.0362
  849SOL    HW1 2546   2.647   0.803   2.376  1.2829  1.9035  3.5182
  849SOL    HW2 2547   2.512   0.868   2.463  0.6485  0.0195 -1.2737
  850SOL     OW 2548   1.512   0.117   1.326 -0.0358  0.4309 -0.3020
  850SOL    HW1 2549   1.518   0.066   1.237  2.0957  2.6528 -1.4915
  850SOL    HW2 2550   1.472   0.061   1.405  0.1555  3.0938  1.3680
  851SOL     OW 2551   0.461   1.833   0.558  0.2423 -0.3712 -0.3212
  851SOL    HW1 2552   0.501   1.924   0.597 -0.8638  0.8132 -0.1993
  851SOL    HW2 2553   0.513   1.806   0.471  0.6004 -2.1950  1.6266
  852SOL     OW 2554   0.799   2.095   1.715  0.4183  0.3734 -0.3088
  852SOL    HW1 2555   0.832   2.195   1.715  1.0091  0.3046 -2.6557
  852SOL    HW2 2556   0.743   2.080   1.801 -0.1655  0.1044 -2.4641
  853SOL     OW 2557   2.513   1.499   2.575  0.2337 -0.5192 -0.0017
  853SOL    HW1 2558   2.442   1.427   2.566 -0.0626  4.9897  0.6907
  853SOL    HW2 2559   2.497   1.577   2.509 -0.1387 -3.1140 -0.6005
  854SOL     OW 2560   2.385   1.378   1.720 -0.1257  0.2815  0.5218
  854SOL    HW1 2561   2.439   1.334   1.645 -0.7961  1.0626  3.1695
  854SOL    HW2 2562   2.353   1.309   1.792 -1.1105 -0.0618  0.5852
  855SOL     OW 2563   2.047   2.455   1.078 -0.4000 -0.4800 -0.5813
  855SOL    HW1 2564   2.012   2.556   1.079 -0.6927  0.5613  0.1879
  855SOL    HW2 2565   2.142   2.449   1.124  1.3750  1.0847  1.4930
  856SOL     OW 2566   1.340   1.433   0.934 -0.3930  0.3001  0.1344
  856SOL    HW1 2567   1.394   1.516   0.975  0.2716 -0.4009  1.0756
  856SOL    HW2 2568   1.241   1.425   0.975 -1.5363 -0.0466 -0.8819
  857SOL     OW 2569   3.029   2.707   0.957  0.0234  0.0041 -0.4247
  857SOL    HW1 2570   2.980   2.612   0.956  0.3486  0.2927 -0.5892
  857SOL    HW2 2571   3.101   2.708   0.885  0.1584 -1.9031 -1.8398
  858SOL     OW 2572   2.322   2.097   1.714  0.0549  0.1466 -0.3012
  858SOL    HW1 2573   2.231   2.105   1.669  1.8668 -2.3599  2.0628
  858SOL    HW2 2574   2.379   2.012   1.692 -0.8133 -0.7454 -0.6894
  859SOL     OW 2575   2.474   0.557   1.047 -0.2994 -0.4555 -0.2010
  859SOL    HW1 2576   2.486   0.595   0.950  0.8189 -1.0289  0.0355
  859SOL    HW2 2577   2.480   0.452   1.052  0.6734 -3.2238 -1.1370
  860SOL     OW 2578   1.892   2.790   0.445  0.9429  0.3825 -0.0045
  860SOL    HW1 2579   1.884   2.760   0.341 -0.4220 -0.1002  0.8173
  860SOL    HW2 2580   1.949   2.873   0.462  0.6408 -4.6950 -2.2421
  861SOL     OW 2581   1.018   2.398   2.878 -0.1201 -0.2954  0.1747
  861SOL    HW1 2582   1.068   2.484   2.846  2.1018 -1.9697  1.2140
  861SOL    HW2 2583   0.982   2.420   2.973 -0.3244 -0.8408 -0.9596
  862SOL     OW 2584   2.871   2.554   1.612 -0.5238 -0.2478  0.6238
  862SOL    HW1 2585   2.928   2.602   1.682  0.4696  0.3242 -0.7468
  862SOL    HW2 2586   2.846   2.626   1.542 -0.1611  1.1186 -0.3848
  863SOL     OW 2587   1.835   2.714   0.187 -0.2803  0.0048 -0.4813
  863SOL    HW1 2588   1.873   2.619   0.174  0.8993 -0.5001  0.6174
  863SOL    HW2 2589   1.750   2.723   0.129  0.9645 -2.3309  0.3227
  864SOL     OW 2590   2.004   1.221   2.832  0.0224 -0.0500 -0.1268
  864SOL    HW1 2591   2.032   1.195   2.735 -0.9182  1.2380 -0.5636
  864SOL    HW2 2592   2.072   1.187   2.906 -1.9814  0.2246 -0.8700
  865SOL     OW 2593   2.191   1.889   0.708  0.4080 -0.3631 -0.1060
  865SOL    HW1 2594   2.269   1.844   0.759  0.3857 -0.1611  0.4400
  865SOL    HW2 2595   2.117   1.920   0.775 -2.0599  0.2664 -0.0622
  866SOL     OW 2596   2.844   2.920   1.013  0.1219 -0.2147  0.0731
  866SOL    HW1 2597   2.869   2.986   0.934  0.7542 -1.0756  0.7936
  866SOL    HW2 2598   2.908   2.831   1.008  0.7930 -2.8636 -1.9590
  867SOL     OW 2599   0.347   1.393   0.910  0.6530  0.3549  0.0390
  867SOL    HW1 2600   0.319   1.326   0.826  0.7181 -1.2460  1.3473
  867SOL    HW2 2601   0.351   1.489   0.876 -2.0943 -0.0986 -0.0037
  868SOL     OW 2602   0.752   1.923   2.123 -0.4743 -0.1269  0.5431
  868SOL    HW1 2603   0.697   1.864   2.184  2.3077  1.9644 -0.6130
  868SOL    HW2 2604   0.697   1.988   2.058  0.8434 -1.5159 -0.3005
  869SOL     OW 2605   2.553   1.937   1.669 -0.3445 -0.4001  0.1528
  869SOL    HW1 2606   2.632   1.990   1.628  1.3265 -2.2343  0.2996
  869SOL    HW2 2607   2.579   1.839   1.702  0.6731  0.6276 -0.8972
  870SOL     OW 2608   2.307   2.681   1.243  0.5156  0.1329 -0.4328
  870SOL    HW1 2609   2.307   2.573   1.242  0.0448 -2.8221 -1.1788
  870SOL    HW2 2610   2.345   2.716   1.335  0.4316  4.3882 -2.6406
  871SOL     OW 2611   0.027   2.288   0.569 -0.4105 -0.3020  0.3133
  871SOL    HW1 2612   0.003   2.378   0.616  0.1320  0.3270 -1.7304
  871SOL    HW2 2613  -0.040   2.265   0.491 -0.2066 -2.9823 -2.4622
  872SOL     OW 2614   2.120   0.478   1.679  0.1968  0.2355 -0.1576
  872SOL    HW1 2615   2.078   0.460   1.774  1.1154 -0.5998 -1.4188
  872SOL    HW2 2616   2.208   0.424   1.670 -1.0819 -0.8729 -1.0867
  873SOL     OW 2617   1.736   2.148   3.055  0.0045 -0.1203 -0.1690
  873SOL    HW1 2618   1.644   2.133   3.104 -0.4441 -2.0629 -1.7184
  873SOL    HW2 2619   1.722   2.110   2.960 -2.9951  0.9440  0.2530
  874SOL     OW 2620   0.690   2.410   0.759  0.1580  0.2561  0.4543
  874SOL    HW1 2621   0.675   2.512   0.788 -1.7100 -1.6563  1.9352
  874SOL    HW2 2622   0.776   2.364   0.797  2.2285 -0.2970  1.2003
  875SOL     OW 2623   2.279   1.549   1.434  0.2604  0.1308  0.2882
  875SOL    HW1 2624   2.380   1.567   1.456  0.0400 -3.1200  1.5200
  875SOL    HW2 2625   2.261   1.531   1.328  0.2154 -1.4520 -3.3686
  876SOL     OW 2626   0.055   2.298   2.683 -0.6626 -0.2166 -0.3470
  876SOL    HW1 2627   0.061   2.204   2.739  2.1689 -1.6666  0.4674
  876SOL    HW2 2628   0.067   2.374   2.749  0.1855 -0.6174  0.2153
  877SOL     OW 2629   2.951   2.707   0.569  0.4169  0.8405 -0.5096
  877SOL    HW1 2630   2.908   2.804   0.573  0.8671 -1.2956 -0.8608
  877SOL    HW2 2631   3.033   2.693   0.631  1.5029  0.8792 -1.5835
  878SOL     OW 2632   2.811   1.514   2.232 -0.3520  0.1556  0.3073
  878SOL    HW1 2633   2.791   1.607   2.194  1.3791  2.1830 -0.8569
  878SOL    HW2 2634   2.788   1.501   2.332 -2.0444  0.5156 -0.5080
  879SOL     OW 2635   2.397   0.083   1.250  0.4753  0.0510  0.2510
  879SOL    HW1 2636   2.393  -0.002   1.307 -0.2394  1.4453 -2.2625
  879SOL    HW2 2637   2.320   0.090   1.178  1.5386  0.1029 -0.5275
  880SOL     OW 2638   0.769   0.506   2.263 -0.2379 -0.4005 -0.4280
  880SOL    HW1 2639   0.702   0.479   2.336  2.7607  0.4539 -1.5372
  880SOL    HW2 2640   0.767   0.440   2.184  1.2984  0.4570  0.7245
  881SOL     OW 2641   0.864   0.098   0.465  0.8494  0.6139 -0.0236
  881SOL    HW1 2642   0.897   0.006   0.503 -1.0939 -1.4443  2.5064
  881SOL    HW2 2643   0.776   0.084   0.420  2.7832 -0.9358  0.3376
  882SOL     OW 2644   2.716   1.694   1.713 -0.1040  0.6996 -0.2931
  882SOL    HW1 2645   2.795   1.649   1.657 -0.2097 -0.6071 -3.3089
  882SOL    HW2 2646   2.730   1.694   1.813  1.3204 -0.9363 -1.2583
  883SOL     OW 2647   0.873   0.483   0.924  0.4094 -0.3225  0.0917
  883SOL    HW1 2648   0.949   0.532   0.974  0.3113 -0.4565 -0.8353
  883SOL    HW2 2649   0.793   0.455   0.989 -2.6388 -2.0901 -0.6657
  884SOL     OW 2650   1.114   1.723   1.178  0.3745 -0.7002  0.1237
  884SOL    HW1 2651   1.118   1.637   1.130 -2.2924 -0.7970  0.0382
  884SOL    HW2 2652   1.103   1.807   1.112 -0.5661  0.4292  2.0111
  885SOL     OW 2653   2.315   1.788   2.266 -0.1397 -0.1864  0.3542
  885SOL    HW1 2654   2.247   1.730   2.325  1.1491 -3.1147  0.8021
  885SOL    HW2 2655   2.305   1.892   2.255  0.8149  0.2492 -1.3237
  886SOL     OW 2656   2.609   0.358   1.812 -0.3352  0.5550  0.1778
  886SOL    HW1 2657   2.597   0.256   1.801  0.0560  1.3697 -0.4917
  886SOL    HW2 2658   2.687   0.406   1.758  2.4196  2.7531  0.0647
  887SOL     OW 2659   0.124   2.026   1.298 -0.0226 -0.7518  0.1483
  887SOL    HW1 2660   0.043   1.973   1.256 -2.6751 -2.0286  2.4245
  887SOL    HW2 2661   0.111   2.131   1.295  0.4855  0.1895 -0.9480
  888SOL     OW 2662   0.612   1.219   1.505 -0.5928  0.3145  0.2151
  888SOL    HW1 2663   0.610   1.282   1.424  1.1538 -0.8239  0.2336
  888SOL    HW2 2664   0.611   1.115   1.479  0.6525 -1.6905 -1.4527
  889SOL     OW 2665   0.828   2.498   2.207  0.1457  0.1694  0.4768
  889SOL    HW1 2666   0.751   2.426   2.195  0.7914 -2.4235  0.7390
  889SOL    HW2 2667   0.915   2.477   2.147  1.3192 -1.0539  0.7347
  890SOL     OW 2668   2.423   2.481   0.263  0.2235 -0.1809 -0.2782
  890SOL    HW1 2669   2.426   2.520   0.165 -0.6358 -2.0416 -1.4834
  890SOL    HW2 2670   2.353   2.516   0.333 -0.3753 -0.2039  0.3162
  891SOL     OW 2671   2.514   1.701   0.629 -0.1927 -0.1565 -0.2374
  891SOL    HW1 2672   2.513   1.682   0.729  2.5034 -0.6380 -1.6835
  891SOL    HW2 2673   2.433   1.667   0.573  1.1634 -1.2603 -1.2065
  892SOL     OW 2674   0.382   0.284   2.316 -0.0993 -0.6190  0.7283
  892SOL    HW1 2675   0.391   0.282   2.212  0.0882  1.9282 -2.0059
  892SOL    HW2 2676   0.463   0.330   2.362 -0.6151 -0.9025  1.6565
  893SOL     OW 2677   1.656   0.199   2.724 -0.1051 -0.0081 -0.3168
  893SOL    HW1 2678   1.713   0.279   2.756 -2.0676 -0.4627  0.2961
  893SOL    HW2 2679   1.572   0.246   2.680 -0.7347  0.6454  1.5335
  894SOL     OW 2680   2.168   2.071   0.053 -0.0199 -0.2204 -0.6485
  894SOL    HW1 2681   2.146   1.998  -0.018  1.2728 -1.7070 -2.2167
  894SOL    HW2 2682   2.167   2.032   0.147 -0.3990  0.9933  1.7069
  895SOL     OW 2683   2.801   1.452   0.887  0.0263  0.7792 -0.0006
  895SOL    HW1 2684   2.876   1.381   0.898  1.9251 -0.8044  1.7196
  895SOL    HW2 2685   2.817   1.543   0.938 -1.2333 -0.6022 -0.4716
  896SOL     OW 2686   1.830   1.838   1.204 -0.8672 -0.2412  0.0514
  896SOL    HW1 2687   1.893   1.757   1.221 -0.6216 -0.5792  0.5693
  896SOL    HW2 2688   1.747   1.814   1.146  1.3656  1.3450 -0.8749
  897SOL     OW 2689   0.269   0.579   3.046 -0.0986 -0.1245  0.0224
  897SOL    HW1 2690   0.234   0.613   2.952 -1.1620 -1.0783 -0.2084
  897SOL    HW2 2691   0.364   0.610   3.078  3.5603  0.5984 -0.2473
  898SOL     OW 2692   0.649   2.872   1.041 -0.2011  0.4390 -0.0199
  898SOL    HW1 2693   0.704   2.961   1.020 -1.1109  2.7126  0.3829
  898SOL    HW2 2694   0.701   2.805   1.107  0.0762 -1.1796  0.8133
  899SOL     OW 2695   2.787   0.843   1.359  0.1065 -0.3511 -0.1168
  899SOL    HW1 2696   2.739   0.795   1.276  2.9921  0.6324 -1.0922
  899SOL    HW2 2697   2.815   0.942   1.333  3.3096 -1.1628  0.0525
  900SOL     OW 2698   0.967   2.499   2.438 -0.8176  0.0197 -1.6860
  900SOL    HW1 2699   0.897   2.505   2.364  0.1269  0.4661 -1.0277
  900SOL    HW2 2700   0.942   2.439   2.527  2.2398  0.9691  0.8498
  901SOL     OW 2701   1.887   2.413   1.350 -0.1556 -0.4718 -0.0398
  901SOL    HW1 2702   1.880   2.363   1.258  0.0779 -0.3302  2.7906
  901SOL    HW2 2703   1.978   2.392   1.390 -1.7190 -0.1895  0.1765
  902SOL     OW 2704   2.537   1.657   1.492  0.1338 -0.1104  0.1409
  902SOL    HW1 2705   2.572   1.671   1.588 -2.8794 -0.9505  2.7857
  902SOL    HW2 2706   2.608   1.625   1.423  1.8850  0.8961  1.7473
  903SOL     OW 2707   0.303   2.492   1.963 -0.0977 -0.5509 -0.1530
  903SOL    HW1 2708   0.214   2.437   1.956 -0.2880  0.8606 -0.1767
  903SOL    HW2 2709   0.320   2.542   1.871 -2.7202 -2.1825 -0.5265
  904SOL     OW 2710   1.981   0.787   2.558 -0.3476  0.0783  0.3833
  904SOL    HW1 2711   1.902   0.719   2.580  0.8760  1.8252  1.3680
  904SOL    HW2 2712   2.003   0.779   2.457  1.4961 -2.1745  0.9353
  905SOL     OW 2713   2.923   0.103   2.480 -0.0793  0.0092  0.6898
  905SOL    HW1 2714   3.007   0.061   2.520  0.0371 -1.1833 -3.1075
  905SOL    HW2 2715   2.952   0.199   2.451  2.8404 -1.0139  0.9176
  906SOL     OW 2716   0.135   1.668   1.869 -0.6969  0.1268 -0.1068
  906SOL    HW1 2717   0.071   1.708   1.803  1.5500 -0.7315  1.2863
  906SOL    HW2 2718   0.222   1.653   1.823 -2.4153  2.1782  1.4276
  907SOL     OW 2719   0.213   2.414   0.967  0.0601  0.1641 -0.0736
  907SOL    HW1 2720   0.310   2.374   0.978  0.2418 -1.3612  3.6862
  907SOL    HW2 2721   0.215   2.511   0.930  1.0960 -0.6041 -1.6358
  908SOL     OW 2722   2.808   3.077   0.311 -0.0069 -0.7546  0.2400
  908SOL    HW1 2723   2.715   3.069   0.260  1.0132 -1.1041  3.3969
  908SOL    HW2 2724   2.869   3.001   0.277 -0.7885  1.9865 -0.3801
  909SOL     OW 2725   0.838   1.054   2.671 -0.2468 -0.0426  0.0638
  909SOL    HW1 2726   0.784   0.969   2.643  1.0089 -0.7155  0.8363
  909SOL    HW2 2727   0.917   1.074   2.608  1.2421 -1.4076 -2.4667
  910SOL     OW 2728   1.784   1.890   2.138  0.1097  0.1803  0.3754
  910SOL    HW1 2729   1.848   1.914   2.056 -0.5022 -2.5110 -1.1584
  910SOL    HW2 2730   1.711   1.963   2.152 -1.1167 -0.8486  1.0775
  911SOL     OW 2731   1.844   2.939   1.562  0.0807 -0.7444  0.2942
  911SOL    HW1 2732   1.901   2.943   1.473 -1.5317 -1.4804 -0.5444
  911SOL    HW2 2733   1.856   2.849   1.609  1.3415  0.6132  2.3873
  912SOL     OW 2734   2.859   1.016   0.723  0.0897 -0.2994  0.0944
  912SOL    HW1 2735   2.881   0.998   0.824  0.0395 -1.9522 -1.3235
  912SOL    HW2 2736   2.810   1.103   0.709  0.1297 -0.1697  0.2328
  913SOL     OW 2737   2.530   1.239   1.520 -0.5352  0.4810 -0.5206
  913SOL    HW1 2738   2.552   1.136   1.512 -0.1854 -1.5909  1.6119
  913SOL    HW2 2739   2.580   1.307   1.462 -0.8782  0.4917  0.8667
  914SOL     OW 2740   2.768   0.645   1.163  0.8959  0.0425 -0.2358
  914SOL    HW1 2741   2.777   0.566   1.226 -1.6832 -1.1900 -0.7881
  914SOL    HW2 2742   2.669   0.662   1.131 -1.3957 -1.9777  3.4394
  915SOL     OW 2743   1.226   0.733   1.012  0.1139 -0.9077 -0.1865
  915SOL    HW1 2744   1.293   0.768   1.083  1.2328 -1.0023 -2.7395
  915SOL    HW2 2745   1.129   0.733   1.032  1.3774 -2.2493 -0.8000
  916SOL     OW 2746   0.625   0.062   0.637 -0.1208 -0.6310 -0.0935
  916SOL    HW1 2747   0.705   0.097   0.694 -1.4627 -0.5662  0.9252
  916SOL    HW2 2748   0.586   0.134   0.580  3.5032  1.3649  1.5136
  917SOL     OW 2749   2.901   2.569   1.984 -0.0487 -0.4067  0.3966
  917SOL    HW1 2750   2.804   2.593   1.955 -0.4214 -1.7305 -0.0564
  917SOL    HW2 2751   2.952   2.658   2.011 -0.1638  2.4844  1.5405
  918SOL     OW 2752   1.039   2.071   3.005 -0.1469  0.7141 -0.0884
  918SOL    HW1 2753   1.022   2.162   3.057 -0.8646  0.6243 -2.7192
  918SOL    HW2 2754   1.118   2.077   2.939 -0.2020  2.9040 -0.0510
  919SOL     OW 2755   0.816   1.699   2.838 -0.0887 -0.1017  0.2108
  919SOL    HW1 2756   0.869   1.746   2.762 -0.2320 -1.9510  0.4553
  919SOL    HW2 2757   0.758   1.620   2.805 -1.4118  0.4219  3.5730
  920SOL     OW 2758   1.268   1.776   2.558  0.0256 -0.0864 -0.1890
  920SOL    HW1 2759   1.350   1.769   2.488  0.7754  0.6924 -3.1754
  920SOL    HW2 2760   1.208   1.691   2.571 -1.7522 -1.1052  1.4682
  921SOL     OW 2761   1.126   0.009   2.658 -0.1545 -0.3011 -0.2920
  921SOL    HW1 2762   1.113  -0.013   2.560  1.2607  0.6517  1.9694
  921SOL    HW2 2763   1.032   0.019   2.707 -1.6888  1.4991  0.9690
  922SOL     OW 2764   2.181   2.368   2.794  0.4275 -0.3557 -0.3748
  922SOL    HW1 2765   2.189   2.269   2.821  2.8898 -0.9893  0.0428
  922SOL    HW2 2766   2.150   2.392   2.702  1.9723  2.1052  3.5465
  923SOL     OW 2767   1.256   2.675   0.266  0.0282 -0.3111 -0.4160
  923SOL    HW1 2768   1.324   2.740   0.308 -2.8431 -2.2943  0.6857
  923SOL    HW2 2769   1.291   2.579   0.265 -1.7232  1.2760 -0.3971
  924SOL     OW 2770   2.899   1.706   0.107 -0.0224  0.1657 -0.2863
  924SOL    HW1 2771   2.837   1.684   0.030  0.1252 -0.2258 -0.1864
  924SOL    HW2 2772   2.988   1.653   0.117 -1.5875  2.5557 -0.4112
  925SOL     OW 2773   0.041   2.842   1.469  0.2105  0.1608 -0.5219
  925SOL    HW1 2774  -0.004   2.802   1.554  1.2974  0.4710  0.1459
  925SOL    HW2 2775  -0.005   2.798   1.383  0.0560  1.1246  1.3725
  926SOL     OW 2776   1.311   2.824   1.348  0.2065 -0.5432  0.5609
  926SOL    HW1 2777   1.365   2.857   1.264  2.1925 -0.2597  0.7685
  926SOL    HW2 2778   1.333   2.899   1.415 -0.9564  0.4184 -0.3390
  927SOL     OW 2779   0.353   2.648   1.758 -0.2752  0.3461  0.0900
  927SOL    HW1 2780   0.297   2.600   1.685  1.4823  1.0115  1.1273
  927SOL    HW2 2781   0.341   2.749   1.760  1.7937 -1.3963 -0.2731
  928SOL     OW 2782   1.625   2.105   2.213  0.5350  0.1627 -0.1406
  928SOL    HW1 2783   1.631   2.181   2.137 -1.7373 -0.5961  0.0110
  928SOL    HW2 2784   1.527   2.079   2.237 -1.1825 -1.0631 -1.0901
  929SOL     OW 2785   2.418   2.505   2.883 -0.0966  0.3055  0.1301
  929SOL    HW1 2786   2.335   2.442   2.866 -1.1681 -1.6879  0.9763
  929SOL    HW2 2787   2.465   2.531   2.794  2.4729  0.7274  2.0622
  930SOL     OW 2788   2.161   1.975   1.097  0.5101  0.4570  0.1218
  930SOL    HW1 2789   2.131   1.936   1.185 -0.1094 -0.0519 -2.7570
  930SOL    HW2 2790   2.233   2.047   1.113  1.3227  2.3696  2.2963
  931SOL     OW 2791   0.545   1.762   2.639  0.4592 -0.2832  0.2116
  931SOL    HW1 2792   0.531   1.800   2.731  1.4767 -1.5124 -0.1096
  931SOL    HW2 2793   0.615   1.687   2.635 -0.2490 -1.1877  2.5979
  932SOL     OW 2794   0.420   0.101   3.076  1.3990  1.0363  0.1194
  932SOL    HW1 2795   0.506   0.156   3.093 -0.5845  4.0335 -1.3378
  932SOL    HW2 2796   0.437  -0.005   3.064  0.1827 -0.2323 -0.5538
  933SOL     OW 2797   0.914   0.833   3.011  0.0400 -0.5006  0.4320
  933SOL    HW1 2798   0.876   0.809   3.104 -1.8806  0.8359 -1.4934
  933SOL    HW2 2799   0.931   0.932   2.996  1.0848  1.4967  1.3479
  934SOL     OW 2800   0.759   2.984   2.648  0.6237  0.2767 -0.2104
  934SOL    HW1 2801   0.723   2.915   2.582 -0.6971 -0.1639 -0.0957
  934SOL    HW2 2802   0.831   2.944   2.709 -1.2196  3.2210 -1.9447
  935SOL     OW 2803   0.011   0.517   0.858 -0.0245 -0.4590  0.7826
  935SOL    HW1 2804   0.038   0.483   0.758  2.0961 -2.1793 -0.3966
  935SOL    HW2 2805  -0.068   0.584   0.866  2.2723 -0.2096  1.3912
  936SOL     OW 2806   1.105   2.821   0.092  0.3415 -0.3878  0.2464
  936SOL    HW1 2807   1.151   2.878   0.022  0.3262  0.9536  1.8715
  936SOL    HW2 2808   1.176   2.761   0.143 -1.1740 -0.5291  1.9828
  937SOL     OW 2809   1.883   2.677   2.109 -0.6304  0.0945 -0.1741
  937SOL    HW1 2810   1.781   2.694   2.104 -0.3822 -0.2622  1.9097
  937SOL    HW2 2811   1.937   2.753   2.062  0.0830  0.2760 -1.1321
  938SOL     OW 2812   2.786   2.082   1.614 -0.1527 -0.2136  0.6034
  938SOL    HW1 2813   2.761   2.183   1.633  1.3846  0.7995 -1.7307
  938SOL    HW2 2814   2.873   2.053   1.669  1.3516  0.8631  1.3130
  939SOL     OW 2815   2.790   1.215   2.420  0.3707  0.5325 -0.0948
  939SOL    HW1 2816   2.880   1.197   2.373 -1.3446 -0.7144 -1.7889
  939SOL    HW2 2817   2.794   1.178   2.514  2.5278 -0.4483 -1.8685
  940SOL     OW 2818   1.081   0.445   2.771  0.2691 -0.2783  0.2949
  940SOL    HW1 2819   1.149   0.368   2.788  1.0876  1.3962  2.5912
  940SOL    HW2 2820   1.024   0.444   2.682 -2.2267  0.3151 -0.6316
  941SOL     OW 2821   0.018   2.774   2.282  0.1574 -0.1021  0.1369
  941SOL    HW1 2822   0.098   2.712   2.269  1.2361 -2.0139  0.5870
  941SOL    HW2 2823   0.053   2.862   2.329  1.4990 -0.0153 -2.3114
  942SOL     OW 2824   0.133   0.087   2.574  0.1746  0.2463  0.2325
  942SOL    HW1 2825   0.210   0.081   2.647  2.5177 -0.2285  0.7416
  942SOL    HW2 2826   0.118   0.184   2.534 -2.1267  1.0019 -0.7741
  943SOL     OW 2827   2.093   1.658   2.388  0.1338  0.1992  0.4836
  943SOL    HW1 2828   2.104   1.614   2.294  0.0923 -0.1529 -1.0332
  943SOL    HW2 2829   2.094   1.581   2.463  1.7437  1.0858  4.2340
  944SOL     OW 2830   2.192   2.374   1.466 -0.3202 -0.4597  0.3617
  944SOL    HW1 2831   2.284   2.413   1.495 -0.6869  3.0635 -0.9423
  944SOL    HW2 2832   2.150   2.300   1.525 -1.0228  0.7034 -2.9169
  945SOL     OW 2833   0.672   1.585   0.092 -0.5840  0.3197 -0.1681
  945SOL    HW1 2834   0.592   1.585   0.025  2.5994 -3.3347 -1.6754
  945SOL    HW2 2835   0.665   1.513   0.165 -1.7401  0.6238  1.5168
  946SOL     OW 2836   0.401   0.945   2.530  0.4342  0.2743 -0.0893
  946SOL    HW1 2837   0.316   0.927   2.466  0.5259  0.0256  0.6584
  946SOL    HW2 2838   0.394   1.032   2.585 -1.6202 -0.4126 -0.0419
  947SOL     OW 2839   1.497   0.506   3.071 -0.0275 -0.0298 -0.2356
  947SOL    HW1 2840   1.458   0.522   2.977 -1.4593  0.3994 -2.5595
  947SOL    HW2 2841   1.427   0.466   3.140 -3.2470  1.3253  2.0263
  948SOL     OW 2842   1.872   3.015   2.174  0.4336  0.0495  0.2054
  948SOL    HW1 2843   1.916   2.988   2.086 -1.8108 -0.2685 -2.0819
  948SOL    HW2 2844   1.850   2.929   2.232  0.0188  1.7625 -0.8096
  949SOL     OW 2845   0.637   2.491   0.476  0.2617 -0.0383 -0.6132
  949SOL    HW1 2846   0.649   2.596   0.482  1.7281  2.7688  1.3827
  949SOL    HW2 2847   0.655   2.453   0.571 -1.5329 -0.0790  0.5653
  950SOL     OW 2848   0.188   2.263   2.997 -0.0883 -0.3271 -0.3750
  950SOL    HW1 2849   0.177   2.357   2.961 -0.7091  0.6616  2.1082
  950SOL    HW2 2850   0.166   2.193   2.926  3.0874  2.3124 -1.2684
  951SOL     OW 2851   1.168   2.619   2.800  0.1060  0.3489  0.4155
  951SOL    HW1 2852   1.210   2.559   2.875  1.5309  0.5467  0.2271
  951SOL    HW2 2853   1.229   2.642   2.722 -0.9007 -0.2641 -1.2831
  952SOL     OW 2854   0.031   1.657   0.429 -0.1279 -0.0657  0.2436
  952SOL    HW1 2855   0.061   1.757   0.451  0.0950  4.9229  2.0123
  952SOL    HW2 2856   0.066   1.592   0.499  1.0866  1.9310  1.8120
  953SOL     OW 2857   2.569   1.752   0.203  0.0158  0.3456  0.4647
  953SOL    HW1 2858   2.548   1.659   0.251  1.0271 -0.2340  0.8108
  953SOL    HW2 2859   2.508   1.781   0.126 -1.1799  0.9251  0.7279
  954SOL     OW 2860   2.214   0.590   0.986  0.0990 -0.4370 -0.0937
  954SOL    HW1 2861   2.209   0.584   0.883  1.8565  0.5301  3.8251
  954SOL    HW2 2862   2.315   0.591   1.012 -1.1427 -1.9503  0.2178
  955SOL     OW 2863   0.117   2.566   1.397 -0.2088 -0.2705 -0.7257
  955SOL    HW1 2864   0.024   2.571   1.355  3.1063  0.1492 -0.6762
  955SOL    HW2 2865   0.171   2.654   1.388 -2.0240  2.8988  2.2066
  956SOL     OW 2866   2.801   2.446   2.491  0.1669 -0.3275 -0.1735
  956SOL    HW1 2867   2.822   2.353   2.455  0.9887  2.3476 -0.8174
  956SOL    HW2 2868   2.835   2.518   2.424  1.4317 -0.4409  1.5537
  957SOL     OW 2869   1.588   2.099   2.819  1.2932  0.5052  0.7078
  957SOL    HW1 2870   1.548   2.002   2.832 -0.2580 -0.1673  1.5820
  957SOL    HW2 2871   1.651   2.110   2.736  0.0650 -2.0289  0.9366
  958SOL     OW 2872   2.589   2.285   2.998 -0.1838 -0.0754  0.3704
  958SOL    HW1 2873   2.586   2.380   2.961 -0.1747 -1.4926 -1.3846
  958SOL    HW2 2874   2.530   2.278   3.086  2.1104  0.0791  0.8432
  959SOL     OW 2875   0.323   2.774   0.068  0.1670 -0.1968 -0.3471
  959SOL    HW1 2876   0.223   2.759   0.072  1.5147  0.4341 -2.8431
  959SOL    HW2 2877   0.377   2.696   0.119  0.5274 -0.1877  2.1383
  960SOL     OW 2878   2.018   0.456   1.934 -0.2595  0.3365  0.2212
  960SOL    HW1 2879   1.931   0.511   1.924  0.3612 -0.5056  0.8416
  960SOL    HW2 2880   2.052   0.461   2.033 -0.1972  0.1340  2.4915
  961SOL     OW 2881   2.562   1.910   1.064 -0.3009 -0.1453 -0.0154
  961SOL    HW1 2882   2.552   2.008   1.033  0.3796 -0.7220  0.3062
  961SOL    HW2 2883   2.502   1.889   1.147 -1.4191 -2.3955  0.9014
  962SOL     OW 2884   1.308   0.911   0.084  0.1768  0.1110  0.4630
  962SOL    HW1 2885   1.271   0.943  -0.012 -1.9468 -1.1297 -3.7461
  962SOL    HW2 2886   1.279   0.976   0.160 -0.7643  0.0969 -0.9293
  963SOL     OW 2887   2.309   2.523   1.787 -0.1061  0.1249 -0.7787
  963SOL    HW1 2888   2.239   2.457   1.825  0.4374  0.5177  0.9422
  963SOL    HW2 2889   2.337   2.595   1.851  1.7046 -1.9167  1.5239
  964SOL     OW 2890   2.367   0.380   1.675 -0.0243  0.7636 -0.2849
  964SOL    HW1 2891   2.449   0.399   1.730 -0.8191  1.1881 -2.0083
  964SOL    HW2 2892   2.371   0.419   1.579 -0.1344  0.1704  0.0282
  965SOL     OW 2893   2.614   2.984   0.123  0.4352 -0.2639 -0.6033
  965SOL    HW1 2894   2.687   2.975   0.052  0.4169  2.9118  0.3664
  965SOL    HW2 2895   2.520   3.013   0.092  0.3514 -2.4382 -0.0724
  966SOL     OW 2896   2.535   2.546   2.283  0.2833  0.4652  0.7155
  966SOL    HW1 2897   2.608   2.614   2.310 -0.1587  0.3245 -1.5862
  966SOL    HW2 2898   2.464   2.591   2.225  2.1713  1.4748  2.4355
  967SOL     OW 2899   2.777   2.801   2.463 -0.1218  0.2000 -0.0879
  967SOL    HW1 2900   2.826   2.734   2.404  1.6888  0.5673  1.6496
  967SOL    HW2 2901   2.838   2.858   2.525 -1.9293 -1.1341  1.1109
  968SOL     OW 2902   1.921   1.062   2.601  0.1002 -0.0571  0.0478
  968SOL    HW1 2903   1.837   1.118   2.572  0.8535  1.5131  0.8335
  968SOL    HW2 2904   1.926   0.974   2.551  1.0050 -2.7197 -0.7887
  969SOL     OW 2905   2.749   2.455   1.123  0.0470 -0.0908 -0.0679
  969SOL    HW1 2906   2.718   2.453   1.025  0.9912  0.1934  1.0714
  969SOL    HW2 2907   2.837   2.400   1.142  2.6400  2.3426 -0.2616
  970SOL     OW 2908   1.072   2.117   1.831 -0.7090  0.3960 -0.4850
  970SOL    HW1 2909   1.001   2.085   1.766 -0.1095 -0.1570  0.8029
  970SOL    HW2 2910   1.036   2.130   1.928 -3.0398 -1.1028 -1.2132
  971SOL     OW 2911   2.904   2.050   2.057  0.7051  0.2551  0.2136
  971SOL    HW1 2912   2.913   2.141   2.097 -0.6870 -0.9105 -2.4256
  971SOL    HW2 2913   2.952   2.043   1.969 -0.7741  0.5845  2.0424
  972SOL     OW 2914   1.981   2.479   0.218  0.3072 -0.1747 -0.0547
  972SOL    HW1 2915   1.986   2.392   0.163  0.4196 -1.2351 -2.6231
  972SOL    HW2 2916   1.995   2.473   0.322 -0.4095  0.0200  0.5709
  973SOL     OW 2917   1.243   0.996   1.882  0.2139  1.0177  0.3370
  973SOL    HW1 2918   1.198   0.909   1.853  0.9852  0.2232 -0.0968
  973SOL    HW2 2919   1.180   1.080   1.875 -0.9071  1.4976  0.9581
  974SOL     OW 2920   1.558   0.607   1.895  0.0967  0.5601 -0.2142
  974SOL    HW1 2921   1.662   0.615   1.866  0.5601 -0.3249  2.0930
  974SOL    HW2 2922   1.523   0.704   1.927 -1.1658 -1.4946  2.1969
  975SOL     OW 2923   2.364   3.054   0.033  0.4731  0.0680 -0.2787
  975SOL    HW1 2924   2.300   2.972   0.045 -0.1498 -0.4585  1.1869
  975SOL    HW2 2925   2.387   3.060  -0.067 -1.5358 -1.7203 -0.0230
  976SOL     OW 2926   1.876   2.800   2.369  0.4320 -0.2853 -0.9094
  976SOL    HW1 2927   1.804   2.724   2.353  2.3404  1.0017 -0.1312
  976SOL    HW2 2928   1.922   2.792   2.462 -4.3263  0.8955  1.9428
  977SOL     OW 2929   0.523   0.619   0.991 -0.7918  1.1244  0.3144
  977SOL    HW1 2930   0.443   0.630   0.925  2.8045  0.4035  1.9534
  977SOL    HW2 2931   0.551   0.710   1.039  0.0676 -0.5504  0.5699
   3.10000   3.10000   3.10000
