1000 SPC/Fw water molecules t=   0.33000 step= 330
 2931
    1SOL     OW    1   2.539   0.309   2.541 -0.3942  0.1524 -0.0619
    1SOL    HW1    2   2.563   0.208   2.518  0.4380 -1.7588 -0.0747
    1SOL    HW2    3   2.543   0.332   2.643  2.7625  2.2958  0.2113
    2SOL     OW    4   2.722   3.021   1.385 -0.4251 -0.1048  0.2447
    2SOL    HW1    5   2.810   3.064   1.341 -2.3485 -1.7470 -0.8952
    2SOL    HW2    6   2.670   3.099   1.435 -0.6247  1.9406  0.3605
    3SOL     OW    7   2.699   2.583   0.423  0.1691 -0.0420 -0.4564
    3SOL    HW1    8   2.664   2.484   0.414  3.0683 -1.1194  0.6140
    3SOL    HW2    9   2.767   2.583   0.504  0.2533 -0.3088  0.9028
    4SOL     OW   10   1.339   1.491   2.385  0.1281 -0.3508 -0.2760
    4SOL    HW1   11   1.244   1.530   2.382 -1.5696 -0.5147  1.2099
    4SOL    HW2   12   1.350   1.407   2.448  2.3298  0.0159  1.7335
    5SOL     OW   13   1.218   1.491   3.017 -0.2407 -0.0226 -0.0627
    5SOL    HW1   14   1.273   1.557   3.076  1.0931 -0.5263 -2.3390
    5SOL    HW2   15   1.119   1.514   3.009 -0.9983  0.9169  0.1245
    6SOL     OW   16   0.012   1.808   2.905 -0.2740 -0.4282 -0.6433
    6SOL    HW1   17   0.010   1.861   2.993 -0.7392 -2.0307 -0.9467
    6SOL    HW2   18   0.016   1.707   2.928  1.9273  2.5280  2.0413
    7SOL     OW   19   2.566   0.882   1.148 -0.6577  0.3900 -0.1710
    7SOL    HW1   20   2.466   0.857   1.157  2.9082  2.1031 -0.5235
    7SOL    HW2   21   2.595   0.887   1.047 -2.2493 -0.0603 -1.3263
    8SOL     OW   22   0.441   0.642   1.566 -0.7019 -0.7036 -0.3047
    8SOL    HW1   23   0.525   0.582   1.580  0.2039  1.4353 -1.6270
    8SOL    HW2   24   0.384   0.605   1.491  0.9559  1.9228 -0.5850
    9SOL     OW   25   1.182   0.971   2.279 -0.2434  0.0252 -0.0051
    9SOL    HW1   26   1.235   1.047   2.237 -0.9415  0.0431  0.8870
    9SOL    HW2   27   1.150   0.904   2.199 -1.8425  1.2238 -1.7435
   10SOL     OW   28   0.732   1.311   1.234  0.5012 -0.0045  0.0492
   10SOL    HW1   29   0.647   1.367   1.206  3.3454 -0.8076  0.1313
   10SOL    HW2   30   0.812   1.370   1.243 -0.3016  3.1361 -1.8113
   11SOL     OW   31   2.348   2.613   0.943 -0.0964  0.3950 -0.2463
   11SOL    HW1   32   2.317   2.620   1.044  1.0395  1.1094  3.2857
   11SOL    HW2   33   2.451   2.595   0.935 -1.3796  1.5281  2.3243
   12SOL     OW   34   1.446   0.893   0.427 -0.0445  0.4419 -0.1225
   12SOL    HW1   35   1.448   0.924   0.328  0.7080  0.4120 -0.1073
   12SOL    HW2   36   1.450   0.789   0.432 -1.3350 -0.1634  0.3681
   13SOL     OW   37   2.520   0.649   1.835 -0.1929  0.6839  0.1617
   13SOL    HW1   38   2.419   0.673   1.854 -0.4912 -0.7241  1.5576
   13SOL    HW2   39   2.526   0.554   1.791  1.3071 -0.7123  0.6580
   14SOL     OW   40   1.934   0.005   0.626 -0.1489  0.4521  0.4921
   14SOL    HW1   41   1.858   0.064   0.593  3.4216  1.3539 -0.2428
   14SOL    HW2   42   1.905  -0.064   0.700  1.0707  1.9323  0.5542
   15SOL     OW   43   1.967   2.015   2.862  0.0262 -0.2491  0.0616
   15SOL    HW1   44   1.911   2.098   2.890  2.6111 -0.7436  1.1984
   15SOL    HW2   45   1.924   1.959   2.784  0.6746  0.5958 -2.0128
   16SOL     OW   46   1.635   1.717   0.020 -0.3372  0.6168 -0.4035
   16SOL    HW1   47   1.640   1.613   0.020  0.0095  0.2079  0.9501
   16SOL    HW2   48   1.727   1.765   0.037  0.7510  2.0318 -3.5338
   17SOL     OW   49   0.129   0.433   0.162 -0.3210  0.6038 -0.0497
   17SOL    HW1   50   0.212   0.493   0.159  0.6386  0.9551  2.4423
   17SOL    HW2   51   0.071   0.438   0.077 -1.4447  0.7706  0.5882
   18SOL     OW   52   0.993   2.908   2.210 -0.3927 -0.1700 -0.2717
   18SOL    HW1   53   0.902   2.881   2.165 -2.9039 -0.8202 -1.1150
   18SOL    HW2   54   1.066   2.928   2.144 -2.5397  0.7591  2.5307
   19SOL     OW   55   0.481   0.921   1.961  0.2652 -0.6525 -0.0086
   19SOL    HW1   56   0.460   1.004   2.018 -0.1846  0.0648 -0.4543
   19SOL    HW2   57   0.577   0.884   1.968  2.8320  0.1642  0.8012
   20SOL     OW   58   0.217   2.788   0.866 -0.2344  0.5127 -1.0635
   20SOL    HW1   59   0.138   2.837   0.825  0.6527 -1.7969 -0.3797
   20SOL    HW2   60   0.277   2.751   0.790 -0.7889  0.5816 -2.3853
   21SOL     OW   61   2.765   0.188   2.139 -0.4919  0.7219 -0.0584
   21SOL    HW1   62   2.789   0.108   2.078 -0.7492 -1.0409 -0.5914
   21SOL    HW2   63   2.756   0.157   2.237  0.8798  0.7538  1.9970
   22SOL     OW   64   2.320   0.187   3.080 -0.3101  0.1707  0.4026
   22SOL    HW1   65   2.330   0.079   3.062 -0.3624 -2.4327  0.1445
   22SOL    HW2   66   2.220   0.210   3.097 -0.5527  0.2462  0.9988
   23SOL     OW   67   2.791   0.668   0.657  0.4105  0.0190  0.1410
   23SOL    HW1   68   2.792   0.582   0.595  0.8175  0.7657 -3.3639
   23SOL    HW2   69   2.744   0.744   0.608  1.7198 -1.6825 -1.4987
   24SOL     OW   70   0.186   1.902   0.449 -0.4073 -0.0779 -0.0661
   24SOL    HW1   71   0.088   1.924   0.421  2.0594 -1.6813 -2.2211
   24SOL    HW2   72   0.259   1.902   0.374 -4.1740 -1.4049 -0.7896
   25SOL     OW   73   2.254   0.480   0.185 -0.0944 -0.1500  0.1907
   25SOL    HW1   74   2.294   0.389   0.200 -1.6792  0.8490 -0.3765
   25SOL    HW2   75   2.216   0.480   0.088  0.4359 -3.4049 -2.3927
   26SOL     OW   76   2.501   2.193   2.108 -0.3670  0.0207 -0.2083
   26SOL    HW1   77   2.581   2.247   2.150  0.0884  2.1399  1.7236
   26SOL    HW2   78   2.534   2.106   2.064 -0.0409  2.3240 -0.9190
   27SOL     OW   79   0.682   2.946   0.095 -0.3583 -0.5487  0.2699
   27SOL    HW1   80   0.782   2.978   0.106  0.3677  0.9203 -0.6255
   27SOL    HW2   81   0.643   2.959   0.002  1.8949 -0.1580 -0.4621
   28SOL     OW   82   1.575   0.159   0.281  0.0226 -0.1064  0.2914
   28SOL    HW1   83   1.633   0.118   0.203  2.0185  1.1530 -0.7001
   28SOL    HW2   84   1.614   0.247   0.316 -0.9043 -3.1734  0.6787
   29SOL     OW   85   2.035   0.599   0.296  0.5850 -0.0330  1.0289
   29SOL    HW1   86   2.034   0.701   0.336 -0.0410  0.6320  0.6505
   29SOL    HW2   87   2.127   0.565   0.264  0.7705 -0.0329  0.3386
   30SOL     OW   88   0.132   2.037   0.949 -0.3424 -0.6143  0.0326
   30SOL    HW1   89   0.131   2.055   0.848 -1.4704 -1.7867 -0.9608
   30SOL    HW2   90   0.057   2.101   0.984  1.1213  1.4680 -1.7690
   31SOL     OW   91   2.117   0.015   2.289  0.1355 -0.2043  0.0932
   31SOL    HW1   92   2.133  -0.017   2.388 -0.5869 -1.1458  0.3915
   31SOL    HW2   93   2.034  -0.036   2.251  1.7652 -2.2518 -0.4174
   32SOL     OW   94   2.898   0.147   0.133 -0.3364  0.5711  0.3826
   32SOL    HW1   95   2.867   0.077   0.201 -0.4640 -0.8780 -0.3401
   32SOL    HW2   96   2.998   0.179   0.145  2.0925  0.8770 -0.7853
   33SOL     OW   97   0.963   0.317   0.464 -0.5224 -0.6515  0.2331
   33SOL    HW1   98   0.921   0.222   0.436  1.9377  0.6944  1.0417
   33SOL    HW2   99   1.040   0.318   0.537  2.5565  0.4836  1.8813
   34SOL     OW  100   0.425   2.876   1.064  0.2526 -0.4199  0.2843
   34SOL    HW1  101   0.371   2.862   0.975 -3.5495 -0.1681  2.4026
   34SOL    HW2  102   0.527   2.851   1.063  0.6061 -0.1090 -0.5267
   35SOL     OW  103   0.049   0.045   1.851  0.3597  0.3321  0.0716
   35SOL    HW1  104   0.032  -0.057   1.871  0.5474 -0.9428  1.4470
   35SOL    HW2  105   0.003   0.074   1.759 -0.8900  0.8929 -0.8515
   36SOL     OW  106   1.940   1.155   1.806 -0.1311 -0.2564 -0.2877
   36SOL    HW1  107   2.026   1.120   1.753  2.0499 -1.5969 -1.4482
   36SOL    HW2  108   1.964   1.245   1.859 -2.9247  0.7907  2.3442
   37SOL     OW  109   1.174   0.251   0.935  0.4960 -0.2874  0.0947
   37SOL    HW1  110   1.225   0.339   0.950  1.5493 -0.2998 -0.6042
   37SOL    HW2  111   1.200   0.187   1.012  1.0149  0.5161 -1.7381
   38SOL     OW  112   1.105   2.672   2.403 -0.4990  0.1137  0.3135
   38SOL    HW1  113   1.065   2.585   2.437  0.4270  2.2130  0.1188
   38SOL    HW2  114   1.036   2.752   2.421 -2.3904  0.4456  0.7488
   39SOL     OW  115   2.318   1.415   3.009 -0.6882 -0.2185  0.0109
   39SOL    HW1  116   2.406   1.366   3.022  0.9290 -2.1527 -0.6037
   39SOL    HW2  117   2.260   1.413   3.095 -0.9923 -1.0732  0.4536
   40SOL     OW  118   2.119   2.545   2.509  0.3598 -0.3511 -0.4186
   40SOL    HW1  119   2.089   2.634   2.549  2.8281  2.1161  1.5513
   40SOL    HW2  120   2.034   2.503   2.468 -1.6070 -2.0854 -1.0604
   41SOL     OW  121   2.923   0.716   2.738 -0.1836 -0.3953  0.5303
   41SOL    HW1  122   2.827   0.742   2.759  0.9950 -1.5459 -3.0541
   41SOL    HW2  123   2.934   0.617   2.752  0.5441 -0.2933 -2.9868
   42SOL     OW  124   1.788   1.740   0.611 -0.2336 -0.0370 -0.0466
   42SOL    HW1  125   1.714   1.672   0.587 -0.4070  0.7377  0.3090
   42SOL    HW2  126   1.832   1.766   0.523 -1.0989  1.0659 -2.3653
   43SOL     OW  127   0.448   1.733   1.256 -0.1786  0.8541 -0.2240
   43SOL    HW1  128   0.441   1.700   1.356 -1.3203  0.1262 -2.4454
   43SOL    HW2  129   0.356   1.746   1.206 -1.5891  4.4852  0.2169
   44SOL     OW  130   1.762   2.554   0.014  0.6071  0.5411 -0.0529
   44SOL    HW1  131   1.789   2.622  -0.059 -0.5854  1.5980  0.3362
   44SOL    HW2  132   1.811   2.570   0.099 -1.3731 -1.1427  0.4034
   45SOL     OW  133   0.305   1.944   2.574 -0.9427 -0.3925  0.2627
   45SOL    HW1  134   0.238   1.949   2.493 -0.7829 -0.5310  0.2102
   45SOL    HW2  135   0.363   1.856   2.567  0.2438  0.3593 -1.3051
   46SOL     OW  136   1.149   0.636   0.216 -0.0250  0.3363  0.6907
   46SOL    HW1  137   1.209   0.715   0.186  0.2460 -0.0424  1.4381
   46SOL    HW2  138   1.053   0.661   0.247 -1.2764 -4.2024 -1.4526
   47SOL     OW  139   0.250   2.452   1.609 -0.4784  0.7127 -0.4309
   47SOL    HW1  140   0.316   2.374   1.582  0.9495 -1.8196 -0.7461
   47SOL    HW2  141   0.205   2.496   1.528 -0.0500 -3.3015  2.8347
   48SOL     OW  142   2.566   0.582   0.168 -0.2868 -0.0444  0.3293
   48SOL    HW1  143   2.531   0.583   0.271 -0.7353  0.8446 -1.6594
   48SOL    HW2  144   2.657   0.640   0.162  4.1773 -0.6598 -1.0794
   49SOL     OW  145   0.340   0.826   1.745  0.0419 -0.2799  0.0991
   49SOL    HW1  146   0.389   0.839   1.840 -1.9052 -3.4876  2.2759
   49SOL    HW2  147   0.378   0.749   1.687 -0.9448  0.1593  0.2967
   50SOL     OW  148   1.711   1.079   0.382  0.0758 -0.2557  0.3511
   50SOL    HW1  149   1.708   0.991   0.332  1.1722 -0.0811  2.5303
   50SOL    HW2  150   1.634   1.094   0.448 -3.6680  1.0744 -0.2542
   51SOL     OW  151   3.021   1.894   0.365 -0.1627  0.0269  0.1814
   51SOL    HW1  152   3.038   1.888   0.261  0.3948 -1.3182 -0.8399
   51SOL    HW2  153   2.963   1.815   0.401 -2.2219 -0.1547 -1.7042
   52SOL     OW  154   0.763   1.994   0.532  0.5911 -0.6722  0.0209
   52SOL    HW1  155   0.666   2.036   0.553  1.4572 -2.1106  0.6468
   52SOL    HW2  156   0.783   1.907   0.587  0.7234 -1.9516  1.2368
   53SOL     OW  157   0.016   0.368   1.544  0.2805 -0.1635  0.2148
   53SOL    HW1  158  -0.054   0.327   1.609 -2.2984 -1.1350  1.1300
   53SOL    HW2  159  -0.006   0.457   1.504  1.8280 -0.5612  1.8676
   54SOL     OW  160   1.749   0.451   3.047  0.3272  0.4227  0.1093
   54SOL    HW1  161   1.799   0.437   3.144  3.2042 -1.7864  1.4380
   54SOL    HW2  162   1.646   0.452   3.060 -1.6900 -0.9439  1.2489
   55SOL     OW  163   0.707   2.958   0.603 -0.1087  0.1593 -0.5944
   55SOL    HW1  164   0.666   3.056   0.603  0.4607 -0.1791 -2.5947
   55SOL    HW2  165   0.796   2.963   0.549  1.2455  4.1135 -0.5433
   56SOL     OW  166   0.462   1.552   3.024  0.1232  0.3201 -0.5824
   56SOL    HW1  167   0.397   1.592   3.088  1.7251 -0.2880  0.3041
   56SOL    HW2  168   0.410   1.494   2.951 -2.2834  0.2174  0.6461
   57SOL     OW  169   1.792   2.406   2.670  0.0166  0.4834  0.2251
   57SOL    HW1  170   1.854   2.408   2.587 -2.5507  0.4439 -0.6952
   57SOL    HW2  171   1.703   2.451   2.643 -0.8784 -0.9217 -0.4393
   58SOL     OW  172   0.622   0.443   1.125 -0.2487 -0.2991  0.2929
   58SOL    HW1  173   0.567   0.531   1.120  1.6857 -4.7539  0.2208
   58SOL    HW2  174   0.557   0.370   1.156  3.1309 -0.4432 -1.1938
   59SOL     OW  175   0.454   2.404   2.692 -0.8506  0.1744  0.5259
   59SOL    HW1  176   0.449   2.303   2.716  1.7295 -1.0436 -0.8783
   59SOL    HW2  177   0.532   2.453   2.742  1.5053 -0.1041  2.0341
   60SOL     OW  178   2.303   2.137   2.283 -0.3170 -0.3382  0.1620
   60SOL    HW1  179   2.381   2.170   2.221 -0.5312 -1.2269 -1.5807
   60SOL    HW2  180   2.322   2.152   2.383 -1.2596 -2.4020  0.3205
   61SOL     OW  181   1.414   0.636   0.478  0.2225  0.4718  0.4597
   61SOL    HW1  182   1.311   0.631   0.499 -0.3480 -0.4991  1.2819
   61SOL    HW2  183   1.440   0.604   0.378 -1.2113 -4.5682 -0.9411
   62SOL     OW  184   2.634   1.845   3.073 -0.0681 -0.7720 -0.6032
   62SOL    HW1  185   2.653   1.750   3.116 -0.0093 -1.3450 -1.9349
   62SOL    HW2  186   2.698   1.869   2.999  0.2966 -3.7801  1.3146
   63SOL     OW  187   0.507   0.844   0.162  0.1426  0.5260 -0.1109
   63SOL    HW1  188   0.491   0.939   0.120  1.6729  0.4074  0.5259
   63SOL    HW2  189   0.600   0.847   0.207 -0.9182 -0.7829  1.4608
   64SOL     OW  190   0.103   0.465   2.508  0.0690  0.2301  0.2233
   64SOL    HW1  191   0.179   0.501   2.558 -1.5396  0.4632 -0.2924
   64SOL    HW2  192   0.048   0.544   2.474  2.5208 -2.5006 -2.1419
   65SOL     OW  193   0.211   1.471   0.654 -0.4003  0.6649 -0.3540
   65SOL    HW1  194   0.242   1.548   0.718  3.6974 -2.3085 -1.4876
   65SOL    HW2  195   0.295   1.418   0.620  0.0902 -1.0109 -1.0445
   66SOL     OW  196   2.517   0.414   0.664 -0.1846 -0.6691 -0.1396
   66SOL    HW1  197   2.463   0.481   0.725 -0.0723  2.1914  0.7461
   66SOL    HW2  198   2.475   0.323   0.658 -0.1347  2.7269  0.1661
   67SOL     OW  199   0.506   2.507   1.357 -0.2939  0.2791  0.6262
   67SOL    HW1  200   0.539   2.549   1.445 -1.0750  0.8693 -2.3396
   67SOL    HW2  201   0.500   2.402   1.354  0.4150  0.1597  0.6097
   68SOL     OW  202   1.023   1.103   2.474  1.1178  0.0968 -0.1321
   68SOL    HW1  203   1.091   1.041   2.423  0.3454 -1.4148  2.8651
   68SOL    HW2  204   0.950   1.139   2.409 -0.4618 -0.4080  1.8488
   69SOL     OW  205   0.767   2.708   2.124  0.2182  0.5442 -0.2672
   69SOL    HW1  206   0.819   2.618   2.132 -0.5678  2.4706  0.3089
   69SOL    HW2  207   0.660   2.698   2.140 -3.6216 -1.8205  0.9363
   70SOL     OW  208   0.640   0.266   2.738  0.4143 -0.2033  0.4660
   70SOL    HW1  209   0.660   0.322   2.824  2.3451  2.4367  0.3417
   70SOL    HW2  210   0.577   0.183   2.757 -1.9340  0.0891  0.8289
   71SOL     OW  211   1.122   1.792   0.342  0.4425  0.0863 -0.0219
   71SOL    HW1  212   1.085   1.698   0.350  1.8171  1.6605  2.6064
   71SOL    HW2  213   1.122   1.831   0.243  0.0044  2.0783 -0.3772
   72SOL     OW  214   1.813   0.135   2.117  0.2590  0.4724 -0.2437
   72SOL    HW1  215   1.848   0.154   2.023  0.7623 -0.0732 -0.2537
   72SOL    HW2  216   1.845   0.042   2.146  0.5480 -0.9895 -0.3050
   73SOL     OW  217   2.768   2.205   2.507 -0.7934  0.7442  0.4759
   73SOL    HW1  218   2.760   2.103   2.469 -0.8234 -1.8685 -2.9848
   73SOL    HW2  219   2.802   2.211   2.606  0.7089  1.9733 -2.1666
   74SOL     OW  220   2.745   2.974   2.041  0.0201 -0.7647 -0.2180
   74SOL    HW1  221   2.674   2.966   2.114  0.6201  1.0737 -1.9718
   74SOL    HW2  222   2.839   2.998   2.082  0.8422  0.4305 -0.5417
   75SOL     OW  223   0.906   0.744   1.025 -0.3259 -0.3184  0.1212
   75SOL    HW1  224   0.827   0.795   0.986  3.9138 -2.4440  0.7654
   75SOL    HW2  225   0.924   0.772   1.124  1.4205  1.7735  0.0108
   76SOL     OW  226   1.739   1.246   2.587  0.0388 -0.1971  0.3503
   76SOL    HW1  227   1.640   1.218   2.594  0.6926  0.0987  0.4780
   76SOL    HW2  228   1.757   1.336   2.634  1.0435  4.3274 -0.2418
   77SOL     OW  229   2.927   0.990   0.957 -0.2806  0.0001  0.0679
   77SOL    HW1  230   2.943   0.885   0.947  0.3120 -2.9593 -0.3864
   77SOL    HW2  231   2.977   1.041   1.032 -0.5550  3.4688 -0.8677
   78SOL     OW  232   1.956   1.408   1.520  0.0720  0.0797  0.3398
   78SOL    HW1  233   2.057   1.393   1.491 -0.1770 -1.2889  0.4582
   78SOL    HW2  234   1.887   1.369   1.446  1.0177  2.4756 -1.5808
   79SOL     OW  235   0.594   1.347   0.815 -0.6799  0.1941 -0.0410
   79SOL    HW1  236   0.503   1.374   0.853 -0.1197  2.3601 -2.0493
   79SOL    HW2  237   0.586   1.312   0.717  0.7766  0.3557 -2.0171
   80SOL     OW  238   0.666   0.493   1.583 -0.2223 -0.1208  0.1384
   80SOL    HW1  239   0.745   0.540   1.538 -0.4049  0.6982  0.6853
   80SOL    HW2  240   0.670   0.391   1.573  0.8402  0.8204  0.7657
   81SOL     OW  241   1.003   1.371   2.628 -0.5435 -0.1956 -0.3622
   81SOL    HW1  242   0.977   1.268   2.644 -1.2108 -2.9449  0.5093
   81SOL    HW2  243   0.969   1.411   2.538 -0.4644 -0.3177 -1.0145
   82SOL     OW  244   0.956   2.979   1.541  0.0049 -0.4281  0.3309
   82SOL    HW1  245   1.044   2.940   1.498  2.0320  1.3497 -1.9280
   82SOL    HW2  246   0.872   2.917   1.522 -1.2269 -3.9973 -0.5340
   83SOL     OW  247   2.741   2.492   0.792 -0.4551 -0.1535 -0.1145
   83SOL    HW1  248   2.664   2.427   0.772  3.8407 -1.9347  1.3603
   83SOL    HW2  249   2.723   2.596   0.770 -3.8242  0.4804 -1.9149
   84SOL     OW  250   0.703   0.011   2.417 -0.6259 -0.7196 -0.0990
   84SOL    HW1  251   0.617  -0.046   2.436 -1.6788  0.2824  0.1503
   84SOL    HW2  252   0.777  -0.043   2.373 -4.8524 -1.0544  0.0633
   85SOL     OW  253   0.414   1.688   1.505  0.9844 -0.2559  0.2606
   85SOL    HW1  254   0.344   1.765   1.489  0.6117 -1.7727  0.9512
   85SOL    HW2  255   0.407   1.653   1.606 -1.8556 -0.0699  0.8238
   86SOL     OW  256   0.358   0.989   1.484  0.0669 -0.0534  0.5301
   86SOL    HW1  257   0.347   0.925   1.403  0.9341  0.6392  0.1932
   86SOL    HW2  258   0.394   0.937   1.567  1.2554  0.4374 -0.9180
   87SOL     OW  259   1.530   0.614   0.246 -0.2974  0.5839  0.1462
   87SOL    HW1  260   1.588   0.697   0.262 -1.3977 -1.4828  0.4128
   87SOL    HW2  261   1.495   0.597   0.147 -3.0490 -0.1245  0.2627
   88SOL     OW  262   1.561   1.273   0.202 -0.2496  0.8995 -0.2137
   88SOL    HW1  263   1.605   1.208   0.264 -1.8597  1.7067 -0.8557
   88SOL    HW2  264   1.468   1.309   0.234  0.5809 -2.3664  0.6354
   89SOL     OW  265   3.048   0.442   0.570  0.6159 -0.3187 -0.3767
   89SOL    HW1  266   3.112   0.363   0.583 -0.6381  1.8361  0.4095
   89SOL    HW2  267   2.946   0.407   0.569  0.6240 -2.6595  3.2872
   90SOL     OW  268   0.955   1.655   3.018 -0.0934 -0.3290 -0.2863
   90SOL    HW1  269   0.866   1.618   3.055 -2.5771 -0.7238 -0.6523
   90SOL    HW2  270   0.940   1.686   2.919 -0.5817  0.9167 -0.0855
   91SOL     OW  271   1.289   1.478   1.784 -0.6192 -0.0050  0.6348
   91SOL    HW1  272   1.298   1.571   1.825 -0.9176 -0.8177 -1.1557
   91SOL    HW2  273   1.374   1.442   1.732 -1.2909 -0.2511 -2.6108
   92SOL     OW  274   0.004   1.058   1.204 -1.0038  0.2283  0.4870
   92SOL    HW1  275   0.085   1.115   1.169 -2.7475 -0.6034 -1.8505
   92SOL    HW2  276   0.033   0.999   1.285 -1.8088  0.6205  2.2303
   93SOL     OW  277   0.004   2.775   0.070  0.0785 -1.3926  0.1134
   93SOL    HW1  278  -0.016   2.767  -0.031  0.6572  0.4182 -1.2109
   93SOL    HW2  279   0.062   2.697   0.097  0.8659 -0.9977  0.6840
   94SOL     OW  280   1.515   1.360   1.680  0.6138  0.5854  0.1804
   94SOL    HW1  281   1.535   1.262   1.705  0.1388 -0.5673  0.2565
   94SOL    HW2  282   1.588   1.431   1.708  2.0375  0.1441 -1.3754
   95SOL     OW  283   1.314   2.469   2.930 -0.3511  0.2211  0.6540
   95SOL    HW1  284   1.279   2.474   3.029 -0.5235 -0.0514  2.7812
   95SOL    HW2  285   1.347   2.370   2.903 -0.0547 -3.0819 -2.0759
   96SOL     OW  286   0.534   2.003   1.210  0.6673 -0.5073  0.3679
   96SOL    HW1  287   0.484   2.030   1.122  0.0002 -1.2611 -0.3688
   96SOL    HW2  288   0.525   1.901   1.236 -1.1495 -2.8062 -1.8070
   97SOL     OW  289   0.385   1.475   2.525  0.0548  0.7223 -0.0608
   97SOL    HW1  290   0.286   1.439   2.516 -2.0886  2.0559  3.6642
   97SOL    HW2  291   0.395   1.558   2.588 -0.6266 -0.6588  1.0883
   98SOL     OW  292   1.994   1.662   1.303 -0.6006 -0.4247 -0.8836
   98SOL    HW1  293   2.021   1.609   1.221 -0.0781  0.6646  2.0630
   98SOL    HW2  294   2.022   1.619   1.393  1.7824  1.0921  1.6585
   99SOL     OW  295   2.495   2.146   1.355  0.3223 -0.0876  0.6335
   99SOL    HW1  296   2.560   2.161   1.436 -0.3985  2.5237  0.2415
   99SOL    HW2  297   2.461   2.047   1.337  1.4420 -0.7929  0.0198
  100SOL     OW  298   2.326   0.371   2.023  0.0871  0.1689 -0.2549
  100SOL    HW1  299   2.276   0.357   2.113  1.6126 -1.3399 -0.3761
  100SOL    HW2  300   2.432   0.397   2.041  0.3920 -0.2453  2.1719
  101SOL     OW  301   0.378   1.502   0.283 -0.5869  0.5952 -0.4443
  101SOL    HW1  302   0.384   1.523   0.385  2.1836  3.9447  0.6710
  101SOL    HW2  303   0.374   1.590   0.226 -1.8825  0.8912 -1.8208
  102SOL     OW  304   2.309   1.084   0.808 -0.2843 -0.3567  0.1419
  102SOL    HW1  305   2.221   1.036   0.784  1.9637  0.7862 -0.4534
  102SOL    HW2  306   2.346   1.152   0.733  1.4676  2.8598  0.3281
  103SOL     OW  307   2.307   0.039   0.410  0.0128 -0.3809 -0.1386
  103SOL    HW1  308   2.337   0.132   0.359  0.8115  1.4860  0.6550
  103SOL    HW2  309   2.373  -0.001   0.480 -0.3055 -0.0063 -1.5567
  104SOL     OW  310   0.065   1.868   2.098 -0.1377 -0.5360 -0.4128
  104SOL    HW1  311   0.088   1.809   2.018 -0.8067  2.1114  2.5026
  104SOL    HW2  312  -0.036   1.862   2.127  0.2872  1.1986  4.4359
  105SOL     OW  313   1.186   1.972   0.826  1.2857  0.4758 -0.0366
  105SOL    HW1  314   1.131   2.015   0.749  0.5765  0.6962  0.8135
  105SOL    HW2  315   1.249   1.898   0.793 -0.3139 -0.2531 -2.3203
  106SOL     OW  316   2.079   0.443   1.365  0.0873  0.4635 -0.0307
  106SOL    HW1  317   2.073   0.352   1.411  1.7781  1.0474  1.8340
  106SOL    HW2  318   2.038   0.523   1.416 -2.0494 -0.6797 -0.2101
  107SOL     OW  319   1.807   3.028   1.070 -0.3854 -0.5883 -0.2538
  107SOL    HW1  320   1.843   3.112   1.117  0.6240 -1.1779 -1.3270
  107SOL    HW2  321   1.745   2.964   1.130 -0.4714  0.0210 -0.5840
  108SOL     OW  322   0.769   2.652   1.283 -0.0687  0.7030 -0.8160
  108SOL    HW1  323   0.767   2.723   1.363  1.6701  1.4535 -1.4690
  108SOL    HW2  324   0.844   2.578   1.302  2.8219  1.6358 -0.0952
  109SOL     OW  325   2.155   0.110   0.778  0.5925  0.0023  0.6258
  109SOL    HW1  326   2.089   0.052   0.719 -0.1333  0.6185  1.3905
  109SOL    HW2  327   2.144   0.098   0.881  3.0225  2.1297  1.3935
  110SOL     OW  328   0.458   2.817   2.737 -0.6839 -0.2409 -0.6588
  110SOL    HW1  329   0.454   2.848   2.636  2.9584  1.6872  0.8472
  110SOL    HW2  330   0.528   2.741   2.755 -0.4610  3.5477  1.1654
  111SOL     OW  331   1.320   0.534   2.273 -0.2640  0.5562  0.0068
  111SOL    HW1  332   1.241   0.560   2.330  0.8580  0.9319 -0.6651
  111SOL    HW2  333   1.372   0.450   2.300  1.5769  1.2290  0.3182
  112SOL     OW  334   1.748   0.517   1.397  0.2874  0.0952  0.2580
  112SOL    HW1  335   1.727   0.481   1.300  0.2175  1.9924  0.4252
  112SOL    HW2  336   1.740   0.441   1.468 -0.5713 -0.2055  1.1295
  113SOL     OW  337   2.329   1.621   1.708  0.0308 -0.1700  0.5379
  113SOL    HW1  338   2.388   1.535   1.703 -2.4325 -3.7307 -2.4747
  113SOL    HW2  339   2.336   1.668   1.799 -0.2978 -1.7511 -1.5051
  114SOL     OW  340   0.307   0.553   1.313 -0.0733 -0.2273  0.1167
  114SOL    HW1  341   0.298   0.655   1.288 -1.5155  0.0409 -0.6148
  114SOL    HW2  342   0.251   0.501   1.244  1.4826 -0.6331  0.9883
  115SOL     OW  343   2.612   1.589   1.213 -0.1767  0.2740  0.4760
  115SOL    HW1  344   2.642   1.490   1.227  1.5878  0.9546  2.2403
  115SOL    HW2  345   2.682   1.644   1.155  0.7430 -0.1269 -1.8652
  116SOL     OW  346   1.811   1.056   0.780  0.2126 -0.6152  0.8737
  116SOL    HW1  347   1.724   1.005   0.745 -1.1538 -2.0893  2.1038
  116SOL    HW2  348   1.810   1.163   0.770 -1.4951 -0.6594  1.5870
  117SOL     OW  349   1.120   0.353   0.685 -0.1599 -0.3265  0.8028
  117SOL    HW1  350   1.136   0.320   0.782  0.7175 -1.2745 -1.4138
  117SOL    HW2  351   1.138   0.454   0.669 -1.6790  1.1665  0.0961
  118SOL     OW  352   1.108   1.092   1.149  0.3061 -0.0791 -0.1020
  118SOL    HW1  353   1.057   1.023   1.207 -0.4256  2.1205 -0.3905
  118SOL    HW2  354   1.116   1.180   1.201  2.3748  0.5745  3.7677
  119SOL     OW  355   1.831   1.613   2.070 -0.2119 -0.1750  0.5018
  119SOL    HW1  356   1.780   1.700   2.105  0.1638 -0.0250  1.2010
  119SOL    HW2  357   1.929   1.606   2.092  0.7415  1.7931 -0.8113
  120SOL     OW  358   2.989   2.816   0.296 -0.4377  0.0984  0.1001
  120SOL    HW1  359   3.026   2.802   0.198 -2.2218 -2.5228 -1.4766
  120SOL    HW2  360   3.007   2.737   0.358 -0.7379  1.1555 -3.2373
  121SOL     OW  361   2.008   0.710   2.186 -0.1671  0.0587  0.6654
  121SOL    HW1  362   1.991   0.740   2.090  1.3043  1.5559 -0.5021
  121SOL    HW2  363   2.007   0.604   2.199 -2.2773  0.1697  0.3243
  122SOL     OW  364   2.729   2.589   1.352 -0.3835  0.2255 -1.0957
  122SOL    HW1  365   2.717   2.564   1.249 -0.7310  1.3498  1.9411
  122SOL    HW2  366   2.764   2.514   1.409 -0.5755 -0.8254 -0.4801
  123SOL     OW  367   1.720   0.053   1.721  0.0351 -0.0317  0.5300
  123SOL    HW1  368   1.738   0.008   1.633 -0.8546 -0.2378  1.3088
  123SOL    HW2  369   1.806   0.075   1.778 -0.5559  2.2202 -3.2212
  124SOL     OW  370   0.118   0.482   1.086 -0.4926 -0.1747 -0.2735
  124SOL    HW1  371   0.086   0.568   1.136 -0.8550  0.2666  1.5628
  124SOL    HW2  372   0.107   0.497   0.989 -0.3815 -3.0747 -1.0070
  125SOL     OW  373   0.871   1.789   0.658  0.0251  0.5638 -0.5339
  125SOL    HW1  374   0.966   1.752   0.636 -0.8151 -1.0545  1.3920
  125SOL    HW2  375   0.859   1.808   0.756  0.0546  2.9857 -0.8090
  126SOL     OW  376   1.909   2.390   2.399  0.2721  0.0337 -0.1814
  126SOL    HW1  377   1.973   2.325   2.351  0.6940 -0.7633  1.5790
  126SOL    HW2  378   1.813   2.351   2.394 -0.2798 -1.4334  1.9506
  127SOL     OW  379   0.785   0.964   0.200 -0.4424 -0.3943  0.5436
  127SOL    HW1  380   0.855   0.993   0.269  0.5958 -1.2949 -0.5917
  127SOL    HW2  381   0.788   0.860   0.195  0.1728  0.6199 -0.2636
  128SOL     OW  382   0.955   0.173   1.455 -0.4451  0.0322 -0.5353
  128SOL    HW1  383   0.911   0.221   1.370  0.4423  0.3438 -3.2378
  128SOL    HW2  384   0.901   0.090   1.490  1.3247 -1.4608 -1.5698
  129SOL     OW  385   1.869   0.679   1.865  0.5202  0.1150 -0.2020
  129SOL    HW1  386   1.894   0.669   1.769 -0.1370  2.9438  0.6106
  129SOL    HW2  387   1.885   0.778   1.897  2.5656 -1.6459 -2.8696
  130SOL     OW  388   1.330   2.110   1.015 -0.3848  0.2663 -0.5495
  130SOL    HW1  389   1.269   2.057   0.946 -0.5195  0.3680  0.3305
  130SOL    HW2  390   1.387   2.182   0.966 -0.0048  3.0140  0.4955
  131SOL     OW  391   0.008   1.514   1.377  0.4676  0.5399 -0.5929
  131SOL    HW1  392  -0.047   1.424   1.366 -1.5673  0.4528  1.2803
  131SOL    HW2  393   0.113   1.500   1.385 -0.1200  0.6682 -1.6064
  132SOL     OW  394   1.963   2.439   0.526  0.6671 -0.5148  0.5898
  132SOL    HW1  395   1.863   2.459   0.519  0.6609 -0.1642  0.0745
  132SOL    HW2  396   1.978   2.363   0.590  3.2772  0.5665  0.3809
  133SOL     OW  397   1.844   2.269   2.926  0.5204  0.0236  0.0203
  133SOL    HW1  398   1.862   2.348   2.989 -1.9543 -2.1240  1.2737
  133SOL    HW2  399   1.811   2.293   2.828  2.4570  1.0917 -3.9738
  134SOL     OW  400   2.708   2.360   1.608  0.2304  0.1899  0.6340
  134SOL    HW1  401   2.659   2.347   1.697  1.0174 -0.8939 -0.4879
  134SOL    HW2  402   2.766   2.447   1.609  2.3061 -0.3509 -0.2840
  135SOL     OW  403   0.732   1.536   2.600 -0.2484 -0.4635  0.2066
  135SOL    HW1  404   0.704   1.454   2.643  2.0132  0.6414  0.6910
  135SOL    HW2  405   0.775   1.532   2.503  2.2309 -1.4859  2.6574
  136SOL     OW  406   1.202   2.020   0.474  0.2373 -0.0372 -0.2514
  136SOL    HW1  407   1.126   2.056   0.533 -1.5611 -0.5730 -0.8061
  136SOL    HW2  408   1.173   1.928   0.435  0.7468  0.2964 -0.2268
  137SOL     OW  409   0.401   1.056   2.184  0.1235  0.1061 -0.2619
  137SOL    HW1  410   0.310   1.072   2.229  0.7022  0.0578 -1.4968
  137SOL    HW2  411   0.475   1.014   2.244  3.7648  3.1484  1.1119
  138SOL     OW  412   2.458   1.496   0.200  0.1621  0.6026 -0.8659
  138SOL    HW1  413   2.361   1.484   0.167 -0.0220 -1.5805 -1.9363
  138SOL    HW2  414   2.485   1.426   0.269  1.8795  1.0952 -0.1988
  139SOL     OW  415   1.802   2.624   1.192 -0.0067  0.7739 -0.2412
  139SOL    HW1  416   1.702   2.598   1.165  0.2429  0.8108  0.4967
  139SOL    HW2  417   1.828   2.576   1.282  0.6742 -1.5220  1.1004
  140SOL     OW  418   2.993   2.958   2.475  0.5256 -0.4784 -0.3286
  140SOL    HW1  419   3.040   2.864   2.491 -0.2162  0.5208  0.0559
  140SOL    HW2  420   3.046   3.034   2.524 -2.2154  1.1724  0.6243
  141SOL     OW  421   1.219   1.649   1.546  0.2770  0.3587  0.5513
  141SOL    HW1  422   1.166   1.722   1.592  2.6845  2.2332 -0.4775
  141SOL    HW2  423   1.255   1.584   1.613  1.2344  2.0834  1.0835
  142SOL     OW  424   1.565   0.618   2.259 -0.1809 -0.1810 -0.6966
  142SOL    HW1  425   1.609   0.614   2.164  1.4561  0.5445  0.5486
  142SOL    HW2  426   1.464   0.600   2.266  3.1249 -0.1776 -1.9311
  143SOL     OW  427   2.718   0.890   0.511  0.0133  0.1124  0.0075
  143SOL    HW1  428   2.749   0.937   0.425 -2.2465 -2.5374  0.1718
  143SOL    HW2  429   2.775   0.932   0.590  1.0380 -2.1079 -1.3168
  144SOL     OW  430   3.004   1.277   1.343  0.3430 -0.3682 -0.7961
  144SOL    HW1  431   2.975   1.247   1.440 -1.1352 -1.7863 -1.0036
  144SOL    HW2  432   3.014   1.191   1.285 -1.6519 -0.5175  0.2673
  145SOL     OW  433   1.068   1.865   0.054 -0.4273 -0.4682 -0.1210
  145SOL    HW1  434   1.044   1.959   0.013 -0.9183 -0.1831 -0.3367
  145SOL    HW2  435   1.018   1.784   0.011  1.2286  0.4856  0.6938
  146SOL     OW  436   2.505   0.633   1.502 -0.8557  0.0882  0.5050
  146SOL    HW1  437   2.428   0.573   1.465 -3.6306 -0.3743 -1.3411
  146SOL    HW2  438   2.468   0.729   1.495  0.7696  0.1604  0.2183
  147SOL     OW  439   1.036   2.523   0.597 -0.0220 -0.0547 -0.0562
  147SOL    HW1  440   1.013   2.581   0.517 -0.5672 -2.4757  2.7278
  147SOL    HW2  441   1.131   2.483   0.590  0.7826  0.2330  1.1655
  148SOL     OW  442   1.661   1.438   3.095 -0.2327  0.3004  0.1228
  148SOL    HW1  443   1.689   1.367   3.019 -0.7482  2.6952 -1.7403
  148SOL    HW2  444   1.609   1.384   3.166 -2.1087  2.2709 -3.8793
  149SOL     OW  445   0.682   1.413   1.957  0.6509  0.3976 -0.5328
  149SOL    HW1  446   0.592   1.386   2.000 -0.4526  0.4980  1.1612
  149SOL    HW2  447   0.717   1.348   1.885  0.6385  0.0564 -1.4598
  150SOL     OW  448   2.958   1.272   0.945 -0.6584  0.3466 -0.3018
  150SOL    HW1  449   3.053   1.271   0.987 -0.6955 -0.0849 -2.9008
  150SOL    HW2  450   2.913   1.176   0.946  0.2944 -1.2850 -1.2529
  151SOL     OW  451   0.200   0.773   2.156  0.1999  0.1209  0.3647
  151SOL    HW1  452   0.194   0.853   2.087 -0.0941 -0.7555  0.8101
  151SOL    HW2  453   0.257   0.696   2.118 -3.7082  1.2155  1.5291
  152SOL     OW  454   1.404   1.744   1.262 -0.2527 -0.1052 -0.1465
  152SOL    HW1  455   1.395   1.782   1.355 -0.9458 -0.1175 -0.4479
  152SOL    HW2  456   1.310   1.746   1.217 -2.2650 -2.8330  1.6655
  153SOL     OW  457   0.033   1.542   0.145 -0.1683 -0.0088 -0.1887
  153SOL    HW1  458   0.028   1.439   0.153  1.4858 -0.6436 -0.3380
  153SOL    HW2  459   0.084   1.579   0.233  0.1393  1.0655  0.3361
  154SOL     OW  460   2.394   1.881   2.814 -0.6580 -0.0149 -0.2258
  154SOL    HW1  461   2.426   1.788   2.843 -0.3686 -1.5839 -0.4748
  154SOL    HW2  462   2.435   1.907   2.723  0.1773  0.5650 -1.0660
  155SOL     OW  463   2.493   1.261   0.340  0.0752 -0.4654 -0.6477
  155SOL    HW1  464   2.582   1.243   0.289  0.2455  2.9323  1.7964
  155SOL    HW2  465   2.442   1.173   0.372  0.7731  0.5616 -1.1056
  156SOL     OW  466   2.551   0.934   0.876  0.2117  0.3051  0.1260
  156SOL    HW1  467   2.453   0.949   0.840  0.1912 -1.0541  1.7176
  156SOL    HW2  468   2.605   1.021   0.857  0.8945  1.7972 -0.1626
  157SOL     OW  469   1.236   3.008   2.988 -0.7649 -0.2295 -0.4510
  157SOL    HW1  470   1.304   2.971   2.922  0.8763 -0.5232  1.9131
  157SOL    HW2  471   1.248   3.111   2.982  1.0294  1.1762 -2.6812
  158SOL     OW  472   1.046   1.868   2.026 -0.1094 -0.3262 -0.0478
  158SOL    HW1  473   1.074   1.839   2.123  2.0188  0.2356 -1.7132
  158SOL    HW2  474   0.945   1.902   2.024 -2.0832 -2.2072 -1.2092
  159SOL     OW  475   0.855   0.394   1.287  0.1564  0.3582 -0.3340
  159SOL    HW1  476   0.835   0.479   1.346 -1.3249  0.4457  2.2054
  159SOL    HW2  477   0.784   0.395   1.208 -0.0052  0.5316 -0.6602
  160SOL     OW  478   1.473   2.474   1.640  0.5102  0.3424 -0.1211
  160SOL    HW1  479   1.506   2.540   1.569 -0.0744 -1.1341 -0.0385
  160SOL    HW2  480   1.543   2.399   1.671 -2.1909 -1.3522 -1.6455
  161SOL     OW  481   0.148   2.911   0.343  0.7107 -0.4473  0.4099
  161SOL    HW1  482   0.072   2.846   0.340  3.5056  2.3788  2.2059
  161SOL    HW2  483   0.144   2.995   0.290  0.5909  1.8765  1.7213
  162SOL     OW  484   2.601   1.912   0.505  0.0378 -0.2377  0.6908
  162SOL    HW1  485   2.567   1.838   0.436  0.9243  0.7382 -0.5584
  162SOL    HW2  486   2.603   1.874   0.600  1.7900  2.7121 -0.1750
  163SOL     OW  487   1.965   2.671   0.731 -0.0548 -0.5976 -0.2149
  163SOL    HW1  488   1.912   2.704   0.648  1.0918 -0.0440  1.2350
  163SOL    HW2  489   2.036   2.601   0.711 -0.3103  1.3298  0.6377
  164SOL     OW  490   3.041   0.309   1.203  0.3257  0.2742 -0.2590
  164SOL    HW1  491   3.070   0.370   1.129  0.5369 -2.1935 -0.3042
  164SOL    HW2  492   3.119   0.266   1.254 -1.1000  0.8349  0.7014
  165SOL     OW  493   0.989   1.474   0.673  0.4458 -0.2624 -0.0285
  165SOL    HW1  494   0.921   1.479   0.749 -1.2660 -3.3922  1.2939
  165SOL    HW2  495   0.985   1.555   0.611  1.6556  0.5440  1.8024
  166SOL     OW  496   1.429   1.070   1.751  0.5362  0.2693  0.0755
  166SOL    HW1  497   1.347   1.022   1.778  0.9652 -1.5600 -1.3818
  166SOL    HW2  498   1.485   1.103   1.829 -1.2424  0.5356 -2.4399
  167SOL     OW  499   0.864   1.940   1.536 -0.5603 -0.1154 -0.2786
  167SOL    HW1  500   0.842   1.991   1.624  1.2951  1.1144  0.3613
  167SOL    HW2  501   0.792   1.872   1.512 -1.1249  0.7868  0.7847
  168SOL     OW  502   1.554   2.375   0.152  0.3862 -0.1554  0.4844
  168SOL    HW1  503   1.636   2.430   0.118  1.7138 -1.4523 -2.0548
  168SOL    HW2  504   1.583   2.296   0.218  2.6112 -1.2144  2.9652
  169SOL     OW  505   0.177   2.586   2.210 -0.0326  0.5953  0.0976
  169SOL    HW1  506   0.245   2.549   2.145  0.7352  0.5715  2.2703
  169SOL    HW2  507   0.174   2.531   2.297  0.5763  0.9502  2.3314
  170SOL     OW  508   1.267   0.278   1.906  0.0894  0.1810  0.4290
  170SOL    HW1  509   1.305   0.240   1.996 -1.0873  1.6766 -0.4896
  170SOL    HW2  510   1.232   0.203   1.842 -2.4456  0.5678 -1.4888
  171SOL     OW  511   0.258   0.780   2.426 -0.6648 -0.3480 -0.0256
  171SOL    HW1  512   0.172   0.780   2.482  0.5119  1.0742 -0.3978
  171SOL    HW2  513   0.239   0.772   2.327  2.5833 -0.0230  4.8221
  172SOL     OW  514   0.886   1.158   2.933 -0.5131  0.1580 -0.2877
  172SOL    HW1  515   0.981   1.190   2.957 -1.5706  1.8453  0.1386
  172SOL    HW2  516   0.875   1.114   2.841  0.6708  0.8236 -3.0107
  173SOL     OW  517   0.660   2.689   0.163 -0.2186 -0.3221 -0.5073
  173SOL    HW1  518   0.684   2.791   0.143  0.7682  2.4520 -1.6288
  173SOL    HW2  519   0.573   2.656   0.115 -2.0006  0.6346  0.1461
  174SOL     OW  520   1.394   2.777   1.057  0.2281  0.5780  0.1761
  174SOL    HW1  521   1.408   2.853   0.982  0.0333  2.4658 -1.6442
  174SOL    HW2  522   1.337   2.696   1.024  0.2947  1.8045 -1.5942
  175SOL     OW  523   0.386   0.019   1.660  0.0611 -0.2072 -0.1021
  175SOL    HW1  524   0.446   0.037   1.741 -2.4031  0.9004 -0.8621
  175SOL    HW2  525   0.319   0.096   1.650 -0.0864 -0.5655 -1.5400
  176SOL     OW  526   2.506   0.393   3.071 -0.3053  0.4983  0.3887
  176SOL    HW1  527   2.517   0.460   3.147 -0.0753  1.5644 -3.2105
  176SOL    HW2  528   2.436   0.325   3.084 -0.5668  0.4934 -4.0871
  177SOL     OW  529   0.391   0.381   0.929  0.0949 -0.5443  0.3132
  177SOL    HW1  530   0.483   0.362   0.972  2.6789 -1.9022 -1.5807
  177SOL    HW2  531   0.318   0.349   0.994 -2.2735 -0.5114  1.2758
  178SOL     OW  532   0.023   2.707   2.589 -0.2681 -0.8251 -0.1260
  178SOL    HW1  533  -0.058   2.690   2.653  2.4842 -2.3574  1.8135
  178SOL    HW2  534   0.101   2.751   2.643  0.8677  0.3814  0.0084
  179SOL     OW  535   0.028   1.698   1.159  0.1704 -0.2205  0.6850
  179SOL    HW1  536  -0.053   1.768   1.152 -2.1762 -0.7120  1.0702
  179SOL    HW2  537   0.022   1.626   1.229 -1.7389 -0.6895 -0.6993
  180SOL     OW  538   0.220   1.278   1.831  0.4459 -0.3302 -0.1125
  180SOL    HW1  539   0.319   1.280   1.817  0.0207  0.2621  0.3148
  180SOL    HW2  540   0.193   1.367   1.886 -3.1564  2.8030 -0.2121
  181SOL     OW  541   3.022   1.830   2.546  0.5086  0.0022  0.2492
  181SOL    HW1  542   3.096   1.905   2.517  2.6366 -0.9558  1.0002
  181SOL    HW2  543   2.924   1.853   2.535 -3.0680 -2.6542  3.4030
  182SOL     OW  544   2.337   1.210   1.203  0.0593  0.2040  0.0164
  182SOL    HW1  545   2.254   1.168   1.151 -0.4757  1.7524 -0.8651
  182SOL    HW2  546   2.320   1.312   1.232 -1.5063  3.0188 -0.6610
  183SOL     OW  547   1.487   2.274   2.553 -0.1111 -0.3528 -0.1392
  183SOL    HW1  548   1.393   2.229   2.540  2.9253 -0.0169  0.2899
  183SOL    HW2  549   1.572   2.212   2.564  1.8677  3.1021 -1.0921
  184SOL     OW  550   2.052   0.928   0.785 -0.3289  0.1111  0.9002
  184SOL    HW1  551   1.957   0.969   0.775  1.3645 -0.4498  2.6422
  184SOL    HW2  552   2.049   0.826   0.805  2.6005 -1.1701  1.5949
  185SOL     OW  553   1.649   2.688   2.096  0.0457 -0.8167 -0.1520
  185SOL    HW1  554   1.581   2.769   2.082 -1.2062 -2.5092 -0.1887
  185SOL    HW2  555   1.665   2.671   2.195  1.7027  2.5830 -1.2562
  186SOL     OW  556   0.138   2.215   1.750  0.3216 -0.5340 -0.2479
  186SOL    HW1  557   0.151   2.302   1.701 -2.3248  0.0894  0.4448
  186SOL    HW2  558   0.222   2.152   1.740  2.1291  0.2659 -1.2140
  187SOL     OW  559   1.420   0.682   1.674 -0.5121  0.0790 -0.2067
  187SOL    HW1  560   1.445   0.763   1.613 -0.2756 -0.0700 -0.1080
  187SOL    HW2  561   1.403   0.709   1.774  0.2659 -0.9053 -2.4638
  188SOL     OW  562   2.759   2.777   1.551  0.2768  0.4860  0.0863
  188SOL    HW1  563   2.743   2.868   1.504 -0.9244  1.3502  0.6398
  188SOL    HW2  564   2.718   2.701   1.497 -0.3870  1.7935 -2.6808
  189SOL     OW  565   0.814   1.001   1.427  0.4527 -0.4213 -0.3435
  189SOL    HW1  566   0.893   1.060   1.458  0.8169 -1.5507  1.9435
  189SOL    HW2  567   0.805   0.983   1.329 -0.6356 -1.2047 -1.2654
  190SOL     OW  568   1.500   1.691   1.588  0.1833  0.3373 -0.5056
  190SOL    HW1  569   1.400   1.674   1.581 -0.4036 -0.9760 -0.6066
  190SOL    HW2  570   1.523   1.770   1.656  0.4221  2.6229  0.1890
  191SOL     OW  571   0.999   0.794   1.551  0.0942 -0.3822  0.0841
  191SOL    HW1  572   1.035   0.702   1.585  0.4755  1.2529 -0.0126
  191SOL    HW2  573   1.077   0.866   1.539 -0.0566  0.5672  4.2646
  192SOL     OW  574   1.839   2.303   1.199 -0.3876 -0.6834 -0.4594
  192SOL    HW1  575   1.759   2.283   1.134 -0.2434  1.0325 -2.1168
  192SOL    HW2  576   1.909   2.369   1.155  1.6510  1.1742 -0.8077
  193SOL     OW  577   0.523   0.561   0.375 -0.2318 -0.2581  0.5154
  193SOL    HW1  578   0.456   0.481   0.391  0.4387 -0.2995 -0.8972
  193SOL    HW2  579   0.591   0.536   0.301  1.1613 -0.6807 -0.5514
  194SOL     OW  580   0.302   0.825   1.244  0.3466 -0.4990 -0.3201
  194SOL    HW1  581   0.200   0.817   1.234 -0.0344 -0.7911 -0.4087
  194SOL    HW2  582   0.340   0.884   1.170 -1.5568  0.5766  0.5329
  195SOL     OW  583   0.952   2.913   0.454  0.0566 -0.0241 -0.1827
  195SOL    HW1  584   0.956   2.810   0.428 -0.0903 -3.8561 -0.5007
  195SOL    HW2  585   1.043   2.966   0.443  1.7110 -0.0344 -1.5641
  196SOL     OW  586   0.263   1.434   1.413  0.1003  0.1288  0.1312
  196SOL    HW1  587   0.319   1.489   1.484  0.9556  0.8196 -1.7936
  196SOL    HW2  588   0.235   1.342   1.452 -0.5714  2.8650  3.5508
  197SOL     OW  589   0.864   2.025   0.255 -0.1033  0.3953  0.0800
  197SOL    HW1  590   0.836   1.997   0.353 -1.1354 -2.4511 -1.1912
  197SOL    HW2  591   0.940   1.965   0.215  1.3344  0.2121 -0.9136
  198SOL     OW  592   0.275   1.254   0.259 -0.5278 -0.0794  0.1663
  198SOL    HW1  593   0.176   1.265   0.229 -0.9259 -0.1005 -3.4478
  198SOL    HW2  594   0.320   1.349   0.282 -0.1147 -1.0263 -1.7094
  199SOL     OW  595   2.263   0.367   2.553  0.2120  0.0064 -0.0521
  199SOL    HW1  596   2.202   0.336   2.624  1.8807 -1.8520 -0.7054
  199SOL    HW2  597   2.358   0.321   2.562  1.9502 -2.9908 -0.8636
  200SOL     OW  598   3.086   2.921   0.746 -0.0343  0.5083 -0.3515
  200SOL    HW1  599   3.019   2.950   0.674 -0.0217  0.5946 -0.3920
  200SOL    HW2  600   3.146   3.000   0.768 -0.0518 -1.4598  1.9705
  201SOL     OW  601   1.150   0.708   0.546 -0.8853  0.2563  0.2824
  201SOL    HW1  602   1.172   0.781   0.614 -2.0178 -1.0356  1.9636
  201SOL    HW2  603   1.050   0.691   0.531  2.7101 -0.6791  1.3538
  202SOL     OW  604   0.461   1.264   1.723  0.1279 -0.1681  0.1349
  202SOL    HW1  605   0.485   1.236   1.630  1.7251  0.3869  2.6781
  202SOL    HW2  606   0.521   1.207   1.788  0.6703  0.6210  0.5016
  203SOL     OW  607   0.684   0.237   1.551 -0.0764 -0.3768  0.8309
  203SOL    HW1  608   0.692   0.166   1.472  1.1445 -0.0324  1.2485
  203SOL    HW2  609   0.737   0.221   1.640 -0.5456  1.2813 -1.0910
  204SOL     OW  610   2.088   1.826   3.023 -0.4673  0.2022 -0.3719
  204SOL    HW1  611   2.068   1.729   2.989 -0.0108  0.8131  2.5447
  204SOL    HW2  612   2.045   1.893   2.953 -0.8603 -2.0992  2.3039
  205SOL     OW  613   1.852   1.889   0.082  0.0542  0.1739 -0.4162
  205SOL    HW1  614   1.935   1.880   0.028 -0.2699  1.3875  0.3586
  205SOL    HW2  615   1.790   1.969   0.056  0.9262 -1.5784  2.1979
  206SOL     OW  616   2.574   2.827   0.393 -0.1814  0.0997  0.7144
  206SOL    HW1  617   2.624   2.739   0.409 -1.8737  1.9474  0.6799
  206SOL    HW2  618   2.580   2.864   0.297 -0.4173 -0.1814  0.7983
  207SOL     OW  619   0.636   1.736   2.886  0.1093 -0.0712  0.6670
  207SOL    HW1  620   0.737   1.722   2.870  1.3195 -0.5140  0.7678
  207SOL    HW2  621   0.588   1.652   2.916 -1.2202 -0.1610 -2.4886
  208SOL     OW  622   1.026   1.492   1.441  0.4431 -0.1813 -0.0431
  208SOL    HW1  623   0.964   1.540   1.371  0.3883  0.6428  1.9739
  208SOL    HW2  624   1.109   1.553   1.464 -3.2399  0.9731 -0.4080
  209SOL     OW  625   0.221   0.939   3.047  0.5294 -0.0321 -0.0090
  209SOL    HW1  626   0.233   0.889   2.954  0.2686 -0.4578 -2.7496
  209SOL    HW2  627   0.207   0.873   3.127  1.8636 -0.1165 -0.8415
  210SOL     OW  628   1.715   0.500   1.123  0.5760  0.0848  0.0473
  210SOL    HW1  629   1.672   0.576   1.064 -0.2317  2.7683 -0.9915
  210SOL    HW2  630   1.817   0.507   1.128 -0.8624 -1.5850  0.2024
  211SOL     OW  631   2.159   1.045   1.681  0.5758  0.0641 -0.2942
  211SOL    HW1  632   2.216   1.021   1.762  3.0096 -1.7875 -1.0384
  211SOL    HW2  633   2.226   1.090   1.611 -0.7925  0.1902 -0.0714
  212SOL     OW  634   0.043   0.965   1.470 -0.0129 -0.4580 -0.0704
  212SOL    HW1  635   0.030   1.055   1.519 -0.5234 -0.9537  0.5326
  212SOL    HW2  636   0.066   0.888   1.531  0.3958  2.1299  0.5435
  213SOL     OW  637   2.731   0.359   0.266 -0.1074 -0.0970  0.0077
  213SOL    HW1  638   2.789   0.295   0.213  0.6671  0.2660 -3.2436
  213SOL    HW2  639   2.692   0.446   0.217  1.6888  1.6076  0.9029
  214SOL     OW  640   2.210   0.275   2.274  0.4608 -0.7909 -0.4016
  214SOL    HW1  641   2.222   0.322   2.366  0.5594  0.6517 -1.1193
  214SOL    HW2  642   2.170   0.181   2.281  0.3335  2.6153  2.2968
  215SOL     OW  643   1.668   2.276   2.070  0.3113 -0.1214  0.0070
  215SOL    HW1  644   1.763   2.307   2.053 -1.3966  0.5682  2.1567
  215SOL    HW2  645   1.618   2.347   2.123  1.8620  1.9686 -0.4621
  216SOL     OW  646   2.223   0.525   0.658 -0.2526  0.0458  0.0010
  216SOL    HW1  647   2.200   0.434   0.614  0.4396  2.7381  2.9687
  216SOL    HW2  648   2.258   0.594   0.590  1.6103  0.5592 -1.3794
  217SOL     OW  649   0.782   2.807   2.390  0.2256 -0.1597  0.4478
  217SOL    HW1  650   0.769   2.723   2.441 -1.3292  1.2019  0.3714
  217SOL    HW2  651   0.799   2.790   2.293 -1.3980 -1.6707  3.0910
  218SOL     OW  652   1.902   1.431   0.087  0.3059 -0.0783 -0.3290
  218SOL    HW1  653   1.800   1.449   0.065 -0.8589 -4.7644  1.6820
  218SOL    HW2  654   1.919   1.339   0.132 -0.3706  2.1221  2.5793
  219SOL     OW  655   2.388   1.328   2.538 -0.1734 -0.1982 -0.2913
  219SOL    HW1  656   2.468   1.325   2.477  2.4055 -1.8752 -0.3855
  219SOL    HW2  657   2.380   1.240   2.594  0.2991  1.7752 -0.5572
  220SOL     OW  658   1.467   1.026   1.268  0.5196  0.4803 -0.2581
  220SOL    HW1  659   1.570   1.018   1.290  0.3363 -2.1091  0.0957
  220SOL    HW2  660   1.453   1.091   1.186 -2.4519 -2.3688 -0.9193
  221SOL     OW  661   1.303   1.211   2.178  0.5601 -0.0978  0.6425
  221SOL    HW1  662   1.241   1.272   2.116 -1.6698 -2.2193  0.1623
  221SOL    HW2  663   1.397   1.196   2.138  0.6374 -0.4361  0.0054
  222SOL     OW  664   1.223   0.065   1.141 -0.8813 -0.2174  0.1621
  222SOL    HW1  665   1.300   0.005   1.107  0.7615 -1.1803 -0.9933
  222SOL    HW2  666   1.255   0.116   1.227  1.2961  1.7804  1.0219
  223SOL     OW  667   2.918   0.839   2.012  0.9102  0.1272  0.4914
  223SOL    HW1  668   2.937   0.833   2.115  1.1487 -0.7843  1.6343
  223SOL    HW2  669   2.935   0.930   1.965  0.1195  0.4500 -0.6014
  224SOL     OW  670   1.544   0.972   2.799 -0.2919 -0.9932  0.5535
  224SOL    HW1  671   1.571   0.909   2.725  1.3309  0.9768  2.2542
  224SOL    HW2  672   1.506   1.068   2.762  1.0554  1.4364  2.2420
  225SOL     OW  673   3.041   2.800   2.910  0.1892 -0.6755 -0.4030
  225SOL    HW1  674   3.025   2.726   2.835  1.6620  0.9053 -1.2561
  225SOL    HW2  675   3.113   2.867   2.878  0.3926 -2.5512  0.6700
  226SOL     OW  676   2.468   1.612   2.860  0.3188 -0.1382 -0.1433
  226SOL    HW1  677   2.507   1.590   2.768 -0.5869 -1.0215  1.3677
  226SOL    HW2  678   2.424   1.537   2.911  0.6906 -1.1757 -0.0688
  227SOL     OW  679   0.856   0.105   2.983  0.3403  0.2845  0.0678
  227SOL    HW1  680   0.884   0.032   3.055 -3.1153  0.0137 -1.9900
  227SOL    HW2  681   0.876   0.075   2.884  0.4162 -1.9164  0.5339
  228SOL     OW  682   2.361   0.586   2.817 -0.4985 -0.0271  0.5331
  228SOL    HW1  683   2.318   0.600   2.721  5.0597  0.8963  0.6354
  228SOL    HW2  684   2.409   0.495   2.820  0.3536  0.5769  0.8655
  229SOL     OW  685   0.573   0.506   1.861  0.0253 -0.2404 -0.3750
  229SOL    HW1  686   0.583   0.496   1.761 -2.0457  0.6085 -0.4997
  229SOL    HW2  687   0.638   0.565   1.911  1.5040  3.8306 -1.0350
  230SOL     OW  688   1.895   1.241   2.145 -0.2018 -0.0843  0.4937
  230SOL    HW1  689   1.980   1.275   2.087 -1.1154 -1.5118 -0.3133
  230SOL    HW2  690   1.813   1.295   2.110 -0.2495  1.7476  1.5676
  231SOL     OW  691   0.634   1.001   3.003  0.0292 -0.8092 -0.1457
  231SOL    HW1  692   0.724   1.049   3.000 -2.0951  0.2411  0.7183
  231SOL    HW2  693   0.564   1.053   3.062  1.8153 -0.2259 -1.4083
  232SOL     OW  694   2.511   0.032   2.744 -0.3786 -0.0642 -0.3690
  232SOL    HW1  695   2.505  -0.038   2.818 -0.3786  0.1147  0.3163
  232SOL    HW2  696   2.541  -0.001   2.649 -0.0648  0.3972 -0.8239
  233SOL     OW  697   1.695   1.268   1.051 -0.2787 -0.2911  0.4696
  233SOL    HW1  698   1.721   1.316   0.961  1.4150 -1.1473  0.6314
  233SOL    HW2  699   1.723   1.171   1.061 -1.8049  0.2416  1.9502
  234SOL     OW  700   1.658   2.614   1.836  0.4427 -0.2756  0.1066
  234SOL    HW1  701   1.657   2.625   1.939 -0.0238 -2.3868  0.4574
  234SOL    HW2  702   1.570   2.575   1.801 -0.7987 -0.0464 -1.6328
  235SOL     OW  703   0.117   3.010   2.891  0.7318  0.4676  0.2444
  235SOL    HW1  704   0.162   3.081   2.833  1.6806  0.3535 -0.4150
  235SOL    HW2  705   0.031   3.047   2.941 -0.7543 -0.9200  3.8670
  236SOL     OW  706   2.826   0.677   0.098  0.8286 -0.0336  0.7036
  236SOL    HW1  707   2.873   0.741   0.166 -0.2056 -0.4433 -1.8495
  236SOL    HW2  708   2.890   0.601   0.056  0.5356 -0.4585 -1.0815
  237SOL     OW  709   1.501   1.605   1.040  0.0253  0.2555  0.0371
  237SOL    HW1  710   1.604   1.617   1.041  2.0396 -0.7046  0.9045
  237SOL    HW2  711   1.454   1.668   1.108 -0.4994  0.6408 -2.5295
  238SOL     OW  712   1.783   1.343   0.802  0.7720 -0.0083  0.4465
  238SOL    HW1  713   1.875   1.360   0.764 -0.2090  1.9111  0.4379
  238SOL    HW2  714   1.706   1.399   0.767  2.0840 -0.9856  0.4390
  239SOL     OW  715   2.088   0.239   2.724 -0.6055  0.2009  0.2831
  239SOL    HW1  716   2.174   0.245   2.777 -1.8083 -0.9709  1.3291
  239SOL    HW2  717   2.017   0.302   2.763  0.0216  0.7263 -1.4037
  240SOL     OW  718   0.864   0.697   0.240  0.1424  0.6710 -0.5035
  240SOL    HW1  719   0.859   0.610   0.180 -1.7394 -0.6608  1.6756
  240SOL    HW2  720   0.864   0.671   0.337 -1.3539 -2.5463 -0.6523
  241SOL     OW  721   0.547   0.043   0.335 -0.0389  0.3645 -0.0131
  241SOL    HW1  722   0.566   0.029   0.238  0.3678 -0.1666  0.1384
  241SOL    HW2  723   0.473  -0.025   0.379 -0.9898 -0.9117  1.8761
  242SOL     OW  724   0.695   2.444   1.144  0.3728  0.9175 -0.0183
  242SOL    HW1  725   0.664   2.503   1.224 -1.8295  0.1406  2.7707
  242SOL    HW2  726   0.776   2.481   1.091  0.2823 -0.9733  1.9889
  243SOL     OW  727   1.091   0.608   2.418 -0.3268  0.0726  0.1170
  243SOL    HW1  728   1.023   0.673   2.373  0.2058 -2.4577  0.9212
  243SOL    HW2  729   1.042   0.525   2.456  3.4503  0.7871 -2.2567
  244SOL     OW  730   2.789   1.919   2.444  0.5406 -0.4845 -0.7025
  244SOL    HW1  731   2.848   1.923   2.361 -1.7812 -2.2437  0.4845
  244SOL    HW2  732   2.700   1.874   2.422 -0.2455 -1.8624 -0.4482
  245SOL     OW  733   2.468   0.747   2.131  0.0219 -0.3964  0.1830
  245SOL    HW1  734   2.509   0.788   2.221  2.2572  1.9170  0.6800
  245SOL    HW2  735   2.538   0.712   2.066 -1.1000  2.9644 -0.9017
  246SOL     OW  736   0.217   2.888   1.701  0.2843  0.5501 -0.3135
  246SOL    HW1  737   0.149   2.876   1.624  2.3944 -0.8061 -1.9728
  246SOL    HW2  738   0.273   2.976   1.683  0.6509  0.7540 -0.3670
  247SOL     OW  739   2.170   0.555   3.021 -0.1340  0.3379  0.5053
  247SOL    HW1  740   2.237   0.548   2.939  1.1097  0.5572 -0.5064
  247SOL    HW2  741   2.133   0.652   3.037 -1.0021 -2.1321 -0.7895
  248SOL     OW  742   2.177   1.853   1.644  0.2790 -0.0721 -0.5943
  248SOL    HW1  743   2.232   1.762   1.643  0.8606  0.3989 -0.8517
  248SOL    HW2  744   2.079   1.836   1.681 -0.9257 -1.2910 -1.2125
  249SOL     OW  745   1.963   1.954   1.953  0.3597  0.7830  0.2160
  249SOL    HW1  746   1.968   1.888   1.869 -0.9144  0.5172 -1.5698
  249SOL    HW2  747   2.057   1.992   1.979  0.0225 -0.0207  0.7815
  250SOL     OW  748   1.014   0.651   1.848 -0.0173  0.1424 -0.2227
  250SOL    HW1  749   1.055   0.607   1.933  0.1523 -1.2312 -1.1916
  250SOL    HW2  750   1.051   0.609   1.761  0.1799 -1.9806 -0.7351
  251SOL     OW  751   3.020   1.560   2.578  0.4788  0.1966 -0.2133
  251SOL    HW1  752   3.024   1.666   2.575 -0.8024  1.3534  0.9482
  251SOL    HW2  753   2.924   1.519   2.566 -0.6258 -0.8529  3.7340
  252SOL     OW  754   1.510   0.909   1.535 -0.7715  0.2584  0.2748
  252SOL    HW1  755   1.526   0.963   1.447 -0.8425  2.0104  0.2897
  252SOL    HW2  756   1.487   0.969   1.616 -0.2386 -0.7197 -3.4871
  253SOL     OW  757   0.968   1.547   0.390 -0.6654  0.9329 -0.2588
  253SOL    HW1  758   1.020   1.466   0.340 -1.3100  2.3180  0.5776
  253SOL    HW2  759   0.873   1.541   0.357  1.0181 -2.6096 -1.1703
  254SOL     OW  760   1.999   2.170   1.601  0.0274  0.5202 -0.3372
  254SOL    HW1  761   1.947   2.139   1.516  0.9627 -0.0374 -1.3770
  254SOL    HW2  762   1.960   2.132   1.692  0.9956 -1.4231  0.8707
  255SOL     OW  763   0.113   1.154   2.914 -0.0846  0.2268  0.3101
  255SOL    HW1  764   0.182   1.232   2.890  4.2465  0.8992 -2.2058
  255SOL    HW2  765   0.155   1.100   2.989  1.1304  0.6534 -0.6746
  256SOL     OW  766   2.796   1.351   1.843 -0.6304  0.3223 -0.3122
  256SOL    HW1  767   2.736   1.433   1.856  0.7862  0.1138  1.8754
  256SOL    HW2  768   2.755   1.262   1.877  0.1156 -1.6898  1.4420
  257SOL     OW  769   0.895   0.208   1.922  0.2782 -0.6008  0.2544
  257SOL    HW1  770   0.909   0.268   1.840 -1.1859 -3.2430  0.2814
  257SOL    HW2  771   0.898   0.107   1.897 -0.1087  0.2591  2.1705
  258SOL     OW  772   2.955   1.253   0.406 -0.0840 -0.3423 -0.5415
  258SOL    HW1  773   2.922   1.347   0.397  2.3466 -1.6712  0.9341
  258SOL    HW2  774   3.011   1.243   0.493  0.7312 -0.9646  0.3948
  259SOL     OW  775   0.425   2.905   2.993 -0.2641  1.0894  0.3455
  259SOL    HW1  776   0.385   2.834   3.058 -0.6305  1.2490 -2.9909
  259SOL    HW2  777   0.448   2.862   2.901 -0.8954 -0.0952  0.7027
  260SOL     OW  778   2.651   0.764   2.777  0.0489  0.8508  0.3248
  260SOL    HW1  779   2.598   0.846   2.742  1.3450  0.7494 -0.8080
  260SOL    HW2  780   2.592   0.682   2.795 -0.2034  1.3537  0.6122
  261SOL     OW  781   2.708   1.335   1.322 -0.1438 -0.4462  0.3069
  261SOL    HW1  782   2.667   1.266   1.256  1.2228 -3.4619  1.6568
  261SOL    HW2  783   2.810   1.320   1.330  2.7976  1.0790  1.0730
  262SOL     OW  784   1.470   2.917   2.036 -0.3694 -0.5004 -0.1354
  262SOL    HW1  785   1.486   3.004   1.987 -0.8226 -0.2812  1.1657
  262SOL    HW2  786   1.383   2.868   2.002  0.8879  1.0598 -3.5541
  263SOL     OW  787   0.882   0.776   2.301 -0.1546 -0.2715 -0.2660
  263SOL    HW1  788   0.806   0.705   2.288 -0.7418  1.0123  2.4964
  263SOL    HW2  789   0.893   0.843   2.222  0.9616 -1.3331  0.9818
  264SOL     OW  790   2.259   0.751   0.502 -0.1545 -0.2190 -0.0936
  264SOL    HW1  791   2.168   0.786   0.471 -2.8091 -0.3653 -0.1941
  264SOL    HW2  792   2.328   0.824   0.514  2.1050 -1.9436 -2.8997
  265SOL     OW  793   0.869   2.318   2.691 -0.0734 -0.8421  0.1167
  265SOL    HW1  794   0.924   2.382   2.752  2.4450  0.8523  0.5469
  265SOL    HW2  795   0.830   2.243   2.753 -1.2314  1.6285 -0.2355
  266SOL     OW  796   1.337   1.712   0.046  0.3774  0.0004  0.3469
  266SOL    HW1  797   1.291   1.799   0.082 -3.1550 -1.4705 -0.9798
  266SOL    HW2  798   1.440   1.715   0.043 -1.0164 -0.8884 -2.1235
  267SOL     OW  799   1.078   0.021   2.376  0.3899 -0.4227  0.1665
  267SOL    HW1  800   1.058  -0.074   2.331  0.5495 -0.6288 -0.3419
  267SOL    HW2  801   1.028   0.103   2.335 -0.1443 -1.0200  0.1748
  268SOL     OW  802   0.648   1.160   1.034  0.2631  0.1794 -0.1652
  268SOL    HW1  803   0.689   1.196   1.124  2.5810  1.7726 -0.4286
  268SOL    HW2  804   0.620   1.232   0.970  0.1700 -2.0113 -0.8980
  269SOL     OW  805   2.443   2.520   1.606 -0.1496 -0.6440  0.1249
  269SOL    HW1  806   2.528   2.462   1.624 -0.7193 -5.0402  0.5194
  269SOL    HW2  807   2.381   2.521   1.691 -2.8268 -1.5917 -0.0279
  270SOL     OW  808   0.221   2.920   1.984 -0.1681  0.6280 -0.8789
  270SOL    HW1  809   0.234   2.907   1.881 -0.3771  3.4692 -2.2218
  270SOL    HW2  810   0.145   2.862   2.021  0.1962  1.0258  0.0275
  271SOL     OW  811   0.446   1.398   1.194  0.0653  0.0289  0.0626
  271SOL    HW1  812   0.408   1.437   1.108 -1.3414 -0.6133  1.9132
  271SOL    HW2  813   0.379   1.412   1.272 -1.9114  2.2736  0.5721
  272SOL     OW  814   1.909   2.893   1.897 -0.1164  0.6361 -0.1453
  272SOL    HW1  815   1.871   2.845   1.812 -1.0970 -0.3806 -2.5430
  272SOL    HW2  816   1.999   2.938   1.881 -0.3182  0.2893  0.9898
  273SOL     OW  817   1.457   1.438   2.855 -0.1890 -0.2717 -0.2597
  273SOL    HW1  818   1.546   1.468   2.898  0.3400 -0.3754 -1.0416
  273SOL    HW2  819   1.378   1.471   2.913  2.6076 -2.0216  2.1277
  274SOL     OW  820   1.172   0.514   2.030 -0.3504 -0.3494 -0.4903
  274SOL    HW1  821   1.206   0.432   1.977 -1.5803  0.7280  0.2876
  274SOL    HW2  822   1.220   0.524   2.127  1.6567 -1.8854  1.4766
  275SOL     OW  823   0.626   2.066   1.996  0.2185 -0.1157  0.7504
  275SOL    HW1  824   0.603   2.165   1.990  1.2160 -1.6759  0.2680
  275SOL    HW2  825   0.545   2.002   1.974 -0.7321  1.3427 -0.5214
  276SOL     OW  826   2.163   0.998   2.805  0.1966 -0.1522 -0.1116
  276SOL    HW1  827   2.075   1.006   2.755 -2.8647  2.4785 -1.1146
  276SOL    HW2  828   2.157   0.929   2.883 -0.5552  1.4497  0.3108
  277SOL     OW  829   3.035   0.841   0.187  0.1698 -0.0346  0.2402
  277SOL    HW1  830   3.121   0.832   0.139 -2.2948  0.2761  0.2270
  277SOL    HW2  831   3.042   0.786   0.273 -0.8348  1.1004 -1.8902
  278SOL     OW  832   0.183   0.254   2.986  0.1106 -0.3497  0.4402
  278SOL    HW1  833   0.231   0.163   3.020 -0.2726 -1.5657 -1.9725
  278SOL    HW2  834   0.235   0.341   2.999 -3.7331 -1.0517 -1.5189
  279SOL     OW  835   0.154   0.010   0.860  0.0883  0.9593  0.0057
  279SOL    HW1  836   0.182   0.007   0.959  0.2391 -2.5053 -1.6286
  279SOL    HW2  837   0.231   0.015   0.787  1.5928  1.1402  0.4069
  280SOL     OW  838   1.682   2.943   2.522 -0.2958  0.0128 -0.1460
  280SOL    HW1  839   1.757   3.011   2.536 -2.7291 -4.2141  1.9247
  280SOL    HW2  840   1.593   2.988   2.502  1.0402 -2.5128  0.5284
  281SOL     OW  841   0.591   0.964   2.343 -0.7993  0.1372 -0.6211
  281SOL    HW1  842   0.560   0.866   2.331  0.0788  0.2869 -0.1342
  281SOL    HW2  843   0.617   0.995   2.435 -0.8685  1.3724 -0.1821
  282SOL     OW  844   1.688   2.440   0.515  0.2823 -0.0253 -0.5262
  282SOL    HW1  845   1.637   2.367   0.462  0.0848  2.8563  0.7692
  282SOL    HW2  846   1.635   2.531   0.503  2.5716  1.6607 -2.8585
  283SOL     OW  847   1.172   0.972   0.734  0.3375  0.0079  0.2096
  283SOL    HW1  848   1.199   0.909   0.813  2.0977 -1.2497  2.2465
  283SOL    HW2  849   1.137   1.061   0.774  0.0004 -1.9619  0.5712
  284SOL     OW  850   2.311   2.792   2.389  0.5380  0.1908  0.3067
  284SOL    HW1  851   2.406   2.779   2.354  2.3112  0.7395 -0.8053
  284SOL    HW2  852   2.307   2.777   2.489  1.0837 -2.6299 -2.2535
  285SOL     OW  853   1.369   2.989   2.529 -0.8092 -0.8733 -0.4458
  285SOL    HW1  854   1.406   3.027   2.435  0.3954 -1.9280 -2.3109
  285SOL    HW2  855   1.281   3.033   2.559  2.1564  0.4356 -0.5637
  286SOL     OW  856   0.474   0.450   0.677  0.0942 -0.6410  0.3851
  286SOL    HW1  857   0.437   0.438   0.776  1.1310 -1.0463  1.9960
  286SOL    HW2  858   0.453   0.371   0.613 -0.0375 -0.6766 -0.7487
  287SOL     OW  859   0.094   1.341   2.478  0.3483  0.2542 -0.1153
  287SOL    HW1  860   0.073   1.256   2.536 -0.6394 -1.6410 -0.7173
  287SOL    HW2  861   0.035   1.423   2.506 -0.4050 -1.2642 -2.8321
  288SOL     OW  862   1.594   2.648   1.465  0.4563  0.5708  0.1589
  288SOL    HW1  863   1.691   2.631   1.501 -2.6738  1.7413 -3.9916
  288SOL    HW2  864   1.577   2.640   1.360  1.0869  1.2692 -2.0263
  289SOL     OW  865   0.677   2.740   0.767 -0.6127  0.0662 -0.4695
  289SOL    HW1  866   0.697   2.826   0.714  1.4131  0.5026  2.5667
  289SOL    HW2  867   0.692   2.750   0.871 -2.9423 -0.2858  0.0296
  290SOL     OW  868   2.910   1.216   1.614 -0.6361 -0.7528 -0.4953
  290SOL    HW1  869   2.871   1.295   1.675  0.8463  2.6555  1.6603
  290SOL    HW2  870   2.922   1.129   1.667 -0.9031 -1.3424 -0.4103
  291SOL     OW  871   1.974   0.040   0.060  0.9500  0.7223  0.2297
  291SOL    HW1  872   1.985   0.047   0.164 -2.8850  1.5965  0.5074
  291SOL    HW2  873   2.000   0.129   0.014  0.2057  1.5710  3.2370
  292SOL     OW  874   2.954   1.183   3.046  0.3557 -0.4819 -0.0089
  292SOL    HW1  875   2.877   1.220   2.986  0.5509 -1.4684 -1.0293
  292SOL    HW2  876   3.039   1.161   2.994 -0.8375 -1.2328 -1.1666
  293SOL     OW  877   0.619   2.072   0.126  0.8596 -0.2499 -0.0611
  293SOL    HW1  878   0.575   2.123   0.209  1.3788 -0.5236 -0.5309
  293SOL    HW2  879   0.718   2.042   0.148  1.8498  2.2687  2.3132
  294SOL     OW  880   1.679   2.143   1.773 -0.0770 -0.2496 -0.9755
  294SOL    HW1  881   1.682   2.181   1.869  0.0441  1.1558 -2.2115
  294SOL    HW2  882   1.695   2.213   1.702 -0.6363 -0.6614  1.8955
  295SOL     OW  883   0.967   1.040   0.396  0.8007 -0.8140 -0.4113
  295SOL    HW1  884   1.068   1.037   0.397 -0.7358 -0.1810 -0.8248
  295SOL    HW2  885   0.925   1.039   0.490 -1.0240  0.0064  3.2164
  296SOL     OW  886   1.294   2.040   2.508  0.0884 -0.4786  0.2948
  296SOL    HW1  887   1.328   2.054   2.418  0.1099 -0.4356  0.1210
  296SOL    HW2  888   1.285   1.940   2.526  1.0254  0.4980  3.2839
  297SOL     OW  889   1.484   0.665   1.347 -0.6245 -0.7151 -0.4541
  297SOL    HW1  890   1.560   0.597   1.329  0.5180  0.4502  1.9727
  297SOL    HW2  891   1.514   0.739   1.413 -0.1763 -0.8441 -0.2907
  298SOL     OW  892   0.485   1.223   2.858 -0.3641 -0.5221  0.1175
  298SOL    HW1  893   0.493   1.131   2.903  1.1505  0.9354  0.3434
  298SOL    HW2  894   0.565   1.250   2.801  0.1576 -0.8528  0.0128
  299SOL     OW  895   0.401   0.327   1.444  0.6675 -0.0774  0.4230
  299SOL    HW1  896   0.360   0.398   1.379 -3.2764  0.0536  2.1677
  299SOL    HW2  897   0.504   0.318   1.456  2.3065  0.7692  1.6232
  300SOL     OW  898   1.233   1.798   2.877 -0.4969  0.0679  0.3093
  300SOL    HW1  899   1.207   1.712   2.825 -0.3319 -1.8563 -0.4791
  300SOL    HW2  900   1.193   1.798   2.975 -2.0801  3.1879 -0.0090
  301SOL     OW  901   0.433   0.282   0.430  0.0569  0.2051 -0.3044
  301SOL    HW1  902   0.341   0.280   0.379 -1.8955 -0.4896  1.1630
  301SOL    HW2  903   0.487   0.195   0.408  1.0653 -2.8686 -3.1026
  302SOL     OW  904   1.229   2.304   2.325 -0.1375  1.0875  0.1570
  302SOL    HW1  905   1.147   2.323   2.392 -1.2401 -0.6378  0.3022
  302SOL    HW2  906   1.220   2.214   2.286  1.7712  2.3777  1.4407
  303SOL     OW  907   0.924   2.352   0.796  0.1185  0.6441  0.1639
  303SOL    HW1  908   0.953   2.392   0.705  3.1607 -2.1273  0.1350
  303SOL    HW2  909   0.945   2.420   0.871  0.7646  0.2261 -1.2139
  304SOL     OW  910   0.146   2.091   0.671  0.0147 -0.2101  0.7651
  304SOL    HW1  911   0.183   2.017   0.609  3.3869 -1.7625  0.9204
  304SOL    HW2  912   0.060   2.140   0.628  0.1325  1.3651  0.2356
  305SOL     OW  913   1.623   0.897   0.649 -0.3599 -0.0775 -0.8832
  305SOL    HW1  914   1.536   0.869   0.596  0.1486  1.0230  2.3522
  305SOL    HW2  915   1.686   0.814   0.644  0.5472  0.1489 -2.0440
  306SOL     OW  916   0.434   1.864   1.887  0.1758 -0.2438 -0.5342
  306SOL    HW1  917   0.520   1.819   1.853  0.1768  2.3938  2.3350
  306SOL    HW2  918   0.411   1.838   1.988  1.6887 -0.1677  0.3253
  307SOL     OW  919   0.021   0.825   2.573  0.0240  0.1769  0.5307
  307SOL    HW1  920   0.028   0.923   2.599  3.0352  0.1492 -1.2762
  307SOL    HW2  921  -0.055   0.771   2.618  0.6838 -2.0243 -0.0210
  308SOL     OW  922   1.577   2.624   2.862 -0.1672 -0.2190  0.5848
  308SOL    HW1  923   1.602   2.572   2.773 -0.8286 -3.0509 -2.5425
  308SOL    HW2  924   1.478   2.607   2.889  1.7224  2.3876 -0.2983
  309SOL     OW  925   1.231   0.036   1.764 -0.0857  0.4427 -0.2926
  309SOL    HW1  926   1.328   0.035   1.782 -0.3978 -1.5494 -2.1081
  309SOL    HW2  927   1.212   0.082   1.675  0.4873  0.1396  1.2897
  310SOL     OW  928   1.353   2.640   0.712  0.6152 -0.3922 -0.3201
  310SOL    HW1  929   1.337   2.734   0.750  2.7565 -0.5074  2.5749
  310SOL    HW2  930   1.436   2.630   0.652  1.3758  3.4327  0.2438
  311SOL     OW  931   1.226   0.921   1.504  0.1361 -0.1491  0.5668
  311SOL    HW1  932   1.273   0.894   1.418  3.1994  0.8552 -0.7707
  311SOL    HW2  933   1.266   1.009   1.551  1.7909 -1.0689  0.8974
  312SOL     OW  934   1.602   0.686   0.947 -0.2138  0.2045 -0.2056
  312SOL    HW1  935   1.607   0.783   0.978  1.4543 -0.5490  1.1082
  312SOL    HW2  936   1.507   0.648   0.946 -0.5869  1.1396 -0.7925
  313SOL     OW  937   1.565   1.438   0.618 -0.3652 -0.2554  0.1091
  313SOL    HW1  938   1.466   1.454   0.599 -1.0626 -0.7608 -0.3335
  313SOL    HW2  939   1.589   1.336   0.606 -1.0333 -2.3096  0.2335
  314SOL     OW  940   2.953   0.008   2.992  0.1449  0.3092  0.1250
  314SOL    HW1  941   2.914   0.085   3.047 -0.0814 -1.7981  2.7907
  314SOL    HW2  942   2.900  -0.079   3.012  1.8423  1.2899 -0.1765
  315SOL     OW  943   1.253   0.233   2.780  0.0137  0.3137  0.1825
  315SOL    HW1  944   1.237   0.140   2.734  0.4204  0.2511 -1.8824
  315SOL    HW2  945   1.236   0.223   2.881 -2.1181 -0.4259 -1.7149
  316SOL     OW  946   1.691   2.073   0.897  0.1558  0.0337  0.2693
  316SOL    HW1  947   1.643   2.094   0.989 -0.1596  1.0529  1.2408
  316SOL    HW2  948   1.713   2.155   0.846  0.3483 -3.0400 -1.0605
  317SOL     OW  949   1.127   0.690   2.858 -0.6538 -0.0751 -0.0622
  317SOL    HW1  950   1.057   0.729   2.920  1.3868 -0.7189 -0.2700
  317SOL    HW2  951   1.098   0.600   2.812  2.6713 -1.7649 -0.9975
  318SOL     OW  952   1.445   3.074   2.297  0.2925 -0.1150  0.5153
  318SOL    HW1  953   1.416   3.161   2.259  3.0828 -3.4290  0.0641
  318SOL    HW2  954   1.466   3.008   2.220 -0.1985  4.3718  0.3335
  319SOL     OW  955   0.641   2.397   2.939  0.0550  0.2171 -0.2601
  319SOL    HW1  956   0.567   2.376   3.005  2.9682  0.4241 -0.1137
  319SOL    HW2  957   0.694   2.312   2.923 -0.8832 -0.1976  1.4941
  320SOL     OW  958   1.626   2.214   0.366  0.2306 -0.5989 -0.5417
  320SOL    HW1  959   1.730   2.182   0.370 -0.0983  0.2624 -0.2777
  320SOL    HW2  960   1.567   2.179   0.446 -2.2960 -0.5527 -2.5962
  321SOL     OW  961   1.580   2.697   0.532 -0.4878 -0.4820  0.1714
  321SOL    HW1  962   1.501   2.742   0.481 -0.3721 -0.7937  1.4771
  321SOL    HW2  963   1.661   2.760   0.549  2.5206 -0.6749 -1.1104
  322SOL     OW  964   2.615   1.134   2.280 -1.0069 -0.0512 -0.6042
  322SOL    HW1  965   2.691   1.154   2.350 -2.6405  1.0861  1.4465
  322SOL    HW2  966   2.572   1.042   2.290  0.9415 -3.6823  1.4825
  323SOL     OW  967   0.974   2.690   0.813 -0.4208 -0.8835 -0.5628
  323SOL    HW1  968   0.999   2.625   0.740  0.5803  0.2385  1.3080
  323SOL    HW2  969   1.015   2.785   0.804 -0.3249  1.3117  0.8069
  324SOL     OW  970   0.124   2.477   2.457  0.4287  0.1792  0.1637
  324SOL    HW1  971   0.110   2.391   2.516 -2.0514 -0.5258  1.8431
  324SOL    HW2  972   0.091   2.563   2.504  1.9007  1.0668  0.8619
  325SOL     OW  973   1.193   3.096   0.462  0.0125 -0.0002  0.0054
  325SOL    HW1  974   1.251   3.118   0.377 -1.9761 -1.7827  1.5143
  325SOL    HW2  975   1.225   3.136   0.554 -1.1541 -0.7746 -0.4743
  326SOL     OW  976   2.413   0.752   3.096  0.4413  0.0156 -0.1872
  326SOL    HW1  977   2.379   0.717   3.005  3.3032  0.8327  0.1920
  326SOL    HW2  978   2.436   0.676   3.166 -0.0710 -1.6082 -1.2822
  327SOL     OW  979   2.767   0.397   0.539  1.5825 -0.1825  0.0546
  327SOL    HW1  980   2.751   0.364   0.440 -0.7169  0.7657 -0.8806
  327SOL    HW2  981   2.679   0.412   0.588  2.6496  2.3132 -2.2166
  328SOL     OW  982   2.479   0.555   0.438 -0.0143 -0.1790 -0.5377
  328SOL    HW1  983   2.378   0.586   0.439 -1.6422 -0.0073 -2.6912
  328SOL    HW2  984   2.510   0.488   0.515  1.6191 -1.1267  0.1051
  329SOL     OW  985   2.982   3.015   2.149 -0.2942 -0.2671 -0.2459
  329SOL    HW1  986   3.026   2.961   2.229 -1.3407 -3.3085  1.2331
  329SOL    HW2  987   3.034   3.104   2.132 -0.0627 -1.9329 -0.7955
  330SOL     OW  988   0.517   0.160   1.900 -0.0473  0.1270 -0.0708
  330SOL    HW1  989   0.567   0.248   1.883  1.5282  0.3774  0.7200
  330SOL    HW2  990   0.546   0.127   1.997  2.2861 -0.4643 -0.1422
  331SOL     OW  991   2.941   1.912   1.139 -0.4058  0.5504  0.4817
  331SOL    HW1  992   2.966   1.997   1.084 -0.9067  1.3908 -0.7759
  331SOL    HW2  993   2.872   1.931   1.212  0.7517 -2.2497 -0.9890
  332SOL     OW  994   0.436   1.082   0.058 -0.1364  1.1394  0.4131
  332SOL    HW1  995   0.356   1.034   0.007  1.5794  1.2005  1.1899
  332SOL    HW2  996   0.404   1.153   0.124 -0.6303 -0.9577  1.7393
  333SOL     OW  997   2.848   1.016   0.298  0.6722  0.3303  0.4515
  333SOL    HW1  998   2.918   1.079   0.343  2.7613 -1.5810  0.7053
  333SOL    HW2  999   2.892   0.951   0.228 -0.7946  0.0612 -1.5104
  334SOL     OW 1000   1.653   1.155   1.915 -0.3600 -0.0149  0.2552
  334SOL    HW1 1001   1.751   1.149   1.881  2.1664  1.5032  2.5468
  334SOL    HW2 1002   1.634   1.243   1.972 -0.3005  0.3567 -1.0986
  335SOL     OW 1003   1.990   2.780   2.628  0.5365 -0.1459  0.5454
  335SOL    HW1 1004   1.909   2.801   2.689 -0.2587  1.2609  1.4999
  335SOL    HW2 1005   2.073   2.841   2.620  1.3398  0.8765 -0.5314
  336SOL     OW 1006   0.252   0.103   2.739  0.0288 -0.0337 -0.1086
  336SOL    HW1 1007   0.350   0.075   2.754  0.1655  2.9753  0.2062
  336SOL    HW2 1008   0.221   0.181   2.802  2.0760 -0.1262  2.4035
  337SOL     OW 1009   0.909   2.778   2.840 -0.1059 -0.8157 -0.0944
  337SOL    HW1 1010   0.897   2.754   2.943 -1.4821  0.8940  1.0569
  337SOL    HW2 1011   0.995   2.734   2.797 -1.6326 -0.2658 -0.7875
  338SOL     OW 1012   0.016   1.011   0.608  0.6478 -0.4733  0.1826
  338SOL    HW1 1013  -0.081   0.973   0.614 -0.3488 -1.0587 -3.3822
  338SOL    HW2 1014   0.022   1.115   0.611 -1.8901  1.8613 -1.1236
  339SOL     OW 1015   1.673   1.396   2.072 -0.3095 -0.1529  0.3063
  339SOL    HW1 1016   1.579   1.434   2.072 -0.4087  2.3906 -1.5812
  339SOL    HW2 1017   1.742   1.473   2.073  0.2971  1.3304 -1.7642
  340SOL     OW 1018   2.295   0.802   1.176  0.1996  0.2810 -0.0342
  340SOL    HW1 1019   2.192   0.828   1.183 -1.2986  0.6514  0.6847
  340SOL    HW2 1020   2.310   0.719   1.116 -0.8674  0.1177 -1.6456
  341SOL     OW 1021   1.908   2.140   0.371  0.9103 -0.7521 -0.0509
  341SOL    HW1 1022   1.936   2.196   0.289 -0.9755  0.6554  2.7799
  341SOL    HW2 1023   1.985   2.116   0.433 -0.0830 -1.3549  2.2425
  342SOL     OW 1024   2.208   2.085   2.750 -0.0737 -0.5135  0.2987
  342SOL    HW1 1025   2.259   2.002   2.725 -0.1526  0.5060  2.6466
  342SOL    HW2 1026   2.111   2.054   2.786 -1.6399 -1.8476 -2.4445
  343SOL     OW 1027   0.342   0.845   2.789 -0.6322 -0.6472 -0.6753
  343SOL    HW1 1028   0.321   0.914   2.708 -0.8563  0.0126 -3.7849
  343SOL    HW2 1029   0.440   0.841   2.817  0.9023 -1.9350  1.2578
  344SOL     OW 1030   1.902   1.477   0.377  0.0014 -0.1399  0.5234
  344SOL    HW1 1031   1.914   1.380   0.335 -1.6098 -1.4014  2.0318
  344SOL    HW2 1032   1.815   1.524   0.344 -2.4477 -2.0263  3.6641
  345SOL     OW 1033   1.378   2.211   2.841 -0.2225  0.1815  0.0936
  345SOL    HW1 1034   1.290   2.163   2.818  0.8361 -0.4177 -0.9714
  345SOL    HW2 1035   1.458   2.175   2.786 -0.5156 -0.0455 -0.2102
  346SOL     OW 1036   2.354   0.855   1.437 -0.7178 -0.4513  0.0750
  346SOL    HW1 1037   2.296   0.930   1.475  0.7798 -0.7747  1.3045
  346SOL    HW2 1038   2.326   0.822   1.343 -2.0464  0.6883 -0.8432
  347SOL     OW 1039   0.725   2.832   1.497  0.4605  0.5107  0.7882
  347SOL    HW1 1040   0.695   2.786   1.588 -1.1447 -0.9928  0.9261
  347SOL    HW2 1041   0.642   2.876   1.451  0.8955 -0.3514 -0.0782
  348SOL     OW 1042   0.113   0.706   2.864  0.2171 -0.2499 -0.4522
  348SOL    HW1 1043   0.018   0.728   2.833 -0.3274  3.1822  2.3336
  348SOL    HW2 1044   0.186   0.766   2.825 -1.7497  0.1460  1.6392
  349SOL     OW 1045   1.899   0.429   2.809  0.0604  0.2761  0.1350
  349SOL    HW1 1046   1.870   0.505   2.742 -3.0145 -2.9172  0.0283
  349SOL    HW2 1047   1.853   0.452   2.900 -1.8304  0.9665 -1.0084
  350SOL     OW 1048   1.692   0.404   0.368 -0.5896 -0.4634  0.3720
  350SOL    HW1 1049   1.776   0.397   0.431 -1.0716 -1.5953 -0.1622
  350SOL    HW2 1050   1.633   0.495   0.374  0.5528  2.7121  2.3444
  351SOL     OW 1051   0.910   0.921   2.079  0.4234 -0.0836 -0.1969
  351SOL    HW1 1052   0.934   1.021   2.068  1.6733 -1.4105  1.4172
  351SOL    HW2 1053   0.882   0.864   1.993 -0.6639 -0.4147 -1.0236
  352SOL     OW 1054   1.986   1.343   0.602 -0.0855 -0.3324  0.1688
  352SOL    HW1 1055   1.945   1.421   0.541 -0.1526  1.7846  2.3313
  352SOL    HW2 1056   2.086   1.363   0.627 -2.8409 -1.0993 -3.1299
  353SOL     OW 1057   2.133   2.866   1.130 -0.1675  0.0179  0.1125
  353SOL    HW1 1058   2.205   2.808   1.178 -0.8640 -2.2847  0.7303
  353SOL    HW2 1059   2.062   2.807   1.079 -2.2461  1.6000 -0.1234
  354SOL     OW 1060   0.255   1.393   2.855 -0.8340  0.1653 -0.0433
  354SOL    HW1 1061   0.241   1.447   2.771 -1.4358  1.2976 -0.6620
  354SOL    HW2 1062   0.337   1.327   2.856 -0.3466  1.0963  0.4729
  355SOL     OW 1063   0.466   1.505   0.563  0.5555  0.6005  0.1114
  355SOL    HW1 1064   0.484   1.602   0.596  1.6113 -1.6523  0.2787
  355SOL    HW2 1065   0.556   1.451   0.542 -0.8586 -0.3021 -0.2892
  356SOL     OW 1066   0.892   0.409   2.122  0.1459 -0.2967  0.2809
  356SOL    HW1 1067   0.968   0.471   2.101  0.8566 -1.7402  0.7848
  356SOL    HW2 1068   0.895   0.328   2.054  2.5623  1.0525  0.2228
  357SOL     OW 1069   1.052   1.283   0.243 -0.7123 -0.8184  0.6110
  357SOL    HW1 1070   0.993   1.291   0.164  1.2391  2.9123  1.5513
  357SOL    HW2 1071   1.035   1.201   0.301  0.1755  0.5021  1.8272
  358SOL     OW 1072   1.662   1.589   0.402 -0.2242 -0.4071  0.6190
  358SOL    HW1 1073   1.614   1.516   0.461  1.1078  0.3338  0.0154
  358SOL    HW2 1074   1.602   1.669   0.375  0.4674 -2.1453  2.3956
  359SOL     OW 1075   1.565   2.700   0.177 -0.1000 -0.2134 -0.2181
  359SOL    HW1 1076   1.568   2.634   0.101  0.9622  0.6822 -1.9700
  359SOL    HW2 1077   1.474   2.758   0.172  0.1930 -0.1766 -3.2098
  360SOL     OW 1078   0.895   0.602   0.500  0.3805  0.4584  0.9546
  360SOL    HW1 1079   0.817   0.621   0.566  2.9614  0.5725 -1.1466
  360SOL    HW2 1080   0.896   0.501   0.475 -1.2757  0.1789  0.6195
  361SOL     OW 1081   1.248   1.387   0.664 -0.3018 -0.4076 -0.2654
  361SOL    HW1 1082   1.289   1.419   0.751 -0.9284 -0.9844 -2.2473
  361SOL    HW2 1083   1.145   1.411   0.655  1.8189  1.3933 -0.4992
  362SOL     OW 1084   1.402   1.766   0.782 -0.2307 -0.1976 -0.2224
  362SOL    HW1 1085   1.428   1.708   0.863  0.6674  1.0393  0.7315
  362SOL    HW2 1086   1.485   1.812   0.740  1.0847 -0.2983 -4.1146
  363SOL     OW 1087   1.153   1.365   1.998  0.2883 -0.1275  0.1182
  363SOL    HW1 1088   1.110   1.439   2.058 -0.8362 -0.7277  0.2210
  363SOL    HW2 1089   1.209   1.404   1.917 -0.1087  1.1422 -2.3626
  364SOL     OW 1090   0.579   2.329   1.974 -0.2315 -0.3426 -0.3743
  364SOL    HW1 1091   0.484   2.375   1.985 -0.0799  0.6702  1.2031
  364SOL    HW2 1092   0.617   2.351   1.881 -2.1509 -1.4039  0.7671
  365SOL     OW 1093   1.090   1.922   1.368 -0.4793  0.4323  0.0349
  365SOL    HW1 1094   0.997   1.942   1.406  1.4883  0.0197 -0.6546
  365SOL    HW2 1095   1.091   1.854   1.291 -0.8278  1.6489 -0.4688
  366SOL     OW 1096   2.820   2.062   0.475  0.6319  0.1179 -0.3380
  366SOL    HW1 1097   2.727   2.014   0.462 -2.3888  1.6141  0.1127
  366SOL    HW2 1098   2.900   2.004   0.439 -2.0815  1.1802 -1.7053
  367SOL     OW 1099   0.803   1.229   0.080  0.3305 -0.4297 -0.0915
  367SOL    HW1 1100   0.788   1.138   0.125 -3.0808 -0.6069  4.5202
  367SOL    HW2 1101   0.822   1.221  -0.018  3.2931 -0.2788 -0.3657
  368SOL     OW 1102   1.567   0.529   0.686 -0.3397  0.5737  0.4657
  368SOL    HW1 1103   1.502   0.557   0.606  1.3858 -0.9947 -1.0589
  368SOL    HW2 1104   1.634   0.601   0.715 -0.2118 -0.7336 -1.4010
  369SOL     OW 1105   0.288   1.696   0.107  0.0688 -0.0023  0.1780
  369SOL    HW1 1106   0.310   1.789   0.158 -1.7636  2.9555  1.0767
  369SOL    HW2 1107   0.201   1.682   0.057  1.4056 -1.4125 -0.8676
  370SOL     OW 1108   0.407   2.120   0.969 -0.6743 -0.0615  0.4011
  370SOL    HW1 1109   0.424   2.219   0.943  2.0808 -1.9911 -1.9613
  370SOL    HW2 1110   0.306   2.097   0.968 -1.3081 -0.8008 -1.8375
  371SOL     OW 1111   2.904   2.204   2.753  0.1201 -0.1119 -0.1631
  371SOL    HW1 1112   2.903   2.154   2.847  2.2030 -3.5199  2.2512
  371SOL    HW2 1113   2.998   2.202   2.712 -1.7760  1.2621 -1.4170
  372SOL     OW 1114   0.910   1.865   0.949  0.0804 -0.8024 -0.6223
  372SOL    HW1 1115   0.892   1.967   0.939  2.7071 -0.6489 -0.2412
  372SOL    HW2 1116   1.008   1.842   0.920 -0.6265  0.7312  0.2419
  373SOL     OW 1117   1.982   2.009   0.926  0.5215 -0.5256  0.4567
  373SOL    HW1 1118   2.036   2.042   1.009  0.3600  1.3343  1.4905
  373SOL    HW2 1119   1.880   1.998   0.945 -1.7658  0.4323 -1.2105
  374SOL     OW 1120   1.904   0.430   0.545  0.4099  0.5333 -0.3413
  374SOL    HW1 1121   1.867   0.368   0.619 -5.2767 -1.7588  1.5236
  374SOL    HW2 1122   2.001   0.410   0.525 -1.6314  0.8973 -0.6184
  375SOL     OW 1123   2.415   2.215   1.091 -0.8736 -0.9775 -0.2331
  375SOL    HW1 1124   2.480   2.192   1.012  1.4911  1.2387  1.3197
  375SOL    HW2 1125   2.457   2.191   1.182  0.6501 -0.6811  1.8882
  376SOL     OW 1126   3.040   0.609   1.447 -0.2849  0.1746  0.2623
  376SOL    HW1 1127   3.101   0.664   1.514  1.6605 -0.3754  0.9617
  376SOL    HW2 1128   2.939   0.615   1.469  0.4946  0.5898 -1.5024
  377SOL     OW 1129   2.247   2.888   0.361  0.5746 -0.1892 -0.2994
  377SOL    HW1 1130   2.260   2.989   0.378 -1.0429  1.6158 -1.3653
  377SOL    HW2 1131   2.338   2.844   0.365 -1.3489  0.2526  0.8082
  378SOL     OW 1132   1.873   1.891   2.640 -0.2533  0.2020 -0.4436
  378SOL    HW1 1133   1.891   1.794   2.665  0.4127  1.3747  0.2865
  378SOL    HW2 1134   1.904   1.896   2.540 -2.5950 -2.0455 -1.1752
  379SOL     OW 1135   0.865   0.089   2.711 -0.7517 -0.4482  0.1179
  379SOL    HW1 1136   0.811   0.017   2.665 -0.7800  0.8358  1.5027
  379SOL    HW2 1137   0.813   0.179   2.721 -0.3928 -1.7903 -1.4022
  380SOL     OW 1138   1.534   1.148   0.580 -0.4632  0.1682  0.3044
  380SOL    HW1 1139   1.434   1.156   0.565  2.6003 -1.0379  1.7202
  380SOL    HW2 1140   1.554   1.056   0.618  0.2628 -1.9383 -3.3391
  381SOL     OW 1141   1.294   1.212   1.502  0.4929 -0.2216  0.2266
  381SOL    HW1 1142   1.350   1.236   1.418  0.9486  1.8041 -2.8414
  381SOL    HW2 1143   1.339   1.248   1.589 -0.9558  1.8280  0.1970
  382SOL     OW 1144   1.735   0.824   0.276  0.3101 -0.0798 -0.5949
  382SOL    HW1 1145   1.772   0.808   0.180 -0.3348 -1.8099  0.7756
  382SOL    HW2 1146   1.806   0.821   0.348 -0.8291 -1.8588  0.1153
  383SOL     OW 1147   2.611   1.025   1.529 -0.3045 -0.1448  0.2033
  383SOL    HW1 1148   2.528   1.012   1.466 -0.0562 -0.0067  2.9328
  383SOL    HW2 1149   2.693   0.986   1.487 -1.5694  0.3202 -1.6809
  384SOL     OW 1150   0.957   2.263   0.153 -0.5375 -0.3164 -0.3659
  384SOL    HW1 1151   0.903   2.352   0.167 -1.2828  1.8838 -0.4984
  384SOL    HW2 1152   0.934   2.199   0.229  0.7431  2.1607 -4.0336
  385SOL     OW 1153   3.020   2.017   1.720 -0.3810 -0.2106  0.4984
  385SOL    HW1 1154   3.095   2.084   1.753 -1.3080  0.1956  2.4923
  385SOL    HW2 1155   3.047   1.916   1.684  3.3483 -0.3807  0.4028
  386SOL     OW 1156   0.437   1.119   0.446 -0.0303 -0.0261 -0.3191
  386SOL    HW1 1157   0.458   1.021   0.426 -2.8681  1.0387 -0.2239
  386SOL    HW2 1158   0.363   1.157   0.378  0.9155  1.7515 -0.9523
  387SOL     OW 1159   0.970   0.346   1.682  0.2480 -0.1345 -0.2307
  387SOL    HW1 1160   1.037   0.426   1.667 -0.3029  0.8517  0.3173
  387SOL    HW2 1161   0.972   0.275   1.612  0.7135 -1.7225 -0.0467
  388SOL     OW 1162   1.207   2.603   1.782 -0.4586  0.4891  0.0730
  388SOL    HW1 1163   1.214   2.607   1.675 -2.1730  0.3250  0.8370
  388SOL    HW2 1164   1.244   2.511   1.819 -1.1727  1.0863  0.5422
  389SOL     OW 1165   0.244   3.076   1.145  0.1767  0.0119  0.3919
  389SOL    HW1 1166   0.204   3.079   1.245  0.1138 -2.3167  1.0933
  389SOL    HW2 1167   0.310   2.999   1.135 -2.4191  2.1552 -1.4377
  390SOL     OW 1168   1.007   0.853   1.265  0.7401  0.7382 -0.1671
  390SOL    HW1 1169   1.111   0.840   1.252  0.3285  0.4688 -2.0710
  390SOL    HW2 1170   0.978   0.852   1.362 -2.8141 -0.1244 -0.4059
  391SOL     OW 1171   2.128   1.147   1.012 -0.2047 -0.3725  0.1368
  391SOL    HW1 1172   2.061   1.072   0.991 -3.3447 -1.6373  0.1644
  391SOL    HW2 1173   2.205   1.153   0.945 -1.5681  0.0383 -0.8552
  392SOL     OW 1174   0.875   2.706   3.088 -0.2864  0.5743  0.0313
  392SOL    HW1 1175   0.797   2.684   3.158 -0.8558 -0.4172  1.9552
  392SOL    HW2 1176   0.964   2.740   3.135  0.7062  1.8276 -0.2929
  393SOL     OW 1177   0.327   0.583   1.970 -0.0190 -0.0944  0.2391
  393SOL    HW1 1178   0.239   0.534   1.943 -1.2067 -0.3641 -0.5292
  393SOL    HW2 1179   0.408   0.543   1.920  0.6341 -0.3254  1.5634
  394SOL     OW 1180   2.818   1.779   2.784  0.3143  0.2520  0.1685
  394SOL    HW1 1181   2.908   1.792   2.738 -0.2068  1.8100 -1.3948
  394SOL    HW2 1182   2.770   1.868   2.788  1.0144 -1.7443 -0.0719
  395SOL     OW 1183   1.592   1.929   0.670 -0.0794 -0.3075  0.4703
  395SOL    HW1 1184   1.679   1.882   0.645 -0.9788 -0.1394  0.0714
  395SOL    HW2 1185   1.612   1.980   0.756 -0.1242  0.7177 -0.0341
  396SOL     OW 1186   2.748   2.055   1.273  0.2600  0.3156 -0.7668
  396SOL    HW1 1187   2.787   2.042   1.370  0.7362  0.9851  0.8334
  396SOL    HW2 1188   2.650   2.090   1.273  1.0829 -1.6966 -0.1102
  397SOL     OW 1189   1.005   2.111   0.655  0.0022 -0.5152 -0.0669
  397SOL    HW1 1190   0.926   2.061   0.602 -1.1538 -2.5151 -2.4315
  397SOL    HW2 1191   0.966   2.187   0.713  1.1482 -2.5720 -1.3208
  398SOL     OW 1192   2.147   0.041   1.098 -0.7524  0.1792 -0.5210
  398SOL    HW1 1193   2.135  -0.059   1.101  0.8122  3.2741 -1.4899
  398SOL    HW2 1194   2.058   0.101   1.101 -2.2507  1.7906  1.8662
  399SOL     OW 1195   2.934   2.601   2.759  0.9340 -0.1449 -0.8455
  399SOL    HW1 1196   2.885   2.562   2.680  0.3262  0.1302 -0.9755
  399SOL    HW2 1197   2.904   2.553   2.846  1.0626  1.2156 -1.4570
  400SOL     OW 1198   0.820   1.602   1.270  0.2939  0.1011 -0.1739
  400SOL    HW1 1199   0.786   1.643   1.359  0.8957 -0.8897  0.6746
  400SOL    HW2 1200   0.764   1.632   1.190  1.4796 -0.1153 -0.3776
  401SOL     OW 1201   1.852   0.102   1.288 -0.2385  0.1017  0.3485
  401SOL    HW1 1202   1.904   0.152   1.361 -0.1826  2.7607  0.7166
  401SOL    HW2 1203   1.761   0.067   1.327 -1.6825 -0.4730 -2.2634
  402SOL     OW 1204   1.304   0.168   3.052 -0.2322 -0.7396 -0.4444
  402SOL    HW1 1205   1.388   0.155   2.995  1.0419 -1.6597  0.0374
  402SOL    HW2 1206   1.311   0.254   3.115 -0.9582  3.7027  4.8638
  403SOL     OW 1207   2.261   1.785   0.976 -0.1097  0.3919 -0.5441
  403SOL    HW1 1208   2.352   1.746   1.013  2.7998  0.4935 -2.1450
  403SOL    HW2 1209   2.220   1.858   1.033 -0.4696 -0.8321  0.7870
  404SOL     OW 1210   0.197   2.452   2.792  0.2775 -0.1546  0.6157
  404SOL    HW1 1211   0.291   2.425   2.755 -0.5998  0.5108 -1.3556
  404SOL    HW2 1212   0.161   2.543   2.766 -1.3589  0.0352 -2.0872
  405SOL     OW 1213   0.257   2.484   0.591  0.4072  0.2373  0.2423
  405SOL    HW1 1214   0.258   2.460   0.489 -0.0141  1.1351  0.7370
  405SOL    HW2 1215   0.284   2.584   0.611  1.4047 -2.0024  0.3341
  406SOL     OW 1216   0.028   1.512   2.981  0.1618 -0.2182 -0.5014
  406SOL    HW1 1217   0.108   1.469   2.935 -1.1584 -1.7820  0.7664
  406SOL    HW2 1218   0.039   1.510   3.085 -0.1812 -1.2037  0.3348
  407SOL     OW 1219   1.540   0.951   0.948  0.0450 -0.2886 -0.6461
  407SOL    HW1 1220   1.539   0.935   0.845 -0.2445 -0.4150 -0.3342
  407SOL    HW2 1221   1.475   1.028   0.976 -0.2123 -2.8625 -0.1285
  408SOL     OW 1222   1.450   2.343   0.955 -0.3379  0.3128  0.6209
  408SOL    HW1 1223   1.529   2.333   0.886  1.5542  2.2022  1.9336
  408SOL    HW2 1224   1.446   2.437   1.000  0.0574 -2.7095  0.4488
  409SOL     OW 1225   0.621   0.882   0.671  0.5225  0.2380 -0.3854
  409SOL    HW1 1226   0.549   0.881   0.592 -0.7855  1.3879 -1.3529
  409SOL    HW2 1227   0.660   0.785   0.682  0.1264 -2.4019 -1.7997
  410SOL     OW 1228   1.319   1.996   1.498  0.6933  0.3143  0.2271
  410SOL    HW1 1229   1.312   2.063   1.573  1.0300 -1.8685 -1.5016
  410SOL    HW2 1230   1.232   1.959   1.450 -0.6016 -0.8394  0.7289
  411SOL     OW 1231   2.362   1.848   0.034  0.1813 -0.2561 -0.2046
  411SOL    HW1 1232   2.289   1.849  -0.043  1.1544  0.9068  1.6375
  411SOL    HW2 1233   2.461   1.853   0.003  1.4345  0.0822  0.8878
  412SOL     OW 1234   1.503   2.416   2.261  0.0606 -0.4353 -0.4410
  412SOL    HW1 1235   1.443   2.497   2.242 -0.2123  0.3303 -2.8131
  412SOL    HW2 1236   1.501   2.373   2.351 -2.0790  1.3786 -0.7310
  413SOL     OW 1237   3.023   0.266   2.887  0.3946 -0.4105  0.6455
  413SOL    HW1 1238   2.996   0.164   2.883 -0.7133 -0.6923 -0.4494
  413SOL    HW2 1239   3.124   0.280   2.903  0.6874 -1.4595  1.2160
  414SOL     OW 1240   1.775   1.336   1.332  0.3092 -0.4701 -0.7225
  414SOL    HW1 1241   1.705   1.403   1.354  1.0578 -0.7901 -1.0729
  414SOL    HW2 1242   1.770   1.307   1.232  1.5178  0.6972  1.0607
  415SOL     OW 1243   0.353   2.245   0.669 -0.4335  0.9776 -0.4003
  415SOL    HW1 1244   0.342   2.346   0.655  1.1990  0.6049  0.0368
  415SOL    HW2 1245   0.266   2.183   0.668  2.1256  0.7692 -0.2947
  416SOL     OW 1246   0.351   1.040   1.041  0.1415 -0.1985 -0.3179
  416SOL    HW1 1247   0.310   1.008   0.950  0.0885 -1.5717  1.0030
  416SOL    HW2 1248   0.401   1.132   1.034  1.8865  2.7881  1.4020
  417SOL     OW 1249   2.149   2.332   1.860 -0.5559  0.0630  0.4103
  417SOL    HW1 1250   2.192   2.243   1.879  0.2970  2.1023 -1.2523
  417SOL    HW2 1251   2.053   2.330   1.888  1.1348 -0.4553 -1.6958
  418SOL     OW 1252   1.115   0.412   1.384  0.2701 -0.1806  0.1327
  418SOL    HW1 1253   1.026   0.387   1.343 -2.2998 -1.2981 -2.6386
  418SOL    HW2 1254   1.198   0.412   1.318  1.0136 -0.5270 -1.3484
  419SOL     OW 1255   0.976   0.358   3.004 -0.2969  0.0239 -0.1542
  419SOL    HW1 1256   1.013   0.403   2.920 -0.4648  0.5332  0.8799
  419SOL    HW2 1257   0.942   0.260   2.995  1.0062 -0.7849  1.7800
  420SOL     OW 1258   0.201   2.292   0.362 -0.3262 -0.3251 -0.0272
  420SOL    HW1 1259   0.181   2.233   0.282  3.2336  0.8508  2.7640
  420SOL    HW2 1260   0.120   2.296   0.429  1.2701  1.2353  0.9250
  421SOL     OW 1261   0.347   0.032   0.665 -0.0845 -0.9079 -0.3944
  421SOL    HW1 1262   0.368  -0.053   0.611 -0.8739 -2.3407  0.0450
  421SOL    HW2 1263   0.437   0.083   0.686  0.0670 -0.6548 -0.3045
  422SOL     OW 1264   0.935   2.514   1.030 -0.0220 -0.0666 -0.5549
  422SOL    HW1 1265   0.923   2.601   0.974  1.1051  1.4963  0.3318
  422SOL    HW2 1266   0.992   2.518   1.113 -2.6707 -0.1338 -1.3383
  423SOL     OW 1267   0.022   0.708   1.213 -0.4432  0.7866 -0.5720
  423SOL    HW1 1268  -0.014   0.654   1.294 -0.5542 -0.9314  2.5548
  423SOL    HW2 1269  -0.026   0.799   1.203 -0.5334 -0.8655  0.7318
  424SOL     OW 1270   0.989   2.150   2.227  0.4543 -0.0325 -0.4117
  424SOL    HW1 1271   1.018   2.247   2.208 -1.1546 -0.2334  0.6476
  424SOL    HW2 1272   0.940   2.144   2.316  2.9467 -1.7714  1.7539
  425SOL     OW 1273   2.035   1.416   1.085 -0.0244 -0.2682  0.4002
  425SOL    HW1 1274   2.069   1.316   1.076  0.9688 -1.2568 -0.4961
  425SOL    HW2 1275   2.056   1.467   0.997  1.5166 -1.1155 -4.6753
  426SOL     OW 1276   1.566   1.493   1.393 -0.2445  0.6384  0.4996
  426SOL    HW1 1277   1.560   1.577   1.337 -0.7402 -2.0554  1.9844
  426SOL    HW2 1278   1.529   1.506   1.487 -0.1044  1.6460 -0.6543
  427SOL     OW 1279   1.930   2.353   2.028 -0.1671  0.3164 -0.4477
  427SOL    HW1 1280   1.982   2.285   2.085  0.6507 -2.8212 -1.1342
  427SOL    HW2 1281   1.969   2.450   2.033 -2.1341  0.5289  0.3397
  428SOL     OW 1282   0.936   3.069   0.100  0.2235  0.0908  0.4561
  428SOL    HW1 1283   0.985   3.155   0.131 -0.6678 -1.3363 -1.0460
  428SOL    HW2 1284   0.991   2.987   0.114  0.9315  0.9691 -0.6847
  429SOL     OW 1285   1.321   0.014   0.218  0.3210  0.0780 -0.0358
  429SOL    HW1 1286   1.412   0.067   0.225  0.8587  0.4459  1.4537
  429SOL    HW2 1287   1.303  -0.018   0.118 -0.2263  1.0070  1.2008
  430SOL     OW 1288   2.817   1.505   0.369  0.0623  0.6864  0.2517
  430SOL    HW1 1289   2.759   1.552   0.298 -2.4834 -0.0116 -2.4693
  430SOL    HW2 1290   2.820   1.553   0.463  0.5537 -0.4672  0.0824
  431SOL     OW 1291   2.120   1.587   0.857  0.0573 -0.1487  0.0242
  431SOL    HW1 1292   2.196   1.647   0.896  1.1417  0.0415 -2.2996
  431SOL    HW2 1293   2.035   1.645   0.844 -0.1714  0.4467 -0.7964
  432SOL     OW 1294   2.890   2.303   1.231 -0.2573 -0.4578 -0.1881
  432SOL    HW1 1295   2.815   2.239   1.269  0.2665 -1.0836  4.1162
  432SOL    HW2 1296   2.965   2.331   1.301 -0.0395 -2.2582 -0.4260
  433SOL     OW 1297   1.843   0.292   0.795 -0.1566  0.3999 -0.1958
  433SOL    HW1 1298   1.753   0.315   0.841  0.2192  2.1248 -1.4735
  433SOL    HW2 1299   1.897   0.221   0.854 -0.3848 -0.5817 -0.9480
  434SOL     OW 1300   1.535   0.260   0.724  0.0413  0.3789 -0.1630
  434SOL    HW1 1301   1.547   0.351   0.685 -0.1303 -2.7773 -0.8921
  434SOL    HW2 1302   1.551   0.260   0.831  2.9708  1.9980 -0.0599
  435SOL     OW 1303   1.414   1.514   2.128  0.0886  0.5190 -0.0428
  435SOL    HW1 1304   1.381   1.493   2.227  1.8219  0.7100 -1.4583
  435SOL    HW2 1305   1.356   1.588   2.082 -0.9400 -0.5574  2.3714
  436SOL     OW 1306   1.621   2.729   2.385 -0.1952  0.5903  0.3034
  436SOL    HW1 1307   1.644   2.817   2.437  0.2264 -0.0273 -1.3978
  436SOL    HW2 1308   1.592   2.646   2.444  1.2017  0.7385  1.0810
  437SOL     OW 1309   1.046   2.966   0.818  0.5959 -0.6201 -0.0228
  437SOL    HW1 1310   0.976   3.043   0.809  3.4157  0.1392  0.9388
  437SOL    HW2 1311   1.093   2.964   0.909  1.6494  1.4946 -0.8322
  438SOL     OW 1312   0.995   2.519   1.319  0.2915 -0.5423 -0.1935
  438SOL    HW1 1313   1.055   2.564   1.385 -3.1324  1.0463 -1.0285
  438SOL    HW2 1314   0.987   2.418   1.330 -0.3703 -0.4754 -2.9514
  439SOL     OW 1315   0.700   1.691   1.028  0.2160 -0.3657 -0.1051
  439SOL    HW1 1316   0.777   1.758   0.991 -0.5921  2.6173 -1.5927
  439SOL    HW2 1317   0.604   1.732   1.028 -1.0235 -0.9241 -1.2900
  440SOL     OW 1318   1.030   2.403   2.019  0.6533  1.4355  0.8517
  440SOL    HW1 1319   0.972   2.442   1.939 -1.6406 -2.5374  0.7015
  440SOL    HW2 1320   1.131   2.406   2.000 -1.0601  0.4916 -0.7969
  441SOL     OW 1321   0.347   2.732   1.301 -0.8133 -0.9665  0.0910
  441SOL    HW1 1322   0.394   2.635   1.302 -1.6006 -3.4215  1.5383
  441SOL    HW2 1323   0.379   2.789   1.217  1.1670 -2.4704 -0.7963
  442SOL     OW 1324   2.241   0.651   2.570 -0.0717  0.2305  0.1282
  442SOL    HW1 1325   2.245   0.553   2.532  1.6776 -0.3153  4.8008
  442SOL    HW2 1326   2.156   0.707   2.548 -0.9025 -1.2093 -1.7746
  443SOL     OW 1327   1.251   2.554   2.208  0.3983  0.0232  0.3237
  443SOL    HW1 1328   1.257   2.460   2.253 -1.3075  0.2224  0.3330
  443SOL    HW2 1329   1.202   2.627   2.272  0.1673  0.6607  1.4496
  444SOL     OW 1330   1.011   1.209   1.466  0.3888  0.4678 -0.3696
  444SOL    HW1 1331   1.111   1.198   1.472  1.4328  1.4308 -0.3735
  444SOL    HW2 1332   0.980   1.307   1.471  0.6602  2.0070  0.5638
  445SOL     OW 1333   0.191   2.264   2.114  0.1374  0.2682 -0.6126
  445SOL    HW1 1334   0.094   2.264   2.092 -1.4905 -0.8064  1.7264
  445SOL    HW2 1335   0.232   2.170   2.127  0.4648  0.0801 -0.0646
  446SOL     OW 1336   0.127   1.950   2.374  0.5536  0.3211  0.0644
  446SOL    HW1 1337   0.064   2.030   2.372 -1.9427 -2.0698  1.2167
  446SOL    HW2 1338   0.104   1.898   2.285 -1.0692  0.4865 -1.9191
  447SOL     OW 1339   1.285   1.729   1.913 -0.1421 -0.4142  0.1859
  447SOL    HW1 1340   1.212   1.800   1.920  1.3020  1.1526  1.9135
  447SOL    HW2 1341   1.377   1.763   1.947  0.7277  1.2052 -0.0980
  448SOL     OW 1342   0.184   1.466   2.030  0.1852 -0.4113  0.4059
  448SOL    HW1 1343   0.170   1.561   1.984 -0.4494  1.9194 -2.7743
  448SOL    HW2 1344   0.105   1.430   2.083 -0.9151  2.1614 -0.3781
  449SOL     OW 1345   1.830   2.939   0.808  0.5565  0.0928  0.5933
  449SOL    HW1 1346   1.821   2.971   0.903  0.5608  1.4707  1.2137
  449SOL    HW2 1347   1.865   2.839   0.806  2.1637  0.1808 -0.2809
  450SOL     OW 1348   2.251   1.467   0.671 -0.3521 -0.0493  0.2136
  450SOL    HW1 1349   2.216   1.511   0.760 -1.4646  0.4233  1.5988
  450SOL    HW2 1350   2.290   1.534   0.601 -0.3960  0.8900  0.7847
  451SOL     OW 1351   1.407   3.006   1.461 -0.2283  0.2160  0.1062
  451SOL    HW1 1352   1.359   3.094   1.468  1.9353 -1.6050 -0.9464
  451SOL    HW2 1353   1.443   2.987   1.557 -0.0865  0.1315  2.8535
  452SOL     OW 1354   2.703   2.323   2.254 -0.3526  0.1689 -0.0418
  452SOL    HW1 1355   2.630   2.395   2.268 -1.0469 -1.3671  0.2361
  452SOL    HW2 1356   2.727   2.270   2.337  3.7032  2.0120 -2.3706
  453SOL     OW 1357   2.463   2.657   3.080  0.0803 -0.1948  0.0383
  453SOL    HW1 1358   2.371   2.696   3.125  0.6366 -0.7806  1.7374
  453SOL    HW2 1359   2.450   2.570   3.015 -0.0728 -3.2740 -3.0915
  454SOL     OW 1360   0.938   1.185   2.017  0.0887  0.5986 -0.4327
  454SOL    HW1 1361   0.918   1.160   1.919  1.0593 -0.4003 -0.5666
  454SOL    HW2 1362   1.014   1.256   2.017 -1.3734  1.1710 -0.1459
  455SOL     OW 1363   0.640   2.638   2.799  0.0033  0.4679  0.6044
  455SOL    HW1 1364   0.719   2.695   2.834 -3.5909 -0.6524  0.4085
  455SOL    HW2 1365   0.642   2.550   2.858 -0.4795  1.1843 -1.5142
  456SOL     OW 1366   0.366   1.939   0.231  0.7233  0.3537 -0.4698
  456SOL    HW1 1367   0.470   1.936   0.223  1.2810 -0.8242 -1.1005
  456SOL    HW2 1368   0.323   2.032   0.217  0.6005  0.7270  0.8365
  457SOL     OW 1369   0.412   2.761   0.666  0.4994  0.4924 -0.2770
  457SOL    HW1 1370   0.403   2.826   0.590 -0.7944 -0.6364  1.2967
  457SOL    HW2 1371   0.510   2.753   0.705  1.2684  2.3996 -3.6448
  458SOL     OW 1372   2.927   0.039   1.263 -0.2195 -0.0370 -0.2532
  458SOL    HW1 1373   2.976   0.130   1.258 -1.0819 -0.6050  2.1807
  458SOL    HW2 1374   2.945  -0.026   1.184  1.9813  3.1664 -0.0877
  459SOL     OW 1375   2.180   2.481   0.759  0.5907  0.1197  0.2362
  459SOL    HW1 1376   2.234   2.539   0.823 -0.2738  1.3571 -1.6141
  459SOL    HW2 1377   2.247   2.429   0.702  0.2025 -2.3934  2.5614
  460SOL     OW 1378   1.164   2.059   2.761  0.7727  0.1480 -0.3075
  460SOL    HW1 1379   1.204   2.074   2.667  0.0161 -0.6434 -1.2355
  460SOL    HW2 1380   1.180   1.963   2.801 -0.8051  0.5805 -0.2915
  461SOL     OW 1381   0.469   2.137   2.722 -0.2172  0.1404  0.0525
  461SOL    HW1 1382   0.412   2.081   2.654 -1.4462 -1.5782 -1.6159
  461SOL    HW2 1383   0.490   2.074   2.801  2.0212 -1.7402  2.6663
  462SOL     OW 1384   0.952   1.012   1.752 -0.1005  0.0537  0.1758
  462SOL    HW1 1385   0.970   0.934   1.685  2.4339 -0.1427 -1.4198
  462SOL    HW2 1386   0.890   1.087   1.714 -2.3106  0.2765 -1.6159
  463SOL     OW 1387   0.440   0.829   0.467 -0.2939  0.7123  0.3222
  463SOL    HW1 1388   0.469   0.728   0.438  2.3172 -0.4568  0.9156
  463SOL    HW2 1389   0.337   0.834   0.486 -0.4610  2.2908  1.9466
  464SOL     OW 1390   0.593   2.337   2.235  0.2689  0.2559  0.2110
  464SOL    HW1 1391   0.524   2.402   2.271 -0.1413 -1.3325  0.3499
  464SOL    HW2 1392   0.615   2.346   2.135  0.9359  0.5731  0.9593
  465SOL     OW 1393   0.241   0.935   0.799  0.4915  0.7494  0.4243
  465SOL    HW1 1394   0.163   0.965   0.737 -2.1707 -0.7768  0.2301
  465SOL    HW2 1395   0.265   0.832   0.804 -0.1643 -0.4508 -0.1785
  466SOL     OW 1396   1.362   1.134   1.023  0.0468  0.0969  0.2325
  466SOL    HW1 1397   1.328   1.229   0.999 -0.6167 -1.1493  0.9997
  466SOL    HW2 1398   1.284   1.078   1.061  1.3451 -2.7025 -0.1716
  467SOL     OW 1399   0.619   0.417   2.486 -0.1811  0.3520 -0.8657
  467SOL    HW1 1400   0.546   0.491   2.502 -0.8273 -1.6615  0.8982
  467SOL    HW2 1401   0.615   0.336   2.551  1.4076 -2.0337 -0.7439
  468SOL     OW 1402   0.443   2.250   1.598  0.0363 -0.1690  0.9389
  468SOL    HW1 1403   0.513   2.320   1.629  0.4400 -0.6583  1.2549
  468SOL    HW2 1404   0.453   2.222   1.499 -1.9725 -0.1210 -0.0376
  469SOL     OW 1405   1.403   1.363   1.234 -0.7400 -0.5880 -0.0028
  469SOL    HW1 1406   1.433   1.350   1.141 -0.9053  1.9290  3.1943
  469SOL    HW2 1407   1.478   1.402   1.296  0.5684 -2.6468  0.8268
  470SOL     OW 1408   3.027   1.803   0.762  0.3266 -0.0075 -0.5481
  470SOL    HW1 1409   3.105   1.793   0.699  0.1550 -3.3920  1.4253
  470SOL    HW2 1410   3.042   1.754   0.853  1.5314 -3.5122  0.2575
  471SOL     OW 1411   2.595   1.387   2.191 -0.5812  0.4797 -0.1946
  471SOL    HW1 1412   2.582   1.292   2.232  0.0944 -0.5015  0.0073
  471SOL    HW2 1413   2.686   1.433   2.221 -0.0175 -1.2974 -0.4874
  472SOL     OW 1414   1.151   2.496   0.100  0.1779 -0.2309  0.5728
  472SOL    HW1 1415   1.209   2.487   0.186 -2.1476  1.6929  1.1751
  472SOL    HW2 1416   1.083   2.419   0.093  0.8140 -1.8639  1.6250
  473SOL     OW 1417   1.061   1.535   1.008 -0.3017 -0.4028  0.1285
  473SOL    HW1 1418   0.971   1.510   0.963  0.0114 -0.4487 -2.3256
  473SOL    HW2 1419   1.081   1.489   1.099 -1.3356  0.1522 -0.2708
  474SOL     OW 1420   0.646   1.284   0.537  0.1393 -0.1448  0.4913
  474SOL    HW1 1421   0.573   1.221   0.499  0.5780  1.2531 -0.5262
  474SOL    HW2 1422   0.724   1.228   0.579  2.4828  2.0468  0.8796
  475SOL     OW 1423   2.821   0.068   0.812 -0.3047 -0.3359  0.3240
  475SOL    HW1 1424   2.877   0.150   0.781 -0.9143  0.2864  3.5668
  475SOL    HW2 1425   2.753   0.099   0.883 -1.2850  2.0505 -1.6118
  476SOL     OW 1426   0.958   3.074   1.804 -0.1722 -0.4419  0.0794
  476SOL    HW1 1427   1.054   3.093   1.836 -0.5681  1.4674 -1.8571
  476SOL    HW2 1428   0.958   3.027   1.713  0.1634 -1.8157 -0.5443
  477SOL     OW 1429   1.435   0.310   2.404  0.6250 -0.8066 -0.1713
  477SOL    HW1 1430   1.430   0.338   2.502  0.7474 -0.4898 -0.4758
  477SOL    HW2 1431   1.526   0.268   2.375 -0.2557  0.2778 -1.9643
  478SOL     OW 1432   2.245   1.901   0.275  0.4542 -0.0212  0.2029
  478SOL    HW1 1433   2.211   1.804   0.305  0.1466  0.5510  2.2242
  478SOL    HW2 1434   2.282   1.890   0.182 -2.0440 -0.3116 -1.8240
  479SOL     OW 1435   1.256   0.964   2.898 -0.5176  0.2582  0.1553
  479SOL    HW1 1436   1.360   0.971   2.897 -1.0283  0.6858 -0.5030
  479SOL    HW2 1437   1.222   0.883   2.843  0.4077  0.6582 -0.2230
  480SOL     OW 1438   2.658   2.307   0.386  0.0905 -0.2624 -0.1775
  480SOL    HW1 1439   2.731   2.243   0.423  1.8670  1.9594  1.7940
  480SOL    HW2 1440   2.561   2.266   0.371 -1.1945  0.1986  0.9485
  481SOL     OW 1441   1.038   1.157   0.878  0.3659  0.3387  0.3133
  481SOL    HW1 1442   1.021   1.261   0.866  1.5765  1.2168 -0.0218
  481SOL    HW2 1443   1.027   1.124   0.974  1.5207  1.0754 -1.1830
  482SOL     OW 1444   1.574   0.297   1.982 -0.5137  0.2521 -0.2997
  482SOL    HW1 1445   1.591   0.401   1.964 -0.6148  0.1394 -0.1511
  482SOL    HW2 1446   1.657   0.251   2.024 -2.6809  0.9157  0.1961
  483SOL     OW 1447   0.220   2.325   1.191  0.1575 -0.4387  0.1918
  483SOL    HW1 1448   0.200   2.412   1.248 -0.1261  3.3872 -1.1304
  483SOL    HW2 1449   0.238   2.355   1.095 -0.2649  1.1987  0.7442
  484SOL     OW 1450   1.720   1.051   1.356  0.6792  0.1089 -0.9567
  484SOL    HW1 1451   1.771   0.995   1.425  0.6909  1.4556  1.0980
  484SOL    HW2 1452   1.755   1.150   1.358 -0.3661  0.9322 -0.3220
  485SOL     OW 1453   0.743   0.754   1.848 -0.4077 -0.3123 -0.6127
  485SOL    HW1 1454   0.704   0.782   1.754 -1.3296  1.1220 -0.5856
  485SOL    HW2 1455   0.839   0.716   1.843  2.9811 -2.3234 -1.9387
  486SOL     OW 1456   0.848   1.880   2.425 -0.3079  0.5077  0.3430
  486SOL    HW1 1457   0.865   1.926   2.514 -0.9470  0.6849 -1.5471
  486SOL    HW2 1458   0.790   1.941   2.359 -1.2504 -1.2092 -2.7881
  487SOL     OW 1459   1.773   1.619   1.041  0.5583  0.1884 -0.4262
  487SOL    HW1 1460   1.841   1.546   1.067 -2.0969 -1.7765  0.5350
  487SOL    HW2 1461   1.795   1.678   0.956  0.2046 -0.3187 -2.3234
  488SOL     OW 1462   2.929   0.789   2.275 -0.2177 -0.0127  0.0318
  488SOL    HW1 1463   3.001   0.711   2.283  1.0627 -0.9243  0.9088
  488SOL    HW2 1464   2.852   0.772   2.341  2.3090 -0.4689  2.1846
  489SOL     OW 1465   2.775   0.336   1.292 -0.2484 -0.2288  0.4147
  489SOL    HW1 1466   2.765   0.269   1.372  0.3655 -2.8479 -0.1747
  489SOL    HW2 1467   2.873   0.326   1.255 -0.7725 -1.4725 -1.4971
  490SOL     OW 1468   1.440   2.928   2.814 -0.1909 -0.2018  0.3841
  490SOL    HW1 1469   1.456   2.828   2.833  0.2326  0.5035 -0.0060
  490SOL    HW2 1470   1.431   2.945   2.713 -1.0056 -3.6645  0.1191
  491SOL     OW 1471   1.755   1.490   2.727 -0.1288  0.1249 -0.1860
  491SOL    HW1 1472   1.737   1.406   2.786  0.6285  2.5120 -0.6397
  491SOL    HW2 1473   1.839   1.545   2.754 -3.7143  2.3141 -0.5483
  492SOL     OW 1474   0.557   2.088   0.637 -0.0476 -0.8217  0.7920
  492SOL    HW1 1475   0.603   2.080   0.725 -0.9405  0.3392 -3.3521
  492SOL    HW2 1476   0.471   2.154   0.637 -1.5637 -0.5329 -1.0515
  493SOL     OW 1477   0.427   1.346   2.083  0.1770  0.1467  0.1112
  493SOL    HW1 1478   0.343   1.409   2.065  0.7447  1.7772  1.4767
  493SOL    HW2 1479   0.405   1.249   2.118  0.7811 -2.2853 -0.5714
  494SOL     OW 1480   2.713   2.643   0.111 -0.4240 -0.5621  0.0421
  494SOL    HW1 1481   2.716   2.645   0.214  1.4691 -0.9592 -1.6514
  494SOL    HW2 1482   2.617   2.643   0.068  0.1809  0.5976 -1.2349
  495SOL     OW 1483   2.533   2.827   2.638 -0.3066  0.1890 -0.3535
  495SOL    HW1 1484   2.572   2.742   2.689  0.6432  0.6644  1.3723
  495SOL    HW2 1485   2.600   2.866   2.566 -1.6292  0.1186  0.3326
  496SOL     OW 1486   1.954   2.281   0.835  0.4771  0.4999 -0.5050
  496SOL    HW1 1487   2.040   2.333   0.868  3.2672  0.6592  0.8652
  496SOL    HW2 1488   1.968   2.179   0.830 -0.3684  2.3366 -1.7469
  497SOL     OW 1489   0.219   3.010   2.360 -0.1134 -0.3323  0.3964
  497SOL    HW1 1490   0.169   3.077   2.431 -0.7120  0.9879 -0.7910
  497SOL    HW2 1491   0.258   3.066   2.277 -2.2489 -0.0531 -0.0465
  498SOL     OW 1492   1.136   1.376   1.228 -0.1682  0.2330  0.3473
  498SOL    HW1 1493   1.241   1.367   1.225 -0.7348 -2.5528 -1.3947
  498SOL    HW2 1494   1.096   1.410   1.316  0.0035  1.5018  0.5471
  499SOL     OW 1495   0.594   1.835   0.337  0.1943 -0.0946  0.2930
  499SOL    HW1 1496   0.629   1.792   0.251  2.2464 -0.4907 -0.5100
  499SOL    HW2 1497   0.660   1.901   0.382  1.8624 -1.8803 -1.8845
  500SOL     OW 1498   1.540   2.865   1.687 -0.0807  0.6052  0.1047
  500SOL    HW1 1499   1.589   2.822   1.772 -0.8194 -0.7794 -0.3184
  500SOL    HW2 1500   1.548   2.809   1.599 -0.7895 -1.1181  0.2122
  501SOL     OW 1501   0.805   1.181   2.288 -0.4610  0.0505  0.6563
  501SOL    HW1 1502   0.745   1.099   2.303 -0.0042  0.3009 -1.4208
  501SOL    HW2 1503   0.817   1.206   2.190 -0.8775 -0.1741 -3.3820
  502SOL     OW 1504   2.600   0.921   1.772 -0.3180  0.1265 -0.2931
  502SOL    HW1 1505   2.605   0.959   1.677 -0.6844  0.2016 -1.5605
  502SOL    HW2 1506   2.597   0.821   1.778  2.3716  3.7427  1.2420
  503SOL     OW 1507   1.309   0.126   0.683 -0.1236  0.1088 -0.3729
  503SOL    HW1 1508   1.229   0.184   0.715 -1.0129  1.3526  0.2556
  503SOL    HW2 1509   1.401   0.178   0.698 -0.5441  0.6371  1.4896
  504SOL     OW 1510   3.028   2.315   1.491  0.3346 -0.1834  0.4649
  504SOL    HW1 1511   3.002   2.405   1.542 -0.1470 -0.1754 -0.9835
  504SOL    HW2 1512   3.099   2.260   1.542  0.4226 -1.2740  5.9197
  505SOL     OW 1513   2.297   1.172   1.469  0.4593  0.1779 -0.3816
  505SOL    HW1 1514   2.286   1.169   1.366  0.3078 -0.5782  1.0875
  505SOL    HW2 1515   2.358   1.256   1.490 -1.9892  0.1578 -1.4755
  506SOL     OW 1516   1.940   0.174   1.828  0.6878 -0.4246  0.2236
  506SOL    HW1 1517   2.039   0.160   1.816  0.0875 -1.0043  0.3289
  506SOL    HW2 1518   1.919   0.271   1.862 -1.4928  1.0689  1.2783
  507SOL     OW 1519   0.502   0.701   2.209  0.2465 -0.1414 -0.3881
  507SOL    HW1 1520   0.457   0.716   2.121  2.8441  1.8252  1.5217
  507SOL    HW2 1521   0.569   0.618   2.214 -1.7224 -1.4320 -0.9319
  508SOL     OW 1522   0.297   1.694   0.792  0.7101  0.3870 -0.1631
  508SOL    HW1 1523   0.332   1.750   0.705 -1.7664 -0.8754 -1.8374
  508SOL    HW2 1524   0.286   1.755   0.877  0.3105  0.8002 -2.6352
  509SOL     OW 1525   1.299   1.208   2.453 -0.6809  0.4705  0.0133
  509SOL    HW1 1526   1.316   1.217   2.348 -1.4235  2.4679 -0.5065
  509SOL    HW2 1527   1.200   1.186   2.482  0.9709 -2.9576 -0.1518
  510SOL     OW 1528   1.297   2.020   2.223 -0.3720 -0.3528 -0.3891
  510SOL    HW1 1529   1.323   2.043   2.127 -2.1909 -0.2134 -0.8393
  510SOL    HW2 1530   1.208   1.964   2.228  2.9238 -1.3549  0.5636
  511SOL     OW 1531   3.001   2.759   1.288  0.1770  0.3010  0.1901
  511SOL    HW1 1532   3.024   2.780   1.188  0.3051  1.8059  2.0086
  511SOL    HW2 1533   2.910   2.713   1.308 -0.5766  0.0246  0.2076
  512SOL     OW 1534   2.354   0.442   1.384  0.2294 -0.4036 -0.6230
  512SOL    HW1 1535   2.251   0.437   1.363  1.1561  1.3797  0.0259
  512SOL    HW2 1536   2.423   0.406   1.311  0.9709  0.3069  0.1493
  513SOL     OW 1537   2.577   2.099   0.872  0.1480  0.2184  1.0217
  513SOL    HW1 1538   2.536   2.180   0.818  1.1104  2.5384  1.5079
  513SOL    HW2 1539   2.654   2.047   0.824 -0.2175  1.5926  2.1025
  514SOL     OW 1540   0.625   2.714   0.435 -0.1064  0.5089 -0.1734
  514SOL    HW1 1541   0.667   2.703   0.340 -0.9048  1.5532  1.5396
  514SOL    HW2 1542   0.682   2.769   0.501  0.5821 -1.4262  2.3154
  515SOL     OW 1543   1.941   1.339   2.406  0.0123  0.0257  0.2776
  515SOL    HW1 1544   1.947   1.299   2.309 -2.0299 -0.5191 -0.4922
  515SOL    HW2 1545   1.866   1.285   2.455  0.4902  1.4762 -0.9227
  516SOL     OW 1546   0.251   0.215   1.888 -0.0177  0.6017 -0.9787
  516SOL    HW1 1547   0.346   0.196   1.863 -1.8656 -2.0904  0.3964
  516SOL    HW2 1548   0.185   0.142   1.850 -1.4607 -1.9634  0.7002
  517SOL     OW 1549   0.473   0.205   1.164  0.0992  0.2915 -0.3993
  517SOL    HW1 1550   0.539   0.157   1.238  0.0520 -0.1913  0.9988
  517SOL    HW2 1551   0.381   0.152   1.154 -1.4676  1.2348  1.7423
  518SOL     OW 1552   2.168   3.009   1.841 -0.6868 -0.0032 -0.6759
  518SOL    HW1 1553   2.205   3.108   1.855  0.0667 -0.7801  1.2124
  518SOL    HW2 1554   2.170   2.984   1.735  2.5294  0.0335 -0.9065
  519SOL     OW 1555   2.358   2.223   2.552 -0.0079 -0.5330 -0.4254
  519SOL    HW1 1556   2.321   2.198   2.645  1.9280  1.2741 -0.1539
  519SOL    HW2 1557   2.346   2.324   2.539  0.5941 -0.6629  3.1457
  520SOL     OW 1558   1.846   2.727   1.683  0.1673  0.0977  0.5660
  520SOL    HW1 1559   1.774   2.673   1.734  2.3063  4.2851 -0.7912
  520SOL    HW2 1560   1.941   2.683   1.678  2.7020  0.3731 -0.4045
  521SOL     OW 1561   0.590   0.061   2.145 -0.4681 -0.2889 -0.0226
  521SOL    HW1 1562   0.486   0.062   2.172  0.2212  1.5358  2.6968
  521SOL    HW2 1563   0.649   0.066   2.230  2.0454 -0.4287  1.1322
  522SOL     OW 1564   0.248   1.906   1.474  0.1105  0.0955  0.3044
  522SOL    HW1 1565   0.271   1.970   1.556 -2.7927  0.2472  1.9283
  522SOL    HW2 1566   0.233   1.951   1.383 -1.7036 -0.7207  0.1790
  523SOL     OW 1567   2.154   2.940   1.568 -0.2215 -0.4144  0.2448
  523SOL    HW1 1568   2.237   2.885   1.558 -0.9849  3.2630  2.5714
  523SOL    HW2 1569   2.082   2.908   1.495 -0.4225  1.3940 -1.5580
  524SOL     OW 1570   0.214   2.762   2.795  0.4330 -0.0476  0.0519
  524SOL    HW1 1571   0.193   2.847   2.852  0.5974 -0.8237  0.2074
  524SOL    HW2 1572   0.308   2.762   2.758  1.8682 -1.6444 -1.4046
  525SOL     OW 1573   2.136   2.060   0.487 -0.9644  0.0801 -0.4632
  525SOL    HW1 1574   2.152   2.018   0.582  1.7953 -0.5849  1.0316
  525SOL    HW2 1575   2.162   1.994   0.412 -1.4142  1.6644  2.8290
  526SOL     OW 1576   0.423   1.549   1.730 -0.1118  0.0437  0.5053
  526SOL    HW1 1577   0.510   1.586   1.769  2.8266  0.4298 -2.0791
  526SOL    HW2 1578   0.422   1.440   1.725 -4.0588 -1.3208 -2.8780
  527SOL     OW 1579   1.067   2.953   1.184 -0.3029  0.4301  0.2239
  527SOL    HW1 1580   1.131   2.878   1.214  2.0664  0.6002 -2.8986
  527SOL    HW2 1581   1.108   3.053   1.174 -1.0786  0.4695  1.7033
  528SOL     OW 1582   1.305   2.407   0.572  0.3161 -0.6873  0.1082
  528SOL    HW1 1583   1.347   2.321   0.598 -2.2013  0.5139 -0.9947
  528SOL    HW2 1584   1.318   2.484   0.645  0.9196  0.4840  2.3578
  529SOL     OW 1585   1.880   1.771   0.860 -0.3480 -0.1596 -0.6540
  529SOL    HW1 1586   1.832   1.758   0.767  0.7151 -1.2353  1.1981
  529SOL    HW2 1587   1.938   1.860   0.866 -0.3196 -0.2838  1.0984
  530SOL     OW 1588   0.422   2.502   0.157  0.3996 -0.1269 -0.1588
  530SOL    HW1 1589   0.447   2.453   0.247  0.2099 -0.9537  0.0187
  530SOL    HW2 1590   0.419   2.436   0.079  1.0125  1.9465 -2.5311
  531SOL     OW 1591   1.830   0.993   1.046  0.2336  0.3682  0.4719
  531SOL    HW1 1592   1.828   1.001   0.940 -1.0312  0.3469 -0.6810
  531SOL    HW2 1593   1.739   0.957   1.082 -0.4246  0.7077 -1.4314
  532SOL     OW 1594   0.394   1.158   0.712 -0.4989 -0.1964  0.6058
  532SOL    HW1 1595   0.411   1.163   0.611 -0.2686 -3.4887  1.8534
  532SOL    HW2 1596   0.369   1.061   0.742  0.0882 -1.8081 -0.9155
  533SOL     OW 1597   1.828   0.051   2.551 -0.3189 -0.2683 -0.6554
  533SOL    HW1 1598   1.934   0.047   2.557  1.1122 -0.5410 -1.8952
  533SOL    HW2 1599   1.788   0.122   2.615  0.4264 -1.7316 -3.4736
  534SOL     OW 1600   0.223   0.193   1.577  0.6977 -0.0459  0.2275
  534SOL    HW1 1601   0.300   0.236   1.522  1.8767  0.3155 -0.4356
  534SOL    HW2 1602   0.139   0.254   1.571 -1.6687  0.2275 -0.2178
  535SOL     OW 1603   1.882   0.409   0.177  0.2542 -0.3043 -0.3056
  535SOL    HW1 1604   1.946   0.490   0.215 -0.4358  1.1770 -1.2381
  535SOL    HW2 1605   1.819   0.397   0.255  2.6728 -1.9320 -0.1887
  536SOL     OW 1606   1.241   2.538   1.023  0.4905  0.2575 -0.1290
  536SOL    HW1 1607   1.285   2.441   1.019 -2.0511 -0.6448  1.8119
  536SOL    HW2 1608   1.164   2.550   0.957  0.9864  1.5518 -1.7780
  537SOL     OW 1609   0.875   0.217   2.331  0.2798  0.2592  0.2237
  537SOL    HW1 1610   0.838   0.277   2.254  0.8027 -3.3663 -3.5847
  537SOL    HW2 1611   0.797   0.166   2.374 -0.6993  2.9862 -2.7867
  538SOL     OW 1612   1.696   2.330   1.559  0.1790  0.6306 -0.0775
  538SOL    HW1 1613   1.662   2.275   1.474 -3.0635 -0.0134  0.1822
  538SOL    HW2 1614   1.776   2.386   1.530 -0.0020  0.3834  0.8300
  539SOL     OW 1615   0.179   1.613   2.702  0.2784  0.4743 -0.1248
  539SOL    HW1 1616   0.092   1.587   2.658  3.2302 -0.2105 -0.6684
  539SOL    HW2 1617   0.182   1.686   2.767 -2.2583 -1.3067 -0.8611
  540SOL     OW 1618   2.696   1.730   2.083  0.1017  0.0287 -0.5271
  540SOL    HW1 1619   2.646   1.651   2.035 -0.1939 -1.9356 -2.0465
  540SOL    HW2 1620   2.643   1.817   2.052  1.3120  2.4427 -2.1062
  541SOL     OW 1621   0.449   2.288   3.087 -0.1233  0.7535 -0.0536
  541SOL    HW1 1622   0.483   2.229   3.161  1.6967  2.5501 -1.1386
  541SOL    HW2 1623   0.359   2.264   3.040 -0.6862  1.3845 -1.4649
  542SOL     OW 1624   2.198   2.637   0.447 -0.3613  0.1220  0.5231
  542SOL    HW1 1625   2.191   2.739   0.436 -0.2517 -2.8782 -0.6782
  542SOL    HW2 1626   2.106   2.592   0.455 -1.8061 -1.5950  1.0862
  543SOL     OW 1627   1.042   1.799   1.743 -0.2163 -0.1667  0.0386
  543SOL    HW1 1628   1.051   1.809   1.847 -0.1280 -2.2942 -1.8564
  543SOL    HW2 1629   0.967   1.861   1.703 -1.2492  2.1623 -2.2493
  544SOL     OW 1630   0.848   0.428   0.148  0.8057  0.2218 -0.0788
  544SOL    HW1 1631   0.888   0.389   0.234  0.6607 -0.5776  0.3797
  544SOL    HW2 1632   0.884   0.391   0.060 -1.5315 -0.7308  1.1921
  545SOL     OW 1633   1.179   1.723   0.620  0.3051 -0.6457  0.1426
  545SOL    HW1 1634   1.270   1.740   0.667 -0.9767  1.9533  0.0780
  545SOL    HW2 1635   1.172   1.760   0.522 -0.7362 -1.0758 -0.6046
  546SOL     OW 1636   2.676   1.584   0.044 -0.7971 -0.3403 -0.3075
  546SOL    HW1 1637   2.725   1.564  -0.048 -0.9284 -0.8774 -0.4087
  546SOL    HW2 1638   2.611   1.515   0.065  1.1499 -0.5815  1.6291
  547SOL     OW 1639   0.524   0.009   2.769  0.6046  0.0798  0.4123
  547SOL    HW1 1640   0.586  -0.045   2.705 -0.8394  4.7674  3.3355
  547SOL    HW2 1641   0.521  -0.022   2.869 -2.3648 -1.7442 -0.5940
  548SOL     OW 1642   2.078   0.825   3.039 -0.0825 -0.4590 -0.9729
  548SOL    HW1 1643   1.992   0.774   3.065  3.3827 -0.2178 -1.3614
  548SOL    HW2 1644   2.074   0.920   3.086 -0.6639  0.7782  0.2084
  549SOL     OW 1645   0.579   0.417   0.110 -0.0792  0.0661  0.1045
  549SOL    HW1 1646   0.553   0.490   0.045 -1.7670  0.7470  0.3626
  549SOL    HW2 1647   0.679   0.419   0.129 -1.5066 -1.8500  2.9567
  550SOL     OW 1648   2.529   2.886   2.907 -0.5584  0.8018 -0.3528
  550SOL    HW1 1649   2.509   2.815   2.977 -1.8607  1.3025  0.9052
  550SOL    HW2 1650   2.520   2.841   2.812 -0.6395  0.2943 -3.1116
  551SOL     OW 1651   0.243   0.782   0.167 -0.1687  0.1974  0.3933
  551SOL    HW1 1652   0.346   0.790   0.151 -0.3977  0.0132 -1.8842
  551SOL    HW2 1653   0.226   0.805   0.268  2.7408 -0.5332 -1.3051
  552SOL     OW 1654   0.836   2.820   1.890  0.3396  0.6035 -0.4851
  552SOL    HW1 1655   0.802   2.813   1.992 -0.8405  0.2202 -3.6928
  552SOL    HW2 1656   0.884   2.913   1.864 -0.1823  1.4742 -0.5973
  553SOL     OW 1657   3.087   2.559   0.426 -0.6162 -0.0805 -0.2237
  553SOL    HW1 1658   3.037   2.476   0.392  1.2602 -1.5285  0.3391
  553SOL    HW2 1659   3.043   2.598   0.511  1.2689  0.9280  0.6680
  554SOL     OW 1660   2.128   0.277   0.565  0.0391 -0.7388  0.3257
  554SOL    HW1 1661   2.069   0.220   0.508 -0.7626  0.5255  0.0829
  554SOL    HW2 1662   2.141   0.238   0.664 -0.3796 -2.0867  0.4111
  555SOL     OW 1663   0.473   2.949   2.445  0.2160 -0.0107 -0.3024
  555SOL    HW1 1664   0.371   2.952   2.424 -0.7424 -1.1971 -0.5070
  555SOL    HW2 1665   0.528   2.904   2.373  2.1642  2.6325 -0.7889
  556SOL     OW 1666   0.895   2.275   1.643  0.3271 -0.2853  1.0006
  556SOL    HW1 1667   0.951   2.345   1.691  0.1336  1.2111 -1.0823
  556SOL    HW2 1668   0.939   2.247   1.551  0.6122 -0.7592  1.2861
  557SOL     OW 1669   0.156   2.133   0.135  0.2394 -0.0700 -0.4545
  557SOL    HW1 1670   0.087   2.054   0.139  2.0757 -0.1175  2.7614
  557SOL    HW2 1671   0.164   2.176   0.043  0.5048 -0.5971  0.2697
  558SOL     OW 1672   2.959   2.331   0.271  0.4523  0.2724 -0.0660
  558SOL    HW1 1673   2.854   2.343   0.264  1.5435 -2.6955  0.7657
  558SOL    HW2 1674   3.011   2.350   0.183  0.2893 -1.2677 -1.4006
  559SOL     OW 1675   0.445   2.226   1.335  0.0591 -0.7799  0.0158
  559SOL    HW1 1676   0.357   2.264   1.292  2.7386  1.2309 -0.4570
  559SOL    HW2 1677   0.482   2.143   1.281  1.6085 -0.1824 -2.7651
  560SOL     OW 1678   2.042   1.097   3.097  0.5513  0.6483  0.3389
  560SOL    HW1 1679   2.013   1.129   3.001 -1.2028  1.8685  0.1332
  560SOL    HW2 1680   1.981   1.140   3.168  0.1949  1.6977 -0.2403
  561SOL     OW 1681   3.042   1.920   0.072 -0.3822 -0.1921 -0.9898
  561SOL    HW1 1682   2.974   1.849   0.108  0.3299 -1.1782  1.2491
  561SOL    HW2 1683   2.991   2.001   0.023  1.9177  2.8590  0.8113
  562SOL     OW 1684   0.853   2.171   2.445  0.1635 -0.0777 -0.5775
  562SOL    HW1 1685   0.758   2.134   2.422  1.1772  0.4830 -0.9015
  562SOL    HW2 1686   0.867   2.220   2.540  1.9552 -0.5514  4.3901
  563SOL     OW 1687   0.736   2.535   2.538 -0.0300 -0.1201 -0.3202
  563SOL    HW1 1688   0.770   2.438   2.541  2.4508 -0.0327  0.1408
  563SOL    HW2 1689   0.710   2.567   2.636 -0.2739 -1.8727  2.3617
  564SOL     OW 1690   2.752   1.286   2.841 -0.6756  0.2331 -0.4579
  564SOL    HW1 1691   2.679   1.305   2.913  1.1328  1.0848  1.2109
  564SOL    HW2 1692   2.792   1.376   2.807 -1.0662  0.8545  1.0499
  565SOL     OW 1693   2.500   1.988   2.600 -0.1556 -0.5203  0.1117
  565SOL    HW1 1694   2.454   2.078   2.578  1.6170 -0.5046 -3.3254
  565SOL    HW2 1695   2.597   2.000   2.633 -1.9404 -0.8708 -0.7616
  566SOL     OW 1696   1.989   2.854   1.358 -0.0492  0.1650 -0.3304
  566SOL    HW1 1697   1.944   2.766   1.344 -0.6370  1.4934 -1.5052
  566SOL    HW2 1698   2.045   2.882   1.274  0.4871  2.2695 -0.6529
  567SOL     OW 1699   2.457   0.147   2.269 -0.2132  0.2025  0.0567
  567SOL    HW1 1700   2.484   0.145   2.169 -1.5528  0.9786  0.8164
  567SOL    HW2 1701   2.393   0.226   2.285  0.6631  1.6197  0.5676
  568SOL     OW 1702   1.454   1.815   0.427  0.5264  0.2906  0.3315
  568SOL    HW1 1703   1.425   1.882   0.349  1.7765  0.3629 -2.2585
  568SOL    HW2 1704   1.492   1.857   0.506  1.0338 -1.3384 -3.3498
  569SOL     OW 1705   0.299   0.656   0.798  0.3819 -0.3869 -0.2357
  569SOL    HW1 1706   0.374   0.603   0.739 -1.6576 -0.3392  1.9347
  569SOL    HW2 1707   0.216   0.592   0.825  1.7773 -0.3525  2.8734
  570SOL     OW 1708   0.604   0.783   2.853  0.0928  0.4131 -0.0732
  570SOL    HW1 1709   0.664   0.736   2.776  1.1168  0.5773 -0.4446
  570SOL    HW2 1710   0.650   0.864   2.903 -0.4551 -0.7533  1.7852
  571SOL     OW 1711   0.819   3.051   1.118 -0.4148  0.0158 -0.1103
  571SOL    HW1 1712   0.835   3.113   1.036 -0.8333  0.6338 -1.4859
  571SOL    HW2 1713   0.906   3.016   1.165  0.1553 -3.7315  0.2271
  572SOL     OW 1714   1.538   2.571   1.155  0.3264 -0.0974 -0.0989
  572SOL    HW1 1715   1.459   2.521   1.209  0.3960  0.6380 -0.1485
  572SOL    HW2 1716   1.503   2.666   1.123  0.5152  0.5011 -0.9581
  573SOL     OW 1717   2.942   0.411   2.098  0.3275  0.1520 -0.1328
  573SOL    HW1 1718   2.893   0.321   2.087 -1.1095  0.3252 -0.8144
  573SOL    HW2 1719   2.879   0.491   2.062 -4.5073 -0.7842  0.8198
  574SOL     OW 1720   0.256   1.802   1.056  0.0448  0.1586  0.0706
  574SOL    HW1 1721   0.240   1.899   1.025  2.3314 -1.9669 -0.5296
  574SOL    HW2 1722   0.167   1.753   1.093  0.1335 -0.5259 -0.6993
  575SOL     OW 1723   0.885   2.129   1.016 -0.0789  0.1868  0.2150
  575SOL    HW1 1724   0.852   2.145   1.112  1.0720  3.1114 -0.5814
  575SOL    HW2 1725   0.935   2.208   0.970 -0.2228 -0.8250 -0.4783
  576SOL     OW 1726   2.923   2.918   1.724 -0.2066  0.1623  0.8120
  576SOL    HW1 1727   2.838   2.870   1.679  0.8548  2.7501 -1.8731
  576SOL    HW2 1728   2.922   3.017   1.698  0.6993 -0.3818  1.8897
  577SOL     OW 1729   2.558   1.285   3.052  0.4383 -0.0552  0.0787
  577SOL    HW1 1730   2.509   1.195   3.031  1.2286  1.1790 -1.5459
  577SOL    HW2 1731   2.614   1.278   3.138 -2.7648  1.4099 -3.2933
  578SOL     OW 1732   1.321   2.723   2.551 -0.1680  0.2614 -0.2778
  578SOL    HW1 1733   1.260   2.679   2.480 -1.9524 -0.3413 -2.5028
  578SOL    HW2 1734   1.340   2.824   2.537 -0.0509 -0.9247  0.3263
  579SOL     OW 1735   0.121   2.542   0.185 -0.4410  0.1512 -0.0178
  579SOL    HW1 1736   0.072   2.535   0.279  0.1671  0.7165  1.2149
  579SOL    HW2 1737   0.221   2.525   0.191 -0.9629 -1.2167 -3.2806
  580SOL     OW 1738   1.017   2.648   0.357  0.1010 -0.1950 -0.0231
  580SOL    HW1 1739   1.106   2.680   0.315 -0.2111 -1.7098  0.5489
  580SOL    HW2 1740   0.961   2.586   0.299 -1.1219  0.8560  0.4612
  581SOL     OW 1741   1.196   2.620   1.481 -0.3088  0.1467  0.2376
  581SOL    HW1 1742   1.249   2.534   1.464 -0.8358 -0.3555  1.9915
  581SOL    HW2 1743   1.235   2.698   1.427 -1.4707  1.3956  2.7670
  582SOL     OW 1744   1.487   0.039   1.857 -0.0416 -0.0975 -0.7458
  582SOL    HW1 1745   1.524   0.124   1.900  1.7668  1.3717  2.0133
  582SOL    HW2 1746   1.554   0.001   1.792  1.1518 -0.8975  1.8959
  583SOL     OW 1747   2.437   2.985   0.602  0.2195 -0.0618  0.1070
  583SOL    HW1 1748   2.499   2.918   0.554  2.1269  1.6066 -0.1033
  583SOL    HW2 1749   2.376   2.947   0.682 -2.9926 -2.9657 -0.7752
  584SOL     OW 1750   1.558   0.984   2.115  0.5602  0.5283  0.0999
  584SOL    HW1 1751   1.599   1.054   2.054 -0.1257 -1.7839  0.4326
  584SOL    HW2 1752   1.608   0.979   2.206  1.8164  2.2855 -1.5152
  585SOL     OW 1753   2.109   2.652   2.930  0.0313  0.1472  0.2118
  585SOL    HW1 1754   2.154   2.576   2.877 -0.6254 -0.5421  0.8685
  585SOL    HW2 1755   2.026   2.685   2.886  0.0269  0.7871 -0.7113
  586SOL     OW 1756   2.769   0.215   1.572 -0.2400 -0.3853 -0.7388
  586SOL    HW1 1757   2.766   0.309   1.618  1.4219  3.0421  2.7324
  586SOL    HW2 1758   2.679   0.165   1.590 -1.1738  1.8513 -0.4094
  587SOL     OW 1759   2.003   1.621   2.726 -0.1975  0.0869 -0.1740
  587SOL    HW1 1760   2.072   1.582   2.659 -2.6716 -0.5143  1.1689
  587SOL    HW2 1761   2.031   1.598   2.821 -0.8868  2.7019  2.6713
  588SOL     OW 1762   0.470   2.726   2.229 -0.5177 -0.1739  0.5715
  588SOL    HW1 1763   0.374   2.731   2.190  1.8831  2.0354  0.3545
  588SOL    HW2 1764   0.489   2.646   2.291  0.2350 -1.3325 -0.4874
  589SOL     OW 1765   2.146   1.498   2.530  0.1664 -0.1481 -0.0439
  589SOL    HW1 1766   2.065   1.460   2.475 -1.9278  0.9139  0.1739
  589SOL    HW2 1767   2.219   1.430   2.542  0.5967 -0.9809  0.1095
  590SOL     OW 1768   2.324   1.705   1.992 -0.1304 -0.2507  0.2113
  590SOL    HW1 1769   2.404   1.643   2.007  0.6277 -0.9591  1.5885
  590SOL    HW2 1770   2.290   1.747   2.077 -0.6554 -0.3906 -2.0362
  591SOL     OW 1771   1.324   2.471   0.298 -0.0606 -0.4019 -0.9650
  591SOL    HW1 1772   1.396   2.431   0.236 -0.1954  1.0308 -0.4253
  591SOL    HW2 1773   1.315   2.431   0.392  1.1010 -1.5864 -2.1527
  592SOL     OW 1774   1.696   2.344   0.784  0.0999  0.0894 -0.3277
  592SOL    HW1 1775   1.695   2.394   0.696 -2.7698 -1.1654  4.0896
  592SOL    HW2 1776   1.796   2.336   0.822  0.2979  1.7313  1.9747
  593SOL     OW 1777   0.586   0.174   3.047  1.0979 -0.3830  0.1507
  593SOL    HW1 1778   0.685   0.163   3.049 -0.9495  1.0780  1.1153
  593SOL    HW2 1779   0.555   0.252   3.106 -0.4316 -1.5983  3.4269
  594SOL     OW 1780   0.910   1.974   2.678  0.4725  0.6811 -0.2116
  594SOL    HW1 1781   1.013   1.974   2.686 -0.6724 -2.6027 -1.8063
  594SOL    HW2 1782   0.860   2.033   2.751  1.3662  2.6185  0.8878
  595SOL     OW 1783   1.558   0.039   1.067 -0.0047  0.1701  0.3094
  595SOL    HW1 1784   1.654   0.041   1.024 -1.1149 -0.7554 -0.4563
  595SOL    HW2 1785   1.495  -0.004   0.996  1.8197  0.8909  0.9440
  596SOL     OW 1786   3.080   1.419   2.235  0.0338 -1.1092  0.5523
  596SOL    HW1 1787   2.979   1.456   2.232 -0.5018 -1.8351 -2.9640
  596SOL    HW2 1788   3.121   1.417   2.329  5.9878  0.2654  1.7380
  597SOL     OW 1789   2.105   2.621   1.627 -0.3306  0.4545  0.2938
  597SOL    HW1 1790   2.110   2.543   1.557  0.5960 -2.9107 -0.0096
  597SOL    HW2 1791   2.153   2.602   1.713 -0.9904 -1.0397  2.1342
  598SOL     OW 1792   2.543   2.898   1.207  0.3654  0.4216  0.6633
  598SOL    HW1 1793   2.622   2.947   1.261  1.2133  1.3129 -1.8478
  598SOL    HW2 1794   2.561   2.905   1.102  2.1064 -0.7177 -0.4387
  599SOL     OW 1795   2.908   0.335   2.442 -0.5140  0.1839  0.8388
  599SOL    HW1 1796   2.993   0.354   2.387  2.3103  1.1357  2.1284
  599SOL    HW2 1797   2.824   0.367   2.393  0.3998  2.6654  0.9153
  600SOL     OW 1798   2.833   1.051   2.709 -0.3077  0.5230 -0.2906
  600SOL    HW1 1799   2.816   0.956   2.744 -0.0118  1.2753 -0.1303
  600SOL    HW2 1800   2.802   1.132   2.774 -0.8320  1.5652  2.6051
  601SOL     OW 1801   2.992   1.255   2.045  0.6645  0.1047 -0.0429
  601SOL    HW1 1802   2.925   1.314   1.992  4.3406 -0.7021 -1.1962
  601SOL    HW2 1803   3.051   1.309   2.107  0.2814 -0.6243 -0.0095
  602SOL     OW 1804   1.547   1.708   2.383  0.1130  0.1937  0.4447
  602SOL    HW1 1805   1.515   1.615   2.343 -0.5831  1.4058 -2.7215
  602SOL    HW2 1806   1.653   1.714   2.399 -2.6167 -0.5000  0.4987
  603SOL     OW 1807   0.668   1.262   2.648 -0.1865  0.4219  0.7222
  603SOL    HW1 1808   0.586   1.239   2.590 -2.5182  0.6872 -0.2662
  603SOL    HW2 1809   0.742   1.182   2.657  1.7404 -2.6625  0.7400
  604SOL     OW 1810   2.412   0.962   0.201  0.0860  0.2254  0.1234
  604SOL    HW1 1811   2.472   0.994   0.119  1.0156 -0.9565 -1.1939
  604SOL    HW2 1812   2.375   0.867   0.180 -0.8884  0.0858 -0.8839
  605SOL     OW 1813   2.680   1.143   1.942  0.3739  0.0854 -0.2402
  605SOL    HW1 1814   2.667   1.059   1.884  0.1045  2.0892  1.3122
  605SOL    HW2 1815   2.672   1.125   2.041 -0.4068 -0.4540 -2.1964
  606SOL     OW 1816   1.555   2.541   2.594  0.3553 -0.0373  0.3650
  606SOL    HW1 1817   1.479   2.607   2.588  0.5733  0.9058  1.0610
  606SOL    HW2 1818   1.520   2.448   2.557  1.5168  1.2719  2.1131
  607SOL     OW 1819   1.349   1.556   0.449  0.3741  0.5935 -0.1069
  607SOL    HW1 1820   1.272   1.551   0.517 -0.2023  2.3820  1.1330
  607SOL    HW2 1821   1.382   1.651   0.445  0.4368 -1.2340 -1.0816
  608SOL     OW 1822   1.410   2.915   0.445 -0.1904 -0.4895  0.1829
  608SOL    HW1 1823   1.473   2.957   0.377  2.6219 -0.2309  0.3253
  608SOL    HW2 1824   1.338   2.983   0.477  1.9114  2.9142  2.1763
  609SOL     OW 1825   1.314   1.346   0.262 -0.0154 -0.0161 -0.0866
  609SOL    HW1 1826   1.315   1.422   0.330 -1.4559  0.5836  0.2512
  609SOL    HW2 1827   1.219   1.301   0.260  2.0831  0.3051 -0.5042
  610SOL     OW 1828   2.958   1.070   2.300 -0.0284  0.6667  0.0103
  610SOL    HW1 1829   2.961   0.967   2.299 -1.1755  0.9791  1.5973
  610SOL    HW2 1830   2.949   1.111   2.208  1.3593  0.9595  1.4416
  611SOL     OW 1831   2.509   0.320   1.201  0.1661  0.2881 -0.7865
  611SOL    HW1 1832   2.468   0.224   1.191  0.6455 -1.2208  0.3114
  611SOL    HW2 1833   2.611   0.315   1.212 -1.0023  0.2295 -0.4701
  612SOL     OW 1834   0.745   2.182   1.242 -0.0775  0.2322  0.5249
  612SOL    HW1 1835   0.667   2.116   1.254  0.9484 -2.4433 -1.3585
  612SOL    HW2 1836   0.719   2.279   1.207 -1.3721  1.8168  1.0212
  613SOL     OW 1837   0.887   1.436   2.381  0.2407  0.3393 -0.4055
  613SOL    HW1 1838   0.940   1.491   2.307  1.5963  1.5715 -0.9927
  613SOL    HW2 1839   0.871   1.340   2.347 -1.4346 -0.6045 -3.2317
  614SOL     OW 1840   1.672   1.580   1.824  0.0177  0.2189 -0.3370
  614SOL    HW1 1841   1.652   1.682   1.809  0.2547  0.5417  1.4904
  614SOL    HW2 1842   1.740   1.564   1.899 -3.2116 -0.5403  2.0825
  615SOL     OW 1843   0.765   1.240   1.740  0.4165  0.0647 -0.0705
  615SOL    HW1 1844   0.713   1.227   1.644 -2.1794  0.1365 -3.8008
  615SOL    HW2 1845   0.810   1.333   1.749  0.7812  2.7430  0.0599
  616SOL     OW 1846   1.083   1.553   2.205  0.4145 -0.6045 -0.4619
  616SOL    HW1 1847   1.012   1.562   2.125 -2.7772 -3.4791 -0.6539
  616SOL    HW2 1848   1.101   1.646   2.257  0.0854  2.7094 -1.7329
  617SOL     OW 1849   2.980   1.548   1.633  0.2970  0.9063  0.3308
  617SOL    HW1 1850   3.009   1.482   1.708 -0.3514  0.5089 -0.2725
  617SOL    HW2 1851   3.013   1.514   1.538  0.7797  0.5377 -0.9862
  618SOL     OW 1852   1.863   2.093   1.365  0.3873  0.1893  0.0051
  618SOL    HW1 1853   1.865   2.176   1.301 -1.8194  1.7711 -1.3268
  618SOL    HW2 1854   1.835   2.006   1.320 -0.3560  3.3131 -0.8733
  619SOL     OW 1855   1.750   0.452   2.373 -0.0130 -0.2667 -0.0308
  619SOL    HW1 1856   1.684   0.524   2.351  1.5262 -1.7472  1.2037
  619SOL    HW2 1857   1.725   0.354   2.347 -0.5617  1.7485  1.9276
  620SOL     OW 1858   2.276   2.846   0.785  0.1476  0.1330  0.1614
  620SOL    HW1 1859   2.174   2.846   0.770  2.6591  1.9132 -0.0849
  620SOL    HW2 1860   2.309   2.760   0.831 -0.5904 -1.6583  0.7311
  621SOL     OW 1861   2.164   1.875   1.364  0.1214 -0.3670 -0.1695
  621SOL    HW1 1862   2.171   1.885   1.468 -0.2259  0.4036  0.2797
  621SOL    HW2 1863   2.085   1.814   1.332 -1.7259  1.0338 -0.0922
  622SOL     OW 1864   2.324   0.945   1.879  0.0916  0.4097 -0.4102
  622SOL    HW1 1865   2.417   0.933   1.826  0.1705 -0.6714  2.0871
  622SOL    HW2 1866   2.287   0.858   1.922  0.5456  1.5375 -0.5519
  623SOL     OW 1867   1.299   0.816   2.478  0.1503 -0.3536 -0.7168
  623SOL    HW1 1868   1.220   0.753   2.458  3.1671 -1.3095 -1.4506
  623SOL    HW2 1869   1.297   0.881   2.401  1.7592  1.5333 -0.0303
  624SOL     OW 1870   0.508   0.649   3.073  0.8006 -0.4306  0.6437
  624SOL    HW1 1871   0.562   0.680   2.992 -1.1214  0.3672  1.0301
  624SOL    HW2 1872   0.490   0.724   3.140 -1.3607 -2.9583 -0.8013
  625SOL     OW 1873   2.780   1.707   1.042  0.2138  0.3143 -0.1580
  625SOL    HW1 1874   2.697   1.748   0.993  0.3944  0.2295  0.6681
  625SOL    HW2 1875   2.847   1.784   1.067 -0.5312 -0.4898 -1.3499
  626SOL     OW 1876   0.651   2.679   1.728 -0.3588  0.6544 -0.5095
  626SOL    HW1 1877   0.705   2.715   1.809 -1.3650 -1.0872  0.2686
  626SOL    HW2 1878   0.550   2.676   1.737  1.3370  1.5809 -1.2755
  627SOL     OW 1879   0.664   0.859   1.613 -0.0568  0.5301 -0.5155
  627SOL    HW1 1880   0.602   0.787   1.575  0.4195 -0.0375 -1.8163
  627SOL    HW2 1881   0.717   0.915   1.536 -0.4829  0.4756 -0.8108
  628SOL     OW 1882   2.422   0.163   0.717  0.5632  0.3241  0.2487
  628SOL    HW1 1883   2.458   0.090   0.648 -0.6784  1.1928 -1.2487
  628SOL    HW2 1884   2.324   0.138   0.747  0.4816 -0.0214 -1.3456
  629SOL     OW 1885   1.905   0.929   1.979 -0.2552 -0.0246  0.1325
  629SOL    HW1 1886   1.925   0.989   1.895 -0.6550 -2.9104 -0.2496
  629SOL    HW2 1887   1.888   0.990   2.059  0.4819 -2.0536 -0.9009
  630SOL     OW 1888   2.900   2.261   0.785  0.2824  0.5901 -0.0588
  630SOL    HW1 1889   2.846   2.348   0.795  0.9568 -1.2444 -0.2191
  630SOL    HW2 1890   2.852   2.170   0.770  0.1078  0.1685 -0.3382
  631SOL     OW 1891   0.036   0.138   2.137  0.2565  0.1752  0.8351
  631SOL    HW1 1892   0.067   0.204   2.212  1.6286  1.2157  0.6951
  631SOL    HW2 1893   0.078   0.153   2.040 -1.5330 -0.9559  0.7080
  632SOL     OW 1894   2.448   2.553   0.586 -0.3178  0.2447 -0.3224
  632SOL    HW1 1895   2.522   2.623   0.573  1.3944 -1.8402  1.0768
  632SOL    HW2 1896   2.352   2.579   0.547 -1.2288  0.6132  2.1628
  633SOL     OW 1897   1.447   1.205   2.685 -0.1801 -0.1316 -0.1634
  633SOL    HW1 1898   1.468   1.285   2.744 -0.4267  0.9687 -1.0769
  633SOL    HW2 1899   1.383   1.215   2.600 -0.3025  1.8355 -0.8081
  634SOL     OW 1900   0.674   2.059   0.868 -0.2917 -0.2452  0.5430
  634SOL    HW1 1901   0.584   2.094   0.913 -1.7390  0.1924 -0.4777
  634SOL    HW2 1902   0.755   2.089   0.930 -0.2580  1.4004 -0.1613
  635SOL     OW 1903   3.051   2.391   0.005 -0.2581 -0.0245  0.4982
  635SOL    HW1 1904   2.984   2.450  -0.050 -2.1763  0.6927  0.6708
  635SOL    HW2 1905   3.128   2.450   0.043  0.0803  1.8962  0.3412
  636SOL     OW 1906   2.379   2.758   2.045 -0.1531 -0.1732 -0.2419
  636SOL    HW1 1907   2.378   2.855   2.079 -2.0406 -2.9616  0.1591
  636SOL    HW2 1908   2.310   2.693   2.094  0.6135 -0.8852 -0.7612
  637SOL     OW 1909   2.744   0.615   2.006  0.0627 -0.6580 -0.3335
  637SOL    HW1 1910   2.676   0.626   1.926 -1.8280 -2.7230 -1.1314
  637SOL    HW2 1911   2.814   0.698   2.008 -0.4158 -1.1065  1.4532
  638SOL     OW 1912   2.422   1.868   1.300 -0.6043 -0.3617 -0.0480
  638SOL    HW1 1913   2.318   1.863   1.314 -0.9943 -0.1025 -0.0463
  638SOL    HW2 1914   2.470   1.798   1.359 -1.4007  0.8329 -0.6551
  639SOL     OW 1915   1.314   2.218   1.667  0.4933  0.1831  0.0990
  639SOL    HW1 1916   1.347   2.315   1.662 -1.9027 -1.4642  2.4558
  639SOL    HW2 1917   1.249   2.200   1.749 -1.0739 -1.1927 -1.2204
  640SOL     OW 1918   0.185   1.200   1.548 -0.2029 -0.3610 -0.2423
  640SOL    HW1 1919   0.177   1.195   1.652 -0.2836 -1.0103 -0.5873
  640SOL    HW2 1920   0.242   1.118   1.523  0.5540  1.3448 -0.4132
  641SOL     OW 1921   1.947   0.229   1.497 -0.3173  0.5397 -0.2334
  641SOL    HW1 1922   1.878   0.261   1.565  0.4818 -0.2572 -0.2751
  641SOL    HW2 1923   2.020   0.161   1.534 -1.5925  0.0519 -3.1118
  642SOL     OW 1924   2.024   0.062   0.353  0.0478  0.3907  0.5536
  642SOL    HW1 1925   2.124   0.046   0.376  0.4809 -0.6495 -2.1140
  642SOL    HW2 1926   1.957   0.031   0.424 -1.6313  1.0245 -1.1688
  643SOL     OW 1927   2.888   1.892   2.182 -0.3618 -0.9203  0.2407
  643SOL    HW1 1928   2.820   1.817   2.152 -2.3014  0.1127 -1.7362
  643SOL    HW2 1929   2.880   1.976   2.120 -0.2336  0.9125  2.3129
  644SOL     OW 1930   2.288   2.414   1.248 -0.0033 -0.0215  0.1659
  644SOL    HW1 1931   2.338   2.340   1.194 -1.3781  0.3952  3.3087
  644SOL    HW2 1932   2.251   2.375   1.339  3.2489 -1.2873 -0.3116
  645SOL     OW 1933   0.654   0.824   1.252 -0.6703 -0.1538 -0.8180
  645SOL    HW1 1934   0.556   0.802   1.270  0.8044  1.6490 -0.8505
  645SOL    HW2 1935   0.664   0.870   1.160 -1.7159 -2.6816  1.9598
  646SOL     OW 1936   1.486   1.842   2.051 -0.3255  0.1625  0.0892
  646SOL    HW1 1937   1.557   1.850   1.974  0.7939  0.3135  0.8383
  646SOL    HW2 1938   1.527   1.795   2.132  0.6162  0.6347  0.8225
  647SOL     OW 1939   0.825   1.121   0.689 -0.1060 -0.5313 -0.2130
  647SOL    HW1 1940   0.900   1.116   0.757  0.1745  0.3108 -1.6712
  647SOL    HW2 1941   0.752   1.052   0.707 -1.1647  0.8027  3.8952
  648SOL     OW 1942   0.178   0.225   0.337 -0.3393 -0.2016 -0.1105
  648SOL    HW1 1943   0.144   0.136   0.290 -0.8650  0.6552 -0.5553
  648SOL    HW2 1944   0.134   0.307   0.287 -1.5718  3.2752  1.6937
  649SOL     OW 1945   3.009   0.260   0.776  0.5408 -0.2972 -0.7364
  649SOL    HW1 1946   3.061   0.212   0.703  0.8078 -1.0607 -1.0520
  649SOL    HW2 1947   3.058   0.339   0.822  1.7563 -0.2932  0.1789
  650SOL     OW 1948   2.791   0.657   1.511 -0.6518 -0.2901  0.4135
  650SOL    HW1 1949   2.685   0.655   1.515  3.2353  1.2690 -0.0510
  650SOL    HW2 1950   2.833   0.751   1.485 -1.3849 -0.3177 -0.0422
  651SOL     OW 1951   0.866   1.538   1.672  0.1823 -0.2229  0.0019
  651SOL    HW1 1952   0.923   1.584   1.744 -0.9865  1.7582 -0.5298
  651SOL    HW2 1953   0.927   1.508   1.591 -0.1123  3.7326 -1.6753
  652SOL     OW 1954   2.378   2.496   2.469 -0.4015  0.2658 -0.4737
  652SOL    HW1 1955   2.276   2.496   2.491  0.5954  0.1557 -0.6604
  652SOL    HW2 1956   2.388   2.481   2.368  0.2969  0.7299  0.5338
  653SOL     OW 1957   2.731   1.269   0.186  0.3009 -0.1373  0.2493
  653SOL    HW1 1958   2.782   1.338   0.245 -0.3345 -1.3173  0.8585
  653SOL    HW2 1959   2.776   1.177   0.189 -1.5788  0.1823 -1.2546
  654SOL     OW 1960   1.270   2.174   1.278  0.0061  0.5798  0.2072
  654SOL    HW1 1961   1.295   2.101   1.347  0.5728 -0.3292 -1.2859
  654SOL    HW2 1962   1.289   2.135   1.185 -1.0354  2.3490  3.0488
  655SOL     OW 1963   0.158   0.973   1.912 -0.5715 -0.2573 -0.3176
  655SOL    HW1 1964   0.219   0.924   1.843  2.3069  2.1763 -2.3684
  655SOL    HW2 1965   0.193   1.072   1.917  0.4943  0.1162  1.0673
  656SOL     OW 1966   2.574   2.547   2.630  0.2681 -0.1411  0.3014
  656SOL    HW1 1967   2.662   2.520   2.588 -0.0862  1.1202  0.2817
  656SOL    HW2 1968   2.499   2.543   2.557 -1.1459  1.7292 -1.0952
  657SOL     OW 1969   3.008   1.075   1.826  0.5415  0.1262 -0.0046
  657SOL    HW1 1970   2.996   1.156   1.895 -1.0655  1.0110 -0.8273
  657SOL    HW2 1971   3.096   1.024   1.833 -1.1266  2.8848 -0.4212
  658SOL     OW 1972   1.682   0.206   2.340  0.4331  0.2554 -0.4906
  658SOL    HW1 1973   1.711   0.144   2.420  2.9035 -0.2503  2.6609
  658SOL    HW2 1974   1.701   0.162   2.247 -1.4527 -2.5852  2.3798
  659SOL     OW 1975   1.423   0.624   2.758  0.1373  0.3553 -0.7039
  659SOL    HW1 1976   1.476   0.691   2.703  1.6634  0.8478  0.3815
  659SOL    HW2 1977   1.327   0.665   2.782 -1.4241  1.2941  2.4460
  660SOL     OW 1978   1.452   0.333   1.401 -0.1465  0.1179 -0.6645
  660SOL    HW1 1979   1.459   0.379   1.494 -2.3954  1.8023  0.9650
  660SOL    HW2 1980   1.503   0.240   1.381  0.0828 -2.1667 -3.5774
  661SOL     OW 1981   2.420   1.268   0.622  0.2307 -0.3260 -0.0620
  661SOL    HW1 1982   2.449   1.258   0.523 -3.2406  1.3452  3.4109
  661SOL    HW2 1983   2.348   1.344   0.627 -1.7919 -0.1445 -0.8719
  662SOL     OW 1984   1.471   0.407   1.675  0.4395  0.5111  0.3865
  662SOL    HW1 1985   1.397   0.363   1.738 -0.2963 -0.5672  3.6448
  662SOL    HW2 1986   1.466   0.510   1.669 -2.9837  0.6271  0.3109
  663SOL     OW 1987   0.893   1.587   2.027 -0.2249 -0.1176  1.2270
  663SOL    HW1 1988   0.876   1.683   2.071 -1.3283  0.4917 -2.2816
  663SOL    HW2 1989   0.808   1.530   2.025  1.5715 -0.1391  1.7708
  664SOL     OW 1990   1.559   2.110   1.436 -0.5478 -0.0867 -0.3495
  664SOL    HW1 1991   1.463   2.074   1.441 -0.1444  1.4425 -0.1190
  664SOL    HW2 1992   1.616   2.081   1.517  2.0539 -0.5089  1.6908
  665SOL     OW 1993   2.243   0.698   1.955 -0.0385 -0.6372 -0.3512
  665SOL    HW1 1994   2.200   0.605   1.940  0.8793  2.2195  1.5806
  665SOL    HW2 1995   2.293   0.711   2.048  0.5134  1.5038  0.2335
  666SOL     OW 1996   0.484   2.223   0.335  0.2202 -0.0749 -0.1881
  666SOL    HW1 1997   0.551   2.269   0.398 -0.2525 -0.5598 -0.3622
  666SOL    HW2 1998   0.383   2.249   0.354  0.5278  2.2755  2.2125
  667SOL     OW 1999   1.956   0.217   1.073  0.2381  0.9273 -0.4810
  667SOL    HW1 2000   1.972   0.322   1.077  3.2635  1.3614  0.8069
  667SOL    HW2 2001   1.898   0.188   1.154  0.6942  0.5523  0.1477
  668SOL     OW 2002   1.983   0.477   1.120  0.1198 -0.7053  0.4134
  668SOL    HW1 2003   2.052   0.540   1.071  0.5277 -0.0165  2.7582
  668SOL    HW2 2004   2.029   0.455   1.209 -4.2676  1.6314 -1.4705
  669SOL     OW 2005   3.025   2.184   1.036 -0.0971  0.4923 -0.8458
  669SOL    HW1 2006   2.993   2.209   0.941 -1.2260 -0.7359  0.2292
  669SOL    HW2 2007   2.959   2.223   1.114 -2.3107 -1.6462 -1.8366
  670SOL     OW 2008   2.915   2.289   2.080 -0.0049 -0.3931 -0.0850
  670SOL    HW1 2009   2.848   2.292   2.155  0.8017  1.2815 -0.9272
  670SOL    HW2 2010   2.920   2.377   2.030 -1.1673  2.2601  0.8734
  671SOL     OW 2011   1.809   1.762   1.528 -0.3648  0.3665  0.4166
  671SOL    HW1 2012   1.856   1.792   1.442  2.9154 -3.1096  1.8645
  671SOL    HW2 2013   1.711   1.733   1.510 -0.1588  3.6392  2.6075
  672SOL     OW 2014   0.461   0.650   2.567 -0.0906 -0.0947 -0.1721
  672SOL    HW1 2015   0.408   0.709   2.504  0.5869  0.0451 -1.9090
  672SOL    HW2 2016   0.445   0.677   2.666  0.2026  1.2406 -2.4022
  673SOL     OW 2017   0.093   1.344   1.084 -0.2709 -0.5298  0.9483
  673SOL    HW1 2018   0.039   1.392   1.156 -0.2064  0.5662 -3.1015
  673SOL    HW2 2019   0.174   1.406   1.053  0.2437  0.5200  0.6982
  674SOL     OW 2020   1.636   2.970   0.284 -0.0275  0.2479  0.3180
  674SOL    HW1 2021   1.669   3.036   0.214 -2.5016 -2.3286 -1.0278
  674SOL    HW2 2022   1.676   2.875   0.274  2.1005 -0.6454  0.8344
  675SOL     OW 2023   1.713   0.844   2.349  0.5941  0.0776  0.0081
  675SOL    HW1 2024   1.814   0.837   2.345 -0.6836  1.3130  0.6537
  675SOL    HW2 2025   1.658   0.769   2.296  0.7612 -2.5177 -0.2894
  676SOL     OW 2026   2.563   1.526   1.960 -0.0308  0.2372 -0.2785
  676SOL    HW1 2027   2.527   1.462   1.877  2.8236 -0.7664 -3.4979
  676SOL    HW2 2028   2.568   1.480   2.052 -1.1817 -0.5456 -1.6975
  677SOL     OW 2029   1.871   0.700   0.911  0.0476  0.1584  0.1844
  677SOL    HW1 2030   1.770   0.679   0.931  1.2273 -1.5898 -2.5029
  677SOL    HW2 2031   1.935   0.620   0.938  3.7422  2.6337  3.2752
  678SOL     OW 2032   0.110   0.759   1.630  0.2371 -0.2724 -0.0075
  678SOL    HW1 2033   0.195   0.807   1.667  1.3438 -1.5872 -1.9248
  678SOL    HW2 2034   0.090   0.674   1.682 -0.9220 -0.5555 -1.6681
  679SOL     OW 2035   2.617   1.137   1.166  0.2409  0.7247 -0.0973
  679SOL    HW1 2036   2.514   1.150   1.174  1.5606  0.7957  0.2308
  679SOL    HW2 2037   2.646   1.039   1.186  0.7793 -0.9038  0.7166
  680SOL     OW 2038   2.852   0.473   1.697 -0.5962  0.3139  0.1569
  680SOL    HW1 2039   2.815   0.537   1.624  1.7911  2.9117 -0.2370
  680SOL    HW2 2040   2.936   0.516   1.744  0.7039 -1.0249 -1.2306
  681SOL     OW 2041   2.998   0.078   1.609 -0.0889 -0.0019  0.1658
  681SOL    HW1 2042   3.026   0.062   1.511  0.2195  3.0551 -0.6492
  681SOL    HW2 2043   2.908   0.130   1.613 -2.0072  3.9835 -1.7911
  682SOL     OW 2044   0.670   0.040   1.328  0.2640 -0.4213  0.2182
  682SOL    HW1 2045   0.596  -0.021   1.366 -0.6280  4.8195  0.2043
  682SOL    HW2 2046   0.719   0.001   1.241 -1.0305 -3.1015 -0.7802
  683SOL     OW 2047   1.376   0.206   2.163 -0.1901  0.2265  0.3434
  683SOL    HW1 2048   1.351   0.256   2.251 -0.5879 -0.2658  1.7470
  683SOL    HW2 2049   1.458   0.250   2.119 -0.9790 -2.5881  1.7434
  684SOL     OW 2050   1.444   2.129   0.548 -0.3426 -0.5726 -0.2368
  684SOL    HW1 2051   1.503   2.064   0.607  0.6348 -1.1205  2.2905
  684SOL    HW2 2052   1.350   2.090   0.527 -0.1052  1.2867 -1.1394
  685SOL     OW 2053   2.234   2.051   1.941 -0.7449 -0.6735 -0.4935
  685SOL    HW1 2054   2.302   2.062   1.863  1.1460  0.4992  2.4738
  685SOL    HW2 2055   2.287   2.042   2.032 -0.5496  1.8809  0.3815
  686SOL     OW 2056   1.490   1.844   2.897  0.4180 -0.3472 -0.3242
  686SOL    HW1 2057   1.548   1.781   2.954  0.7175 -0.0895 -2.0032
  686SOL    HW2 2058   1.386   1.821   2.897  0.5968  0.0254 -0.1301
  687SOL     OW 2059   1.294   2.411   1.976 -0.1648 -0.1177 -0.0899
  687SOL    HW1 2060   1.365   2.334   1.980  0.3330 -0.8511 -0.9984
  687SOL    HW2 2061   1.315   2.483   2.045  0.5745 -1.8676  1.5918
  688SOL     OW 2062   2.077   1.509   1.742 -0.0222  0.2967  0.1065
  688SOL    HW1 2063   2.180   1.505   1.727 -0.8484 -0.3301 -2.0370
  688SOL    HW2 2064   2.019   1.481   1.656 -0.8714  1.2167 -2.7094
  689SOL     OW 2065   2.390   1.130   2.748 -0.4364 -0.3581 -0.1709
  689SOL    HW1 2066   2.294   1.086   2.760 -1.2224 -2.0629 -0.3885
  689SOL    HW2 2067   2.462   1.102   2.817 -0.8571 -0.4104  1.4122
  690SOL     OW 2068   2.218   2.781   0.051  0.1726 -0.5166 -0.0176
  690SOL    HW1 2069   2.175   2.741  -0.035 -0.4969  0.7671  3.5416
  690SOL    HW2 2070   2.158   2.782   0.134 -3.8595 -1.2575 -0.3629
  691SOL     OW 2071   2.577   0.423   2.095  0.5037 -0.6318 -0.0869
  691SOL    HW1 2072   2.618   0.352   2.157  1.9963  0.9498 -0.1692
  691SOL    HW2 2073   2.651   0.488   2.055  0.5247  0.2842  0.8212
  692SOL     OW 2074   2.657   1.188   0.797  0.0117 -0.1851  0.7472
  692SOL    HW1 2075   2.581   1.207   0.730  2.9917  0.9260  0.5328
  692SOL    HW2 2076   2.669   1.266   0.866  0.3371 -0.8860 -0.2631
  693SOL     OW 2077   2.844   2.953   0.616  0.2155  0.2136 -0.9441
  693SOL    HW1 2078   2.810   3.030   0.674 -1.5189 -1.4298  0.8430
  693SOL    HW2 2079   2.815   2.964   0.520  1.0690 -0.0664  0.0141
  694SOL     OW 2080   2.434   2.211   0.162  0.1102  0.5288  0.1788
  694SOL    HW1 2081   2.402   2.307   0.180  2.0893  1.6911 -1.5047
  694SOL    HW2 2082   2.370   2.157   0.108  1.6840  1.5231 -2.0011
  695SOL     OW 2083   0.460   2.960   1.432 -0.0376  0.0076  0.0093
  695SOL    HW1 2084   0.402   2.883   1.389  1.2768  0.2866 -0.2702
  695SOL    HW2 2085   0.410   3.011   1.509  1.3204 -0.8603 -0.1026
  696SOL     OW 2086   2.808   1.991   0.760  0.3106  0.7585 -0.1403
  696SOL    HW1 2087   2.903   1.952   0.783  1.3763 -0.3320  1.5312
  696SOL    HW2 2088   2.802   2.008   0.660  1.0372 -0.3616  0.5653
  697SOL     OW 2089   1.673   1.876   1.832  0.0377  0.1137 -0.0307
  697SOL    HW1 2090   1.773   1.852   1.834  0.8473  1.6599 -0.1951
  697SOL    HW2 2091   1.665   1.982   1.816 -1.1176  2.1157  0.1102
  698SOL     OW 2092   2.878   0.432   2.714  0.3662 -0.1314 -0.0473
  698SOL    HW1 2093   2.868   0.417   2.613  0.6426  2.6404  2.0345
  698SOL    HW2 2094   2.944   0.371   2.761 -0.6625  1.0373 -1.9279
  699SOL     OW 2095   1.569   0.067   2.908 -0.0844 -0.1557 -0.4019
  699SOL    HW1 2096   1.532  -0.024   2.874 -0.9774  1.2554 -1.4261
  699SOL    HW2 2097   1.588   0.132   2.832 -0.1139 -0.9845  0.5619
  700SOL     OW 2098   0.993   2.237   1.358  0.1117 -0.1525 -0.4383
  700SOL    HW1 2099   1.078   2.178   1.330 -0.6837 -1.5668  2.4706
  700SOL    HW2 2100   0.897   2.212   1.325  0.1599  1.3253  0.3979
  701SOL     OW 2101   1.900   2.862   0.039 -0.1054 -0.4104 -0.9289
  701SOL    HW1 2102   1.883   2.837   0.138  0.4312 -2.5683  3.2448
  701SOL    HW2 2103   1.929   2.964   0.039  2.7975  1.5428  3.3966
  702SOL     OW 2104   2.090   1.344   1.967  0.1004 -0.7945  0.3950
  702SOL    HW1 2105   2.181   1.294   1.972 -1.0431 -0.0585  0.0291
  702SOL    HW2 2106   2.086   1.408   1.885  1.9927 -1.5883  0.1623
  703SOL     OW 2107   1.914   0.909   1.513  0.2384 -0.2663 -0.6125
  703SOL    HW1 2108   1.933   0.809   1.528  0.5918  1.3207 -0.9002
  703SOL    HW2 2109   1.984   0.968   1.559 -1.4910  0.5596  2.6247
  704SOL     OW 2110   0.324   2.018   1.694 -0.0930 -0.2610  0.2062
  704SOL    HW1 2111   0.359   1.956   1.768 -0.1516 -1.0971  0.6402
  704SOL    HW2 2112   0.384   2.104   1.681 -1.5071 -0.5423  0.2906
  705SOL     OW 2113   2.458   1.486   0.900  0.5475  0.3483 -0.1012
  705SOL    HW1 2114   2.413   1.418   0.833  0.0429 -0.0450  0.6729
  705SOL    HW2 2115   2.559   1.470   0.917  1.6920 -2.1958 -0.9839
  706SOL     OW 2116   0.651   1.710   1.815 -0.0151  0.4564  0.6601
  706SOL    HW1 2117   0.730   1.714   1.748 -4.5999 -0.6896  2.9704
  706SOL    HW2 2118   0.682   1.702   1.915 -0.1168  3.4836  2.1311
  707SOL     OW 2119   2.341   1.218   1.956  0.2376 -0.3511 -0.2776
  707SOL    HW1 2120   2.385   1.233   2.050 -2.6355 -0.2963  1.1727
  707SOL    HW2 2121   2.334   1.117   1.936  1.8496 -0.3173 -0.6393
  708SOL     OW 2122   3.017   0.504   3.074 -0.0016  0.6213 -0.4179
  708SOL    HW1 2123   3.049   0.580   3.014 -3.0693  0.4429  1.8749
  708SOL    HW2 2124   3.006   0.415   3.030 -2.0247  1.2015  2.0190
  709SOL     OW 2125   1.908   1.872   0.370 -0.2466  0.4224 -0.1267
  709SOL    HW1 2126   1.892   1.974   0.395 -0.2831  0.5189 -1.1598
  709SOL    HW2 2127   1.868   1.847   0.277 -1.8775 -0.6548  1.0778
  710SOL     OW 2128   1.796   1.625   2.475 -0.5738  0.5636  0.1301
  710SOL    HW1 2129   1.835   1.540   2.425 -0.2071 -0.8151 -2.1452
  710SOL    HW2 2130   1.748   1.593   2.559 -0.9978 -0.7213  2.4726
  711SOL     OW 2131   2.634   2.927   0.962 -0.3643  0.1320  1.0181
  711SOL    HW1 2132   2.601   3.024   0.939  0.0654 -0.3501  3.3941
  711SOL    HW2 2133   2.735   2.932   0.988 -3.0142  0.3016  0.2828
  712SOL     OW 2134   1.387   2.122   1.976  0.3727 -0.1525  0.0576
  712SOL    HW1 2135   1.458   2.097   1.913  1.8199  2.5620 -0.2490
  712SOL    HW2 2136   1.293   2.124   1.931 -0.7604 -2.4104 -1.8508
  713SOL     OW 2137   2.777   1.462   2.523  0.1654  0.6189  0.1787
  713SOL    HW1 2138   2.778   1.360   2.509  0.9454 -1.5722  3.0607
  713SOL    HW2 2139   2.700   1.490   2.586 -0.6540 -0.1730  1.1604
  714SOL     OW 2140   2.685   0.481   2.372 -0.2497 -0.1956  0.2424
  714SOL    HW1 2141   2.634   0.430   2.447 -2.7392 -1.8266  3.4392
  714SOL    HW2 2142   2.622   0.498   2.288 -2.3344 -0.8775  0.9571
  715SOL     OW 2143   1.596   2.195   1.158 -0.1669 -0.2520  0.5070
  715SOL    HW1 2144   1.519   2.236   1.109 -0.4973 -1.8456 -1.6612
  715SOL    HW2 2145   1.573   2.170   1.256 -3.2259  1.9350 -1.1358
  716SOL     OW 2146   1.231   0.146   1.483 -0.4119  0.9487 -0.2986
  716SOL    HW1 2147   1.130   0.149   1.442 -0.4932 -1.2590 -0.1239
  716SOL    HW2 2148   1.289   0.232   1.485  1.9637 -1.9303 -1.3622
  717SOL     OW 2149   1.133   0.559   1.620  0.3024 -0.0143 -0.2761
  717SOL    HW1 2150   1.231   0.590   1.641  1.6803  0.1615  0.3411
  717SOL    HW2 2151   1.138   0.498   1.535  1.2106 -2.1347 -0.0270
  718SOL     OW 2152   0.660   0.899   0.959 -0.6317  0.1123  0.4086
  718SOL    HW1 2153   0.653   0.902   0.858  1.1045 -1.3659  2.0380
  718SOL    HW2 2154   0.645   0.997   0.990 -0.6413  0.2579 -0.3865
  719SOL     OW 2155   0.645   1.748   2.295 -0.7845  0.0567  0.1733
  719SOL    HW1 2156   0.715   1.779   2.370 -1.3681 -0.8308 -2.2011
  719SOL    HW2 2157   0.615   1.649   2.299 -1.1610 -2.1596  0.4858
  720SOL     OW 2158   2.218   1.151   0.296  0.1996 -0.0555  0.2755
  720SOL    HW1 2159   2.264   1.083   0.234 -2.3794 -0.9036 -0.0160
  720SOL    HW2 2160   2.173   1.106   0.382  0.1648  0.7918  0.2137
  721SOL     OW 2161   2.272   2.995   2.107 -0.8723  0.5058 -0.8246
  721SOL    HW1 2162   2.232   2.985   2.005 -2.1423 -2.9413 -0.5178
  721SOL    HW2 2163   2.209   3.032   2.182  0.0268 -3.0941  1.6204
  722SOL     OW 2164   2.364   1.636   0.509  0.1358 -0.3013 -0.1823
  722SOL    HW1 2165   2.427   1.671   0.437 -0.8432  0.1608 -1.2863
  722SOL    HW2 2166   2.265   1.657   0.491 -1.9061 -1.0408 -1.7524
  723SOL     OW 2167   2.649   2.746   1.917  0.6113 -0.1710  0.0429
  723SOL    HW1 2168   2.686   2.833   1.964  1.0947  1.6435  1.7972
  723SOL    HW2 2169   2.545   2.745   1.925 -1.9066 -1.9770 -1.2948
  724SOL     OW 2170   0.452   2.496   2.415  0.2608 -0.1722 -0.4525
  724SOL    HW1 2171   0.355   2.500   2.439  1.1092  2.3996 -1.8277
  724SOL    HW2 2172   0.514   2.484   2.499  2.7356  1.9020  0.1956
  725SOL     OW 2173   2.394   2.807   1.539 -0.7444  0.0180  0.5989
  725SOL    HW1 2174   2.408   2.826   1.435 -1.4444 -2.6169  1.2203
  725SOL    HW2 2175   2.430   2.714   1.571  0.7757 -0.1694 -2.1742
  726SOL     OW 2176   2.505   2.320   0.694 -0.1940  0.0141 -0.1773
  726SOL    HW1 2177   2.493   2.414   0.663  1.7739 -0.2534 -2.5827
  726SOL    HW2 2178   2.468   2.247   0.628 -0.6634  0.0849  3.1691
  727SOL     OW 2179   0.110   0.024   0.160 -0.3301  0.4161  0.1899
  727SOL    HW1 2180   0.188   0.034   0.098 -0.2511 -1.7152  1.1274
  727SOL    HW2 2181   0.023  -0.011   0.114 -1.6521 -0.6101  2.4709
  728SOL     OW 2182   2.907   0.719   0.938 -0.0182  0.1518 -0.7493
  728SOL    HW1 2183   2.862   0.676   0.858  0.7436  1.2042  0.6234
  728SOL    HW2 2184   2.882   0.667   1.027  1.7338 -0.2352 -1.2988
  729SOL     OW 2185   0.030   2.511   0.762  0.1111 -0.0792 -0.3521
  729SOL    HW1 2186   0.072   2.502   0.854  1.5351 -1.2820  2.2663
  729SOL    HW2 2187   0.101   2.471   0.698  0.5942  3.4092 -1.4999
  730SOL     OW 2188   2.585   0.660   0.890 -0.8361 -0.5786  0.1448
  730SOL    HW1 2189   2.587   0.764   0.889  0.3977  0.4375 -0.8353
  730SOL    HW2 2190   2.670   0.631   0.845 -0.7982 -0.1875 -1.2164
  731SOL     OW 2191   3.068   2.180   2.359  0.2612 -0.2319  0.1084
  731SOL    HW1 2192   3.083   2.207   2.460 -1.3557 -1.2214  0.1968
  731SOL    HW2 2193   3.035   2.260   2.305  0.4134 -1.0959  0.5209
  732SOL     OW 2194   1.252   2.746   2.009 -0.4084  0.4647  0.1119
  732SOL    HW1 2195   1.252   2.677   2.086  1.1528  0.0065  1.4564
  732SOL    HW2 2196   1.230   2.703   1.919  0.8234 -0.9432  0.6341
  733SOL     OW 2197   0.005   0.591   2.274 -0.0519 -0.2150 -0.5615
  733SOL    HW1 2198   0.084   0.647   2.236 -0.3007 -0.7031 -0.4192
  733SOL    HW2 2199  -0.038   0.530   2.198  0.3225 -2.6690 -1.3825
  734SOL     OW 2200   1.459   0.371   2.677 -0.2887 -0.2675 -0.0557
  734SOL    HW1 2201   1.456   0.473   2.706  1.4320 -1.4118 -0.4804
  734SOL    HW2 2202   1.380   0.316   2.721  0.8582 -0.0699  0.3285
  735SOL     OW 2203   2.862   2.643   2.288 -0.2732 -0.3264 -0.1806
  735SOL    HW1 2204   2.844   2.584   2.211 -1.9440 -0.3066 -0.0735
  735SOL    HW2 2205   2.947   2.705   2.282  1.4303 -2.1154 -0.9903
  736SOL     OW 2206   0.911   0.425   2.503  0.3511  0.5218 -0.0635
  736SOL    HW1 2207   0.808   0.423   2.526 -0.2188  1.4071  1.3310
  736SOL    HW2 2208   0.947   0.348   2.445  0.5889  1.0691 -1.8959
  737SOL     OW 2209   2.618   0.420   2.790 -0.0870  0.1411  0.6881
  737SOL    HW1 2210   2.581   0.412   2.888 -1.3555  2.4837  0.1690
  737SOL    HW2 2211   2.719   0.413   2.777 -0.1433 -0.5502 -0.9459
  738SOL     OW 2212   1.733   1.257   2.900 -0.8579 -0.2871 -0.9448
  738SOL    HW1 2213   1.829   1.255   2.866  1.0244  3.7521  2.1161
  738SOL    HW2 2214   1.691   1.165   2.913 -1.2120  0.1991 -1.3198
  739SOL     OW 2215   1.840   0.671   0.647 -0.9813  0.0436  0.7405
  739SOL    HW1 2216   1.869   0.693   0.740  0.7943 -0.4960 -3.3892
  739SOL    HW2 2217   1.876   0.575   0.615 -0.4541 -1.2661 -0.4193
  740SOL     OW 2218   1.948   1.918   2.367 -0.3841  0.0740  0.1947
  740SOL    HW1 2219   2.019   1.847   2.358 -3.4701 -0.6611  1.0408
  740SOL    HW2 2220   1.860   1.892   2.313  1.7985 -1.3913  2.2218
  741SOL     OW 2221   2.574   0.007   2.456 -0.3644  0.3774 -0.1466
  741SOL    HW1 2222   2.675   0.037   2.437 -1.3400  1.7386 -1.3641
  741SOL    HW2 2223   2.508   0.062   2.398 -0.7439 -0.1867  0.2667
  742SOL     OW 2224   2.197   1.411   0.161  0.1621 -0.7382  0.3298
  742SOL    HW1 2225   2.103   1.432   0.186  1.4707 -2.9915 -2.1737
  742SOL    HW2 2226   2.217   1.318   0.201  0.7645  0.6641 -0.4620
  743SOL     OW 2227   1.819   0.600   2.609 -0.6026 -0.0591 -0.0658
  743SOL    HW1 2228   1.811   0.521   2.538  2.9245  1.4738  1.7538
  743SOL    HW2 2229   1.725   0.642   2.630 -2.2031 -1.7632  3.5346
  744SOL     OW 2230   2.673   2.117   0.069 -0.2497 -0.0173 -0.0670
  744SOL    HW1 2231   2.595   2.155   0.125  2.6583  0.0308 -2.1539
  744SOL    HW2 2232   2.666   2.015   0.038 -2.4824 -1.5074 -0.2341
  745SOL     OW 2233   2.243   2.594   2.233  0.8664  0.5136 -0.4806
  745SOL    HW1 2234   2.148   2.587   2.185  0.1667  0.2779  0.9207
  745SOL    HW2 2235   2.242   2.674   2.301  0.8612 -0.6557 -2.1434
  746SOL     OW 2236   0.043   2.634   1.748  0.5741  0.1971 -0.0632
  746SOL    HW1 2237   0.131   2.592   1.714  0.1316 -2.2003  0.2339
  746SOL    HW2 2238   0.052   2.706   1.819 -1.5813 -1.8609  0.6739
  747SOL     OW 2239   0.050   1.773   1.645 -0.6808 -0.3455 -0.0937
  747SOL    HW1 2240   0.002   1.686   1.612 -1.7169 -1.9854  0.0320
  747SOL    HW2 2241   0.120   1.810   1.586  2.1563 -3.2582 -1.4034
  748SOL     OW 2242   1.865   2.729   2.894 -0.3660 -0.1761 -0.3978
  748SOL    HW1 2243   1.883   2.792   2.978 -2.1875 -0.4966  2.1991
  748SOL    HW2 2244   1.760   2.708   2.877 -3.7856  2.3926 -1.7817
  749SOL     OW 2245   1.407   3.024   0.898  0.3799  0.4213  0.2934
  749SOL    HW1 2246   1.317   3.074   0.866  0.6818 -2.5085 -0.4570
  749SOL    HW2 2247   1.461   3.005   0.814  0.1428  0.2228 -2.2167
  750SOL     OW 2248   2.252   0.174   1.842  0.4753  0.2756 -0.2331
  750SOL    HW1 2249   2.283   0.204   1.752 -2.9971 -0.0135  3.0217
  750SOL    HW2 2250   2.263   0.244   1.919 -0.8068 -0.0348 -0.1782
  751SOL     OW 2251   0.755   2.134   2.877 -0.0660  0.6505 -0.1962
  751SOL    HW1 2252   0.812   2.134   2.962  1.8548 -2.1586  0.2054
  751SOL    HW2 2253   0.665   2.080   2.887 -2.0656  1.6222 -0.7022
  752SOL     OW 2254   1.294   0.826   1.229 -0.2693 -0.1686  0.9291
  752SOL    HW1 2255   1.338   0.919   1.241 -2.7443  2.3411  2.4784
  752SOL    HW2 2256   1.355   0.753   1.276  0.6979  0.9914  2.3545
  753SOL     OW 2257   0.925   2.551   1.806 -0.4809 -0.3002  0.1695
  753SOL    HW1 2258   1.016   2.589   1.781 -2.7478 -0.7979  0.9489
  753SOL    HW2 2259   0.861   2.623   1.839  0.8730 -2.0928 -1.5717
  754SOL     OW 2260   1.142   1.191   3.023 -0.0553  0.3065  0.5034
  754SOL    HW1 2261   1.193   1.117   2.967 -1.6301  1.6220 -1.0684
  754SOL    HW2 2262   1.185   1.288   3.013 -0.3747  1.6839  0.4799
  755SOL     OW 2263   1.984   0.436   2.230 -0.1250 -0.3816 -0.2758
  755SOL    HW1 2264   2.052   0.373   2.267 -0.8017  0.2239  0.6330
  755SOL    HW2 2265   1.896   0.448   2.291 -1.7787  0.5005 -2.0566
  756SOL     OW 2266   2.498   1.002   2.980  0.3074  0.1349 -0.0288
  756SOL    HW1 2267   2.597   0.975   2.975  1.6820 -1.3185  1.2902
  756SOL    HW2 2268   2.441   0.920   3.012  2.0263 -1.6384 -0.4465
  757SOL     OW 2269   0.100   0.427   1.974  0.3172  0.4964  0.7372
  757SOL    HW1 2270   0.160   0.353   1.925 -1.2276  0.6187  1.0988
  757SOL    HW2 2271   0.016   0.393   2.015  0.3912  1.2137  1.1980
  758SOL     OW 2272   2.191   0.093   1.505  0.0782 -0.1111 -0.0350
  758SOL    HW1 2273   2.171  -0.007   1.527  0.0161  0.8361 -0.7969
  758SOL    HW2 2274   2.252   0.099   1.424  1.6655 -1.4759 -0.8216
  759SOL     OW 2275   1.704   0.020   0.068 -0.3479  0.0890  0.7887
  759SOL    HW1 2276   1.651   0.042  -0.019  0.9278 -0.1355 -0.7227
  759SOL    HW2 2277   1.808   0.020   0.052  1.7679 -0.9569 -0.3946
  760SOL     OW 2278   2.688   2.024   2.822  0.1217  0.7265  0.4970
  760SOL    HW1 2279   2.602   1.988   2.866  0.4907 -2.9207  1.5213
  760SOL    HW2 2280   2.706   2.125   2.847  1.3356  0.3925  1.1760
  761SOL     OW 2281   1.942   1.774   1.759 -0.5090  0.5755  0.2529
  761SOL    HW1 2282   1.971   1.676   1.785  0.4225  0.2783  2.6067
  761SOL    HW2 2283   1.886   1.771   1.670 -0.6821  1.4389  1.4756
  762SOL     OW 2284   0.496   2.402   0.970  0.3065 -0.0361  0.2807
  762SOL    HW1 2285   0.538   2.434   0.878 -2.4231  1.1640 -0.3712
  762SOL    HW2 2286   0.566   2.398   1.048 -1.2159  1.3179 -1.1366
  763SOL     OW 2287   2.074   1.552   2.986 -0.2659 -0.6431 -0.3331
  763SOL    HW1 2288   2.172   1.533   3.002  0.6758  2.4093 -2.1219
  763SOL    HW2 2289   2.017   1.502   3.059  0.6671 -2.7120  2.4849
  764SOL     OW 2290   0.689   0.619   0.676  0.1828  0.3342 -0.2094
  764SOL    HW1 2291   0.608   0.551   0.657  0.6893 -2.1377  0.3948
  764SOL    HW2 2292   0.743   0.594   0.763  4.0015  0.4690  2.2068
  765SOL     OW 2293   0.796   0.298   0.736 -0.2011  0.3698 -0.2821
  765SOL    HW1 2294   0.865   0.327   0.657 -0.8120 -1.8931  2.2625
  765SOL    HW2 2295   0.794   0.367   0.812 -1.4590  1.2698  0.4601
  766SOL     OW 2296   2.926   2.132   3.056  0.0855  0.0391 -0.2843
  766SOL    HW1 2297   2.829   2.138   3.084  0.9595  0.1294  0.0934
  766SOL    HW2 2298   2.982   2.219   3.072  1.1222 -0.4390 -2.2669
  767SOL     OW 2299   2.792   1.634   0.610 -0.1386  0.0229 -0.1959
  767SOL    HW1 2300   2.696   1.646   0.647 -1.7721  1.5698 -0.5666
  767SOL    HW2 2301   2.859   1.639   0.687 -0.4722  2.6285 -0.2873
  768SOL     OW 2302   1.069   0.183   0.224 -0.2411 -0.6050  0.2470
  768SOL    HW1 2303   1.072   0.279   0.259  0.4875 -0.7755 -1.0244
  768SOL    HW2 2304   1.161   0.140   0.214  3.7249  1.0324  0.3946
  769SOL     OW 2305   1.106   1.795   2.303  0.2934  0.1288  0.0759
  769SOL    HW1 2306   1.020   1.842   2.346 -1.6321  2.4873 -2.2280
  769SOL    HW2 2307   1.189   1.798   2.366 -1.7391 -0.0634 -1.4400
  770SOL     OW 2308   0.174   1.120   2.305  0.2098 -0.0970 -0.0544
  770SOL    HW1 2309   0.168   1.212   2.352  0.3870  0.8926 -1.0625
  770SOL    HW2 2310   0.080   1.084   2.274  0.3567 -0.1058 -2.0578
  771SOL     OW 2311   3.058   2.817   1.942 -0.2892  0.4443  0.3095
  771SOL    HW1 2312   3.004   2.855   1.863  0.0050  3.9929 -1.7503
  771SOL    HW2 2313   3.035   2.876   2.021 -2.1940 -0.4682  1.0397
  772SOL     OW 2314   2.347   0.248   2.811  0.0447 -0.4168  0.3647
  772SOL    HW1 2315   2.416   0.185   2.768  1.6971 -3.9208  1.4322
  772SOL    HW2 2316   2.351   0.248   2.916  0.4958  0.9807 -0.4232
  773SOL     OW 2317   0.602   2.117   2.374  0.2364  0.2303 -0.1597
  773SOL    HW1 2318   0.591   2.209   2.326 -2.4162  0.8978 -4.6469
  773SOL    HW2 2319   0.526   2.100   2.439 -0.0574  2.9862  0.2685
  774SOL     OW 2320   2.099   0.006   2.589 -0.1557  0.3254  0.1386
  774SOL    HW1 2321   2.079   0.093   2.640  0.3470 -0.5408 -2.8164
  774SOL    HW2 2322   2.157  -0.065   2.643 -2.7740 -2.2854 -1.4141
  775SOL     OW 2323   2.533   2.962   2.206  1.2842 -0.3705  0.5476
  775SOL    HW1 2324   2.437   2.995   2.182  2.2624  2.1005  3.6493
  775SOL    HW2 2325   2.550   2.975   2.306  4.0961  1.2939  3.7484
  776SOL     OW 2326   3.089   1.272   0.176 -0.0730 -0.0550  0.5587
  776SOL    HW1 2327   3.022   1.245   0.100 -0.8935 -1.3461 -0.4060
  776SOL    HW2 2328   3.040   1.252   0.267  2.4149 -1.1381 -0.3428
  777SOL     OW 2329   0.406   2.910   0.417  0.8587 -0.4516  0.1957
  777SOL    HW1 2330   0.307   2.884   0.396 -0.6031 -0.8754 -0.8110
  777SOL    HW2 2331   0.473   2.829   0.410  1.4669 -2.9145  0.3571
  778SOL     OW 2332   1.329   2.020   0.208 -0.4443 -0.7028 -0.2051
  778SOL    HW1 2333   1.269   2.054   0.284 -1.0080 -1.0634 -0.7516
  778SOL    HW2 2334   1.356   2.088   0.133 -1.0310 -2.1333 -1.4211
  779SOL     OW 2335   0.166   0.828   0.473 -0.0151  0.3046 -0.6324
  779SOL    HW1 2336   0.128   0.736   0.481  0.5594  0.8599  2.8427
  779SOL    HW2 2337   0.124   0.894   0.546  0.3439  0.0351  0.0324
  780SOL     OW 2338   0.139   0.271   2.339  0.0607  0.0065  0.5444
  780SOL    HW1 2339   0.117   0.342   2.417  1.7817 -0.6731  3.0292
  780SOL    HW2 2340   0.221   0.307   2.285 -0.6609 -0.3251 -1.8013
  781SOL     OW 2341   0.708   1.711   1.496 -0.5662 -0.2666 -0.2379
  781SOL    HW1 2342   0.755   1.640   1.554 -0.2482  0.2816  0.8969
  781SOL    HW2 2343   0.604   1.699   1.494 -0.0472  2.0541 -0.4541
  782SOL     OW 2344   2.532   0.097   0.952 -0.2797  0.5930  0.0761
  782SOL    HW1 2345   2.495   0.131   0.861 -1.9642 -0.3809 -0.2621
  782SOL    HW2 2346   2.471   0.119   1.032 -1.8407  1.7269 -0.6078
  783SOL     OW 2347   2.781   0.715   2.482 -0.5253 -0.4526 -0.9134
  783SOL    HW1 2348   2.828   0.682   2.570 -2.4685 -2.5639 -0.7813
  783SOL    HW2 2349   2.731   0.629   2.448 -0.3363 -0.4467  2.4086
  784SOL     OW 2350   1.409   2.200   0.007  0.2273  1.0097  0.3716
  784SOL    HW1 2351   1.468   2.278   0.033 -1.3214 -1.4771 -0.7161
  784SOL    HW2 2352   1.392   2.197  -0.099  0.1114  0.0534 -0.6009
  785SOL     OW 2353   2.056   0.303   0.002  0.1373 -0.2884 -0.7412
  785SOL    HW1 2354   1.995   0.334   0.079  0.1220  2.6475  1.3740
  785SOL    HW2 2355   2.088   0.384  -0.050  0.2287 -0.0870  1.6866
  786SOL     OW 2356   2.032   2.169   2.224 -0.0820 -0.1542  0.2204
  786SOL    HW1 2357   1.978   2.085   2.259  1.4449  1.8866  2.1286
  786SOL    HW2 2358   2.128   2.159   2.237 -2.0223 -1.2080  1.1549
  787SOL     OW 2359   1.372   0.560   0.911  0.3125 -0.4608  0.3221
  787SOL    HW1 2360   1.319   0.645   0.889 -1.5911 -1.0744  0.2525
  787SOL    HW2 2361   1.416   0.522   0.833  0.7579 -1.1851  0.1692
  788SOL     OW 2362   1.226   0.442   0.029  0.3195  0.3320  0.3664
  788SOL    HW1 2363   1.135   0.410  -0.002  0.0485  0.1843  0.0682
  788SOL    HW2 2364   1.219   0.503   0.111 -2.4242  0.4327  1.3796
  789SOL     OW 2365   2.510   0.116   1.957 -0.1970  0.1499  0.2222
  789SOL    HW1 2366   2.415   0.099   1.934 -2.3819 -3.1074 -0.6809
  789SOL    HW2 2367   2.571   0.030   1.961  4.0650  1.6370 -0.6654
  790SOL     OW 2368   2.638   2.747   0.724  0.5182 -0.0917  0.2693
  790SOL    HW1 2369   2.702   2.814   0.673  0.8556 -2.8765  0.8858
  790SOL    HW2 2370   2.604   2.794   0.810 -1.9859 -0.4052  0.9848
  791SOL     OW 2371   1.929   1.211   0.254 -0.1250 -0.1360  0.6082
  791SOL    HW1 2372   1.842   1.176   0.300 -3.7669  0.3472  1.9637
  791SOL    HW2 2373   2.014   1.183   0.313  2.8544 -3.3112 -0.2410
  792SOL     OW 2374   0.385   1.732   2.110 -0.4586  0.0732 -0.9002
  792SOL    HW1 2375   0.471   1.681   2.140 -0.1325  1.6123 -2.4897
  792SOL    HW2 2376   0.344   1.785   2.192  0.5585  1.0631  0.6373
  793SOL     OW 2377   2.100   1.589   2.096  0.1834  0.0810  0.2728
  793SOL    HW1 2378   2.183   1.624   2.038 -0.3926  0.4150 -0.8677
  793SOL    HW2 2379   2.079   1.489   2.077  0.6215  0.4357 -3.0422
  794SOL     OW 2380   0.560   1.487   2.306  0.2010 -0.2297  0.7424
  794SOL    HW1 2381   0.525   1.417   2.240 -0.6993  0.1004  1.1881
  794SOL    HW2 2382   0.512   1.484   2.395  1.0013 -0.8856 -0.2801
  795SOL     OW 2383   2.527   2.317   1.816  0.1400  0.1679 -0.3006
  795SOL    HW1 2384   2.533   2.297   1.918  2.7738 -1.3294 -1.2952
  795SOL    HW2 2385   2.461   2.249   1.767  3.0089 -0.1483  0.9863
  796SOL     OW 2386   0.004   1.110   2.647  0.5889 -0.2119  0.1951
  796SOL    HW1 2387  -0.094   1.075   2.655  1.8179 -0.1766  1.8960
  796SOL    HW2 2388   0.046   1.132   2.742 -2.5287  1.1306  1.2204
  797SOL     OW 2389   0.796   0.649   1.395 -0.3750  0.2511  0.2188
  797SOL    HW1 2390   0.845   0.716   1.454  0.7696  0.0567 -0.8118
  797SOL    HW2 2391   0.732   0.696   1.331 -1.1502 -1.5986  1.3097
  798SOL     OW 2392   1.330   0.398   1.175 -0.1376 -0.4627 -0.4531
  798SOL    HW1 2393   1.391   0.404   1.257  0.1736 -0.2724  2.1430
  798SOL    HW2 2394   1.360   0.464   1.102  0.1845 -1.8291 -0.9209
  799SOL     OW 2395   1.973   2.678   1.002  0.1515  0.7002 -0.8796
  799SOL    HW1 2396   1.892   2.652   1.064  1.1512  0.8417  0.7344
  799SOL    HW2 2397   1.959   2.677   0.895  2.2550 -0.3759 -0.6141
  800SOL     OW 2398   3.081   0.599   1.819 -0.1305  0.8596 -0.2148
  800SOL    HW1 2399   3.034   0.663   1.885  0.0257 -1.1661 -1.3470
  800SOL    HW2 2400   3.131   0.524   1.870 -1.8222  1.5864  0.4754
  801SOL     OW 2401   1.916   2.259   0.123  0.0199  0.6317 -0.8545
  801SOL    HW1 2402   1.847   2.180   0.132 -1.0169 -0.0420 -1.6305
  801SOL    HW2 2403   2.011   2.219   0.109  0.9939  0.0724  0.9519
  802SOL     OW 2404   0.716   0.779   2.586  0.7049  0.8377 -0.1141
  802SOL    HW1 2405   0.773   0.765   2.503 -1.8021 -0.3376  2.5810
  802SOL    HW2 2406   0.618   0.743   2.575 -0.9411  1.3095 -2.3836
  803SOL     OW 2407   0.929   0.112   0.911  0.4420 -0.5067  0.0592
  803SOL    HW1 2408   1.015   0.164   0.904  0.1884 -0.1716  0.1836
  803SOL    HW2 2409   0.851   0.158   0.866  1.2435 -0.7153  3.3709
  804SOL     OW 2410   0.328   0.033   2.143 -0.9794  0.8415  0.2682
  804SOL    HW1 2411   0.281   0.117   2.113 -1.5865  1.7631  2.9392
  804SOL    HW2 2412   0.307  -0.050   2.086  0.0598  1.3558 -2.6865
  805SOL     OW 2413   2.413   0.230   0.248 -0.4334 -0.0851 -0.4985
  805SOL    HW1 2414   2.500   0.289   0.262  2.8852  1.7647  0.0979
  805SOL    HW2 2415   2.402   0.193   0.147  0.5620 -1.4984 -1.8080
  806SOL     OW 2416   0.642   2.408   1.687 -0.2216 -0.3002 -0.4356
  806SOL    HW1 2417   0.646   2.511   1.709  2.0749  0.2165  1.5778
  806SOL    HW2 2418   0.732   2.357   1.696  0.6769  0.7062 -0.1017
  807SOL     OW 2419   2.475   0.977   0.465 -0.6461  0.6534 -0.0387
  807SOL    HW1 2420   2.574   0.964   0.499 -1.2610 -0.7438  3.9580
  807SOL    HW2 2421   2.463   0.960   0.363 -2.3561  2.0887 -2.3765
  808SOL     OW 2422   0.519   1.977   2.933 -0.4226 -0.2918  0.0160
  808SOL    HW1 2423   0.534   2.020   3.028  2.0570  0.3019  0.1681
  808SOL    HW2 2424   0.566   1.887   2.925  1.0880  1.2075 -0.3512
  809SOL     OW 2425   2.581   1.958   1.962  0.1456 -0.1968  0.5961
  809SOL    HW1 2426   2.656   2.018   1.925  3.4404  0.0077  1.5305
  809SOL    HW2 2427   2.516   1.920   1.893 -0.1904  2.7516  0.1113
  810SOL     OW 2428   2.038   1.090   0.520  0.6673 -0.1258 -0.7720
  810SOL    HW1 2429   2.081   1.052   0.610 -0.7094  0.7109 -0.6378
  810SOL    HW2 2430   2.000   1.184   0.543  2.1732 -2.0700  0.1348
  811SOL     OW 2431   1.326   2.446   1.276  0.4635 -0.4481  0.3976
  811SOL    HW1 2432   1.318   2.346   1.306  0.1416  0.8108 -2.0597
  811SOL    HW2 2433   1.235   2.499   1.266 -1.7602 -1.3649 -0.3582
  812SOL     OW 2434   1.429   0.777   1.937  0.4197  0.0400  0.1297
  812SOL    HW1 2435   1.490   0.855   1.970  0.9440 -0.3400  0.7957
  812SOL    HW2 2436   1.329   0.801   1.928 -0.4196  0.0775 -1.1519
  813SOL     OW 2437   1.738   2.148   2.435 -0.0286  0.4315 -0.2392
  813SOL    HW1 2438   1.824   2.087   2.450  0.3487 -0.4157  4.4570
  813SOL    HW2 2439   1.674   2.116   2.359  1.9614  2.8884  0.8592
  814SOL     OW 2440   2.851   1.557   2.918  0.4128  0.0266 -0.1702
  814SOL    HW1 2441   2.951   1.529   2.941 -0.5423 -2.2174 -1.3866
  814SOL    HW2 2442   2.846   1.642   2.855 -0.9791 -2.6999  0.6819
  815SOL     OW 2443   2.256   2.892   2.686  0.4649 -0.8892 -0.0703
  815SOL    HW1 2444   2.219   2.857   2.774 -0.2358 -1.6086 -1.2118
  815SOL    HW2 2445   2.363   2.902   2.675  2.2564  0.6050 -2.3090
  816SOL     OW 2446   1.736   0.322   1.656 -1.1440  0.2322 -0.5776
  816SOL    HW1 2447   1.730   0.220   1.671 -1.3990 -0.9106 -1.1689
  816SOL    HW2 2448   1.642   0.370   1.679 -1.4625  1.7773 -1.9722
  817SOL     OW 2449   0.462   1.213   2.463 -0.3890  0.3974  0.2422
  817SOL    HW1 2450   0.444   1.309   2.500 -0.0604  1.1264  0.5985
  817SOL    HW2 2451   0.455   1.198   2.358  1.9139  1.2883  0.2748
  818SOL     OW 2452   1.993   0.833   0.450 -0.3001  0.2432 -0.5746
  818SOL    HW1 2453   1.996   0.935   0.463 -0.4475  1.1649 -3.3939
  818SOL    HW2 2454   1.936   0.780   0.520  0.6544 -1.3192 -1.8082
  819SOL     OW 2455   2.760   2.921   3.034 -0.3483  0.1809  0.2545
  819SOL    HW1 2456   2.817   2.832   3.037  0.9346 -1.2538  2.0139
  819SOL    HW2 2457   2.683   2.914   2.964  0.4116 -1.4064 -0.4389
  820SOL     OW 2458   1.253   1.152   0.509  0.2192  0.6619  0.5151
  820SOL    HW1 2459   1.237   1.240   0.555 -1.5562 -2.9138 -0.4907
  820SOL    HW2 2460   1.234   1.073   0.577 -0.9959  2.0096  0.5489
  821SOL     OW 2461   3.071   1.287   0.658 -0.1279 -0.3523  0.4049
  821SOL    HW1 2462   3.011   1.299   0.737  1.5028 -0.8699 -2.3459
  821SOL    HW2 2463   3.150   1.356   0.659 -1.9556 -0.5251 -0.7162
  822SOL     OW 2464   2.517   1.766   2.435 -0.1821 -0.0820 -0.4660
  822SOL    HW1 2465   2.513   1.838   2.510 -0.3169 -0.1953 -1.3398
  822SOL    HW2 2466   2.461   1.792   2.355  1.4077 -0.3646  2.2547
  823SOL     OW 2467   2.049   0.884   1.245 -0.5270  0.1915  0.0899
  823SOL    HW1 2468   2.015   0.852   1.337 -1.5796 -0.2342 -0.2467
  823SOL    HW2 2469   1.972   0.911   1.179  1.4512 -2.3553 -1.8354
  824SOL     OW 2470   0.121   2.026   2.756 -0.1635  0.5677  0.5550
  824SOL    HW1 2471   0.071   1.949   2.807 -0.2167 -2.6122 -1.0744
  824SOL    HW2 2472   0.196   1.986   2.697 -0.9451 -0.4072  1.6337
  825SOL     OW 2473   1.251   1.058   0.211  0.1878  0.2335 -0.1855
  825SOL    HW1 2474   1.259   1.092   0.308 -0.5513  3.0907 -0.9414
  825SOL    HW2 2475   1.229   1.136   0.152  1.9484  2.2256  2.9268
  826SOL     OW 2476   1.953   0.629   1.535 -0.1003  0.2846  0.4093
  826SOL    HW1 2477   1.998   0.561   1.605  2.0410 -2.4322 -1.1275
  826SOL    HW2 2478   1.870   0.584   1.487 -1.8697  0.9515 -0.5445
  827SOL     OW 2479   0.716   1.440   0.310  0.2454  0.4495  0.2881
  827SOL    HW1 2480   0.736   1.381   0.226  0.6046  1.1026 -0.6831
  827SOL    HW2 2481   0.679   1.384   0.389  0.6750 -0.7449 -2.9755
  828SOL     OW 2482   2.546   0.069   1.584 -0.5438 -0.1660  0.1021
  828SOL    HW1 2483   2.452   0.104   1.583 -1.1774  2.4737 -0.1432
  828SOL    HW2 2484   2.549  -0.015   1.646  1.9737 -1.0005  0.7123
  829SOL     OW 2485   2.813   2.478   2.988 -0.2929  0.1941 -0.3760
  829SOL    HW1 2486   2.738   2.432   2.931  1.8745 -0.2698 -3.0808
  829SOL    HW2 2487   2.781   2.527   3.075  1.1422 -0.7265  3.1726
  830SOL     OW 2488   2.777   0.944   3.027 -0.0620  0.0260 -0.4060
  830SOL    HW1 2489   2.858   1.011   3.025  1.3656 -0.3220 -1.5621
  830SOL    HW2 2490   2.803   0.851   3.070  1.8458 -1.8219  1.2757
  831SOL     OW 2491   3.092   0.607   0.367  0.3419  0.5059 -0.3448
  831SOL    HW1 2492   3.074   0.549   0.459  1.6526  0.5299 -0.1624
  831SOL    HW2 2493   3.117   0.539   0.292 -1.8245 -0.4601  0.4223
  832SOL     OW 2494   1.826   0.729   0.038  0.7844 -0.0883  0.8058
  832SOL    HW1 2495   1.733   0.761   0.001 -0.6543 -2.4004  1.0898
  832SOL    HW2 2496   1.841   0.629   0.007  0.4907  0.5681 -1.9935
  833SOL     OW 2497   2.418   2.139   0.512 -0.5436 -0.3897  0.3279
  833SOL    HW1 2498   2.316   2.144   0.482 -3.2839  0.7798 -1.3966
  833SOL    HW2 2499   2.457   2.043   0.518 -0.3281 -1.6955 -2.6655
  834SOL     OW 2500   0.133   0.219   0.606  0.1304 -0.1866 -0.8451
  834SOL    HW1 2501   0.211   0.170   0.658  4.0852 -0.1213 -0.8140
  834SOL    HW2 2502   0.143   0.230   0.506  0.7155  1.0404 -1.9803
  835SOL     OW 2503   2.334   1.536   1.143 -0.1596  0.0114 -0.9205
  835SOL    HW1 2504   2.414   1.580   1.197  0.4858  1.3986  2.4196
  835SOL    HW2 2505   2.375   1.505   1.056  0.2735  0.4246  0.0534
  836SOL     OW 2506   1.555   0.802   2.575  0.4589 -0.0504  0.3910
  836SOL    HW1 2507   1.455   0.810   2.545 -0.0377 -2.0203  0.4549
  836SOL    HW2 2508   1.621   0.822   2.497  0.3760  2.0825 -0.6265
  837SOL     OW 2509   1.693   0.112   0.519  0.9011  0.4137  0.2665
  837SOL    HW1 2510   1.648   0.180   0.578  0.9049  0.2543 -3.0543
  837SOL    HW2 2511   1.643   0.109   0.426  2.1317 -2.5872 -1.9078
  838SOL     OW 2512   1.216   1.585   2.706 -0.0998 -0.0694  0.5246
  838SOL    HW1 2513   1.299   1.540   2.746  0.5282  2.2281  0.2055
  838SOL    HW2 2514   1.135   1.521   2.687 -1.6737  2.9548  0.1133
  839SOL     OW 2515   1.609   0.296   0.987 -0.5729 -0.4259  0.5349
  839SOL    HW1 2516   1.662   0.365   1.043  1.3417  0.0089 -3.2265
  839SOL    HW2 2517   1.584   0.215   1.042 -0.4723  0.9795 -0.1735
  840SOL     OW 2518   2.554   2.957   1.734 -0.1783 -0.2428 -0.0120
  840SOL    HW1 2519   2.511   2.899   1.657 -0.1392 -0.9138  2.6458
  840SOL    HW2 2520   2.609   2.905   1.800 -1.7617  1.0567 -1.8902
  841SOL     OW 2521   1.602   0.854   3.058  0.3025 -0.4501 -0.6174
  841SOL    HW1 2522   1.523   0.838   3.125 -2.3974  0.8424  1.8406
  841SOL    HW2 2523   1.585   0.915   2.980  0.0065 -0.1059  3.8072
  842SOL     OW 2524   0.818   1.490   0.893  0.2011 -0.2116  0.4669
  842SOL    HW1 2525   0.771   1.572   0.942  2.0079 -0.5881  0.8594
  842SOL    HW2 2526   0.752   1.423   0.849  2.9305  0.9626  0.6156
  843SOL     OW 2527   0.122   0.011   1.391 -0.3525  0.4583 -0.4662
  843SOL    HW1 2528   0.163   0.081   1.452  0.8366  0.8172 -2.0853
  843SOL    HW2 2529   0.093  -0.076   1.438 -0.7764 -2.2108 -2.4708
  844SOL     OW 2530   0.796   2.456   0.265 -0.2256  0.7872  0.2439
  844SOL    HW1 2531   0.747   2.437   0.356  2.3419 -0.5338  2.1603
  844SOL    HW2 2532   0.746   2.525   0.207 -0.5055  0.1179 -0.2137
  845SOL     OW 2533   1.677   2.873   1.247 -0.0285  0.3641  0.2100
  845SOL    HW1 2534   1.743   2.789   1.238 -0.4173  2.0218 -1.2341
  845SOL    HW2 2535   1.691   2.928   1.331  0.3790 -0.5608 -0.2426
  846SOL     OW 2536   1.569   2.961   0.691 -0.0395 -0.1614 -0.2581
  846SOL    HW1 2537   1.561   2.956   0.587 -0.3855  0.5101  0.9079
  846SOL    HW2 2538   1.668   2.947   0.721 -0.2303  0.8487 -0.4274
  847SOL     OW 2539   2.105   1.688   0.430  0.1597 -0.7400 -0.0199
  847SOL    HW1 2540   2.058   1.599   0.395 -1.5595  2.4569 -0.8884
  847SOL    HW2 2541   2.030   1.753   0.456 -2.5636  1.2717 -0.4195
  848SOL     OW 2542   2.436   0.870   2.601  0.5230 -0.1302  0.1186
  848SOL    HW1 2543   2.411   0.945   2.668  1.0884 -1.2714  0.3612
  848SOL    HW2 2544   2.354   0.807   2.581 -0.1239 -0.6654  1.4369
  849SOL     OW 2545   2.566   0.863   2.355 -0.0021 -0.6794  0.2604
  849SOL    HW1 2546   2.658   0.830   2.391  1.8693  0.1342 -0.4142
  849SOL    HW2 2547   2.500   0.878   2.427  0.8651 -0.2472 -2.0434
  850SOL     OW 2548   1.582   0.086   1.356 -0.1422 -0.0734  0.2850
  850SOL    HW1 2549   1.557   0.069   1.257  3.7996  2.8492  0.3540
  850SOL    HW2 2550   1.546   0.012   1.415 -0.5183  2.3455 -2.2090
  851SOL     OW 2551   0.455   1.803   0.581 -0.3616  0.1983 -0.4658
  851SOL    HW1 2552   0.451   1.890   0.634  0.2239  1.2217  0.1056
  851SOL    HW2 2553   0.507   1.822   0.494 -0.6565  4.4226  1.2857
  852SOL     OW 2554   0.844   2.032   1.799  0.0538  0.1553  0.1754
  852SOL    HW1 2555   0.861   2.118   1.738 -2.9638  1.0109  0.6639
  852SOL    HW2 2556   0.782   2.052   1.879 -0.9075  1.1857 -1.3369
  853SOL     OW 2557   2.526   1.553   2.610 -0.3872 -0.6492  0.2405
  853SOL    HW1 2558   2.460   1.475   2.607  0.9155  0.6152 -0.7346
  853SOL    HW2 2559   2.510   1.634   2.541 -0.0675  1.3686  2.6928
  854SOL     OW 2560   2.449   1.375   1.770 -0.0125 -0.0495 -0.4229
  854SOL    HW1 2561   2.493   1.346   1.679 -4.0781 -0.8985 -0.6743
  854SOL    HW2 2562   2.420   1.294   1.831  1.2272  1.7242  0.4165
  855SOL     OW 2563   2.061   2.415   1.080  0.3353  0.3906 -0.0673
  855SOL    HW1 2564   2.048   2.503   1.026 -0.6540 -0.2842 -0.1405
  855SOL    HW2 2565   2.151   2.406   1.129  1.3865 -0.4379 -2.0907
  856SOL     OW 2566   1.312   1.420   0.942 -0.3544 -0.2521  0.0838
  856SOL    HW1 2567   1.390   1.495   0.950 -0.8053  3.9994  1.4584
  856SOL    HW2 2568   1.214   1.461   0.953 -2.1888 -0.7770 -0.5188
  857SOL     OW 2569   3.088   2.764   1.025 -0.5184 -0.0711 -0.5457
  857SOL    HW1 2570   3.069   2.661   1.026  0.7896  1.7816  0.1211
  857SOL    HW2 2571   3.179   2.791   0.991 -1.1202 -0.0121 -1.9684
  858SOL     OW 2572   2.370   2.082   1.725 -0.1054  0.0126  0.2307
  858SOL    HW1 2573   2.293   2.055   1.669  0.2294  1.0613  2.0748
  858SOL    HW2 2574   2.458   2.027   1.713  2.1650 -0.2302  1.3589
  859SOL     OW 2575   2.390   0.540   1.039  0.0415  0.5137  0.3575
  859SOL    HW1 2576   2.449   0.585   0.967 -0.3753  2.7954 -0.4681
  859SOL    HW2 2577   2.445   0.476   1.102  1.4002 -1.0986  0.9779
  860SOL     OW 2578   1.822   2.833   0.535 -0.4488  0.0116 -0.5924
  860SOL    HW1 2579   1.802   2.784   0.441 -1.9172 -0.7592 -1.6201
  860SOL    HW2 2580   1.849   2.932   0.524 -1.0263 -0.9264  0.1731
  861SOL     OW 2581   0.966   2.491   2.877  0.5111 -0.0752 -0.3431
  861SOL    HW1 2582   1.041   2.543   2.831  0.4279  0.4108  0.8196
  861SOL    HW2 2583   0.927   2.546   2.954  1.1292  1.2825 -2.2939
  862SOL     OW 2584   2.902   2.555   1.637  0.4957  0.1223  0.0347
  862SOL    HW1 2585   2.990   2.553   1.690 -0.0868 -3.6260 -0.6389
  862SOL    HW2 2586   2.855   2.649   1.631  0.7106  0.7250 -1.8199
  863SOL     OW 2587   1.805   2.734   0.267  0.1433 -0.4400 -0.7021
  863SOL    HW1 2588   1.869   2.652   0.265 -0.9151  1.5229  2.5826
  863SOL    HW2 2589   1.709   2.714   0.235  1.3758 -0.9688  1.0373
  864SOL     OW 2590   2.007   1.266   2.834  0.7377 -0.0762 -0.1064
  864SOL    HW1 2591   2.037   1.192   2.766  0.0949 -3.6448 -1.4453
  864SOL    HW2 2592   2.085   1.332   2.865  1.1349  0.7894  1.5288
  865SOL     OW 2593   2.179   1.935   0.738  0.2653 -0.2174 -0.2592
  865SOL    HW1 2594   2.244   1.876   0.793  1.8961  0.1848  0.4878
  865SOL    HW2 2595   2.105   1.974   0.802 -0.6426 -1.7623  1.8297
  866SOL     OW 2596   2.908   2.988   1.022 -0.7175 -0.4581 -0.2356
  866SOL    HW1 2597   2.921   3.056   0.945  2.3466  0.0023 -0.4577
  866SOL    HW2 2598   2.967   2.896   1.010  1.1483 -0.1583 -0.3881
  867SOL     OW 2599   0.344   1.432   0.914  0.5694  0.2004  0.2835
  867SOL    HW1 2600   0.295   1.364   0.846  2.4860  0.8482 -0.5869
  867SOL    HW2 2601   0.331   1.535   0.886 -1.4693  1.1647 -1.7385
  868SOL     OW 2602   0.745   1.838   2.070 -0.1118  0.3833 -0.1431
  868SOL    HW1 2603   0.713   1.803   2.166 -1.0797  1.5241  0.0416
  868SOL    HW2 2604   0.700   1.931   2.046 -0.0138 -3.3527 -1.6045
  869SOL     OW 2605   2.587   1.911   1.676 -0.4621  0.3716 -0.4790
  869SOL    HW1 2606   2.645   1.984   1.632  0.3656  3.2107  0.5280
  869SOL    HW2 2607   2.642   1.819   1.689 -2.6336 -1.2928 -1.0082
  870SOL     OW 2608   2.336   2.736   1.246 -0.6222  0.4808  0.0414
  870SOL    HW1 2609   2.348   2.639   1.288  0.7082 -4.0922 -0.0985
  870SOL    HW2 2610   2.428   2.793   1.236 -0.2407 -0.1641 -2.8989
  871SOL     OW 2611   3.059   2.243   0.548 -0.1157  0.7233  0.7797
  871SOL    HW1 2612   3.028   2.274   0.641  0.7989 -1.7096  1.7030
  871SOL    HW2 2613   2.980   2.244   0.480 -0.3807 -0.1744 -2.7538
  872SOL     OW 2614   2.096   0.470   1.699 -0.0269 -0.5302  0.4251
  872SOL    HW1 2615   2.064   0.440   1.792 -0.7209 -0.2417 -2.0929
  872SOL    HW2 2616   2.189   0.427   1.671 -0.8879 -3.3898 -2.9444
  873SOL     OW 2617   1.693   2.100   0.012 -0.0102 -0.3977  0.1356
  873SOL    HW1 2618   1.590   2.123   0.019  0.2140 -1.5183 -0.6629
  873SOL    HW2 2619   1.734   2.142  -0.073 -2.1823  1.2386  0.8583
  874SOL     OW 2620   0.659   2.440   0.760 -0.0110  0.0437  0.2108
  874SOL    HW1 2621   0.686   2.540   0.763 -2.8785 -0.9523  2.9722
  874SOL    HW2 2622   0.746   2.378   0.756  1.1829 -0.4371  0.0350
  875SOL     OW 2623   2.237   1.493   1.417  0.3556  0.1235  0.6154
  875SOL    HW1 2624   2.308   1.533   1.478  0.4734 -0.5994  1.3748
  875SOL    HW2 2625   2.255   1.515   1.315 -0.8887 -0.7962 -2.9657
  876SOL     OW 2626   0.055   2.260   2.633  0.3305 -0.0750  0.2970
  876SOL    HW1 2627   0.087   2.161   2.663 -2.0243  1.5922  2.1427
  876SOL    HW2 2628   0.092   2.334   2.692 -0.8816 -1.3557  3.5046
  877SOL     OW 2629   2.935   2.684   0.626 -0.4763 -0.0992  0.0592
  877SOL    HW1 2630   2.899   2.780   0.621  1.0613 -0.3664  0.4032
  877SOL    HW2 2631   2.983   2.655   0.714  1.4287 -1.9245  1.6069
  878SOL     OW 2632   2.827   1.525   2.236 -0.2209 -0.6194 -0.4171
  878SOL    HW1 2633   2.803   1.610   2.178  2.3262  1.6339 -1.1686
  878SOL    HW2 2634   2.818   1.540   2.339  0.5108  0.7798 -0.4815
  879SOL     OW 2635   2.406   0.056   1.214  0.3587 -0.4194  0.3918
  879SOL    HW1 2636   2.453  -0.036   1.219 -1.0220  0.7611 -3.9954
  879SOL    HW2 2637   2.305   0.058   1.184  1.1681  3.0218  2.1977
  880SOL     OW 2638   0.730   0.569   2.277  0.1759 -0.1993  0.1607
  880SOL    HW1 2639   0.716   0.524   2.368 -0.7707 -0.5531 -1.0117
  880SOL    HW2 2640   0.784   0.507   2.213 -1.2958 -2.3745  1.5445
  881SOL     OW 2641   0.821   0.091   0.411 -0.0855  0.2667  0.3319
  881SOL    HW1 2642   0.882   0.008   0.381  1.6969  0.3202 -1.3788
  881SOL    HW2 2643   0.718   0.082   0.401  1.7557  0.5158 -0.2864
  882SOL     OW 2644   2.725   1.664   1.686  0.2005  0.0280  0.5784
  882SOL    HW1 2645   2.814   1.613   1.653  1.4234 -0.7768 -0.6199
  882SOL    HW2 2646   2.708   1.654   1.783  0.7914  0.5325 -1.1816
  883SOL     OW 2647   0.813   0.506   0.925  0.2777 -0.1969 -0.0398
  883SOL    HW1 2648   0.861   0.593   0.950 -1.4882 -0.4570 -1.3714
  883SOL    HW2 2649   0.745   0.479   1.002  1.5401 -0.3335  2.0612
  884SOL     OW 2650   1.113   1.777   1.113 -0.4065 -0.0861 -0.1669
  884SOL    HW1 2651   1.112   1.687   1.066  0.0065 -1.9485 -1.6103
  884SOL    HW2 2652   1.027   1.827   1.081  2.0732 -1.4479 -0.5069
  885SOL     OW 2653   2.331   1.850   2.232  0.2658 -0.1013 -0.7565
  885SOL    HW1 2654   2.255   1.800   2.286  2.3278 -0.3158 -0.0551
  885SOL    HW2 2655   2.318   1.953   2.252 -0.9742 -0.6527  0.9399
  886SOL     OW 2656   2.616   0.384   1.795  0.4842 -0.7552  0.5987
  886SOL    HW1 2657   2.603   0.326   1.883 -0.6832  0.1635  0.9974
  886SOL    HW2 2658   2.715   0.401   1.769  0.5124 -1.2648 -1.9796
  887SOL     OW 2659   0.147   2.052   1.260  0.2505 -0.0733 -0.4146
  887SOL    HW1 2660   0.091   2.006   1.187 -3.3325 -1.7181  1.4253
  887SOL    HW2 2661   0.155   2.154   1.240  0.0130  1.9029 -1.5751
  888SOL     OW 2662   0.644   1.212   1.495  0.3335  0.0519  0.0090
  888SOL    HW1 2663   0.636   1.280   1.419  2.8599  1.0892  1.3472
  888SOL    HW2 2664   0.661   1.113   1.454 -0.4826 -2.6700  0.0207
  889SOL     OW 2665   0.866   2.449   2.224 -0.0325 -0.1534 -0.0561
  889SOL    HW1 2666   0.776   2.398   2.225 -0.3133 -1.4512 -0.6580
  889SOL    HW2 2667   0.928   2.423   2.141  0.3428 -1.5216  0.6476
  890SOL     OW 2668   2.326   2.489   0.228 -0.0360 -0.8491 -0.3083
  890SOL    HW1 2669   2.333   2.532   0.138  1.6407 -1.8999  1.1126
  890SOL    HW2 2670   2.268   2.538   0.292  5.9007  0.6089  1.0162
  891SOL     OW 2671   2.533   1.685   0.716 -0.1901  0.2618  0.0772
  891SOL    HW1 2672   2.503   1.614   0.785  0.6898  1.5675  1.7099
  891SOL    HW2 2673   2.484   1.685   0.622  0.1862  0.7670  0.2281
  892SOL     OW 2674   0.367   0.388   2.212  0.7192 -0.0964  0.4036
  892SOL    HW1 2675   0.339   0.473   2.155  1.1783 -0.0899 -3.4228
  892SOL    HW2 2676   0.445   0.404   2.274  0.3675  0.9818 -2.6980
  893SOL     OW 2677   1.697   0.249   2.721 -0.0716 -0.0967 -0.1576
  893SOL    HW1 2678   1.763   0.310   2.767 -1.8480 -1.1181 -1.8388
  893SOL    HW2 2679   1.605   0.291   2.695  3.1745  0.5079 -0.7754
  894SOL     OW 2680   2.168   2.094   0.096  0.1730 -0.3280 -0.4453
  894SOL    HW1 2681   2.187   2.049   0.006  1.9394  0.5743 -0.4950
  894SOL    HW2 2682   2.182   2.028   0.174  1.6396 -0.1804  1.5809
  895SOL     OW 2683   2.744   1.428   0.952  0.1069 -0.0300 -0.3488
  895SOL    HW1 2684   2.828   1.361   0.951  1.5786 -2.8013 -0.6537
  895SOL    HW2 2685   2.772   1.516   0.993 -1.5172 -2.5240  0.6391
  896SOL     OW 2686   1.812   1.868   1.221  0.4802  0.1348 -0.0691
  896SOL    HW1 2687   1.870   1.783   1.244  2.8549 -0.9946  1.5980
  896SOL    HW2 2688   1.736   1.845   1.152 -0.6256  1.0751  1.0258
  897SOL     OW 2689   0.246   0.527   3.012 -0.0808 -0.3011  0.3017
  897SOL    HW1 2690   0.208   0.604   2.956 -0.2503 -2.2800 -0.2802
  897SOL    HW2 2691   0.321   0.564   3.072  1.1068 -0.1603  1.3005
  898SOL     OW 2692   0.686   2.803   1.071  0.1102 -0.2068  0.0251
  898SOL    HW1 2693   0.747   2.888   1.085  0.9496 -0.2767  1.2786
  898SOL    HW2 2694   0.705   2.736   1.150 -1.3936 -3.0599 -3.0172
  899SOL     OW 2695   2.850   0.928   1.421 -0.1102 -0.9027  0.4658
  899SOL    HW1 2696   2.841   0.878   1.329 -0.7584  1.0825 -1.9930
  899SOL    HW2 2697   2.946   0.951   1.447  2.2156  0.0117  1.5391
  900SOL     OW 2698   1.032   2.423   2.468 -0.4052 -0.2808 -0.0960
  900SOL    HW1 2699   0.962   2.424   2.388  1.0487 -0.3136 -0.7359
  900SOL    HW2 2700   0.982   2.396   2.559  1.1296 -0.8981 -1.9449
  901SOL     OW 2701   1.915   2.457   1.404  0.1287  0.1609  0.4356
  901SOL    HW1 2702   1.884   2.389   1.336  2.5330  1.2638  1.4902
  901SOL    HW2 2703   2.013   2.436   1.424  0.2507 -0.8044 -0.4641
  902SOL     OW 2704   2.550   1.641   1.461 -0.0486 -0.1548 -0.6175
  902SOL    HW1 2705   2.623   1.646   1.537  0.9431 -0.6980 -0.4123
  902SOL    HW2 2706   2.588   1.610   1.370 -2.0203  1.0276 -0.6948
  903SOL     OW 2707   0.334   2.468   2.006 -0.1306  0.2762 -0.1098
  903SOL    HW1 2708   0.279   2.383   2.029 -2.4970  2.6296  1.4082
  903SOL    HW2 2709   0.293   2.531   1.932  0.9970 -0.5270 -1.2774
  904SOL     OW 2710   2.000   0.765   2.470 -0.0991  0.1113  0.0222
  904SOL    HW1 2711   1.940   0.693   2.518 -0.0683  2.0454 -2.4328
  904SOL    HW2 2712   2.009   0.758   2.367 -0.5074  1.5696  0.4740
  905SOL     OW 2713   2.808   0.093   2.407  0.4312 -0.0937 -0.2873
  905SOL    HW1 2714   2.876   0.017   2.426 -0.9970  1.9360  0.6937
  905SOL    HW2 2715   2.846   0.188   2.428 -0.2382 -1.1704 -2.3986
  906SOL     OW 2716   0.170   1.699   1.894  0.3977 -0.2982 -0.0206
  906SOL    HW1 2717   0.122   1.749   1.820  2.1271 -2.2104  1.9833
  906SOL    HW2 2718   0.268   1.725   1.895 -2.4748  1.4091 -0.3855
  907SOL     OW 2719   0.251   2.521   0.960 -0.2379 -0.4724 -0.3020
  907SOL    HW1 2720   0.353   2.495   0.965  0.8321 -1.8187 -0.0161
  907SOL    HW2 2721   0.234   2.606   0.905  0.3172 -1.7085 -0.3602
  908SOL     OW 2722   2.832   3.033   0.291 -0.0317  0.1907 -0.5960
  908SOL    HW1 2723   2.736   3.006   0.262  3.2926  0.2990 -1.0088
  908SOL    HW2 2724   2.904   2.955   0.290 -0.5504  0.6523  1.2798
  909SOL     OW 2725   0.824   1.040   2.670 -0.1592 -0.3880  0.8528
  909SOL    HW1 2726   0.767   0.957   2.653 -0.3971  0.2743  2.4859
  909SOL    HW2 2727   0.907   1.046   2.605  0.4237  0.6838 -3.7973
  910SOL     OW 2728   1.778   1.885   2.152 -0.1124 -0.1443  0.7204
  910SOL    HW1 2729   1.833   1.919   2.071 -3.1596  1.5232 -1.3575
  910SOL    HW2 2730   1.698   1.947   2.170  0.1195  1.8101 -1.7868
  911SOL     OW 2731   1.773   2.980   1.486  0.0337  0.3026  0.4401
  911SOL    HW1 2732   1.871   2.980   1.451 -0.1102  0.5670  2.4414
  911SOL    HW2 2733   1.757   2.921   1.568  0.3905 -2.5742 -0.9790
  912SOL     OW 2734   2.835   1.018   0.709  0.0256 -0.0317  0.7727
  912SOL    HW1 2735   2.895   0.985   0.788 -3.0359 -2.5112 -0.0689
  912SOL    HW2 2736   2.758   1.081   0.743 -1.3517  1.2863 -2.0021
  913SOL     OW 2737   2.579   1.287   1.567 -0.3774  0.0963 -0.5039
  913SOL    HW1 2738   2.593   1.185   1.591 -0.8180 -1.3771 -1.7201
  913SOL    HW2 2739   2.623   1.299   1.474  1.0036  2.1581 -0.2291
  914SOL     OW 2740   2.783   0.578   1.159 -0.1189  0.0035  0.0949
  914SOL    HW1 2741   2.772   0.504   1.233  0.3108 -1.7126  2.9081
  914SOL    HW2 2742   2.694   0.629   1.127 -2.7129  0.5062 -1.6285
  915SOL     OW 2743   1.183   0.792   0.940 -0.0430  0.5544  0.5265
  915SOL    HW1 2744   1.240   0.803   1.028 -1.0848 -1.8133 -0.7314
  915SOL    HW2 2745   1.085   0.777   0.961  0.5390 -1.3156 -0.4069
  916SOL     OW 2746   0.588   0.140   0.660 -0.1227  0.3358  0.7995
  916SOL    HW1 2747   0.670   0.184   0.708 -0.5304 -2.5144 -0.7938
  916SOL    HW2 2748   0.539   0.200   0.601 -0.2250 -2.1144  2.2615
  917SOL     OW 2749   2.881   2.573   2.010 -0.6421 -0.2618 -0.0630
  917SOL    HW1 2750   2.803   2.621   1.961 -1.2567  1.4995  1.1859
  917SOL    HW2 2751   2.966   2.633   2.029  2.6402  1.1502 -0.3932
  918SOL     OW 2752   1.006   2.118   2.997 -0.1458 -0.3739  0.0435
  918SOL    HW1 2753   1.014   2.182   3.082  1.7324 -1.7953  0.6745
  918SOL    HW2 2754   1.081   2.133   2.925  2.2693 -1.5711 -0.5070
  919SOL     OW 2755   0.881   1.705   2.759 -0.0953  0.1309 -0.2190
  919SOL    HW1 2756   0.889   1.804   2.722  0.1960  1.8147  0.8980
  919SOL    HW2 2757   0.835   1.640   2.690  0.3523 -2.4490  0.0810
  920SOL     OW 2758   1.303   1.764   2.500  0.3744 -0.0697  0.1239
  920SOL    HW1 2759   1.405   1.744   2.478  0.3171  0.9750  1.1999
  920SOL    HW2 2760   1.273   1.694   2.569 -1.1639 -2.0211 -1.9934
  921SOL     OW 2761   1.123   0.037   2.641 -0.0078 -0.4327  0.6232
  921SOL    HW1 2762   1.099   0.036   2.542 -0.6547  3.6277  0.9102
  921SOL    HW2 2763   1.045   0.083   2.698  2.3406  0.4036  1.8581
  922SOL     OW 2764   2.187   2.390   2.758 -0.1436 -0.5296 -0.3994
  922SOL    HW1 2765   2.146   2.301   2.795 -0.1797  0.4812  0.4455
  922SOL    HW2 2766   2.132   2.434   2.689  4.0887 -2.3085  0.6266
  923SOL     OW 2767   1.283   2.745   0.262 -0.2838  0.3569  0.0244
  923SOL    HW1 2768   1.328   2.799   0.340  1.6709 -1.3112 -0.5700
  923SOL    HW2 2769   1.324   2.648   0.252  0.0281  0.7562 -0.5378
  924SOL     OW 2770   2.901   1.683   0.128  0.0162  0.2824  0.4215
  924SOL    HW1 2771   2.809   1.637   0.121 -0.8096  2.5195 -0.3528
  924SOL    HW2 2772   2.981   1.619   0.146 -3.4937  1.2320 -2.7039
  925SOL     OW 2773   0.028   2.860   1.505  0.2967  0.0953  0.1733
  925SOL    HW1 2774  -0.017   2.822   1.590  2.2225 -2.1407  0.7638
  925SOL    HW2 2775  -0.014   2.827   1.413  0.5681  1.2227  1.8681
  926SOL     OW 2776   1.299   2.804   1.321  0.5501  0.2476  0.1264
  926SOL    HW1 2777   1.342   2.795   1.225 -0.5830  0.5908 -1.8739
  926SOL    HW2 2778   1.340   2.873   1.386  0.7838  2.3216 -1.6227
  927SOL     OW 2779   0.368   2.642   1.741 -0.1187 -0.2747 -0.3778
  927SOL    HW1 2780   0.334   2.564   1.679 -0.3054  0.2793  1.4872
  927SOL    HW2 2781   0.321   2.733   1.717 -1.7248 -1.2560  1.3365
  928SOL     OW 2782   1.587   2.064   2.219  0.3894 -0.2095 -0.1143
  928SOL    HW1 2783   1.603   2.149   2.158  0.1136  1.2555  0.8744
  928SOL    HW2 2784   1.489   2.039   2.242 -1.2539 -1.8295 -2.6119
  929SOL     OW 2785   2.427   2.494   2.846 -0.3162  0.4962 -0.1207
  929SOL    HW1 2786   2.335   2.439   2.837 -1.1832  0.4299 -0.1530
  929SOL    HW2 2787   2.466   2.520   2.754 -3.8907 -1.9621 -0.2285
  930SOL     OW 2788   2.186   2.033   1.119 -0.3490 -0.4289  0.5868
  930SOL    HW1 2789   2.192   2.003   1.215  1.5731 -0.0225 -1.7589
  930SOL    HW2 2790   2.245   2.119   1.102  3.2926 -0.9735  1.3203
  931SOL     OW 2791   0.500   1.723   2.628 -0.0524  0.1556  0.2888
  931SOL    HW1 2792   0.530   1.735   2.724  1.4678  0.2370  1.6597
  931SOL    HW2 2793   0.570   1.680   2.567  0.6297  0.1696 -1.1633
  932SOL     OW 2794   0.337   0.046   3.096 -0.1401  0.7846 -1.0381
  932SOL    HW1 2795   0.423   0.104   3.107  0.3006 -1.4606  0.3531
  932SOL    HW2 2796   0.363  -0.047   3.046 -0.6040  0.0998 -1.4181
  933SOL     OW 2797   0.984   0.844   3.032 -0.2141 -0.0191 -0.1456
  933SOL    HW1 2798   1.051   0.826   3.108 -3.0642 -0.5409  1.0333
  933SOL    HW2 2799   0.939   0.935   3.037  0.4523  2.1652 -0.2579
  934SOL     OW 2800   0.736   2.920   2.670 -0.2161 -0.0008  0.5525
  934SOL    HW1 2801   0.758   2.887   2.574 -1.6665 -0.5330 -0.6603
  934SOL    HW2 2802   0.798   2.870   2.737 -1.3100  0.8824 -3.9309
  935SOL     OW 2803   0.026   0.525   0.821 -0.2002 -0.0067  0.4082
  935SOL    HW1 2804  -0.012   0.495   0.723 -0.1694  0.8653 -1.5372
  935SOL    HW2 2805  -0.014   0.616   0.845 -1.4575  0.8585 -0.1076
  936SOL     OW 2806   1.105   2.831   0.071 -0.3292 -0.5742  0.4653
  936SOL    HW1 2807   1.157   2.884   0.002  0.2060 -1.5977 -1.5335
  936SOL    HW2 2808   1.168   2.799   0.148  1.4636  1.0546 -1.5652
  937SOL     OW 2809   1.972   2.626   2.044 -0.6636  0.3141  0.1795
  937SOL    HW1 2810   1.879   2.648   2.087 -1.2617 -1.2232 -0.5002
  937SOL    HW2 2811   2.013   2.705   1.998 -0.7715  1.5142  1.5470
  938SOL     OW 2812   2.788   2.087   1.564 -0.1588 -0.1863  0.0355
  938SOL    HW1 2813   2.795   2.192   1.571 -1.9127  0.4394 -1.3923
  938SOL    HW2 2814   2.865   2.041   1.621  2.7855  3.7229  0.4247
  939SOL     OW 2815   2.790   1.193   2.475 -0.0845  0.9118  0.6426
  939SOL    HW1 2816   2.874   1.160   2.419 -1.0123  0.5549 -0.0810
  939SOL    HW2 2817   2.781   1.137   2.561  0.1858  0.8171  1.0013
  940SOL     OW 2818   1.062   0.454   2.726 -0.4344 -0.1410  0.4604
  940SOL    HW1 2819   1.119   0.369   2.731 -2.6438 -0.2616  0.3516
  940SOL    HW2 2820   1.000   0.444   2.638 -1.9160 -1.1115 -1.3643
  941SOL     OW 2821   0.018   2.802   2.292 -0.8323  0.3769 -0.1389
  941SOL    HW1 2822   0.059   2.712   2.259  1.1678 -1.5084 -2.3455
  941SOL    HW2 2823   0.084   2.871   2.332 -0.3864 -2.2677  1.5786
  942SOL     OW 2824   0.061   0.085   2.528 -0.4898  0.2727  0.5644
  942SOL    HW1 2825   0.131   0.112   2.601  0.0030  1.1366 -0.2470
  942SOL    HW2 2826   0.063   0.157   2.453  1.7493 -1.0782 -1.3599
  943SOL     OW 2827   2.150   1.698   2.373 -0.6006 -0.3784  0.1953
  943SOL    HW1 2828   2.125   1.653   2.282 -1.0754  1.9365 -1.6734
  943SOL    HW2 2829   2.148   1.619   2.449 -0.3920 -1.4063  2.5730
  944SOL     OW 2830   2.169   2.360   1.504  0.2915 -0.4995 -0.1561
  944SOL    HW1 2831   2.248   2.380   1.566  0.9664 -2.7582 -0.9886
  944SOL    HW2 2832   2.119   2.282   1.544  1.4848  3.4531  0.1221
  945SOL     OW 2833   0.729   1.595   0.069 -0.3255 -0.2835 -0.0973
  945SOL    HW1 2834   0.636   1.576   0.030  0.6552  1.2526  0.7787
  945SOL    HW2 2835   0.739   1.568   0.168 -0.3752  0.7283  1.5490
  946SOL     OW 2836   0.326   1.005   2.582  0.4269 -0.5045 -0.2061
  946SOL    HW1 2837   0.307   0.918   2.526  1.6286  0.1675 -2.2102
  946SOL    HW2 2838   0.362   1.081   2.520 -0.4592 -0.5153 -1.5728
  947SOL     OW 2839   1.454   0.561   3.075  0.0791  0.0124  0.4191
  947SOL    HW1 2840   1.481   0.590   2.979  1.3439  0.8561 -1.6564
  947SOL    HW2 2841   1.356   0.524   3.086 -2.4586  0.2258 -0.3079
  948SOL     OW 2842   1.899   2.985   2.156 -0.2824  0.3882 -0.3442
  948SOL    HW1 2843   1.901   2.939   2.059 -0.9445 -0.3381 -1.6404
  948SOL    HW2 2844   1.893   2.915   2.234 -0.1581  3.5953 -2.0463
  949SOL     OW 2845   0.617   2.439   0.476 -0.0402 -0.3444  0.0082
  949SOL    HW1 2846   0.624   2.546   0.455 -0.3979  1.7615 -2.6323
  949SOL    HW2 2847   0.600   2.414   0.576 -2.1405  1.2121  1.6636
  950SOL     OW 2848   0.222   2.199   2.950 -0.3507  0.3474 -0.1095
  950SOL    HW1 2849   0.190   2.281   2.905  2.6898 -0.5622  2.6249
  950SOL    HW2 2850   0.191   2.116   2.899 -0.1279  2.9459  0.5179
  951SOL     OW 2851   1.173   2.656   2.789 -0.5022 -0.2629 -0.1925
  951SOL    HW1 2852   1.238   2.602   2.855  0.6832  1.5959 -0.0001
  951SOL    HW2 2853   1.217   2.664   2.697 -0.3537 -1.2143 -1.1005
  952SOL     OW 2854   0.136   1.612   0.404  0.5310  0.0244  0.2791
  952SOL    HW1 2855   0.169   1.711   0.423 -2.7496  0.3090  2.4678
  952SOL    HW2 2856   0.140   1.549   0.482 -0.0945 -0.2137 -0.7973
  953SOL     OW 2857   2.517   1.741   0.308 -0.0492  0.3989 -1.1155
  953SOL    HW1 2858   2.487   1.646   0.272  1.0237  0.5071  1.0616
  953SOL    HW2 2859   2.549   1.792   0.228 -0.0936  0.3299 -0.8846
  954SOL     OW 2860   2.133   0.581   0.907  0.1490  0.0383  0.0116
  954SOL    HW1 2861   2.146   0.576   0.807 -0.6158 -1.4815  4.1208
  954SOL    HW2 2862   2.215   0.571   0.968 -1.9581  0.4509  1.0759
  955SOL     OW 2863   0.140   2.561   1.363  0.4119  0.6790 -0.0005
  955SOL    HW1 2864   0.040   2.569   1.340  2.2457 -1.0260  0.8218
  955SOL    HW2 2865   0.201   2.646   1.353  2.4810  0.9712  0.7288
  956SOL     OW 2866   2.829   2.488   2.529 -0.2509 -0.2845  0.5316
  956SOL    HW1 2867   2.829   2.385   2.516  2.4204  1.4177 -0.2648
  956SOL    HW2 2868   2.836   2.537   2.438 -1.9320 -2.0338 -0.1601
  957SOL     OW 2869   1.603   2.044   2.745 -0.6223 -0.1473 -0.5142
  957SOL    HW1 2870   1.551   1.973   2.803 -1.3667 -0.1542  1.1172
  957SOL    HW2 2871   1.677   1.996   2.692 -0.2978  2.9233  1.5984
  958SOL     OW 2872   2.631   2.288   2.908 -0.5109 -0.5737  0.4635
  958SOL    HW1 2873   2.539   2.333   2.896 -2.2023 -1.2393  1.4591
  958SOL    HW2 2874   2.646   2.253   3.009  1.5605  1.2419  1.0387
  959SOL     OW 2875   0.366   2.752   0.099  0.1383  0.1988 -0.1912
  959SOL    HW1 2876   0.292   2.810   0.132 -0.3936 -3.8865  1.2091
  959SOL    HW2 2877   0.364   2.652   0.137  0.6013 -0.0806 -0.6977
  960SOL     OW 2878   1.959   0.416   1.946 -0.1580 -0.1642  0.2156
  960SOL    HW1 2879   1.901   0.495   1.921  1.2332 -0.5315 -2.1931
  960SOL    HW2 2880   1.979   0.407   2.050  1.3812  0.6140  1.6243
  961SOL     OW 2881   2.538   1.851   0.996  0.4284 -0.2580 -0.0014
  961SOL    HW1 2882   2.515   1.938   0.942  0.0229 -1.7412 -2.4705
  961SOL    HW2 2883   2.512   1.863   1.096 -1.1273  0.4496  1.8008
  962SOL     OW 2884   1.305   0.836   0.060  0.5687  0.0552 -0.2477
  962SOL    HW1 2885   1.285   0.849  -0.044 -0.7480  0.0419 -1.1654
  962SOL    HW2 2886   1.266   0.915   0.115 -1.7072  0.9171  1.7301
  963SOL     OW 2887   2.309   2.560   1.833 -0.1704 -0.2078  0.1705
  963SOL    HW1 2888   2.266   2.473   1.868 -0.4655  0.2636  0.9958
  963SOL    HW2 2889   2.342   2.627   1.900  3.3302  1.4571 -1.5880
  964SOL     OW 2890   2.343   0.338   1.637  0.1584  0.7013 -0.0567
  964SOL    HW1 2891   2.429   0.328   1.684  0.0047  2.1112  1.2628
  964SOL    HW2 2892   2.351   0.366   1.538 -1.7009 -2.7716  0.0083
  965SOL     OW 2893   2.605   2.946   0.151  0.0235  0.3047 -0.7112
  965SOL    HW1 2894   2.668   2.951   0.067 -0.1992 -1.4585  1.1245
  965SOL    HW2 2895   2.526   3.010   0.143  2.2301  1.2266 -0.5534
  966SOL     OW 2896   2.490   2.500   2.205  0.1880 -0.0424 -0.1000
  966SOL    HW1 2897   2.539   2.555   2.130 -1.3108  0.6018 -0.4129
  966SOL    HW2 2898   2.393   2.535   2.211  1.1141  0.4276 -0.3054
  967SOL     OW 2899   2.739   2.837   2.431 -0.2519  0.3135 -0.1015
  967SOL    HW1 2900   2.743   2.748   2.379 -3.1746 -1.1627  0.7699
  967SOL    HW2 2901   2.830   2.885   2.444 -1.2305  0.5157 -3.4113
  968SOL     OW 2902   1.954   1.039   2.638  0.3728  0.1147  0.4907
  968SOL    HW1 2903   1.861   1.086   2.636 -0.9520 -1.7774 -1.4938
  968SOL    HW2 2904   1.962   0.968   2.562  0.5242 -1.1067 -1.7586
  969SOL     OW 2905   2.789   2.516   1.055 -0.4755 -0.4937 -0.1856
  969SOL    HW1 2906   2.778   2.516   0.951 -1.7354  0.3855  0.7345
  969SOL    HW2 2907   2.835   2.433   1.094  0.4362 -0.3325 -0.6643
  970SOL     OW 2908   1.144   2.150   1.878 -0.8861 -0.2910 -0.6678
  970SOL    HW1 2909   1.100   2.058   1.894  0.0114 -0.5728  1.4634
  970SOL    HW2 2910   1.115   2.222   1.952 -0.0322 -1.6554  0.4717
  971SOL     OW 2911   2.843   2.065   1.934  0.0646 -0.3345  0.3349
  971SOL    HW1 2912   2.873   2.159   1.960 -1.0927 -1.3434  0.0403
  971SOL    HW2 2913   2.905   2.017   1.870 -0.0116 -0.6123  1.8183
  972SOL     OW 2914   1.921   2.484   0.256 -0.0259  0.1728  0.2222
  972SOL    HW1 2915   1.930   2.389   0.203  1.3886 -0.7917 -2.2364
  972SOL    HW2 2916   1.952   2.464   0.353  1.3139  2.4811 -1.4696
  973SOL     OW 2917   1.183   0.889   1.877  0.3815  0.3906  0.0534
  973SOL    HW1 2918   1.143   0.797   1.879  3.2821  0.9038  1.7095
  973SOL    HW2 2919   1.110   0.960   1.853  1.7869  0.0479 -2.5461
  974SOL     OW 2920   1.638   0.589   1.988  0.2249 -0.5514 -0.0453
  974SOL    HW1 2921   1.733   0.618   1.946  0.3662 -0.3296 -0.2571
  974SOL    HW2 2922   1.563   0.657   1.963  1.1985  0.8488 -0.0013
  975SOL     OW 2923   2.361   3.027   3.054  0.3552  0.8375 -0.4154
  975SOL    HW1 2924   2.286   2.969   3.094  0.2354 -0.0104 -0.7956
  975SOL    HW2 2925   2.421   2.972   2.992  1.6757  0.4355  1.3720
  976SOL     OW 2926   1.913   2.775   2.361 -0.0773  0.5270 -0.0770
  976SOL    HW1 2927   1.822   2.726   2.342  0.5231  1.1209 -1.1019
  976SOL    HW2 2928   1.932   2.782   2.464  0.2769  0.6961  1.4694
  977SOL     OW 2929   0.479   0.678   1.030  0.4186 -0.2820 -0.0441
  977SOL    HW1 2930   0.413   0.641   0.957  2.7578 -1.7645 -0.7242
  977SOL    HW2 2931   0.546   0.754   0.990  1.0587  1.4905  0.0687
   3.10000   3.10000   3.10000
