1000 SPC/Fw water molecules t=   0.23000 step= 230
 2931
    1SOL     OW    1   2.550   0.323   2.537  0.1567 -0.1557 -0.2000
    1SOL    HW1    2   2.570   0.226   2.500  2.4478 -1.0890 -0.2780
    1SOL    HW2    3   2.590   0.338   2.634 -0.0191 -1.5402 -0.7954
    2SOL     OW    4   2.713   3.015   1.405  0.1123 -0.1199 -0.2880
    2SOL    HW1    5   2.773   3.072   1.339 -1.7490 -0.1354  1.8871
    2SOL    HW2    6   2.646   3.064   1.466 -1.0688 -2.8835 -0.3992
    3SOL     OW    7   2.742   2.588   0.414 -0.2371 -0.2390  0.5260
    3SOL    HW1    8   2.710   2.489   0.426 -4.4640  0.2049 -0.3071
    3SOL    HW2    9   2.813   2.624   0.483  0.9248  1.2321  1.7378
    4SOL     OW   10   1.341   1.476   2.372 -0.1112  0.3561  0.4860
    4SOL    HW1   11   1.266   1.540   2.396 -0.2231 -0.2833  0.7057
    4SOL    HW2   12   1.342   1.394   2.439  0.7327  0.3112  3.2992
    5SOL     OW   13   1.202   1.495   3.047  0.4198 -0.5653 -0.5945
    5SOL    HW1   14   1.255   1.575   3.089  2.3640  2.0750 -2.9770
    5SOL    HW2   15   1.102   1.518   3.052  0.0514  1.3059  0.1179
    6SOL     OW   16   0.068   1.840   2.944 -0.6991 -0.3860  0.1764
    6SOL    HW1   17   0.054   1.904   3.019 -0.9272  0.8749 -2.5040
    6SOL    HW2   18   0.040   1.743   2.959 -1.8918 -0.0452 -0.7059
    7SOL     OW   19   2.608   0.797   1.152  0.2059 -0.1682  0.1731
    7SOL    HW1   20   2.518   0.771   1.195  1.9342  0.7612 -3.2326
    7SOL    HW2   21   2.627   0.747   1.067 -0.5225  2.9194 -0.4424
    8SOL     OW   22   0.458   0.672   1.542 -0.1706  0.0604  0.5584
    8SOL    HW1   23   0.526   0.601   1.576  2.2705 -1.9723 -0.2518
    8SOL    HW2   24   0.415   0.647   1.454  1.2043 -0.1180  0.7341
    9SOL     OW   25   1.180   0.959   2.280  0.0864  1.1230  0.0632
    9SOL    HW1   26   1.225   1.040   2.235  1.8910 -2.8607  0.8658
    9SOL    HW2   27   1.152   0.879   2.215 -0.5216 -2.1816 -0.8301
   10SOL     OW   28   0.678   1.344   1.262  0.6974  0.1488 -0.1164
   10SOL    HW1   29   0.584   1.361   1.219  0.2411 -1.6937  0.2392
   10SOL    HW2   30   0.730   1.427   1.273  0.6191 -0.6293  0.3424
   11SOL     OW   31   2.337   2.580   0.941  0.5316  0.2071  0.1213
   11SOL    HW1   32   2.332   2.637   1.025 -0.3689 -0.7406 -0.0308
   11SOL    HW2   33   2.426   2.524   0.923  0.5526 -0.0770 -1.1108
   12SOL     OW   34   1.468   0.899   0.469 -0.1283 -0.2472 -0.5170
   12SOL    HW1   35   1.389   0.943   0.418  0.2027  0.3779 -1.0300
   12SOL    HW2   36   1.500   0.809   0.427 -1.3961  1.2100 -1.6151
   13SOL     OW   37   2.495   0.645   1.820  0.8010 -0.0730  0.3719
   13SOL    HW1   38   2.399   0.667   1.855  0.2930  2.8417 -2.2302
   13SOL    HW2   39   2.499   0.583   1.737  0.1612  0.1498  1.0229
   14SOL     OW   40   1.885   3.081   0.584  0.3518  0.1241 -0.3050
   14SOL    HW1   41   1.795   3.114   0.551  0.1236  1.6927  1.8537
   14SOL    HW2   42   1.875   3.055   0.684  0.4231 -0.0603  0.5676
   15SOL     OW   43   1.953   2.035   2.863  0.1044  0.0741  0.3205
   15SOL    HW1   44   1.883   2.104   2.896  0.4319 -1.9593 -0.2786
   15SOL    HW2   45   1.920   1.977   2.784 -1.2430  0.2239  0.8057
   16SOL     OW   46   1.602   1.699   0.053  0.3019 -0.2116 -0.4257
   16SOL    HW1   47   1.614   1.602   0.014 -3.2782 -2.0245  2.0329
   16SOL    HW2   48   1.636   1.707   0.151  0.4558  0.7190  0.5913
   17SOL     OW   49   0.130   0.433   0.162 -0.1120  0.0667 -0.0978
   17SOL    HW1   50   0.216   0.476   0.123 -0.3383 -0.5123 -1.4831
   17SOL    HW2   51   0.058   0.425   0.087  3.2077 -1.3230 -2.6671
   18SOL     OW   52   1.081   2.891   2.166 -0.7571  0.5865  0.6502
   18SOL    HW1   53   1.013   2.818   2.151 -0.5915 -1.1077  0.9933
   18SOL    HW2   54   1.166   2.877   2.106 -3.1322  0.7921  2.1551
   19SOL     OW   55   0.499   0.978   1.937 -0.3327 -0.6533  0.1983
   19SOL    HW1   56   0.447   0.997   2.028 -1.5548  0.8990  0.5954
   19SOL    HW2   57   0.577   0.910   1.950  0.4921 -1.1706  0.0905
   20SOL     OW   58   0.239   2.770   0.884 -0.5283  0.5227  0.2525
   20SOL    HW1   59   0.140   2.793   0.855 -0.5443  4.8615 -0.1662
   20SOL    HW2   60   0.300   2.757   0.800  2.2928 -0.1404 -1.2150
   21SOL     OW   61   2.793   0.183   2.145  0.1284 -0.4503 -0.1003
   21SOL    HW1   62   2.837   0.116   2.075 -0.9229 -3.4515 -2.9510
   21SOL    HW2   63   2.766   0.139   2.237  0.4087 -1.1627  1.6935
   22SOL     OW   64   2.345   0.195   0.014 -1.3769 -0.2618 -0.4790
   22SOL    HW1   65   2.374   0.091   0.014 -0.0557 -0.0253 -0.9668
   22SOL    HW2   66   2.243   0.215   0.023  1.3913 -1.1642 -1.2739
   23SOL     OW   67   2.778   0.650   0.688 -0.2873 -0.1612 -0.5624
   23SOL    HW1   68   2.743   0.560   0.648 -0.9878 -2.8537  1.2383
   23SOL    HW2   69   2.802   0.720   0.619  0.4249 -0.5151  1.7122
   24SOL     OW   70   0.181   1.877   0.480 -0.1028 -0.3672 -0.4702
   24SOL    HW1   71   0.083   1.895   0.452  1.6491  1.3582  0.3992
   24SOL    HW2   72   0.234   1.892   0.394 -0.0416  0.8300  1.9089
   25SOL     OW   73   2.258   0.516   0.188  0.1506 -0.2797  0.2024
   25SOL    HW1   74   2.321   0.463   0.251  2.1650 -0.8271 -0.0673
   25SOL    HW2   75   2.244   0.487   0.091 -3.7339 -1.4911 -3.2915
   26SOL     OW   76   2.529   2.184   2.102 -0.2564 -0.0696  0.1339
   26SOL    HW1   77   2.605   2.227   2.162  0.2332 -1.0188  2.1903
   26SOL    HW2   78   2.560   2.104   2.039 -0.4968  0.0594  0.9615
   27SOL     OW   79   0.665   2.977   0.109 -0.2937 -0.3536 -0.4257
   27SOL    HW1   80   0.764   2.999   0.079  0.9172 -0.3549  0.7294
   27SOL    HW2   81   0.598   2.984   0.031 -1.3214  0.7391  2.9301
   28SOL     OW   82   1.515   0.206   0.229  0.6810 -0.4453  0.4786
   28SOL    HW1   83   1.582   0.173   0.157 -0.2434 -2.0719 -2.1184
   28SOL    HW2   84   1.549   0.288   0.279  1.2962 -4.1894 -1.2106
   29SOL     OW   85   2.019   0.645   0.243  0.4183  0.1353  0.2314
   29SOL    HW1   86   2.042   0.727   0.307 -0.5923  0.0375  0.3309
   29SOL    HW2   87   2.104   0.594   0.219 -0.6549  2.0863  1.4221
   30SOL     OW   88   0.191   2.058   0.932  0.2762 -0.0441 -0.3002
   30SOL    HW1   89   0.151   2.033   0.838  0.1027 -2.4436 -3.5429
   30SOL    HW2   90   0.142   2.136   0.983 -1.2904  2.0022  0.4124
   31SOL     OW   91   2.051   0.052   2.316  0.8183 -0.1216 -0.1952
   31SOL    HW1   92   2.084   0.019   2.409  1.5675  2.7097  2.2225
   31SOL    HW2   93   1.990  -0.017   2.268  0.5775 -0.6330  0.1087
   32SOL     OW   94   2.936   0.121   0.164 -0.8009  0.2725 -0.9072
   32SOL    HW1   95   2.881   0.088   0.247 -0.8665  0.0271 -0.8989
   32SOL    HW2   96   3.032   0.073   0.162  3.0072  0.1206  1.8475
   33SOL     OW   97   0.958   0.309   0.426 -0.5749 -0.2844  0.1268
   33SOL    HW1   98   0.900   0.219   0.423 -0.2984  2.2988  0.7668
   33SOL    HW2   99   1.027   0.296   0.499  0.0172 -3.2131  0.4324
   34SOL     OW  100   0.411   2.912   1.058  0.0158 -0.2798 -0.0694
   34SOL    HW1  101   0.350   2.863   0.991  1.3819 -0.3356 -2.5749
   34SOL    HW2  102   0.505   2.872   1.055 -1.0129 -2.5886  0.8745
   35SOL     OW  103   0.065   0.018   1.819 -0.3908  0.1111  0.1561
   35SOL    HW1  104   0.102  -0.078   1.835 -3.5938  1.2900  0.9724
   35SOL    HW2  105   0.018   0.031   1.723  0.4985  0.6037  1.6786
   36SOL     OW  106   1.913   1.169   1.831  0.1646 -0.0869  0.1151
   36SOL    HW1  107   1.948   1.117   1.748  0.6859  2.9961  1.6242
   36SOL    HW2  108   1.986   1.240   1.863  1.6008 -0.8416 -2.4698
   37SOL     OW  109   1.131   0.294   0.969  0.1426 -0.4813 -0.1985
   37SOL    HW1  110   1.137   0.391   0.999  1.0535  0.0893 -0.2100
   37SOL    HW2  111   1.216   0.236   0.991  1.6186 -0.5682 -1.5267
   38SOL     OW  112   1.135   2.696   2.408 -0.3202 -0.5784 -0.0609
   38SOL    HW1  113   1.078   2.617   2.443 -0.0239  2.5338 -0.4797
   38SOL    HW2  114   1.086   2.781   2.372 -0.6346  4.5590  1.2408
   39SOL     OW  115   2.345   1.437   3.043 -0.5644 -0.0229 -0.3305
   39SOL    HW1  116   2.420   1.364   3.032  2.8969 -0.0508 -0.5566
   39SOL    HW2  117   2.309   1.443   3.146  0.4243  0.0727  3.0695
   40SOL     OW  118   2.072   2.526   2.547  0.6270  0.4048  0.4359
   40SOL    HW1  119   2.027   2.598   2.613 -2.7510 -0.0954  0.2069
   40SOL    HW2  120   2.001   2.474   2.484 -1.4152  0.3293  0.7133
   41SOL     OW  121   2.933   0.690   2.760  0.4817  0.5106 -0.0245
   41SOL    HW1  122   2.849   0.735   2.800 -0.6552  3.4810 -1.5749
   41SOL    HW2  123   2.906   0.607   2.707  0.1993 -2.2987  0.5806
   42SOL     OW  124   1.790   1.749   0.590  0.3932  0.3813  0.0502
   42SOL    HW1  125   1.750   1.658   0.552 -1.3057 -1.9650  0.0618
   42SOL    HW2  126   1.835   1.806   0.516  2.8966 -1.9263 -1.6636
   43SOL     OW  127   0.484   1.742   1.196  1.0425 -0.6694  0.1849
   43SOL    HW1  128   0.470   1.682   1.280  3.7177 -0.3251 -1.2836
   43SOL    HW2  129   0.398   1.753   1.142  0.5324  1.2348  2.2406
   44SOL     OW  130   1.727   2.507   0.029 -0.0325 -0.2859  0.2981
   44SOL    HW1  131   1.735   2.579  -0.045  3.5520  0.9427  0.1533
   44SOL    HW2  132   1.813   2.495   0.084 -0.4179  0.9995 -1.0941
   45SOL     OW  133   0.362   1.920   2.512  0.0745  0.2084  0.6956
   45SOL    HW1  134   0.278   1.911   2.452  0.9586 -0.0627  1.5851
   45SOL    HW2  135   0.410   1.828   2.533  1.1956  1.9172 -0.9719
   46SOL     OW  136   1.156   0.626   0.167  0.3889 -0.4518 -0.0060
   46SOL    HW1  137   1.223   0.698   0.137 -0.6743 -0.5081  2.2118
   46SOL    HW2  138   1.064   0.664   0.191  1.5893  0.8945 -2.4753
   47SOL     OW  139   0.241   2.462   1.614 -0.0360 -0.1782 -0.6758
   47SOL    HW1  140   0.318   2.402   1.584  1.9452 -2.6424 -0.2882
   47SOL    HW2  141   0.175   2.484   1.533  0.2980 -3.0076  1.7424
   48SOL     OW  142   2.574   0.560   0.154 -0.5290  0.5085  0.7030
   48SOL    HW1  143   2.513   0.564   0.243 -0.0664 -0.2031 -2.9172
   48SOL    HW2  144   2.653   0.621   0.145 -1.5532 -0.8455  1.2338
   49SOL     OW  145   0.340   0.872   1.730  0.1550  0.1517 -0.8011
   49SOL    HW1  146   0.407   0.918   1.798  0.3059  0.8230 -0.7310
   49SOL    HW2  147   0.384   0.795   1.678  1.4683  2.0022  0.9061
   50SOL     OW  148   1.745   1.078   0.359 -0.0343  0.3916 -0.1386
   50SOL    HW1  149   1.732   0.975   0.329 -1.4612 -1.0336 -2.3579
   50SOL    HW2  150   1.674   1.108   0.430 -2.9446  3.0326  1.3090
   51SOL     OW  151   3.015   1.903   0.389  0.6216 -0.2947 -0.2732
   51SOL    HW1  152   3.037   1.923   0.289  0.6811 -1.2679 -0.1236
   51SOL    HW2  153   2.983   1.807   0.405 -0.6440  1.5562  0.7406
   52SOL     OW  154   0.820   1.966   0.506 -0.1042  0.4319  0.0393
   52SOL    HW1  155   0.733   2.018   0.538  0.0653 -0.0709 -1.4816
   52SOL    HW2  156   0.834   1.880   0.562  0.8278  0.4610 -0.2162
   53SOL     OW  157   3.063   0.352   1.527 -0.2602  0.0384  0.3143
   53SOL    HW1  158   2.974   0.332   1.576 -1.0598  0.2485  5.3764
   53SOL    HW2  159   3.069   0.452   1.496 -0.2291 -0.7642 -1.6546
   54SOL     OW  160   1.736   0.470   3.005 -0.3962 -0.4354  0.2142
   54SOL    HW1  161   1.781   0.421   3.090  0.0593 -0.3754 -0.1627
   54SOL    HW2  162   1.632   0.482   3.015  1.5912 -0.8870 -0.3129
   55SOL     OW  163   0.713   2.930   0.622  0.1530  0.2070  0.0083
   55SOL    HW1  164   0.669   3.022   0.649 -2.6211  1.1757  0.6378
   55SOL    HW2  165   0.806   2.935   0.583 -0.8198 -1.4829 -1.8500
   56SOL     OW  166   0.487   1.558   3.056 -0.2982  0.1955  0.3384
   56SOL    HW1  167   0.407   1.593   3.110  1.2100  0.2004  1.3037
   56SOL    HW2  168   0.479   1.458   3.021  0.1487 -3.3019 -1.0056
   57SOL     OW  169   1.782   2.381   2.649  0.3494  0.1825  0.8160
   57SOL    HW1  170   1.837   2.346   2.566  1.3647 -1.7589  0.7315
   57SOL    HW2  171   1.692   2.425   2.630 -0.2846 -0.2178  2.6405
   58SOL     OW  172   0.584   0.446   1.103 -0.0611 -0.0802  0.0475
   58SOL    HW1  173   0.534   0.539   1.102 -1.5791  0.8913 -0.8201
   58SOL    HW2  174   0.545   0.352   1.125 -0.7172 -1.8175  0.2738
   59SOL     OW  175   0.476   2.413   2.670  0.4018 -0.3256  0.0114
   59SOL    HW1  176   0.479   2.307   2.693 -1.8717  0.6450  0.1005
   59SOL    HW2  177   0.561   2.463   2.704  0.0558  1.3011  1.8328
   60SOL     OW  178   2.325   2.179   2.275 -0.5896 -0.6182  0.6322
   60SOL    HW1  179   2.410   2.170   2.210  2.4581  0.4683  1.8917
   60SOL    HW2  180   2.346   2.203   2.374  0.8099  0.7413 -0.0032
   61SOL     OW  181   1.394   0.579   0.447  0.4053  0.2117  0.6665
   61SOL    HW1  182   1.302   0.618   0.483  2.0474 -0.1666  0.9983
   61SOL    HW2  183   1.399   0.575   0.342  1.8075 -0.8727  0.0485
   62SOL     OW  184   2.657   1.868   3.087  0.1084  0.1262 -0.2290
   62SOL    HW1  185   2.663   1.763   3.094 -0.9381 -0.5353  2.0869
   62SOL    HW2  186   2.741   1.904   3.040 -2.5393  0.4969  0.7436
   63SOL     OW  187   0.531   0.813   0.159  0.2159  0.2082 -0.1958
   63SOL    HW1  188   0.509   0.915   0.168  0.8691  0.7389 -0.4568
   63SOL    HW2  189   0.561   0.761   0.245 -1.3645  0.4483  2.0075
   64SOL     OW  190   0.099   0.493   2.523  0.1371 -0.6887  0.1281
   64SOL    HW1  191   0.053   0.512   2.609  0.5810  1.3233 -1.5749
   64SOL    HW2  192   0.101   0.568   2.450 -0.6078  1.9888  0.3682
   65SOL     OW  193   0.191   1.470   0.638  0.4193  0.0087  0.5463
   65SOL    HW1  194   0.197   1.549   0.704 -0.9142 -2.0289  0.9039
   65SOL    HW2  195   0.275   1.462   0.582  1.1640 -0.6380  2.4586
   66SOL     OW  196   2.470   0.387   0.709  0.3387  0.0975  0.1977
   66SOL    HW1  197   2.389   0.448   0.688 -3.2826  1.3195 -0.8008
   66SOL    HW2  198   2.440   0.292   0.731  0.4220  1.7865  0.7498
   67SOL     OW  199   0.501   2.538   1.341  0.1320 -0.0269  0.1912
   67SOL    HW1  200   0.603   2.546   1.348 -1.7656 -0.6847 -0.7093
   67SOL    HW2  201   0.474   2.445   1.310  0.1161  0.1532  0.5405
   68SOL     OW  202   1.022   1.095   2.438 -0.1426 -0.0769 -0.2441
   68SOL    HW1  203   1.074   1.032   2.377 -1.5581  1.6451  1.5050
   68SOL    HW2  204   0.929   1.113   2.402  2.1073 -1.1005 -0.5023
   69SOL     OW  205   0.767   2.698   2.155 -0.6802 -0.4326 -0.1354
   69SOL    HW1  206   0.808   2.605   2.182 -0.1471  2.9032 -0.3942
   69SOL    HW2  207   0.668   2.705   2.185 -1.2388  0.5522  1.1611
   70SOL     OW  208   0.606   0.253   2.714 -0.0155 -0.2331  0.0965
   70SOL    HW1  209   0.603   0.276   2.816  1.3629 -1.7974  0.9895
   70SOL    HW2  210   0.550   0.165   2.700 -0.9088  0.7491  1.3597
   71SOL     OW  211   1.074   1.781   0.352  0.1764 -0.2026 -0.4409
   71SOL    HW1  212   1.042   1.685   0.361 -0.8952  1.7699 -2.6434
   71SOL    HW2  213   1.067   1.813   0.255  1.0089  0.2266 -2.3111
   72SOL     OW  214   1.813   0.087   2.084 -0.4162  0.7510  0.1562
   72SOL    HW1  215   1.881   0.108   2.003  2.5660  1.9347 -0.7044
   72SOL    HW2  216   1.841   0.008   2.142  1.0640  1.3396  2.5385
   73SOL     OW  217   2.815   2.225   2.516 -0.2525  0.1489 -0.2563
   73SOL    HW1  218   2.810   2.127   2.484 -0.2810 -1.7050  2.4028
   73SOL    HW2  219   2.852   2.227   2.613 -2.0442 -1.5824 -3.8952
   74SOL     OW  220   2.748   3.011   2.039 -0.0949 -0.1223 -0.2705
   74SOL    HW1  221   2.671   3.004   2.109  1.2473 -1.9849 -1.2382
   74SOL    HW2  222   2.843   3.000   2.083 -1.0468 -3.2970  1.5481
   75SOL     OW  223   0.923   0.765   0.999  0.2326  0.2739  0.0462
   75SOL    HW1  224   0.833   0.806   0.963  0.5369 -1.3553 -0.2010
   75SOL    HW2  225   0.951   0.796   1.093  0.0359  4.4304  1.4049
   76SOL     OW  226   1.745   1.239   2.564 -0.1083  0.1626 -0.0397
   76SOL    HW1  227   1.640   1.217   2.565 -1.3004  0.4477  0.4617
   76SOL    HW2  228   1.758   1.333   2.606 -0.7788  0.6239  5.0447
   77SOL     OW  229   2.991   0.978   0.994 -0.1526  0.3028  0.3702
   77SOL    HW1  230   2.975   0.876   0.995  1.0738 -1.5498  0.8803
   77SOL    HW2  231   3.066   1.005   1.063 -0.0942 -2.9177  0.1947
   78SOL     OW  232   1.975   1.404   1.484  0.6633  0.1251  0.2183
   78SOL    HW1  233   2.075   1.422   1.467 -2.6603  1.9888  1.3892
   78SOL    HW2  234   1.921   1.363   1.405  0.7433  2.9305  0.6475
   79SOL     OW  235   0.596   1.322   0.848 -0.2004  0.0831 -0.0075
   79SOL    HW1  236   0.530   1.386   0.897  1.5309  2.1435 -0.7250
   79SOL    HW2  237   0.547   1.266   0.774 -3.7415 -2.2145 -1.0155
   80SOL     OW  238   0.664   0.488   1.612  0.1458  0.2245  0.0483
   80SOL    HW1  239   0.718   0.551   1.550  1.3096  1.3236 -0.9569
   80SOL    HW2  240   0.673   0.389   1.584  1.7461  0.7175 -0.9195
   81SOL     OW  241   1.064   1.390   2.638 -0.1310 -0.0301  0.0224
   81SOL    HW1  242   0.990   1.351   2.700 -1.4186 -1.0079  1.5444
   81SOL    HW2  243   1.027   1.388   2.539 -1.6587  1.0068  1.3590
   82SOL     OW  244   0.905   2.993   1.522  0.4548  0.0072  0.1715
   82SOL    HW1  245   0.939   2.945   1.432  2.7308 -1.3319 -0.1491
   82SOL    HW2  246   0.824   2.939   1.565 -0.6255 -0.2982  0.2293
   83SOL     OW  247   2.759   2.453   0.792 -0.0114  0.6566 -0.1993
   83SOL    HW1  248   2.673   2.405   0.753  2.5265 -1.5633  1.2242
   83SOL    HW2  249   2.763   2.548   0.752 -2.2197  2.7162  0.5533
   84SOL     OW  250   0.704   0.004   2.406  0.6328 -0.4006  0.3872
   84SOL    HW1  251   0.605  -0.001   2.425 -0.3743  1.7834  0.8751
   84SOL    HW2  252   0.764  -0.036   2.481 -0.3318 -1.3806 -0.4864
   85SOL     OW  253   0.390   1.655   1.488 -0.3120  0.7905  0.5796
   85SOL    HW1  254   0.347   1.746   1.475 -0.5580 -2.4658 -1.2366
   85SOL    HW2  255   0.380   1.619   1.583  0.6326  0.3228 -0.3902
   86SOL     OW  256   0.347   1.004   1.486 -0.2816 -0.2006  0.5178
   86SOL    HW1  257   0.331   0.949   1.399 -0.6572  1.5629 -0.3470
   86SOL    HW2  258   0.315   0.959   1.574  1.4130 -3.2639 -1.1121
   87SOL     OW  259   1.586   0.601   0.200 -0.1678  0.2633  0.2436
   87SOL    HW1  260   1.637   0.689   0.219  0.0789 -0.9995 -2.0874
   87SOL    HW2  261   1.530   0.612   0.113  0.0826  0.7217 -0.1029
   88SOL     OW  262   1.577   1.248   0.191 -0.0996  0.1929 -0.0335
   88SOL    HW1  263   1.633   1.174   0.233  1.4878  1.3021  0.7956
   88SOL    HW2  264   1.491   1.267   0.247 -2.6610 -0.2990 -1.2820
   89SOL     OW  265   3.002   0.447   0.578 -0.2405 -0.5438  0.1139
   89SOL    HW1  266   3.066   0.371   0.604 -1.4958  2.9631 -1.4338
   89SOL    HW2  267   2.908   0.423   0.549 -0.8637  0.4917 -0.0878
   90SOL     OW  268   0.975   1.660   3.056  0.2822  0.1511 -0.6237
   90SOL    HW1  269   0.893   1.645   3.119  0.6348  1.1130  2.3662
   90SOL    HW2  270   0.951   1.652   2.953  0.3437 -1.5702 -0.8363
   91SOL     OW  271   1.274   1.456   1.782 -0.2107  1.0976 -0.1093
   91SOL    HW1  272   1.309   1.547   1.822  2.2879 -1.7340  1.2576
   91SOL    HW2  273   1.355   1.404   1.738  0.8251  0.0269 -0.9075
   92SOL     OW  274   0.088   1.044   1.164 -0.3285 -0.1164 -0.2830
   92SOL    HW1  275   0.179   1.039   1.111 -1.8575 -1.2697  2.3929
   92SOL    HW2  276   0.100   1.040   1.265 -0.0115 -0.8514 -2.0712
   93SOL     OW  277   0.043   2.843   0.061 -0.1466 -0.1141  0.6928
   93SOL    HW1  278  -0.026   2.839  -0.019 -2.6254 -0.2126 -0.0342
   93SOL    HW2  279   0.061   2.749   0.108 -0.7009 -1.9157 -0.0606
   94SOL     OW  280   1.518   1.340   1.686  0.3279  0.1067 -0.1476
   94SOL    HW1  281   1.579   1.259   1.705 -0.2085 -0.1113  0.2822
   94SOL    HW2  282   1.575   1.428   1.709  0.0728  0.2969  1.2763
   95SOL     OW  283   1.352   2.473   2.924 -0.2451 -0.0591 -0.1439
   95SOL    HW1  284   1.296   2.466   3.015  0.1609 -1.0187 -1.7547
   95SOL    HW2  285   1.370   2.376   2.882 -0.8755 -0.8207 -0.0480
   96SOL     OW  286   0.501   1.998   1.219 -0.3455 -0.2114 -0.6450
   96SOL    HW1  287   0.479   2.042   1.124  0.8118  1.4003  0.7446
   96SOL    HW2  288   0.493   1.893   1.213 -0.2242  0.1509  0.5586
   97SOL     OW  289   0.341   1.444   2.487  0.8400 -0.1704  0.4315
   97SOL    HW1  290   0.262   1.379   2.488  4.1502 -1.3531 -1.6388
   97SOL    HW2  291   0.341   1.519   2.560  2.2641 -0.3987 -1.5041
   98SOL     OW  292   2.023   1.700   1.310 -0.4419 -0.3237  0.0370
   98SOL    HW1  293   2.070   1.640   1.236  0.2450 -0.6776  0.5294
   98SOL    HW2  294   2.017   1.649   1.397 -4.8520 -0.7117  1.1327
   99SOL     OW  295   2.466   2.135   1.321  0.1086 -0.0331 -0.0276
   99SOL    HW1  296   2.484   2.178   1.414 -2.1952 -1.3777  0.4150
   99SOL    HW2  297   2.454   2.033   1.333  2.3507  0.5625  0.4933
  100SOL     OW  298   2.279   0.377   2.038 -0.3796 -0.5303  0.7964
  100SOL    HW1  299   2.216   0.350   2.110  1.4981 -0.2497 -2.5480
  100SOL    HW2  300   2.377   0.396   2.072  1.2091 -2.9391 -1.7536
  101SOL     OW  301   0.416   1.450   0.279  0.0330  0.6428  0.1317
  101SOL    HW1  302   0.401   1.468   0.378 -1.8826 -0.0047 -0.6337
  101SOL    HW2  303   0.494   1.506   0.235 -0.0373  2.7642  0.6650
  102SOL     OW  304   2.288   1.065   0.795  0.6092  0.1786 -0.0942
  102SOL    HW1  305   2.220   0.989   0.777  1.8215  2.8218  1.6413
  102SOL    HW2  306   2.337   1.097   0.710 -0.7613 -0.1394 -2.2251
  103SOL     OW  307   2.296   0.084   0.421 -0.2847 -0.4219  0.3943
  103SOL    HW1  308   2.364   0.147   0.369 -1.1856 -0.4389  1.0617
  103SOL    HW2  309   2.348   0.032   0.493 -1.0869  0.7237 -2.1968
  104SOL     OW  310   0.086   1.874   2.126  0.5236 -0.1603 -0.3733
  104SOL    HW1  311   0.114   1.797   2.067 -2.6115  2.8969 -0.3410
  104SOL    HW2  312  -0.013   1.897   2.132  0.3896  0.4187 -2.6995
  105SOL     OW  313   1.121   1.949   0.837  0.1625 -0.5089 -0.1680
  105SOL    HW1  314   1.065   2.024   0.792 -0.1425 -1.0193 -0.6637
  105SOL    HW2  315   1.174   1.892   0.770  1.6392  0.0411  0.3825
  106SOL     OW  316   2.058   0.438   1.346  0.4260 -0.6764  0.5405
  106SOL    HW1  317   2.016   0.358   1.396  0.0222 -2.0594  0.4943
  106SOL    HW2  318   2.044   0.526   1.402 -0.2788  1.6949 -1.5682
  107SOL     OW  319   1.818   3.012   1.086  0.0159 -0.4940 -0.5340
  107SOL    HW1  320   1.864   3.072   1.155 -1.1966 -0.6563 -0.2453
  107SOL    HW2  321   1.754   2.949   1.142  0.3260 -1.7238  0.7063
  108SOL     OW  322   0.751   2.637   1.305  0.2656 -0.0929 -0.1122
  108SOL    HW1  323   0.721   2.720   1.360 -0.5671 -3.4612 -0.5157
  108SOL    HW2  324   0.837   2.595   1.345  0.2725 -0.8469 -1.0571
  109SOL     OW  325   2.098   0.095   0.717  0.3513  0.0564  0.7812
  109SOL    HW1  326   2.023   0.056   0.656 -0.4809  0.6857  1.3214
  109SOL    HW2  327   2.091   0.058   0.811  0.4204 -0.9625 -0.7298
  110SOL     OW  328   0.486   2.790   2.714  0.0010  0.4827 -0.6076
  110SOL    HW1  329   0.485   2.830   2.617 -0.7883  0.2479 -2.0102
  110SOL    HW2  330   0.562   2.726   2.727 -0.5763  2.8832 -1.5549
  111SOL     OW  331   1.297   0.518   2.292 -0.2694  0.2402 -0.6062
  111SOL    HW1  332   1.216   0.555   2.346 -1.3141  0.7014  2.1199
  111SOL    HW2  333   1.348   0.441   2.349  1.6728 -2.1966  1.6129
  112SOL     OW  334   1.713   0.486   1.424  0.2244 -0.0873 -0.3185
  112SOL    HW1  335   1.720   0.451   1.326  0.2486  1.2743  0.8469
  112SOL    HW2  336   1.718   0.419   1.502 -2.3733 -0.7903 -2.8765
  113SOL     OW  337   2.310   1.656   1.734 -0.0970 -0.2632 -0.4579
  113SOL    HW1  338   2.380   1.584   1.722  1.9291  1.7331 -0.5499
  113SOL    HW2  339   2.328   1.721   1.813  0.0161 -1.5564 -1.0427
  114SOL     OW  340   0.349   0.581   1.288 -0.6169 -0.3813  0.0522
  114SOL    HW1  341   0.358   0.683   1.266 -3.3589  0.9499 -0.1173
  114SOL    HW2  342   0.296   0.526   1.217 -0.8813  0.0301  1.2927
  115SOL     OW  343   2.629   1.583   1.237 -0.5980 -0.5699 -0.3655
  115SOL    HW1  344   2.648   1.480   1.233 -2.6301  1.1366 -0.3833
  115SOL    HW2  345   2.668   1.634   1.155 -1.1317 -0.0602  0.4808
  116SOL     OW  346   1.826   1.067   0.769 -0.0113  0.6244 -0.4549
  116SOL    HW1  347   1.747   1.009   0.737  0.5309  1.2850  2.2097
  116SOL    HW2  348   1.789   1.165   0.780 -2.5422 -0.6820  0.5728
  117SOL     OW  349   1.149   0.360   0.655 -0.1959  0.0578  0.0829
  117SOL    HW1  350   1.175   0.386   0.753 -0.0698 -0.7276 -0.7725
  117SOL    HW2  351   1.152   0.442   0.594  2.0771  0.8257  0.6967
  118SOL     OW  352   1.070   1.091   1.115  0.2436 -0.0272  0.3333
  118SOL    HW1  353   1.049   0.999   1.167  1.5336 -1.2414  4.1320
  118SOL    HW2  354   1.069   1.179   1.170  1.4290  4.2086  0.3558
  119SOL     OW  355   1.822   1.619   2.026  0.1748  0.0967  0.1095
  119SOL    HW1  356   1.810   1.705   2.091 -0.7444  2.7942  3.2038
  119SOL    HW2  357   1.921   1.597   2.021 -0.2325  1.9902  1.0983
  120SOL     OW  358   2.960   2.789   0.325  0.4067 -0.0969  0.1892
  120SOL    HW1  359   2.893   2.746   0.261  0.4645  0.3112 -1.5191
  120SOL    HW2  360   3.005   2.711   0.380  1.9366  1.9590 -0.2140
  121SOL     OW  361   2.014   0.749   2.184 -0.2446 -0.4141  0.3106
  121SOL    HW1  362   2.079   0.766   2.109 -0.8098  1.0102  1.8609
  121SOL    HW2  363   1.997   0.645   2.204 -1.3061 -3.2662 -2.6077
  122SOL     OW  364   2.742   2.542   1.370  0.3200 -0.2569 -0.2659
  122SOL    HW1  365   2.759   2.554   1.265  0.2863 -0.6243 -0.2839
  122SOL    HW2  366   2.699   2.457   1.392  1.4985  2.4741  0.4994
  123SOL     OW  367   1.712   0.033   1.691 -0.1018 -0.1765 -0.1898
  123SOL    HW1  368   1.735  -0.029   1.614  0.1290  0.8513  0.3621
  123SOL    HW2  369   1.790   0.040   1.761 -0.0662  0.1693  1.0674
  124SOL     OW  370   0.176   0.482   1.051 -0.1412 -0.0279  0.3578
  124SOL    HW1  371   0.126   0.551   1.119 -4.2349 -0.4783 -0.6743
  124SOL    HW2  372   0.133   0.481   0.955 -1.7113  0.5631  2.7264
  125SOL     OW  373   0.875   1.775   0.675  0.1370 -0.0955 -0.0307
  125SOL    HW1  374   0.978   1.779   0.649  2.3604  1.9829  0.3040
  125SOL    HW2  375   0.853   1.706   0.744  1.0961  1.0973 -0.1279
  126SOL     OW  376   1.915   2.371   2.390  0.0731  0.1444 -0.0533
  126SOL    HW1  377   1.966   2.295   2.336 -0.3959 -1.7551  1.6811
  126SOL    HW2  378   1.822   2.395   2.352 -0.7899 -1.1870 -1.3136
  127SOL     OW  379   0.863   0.981   0.182 -0.9786 -0.1533 -0.1033
  127SOL    HW1  380   0.865   1.034   0.271  1.1694  0.1932 -0.4436
  127SOL    HW2  381   0.830   0.881   0.184 -0.1243 -1.1805  0.1760
  128SOL     OW  382   0.993   0.162   1.486 -0.1275  0.0581  0.4093
  128SOL    HW1  383   0.939   0.218   1.417 -0.2527 -1.6383 -0.1614
  128SOL    HW2  384   0.969   0.059   1.475  0.0982  1.1099 -1.8547
  129SOL     OW  385   1.823   0.700   1.874  0.9034 -0.2081 -0.0322
  129SOL    HW1  386   1.827   0.708   1.777 -0.7879 -0.0760  2.6905
  129SOL    HW2  387   1.850   0.787   1.919  1.4266 -1.0833  2.9487
  130SOL     OW  388   1.329   2.069   0.999  0.3133  0.0574  0.6059
  130SOL    HW1  389   1.255   2.014   0.944  0.7306 -0.8036 -0.4606
  130SOL    HW2  390   1.348   2.160   0.957 -0.3781 -3.1142 -3.1605
  131SOL     OW  391   0.009   1.521   1.374 -0.0131  0.1457  0.8197
  131SOL    HW1  392  -0.054   1.447   1.344  0.1497  1.1213 -0.1132
  131SOL    HW2  393   0.102   1.482   1.400 -1.1083 -0.9956 -1.9923
  132SOL     OW  394   1.942   2.501   0.524  0.4342 -0.4188 -0.3634
  132SOL    HW1  395   1.843   2.470   0.534 -0.9178 -1.7509  1.8415
  132SOL    HW2  396   2.003   2.486   0.608  0.3944 -1.1811 -0.0671
  133SOL     OW  397   1.821   2.277   2.908  0.1779 -0.1429 -0.1330
  133SOL    HW1  398   1.766   2.351   2.960  0.5482  0.9361 -1.4493
  133SOL    HW2  399   1.812   2.293   2.806 -2.6866 -1.3031 -2.4204
  134SOL     OW  400   2.657   2.354   1.612  0.5115 -0.3420 -0.3149
  134SOL    HW1  401   2.606   2.316   1.695 -1.0023  3.6770 -0.5103
  134SOL    HW2  402   2.740   2.416   1.636  0.4664  2.5169  1.7856
  135SOL     OW  403   0.719   1.541   2.560 -0.1238  0.3730  0.3351
  135SOL    HW1  404   0.695   1.445   2.586 -3.0682  3.9352  0.1367
  135SOL    HW2  405   0.805   1.528   2.493  2.8252 -0.6388 -1.5255
  136SOL     OW  406   1.193   2.056   0.480  0.4074 -0.3453  0.4763
  136SOL    HW1  407   1.113   2.108   0.521 -0.0167  2.2342 -0.1781
  136SOL    HW2  408   1.173   1.954   0.463 -1.0910 -1.4607 -1.3275
  137SOL     OW  409   0.381   1.072   2.209  0.1181  0.7070 -0.1300
  137SOL    HW1  410   0.288   1.095   2.253  0.1592 -0.7590  0.1592
  137SOL    HW2  411   0.431   1.000   2.262  1.2104 -1.0703  1.0322
  138SOL     OW  412   2.443   1.470   0.258 -0.0630  0.1905 -0.5844
  138SOL    HW1  413   2.343   1.448   0.237 -2.7105 -0.6532 -0.4202
  138SOL    HW2  414   2.488   1.391   0.313 -2.0429 -1.6440  2.1573
  139SOL     OW  415   1.788   2.595   1.224 -0.3125  0.3680  0.0421
  139SOL    HW1  416   1.704   2.537   1.197  1.9090  0.2600  0.5799
  139SOL    HW2  417   1.845   2.558   1.302  3.3724 -0.2665 -1.3080
  140SOL     OW  418   3.001   2.975   2.534 -0.1358 -0.1377 -0.5010
  140SOL    HW1  419   3.046   2.879   2.538  1.8024  0.8377  1.3129
  140SOL    HW2  420   3.059   3.059   2.545 -3.0516  0.3867 -1.0237
  141SOL     OW  421   1.177   1.628   1.564  0.9954  0.3166 -0.4222
  141SOL    HW1  422   1.142   1.702   1.627 -1.4808 -0.1759  1.3466
  141SOL    HW2  423   1.198   1.541   1.615 -1.5757 -2.8129  0.2142
  142SOL     OW  424   1.551   0.616   2.266  0.0876  0.1084 -0.1421
  142SOL    HW1  425   1.570   0.610   2.163  0.5310  0.5691 -2.3090
  142SOL    HW2  426   1.452   0.582   2.277 -0.3189  0.5597 -0.1360
  143SOL     OW  427   2.776   0.864   0.502 -0.4878 -0.3128 -0.4858
  143SOL    HW1  428   2.803   0.896   0.408 -0.5467  2.0857  1.7250
  143SOL    HW2  429   2.791   0.927   0.582 -0.5446 -0.3605 -0.3354
  144SOL     OW  430   2.974   1.256   1.358 -0.6064  0.0483 -0.0338
  144SOL    HW1  431   2.949   1.234   1.457 -3.6127 -0.8183 -0.7264
  144SOL    HW2  432   3.058   1.213   1.316 -0.7940  0.6213 -0.0096
  145SOL     OW  433   1.077   1.889   0.082  0.0305  0.1924 -0.0126
  145SOL    HW1  434   1.081   1.971   0.021  0.4486 -0.6231  0.2731
  145SOL    HW2  435   1.052   1.806   0.026  0.3621  1.7723  1.3987
  146SOL     OW  436   2.533   0.648   1.460 -0.0082 -0.4732  0.0405
  146SOL    HW1  437   2.468   0.567   1.440 -2.4349 -2.6181  0.0290
  146SOL    HW2  438   2.490   0.745   1.445 -0.8225  1.6812  1.9530
  147SOL     OW  439   1.039   2.547   0.611 -0.3557 -0.7523  0.2402
  147SOL    HW1  440   1.016   2.601   0.527 -0.9528 -2.4516  0.6772
  147SOL    HW2  441   1.130   2.496   0.601  2.5807 -0.9437 -1.2770
  148SOL     OW  442   1.624   1.436   3.084 -0.0979 -0.3662  0.9916
  148SOL    HW1  443   1.675   1.367   3.025  1.9287  0.2492  0.6023
  148SOL    HW2  444   1.571   1.398   3.161  0.5951  0.4126 -0.5344
  149SOL     OW  445   0.670   1.407   1.969  0.0995  0.0935  0.3053
  149SOL    HW1  446   0.572   1.385   1.998 -0.9553 -0.2146  0.0481
  149SOL    HW2  447   0.709   1.330   1.908 -1.8408 -0.5114 -0.8766
  150SOL     OW  448   2.978   1.279   0.927  0.2591 -0.2091  0.1068
  150SOL    HW1  449   3.028   1.347   0.985 -2.1132 -0.2372 -2.0803
  150SOL    HW2  450   2.995   1.181   0.959  0.6503 -1.1764  1.1606
  151SOL     OW  451   0.169   0.765   2.102  0.2803 -0.2171  0.5918
  151SOL    HW1  452   0.153   0.863   2.081 -0.0268 -0.7749 -1.5870
  151SOL    HW2  453   0.250   0.726   2.055 -3.6580  0.4063  1.1233
  152SOL     OW  454   1.409   1.757   1.278  0.3642  0.1998 -0.2301
  152SOL    HW1  455   1.426   1.835   1.341  0.5992 -1.6775  1.9342
  152SOL    HW2  456   1.312   1.757   1.236 -2.5761 -1.4847  0.2794
  153SOL     OW  457   0.079   1.528   0.164 -0.1695 -0.0981 -0.1860
  153SOL    HW1  458   0.083   1.428   0.147  0.0174  2.2034 -2.5505
  153SOL    HW2  459   0.084   1.561   0.265  1.5878  0.8375  1.0873
  154SOL     OW  460   2.408   1.927   2.835  0.2419 -0.6770  0.2287
  154SOL    HW1  461   2.408   1.823   2.860  0.8826 -3.0590  1.3564
  154SOL    HW2  462   2.443   1.947   2.737 -0.8987  2.2296 -1.9044
  155SOL     OW  463   2.518   1.214   0.387  0.1877  0.6890 -0.6226
  155SOL    HW1  464   2.575   1.223   0.305 -0.9597 -0.5700  1.9386
  155SOL    HW2  465   2.539   1.130   0.442 -0.4496  1.4128 -1.6355
  156SOL     OW  466   2.538   0.951   0.876 -0.0888 -0.3395 -0.0279
  156SOL    HW1  467   2.457   0.997   0.821  0.5368 -1.8633 -1.6688
  156SOL    HW2  468   2.617   1.013   0.893 -3.0349  1.1621 -1.5112
  157SOL     OW  469   1.319   3.033   3.041 -0.5819  0.0171 -0.7316
  157SOL    HW1  470   1.386   2.973   2.989 -0.8115 -0.8019 -1.2379
  157SOL    HW2  471   1.322   3.139   3.019 -3.7384  3.3613  0.2901
  158SOL     OW  472   1.048   1.902   2.020  0.0203 -0.0086  0.6127
  158SOL    HW1  473   1.090   1.877   2.112 -2.7392  0.8795 -0.0982
  158SOL    HW2  474   0.954   1.861   2.009  2.4136 -2.8630 -0.9557
  159SOL     OW  475   0.866   0.366   1.314 -0.3852  0.2468 -0.1787
  159SOL    HW1  476   0.837   0.453   1.369 -0.1957  0.1330  0.7203
  159SOL    HW2  477   0.791   0.327   1.250 -0.8734  0.7963 -0.7584
  160SOL     OW  478   1.470   2.397   1.662 -0.2090  0.6660 -0.2470
  160SOL    HW1  479   1.461   2.479   1.606  1.9418 -1.1069  1.6915
  160SOL    HW2  480   1.569   2.364   1.650  1.5944  1.1544  1.6231
  161SOL     OW  481   0.123   2.934   0.342  0.4326 -0.2016  0.0744
  161SOL    HW1  482   0.041   2.867   0.345 -0.6907 -1.0687 -0.7746
  161SOL    HW2  483   0.118   2.986   0.255  0.3881  1.9837 -4.3110
  162SOL     OW  484   2.582   1.890   0.517 -0.1729 -0.1155 -0.1151
  162SOL    HW1  485   2.523   1.855   0.440 -1.3791  0.3647  1.5144
  162SOL    HW2  486   2.600   1.819   0.590 -1.4752  2.2753 -1.0137
  163SOL     OW  487   1.975   2.723   0.767 -0.3941 -0.2652  0.0678
  163SOL    HW1  488   1.936   2.743   0.674  0.9799 -1.1675 -0.4549
  163SOL    HW2  489   2.026   2.636   0.768 -1.2109  0.3719  1.1103
  164SOL     OW  490   3.070   0.284   1.243 -0.3970 -0.0294 -0.4211
  164SOL    HW1  491   3.153   0.275   1.184 -1.6636  0.3904 -1.3339
  164SOL    HW2  492   3.090   0.339   1.326 -0.3825  3.1340 -1.4350
  165SOL     OW  493   0.984   1.451   0.666  0.4633  0.4423 -0.0127
  165SOL    HW1  494   0.920   1.501   0.729  0.5753  2.0774 -0.8575
  165SOL    HW2  495   0.963   1.466   0.562 -3.3414  0.4052 -0.2764
  166SOL     OW  496   1.431   1.045   1.758 -0.1707  0.0854 -0.5008
  166SOL    HW1  497   1.346   1.016   1.797  0.6867 -0.2291  1.2154
  166SOL    HW2  498   1.495   1.098   1.821  0.0736 -0.5191  1.6823
  167SOL     OW  499   0.884   1.907   1.554  0.2522  0.4076 -0.3336
  167SOL    HW1  500   0.870   1.976   1.634 -0.0271  0.8012  1.6313
  167SOL    HW2  501   0.799   1.851   1.531  0.1076  0.7014 -0.8542
  168SOL     OW  502   1.506   2.369   0.140  0.5366  0.3733  0.4916
  168SOL    HW1  503   1.570   2.416   0.069 -1.1585 -0.8797 -1.5965
  168SOL    HW2  504   1.557   2.344   0.230  2.5183 -0.6283  0.0515
  169SOL     OW  505   0.178   2.571   2.176  0.0358 -0.2483  0.0622
  169SOL    HW1  506   0.255   2.510   2.138  1.0235  1.4087 -0.5660
  169SOL    HW2  507   0.144   2.537   2.271  1.6536  1.4417  3.4911
  170SOL     OW  508   1.263   0.299   1.886  0.2393 -0.0282  0.5232
  170SOL    HW1  509   1.300   0.272   1.978 -1.3431 -1.1891 -1.3821
  170SOL    HW2  510   1.197   0.229   1.851 -1.4843 -0.8634  1.2287
  171SOL     OW  511   0.265   0.804   2.431  0.2566 -0.4182  0.0093
  171SOL    HW1  512   0.167   0.812   2.461 -3.0167 -0.3888 -0.5919
  171SOL    HW2  513   0.280   0.804   2.330 -0.4620  1.9288  1.6268
  172SOL     OW  514   0.907   1.126   2.928 -0.3899  0.3200  0.4135
  172SOL    HW1  515   1.010   1.135   2.957  1.2784  0.2092  1.1346
  172SOL    HW2  516   0.900   1.067   2.842  0.2054 -2.5410 -2.0405
  173SOL     OW  517   0.674   2.708   0.151  0.1716 -0.1051  0.0451
  173SOL    HW1  518   0.677   2.813   0.167 -0.2876  0.1882  1.4124
  173SOL    HW2  519   0.574   2.678   0.138 -0.0694  0.1296  1.2260
  174SOL     OW  520   1.343   2.759   1.042  0.2389  0.0958 -0.0740
  174SOL    HW1  521   1.330   2.847   0.984  2.3018 -0.2907 -1.3738
  174SOL    HW2  522   1.285   2.680   1.008  1.5683  1.7580  1.5933
  175SOL     OW  523   0.370   0.002   1.699  0.3682 -0.6026 -0.4274
  175SOL    HW1  524   0.434   0.053   1.765  0.0612  0.2089 -0.3026
  175SOL    HW2  525   0.294   0.057   1.657 -1.3936 -0.9245  1.6625
  176SOL     OW  526   2.571   0.370   3.048 -0.2153  0.1960 -0.4035
  176SOL    HW1  527   2.569   0.443   3.122 -2.4751 -1.6269  1.9402
  176SOL    HW2  528   2.505   0.294   3.058 -2.7999  1.8877 -0.0411
  177SOL     OW  529   0.381   0.402   0.893  0.0779  0.5124  0.2770
  177SOL    HW1  530   0.439   0.339   0.952  0.2501 -0.1106  0.1505
  177SOL    HW2  531   0.308   0.455   0.950  0.1391 -0.0942  2.2644
  178SOL     OW  532   3.080   2.726   2.602  0.6124  0.6115 -0.2782
  178SOL    HW1  533   3.008   2.688   2.669  0.2767 -1.1434 -2.6387
  178SOL    HW2  534   3.174   2.734   2.642  0.9840  1.7629 -2.7765
  179SOL     OW  535   0.019   1.702   1.156  0.1083 -0.5921 -0.0386
  179SOL    HW1  536  -0.067   1.768   1.149 -2.1577  0.3124 -2.0552
  179SOL    HW2  537   0.022   1.661   1.250  0.6815  1.7641 -1.6538
  180SOL     OW  538   0.188   1.248   1.837 -0.0605 -0.4436 -0.4767
  180SOL    HW1  539   0.287   1.253   1.801 -2.2548  3.0697  1.8465
  180SOL    HW2  540   0.156   1.338   1.891  0.2281  1.9899  2.5140
  181SOL     OW  541   2.996   1.820   2.535  0.2158  0.2161  0.2959
  181SOL    HW1  542   3.079   1.856   2.473 -2.2397  4.5278 -3.4563
  181SOL    HW2  543   2.914   1.861   2.501  2.7947 -4.4198  0.2741
  182SOL     OW  544   2.318   1.239   1.226  0.2441 -0.0757 -0.8704
  182SOL    HW1  545   2.254   1.200   1.151  1.3195  0.9713  0.0846
  182SOL    HW2  546   2.323   1.343   1.220  0.9102 -0.5788  1.4476
  183SOL     OW  547   1.493   2.252   2.517 -0.7314  0.1464  0.5179
  183SOL    HW1  548   1.415   2.200   2.565 -0.0657 -0.8714  1.1393
  183SOL    HW2  549   1.570   2.187   2.515  0.2066  1.6997  0.2721
  184SOL     OW  550   2.061   0.924   0.755  0.1687  0.2882 -0.0717
  184SOL    HW1  551   1.972   0.973   0.764  1.6793 -2.9169 -1.2646
  184SOL    HW2  552   2.054   0.828   0.784 -0.9075  0.6700 -0.9403
  185SOL     OW  553   1.672   2.734   2.102 -0.4316 -0.0913  0.0968
  185SOL    HW1  554   1.617   2.819   2.072  0.8345  2.0428 -0.7036
  185SOL    HW2  555   1.666   2.714   2.201 -1.2329 -0.4791 -1.8116
  186SOL     OW  556   0.109   2.241   1.748 -0.4028 -0.2741  0.2955
  186SOL    HW1  557   0.156   2.329   1.728 -0.0252 -1.3454  0.3269
  186SOL    HW2  558   0.172   2.157   1.736  0.8538 -2.5142  0.6941
  187SOL     OW  559   1.422   0.660   1.707  0.4209  0.0087 -0.2000
  187SOL    HW1  560   1.470   0.729   1.650 -1.6135 -0.7217 -0.9018
  187SOL    HW2  561   1.406   0.693   1.804  1.7293 -0.4447 -1.7133
  188SOL     OW  562   2.743   2.763   1.531 -0.3321  0.6002  0.2213
  188SOL    HW1  563   2.750   2.856   1.481  1.5818  1.7829 -0.1440
  188SOL    HW2  564   2.751   2.681   1.468 -0.0274 -1.5295  1.1361
  189SOL     OW  565   0.760   0.999   1.478  0.1208  0.2125 -0.2337
  189SOL    HW1  566   0.832   1.073   1.457  1.7907  0.5034 -1.7985
  189SOL    HW2  567   0.743   0.941   1.397  0.4739  1.0213 -0.0417
  190SOL     OW  568   1.465   1.714   1.632  0.3350 -0.6622 -0.3453
  190SOL    HW1  569   1.366   1.721   1.598  0.6620 -2.1631 -1.3586
  190SOL    HW2  570   1.498   1.804   1.680 -1.1715  3.5507 -1.6888
  191SOL     OW  571   1.010   0.802   1.544 -0.4051 -0.1428  0.4373
  191SOL    HW1  572   1.065   0.734   1.600 -0.1988 -0.1339 -3.2539
  191SOL    HW2  573   1.075   0.878   1.513 -1.5367 -0.4646  0.3166
  192SOL     OW  574   1.872   2.271   1.226 -0.4974  0.4798 -0.2516
  192SOL    HW1  575   1.783   2.256   1.166 -2.1282  0.1630 -0.6244
  192SOL    HW2  576   1.958   2.296   1.170  0.0481 -0.0638 -1.1565
  193SOL     OW  577   0.528   0.563   0.322  0.0970  0.0940  0.1645
  193SOL    HW1  578   0.514   0.489   0.398  0.7544  0.2577  1.5257
  193SOL    HW2  579   0.548   0.520   0.232  0.1594 -0.2490  2.1393
  194SOL     OW  580   0.281   0.847   1.265 -0.2135  0.1902 -0.4671
  194SOL    HW1  581   0.190   0.795   1.247 -2.5955  0.0172  0.0625
  194SOL    HW2  582   0.302   0.918   1.193  0.5692  1.8794  1.1561
  195SOL     OW  583   0.950   2.949   0.479  0.0864  0.4148 -0.1059
  195SOL    HW1  584   0.942   2.856   0.425  1.1390 -0.7293 -0.9838
  195SOL    HW2  585   1.051   2.985   0.478 -0.5982  0.7380  1.3867
  196SOL     OW  586   0.272   1.429   1.388  0.4121 -0.3692  0.1694
  196SOL    HW1  587   0.335   1.508   1.414  0.6166  0.3946  0.4961
  196SOL    HW2  588   0.255   1.358   1.460  0.5869  0.4536 -1.3853
  197SOL     OW  589   0.859   2.002   0.203  0.6341 -0.1687  0.5899
  197SOL    HW1  590   0.880   1.988   0.304  0.4099  0.3471  0.6254
  197SOL    HW2  591   0.935   1.972   0.141  0.4256  0.4107 -0.0381
  198SOL     OW  592   0.285   1.218   0.238  0.3468 -0.2593 -0.4640
  198SOL    HW1  593   0.184   1.210   0.228  1.1480  1.5063  2.4185
  198SOL    HW2  594   0.318   1.318   0.245  0.5923 -2.2586  1.9270
  199SOL     OW  595   2.262   0.396   2.527 -0.7762  0.0249  0.2281
  199SOL    HW1  596   2.189   0.334   2.571 -2.1665  0.9541 -0.0732
  199SOL    HW2  597   2.361   0.364   2.543  2.6944 -0.7308 -0.9648
  200SOL     OW  598   3.094   2.876   0.786  0.2206 -0.0956 -0.1338
  200SOL    HW1  599   3.007   2.899   0.731 -2.5038  0.2581 -2.3326
  200SOL    HW2  600   3.157   2.956   0.815  1.0656  0.5471 -1.1040
  201SOL     OW  601   1.146   0.696   0.534  0.1034  0.1938 -0.0858
  201SOL    HW1  602   1.159   0.789   0.569  1.8076 -0.3114  1.6496
  201SOL    HW2  603   1.047   0.674   0.517  1.5674  1.4783 -1.4133
  202SOL     OW  604   0.448   1.248   1.741  0.4742  0.9823 -1.1378
  202SOL    HW1  605   0.473   1.253   1.644 -1.8421  0.9256  0.4111
  202SOL    HW2  606   0.475   1.161   1.793  1.1218 -2.1342 -0.9900
  203SOL     OW  607   0.637   0.237   1.513  0.7594 -0.0193 -0.0819
  203SOL    HW1  608   0.680   0.183   1.436  1.3206 -1.0201  0.8692
  203SOL    HW2  609   0.686   0.201   1.600  0.9845  0.0967  0.0750
  204SOL     OW  610   2.084   1.875   3.032  0.4054 -0.2848  0.0957
  204SOL    HW1  611   2.102   1.777   3.002 -0.7162  0.4190  0.1052
  204SOL    HW2  612   2.040   1.945   2.967 -0.8289 -0.3558  1.0273
  205SOL     OW  613   1.851   1.853   0.103  0.0889 -0.0433  0.0379
  205SOL    HW1  614   1.936   1.850   0.051  0.6539  1.5403  2.2859
  205SOL    HW2  615   1.791   1.932   0.072 -1.0360  0.9591 -1.0098
  206SOL     OW  616   2.517   2.819   0.409  0.6637 -0.2661  0.5104
  206SOL    HW1  617   2.575   2.735   0.425  0.8588 -0.9305 -0.5398
  206SOL    HW2  618   2.540   2.864   0.319  1.2448 -0.4381 -1.9708
  207SOL     OW  619   0.579   1.725   2.865  0.5839  0.4030 -0.2028
  207SOL    HW1  620   0.674   1.699   2.828  3.1598  0.3694 -1.5456
  207SOL    HW2  621   0.556   1.669   2.951  2.0373  0.3464  1.1011
  208SOL     OW  622   1.004   1.460   1.418 -0.7276  0.2797  0.2710
  208SOL    HW1  623   0.934   1.501   1.357  0.7644 -0.9242  1.1056
  208SOL    HW2  624   1.070   1.530   1.458 -0.2006 -1.2395  0.0639
  209SOL     OW  625   0.163   0.929   3.065  0.5344 -0.2356 -0.3925
  209SOL    HW1  626   0.233   0.897   2.994  2.3435  1.5925 -1.1729
  209SOL    HW2  627   0.174   0.884   3.158  1.9463  1.9179 -1.6123
  210SOL     OW  628   1.710   0.494   1.144  0.2268  0.5159  0.0122
  210SOL    HW1  629   1.644   0.561   1.092 -1.0750  2.2594 -2.5798
  210SOL    HW2  630   1.810   0.517   1.129 -1.5847 -1.6640 -0.8841
  211SOL     OW  631   2.108   1.029   1.680 -0.1166 -0.0563 -0.0708
  211SOL    HW1  632   2.156   0.968   1.746 -2.3277 -0.8668  0.3459
  211SOL    HW2  633   2.168   1.090   1.612  3.7324  1.0774 -0.6390
  212SOL     OW  634   0.026   1.018   1.453 -0.2309 -0.3204  0.2951
  212SOL    HW1  635   0.088   1.100   1.484  1.1222  1.5062 -0.7276
  212SOL    HW2  636   0.035   0.940   1.519 -0.5583 -1.7358 -1.9536
  213SOL     OW  637   2.697   0.320   0.254  0.2384  0.2560 -0.0824
  213SOL    HW1  638   2.781   0.267   0.231 -1.1242  0.5955  1.6681
  213SOL    HW2  639   2.680   0.400   0.183  0.0269  2.9386  1.1377
  214SOL     OW  640   2.190   0.270   2.279  0.0855  0.0133 -0.5183
  214SOL    HW1  641   2.225   0.313   2.368  2.1958  1.5861  1.4678
  214SOL    HW2  642   2.134   0.184   2.298  2.0671 -0.1776 -0.3921
  215SOL     OW  643   1.657   2.312   2.066 -0.0535 -0.0684  0.3580
  215SOL    HW1  644   1.760   2.326   2.061 -0.1024  0.4073 -3.8737
  215SOL    HW2  645   1.616   2.365   2.146 -3.4000  2.1160 -0.2926
  216SOL     OW  646   2.243   0.531   0.642 -0.0849  0.3772  0.1145
  216SOL    HW1  647   2.195   0.469   0.568 -0.1816  1.2481  0.5010
  216SOL    HW2  648   2.260   0.629   0.609  1.8587  2.7885 -1.9566
  217SOL     OW  649   0.764   2.804   2.419  0.2281 -0.3613  0.1632
  217SOL    HW1  650   0.739   2.705   2.444 -0.7301 -3.4339  1.2767
  217SOL    HW2  651   0.776   2.816   2.318  3.5526  0.0374  0.2072
  218SOL     OW  652   1.925   1.448   0.063 -0.1434 -0.3487  0.4046
  218SOL    HW1  653   1.827   1.472   0.045  2.8607  1.5602  0.5219
  218SOL    HW2  654   1.933   1.346   0.084  0.6736  2.6268  0.6368
  219SOL     OW  655   2.382   1.326   2.558 -0.0070  0.4825  0.0154
  219SOL    HW1  656   2.463   1.316   2.503 -2.7886  0.1161 -1.6204
  219SOL    HW2  657   2.379   1.260   2.643 -1.2166 -2.7015 -0.5584
  220SOL     OW  658   1.423   1.045   1.265  0.3502  0.1045 -0.1879
  220SOL    HW1  659   1.524   1.029   1.272 -2.3853  0.7225  3.1606
  220SOL    HW2  660   1.398   1.129   1.207  4.6381 -1.3692 -1.1564
  221SOL     OW  661   1.296   1.170   2.140 -0.3164  0.2471  0.2998
  221SOL    HW1  662   1.258   1.245   2.077 -0.1160  0.0190  1.1961
  221SOL    HW2  663   1.381   1.126   2.103 -0.3795  1.8339  0.3392
  222SOL     OW  664   1.280   0.083   1.140  0.1221 -0.4285 -0.3131
  222SOL    HW1  665   1.374   0.040   1.147  0.2140 -1.1975  1.4719
  222SOL    HW2  666   1.267   0.175   1.192 -1.1321  1.3888 -0.3114
  223SOL     OW  667   2.899   0.809   1.966 -0.3014  0.6561 -0.3514
  223SOL    HW1  668   2.903   0.810   2.070  0.5093  1.0557 -0.1396
  223SOL    HW2  669   2.896   0.903   1.924 -0.7929  1.4551  1.1684
  224SOL     OW  670   1.563   0.991   2.786 -0.2771 -0.7965 -0.2958
  224SOL    HW1  671   1.536   0.937   2.707  0.0352  2.9971  2.5666
  224SOL    HW2  672   1.559   1.094   2.770 -0.4855  0.4515  0.1511
  225SOL     OW  673   2.988   2.800   2.919 -0.3936  0.1724 -0.5234
  225SOL    HW1  674   2.963   2.711   2.870 -0.0969 -1.9186  2.3866
  225SOL    HW2  675   3.027   2.877   2.865  0.0022 -1.3822  1.4102
  226SOL     OW  676   2.452   1.647   2.864 -0.0053 -0.7224  0.3716
  226SOL    HW1  677   2.505   1.594   2.790  0.9414  1.2786 -0.7901
  226SOL    HW2  678   2.416   1.582   2.940 -2.5276 -1.2969  1.2668
  227SOL     OW  679   0.798   0.132   2.980  0.2323 -0.2239  0.3791
  227SOL    HW1  680   0.852   0.097   3.063  0.2029  1.3571  0.2844
  227SOL    HW2  681   0.844   0.112   2.891 -1.0689  0.7761 -0.0491
  228SOL     OW  682   2.363   0.572   2.794  0.4103  0.1546 -0.0732
  228SOL    HW1  683   2.306   0.580   2.706 -1.5506 -1.1461  1.4188
  228SOL    HW2  684   2.431   0.498   2.794 -1.9731 -0.7203  1.7252
  229SOL     OW  685   0.587   0.500   1.868  0.0373 -0.0065 -0.4680
  229SOL    HW1  686   0.628   0.510   1.767 -1.1282  0.2398 -3.4542
  229SOL    HW2  687   0.650   0.541   1.939 -1.3595 -0.7774  3.9327
  230SOL     OW  688   1.918   1.247   2.150 -0.1069  0.2850 -0.0858
  230SOL    HW1  689   1.994   1.285   2.085 -0.0756 -1.8278 -2.0423
  230SOL    HW2  690   1.823   1.291   2.147 -0.4290 -0.5584  0.9884
  231SOL     OW  691   0.635   1.031   2.952  0.5135 -0.1788  0.1986
  231SOL    HW1  692   0.728   1.071   2.947 -1.1557  0.4086 -1.9500
  231SOL    HW2  693   0.581   1.046   3.039  0.2681 -2.6691  0.3688
  232SOL     OW  694   2.536   0.050   2.753 -0.1937  0.2329 -0.0028
  232SOL    HW1  695   2.574  -0.026   2.814 -0.0552 -0.2407  1.3532
  232SOL    HW2  696   2.490   0.008   2.668 -1.5963 -1.3109  1.0640
  233SOL     OW  697   1.732   1.275   1.049 -0.2252 -0.1427 -0.1133
  233SOL    HW1  698   1.768   1.332   0.968  0.9288  1.9117 -0.6348
  233SOL    HW2  699   1.782   1.185   1.048 -0.1308  1.4982  1.7041
  234SOL     OW  700   1.623   2.639   1.844  0.0633 -0.2030 -0.3468
  234SOL    HW1  701   1.646   2.662   1.944  1.2434  1.1060  0.6911
  234SOL    HW2  702   1.544   2.574   1.833 -1.4066 -1.4078  0.2195
  235SOL     OW  703   0.048   3.003   2.832  0.6209  0.1839  0.5096
  235SOL    HW1  704   0.128   3.061   2.800 -0.7354  0.1816  0.5463
  235SOL    HW2  705  -0.021   3.058   2.890  0.4509  2.6423  0.6891
  236SOL     OW  706   2.810   0.708   0.043 -0.1715 -0.0726  0.4817
  236SOL    HW1  707   2.882   0.762   0.095 -1.2381 -0.4010 -2.6865
  236SOL    HW2  708   2.853   0.621   0.011 -0.1373  1.2531 -0.3628
  237SOL     OW  709   1.497   1.640   1.025 -0.0702 -0.5885 -0.1207
  237SOL    HW1  710   1.594   1.619   1.056  0.2430  0.0356  0.7986
  237SOL    HW2  711   1.439   1.695   1.096 -0.8284 -1.8385 -0.0858
  238SOL     OW  712   1.766   1.358   0.760 -0.0294  0.0602 -0.2148
  238SOL    HW1  713   1.841   1.345   0.690  0.7339 -1.6092  0.7864
  238SOL    HW2  714   1.699   1.428   0.717 -2.0724 -0.6734 -0.9999
  239SOL     OW  715   2.107   0.252   2.716 -0.3715 -0.5911 -0.1689
  239SOL    HW1  716   2.199   0.242   2.765  0.3247 -2.2644  1.7169
  239SOL    HW2  717   2.031   0.302   2.772 -1.1574  1.0743  1.8131
  240SOL     OW  718   0.855   0.697   0.206 -0.1776 -0.0671  0.4869
  240SOL    HW1  719   0.851   0.613   0.141 -0.9241  0.5252 -2.1944
  240SOL    HW2  720   0.838   0.672   0.302  0.3521  4.4975  0.2729
  241SOL     OW  721   0.573   0.026   0.306  0.1090 -0.1022 -0.1520
  241SOL    HW1  722   0.601  -0.025   0.223 -3.1308  1.8504  1.7395
  241SOL    HW2  723   0.507  -0.038   0.364 -3.8751 -2.1930 -0.3458
  242SOL     OW  724   0.691   2.399   1.110 -0.1230  0.0118  0.4401
  242SOL    HW1  725   0.668   2.474   1.171 -0.9748  0.7141  0.5755
  242SOL    HW2  726   0.783   2.423   1.064  0.6506  1.4169  1.3554
  243SOL     OW  727   1.080   0.614   2.438 -0.0469  0.1433 -1.0034
  243SOL    HW1  728   1.011   0.686   2.419  1.0745  0.9907 -0.1650
  243SOL    HW2  729   1.044   0.541   2.500  0.0486  2.6598 -0.4569
  244SOL     OW  730   2.778   1.940   2.393 -0.6261 -0.2528  0.8904
  244SOL    HW1  731   2.823   1.951   2.298 -0.5705 -1.3150  0.4156
  244SOL    HW2  732   2.706   1.868   2.396 -3.8931 -0.6265  2.3112
  245SOL     OW  733   2.460   0.746   2.156 -0.0409  0.1505 -0.8998
  245SOL    HW1  734   2.489   0.787   2.249  2.3162  0.8888 -0.3990
  245SOL    HW2  735   2.538   0.694   2.110 -3.4911 -1.7652 -1.2065
  246SOL     OW  736   0.215   2.879   1.729  0.3377  0.1727 -0.3484
  246SOL    HW1  737   0.162   2.866   1.642 -1.1827 -0.0076  1.8009
  246SOL    HW2  738   0.288   2.958   1.727  0.7620  2.0261  1.5231
  247SOL     OW  739   2.192   0.531   3.000 -0.0713  0.3816  0.0773
  247SOL    HW1  740   2.257   0.563   2.925 -1.0505  1.3802 -1.3838
  247SOL    HW2  741   2.125   0.610   3.021 -1.1517 -1.4752 -2.1347
  248SOL     OW  742   2.182   1.898   1.635  0.3837 -0.4333  0.5349
  248SOL    HW1  743   2.226   1.809   1.668 -1.1238 -0.9081  0.4755
  248SOL    HW2  744   2.081   1.906   1.660  0.4589  1.8171  0.9688
  249SOL     OW  745   1.993   1.922   1.943 -0.2542  0.2554  0.0241
  249SOL    HW1  746   1.967   1.845   1.879 -0.4092 -0.4976  1.4276
  249SOL    HW2  747   2.091   1.953   1.928 -2.4272 -1.0436 -2.3999
  250SOL     OW  748   0.996   0.634   1.877  0.0440 -0.1758  0.3730
  250SOL    HW1  749   1.070   0.598   1.945 -1.2030  1.5466  0.8035
  250SOL    HW2  750   1.015   0.593   1.782  1.2701  0.1319 -1.6655
  251SOL     OW  751   3.016   1.552   2.572  0.3161  0.1464  0.3656
  251SOL    HW1  752   3.004   1.655   2.548 -0.3055 -0.2555 -0.9776
  251SOL    HW2  753   2.922   1.508   2.590 -0.0125 -0.6816 -1.0846
  252SOL     OW  754   1.547   0.890   1.583 -0.0824  0.1598 -0.3152
  252SOL    HW1  755   1.602   0.960   1.531 -2.0441  0.9426 -2.3010
  252SOL    HW2  756   1.498   0.939   1.662  0.2627 -2.2486 -0.1076
  253SOL     OW  757   0.992   1.512   0.385 -0.3202 -0.4363  0.2282
  253SOL    HW1  758   1.052   1.446   0.326  3.6749 -2.1926 -1.8794
  253SOL    HW2  759   0.896   1.525   0.360  3.4062  2.1008 -2.1889
  254SOL     OW  760   1.992   2.152   1.599  0.2240  0.1965 -0.1054
  254SOL    HW1  761   1.933   2.109   1.524  0.2852 -0.0925  1.6827
  254SOL    HW2  762   1.961   2.124   1.696  0.3679 -1.4819  1.6152
  255SOL     OW  763   0.087   1.157   2.886 -0.6720 -0.2807 -0.0003
  255SOL    HW1  764   0.130   1.248   2.918 -1.5666  4.4292  1.7825
  255SOL    HW2  765   0.117   1.068   2.937 -0.0946 -0.8120 -2.0027
  256SOL     OW  766   2.761   1.330   1.863  1.2590  0.6909 -0.2018
  256SOL    HW1  767   2.703   1.410   1.827  0.5495  1.3884  0.8584
  256SOL    HW2  768   2.700   1.256   1.906 -0.9767 -0.5293 -0.1448
  257SOL     OW  769   0.844   0.239   1.895  0.5880  0.1596  0.6237
  257SOL    HW1  770   0.895   0.281   1.817 -0.2753 -0.3341  0.5822
  257SOL    HW2  771   0.877   0.143   1.914 -1.2975 -1.2481 -1.8218
  258SOL     OW  772   2.951   1.248   0.415 -0.0548  0.1763 -0.1158
  258SOL    HW1  773   2.905   1.338   0.392 -0.7080  0.2811  0.0015
  258SOL    HW2  774   2.983   1.246   0.515  1.8827  0.3813  3.2975
  259SOL     OW  775   0.495   2.900   2.996 -0.7339  0.4384  0.2058
  259SOL    HW1  776   0.433   2.846   3.055  1.7121  1.2772  1.7238
  259SOL    HW2  777   0.515   2.852   2.909 -0.8118  2.8575 -0.5979
  260SOL     OW  778   2.642   0.716   2.739 -0.1152 -0.4706  0.8232
  260SOL    HW1  779   2.568   0.788   2.723  1.2967  1.5624 -1.3313
  260SOL    HW2  780   2.598   0.626   2.764 -2.1472  0.4630  0.4939
  261SOL     OW  781   2.709   1.322   1.300  0.3200  0.4655  0.0799
  261SOL    HW1  782   2.650   1.240   1.265  0.7272 -0.4898 -0.2896
  261SOL    HW2  783   2.811   1.297   1.311  2.6985  1.8916 -0.5268
  262SOL     OW  784   1.476   2.930   2.034  0.0916  0.0826  0.0966
  262SOL    HW1  785   1.489   3.013   1.975 -2.2621 -0.6914  0.0854
  262SOL    HW2  786   1.409   2.858   1.996  1.7370 -4.0459  1.0185
  263SOL     OW  787   0.871   0.771   2.350  0.9863  0.9177 -0.1633
  263SOL    HW1  788   0.811   0.692   2.328  0.0711 -0.1779  1.2654
  263SOL    HW2  789   0.869   0.838   2.272 -2.2845  0.4233 -0.3485
  264SOL     OW  790   2.270   0.762   0.520  0.3981 -0.3885  0.3134
  264SOL    HW1  791   2.176   0.789   0.478 -1.0178  1.1715 -3.8179
  264SOL    HW2  792   2.343   0.840   0.511 -1.8317  1.0447 -0.6969
  265SOL     OW  793   0.854   2.332   2.706 -0.2113 -0.1375  0.2320
  265SOL    HW1  794   0.899   2.405   2.766  1.6234  0.9617 -0.6586
  265SOL    HW2  795   0.829   2.243   2.760  1.7442  1.3777 -0.4630
  266SOL     OW  796   1.328   1.731   0.028  0.5248 -0.0445  0.1447
  266SOL    HW1  797   1.317   1.815   0.080  2.9037 -0.8003  0.2358
  266SOL    HW2  798   1.426   1.705   0.035 -0.8449 -0.7823  1.9531
  267SOL     OW  799   1.076   0.034   2.341 -0.5750  0.2407  0.3088
  267SOL    HW1  800   1.095  -0.049   2.278  0.3666 -0.9353  0.8262
  267SOL    HW2  801   1.009   0.097   2.293 -0.4539 -1.0133 -0.7693
  268SOL     OW  802   0.603   1.124   1.050  0.4678 -0.2546 -0.9926
  268SOL    HW1  803   0.618   1.182   1.136  0.6028  3.5487  0.3901
  268SOL    HW2  804   0.629   1.179   0.965  1.3375 -0.1816 -0.3890
  269SOL     OW  805   2.464   2.564   1.574 -0.1605 -0.0151 -0.0985
  269SOL    HW1  806   2.539   2.491   1.577  1.3972  0.6412  0.2587
  269SOL    HW2  807   2.406   2.569   1.664  0.1328  2.8525  2.1370
  270SOL     OW  808   0.254   2.805   2.030 -0.7298  1.0368  0.0931
  270SOL    HW1  809   0.225   2.805   1.931 -1.5451 -1.4213  0.0287
  270SOL    HW2  810   0.191   2.746   2.088 -0.7656  2.6551 -0.0855
  271SOL     OW  811   0.411   1.384   1.162  0.0534  0.2266  0.1182
  271SOL    HW1  812   0.369   1.390   1.069  3.1896 -0.2718  0.6295
  271SOL    HW2  813   0.347   1.410   1.238  0.3287  2.6467  2.9021
  272SOL     OW  814   1.970   2.856   1.915 -0.3223  0.1773  0.0235
  272SOL    HW1  815   1.893   2.837   1.848 -3.0694  1.2396 -2.5366
  272SOL    HW2  816   2.055   2.897   1.869 -0.7475 -0.4691 -0.9099
  273SOL     OW  817   1.410   1.452   2.865  0.3653 -0.0152 -0.0595
  273SOL    HW1  818   1.500   1.456   2.913  1.5581  0.3865 -1.0380
  273SOL    HW2  819   1.329   1.456   2.931 -0.8057  1.7772 -0.6460
  274SOL     OW  820   1.165   0.493   2.039  0.4293  0.1856 -0.4853
  274SOL    HW1  821   1.196   0.419   1.976 -2.8938  1.7069  2.8073
  274SOL    HW2  822   1.210   0.485   2.137  1.3277  1.1788  1.4862
  275SOL     OW  823   0.637   2.076   1.924 -0.1007 -0.0947  0.2896
  275SOL    HW1  824   0.626   2.172   1.950  0.0244 -1.3278 -0.0431
  275SOL    HW2  825   0.559   2.017   1.958 -1.7127 -2.5080 -2.0245
  276SOL     OW  826   2.160   0.995   2.799  0.2617 -0.0948  0.4177
  276SOL    HW1  827   2.101   0.996   2.715  0.0394  2.0041 -0.1735
  276SOL    HW2  828   2.102   0.974   2.888 -1.5526 -0.5967  1.6067
  277SOL     OW  829   2.997   0.822   0.203  0.2654  0.2699 -0.0351
  277SOL    HW1  830   3.080   0.862   0.160  1.4115 -3.0909  2.5210
  277SOL    HW2  831   3.009   0.739   0.264  1.9689 -1.3031 -3.0902
  278SOL     OW  832   0.199   0.274   2.925  0.0167  0.2050  0.0301
  278SOL    HW1  833   0.229   0.222   3.009 -0.8518 -2.7224  0.4851
  278SOL    HW2  834   0.215   0.371   2.945 -0.2494 -3.4578  3.4016
  279SOL     OW  835   0.146   3.086   0.879  0.2555 -0.3270  0.2087
  279SOL    HW1  836   0.173   3.116   0.974  1.0853 -0.4036 -1.1602
  279SOL    HW2  837   0.215   3.126   0.809 -0.1434  0.7072 -1.6643
  280SOL     OW  838   1.647   2.936   2.513  0.3357  0.1960  0.3285
  280SOL    HW1  839   1.706   3.013   2.539 -1.9426  0.9449 -0.7952
  280SOL    HW2  840   1.553   2.962   2.495 -0.7572  0.8121  0.4638
  281SOL     OW  841   0.637   0.935   2.346  0.1357 -0.5770  0.5471
  281SOL    HW1  842   0.584   0.867   2.283 -0.9784 -2.3671  0.5445
  281SOL    HW2  843   0.698   0.884   2.411  1.4500  1.3022  2.5532
  282SOL     OW  844   1.637   2.477   0.556  0.3116 -0.3772  0.1555
  282SOL    HW1  845   1.628   2.409   0.480  0.4584  1.0057  0.2174
  282SOL    HW2  846   1.615   2.577   0.531 -2.0512  1.2544  0.0521
  283SOL     OW  847   1.142   0.943   0.698  0.6097  0.7533 -0.4074
  283SOL    HW1  848   1.165   0.880   0.777 -0.1179 -0.3196  1.5425
  283SOL    HW2  849   1.063   1.011   0.720  0.7637  1.1576 -0.8946
  284SOL     OW  850   2.267   2.816   2.409  0.3050 -0.4552  0.0481
  284SOL    HW1  851   2.339   2.865   2.456  1.4598 -0.3763 -0.6838
  284SOL    HW2  852   2.279   2.810   2.305 -0.3282  0.7530 -1.7353
  285SOL     OW  853   1.404   3.057   2.543 -0.2354 -0.0878  0.2266
  285SOL    HW1  854   1.414   3.072   2.439 -0.8314  0.5579 -2.3875
  285SOL    HW2  855   1.327   3.114   2.583  1.8418 -0.5303 -0.3791
  286SOL     OW  856   0.422   0.493   0.641  0.1339 -0.3144  0.2289
  286SOL    HW1  857   0.412   0.445   0.731  1.6983 -0.0504 -1.7049
  286SOL    HW2  858   0.427   0.420   0.568 -1.7400 -0.7514  2.8872
  287SOL     OW  859   0.074   1.340   2.513 -0.3686  0.1413 -0.1360
  287SOL    HW1  860   0.045   1.263   2.572 -0.1032  1.3684  1.3408
  287SOL    HW2  861   0.019   1.428   2.533  1.1123 -0.6658 -0.4024
  288SOL     OW  862   1.582   2.625   1.467  0.0482  0.6082  0.4735
  288SOL    HW1  863   1.674   2.639   1.518 -3.6003 -0.5907  1.3808
  288SOL    HW2  864   1.591   2.585   1.377 -0.5365  1.7609  2.3059
  289SOL     OW  865   0.674   2.719   0.820  0.4968 -0.1570 -0.6044
  289SOL    HW1  866   0.686   2.798   0.756  1.0586 -0.9112  0.7046
  289SOL    HW2  867   0.716   2.745   0.913  0.9670 -2.3894  1.1929
  290SOL     OW  868   2.967   1.231   1.664 -0.2337  0.1779 -0.8838
  290SOL    HW1  869   2.880   1.250   1.722 -1.7655 -1.4394  2.1892
  290SOL    HW2  870   3.011   1.142   1.701  1.6220  2.1926  0.6650
  291SOL     OW  871   1.971   0.046   0.063  0.4677 -0.1038  0.1593
  291SOL    HW1  872   1.988   0.040   0.166 -1.9572 -1.0305  0.0701
  291SOL    HW2  873   2.019   0.127   0.018 -1.0108 -0.6261  0.4733
  292SOL     OW  874   2.969   1.175   3.053  0.0208  0.5307 -0.4730
  292SOL    HW1  875   2.891   1.223   3.004 -0.5493  2.8801  0.7394
  292SOL    HW2  876   3.048   1.159   2.986  0.2992  1.3580  0.3122
  293SOL     OW  877   0.574   2.057   0.158  0.0527  0.1857 -0.1665
  293SOL    HW1  878   0.540   2.113   0.239 -1.6247  0.6188 -3.4530
  293SOL    HW2  879   0.675   2.040   0.165 -1.7388 -0.2985 -0.1893
  294SOL     OW  880   1.684   2.138   1.840  0.1642  0.6113 -0.3726
  294SOL    HW1  881   1.691   2.204   1.919  0.5122  0.2335  1.2139
  294SOL    HW2  882   1.701   2.189   1.752 -2.3277 -1.6916  0.4851
  295SOL     OW  883   0.944   1.159   0.412 -0.3300 -1.3605  0.0138
  295SOL    HW1  884   1.044   1.171   0.448  0.7848  0.3660  1.8238
  295SOL    HW2  885   0.876   1.153   0.491 -2.4347  1.7528  3.3098
  296SOL     OW  886   1.278   2.076   2.536 -0.1201 -0.1164  0.1923
  296SOL    HW1  887   1.249   2.129   2.455  1.9676 -2.1558 -1.3914
  296SOL    HW2  888   1.322   1.982   2.513  2.6157 -1.4461 -3.8301
  297SOL     OW  889   1.524   0.703   1.347  0.1149 -0.1401  0.4459
  297SOL    HW1  890   1.600   0.635   1.331 -0.4158  0.0945 -1.2914
  297SOL    HW2  891   1.536   0.759   1.432 -0.8113 -1.7319  0.3654
  298SOL     OW  892   0.530   1.262   2.835  0.1833 -0.6269 -0.2731
  298SOL    HW1  893   0.554   1.175   2.884  0.3777 -0.6829 -0.2724
  298SOL    HW2  894   0.591   1.274   2.752 -0.4500  0.8629  1.0566
  299SOL     OW  895   0.385   0.341   1.447 -0.2733 -0.3188 -0.4092
  299SOL    HW1  896   0.381   0.417   1.373  1.5169  0.8308 -1.1477
  299SOL    HW2  897   0.484   0.312   1.457  0.5756 -0.4544 -0.4014
  300SOL     OW  898   1.219   1.790   2.857 -0.0913  0.1688 -0.0679
  300SOL    HW1  899   1.244   1.735   2.774  0.5631 -0.2804  1.7541
  300SOL    HW2  900   1.218   1.735   2.948 -1.1722 -0.6241  0.5440
  301SOL     OW  901   0.460   0.278   0.452 -0.1546  0.2918  0.6470
  301SOL    HW1  902   0.355   0.278   0.426 -0.5651  1.4104 -1.0731
  301SOL    HW2  903   0.519   0.227   0.382  2.8521 -0.8611  0.3919
  302SOL     OW  904   1.217   2.295   2.333  0.5898 -0.0839 -0.7202
  302SOL    HW1  905   1.151   2.359   2.383 -1.4293  3.9336 -0.6510
  302SOL    HW2  906   1.176   2.221   2.278  0.6903  1.5979  1.1811
  303SOL     OW  907   0.928   2.383   0.798  0.3370 -0.3439  0.0380
  303SOL    HW1  908   0.975   2.434   0.721 -2.5200  1.8313 -1.7926
  303SOL    HW2  909   0.929   2.430   0.891 -0.5006  0.0354  0.5662
  304SOL     OW  910   0.099   2.052   0.683  0.6345  0.0937  0.3333
  304SOL    HW1  911   0.145   1.998   0.610 -2.4834  1.2513 -0.2562
  304SOL    HW2  912   0.027   2.124   0.645  2.8879  1.8348 -1.5920
  305SOL     OW  913   1.627   0.880   0.694 -0.0563 -0.0309 -0.1401
  305SOL    HW1  914   1.551   0.887   0.620 -0.3538 -1.2405  0.3664
  305SOL    HW2  915   1.686   0.795   0.701  1.4885  0.8928  0.6762
  306SOL     OW  916   0.440   1.854   1.919  0.8474 -0.1188 -0.3709
  306SOL    HW1  917   0.517   1.795   1.885 -2.5417  0.4391 -0.8141
  306SOL    HW2  918   0.418   1.822   2.017 -2.5875 -0.8606 -0.2544
  307SOL     OW  919   0.030   0.853   2.537  0.5394 -0.6033  0.1277
  307SOL    HW1  920   0.024   0.953   2.556 -1.5372 -1.5172 -0.7387
  307SOL    HW2  921  -0.052   0.806   2.577 -2.5207  3.7174  0.5432
  308SOL     OW  922   1.572   2.683   2.818  0.4122 -0.9356  0.3173
  308SOL    HW1  923   1.600   2.661   2.723  0.8760 -0.1947  0.3929
  308SOL    HW2  924   1.526   2.598   2.866 -2.7550  0.7399 -1.2575
  309SOL     OW  925   1.237   0.020   1.776 -0.3406  0.0403 -0.5951
  309SOL    HW1  926   1.324   0.026   1.829  0.6405 -0.2210  1.5112
  309SOL    HW2  927   1.246   0.038   1.670  0.6770 -0.6736 -3.8343
  310SOL     OW  928   1.314   2.680   0.729  0.4468  0.1644 -0.3306
  310SOL    HW1  929   1.247   2.753   0.758 -2.8747 -3.7746 -1.5787
  310SOL    HW2  930   1.389   2.711   0.665 -0.2157 -2.0354  1.7263
  311SOL     OW  931   1.208   0.942   1.441  0.1480  0.1994  0.0505
  311SOL    HW1  932   1.288   0.906   1.391 -0.7618 -0.9807  3.3214
  311SOL    HW2  933   1.225   1.048   1.457 -0.6479 -0.8297 -0.0868
  312SOL     OW  934   1.571   0.686   1.007  0.6195  0.1136 -0.5687
  312SOL    HW1  935   1.557   0.789   1.008 -0.4634  0.6144  0.1424
  312SOL    HW2  936   1.494   0.635   0.955 -1.8858 -0.6655 -0.9811
  313SOL     OW  937   1.570   1.448   0.570 -0.3020 -0.1014  0.7754
  313SOL    HW1  938   1.476   1.482   0.535  1.0755  1.0971 -1.9759
  313SOL    HW2  939   1.590   1.349   0.540  2.7638 -1.6203 -0.1297
  314SOL     OW  940   2.947   0.051   2.995  0.7027 -0.1637 -0.4044
  314SOL    HW1  941   2.926   0.096   3.085 -0.8009  1.4598 -3.1252
  314SOL    HW2  942   2.881  -0.027   2.977  2.3980 -0.1877 -0.6735
  315SOL     OW  943   1.252   0.229   2.783  0.0157  0.3494  0.3889
  315SOL    HW1  944   1.218   0.167   2.706  0.7449 -0.6141 -1.2341
  315SOL    HW2  945   1.238   0.192   2.880  0.4364 -0.7959 -0.5087
  316SOL     OW  946   1.669   2.073   0.904 -0.1831  0.3751 -0.7709
  316SOL    HW1  947   1.629   2.088   1.002 -0.2862  2.2056  3.2952
  316SOL    HW2  948   1.677   2.162   0.852  1.4214  0.5642  3.1256
  317SOL     OW  949   1.153   0.711   2.837  0.5209  0.0726  0.2062
  317SOL    HW1  950   1.088   0.751   2.908  1.6746 -1.1609 -0.0491
  317SOL    HW2  951   1.124   0.616   2.802 -1.5425 -0.2351  0.2798
  318SOL     OW  952   1.408   3.067   2.282  0.1131 -0.0649 -0.0136
  318SOL    HW1  953   1.363   3.145   2.244  1.9472 -1.6803  1.0080
  318SOL    HW2  954   1.434   3.003   2.207  2.0907 -2.3393  1.3865
  319SOL     OW  955   0.625   2.371   2.944 -0.0782  0.0336  0.1863
  319SOL    HW1  956   0.559   2.343   3.018 -0.9193 -0.5928  1.2028
  319SOL    HW2  957   0.673   2.296   2.895  2.8627  0.0692 -0.5968
  320SOL     OW  958   1.607   2.271   0.369  0.0524 -0.1490 -0.5760
  320SOL    HW1  959   1.699   2.222   0.380 -1.1162 -0.3216  1.4010
  320SOL    HW2  960   1.538   2.238   0.436  1.7421  1.3140 -3.2607
  321SOL     OW  961   1.589   2.736   0.525 -0.0817 -0.9851 -0.0445
  321SOL    HW1  962   1.518   2.815   0.505 -0.7365 -1.3015 -0.4940
  321SOL    HW2  963   1.669   2.771   0.579 -1.1408  0.5166  0.0802
  322SOL     OW  964   2.657   1.099   2.240 -0.7963  0.4512  0.1698
  322SOL    HW1  965   2.745   1.132   2.291  1.3390  1.1389 -1.4220
  322SOL    HW2  966   2.611   1.019   2.290 -2.7126 -0.7193 -0.7071
  323SOL     OW  967   1.027   2.698   0.855 -0.2192 -0.1993 -0.0060
  323SOL    HW1  968   1.033   2.658   0.759 -2.9544  0.9181 -0.3070
  323SOL    HW2  969   0.999   2.800   0.853 -0.5285  2.8619 -0.7921
  324SOL     OW  970   0.111   2.491   2.448  0.1003 -0.2536  0.1108
  324SOL    HW1  971   0.085   2.403   2.501  1.4386 -2.3636  0.4809
  324SOL    HW2  972   0.051   2.575   2.470  0.0264  0.1742 -2.5606
  325SOL     OW  973   1.187   3.067   0.468 -0.3442  0.1419 -0.0235
  325SOL    HW1  974   1.226   3.107   0.384 -1.5353 -1.2114  1.7388
  325SOL    HW2  975   1.216   3.127   0.544 -1.4992  0.7886 -0.3657
  326SOL     OW  976   2.376   0.753   0.016  0.6523 -0.2535 -0.2599
  326SOL    HW1  977   2.273   0.748   0.008  2.9249  1.9933 -0.5238
  326SOL    HW2  978   2.416   0.658   0.021 -1.0063 -0.0502 -0.0800
  327SOL     OW  979   2.720   0.412   0.535  0.6909  0.5306  0.0744
  327SOL    HW1  980   2.711   0.382   0.436  0.9335  1.1073 -0.4094
  327SOL    HW2  981   2.639   0.380   0.591  2.9004  1.1229  1.2583
  328SOL     OW  982   2.477   0.611   0.408 -0.1218 -0.5515  0.4517
  328SOL    HW1  983   2.387   0.649   0.441  2.3677 -0.3286  0.9968
  328SOL    HW2  984   2.539   0.600   0.488 -3.1060 -1.0266  0.8393
  329SOL     OW  985   2.992   2.969   2.159  0.0755  0.4380 -0.0460
  329SOL    HW1  986   3.070   2.914   2.202 -0.7321 -0.4066  0.9303
  329SOL    HW2  987   3.015   3.071   2.142  2.0816 -2.5071  2.2611
  330SOL     OW  988   0.557   0.181   1.863 -0.6801 -0.1731  0.3521
  330SOL    HW1  989   0.579   0.281   1.841  2.8194 -0.6104 -2.3580
  330SOL    HW2  990   0.615   0.141   1.941  0.3826 -1.9696  0.8414
  331SOL     OW  991   2.936   1.911   1.119 -0.0565  0.3215  0.3347
  331SOL    HW1  992   2.977   1.983   1.059  2.3127  0.5320  0.3070
  331SOL    HW2  993   2.877   1.957   1.189  2.7512  1.7186 -1.1691
  332SOL     OW  994   0.428   1.054   0.063 -0.7323  0.5210  0.3556
  332SOL    HW1  995   0.356   1.015  -0.001 -1.0165 -0.2686  1.1413
  332SOL    HW2  996   0.385   1.121   0.124 -0.0656  0.6791  0.1573
  333SOL     OW  997   2.849   1.053   0.263 -0.4295 -0.4889  0.0178
  333SOL    HW1  998   2.891   1.114   0.341 -0.6866 -0.6381  2.1417
  333SOL    HW2  999   2.910   0.972   0.233  1.0094 -0.2350 -2.4263
  334SOL     OW 1000   1.638   1.151   1.897  0.8497  0.3417 -0.0921
  334SOL    HW1 1001   1.735   1.145   1.866 -2.6317 -3.8390 -0.4467
  334SOL    HW2 1002   1.623   1.234   1.963  0.1292 -0.4497 -0.2333
  335SOL     OW 1003   1.973   2.804   2.616 -0.0057 -0.1606 -0.0995
  335SOL    HW1 1004   1.894   2.828   2.683 -2.8105 -0.8439 -0.4088
  335SOL    HW2 1005   2.068   2.819   2.660  1.3678 -0.4450  0.5771
  336SOL     OW 1006   0.232   0.095   2.738  0.5219  0.2983  0.6025
  336SOL    HW1 1007   0.333   0.084   2.726 -1.1972  0.3792 -3.4028
  336SOL    HW2 1008   0.214   0.171   2.808 -1.5545  0.7051  0.7683
  337SOL     OW 1009   0.938   2.818   2.838 -0.3139 -0.0476 -0.0362
  337SOL    HW1 1010   0.918   2.829   2.935  1.1543 -0.5301 -1.3022
  337SOL    HW2 1011   1.029   2.770   2.826 -2.4233 -0.0228  0.4199
  338SOL     OW 1012   0.038   1.018   0.608 -0.6057  0.4608  0.0880
  338SOL    HW1 1013  -0.057   0.983   0.645 -1.7780  0.2269 -0.7757
  338SOL    HW2 1014   0.043   1.122   0.615  3.6434  0.2388  1.6986
  339SOL     OW 1015   1.680   1.363   2.080 -0.4022  0.2680  0.1291
  339SOL    HW1 1016   1.580   1.389   2.099 -1.8191 -0.6169 -0.7279
  339SOL    HW2 1017   1.731   1.448   2.042  1.8404  1.3212 -2.1143
  340SOL     OW 1018   2.331   0.747   1.199 -0.1988  0.2888 -0.5224
  340SOL    HW1 1019   2.234   0.784   1.201  0.0691  1.9403  2.4794
  340SOL    HW2 1020   2.346   0.663   1.139 -0.3009  0.6569 -0.4351
  341SOL     OW 1021   1.885   2.153   0.444 -0.1189 -0.1611 -0.4785
  341SOL    HW1 1022   1.912   2.182   0.348  3.0007 -0.4315 -0.4012
  341SOL    HW2 1023   1.945   2.190   0.511 -0.1740 -1.7933 -1.1474
  342SOL     OW 1024   2.202   2.152   2.769  0.2527 -0.4922 -0.7384
  342SOL    HW1 1025   2.287   2.104   2.801 -1.7095  1.0427 -2.5095
  342SOL    HW2 1026   2.111   2.115   2.807 -2.5602 -0.3483  0.6458
  343SOL     OW 1027   0.340   0.891   2.845 -0.1058 -0.2987 -0.0772
  343SOL    HW1 1028   0.313   0.951   2.757  3.3525  2.3742 -1.5540
  343SOL    HW2 1029   0.439   0.863   2.838 -1.6133  0.2601  0.6611
  344SOL     OW 1030   1.917   1.506   0.361  1.2352  0.1683  0.1150
  344SOL    HW1 1031   1.918   1.434   0.286  2.3212  1.4084 -1.4300
  344SOL    HW2 1032   1.857   1.585   0.332 -1.1476 -3.1263  2.0937
  345SOL     OW 1033   1.403   2.191   2.837 -0.0759 -0.0328 -0.3648
  345SOL    HW1 1034   1.329   2.132   2.796  0.2714 -0.0241  0.1841
  345SOL    HW2 1035   1.498   2.153   2.817 -0.2350  0.1461 -1.3243
  346SOL     OW 1036   2.412   0.897   1.418 -0.3174  0.0450  0.4433
  346SOL    HW1 1037   2.375   0.986   1.457  1.8904 -0.3365  1.9221
  346SOL    HW2 1038   2.382   0.882   1.319 -1.7757  2.6102 -0.6148
  347SOL     OW 1039   0.709   2.817   1.521 -0.5937  0.1397  0.0366
  347SOL    HW1 1040   0.694   2.745   1.595  1.7327 -0.1523  0.3658
  347SOL    HW2 1041   0.638   2.892   1.512  1.8676  0.3392  1.5904
  348SOL     OW 1042   0.083   0.704   2.848  0.1183  0.4404  0.1968
  348SOL    HW1 1043  -0.016   0.720   2.817 -1.5193  1.1058 -1.4035
  348SOL    HW2 1044   0.151   0.752   2.786  2.8832 -1.9504  0.7048
  349SOL     OW 1045   1.910   0.415   2.819 -0.3623 -0.2902  0.1574
  349SOL    HW1 1046   1.917   0.498   2.755  2.3480  1.6816  1.5791
  349SOL    HW2 1047   1.852   0.426   2.905 -1.2525 -2.2871 -0.0716
  350SOL     OW 1048   1.646   0.381   0.381  0.2280  0.3645  0.0090
  350SOL    HW1 1049   1.704   0.387   0.470 -1.7058 -0.9245 -0.2881
  350SOL    HW2 1050   1.631   0.478   0.343 -0.9802  1.3627  0.6988
  351SOL     OW 1051   0.891   0.925   2.126 -0.2466 -0.4826 -0.6709
  351SOL    HW1 1052   0.917   1.019   2.097 -1.5232 -2.2438 -1.6026
  351SOL    HW2 1053   0.847   0.879   2.044  0.2620 -1.5888 -1.9498
  352SOL     OW 1054   1.982   1.381   0.597  0.2906  0.2533  0.5136
  352SOL    HW1 1055   1.957   1.425   0.511 -1.0992 -0.6461  0.7480
  352SOL    HW2 1056   2.060   1.423   0.649 -0.2148 -3.3013 -1.8482
  353SOL     OW 1057   2.138   2.835   1.158  0.2460  0.1076 -0.6235
  353SOL    HW1 1058   2.225   2.784   1.186  0.4896  0.8580 -1.0347
  353SOL    HW2 1059   2.083   2.783   1.084 -1.1671 -1.5593 -0.9037
  354SOL     OW 1060   0.274   1.382   2.899 -0.1180  0.4569 -0.3520
  354SOL    HW1 1061   0.241   1.431   2.814  0.6309  1.0726 -1.5967
  354SOL    HW2 1062   0.363   1.324   2.879  0.6733 -0.4458 -0.9017
  355SOL     OW 1063   0.462   1.493   0.579 -0.1596 -0.0755 -0.0864
  355SOL    HW1 1064   0.508   1.583   0.604 -2.9334 -0.6262 -2.8014
  355SOL    HW2 1065   0.524   1.410   0.570 -0.0142  1.4295  1.9627
  356SOL     OW 1066   0.889   0.451   2.086  0.3853 -0.1792  0.1223
  356SOL    HW1 1067   0.981   0.492   2.076 -1.4798  1.1227 -1.0641
  356SOL    HW2 1068   0.863   0.394   2.003 -2.5516 -0.3758 -1.1148
  357SOL     OW 1069   1.047   1.288   0.200 -0.2974  0.4631  0.0488
  357SOL    HW1 1070   1.008   1.274   0.110 -2.4062  1.7960  2.7577
  357SOL    HW2 1071   1.001   1.228   0.269 -1.4359 -1.3203  0.2717
  358SOL     OW 1072   1.646   1.635   0.353 -0.0127 -0.3126  0.8475
  358SOL    HW1 1073   1.586   1.559   0.385  0.0215  1.0442 -2.1329
  358SOL    HW2 1074   1.593   1.723   0.360  1.0687 -1.5604 -2.5255
  359SOL     OW 1075   1.562   2.720   0.179 -0.0246 -0.1918  0.3546
  359SOL    HW1 1076   1.589   2.638   0.125  0.4332  1.3498  0.7713
  359SOL    HW2 1077   1.457   2.734   0.199 -3.0549  1.1147  1.0136
  360SOL     OW 1078   0.892   0.599   0.492 -0.4117 -0.2124  0.3567
  360SOL    HW1 1079   0.806   0.615   0.549  0.2433 -0.0638 -1.4729
  360SOL    HW2 1080   0.900   0.508   0.449  0.3238 -2.3457  0.3014
  361SOL     OW 1081   1.250   1.398   0.654 -0.0587  0.4591  0.5842
  361SOL    HW1 1082   1.301   1.408   0.741  0.2727 -1.3764 -1.7317
  361SOL    HW2 1083   1.147   1.403   0.670 -0.7983  1.1647  0.3865
  362SOL     OW 1084   1.390   1.763   0.796 -0.0471 -0.0585  0.3409
  362SOL    HW1 1085   1.426   1.709   0.880 -0.8542  0.4221  1.9765
  362SOL    HW2 1086   1.463   1.828   0.756  3.3747 -0.3213  1.1970
  363SOL     OW 1087   1.140   1.372   1.998 -0.1055  0.1846 -0.3136
  363SOL    HW1 1088   1.128   1.449   2.068 -0.6830 -0.4037 -1.5958
  363SOL    HW2 1089   1.167   1.409   1.904  0.3855  0.9372 -0.2252
  364SOL     OW 1090   0.596   2.347   1.963 -0.0848  0.6905 -0.6480
  364SOL    HW1 1091   0.499   2.373   1.990 -1.4753  0.4306 -0.9596
  364SOL    HW2 1092   0.622   2.365   1.864  1.2894 -1.1975 -0.1691
  365SOL     OW 1093   1.123   1.888   1.406 -0.7810  0.2233 -0.7213
  365SOL    HW1 1094   1.032   1.894   1.458  1.1149 -1.0126  1.0094
  365SOL    HW2 1095   1.121   1.817   1.333 -0.6465 -0.8899 -0.7751
  366SOL     OW 1096   2.801   2.061   0.473  0.2350  0.1150  0.4803
  366SOL    HW1 1097   2.722   1.997   0.473  0.4333 -0.5372 -0.7808
  366SOL    HW2 1098   2.894   2.013   0.453 -0.3758  1.1249 -0.2639
  367SOL     OW 1099   0.783   1.224   0.077  0.0876  0.8715  0.8766
  367SOL    HW1 1100   0.785   1.121   0.093 -0.6738 -0.3177 -2.7776
  367SOL    HW2 1101   0.772   1.248  -0.023 -0.5610 -3.2177  0.1245
  368SOL     OW 1102   1.563   0.516   0.669  0.2902  0.0443 -0.1397
  368SOL    HW1 1103   1.519   0.533   0.575 -0.6103  2.9517  0.5544
  368SOL    HW2 1104   1.663   0.497   0.661 -0.8830 -2.3298 -1.0360
  369SOL     OW 1105   0.292   1.673   0.093 -0.1616 -0.3710 -0.1468
  369SOL    HW1 1106   0.305   1.768   0.144  0.5888  4.3998  0.6550
  369SOL    HW2 1107   0.223   1.614   0.148 -1.6077  3.5391  0.4838
  370SOL     OW 1108   0.444   2.129   0.970 -0.2134  0.0786  0.0351
  370SOL    HW1 1109   0.464   2.228   0.949  0.4727 -1.3945 -1.5464
  370SOL    HW2 1110   0.351   2.098   0.933 -1.4089  1.5002  0.4745
  371SOL     OW 1111   2.917   2.222   2.773 -0.0102  0.0087 -0.5979
  371SOL    HW1 1112   2.911   2.182   2.869 -1.4335 -1.5597  2.4317
  371SOL    HW2 1113   3.013   2.249   2.741 -1.1884 -1.3902  0.7438
  372SOL     OW 1114   0.894   1.872   0.988  0.1510 -0.1162 -0.2788
  372SOL    HW1 1115   0.829   1.949   0.975  0.5892 -1.5169 -0.0203
  372SOL    HW2 1116   0.986   1.891   0.941 -0.9295 -1.5574 -2.4405
  373SOL     OW 1117   1.957   1.997   0.938  0.4953  0.4162 -0.1787
  373SOL    HW1 1118   2.008   2.028   1.025 -0.8764 -0.4908  2.1697
  373SOL    HW2 1119   1.867   2.047   0.926  0.0761  1.8332  0.3964
  374SOL     OW 1120   1.831   0.412   0.585  0.6208  0.3594  0.1237
  374SOL    HW1 1121   1.825   0.353   0.671  2.4578 -1.3838  0.7463
  374SOL    HW2 1122   1.918   0.391   0.526  0.4604 -1.6768  2.5190
  375SOL     OW 1123   2.462   2.280   1.076 -0.0437 -0.2845  0.3226
  375SOL    HW1 1124   2.494   2.216   0.997 -1.2029  0.0562 -2.7406
  375SOL    HW2 1125   2.457   2.235   1.170 -2.5621 -0.9458  1.2510
  376SOL     OW 1126   3.078   0.636   1.425 -0.3903  0.0464  0.2555
  376SOL    HW1 1127   3.136   0.666   1.509  0.0622  0.0397  2.1315
  376SOL    HW2 1128   2.977   0.649   1.441  2.1038  1.1908  0.0771
  377SOL     OW 1129   2.245   2.857   0.352 -0.0982  0.4582  0.0176
  377SOL    HW1 1130   2.228   2.940   0.297  1.2873  2.9485  1.6940
  377SOL    HW2 1131   2.347   2.844   0.379  0.7095  2.7930  1.0976
  378SOL     OW 1132   1.901   1.855   2.668  0.0628  0.5260 -0.0064
  378SOL    HW1 1133   1.940   1.758   2.691 -1.1864 -0.3452  0.2436
  378SOL    HW2 1134   1.880   1.875   2.568 -1.0584 -2.3569 -2.3988
  379SOL     OW 1135   0.876   0.097   2.711 -0.2113 -0.5890 -0.8085
  379SOL    HW1 1136   0.843   0.002   2.696  0.0968 -0.1420  2.3808
  379SOL    HW2 1137   0.804   0.168   2.690  0.1281  0.0521 -0.2639
  380SOL     OW 1138   1.538   1.180   0.550 -0.2051  0.0393  0.2213
  380SOL    HW1 1139   1.475   1.096   0.546 -2.5322  0.2198  2.3429
  380SOL    HW2 1140   1.544   1.228   0.639  1.7087 -0.3269  0.6816
  381SOL     OW 1141   1.271   1.215   1.489 -0.3076 -0.2489  0.0361
  381SOL    HW1 1142   1.346   1.226   1.420  0.9926 -0.5553  1.0201
  381SOL    HW2 1143   1.312   1.224   1.588  0.3887  0.4568  0.7160
  382SOL     OW 1144   1.774   0.802   0.281 -0.6475  0.1149  0.5460
  382SOL    HW1 1145   1.835   0.799   0.196 -0.4771  1.1596 -1.2353
  382SOL    HW2 1146   1.828   0.778   0.361 -0.6905 -1.0499  0.4984
  383SOL     OW 1147   2.651   1.001   1.544 -0.6606  0.3068 -0.8670
  383SOL    HW1 1148   2.559   0.961   1.502 -1.9185 -1.2645 -0.9761
  383SOL    HW2 1149   2.727   1.010   1.477 -2.2143 -2.8559 -1.0265
  384SOL     OW 1150   1.019   2.281   0.162  0.0879 -0.3986  0.0085
  384SOL    HW1 1151   0.938   2.326   0.203 -1.5478  0.1636 -3.3248
  384SOL    HW2 1152   1.045   2.188   0.203 -2.5839  1.5468 -0.2139
  385SOL     OW 1153   3.014   2.059   1.694  0.1974 -0.0376 -0.2354
  385SOL    HW1 1154   3.088   2.133   1.704 -2.9496 -1.0540 -2.5358
  385SOL    HW2 1155   3.068   1.965   1.711  4.0542  1.3100  1.3648
  386SOL     OW 1156   0.458   1.076   0.428 -0.1909 -0.0620  0.0452
  386SOL    HW1 1157   0.442   0.979   0.447  0.3192  2.3846 -0.6931
  386SOL    HW2 1158   0.405   1.116   0.348 -0.1897  1.6093 -0.1449
  387SOL     OW 1159   0.965   0.369   1.673 -0.4400 -0.4220  0.0302
  387SOL    HW1 1160   1.042   0.445   1.664  2.9348  0.5321  0.8837
  387SOL    HW2 1161   0.982   0.291   1.611  2.1176  0.9825 -0.6322
  388SOL     OW 1162   1.250   2.582   1.769 -0.4189 -0.3893 -0.4679
  388SOL    HW1 1163   1.250   2.595   1.664  0.0404  0.0820  0.6908
  388SOL    HW2 1164   1.290   2.493   1.807 -1.0967  1.7495  0.0395
  389SOL     OW 1165   0.255   0.026   1.148 -0.5551 -0.7616 -0.4615
  389SOL    HW1 1166   0.225   0.014   1.247 -0.9468  1.3960  1.4392
  389SOL    HW2 1167   0.319  -0.045   1.112 -1.5934  0.9645  0.9864
  390SOL     OW 1168   1.039   0.830   1.232 -0.8868 -0.1281  0.8864
  390SOL    HW1 1169   1.141   0.813   1.206  0.6879  0.1187  2.9039
  390SOL    HW2 1170   1.027   0.815   1.330  0.5516 -1.0373 -1.6886
  391SOL     OW 1171   2.141   1.182   1.014  0.1929  0.0687  0.1049
  391SOL    HW1 1172   2.076   1.105   1.023 -2.3523 -0.2188 -0.5995
  391SOL    HW2 1173   2.214   1.164   0.940  0.3028 -1.5324 -0.8559
  392SOL     OW 1174   0.911   2.677   0.009 -0.2818 -0.3418 -0.5228
  392SOL    HW1 1175   0.817   2.701   0.053  0.9067 -0.9452  1.2537
  392SOL    HW2 1176   0.988   2.746   0.028 -0.7635 -2.1264  0.7074
  393SOL     OW 1177   0.345   0.564   1.989 -0.3213  0.2156  0.3860
  393SOL    HW1 1178   0.267   0.495   1.979 -0.5600 -1.4399 -2.7816
  393SOL    HW2 1179   0.431   0.545   1.928  1.4342  0.7694  1.2762
  394SOL     OW 1180   2.834   1.756   2.753 -0.4370  0.2445  0.1200
  394SOL    HW1 1181   2.906   1.763   2.682  3.2469 -0.6640  0.6531
  394SOL    HW2 1182   2.791   1.846   2.782 -0.5068  1.7201  0.2849
  395SOL     OW 1183   1.599   1.943   0.669  0.2955  0.1510 -0.4035
  395SOL    HW1 1184   1.666   1.862   0.646  1.8050 -1.3606 -0.5547
  395SOL    HW2 1185   1.620   1.996   0.759  3.0076  0.5437  1.0411
  396SOL     OW 1186   2.775   2.028   1.299 -0.0754 -0.1420 -0.1408
  396SOL    HW1 1187   2.805   2.027   1.396 -0.6566 -1.0138 -0.3693
  396SOL    HW2 1188   2.676   1.998   1.288  0.2223  3.8414  0.1937
  397SOL     OW 1189   0.991   2.129   0.666  0.1946 -0.0785 -0.3997
  397SOL    HW1 1190   0.919   2.076   0.614 -2.2083  0.3328 -0.1097
  397SOL    HW2 1191   0.964   2.229   0.688  0.9926 -1.8706 -2.5825
  398SOL     OW 1192   2.172   0.018   1.085 -0.4645 -0.1891  0.2609
  398SOL    HW1 1193   2.138  -0.079   1.085 -1.9147  3.3628 -1.4157
  398SOL    HW2 1194   2.096   0.090   1.083 -2.0702  2.8785  1.8793
  399SOL     OW 1195   2.872   2.604   2.754  0.0295  0.3138  0.4147
  399SOL    HW1 1196   2.870   2.551   2.667 -1.6664 -0.1033 -0.0094
  399SOL    HW2 1197   2.842   2.553   2.840  0.3195 -1.6810  1.7041
  400SOL     OW 1198   0.796   1.585   1.270  0.1535 -0.2354 -0.5771
  400SOL    HW1 1199   0.774   1.641   1.355 -0.7487  1.0418  0.3677
  400SOL    HW2 1200   0.791   1.642   1.183 -1.9398  1.2197  0.3122
  401SOL     OW 1201   1.864   0.094   1.303  0.0329 -0.1177  0.1452
  401SOL    HW1 1202   1.906   0.124   1.393 -1.1164 -1.5307  1.3327
  401SOL    HW2 1203   1.759   0.082   1.310 -1.2588  0.3499  2.5746
  402SOL     OW 1204   1.349   0.193   3.033 -0.3630 -0.1748  0.1479
  402SOL    HW1 1205   1.442   0.203   2.977 -3.0233  3.6994 -0.9268
  402SOL    HW2 1206   1.317   0.289   3.069  2.3046  2.5419 -0.3482
  403SOL     OW 1207   2.258   1.793   1.010 -0.5577 -0.1500  0.1904
  403SOL    HW1 1208   2.359   1.762   1.013  2.9619  1.5775 -0.3175
  403SOL    HW2 1209   2.243   1.878   1.067 -1.4556 -0.9770 -0.3391
  404SOL     OW 1210   0.213   2.449   2.750 -0.5626 -0.0340  0.2005
  404SOL    HW1 1211   0.308   2.429   2.702  1.5780 -2.2812  0.4633
  404SOL    HW2 1212   0.212   2.547   2.785 -1.8872  2.4989 -1.4099
  405SOL     OW 1213   0.222   2.502   0.573  0.4651 -0.4479 -0.0955
  405SOL    HW1 1214   0.234   2.448   0.488 -1.5600  0.1940  1.1143
  405SOL    HW2 1215   0.300   2.570   0.591  0.2728 -2.2738 -0.7977
  406SOL     OW 1216   0.011   1.564   2.983  0.1485 -0.4896 -0.2910
  406SOL    HW1 1217   0.081   1.531   2.915 -1.3103 -0.7216 -0.2124
  406SOL    HW2 1218   0.043   1.563   3.083 -0.6991 -2.3888  1.8857
  407SOL     OW 1219   1.559   0.967   0.952  0.0188 -0.2681  0.1184
  407SOL    HW1 1220   1.562   0.967   0.849 -2.4359 -0.0906  0.8806
  407SOL    HW2 1221   1.481   1.020   0.991  1.0055 -2.3234  0.6029
  408SOL     OW 1222   1.448   2.353   0.938  0.4330  0.7783 -0.4055
  408SOL    HW1 1223   1.521   2.351   0.868  0.6332  0.0892  2.5463
  408SOL    HW2 1224   1.419   2.450   0.964 -1.5944 -0.9849 -2.0608
  409SOL     OW 1225   0.618   0.865   0.681 -0.4586 -0.2183  0.4031
  409SOL    HW1 1226   0.525   0.874   0.629 -0.0662 -1.7782 -0.4052
  409SOL    HW2 1227   0.658   0.766   0.669  3.4028  1.9065 -0.7523
  410SOL     OW 1228   1.344   1.997   1.495 -0.0373  0.4194 -0.1242
  410SOL    HW1 1229   1.322   2.083   1.550 -2.8319 -0.9952  0.7932
  410SOL    HW2 1230   1.251   1.943   1.482 -4.3021 -1.7007  0.1780
  411SOL     OW 1231   2.364   1.852   0.061 -0.6318  0.1980 -0.1915
  411SOL    HW1 1232   2.274   1.865   0.006 -0.6760 -0.1764 -0.3456
  411SOL    HW2 1233   2.443   1.876   0.001 -0.7626  0.6128  0.2622
  412SOL     OW 1234   1.560   2.407   2.279 -0.6723 -0.1599 -0.1467
  412SOL    HW1 1235   1.535   2.507   2.299  1.2358  3.8281 -4.6488
  412SOL    HW2 1236   1.513   2.340   2.346 -0.9385 -0.1323  0.8007
  413SOL     OW 1237   3.031   0.289   2.873 -0.0852 -0.3577  0.2902
  413SOL    HW1 1238   2.974   0.207   2.911 -2.3884 -1.0162  3.7683
  413SOL    HW2 1239   3.135   0.276   2.883  0.6884  0.3769  1.1508
  414SOL     OW 1240   1.766   1.302   1.322  0.0592 -0.1312  0.2859
  414SOL    HW1 1241   1.718   1.373   1.370  0.2388 -1.5650  1.6483
  414SOL    HW2 1242   1.747   1.303   1.217 -1.2948 -0.0082 -1.4760
  415SOL     OW 1243   0.297   2.266   0.722  0.6009  0.1009  0.0597
  415SOL    HW1 1244   0.266   2.347   0.672  1.4227  0.1883 -3.7017
  415SOL    HW2 1245   0.219   2.196   0.715 -0.7105 -0.1261 -0.5619
  416SOL     OW 1246   0.320   1.020   1.034 -0.2578 -0.2083  0.4129
  416SOL    HW1 1247   0.291   1.006   0.933  0.8044 -0.6326  2.3698
  416SOL    HW2 1248   0.404   1.077   1.045 -1.3666  3.4451 -2.3811
  417SOL     OW 1249   2.180   2.334   1.878  0.2450 -0.1850 -0.2028
  417SOL    HW1 1250   2.211   2.234   1.874 -0.0932 -1.3216  0.5820
  417SOL    HW2 1251   2.083   2.352   1.906 -0.4013 -2.6205 -1.6187
  418SOL     OW 1252   1.117   0.474   1.380 -0.0777 -0.8197  0.0093
  418SOL    HW1 1253   1.022   0.441   1.351  0.3752  1.0771 -1.6497
  418SOL    HW2 1254   1.191   0.459   1.298  2.9813  0.9996  0.0638
  419SOL     OW 1255   0.964   0.361   2.978  0.2682 -0.2066  0.3595
  419SOL    HW1 1256   1.009   0.393   2.889  1.2453 -0.4459  0.6519
  419SOL    HW2 1257   0.888   0.294   2.958 -1.1683  0.7996 -1.1118
  420SOL     OW 1258   0.182   2.278   0.359  0.3476  0.1647 -0.0026
  420SOL    HW1 1259   0.165   2.226   0.275 -1.6934  2.3794  2.2920
  420SOL    HW2 1260   0.110   2.263   0.432 -2.7422  1.7177 -0.5837
  421SOL     OW 1261   0.331   0.070   0.685 -0.0264 -0.1319 -0.0317
  421SOL    HW1 1262   0.349   0.010   0.601  0.6249 -0.2362  0.7239
  421SOL    HW2 1263   0.420   0.103   0.730  0.4145  1.1535 -1.2853
  422SOL     OW 1264   0.942   2.520   1.048  0.1549 -0.0988 -0.3062
  422SOL    HW1 1265   0.948   2.604   0.984 -0.1237  1.3873 -2.6331
  422SOL    HW2 1266   0.970   2.548   1.145 -1.9565 -1.3138  0.3125
  423SOL     OW 1267   0.053   0.728   1.180  0.4183  0.0857  0.6773
  423SOL    HW1 1268   0.022   0.697   1.276 -0.9637 -1.7290  0.3253
  423SOL    HW2 1269  -0.020   0.790   1.130  0.0853 -0.5390 -0.6666
  424SOL     OW 1270   0.974   2.134   2.222  0.2988  0.1550 -0.2883
  424SOL    HW1 1271   0.924   2.154   2.132 -0.2158 -1.1324 -2.3784
  424SOL    HW2 1272   0.919   2.156   2.307 -0.7182  0.9001 -0.1683
  425SOL     OW 1273   2.004   1.438   1.083  0.4972 -0.0177 -0.5046
  425SOL    HW1 1274   1.997   1.333   1.100 -0.9576 -1.1015  1.3485
  425SOL    HW2 1275   2.075   1.471   1.016 -0.4704  3.6183  0.7438
  426SOL     OW 1276   1.568   1.543   1.398  0.3818 -0.1260  0.4804
  426SOL    HW1 1277   1.516   1.613   1.341 -0.2638 -1.2265 -1.5617
  426SOL    HW2 1278   1.541   1.544   1.496 -1.2177 -0.4385  0.2547
  427SOL     OW 1279   1.923   2.343   2.036 -0.3781 -0.2351  0.0897
  427SOL    HW1 1280   1.974   2.284   2.104  3.3239  0.0312 -0.3647
  427SOL    HW2 1281   1.949   2.449   2.037  0.8358  0.2155  0.7674
  428SOL     OW 1282   0.930   3.077   0.078  0.5711 -0.2517  0.2871
  428SOL    HW1 1283   0.947   3.152   0.150 -0.2754 -0.2310  2.5984
  428SOL    HW2 1284   1.000   3.005   0.081  0.4429 -1.8568  1.4230
  429SOL     OW 1285   1.308   0.058   0.234  1.0263 -0.2528 -0.2317
  429SOL    HW1 1286   1.381   0.128   0.253 -0.7315 -0.9919 -1.7955
  429SOL    HW2 1287   1.320   0.015   0.137 -0.8030  1.5509 -0.9854
  430SOL     OW 1288   2.785   1.492   0.342  0.1710 -0.3044  0.1482
  430SOL    HW1 1289   2.762   1.570   0.283  2.7308  1.9370  0.8195
  430SOL    HW2 1290   2.799   1.528   0.442 -1.1112  1.5090  0.8084
  431SOL     OW 1291   2.115   1.600   0.875 -0.3976 -0.2795 -0.4918
  431SOL    HW1 1292   2.172   1.674   0.928  0.5126 -0.5690 -0.1621
  431SOL    HW2 1293   2.015   1.625   0.865 -0.3288 -0.3725  1.4050
  432SOL     OW 1294   2.882   2.300   1.217 -0.2706  0.9407  0.5581
  432SOL    HW1 1295   2.811   2.227   1.223 -0.4620  4.3185 -0.5359
  432SOL    HW2 1296   2.918   2.325   1.312  0.0444  1.3222 -2.5539
  433SOL     OW 1297   1.858   0.265   0.814 -0.1237  0.4204  0.1369
  433SOL    HW1 1298   1.767   0.257   0.863  1.8092  0.3235 -1.3536
  433SOL    HW2 1299   1.940   0.223   0.869 -1.3543 -2.0082  0.1543
  434SOL     OW 1300   1.519   0.246   0.712  0.3544  0.1582 -0.4766
  434SOL    HW1 1301   1.505   0.334   0.669  1.9528 -1.9787  2.7198
  434SOL    HW2 1302   1.570   0.260   0.803  0.8064 -1.6991  4.1082
  435SOL     OW 1303   1.424   1.471   2.094  0.1199  0.3190  0.2210
  435SOL    HW1 1304   1.397   1.474   2.194  0.4186 -0.6966 -1.9572
  435SOL    HW2 1305   1.404   1.557   2.044  2.0020 -1.7010  1.6585
  436SOL     OW 1306   1.641   2.687   2.384  0.1141 -0.1430 -0.3897
  436SOL    HW1 1307   1.638   2.782   2.424  0.2463  0.5160  0.4290
  436SOL    HW2 1308   1.649   2.621   2.464  1.0237 -0.1071  1.4538
  437SOL     OW 1309   0.991   2.974   0.866  0.3274  0.4783 -0.6816
  437SOL    HW1 1310   0.956   3.070   0.843 -1.4621 -0.2201 -0.4051
  437SOL    HW2 1311   1.063   2.973   0.939 -0.3063  0.5547 -3.2562
  438SOL     OW 1312   1.001   2.520   1.325  0.2047  0.2796  0.1625
  438SOL    HW1 1313   1.082   2.548   1.380 -0.3723 -3.1821  2.4162
  438SOL    HW2 1314   0.983   2.418   1.326  0.2929 -1.8233  1.2929
  439SOL     OW 1315   0.713   1.702   1.044 -0.3457  0.4892  0.2892
  439SOL    HW1 1316   0.785   1.779   1.022  1.2512 -0.2259 -0.4875
  439SOL    HW2 1317   0.624   1.737   1.087  1.8347 -0.1555  2.3141
  440SOL     OW 1318   0.956   2.369   1.991  0.6403 -0.3062 -0.2581
  440SOL    HW1 1319   0.956   2.439   1.917 -0.5613 -0.1676 -0.6264
  440SOL    HW2 1320   1.033   2.381   2.056 -2.5845  2.4986 -0.7801
  441SOL     OW 1321   0.379   2.767   1.308  0.5078 -0.5388 -0.5884
  441SOL    HW1 1322   0.416   2.674   1.335 -0.9395  0.0125 -0.5978
  441SOL    HW2 1323   0.393   2.790   1.206 -1.1358 -2.9402 -0.1192
  442SOL     OW 1324   2.238   0.669   2.559  0.0324 -0.2863  0.1531
  442SOL    HW1 1325   2.219   0.570   2.529  1.4343 -0.4039 -2.1366
  442SOL    HW2 1326   2.171   0.731   2.513 -0.4592 -1.6338 -0.6907
  443SOL     OW 1327   1.251   2.548   2.185 -0.1156 -0.9217  0.4482
  443SOL    HW1 1328   1.263   2.451   2.219 -1.9392  0.5084  0.9751
  443SOL    HW2 1329   1.230   2.613   2.265 -0.1722 -0.4026  0.3359
  444SOL     OW 1330   0.976   1.205   1.481  0.6555  0.1026 -0.1031
  444SOL    HW1 1331   1.077   1.187   1.507  2.2960 -0.7552  1.4510
  444SOL    HW2 1332   0.964   1.305   1.447 -0.9616  1.8638 -0.1813
  445SOL     OW 1333   0.160   2.241   2.114  0.5043  0.0992 -0.0336
  445SOL    HW1 1334   0.145   2.159   2.055 -1.7353  0.8622 -0.4516
  445SOL    HW2 1335   0.103   2.237   2.203  1.4401  1.5434  5.1306
  446SOL     OW 1336   0.111   1.951   2.398 -0.5199  0.2087 -0.5332
  446SOL    HW1 1337   0.063   2.042   2.398  1.6332  0.4205  0.7647
  446SOL    HW2 1338   0.120   1.910   2.304 -0.1764 -1.8189 -2.1680
  447SOL     OW 1339   1.311   1.705   1.907 -0.1376  0.6700 -0.2153
  447SOL    HW1 1340   1.239   1.747   1.845 -0.3784 -0.5789 -0.5092
  447SOL    HW2 1341   1.376   1.774   1.952  0.5858 -0.5399  1.9653
  448SOL     OW 1342   0.176   1.470   2.010 -0.1725  0.0508  0.7411
  448SOL    HW1 1343   0.193   1.553   1.946  0.6857  1.3276 -2.0534
  448SOL    HW2 1344   0.102   1.493   2.081  1.9289 -0.8241 -0.7385
  449SOL     OW 1345   1.838   2.943   0.821 -0.5901 -0.2418  0.2477
  449SOL    HW1 1346   1.838   2.972   0.921 -0.2557 -0.1512 -0.4445
  449SOL    HW2 1347   1.897   2.853   0.798  1.6606 -3.0307  2.6327
  450SOL     OW 1348   2.239   1.472   0.686 -0.2257 -0.7121 -0.2167
  450SOL    HW1 1349   2.176   1.508   0.764  0.2063  0.6705  0.7852
  450SOL    HW2 1350   2.274   1.553   0.626  0.8735  0.5130  0.4605
  451SOL     OW 1351   1.417   2.980   1.463 -0.5388 -0.0444  0.2951
  451SOL    HW1 1352   1.359   3.065   1.487  1.0461  1.8527  0.7564
  451SOL    HW2 1353   1.452   2.921   1.544  1.9580 -3.7049  1.7242
  452SOL     OW 1354   2.703   2.301   2.272  0.3684 -0.2878  0.0124
  452SOL    HW1 1355   2.631   2.375   2.280  0.9934  1.8332 -0.1943
  452SOL    HW2 1356   2.743   2.272   2.362 -1.9742 -0.0356  0.7988
  453SOL     OW 1357   2.448   2.653   3.098 -0.0915  0.0799 -0.6362
  453SOL    HW1 1358   2.351   2.685   3.126  3.6122 -0.7193 -0.6572
  453SOL    HW2 1359   2.442   2.570   3.035 -2.6419 -0.6859  2.1017
  454SOL     OW 1360   0.932   1.197   2.004  0.3595 -0.0263  0.3719
  454SOL    HW1 1361   0.881   1.179   1.916  0.1221 -0.0483 -0.2831
  454SOL    HW2 1362   1.015   1.263   1.999 -0.0104  1.3587  0.9333
  455SOL     OW 1363   0.706   2.617   2.811 -0.0951 -0.1352 -0.2366
  455SOL    HW1 1364   0.786   2.666   2.857 -1.1977 -0.7108 -0.3909
  455SOL    HW2 1365   0.670   2.527   2.849  0.4005 -1.4721  0.6630
  456SOL     OW 1366   0.304   1.931   0.220  0.0861  0.0025  0.3285
  456SOL    HW1 1367   0.394   1.980   0.238 -0.6057  1.0749 -0.2829
  456SOL    HW2 1368   0.233   1.994   0.176 -1.1383 -1.9664 -0.1367
  457SOL     OW 1369   0.400   2.700   0.667 -0.3948  0.8584  0.4637
  457SOL    HW1 1370   0.421   2.755   0.585 -3.4030 -2.0659  0.9802
  457SOL    HW2 1371   0.483   2.681   0.727  1.4808  0.3556 -0.8824
  458SOL     OW 1372   2.932   0.025   1.270  0.3006  0.2856 -0.6684
  458SOL    HW1 1373   2.981   0.114   1.275  0.7492  0.4126  0.7823
  458SOL    HW2 1374   2.940  -0.013   1.176  1.4002 -0.3838  1.3820
  459SOL     OW 1375   2.141   2.521   0.722 -0.2516 -0.4185  0.4224
  459SOL    HW1 1376   2.213   2.518   0.796  0.1638 -2.9387 -0.4957
  459SOL    HW2 1377   2.176   2.495   0.626  2.4164 -2.8588 -0.2219
  460SOL     OW 1378   1.153   2.031   2.766 -0.1201  0.0753 -0.0624
  460SOL    HW1 1379   1.202   2.042   2.674  1.4456 -1.1389 -1.0147
  460SOL    HW2 1380   1.179   1.938   2.810  0.6084  1.2318  1.0076
  461SOL     OW 1381   0.470   2.139   2.715 -0.0860  0.2227 -0.1340
  461SOL    HW1 1382   0.416   2.065   2.654  1.7480 -2.2426 -2.8239
  461SOL    HW2 1383   0.508   2.101   2.807  0.7073 -0.6072  0.4175
  462SOL     OW 1384   0.940   1.023   1.748  0.2858 -0.2542 -0.0183
  462SOL    HW1 1385   0.939   0.934   1.692 -1.3362 -0.7763  1.0691
  462SOL    HW2 1386   0.887   1.102   1.700 -0.7132  0.7286  1.8832
  463SOL     OW 1387   0.425   0.809   0.469  0.4461  0.1849 -0.2466
  463SOL    HW1 1388   0.467   0.721   0.425 -1.3880 -0.8432  1.2776
  463SOL    HW2 1389   0.322   0.806   0.482  2.7403  0.6363 -0.5787
  464SOL     OW 1390   0.605   2.367   2.275  0.4396 -0.2016 -0.2709
  464SOL    HW1 1391   0.520   2.420   2.301 -0.3854  1.1910 -1.2262
  464SOL    HW2 1392   0.589   2.295   2.203 -1.6038 -1.0143 -1.1982
  465SOL     OW 1393   0.231   0.977   0.789 -0.2220 -0.3094 -0.2084
  465SOL    HW1 1394   0.157   0.989   0.715  0.3730 -1.6121 -1.4799
  465SOL    HW2 1395   0.252   0.874   0.797  0.1149  1.1358  2.4309
  466SOL     OW 1396   1.328   1.146   0.988 -0.0156  0.4367  0.7612
  466SOL    HW1 1397   1.347   1.245   0.961 -0.9481 -0.7905  1.1348
  466SOL    HW2 1398   1.248   1.130   1.051  0.6979  0.4502  1.5914
  467SOL     OW 1399   0.630   0.469   2.537 -0.3505 -0.1526 -0.5246
  467SOL    HW1 1400   0.538   0.520   2.552  0.9954  0.0452  0.7027
  467SOL    HW2 1401   0.623   0.374   2.579  0.6812 -0.1979 -0.2457
  468SOL     OW 1402   0.463   2.262   1.583  0.4517 -0.1480  0.5058
  468SOL    HW1 1403   0.543   2.319   1.621 -0.6754  1.1797  0.7204
  468SOL    HW2 1404   0.443   2.282   1.483 -0.7713  2.8640  0.9545
  469SOL     OW 1405   1.440   1.346   1.226 -0.3091  0.0502 -0.7879
  469SOL    HW1 1406   1.475   1.349   1.130 -2.9129 -1.3306  0.8160
  469SOL    HW2 1407   1.499   1.399   1.291  0.5782  0.3651  1.3690
  470SOL     OW 1408   3.003   1.815   0.800  0.3760  0.2272 -0.0300
  470SOL    HW1 1409   3.091   1.870   0.800 -0.9044 -0.8558 -1.9407
  470SOL    HW2 1410   3.004   1.729   0.853 -1.1962 -2.9321 -2.9044
  471SOL     OW 1411   2.647   1.378   2.194 -0.5019 -0.2777 -0.0290
  471SOL    HW1 1412   2.644   1.276   2.203  0.6137  1.2024 -0.3608
  471SOL    HW2 1413   2.734   1.424   2.230 -1.8327  2.4650 -0.9272
  472SOL     OW 1414   1.185   2.462   0.035 -1.0315  0.5174  0.5495
  472SOL    HW1 1415   1.229   2.512   0.114 -2.1955  1.2916  0.5076
  472SOL    HW2 1416   1.110   2.397   0.064 -2.3067  0.6912  0.3332
  473SOL     OW 1417   1.088   1.525   0.997  0.1424  0.0759 -0.0867
  473SOL    HW1 1418   0.992   1.526   0.960 -0.9695  0.0582  1.8040
  473SOL    HW2 1419   1.094   1.474   1.089  0.4554  1.4063  1.3088
  474SOL     OW 1420   0.630   1.288   0.502  0.1933  0.0886  0.3888
  474SOL    HW1 1421   0.561   1.225   0.456  1.1119  0.3063  2.4142
  474SOL    HW2 1422   0.701   1.237   0.558 -0.4724 -2.2147 -0.7555
  475SOL     OW 1423   2.823   0.060   0.822  0.0365  0.2517 -0.2521
  475SOL    HW1 1424   2.877   0.148   0.830 -0.6066  0.4085 -3.8282
  475SOL    HW2 1425   2.727   0.069   0.859  1.2618 -3.5554  2.0884
  476SOL     OW 1426   0.951   3.066   1.820  0.3219  0.2842 -0.1379
  476SOL    HW1 1427   1.056   3.070   1.834  1.9943 -1.1306  1.0499
  476SOL    HW2 1428   0.928   3.027   1.727 -0.8568  1.9455 -1.6680
  477SOL     OW 1429   1.434   0.330   2.424 -0.0322 -0.1643 -0.1925
  477SOL    HW1 1430   1.426   0.362   2.522  0.0743 -0.9962  0.0733
  477SOL    HW2 1431   1.511   0.258   2.418  1.2971  0.3046  0.9372
  478SOL     OW 1432   2.211   1.897   0.282 -0.0353 -0.0505 -0.5102
  478SOL    HW1 1433   2.181   1.809   0.339 -0.3061 -1.7511  2.2765
  478SOL    HW2 1434   2.289   1.881   0.218 -1.0074  0.9393 -0.8041
  479SOL     OW 1435   1.323   0.934   2.892  0.0467 -0.5691  0.4366
  479SOL    HW1 1436   1.393   0.972   2.825 -1.2180  1.6393  1.0385
  479SOL    HW2 1437   1.262   0.860   2.858  0.1656  1.3110  0.2755
  480SOL     OW 1438   2.687   2.298   0.407  0.1081  0.2724 -0.4253
  480SOL    HW1 1439   2.734   2.218   0.450 -1.3950 -0.5422 -1.0842
  480SOL    HW2 1440   2.585   2.273   0.407 -1.0931 -2.1482 -1.2440
  481SOL     OW 1441   0.979   1.153   0.848  0.3680 -0.0333  0.9710
  481SOL    HW1 1442   1.006   1.247   0.814  3.1783  0.2044 -0.1507
  481SOL    HW2 1443   0.999   1.137   0.949  1.8651  0.2544 -1.3681
  482SOL     OW 1444   1.629   0.299   2.025  0.2556 -0.2258 -0.3385
  482SOL    HW1 1445   1.636   0.401   2.008  0.2489 -1.1033 -1.0188
  482SOL    HW2 1446   1.717   0.249   2.050 -0.8986  0.8584 -0.0429
  483SOL     OW 1447   0.151   2.347   1.189  0.9087  0.0006 -0.5540
  483SOL    HW1 1448   0.114   2.412   1.264  0.5580 -1.1896  2.9305
  483SOL    HW2 1449   0.174   2.396   1.103  2.1993 -2.0659  1.8240
  484SOL     OW 1450   1.715   1.057   1.452  0.2724 -0.1591 -0.8989
  484SOL    HW1 1451   1.801   1.004   1.483 -0.1163  0.9604  1.9917
  484SOL    HW2 1452   1.738   1.146   1.397  1.4562  1.5450 -2.1293
  485SOL     OW 1453   0.754   0.763   1.909  0.1543  0.4903 -0.5948
  485SOL    HW1 1454   0.732   0.798   1.809  2.1703  0.6582  0.9614
  485SOL    HW2 1455   0.849   0.718   1.917  0.0374 -1.2460 -0.5156
  486SOL     OW 1456   0.880   1.891   2.447  0.3722 -0.3587  0.3356
  486SOL    HW1 1457   0.903   1.894   2.545 -3.5481  1.9282 -1.5865
  486SOL    HW2 1458   0.819   1.969   2.419 -1.8350 -0.4255 -1.2842
  487SOL     OW 1459   1.767   1.587   1.073 -0.2670  0.2688  0.3375
  487SOL    HW1 1460   1.842   1.523   1.108  0.9086  0.6921  0.5785
  487SOL    HW2 1461   1.799   1.627   0.983  0.9600 -2.5876 -1.3760
  488SOL     OW 1462   2.927   0.799   2.241 -0.5053 -0.1505  0.8833
  488SOL    HW1 1463   3.004   0.728   2.244  1.6471  0.1737  0.8274
  488SOL    HW2 1464   2.874   0.797   2.330  0.0087  1.1919  0.2571
  489SOL     OW 1465   2.776   0.348   1.308 -0.3921 -0.0634 -0.3723
  489SOL    HW1 1466   2.774   0.294   1.397 -1.1937 -0.7876 -1.0532
  489SOL    HW2 1467   2.855   0.325   1.242  2.0218  2.7910  0.1361
  490SOL     OW 1468   1.477   2.947   2.824 -0.4278  0.1390  0.0107
  490SOL    HW1 1469   1.516   2.853   2.839 -0.3346 -0.3255 -0.8122
  490SOL    HW2 1470   1.467   2.972   2.724  0.3119  3.9678  0.4215
  491SOL     OW 1471   1.791   1.450   2.720 -0.2682  0.5318 -0.1296
  491SOL    HW1 1472   1.788   1.373   2.790 -0.7399 -0.3680 -0.4375
  491SOL    HW2 1473   1.869   1.512   2.747 -0.6530 -0.9635  1.8497
  492SOL     OW 1474   0.584   2.097   0.589 -0.4763  0.0739  0.4293
  492SOL    HW1 1475   0.612   2.092   0.685 -0.7775  1.7727 -1.6993
  492SOL    HW2 1476   0.490   2.136   0.575 -4.2385  2.2301  0.6996
  493SOL     OW 1477   0.403   1.323   2.088  0.2409 -0.1650  0.3221
  493SOL    HW1 1478   0.310   1.371   2.081  1.0358 -0.8650 -1.4052
  493SOL    HW2 1479   0.389   1.219   2.082 -1.9243 -1.0145 -1.0598
  494SOL     OW 1480   2.708   2.650   0.127  0.5300 -0.0072 -0.8278
  494SOL    HW1 1481   2.706   2.624   0.226 -1.8404  1.8239 -1.2421
  494SOL    HW2 1482   2.615   2.651   0.089  1.6724  0.8768 -0.1363
  495SOL     OW 1483   2.533   2.815   2.634  0.5246  0.3983  0.0431
  495SOL    HW1 1484   2.542   2.709   2.642  0.5391  1.2096  0.0219
  495SOL    HW2 1485   2.606   2.848   2.569 -1.8587 -0.5848  3.2759
  496SOL     OW 1486   1.948   2.319   0.835 -0.0755 -0.4021  0.3928
  496SOL    HW1 1487   2.002   2.379   0.901  0.9860  0.5345  0.9656
  496SOL    HW2 1488   2.010   2.242   0.798 -1.0550 -0.0715  1.4451
  497SOL     OW 1489   0.250   2.996   2.347 -1.0828  0.3046 -0.3390
  497SOL    HW1 1490   0.178   3.062   2.381  3.0820 -1.7070  1.2033
  497SOL    HW2 1491   0.282   3.009   2.251 -0.8588  1.0328  3.2963
  498SOL     OW 1492   1.149   1.340   1.209 -0.4751  0.0938 -0.3018
  498SOL    HW1 1493   1.255   1.338   1.221  2.5273  3.7141  1.4246
  498SOL    HW2 1494   1.108   1.374   1.297  0.4681  0.4655  0.5276
  499SOL     OW 1495   0.595   1.831   0.355  0.0276  0.5365 -0.6589
  499SOL    HW1 1496   0.607   1.781   0.269 -0.5164 -1.6971  1.2226
  499SOL    HW2 1497   0.666   1.905   0.375 -0.1515  1.3008  0.0276
  500SOL     OW 1498   1.537   2.814   1.654  0.3067  0.1546 -0.7269
  500SOL    HW1 1499   1.560   2.769   1.750 -0.1742  0.6295  0.0550
  500SOL    HW2 1500   1.535   2.742   1.580  0.9220  3.8124  0.7662
  501SOL     OW 1501   0.797   1.173   2.262  0.2678 -0.3231 -0.1360
  501SOL    HW1 1502   0.722   1.096   2.261 -0.3454 -0.6083 -0.0193
  501SOL    HW2 1503   0.843   1.191   2.170  4.0676  3.2110  0.7502
  502SOL     OW 1504   2.583   0.916   1.804  0.3817 -0.2727  0.3499
  502SOL    HW1 1505   2.616   0.943   1.711  0.7280 -0.8994 -3.5718
  502SOL    HW2 1506   2.565   0.814   1.808 -0.6172  0.6748  1.2647
  503SOL     OW 1507   1.268   0.116   0.689  0.6696 -0.3012 -0.0190
  503SOL    HW1 1508   1.199   0.191   0.678  0.2758  0.1605  1.9093
  503SOL    HW2 1509   1.369   0.146   0.688  0.6088 -1.1979  0.6781
  504SOL     OW 1510   2.999   2.361   1.490  0.4584 -0.6087 -0.2617
  504SOL    HW1 1511   2.937   2.436   1.537 -1.6305 -0.5069 -1.7956
  504SOL    HW2 1512   3.060   2.310   1.551 -0.0765  0.3391 -1.2431
  505SOL     OW 1513   2.310   1.138   1.498 -0.3838  0.0652  0.0040
  505SOL    HW1 1514   2.299   1.166   1.400  0.5469 -1.5106  1.9060
  505SOL    HW2 1515   2.377   1.188   1.561  0.5317 -0.1256 -1.4705
  506SOL     OW 1516   1.956   0.163   1.879 -0.1130 -0.4381 -0.4416
  506SOL    HW1 1517   2.059   0.153   1.857  0.8865  1.2266  3.4376
  506SOL    HW2 1518   1.928   0.265   1.884  0.2158  2.3523 -1.2989
  507SOL     OW 1519   0.504   0.753   2.218 -0.2062 -0.4682  0.0625
  507SOL    HW1 1520   0.461   0.696   2.144  0.6467  1.1700  2.7301
  507SOL    HW2 1521   0.573   0.698   2.272  1.8649  1.0297  0.1047
  508SOL     OW 1522   0.269   1.658   0.812 -0.3867 -0.0316 -0.1657
  508SOL    HW1 1523   0.350   1.699   0.760  1.1295 -0.7396  0.4878
  508SOL    HW2 1524   0.242   1.706   0.895  1.0648 -1.7372 -3.3072
  509SOL     OW 1525   1.306   1.218   2.466  0.2273 -0.2889 -0.2820
  509SOL    HW1 1526   1.308   1.224   2.362 -0.0383  4.7439  1.7656
  509SOL    HW2 1527   1.208   1.202   2.494  2.5844  0.3105 -1.0441
  510SOL     OW 1528   1.297   2.029   2.234 -0.2592  0.0104 -0.4121
  510SOL    HW1 1529   1.319   2.049   2.136 -0.6104 -0.8757 -0.6149
  510SOL    HW2 1530   1.230   1.946   2.245 -1.3964 -0.7222  1.3021
  511SOL     OW 1531   3.000   2.680   1.328 -0.1319  0.9809 -0.8528
  511SOL    HW1 1532   3.001   2.712   1.229 -0.6582  1.4520 -0.7532
  511SOL    HW2 1533   2.907   2.643   1.350  0.2724 -0.5671  0.3994
  512SOL     OW 1534   2.335   0.449   1.425  0.5567  0.2596 -0.0801
  512SOL    HW1 1535   2.238   0.435   1.389  0.9120 -0.3514 -0.1114
  512SOL    HW2 1536   2.398   0.423   1.346 -0.4435 -1.8623 -0.3755
  513SOL     OW 1537   2.535   2.078   0.853  0.6420 -0.1422 -0.5631
  513SOL    HW1 1538   2.514   2.156   0.789 -0.3807 -0.9485 -1.8243
  513SOL    HW2 1539   2.615   2.024   0.814 -1.8108  1.7547 -1.3975
  514SOL     OW 1540   0.617   2.730   0.463  0.4108 -0.3469 -0.1200
  514SOL    HW1 1541   0.688   2.706   0.391 -2.1777 -0.8060  1.0426
  514SOL    HW2 1542   0.644   2.808   0.524  1.1185 -0.1611 -2.9934
  515SOL     OW 1543   1.940   1.338   2.389 -0.2627 -0.0403 -0.2216
  515SOL    HW1 1544   1.958   1.295   2.297  0.8819  3.3100  0.0975
  515SOL    HW2 1545   1.876   1.285   2.453  1.2622 -0.4255 -0.4644
  516SOL     OW 1546   0.268   0.146   1.941  0.1167  0.0721  0.2107
  516SOL    HW1 1547   0.339   0.196   1.884 -0.1051  0.9200  1.6472
  516SOL    HW2 1548   0.202   0.087   1.885 -1.7973 -1.4846 -0.5686
  517SOL     OW 1549   0.472   0.217   1.146  0.4456 -0.3068  0.6859
  517SOL    HW1 1550   0.530   0.155   1.210 -1.1232  1.3732 -0.2137
  517SOL    HW2 1551   0.381   0.170   1.124  2.1559  1.3701 -0.0026
  518SOL     OW 1552   2.172   3.004   1.823  0.1482 -0.3485  0.1067
  518SOL    HW1 1553   2.176   3.106   1.829  0.5482 -2.9884  0.3601
  518SOL    HW2 1554   2.178   2.966   1.726 -0.4809 -0.3414  0.8397
  519SOL     OW 1555   2.341   2.234   2.539  0.6350 -0.5039 -0.1131
  519SOL    HW1 1556   2.280   2.200   2.617  0.5213 -2.2019  1.0666
  519SOL    HW2 1557   2.325   2.335   2.520  0.7185 -0.1971 -0.8050
  520SOL     OW 1558   1.824   2.702   1.644  0.1208  0.8816 -0.2670
  520SOL    HW1 1559   1.771   2.665   1.725  2.2958 -0.2730 -2.6226
  520SOL    HW2 1560   1.924   2.686   1.654  1.9496  0.7076  0.7136
  521SOL     OW 1561   0.645   0.069   2.156  0.0099  0.0138  0.3253
  521SOL    HW1 1562   0.558   0.013   2.126 -0.3101  0.4319  0.2433
  521SOL    HW2 1563   0.689   0.040   2.244  0.9329  2.9175 -0.0370
  522SOL     OW 1564   0.229   1.933   1.475 -0.2223 -0.5853 -0.2857
  522SOL    HW1 1565   0.251   1.985   1.564 -0.0854  2.4247 -0.4935
  522SOL    HW2 1566   0.195   1.996   1.400  1.8319  0.1911  0.3942
  523SOL     OW 1567   2.209   2.924   1.582 -0.0291  0.4700  0.4542
  523SOL    HW1 1568   2.301   2.892   1.559 -4.1975  0.2647  2.8174
  523SOL    HW2 1569   2.128   2.867   1.547 -0.5441 -1.5943 -2.9008
  524SOL     OW 1570   0.209   2.760   2.795 -0.3868 -0.1689  0.4399
  524SOL    HW1 1571   0.148   2.849   2.804  0.0478  3.0321  0.6855
  524SOL    HW2 1572   0.301   2.778   2.759 -0.0779  1.9108  1.1481
  525SOL     OW 1573   2.202   2.078   0.498 -0.1698 -0.5137 -0.3454
  525SOL    HW1 1574   2.181   2.023   0.582 -1.5338  0.0051  1.0193
  525SOL    HW2 1575   2.199   2.023   0.410  0.5767  1.0252  2.3877
  526SOL     OW 1576   0.410   1.529   1.737  0.6651 -0.0509  0.0672
  526SOL    HW1 1577   0.495   1.566   1.774 -2.8906 -1.6145 -0.6411
  526SOL    HW2 1578   0.404   1.423   1.749  3.8403 -0.7498  2.1451
  527SOL     OW 1579   1.100   2.961   1.133 -0.5713 -0.7979  0.9867
  527SOL    HW1 1580   1.141   2.908   1.211 -2.8152  1.6722 -0.1614
  527SOL    HW2 1581   1.161   3.048   1.119 -0.0212 -3.2538 -1.0844
  528SOL     OW 1582   1.283   2.409   0.618  0.0262 -0.4529 -0.4876
  528SOL    HW1 1583   1.353   2.332   0.603 -0.5809  2.8077 -1.1520
  528SOL    HW2 1584   1.325   2.500   0.649  0.5125  3.4939 -0.4990
  529SOL     OW 1585   1.864   1.745   0.855  0.8955  0.6254  0.1986
  529SOL    HW1 1586   1.851   1.751   0.753  0.5237 -2.0708  3.2195
  529SOL    HW2 1587   1.902   1.834   0.894 -0.4102  1.3651 -2.4778
  530SOL     OW 1588   0.407   2.465   0.194  0.0848 -0.3084 -0.2035
  530SOL    HW1 1589   0.449   2.383   0.246  2.3944 -1.1890 -0.1018
  530SOL    HW2 1590   0.416   2.453   0.093  0.3735 -0.7635  1.0758
  531SOL     OW 1591   1.839   1.013   1.026 -0.4326 -0.5368 -0.0239
  531SOL    HW1 1592   1.858   1.010   0.923  0.9639  0.3425  0.8052
  531SOL    HW2 1593   1.741   0.992   1.052  0.9586 -2.7211 -0.8995
  532SOL     OW 1594   0.388   1.180   0.716  0.0402 -0.2439 -0.4548
  532SOL    HW1 1595   0.413   1.175   0.618 -0.3017  1.8742  2.5552
  532SOL    HW2 1596   0.330   1.097   0.744  2.9275 -1.5109  2.6050
  533SOL     OW 1597   1.816   0.079   2.560  0.1333  0.5972  0.0456
  533SOL    HW1 1598   1.915   0.055   2.564  1.0469 -0.4156  1.9332
  533SOL    HW2 1599   1.779   0.132   2.642  1.3525  0.3992 -0.2371
  534SOL     OW 1600   0.208   0.179   1.575  0.1733  0.2518 -0.0382
  534SOL    HW1 1601   0.290   0.243   1.542 -0.1316  1.9982 -0.9696
  534SOL    HW2 1602   0.114   0.228   1.560 -2.1855  1.1679  0.4781
  535SOL     OW 1603   1.866   0.400   0.140 -0.1426 -0.1577  0.3324
  535SOL    HW1 1604   1.913   0.496   0.129  2.1246  3.4345  0.2227
  535SOL    HW2 1605   1.820   0.373   0.227  1.0158 -2.0104 -2.1354
  536SOL     OW 1606   1.212   2.505   0.993 -0.0467  0.1787  0.5154
  536SOL    HW1 1607   1.237   2.493   0.891  2.9701  0.8274  0.4755
  536SOL    HW2 1608   1.111   2.508   1.008  0.4531 -1.1018 -1.5735
  537SOL     OW 1609   0.873   0.250   2.296  0.3261 -0.6687  0.3167
  537SOL    HW1 1610   0.884   0.327   2.228 -5.2336  2.6744  0.5227
  537SOL    HW2 1611   0.821   0.170   2.262 -0.1083 -1.3840  2.5299
  538SOL     OW 1612   1.698   2.292   1.604 -0.3115  1.0369 -0.5529
  538SOL    HW1 1613   1.640   2.231   1.537  1.8885 -0.6110 -1.3440
  538SOL    HW2 1614   1.775   2.345   1.559 -1.2781 -2.5493 -0.2998
  539SOL     OW 1615   0.166   1.560   2.724  0.0664  0.4924 -0.4209
  539SOL    HW1 1616   0.076   1.577   2.671 -1.8521 -2.6353 -3.0722
  539SOL    HW2 1617   0.212   1.650   2.742  0.0532  0.1159  1.5650
  540SOL     OW 1618   2.670   1.778   2.140  0.0718 -0.8623 -0.2967
  540SOL    HW1 1619   2.619   1.691   2.104  1.7967  0.2499 -2.0567
  540SOL    HW2 1620   2.653   1.869   2.083  0.4828  0.2862 -0.1995
  541SOL     OW 1621   0.417   2.281   3.093  0.6008  0.1349  0.4727
  541SOL    HW1 1622   0.455   2.207   3.152  0.5250 -0.4957  0.3885
  541SOL    HW2 1623   0.345   2.245   3.025 -2.7883 -4.4313  1.1766
  542SOL     OW 1624   2.179   2.603   0.449  0.0458  0.0562 -0.0206
  542SOL    HW1 1625   2.198   2.700   0.409 -0.5637 -0.1645 -1.9829
  542SOL    HW2 1626   2.082   2.587   0.481 -1.4857  0.2175  2.6022
  543SOL     OW 1627   1.064   1.807   1.740 -0.6018 -0.1697  0.0937
  543SOL    HW1 1628   1.054   1.854   1.835  0.1335  0.0761 -1.8926
  543SOL    HW2 1629   0.999   1.851   1.674 -1.0882  2.5094  1.1433
  544SOL     OW 1630   0.853   0.421   0.124  0.3412 -0.3474  0.4609
  544SOL    HW1 1631   0.881   0.365   0.205  0.5425 -0.5700  1.8721
  544SOL    HW2 1632   0.919   0.404   0.044 -0.6822 -0.6714 -0.7338
  545SOL     OW 1633   1.152   1.775   0.634 -0.3651  0.1523  0.1190
  545SOL    HW1 1634   1.233   1.746   0.694 -1.2878  1.8443 -0.0568
  545SOL    HW2 1635   1.157   1.744   0.536  0.0061 -1.5394  0.0153
  546SOL     OW 1636   2.682   1.603   0.047 -0.5005  0.0035  0.3769
  546SOL    HW1 1637   2.710   1.542  -0.036 -0.9774 -2.7116 -3.2800
  546SOL    HW2 1638   2.603   1.568   0.098  0.9607 -2.1642 -0.7550
  547SOL     OW 1639   0.487   3.096   2.746  0.2458  0.4900  0.0338
  547SOL    HW1 1640   0.519   3.037   2.666  1.1595  3.3665  1.1764
  547SOL    HW2 1641   0.484   3.034   2.826  0.6810  0.9763  0.2633
  548SOL     OW 1642   2.069   0.786   3.095 -0.0754  0.0988  0.2759
  548SOL    HW1 1643   1.982   0.732   3.085  2.6501  0.7851 -2.0436
  548SOL    HW2 1644   2.061   0.888   3.104 -0.8497  1.2089  0.5484
  549SOL     OW 1645   0.560   0.434   0.072 -0.4101 -0.2281  0.1307
  549SOL    HW1 1646   0.517   0.501   0.002  0.5794 -0.3743 -2.0249
  549SOL    HW2 1647   0.668   0.429   0.073  1.1771  1.7365 -1.7769
  550SOL     OW 1648   2.540   2.862   2.911  0.7392 -0.4559  0.1446
  550SOL    HW1 1649   2.502   2.796   2.985 -0.6732  0.2067 -1.3244
  550SOL    HW2 1650   2.527   2.834   2.808 -0.7138  0.7374 -1.5472
  551SOL     OW 1651   0.229   0.782   0.202 -0.2689 -0.6216 -0.1965
  551SOL    HW1 1652   0.329   0.769   0.191 -0.8927  1.9608 -1.8029
  551SOL    HW2 1653   0.195   0.783   0.301  2.2847  0.7551  0.3985
  552SOL     OW 1654   0.840   2.796   1.907 -0.3226 -0.0534  0.1809
  552SOL    HW1 1655   0.816   2.760   2.001  1.6534  1.9051 -3.9061
  552SOL    HW2 1656   0.865   2.894   1.913 -0.7620 -1.0106  0.0084
  553SOL     OW 1657   3.074   2.538   0.380 -0.1259  0.2259  0.7459
  553SOL    HW1 1658   3.008   2.464   0.351 -0.0923  0.6076  1.9924
  553SOL    HW2 1659   3.136   2.517   0.460 -0.3554 -0.1957  2.3603
  554SOL     OW 1660   2.151   0.311   0.503  0.4196 -0.6034 -0.1018
  554SOL    HW1 1661   2.169   0.233   0.444  0.6078  1.6963  1.2197
  554SOL    HW2 1662   2.149   0.282   0.603 -2.7338 -0.2662  2.5577
  555SOL     OW 1663   0.475   2.907   2.470 -0.4736  0.4828  0.1964
  555SOL    HW1 1664   0.391   2.939   2.415 -0.8028 -1.2785 -3.4949
  555SOL    HW2 1665   0.537   2.848   2.412  0.9644  0.4798  2.0203
  556SOL     OW 1666   0.917   2.307   1.622 -1.3573 -0.3807 -0.4360
  556SOL    HW1 1667   0.960   2.386   1.669 -2.0661 -2.8518  1.6291
  556SOL    HW2 1668   0.949   2.287   1.525  0.2792 -0.5043 -0.1356
  557SOL     OW 1669   0.156   2.144   0.118 -0.1408 -0.2065  0.4074
  557SOL    HW1 1670   0.066   2.103   0.149 -0.9059 -3.3016 -1.9927
  557SOL    HW2 1671   0.153   2.173   0.023 -1.5106 -0.2611  1.1623
  558SOL     OW 1672   2.920   2.350   0.285 -0.2369 -0.2304  0.5371
  558SOL    HW1 1673   2.820   2.329   0.317 -0.2687  0.7121 -2.4217
  558SOL    HW2 1674   2.923   2.360   0.185  0.7903 -0.6355  2.3931
  559SOL     OW 1675   0.426   2.268   1.281  0.0148 -0.5088 -0.0036
  559SOL    HW1 1676   0.342   2.283   1.221  0.6586  1.1675  1.4328
  559SOL    HW2 1677   0.458   2.170   1.282 -2.6485 -0.7414 -0.7659
  560SOL     OW 1678   2.016   1.085   3.040 -0.3947  0.6145  1.0174
  560SOL    HW1 1679   2.038   1.158   2.968  1.1707 -0.5256  1.1277
  560SOL    HW2 1680   1.962   1.117   3.122  1.4201 -1.6671  1.7506
  561SOL     OW 1681   3.048   1.962   0.105  0.1476  0.1413 -0.0572
  561SOL    HW1 1682   3.014   1.865   0.113  0.5711  1.0028 -0.3314
  561SOL    HW2 1683   2.997   2.025   0.035  0.6944 -0.6006 -0.8047
  562SOL     OW 1684   0.825   2.185   2.453  0.3224 -0.1697  0.2571
  562SOL    HW1 1685   0.732   2.138   2.439  0.9700  3.0984  2.6883
  562SOL    HW2 1686   0.817   2.234   2.546 -2.5945 -0.5795  1.8091
  563SOL     OW 1687   0.743   2.543   2.527 -0.0403  0.6556 -0.2346
  563SOL    HW1 1688   0.808   2.482   2.474  1.0563  2.7390 -1.3202
  563SOL    HW2 1689   0.746   2.537   2.634 -0.8117  0.7740  2.5921
  564SOL     OW 1690   2.759   1.277   2.875  0.3561 -0.0549 -0.1418
  564SOL    HW1 1691   2.667   1.256   2.917  0.1152  0.1010 -1.1442
  564SOL    HW2 1692   2.784   1.377   2.881  2.2586 -0.5634 -0.4048
  565SOL     OW 1693   2.523   2.017   2.580 -0.1036 -0.2397 -0.6020
  565SOL    HW1 1694   2.464   2.099   2.555 -2.8783 -0.2640  0.9034
  565SOL    HW2 1695   2.616   2.044   2.621 -0.0545  1.4172 -0.3401
  566SOL     OW 1696   2.012   2.812   1.399 -0.6771  0.1316 -0.4157
  566SOL    HW1 1697   1.999   2.717   1.436  0.8983  0.5121 -1.5445
  566SOL    HW2 1698   2.048   2.816   1.299  1.4382  0.5581 -1.6378
  567SOL     OW 1699   2.463   0.149   2.238  0.1329 -0.0473  0.3098
  567SOL    HW1 1700   2.494   0.124   2.139 -0.7634 -0.5124 -1.0032
  567SOL    HW2 1701   2.368   0.190   2.246  1.3356  2.5096  1.9694
  568SOL     OW 1702   1.409   1.806   0.426 -0.1297  0.2018 -0.3193
  568SOL    HW1 1703   1.406   1.885   0.355 -0.9014  3.1205 -3.4440
  568SOL    HW2 1704   1.418   1.842   0.521  1.9785 -1.3233 -2.8570
  569SOL     OW 1705   0.279   0.683   0.795 -0.2232 -1.2717 -0.0946
  569SOL    HW1 1706   0.338   0.622   0.735 -1.4662  2.4837  1.4330
  569SOL    HW2 1707   0.186   0.652   0.793  5.8023 -1.3527 -0.0669
  570SOL     OW 1708   0.628   0.790   2.838 -0.2646  0.2025  0.2380
  570SOL    HW1 1709   0.684   0.783   2.748  1.3772 -0.0141  0.7717
  570SOL    HW2 1710   0.651   0.880   2.887  3.3573 -4.0909  0.9897
  571SOL     OW 1711   0.847   3.053   1.138 -0.4353  0.2112  0.1535
  571SOL    HW1 1712   0.831   3.127   1.065  2.0035  2.6230 -0.7192
  571SOL    HW2 1713   0.941   3.010   1.122 -1.3129 -0.1074 -2.9908
  572SOL     OW 1714   1.512   2.550   1.187 -0.1478 -0.2016 -0.3384
  572SOL    HW1 1715   1.441   2.485   1.223  1.6019 -0.3620  0.2619
  572SOL    HW2 1716   1.482   2.625   1.128  1.5253 -1.4259  0.0497
  573SOL     OW 1717   2.948   0.426   2.113 -0.2582 -0.3839  0.0718
  573SOL    HW1 1718   2.909   0.331   2.111  3.1351  0.9618  0.7152
  573SOL    HW2 1719   2.894   0.501   2.065 -0.2699  2.4489  1.7698
  574SOL     OW 1720   0.245   1.817   1.046 -0.0794  0.3426 -0.3657
  574SOL    HW1 1721   0.242   1.913   1.013 -0.9047 -0.8902 -0.6190
  574SOL    HW2 1722   0.154   1.785   1.080  0.4438  1.4187  0.9523
  575SOL     OW 1723   0.916   2.150   1.005 -0.0504 -0.3832 -0.1913
  575SOL    HW1 1724   0.868   2.150   1.095 -1.4625 -0.5011 -2.2728
  575SOL    HW2 1725   1.013   2.184   1.014  0.4296 -0.1853  1.5565
  576SOL     OW 1726   2.922   2.894   1.707  0.5812 -0.2107  0.0520
  576SOL    HW1 1727   2.837   2.836   1.681 -1.3225  0.8649  1.2543
  576SOL    HW2 1728   2.915   2.995   1.686  4.1546 -1.7725 -0.6997
  577SOL     OW 1729   2.554   1.258   3.042  0.4572 -0.1920 -0.0416
  577SOL    HW1 1730   2.530   1.163   3.011 -0.9022 -1.0253  0.1645
  577SOL    HW2 1731   2.592   1.268   3.137 -3.3836 -0.3321 -1.1262
  578SOL     OW 1732   1.339   2.760   2.568  0.2247 -0.8069 -0.0053
  578SOL    HW1 1733   1.258   2.729   2.507 -2.2109 -0.2698 -2.7243
  578SOL    HW2 1734   1.367   2.862   2.546  1.2246  0.0416  1.6826
  579SOL     OW 1735   0.126   2.562   0.154  0.2737 -0.2250  0.1589
  579SOL    HW1 1736   0.054   2.571   0.233 -0.6677 -0.7510  1.3296
  579SOL    HW2 1737   0.186   2.480   0.170 -2.5237 -1.0706 -1.2804
  580SOL     OW 1738   0.991   2.689   0.355  0.4756 -0.6504 -0.3119
  580SOL    HW1 1739   1.078   2.718   0.305  1.7614  1.4840  0.1869
  580SOL    HW2 1740   0.934   2.628   0.297  0.4563  1.7218 -1.6303
  581SOL     OW 1741   1.264   2.581   1.485 -0.7451  0.4843  0.6160
  581SOL    HW1 1742   1.270   2.486   1.441 -1.2588  0.3244 -2.6125
  581SOL    HW2 1743   1.293   2.656   1.422 -0.3778 -2.1466 -0.6534
  582SOL     OW 1744   1.519   0.054   1.872 -0.5840 -0.3975  0.1670
  582SOL    HW1 1745   1.554   0.128   1.938  0.8702  2.2585  3.7819
  582SOL    HW2 1746   1.587   0.034   1.790  1.4441 -0.8510 -1.0659
  583SOL     OW 1747   2.418   2.993   0.595  0.5715  0.4005 -0.0415
  583SOL    HW1 1748   2.481   2.940   0.529 -0.2160 -1.2736 -0.1632
  583SOL    HW2 1749   2.368   2.923   0.656  1.4678 -0.8202  2.6182
  584SOL     OW 1750   1.542   0.966   2.103 -0.0070 -0.4317 -0.0833
  584SOL    HW1 1751   1.606   1.024   2.050 -0.7497 -0.3940  2.0196
  584SOL    HW2 1752   1.567   0.947   2.200 -3.3650  0.9912  1.3815
  585SOL     OW 1753   2.135   2.657   2.924  0.5655 -0.1514  0.6667
  585SOL    HW1 1754   2.157   2.560   2.889  2.6925 -3.1757 -1.0163
  585SOL    HW2 1755   2.040   2.684   2.903  0.6189 -1.4094 -0.7154
  586SOL     OW 1756   2.800   0.226   1.556  0.4318  0.1920  0.9013
  586SOL    HW1 1757   2.785   0.323   1.594  0.4581  2.9831 -2.1386
  586SOL    HW2 1758   2.709   0.164   1.554 -0.0210 -0.0896 -1.4788
  587SOL     OW 1759   2.006   1.622   2.735 -0.3773  0.0684 -0.0697
  587SOL    HW1 1760   2.070   1.560   2.673  1.5466 -0.5669  2.6865
  587SOL    HW2 1761   2.037   1.630   2.833  1.8688 -0.2619 -1.1359
  588SOL     OW 1762   0.490   2.700   2.227  0.5146  0.3782 -0.2969
  588SOL    HW1 1763   0.422   2.701   2.147 -1.0980 -0.3944  1.6785
  588SOL    HW2 1764   0.461   2.631   2.296  3.2679 -0.5112 -1.1843
  589SOL     OW 1765   2.132   1.466   2.545  0.4730 -0.0445 -0.1465
  589SOL    HW1 1766   2.058   1.418   2.483  1.4155 -2.5518 -2.0520
  589SOL    HW2 1767   2.220   1.413   2.554 -0.0859 -0.7529  1.0972
  590SOL     OW 1768   2.355   1.733   1.995  0.1355 -0.6913 -0.4071
  590SOL    HW1 1769   2.417   1.652   1.986  3.0665 -1.6280 -1.5901
  590SOL    HW2 1770   2.379   1.796   2.075 -1.0232 -1.0249  0.5350
  591SOL     OW 1771   1.336   2.491   0.313  0.2675 -0.3286 -0.0403
  591SOL    HW1 1772   1.402   2.450   0.241  1.6429  0.7591  0.2356
  591SOL    HW2 1773   1.345   2.433   0.397  1.2603  0.8198  1.3656
  592SOL     OW 1774   1.681   2.316   0.773 -0.1260 -0.0633 -0.3815
  592SOL    HW1 1775   1.655   2.388   0.706 -2.1734 -0.4909  4.4009
  592SOL    HW2 1776   1.774   2.325   0.819  1.8711  1.2592  1.2723
  593SOL     OW 1777   0.545   0.209   3.012  0.4717 -0.5580  0.3047
  593SOL    HW1 1778   0.648   0.192   3.006  1.1411  0.3205 -2.0342
  593SOL    HW2 1779   0.521   0.280   3.084 -2.4093  2.1224  1.5028
  594SOL     OW 1780   0.893   1.927   2.727 -0.3326  0.3282 -0.7439
  594SOL    HW1 1781   0.978   1.987   2.732 -0.0299 -1.0290 -2.7956
  594SOL    HW2 1782   0.810   1.988   2.727 -0.7911  2.7553 -0.5781
  595SOL     OW 1783   1.552   0.014   1.034 -0.3122  0.8350  0.7851
  595SOL    HW1 1784   1.651  -0.017   1.025  0.8779  2.0485 -0.3141
  595SOL    HW2 1785   1.484  -0.027   0.970 -1.0072 -0.0383  3.1726
  596SOL     OW 1786   3.072   1.473   2.214  0.2543 -0.0145 -0.0244
  596SOL    HW1 1787   2.983   1.527   2.234  1.9021 -1.9698  1.6434
  596SOL    HW2 1788   3.112   1.440   2.297 -2.5988  5.0504 -0.9212
  597SOL     OW 1789   2.087   2.632   1.629  0.8082 -0.1620  0.3347
  597SOL    HW1 1790   2.121   2.565   1.552 -0.5646 -1.1732 -3.4996
  597SOL    HW2 1791   2.156   2.632   1.710 -0.1395  1.6334  0.9335
  598SOL     OW 1792   2.576   2.908   1.192 -0.3400  0.0501 -0.0348
  598SOL    HW1 1793   2.637   2.958   1.257 -3.8573 -1.0420  1.8201
  598SOL    HW2 1794   2.617   2.885   1.102 -1.6772  2.1155  0.2143
  599SOL     OW 1795   2.935   0.345   2.397  0.2179  0.1938 -0.0432
  599SOL    HW1 1796   3.023   0.351   2.342 -0.2253  0.4128 -3.3928
  599SOL    HW2 1797   2.870   0.427   2.382  0.5683  1.4074 -0.8659
  600SOL     OW 1798   2.824   1.041   2.757  0.4094 -0.1777 -0.3124
  600SOL    HW1 1799   2.806   0.970   2.833 -0.0807 -0.8443 -4.4880
  600SOL    HW2 1800   2.787   1.136   2.787 -1.1688 -0.0020 -0.0783
  601SOL     OW 1801   2.936   1.252   2.063  0.3766 -0.9597  0.1196
  601SOL    HW1 1802   2.851   1.276   2.004 -1.7761 -0.8534  1.1828
  601SOL    HW2 1803   2.974   1.334   2.105 -0.5041 -0.9963  0.6087
  602SOL     OW 1804   1.528   1.670   2.362  0.1574  0.0039  0.1751
  602SOL    HW1 1805   1.475   1.586   2.373  1.5684  2.6239 -2.1829
  602SOL    HW2 1806   1.630   1.654   2.381 -3.7593  0.0819 -1.3391
  603SOL     OW 1807   0.684   1.271   2.602 -0.6232  0.1963  0.3473
  603SOL    HW1 1808   0.618   1.243   2.523 -0.5944  1.0292  2.1034
  603SOL    HW2 1809   0.747   1.185   2.628 -1.1724 -3.2624  0.5261
  604SOL     OW 1810   2.391   0.973   0.174  0.1431 -0.7041 -0.0617
  604SOL    HW1 1811   2.417   1.039   0.095  2.1625  0.7713 -0.2199
  604SOL    HW2 1812   2.388   0.874   0.145  1.3468  0.5275  1.0074
  605SOL     OW 1813   2.622   1.129   1.977  0.4747 -0.5265  0.1595
  605SOL    HW1 1814   2.612   1.045   1.918  0.0595 -1.3608 -0.7534
  605SOL    HW2 1815   2.619   1.107   2.077 -0.2445  1.6771 -0.7035
  606SOL     OW 1816   1.533   2.524   2.586  0.0142  0.4923 -0.2073
  606SOL    HW1 1817   1.453   2.589   2.587 -0.9274  0.0240 -1.3949
  606SOL    HW2 1818   1.511   2.419   2.575  0.6196  0.0431 -0.9407
  607SOL     OW 1819   1.346   1.543   0.448 -0.0300  0.0555  0.5691
  607SOL    HW1 1820   1.292   1.503   0.531 -1.1556 -1.2897  3.5028
  607SOL    HW2 1821   1.332   1.646   0.424 -1.9968  0.9766 -0.4192
  608SOL     OW 1822   1.402   2.901   0.426  0.5868 -0.0812 -0.0304
  608SOL    HW1 1823   1.458   2.943   0.346  2.2069  0.6365 -1.1154
  608SOL    HW2 1824   1.333   2.969   0.469 -3.0981  1.3619 -1.5275
  609SOL     OW 1825   1.327   1.332   0.255  0.7187  0.0192  0.0800
  609SOL    HW1 1826   1.339   1.406   0.326  1.5955 -0.1807  1.5577
  609SOL    HW2 1827   1.241   1.341   0.193 -0.5099  1.4240  0.3348
  610SOL     OW 1828   2.993   1.069   2.250  0.1533  0.6297  0.0444
  610SOL    HW1 1829   2.967   0.969   2.233 -0.7548  0.2298 -1.6754
  610SOL    HW2 1830   2.971   1.136   2.175  0.6802  0.0792 -0.5641
  611SOL     OW 1831   2.511   0.338   1.240 -0.0537 -0.2570  0.2246
  611SOL    HW1 1832   2.492   0.241   1.208 -0.7850 -0.5495 -2.4641
  611SOL    HW2 1833   2.610   0.351   1.272 -1.2926  0.6249  0.1064
  612SOL     OW 1834   0.754   2.134   1.261  0.1286  0.1504 -0.0118
  612SOL    HW1 1835   0.682   2.061   1.250  0.6775  1.7483  0.7784
  612SOL    HW2 1836   0.719   2.230   1.229  0.7929  2.8289 -1.4535
  613SOL     OW 1837   0.903   1.413   2.396 -0.6014  0.3903  0.0130
  613SOL    HW1 1838   0.979   1.443   2.326  0.8740  1.2064  0.6428
  613SOL    HW2 1839   0.828   1.351   2.360 -0.0509  0.0487  1.7895
  614SOL     OW 1840   1.666   1.530   1.792  0.2545  0.1090  0.5974
  614SOL    HW1 1841   1.615   1.615   1.757  0.1846  0.5019  0.5472
  614SOL    HW2 1842   1.735   1.554   1.863 -0.9765 -0.7464  0.1983
  615SOL     OW 1843   0.787   1.271   1.756 -0.1425 -0.2954  0.1051
  615SOL    HW1 1844   0.704   1.235   1.695 -1.7104 -0.9013 -0.7739
  615SOL    HW2 1845   0.826   1.363   1.718 -2.0990 -1.6243  1.6636
  616SOL     OW 1846   1.030   1.560   2.192  0.4518 -0.6205  0.7727
  616SOL    HW1 1847   0.950   1.580   2.128  3.7210  0.5633  0.5811
  616SOL    HW2 1848   1.081   1.649   2.220  0.2064 -1.1740  2.4012
  617SOL     OW 1849   2.955   1.514   1.611 -0.0487 -0.0231  0.3317
  617SOL    HW1 1850   2.979   1.431   1.672  1.0795  1.8868  0.3296
  617SOL    HW2 1851   2.990   1.508   1.513 -3.1030 -1.1814  0.6226
  618SOL     OW 1852   1.861   2.047   1.379 -0.2449  0.5451 -0.0335
  618SOL    HW1 1853   1.851   2.137   1.327  1.3785  2.3390 -0.6318
  618SOL    HW2 1854   1.841   1.967   1.315 -0.5079  1.5611  1.7688
  619SOL     OW 1855   1.755   0.451   2.380  0.2586  0.3523  0.1706
  619SOL    HW1 1856   1.684   0.496   2.325  1.6621  2.4562 -1.1741
  619SOL    HW2 1857   1.729   0.349   2.384 -0.9526 -0.8931  2.0203
  620SOL     OW 1858   2.259   2.820   0.761 -0.0337  0.2906  0.5304
  620SOL    HW1 1859   2.155   2.811   0.767 -0.4240 -0.9644 -1.2285
  620SOL    HW2 1860   2.307   2.738   0.796 -0.3880  0.5337 -1.3533
  621SOL     OW 1861   2.196   1.917   1.347 -0.5052 -0.3209  0.4358
  621SOL    HW1 1862   2.208   1.944   1.447 -0.5788 -1.3960 -0.0378
  621SOL    HW2 1863   2.117   1.847   1.339 -1.5904 -0.5233 -0.5280
  622SOL     OW 1864   2.318   0.962   1.864  0.0118  0.1856  0.4843
  622SOL    HW1 1865   2.413   0.942   1.821  1.2247  0.3906 -2.1920
  622SOL    HW2 1866   2.292   0.882   1.921  1.6962  2.8010  0.1491
  623SOL     OW 1867   1.246   0.832   2.529  0.4138  0.1213 -0.0708
  623SOL    HW1 1868   1.203   0.735   2.545 -1.3560  0.1191 -2.2165
  623SOL    HW2 1869   1.215   0.881   2.441 -1.7273 -1.3470  0.2370
  624SOL     OW 1870   0.494   0.664   3.039 -0.2624 -0.0482  0.6955
  624SOL    HW1 1871   0.576   0.686   2.982  0.8200 -1.0173  1.1320
  624SOL    HW2 1872   0.487   0.732   3.117 -1.0270  1.1180  0.2532
  625SOL     OW 1873   2.749   1.718   0.998  0.3177  0.1676  0.3392
  625SOL    HW1 1874   2.660   1.770   0.999  1.0655  0.5131 -1.0066
  625SOL    HW2 1875   2.829   1.769   1.037  0.2571 -0.3768  0.4889
  626SOL     OW 1876   0.653   2.673   1.726 -0.2657 -0.0012 -0.3136
  626SOL    HW1 1877   0.705   2.721   1.801  1.4873  1.2207 -0.6921
  626SOL    HW2 1878   0.556   2.706   1.728  0.3583  1.5631 -0.7521
  627SOL     OW 1879   0.685   0.832   1.672 -0.0480 -0.1663 -0.6154
  627SOL    HW1 1880   0.614   0.775   1.628 -0.2576  2.6422  2.6922
  627SOL    HW2 1881   0.729   0.902   1.606 -1.1312  1.3616  0.8581
  628SOL     OW 1882   2.387   0.132   0.735  0.2258  0.2555 -0.8054
  628SOL    HW1 1883   2.435   0.054   0.682  1.9630  0.8423  1.0476
  628SOL    HW2 1884   2.290   0.113   0.755  2.0362  1.7340 -1.1932
  629SOL     OW 1885   1.913   0.933   1.980 -0.1062 -0.0252 -0.2592
  629SOL    HW1 1886   1.929   1.026   1.941 -1.1326 -1.4317  0.9477
  629SOL    HW2 1887   1.921   0.921   2.081  1.2024  1.5951 -2.3923
  630SOL     OW 1888   2.903   2.213   0.814  0.1129  0.3641  0.5193
  630SOL    HW1 1889   2.834   2.290   0.829  1.2725  1.0251 -2.4374
  630SOL    HW2 1890   2.851   2.123   0.803 -1.2010 -0.8994 -1.5273
  631SOL     OW 1891   3.074   0.124   2.081  1.0371  0.7273  0.0263
  631SOL    HW1 1892   3.137   0.169   2.147 -0.1111 -0.7954 -0.7530
  631SOL    HW2 1893   3.124   0.093   1.993  0.6708  1.3875 -0.6160
  632SOL     OW 1894   2.415   2.571   0.641  1.1475 -0.2798 -0.3910
  632SOL    HW1 1895   2.477   2.643   0.678 -1.0829  0.2637 -2.2608
  632SOL    HW2 1896   2.349   2.617   0.571 -1.3449  2.2777 -0.0986
  633SOL     OW 1897   1.492   1.261   2.679 -0.5405  0.0418  0.4717
  633SOL    HW1 1898   1.464   1.339   2.740 -0.6935 -1.3331 -0.3926
  633SOL    HW2 1899   1.412   1.244   2.609 -0.5800 -3.0149  0.8978
  634SOL     OW 1900   0.690   2.076   0.848 -0.5711 -0.2160  0.1666
  634SOL    HW1 1901   0.603   2.071   0.906 -0.5904 -0.1146  0.8216
  634SOL    HW2 1902   0.772   2.134   0.882  0.1549 -0.9341 -0.2933
  635SOL     OW 1903   3.073   2.380   0.016 -0.1247 -0.2560 -0.3909
  635SOL    HW1 1904   2.992   2.433  -0.027 -0.5589  0.1782 -0.0993
  635SOL    HW2 1905   3.147   2.443   0.057  2.0593 -1.3119 -1.6873
  636SOL     OW 1906   2.367   2.685   2.062  0.0646  0.1664 -0.3393
  636SOL    HW1 1907   2.366   2.788   2.074  2.7632 -3.0366 -0.2937
  636SOL    HW2 1908   2.304   2.640   2.133  0.6342  0.9740 -1.4685
  637SOL     OW 1909   2.721   0.621   1.992  0.3621  0.6496  0.1694
  637SOL    HW1 1910   2.641   0.627   1.930  1.9722  1.2317  2.3693
  637SOL    HW2 1911   2.796   0.693   1.974 -1.6517 -1.1479 -0.0634
  638SOL     OW 1912   2.456   1.867   1.311  0.2212 -0.2251  0.0685
  638SOL    HW1 1913   2.356   1.894   1.322  0.9649  1.5510 -0.5766
  638SOL    HW2 1914   2.492   1.801   1.384 -1.5393  1.7635  1.2066
  639SOL     OW 1915   1.261   2.214   1.647  0.7742  0.3846  0.1963
  639SOL    HW1 1916   1.322   2.295   1.662 -0.0827 -0.3290 -0.9867
  639SOL    HW2 1917   1.231   2.167   1.733  0.8602 -0.2631  0.4178
  640SOL     OW 1918   0.185   1.210   1.546  0.4012 -0.7241  0.1240
  640SOL    HW1 1919   0.177   1.240   1.647 -0.3211 -0.5327  1.7586
  640SOL    HW2 1920   0.258   1.136   1.524  0.9720 -0.1652  1.0685
  641SOL     OW 1921   1.964   0.234   1.527 -0.4213 -0.3328 -0.1586
  641SOL    HW1 1922   1.925   0.268   1.614  1.3343  0.1092 -1.7619
  641SOL    HW2 1923   2.065   0.206   1.539  1.1030 -0.7841 -0.3941
  642SOL     OW 1924   2.038   0.011   0.323  0.0131  0.4850 -0.6186
  642SOL    HW1 1925   2.134   0.020   0.357 -1.6927  1.3220  2.5413
  642SOL    HW2 1926   1.975   0.009   0.402 -1.0132  3.0653 -0.6587
  643SOL     OW 1927   2.893   1.949   2.150 -0.0169  0.3107 -0.1424
  643SOL    HW1 1928   2.860   1.850   2.160 -0.2253  1.1291  1.1381
  643SOL    HW2 1929   2.879   1.990   2.054  2.0685 -0.2615 -0.1478
  644SOL     OW 1930   2.287   2.427   1.237 -0.0786  0.2072 -0.2483
  644SOL    HW1 1931   2.355   2.388   1.173 -2.1343  2.7410  0.1320
  644SOL    HW2 1932   2.291   2.400   1.335 -0.7073  0.1685 -0.5668
  645SOL     OW 1933   0.683   0.849   1.250 -0.3006 -0.1857  0.0823
  645SOL    HW1 1934   0.588   0.878   1.268  1.8521  1.2138 -0.2518
  645SOL    HW2 1935   0.704   0.818   1.153 -1.5205  1.4721 -0.3311
  646SOL     OW 1936   1.514   1.807   2.039 -0.1827  0.4271  0.1265
  646SOL    HW1 1937   1.580   1.836   1.962 -0.3456  0.4798 -0.9347
  646SOL    HW2 1938   1.555   1.784   2.131 -0.8197 -1.3310  0.7191
  647SOL     OW 1939   0.788   1.100   0.647  0.6955  0.6165  0.1582
  647SOL    HW1 1940   0.852   1.122   0.728  0.8213  1.5626  1.6320
  647SOL    HW2 1941   0.739   1.007   0.656  0.2044 -0.1989  0.8973
  648SOL     OW 1942   0.183   0.211   0.364  0.1418 -0.1176 -0.4173
  648SOL    HW1 1943   0.179   0.110   0.333 -0.3700  1.1567 -0.4659
  648SOL    HW2 1944   0.150   0.282   0.294 -1.9706 -0.7388  0.2411
  649SOL     OW 1945   2.990   0.269   0.879 -0.1186 -0.1765 -0.8264
  649SOL    HW1 1946   3.056   0.230   0.807  0.7037 -1.5439 -0.4460
  649SOL    HW2 1947   3.020   0.365   0.909 -0.5428  1.2398 -0.9739
  650SOL     OW 1948   2.818   0.707   1.511  0.0099 -0.5856  0.2358
  650SOL    HW1 1949   2.726   0.672   1.482  1.8801  1.1004  2.8586
  650SOL    HW2 1950   2.822   0.802   1.475 -0.2013 -1.7964 -1.2494
  651SOL     OW 1951   0.870   1.509   1.683 -0.1160  0.4132  0.3683
  651SOL    HW1 1952   0.876   1.551   1.777  0.9786  1.4994 -0.6433
  651SOL    HW2 1953   0.953   1.527   1.625  0.6827 -1.1224 -0.2197
  652SOL     OW 1954   2.362   2.504   2.487  0.3538 -0.4300 -0.7840
  652SOL    HW1 1955   2.276   2.563   2.507 -1.3419 -0.8077 -0.2817
  652SOL    HW2 1956   2.400   2.501   2.389 -2.0988 -1.2989 -1.3872
  653SOL     OW 1957   2.694   1.269   0.191  0.0443 -0.1268 -0.1590
  653SOL    HW1 1958   2.728   1.354   0.239  0.8180  1.0299  0.1081
  653SOL    HW2 1959   2.765   1.197   0.177 -0.6070 -1.0228  1.9697
  654SOL     OW 1960   1.240   2.148   1.269  0.4757  1.0045  0.0826
  654SOL    HW1 1961   1.249   2.090   1.353 -0.3359  0.8540  3.4260
  654SOL    HW2 1962   1.283   2.113   1.184  0.8497  0.7794  0.8869
  655SOL     OW 1963   0.176   0.995   1.937 -0.3866  0.2141 -0.1556
  655SOL    HW1 1964   0.216   0.925   1.874 -1.2847 -1.3388 -0.5958
  655SOL    HW2 1965   0.184   1.095   1.907 -0.8552  2.4175  2.2667
  656SOL     OW 1966   2.589   2.542   2.633  0.6651  0.3634  0.2802
  656SOL    HW1 1967   2.683   2.543   2.587  0.1519  0.3928 -0.4827
  656SOL    HW2 1968   2.509   2.502   2.577 -1.3005 -1.9220 -0.6279
  657SOL     OW 1969   3.025   1.055   1.872 -0.0754 -0.3628 -0.6617
  657SOL    HW1 1970   2.992   1.106   1.956 -1.5788 -0.7699  0.7075
  657SOL    HW2 1971   3.119   1.019   1.889 -2.0166  2.3885  0.9466
  658SOL     OW 1972   1.663   0.180   2.384 -0.0295 -0.0423 -0.3417
  658SOL    HW1 1973   1.737   0.139   2.446  0.3782  2.1742  1.7086
  658SOL    HW2 1974   1.624   0.108   2.315 -0.8168  0.1835  0.8965
  659SOL     OW 1975   1.437   0.657   2.802 -0.4238 -0.3839  0.1391
  659SOL    HW1 1976   1.489   0.689   2.715 -4.0872 -1.3670  0.1327
  659SOL    HW2 1977   1.343   0.706   2.814 -1.9881  0.2392  0.4081
  660SOL     OW 1978   1.457   0.309   1.411  0.2337  0.2856 -0.1089
  660SOL    HW1 1979   1.483   0.346   1.504  2.8821 -4.7736  0.0375
  660SOL    HW2 1980   1.496   0.212   1.403  2.4277 -0.5709  0.2774
  661SOL     OW 1981   2.407   1.273   0.638  0.5368 -0.2658 -0.3338
  661SOL    HW1 1982   2.435   1.258   0.542  1.2967 -1.0845  3.2490
  661SOL    HW2 1983   2.340   1.348   0.656 -2.3704  0.4136  0.4140
  662SOL     OW 1984   1.465   0.383   1.705  0.0836  0.8082 -0.3507
  662SOL    HW1 1985   1.391   0.334   1.766 -3.1931 -0.6537 -0.2172
  662SOL    HW2 1986   1.459   0.486   1.719  2.5644 -0.6637 -0.3814
  663SOL     OW 1987   0.855   1.591   1.941  0.2375 -0.2902 -0.3773
  663SOL    HW1 1988   0.844   1.675   2.001  0.1397  0.1821  1.1813
  663SOL    HW2 1989   0.789   1.515   1.958  3.6645  0.1833 -0.1968
  664SOL     OW 1990   1.581   2.100   1.423 -0.4354 -0.2047  0.5491
  664SOL    HW1 1991   1.492   2.054   1.461  0.2287 -0.9968 -0.0475
  664SOL    HW2 1992   1.664   2.042   1.437 -0.8107 -2.3104 -2.8062
  665SOL     OW 1993   2.257   0.683   1.976 -0.1353  0.0511 -0.1970
  665SOL    HW1 1994   2.215   0.588   1.991  1.1829  1.1585 -0.6140
  665SOL    HW2 1995   2.320   0.704   2.055 -0.1474  0.4631  0.2316
  666SOL     OW 1996   0.453   2.233   0.347  0.4223  0.2379 -0.0666
  666SOL    HW1 1997   0.519   2.293   0.401 -1.5778  0.6189 -2.1001
  666SOL    HW2 1998   0.354   2.258   0.365 -0.7740 -3.1371 -1.2822
  667SOL     OW 1999   1.986   0.213   1.063 -0.5254 -0.2960 -0.4069
  667SOL    HW1 2000   1.957   0.315   1.059  0.2554  0.6702 -1.9387
  667SOL    HW2 2001   1.946   0.162   1.146 -3.1856  1.9384 -1.1081
  668SOL     OW 2002   1.981   0.509   1.087 -0.6179  0.2145  0.1432
  668SOL    HW1 2003   2.062   0.517   1.022  1.8518 -1.1177 -2.9672
  668SOL    HW2 2004   2.000   0.502   1.189 -0.8602  1.3168 -1.1459
  669SOL     OW 2005   3.045   2.153   1.026 -0.7177  0.3112 -0.1242
  669SOL    HW1 2006   2.992   2.177   0.941  0.5571 -0.8662  1.9193
  669SOL    HW2 2007   3.016   2.215   1.107 -2.5764 -2.5467  0.8152
  670SOL     OW 2008   2.922   2.328   2.103 -0.0890  0.0608 -0.3448
  670SOL    HW1 2009   2.836   2.330   2.162  1.3192 -2.5576  3.1097
  670SOL    HW2 2010   2.937   2.419   2.052  2.2880  0.0610 -2.1064
  671SOL     OW 2011   1.788   1.709   1.490  0.6688  0.6059 -0.0742
  671SOL    HW1 2012   1.799   1.765   1.406 -1.5351 -1.4715  0.5906
  671SOL    HW2 2013   1.702   1.653   1.487 -0.4731  4.9024  0.9754
  672SOL     OW 2014   0.430   0.654   2.582  0.3264 -0.4818 -0.1979
  672SOL    HW1 2015   0.367   0.704   2.521  0.0694  0.2806 -1.9452
  672SOL    HW2 2016   0.428   0.686   2.684 -0.2310  0.6108  1.0615
  673SOL     OW 2017   0.105   1.379   1.071  0.3909 -0.0593 -0.0662
  673SOL    HW1 2018   0.121   1.390   1.170 -1.4487 -0.7737 -2.3104
  673SOL    HW2 2019   0.182   1.404   1.009  1.5386 -2.3626  0.4816
  674SOL     OW 2020   1.607   2.978   0.256  0.5754  0.0194  0.0501
  674SOL    HW1 2021   1.633   3.039   0.174 -1.4360  0.5158  0.4615
  674SOL    HW2 2022   1.621   2.877   0.233 -1.1024 -2.1485 -0.0059
  675SOL     OW 2023   1.679   0.866   2.334  0.7398 -0.0346  0.0360
  675SOL    HW1 2024   1.778   0.882   2.310 -1.9594  0.5402  0.7190
  675SOL    HW2 2025   1.649   0.766   2.316  0.5078 -1.0473 -0.2278
  676SOL     OW 2026   2.552   1.547   1.999 -0.2503 -0.0067  0.1307
  676SOL    HW1 2027   2.544   1.499   1.905  1.5453 -3.7693 -0.6777
  676SOL    HW2 2028   2.563   1.474   2.070  0.4642  2.4293 -1.9921
  677SOL     OW 2029   1.867   0.712   0.888  0.2171 -0.6977 -0.1921
  677SOL    HW1 2030   1.774   0.734   0.933  0.1543 -1.6433  0.6990
  677SOL    HW2 2031   1.930   0.653   0.946  1.6046  2.9167  2.7268
  678SOL     OW 2032   0.080   0.794   1.643 -0.2437 -1.0206 -0.3657
  678SOL    HW1 2033   0.182   0.794   1.671  0.0867 -0.8787  2.1896
  678SOL    HW2 2034   0.018   0.753   1.714 -0.4852  0.2040  1.0651
  679SOL     OW 2035   2.581   1.116   1.196  0.2700  0.6816 -0.3292
  679SOL    HW1 2036   2.487   1.160   1.215  1.5646  0.3767 -0.0579
  679SOL    HW2 2037   2.575   1.015   1.182 -0.6210  0.2472 -1.4207
  680SOL     OW 2038   2.841   0.494   1.685  0.4339 -0.9130  0.0370
  680SOL    HW1 2039   2.847   0.567   1.612 -0.3134 -2.8564 -0.5443
  680SOL    HW2 2040   2.902   0.517   1.770  2.4071 -2.6854  0.2668
  681SOL     OW 2041   2.994   0.028   1.568  0.0360  0.6144  0.5274
  681SOL    HW1 2042   2.977  -0.040   1.487  1.9281 -0.8273  0.1299
  681SOL    HW2 2043   2.921   0.104   1.564 -0.0883  1.8564  1.2122
  682SOL     OW 2044   0.650   0.041   1.281  0.1886 -0.3812  0.5344
  682SOL    HW1 2045   0.606  -0.018   1.352 -0.8141  0.9284 -2.1787
  682SOL    HW2 2046   0.726  -0.010   1.233  0.7096 -1.3532  0.8675
  683SOL     OW 2047   1.381   0.232   2.135 -0.0963 -0.6163 -0.3862
  683SOL    HW1 2048   1.373   0.264   2.231  0.2321  3.7726  0.1726
  683SOL    HW2 2049   1.474   0.247   2.095 -0.8040  1.1100 -0.4086
  684SOL     OW 2050   1.421   2.170   0.575 -0.0940 -0.1983 -0.1239
  684SOL    HW1 2051   1.480   2.109   0.637 -0.5616 -2.6018  1.1655
  684SOL    HW2 2052   1.328   2.125   0.553  0.9411 -0.2257 -0.1147
  685SOL     OW 2053   2.260   2.081   1.975 -0.2452  0.2290 -0.2937
  685SOL    HW1 2054   2.342   2.027   1.946 -0.4365  0.5585 -1.2160
  685SOL    HW2 2055   2.267   2.137   2.064  1.0110  0.5873  1.0763
  686SOL     OW 2056   1.539   1.882   2.940 -0.4722 -0.0540 -0.2679
  686SOL    HW1 2057   1.576   1.838   3.025 -0.4734 -0.2854 -2.8271
  686SOL    HW2 2058   1.437   1.868   2.933 -0.1016 -0.1427  0.0653
  687SOL     OW 2059   1.352   2.395   1.954 -0.4451  0.3488  0.0720
  687SOL    HW1 2060   1.379   2.295   1.977 -0.6807 -3.1737  0.5445
  687SOL    HW2 2061   1.355   2.461   2.032 -2.5349 -0.8184  0.1570
  688SOL     OW 2062   2.094   1.489   1.734  0.1831  0.4433 -0.1931
  688SOL    HW1 2063   2.176   1.553   1.712  0.7357 -1.4745 -1.1464
  688SOL    HW2 2064   2.040   1.466   1.648 -1.1870  0.5990  0.8485
  689SOL     OW 2065   2.385   1.132   2.766  0.7577  0.3839 -0.3026
  689SOL    HW1 2066   2.290   1.086   2.789  0.1802 -0.7823 -2.8415
  689SOL    HW2 2067   2.453   1.104   2.840 -0.7011  1.4092  0.2877
  690SOL     OW 2068   2.197   2.754   0.063 -0.4529  0.2055 -0.6728
  690SOL    HW1 2069   2.182   2.711  -0.031  2.6099  1.6300  1.1274
  690SOL    HW2 2070   2.113   2.757   0.112  2.7722 -0.0296 -0.8167
  691SOL     OW 2071   2.569   0.423   2.123  0.1928  0.5220 -0.2485
  691SOL    HW1 2072   2.602   0.328   2.143  0.0062  2.0818 -0.9513
  691SOL    HW2 2073   2.629   0.474   2.060 -1.4845  1.6203  0.4671
  692SOL     OW 2074   2.668   1.220   0.774 -0.2018 -0.4064 -0.0858
  692SOL    HW1 2075   2.577   1.242   0.735  0.8071  1.5472 -1.5868
  692SOL    HW2 2076   2.707   1.302   0.823  0.8001 -1.3131  0.6838
  693SOL     OW 2077   2.851   2.935   0.613 -0.2984  0.2315  0.5968
  693SOL    HW1 2078   2.861   3.004   0.689 -2.2574  2.0349  1.2441
  693SOL    HW2 2079   2.837   2.977   0.518 -3.9195  1.0269  0.5539
  694SOL     OW 2080   2.389   2.234   0.163  0.4551 -1.0298  0.1450
  694SOL    HW1 2081   2.362   2.335   0.176 -1.6442  2.6511 -0.2360
  694SOL    HW2 2082   2.311   2.179   0.126 -0.3722 -1.9186  1.1443
  695SOL     OW 2083   0.474   2.999   1.458  0.1398 -0.2132 -0.2886
  695SOL    HW1 2084   0.418   2.938   1.400  0.8251 -0.0903  2.5251
  695SOL    HW2 2085   0.428   3.034   1.542  1.5860  2.2457 -1.7021
  696SOL     OW 2086   2.769   1.972   0.745  0.1921 -0.0901 -0.1999
  696SOL    HW1 2087   2.837   1.901   0.783  1.9636 -3.2976 -1.0823
  696SOL    HW2 2088   2.773   1.988   0.642 -0.8344  2.0935 -0.0238
  697SOL     OW 2089   1.677   1.868   1.814 -0.0906 -0.2947  0.0020
  697SOL    HW1 2090   1.767   1.822   1.789 -2.1007 -0.6664  1.5998
  697SOL    HW2 2091   1.684   1.974   1.824  0.4041  0.6365  0.2091
  698SOL     OW 2092   2.902   0.434   2.658 -0.7267  0.1226  0.3238
  698SOL    HW1 2093   2.946   0.417   2.565  2.9273  0.5417  0.1426
  698SOL    HW2 2094   2.943   0.371   2.728 -1.3327  0.4517  1.8684
  699SOL     OW 2095   1.562   0.084   2.916 -0.1687  0.0566 -0.4146
  699SOL    HW1 2096   1.525  -0.001   2.868 -0.2260 -1.5491 -0.1497
  699SOL    HW2 2097   1.621   0.145   2.858  0.6900  0.0240  0.2645
  700SOL     OW 2098   0.991   2.237   1.356 -0.4504  0.3242  0.4006
  700SOL    HW1 2099   1.088   2.198   1.333  2.6028 -0.7739 -0.1606
  700SOL    HW2 2100   0.928   2.156   1.338  2.0813 -0.8800  0.6701
  701SOL     OW 2101   1.907   2.846   0.056 -0.0828 -0.0109  0.1533
  701SOL    HW1 2102   1.891   2.786   0.139 -1.9156 -4.7395 -1.3986
  701SOL    HW2 2103   1.931   2.949   0.073  0.5103  2.3125 -1.8760
  702SOL     OW 2104   2.104   1.358   1.962 -0.0160 -0.0528  0.1960
  702SOL    HW1 2105   2.190   1.303   1.974  0.0357  0.5381  0.3999
  702SOL    HW2 2106   2.098   1.400   1.868 -0.1531  1.1638  0.5277
  703SOL     OW 2107   1.927   0.909   1.520 -0.4391  0.1996  0.4466
  703SOL    HW1 2108   1.955   0.809   1.509 -0.3652  0.7751 -0.3275
  703SOL    HW2 2109   1.986   0.961   1.587  1.8611  1.7315  0.5535
  704SOL     OW 2110   0.319   2.053   1.702  0.2036 -0.4622 -0.4193
  704SOL    HW1 2111   0.360   2.000   1.778  0.2548  2.7129  0.6635
  704SOL    HW2 2112   0.389   2.117   1.653 -0.6793  0.1372 -0.1228
  705SOL     OW 2113   2.433   1.452   0.926  0.0939  0.3548  0.1267
  705SOL    HW1 2114   2.379   1.389   0.861 -0.1450  1.6105 -1.5800
  705SOL    HW2 2115   2.527   1.416   0.950 -1.0756  0.1917  1.3225
  706SOL     OW 2116   0.627   1.704   1.810  0.4367 -0.1901 -0.5805
  706SOL    HW1 2117   0.667   1.762   1.732  1.4364 -1.4505  1.2160
  706SOL    HW2 2118   0.689   1.634   1.841 -1.3310  2.0943  1.0081
  707SOL     OW 2119   2.330   1.215   1.987 -0.2149 -0.3937 -0.2908
  707SOL    HW1 2120   2.362   1.210   2.086 -1.4334  1.3494  1.4776
  707SOL    HW2 2121   2.328   1.126   1.937  1.9511 -0.0953  0.7385
  708SOL     OW 2122   3.025   0.471   3.079  0.2053 -0.4017  0.2268
  708SOL    HW1 2123   3.066   0.554   3.037  0.2258  0.3020 -1.0990
  708SOL    HW2 2124   3.024   0.396   3.012  1.2825 -0.1860  0.1412
  709SOL     OW 2125   1.882   1.894   0.383  0.1967 -0.6573  0.0057
  709SOL    HW1 2126   1.880   2.001   0.401  0.1582  0.2192  1.8043
  709SOL    HW2 2127   1.882   1.871   0.281  0.7326  1.2102 -0.2091
  710SOL     OW 2128   1.806   1.575   2.458  0.6172  0.4728  0.1732
  710SOL    HW1 2129   1.859   1.489   2.419  1.1479 -2.8507  1.0617
  710SOL    HW2 2130   1.767   1.558   2.552  0.6433 -0.7323 -0.1973
  711SOL     OW 2131   2.699   2.895   0.932 -0.0604  0.7061 -0.6656
  711SOL    HW1 2132   2.651   2.979   0.905 -2.1239  0.1277  1.5110
  711SOL    HW2 2133   2.797   2.907   0.962 -1.3336  0.8999  0.5566
  712SOL     OW 2134   1.405   2.120   1.988  0.2896  0.1961  0.6051
  712SOL    HW1 2135   1.492   2.119   1.932  2.1386 -2.0548  2.5853
  712SOL    HW2 2136   1.315   2.109   1.930 -3.0758  0.9055 -3.2055
  713SOL     OW 2137   2.777   1.413   2.503 -0.4417  0.1470 -0.2362
  713SOL    HW1 2138   2.806   1.312   2.510  1.4025 -0.6075 -0.8322
  713SOL    HW2 2139   2.700   1.441   2.569 -2.4180  2.5537 -0.3879
  714SOL     OW 2140   2.689   0.493   2.373 -0.0534 -0.4748 -0.0204
  714SOL    HW1 2141   2.637   0.427   2.436  0.4384 -1.0561  0.5161
  714SOL    HW2 2142   2.666   0.483   2.267  0.2272  2.8611 -2.2910
  715SOL     OW 2143   1.585   2.169   1.148  0.2527  0.3187  0.0401
  715SOL    HW1 2144   1.494   2.190   1.112  3.2267 -1.5495 -3.8962
  715SOL    HW2 2145   1.585   2.128   1.245 -0.0793  0.8622  1.4045
  716SOL     OW 2146   1.265   0.111   1.521 -0.1817 -0.4138 -0.2087
  716SOL    HW1 2147   1.162   0.120   1.519 -1.8455 -0.3827  1.0577
  716SOL    HW2 2148   1.292   0.203   1.486 -2.2633  0.9083  1.2847
  717SOL     OW 2149   1.152   0.578   1.626 -0.4920 -0.1199 -0.4675
  717SOL    HW1 2150   1.250   0.607   1.653 -0.2695 -0.2400  1.8695
  717SOL    HW2 2151   1.143   0.525   1.534 -1.2304 -0.0395  0.3390
  718SOL     OW 2152   0.673   0.876   0.960  0.6627  0.1962 -0.4872
  718SOL    HW1 2153   0.656   0.888   0.858  0.3092  1.9176 -0.3595
  718SOL    HW2 2154   0.658   0.959   1.021 -1.9867  0.8162  4.2959
  719SOL     OW 2155   0.681   1.727   2.292 -0.1981 -0.1396  0.6868
  719SOL    HW1 2156   0.739   1.754   2.378  0.2739  1.6069 -0.5024
  719SOL    HW2 2157   0.628   1.643   2.308 -0.4690  1.0776  2.5197
  720SOL     OW 2158   2.185   1.159   0.291  0.1244 -0.4741  0.3798
  720SOL    HW1 2159   2.266   1.100   0.273 -1.8363  0.9340  1.2238
  720SOL    HW2 2160   2.140   1.135   0.383 -1.4768 -1.4288 -0.6863
  721SOL     OW 2161   2.244   3.023   2.119 -0.1914  0.2278 -0.1808
  721SOL    HW1 2162   2.181   3.023   2.038 -0.9678  0.8371  0.3806
  721SOL    HW2 2163   2.190   3.053   2.196 -0.4037 -1.4607 -3.2454
  722SOL     OW 2164   2.354   1.684   0.541 -0.1815 -0.0583 -0.3803
  722SOL    HW1 2165   2.421   1.672   0.459  1.5237  0.2910 -0.5446
  722SOL    HW2 2166   2.258   1.714   0.507 -1.8072  2.0215 -0.6788
  723SOL     OW 2167   2.641   2.778   1.945 -0.3523 -0.1298 -0.2252
  723SOL    HW1 2168   2.691   2.867   1.979  0.1158  1.2255  1.3319
  723SOL    HW2 2169   2.559   2.746   2.003  0.1816 -0.1925  0.3071
  724SOL     OW 2170   0.379   2.518   2.405  0.1589  0.0404 -0.2181
  724SOL    HW1 2171   0.276   2.506   2.406  1.7693 -2.1893  0.1699
  724SOL    HW2 2172   0.422   2.487   2.496 -0.4266  0.5440  3.7510
  725SOL     OW 2173   2.445   2.847   1.485 -0.2878 -0.7073  1.0783
  725SOL    HW1 2174   2.471   2.871   1.386 -2.7136  1.8806  1.0429
  725SOL    HW2 2175   2.458   2.748   1.504  1.8989  3.1531  0.7221
  726SOL     OW 2176   2.532   2.334   0.695 -0.3218 -0.1800  0.5145
  726SOL    HW1 2177   2.488   2.422   0.674  1.3252  2.3731 -0.2349
  726SOL    HW2 2178   2.517   2.271   0.609  1.0946  1.1067 -2.7532
  727SOL     OW 2179   0.106   0.008   0.102 -0.0509  0.5095  0.5077
  727SOL    HW1 2180   0.203   0.036   0.085 -0.1138 -1.0838 -0.7264
  727SOL    HW2 2181   0.086  -0.090   0.060  0.9075 -2.8614  0.2682
  728SOL     OW 2182   2.924   0.696   0.935  0.8873 -0.5568 -0.5362
  728SOL    HW1 2183   2.867   0.682   0.853  0.2758  0.1855  1.8800
  728SOL    HW2 2184   2.884   0.658   1.023  0.8341  1.3126 -0.1828
  729SOL     OW 2185   0.035   2.543   0.786  0.0731 -0.4453  0.0454
  729SOL    HW1 2186   0.066   2.501   0.877 -0.7469 -2.2992  1.8196
  729SOL    HW2 2187   0.109   2.536   0.706  3.0691 -1.6196  1.5935
  730SOL     OW 2188   2.581   0.685   0.897  0.5839 -0.6750 -0.0411
  730SOL    HW1 2189   2.542   0.784   0.890 -0.1111  1.4142  1.7240
  730SOL    HW2 2190   2.634   0.651   0.813  0.9402 -1.2408 -1.0637
  731SOL     OW 2191   3.083   2.186   2.339 -0.4555 -0.2829  0.0720
  731SOL    HW1 2192   3.062   2.228   2.431  0.6863 -1.5073  1.3882
  731SOL    HW2 2193   3.039   2.236   2.261 -0.0486 -0.1270  3.0638
  732SOL     OW 2194   1.281   2.749   2.005 -0.0373  0.3892  0.0899
  732SOL    HW1 2195   1.271   2.678   2.082 -0.5921 -0.8413  1.4470
  732SOL    HW2 2196   1.269   2.706   1.911  0.7921 -0.4167  0.4423
  733SOL     OW 2197   0.030   0.593   2.261 -0.0032 -0.1191  0.0992
  733SOL    HW1 2198   0.095   0.651   2.203 -0.3204 -0.7770  1.7384
  733SOL    HW2 2199  -0.011   0.510   2.210  1.1208 -0.3500  0.1197
  734SOL     OW 2200   1.461   0.390   2.710 -0.0184 -0.5277 -0.6427
  734SOL    HW1 2201   1.466   0.485   2.751 -1.1143 -2.5160  1.4934
  734SOL    HW2 2202   1.368   0.346   2.716  0.7835  0.1352 -0.5151
  735SOL     OW 2203   2.949   2.650   2.292 -0.5881  0.2270 -0.4985
  735SOL    HW1 2204   2.940   2.615   2.194 -0.3878 -3.4309  0.8279
  735SOL    HW2 2205   3.028   2.722   2.301 -0.7945  5.6408 -0.1198
  736SOL     OW 2206   0.918   0.409   2.549 -0.3593 -0.2905 -0.2024
  736SOL    HW1 2207   0.820   0.451   2.547 -2.3537 -1.3450 -0.1921
  736SOL    HW2 2208   0.918   0.334   2.476  0.3566  2.3133 -3.6872
  737SOL     OW 2209   2.616   0.441   2.782 -0.4575 -0.1180  0.0392
  737SOL    HW1 2210   2.602   0.418   2.886 -0.4937 -2.1009  2.3147
  737SOL    HW2 2211   2.715   0.445   2.759 -0.3903  0.7793  4.6815
  738SOL     OW 2212   1.746   1.228   2.942  0.1315  0.2639 -0.2079
  738SOL    HW1 2213   1.837   1.208   2.902  0.7667 -1.5608  2.9426
  738SOL    HW2 2214   1.714   1.155   3.007  0.7456 -0.2221 -0.1592
  739SOL     OW 2215   1.841   0.687   0.610  0.2459 -0.2331  0.6162
  739SOL    HW1 2216   1.855   0.689   0.710 -0.0955  0.8015 -2.1411
  739SOL    HW2 2217   1.840   0.587   0.574 -0.0860 -4.1426  0.1321
  740SOL     OW 2218   1.964   1.941   2.335 -0.0274 -0.4713  0.1517
  740SOL    HW1 2219   2.019   1.870   2.373 -2.0316  3.3820 -0.4909
  740SOL    HW2 2220   1.896   1.904   2.265  0.5612  0.3832 -1.4729
  741SOL     OW 2221   2.526   0.004   2.467  0.0637 -0.4937  0.2156
  741SOL    HW1 2222   2.630   0.004   2.452  0.3268 -3.3087  1.5553
  741SOL    HW2 2223   2.471   0.036   2.386 -0.2395 -1.3965  0.9490
  742SOL     OW 2224   2.183   1.420   0.173  0.1092  1.0035 -0.8073
  742SOL    HW1 2225   2.092   1.444   0.131 -0.8528 -1.5839 -0.1167
  742SOL    HW2 2226   2.187   1.334   0.235  1.0910 -0.7268  0.9896
  743SOL     OW 2227   1.833   0.613   2.615  0.0433 -0.1329 -0.1173
  743SOL    HW1 2228   1.791   0.547   2.548  0.8593  2.6725 -1.4112
  743SOL    HW2 2229   1.765   0.678   2.651 -1.0212 -2.9232 -0.5047
  744SOL     OW 2230   2.656   2.169   0.071  0.6931 -0.1000 -0.1701
  744SOL    HW1 2231   2.594   2.206   0.148 -0.7235 -2.6478 -1.5550
  744SOL    HW2 2232   2.674   2.070   0.090 -3.0381 -1.7533 -0.4283
  745SOL     OW 2233   2.202   2.554   2.217 -0.1885  0.5298  0.1404
  745SOL    HW1 2234   2.129   2.581   2.148 -0.4966  0.1354  0.1580
  745SOL    HW2 2235   2.173   2.561   2.316  1.1516  0.4229 -2.5364
  746SOL     OW 2236   0.025   2.594   1.752 -0.0684  0.4564 -0.1034
  746SOL    HW1 2237   0.110   2.547   1.717  1.9723  0.1772  1.6050
  746SOL    HW2 2238   0.044   2.688   1.789  0.7747  0.4101  0.5811
  747SOL     OW 2239   0.045   1.795   1.643  0.7869  0.3080 -0.1372
  747SOL    HW1 2240   0.006   1.710   1.592 -1.4519 -3.0517 -0.2328
  747SOL    HW2 2241   0.108   1.852   1.581  2.3507  2.2558  1.6236
  748SOL     OW 2242   1.836   2.728   2.911 -0.0128  0.7416  0.2089
  748SOL    HW1 2243   1.864   2.793   2.990  0.3343 -3.2355 -1.4906
  748SOL    HW2 2244   1.740   2.742   2.870  1.4570 -1.0854 -1.2880
  749SOL     OW 2245   1.321   2.964   0.858  0.5949  0.3662  0.2890
  749SOL    HW1 2246   1.272   3.054   0.819  0.0189  4.0809  2.0077
  749SOL    HW2 2247   1.405   2.941   0.810  1.2292  0.7637  2.3893
  750SOL     OW 2248   2.222   0.177   1.854 -0.0524 -0.0514 -0.4393
  750SOL    HW1 2249   2.257   0.220   1.765  0.7933  1.7672 -0.4411
  750SOL    HW2 2250   2.230   0.251   1.925  0.0492  0.7009  2.9532
  751SOL     OW 2251   0.784   2.139   2.871 -0.0405 -0.2222 -0.6469
  751SOL    HW1 2252   0.864   2.110   2.932 -0.7453  0.6375  0.0538
  751SOL    HW2 2253   0.691   2.112   2.914 -2.0137  1.6621  0.3807
  752SOL     OW 2254   1.307   0.799   1.163 -0.7186  0.1454 -0.1588
  752SOL    HW1 2255   1.351   0.891   1.180 -1.0938 -0.4700 -1.0280
  752SOL    HW2 2256   1.345   0.722   1.224 -0.6281 -0.3269  0.8565
  753SOL     OW 2257   0.961   2.570   1.794  0.0219  0.1495  0.3544
  753SOL    HW1 2258   1.057   2.584   1.768  0.9047 -1.5599 -1.4125
  753SOL    HW2 2259   0.912   2.657   1.799  1.4803  1.0255  1.2345
  754SOL     OW 2260   1.176   1.153   2.992 -0.0889  0.2716  0.1765
  754SOL    HW1 2261   1.233   1.085   2.937 -1.5847  1.5565  0.9992
  754SOL    HW2 2262   1.224   1.244   3.010  0.0552 -0.2103  0.1007
  755SOL     OW 2263   1.966   0.464   2.210  0.6381 -0.0555 -0.2175
  755SOL    HW1 2264   2.049   0.415   2.240 -3.0484  0.1089 -0.9570
  755SOL    HW2 2265   1.884   0.439   2.276 -0.5411  0.0639  2.7444
  756SOL     OW 2266   2.501   0.982   3.005  0.4342  0.4529  0.0920
  756SOL    HW1 2267   2.601   0.963   3.020  0.2205  3.1549 -0.7370
  756SOL    HW2 2268   2.441   0.896   3.011 -1.3256  0.9080 -2.0182
  757SOL     OW 2269   0.084   0.416   1.963 -0.2514 -0.1490 -0.0962
  757SOL    HW1 2270   0.140   0.330   1.933  2.0875 -2.3625  0.3278
  757SOL    HW2 2271   0.004   0.390   2.016  2.5408 -1.4748 -0.1640
  758SOL     OW 2272   2.247   0.085   1.504 -0.6046  0.2845  0.3509
  758SOL    HW1 2273   2.208  -0.011   1.522 -3.5025 -0.4398 -1.3184
  758SOL    HW2 2274   2.287   0.098   1.411 -1.9100  2.3176 -0.7126
  759SOL     OW 2275   1.688   0.056   0.065 -0.7459 -0.8283  0.2271
  759SOL    HW1 2276   1.631   0.057  -0.026 -0.1758 -0.4481 -0.7521
  759SOL    HW2 2277   1.791   0.037   0.052  1.4294  1.6214  1.7087
  760SOL     OW 2278   2.694   2.010   2.837 -0.3286 -0.3275 -0.4669
  760SOL    HW1 2279   2.600   1.970   2.839  0.9364  0.0219 -0.0784
  760SOL    HW2 2280   2.690   2.113   2.862 -4.3063  0.6428 -1.7708
  761SOL     OW 2281   1.924   1.748   1.725  0.4153 -0.2968  0.3575
  761SOL    HW1 2282   1.967   1.658   1.750 -0.3548 -0.5856 -1.0271
  761SOL    HW2 2283   1.874   1.748   1.635  0.8110 -1.6842  2.4561
  762SOL     OW 2284   0.483   2.409   0.929 -0.3554 -0.5168  0.1924
  762SOL    HW1 2285   0.527   2.412   0.837 -0.4270  0.4218  0.8299
  762SOL    HW2 2286   0.558   2.393   0.998 -0.0413 -0.8916 -1.3762
  763SOL     OW 2287   2.111   1.583   2.980 -0.3939 -0.4781 -0.1072
  763SOL    HW1 2288   2.205   1.537   2.997 -0.5859 -0.7405  1.4708
  763SOL    HW2 2289   2.032   1.541   3.038 -1.7371 -1.1583  3.2947
  764SOL     OW 2290   0.680   0.604   0.676  0.3897  0.2328  0.2741
  764SOL    HW1 2291   0.589   0.547   0.664  1.0019 -1.7979  2.0655
  764SOL    HW2 2292   0.711   0.599   0.776  1.1227 -0.7616 -0.6189
  765SOL     OW 2293   0.810   0.333   0.708 -0.2405 -0.0620  0.3681
  765SOL    HW1 2294   0.896   0.352   0.644  1.3648  0.0559 -0.0340
  765SOL    HW2 2295   0.801   0.399   0.780 -0.4677 -1.9852 -1.6937
  766SOL     OW 2296   2.926   2.153   3.067  0.3064 -0.3423  0.0736
  766SOL    HW1 2297   2.837   2.176   3.110  1.7745  0.2187  2.3175
  766SOL    HW2 2298   2.995   2.234   3.080  0.4923  0.3855  2.1686
  767SOL     OW 2299   2.829   1.607   0.598 -0.2204  0.1385  0.6137
  767SOL    HW1 2300   2.735   1.631   0.639 -0.7288  2.2818  1.2141
  767SOL    HW2 2301   2.908   1.615   0.665 -0.5391  0.8641  0.2514
  768SOL     OW 2302   1.068   0.198   0.184  0.2746  0.2733  0.2919
  768SOL    HW1 2303   1.031   0.246   0.270 -1.8052  1.3655 -1.5829
  768SOL    HW2 2304   1.155   0.147   0.200 -0.1168 -2.0479 -0.5148
  769SOL     OW 2305   1.131   1.824   2.289 -0.1235  0.0408  0.1329
  769SOL    HW1 2306   1.047   1.872   2.323 -0.3969  0.9028  0.6576
  769SOL    HW2 2307   1.200   1.811   2.363 -4.4258 -0.2419 -1.1992
  770SOL     OW 2308   0.156   1.147   2.335 -0.8175 -0.2610 -0.1939
  770SOL    HW1 2309   0.128   1.214   2.408  0.1457 -1.8662 -0.7331
  770SOL    HW2 2310   0.080   1.075   2.320 -2.2164 -0.5473 -0.0816
  771SOL     OW 2311   3.034   2.824   1.934 -0.1171  0.0262  0.3596
  771SOL    HW1 2312   2.991   2.865   1.844 -1.2271 -0.7874 -3.6526
  771SOL    HW2 2313   2.998   2.867   2.024  1.0231  1.5481  1.5159
  772SOL     OW 2314   2.362   0.242   2.816  0.3529  0.3997 -0.4808
  772SOL    HW1 2315   2.429   0.171   2.779 -1.9013 -2.6603 -2.4390
  772SOL    HW2 2316   2.360   0.238   2.924  2.1237  0.1447  0.1941
  773SOL     OW 2317   0.585   2.057   2.413  0.0117  0.1228 -0.3340
  773SOL    HW1 2318   0.565   2.154   2.389 -0.2890  2.0546 -0.0342
  773SOL    HW2 2319   0.507   2.009   2.467 -0.5767 -1.3682  2.1847
  774SOL     OW 2320   2.127   0.024   2.581 -0.4014  0.0905 -0.3638
  774SOL    HW1 2321   2.126   0.111   2.635  2.1672 -1.4227 -2.9731
  774SOL    HW2 2322   2.174  -0.059   2.625 -0.3148  1.5171  2.0332
  775SOL     OW 2323   2.546   2.941   2.238  0.0418  0.6489 -0.1619
  775SOL    HW1 2324   2.477   3.024   2.237 -3.4079  0.6278 -1.9197
  775SOL    HW2 2325   2.597   2.930   2.325 -0.0415  1.1829  1.9196
  776SOL     OW 2326   0.007   1.251   0.192 -0.5140  0.4049 -0.6345
  776SOL    HW1 2327  -0.033   1.229   0.098 -1.1410 -1.5418 -1.8863
  776SOL    HW2 2328  -0.058   1.246   0.279 -0.5629  2.8532  0.5379
  777SOL     OW 2329   0.392   2.954   0.465 -0.4338 -0.4371 -1.0083
  777SOL    HW1 2330   0.288   2.972   0.443 -0.6635  0.2459 -1.4508
  777SOL    HW2 2331   0.429   2.863   0.427  0.4500 -1.3941  0.6373
  778SOL     OW 2332   1.378   2.009   0.269 -0.3454  0.0657 -0.0777
  778SOL    HW1 2333   1.310   2.059   0.332 -0.2030 -0.2383  0.3881
  778SOL    HW2 2334   1.394   2.065   0.183 -0.8583  0.6226 -0.2858
  779SOL     OW 2335   0.155   0.797   0.474 -0.2193 -0.4185 -0.0374
  779SOL    HW1 2336   0.092   0.732   0.432  0.7971 -0.7120  2.3454
  779SOL    HW2 2337   0.111   0.884   0.515 -0.3288  1.5850  1.8719
  780SOL     OW 2338   0.115   0.298   2.332 -0.2232 -0.6517 -0.2548
  780SOL    HW1 2339   0.105   0.368   2.413  3.2219 -0.8350  1.4772
  780SOL    HW2 2340   0.200   0.320   2.274 -0.5616 -2.6363  0.0905
  781SOL     OW 2341   0.712   1.688   1.515  0.3033  0.8928  0.1001
  781SOL    HW1 2342   0.771   1.620   1.565  0.5498  0.1355 -0.5555
  781SOL    HW2 2343   0.611   1.662   1.514  0.7581 -0.2801  1.8896
  782SOL     OW 2344   2.568   0.058   0.926 -0.2002  0.2472  0.4232
  782SOL    HW1 2345   2.511   0.114   0.858 -1.1950 -1.3704 -1.3545
  782SOL    HW2 2346   2.520   0.048   1.017  0.9155  0.7435  2.2807
  783SOL     OW 2347   2.758   0.740   2.466  0.3246  0.6665  0.2069
  783SOL    HW1 2348   2.735   0.762   2.562  1.4230  0.4931  1.5562
  783SOL    HW2 2349   2.734   0.646   2.426  0.3033  1.0456 -2.2835
  784SOL     OW 2350   1.427   2.144   0.017 -0.1167  0.5313 -0.0561
  784SOL    HW1 2351   1.429   2.223   0.082 -0.0380 -1.6943 -2.3779
  784SOL    HW2 2352   1.412   2.169  -0.082  0.1430 -0.0640 -2.5293
  785SOL     OW 2353   2.088   0.303   3.094  0.2677 -0.0929  0.2930
  785SOL    HW1 2354   2.012   0.337   3.156 -3.0426  0.1522  3.0268
  785SOL    HW2 2355   2.129   0.377   3.033 -0.4318 -0.7617 -0.1018
  786SOL     OW 2356   2.059   2.184   2.261  0.1172  0.0744 -0.6012
  786SOL    HW1 2357   2.027   2.081   2.271 -2.6353 -2.8125 -1.6212
  786SOL    HW2 2358   2.155   2.191   2.286 -1.6823  0.1139 -0.2049
  787SOL     OW 2359   1.366   0.553   0.877 -0.3735  0.1223  0.4272
  787SOL    HW1 2360   1.296   0.635   0.876 -2.5799  3.8795 -0.6211
  787SOL    HW2 2361   1.418   0.538   0.789 -0.0944  1.9661 -0.2887
  788SOL     OW 2362   1.231   0.419   0.016 -0.5405  0.0202  0.3548
  788SOL    HW1 2363   1.143   0.376  -0.026  1.1844 -2.3674 -2.5532
  788SOL    HW2 2364   1.205   0.500   0.079 -1.0492  0.9033  0.0480
  789SOL     OW 2365   2.524   0.120   1.951 -0.2189  0.2065 -0.1694
  789SOL    HW1 2366   2.448   0.088   1.891 -2.2477 -1.8490  2.0856
  789SOL    HW2 2367   2.610   0.054   1.949  2.6686 -3.6125 -0.7733
  790SOL     OW 2368   2.606   2.763   0.690 -0.5846 -0.1557 -0.1613
  790SOL    HW1 2369   2.683   2.810   0.630  1.7186 -0.7317  0.9286
  790SOL    HW2 2370   2.602   2.800   0.783  0.4181  0.0278 -2.3136
  791SOL     OW 2371   1.937   1.200   0.188  0.2456  0.1648  0.1159
  791SOL    HW1 2372   1.854   1.181   0.252  2.1500 -1.7420  0.9686
  791SOL    HW2 2373   2.028   1.174   0.235 -2.5464  1.1770  3.5822
  792SOL     OW 2374   0.412   1.755   2.169 -0.4817 -0.6216 -0.0198
  792SOL    HW1 2375   0.497   1.775   2.230  0.4016 -1.7239 -2.6125
  792SOL    HW2 2376   0.386   1.656   2.160 -1.2352  0.0648 -0.8155
  793SOL     OW 2377   2.122   1.598   2.089 -0.1532 -0.3443  0.6763
  793SOL    HW1 2378   2.197   1.659   2.043 -0.7206  0.6752 -0.6447
  793SOL    HW2 2379   2.112   1.505   2.046 -2.5527  0.6017  1.7189
  794SOL     OW 2380   0.511   1.492   2.281  0.6881  0.2298 -0.2267
  794SOL    HW1 2381   0.478   1.423   2.211 -1.0256  0.3182 -1.9062
  794SOL    HW2 2382   0.453   1.494   2.366 -0.3796 -0.4217 -0.4433
  795SOL     OW 2383   2.499   2.262   1.806  0.2330  0.6452  0.4074
  795SOL    HW1 2384   2.511   2.245   1.905  1.3437 -0.6930 -3.0776
  795SOL    HW2 2385   2.445   2.188   1.755 -1.0958  3.3394  0.6786
  796SOL     OW 2386   3.080   1.101   2.642 -0.0751  0.1590 -0.1440
  796SOL    HW1 2387   2.989   1.086   2.687  1.6072  4.0892 -2.3485
  796SOL    HW2 2388   3.157   1.109   2.712  0.1038 -0.6478 -1.2506
  797SOL     OW 2389   0.828   0.632   1.407  0.1773 -0.3032 -0.3601
  797SOL    HW1 2390   0.892   0.688   1.468  0.9346  1.5585 -1.0620
  797SOL    HW2 2391   0.773   0.692   1.346 -1.5427  0.3309 -0.7460
  798SOL     OW 2392   1.313   0.437   1.188 -0.1954 -0.1511  0.2481
  798SOL    HW1 2393   1.378   0.397   1.260  2.0845  0.6136 -1.4335
  798SOL    HW2 2394   1.357   0.510   1.124 -0.5983  0.1084 -0.5023
  799SOL     OW 2395   1.966   2.645   1.031  0.4891  0.1708 -0.3660
  799SOL    HW1 2396   1.881   2.643   1.087  1.7463  2.5379 -1.0919
  799SOL    HW2 2397   1.947   2.687   0.938 -0.7759 -0.4599 -1.1079
  800SOL     OW 2398   3.042   0.627   1.848  0.4931 -0.5276 -0.3549
  800SOL    HW1 2399   3.000   0.701   1.910  1.5442  1.4667 -1.6299
  800SOL    HW2 2400   3.110   0.563   1.888 -0.2436 -0.5158  0.2265
  801SOL     OW 2401   1.902   2.227   0.142  0.2990  0.6757 -0.5572
  801SOL    HW1 2402   1.826   2.195   0.074 -1.6683 -0.1443  0.0649
  801SOL    HW2 2403   1.996   2.182   0.129 -1.6383 -2.5001  3.0199
  802SOL     OW 2404   0.731   0.769   2.578 -0.2315 -0.5009 -0.5120
  802SOL    HW1 2405   0.802   0.744   2.507 -1.6186 -0.3819  2.8823
  802SOL    HW2 2406   0.648   0.709   2.573 -2.1129 -0.4714  1.3659
  803SOL     OW 2407   0.904   0.147   0.928  0.0041 -0.7550 -0.1254
  803SOL    HW1 2408   0.986   0.203   0.954  2.3326 -0.1656 -0.7792
  803SOL    HW2 2409   0.836   0.202   0.873  0.6152 -0.3796 -1.0810
  804SOL     OW 2410   0.392   3.056   2.119 -0.8957  0.8658 -0.1261
  804SOL    HW1 2411   0.365   3.150   2.083 -0.6121  2.4588  0.2738
  804SOL    HW2 2412   0.334   2.981   2.077 -2.0747  0.6207 -1.6947
  805SOL     OW 2413   2.441   0.254   0.261  0.3176 -0.0949 -0.0507
  805SOL    HW1 2414   2.540   0.284   0.276 -0.3104 -0.7778 -2.0395
  805SOL    HW2 2415   2.419   0.225   0.160 -0.7319  0.9629  2.3549
  806SOL     OW 2416   0.664   2.413   1.687  0.0114 -0.4979  0.2895
  806SOL    HW1 2417   0.659   2.518   1.706 -0.9470 -0.2439 -1.2799
  806SOL    HW2 2418   0.765   2.385   1.675 -0.6690 -1.1814 -0.9688
  807SOL     OW 2419   2.453   0.960   0.440 -0.5372 -0.1442  0.6545
  807SOL    HW1 2420   2.540   0.902   0.442 -0.8837  1.4050 -1.3411
  807SOL    HW2 2421   2.423   0.971   0.343  1.0353 -2.7480  1.6967
  808SOL     OW 2422   0.557   2.001   2.977 -0.3025 -0.7639 -0.4576
  808SOL    HW1 2423   0.553   1.993   3.083 -1.1103  1.9553  0.8540
  808SOL    HW2 2424   0.560   1.909   2.930 -3.6660  0.4788  0.5244
  809SOL     OW 2425   2.620   1.970   1.952 -1.1224 -0.2792 -0.1556
  809SOL    HW1 2426   2.713   2.010   1.931  1.7603 -0.3507 -0.0821
  809SOL    HW2 2427   2.595   1.899   1.879 -1.2736 -1.3555 -0.0340
  810SOL     OW 2428   2.055   1.117   0.508 -0.3599 -0.2168  0.3798
  810SOL    HW1 2429   2.054   1.050   0.586 -2.3068 -0.5760  0.7132
  810SOL    HW2 2430   2.039   1.212   0.536 -0.1226 -3.0310 -2.1455
  811SOL     OW 2431   1.284   2.419   1.259  0.5159 -0.0629  0.4820
  811SOL    HW1 2432   1.294   2.316   1.274  0.8552 -0.0894 -1.2364
  811SOL    HW2 2433   1.256   2.435   1.160  0.0115  1.1127  0.1149
  812SOL     OW 2434   1.386   0.786   1.944  0.4598  0.1899 -0.0108
  812SOL    HW1 2435   1.442   0.855   2.000 -0.6160  1.0912  2.4966
  812SOL    HW2 2436   1.291   0.821   1.921  0.1162 -0.0917 -2.4739
  813SOL     OW 2437   1.757   2.089   2.460 -0.1227  0.5984 -0.5958
  813SOL    HW1 2438   1.853   2.067   2.439  0.7053 -0.2211 -0.2337
  813SOL    HW2 2439   1.698   2.084   2.376  2.3969  0.6781  1.7459
  814SOL     OW 2440   2.848   1.535   2.908 -0.0674 -0.2149  0.3602
  814SOL    HW1 2441   2.947   1.529   2.938 -1.2685  1.8613 -0.2385
  814SOL    HW2 2442   2.831   1.617   2.847  0.3075 -2.5963  1.8294
  815SOL     OW 2443   2.249   2.909   2.721  0.1597  0.1289 -0.1652
  815SOL    HW1 2444   2.246   2.892   2.824  2.4571  0.4049 -0.6490
  815SOL    HW2 2445   2.324   2.853   2.680 -0.7207 -1.5043 -0.5070
  816SOL     OW 2446   1.753   0.355   1.692  0.2023 -0.1337 -0.3089
  816SOL    HW1 2447   1.678   0.285   1.685  1.3606  0.0674 -0.0076
  816SOL    HW2 2448   1.718   0.442   1.743 -2.2010  0.9807 -1.4604
  817SOL     OW 2449   0.480   1.196   2.448 -0.0024  0.0735 -0.2176
  817SOL    HW1 2450   0.424   1.283   2.450 -0.2167 -2.9071 -0.0706
  817SOL    HW2 2451   0.465   1.152   2.353  1.0937  0.0354 -1.7842
  818SOL     OW 2452   2.034   0.847   0.426 -0.1855 -0.5242  0.1908
  818SOL    HW1 2453   2.038   0.946   0.450 -0.2943 -1.6203  3.5165
  818SOL    HW2 2454   1.990   0.789   0.501  0.7379  0.3141  1.0234
  819SOL     OW 2455   2.758   2.934   3.050 -0.3083 -0.6736 -0.1126
  819SOL    HW1 2456   2.846   2.881   3.035  0.5367 -2.9403  1.2284
  819SOL    HW2 2457   2.677   2.903   2.990 -0.4807  1.3871  1.6556
  820SOL     OW 2458   1.228   1.114   0.500  0.5479  0.1419 -0.7353
  820SOL    HW1 2459   1.248   1.210   0.513 -2.0595 -2.2911 -0.8869
  820SOL    HW2 2460   1.213   1.053   0.583 -0.6511 -1.7626  0.0739
  821SOL     OW 2461   3.064   1.284   0.670  0.1330  0.1217  0.1266
  821SOL    HW1 2462   3.018   1.269   0.758  1.0336 -0.4979 -1.6991
  821SOL    HW2 2463   3.121   1.370   0.662  0.7660  1.8037  1.4534
  822SOL     OW 2464   2.524   1.788   2.426  0.0013  0.5018  0.1993
  822SOL    HW1 2465   2.523   1.873   2.484  0.2370  1.6836  2.1302
  822SOL    HW2 2466   2.463   1.798   2.344 -0.2289 -0.3219  1.7141
  823SOL     OW 2467   2.040   0.891   1.221  0.0823 -0.1426  0.4464
  823SOL    HW1 2468   2.025   0.884   1.322  2.0257  2.3914 -0.5659
  823SOL    HW2 2469   1.967   0.950   1.177 -0.1627 -1.2721  1.2785
  824SOL     OW 2470   0.151   2.017   2.731 -0.4337 -0.2996 -0.0533
  824SOL    HW1 2471   0.124   1.939   2.793 -1.8638 -0.1163  1.0015
  824SOL    HW2 2472   0.205   1.985   2.649  1.6089  2.6955  1.1778
  825SOL     OW 2473   1.235   1.037   0.239  0.0641  0.1840  0.0104
  825SOL    HW1 2474   1.218   1.063   0.337 -0.3089 -1.9620  2.6530
  825SOL    HW2 2475   1.246   1.119   0.180  0.8200 -1.7333 -0.9141
  826SOL     OW 2476   1.940   0.630   1.518  0.1894  0.4737 -0.1307
  826SOL    HW1 2477   2.008   0.589   1.588 -0.8092 -1.1025 -1.1549
  826SOL    HW2 2478   1.863   0.564   1.488  0.5467  1.5333  0.2551
  827SOL     OW 2479   0.757   1.428   0.297 -0.4013 -0.0889 -0.0051
  827SOL    HW1 2480   0.788   1.353   0.230 -0.2780 -0.2146 -1.2592
  827SOL    HW2 2481   0.718   1.387   0.383  0.0173  0.9408 -1.3375
  828SOL     OW 2482   2.553   0.082   1.566  0.0905 -0.0067 -0.3916
  828SOL    HW1 2483   2.459   0.124   1.550  0.5863 -0.4957  2.5486
  828SOL    HW2 2484   2.554   0.014   1.648 -2.4937  0.6796 -0.0643
  829SOL     OW 2485   2.847   2.483   3.040 -0.0944  0.2433  0.0748
  829SOL    HW1 2486   2.785   2.420   2.982 -0.1113  0.7241  3.0219
  829SOL    HW2 2487   2.796   2.548   3.102 -1.9975 -1.4416 -2.1164
  830SOL     OW 2488   2.770   0.955   3.046 -0.5529 -0.4770  0.2472
  830SOL    HW1 2489   2.841   1.023   3.088  0.5525  0.8276 -2.8580
  830SOL    HW2 2490   2.756   0.864   3.097 -1.3056 -0.1371  0.5943
  831SOL     OW 2491   0.017   0.595   0.342  0.1618  0.6015 -0.4137
  831SOL    HW1 2492  -0.022   0.553   0.431  1.8031  0.3295  1.7254
  831SOL    HW2 2493   0.053   0.530   0.271 -1.3481  2.2132 -0.0132
  832SOL     OW 2494   1.774   0.738   3.088  0.3368 -0.1098  0.0604
  832SOL    HW1 2495   1.703   0.812   3.083  1.6163  0.4805  0.1365
  832SOL    HW2 2496   1.744   0.643   3.058  1.8088 -0.4369  2.0360
  833SOL     OW 2497   2.468   2.160   0.489 -0.2849 -0.0213 -0.3092
  833SOL    HW1 2498   2.363   2.140   0.480 -1.8126 -1.6349 -0.8033
  833SOL    HW2 2499   2.522   2.070   0.487  0.9629  1.0389  4.7715
  834SOL     OW 2500   0.077   0.254   0.639  0.3416 -0.3373 -0.1845
  834SOL    HW1 2501   0.144   0.216   0.715  2.2449  0.5002  4.7590
  834SOL    HW2 2502   0.117   0.235   0.542 -0.2197  0.7710 -1.1802
  835SOL     OW 2503   2.353   1.487   1.174 -0.3777  0.1729  0.1251
  835SOL    HW1 2504   2.441   1.533   1.214  0.9454  0.2860 -0.7614
  835SOL    HW2 2505   2.352   1.478   1.069 -0.6786  0.3627  2.9224
  836SOL     OW 2506   1.524   0.800   2.586  0.4556 -0.0284  0.1842
  836SOL    HW1 2507   1.422   0.799   2.556 -0.8969 -1.0978  0.0339
  836SOL    HW2 2508   1.586   0.836   2.510  0.6412  1.8909 -0.4309
  837SOL     OW 2509   1.620   0.059   0.536  1.2274  0.3259  0.8265
  837SOL    HW1 2510   1.600   0.150   0.583  2.4869  1.4344  0.2013
  837SOL    HW2 2511   1.608   0.057   0.433 -1.3201  0.9827 -1.2005
  838SOL     OW 2512   1.275   1.590   2.675 -0.8451 -0.2648 -0.0305
  838SOL    HW1 2513   1.348   1.559   2.736 -2.3501 -1.2528 -1.0396
  838SOL    HW2 2514   1.195   1.526   2.684  1.3356 -0.5557  1.8738
  839SOL     OW 2515   1.641   0.278   0.979  0.0402  0.0640 -0.6362
  839SOL    HW1 2516   1.654   0.362   1.041  0.6749  0.2370  1.8117
  839SOL    HW2 2517   1.602   0.194   1.021  0.4564  1.1073  0.5130
  840SOL     OW 2518   2.544   2.953   1.724  0.2093 -0.6293  0.1289
  840SOL    HW1 2519   2.503   2.905   1.642 -1.0610 -0.0193  0.3840
  840SOL    HW2 2520   2.565   2.882   1.790 -0.4871  1.5417 -1.1720
  841SOL     OW 2521   1.561   0.897   3.049 -0.2234 -0.0160 -0.2508
  841SOL    HW1 2522   1.463   0.886   3.077 -2.7596 -0.3453  1.2823
  841SOL    HW2 2523   1.564   0.918   2.944  2.1102 -2.7822  0.7946
  842SOL     OW 2524   0.817   1.545   0.868 -0.7132 -0.1332  0.7836
  842SOL    HW1 2525   0.770   1.611   0.930 -1.4074 -1.9222  0.2252
  842SOL    HW2 2526   0.762   1.461   0.860  0.5020  1.3036  1.1446
  843SOL     OW 2527   0.184   3.061   1.391 -0.5820  0.1454  0.1854
  843SOL    HW1 2528   0.177   3.152   1.444 -1.5763 -1.0293  0.5824
  843SOL    HW2 2529   0.110   2.990   1.409 -1.9737  1.0278  1.4152
  844SOL     OW 2530   0.808   2.452   0.255 -0.3233 -0.2867  0.1320
  844SOL    HW1 2531   0.735   2.425   0.325  0.0152  1.3483  0.7053
  844SOL    HW2 2532   0.772   2.527   0.192 -1.4452 -0.3242  1.5172
  845SOL     OW 2533   1.673   2.840   1.237  0.5634  0.4640 -0.4858
  845SOL    HW1 2534   1.709   2.742   1.233  0.2308  0.7761 -1.4664
  845SOL    HW2 2535   1.671   2.867   1.333  0.2481 -2.5151 -2.4976
  846SOL     OW 2536   1.568   2.967   0.723 -0.1359  0.0290 -0.6531
  846SOL    HW1 2537   1.559   3.027   0.636  2.0346 -0.3607 -0.8594
  846SOL    HW2 2538   1.658   2.978   0.775 -0.5096 -1.5629 -2.0346
  847SOL     OW 2539   2.097   1.710   0.431  0.0336 -0.4933 -0.7257
  847SOL    HW1 2540   2.046   1.632   0.375 -2.7849 -3.2359  3.6105
  847SOL    HW2 2541   2.049   1.797   0.429  3.1025 -1.4599  1.5844
  848SOL     OW 2542   2.404   0.890   2.604  0.0342  0.1049 -0.4349
  848SOL    HW1 2543   2.370   0.972   2.659  0.0775 -0.7970 -0.4025
  848SOL    HW2 2544   2.338   0.808   2.599  0.7765 -1.8648  0.2280
  849SOL     OW 2545   2.546   0.878   2.375  0.5738  0.0519  0.2610
  849SOL    HW1 2546   2.624   0.812   2.406  2.5998 -2.2743  4.0119
  849SOL    HW2 2547   2.484   0.897   2.455 -0.1848 -0.1047 -0.9507
  850SOL     OW 2548   1.558   0.054   1.326  0.2695  0.8286  0.2221
  850SOL    HW1 2549   1.549   0.040   1.228  1.5604  0.3249  1.2466
  850SOL    HW2 2550   1.520  -0.022   1.382  0.5055  1.2780 -4.5194
  851SOL     OW 2551   0.504   1.766   0.627 -0.6022  0.5874 -0.5013
  851SOL    HW1 2552   0.577   1.806   0.682 -0.1908 -0.2300  2.2833
  851SOL    HW2 2553   0.497   1.798   0.530  0.5250  0.3915 -2.2324
  852SOL     OW 2554   0.853   2.077   1.754 -0.4472 -0.6370  0.9486
  852SOL    HW1 2555   0.874   2.171   1.710  5.3196 -2.0722  1.8052
  852SOL    HW2 2556   0.772   2.079   1.818  0.7563  0.2233 -1.2157
  853SOL     OW 2557   2.551   1.558   2.603  0.0130 -0.0520 -0.1458
  853SOL    HW1 2558   2.479   1.489   2.583  2.2999  1.2193 -1.8899
  853SOL    HW2 2559   2.535   1.643   2.545 -0.3375  1.1655  0.6319
  854SOL     OW 2560   2.454   1.397   1.769 -0.4503 -0.1264  0.2928
  854SOL    HW1 2561   2.513   1.347   1.704 -2.4375  2.6313  0.1781
  854SOL    HW2 2562   2.423   1.336   1.847  1.6379 -0.5596 -0.5952
  855SOL     OW 2563   2.073   2.396   1.048 -0.2002 -0.0016  0.0652
  855SOL    HW1 2564   2.024   2.490   1.050 -1.1282  0.5237  1.2819
  855SOL    HW2 2565   2.152   2.395   1.113  1.0057  1.2096 -1.3078
  856SOL     OW 2566   1.328   1.425   0.921 -0.2536 -0.1139 -0.0171
  856SOL    HW1 2567   1.388   1.506   0.957  2.5838 -1.7157  2.0821
  856SOL    HW2 2568   1.225   1.445   0.932  1.6335 -0.1576  0.2353
  857SOL     OW 2569  -0.000   2.751   1.060  0.2439  0.1530 -0.2179
  857SOL    HW1 2570  -0.012   2.707   0.964 -1.8900 -0.7630 -1.1258
  857SOL    HW2 2571   0.082   2.807   1.063 -1.4416 -0.9929 -1.1847
  858SOL     OW 2572   2.395   2.075   1.647 -0.6424  0.0069  0.4883
  858SOL    HW1 2573   2.316   2.012   1.630  0.2539 -2.1138  1.3836
  858SOL    HW2 2574   2.481   2.020   1.666  1.2991 -3.2044  5.2299
  859SOL     OW 2575   2.430   0.524   1.044 -0.8605  0.1074 -0.8565
  859SOL    HW1 2576   2.500   0.572   0.978  0.9372 -1.7377 -1.5471
  859SOL    HW2 2577   2.471   0.436   1.090  0.4316 -0.6591  1.2599
  860SOL     OW 2578   1.886   2.805   0.530 -0.4855  0.5818  0.2514
  860SOL    HW1 2579   1.865   2.789   0.427  0.9419 -0.6193 -1.1637
  860SOL    HW2 2580   1.901   2.905   0.549 -1.8884 -1.7507 -0.1485
  861SOL     OW 2581   0.968   2.506   2.882 -0.8554 -0.0953  0.3156
  861SOL    HW1 2582   1.040   2.568   2.843  1.4343 -2.6143 -0.5946
  861SOL    HW2 2583   0.947   2.524   2.982  0.0399  0.8302  0.6883
  862SOL     OW 2584   2.863   2.525   1.659  0.4424 -0.0657 -0.0396
  862SOL    HW1 2585   2.947   2.549   1.711 -0.3595  4.6761 -4.1975
  862SOL    HW2 2586   2.826   2.606   1.603 -0.4646  0.4921 -0.5677
  863SOL     OW 2587   1.822   2.715   0.278 -0.2175  0.3255  0.5613
  863SOL    HW1 2588   1.879   2.629   0.265 -0.4677  1.2803 -2.2434
  863SOL    HW2 2589   1.733   2.704   0.233  1.2615  2.3337 -1.4186
  864SOL     OW 2590   2.020   1.251   2.828 -0.5932  0.3211  0.4050
  864SOL    HW1 2591   2.048   1.174   2.766  0.1202  0.6792  1.1030
  864SOL    HW2 2592   2.093   1.327   2.819  1.8024 -0.1809 -2.6781
  865SOL     OW 2593   2.153   1.939   0.743  0.2245 -0.0527  0.1529
  865SOL    HW1 2594   2.233   1.890   0.790  1.4862  0.0078 -1.1056
  865SOL    HW2 2595   2.068   1.958   0.805 -0.7647  0.6590 -0.6912
  866SOL     OW 2596   2.937   2.997   1.017 -0.2908  0.0896 -0.1310
  866SOL    HW1 2597   2.944   3.058   0.936 -2.4904 -1.6046  2.0306
  866SOL    HW2 2598   3.011   2.920   1.025  3.6562  1.0179  2.2605
  867SOL     OW 2599   0.345   1.403   0.904  0.0183  0.2409  0.4814
  867SOL    HW1 2600   0.347   1.305   0.861 -1.0492  0.5140  2.6148
  867SOL    HW2 2601   0.331   1.478   0.835  2.0174 -1.1259  1.9572
  868SOL     OW 2602   0.789   1.838   2.046 -0.3746  0.0119  0.1108
  868SOL    HW1 2603   0.736   1.800   2.123  1.0832  1.7142 -0.1144
  868SOL    HW2 2604   0.751   1.929   2.018  1.9142 -1.4862  1.2608
  869SOL     OW 2605   2.616   1.911   1.673 -0.1390  0.5347  0.2091
  869SOL    HW1 2606   2.689   1.978   1.647 -0.2014 -2.7004  2.5942
  869SOL    HW2 2607   2.638   1.810   1.641  2.2135 -0.0825  0.3392
  870SOL     OW 2608   2.352   2.688   1.213 -0.6070  0.2148  0.7641
  870SOL    HW1 2609   2.327   2.590   1.232 -0.8950 -0.3180  1.8150
  870SOL    HW2 2610   2.453   2.703   1.253  1.2193 -1.5246 -0.6031
  871SOL     OW 2611   3.055   2.237   0.499  0.1386 -0.0343 -0.2608
  871SOL    HW1 2612   3.006   2.277   0.582 -1.4072  0.0830 -3.3694
  871SOL    HW2 2613   3.017   2.274   0.411  0.5881  0.9672  0.6048
  872SOL     OW 2614   2.106   0.493   1.707 -0.1541  0.1015  0.2478
  872SOL    HW1 2615   2.051   0.479   1.792  2.0221 -1.4185 -2.1309
  872SOL    HW2 2616   2.198   0.448   1.709  0.0621 -1.0742  1.8927
  873SOL     OW 2617   1.705   2.097   3.098 -0.2818  0.4719 -0.1237
  873SOL    HW1 2618   1.603   2.090   3.117  0.0446  1.6375  0.9173
  873SOL    HW2 2619   1.727   2.136   3.007  0.4636  1.6498  2.5098
  874SOL     OW 2620   0.666   2.451   0.730 -0.2221  0.2893  0.1728
  874SOL    HW1 2621   0.664   2.545   0.772 -1.7078 -2.3026 -2.0721
  874SOL    HW2 2622   0.762   2.405   0.731  2.0328  1.1123  1.7631
  875SOL     OW 2623   2.235   1.497   1.415 -0.6886 -0.5401 -0.3129
  875SOL    HW1 2624   2.301   1.550   1.473 -2.4810 -1.1089 -1.8789
  875SOL    HW2 2625   2.271   1.487   1.316  2.2606  2.2816 -0.1780
  876SOL     OW 2626   0.046   2.256   2.634 -0.1572  0.2582 -0.0311
  876SOL    HW1 2627   0.065   2.153   2.661 -0.3872 -0.0584 -1.1075
  876SOL    HW2 2628   0.094   2.319   2.696 -1.8713 -0.2029 -2.2262
  877SOL     OW 2629   2.916   2.649   0.619  0.6259  0.4350 -0.6684
  877SOL    HW1 2630   2.905   2.754   0.637 -2.1137  1.6007  0.5757
  877SOL    HW2 2631   2.983   2.610   0.690  0.9445  1.0249  3.2363
  878SOL     OW 2632   2.845   1.592   2.291 -0.2258 -0.6738 -0.1791
  878SOL    HW1 2633   2.777   1.663   2.260  2.0499 -0.7567 -0.8152
  878SOL    HW2 2634   2.817   1.550   2.381 -0.0958  0.0300 -1.7115
  879SOL     OW 2635   2.450   0.051   1.192 -0.1244  0.4119  0.6599
  879SOL    HW1 2636   2.481  -0.046   1.207  0.3457  0.8346  0.3616
  879SOL    HW2 2637   2.351   0.047   1.164  0.3404 -1.7882 -1.9462
  880SOL     OW 2638   0.706   0.552   2.285 -0.0198 -0.5300 -0.2858
  880SOL    HW1 2639   0.675   0.483   2.355  0.0140 -0.5248  0.0696
  880SOL    HW2 2640   0.787   0.519   2.227  3.1188  1.5749  0.8210
  881SOL     OW 2641   0.828   0.081   0.393  0.2209  0.4286  0.2958
  881SOL    HW1 2642   0.871  -0.004   0.431 -0.5632  0.1231  0.6711
  881SOL    HW2 2643   0.731   0.057   0.375  2.7728  1.5087  1.8010
  882SOL     OW 2644   2.712   1.625   1.701  0.5493  0.4098 -0.1702
  882SOL    HW1 2645   2.790   1.564   1.666  1.5042 -0.7117 -1.4585
  882SOL    HW2 2646   2.736   1.666   1.791  0.5361 -1.5549 -3.2786
  883SOL     OW 2647   0.790   0.521   0.933  0.0547 -0.1254 -0.3251
  883SOL    HW1 2648   0.837   0.609   0.962 -0.3770 -0.0599 -2.4229
  883SOL    HW2 2649   0.730   0.476   1.008  0.0722 -0.0111  3.1944
  884SOL     OW 2650   1.171   1.771   1.126 -0.6703  0.5756  0.4702
  884SOL    HW1 2651   1.151   1.695   1.060  0.3964 -1.3157  0.5375
  884SOL    HW2 2652   1.112   1.862   1.114 -2.1310  2.3004 -2.3650
  885SOL     OW 2653   2.361   1.903   2.219  0.0129  0.2203  0.6115
  885SOL    HW1 2654   2.272   1.854   2.237  1.0360  0.4747 -1.0758
  885SOL    HW2 2655   2.369   1.997   2.258 -1.4120  0.6663 -0.8721
  886SOL     OW 2656   2.611   0.376   1.765 -0.4852  0.3082 -0.6185
  886SOL    HW1 2657   2.599   0.338   1.863 -1.0824  0.4086  1.6679
  886SOL    HW2 2658   2.708   0.410   1.749 -1.4265  1.0340  2.1166
  887SOL     OW 2659   0.158   2.093   1.256 -0.2200 -0.1668  0.3864
  887SOL    HW1 2660   0.106   2.052   1.175  1.8080  1.5077 -2.0584
  887SOL    HW2 2661   0.158   2.202   1.249  0.0845  1.8927 -2.0075
  888SOL     OW 2662   0.595   1.242   1.498  0.1329 -0.2045 -0.2637
  888SOL    HW1 2663   0.624   1.281   1.407  0.5755 -5.4116  2.5077
  888SOL    HW2 2664   0.646   1.150   1.521  0.6583 -1.7473  1.0776
  889SOL     OW 2665   0.860   2.430   2.242  0.1286  0.5733  0.1395
  889SOL    HW1 2666   0.762   2.417   2.271  0.4743 -0.0565  0.3690
  889SOL    HW2 2667   0.874   2.411   2.140  1.9186 -1.4800 -0.2523
  890SOL     OW 2668   2.351   2.490   0.212 -0.4985  0.4245  0.1201
  890SOL    HW1 2669   2.404   2.545   0.145 -0.2453  3.4512  0.8501
  890SOL    HW2 2670   2.316   2.541   0.290 -2.2950  0.9729 -1.5446
  891SOL     OW 2671   2.572   1.685   0.706 -0.1882 -0.2934 -0.0302
  891SOL    HW1 2672   2.566   1.645   0.799 -1.6814  1.3910 -0.5868
  891SOL    HW2 2673   2.475   1.681   0.669 -1.1411 -1.3481  0.7458
  892SOL     OW 2674   0.352   0.391   2.195  0.0928  0.5649 -0.0273
  892SOL    HW1 2675   0.327   0.476   2.140  0.3758  2.3256  0.4033
  892SOL    HW2 2676   0.447   0.357   2.173 -2.7347  0.2226  0.0360
  893SOL     OW 2677   1.690   0.249   2.759 -0.1432 -0.2919  0.2571
  893SOL    HW1 2678   1.765   0.317   2.775  0.8767 -0.3932 -0.3205
  893SOL    HW2 2679   1.606   0.307   2.736 -3.3329 -0.8451  0.6970
  894SOL     OW 2680   2.154   2.078   0.095 -0.0574  0.2053 -0.0749
  894SOL    HW1 2681   2.131   2.017   0.011  3.7239 -1.7485  0.1550
  894SOL    HW2 2682   2.184   2.020   0.179 -0.7894  0.5324  2.5802
  895SOL     OW 2683   2.720   1.431   0.932 -0.3115  0.3867  0.4714
  895SOL    HW1 2684   2.809   1.374   0.930  2.3930  0.0135  0.3868
  895SOL    HW2 2685   2.733   1.528   0.965 -0.0233 -2.7363  2.2797
  896SOL     OW 2686   1.791   1.822   1.245  0.3279  0.3078 -0.2210
  896SOL    HW1 2687   1.866   1.750   1.244 -0.7179 -0.7155 -2.6846
  896SOL    HW2 2688   1.706   1.784   1.195 -0.3855 -0.9505  1.2212
  897SOL     OW 2689   0.229   0.537   2.999 -0.0543 -0.5008 -0.1756
  897SOL    HW1 2690   0.171   0.614   2.952 -0.4346  2.7285  1.7310
  897SOL    HW2 2691   0.327   0.564   3.024  3.8428 -1.9886  0.8760
  898SOL     OW 2692   0.702   2.820   1.074  0.1190  0.0231  0.0025
  898SOL    HW1 2693   0.747   2.911   1.095 -1.2457  0.7113 -0.2125
  898SOL    HW2 2694   0.728   2.746   1.141 -0.2435  4.0866  0.9907
  899SOL     OW 2695   2.871   0.950   1.368  0.1615 -0.0456  0.6711
  899SOL    HW1 2696   2.830   0.990   1.277 -0.4815  3.7686 -0.9483
  899SOL    HW2 2697   2.968   0.992   1.389  1.5731  1.8821  1.9292
  900SOL     OW 2698   1.006   2.441   2.461  0.3153 -0.5439  0.0237
  900SOL    HW1 2699   0.958   2.420   2.372  0.0920  1.0439  2.0720
  900SOL    HW2 2700   0.972   2.393   2.547  0.7290  1.8411 -1.1620
  901SOL     OW 2701   1.888   2.444   1.436  0.4470  0.8310 -0.3146
  901SOL    HW1 2702   1.888   2.367   1.365 -1.8176 -0.6777 -1.5712
  901SOL    HW2 2703   1.957   2.432   1.509  0.7768 -0.4718  3.2037
  902SOL     OW 2704   2.533   1.659   1.467 -0.1341  0.3339 -0.6468
  902SOL    HW1 2705   2.589   1.635   1.551  0.5798 -0.5916  0.7239
  902SOL    HW2 2706   2.580   1.637   1.377 -0.3872 -0.8791  1.1082
  903SOL     OW 2707   0.329   2.425   2.004  0.0579  0.4598  0.2350
  903SOL    HW1 2708   0.272   2.355   2.057  2.3013  0.2046  0.3455
  903SOL    HW2 2709   0.271   2.484   1.940  0.3391  1.4501 -0.1179
  904SOL     OW 2710   2.015   0.797   2.451  0.0720 -0.8635 -0.3021
  904SOL    HW1 2711   1.956   0.724   2.496 -0.7394 -0.7469 -1.8171
  904SOL    HW2 2712   2.021   0.780   2.350  2.5166 -0.9184 -0.5523
  905SOL     OW 2713   2.815   0.083   2.407  0.2840 -0.2665  0.2679
  905SOL    HW1 2714   2.867   0.002   2.437 -0.9094  0.5950 -2.2272
  905SOL    HW2 2715   2.870   0.171   2.403  1.4546 -2.1401 -1.3288
  906SOL     OW 2716   0.173   1.735   1.905 -0.5007 -0.3522 -0.1344
  906SOL    HW1 2717   0.113   1.760   1.828 -1.3103 -0.7020  0.2504
  906SOL    HW2 2718   0.269   1.761   1.891 -2.3724  1.9921  1.7485
  907SOL     OW 2719   0.232   2.513   0.989 -0.1269  0.2304  0.3695
  907SOL    HW1 2720   0.320   2.465   0.958 -0.0737 -1.6902 -1.0637
  907SOL    HW2 2721   0.239   2.618   0.995  0.9318  0.2139 -0.7720
  908SOL     OW 2722   2.812   3.019   0.346  0.1882  0.2780 -0.3256
  908SOL    HW1 2723   2.736   3.011   0.277  2.0996  1.0751 -0.1676
  908SOL    HW2 2724   2.883   2.949   0.322  0.9871 -0.9652 -0.5111
  909SOL     OW 2725   0.848   1.028   2.670 -0.4800 -0.1314 -0.1039
  909SOL    HW1 2726   0.788   0.942   2.659 -1.6947  1.4802  0.7343
  909SOL    HW2 2727   0.924   1.036   2.596  1.1764 -0.8590 -1.4992
  910SOL     OW 2728   1.780   1.897   2.148 -0.0898  0.0984 -0.0083
  910SOL    HW1 2729   1.830   1.924   2.063  1.6222 -4.1455  2.3222
  910SOL    HW2 2730   1.697   1.955   2.166  0.1538 -2.8937  1.7587
  911SOL     OW 2731   1.759   2.921   1.485  0.0231  0.3799  0.2998
  911SOL    HW1 2732   1.844   2.878   1.438  2.6663  0.7281  0.1991
  911SOL    HW2 2733   1.727   2.858   1.560  0.0005  1.6153  2.4541
  912SOL     OW 2734   2.863   1.037   0.736 -0.3418  0.4667 -0.4263
  912SOL    HW1 2735   2.898   1.024   0.834 -2.4996  3.5384 -1.0685
  912SOL    HW2 2736   2.791   1.107   0.732  0.6992  1.1301 -0.8022
  913SOL     OW 2737   2.625   1.278   1.569 -0.0508  0.3750  0.0733
  913SOL    HW1 2738   2.654   1.175   1.567 -0.9446 -1.2428  0.9711
  913SOL    HW2 2739   2.659   1.338   1.489  1.0382 -1.3870 -1.2989
  914SOL     OW 2740   2.790   0.609   1.172 -0.8456  0.0150 -0.5268
  914SOL    HW1 2741   2.793   0.527   1.240 -0.4891  0.8385 -0.2237
  914SOL    HW2 2742   2.730   0.689   1.212 -1.3391  0.0321  2.3300
  915SOL     OW 2743   1.174   0.774   0.908 -0.4940 -0.0270  0.7266
  915SOL    HW1 2744   1.223   0.817   0.991 -0.0796 -1.8286  1.6104
  915SOL    HW2 2745   1.074   0.765   0.929  1.1158 -0.7839  3.5414
  916SOL     OW 2746   0.626   0.114   0.624 -0.2297  0.4872 -0.4030
  916SOL    HW1 2747   0.700   0.178   0.652  1.3287  1.5941 -3.1832
  916SOL    HW2 2748   0.562   0.160   0.563 -1.5037 -0.1201  0.4524
  917SOL     OW 2749   2.909   2.591   2.010 -0.0700 -0.2847 -0.1241
  917SOL    HW1 2750   2.815   2.618   1.966  0.6900  0.5040  0.0778
  917SOL    HW2 2751   2.990   2.655   1.976  3.3283  0.8344  1.0937
  918SOL     OW 2752   1.012   2.118   3.025 -0.0798  0.4651 -0.1648
  918SOL    HW1 2753   0.995   2.177   3.111  1.1639 -1.8181  0.3536
  918SOL    HW2 2754   1.066   2.167   2.951 -0.1541  1.4065  0.8551
  919SOL     OW 2755   0.862   1.654   2.797  0.6242  0.5530 -0.3905
  919SOL    HW1 2756   0.891   1.753   2.772 -1.8456 -1.3248 -2.6502
  919SOL    HW2 2757   0.818   1.606   2.716 -0.1636  1.1063  1.5485
  920SOL     OW 2758   1.315   1.796   2.501 -0.7540 -0.0680  0.4383
  920SOL    HW1 2759   1.407   1.782   2.451 -0.6126 -1.2883 -1.2816
  920SOL    HW2 2760   1.291   1.723   2.571 -0.4454 -1.4831  0.6313
  921SOL     OW 2761   1.152   0.042   2.602  0.1957 -0.1316 -0.0567
  921SOL    HW1 2762   1.128   0.028   2.505  1.7289 -0.4654  1.0445
  921SOL    HW2 2763   1.070   0.015   2.664 -1.7836 -0.6506  1.2384
  922SOL     OW 2764   2.193   2.427   2.780 -0.9427  0.3549 -0.4646
  922SOL    HW1 2765   2.195   2.324   2.788 -2.0399 -1.0402  1.9195
  922SOL    HW2 2766   2.135   2.455   2.703  3.7528 -2.1738 -0.5037
  923SOL     OW 2767   1.251   2.743   0.269  1.0781  0.2013 -0.0686
  923SOL    HW1 2768   1.296   2.804   0.341 -3.4275  0.6210  0.5758
  923SOL    HW2 2769   1.274   2.643   0.284 -1.0370  1.3585  1.4073
  924SOL     OW 2770   2.942   1.701   0.150  0.0624 -0.2077 -0.0814
  924SOL    HW1 2771   2.861   1.665   0.103 -0.5600  0.5415 -2.0765
  924SOL    HW2 2772   3.019   1.631   0.154 -0.3991  1.0258 -2.0116
  925SOL     OW 2773   0.028   2.853   1.506 -0.4257  0.5983 -0.0367
  925SOL    HW1 2774  -0.038   2.874   1.580 -1.5736  1.2059 -1.5831
  925SOL    HW2 2775  -0.026   2.805   1.428 -0.6100 -0.1249 -1.4336
  926SOL     OW 2776   1.282   2.811   1.308 -0.0246  0.4952  0.0320
  926SOL    HW1 2777   1.327   2.798   1.212  0.7040  0.8443 -1.2558
  926SOL    HW2 2778   1.347   2.865   1.372  1.8589 -1.9731  0.2223
  927SOL     OW 2779   0.371   2.648   1.780  0.5034  0.4914 -0.2083
  927SOL    HW1 2780   0.330   2.577   1.718  0.2871  1.0415  1.2934
  927SOL    HW2 2781   0.329   2.742   1.777  1.4000  1.0757 -1.7424
  928SOL     OW 2782   1.590   2.075   2.229 -0.4629 -0.3313  0.0201
  928SOL    HW1 2783   1.597   2.153   2.157  0.3268  0.9123 -1.4386
  928SOL    HW2 2784   1.489   2.048   2.242 -0.2332  0.3846  1.3005
  929SOL     OW 2785   2.451   2.484   2.876  0.2093  0.1944 -0.1496
  929SOL    HW1 2786   2.351   2.466   2.851 -0.5293 -1.9828 -1.6749
  929SOL    HW2 2787   2.499   2.533   2.799  0.4227  1.1365  4.7959
  930SOL     OW 2788   2.185   2.057   1.112  0.1963 -0.2834 -0.0872
  930SOL    HW1 2789   2.199   2.010   1.203  0.0061 -0.1841 -2.6687
  930SOL    HW2 2790   2.260   2.119   1.081  1.1518 -0.4148 -3.7762
  931SOL     OW 2791   0.486   1.695   2.592  0.2734  0.7517  0.3288
  931SOL    HW1 2792   0.494   1.718   2.695 -0.3101  0.7504  2.2896
  931SOL    HW2 2793   0.564   1.628   2.563 -0.8958 -3.2233 -2.1760
  932SOL     OW 2794   0.384   0.022   0.045  0.1223 -0.3616 -0.2921
  932SOL    HW1 2795   0.441   0.101   0.010 -2.4194 -1.1125  0.4836
  932SOL    HW2 2796   0.414  -0.070   0.005  1.2231 -0.6062  0.9838
  933SOL     OW 2797   1.014   0.828   3.046 -0.3199  0.3544  0.1134
  933SOL    HW1 2798   1.110   0.826   3.088  0.6219  1.0002  1.1310
  933SOL    HW2 2799   0.952   0.897   3.088 -2.7693 -0.4688 -2.2018
  934SOL     OW 2800   0.817   2.959   2.630 -0.9343  0.3354  0.0292
  934SOL    HW1 2801   0.782   2.901   2.551 -3.5517 -1.4264 -2.8168
  934SOL    HW2 2802   0.864   2.907   2.707 -0.1784  1.4600 -0.9469
  935SOL     OW 2803   0.026   0.562   0.822 -0.2561  0.5233  0.6882
  935SOL    HW1 2804  -0.013   0.555   0.723 -2.0717  1.0731 -1.0078
  935SOL    HW2 2805  -0.032   0.622   0.880 -0.2263 -2.4884  1.9553
  936SOL     OW 2806   1.120   2.850   0.066 -0.1055 -0.0804 -0.0502
  936SOL    HW1 2807   1.173   2.927   0.021  0.0740  1.7241 -0.9532
  936SOL    HW2 2808   1.177   2.805   0.144 -1.0781 -0.8605  1.6548
  937SOL     OW 2809   1.979   2.621   2.047  0.9789  0.0652 -0.5327
  937SOL    HW1 2810   1.909   2.634   2.124  0.9357 -0.9060  1.6429
  937SOL    HW2 2811   1.981   2.705   1.989 -0.4873  0.0563  1.3483
  938SOL     OW 2812   2.787   2.103   1.579  0.4726 -0.4413  0.2215
  938SOL    HW1 2813   2.746   2.198   1.585  0.2445 -1.1017 -2.9264
  938SOL    HW2 2814   2.888   2.097   1.600 -1.8541 -2.8279 -1.0628
  939SOL     OW 2815   2.837   1.146   2.486  0.1522  0.1752  0.3031
  939SOL    HW1 2816   2.912   1.116   2.419  1.7001  0.4686  1.1688
  939SOL    HW2 2817   2.814   1.082   2.564 -0.6011  0.3048 -1.2323
  940SOL     OW 2818   1.090   0.455   2.754  0.4398 -0.4423 -0.2600
  940SOL    HW1 2819   1.153   0.379   2.784  1.3369  2.5180 -2.2903
  940SOL    HW2 2820   1.023   0.434   2.673 -1.6611  1.0526 -1.8339
  941SOL     OW 2821   0.075   2.807   2.254  0.1686  0.0764  0.6125
  941SOL    HW1 2822   0.110   2.709   2.230 -0.1094 -1.5670 -0.4449
  941SOL    HW2 2823   0.144   2.854   2.319  0.2101 -1.4043 -1.8182
  942SOL     OW 2824   0.097   0.082   2.507 -0.0926 -0.0921  0.1889
  942SOL    HW1 2825   0.136   0.093   2.603 -2.3234 -1.2313  2.0117
  942SOL    HW2 2826   0.111   0.163   2.444  0.9295  1.1993  2.4333
  943SOL     OW 2827   2.124   1.709   2.359  0.3388 -0.0448 -0.4945
  943SOL    HW1 2828   2.095   1.676   2.265 -0.5396  2.0611  3.2322
  943SOL    HW2 2829   2.121   1.635   2.437 -0.7823 -3.1501 -1.1987
  944SOL     OW 2830   2.162   2.351   1.540 -0.5269  0.2880 -0.5003
  944SOL    HW1 2831   2.241   2.377   1.599  2.1719  0.0895 -0.5331
  944SOL    HW2 2832   2.120   2.257   1.556  1.2698 -0.4705 -0.5362
  945SOL     OW 2833   0.726   1.601   0.087 -0.6302 -0.3842 -0.5277
  945SOL    HW1 2834   0.632   1.587   0.039 -1.2372 -0.7975  1.6426
  945SOL    HW2 2835   0.737   1.544   0.172  1.4615 -0.6040 -0.1285
  946SOL     OW 2836   0.310   1.023   2.622 -0.1391  0.0671 -0.1015
  946SOL    HW1 2837   0.286   0.965   2.540 -1.4875 -1.2554  1.6571
  946SOL    HW2 2838   0.351   1.116   2.605 -1.5525 -1.0866  0.0884
  947SOL     OW 2839   1.472   0.520   3.050  0.6580  0.5676 -0.2381
  947SOL    HW1 2840   1.467   0.571   2.955 -3.2645  2.3310 -0.2528
  947SOL    HW2 2841   1.378   0.473   3.071 -1.0422  0.9462  1.0862
  948SOL     OW 2842   1.928   2.958   2.172 -0.2253  0.1127  0.5258
  948SOL    HW1 2843   1.929   2.929   2.072 -0.1579  1.1181 -0.5618
  948SOL    HW2 2844   1.896   2.883   2.234  0.5308  2.2419 -3.3647
  949SOL     OW 2845   0.605   2.437   0.466  0.3314 -0.5544  0.1140
  949SOL    HW1 2846   0.562   2.535   0.468  0.8659  1.4894  1.3129
  949SOL    HW2 2847   0.630   2.417   0.564 -0.7595  1.1993 -1.2928
  950SOL     OW 2848   0.198   2.192   2.944  0.6648 -0.0391  0.2735
  950SOL    HW1 2849   0.167   2.281   2.904 -0.2910 -3.3166 -1.6953
  950SOL    HW2 2850   0.189   2.109   2.884 -1.0847 -1.9210  0.0990
  951SOL     OW 2851   1.172   2.675   2.801 -0.0577  0.0770 -0.0702
  951SOL    HW1 2852   1.234   2.602   2.849  0.1969 -0.0130  1.3112
  951SOL    HW2 2853   1.216   2.721   2.723 -0.7511 -0.8718  1.2867
  952SOL     OW 2854   0.103   1.622   0.439  0.5737  0.7370  0.0708
  952SOL    HW1 2855   0.142   1.719   0.454  1.6410  2.7629 -5.0265
  952SOL    HW2 2856   0.142   1.560   0.508 -1.3833  2.4492 -0.7211
  953SOL     OW 2857   2.550   1.741   0.283  0.1881 -0.2531  0.1276
  953SOL    HW1 2858   2.504   1.645   0.274 -0.9330 -1.4414 -1.1112
  953SOL    HW2 2859   2.567   1.792   0.199 -0.5989 -1.3131  2.3933
  954SOL     OW 2860   2.176   0.558   0.909 -0.6626  0.3553 -0.1671
  954SOL    HW1 2861   2.186   0.555   0.808  1.2916 -1.8534  0.0379
  954SOL    HW2 2862   2.269   0.541   0.949  2.8584  0.1974 -0.8025
  955SOL     OW 2863   0.126   2.552   1.384 -0.2500 -0.7190 -0.6291
  955SOL    HW1 2864   0.026   2.588   1.378 -1.9158 -2.1788  0.6247
  955SOL    HW2 2865   0.184   2.629   1.350 -0.5623  0.7838 -0.1606
  956SOL     OW 2866   2.839   2.502   2.503  0.1149 -0.4069  0.2526
  956SOL    HW1 2867   2.852   2.399   2.504 -1.0563 -0.4748 -0.1415
  956SOL    HW2 2868   2.890   2.555   2.433 -1.7350  1.1512  0.2683
  957SOL     OW 2869   1.640   2.076   2.758 -0.0754 -0.2615  0.1497
  957SOL    HW1 2870   1.622   1.987   2.807 -1.4066 -0.7316 -0.5690
  957SOL    HW2 2871   1.683   2.070   2.662 -0.5346 -2.0846  2.0189
  958SOL     OW 2872   2.651   2.280   2.942 -0.0009  0.5439 -0.8767
  958SOL    HW1 2873   2.577   2.347   2.927 -0.5483 -2.2502 -0.8934
  958SOL    HW2 2874   2.633   2.211   3.024  0.3792 -1.1858 -0.4818
  959SOL     OW 2875   0.347   2.763   0.148 -0.5906 -0.1904 -0.5102
  959SOL    HW1 2876   0.275   2.832   0.160  3.0544 -1.4554  0.3951
  959SOL    HW2 2877   0.312   2.666   0.155 -0.0537 -1.5722  2.6206
  960SOL     OW 2878   1.959   0.466   1.935  0.1595 -0.4452  0.3280
  960SOL    HW1 2879   1.906   0.553   1.921 -0.7308 -0.6387  2.0015
  960SOL    HW2 2880   1.985   0.455   2.039 -0.4304  0.1475  3.7069
  961SOL     OW 2881   2.530   1.873   1.048  0.4539 -0.3114 -0.5619
  961SOL    HW1 2882   2.519   1.956   0.981  0.4878  0.8612  0.9216
  961SOL    HW2 2883   2.493   1.891   1.144  3.1505  0.7955  0.5008
  962SOL     OW 2884   1.278   0.858   0.053  0.0426 -0.2835 -0.2552
  962SOL    HW1 2885   1.289   0.903  -0.046  0.9778 -0.3154  0.2266
  962SOL    HW2 2886   1.267   0.927   0.133 -1.6575 -0.1146  0.0283
  963SOL     OW 2887   2.281   2.578   1.804  0.0152  0.0140  0.5155
  963SOL    HW1 2888   2.247   2.477   1.827 -2.1679 -2.2323  1.9252
  963SOL    HW2 2889   2.319   2.624   1.887 -0.1116 -0.5254  1.0593
  964SOL     OW 2890   2.350   0.328   1.659  0.3379 -0.4486  0.0052
  964SOL    HW1 2891   2.445   0.353   1.687  3.4413 -0.9205 -1.7181
  964SOL    HW2 2892   2.333   0.351   1.558 -1.0591  0.4325 -2.8283
  965SOL     OW 2893   2.599   2.968   0.155  0.2127 -0.4059 -1.0556
  965SOL    HW1 2894   2.671   2.952   0.083  1.2419  0.3171 -0.0869
  965SOL    HW2 2895   2.508   2.994   0.115  0.8253  0.0486 -3.5834
  966SOL     OW 2896   2.491   2.492   2.235 -0.4474  0.4688 -0.4640
  966SOL    HW1 2897   2.501   2.590   2.203  0.1115  2.1138 -0.1346
  966SOL    HW2 2898   2.427   2.434   2.181 -0.7784  0.9230  0.6572
  967SOL     OW 2899   2.755   2.856   2.465 -0.4492 -0.5276 -0.0683
  967SOL    HW1 2900   2.784   2.797   2.387  1.4501 -0.7772  0.2510
  967SOL    HW2 2901   2.837   2.903   2.507 -1.0883  0.1089 -0.5218
  968SOL     OW 2902   1.943   1.042   2.619 -0.5521 -0.2381 -0.1624
  968SOL    HW1 2903   1.860   1.110   2.606  0.7255  2.2651  1.6698
  968SOL    HW2 2904   1.960   0.974   2.542  2.3221  1.1752 -0.5241
  969SOL     OW 2905   2.824   2.575   1.108 -0.1295 -0.4643 -0.0143
  969SOL    HW1 2906   2.803   2.590   1.008  1.4534 -0.5524 -0.2674
  969SOL    HW2 2907   2.890   2.499   1.121  0.1858  0.3210  1.5228
  970SOL     OW 2908   1.139   2.098   1.865 -0.3371  0.7085  0.2318
  970SOL    HW1 2909   1.126   2.014   1.924  3.2627  4.0789  1.1816
  970SOL    HW2 2910   1.053   2.160   1.872  0.7612  1.6490  1.3902
  971SOL     OW 2911   2.852   2.105   1.919 -0.2475 -0.9958  0.2294
  971SOL    HW1 2912   2.859   2.194   1.973 -1.6612 -0.1149  1.4308
  971SOL    HW2 2913   2.896   2.115   1.827  0.4835 -0.4971  0.0980
  972SOL     OW 2914   1.929   2.471   0.221  0.0223  0.1659  0.1543
  972SOL    HW1 2915   1.902   2.375   0.178 -1.4794 -2.3079 -1.3608
  972SOL    HW2 2916   1.952   2.474   0.322 -1.6830  2.5452 -1.8045
  973SOL     OW 2917   1.147   0.892   1.877  0.5502 -0.4991  0.1534
  973SOL    HW1 2918   1.097   0.805   1.871 -1.1734  2.5444 -1.3191
  973SOL    HW2 2919   1.088   0.975   1.850 -0.3206  0.0505  0.4832
  974SOL     OW 2920   1.594   0.588   1.987 -0.0765  0.5635  0.5274
  974SOL    HW1 2921   1.682   0.624   1.943 -0.6180 -2.1587  0.4469
  974SOL    HW2 2922   1.511   0.645   1.960  0.1767 -2.8835 -0.6908
  975SOL     OW 2923   2.390   3.026   3.082 -0.5975  0.0589 -0.1815
  975SOL    HW1 2924   2.296   2.983   3.088 -1.8230 -1.1292  0.8587
  975SOL    HW2 2925   2.456   2.983   3.013 -0.6935 -1.6056  0.8204
  976SOL     OW 2926   1.924   2.706   2.329 -0.8662  0.6653  0.2447
  976SOL    HW1 2927   1.824   2.688   2.353  0.2139  0.8258  0.6651
  976SOL    HW2 2928   1.986   2.708   2.411 -1.7420  0.8446  0.5288
  977SOL     OW 2929   0.463   0.707   1.018  0.0589 -0.1837  0.1070
  977SOL    HW1 2930   0.379   0.708   0.959  2.0534 -0.2075  4.7500
  977SOL    HW2 2931   0.535   0.781   0.994 -1.1009  0.7309  0.9686
   3.10000   3.10000   3.10000
