1000 SPC/Fw water molecules t=   0.05000 step= 50
 2931
    1SOL     OW    1   2.515   0.406   2.575 -0.2751 -0.1545  0.1240
    1SOL    HW1    2   2.532   0.302   2.595 -0.0804 -0.1345 -0.1151
    1SOL    HW2    3   2.559   0.464   2.650  1.1112 -1.6523  0.9163
    2SOL     OW    4   2.733   2.993   1.432 -0.3921 -0.1984  0.5763
    2SOL    HW1    5   2.799   3.044   1.375 -0.7585 -1.0552 -0.6570
    2SOL    HW2    6   2.678   3.057   1.497 -1.0537  1.4512 -1.4277
    3SOL     OW    7   2.717   2.632   0.438 -0.6433 -0.0436 -0.6212
    3SOL    HW1    8   2.685   2.533   0.447 -1.7672 -0.9029  0.0842
    3SOL    HW2    9   2.804   2.658   0.494  1.7461 -0.8485  0.0762
    4SOL     OW   10   1.314   1.441   2.332  0.1148 -0.2049  0.1363
    4SOL    HW1   11   1.226   1.484   2.313  1.5259  1.7888 -1.2962
    4SOL    HW2   12   1.306   1.360   2.393 -2.2512  1.7056  0.5232
    5SOL     OW   13   1.183   1.489   3.037  0.3500 -0.2527  0.3569
    5SOL    HW1   14   1.218   1.583   3.062  0.9025  0.6504  1.6107
    5SOL    HW2   15   1.087   1.474   3.070 -1.1269 -0.0486  1.4502
    6SOL     OW   16   0.154   1.903   2.944 -0.5150 -0.8157  0.1217
    6SOL    HW1   17   0.193   1.939   3.032  0.3884  1.4835 -0.1312
    6SOL    HW2   18   0.114   1.814   2.964  2.1058  0.9201  2.1697
    7SOL     OW   19   2.597   0.837   1.198  0.1002 -0.4140 -0.4291
    7SOL    HW1   20   2.635   0.748   1.224 -1.2833 -0.2193 -0.7335
    7SOL    HW2   21   2.590   0.832   1.094 -1.3610 -1.6398 -1.6346
    8SOL     OW   22   0.448   0.681   1.581  0.1875 -0.2502 -0.6458
    8SOL    HW1   23   0.497   0.590   1.586 -1.1075  0.0773  1.4306
    8SOL    HW2   24   0.384   0.677   1.503  0.4597  1.0872 -3.1321
    9SOL     OW   25   1.144   0.899   2.264 -0.6171 -0.0550 -0.1077
    9SOL    HW1   26   1.223   0.958   2.240  0.6177  0.1553  1.4906
    9SOL    HW2   27   1.071   0.901   2.192  3.6505 -1.0893  1.0285
   10SOL     OW   28   0.624   1.368   1.327 -0.0505 -0.0704 -0.3547
   10SOL    HW1   29   0.531   1.372   1.290  2.8847  0.5185 -0.5379
   10SOL    HW2   30   0.689   1.449   1.302  1.0276  2.1572  1.5298
   11SOL     OW   31   2.322   2.548   0.906 -0.3948 -0.0236  0.0240
   11SOL    HW1   32   2.358   2.613   0.979  1.9843  0.6591  1.1635
   11SOL    HW2   33   2.390   2.472   0.890 -3.0545  0.9467  2.0111
   12SOL     OW   34   1.428   0.913   0.483 -0.7556 -0.2810  0.5178
   12SOL    HW1   35   1.445   0.939   0.382  1.5285 -0.3130 -0.6568
   12SOL    HW2   36   1.387   0.814   0.483 -0.4278 -0.8336 -1.6543
   13SOL     OW   37   2.442   0.684   1.786  0.3376 -0.1032 -0.4573
   13SOL    HW1   38   2.388   0.652   1.871  1.4359 -1.7231 -0.8395
   13SOL    HW2   39   2.413   0.634   1.697  0.2841 -0.5550 -3.0147
   14SOL     OW   40   1.787   0.026   0.537  0.0779 -0.1851  0.0866
   14SOL    HW1   41   1.697   0.073   0.531 -0.4932 -1.5636  0.2318
   14SOL    HW2   42   1.833   0.038   0.628 -0.7287  0.3647 -0.8654
   15SOL     OW   43   1.973   2.054   2.804 -0.2273  0.2164  0.2090
   15SOL    HW1   44   1.898   2.124   2.804 -1.6586 -1.8822  2.2063
   15SOL    HW2   45   1.941   1.967   2.749 -0.5580 -0.8007  0.4865
   16SOL     OW   46   1.564   1.652   0.006  0.0676  0.5402  0.7091
   16SOL    HW1   47   1.636   1.591  -0.034  1.8266  1.7624 -1.8178
   16SOL    HW2   48   1.577   1.657   0.110  1.5731  0.4576  1.4635
   17SOL     OW   49   0.075   0.474   0.147  0.9054 -0.9706  0.4909
   17SOL    HW1   50   0.148   0.509   0.078 -0.6339  0.2816  1.0842
   17SOL    HW2   51  -0.012   0.448   0.090 -0.7132  0.6004  2.7322
   18SOL     OW   52   1.083   2.882   2.146  0.3087  0.1983  0.2928
   18SOL    HW1   53   1.023   2.839   2.070  1.1918 -0.6868  0.5642
   18SOL    HW2   54   1.180   2.893   2.117 -1.0045  1.4385  2.0697
   19SOL     OW   55   0.590   1.023   1.956 -0.3675 -0.5284  0.5330
   19SOL    HW1   56   0.532   1.004   2.043  1.0097 -4.3775  1.5983
   19SOL    HW2   57   0.672   0.958   1.944 -0.6559 -2.7256 -1.0928
   20SOL     OW   58   0.259   2.725   0.855  0.6296  0.2351  0.2236
   20SOL    HW1   59   0.172   2.785   0.844  0.1663  3.0212 -0.4741
   20SOL    HW2   60   0.321   2.720   0.767 -0.0546 -1.2148 -1.8431
   21SOL     OW   61   2.829   0.225   2.133  0.3138 -0.3662  0.4628
   21SOL    HW1   62   2.904   0.163   2.100  0.1669 -1.4323  0.2969
   21SOL    HW2   63   2.773   0.192   2.211  1.5272 -3.1676  2.6055
   22SOL     OW   64   2.353   0.178   0.077 -0.0930  0.3852 -0.2786
   22SOL    HW1   65   2.357   0.072   0.087 -0.3860  2.7909  0.2541
   22SOL    HW2   66   2.255   0.214   0.094 -0.6990 -1.2404  1.4255
   23SOL     OW   67   2.752   0.657   0.702  0.5443  0.3847 -0.7995
   23SOL    HW1   68   2.720   0.564   0.660 -3.1526  2.6849  0.9557
   23SOL    HW2   69   2.782   0.727   0.632 -0.1017 -2.1358 -1.8192
   24SOL     OW   70   0.144   1.871   0.432 -0.0341  0.1434  0.6662
   24SOL    HW1   71   0.049   1.878   0.396  1.6178 -0.7434  1.2604
   24SOL    HW2   72   0.216   1.884   0.360  2.1527  0.0258  1.2398
   25SOL     OW   73   2.268   0.516   0.196 -0.3550 -0.2458 -0.1556
   25SOL    HW1   74   2.345   0.469   0.231 -0.5148 -0.0090  0.8566
   25SOL    HW2   75   2.260   0.513   0.097  0.2299 -2.8984 -1.4768
   26SOL     OW   76   2.533   2.159   2.065  0.7746  0.3654 -0.3417
   26SOL    HW1   77   2.592   2.217   2.131  2.0030 -1.0387 -0.0006
   26SOL    HW2   78   2.590   2.089   2.011  0.5626 -0.5952  1.6122
   27SOL     OW   79   0.668   2.992   0.136  0.3876 -0.2988 -0.4532
   27SOL    HW1   80   0.748   3.052   0.102  0.2009 -2.6957 -1.2738
   27SOL    HW2   81   0.577   2.994   0.084 -2.2375 -0.6879  0.6033
   28SOL     OW   82   1.460   0.230   0.192  0.0777  0.1315  0.3888
   28SOL    HW1   83   1.558   0.201   0.177 -2.9927  2.1341  0.9966
   28SOL    HW2   84   1.443   0.325   0.224  0.9997  1.0603  0.4184
   29SOL     OW   85   2.020   0.576   0.314  0.1464  0.2714  0.0613
   29SOL    HW1   86   2.024   0.668   0.367  0.4356  1.3153 -2.7151
   29SOL    HW2   87   2.102   0.565   0.249  1.5634 -1.7582 -3.0577
   30SOL     OW   88   0.193   2.052   0.903  0.0112  0.3447  0.0605
   30SOL    HW1   89   0.157   2.017   0.809 -3.1145 -1.2761  0.8702
   30SOL    HW2   90   0.124   2.088   0.970 -0.5318  3.8088 -0.5473
   31SOL     OW   91   2.101   0.024   2.331 -0.4440  0.7428 -0.4052
   31SOL    HW1   92   2.095   0.018   2.436 -3.3187  1.4919  1.0923
   31SOL    HW2   93   2.038  -0.036   2.274 -0.4869  0.3035 -1.7601
   32SOL     OW   94   3.002   0.113   0.245 -0.3309  0.2205 -0.7467
   32SOL    HW1   95   2.962   0.035   0.301  2.1494  1.3031  3.7578
   32SOL    HW2   96   3.095   0.075   0.205 -0.1633  2.8118 -0.8527
   33SOL     OW   97   0.967   0.321   0.448  0.1792  0.0579 -0.1897
   33SOL    HW1   98   0.915   0.235   0.448 -1.0025  0.7952 -1.5334
   33SOL    HW2   99   1.024   0.325   0.539  1.6867  0.6785  0.0249
   34SOL     OW  100   0.374   2.890   1.039  0.1168 -0.6482  0.1831
   34SOL    HW1  101   0.326   2.834   0.968  0.7801  2.8720 -1.9270
   34SOL    HW2  102   0.476   2.879   1.027  0.9425 -0.7950  1.1331
   35SOL     OW  103   0.043   3.094   1.794 -0.4761  0.3494  0.4851
   35SOL    HW1  104   0.095   3.003   1.770 -0.5051 -1.3584  2.0390
   35SOL    HW2  105  -0.027   3.121   1.720  0.6648 -2.6765  1.3320
   36SOL     OW  106   1.895   1.157   1.782 -0.1341  0.3780  0.3104
   36SOL    HW1  107   1.960   1.120   1.707 -3.4305 -0.1766 -1.1569
   36SOL    HW2  108   1.901   1.263   1.781  2.7809 -2.9546 -0.1236
   37SOL     OW  109   1.125   0.327   1.010 -0.1551 -0.3035  0.0741
   37SOL    HW1  110   1.091   0.404   1.072 -1.4565 -0.2873  3.4296
   37SOL    HW2  111   1.221   0.296   1.034  0.4111 -1.0887 -3.9628
   38SOL     OW  112   1.159   2.700   2.343 -0.2503  0.7407  0.1797
   38SOL    HW1  113   1.082   2.645   2.374 -2.7574  1.0109  0.3702
   38SOL    HW2  114   1.125   2.773   2.279 -0.2283 -0.9833  1.2803
   39SOL     OW  115   2.425   1.510  -0.002 -0.1533  0.2596 -1.2603
   39SOL    HW1  116   2.465   1.408  -0.014  1.7880 -1.1226 -2.1235
   39SOL    HW2  117   2.356   1.513   0.079 -0.5381 -0.0123 -0.0462
   40SOL     OW  118   2.043   2.499   2.608  0.8193 -0.3535 -0.5192
   40SOL    HW1  119   1.966   2.566   2.646 -0.1188  0.2315 -0.5130
   40SOL    HW2  120   2.001   2.431   2.532  3.5140  1.4764 -2.0702
   41SOL     OW  121   2.952   0.719   2.732 -0.6733 -0.0481  0.9706
   41SOL    HW1  122   2.872   0.785   2.732 -2.3314  2.0543  2.3336
   41SOL    HW2  123   2.927   0.620   2.727  0.7253 -2.2610 -2.4025
   42SOL     OW  124   1.700   1.739   0.590  0.0602  0.0603 -0.1810
   42SOL    HW1  125   1.655   1.663   0.534 -0.7346  2.4947 -0.6335
   42SOL    HW2  126   1.749   1.808   0.526 -0.7896  4.1225  0.5954
   43SOL     OW  127   0.461   1.748   1.206  0.6431 -0.0704 -0.1186
   43SOL    HW1  128   0.444   1.696   1.292  0.2080  1.5534  0.0820
   43SOL    HW2  129   0.387   1.745   1.131  0.4866  0.4508 -0.3141
   44SOL     OW  130   1.753   2.459   0.017 -0.1573 -0.6386 -0.0841
   44SOL    HW1  131   1.807   2.532  -0.033  3.4715 -1.8721  3.5527
   44SOL    HW2  132   1.802   2.450   0.107  2.6970 -0.1295  1.6798
   45SOL     OW  133   0.367   1.890   2.555  0.6582 -0.4356 -0.2505
   45SOL    HW1  134   0.298   1.919   2.476 -0.4603  0.1915 -0.0853
   45SOL    HW2  135   0.387   1.788   2.562  2.7509  1.2288 -1.3760
   46SOL     OW  136   1.190   0.684   0.163 -0.4944 -0.3848  0.7802
   46SOL    HW1  137   1.224   0.772   0.119 -1.0859  0.1227  3.3878
   46SOL    HW2  138   1.119   0.711   0.232  0.1016 -0.7134 -1.7995
   47SOL     OW  139   0.230   2.421   1.577  0.0361  0.2280  0.3105
   47SOL    HW1  140   0.318   2.362   1.561 -0.7878  1.8253  1.0536
   47SOL    HW2  141   0.203   2.483   1.498 -0.8556  0.9238 -2.3784
   48SOL     OW  142   2.648   0.556   0.104 -0.8152  0.0105 -0.1395
   48SOL    HW1  143   2.614   0.554   0.197  3.9321  0.8104 -1.4633
   48SOL    HW2  144   2.736   0.609   0.087 -0.7176 -0.6501 -0.5490
   49SOL     OW  145   0.359   0.859   1.764 -0.3817 -0.4230  0.3073
   49SOL    HW1  146   0.436   0.907   1.820 -0.1321 -0.4036 -0.9077
   49SOL    HW2  147   0.403   0.788   1.696 -1.1823 -1.5432 -1.2908
   50SOL     OW  148   1.707   1.074   0.277  0.8905  0.7171  0.1108
   50SOL    HW1  149   1.724   0.973   0.259 -0.4411  0.0672 -0.6407
   50SOL    HW2  150   1.646   1.092   0.366 -0.5656 -0.9683  2.8248
   51SOL     OW  151   2.991   1.894   0.336 -0.0954 -0.4261  0.7187
   51SOL    HW1  152   2.994   1.935   0.236  0.8687  1.1600  0.7375
   51SOL    HW2  153   2.963   1.793   0.329 -2.6792 -0.3577 -1.8906
   52SOL     OW  154   0.809   1.894   0.482  0.3259  0.3991 -0.2933
   52SOL    HW1  155   0.733   1.954   0.518 -2.6712  0.6354 -2.1201
   52SOL    HW2  156   0.843   1.820   0.555  0.5049 -0.8064  0.5597
   53SOL     OW  157   3.100   0.391   1.528  0.1616 -0.4918 -0.0313
   53SOL    HW1  158   3.031   0.377   1.607 -1.1185  0.1488  1.7096
   53SOL    HW2  159   3.101   0.486   1.493  0.0424  0.1508 -0.6262
   54SOL     OW  160   1.767   0.477   3.006  0.3182  0.4691 -0.0584
   54SOL    HW1  161   1.814   0.431   3.088 -2.3080 -0.1821 -2.0729
   54SOL    HW2  162   1.672   0.433   2.991  0.0033  0.7037  0.3632
   55SOL     OW  163   0.691   2.911   0.651 -0.0389  0.6525  0.3196
   55SOL    HW1  164   0.631   2.992   0.646  0.5407 -1.0704  3.1546
   55SOL    HW2  165   0.797   2.924   0.642  3.3714  1.1781 -1.7168
   56SOL     OW  166   0.479   1.545   3.090  0.8506  0.0706 -0.4854
   56SOL    HW1  167   0.393   1.598   3.118  1.0839  0.7413  2.1304
   56SOL    HW2  168   0.466   1.440   3.091 -0.9358  2.4863 -1.7179
   57SOL     OW  169   1.749   2.384   2.675  0.8185  0.1160  0.0995
   57SOL    HW1  170   1.815   2.338   2.609 -0.0641  0.7962  1.5487
   57SOL    HW2  171   1.651   2.398   2.636 -0.0428 -2.4471 -2.7882
   58SOL     OW  172   0.649   0.480   1.101 -0.0019  0.1793 -0.0440
   58SOL    HW1  173   0.590   0.560   1.073 -2.8237 -0.7657 -0.3460
   58SOL    HW2  174   0.604   0.382   1.108 -2.9508 -0.4857  0.1022
   59SOL     OW  175   0.475   2.390   2.698 -0.3832 -0.1345 -0.5528
   59SOL    HW1  176   0.498   2.284   2.710  1.4418 -0.0788 -1.2770
   59SOL    HW2  177   0.527   2.452   2.771  0.1991 -0.1976  0.6272
   60SOL     OW  178   2.319   2.163   2.256 -0.2583  0.2417 -0.3683
   60SOL    HW1  179   2.406   2.185   2.198  1.3765 -0.1374  0.5992
   60SOL    HW2  180   2.332   2.204   2.354  1.4691  0.8288  1.1105
   61SOL     OW  181   1.340   0.655   0.435  0.2401  0.1152 -0.4543
   61SOL    HW1  182   1.267   0.629   0.506 -1.5311  0.8678 -0.9171
   61SOL    HW2  183   1.300   0.647   0.337 -0.6069  0.7125  0.5559
   62SOL     OW  184   2.728   1.880   3.074 -0.1934  0.1641  0.6518
   62SOL    HW1  185   2.726   1.776   3.077  1.5800 -0.3875  0.5096
   62SOL    HW2  186   2.683   1.929   2.995  1.7352 -0.3362 -1.6736
   63SOL     OW  187   0.569   0.815   0.134 -0.6805 -0.4057  0.3109
   63SOL    HW1  188   0.534   0.913   0.118 -0.0049  1.7010  0.0479
   63SOL    HW2  189   0.599   0.801   0.233  0.3043  1.1275  0.2339
   64SOL     OW  190   0.067   0.559   2.489 -0.0576 -0.0476  0.2227
   64SOL    HW1  191   0.125   0.608   2.559  0.4263 -0.6910  2.2444
   64SOL    HW2  192   0.058   0.616   2.399 -0.9928 -1.2859  0.7220
   65SOL     OW  193   0.173   1.493   0.610 -0.1518  0.2948 -0.4326
   65SOL    HW1  194   0.196   1.548   0.693 -0.7926 -1.9251  0.7197
   65SOL    HW2  195   0.262   1.480   0.554  0.4436 -1.9907  0.4042
   66SOL     OW  196   2.467   0.332   0.627  0.3724  0.2663  0.1419
   66SOL    HW1  197   2.401   0.412   0.633  2.0890  0.6241  2.0468
   66SOL    HW2  198   2.435   0.254   0.683 -0.0211 -0.7946  0.9127
   67SOL     OW  199   0.469   2.566   1.299 -0.0905  0.4454 -0.0552
   67SOL    HW1  200   0.557   2.586   1.338 -0.9747 -0.6148  0.2791
   67SOL    HW2  201   0.443   2.466   1.296 -1.2808  1.8818  0.1038
   68SOL     OW  202   0.988   1.100   2.398  0.1175 -0.0208 -0.2298
   68SOL    HW1  203   1.060   1.048   2.346  0.1633 -0.8262  1.0280
   68SOL    HW2  204   0.922   1.167   2.354 -0.0980  0.7094  1.9395
   69SOL     OW  205   0.779   2.722   2.178 -0.0115 -0.0667 -0.1972
   69SOL    HW1  206   0.812   2.626   2.171  2.6609  1.4779 -3.1948
   69SOL    HW2  207   0.673   2.727   2.198  0.9713 -0.3218 -1.5371
   70SOL     OW  208   0.555   0.224   2.698  0.6590 -0.2667  0.1785
   70SOL    HW1  209   0.555   0.276   2.789  1.9458  0.5270 -0.0197
   70SOL    HW2  210   0.540   0.122   2.705 -3.3519  0.3171  0.5949
   71SOL     OW  211   1.112   1.777   0.357  0.4148  0.5761  0.1249
   71SOL    HW1  212   1.054   1.693   0.363 -0.9081 -0.4558 -1.6233
   71SOL    HW2  213   1.089   1.832   0.273  1.2559  3.2441  2.0327
   72SOL     OW  214   1.777   0.105   2.077 -0.5930 -0.9917  0.1901
   72SOL    HW1  215   1.829   0.145   1.998  0.9308 -0.7901  2.2605
   72SOL    HW2  216   1.822   0.015   2.107  1.9746 -3.5072  0.4621
   73SOL     OW  217   2.853   2.204   2.496 -0.0017  0.2743 -0.0899
   73SOL    HW1  218   2.836   2.123   2.432  3.0927  0.8791  1.2439
   73SOL    HW2  219   2.901   2.172   2.582  0.4389  0.8555  1.2262
   74SOL     OW  220   2.705   2.965   2.102  0.0306  0.2365 -0.5888
   74SOL    HW1  221   2.655   2.931   2.186  3.1424  0.3933  2.0387
   74SOL    HW2  222   2.809   2.952   2.119 -0.9671 -3.4784 -2.1044
   75SOL     OW  223   0.917   0.765   0.952  0.0439 -0.2622 -0.0685
   75SOL    HW1  224   0.833   0.812   0.935  0.9327  0.4020 -1.0188
   75SOL    HW2  225   0.956   0.795   1.046  0.7613  1.3353 -0.7195
   76SOL     OW  226   1.746   1.247   2.564 -0.4957 -0.3718  0.5525
   76SOL    HW1  227   1.646   1.228   2.554 -1.1647 -1.1816  1.1351
   76SOL    HW2  228   1.769   1.320   2.633  0.0631  0.6962  2.1843
   77SOL     OW  229   2.988   1.005   1.013 -0.2037  0.2215 -0.7850
   77SOL    HW1  230   2.961   0.906   1.003  2.5097 -0.8936  1.4273
   77SOL    HW2  231   3.069   1.012   1.077  1.2511  1.1648 -0.9576
   78SOL     OW  232   1.984   1.397   1.441 -0.3816  0.2110  0.2385
   78SOL    HW1  233   2.045   1.384   1.361  1.1113  0.0662  0.7185
   78SOL    HW2  234   1.889   1.367   1.411  1.6484 -1.6006 -1.5789
   79SOL     OW  235   0.630   1.282   0.834 -0.4410 -0.2817  0.2924
   79SOL    HW1  236   0.536   1.298   0.806  0.9822  2.0464  0.2661
   79SOL    HW2  237   0.675   1.208   0.777 -1.3173 -0.9065 -1.6336
   80SOL     OW  238   0.654   0.502   1.607 -0.6094 -0.1970 -0.0954
   80SOL    HW1  239   0.740   0.559   1.579  0.6108  1.3419  0.4579
   80SOL    HW2  240   0.661   0.405   1.566  1.7553 -2.3485 -2.3318
   81SOL     OW  241   1.115   1.458   2.601 -0.0490 -0.0607  0.0710
   81SOL    HW1  242   1.078   1.409   2.684  2.1075 -0.7985  0.4491
   81SOL    HW2  243   1.046   1.464   2.525  2.2545 -2.0855 -2.6091
   82SOL     OW  244   0.898   3.012   1.531  0.1080  0.6333 -0.0172
   82SOL    HW1  245   0.979   2.972   1.478  0.7467 -3.0396  0.0330
   82SOL    HW2  246   0.817   2.946   1.529 -1.1261 -1.6687  1.4545
   83SOL     OW  247   2.730   2.422   0.806  0.3360 -0.1524  0.2371
   83SOL    HW1  248   2.643   2.379   0.785 -0.0481 -0.3532  1.0659
   83SOL    HW2  249   2.764   2.502   0.745  3.9185 -0.5296  3.6477
   84SOL     OW  250   0.656   0.012   2.411 -0.0701 -0.1784  0.0378
   84SOL    HW1  251   0.588  -0.009   2.486 -0.5630  1.2687 -0.1027
   84SOL    HW2  252   0.741  -0.036   2.427 -1.6240  2.4085  0.7639
   85SOL     OW  253   0.342   1.644   1.466  0.2584  0.0121  0.2163
   85SOL    HW1  254   0.309   1.737   1.483  0.4503  1.9844 -1.7464
   85SOL    HW2  255   0.367   1.585   1.547 -3.2736 -0.9976 -0.8445
   86SOL     OW  256   0.352   0.993   1.485  0.2879  0.8442  0.2071
   86SOL    HW1  257   0.320   0.923   1.413 -2.2447  1.7565  0.6111
   86SOL    HW2  258   0.421   0.952   1.552  1.1927  0.1908 -0.1678
   87SOL     OW  259   1.547   0.558   0.199  0.4981  0.2973 -0.0043
   87SOL    HW1  260   1.580   0.649   0.230 -0.2127  0.3267  0.4504
   87SOL    HW2  261   1.525   0.552   0.098 -1.6246 -0.1324  0.1475
   88SOL     OW  262   1.618   1.333   0.210 -0.0682 -0.7581  0.2174
   88SOL    HW1  263   1.663   1.239   0.192  3.6606 -0.9544 -1.0103
   88SOL    HW2  264   1.513   1.335   0.206 -0.0681 -2.5374 -0.8353
   89SOL     OW  265   2.997   0.427   0.593 -0.0682 -0.4265 -0.1812
   89SOL    HW1  266   3.048   0.344   0.605 -1.7223  0.7787  1.0612
   89SOL    HW2  267   2.896   0.410   0.579  1.5244 -2.1566 -0.7513
   90SOL     OW  268   0.853   1.632   3.080  0.7673 -0.3966 -0.3256
   90SOL    HW1  269   0.786   1.637   3.161 -0.2951  0.6533 -0.5199
   90SOL    HW2  270   0.813   1.606   2.988 -0.0570  2.9845 -0.5279
   91SOL     OW  271   1.250   1.358   1.812 -0.1899  0.5332  0.4189
   91SOL    HW1  272   1.280   1.452   1.847 -0.5694 -0.3888  3.5904
   91SOL    HW2  273   1.331   1.300   1.774 -2.4066  0.3984 -1.8302
   92SOL     OW  274   0.077   1.096   1.208  0.3105 -0.4525 -0.4689
   92SOL    HW1  275   0.164   1.107   1.156 -1.0762  1.4021  1.5962
   92SOL    HW2  276   0.094   1.036   1.291  0.6779  1.2214 -2.6061
   93SOL     OW  277   0.116   2.825   3.048 -0.1190  0.4953  0.0390
   93SOL    HW1  278   0.014   2.816   3.015 -1.1626  2.2703 -2.2787
   93SOL    HW2  279   0.143   2.741   3.107  1.7155 -2.0426 -1.5397
   94SOL     OW  280   1.506   1.266   1.678  0.3890  0.4844 -0.1664
   94SOL    HW1  281   1.533   1.200   1.754 -2.3226 -1.5870 -0.4318
   94SOL    HW2  282   1.557   1.356   1.679  0.9543  0.9675 -2.4757
   95SOL     OW  283   1.416   2.494   2.919 -0.3521 -0.1996 -0.5293
   95SOL    HW1  284   1.346   2.469   2.996 -3.0604 -0.6961 -1.6918
   95SOL    HW2  285   1.457   2.403   2.878 -0.9130  1.3468 -3.9981
   96SOL     OW  286   0.525   2.034   1.239 -0.3776 -0.4391 -0.2635
   96SOL    HW1  287   0.520   2.069   1.140 -0.1030  1.6249  0.7955
   96SOL    HW2  288   0.486   1.938   1.252  1.1285 -0.2343  1.1486
   97SOL     OW  289   0.309   1.443   2.455 -0.6780 -0.3837  0.1121
   97SOL    HW1  290   0.226   1.388   2.486  1.8157 -0.7777  1.9747
   97SOL    HW2  291   0.367   1.484   2.531 -1.9801 -0.7474 -3.1283
   98SOL     OW  292   2.118   1.654   1.246 -0.5153 -0.2313  0.4922
   98SOL    HW1  293   2.099   1.570   1.197 -1.2187  0.6792  0.6747
   98SOL    HW2  294   2.201   1.651   1.314  3.3189  3.0483 -0.5525
   99SOL     OW  295   2.525   2.183   1.378 -0.3680 -0.5903 -0.3999
   99SOL    HW1  296   2.472   2.117   1.437 -1.4845  1.5597 -1.8315
   99SOL    HW2  297   2.608   2.226   1.423  0.9493 -1.8100 -3.1484
  100SOL     OW  298   2.278   0.389   2.069  0.3281  0.6622  0.0413
  100SOL    HW1  299   2.212   0.359   2.144  0.5053 -0.5702  1.8986
  100SOL    HW2  300   2.379   0.372   2.088 -2.1452 -0.6142 -2.3097
  101SOL     OW  301   0.405   1.417   0.231  0.1136 -0.0462  0.2904
  101SOL    HW1  302   0.420   1.431   0.332  1.3555  0.8855  2.0411
  101SOL    HW2  303   0.391   1.509   0.189  2.2167 -0.6246  1.2685
  102SOL     OW  304   2.237   1.119   0.876 -0.0031 -0.7535 -0.1247
  102SOL    HW1  305   2.182   1.036   0.847 -1.1867 -1.1309  0.7790
  102SOL    HW2  306   2.280   1.168   0.794  1.4401 -2.6315  0.8480
  103SOL     OW  307   2.282   0.089   0.395  0.1669 -0.0243 -0.2067
  103SOL    HW1  308   2.347   0.164   0.375 -1.8712 -1.9887 -0.6297
  103SOL    HW2  309   2.304   0.023   0.469 -1.1605 -0.6858  0.1030
  104SOL     OW  310   0.095   1.857   2.155 -0.1070  0.0996 -0.1819
  104SOL    HW1  311   0.111   1.801   2.072 -0.8581  0.3072 -4.9574
  104SOL    HW2  312  -0.006   1.885   2.154 -1.5261 -1.6817 -1.5282
  105SOL     OW  313   1.073   1.967   0.814  0.5635 -0.1561 -0.0407
  105SOL    HW1  314   1.039   2.042   0.753  1.3518  0.1827  2.4961
  105SOL    HW2  315   1.084   1.877   0.765 -2.4795 -0.1665 -0.2733
  106SOL     OW  316   2.069   0.504   1.348 -0.2712 -0.2252 -0.5273
  106SOL    HW1  317   1.997   0.438   1.391 -0.5191 -0.5457  1.1477
  106SOL    HW2  318   2.073   0.599   1.392 -1.4267 -0.1623  0.0265
  107SOL     OW  319   1.849   3.003   1.131 -0.0360 -0.1220  0.1245
  107SOL    HW1  320   1.892   3.087   1.176 -0.4135  1.8130  0.0552
  107SOL    HW2  321   1.817   2.935   1.200 -0.2153 -0.3928 -0.2723
  108SOL     OW  322   0.745   2.643   1.314  0.4801 -0.5848  0.2324
  108SOL    HW1  323   0.718   2.712   1.386  0.4948  1.7648  0.4816
  108SOL    HW2  324   0.847   2.618   1.319 -0.5954 -0.1466 -0.6082
  109SOL     OW  325   2.022   0.160   0.680 -0.1075 -0.8064  0.3814
  109SOL    HW1  326   2.021   0.059   0.696  2.5173  1.3358  0.7380
  109SOL    HW2  327   1.987   0.214   0.759 -0.5159  1.1574 -0.8798
  110SOL     OW  328   0.502   2.691   2.799 -0.3100 -0.1831 -0.6806
  110SOL    HW1  329   0.509   2.725   2.703 -1.8545  0.4864  2.7873
  110SOL    HW2  330   0.598   2.671   2.834  3.1149  0.0851 -0.4574
  111SOL     OW  331   1.279   0.532   2.352 -0.1022  0.1471  0.2664
  111SOL    HW1  332   1.208   0.584   2.415 -2.5263  0.5584  1.2223
  111SOL    HW2  333   1.331   0.455   2.400  2.1990 -2.9889 -3.4040
  112SOL     OW  334   1.715   0.518   1.428 -0.5802 -0.1483  0.5376
  112SOL    HW1  335   1.711   0.479   1.333 -3.1208 -3.4777  1.7653
  112SOL    HW2  336   1.700   0.438   1.489 -0.4409 -0.2235  1.4887
  113SOL     OW  337   2.274   1.667   1.769  0.2442 -0.2951 -0.6084
  113SOL    HW1  338   2.338   1.581   1.782 -1.5627 -3.5149  2.0035
  113SOL    HW2  339   2.278   1.731   1.846  1.6312 -1.4799 -2.7970
  114SOL     OW  340   0.422   0.575   1.302 -0.3960  0.0600  0.0007
  114SOL    HW1  341   0.340   0.635   1.271 -0.7837 -0.1707 -1.2405
  114SOL    HW2  342   0.444   0.500   1.234 -0.1618 -1.6084 -0.0929
  115SOL     OW  343   2.707   1.579   1.273 -0.0223 -0.3733 -0.0707
  115SOL    HW1  344   2.713   1.476   1.297 -2.9839 -1.0584  0.3508
  115SOL    HW2  345   2.777   1.615   1.204 -0.1321 -0.6919  1.3560
  116SOL     OW  346   1.817   1.065   0.758  0.2636 -0.1564  0.0157
  116SOL    HW1  347   1.746   1.002   0.721 -0.4098 -0.2832  1.0902
  116SOL    HW2  348   1.797   1.164   0.744  2.4577 -1.4036  2.5956
  117SOL     OW  349   1.082   0.419   0.698  0.0166  0.1478 -0.5793
  117SOL    HW1  350   1.055   0.428   0.794  0.7508 -0.2912 -0.5873
  117SOL    HW2  351   1.099   0.509   0.649  0.6668  0.9913 -1.7662
  118SOL     OW  352   1.092   1.050   0.982 -0.8567 -0.0847  0.4834
  118SOL    HW1  353   1.093   0.972   1.050  2.7810  0.6383  2.5463
  118SOL    HW2  354   1.106   1.145   1.026  0.3839  0.4942  2.0028
  119SOL     OW  355   1.847   1.626   1.982 -0.6690  0.3878 -0.0232
  119SOL    HW1  356   1.798   1.707   2.031  0.5255 -1.1260 -1.2500
  119SOL    HW2  357   1.940   1.611   2.024  1.9567 -1.0524  0.6199
  120SOL     OW  358   2.971   2.777   0.229 -0.7547 -0.0200  0.3485
  120SOL    HW1  359   2.916   2.726   0.154 -2.7461  0.0120 -2.1220
  120SOL    HW2  360   3.035   2.715   0.285  2.4388  2.6337  2.1289
  121SOL     OW  361   2.103   0.703   2.238 -0.4190  0.2024 -0.3257
  121SOL    HW1  362   2.172   0.710   2.161  1.4910  2.3024 -2.8476
  121SOL    HW2  363   2.048   0.613   2.235  3.2727 -0.3468  0.1702
  122SOL     OW  364   2.703   2.549   1.326  0.0418 -0.1353 -0.1468
  122SOL    HW1  365   2.702   2.547   1.221 -0.2523 -2.7243  3.9106
  122SOL    HW2  366   2.632   2.487   1.371 -1.6587 -3.4967  1.6468
  123SOL     OW  367   1.728   0.016   1.693  0.0572  0.8476  0.0824
  123SOL    HW1  368   1.759  -0.062   1.627  2.4277  0.1526 -0.6007
  123SOL    HW2  369   1.788   0.101   1.688 -0.9781 -1.2396  1.0124
  124SOL     OW  370   0.175   0.476   0.948  1.0055 -0.1913  0.6541
  124SOL    HW1  371   0.155   0.533   1.036 -1.9616  2.3467 -1.6297
  124SOL    HW2  372   0.096   0.505   0.883 -0.5314  4.0301  2.0160
  125SOL     OW  373   0.883   1.698   0.689 -0.4620  0.6235 -0.5097
  125SOL    HW1  374   0.984   1.697   0.663 -1.5469 -2.5309 -0.0939
  125SOL    HW2  375   0.859   1.621   0.754 -2.2722 -0.8091  1.7101
  126SOL     OW  376   1.889   2.371   2.412  0.1257  0.3323  0.1502
  126SOL    HW1  377   1.953   2.300   2.369 -1.4307 -1.4800  0.7929
  126SOL    HW2  378   1.802   2.384   2.353  3.5589  2.1124 -2.8931
  127SOL     OW  379   1.015   0.964   0.170 -1.0929  0.4522  0.4930
  127SOL    HW1  380   1.098   0.992   0.224 -1.1032 -0.8405  2.4093
  127SOL    HW2  381   0.965   0.882   0.207  2.2798  1.1322 -0.1899
  128SOL     OW  382   0.973   0.197   1.438  0.1415 -0.1086  0.1821
  128SOL    HW1  383   0.924   0.277   1.387  0.7896 -0.8933  1.0400
  128SOL    HW2  384   0.909   0.120   1.473  3.7206 -0.7539 -0.9214
  129SOL     OW  385   1.759   0.725   1.816 -0.2426 -0.0703  0.1610
  129SOL    HW1  386   1.764   0.739   1.717  1.3010 -1.6920 -2.1278
  129SOL    HW2  387   1.799   0.796   1.881  0.2615 -1.8166  0.5702
  130SOL     OW  388   1.249   2.096   0.992  0.2292 -0.0387  0.3848
  130SOL    HW1  389   1.184   2.049   0.923  1.0889 -1.6509  2.3520
  130SOL    HW2  390   1.331   2.141   0.942  2.1519 -0.3777 -2.7510
  131SOL     OW  391   3.027   1.512   1.321  0.3991 -0.4010  0.7492
  131SOL    HW1  392   2.986   1.422   1.292  1.4366  0.1876  0.3083
  131SOL    HW2  393   3.129   1.503   1.325 -0.6322  0.6163  2.6828
  132SOL     OW  394   1.919   2.477   0.515 -0.8744  0.0608 -0.8541
  132SOL    HW1  395   1.822   2.506   0.547 -0.9661  1.1854  1.2813
  132SOL    HW2  396   1.983   2.450   0.594  0.9051 -0.2473 -0.3891
  133SOL     OW  397   1.802   2.282   2.914 -0.4343  0.6402  0.6473
  133SOL    HW1  398   1.768   2.355   2.978  0.2875  0.5008  0.8428
  133SOL    HW2  399   1.787   2.318   2.814 -0.0126 -0.5615 -1.3490
  134SOL     OW  400   2.636   2.336   1.608 -0.2166  0.3364  0.2284
  134SOL    HW1  401   2.562   2.317   1.676 -4.1135  3.0118 -2.1073
  134SOL    HW2  402   2.706   2.408   1.635 -0.4485 -0.9152 -0.1349
  135SOL     OW  403   0.778   1.503   2.543  0.0497  0.3999 -0.2031
  135SOL    HW1  404   0.754   1.403   2.557  0.2547 -2.7784  2.2501
  135SOL    HW2  405   0.841   1.518   2.464 -2.3810 -2.9685  4.2096
  136SOL     OW  406   1.141   2.060   0.454 -0.1349  0.7059  0.1574
  136SOL    HW1  407   1.066   2.090   0.521  1.0977 -0.3889  1.7774
  136SOL    HW2  408   1.144   1.959   0.432  0.0600 -0.2697  0.7877
  137SOL     OW  409   0.388   1.029   2.126 -0.3127 -0.2627 -0.0342
  137SOL    HW1  410   0.318   1.078   2.182  0.9482  2.1810  2.5420
  137SOL    HW2  411   0.407   0.931   2.161 -0.6316  0.9000 -0.1502
  138SOL     OW  412   2.428   1.465   0.365  0.2633 -0.3890 -0.3695
  138SOL    HW1  413   2.333   1.467   0.315 -0.6445  1.8949 -2.1380
  138SOL    HW2  414   2.447   1.370   0.406  0.9675  1.0880  2.3317
  139SOL     OW  415   1.747   2.501   1.195 -0.0852  0.2059  0.2940
  139SOL    HW1  416   1.646   2.517   1.191 -1.8888 -0.7625  3.4832
  139SOL    HW2  417   1.778   2.447   1.282  1.0953  0.6952  0.8800
  140SOL     OW  418   2.985   2.991   2.482 -0.2636  0.3295  0.8127
  140SOL    HW1  419   3.043   2.917   2.519  0.0854  1.5573 -0.6732
  140SOL    HW2  420   3.048   3.068   2.455  2.7229  0.1375 -0.1055
  141SOL     OW  421   1.142   1.516   1.593  0.0874  0.9602  0.0341
  141SOL    HW1  422   1.160   1.602   1.642  2.6344  0.4284  0.3127
  141SOL    HW2  423   1.195   1.438   1.631 -0.4712 -0.0005  0.4704
  142SOL     OW  424   1.533   0.597   2.243  0.3338 -0.3381  0.0225
  142SOL    HW1  425   1.525   0.584   2.138  2.1892  2.1282  0.9318
  142SOL    HW2  426   1.439   0.589   2.289  0.5819  0.7112  3.5265
  143SOL     OW  427   2.773   0.843   0.509  0.0947 -0.1547  0.0433
  143SOL    HW1  428   2.813   0.878   0.421  0.2448  0.2909 -1.8529
  143SOL    HW2  429   2.804   0.904   0.590  1.8830 -0.9578  0.5105
  144SOL     OW  430   2.984   1.243   1.357 -0.2503 -0.4437  0.0206
  144SOL    HW1  431   3.011   1.242   1.454 -2.2820 -1.1380  1.7070
  144SOL    HW2  432   3.049   1.190   1.303  0.0676  0.1583  2.5524
  145SOL     OW  433   0.996   1.862   0.082  0.1205  0.0200  0.3917
  145SOL    HW1  434   1.018   1.949   0.032 -0.4596  1.3789  2.1442
  145SOL    HW2  435   0.959   1.786   0.029  0.8695  0.2057  0.4949
  146SOL     OW  436   2.523   0.631   1.509  0.5744 -0.1927 -0.1912
  146SOL    HW1  437   2.459   0.562   1.458 -1.9537 -0.2935  1.7687
  146SOL    HW2  438   2.481   0.722   1.534 -1.1194  0.1700 -1.1007
  147SOL     OW  439   1.092   2.609   0.641 -0.3388 -0.0939 -0.5569
  147SOL    HW1  440   1.061   2.649   0.552 -1.7740  1.1155 -1.4223
  147SOL    HW2  441   1.159   2.529   0.624 -2.1830 -0.3923 -0.0484
  148SOL     OW  442   1.655   1.421   3.019  0.1395  0.1687 -0.4031
  148SOL    HW1  443   1.700   1.340   2.973  1.2432  2.7550  1.1651
  148SOL    HW2  444   1.619   1.398   3.113 -0.9340  0.4582  2.1531
  149SOL     OW  445   0.610   1.409   1.948  0.3054 -0.4500 -0.3670
  149SOL    HW1  446   0.528   1.377   2.003  1.6374 -1.8078 -1.2846
  149SOL    HW2  447   0.667   1.327   1.921  1.2769  1.8794 -2.6996
  150SOL     OW  448   2.983   1.280   0.915 -0.4824 -0.1693  0.6039
  150SOL    HW1  449   3.054   1.338   0.962 -1.5318  2.5292  1.2737
  150SOL    HW2  450   2.985   1.180   0.943 -1.2483  0.8320  0.7488
  151SOL     OW  451   0.182   0.787   2.089 -0.0690 -0.3700 -0.1654
  151SOL    HW1  452   0.163   0.860   2.019  2.5438 -2.9768  0.2181
  151SOL    HW2  453   0.247   0.719   2.051  0.1724 -1.5105  1.6065
  152SOL     OW  454   1.410   1.758   1.257  0.2708  0.4466 -0.0651
  152SOL    HW1  455   1.412   1.838   1.328 -0.2755  1.0942  1.3234
  152SOL    HW2  456   1.316   1.748   1.206 -0.6907  0.7099  0.3607
  153SOL     OW  457   0.049   1.509   0.178 -0.0410  0.2803  0.4726
  153SOL    HW1  458   0.042   1.404   0.185 -2.7528 -2.7103  2.5523
  153SOL    HW2  459   0.045   1.562   0.271 -0.3745  0.1543 -2.5857
  154SOL     OW  460   2.413   1.968   2.826 -0.3947  0.2623  0.2060
  154SOL    HW1  461   2.408   1.862   2.848  2.7396  1.2636  0.3765
  154SOL    HW2  462   2.482   1.988   2.748 -0.3313 -0.6244  0.1445
  155SOL     OW  463   2.534   1.232   0.452 -0.0735 -0.5416 -1.0431
  155SOL    HW1  464   2.562   1.223   0.354 -1.8231 -1.9964 -1.7677
  155SOL    HW2  465   2.531   1.137   0.490 -0.4663  0.9620 -1.8016
  156SOL     OW  466   2.489   0.994   0.896  0.1431 -0.1530  0.1162
  156SOL    HW1  467   2.396   1.043   0.907  2.5955 -0.1812  0.0512
  156SOL    HW2  468   2.555   1.056   0.841  2.2130  1.9168 -1.5411
  157SOL     OW  469   1.363   2.970   3.096  0.4137  0.4053  0.3482
  157SOL    HW1  470   1.425   2.905   3.046 -1.0045  1.0946 -1.9527
  157SOL    HW2  471   1.370   3.067   3.060  0.5161 -3.4148 -1.5868
  158SOL     OW  472   1.071   1.891   2.023  0.4155 -0.9358  0.2940
  158SOL    HW1  473   1.099   1.882   2.122 -1.0249  0.4661 -1.2681
  158SOL    HW2  474   0.966   1.898   2.023  0.9576 -2.4062 -1.1735
  159SOL     OW  475   0.876   0.457   1.299  0.1549 -0.5130  0.6137
  159SOL    HW1  476   0.845   0.534   1.363 -0.4768  0.5450  0.0408
  159SOL    HW2  477   0.810   0.448   1.218 -0.0241  0.7954  1.1957
  160SOL     OW  478   1.458   2.338   1.654  0.3552  0.0784  0.0111
  160SOL    HW1  479   1.504   2.415   1.609 -2.2242  1.6373 -1.0865
  160SOL    HW2  480   1.521   2.259   1.681  1.6940  1.9023 -0.5344
  161SOL     OW  481   0.093   2.933   0.366  0.4118 -0.0388  0.3633
  161SOL    HW1  482  -0.002   2.912   0.383  1.5766 -0.2035  1.3718
  161SOL    HW2  483   0.106   2.985   0.276  0.9027  2.5542 -0.5847
  162SOL     OW  484   2.616   1.895   0.524 -0.0133  0.0935 -0.0484
  162SOL    HW1  485   2.580   1.861   0.431  1.6352  3.0466 -1.0282
  162SOL    HW2  486   2.629   1.819   0.594 -1.1411 -1.2903 -1.2272
  163SOL     OW  487   1.957   2.769   0.750  0.2978 -0.0203  0.2623
  163SOL    HW1  488   1.932   2.765   0.651 -0.1811 -0.3399 -0.0509
  163SOL    HW2  489   2.003   2.680   0.778 -1.4025 -0.6344  0.1324
  164SOL     OW  490   0.049   0.234   1.202 -0.5174  0.4272  0.1124
  164SOL    HW1  491   0.099   0.158   1.157  1.0037  0.6802 -0.6003
  164SOL    HW2  492   0.092   0.262   1.291 -0.3314 -0.0569  0.1468
  165SOL     OW  493   1.021   1.421   0.646 -0.3166 -0.6253  0.1269
  165SOL    HW1  494   0.967   1.449   0.730 -0.4114 -0.3028  2.5504
  165SOL    HW2  495   0.991   1.468   0.558  2.7064 -2.6565 -1.6987
  166SOL     OW  496   1.383   1.020   1.801 -0.1583 -0.1067 -0.2528
  166SOL    HW1  497   1.292   0.999   1.849 -2.5525 -0.7750  0.4387
  166SOL    HW2  498   1.447   1.061   1.867 -0.4780 -0.6171 -4.3933
  167SOL     OW  499   0.928   1.836   1.598 -0.3178 -0.1253  0.1591
  167SOL    HW1  500   0.903   1.930   1.637 -1.0281 -2.1433  0.2647
  167SOL    HW2  501   0.845   1.775   1.583 -1.5515  0.3644 -0.8741
  168SOL     OW  502   1.542   2.349   0.184 -0.2518  0.5756 -0.5322
  168SOL    HW1  503   1.611   2.380   0.111  0.5349 -1.4362 -1.3931
  168SOL    HW2  504   1.585   2.336   0.279 -1.0604  2.3488 -0.0637
  169SOL     OW  505   0.168   2.556   2.158 -0.2306  0.1724  0.4222
  169SOL    HW1  506   0.222   2.476   2.118 -0.3592 -0.8333  0.0759
  169SOL    HW2  507   0.127   2.537   2.252 -0.5749 -1.7964 -1.5577
  170SOL     OW  508   1.259   0.329   1.931  0.4058 -0.4699  0.0768
  170SOL    HW1  509   1.264   0.278   2.019  0.2514  1.9264  0.2448
  170SOL    HW2  510   1.202   0.275   1.859  0.7310 -0.5166 -0.0502
  171SOL     OW  511   0.238   0.825   2.420  0.4055  0.0067  0.2970
  171SOL    HW1  512   0.137   0.820   2.449 -0.3510  0.2443  1.4263
  171SOL    HW2  513   0.244   0.800   2.325 -0.2071  1.9511 -1.4338
  172SOL     OW  514   0.892   1.124   2.902  0.4143  0.1614  0.6882
  172SOL    HW1  515   0.991   1.145   2.928  0.9757 -1.9786  1.9005
  172SOL    HW2  516   0.896   1.068   2.810 -2.9920  1.7510 -1.8496
  173SOL     OW  517   0.688   2.722   0.152 -0.3440 -0.2574  0.2877
  173SOL    HW1  518   0.709   2.825   0.152  1.1134 -0.4463  3.1542
  173SOL    HW2  519   0.590   2.703   0.124 -0.6213  1.9435 -1.6510
  174SOL     OW  520   1.283   2.753   1.058  0.4961  0.1768 -0.2251
  174SOL    HW1  521   1.286   2.823   0.980  0.3025 -1.2167 -0.1443
  174SOL    HW2  522   1.272   2.659   1.014 -0.7563  0.7055  0.3480
  175SOL     OW  523   0.366   0.032   1.689 -0.0759 -0.1264  0.0018
  175SOL    HW1  524   0.427   0.097   1.738 -2.7819  1.1536  0.1373
  175SOL    HW2  525   0.277   0.079   1.657 -1.7349  0.8742 -0.7649
  176SOL     OW  526   2.625   0.331   3.011  0.4995  0.6208 -0.3851
  176SOL    HW1  527   2.599   0.411   3.071 -1.4058  1.9340  1.6281
  176SOL    HW2  528   2.606   0.240   3.062 -2.1340 -1.5458 -0.3415
  177SOL     OW  529   0.382   0.307   0.868 -0.5178  0.2222 -0.3780
  177SOL    HW1  530   0.447   0.285   0.945 -0.1711  1.5745 -0.0306
  177SOL    HW2  531   0.298   0.363   0.889 -0.4203 -1.2032  0.5034
  178SOL     OW  532   3.081   2.688   2.598 -0.3084 -0.5202  0.0839
  178SOL    HW1  533   3.019   2.635   2.664 -0.9975  0.2874  0.4595
  178SOL    HW2  534   3.180   2.716   2.626  1.6952  3.7976 -2.5972
  179SOL     OW  535   0.011   1.771   1.176 -0.3037  0.2544 -0.0942
  179SOL    HW1  536  -0.080   1.819   1.156  1.2077  1.9350 -1.2153
  179SOL    HW2  537   0.002   1.692   1.245  1.8782 -2.5324  2.5506
  180SOL     OW  538   0.157   1.265   1.815 -0.3254 -0.0152  0.4803
  180SOL    HW1  539   0.261   1.243   1.820  2.7043  1.7113  2.4877
  180SOL    HW2  540   0.140   1.334   1.891  2.8833 -3.9429 -0.7440
  181SOL     OW  541   3.010   1.828   2.527  0.2364  0.1216  0.3770
  181SOL    HW1  542   3.093   1.888   2.556 -4.9279 -2.2735 -0.2916
  181SOL    HW2  543   2.948   1.876   2.459 -3.5353 -1.6935 -1.5581
  182SOL     OW  544   2.331   1.240   1.258  0.0654  0.3798 -0.1097
  182SOL    HW1  545   2.237   1.222   1.217  0.6929 -0.1320  2.0697
  182SOL    HW2  546   2.378   1.333   1.227  2.4419 -0.2934  1.3923
  183SOL     OW  547   1.519   2.269   2.504 -0.2389 -0.2833  0.3064
  183SOL    HW1  548   1.430   2.225   2.530  0.0331  1.0317  0.8511
  183SOL    HW2  549   1.591   2.200   2.474 -1.3010 -1.8366 -1.8966
  184SOL     OW  550   2.070   0.935   0.740 -0.5568 -0.0800 -0.4867
  184SOL    HW1  551   1.976   0.965   0.764  1.6147 -1.3159 -0.3533
  184SOL    HW2  552   2.085   0.838   0.772  2.1914  0.4131  0.1622
  185SOL     OW  553   1.639   2.752   2.168  0.1643  0.0653 -0.0694
  185SOL    HW1  554   1.612   2.850   2.141  0.3719 -1.0898  2.1380
  185SOL    HW2  555   1.655   2.739   2.271  1.7847 -0.1718  1.5295
  186SOL     OW  556   0.079   2.203   1.667 -0.0091  0.2357  0.5715
  186SOL    HW1  557   0.109   2.296   1.630  3.3046  1.4659  1.4852
  186SOL    HW2  558   0.156   2.136   1.684 -1.9000  0.0520 -0.2502
  187SOL     OW  559   1.423   0.677   1.719  0.0061 -0.5136  0.4909
  187SOL    HW1  560   1.488   0.740   1.666 -0.6956 -0.6450  0.1554
  187SOL    HW2  561   1.387   0.715   1.806  1.8153 -1.6706  0.2964
  188SOL     OW  562   2.756   2.756   1.537 -0.1337  0.2686 -0.3371
  188SOL    HW1  563   2.756   2.838   1.474 -1.1155  0.5557 -1.0427
  188SOL    HW2  564   2.764   2.667   1.485  0.6865 -0.4598 -1.0474
  189SOL     OW  565   0.731   0.975   1.483 -0.3329  0.3011  0.0111
  189SOL    HW1  566   0.803   1.044   1.461  0.4795 -1.7891  0.8726
  189SOL    HW2  567   0.709   0.919   1.397  1.2553 -1.1653 -1.0040
  190SOL     OW  568   1.487   1.755   1.663 -0.1098  0.0870 -0.0866
  190SOL    HW1  569   1.417   1.812   1.609 -1.1135 -0.5580 -1.4786
  190SOL    HW2  570   1.545   1.817   1.729 -1.5215 -0.7443  0.9323
  191SOL     OW  571   1.017   0.828   1.539  0.0094 -0.3842 -0.2049
  191SOL    HW1  572   1.039   0.745   1.591 -3.9796 -1.2955 -2.6958
  191SOL    HW2  573   1.095   0.889   1.516 -1.3435 -0.5049  2.8565
  192SOL     OW  574   1.896   2.193   1.232 -0.1441  0.0538 -0.1657
  192SOL    HW1  575   1.802   2.183   1.186  1.1572  2.7178 -1.5552
  192SOL    HW2  576   1.950   2.277   1.190 -0.5674  2.8096 -4.5603
  193SOL     OW  577   0.504   0.566   0.330  0.2329 -0.2312 -0.0748
  193SOL    HW1  578   0.521   0.494   0.403 -0.2327  3.0435 -1.3880
  193SOL    HW2  579   0.528   0.529   0.232 -0.3533 -0.1298 -0.9865
  194SOL     OW  580   0.290   0.838   1.247 -0.2181 -1.1068  0.2015
  194SOL    HW1  581   0.212   0.780   1.211  0.0272 -0.3360  0.8235
  194SOL    HW2  582   0.317   0.922   1.192 -2.0803 -1.4477 -1.1687
  195SOL     OW  583   0.943   2.936   0.516 -0.7726  0.1811 -0.3329
  195SOL    HW1  584   0.948   2.838   0.475 -0.2458 -0.4572 -0.4690
  195SOL    HW2  585   1.037   2.990   0.514  1.4586  2.7037  0.2512
  196SOL     OW  586   0.190   1.450   1.347  0.3947  0.2423  0.3096
  196SOL    HW1  587   0.238   1.524   1.399 -0.5522 -2.3445  1.5486
  196SOL    HW2  588   0.171   1.364   1.404 -0.8954 -0.3876  1.8617
  197SOL     OW  589   0.792   2.003   0.233  0.1143  0.1686 -0.4605
  197SOL    HW1  590   0.815   1.966   0.325 -0.3623  0.7253 -1.6713
  197SOL    HW2  591   0.826   1.945   0.153  1.4868 -0.5905 -0.2280
  198SOL     OW  592   0.287   1.167   0.217 -0.0712  0.7049  0.1631
  198SOL    HW1  593   0.181   1.172   0.223 -0.4958  1.9316  0.4553
  198SOL    HW2  594   0.328   1.262   0.218 -0.3577  0.2276 -0.7484
  199SOL     OW  595   2.260   0.424   2.462  0.4468  0.0425  0.0037
  199SOL    HW1  596   2.223   0.361   2.539  1.7001 -0.3867  2.0634
  199SOL    HW2  597   2.362   0.455   2.472  0.1193  1.9632  2.1300
  200SOL     OW  598   0.046   2.897   0.820  0.1416 -0.4159 -0.0163
  200SOL    HW1  599  -0.043   2.888   0.760  1.5286  1.4107  1.0109
  200SOL    HW2  600   0.075   2.996   0.846 -1.7895  0.8114 -1.0940
  201SOL     OW  601   1.104   0.662   0.561 -0.2292 -0.0921 -0.6282
  201SOL    HW1  602   1.108   0.750   0.624  0.1387 -1.0420  1.2114
  201SOL    HW2  603   1.021   0.650   0.509 -0.2008  1.3905  0.4553
  202SOL     OW  604   0.440   1.213   1.789  0.2105  0.3139 -0.3714
  202SOL    HW1  605   0.498   1.215   1.705  0.4409 -0.5512 -1.9062
  202SOL    HW2  606   0.475   1.141   1.850 -0.3856  2.5547 -2.6276
  203SOL     OW  607   0.585   0.233   1.528 -0.0264 -0.4975 -0.0277
  203SOL    HW1  608   0.597   0.216   1.429 -0.5504  2.3971 -1.0607
  203SOL    HW2  609   0.603   0.153   1.586 -1.2642  1.2104 -0.2070
  204SOL     OW  610   2.107   1.884   2.993 -0.4608 -0.1186 -0.1602
  204SOL    HW1  611   2.093   1.787   2.967 -2.6950 -0.3549 -1.0785
  204SOL    HW2  612   2.049   1.946   2.930 -1.0316 -0.6881 -0.6381
  205SOL     OW  613   1.886   1.850   0.157  0.1561  0.2315 -0.4511
  205SOL    HW1  614   1.969   1.822   0.110  0.2040 -1.1329 -1.4091
  205SOL    HW2  615   1.816   1.895   0.099  1.0608 -3.2449  0.8675
  206SOL     OW  616   2.520   2.825   0.351  0.2019 -0.0910  0.4358
  206SOL    HW1  617   2.581   2.749   0.390  0.1483 -1.1165  0.9325
  206SOL    HW2  618   2.580   2.897   0.302 -1.4808  0.5126 -0.3808
  207SOL     OW  619   0.525   1.714   2.899 -0.2388 -0.0264  0.1326
  207SOL    HW1  620   0.624   1.698   2.867 -0.3196  0.0025  0.8628
  207SOL    HW2  621   0.489   1.638   2.955 -2.7249  0.4201 -1.2343
  208SOL     OW  622   1.036   1.442   1.344  0.3480 -0.1219 -0.0886
  208SOL    HW1  623   0.940   1.482   1.326  0.8536  0.3553 -1.5272
  208SOL    HW2  624   1.081   1.476   1.432  2.1230  1.1380 -2.8483
  209SOL     OW  625   0.148   0.887   3.093  0.0491 -0.0669 -0.4657
  209SOL    HW1  626   0.200   0.852   3.008 -1.0194  2.2207  1.1044
  209SOL    HW2  627   0.199   0.872   3.181 -0.4456 -1.0806 -0.7887
  210SOL     OW  628   1.727   0.406   1.169 -0.1673  0.1292  0.0842
  210SOL    HW1  629   1.689   0.503   1.140  1.2584 -1.3887 -1.1955
  210SOL    HW2  630   1.830   0.400   1.148  2.3646 -0.5393 -1.4833
  211SOL     OW  631   2.126   1.042   1.646  0.3062 -0.0576  0.0881
  211SOL    HW1  632   2.169   0.990   1.728  4.7457  2.4292  3.9447
  211SOL    HW2  633   2.196   1.099   1.596  0.5484 -0.2478  1.1547
  212SOL     OW  634   0.030   1.011   1.473  0.5879  0.3614 -0.2236
  212SOL    HW1  635   0.087   1.095   1.487 -2.2545 -0.5838 -0.8592
  212SOL    HW2  636   0.049   0.937   1.548 -1.7154 -1.4394  1.7627
  213SOL     OW  637   2.780   0.297   0.308 -0.4985 -0.4872 -0.1025
  213SOL    HW1  638   2.856   0.233   0.275  2.8929 -0.9496  0.0601
  213SOL    HW2  639   2.777   0.388   0.254 -0.7034 -3.1164 -0.7788
  214SOL     OW  640   2.108   0.313   2.267  0.0839 -0.3915 -0.1483
  214SOL    HW1  641   2.173   0.360   2.335 -1.1997 -0.3533 -2.0610
  214SOL    HW2  642   2.092   0.215   2.295  2.2773 -1.7399 -0.7276
  215SOL     OW  643   1.709   2.283   2.050 -0.3286 -0.1106 -0.2273
  215SOL    HW1  644   1.809   2.302   2.020  0.8110  0.4028 -2.6319
  215SOL    HW2  645   1.664   2.351   2.118 -1.5106 -0.7357 -0.2415
  216SOL     OW  646   2.249   0.516   0.640 -0.1861  0.0507 -0.0309
  216SOL    HW1  647   2.170   0.474   0.590 -1.2650 -0.3414  1.3990
  216SOL    HW2  648   2.291   0.602   0.585  2.2146  1.0834 -0.1856
  217SOL     OW  649   0.796   2.783   2.427  0.2572  0.3671 -0.0636
  217SOL    HW1  650   0.768   2.691   2.474  1.4191 -2.9536 -1.2376
  217SOL    HW2  651   0.792   2.776   2.319 -0.9310 -0.2236 -2.6551
  218SOL     OW  652   1.937   1.436   3.065 -0.5119 -0.6366  0.3781
  218SOL    HW1  653   1.841   1.450   3.032  0.4021  0.4009 -0.3011
  218SOL    HW2  654   1.957   1.366   3.136  1.4531  2.6915  0.2645
  219SOL     OW  655   2.369   1.292   2.600 -0.3196 -0.3036  0.3704
  219SOL    HW1  656   2.398   1.230   2.521  4.5019 -1.1242 -1.1753
  219SOL    HW2  657   2.359   1.246   2.690  1.7560  1.1670 -3.8997
  220SOL     OW  658   1.488   1.013   1.292 -0.7019  0.3470 -0.4013
  220SOL    HW1  659   1.555   0.969   1.362  0.0572 -2.4542 -3.0231
  220SOL    HW2  660   1.478   1.118   1.312  1.3951 -0.7995  2.1217
  221SOL     OW  661   1.292   1.108   2.181 -0.1404  0.0457 -0.7296
  221SOL    HW1  662   1.247   1.183   2.128  2.9937  0.6698  1.2999
  221SOL    HW2  663   1.375   1.071   2.134 -2.0560 -0.2241 -1.4145
  222SOL     OW  664   1.338   0.159   1.108 -0.4798  0.3159  0.1494
  222SOL    HW1  665   1.392   0.077   1.078  1.6435 -1.5501  3.2268
  222SOL    HW2  666   1.354   0.185   1.208  0.4636  0.5764 -0.5357
  223SOL     OW  667   2.902   0.774   2.003 -0.3749  0.5652 -0.0749
  223SOL    HW1  668   2.859   0.803   2.092 -1.1155  2.2053 -0.1161
  223SOL    HW2  669   2.936   0.859   1.955 -0.0585  2.2473  0.8624
  224SOL     OW  670   1.553   1.055   2.807  0.0842  0.1796  0.3881
  224SOL    HW1  671   1.574   0.984   2.739 -0.8049 -1.3979  0.0035
  224SOL    HW2  672   1.507   1.136   2.758  1.5006 -3.9804  0.9898
  225SOL     OW  673   2.957   2.828   2.935 -0.0091 -0.0296  0.3297
  225SOL    HW1  674   2.926   2.753   2.874  1.0152  1.1756  2.6779
  225SOL    HW2  675   3.011   2.906   2.889  2.6349 -1.0245  1.1995
  226SOL     OW  676   2.460   1.658   2.868 -0.1211 -0.2639  0.0085
  226SOL    HW1  677   2.495   1.608   2.781 -1.4111 -2.9577  0.9872
  226SOL    HW2  678   2.442   1.595   2.950 -0.1110  0.0508 -3.1753
  227SOL     OW  679   0.781   0.153   2.945 -0.0987 -0.5002 -0.3541
  227SOL    HW1  680   0.835   0.098   3.014 -0.4402 -0.6987 -0.4753
  227SOL    HW2  681   0.817   0.145   2.844 -0.5160 -1.4114 -0.1242
  228SOL     OW  682   2.346   0.543   2.766  0.2058 -0.1394  0.0671
  228SOL    HW1  683   2.296   0.616   2.714  0.9883 -1.6482  0.7700
  228SOL    HW2  684   2.394   0.473   2.708  2.7341 -0.2274  1.2807
  229SOL     OW  685   0.590   0.480   1.888  0.3708  0.1736 -0.5632
  229SOL    HW1  686   0.626   0.489   1.786  1.0816 -1.2376  1.7162
  229SOL    HW2  687   0.670   0.494   1.965  2.4811  2.8706  1.3663
  230SOL     OW  688   1.938   1.242   2.110 -0.0275 -0.6279 -0.0354
  230SOL    HW1  689   2.003   1.283   2.043 -1.8911  0.7156  1.6236
  230SOL    HW2  690   1.841   1.290   2.112  0.1409  2.0149  1.6073
  231SOL     OW  691   0.602   1.113   2.942 -0.0910 -0.1604  0.6948
  231SOL    HW1  692   0.703   1.128   2.949 -0.0626 -4.9169 -0.9155
  231SOL    HW2  693   0.552   1.086   3.026  3.7895  0.9812 -0.9695
  232SOL     OW  694   2.517   0.027   2.714  0.5483 -0.9739  0.3968
  232SOL    HW1  695   2.544  -0.072   2.722 -1.3769 -0.4799  0.9281
  232SOL    HW2  696   2.507   0.063   2.618  1.6425  0.6563  0.3282
  233SOL     OW  697   1.736   1.291   1.082 -0.3760 -0.1782 -0.4194
  233SOL    HW1  698   1.723   1.288   0.977  2.1320  1.9569 -2.3434
  233SOL    HW2  699   1.812   1.232   1.120  2.0557 -0.1407  3.4714
  234SOL     OW  700   1.655   2.591   1.935 -0.2895 -0.2226 -0.6902
  234SOL    HW1  701   1.645   2.650   2.021 -0.3879  0.5161 -0.2668
  234SOL    HW2  702   1.582   2.515   1.925 -3.1833 -0.0901  0.9408
  235SOL     OW  703   3.081   3.058   2.829  0.4771 -0.5159 -0.2935
  235SOL    HW1  704   3.178   3.080   2.798  2.0279  0.4773  1.4026
  235SOL    HW2  705   3.039   3.136   2.882  1.4495 -1.9791 -0.1854
  236SOL     OW  706   2.876   0.686   0.036  0.0880 -0.1932  0.0124
  236SOL    HW1  707   2.944   0.751   0.079 -0.1719 -0.5678 -0.5360
  236SOL    HW2  708   2.921   0.611  -0.017 -1.3295  1.8498 -1.3911
  237SOL     OW  709   1.488   1.605   1.049 -0.2881  0.6020 -0.3672
  237SOL    HW1  710   1.595   1.605   1.046 -0.7784 -0.2026 -2.1710
  237SOL    HW2  711   1.454   1.670   1.121  2.8128 -0.0109 -0.6692
  238SOL     OW  712   1.751   1.358   0.746  0.4720  0.2133  0.0969
  238SOL    HW1  713   1.823   1.379   0.670  4.0447  1.6901 -2.5204
  238SOL    HW2  714   1.686   1.435   0.765 -0.4040  0.8476 -0.3646
  239SOL     OW  715   2.144   0.288   2.663 -0.2090 -0.1295  0.1217
  239SOL    HW1  716   2.221   0.272   2.737  0.9621 -1.1686  2.5152
  239SOL    HW2  717   2.070   0.353   2.697 -0.0514 -1.8000  1.5140
  240SOL     OW  718   0.882   0.737   0.228 -0.3846 -0.1122  0.1461
  240SOL    HW1  719   0.871   0.673   0.147  0.5851  1.2059  0.4473
  240SOL    HW2  720   0.858   0.694   0.325  1.2651 -0.1378  4.8207
  241SOL     OW  721   0.574   0.019   0.356  0.0886  0.1432  0.2251
  241SOL    HW1  722   0.602  -0.047   0.277  1.8209 -4.2667 -1.2441
  241SOL    HW2  723   0.509  -0.028   0.424  2.5852  1.7450 -1.0002
  242SOL     OW  724   0.686   2.439   1.130 -0.2736  0.1639  0.3089
  242SOL    HW1  725   0.670   2.503   1.210 -0.1173  0.1708  2.4730
  242SOL    HW2  726   0.767   2.462   1.073  1.1556 -1.9180  1.8746
  243SOL     OW  727   1.085   0.652   2.507  0.2117 -0.3196 -0.4452
  243SOL    HW1  728   1.016   0.692   2.443 -0.2699 -1.5648  2.3023
  243SOL    HW2  729   1.057   0.559   2.544  2.3964 -0.5211  1.3939
  244SOL     OW  730   2.831   1.993   2.329  0.2253  0.1478 -0.2722
  244SOL    HW1  731   2.892   1.997   2.251 -0.2138  1.0445  0.6888
  244SOL    HW2  732   2.745   1.938   2.312 -0.2239  0.0130 -1.9637
  245SOL     OW  733   2.464   0.718   2.193 -0.1933 -0.1964 -0.4014
  245SOL    HW1  734   2.445   0.779   2.277 -0.5670  0.7191  0.0829
  245SOL    HW2  735   2.563   0.689   2.182  0.9017 -1.3022  1.6302
  246SOL     OW  736   0.324   2.864   1.774 -0.3984 -0.3016  0.0823
  246SOL    HW1  737   0.240   2.839   1.717 -1.1042  0.4304 -1.2525
  246SOL    HW2  738   0.369   2.958   1.755  0.0464 -2.0810 -1.1064
  247SOL     OW  739   2.195   0.506   2.995  0.2065 -0.5523 -0.2063
  247SOL    HW1  740   2.262   0.497   2.912  2.2993  2.5994 -0.1135
  247SOL    HW2  741   2.122   0.574   2.973 -0.9957  0.0099  1.7715
  248SOL     OW  742   2.175   1.852   1.564 -0.1497  0.3110  1.2270
  248SOL    HW1  743   2.232   1.792   1.628 -0.3889 -1.9497 -0.3886
  248SOL    HW2  744   2.084   1.884   1.607 -0.9609  2.1770  1.1675
  249SOL     OW  745   1.992   1.982   1.913  0.3460 -0.8287 -0.0945
  249SOL    HW1  746   1.983   1.900   1.851 -1.0755 -0.0821  1.8916
  249SOL    HW2  747   2.084   2.025   1.916 -0.5013 -0.3056  0.6938
  250SOL     OW  748   1.032   0.638   1.900 -0.4829 -0.0956 -0.1278
  250SOL    HW1  749   1.041   0.591   1.987 -1.1718  3.5209  0.3513
  250SOL    HW2  750   1.114   0.618   1.837 -2.3582  1.8453 -1.4764
  251SOL     OW  751   3.037   1.531   2.608 -0.3492  0.0483 -0.3677
  251SOL    HW1  752   3.030   1.637   2.597 -2.4444 -0.6217  2.4494
  251SOL    HW2  753   2.945   1.490   2.578 -0.3766  1.6805  0.2222
  252SOL     OW  754   1.543   0.900   1.607 -0.0626  0.3561  0.7621
  252SOL    HW1  755   1.608   0.974   1.570 -0.1765  1.1874 -1.3622
  252SOL    HW2  756   1.479   0.932   1.680  1.0247 -0.8532  1.9370
  253SOL     OW  757   1.002   1.530   0.362 -0.2409 -0.5503 -0.3500
  253SOL    HW1  758   1.096   1.482   0.351 -0.6832  0.8413  2.3295
  253SOL    HW2  759   0.932   1.477   0.314 -2.2984 -0.8692 -4.8436
  254SOL     OW  760   2.008   2.088   1.597 -0.2992  0.9261  0.3622
  254SOL    HW1  761   1.965   2.034   1.517  0.1086  0.1405 -0.7779
  254SOL    HW2  762   1.947   2.091   1.684  0.6604 -0.4269  0.4925
  255SOL     OW  763   0.106   1.169   2.977  0.4296  0.2606 -0.2226
  255SOL    HW1  764   0.187   1.239   2.963  0.0961 -0.1783 -1.0945
  255SOL    HW2  765   0.122   1.091   3.039  1.6593 -1.5062 -1.8415
  256SOL     OW  766   2.723   1.312   1.818 -0.7696 -0.2995  0.0622
  256SOL    HW1  767   2.668   1.314   1.728 -2.8246 -0.1510  0.0854
  256SOL    HW2  768   2.674   1.247   1.889 -0.5368 -0.0166  2.6400
  257SOL     OW  769   0.832   0.195   1.860  0.3130  0.4527  0.1781
  257SOL    HW1  770   0.901   0.262   1.821 -2.1376  1.7276 -2.3072
  257SOL    HW2  771   0.873   0.098   1.870  0.8214  0.4065  1.7471
  258SOL     OW  772   2.956   1.266   0.410 -0.0099  0.1923 -0.2684
  258SOL    HW1  773   2.874   1.331   0.387 -2.8278  1.7137  0.1154
  258SOL    HW2  774   3.001   1.294   0.503 -2.0970 -0.5181  2.4391
  259SOL     OW  775   0.490   2.909   2.980  0.6021 -0.9620  0.3638
  259SOL    HW1  776   0.444   2.898   3.072 -0.7767  0.6446  0.6889
  259SOL    HW2  777   0.484   2.833   2.910  0.3681 -1.6425 -2.0883
  260SOL     OW  778   2.662   0.754   2.693 -0.3183 -0.2161  0.2172
  260SOL    HW1  779   2.572   0.798   2.660 -0.2630  0.7262 -2.3592
  260SOL    HW2  780   2.653   0.669   2.754  2.2128 -2.6226  0.7807
  261SOL     OW  781   2.705   1.303   1.345  0.0262  0.2462  0.0048
  261SOL    HW1  782   2.646   1.236   1.288 -0.0249  0.2694 -0.9029
  261SOL    HW2  783   2.802   1.263   1.359  1.9799  0.7655 -2.0706
  262SOL     OW  784   1.495   2.956   2.055  0.1679  0.1144 -0.1274
  262SOL    HW1  785   1.494   3.032   1.984 -3.6328  1.3119 -2.8029
  262SOL    HW2  786   1.424   2.881   2.035  1.4395  0.5852  0.2206
  263SOL     OW  787   0.840   0.722   2.337  0.9276  0.4078  0.5313
  263SOL    HW1  788   0.773   0.651   2.304 -1.7286  2.5160  0.7703
  263SOL    HW2  789   0.870   0.791   2.268 -0.3721  2.3514  1.0607
  264SOL     OW  790   2.315   0.747   0.473  0.1692  0.5035 -0.0593
  264SOL    HW1  791   2.217   0.781   0.444 -0.2228  2.4202  1.7773
  264SOL    HW2  792   2.379   0.828   0.491  2.1649  2.3717 -0.6878
  265SOL     OW  793   0.915   2.290   2.702  0.0691  0.4978 -0.3287
  265SOL    HW1  794   0.976   2.362   2.748 -0.6791  0.1857 -1.8247
  265SOL    HW2  795   0.869   2.226   2.766  0.7076  0.7186  2.0540
  266SOL     OW  796   1.288   1.738   0.016 -0.3578  0.2311  0.2191
  266SOL    HW1  797   1.251   1.805   0.087 -0.4570  0.5513  0.4237
  266SOL    HW2  798   1.387   1.718   0.023 -1.4427 -1.0992 -0.1361
  267SOL     OW  799   1.106   0.028   2.317 -0.1649 -0.1713  0.3820
  267SOL    HW1  800   1.073  -0.069   2.298 -3.0130  0.7465  0.7914
  267SOL    HW2  801   1.197   0.050   2.277  0.1031  0.0154  0.8796
  268SOL     OW  802   0.669   1.146   1.098 -0.3023  0.3414  0.1932
  268SOL    HW1  803   0.686   1.190   1.194 -2.7472 -0.7805  1.4293
  268SOL    HW2  804   0.680   1.218   1.023 -0.9537 -1.0202 -3.9596
  269SOL     OW  805   2.396   2.556   1.565  0.4064 -0.0196  0.4724
  269SOL    HW1  806   2.456   2.470   1.569  1.5518 -0.7343  1.5120
  269SOL    HW2  807   2.342   2.575   1.655  1.3843  2.4458 -0.1639
  270SOL     OW  808   0.303   2.789   2.074  0.0365 -0.6183 -0.1825
  270SOL    HW1  809   0.318   2.794   1.970 -2.5231 -1.7723 -0.7003
  270SOL    HW2  810   0.261   2.699   2.106 -0.1116 -0.4812  2.8806
  271SOL     OW  811   0.390   1.377   1.140  0.5938 -0.1616  0.1655
  271SOL    HW1  812   0.370   1.370   1.040  0.4291 -2.9969 -2.6434
  271SOL    HW2  813   0.308   1.387   1.203  2.7528  0.9030  3.3932
  272SOL     OW  814   1.977   2.811   1.894 -0.2514 -0.1667 -0.4149
  272SOL    HW1  815   1.898   2.788   1.829 -0.3241  1.4709 -1.3698
  272SOL    HW2  816   2.050   2.864   1.850  1.1634  0.7271  2.0026
  273SOL     OW  817   1.419   1.443   2.887 -0.0987 -0.6971 -0.1486
  273SOL    HW1  818   1.503   1.452   2.949  2.5617 -0.0500 -1.6969
  273SOL    HW2  819   1.329   1.445   2.935 -1.3760  1.4188 -0.4261
  274SOL     OW  820   1.096   0.470   2.117  0.4319 -0.0221 -0.3689
  274SOL    HW1  821   1.156   0.422   2.044  2.5017  1.0348 -1.9798
  274SOL    HW2  822   1.153   0.504   2.200 -2.6827  2.0943 -2.6268
  275SOL     OW  823   0.676   2.084   1.886 -0.2928 -0.1297  0.3430
  275SOL    HW1  824   0.687   2.167   1.945 -0.3086  1.1605  1.1207
  275SOL    HW2  825   0.583   2.040   1.885 -1.7811  1.7875 -1.1505
  276SOL     OW  826   2.139   0.906   2.737  0.5744 -0.1063  0.7476
  276SOL    HW1  827   2.054   0.936   2.680 -0.5069 -1.9807 -1.2192
  276SOL    HW2  828   2.119   0.841   2.816  0.9077 -2.0262 -3.4215
  277SOL     OW  829   3.071   0.862   0.216 -0.8162  0.0861  0.2596
  277SOL    HW1  830   3.130   0.882   0.130  3.0259 -1.3804 -1.0855
  277SOL    HW2  831   3.121   0.779   0.264  1.2738 -4.3885 -0.4218
  278SOL     OW  832   0.269   0.280   2.894 -0.3520 -0.0298  1.2008
  278SOL    HW1  833   0.366   0.271   2.932 -1.5332  0.1261  1.1717
  278SOL    HW2  834   0.222   0.368   2.914 -0.7557  2.1676 -3.5123
  279SOL     OW  835   0.123   0.059   0.895 -0.0718  0.0612 -0.1244
  279SOL    HW1  836   0.161   0.051   0.991 -0.3898  0.8594  0.5996
  279SOL    HW2  837   0.203   0.085   0.830 -1.1375 -0.7214  1.6468
  280SOL     OW  838   1.634   2.962   2.489  0.4490 -0.5590  0.1041
  280SOL    HW1  839   1.706   2.997   2.554  4.2635 -0.8172 -0.1252
  280SOL    HW2  840   1.547   3.018   2.514  1.5767  2.0527  0.3843
  281SOL     OW  841   0.656   1.042   2.342  0.2526 -0.2922 -0.5373
  281SOL    HW1  842   0.596   0.976   2.290  0.8405 -1.0850 -0.7049
  281SOL    HW2  843   0.726   0.996   2.402  0.6439  0.3468  1.9813
  282SOL     OW  844   1.665   2.504   0.563  0.4767 -0.3924  0.0084
  282SOL    HW1  845   1.637   2.428   0.499 -1.1261 -0.5280 -0.6283
  282SOL    HW2  846   1.630   2.595   0.522 -3.8692 -0.0690  0.8547
  283SOL     OW  847   1.126   0.874   0.723 -1.1733  0.1811 -0.0929
  283SOL    HW1  848   1.177   0.834   0.808  3.5466 -0.4011  0.8089
  283SOL    HW2  849   1.065   0.950   0.749  2.0002  2.2182  1.5585
  284SOL     OW  850   2.212   2.815   2.428  0.0906  0.1289 -0.3809
  284SOL    HW1  851   2.225   2.854   2.523  0.3153 -2.4863  4.2521
  284SOL    HW2  852   2.213   2.885   2.357 -0.3359 -1.1072  4.1158
  285SOL     OW  853   1.380   3.055   2.539  0.3805 -0.0159 -0.1493
  285SOL    HW1  854   1.395   3.053   2.432 -1.4867  0.7762  1.0852
  285SOL    HW2  855   1.296   3.114   2.563 -3.3567  0.3743 -0.2273
  286SOL     OW  856   0.430   0.434   0.632 -0.0150  0.5897 -0.1113
  286SOL    HW1  857   0.414   0.370   0.706  0.9949  1.9953 -3.5118
  286SOL    HW2  858   0.413   0.380   0.548  2.7000  0.6004  1.6616
  287SOL     OW  859   0.080   1.305   2.539 -0.0515 -0.2800 -0.2444
  287SOL    HW1  860   0.057   1.218   2.587 -1.8838  1.6149 -1.6155
  287SOL    HW2  861   0.025   1.381   2.571  2.8985  0.0748  0.6976
  288SOL     OW  862   1.592   2.588   1.472  0.5366 -0.4211  0.2676
  288SOL    HW1  863   1.682   2.561   1.507 -3.9948  0.9774 -1.9897
  288SOL    HW2  864   1.576   2.571   1.367  0.1944 -0.9574 -0.4853
  289SOL     OW  865   0.624   2.715   0.846  0.0395  0.4828  0.2752
  289SOL    HW1  866   0.620   2.797   0.783 -1.4090  1.0330 -3.0497
  289SOL    HW2  867   0.651   2.735   0.943  0.6046  0.0215 -1.6345
  290SOL     OW  868   2.996   1.286   1.657 -0.5117 -0.2500 -0.0481
  290SOL    HW1  869   2.898   1.280   1.703 -2.0539  0.5623  0.7198
  290SOL    HW2  870   3.069   1.274   1.729  0.6376  3.8218 -0.1213
  291SOL     OW  871   1.990   0.043   0.104 -0.2073 -0.0805 -0.4482
  291SOL    HW1  872   2.027   0.028   0.201  0.7569  1.8629 -1.2956
  291SOL    HW2  873   2.023   0.131   0.059  2.8670 -2.2094 -0.9803
  292SOL     OW  874   2.945   1.180   3.074  0.1626  0.5014 -0.1756
  292SOL    HW1  875   2.878   1.248   3.028  0.1368 -1.4985 -2.0422
  292SOL    HW2  876   3.028   1.160   3.015  0.8406  2.2959  0.6671
  293SOL     OW  877   0.539   2.116   0.157  0.3724 -0.7583 -0.2918
  293SOL    HW1  878   0.496   2.160   0.239 -0.9516 -1.1908 -2.1203
  293SOL    HW2  879   0.636   2.083   0.170 -1.3182 -2.0205  0.3391
  294SOL     OW  880   1.611   2.106   1.832  0.1307 -0.2360  0.8814
  294SOL    HW1  881   1.599   2.166   1.914  1.8078 -3.5202 -0.7555
  294SOL    HW2  882   1.673   2.141   1.755 -1.6792 -0.6813 -2.0023
  295SOL     OW  883   0.980   1.174   0.418 -0.2759  0.0995 -0.5341
  295SOL    HW1  884   1.067   1.151   0.474  3.5086  0.9076 -0.8472
  295SOL    HW2  885   0.891   1.135   0.463 -2.9549  0.3608  0.2896
  296SOL     OW  886   1.284   2.106   2.518  0.3111 -0.1233  0.0229
  296SOL    HW1  887   1.238   2.176   2.448 -0.6951  3.1050 -0.2825
  296SOL    HW2  888   1.317   2.015   2.471 -0.6754  0.3947  2.3786
  297SOL     OW  889   1.497   0.708   1.382  0.1731 -0.0906 -0.4221
  297SOL    HW1  890   1.573   0.642   1.407  1.3327  1.9303 -3.4094
  297SOL    HW2  891   1.504   0.795   1.438  1.9276  0.8928 -0.0578
  298SOL     OW  892   0.564   1.355   2.834 -0.6549 -0.9139  0.2532
  298SOL    HW1  893   0.585   1.259   2.872  0.9944 -0.6270 -2.0250
  298SOL    HW2  894   0.593   1.366   2.737  0.1843  1.1977 -0.2785
  299SOL     OW  895   0.356   0.380   1.512  0.0132  0.0438 -0.0736
  299SOL    HW1  896   0.360   0.447   1.433 -1.2334 -1.3392 -0.5812
  299SOL    HW2  897   0.450   0.345   1.541  0.7970 -1.3576 -1.2977
  300SOL     OW  898   1.273   1.822   2.856  0.9960 -0.1178 -0.0348
  300SOL    HW1  899   1.302   1.749   2.785 -1.7824 -2.3198 -1.9633
  300SOL    HW2  900   1.245   1.780   2.945  0.5486 -1.7741 -2.0425
  301SOL     OW  901   0.424   0.258   0.435  0.1664  1.0465  0.4965
  301SOL    HW1  902   0.325   0.234   0.421  0.4560 -1.8570 -0.4298
  301SOL    HW2  903   0.492   0.198   0.379  1.6403  1.2196 -1.9912
  302SOL     OW  904   1.166   2.312   2.373  0.7997  0.4892 -0.0022
  302SOL    HW1  905   1.098   2.354   2.438  3.2711 -2.4892 -0.7792
  302SOL    HW2  906   1.116   2.255   2.302 -0.7610 -1.7742 -1.5594
  303SOL     OW  907   0.926   2.406   0.770 -0.0195 -0.0248 -0.3010
  303SOL    HW1  908   0.990   2.457   0.707  0.2160 -0.3528 -1.9997
  303SOL    HW2  909   0.910   2.455   0.861  1.0780  1.4624 -0.8345
  304SOL     OW  910   0.080   1.991   0.674 -0.2473  0.2343  0.5579
  304SOL    HW1  911   0.118   1.919   0.603  2.3157 -0.2551 -5.0907
  304SOL    HW2  912   0.029   2.062   0.617  0.0920 -3.1353 -0.5166
  305SOL     OW  913   1.609   0.876   0.681 -0.3369  0.4577  0.0526
  305SOL    HW1  914   1.513   0.867   0.652  0.2175 -0.6135 -0.5302
  305SOL    HW2  915   1.674   0.826   0.620 -0.8304  1.1059 -0.9693
  306SOL     OW  916   0.423   1.947   1.932  0.0134 -0.5874  0.2492
  306SOL    HW1  917   0.451   1.855   1.897 -1.5028 -2.1356 -2.2444
  306SOL    HW2  918   0.426   1.955   2.036 -0.8392 -0.7480  1.2165
  307SOL     OW  919   0.002   0.867   2.545 -0.3007  0.4053  0.1875
  307SOL    HW1  920   0.011   0.955   2.600 -1.8222  0.0571 -1.8784
  307SOL    HW2  921  -0.019   0.784   2.605  0.6174  1.2533 -1.8058
  308SOL     OW  922   1.564   2.696   2.791 -0.3029 -0.6672  0.6040
  308SOL    HW1  923   1.564   2.690   2.686  2.1597 -1.9540 -1.8462
  308SOL    HW2  924   1.537   2.606   2.838 -1.4616  3.3481 -0.1647
  309SOL     OW  925   1.264   0.016   1.817  0.0573 -0.3570  0.5816
  309SOL    HW1  926   1.370   0.030   1.844  2.6086  2.2257 -2.8624
  309SOL    HW2  927   1.241   0.051   1.722  2.8631 -0.3752 -0.1450
  310SOL     OW  928   1.435   2.638   0.720  0.1544  0.5048 -0.6713
  310SOL    HW1  929   1.346   2.694   0.726  0.9959 -0.1461  0.1334
  310SOL    HW2  930   1.515   2.698   0.691 -3.0367  1.4729  0.6773
  311SOL     OW  931   1.224   1.002   1.454  0.0720 -0.3412  0.1780
  311SOL    HW1  932   1.306   0.942   1.483  1.5039 -3.7514 -0.3784
  311SOL    HW2  933   1.233   1.103   1.469 -1.9705 -1.3263 -2.2851
  312SOL     OW  934   1.635   0.644   1.026 -0.1650 -0.0957 -0.6788
  312SOL    HW1  935   1.600   0.738   1.054 -1.6060 -0.3327  1.4840
  312SOL    HW2  936   1.570   0.597   0.955 -0.6012 -1.2619 -1.7157
  313SOL     OW  937   1.596   1.447   0.481 -0.0511  0.1186 -0.1347
  313SOL    HW1  938   1.511   1.476   0.530 -2.0707 -2.4121 -1.8101
  313SOL    HW2  939   1.577   1.361   0.423  0.1254 -2.9473  1.9832
  314SOL     OW  940   2.938   0.077   3.077 -1.0459 -0.4494 -0.3166
  314SOL    HW1  941   2.956   0.100   3.178 -0.7771 -1.0211  0.1880
  314SOL    HW2  942   2.882  -0.011   3.072  1.9453 -0.8240  1.3360
  315SOL     OW  943   1.285   0.241   2.745 -0.0100 -0.3605 -0.1031
  315SOL    HW1  944   1.248   0.167   2.684 -1.9118  0.5611  1.1453
  315SOL    HW2  945   1.283   0.222   2.846 -0.3806 -0.2755  0.7047
  316SOL     OW  946   1.693   2.088   0.916  0.8132 -0.0371 -0.1016
  316SOL    HW1  947   1.651   2.099   1.016  1.4479  2.9974 -1.5506
  316SOL    HW2  948   1.721   2.182   0.879  2.0590  2.8208 -3.5763
  317SOL     OW  949   1.163   0.688   2.805  0.0816  0.3930  0.0705
  317SOL    HW1  950   1.099   0.753   2.851 -1.2437 -1.2181  2.0414
  317SOL    HW2  951   1.122   0.597   2.784 -0.6105  2.1205  0.3013
  318SOL     OW  952   1.401   0.003   2.263  0.4417  0.5265 -0.6087
  318SOL    HW1  953   1.382   0.100   2.231 -1.5969  3.8307  0.1395
  318SOL    HW2  954   1.464  -0.053   2.199  0.3730  1.8041 -0.7628
  319SOL     OW  955   0.657   2.402   2.926 -0.0535  0.3662  0.0024
  319SOL    HW1  956   0.587   2.403   3.000  1.2967 -1.8991  1.3760
  319SOL    HW2  957   0.705   2.309   2.914 -3.1760 -2.2200 -0.4375
  320SOL     OW  958   1.586   2.267   0.449  0.7675  0.2446 -0.5540
  320SOL    HW1  959   1.664   2.200   0.467 -1.7532  0.2077 -0.7148
  320SOL    HW2  960   1.496   2.226   0.480  0.5777  1.5221  1.6023
  321SOL     OW  961   1.627   2.781   0.504  0.0343 -0.2135  0.4516
  321SOL    HW1  962   1.557   2.827   0.442 -0.7138 -1.0757  1.8663
  321SOL    HW2  963   1.730   2.813   0.494  1.0727 -0.5994  3.0018
  322SOL     OW  964   2.667   1.124   2.274  0.5553 -0.7028 -0.6148
  322SOL    HW1  965   2.728   1.169   2.347 -1.9952 -3.9599  1.4307
  322SOL    HW2  966   2.615   1.038   2.316  0.3890 -1.4930 -0.3729
  323SOL     OW  967   1.001   2.743   0.867 -0.0938 -0.3397  0.5594
  323SOL    HW1  968   1.012   2.715   0.767  1.5765  0.4129 -2.5157
  323SOL    HW2  969   1.002   2.849   0.871  1.2253 -0.9392 -0.7448
  324SOL     OW  970   0.080   2.504   2.420 -0.1254 -0.3331  0.5122
  324SOL    HW1  971   0.082   2.400   2.432 -2.5525  2.0963  0.1834
  324SOL    HW2  972   0.032   2.555   2.498 -1.0922 -1.5104 -0.3281
  325SOL     OW  973   1.200   3.058   0.484  0.1074  0.2207 -0.1716
  325SOL    HW1  974   1.233   3.097   0.397 -0.1990 -2.3208 -2.7143
  325SOL    HW2  975   1.217   3.119   0.565 -1.0970  0.7539 -1.5772
  326SOL     OW  976   2.307   0.821   0.084 -0.0892 -0.6526 -0.3977
  326SOL    HW1  977   2.269   0.783  -0.003 -0.7930  1.5400  0.4861
  326SOL    HW2  978   2.341   0.747   0.147 -0.8319 -1.3705 -0.7006
  327SOL     OW  979   2.691   0.434   0.539 -0.0895  0.0633  0.0992
  327SOL    HW1  980   2.724   0.372   0.461 -0.5247  0.4756 -0.1715
  327SOL    HW2  981   2.612   0.392   0.592 -0.5756  0.0390  1.3312
  328SOL     OW  982   2.548   0.617   0.353 -0.6367  0.0220  0.0109
  328SOL    HW1  983   2.484   0.687   0.391 -0.2418 -0.1664 -0.3565
  328SOL    HW2  984   2.582   0.539   0.410  3.2162  1.3601 -2.1352
  329SOL     OW  985   3.007   2.943   2.130 -0.4635  0.0844 -0.2323
  329SOL    HW1  986   3.071   2.905   2.203 -1.8019  1.4744 -0.3549
  329SOL    HW2  987   3.024   3.040   2.129  0.7913 -2.1927  2.1699
  330SOL     OW  988   0.488   0.223   1.873  0.2427  0.3413 -0.6540
  330SOL    HW1  989   0.507   0.322   1.848  0.4283  0.7907 -2.4674
  330SOL    HW2  990   0.574   0.180   1.911  1.8526  1.4968 -1.0784
  331SOL     OW  991   2.870   1.933   1.086  0.3129 -0.0156  0.0991
  331SOL    HW1  992   2.936   2.012   1.074 -2.1529  0.4682  1.1926
  331SOL    HW2  993   2.821   1.936   1.174 -2.3717  0.8553  0.4902
  332SOL     OW  994   0.412   1.031   0.029  0.6125  0.1175 -0.3457
  332SOL    HW1  995   0.363   1.015  -0.056  2.9694 -0.4002  0.1155
  332SOL    HW2  996   0.365   1.086   0.105 -0.3343  3.3458 -0.1826
  333SOL     OW  997   2.861   1.028   0.318 -0.3078 -0.0182 -0.0508
  333SOL    HW1  998   2.900   1.118   0.357  1.2079 -1.2288 -0.4473
  333SOL    HW2  999   2.938   0.964   0.272 -0.5717 -0.0178 -2.3669
  334SOL     OW 1000   1.637   1.150   1.887  0.2249  0.1125  0.2886
  334SOL    HW1 1001   1.730   1.095   1.877  0.1043 -0.3869  0.6319
  334SOL    HW2 1002   1.638   1.236   1.947  0.5998 -1.5766 -2.1423
  335SOL     OW 1003   1.931   2.808   2.618  1.0916 -0.0614 -0.2268
  335SOL    HW1 1004   1.990   2.798   2.707 -2.1225 -0.4652  2.6129
  335SOL    HW2 1005   1.855   2.879   2.628 -0.5496 -1.4387  2.1033
  336SOL     OW 1006   0.206   0.067   2.699 -0.4316 -0.0480 -0.4103
  336SOL    HW1 1007   0.299   0.013   2.694  2.8526 -1.0055  0.4716
  336SOL    HW2 1008   0.205   0.148   2.765 -0.8746 -0.0494 -1.0911
  337SOL     OW 1009   1.010   2.808   2.825 -0.2435  0.1887 -0.2312
  337SOL    HW1 1010   0.965   2.785   2.916  0.4498 -0.2422 -2.2050
  337SOL    HW2 1011   1.095   2.755   2.803 -2.9718  1.2328 -1.0253
  338SOL     OW 1012   0.012   1.024   0.623 -0.1064 -0.5994 -0.6154
  338SOL    HW1 1013  -0.089   0.994   0.632 -0.5830  2.5366 -1.0746
  338SOL    HW2 1014   0.023   1.131   0.607 -0.9909  1.3480 -2.0106
  339SOL     OW 1015   1.709   1.395   2.049  0.5308  0.1825  0.5994
  339SOL    HW1 1016   1.602   1.401   2.054 -0.8728 -2.4666  0.2178
  339SOL    HW2 1017   1.755   1.486   2.030 -0.7893  1.7894 -1.9386
  340SOL     OW 1018   2.284   0.794   1.282  0.0444  0.0501  0.0967
  340SOL    HW1 1019   2.203   0.841   1.239  1.7387 -0.6573  1.4921
  340SOL    HW2 1020   2.329   0.716   1.229  0.4376 -1.0608 -0.4088
  341SOL     OW 1021   1.865   2.164   0.468  0.6218 -0.0363  0.1629
  341SOL    HW1 1022   1.854   2.177   0.370 -0.3737 -1.0671  3.2411
  341SOL    HW2 1023   1.966   2.156   0.491  2.3799 -3.2598  0.1773
  342SOL     OW 1024   2.241   2.186   2.794 -0.3815  0.6626  0.6261
  342SOL    HW1 1025   2.304   2.114   2.834 -0.0792 -1.6300  3.0277
  342SOL    HW2 1026   2.138   2.164   2.796  1.7703  0.9364 -1.8615
  343SOL     OW 1027   0.309   0.887   2.864 -0.0815  0.0877  0.0874
  343SOL    HW1 1028   0.296   0.949   2.781 -1.6687 -0.7240  1.9485
  343SOL    HW2 1029   0.412   0.857   2.869  2.1558 -0.0712  0.3502
  344SOL     OW 1030   1.897   1.462   0.293 -0.8844  0.0677  0.4405
  344SOL    HW1 1031   1.835   1.391   0.256  1.8009  0.2680 -1.9153
  344SOL    HW2 1032   1.857   1.554   0.297  0.1279  0.5471  0.0649
  345SOL     OW 1033   1.464   2.213   2.868 -0.5094 -0.2350 -0.5121
  345SOL    HW1 1034   1.376   2.188   2.822 -0.3022 -0.3867 -1.4927
  345SOL    HW2 1035   1.542   2.159   2.823  0.6529  1.1031 -0.0395
  346SOL     OW 1036   2.395   0.882   1.515  0.7608  0.0057 -0.6731
  346SOL    HW1 1037   2.369   0.983   1.535  2.1997  2.5330 -1.8291
  346SOL    HW2 1038   2.359   0.856   1.421  0.8550  0.8524  1.2760
  347SOL     OW 1039   0.674   2.821   1.530 -0.2854 -0.9329 -0.6794
  347SOL    HW1 1040   0.656   2.762   1.612  1.1009 -1.3106 -0.9331
  347SOL    HW2 1041   0.617   2.907   1.520 -1.0485 -3.0123  1.0294
  348SOL     OW 1042   0.114   0.698   2.819 -0.6530 -0.4803 -0.2583
  348SOL    HW1 1043   0.029   0.715   2.756 -1.2550 -0.4732 -2.3882
  348SOL    HW2 1044   0.182   0.781   2.824 -1.3345  1.7070 -0.8435
  349SOL     OW 1045   1.929   0.469   2.731 -0.5060  0.0119  0.2783
  349SOL    HW1 1046   1.898   0.547   2.672  3.3233  0.3627  1.1111
  349SOL    HW2 1047   1.933   0.495   2.831  0.2313  0.1607  0.6226
  350SOL     OW 1048   1.682   0.376   0.345 -0.8102  0.1360  0.1245
  350SOL    HW1 1049   1.723   0.382   0.438  1.7454 -3.6120 -0.0380
  350SOL    HW2 1050   1.622   0.452   0.309  3.4887  0.4395 -1.1208
  351SOL     OW 1051   0.917   0.906   2.114  0.5833  0.1038 -0.0935
  351SOL    HW1 1052   0.896   1.002   2.081  1.6653  4.1088 -0.9017
  351SOL    HW2 1053   0.880   0.832   2.053  0.5090  0.2511 -0.1718
  352SOL     OW 1054   1.970   1.371   0.558 -0.0609 -0.0445  0.3053
  352SOL    HW1 1055   1.953   1.388   0.458  0.4484 -2.1734  2.3304
  352SOL    HW2 1056   2.052   1.411   0.601  0.1134  0.4309 -0.4548
  353SOL     OW 1057   2.137   2.804   1.194  0.3318  0.1796  0.0998
  353SOL    HW1 1058   2.235   2.777   1.165  3.2715  0.0888 -1.7181
  353SOL    HW2 1059   2.060   2.753   1.139 -0.8436  1.2828  1.2629
  354SOL     OW 1060   0.297   1.370   2.927  0.3228 -0.2062 -0.2130
  354SOL    HW1 1061   0.216   1.420   2.877  0.3958  1.6560 -0.9066
  354SOL    HW2 1062   0.387   1.372   2.873  0.6657  0.0884  0.2444
  355SOL     OW 1063   0.457   1.493   0.504 -0.0666  0.0865  0.8799
  355SOL    HW1 1064   0.518   1.575   0.506  0.0666 -2.3705  3.2924
  355SOL    HW2 1065   0.509   1.410   0.533 -1.0588  1.9132  0.9852
  356SOL     OW 1066   0.789   0.397   2.074  0.5784  0.0487 -0.2191
  356SOL    HW1 1067   0.884   0.389   2.112  1.3530 -1.0011  1.8514
  356SOL    HW2 1068   0.766   0.321   2.011 -0.1589  1.3148 -1.1440
  357SOL     OW 1069   1.066   1.321   0.177 -0.2217  0.2604  0.0981
  357SOL    HW1 1070   1.072   1.266   0.090  1.0010 -0.7524 -0.0766
  357SOL    HW2 1071   1.018   1.257   0.246  2.9042 -2.5270 -0.3697
  358SOL     OW 1072   1.609   1.643   0.274 -0.0125  0.2437  0.2630
  358SOL    HW1 1073   1.620   1.552   0.326  2.1600  0.4478 -1.5549
  358SOL    HW2 1074   1.545   1.712   0.316  1.5756 -1.3515  0.1819
  359SOL     OW 1075   1.569   2.712   0.122 -0.0894  0.1472  0.3099
  359SOL    HW1 1076   1.582   2.645   0.048  0.0128  0.3077 -1.4757
  359SOL    HW2 1077   1.481   2.698   0.171  1.0543 -0.4556 -1.9027
  360SOL     OW 1078   0.849   0.579   0.450  0.8802  0.2334  0.1977
  360SOL    HW1 1079   0.779   0.575   0.520  1.5598  0.5184  2.4032
  360SOL    HW2 1080   0.885   0.482   0.431 -0.4259 -1.0579  0.2841
  361SOL     OW 1081   1.280   1.371   0.633  0.1035 -0.2316  0.0217
  361SOL    HW1 1082   1.326   1.378   0.727  1.1290  1.1969  0.7243
  361SOL    HW2 1083   1.176   1.384   0.629  1.0987  1.6304 -0.6193
  362SOL     OW 1084   1.383   1.735   0.789  0.0273 -0.1956 -0.4353
  362SOL    HW1 1085   1.417   1.670   0.866  2.6050  0.2187  0.6606
  362SOL    HW2 1086   1.440   1.824   0.792 -0.8075  0.4450 -0.7301
  363SOL     OW 1087   1.122   1.282   2.047  0.0208  0.6631 -0.6209
  363SOL    HW1 1088   1.124   1.375   2.094  1.9230 -0.7248  0.9923
  363SOL    HW2 1089   1.153   1.288   1.947 -1.2852  1.0570  0.0811
  364SOL     OW 1090   0.577   2.374   1.995  0.2470 -0.8416  0.7234
  364SOL    HW1 1091   0.475   2.360   2.003  0.6357  0.6929 -1.4905
  364SOL    HW2 1092   0.608   2.392   1.900 -1.9571  1.0601  0.7962
  365SOL     OW 1093   1.142   1.763   1.444  0.0448  0.1151  0.0122
  365SOL    HW1 1094   1.050   1.794   1.486 -0.1768  2.4971  0.6206
  365SOL    HW2 1095   1.159   1.657   1.446 -0.4936 -1.3633  0.6417
  366SOL     OW 1096   2.830   2.071   0.486 -0.2097 -0.4881 -0.3143
  366SOL    HW1 1097   2.757   2.002   0.513  0.6128  0.0817  2.3646
  366SOL    HW2 1098   2.921   2.033   0.469  1.1374  0.9462  0.2685
  367SOL     OW 1099   0.830   1.171   0.077 -0.1316 -0.1257 -0.2718
  367SOL    HW1 1100   0.897   1.105   0.130  0.4493 -1.3322 -2.2001
  367SOL    HW2 1101   0.857   1.171  -0.026  0.1062  1.3584  0.9276
  368SOL     OW 1102   1.500   0.497   0.600  0.0290 -0.2209  0.0408
  368SOL    HW1 1103   1.439   0.545   0.532  2.3170 -1.2174  1.4355
  368SOL    HW2 1104   1.603   0.490   0.575  0.3806 -0.5117  2.1149
  369SOL     OW 1105   0.278   1.670   0.117  0.4877  0.0956 -0.5241
  369SOL    HW1 1106   0.283   1.770   0.159  0.2965 -0.4607 -4.1267
  369SOL    HW2 1107   0.215   1.609   0.175 -0.0018 -0.2465  0.2830
  370SOL     OW 1108   0.460   2.119   0.981  0.1051 -0.2637  0.1280
  370SOL    HW1 1109   0.474   2.223   0.969 -0.8369  0.8017  1.3891
  370SOL    HW2 1110   0.365   2.094   0.945  0.3937  2.3201 -1.3871
  371SOL     OW 1111   2.975   2.173   2.788 -0.1944  0.5846  0.2718
  371SOL    HW1 1112   2.960   2.210   2.885  1.3998  0.0189 -1.2421
  371SOL    HW2 1113   3.053   2.213   2.739 -0.0937  0.9243 -1.4878
  372SOL     OW 1114   0.864   1.921   1.009  0.3858 -0.5383 -0.0539
  372SOL    HW1 1115   0.873   1.987   1.087 -2.6459 -0.9486  1.1844
  372SOL    HW2 1116   0.940   1.944   0.940 -0.2923  1.5692  1.4639
  373SOL     OW 1117   1.930   1.927   0.920  0.2499  0.1232  0.4151
  373SOL    HW1 1118   1.992   1.993   0.970 -1.3682  0.5800  0.4624
  373SOL    HW2 1119   1.844   1.982   0.892 -1.8821  0.2690  0.2277
  374SOL     OW 1120   1.813   0.446   0.577  0.1290  0.5034  0.0341
  374SOL    HW1 1121   1.840   0.410   0.676  4.3060 -1.8513  1.0813
  374SOL    HW2 1122   1.892   0.424   0.517  0.3474  1.0368  1.5231
  375SOL     OW 1123   2.466   2.319   1.143  0.3784 -0.1447 -0.9282
  375SOL    HW1 1124   2.502   2.279   1.055 -2.1033 -0.6599 -0.9293
  375SOL    HW2 1125   2.480   2.257   1.227  0.6256 -3.6977 -0.0287
  376SOL     OW 1126   3.038   0.658   1.475  0.7744 -0.1458 -0.2160
  376SOL    HW1 1127   3.096   0.711   1.546  0.5608  0.0274 -2.6112
  376SOL    HW2 1128   2.940   0.692   1.456 -1.5011 -1.5025 -1.0087
  377SOL     OW 1129   2.167   2.803   0.322  0.4457 -0.3191  0.2569
  377SOL    HW1 1130   2.130   2.897   0.355 -1.2627  1.3272  1.2497
  377SOL    HW2 1131   2.271   2.804   0.304 -1.5449 -0.8650 -2.8743
  378SOL     OW 1132   1.874   1.823   2.679  0.1204  0.0228 -0.1869
  378SOL    HW1 1133   1.936   1.738   2.677  0.4783 -0.4910 -0.4389
  378SOL    HW2 1134   1.774   1.795   2.695 -1.5892  2.7210 -2.3802
  379SOL     OW 1135   0.877   0.105   2.683  0.2654 -0.0440  0.5521
  379SOL    HW1 1136   0.872   0.002   2.661 -0.7039 -1.3273  1.9109
  379SOL    HW2 1137   0.812   0.164   2.629 -0.7043 -2.0830  0.6640
  380SOL     OW 1138   1.587   1.128   0.520 -0.3780 -0.0177  0.5296
  380SOL    HW1 1139   1.509   1.059   0.525  0.4293  0.8406 -1.1194
  380SOL    HW2 1140   1.585   1.192   0.603 -0.1066  1.6439  1.7535
  381SOL     OW 1141   1.302   1.271   1.507 -0.1269 -0.2751  0.2261
  381SOL    HW1 1142   1.311   1.335   1.424  1.0403  1.8236 -0.9479
  381SOL    HW2 1143   1.390   1.270   1.567 -2.3683 -1.3654  1.8095
  382SOL     OW 1144   1.726   0.797   0.251 -0.2101  0.0338  0.4159
  382SOL    HW1 1145   1.735   0.813   0.150  1.7453 -0.7867  2.7773
  382SOL    HW2 1146   1.809   0.750   0.295  1.0882 -3.9714  0.7967
  383SOL     OW 1147   2.648   1.008   1.526 -0.0243 -0.1304  0.2164
  383SOL    HW1 1148   2.567   0.941   1.517  1.8201  1.3845  1.9354
  383SOL    HW2 1149   2.734   0.970   1.477  4.3381 -2.5287 -1.6292
  384SOL     OW 1150   1.017   2.303   0.122 -0.0749 -0.1872  0.1004
  384SOL    HW1 1151   0.923   2.348   0.139 -2.6167 -0.2777 -1.1754
  384SOL    HW2 1152   1.047   2.257   0.205 -2.5127  2.8510 -1.3710
  385SOL     OW 1153   2.972   2.051   1.683  0.9849  0.1607  0.2523
  385SOL    HW1 1154   3.044   2.123   1.678 -1.1214  0.9690 -0.1459
  385SOL    HW2 1155   3.018   1.958   1.685 -2.4405  3.8420 -0.4406
  386SOL     OW 1156   0.414   1.055   0.438  0.3793 -0.3996  0.3872
  386SOL    HW1 1157   0.424   0.954   0.450 -0.4870 -1.1824 -0.6385
  386SOL    HW2 1158   0.369   1.087   0.353  2.6469 -1.0943  2.9202
  387SOL     OW 1159   1.022   0.356   1.698 -0.1766  0.4427  0.0997
  387SOL    HW1 1160   1.061   0.448   1.695 -0.9870 -1.0983 -0.5368
  387SOL    HW2 1161   1.000   0.323   1.599 -0.6703 -0.5553 -1.8884
  388SOL     OW 1162   1.261   2.556   1.761  0.2857  0.1057 -0.5193
  388SOL    HW1 1163   1.280   2.550   1.660  1.6385  0.7856  1.7057
  388SOL    HW2 1164   1.344   2.525   1.818  2.2549 -1.0263 -0.9744
  389SOL     OW 1165   0.234   3.105   1.132  0.2800 -0.0098  0.1516
  389SOL    HW1 1166   0.204   3.092   1.230  0.9560 -2.4642 -1.7831
  389SOL    HW2 1167   0.283   3.023   1.094 -3.2928 -0.8672 -4.1907
  390SOL     OW 1168   1.072   0.858   1.175  0.1796  0.0303 -0.7037
  390SOL    HW1 1169   1.169   0.819   1.175 -2.4723  0.2905 -2.7598
  390SOL    HW2 1170   1.029   0.869   1.269 -0.8377  1.2211  1.7820
  391SOL     OW 1171   2.079   1.134   1.097 -0.4339 -0.0518 -0.3947
  391SOL    HW1 1172   2.068   1.034   1.125  0.8163 -2.0449  1.2027
  391SOL    HW2 1173   2.140   1.146   1.016 -3.4608  1.0963 -3.1466
  392SOL     OW 1174   0.923   2.715   3.073 -0.4037 -0.3767  0.5369
  392SOL    HW1 1175   0.834   2.706   3.126  1.6526  0.9057  1.5174
  392SOL    HW2 1176   0.990   2.773   3.128 -1.7395  0.0070  1.0252
  393SOL     OW 1177   0.359   0.591   1.993  0.2428 -0.1310  0.2138
  393SOL    HW1 1178   0.277   0.536   1.959 -0.1315  0.1927 -0.5076
  393SOL    HW2 1179   0.448   0.538   1.972 -0.4754 -0.3408 -2.1070
  394SOL     OW 1180   2.818   1.822   2.746  0.2598 -0.6474  0.0438
  394SOL    HW1 1181   2.877   1.832   2.661 -1.5526  2.3768 -2.4767
  394SOL    HW2 1182   2.768   1.901   2.777 -0.0338 -0.9234 -0.6333
  395SOL     OW 1183   1.547   1.954   0.712  0.3412 -0.1262 -0.3183
  395SOL    HW1 1184   1.582   1.860   0.676  0.9939 -1.0126 -0.4609
  395SOL    HW2 1185   1.617   2.002   0.782 -0.4116  4.1080  2.5249
  396SOL     OW 1186   2.732   1.955   1.323  0.0889  0.0967  0.1212
  396SOL    HW1 1187   2.739   2.027   1.398  1.5042 -0.0013 -0.3601
  396SOL    HW2 1188   2.651   1.895   1.342 -3.5574  4.6846  0.6204
  397SOL     OW 1189   0.953   2.156   0.634  0.5362  0.0953 -0.0192
  397SOL    HW1 1190   0.858   2.115   0.600  0.7650 -2.9716  0.4350
  397SOL    HW2 1191   0.931   2.242   0.692 -1.6936  0.3543  0.4483
  398SOL     OW 1192   2.227   3.075   1.124  0.0614  0.0751 -0.9792
  398SOL    HW1 1193   2.179   2.986   1.134 -0.9229 -0.8186  0.8945
  398SOL    HW2 1194   2.158   3.158   1.114  1.6292 -0.0246  0.4647
  399SOL     OW 1195   2.891   2.593   2.781 -0.0047 -0.3849 -0.7444
  399SOL    HW1 1196   2.843   2.585   2.690 -0.4726  0.2089 -3.9284
  399SOL    HW2 1197   2.844   2.531   2.848 -1.0266 -1.5731  0.0135
  400SOL     OW 1198   0.812   1.566   1.303 -0.2433 -0.1413  0.0487
  400SOL    HW1 1199   0.788   1.624   1.386 -1.0300 -3.0362  0.4393
  400SOL    HW2 1200   0.781   1.615   1.217 -1.9327 -1.1394 -0.7596
  401SOL     OW 1201   1.865   0.155   1.275 -0.3177 -0.1409  0.1826
  401SOL    HW1 1202   1.927   0.187   1.356 -0.4791 -0.3702  1.5185
  401SOL    HW2 1203   1.764   0.168   1.301  0.0940  2.6721 -1.8107
  402SOL     OW 1204   1.373   0.139   3.019 -0.4478 -0.2293  0.0381
  402SOL    HW1 1205   1.462   0.153   2.976 -5.8803  1.3385 -1.4008
  402SOL    HW2 1206   1.351   0.179   3.111 -3.2486 -0.9525 -0.8156
  403SOL     OW 1207   2.264   1.858   0.952  0.1208  0.0506  0.3018
  403SOL    HW1 1208   2.359   1.876   0.995 -0.5789 -0.1779  0.3485
  403SOL    HW2 1209   2.202   1.938   0.972 -0.4406  1.9382 -1.5195
  404SOL     OW 1210   0.217   2.486   2.767  0.4378 -0.4458  0.0704
  404SOL    HW1 1211   0.318   2.462   2.767 -0.8447 -1.9577 -2.0243
  404SOL    HW2 1212   0.196   2.587   2.788 -0.2004  0.4751  0.6797
  405SOL     OW 1213   0.184   2.531   0.559  0.2672 -0.7198  0.0489
  405SOL    HW1 1214   0.217   2.437   0.597 -1.8829 -1.5499  1.6773
  405SOL    HW2 1215   0.253   2.608   0.578 -0.3745 -3.3028  2.3093
  406SOL     OW 1216   0.039   1.640   3.021 -0.2406  0.2740  0.4049
  406SOL    HW1 1217   0.100   1.594   2.950  1.4464 -1.9618 -1.5156
  406SOL    HW2 1218   0.058   1.615   3.118 -1.1841 -2.4403 -2.6085
  407SOL     OW 1219   1.548   0.918   0.935  0.6287  0.6573  0.4799
  407SOL    HW1 1220   1.582   0.923   0.836  0.0291  1.4102  0.7408
  407SOL    HW2 1221   1.460   0.973   0.937 -0.5112 -1.5027 -0.6088
  408SOL     OW 1222   1.468   2.320   0.911  0.1072  0.1494  0.0683
  408SOL    HW1 1223   1.560   2.307   0.864 -0.2468  0.7302 -0.3560
  408SOL    HW2 1224   1.463   2.398   0.975 -0.1374 -1.5654  0.3308
  409SOL     OW 1225   0.610   0.850   0.690  0.2180  0.4002 -0.1359
  409SOL    HW1 1226   0.547   0.882   0.610 -0.5956 -0.0542 -0.0983
  409SOL    HW2 1227   0.617   0.742   0.684 -1.2364 -0.7541 -1.0323
  410SOL     OW 1228   1.349   1.927   1.474  0.4067  0.8781  0.3686
  410SOL    HW1 1229   1.319   2.030   1.468 -1.5522  3.7238 -0.1786
  410SOL    HW2 1230   1.263   1.866   1.450 -0.6952  2.8082 -1.3611
  411SOL     OW 1231   2.373   1.861   0.063 -0.1154 -0.3166 -0.0007
  411SOL    HW1 1232   2.280   1.873   0.024  3.5776  0.3965  0.7942
  411SOL    HW2 1233   2.448   1.888  -0.004  0.9543  0.8596  0.4285
  412SOL     OW 1234   1.624   2.444   2.255 -0.1719 -0.0751  0.2706
  412SOL    HW1 1235   1.639   2.549   2.254 -2.2651  0.7037  3.7714
  412SOL    HW2 1236   1.529   2.419   2.294  0.1661  1.2332  0.9767
  413SOL     OW 1237   3.073   0.251   2.892 -0.1963  0.9351 -0.9864
  413SOL    HW1 1238   3.010   0.197   2.959 -0.2224  0.1015 -0.1325
  413SOL    HW2 1239   3.178   0.240   2.910  2.6733  0.4251  2.5077
  414SOL     OW 1240   1.710   1.363   1.384  0.1406  0.0161 -0.7714
  414SOL    HW1 1241   1.619   1.383   1.433 -4.5840 -0.4352  1.2776
  414SOL    HW2 1242   1.709   1.371   1.284  2.4107  0.2498  2.7809
  415SOL     OW 1243   0.211   2.270   0.667 -0.1523  0.5719 -0.3719
  415SOL    HW1 1244   0.229   2.212   0.746 -1.3797 -2.4382 -0.7465
  415SOL    HW2 1245   0.129   2.256   0.612  2.3296  1.4966 -0.7186
  416SOL     OW 1246   0.317   1.078   1.086 -0.0858 -0.2341 -0.4080
  416SOL    HW1 1247   0.284   1.058   0.992  2.9412  0.0376  0.1819
  416SOL    HW2 1248   0.407   1.135   1.080  1.0278 -0.8151  0.4206
  417SOL     OW 1249   2.205   2.335   1.857 -0.0618  0.4576  0.6009
  417SOL    HW1 1250   2.272   2.256   1.873 -1.6097 -0.6708  2.1941
  417SOL    HW2 1251   2.112   2.310   1.905 -2.1228 -0.7490  0.6211
  418SOL     OW 1252   1.142   0.561   1.347 -0.2383 -0.2590 -0.1636
  418SOL    HW1 1253   1.070   0.483   1.323 -2.0616 -1.9235 -0.6320
  418SOL    HW2 1254   1.237   0.553   1.296 -2.1037 -0.2652  3.6238
  419SOL     OW 1255   0.958   0.389   2.989  0.0540  0.0906  0.1311
  419SOL    HW1 1256   1.001   0.410   2.896 -0.8667  2.8668  0.2112
  419SOL    HW2 1257   0.897   0.305   2.990  1.8702 -1.5092 -1.4958
  420SOL     OW 1258   0.197   2.227   0.334 -0.2522  0.6257  1.0899
  420SOL    HW1 1259   0.140   2.227   0.253  0.1171  2.8522 -1.1941
  420SOL    HW2 1260   0.132   2.233   0.414  0.1948 -0.3917 -0.0516
  421SOL     OW 1261   0.303   0.058   0.710  0.6216  0.5109  0.2458
  421SOL    HW1 1262   0.351   0.021   0.621  2.7536 -0.5428  0.2079
  421SOL    HW2 1263   0.367   0.128   0.754  1.2226 -0.1812 -0.4109
  422SOL     OW 1264   0.919   2.531   1.020  0.1698 -0.2720  0.5139
  422SOL    HW1 1265   0.964   2.620   0.976  1.2265 -0.0319 -0.6158
  422SOL    HW2 1266   0.945   2.519   1.123 -2.5324 -0.6751  3.7063
  423SOL     OW 1267   0.058   0.673   1.219 -0.0896  0.8880 -0.2289
  423SOL    HW1 1268   0.058   0.701   1.322  3.2998  0.1319  3.6186
  423SOL    HW2 1269  -0.038   0.639   1.192  0.7278 -0.7150  2.7633
  424SOL     OW 1270   1.006   2.159   2.216 -0.5547 -0.3331  0.0343
  424SOL    HW1 1271   0.978   2.236   2.153 -0.1981 -1.5969 -0.2168
  424SOL    HW2 1272   0.936   2.135   2.288 -1.1537 -1.0272  1.1584
  425SOL     OW 1273   2.070   1.407   1.129 -0.5790 -0.6949  0.1322
  425SOL    HW1 1274   2.064   1.306   1.110  4.1051  2.0155 -1.0677
  425SOL    HW2 1275   2.078   1.471   1.044  0.0485 -0.3392 -0.5305
  426SOL     OW 1276   1.465   1.544   1.435  0.5972 -0.2311 -0.3644
  426SOL    HW1 1277   1.445   1.623   1.374  1.3434 -1.2286  1.1484
  426SOL    HW2 1278   1.477   1.571   1.534  0.2643  0.0196  0.5704
  427SOL     OW 1279   1.990   2.331   2.017  0.1172 -0.1637 -0.1056
  427SOL    HW1 1280   2.023   2.267   2.099 -0.7568  0.9632 -0.3616
  427SOL    HW2 1281   1.990   2.432   2.046  1.5096 -1.8930  0.9130
  428SOL     OW 1282   0.916   0.018   0.055 -0.1283  0.0686 -0.2128
  428SOL    HW1 1283   0.951   0.098   0.108  1.3511 -2.3587  1.3163
  428SOL    HW2 1284   0.978  -0.066   0.063  1.0438 -2.0125 -0.7451
  429SOL     OW 1285   1.242   0.068   0.231 -0.1603  0.0444 -0.1346
  429SOL    HW1 1286   1.323   0.127   0.205  3.3625 -1.7051 -4.1671
  429SOL    HW2 1287   1.221   0.011   0.151 -0.2185  0.5947  1.3241
  430SOL     OW 1288   2.784   1.469   0.292  0.0052  0.5571  0.7493
  430SOL    HW1 1289   2.722   1.526   0.223 -1.5421  2.7474 -0.3128
  430SOL    HW2 1290   2.809   1.532   0.373  0.0346 -1.3343 -0.9852
  431SOL     OW 1291   2.119   1.602   0.926 -0.5347  0.5488  0.2924
  431SOL    HW1 1292   2.188   1.678   0.934 -1.2591 -0.0963 -2.9399
  431SOL    HW2 1293   2.019   1.632   0.908 -0.0056 -0.4765 -3.6536
  432SOL     OW 1294   2.936   2.173   1.269 -0.2784  0.5518  0.0306
  432SOL    HW1 1295   2.875   2.090   1.276 -0.8704  0.2781 -2.3304
  432SOL    HW2 1296   2.917   2.256   1.325  1.3604  0.4085 -1.7826
  433SOL     OW 1297   1.856   0.313   0.829  0.4289 -1.4437 -0.1507
  433SOL    HW1 1298   1.756   0.292   0.860 -1.0724  0.1967  0.5626
  433SOL    HW2 1299   1.899   0.370   0.904 -1.1758 -2.9073 -1.6064
  434SOL     OW 1300   1.468   0.221   0.730  0.3391 -0.0092 -0.0926
  434SOL    HW1 1301   1.468   0.307   0.671 -1.0078  2.4151 -3.2094
  434SOL    HW2 1302   1.516   0.232   0.823 -1.2665 -0.5969 -0.4741
  435SOL     OW 1303   1.439   1.392   2.073 -0.4538  0.7136 -0.2944
  435SOL    HW1 1304   1.401   1.390   2.169 -0.8154 -1.4045 -2.0100
  435SOL    HW2 1305   1.394   1.460   2.009  0.7701 -0.7640  0.2442
  436SOL     OW 1306   1.673   2.689   2.449  0.3662 -0.5398  0.0280
  436SOL    HW1 1307   1.662   2.783   2.493 -4.1958 -0.2260 -0.0978
  436SOL    HW2 1308   1.604   2.623   2.496 -2.7530 -0.0604  2.1432
  437SOL     OW 1309   1.027   3.019   0.870 -0.4611 -0.5196 -0.2385
  437SOL    HW1 1310   0.959   3.091   0.848  0.2579 -1.2113  2.8087
  437SOL    HW2 1311   1.069   3.047   0.959 -0.9945 -0.6813  0.7598
  438SOL     OW 1312   0.996   2.567   1.271  0.1121 -0.3285  0.6828
  438SOL    HW1 1313   1.085   2.614   1.297  0.6078 -0.5188  1.8346
  438SOL    HW2 1314   0.996   2.471   1.316 -2.1968 -0.5869 -0.2449
  439SOL     OW 1315   0.716   1.685   1.063 -0.4675 -0.0717 -0.3856
  439SOL    HW1 1316   0.761   1.777   1.035  0.2541 -0.6289  1.3845
  439SOL    HW2 1317   0.619   1.699   1.101 -1.2383  1.9382  1.6187
  440SOL     OW 1318   0.948   2.329   1.996  0.3377 -0.2152 -0.7352
  440SOL    HW1 1319   0.964   2.402   1.922  1.1001  1.5802  1.4095
  440SOL    HW2 1320   1.000   2.243   1.970  3.2287  1.0765 -0.6673
  441SOL     OW 1321   0.362   2.812   1.318  0.0553  0.8726  0.3055
  441SOL    HW1 1322   0.399   2.712   1.323  1.4628 -0.5985 -1.0128
  441SOL    HW2 1323   0.387   2.852   1.227  0.4681  0.0428  0.4185
  442SOL     OW 1324   2.224   0.682   2.567  0.1096 -0.0936  0.2448
  442SOL    HW1 1325   2.222   0.590   2.520  1.2767  0.3305  1.0478
  442SOL    HW2 1326   2.136   0.734   2.543 -0.3748  1.1409 -1.7918
  443SOL     OW 1327   1.327   2.490   2.245 -0.4990  0.1018 -0.2484
  443SOL    HW1 1328   1.277   2.401   2.275  0.5330 -1.9976 -1.9135
  443SOL    HW2 1329   1.266   2.576   2.255 -0.0920  0.3469 -0.1051
  444SOL     OW 1330   0.948   1.150   1.431 -0.0027  0.9778  0.2068
  444SOL    HW1 1331   1.050   1.120   1.433  2.3962  1.7552  0.1290
  444SOL    HW2 1332   0.937   1.252   1.437  3.0113  3.0386  1.1528
  445SOL     OW 1333   0.157   2.108   2.025 -0.2549  0.5699  0.4805
  445SOL    HW1 1334   0.177   2.010   2.041 -1.4388 -0.2186 -0.5628
  445SOL    HW2 1335   0.084   2.146   2.088  1.2956 -2.9224  0.7217
  446SOL     OW 1336   0.131   2.001   2.384 -0.4467  0.1797  0.2307
  446SOL    HW1 1337   0.081   2.089   2.374 -1.7067  1.6913 -0.9139
  446SOL    HW2 1338   0.122   1.937   2.304 -0.7172 -1.5952  1.8731
  447SOL     OW 1339   1.315   1.605   1.910 -0.9524  0.9551  0.5993
  447SOL    HW1 1340   1.234   1.654   1.869 -0.4423  0.5136  0.6342
  447SOL    HW2 1341   1.398   1.665   1.929 -0.6538 -0.1378  1.2024
  448SOL     OW 1342   0.150   1.472   2.022  0.4444  0.1851 -0.5661
  448SOL    HW1 1343   0.173   1.570   1.994  1.4472 -2.1962  0.4583
  448SOL    HW2 1344   0.064   1.467   2.081 -0.0028  1.0190  1.6429
  449SOL     OW 1345   1.871   3.035   0.836  0.2614  0.3828 -0.4828
  449SOL    HW1 1346   1.859   3.036   0.943 -0.8707 -1.9231  4.9995
  449SOL    HW2 1347   1.911   2.942   0.805  1.8057  0.5360  1.5686
  450SOL     OW 1348   2.168   1.508   0.681  0.6749  0.2246  0.1563
  450SOL    HW1 1349   2.134   1.551   0.772  0.6820  1.0907  1.2223
  450SOL    HW2 1350   2.246   1.569   0.636  1.1470  1.6994 -1.3944
  451SOL     OW 1351   1.398   2.983   1.480 -0.0978 -0.0478 -0.6605
  451SOL    HW1 1352   1.341   3.070   1.498 -2.1890  2.2967 -1.2863
  451SOL    HW2 1353   1.417   2.914   1.560  1.2264  0.9866  0.5798
  452SOL     OW 1354   2.671   2.315   2.267 -0.4825  0.2954  0.4490
  452SOL    HW1 1355   2.603   2.392   2.260 -0.1547  0.6610  0.7324
  452SOL    HW2 1356   2.679   2.284   2.365 -0.8433  1.2859  1.1617
  453SOL     OW 1357   2.491   2.683   0.009 -0.1326 -0.0210 -0.0576
  453SOL    HW1 1358   2.405   2.720   0.048  3.3538 -2.1022  0.2237
  453SOL    HW2 1359   2.475   2.595  -0.043  3.0929  0.1284  2.2109
  454SOL     OW 1360   0.883   1.160   2.023  0.1586 -0.2638  0.4420
  454SOL    HW1 1361   0.830   1.160   1.932  2.6910  0.0884 -1.7591
  454SOL    HW2 1362   0.967   1.217   2.018 -0.3746 -2.5564 -0.2167
  455SOL     OW 1363   0.786   2.607   2.791 -0.4346 -0.0372  0.1817
  455SOL    HW1 1364   0.878   2.643   2.816 -1.2747  1.2111  2.8554
  455SOL    HW2 1365   0.766   2.519   2.842  1.6797 -2.3136  4.2661
  456SOL     OW 1366   0.303   1.929   0.201  0.1156 -0.1740  0.4358
  456SOL    HW1 1367   0.405   1.953   0.192  0.7463  1.7111  2.2840
  456SOL    HW2 1368   0.237   2.005   0.170  1.6441  0.0863 -0.0483
  457SOL     OW 1369   0.411   2.687   0.637 -0.1714 -0.8186  0.4141
  457SOL    HW1 1370   0.464   2.729   0.557 -0.2916 -1.5892 -2.0288
  457SOL    HW2 1371   0.480   2.644   0.700  0.1123  1.9410 -0.6062
  458SOL     OW 1372   2.965   0.010   1.287 -0.5357 -0.0029 -0.3533
  458SOL    HW1 1373   2.977   0.107   1.254 -0.7836  0.0650  0.6789
  458SOL    HW2 1374   2.980  -0.065   1.215 -1.4559 -0.8241 -1.7825
  459SOL     OW 1375   2.111   2.526   0.740 -0.5410 -0.5997 -0.4832
  459SOL    HW1 1376   2.191   2.507   0.809  2.5219  2.6237  1.2285
  459SOL    HW2 1377   2.156   2.579   0.656  0.3132 -0.2237  0.0609
  460SOL     OW 1378   1.220   2.081   2.799  0.2895 -0.1676 -0.2718
  460SOL    HW1 1379   1.240   2.103   2.698 -4.2803  0.6680  0.6919
  460SOL    HW2 1380   1.253   1.985   2.824  1.2098 -0.6199 -1.3383
  461SOL     OW 1381   0.472   2.112   2.740  0.0375  0.2290  0.6576
  461SOL    HW1 1382   0.369   2.099   2.751  1.8394 -0.7765  2.1676
  461SOL    HW2 1383   0.524   2.044   2.801 -0.1232  0.1823  3.5166
  462SOL     OW 1384   0.974   1.034   1.725 -0.0820 -0.5101 -0.1976
  462SOL    HW1 1385   0.956   0.956   1.656 -1.4256 -1.1036 -0.4306
  462SOL    HW2 1386   0.905   1.115   1.714 -0.1547 -0.0831 -0.3541
  463SOL     OW 1387   0.423   0.778   0.499  0.5810 -0.3909 -0.2027
  463SOL    HW1 1388   0.451   0.693   0.451 -2.8678  0.4747  0.5735
  463SOL    HW2 1389   0.322   0.772   0.523 -0.6364  0.6667 -3.6138
  464SOL     OW 1390   0.538   2.339   2.287 -0.2645 -0.3079 -0.0903
  464SOL    HW1 1391   0.461   2.390   2.336 -0.7135  2.7694  0.3264
  464SOL    HW2 1392   0.538   2.366   2.187  1.0922  1.1334 -1.2520
  465SOL     OW 1393   0.240   0.972   0.813 -0.0454  0.7220 -0.0091
  465SOL    HW1 1394   0.148   1.004   0.775  0.2800  1.2997  0.2153
  465SOL    HW2 1395   0.260   0.875   0.794  2.0092  3.0763  1.1717
  466SOL     OW 1396   1.355   1.149   0.848 -0.5178  0.3657  0.1667
  466SOL    HW1 1397   1.369   1.250   0.868  1.9999 -0.5111 -0.0230
  466SOL    HW2 1398   1.274   1.110   0.903 -0.1219  0.6690  1.2333
  467SOL     OW 1399   0.615   0.449   2.557  0.5104  0.1898  0.5624
  467SOL    HW1 1400   0.572   0.543   2.560  0.9689  1.7906  0.9278
  467SOL    HW2 1401   0.567   0.366   2.608  4.3568 -1.8216  2.4848
  468SOL     OW 1402   0.481   2.268   1.602 -0.2184 -0.1578 -0.3182
  468SOL    HW1 1403   0.578   2.297   1.629 -0.1544  1.0961  1.2698
  468SOL    HW2 1404   0.470   2.263   1.497  1.0637 -2.7006 -1.0369
  469SOL     OW 1405   1.432   1.344   1.218 -0.6599 -0.4076  0.6240
  469SOL    HW1 1406   1.509   1.313   1.157 -1.4958 -1.4284 -0.8745
  469SOL    HW2 1407   1.438   1.440   1.262  0.7443 -0.4013  2.1425
  470SOL     OW 1408   2.974   1.845   0.798  0.5410  0.1982 -0.2301
  470SOL    HW1 1409   3.044   1.914   0.766 -0.0355 -1.8844  0.9437
  470SOL    HW2 1410   2.960   1.847   0.902 -1.0544  0.8444 -0.2420
  471SOL     OW 1411   2.688   1.393   2.175 -0.0167  0.2551  0.2919
  471SOL    HW1 1412   2.681   1.292   2.195  1.1505  0.9497  1.3503
  471SOL    HW2 1413   2.750   1.435   2.247  1.6704 -1.9085 -3.4107
  472SOL     OW 1414   1.293   2.392   0.062  0.2905 -0.0172  0.2850
  472SOL    HW1 1415   1.369   2.340   0.105 -0.2434  0.8573 -0.1613
  472SOL    HW2 1416   1.206   2.380   0.115  0.3824 -1.4263 -0.2245
  473SOL     OW 1417   1.072   1.493   0.960  0.3197 -0.1090  0.0727
  473SOL    HW1 1418   0.971   1.516   0.945  0.0840  1.3862  0.3357
  473SOL    HW2 1419   1.086   1.415   1.027 -0.8470  0.5256 -0.1473
  474SOL     OW 1420   0.635   1.273   0.434  0.0822  0.0890  0.4388
  474SOL    HW1 1421   0.582   1.238   0.353  1.0303  1.6427  0.1073
  474SOL    HW2 1422   0.652   1.188   0.497  1.1042 -3.1401 -0.4275
  475SOL     OW 1423   2.891   0.019   0.866 -0.1899  0.8004 -0.7618
  475SOL    HW1 1424   2.957   0.101   0.881  1.3436 -1.2892 -2.8987
  475SOL    HW2 1425   2.795   0.028   0.908  0.8637  0.3383  3.0393
  476SOL     OW 1426   0.976   3.063   1.816  0.1696 -0.5511 -0.0312
  476SOL    HW1 1427   1.070   3.102   1.844  2.4350  0.2868 -1.8585
  476SOL    HW2 1428   0.973   3.029   1.716 -0.9023  1.8634 -3.2843
  477SOL     OW 1429   1.462   0.312   2.453 -0.1879  0.2107 -0.0877
  477SOL    HW1 1430   1.477   0.316   2.557 -2.9155  2.2258 -0.5914
  477SOL    HW2 1431   1.533   0.250   2.408 -1.6076  1.0147  1.1115
  478SOL     OW 1432   2.260   1.945   0.348 -0.3407 -0.2265  0.0165
  478SOL    HW1 1433   2.212   1.859   0.386  0.3524  0.7926 -4.6414
  478SOL    HW2 1434   2.339   1.929   0.283  2.3841  0.7868 -1.8362
  479SOL     OW 1435   1.285   1.021   2.881 -0.0745 -0.5508 -0.3257
  479SOL    HW1 1436   1.383   1.033   2.861 -4.1233  1.1813 -0.0439
  479SOL    HW2 1437   1.248   0.951   2.818  1.2862  0.2989 -1.2672
  480SOL     OW 1438   2.637   2.261   0.432  0.0829  0.5538  0.0807
  480SOL    HW1 1439   2.719   2.210   0.467  0.6904 -0.0188 -0.5628
  480SOL    HW2 1440   2.554   2.229   0.481  1.3944  1.9261 -1.4651
  481SOL     OW 1441   0.948   1.110   0.739  0.5278  0.2405  0.4149
  481SOL    HW1 1442   0.996   1.193   0.688 -1.9324 -0.8149  1.0799
  481SOL    HW2 1443   0.986   1.097   0.837 -0.0425  2.6950  2.2974
  482SOL     OW 1444   1.566   0.282   2.024 -0.5456  0.2898  0.4867
  482SOL    HW1 1445   1.573   0.389   2.016  2.8165  0.9144  3.0392
  482SOL    HW2 1446   1.658   0.239   2.049 -0.8348 -1.1357 -0.9205
  483SOL     OW 1447   0.173   2.371   1.200 -0.0618  0.4579  0.5402
  483SOL    HW1 1448   0.143   2.454   1.256  0.3862 -3.2390  0.8327
  483SOL    HW2 1449   0.179   2.386   1.095 -0.7408  0.1224 -2.5270
  484SOL     OW 1450   1.732   1.042   1.450 -0.1982 -0.2866  0.4019
  484SOL    HW1 1451   1.827   0.996   1.438  3.4125  1.2762 -0.4303
  484SOL    HW2 1452   1.740   1.146   1.449  0.4606 -0.0997  0.0523
  485SOL     OW 1453   0.784   0.745   1.928 -0.2667  0.4877  0.1562
  485SOL    HW1 1454   0.730   0.788   1.848 -2.5148 -1.7221  0.3957
  485SOL    HW2 1455   0.871   0.693   1.899 -0.4881  1.0972  1.2727
  486SOL     OW 1456   0.913   1.854   2.480 -0.1813  0.6350 -0.1420
  486SOL    HW1 1457   0.931   1.838   2.577 -1.4653  1.0780  1.5163
  486SOL    HW2 1458   0.889   1.954   2.465  2.3935 -1.4757 -3.6460
  487SOL     OW 1459   1.753   1.568   1.028 -0.1559  0.3527 -0.2840
  487SOL    HW1 1460   1.765   1.466   1.042 -0.2318  0.7488 -1.2387
  487SOL    HW2 1461   1.803   1.596   0.941  0.1762  2.3081 -0.1722
  488SOL     OW 1462   2.899   0.843   2.271  1.2888 -0.4716 -0.9314
  488SOL    HW1 1463   2.983   0.779   2.269 -0.1248 -2.0073 -0.7756
  488SOL    HW2 1464   2.826   0.806   2.336 -0.7355  1.1952  0.2299
  489SOL     OW 1465   2.851   0.320   1.289 -0.4605  0.1568 -0.1094
  489SOL    HW1 1466   2.848   0.305   1.393 -0.9328 -1.1137 -0.5385
  489SOL    HW2 1467   2.949   0.318   1.256 -1.8067  1.4120  2.6579
  490SOL     OW 1468   1.513   3.013   2.789 -0.6265 -0.0128  0.2242
  490SOL    HW1 1469   1.540   2.914   2.789  0.0170  0.1265 -1.4999
  490SOL    HW2 1470   1.444   3.030   2.716  0.1595 -0.5287 -0.3003
  491SOL     OW 1471   1.788   1.504   2.753  0.2571 -0.9921  0.3796
  491SOL    HW1 1472   1.761   1.427   2.810 -0.2880  1.4680  0.2699
  491SOL    HW2 1473   1.885   1.528   2.750 -1.8947  1.8258  0.8073
  492SOL     OW 1474   0.682   2.138   0.597 -0.4172 -0.6148 -0.1249
  492SOL    HW1 1475   0.673   2.158   0.695  0.6105 -4.2247  1.9058
  492SOL    HW2 1476   0.592   2.162   0.549  0.7998 -0.6599  2.0811
  493SOL     OW 1477   0.384   1.338   2.098 -0.4147 -0.1783  0.1021
  493SOL    HW1 1478   0.295   1.391   2.083 -0.4437 -0.2898 -1.7060
  493SOL    HW2 1479   0.371   1.236   2.114  1.5908  0.1074 -1.1010
  494SOL     OW 1480   2.710   2.653   0.161 -0.1977  0.0314  0.3490
  494SOL    HW1 1481   2.718   2.650   0.260 -0.1197  1.0763 -1.0955
  494SOL    HW2 1482   2.618   2.681   0.132  0.4624  0.7510  1.5160
  495SOL     OW 1483   2.544   2.808   2.661  0.2100 -0.3493 -0.6706
  495SOL    HW1 1484   2.538   2.705   2.682 -0.5149  2.6432 -0.5031
  495SOL    HW2 1485   2.629   2.839   2.611 -1.2065  2.7198 -1.0945
  496SOL     OW 1486   1.988   2.249   0.848 -0.4180  0.5882 -0.0667
  496SOL    HW1 1487   2.053   2.172   0.813 -0.3259 -1.7813 -2.1017
  496SOL    HW2 1488   2.037   2.332   0.882 -0.9922  2.7121 -0.4949
  497SOL     OW 1489   0.357   2.969   2.344 -0.2631  0.0044 -0.1179
  497SOL    HW1 1490   0.268   3.015   2.371  3.8273  1.0190 -1.2268
  497SOL    HW2 1491   0.399   3.006   2.255  0.6840 -0.9511  2.2587
  498SOL     OW 1492   1.164   1.288   1.153  0.7179  0.4649  0.4263
  498SOL    HW1 1493   1.269   1.286   1.164  0.6896  0.9380 -2.4470
  498SOL    HW2 1494   1.124   1.333   1.242  0.3104 -0.5497  2.2528
  499SOL     OW 1495   0.627   1.699   0.447  0.1857  0.7931 -0.6160
  499SOL    HW1 1496   0.621   1.682   0.345 -1.9172  0.4847 -1.5787
  499SOL    HW2 1497   0.685   1.783   0.463 -2.2269  1.0364 -2.8737
  500SOL     OW 1498   1.461   2.781   1.666 -0.0363 -0.5702  0.4615
  500SOL    HW1 1499   1.493   2.760   1.764 -0.4781  0.7809 -1.2973
  500SOL    HW2 1500   1.505   2.724   1.587 -0.0092 -0.7698 -1.2205
  501SOL     OW 1501   0.797   1.251   2.274 -0.2914  0.0943  0.5954
  501SOL    HW1 1502   0.725   1.191   2.321 -0.2012  1.6203  0.5405
  501SOL    HW2 1503   0.814   1.225   2.171 -0.3960 -1.0422  1.6469
  502SOL     OW 1504   2.532   0.932   1.786  0.0462 -0.5521  0.0594
  502SOL    HW1 1505   2.599   0.974   1.712  3.4687 -1.5076  1.5267
  502SOL    HW2 1506   2.482   0.848   1.752 -1.4483 -3.4447 -0.7655
  503SOL     OW 1507   1.206   0.134   0.695  0.5459 -0.2512  0.3441
  503SOL    HW1 1508   1.172   0.198   0.771  1.7138  1.9590  1.7810
  503SOL    HW2 1509   1.308   0.141   0.686  0.3591  2.2418  1.3311
  504SOL     OW 1510   2.951   2.386   1.511 -0.0840  0.1393  0.6358
  504SOL    HW1 1511   2.923   2.437   1.598 -0.5847 -1.5501 -2.6727
  504SOL    HW2 1512   2.942   2.284   1.523 -2.1459 -0.7701  0.5619
  505SOL     OW 1513   2.327   1.160   1.510 -0.4460 -0.4151  0.1736
  505SOL    HW1 1514   2.317   1.176   1.408  1.2171  2.1926 -0.5244
  505SOL    HW2 1515   2.366   1.244   1.549  0.0863  1.0782 -1.2141
  506SOL     OW 1516   1.932   0.248   1.890  0.0992  0.2554 -0.7473
  506SOL    HW1 1517   2.029   0.220   1.866  2.5421  0.2511 -0.4995
  506SOL    HW2 1518   1.925   0.354   1.919 -1.4214  0.9447  2.5154
  507SOL     OW 1519   0.487   0.766   2.156 -0.5013  0.1836 -0.4153
  507SOL    HW1 1520   0.442   0.725   2.074  1.1195 -2.1742  0.8679
  507SOL    HW2 1521   0.529   0.685   2.213  0.3807  0.7496 -0.5338
  508SOL     OW 1522   0.321   1.636   0.792  0.1478  0.1424 -0.8073
  508SOL    HW1 1523   0.410   1.659   0.748  0.6105  0.8992  2.6394
  508SOL    HW2 1524   0.315   1.677   0.886  0.1563  1.4739  1.8102
  509SOL     OW 1525   1.273   1.182   2.451  0.0279 -0.0074  0.6299
  509SOL    HW1 1526   1.287   1.143   2.356  0.0597  2.7456 -1.9010
  509SOL    HW2 1527   1.204   1.140   2.514 -1.6171  0.8717  1.7590
  510SOL     OW 1528   1.417   2.044   2.190 -0.0962 -0.3095  0.7241
  510SOL    HW1 1529   1.386   2.085   2.097  1.6914  1.9036 -2.6868
  510SOL    HW2 1530   1.365   1.963   2.223  0.3075  2.8232  0.8747
  511SOL     OW 1531   3.001   2.648   1.375  0.1710  0.2378 -0.4126
  511SOL    HW1 1532   2.938   2.684   1.299 -0.7344 -0.6314 -1.0986
  511SOL    HW2 1533   2.967   2.558   1.420 -1.5788 -0.3894  0.4860
  512SOL     OW 1534   2.377   0.432   1.369 -0.5277 -0.1395 -0.1139
  512SOL    HW1 1535   2.289   0.459   1.323 -0.4909  0.9123  1.4896
  512SOL    HW2 1536   2.441   0.370   1.314  2.7487  0.9973  0.8936
  513SOL     OW 1537   2.574   2.147   0.939 -0.4797 -0.3221 -0.7547
  513SOL    HW1 1538   2.542   2.210   0.862  0.3020 -1.4108  1.5655
  513SOL    HW2 1539   2.642   2.076   0.903 -0.2261 -1.0062 -1.5134
  514SOL     OW 1540   0.561   2.795   0.438 -0.2241 -0.0655 -0.1237
  514SOL    HW1 1541   0.603   2.816   0.348  0.3744 -2.1705  1.4549
  514SOL    HW2 1542   0.624   2.842   0.512  2.2491 -1.1072 -0.3003
  515SOL     OW 1543   1.953   1.347   2.404  0.5218 -0.2103  0.0034
  515SOL    HW1 1544   1.946   1.300   2.310 -1.5150  1.0801  0.0058
  515SOL    HW2 1545   1.876   1.322   2.469  3.0617 -0.0051  0.0967
  516SOL     OW 1546   0.233   0.150   1.932  0.0722  0.2043  0.4059
  516SOL    HW1 1547   0.331   0.175   1.908  1.1094 -0.1449  1.2377
  516SOL    HW2 1548   0.184   0.080   1.867  2.2039 -1.6875 -0.1174
  517SOL     OW 1549   0.499   0.252   1.110  0.5582 -0.2791 -0.0405
  517SOL    HW1 1550   0.554   0.194   1.183  2.8492  1.5924  0.5033
  517SOL    HW2 1551   0.398   0.219   1.097 -0.3072  1.5280  1.3334
  518SOL     OW 1552   2.226   3.030   1.876 -0.3092 -0.3820 -0.2966
  518SOL    HW1 1553   2.253   3.127   1.897 -0.5300 -0.9329 -0.6322
  518SOL    HW2 1554   2.237   3.006   1.774  0.8902  1.8181  1.1789
  519SOL     OW 1555   2.377   2.236   2.532 -0.4377 -0.0974  0.1108
  519SOL    HW1 1556   2.322   2.200   2.614  2.7282 -0.1087  1.3212
  519SOL    HW2 1557   2.404   2.334   2.545 -1.5127 -0.3393 -1.3247
  520SOL     OW 1558   1.772   2.633   1.703 -0.0550 -0.1965 -0.1858
  520SOL    HW1 1559   1.730   2.624   1.795 -0.7902  0.8017 -0.4179
  520SOL    HW2 1560   1.854   2.569   1.688 -0.8201  1.0500 -1.3900
  521SOL     OW 1561   0.637   0.083   2.149  0.5696 -0.1724 -0.5371
  521SOL    HW1 1562   0.563   0.038   2.098  1.0238  0.5661  3.1219
  521SOL    HW2 1563   0.639   0.053   2.252 -1.0432 -0.6187 -0.9528
  522SOL     OW 1564   0.217   1.908   1.541  0.9933 -0.2485  0.1966
  522SOL    HW1 1565   0.270   1.960   1.618  0.4500  0.8731 -2.1917
  522SOL    HW2 1566   0.190   1.981   1.469  1.4910 -0.0996 -1.1216
  523SOL     OW 1567   2.213   2.978   1.580 -0.0764 -0.4875  0.1674
  523SOL    HW1 1568   2.292   2.920   1.549  3.2704 -2.1833 -2.4336
  523SOL    HW2 1569   2.129   2.932   1.542  2.9057 -1.4978 -1.5358
  524SOL     OW 1570   0.202   2.760   2.814 -0.0805  0.4996 -0.0232
  524SOL    HW1 1571   0.160   2.817   2.891  0.8682 -1.9919 -1.6537
  524SOL    HW2 1572   0.307   2.757   2.825  3.5550  0.3770 -1.4027
  525SOL     OW 1573   2.130   2.133   0.496 -0.5169 -0.2647  0.2729
  525SOL    HW1 1574   2.130   2.070   0.579 -1.5527  0.6792 -2.3409
  525SOL    HW2 1575   2.183   2.091   0.421  0.4483 -0.9557  0.4024
  526SOL     OW 1576   0.408   1.494   1.678 -0.4246  0.2520  0.3318
  526SOL    HW1 1577   0.417   1.556   1.762  1.1943  0.3700  2.7356
  526SOL    HW2 1578   0.408   1.394   1.710  1.5172  1.8604 -1.4165
  527SOL     OW 1579   1.149   3.064   1.115  0.2390 -0.3125 -0.1717
  527SOL    HW1 1580   1.208   2.981   1.100 -0.3415 -1.6681 -2.6648
  527SOL    HW2 1581   1.192   3.159   1.121 -2.0677 -0.3324 -0.1677
  528SOL     OW 1582   1.299   2.427   0.621 -0.5425 -0.1415 -0.3666
  528SOL    HW1 1583   1.331   2.333   0.604  1.1495 -2.2172 -1.4207
  528SOL    HW2 1584   1.369   2.479   0.685  0.1557 -0.0839 -1.7954
  529SOL     OW 1585   1.863   1.695   0.814 -0.7040  0.1001  0.1408
  529SOL    HW1 1586   1.831   1.722   0.721 -1.0043  1.4352  1.1546
  529SOL    HW2 1587   1.884   1.777   0.877 -0.1043 -3.4471  1.2015
  530SOL     OW 1588   0.467   2.549   0.137 -0.3815  0.0400  0.2872
  530SOL    HW1 1589   0.507   2.538   0.232 -0.0396 -0.3683 -1.8878
  530SOL    HW2 1590   0.456   2.459   0.087 -1.8240  0.8109 -1.7575
  531SOL     OW 1591   1.807   0.976   1.037  0.5214  0.6496  0.1575
  531SOL    HW1 1592   1.829   1.023   0.947  0.2209  1.5110  0.0181
  531SOL    HW2 1593   1.707   0.952   1.034  0.4945 -0.8282 -2.5967
  532SOL     OW 1594   0.401   1.167   0.691  0.3296  0.9014  0.3322
  532SOL    HW1 1595   0.412   1.135   0.594  1.5210 -0.0079 -1.1976
  532SOL    HW2 1596   0.359   1.098   0.757  1.1688  3.3429  1.0042
  533SOL     OW 1597   1.811   3.086   2.655 -0.3225 -0.0786 -0.4284
  533SOL    HW1 1598   1.917   3.076   2.656 -0.2125  0.7282  1.4751
  533SOL    HW2 1599   1.791   3.186   2.682  1.0753  1.9218 -0.2858
  534SOL     OW 1600   0.177   0.181   1.558  0.0829 -0.1903 -0.2241
  534SOL    HW1 1601   0.243   0.267   1.544  0.9050  0.7442  0.1863
  534SOL    HW2 1602   0.076   0.214   1.584 -1.0097 -1.1597 -0.1711
  535SOL     OW 1603   1.895   0.389   0.172  0.4557 -0.2915 -0.3262
  535SOL    HW1 1604   1.948   0.455   0.232 -3.9903  2.0512 -0.6118
  535SOL    HW2 1605   1.809   0.362   0.213 -1.0976 -2.7157  2.2347
  536SOL     OW 1606   1.227   2.486   0.918  0.4939 -0.1854  0.0751
  536SOL    HW1 1607   1.281   2.408   0.876 -3.5135  0.3479 -0.1910
  536SOL    HW2 1608   1.169   2.539   0.850 -0.8171  0.6201  0.4518
  537SOL     OW 1609   0.903   0.217   2.311 -0.4787  0.6465  0.1480
  537SOL    HW1 1610   0.810   0.182   2.286  0.5924  2.0619  0.6850
  537SOL    HW2 1611   0.977   0.153   2.287 -2.7895  0.1405 -2.0558
  538SOL     OW 1612   1.741   2.214   1.616 -0.0616  0.4448  0.6844
  538SOL    HW1 1613   1.690   2.160   1.542  3.1782  1.6772 -0.5515
  538SOL    HW2 1614   1.807   2.276   1.568  0.6060  0.6178 -2.1598
  539SOL     OW 1615   0.163   1.552   2.781 -0.5408 -0.2667  0.2461
  539SOL    HW1 1616   0.077   1.539   2.716  1.4685  0.3541 -1.3937
  539SOL    HW2 1617   0.245   1.603   2.737  0.7041  0.0021 -0.0111
  540SOL     OW 1618   2.670   1.790   2.134 -0.5506  0.1922  0.2102
  540SOL    HW1 1619   2.641   1.698   2.090 -1.2756  1.3603 -2.7556
  540SOL    HW2 1620   2.672   1.863   2.059 -5.2482 -2.3000 -0.7359
  541SOL     OW 1621   0.426   2.313   0.015 -0.8760 -0.3831 -0.5877
  541SOL    HW1 1622   0.474   2.244   0.079  2.0928 -0.1395 -2.8604
  541SOL    HW2 1623   0.349   2.262  -0.037  0.5757  2.7020 -1.2625
  542SOL     OW 1624   2.174   2.583   0.476  0.0654  0.0001 -0.1568
  542SOL    HW1 1625   2.179   2.670   0.416 -0.6097  0.8168 -1.3415
  542SOL    HW2 1626   2.083   2.528   0.461 -0.6244  0.8120 -1.0023
  543SOL     OW 1627   1.108   1.736   1.771 -0.1623  0.8900 -0.1618
  543SOL    HW1 1628   1.094   1.783   1.861  1.9205 -0.0247  0.2048
  543SOL    HW2 1629   1.037   1.774   1.697  0.8718  4.1896 -1.5111
  544SOL     OW 1630   0.841   0.484   0.109  0.1370 -0.2182  0.0662
  544SOL    HW1 1631   0.845   0.404   0.178 -1.8131 -1.0500  1.1294
  544SOL    HW2 1632   0.893   0.466   0.020  0.2827 -2.3283  0.1145
  545SOL     OW 1633   1.142   1.719   0.629  0.1566  0.1431  0.3765
  545SOL    HW1 1634   1.231   1.735   0.682  0.1486 -0.1091  1.0066
  545SOL    HW2 1635   1.147   1.742   0.525  1.2907 -0.8068  0.7271
  546SOL     OW 1636   2.700   1.604   0.031  0.8189 -0.4948 -0.1273
  546SOL    HW1 1637   2.769   1.546  -0.029  2.1542 -0.2525  2.7726
  546SOL    HW2 1638   2.605   1.595  -0.012 -0.5995  1.9762 -0.0664
  547SOL     OW 1639   0.470   3.053   2.721  0.2012  0.3758 -0.0988
  547SOL    HW1 1640   0.492   2.982   2.647 -0.4194  0.6951 -2.3063
  547SOL    HW2 1641   0.490   3.025   2.823  2.3623  0.6309  2.3018
  548SOL     OW 1642   2.066   0.771   2.974 -0.0141 -0.0462  0.4012
  548SOL    HW1 1643   1.978   0.746   3.011 -1.0511  3.2616  0.7372
  548SOL    HW2 1644   2.094   0.867   3.001 -2.4880 -0.2697 -1.7376
  549SOL     OW 1645   0.575   0.459   0.083 -0.2373 -0.1345  0.9541
  549SOL    HW1 1646   0.534   0.523   0.007  2.7109 -0.3062 -1.7038
  549SOL    HW2 1647   0.679   0.480   0.094 -1.1898 -0.8677 -0.4181
  550SOL     OW 1648   2.521   2.902   2.915  0.0735  0.0847 -0.7563
  550SOL    HW1 1649   2.500   2.829   2.985  0.2851 -1.9890 -3.2118
  550SOL    HW2 1650   2.530   2.860   2.820 -3.5456  1.0939 -0.0630
  551SOL     OW 1651   0.271   0.826   0.229 -0.1422  0.2580  0.1504
  551SOL    HW1 1652   0.363   0.776   0.215  1.9822 -0.0375  1.7413
  551SOL    HW2 1653   0.245   0.832   0.327 -0.5532  1.0857 -1.3765
  552SOL     OW 1654   0.858   2.826   1.912 -0.0468  0.0215  0.7080
  552SOL    HW1 1655   0.834   2.819   2.010  0.1239 -0.6103 -0.1230
  552SOL    HW2 1656   0.852   2.923   1.872  0.3249 -1.9153  0.3638
  553SOL     OW 1657   3.093   2.558   0.358  0.0544  0.1095  0.0518
  553SOL    HW1 1658   3.059   2.466   0.324  0.0355 -1.5036  1.0203
  553SOL    HW2 1659   3.164   2.549   0.434 -3.9290 -0.2236  2.4536
  554SOL     OW 1660   2.105   0.353   0.492 -0.4386 -0.1663 -0.3649
  554SOL    HW1 1661   2.193   0.346   0.437  3.2337  2.3270  1.7925
  554SOL    HW2 1662   2.078   0.267   0.550  0.8354  1.2750 -0.5199
  555SOL     OW 1663   0.526   2.859   2.530 -0.0765 -0.2059 -0.8155
  555SOL    HW1 1664   0.460   2.885   2.455  0.2426 -0.2997  1.9708
  555SOL    HW2 1665   0.606   2.808   2.492  3.6597  0.8102 -0.5859
  556SOL     OW 1666   0.981   2.366   1.633 -0.3006  0.0641  0.2224
  556SOL    HW1 1667   1.025   2.443   1.682  0.2592  0.0512  0.4576
  556SOL    HW2 1668   0.985   2.377   1.530 -2.3942  2.7557  2.2851
  557SOL     OW 1669   0.124   2.123   0.090  0.2266  0.0387  0.6922
  557SOL    HW1 1670   0.051   2.051   0.075  2.7404  0.2306  0.3203
  557SOL    HW2 1671   0.137   2.175  -0.001  0.4323  1.8706  0.5426
  558SOL     OW 1672   2.998   2.310   0.276 -0.1420 -0.1187 -0.3212
  558SOL    HW1 1673   2.927   2.238   0.287  3.3847  1.4551  1.6452
  558SOL    HW2 1674   3.000   2.338   0.174 -0.8673 -2.6429 -0.2824
  559SOL     OW 1675   0.419   2.273   1.343 -1.0954  0.5904 -0.6390
  559SOL    HW1 1676   0.325   2.269   1.304  0.2117  0.6948 -1.3138
  559SOL    HW2 1677   0.471   2.187   1.316 -1.1654  0.0004 -0.9929
  560SOL     OW 1678   2.078   1.060   3.013 -0.8216  0.4471 -0.1999
  560SOL    HW1 1679   2.062   1.123   2.933 -0.2971  0.2434  0.8231
  560SOL    HW2 1680   2.033   1.088   3.103  0.6270 -1.1910 -0.1175
  561SOL     OW 1681   3.003   1.956   0.072 -0.3315 -0.3454  0.4900
  561SOL    HW1 1682   2.967   1.856   0.061 -0.1416 -2.2642 -1.1626
  561SOL    HW2 1683   2.951   2.025   0.015  0.6385 -0.5493 -0.1206
  562SOL     OW 1684   0.852   2.118   2.468 -0.1579  0.6588  0.3516
  562SOL    HW1 1685   0.750   2.117   2.460  1.6444 -0.0650 -2.4922
  562SOL    HW2 1686   0.877   2.180   2.550 -2.1734 -1.7124 -1.8501
  563SOL     OW 1687   0.668   2.570   2.552 -1.0221  0.1280 -0.1009
  563SOL    HW1 1688   0.620   2.478   2.547  0.5207 -0.4577  2.3665
  563SOL    HW2 1689   0.733   2.579   2.635 -1.0983 -3.1998  0.4239
  564SOL     OW 1690   2.763   1.334   2.938  0.2357 -0.4690 -0.0457
  564SOL    HW1 1691   2.671   1.339   2.976  0.0892 -1.6907 -1.6917
  564SOL    HW2 1692   2.807   1.427   2.922 -0.8746  0.9788  3.5379
  565SOL     OW 1693   2.559   2.033   2.580 -0.2061 -0.5275 -0.2639
  565SOL    HW1 1694   2.495   2.115   2.575 -0.5525  2.6497 -1.0735
  565SOL    HW2 1695   2.644   2.063   2.627 -0.0687  1.9544 -2.8512
  566SOL     OW 1696   2.035   2.818   1.457  0.1492  0.4543 -0.3171
  566SOL    HW1 1697   2.045   2.727   1.515  0.0423 -2.0816  1.2033
  566SOL    HW2 1698   2.077   2.806   1.359  0.0385 -1.6575  1.3099
  567SOL     OW 1699   2.390   0.088   2.217 -0.0170  0.6787  0.3138
  567SOL    HW1 1700   2.444   0.089   2.127 -1.7575  2.8359 -1.1319
  567SOL    HW2 1701   2.294   0.050   2.204  1.4353 -2.2340 -2.4378
  568SOL     OW 1702   1.407   1.803   0.463  0.5993 -0.0467  0.7274
  568SOL    HW1 1703   1.382   1.877   0.388  0.4232 -1.1754  0.1901
  568SOL    HW2 1704   1.428   1.839   0.556  2.9809  4.0055  1.3641
  569SOL     OW 1705   0.290   0.690   0.756  0.1319 -0.4309 -0.6841
  569SOL    HW1 1706   0.328   0.606   0.711 -0.0918  1.9441  4.6447
  569SOL    HW2 1707   0.190   0.702   0.764  1.1821  1.8345  1.3333
  570SOL     OW 1708   0.590   0.876   2.809  0.3956 -0.3969  0.0265
  570SOL    HW1 1709   0.650   0.874   2.725 -0.0277 -0.9351  2.0382
  570SOL    HW2 1710   0.594   0.971   2.851 -0.5700  1.8037 -3.1196
  571SOL     OW 1711   0.855   3.076   1.189 -0.3163  0.0405 -0.1748
  571SOL    HW1 1712   0.845   3.146   1.113  1.4272  0.2013 -0.5060
  571SOL    HW2 1713   0.952   3.050   1.204 -1.1037 -2.4591  1.6588
  572SOL     OW 1714   1.484   2.569   1.178  0.0774  0.0789 -0.1070
  572SOL    HW1 1715   1.413   2.503   1.186  0.4406  2.9266  0.4671
  572SOL    HW2 1716   1.452   2.657   1.140 -1.0425  0.1611  0.2501
  573SOL     OW 1717   2.937   0.483   2.069 -0.0627  0.1647 -0.0717
  573SOL    HW1 1718   2.887   0.394   2.076 -2.2649  1.7231 -3.2636
  573SOL    HW2 1719   2.870   0.562   2.049  3.1411 -0.2073  0.3397
  574SOL     OW 1720   0.251   1.767   1.026 -0.5861 -0.5793 -0.0527
  574SOL    HW1 1721   0.235   1.855   0.980  0.0926 -0.5376 -0.1230
  574SOL    HW2 1722   0.197   1.755   1.112 -0.4735 -0.7564 -0.4819
  575SOL     OW 1723   0.969   2.190   1.029 -0.3802  0.4468  0.0977
  575SOL    HW1 1724   0.999   2.258   1.099  0.6921 -0.6186  0.1327
  575SOL    HW2 1725   1.026   2.199   0.942 -1.9074  0.4217 -0.2484
  576SOL     OW 1726   2.867   2.905   1.748  0.2682  0.2974  0.1284
  576SOL    HW1 1727   2.825   2.854   1.662  0.5546  0.6119  0.4583
  576SOL    HW2 1728   2.801   2.980   1.779  1.0666  3.3572 -0.6103
  577SOL     OW 1729   2.527   1.254   3.063 -0.4724  0.0997  0.1747
  577SOL    HW1 1730   2.512   1.161   3.018  1.6951  0.0711  1.4555
  577SOL    HW2 1731   2.588   1.249   3.145 -0.5261 -1.2141  2.8642
  578SOL     OW 1732   1.318   2.774   2.561  0.9308 -0.2159  0.5157
  578SOL    HW1 1733   1.238   2.749   2.493 -0.0304 -1.0441  0.9159
  578SOL    HW2 1734   1.340   2.877   2.559 -0.7022  2.4648  0.4743
  579SOL     OW 1735   0.139   2.579   0.112 -0.6100 -0.0884  0.5933
  579SOL    HW1 1736   0.095   2.581   0.207  0.4579  2.0286 -1.9959
  579SOL    HW2 1737   0.234   2.535   0.107  1.1365 -2.2918  0.7122
  580SOL     OW 1738   0.927   2.676   0.391  0.3520  0.3288  0.0129
  580SOL    HW1 1739   1.014   2.693   0.337 -2.7866 -1.0591 -1.8267
  580SOL    HW2 1740   0.857   2.614   0.348 -3.9057  0.5242  1.9574
  581SOL     OW 1741   1.219   2.488   1.449 -0.4620  0.4985 -0.3466
  581SOL    HW1 1742   1.257   2.426   1.371 -0.6728  0.7525  0.0527
  581SOL    HW2 1743   1.239   2.587   1.423  1.7612  0.2130 -0.5872
  582SOL     OW 1744   1.516   0.060   1.864 -0.4233 -0.3111 -0.0097
  582SOL    HW1 1745   1.545   0.146   1.925  2.0759 -0.0836 -0.1371
  582SOL    HW2 1746   1.590   0.025   1.801  1.4064  3.1077 -2.3444
  583SOL     OW 1747   2.361   2.953   0.548  0.5172 -0.0752  0.3512
  583SOL    HW1 1748   2.434   2.900   0.495  2.4953 -0.3936  0.3023
  583SOL    HW2 1749   2.322   2.892   0.624  0.5478 -2.9008  0.3410
  584SOL     OW 1750   1.530   0.963   2.067  0.3172  0.0284 -0.1579
  584SOL    HW1 1751   1.586   1.021   2.007 -0.4934  0.5160  2.5884
  584SOL    HW2 1752   1.581   0.915   2.139 -0.3111  1.1736 -0.6572
  585SOL     OW 1753   2.087   2.724   2.848  0.1627 -0.3073 -0.1803
  585SOL    HW1 1754   2.148   2.646   2.861 -2.0417 -1.6897 -1.4495
  585SOL    HW2 1755   2.006   2.715   2.910 -1.7207 -3.3475 -0.2305
  586SOL     OW 1756   2.804   0.274   1.557 -0.2210  0.1859  0.1656
  586SOL    HW1 1757   2.798   0.366   1.608  1.1810 -1.2631  1.0609
  586SOL    HW2 1758   2.714   0.226   1.568 -0.1695  4.9003  3.9113
  587SOL     OW 1759   2.042   1.611   2.718 -0.6205  0.4112  0.1898
  587SOL    HW1 1760   2.092   1.571   2.635  1.2947 -1.3529  2.7103
  587SOL    HW2 1761   2.108   1.588   2.801  1.3163 -3.0543  0.8435
  588SOL     OW 1762   0.504   2.704   2.242 -0.2129 -0.3537  0.1789
  588SOL    HW1 1763   0.427   2.751   2.197  1.9376 -0.3319  1.6014
  588SOL    HW2 1764   0.475   2.643   2.319  0.6015  0.2879  0.5565
  589SOL     OW 1765   2.166   1.470   2.516 -0.0162  0.7812 -0.2598
  589SOL    HW1 1766   2.088   1.414   2.473  0.1162  0.0941  1.7219
  589SOL    HW2 1767   2.245   1.406   2.539  0.2002 -2.2317 -2.0560
  590SOL     OW 1768   2.329   1.764   2.031  0.2392  0.4789  0.3883
  590SOL    HW1 1769   2.398   1.692   2.003  0.9673 -0.2557 -0.1324
  590SOL    HW2 1770   2.345   1.799   2.127  1.2216  2.7989  1.8199
  591SOL     OW 1771   1.322   2.460   0.340 -0.4017  0.7780 -0.0404
  591SOL    HW1 1772   1.394   2.426   0.277 -1.6922  2.9326 -0.2052
  591SOL    HW2 1773   1.323   2.421   0.436 -2.7637 -0.4174  1.0455
  592SOL     OW 1774   1.709   2.329   0.776 -0.6166 -0.5893  0.4052
  592SOL    HW1 1775   1.685   2.393   0.700 -1.3489  1.0818 -0.6489
  592SOL    HW2 1776   1.809   2.321   0.794 -2.7971 -0.3621 -0.6882
  593SOL     OW 1777   0.536   0.266   2.988 -0.5713  0.2249 -0.3137
  593SOL    HW1 1778   0.626   0.210   2.979  1.0377 -1.6119  1.9197
  593SOL    HW2 1779   0.533   0.351   3.054 -2.3465  1.3253  0.3049
  594SOL     OW 1780   0.942   1.873   2.747 -0.2968 -0.1458 -0.1524
  594SOL    HW1 1781   1.038   1.841   2.749 -0.8115 -0.2826  1.6052
  594SOL    HW2 1782   0.918   1.959   2.800 -0.5893  1.6771 -2.0737
  595SOL     OW 1783   1.544   3.066   1.040  0.1686 -0.2175 -0.2593
  595SOL    HW1 1784   1.626   3.013   1.070 -0.8039  1.5503 -0.0092
  595SOL    HW2 1785   1.527   3.057   0.937  0.0199 -2.6655 -1.8158
  596SOL     OW 1786   3.070   1.486   2.230 -0.1512  0.0848 -0.1123
  596SOL    HW1 1787   2.999   1.562   2.252  3.4415 -2.8374  1.9025
  596SOL    HW2 1788   3.130   1.485   2.315  0.3428 -0.4281  0.3046
  597SOL     OW 1789   2.060   2.569   1.608 -1.1255  0.3008 -0.5279
  597SOL    HW1 1790   2.117   2.478   1.585  1.8205  0.5287 -1.0344
  597SOL    HW2 1791   2.100   2.616   1.694  1.8979  0.1945 -0.5080
  598SOL     OW 1792   2.606   2.853   1.242  0.5036  0.0978 -0.4341
  598SOL    HW1 1793   2.659   2.919   1.300  0.9516  0.5507 -0.8706
  598SOL    HW2 1794   2.641   2.837   1.148  1.4775 -1.5848 -0.5519
  599SOL     OW 1795   2.934   0.361   2.431  0.3169 -0.2795 -0.2675
  599SOL    HW1 1796   3.036   0.378   2.411  1.4367  0.0323 -1.0857
  599SOL    HW2 1797   2.874   0.407   2.361 -2.1987 -1.1642  1.1347
  600SOL     OW 1798   2.787   1.097   2.756 -0.2006 -0.5933  0.4912
  600SOL    HW1 1799   2.775   1.007   2.803 -3.6026 -1.6152 -2.1912
  600SOL    HW2 1800   2.730   1.177   2.799  1.5720  0.9654  1.4380
  601SOL     OW 1801   2.960   1.291   2.040 -0.0658  0.4250  0.0355
  601SOL    HW1 1802   2.889   1.339   1.992 -0.8755 -0.5028 -0.2386
  601SOL    HW2 1803   3.005   1.354   2.108 -0.2615 -0.8115  2.3425
  602SOL     OW 1804   1.546   1.640   2.284  0.5131  0.3765 -0.1118
  602SOL    HW1 1805   1.472   1.566   2.284 -0.6796  2.2647 -0.6838
  602SOL    HW2 1806   1.631   1.628   2.342 -2.6025  5.2654  1.5875
  603SOL     OW 1807   0.722   1.239   2.596 -0.1751 -0.3154 -0.0616
  603SOL    HW1 1808   0.630   1.218   2.548 -0.5452 -1.0779 -0.3263
  603SOL    HW2 1809   0.784   1.153   2.612 -1.0487  2.6095  0.5057
  604SOL     OW 1810   2.399   1.051   0.208  0.2914 -0.1110 -0.4466
  604SOL    HW1 1811   2.485   1.072   0.158 -1.7773  1.4273  0.5548
  604SOL    HW2 1812   2.358   0.962   0.179  3.3353 -2.0653 -0.0050
  605SOL     OW 1813   2.589   1.108   1.992  0.3036 -0.0809 -0.4958
  605SOL    HW1 1814   2.550   1.032   1.929 -0.8877  0.6029  0.5314
  605SOL    HW2 1815   2.636   1.079   2.080  2.7958  1.3008  0.6711
  606SOL     OW 1816   1.473   2.539   2.552  0.1245 -0.0426  0.1116
  606SOL    HW1 1817   1.381   2.587   2.526 -3.6249  0.5445 -0.3618
  606SOL    HW2 1818   1.462   2.436   2.548 -0.6036  0.2960 -0.7313
  607SOL     OW 1819   1.306   1.544   0.425 -0.1308  0.0760  0.4790
  607SOL    HW1 1820   1.296   1.477   0.505 -0.2604  1.3189  0.1585
  607SOL    HW2 1821   1.323   1.644   0.455  2.9567 -0.0215  5.3510
  608SOL     OW 1822   1.384   2.867   0.381 -0.2885  0.0150  0.2130
  608SOL    HW1 1823   1.457   2.910   0.315  1.7626  0.0392 -2.2051
  608SOL    HW2 1824   1.317   2.939   0.415 -0.8999  1.5355 -0.5559
  609SOL     OW 1825   1.344   1.346   0.212 -0.5861 -0.7494 -0.5914
  609SOL    HW1 1826   1.334   1.419   0.291 -2.2048  3.3028 -1.0909
  609SOL    HW2 1827   1.253   1.334   0.163 -0.2268 -0.0694  1.0906
  610SOL     OW 1828   2.994   1.130   2.263  0.3763 -0.5015  0.2637
  610SOL    HW1 1829   2.970   1.029   2.249  2.0931 -1.0739 -1.6991
  610SOL    HW2 1830   2.945   1.189   2.192 -3.0167  1.0813  1.9489
  611SOL     OW 1831   2.593   0.305   1.216 -0.4156  0.1517  0.6141
  611SOL    HW1 1832   2.565   0.211   1.179 -0.6921 -0.6412  0.9711
  611SOL    HW2 1833   2.695   0.323   1.232  0.6162  1.3599 -1.3085
  612SOL     OW 1834   0.740   2.197   1.268  0.6168 -0.5870 -0.4831
  612SOL    HW1 1835   0.658   2.131   1.278 -1.5087 -1.9690 -0.3668
  612SOL    HW2 1836   0.723   2.284   1.208 -0.3730 -0.3476  2.6504
  613SOL     OW 1837   0.967   1.474   2.343  0.2271 -1.1350 -0.1648
  613SOL    HW1 1838   0.990   1.521   2.254 -1.3197 -2.2602  2.6740
  613SOL    HW2 1839   0.911   1.386   2.337 -2.1668  0.9695 -0.5568
  614SOL     OW 1840   1.607   1.533   1.733  0.2821  0.1205 -0.0090
  614SOL    HW1 1841   1.554   1.615   1.694 -2.5893 -1.9176  3.1453
  614SOL    HW2 1842   1.671   1.556   1.811  0.9362 -1.0713 -0.3502
  615SOL     OW 1843   0.789   1.245   1.751 -0.0271  0.4241 -0.2766
  615SOL    HW1 1844   0.707   1.238   1.679  0.4656  0.7034  2.2985
  615SOL    HW2 1845   0.832   1.342   1.744  0.4478  2.7036 -1.9048
  616SOL     OW 1846   1.076   1.562   2.089  0.0184  0.3053  0.3298
  616SOL    HW1 1847   1.039   1.557   1.995 -1.8527 -1.3978 -0.2786
  616SOL    HW2 1848   1.115   1.656   2.120  0.9099 -0.2398  0.7867
  617SOL     OW 1849   2.994   1.545   1.584 -0.7540 -0.3902 -0.0347
  617SOL    HW1 1850   3.023   1.451   1.620 -0.9987 -1.5593 -2.6080
  617SOL    HW2 1851   2.987   1.542   1.481  1.7043  1.0235  0.3427
  618SOL     OW 1852   1.869   1.956   1.400 -0.2567  0.6019 -0.5956
  618SOL    HW1 1853   1.884   2.034   1.329  0.4579 -0.3285  2.6762
  618SOL    HW2 1854   1.862   1.863   1.359 -1.2732  0.8785 -1.1966
  619SOL     OW 1855   1.715   0.423   2.343  0.4554 -0.7873  0.1463
  619SOL    HW1 1856   1.626   0.470   2.308 -1.7142  3.7151 -3.1238
  619SOL    HW2 1857   1.718   0.320   2.343 -1.0182 -0.6913  1.0766
  620SOL     OW 1858   2.248   2.819   0.774 -0.0999  0.3802 -0.0935
  620SOL    HW1 1859   2.155   2.836   0.815  0.3119 -1.3736 -1.2945
  620SOL    HW2 1860   2.297   2.740   0.818  0.1508 -2.3209  0.2651
  621SOL     OW 1861   2.196   1.913   1.285 -0.2382  0.3320  0.4845
  621SOL    HW1 1862   2.198   1.888   1.387 -1.0066 -0.3567  0.2628
  621SOL    HW2 1863   2.154   1.838   1.226 -0.2337  0.2402  0.2708
  622SOL     OW 1864   2.229   0.924   1.868  0.1985  0.7354 -0.4136
  622SOL    HW1 1865   2.334   0.915   1.879  0.0617  2.3511 -0.7110
  622SOL    HW2 1866   2.175   0.850   1.914 -2.6444  0.9107  1.3723
  623SOL     OW 1867   1.273   0.842   2.532 -0.0677 -0.0159 -0.0170
  623SOL    HW1 1868   1.197   0.776   2.565  0.2387 -1.4646 -1.6349
  623SOL    HW2 1869   1.254   0.865   2.427  0.0987 -1.6251 -3.9291
  624SOL     OW 1870   0.488   0.667   3.018 -0.5121 -0.5775 -0.4520
  624SOL    HW1 1871   0.545   0.696   2.935 -1.7990 -0.4824 -0.8193
  624SOL    HW2 1872   0.508   0.720   3.106  0.2570  0.4402 -0.5339
  625SOL     OW 1873   2.727   1.698   0.994  0.2149  0.4911  0.3356
  625SOL    HW1 1874   2.637   1.695   1.041  1.6869 -0.1281  0.3992
  625SOL    HW2 1875   2.780   1.778   1.029 -0.5983  0.5770  0.0675
  626SOL     OW 1876   0.649   2.651   1.771  0.1287 -0.6389 -0.7130
  626SOL    HW1 1877   0.712   2.689   1.841 -0.0694  0.5666 -2.9108
  626SOL    HW2 1878   0.559   2.625   1.806 -0.8082  1.1752  0.0322
  627SOL     OW 1879   0.657   0.829   1.711  0.2540 -0.0648  1.2857
  627SOL    HW1 1880   0.615   0.760   1.646  2.6372  0.1961  0.6265
  627SOL    HW2 1881   0.691   0.911   1.656 -0.3804 -2.5119  2.2463
  628SOL     OW 1882   2.381   0.050   0.745 -0.6991  0.8428 -0.1506
  628SOL    HW1 1883   2.383  -0.009   0.658  1.0143 -0.1736  4.0008
  628SOL    HW2 1884   2.333   0.001   0.827  0.9182 -0.2731  2.5664
  629SOL     OW 1885   1.854   0.941   1.956  0.2828 -0.7332  0.4281
  629SOL    HW1 1886   1.892   1.022   1.900  0.4218  1.3323 -0.0759
  629SOL    HW2 1887   1.856   0.972   2.054 -0.6251  0.3740  1.3920
  630SOL     OW 1888   2.911   2.205   0.788 -0.1923 -0.1825  0.1576
  630SOL    HW1 1889   2.843   2.281   0.818 -0.6528  1.3178  2.8089
  630SOL    HW2 1890   2.862   2.113   0.775 -1.0372  1.6130 -2.5954
  631SOL     OW 1891   3.052   0.097   2.038 -0.8561 -0.0697 -0.6103
  631SOL    HW1 1892   3.122   0.135   2.101 -1.7003 -0.3570 -0.0396
  631SOL    HW2 1893   3.097   0.050   1.955  1.1520  4.3085  2.2275
  632SOL     OW 1894   2.484   2.579   0.625  0.3535 -0.1795 -0.5105
  632SOL    HW1 1895   2.530   2.667   0.659  0.3932  0.8174  0.5317
  632SOL    HW2 1896   2.386   2.598   0.598  3.4199 -1.3300 -1.4836
  633SOL     OW 1897   1.446   1.245   2.663  0.4887  0.5463  0.6409
  633SOL    HW1 1898   1.404   1.309   2.735 -0.6065 -0.2210  3.9711
  633SOL    HW2 1899   1.391   1.237   2.573  0.6595 -0.6631  2.1677
  634SOL     OW 1900   0.718   2.185   0.863  0.1569 -0.2672 -0.3150
  634SOL    HW1 1901   0.644   2.125   0.903  0.2527 -1.5002  0.4748
  634SOL    HW2 1902   0.797   2.202   0.930 -1.8399 -0.7737  1.7988
  635SOL     OW 1903   3.022   2.434   0.012  0.4639 -0.0884 -0.5479
  635SOL    HW1 1904   2.941   2.492  -0.020 -1.0317 -1.1164  0.8213
  635SOL    HW2 1905   3.108   2.488   0.027  0.4344 -1.1264  0.1976
  636SOL     OW 1906   2.375   2.678   2.076 -0.1154  0.0589 -0.6555
  636SOL    HW1 1907   2.330   2.764   2.108  3.8223 -0.2579  0.7452
  636SOL    HW2 1908   2.340   2.588   2.119  2.4863 -0.4024 -0.2810
  637SOL     OW 1909   2.670   0.614   1.950  0.3167 -0.0866  0.1328
  637SOL    HW1 1910   2.591   0.631   1.886  1.3056 -1.1907  0.2934
  637SOL    HW2 1911   2.745   0.676   1.928 -2.7471  1.8755 -0.4436
  638SOL     OW 1912   2.462   1.853   1.340  0.3854  0.1691  0.3742
  638SOL    HW1 1913   2.366   1.887   1.329  0.0278 -1.1427  1.8186
  638SOL    HW2 1914   2.458   1.770   1.400  0.8866 -0.5306  1.3200
  639SOL     OW 1915   1.260   2.185   1.545  0.2520  0.0043  0.4031
  639SOL    HW1 1916   1.336   2.233   1.588 -0.5145 -0.9832 -1.0479
  639SOL    HW2 1917   1.168   2.236   1.546  0.5292 -0.1140  0.9927
  640SOL     OW 1918   0.193   1.252   1.522 -0.6241  0.0899  0.0007
  640SOL    HW1 1919   0.180   1.249   1.628 -0.2330 -0.4785 -0.8167
  640SOL    HW2 1920   0.273   1.186   1.498  0.5084  0.2487 -2.2424
  641SOL     OW 1921   1.966   0.284   1.493  0.4993 -0.1494  0.5656
  641SOL    HW1 1922   1.879   0.295   1.546 -0.6564 -0.4557  0.0317
  641SOL    HW2 1923   2.052   0.326   1.537 -0.1163 -2.8610 -2.0004
  642SOL     OW 1924   2.033   3.070   0.404 -0.0693 -0.1698 -0.6521
  642SOL    HW1 1925   2.122   3.115   0.420 -0.4189  0.1325 -2.0496
  642SOL    HW2 1926   1.956   3.114   0.450  0.3223 -2.3613  1.9185
  643SOL     OW 1927   2.938   1.931   2.094 -0.0486  0.0923  0.2391
  643SOL    HW1 1928   2.864   1.857   2.078 -0.8739 -0.9049  0.7282
  643SOL    HW2 1929   2.916   2.025   2.049 -2.3491  0.6747 -0.1244
  644SOL     OW 1930   2.273   2.446   1.297 -0.0496 -0.6990 -0.0145
  644SOL    HW1 1931   2.360   2.404   1.266 -0.7054 -1.2156  0.2807
  644SOL    HW2 1932   2.271   2.441   1.399  1.1620  0.4847 -0.9129
  645SOL     OW 1933   0.642   0.786   1.276  0.4282  0.3331 -0.2350
  645SOL    HW1 1934   0.540   0.764   1.283 -1.5120 -0.1462 -0.9974
  645SOL    HW2 1935   0.668   0.791   1.174  3.6462  0.0915  0.5216
  646SOL     OW 1936   1.510   1.738   2.017  0.3490  0.1648  0.5023
  646SOL    HW1 1937   1.576   1.789   1.959  0.5438 -1.3181  1.4708
  646SOL    HW2 1938   1.537   1.715   2.112  1.5998  2.1011 -1.1053
  647SOL     OW 1939   0.747   1.068   0.564 -0.3196  0.4959  0.3490
  647SOL    HW1 1940   0.809   1.082   0.646  0.4771 -0.5397 -1.3760
  647SOL    HW2 1941   0.705   0.974   0.562 -1.2542  0.5101 -0.0399
  648SOL     OW 1942   0.135   0.236   0.373  0.4244 -0.3456  0.2289
  648SOL    HW1 1943   0.048   0.197   0.331 -0.0632 -0.5259  0.1072
  648SOL    HW2 1944   0.143   0.336   0.336 -1.7356 -0.3396 -2.1104
  649SOL     OW 1945   3.016   0.261   0.956 -0.2234 -0.1039 -0.5421
  649SOL    HW1 1946   3.085   0.292   0.885  0.9581 -1.0134 -0.0090
  649SOL    HW2 1947   3.058   0.255   1.053  0.8987 -1.3935  1.2228
  650SOL     OW 1948   2.756   0.698   1.429 -0.2603  0.8244  0.0870
  650SOL    HW1 1949   2.662   0.692   1.467  1.4317 -1.6925 -0.9564
  650SOL    HW2 1950   2.791   0.792   1.409 -0.5021 -1.7778  0.8855
  651SOL     OW 1951   0.877   1.519   1.690 -0.1763  0.0463 -0.0019
  651SOL    HW1 1952   0.868   1.570   1.780 -0.9055  1.2461 -0.8479
  651SOL    HW2 1953   0.977   1.509   1.658  0.2948  2.2987 -0.2205
  652SOL     OW 1954   2.276   2.572   2.508  0.4564 -0.0999  0.6903
  652SOL    HW1 1955   2.182   2.554   2.556  0.4740 -0.1227 -0.3193
  652SOL    HW2 1956   2.269   2.659   2.449 -1.5530  1.2623 -1.3667
  653SOL     OW 1957   2.684   1.221   0.196  0.2044  0.4619 -0.5803
  653SOL    HW1 1958   2.699   1.316   0.232 -1.5587 -1.0992 -0.9971
  653SOL    HW2 1959   2.758   1.153   0.220  2.0194  0.4519  0.1877
  654SOL     OW 1960   1.183   2.056   1.258  0.3513  0.0992 -0.1312
  654SOL    HW1 1961   1.149   1.960   1.280  2.7844 -0.5984  2.7892
  654SOL    HW2 1962   1.190   2.076   1.160  1.2882 -0.2547 -1.4992
  655SOL     OW 1963   0.147   0.991   1.881  0.4130 -0.1477  0.3601
  655SOL    HW1 1964   0.221   0.937   1.834 -0.3718 -2.4285  0.6325
  655SOL    HW2 1965   0.144   1.091   1.860  0.3325  0.3646  0.5451
  656SOL     OW 1966   2.535   2.534   2.635  0.7544  0.0632 -0.2114
  656SOL    HW1 1967   2.619   2.521   2.576  2.0824 -0.7644 -0.3616
  656SOL    HW2 1968   2.445   2.541   2.580  1.4315 -2.7186 -1.8899
  657SOL     OW 1969   2.987   1.015   1.945  0.3404 -0.4459  0.4164
  657SOL    HW1 1970   2.989   1.112   1.981  1.8030 -1.2104 -0.3362
  657SOL    HW2 1971   3.085   0.989   1.916  2.4507 -1.9121 -0.3003
  658SOL     OW 1972   1.682   0.153   2.349  0.1558  1.0494 -0.3353
  658SOL    HW1 1973   1.674   0.061   2.407 -1.1014 -2.1585 -0.0007
  658SOL    HW2 1974   1.716   0.135   2.249  0.4391  0.1836 -0.1153
  659SOL     OW 1975   1.437   0.679   2.786 -0.4035  0.4288  0.7309
  659SOL    HW1 1976   1.484   0.758   2.737 -0.3430  1.1270  1.0288
  659SOL    HW2 1977   1.331   0.693   2.801  1.3155 -1.3147  1.3785
  660SOL     OW 1978   1.432   0.301   1.416  0.0676 -0.9119 -0.1107
  660SOL    HW1 1979   1.428   0.335   1.512  1.0597  0.0407 -0.6621
  660SOL    HW2 1980   1.489   0.216   1.401 -0.1837  2.5089 -2.0879
  661SOL     OW 1981   2.354   1.295   0.682  0.8051 -0.2176 -0.3011
  661SOL    HW1 1982   2.388   1.288   0.591  0.3094 -0.6986  0.5859
  661SOL    HW2 1983   2.278   1.365   0.699  1.6520 -0.8105 -3.7852
  662SOL     OW 1984   1.468   0.383   1.680  0.4137 -0.1711 -0.2220
  662SOL    HW1 1985   1.413   0.350   1.763 -0.7032 -0.8157 -2.7786
  662SOL    HW2 1986   1.507   0.480   1.695  0.9944  3.1535  0.5989
  663SOL     OW 1987   0.781   1.635   1.927  0.1379 -0.0199  0.1528
  663SOL    HW1 1988   0.774   1.723   1.974  0.9226 -2.8717  0.4568
  663SOL    HW2 1989   0.713   1.568   1.959  1.0931 -1.5060  2.9790
  664SOL     OW 1990   1.612   2.056   1.457  0.3012  0.2287 -0.3031
  664SOL    HW1 1991   1.532   1.993   1.464  1.6696  1.6600  0.7506
  664SOL    HW2 1992   1.702   2.001   1.458  0.3712  1.6800  0.3337
  665SOL     OW 1993   2.279   0.670   2.024 -0.3073  0.0222  0.6723
  665SOL    HW1 1994   2.262   0.571   2.031  0.4265  1.1618 -0.6654
  665SOL    HW2 1995   2.352   0.704   2.095 -0.9606  0.9981  0.2948
  666SOL     OW 1996   0.450   2.239   0.391 -0.6324  0.2913 -0.2172
  666SOL    HW1 1997   0.484   2.333   0.414  1.0471  0.6452  2.7300
  666SOL    HW2 1998   0.345   2.229   0.382 -0.6294 -0.4496  0.5344
  667SOL     OW 1999   2.049   0.178   1.080 -0.1949  0.2793  0.1826
  667SOL    HW1 2000   2.052   0.280   1.055 -3.2100  0.6821  0.7436
  667SOL    HW2 2001   1.965   0.161   1.141 -1.4750  1.3092  1.1565
  668SOL     OW 2002   1.997   0.469   1.074 -0.3111  0.8802 -0.0325
  668SOL    HW1 2003   2.081   0.487   1.012 -1.2697 -0.1765  1.5910
  668SOL    HW2 2004   2.003   0.505   1.171 -0.6780 -0.3248  3.2409
  669SOL     OW 2005   3.073   2.132   1.028  0.1377 -0.1360  0.0875
  669SOL    HW1 2006   3.039   2.173   0.937  0.5841 -0.6166 -2.1672
  669SOL    HW2 2007   3.028   2.171   1.113 -1.1676 -1.3354 -2.7410
  670SOL     OW 2008   2.917   2.396   2.175  0.6097  0.2955  0.0298
  670SOL    HW1 2009   2.830   2.375   2.236 -0.0654  0.0649  0.7484
  670SOL    HW2 2010   2.909   2.480   2.108  1.5668  0.2859  0.5750
  671SOL     OW 2011   1.818   1.651   1.528 -0.2553 -0.2161  0.0492
  671SOL    HW1 2012   1.851   1.670   1.430  0.1671 -1.4792  1.2033
  671SOL    HW2 2013   1.750   1.572   1.528 -0.8625  3.0886  1.9644
  672SOL     OW 2014   0.465   0.729   2.556  0.6467 -0.0304  1.0036
  672SOL    HW1 2015   0.396   0.743   2.481 -0.6879 -1.1536 -2.4716
  672SOL    HW2 2016   0.455   0.804   2.620  2.1180  0.3439 -2.8104
  673SOL     OW 2017   0.077   1.435   1.007 -0.0148 -0.2743  0.5918
  673SOL    HW1 2018   0.115   1.429   1.100 -1.5200  1.1778 -0.4332
  673SOL    HW2 2019   0.152   1.468   0.940 -0.7960 -4.3110  0.5313
  674SOL     OW 2020   1.552   3.034   0.222  0.1956 -0.4149  0.2945
  674SOL    HW1 2021   1.625   3.108   0.209  3.6210 -1.1834  2.0649
  674SOL    HW2 2022   1.515   2.991   0.133 -1.4777 -0.7738  1.2961
  675SOL     OW 2023   1.646   0.840   2.305 -0.2668  0.3111  0.0891
  675SOL    HW1 2024   1.748   0.824   2.308  1.2280  0.1189 -3.1095
  675SOL    HW2 2025   1.590   0.753   2.273 -1.0778  0.1287  0.0589
  676SOL     OW 2026   2.536   1.571   2.000  0.3907 -0.1940 -0.0696
  676SOL    HW1 2027   2.477   1.530   1.925  3.4532  0.1992  1.5886
  676SOL    HW2 2028   2.577   1.492   2.051 -0.6418 -1.2253  2.2620
  677SOL     OW 2029   1.898   0.685   0.892 -1.2901  0.5634 -0.5170
  677SOL    HW1 2030   1.808   0.672   0.947 -1.5462  1.8867 -0.4716
  677SOL    HW2 2031   1.981   0.651   0.948 -0.4852 -0.1564 -0.3596
  678SOL     OW 2032   0.112   0.804   1.641 -0.1537  0.6416 -0.0318
  678SOL    HW1 2033   0.211   0.796   1.672 -1.2103  0.4132  0.1194
  678SOL    HW2 2034   0.051   0.789   1.723  0.4154  0.3072  2.0074
  679SOL     OW 2035   2.567   1.101   1.219 -0.3168  0.0069 -0.0938
  679SOL    HW1 2036   2.473   1.132   1.225  1.4852 -0.4983 -0.3504
  679SOL    HW2 2037   2.572   0.996   1.198  0.1699  0.1407  0.3955
  680SOL     OW 2038   2.835   0.518   1.668 -0.4180  0.0012  0.1284
  680SOL    HW1 2039   2.802   0.577   1.589 -0.5322  0.9073 -0.6986
  680SOL    HW2 2040   2.909   0.563   1.726 -2.0560  0.3747  0.8646
  681SOL     OW 2041   3.009   0.120   1.574  0.4747 -1.0980 -0.0630
  681SOL    HW1 2042   3.000   0.044   1.499 -1.3771  0.5037 -0.0169
  681SOL    HW2 2043   2.923   0.182   1.585 -1.5448 -0.4642 -0.1901
  682SOL     OW 2044   0.613   0.101   1.302 -0.7178  0.0140 -0.4123
  682SOL    HW1 2045   0.568   0.046   1.374 -0.8957  0.9408 -0.5418
  682SOL    HW2 2046   0.690   0.049   1.256  0.0945  0.8692  0.1376
  683SOL     OW 2047   1.360   0.250   2.186  0.0767 -0.3267  0.1515
  683SOL    HW1 2048   1.385   0.303   2.270  1.0400 -1.5742  0.4275
  683SOL    HW2 2049   1.428   0.268   2.113  1.5611 -1.5096 -0.8379
  684SOL     OW 2050   1.379   2.164   0.577  0.0909 -0.1007 -0.0586
  684SOL    HW1 2051   1.422   2.116   0.661 -0.7958  2.1119  0.0828
  684SOL    HW2 2052   1.290   2.119   0.541 -0.7581  2.5381 -0.4154
  685SOL     OW 2053   2.265   2.079   1.981 -0.0164  0.1484 -0.0369
  685SOL    HW1 2054   2.299   1.980   1.968  2.5715  0.4603 -2.9417
  685SOL    HW2 2055   2.274   2.109   2.081 -2.1593  2.0783  0.6332
  686SOL     OW 2056   1.550   1.836   2.898 -1.0001  0.1423  0.0511
  686SOL    HW1 2057   1.554   1.769   2.977 -1.1012  0.6303  1.2367
  686SOL    HW2 2058   1.456   1.859   2.865  1.7724  1.0934 -0.6330
  687SOL     OW 2059   1.407   2.426   1.983 -0.3117 -0.0706 -0.7473
  687SOL    HW1 2060   1.409   2.325   1.959  1.2137  1.3622  1.2660
  687SOL    HW2 2061   1.401   2.447   2.087  0.1792 -0.3376  1.8196
  688SOL     OW 2062   2.051   1.504   1.711  0.2001  0.3692  0.1326
  688SOL    HW1 2063   2.140   1.553   1.699 -0.2042  1.8657  0.8739
  688SOL    HW2 2064   2.012   1.473   1.619 -2.1490  1.2001 -0.4301
  689SOL     OW 2065   2.306   1.107   2.804  0.7508  0.3224  0.0504
  689SOL    HW1 2066   2.241   1.027   2.782 -0.0088  2.2878 -1.2360
  689SOL    HW2 2067   2.376   1.089   2.883  0.7072  0.1729  0.9673
  690SOL     OW 2068   2.231   2.784   0.013 -0.0409 -0.4604 -0.1948
  690SOL    HW1 2069   2.167   2.811  -0.064  2.4883  3.6534  3.3637
  690SOL    HW2 2070   2.193   2.760   0.109  1.5788 -1.8591  2.0421
  691SOL     OW 2071   2.581   0.408   2.095  0.3072  0.2363  0.3174
  691SOL    HW1 2072   2.594   0.319   2.050  0.7242  1.3219 -1.0018
  691SOL    HW2 2073   2.624   0.485   2.043 -1.0475 -0.6457  0.6304
  692SOL     OW 2074   2.660   1.235   0.717  0.0555 -0.0873  0.4133
  692SOL    HW1 2075   2.611   1.267   0.632 -0.7081  0.4029  1.6386
  692SOL    HW2 2076   2.717   1.305   0.759 -2.1208 -0.3648  1.9580
  693SOL     OW 2077   2.905   2.912   0.670 -0.3009 -0.4821 -0.3374
  693SOL    HW1 2078   2.889   2.989   0.740 -0.2770  1.2302  0.0520
  693SOL    HW2 2079   2.910   2.944   0.571 -0.1478  0.5480 -1.2353
  694SOL     OW 2080   2.391   2.273   0.110  0.1733  0.3664  0.3541
  694SOL    HW1 2081   2.388   2.343   0.188  3.2414  0.5682 -0.6212
  694SOL    HW2 2082   2.310   2.210   0.115 -1.0678 -3.6483  1.8811
  695SOL     OW 2083   0.498   3.013   1.473  0.1738 -0.1894 -0.7719
  695SOL    HW1 2084   0.441   2.967   1.402  0.7616  1.1578 -0.2255
  695SOL    HW2 2085   0.454   3.037   1.564  2.5084  0.0905 -1.1275
  696SOL     OW 2086   2.739   1.989   0.763  0.4502  0.0634  0.2682
  696SOL    HW1 2087   2.809   1.914   0.760  0.6428 -0.3174 -0.0585
  696SOL    HW2 2088   2.668   1.980   0.692  1.4004 -1.1575 -2.1368
  697SOL     OW 2089   1.690   1.861   1.846  0.6876  0.2029  0.2534
  697SOL    HW1 2090   1.780   1.823   1.883  2.3792 -0.9417  0.0966
  697SOL    HW2 2091   1.684   1.966   1.851  0.1307 -1.7985 -0.0571
  698SOL     OW 2092   2.917   0.398   2.709 -0.6029 -0.1734 -0.6260
  698SOL    HW1 2093   2.917   0.389   2.605  0.5067 -0.9594  0.7912
  698SOL    HW2 2094   2.976   0.328   2.759 -1.1730 -0.6251  1.7872
  699SOL     OW 2095   1.643   0.122   2.918  0.7678 -0.2936  0.4441
  699SOL    HW1 2096   1.616   0.032   2.876 -2.9888  2.7585 -0.8634
  699SOL    HW2 2097   1.686   0.185   2.848  0.9547 -2.0213 -1.3342
  700SOL     OW 2098   0.984   2.280   1.359  0.7375 -0.3003  0.1600
  700SOL    HW1 2099   1.055   2.203   1.355 -1.2744  1.9673  1.2688
  700SOL    HW2 2100   0.891   2.234   1.330 -2.5733  1.7786  1.1448
  701SOL     OW 2101   1.868   2.903   0.018  0.4383 -0.1433  0.3625
  701SOL    HW1 2102   1.855   2.835   0.100 -1.7378 -2.2121  0.9184
  701SOL    HW2 2103   1.909   2.998   0.032  1.7695 -1.6135 -1.6344
  702SOL     OW 2104   2.110   1.370   1.945 -0.2287  0.2849  0.3731
  702SOL    HW1 2105   2.186   1.305   1.925  0.1122  0.2204  1.1079
  702SOL    HW2 2106   2.062   1.403   1.860 -1.1956 -1.3359 -0.1863
  703SOL     OW 2107   1.978   0.929   1.442  0.2895  0.1394  0.0651
  703SOL    HW1 2108   1.936   0.840   1.473 -1.4915  1.1561 -0.1764
  703SOL    HW2 2109   2.041   0.972   1.515  1.7088  0.5519  0.0486
  704SOL     OW 2110   0.337   2.067   1.709  0.0188  0.0229  0.1030
  704SOL    HW1 2111   0.375   2.041   1.805 -0.4100  0.8689  1.7044
  704SOL    HW2 2112   0.391   2.141   1.663 -0.3424 -1.7338 -0.2896
  705SOL     OW 2113   2.477   1.410   0.929 -0.1867 -0.0305  0.1327
  705SOL    HW1 2114   2.440   1.341   0.861 -0.2462 -0.3547  1.3647
  705SOL    HW2 2115   2.578   1.432   0.911  0.0178  0.1050  0.8220
  706SOL     OW 2116   0.533   1.725   1.794  0.1624  0.1798 -0.6378
  706SOL    HW1 2117   0.545   1.784   1.712  1.3822 -2.7619  2.8753
  706SOL    HW2 2118   0.615   1.662   1.812  0.8591 -0.5801  0.8144
  707SOL     OW 2119   2.317   1.180   1.870  0.0222  0.2068  0.2352
  707SOL    HW1 2120   2.377   1.190   1.954  1.5063 -0.5482 -0.9415
  707SOL    HW2 2121   2.282   1.084   1.857 -1.9027 -1.5155  2.0364
  708SOL     OW 2122   3.029   0.546   2.977  0.0755 -0.0393  0.5049
  708SOL    HW1 2123   3.107   0.599   2.947 -1.4447 -1.4933  3.1009
  708SOL    HW2 2124   3.018   0.468   2.916  2.6755 -1.1281 -0.0751
  709SOL     OW 2125   1.840   1.906   0.435  0.4302  0.8194  0.3353
  709SOL    HW1 2126   1.855   2.009   0.455  3.6160 -0.3057 -0.0708
  709SOL    HW2 2127   1.852   1.882   0.332 -1.0399  0.0515 -1.3893
  710SOL     OW 2128   1.749   1.552   2.423  0.0859 -0.3271 -0.1252
  710SOL    HW1 2129   1.834   1.504   2.390 -2.5851 -1.2587  1.0001
  710SOL    HW2 2130   1.744   1.553   2.528 -2.4278 -0.3213  3.4169
  711SOL     OW 2131   2.718   2.843   0.983 -0.5034 -0.1198 -0.3345
  711SOL    HW1 2132   2.687   2.929   0.939 -1.1329  1.3478  0.8067
  711SOL    HW2 2133   2.815   2.849   1.011 -2.0427  2.5086  1.5398
  712SOL     OW 2134   1.335   2.188   1.922  0.6328 -0.5517  0.4528
  712SOL    HW1 2135   1.372   2.149   1.835  1.3168 -0.2099 -3.1603
  712SOL    HW2 2136   1.232   2.202   1.918  0.6910 -1.5289 -0.3755
  713SOL     OW 2137   2.793   1.459   2.542  0.0524 -0.6423 -0.2043
  713SOL    HW1 2138   2.778   1.353   2.535 -1.6420 -3.0620  1.5150
  713SOL    HW2 2139   2.730   1.512   2.608  1.0070  0.6449 -0.3154
  714SOL     OW 2140   2.666   0.424   2.346 -0.3494  0.5813 -0.4477
  714SOL    HW1 2141   2.618   0.359   2.415 -0.6977 -2.5430  1.0845
  714SOL    HW2 2142   2.632   0.413   2.244 -1.7341 -2.4148  1.4161
  715SOL     OW 2143   1.613   2.183   1.179  1.1054 -0.2679  0.0105
  715SOL    HW1 2144   1.518   2.224   1.169 -1.2709 -1.1949 -1.2753
  715SOL    HW2 2145   1.635   2.136   1.271  0.6394 -0.5215 -1.3882
  716SOL     OW 2146   1.249   0.125   1.527  0.4011 -0.2520  0.6606
  716SOL    HW1 2147   1.151   0.141   1.501 -1.7121 -1.1946 -1.2178
  716SOL    HW2 2148   1.313   0.192   1.481  3.0125  1.0171 -0.6577
  717SOL     OW 2149   1.168   0.594   1.621  0.3214 -0.3336  0.2501
  717SOL    HW1 2150   1.268   0.606   1.639 -2.6322  2.7877 -1.2820
  717SOL    HW2 2151   1.146   0.586   1.517  0.7623  0.2947 -0.3579
  718SOL     OW 2152   0.669   0.892   0.967 -0.8088 -0.4646 -0.0529
  718SOL    HW1 2153   0.666   0.892   0.862 -0.9422  0.0175 -1.1944
  718SOL    HW2 2154   0.652   0.984   1.017  0.7519  0.6672 -0.4238
  719SOL     OW 2155   0.737   1.739   2.280  0.1207 -0.1296 -0.0584
  719SOL    HW1 2156   0.789   1.760   2.366 -1.9477 -3.1610 -0.4931
  719SOL    HW2 2157   0.673   1.658   2.288 -0.5168 -3.2218 -1.2023
  720SOL     OW 2158   2.182   1.210   0.274 -0.7014 -0.6243  0.5849
  720SOL    HW1 2159   2.260   1.153   0.240  0.7901  1.0186 -1.2383
  720SOL    HW2 2160   2.153   1.182   0.367 -0.4628 -0.8726 -0.3078
  721SOL     OW 2161   2.232   2.921   2.114 -0.2291  0.4969  0.4102
  721SOL    HW1 2162   2.251   2.949   2.016  0.0254 -6.5623  0.8300
  721SOL    HW2 2163   2.134   2.925   2.141 -1.5527 -0.0178  0.4670
  722SOL     OW 2164   2.336   1.696   0.570 -0.2518 -0.5731 -0.2919
  722SOL    HW1 2165   2.405   1.695   0.493  0.2921  0.9554 -0.6910
  722SOL    HW2 2166   2.239   1.731   0.538 -1.1513  0.2046 -0.1202
  723SOL     OW 2167   2.604   2.756   1.949  0.7631  0.2505 -0.1309
  723SOL    HW1 2168   2.648   2.844   1.989 -1.3835 -0.2202  1.2533
  723SOL    HW2 2169   2.516   2.735   2.002 -0.0675  2.1704  1.0874
  724SOL     OW 2170   0.378   2.517   2.428  0.6033  0.1790 -0.6028
  724SOL    HW1 2171   0.278   2.511   2.409 -0.8546  1.6685 -1.1320
  724SOL    HW2 2172   0.403   2.482   2.525  0.7298 -0.1339 -2.5536
  725SOL     OW 2173   2.435   2.816   1.500  0.7077  0.4152 -1.1121
  725SOL    HW1 2174   2.491   2.831   1.415 -3.1398 -0.1263  2.4787
  725SOL    HW2 2175   2.397   2.720   1.500  0.3465 -0.0129  0.9991
  726SOL     OW 2176   2.474   2.327   0.739  0.2978 -0.0069 -0.6058
  726SOL    HW1 2177   2.478   2.421   0.691  1.2047  2.3181  1.3015
  726SOL    HW2 2178   2.462   2.252   0.672 -1.7436  0.8427 -1.5377
  727SOL     OW 2179   0.114   3.087   0.129 -0.0893  0.1192 -0.1921
  727SOL    HW1 2180   0.221   3.091   0.112  2.7361 -0.4112  0.5037
  727SOL    HW2 2181   0.070   3.044   0.044  0.8448 -0.1524  0.1231
  728SOL     OW 2182   2.944   0.738   0.932  0.0679  0.2713  0.6342
  728SOL    HW1 2183   2.869   0.705   0.871  0.1084  0.8322  0.2184
  728SOL    HW2 2184   2.946   0.678   1.014 -2.1435 -1.1758 -0.9377
  729SOL     OW 2185   0.010   2.523   0.781 -0.1503  0.5662 -0.0611
  729SOL    HW1 2186   0.066   2.477   0.860  2.9298  0.2391  0.6353
  729SOL    HW2 2187   0.071   2.538   0.695  0.1589  0.9870 -1.0081
  730SOL     OW 2188   2.579   0.735   0.927 -0.6832 -0.2172 -0.1108
  730SOL    HW1 2189   2.527   0.825   0.909 -0.8667 -0.3245 -0.5466
  730SOL    HW2 2190   2.623   0.695   0.842  1.6014 -0.2850  0.8281
  731SOL     OW 2191   3.091   2.235   2.330 -0.1078  0.1069  0.9515
  731SOL    HW1 2192   3.052   2.246   2.424  0.3849 -0.0182 -1.2797
  731SOL    HW2 2193   3.040   2.286   2.256  1.0288 -2.3516 -1.6501
  732SOL     OW 2194   1.338   2.740   1.978 -0.2469  0.1795  0.1721
  732SOL    HW1 2195   1.402   2.666   2.007 -0.5455  0.6971 -0.1105
  732SOL    HW2 2196   1.276   2.703   1.905 -0.8426  1.5369 -1.6111
  733SOL     OW 2197   3.096   0.650   2.230  0.2774 -0.1075 -0.1240
  733SOL    HW1 2198   3.166   0.711   2.182  0.1652  0.9369  0.9416
  733SOL    HW2 2199   3.042   0.587   2.168  0.5262 -1.2047  0.6540
  734SOL     OW 2200   1.515   0.404   2.720 -0.1045 -0.7656 -0.3237
  734SOL    HW1 2201   1.491   0.507   2.723 -2.7210 -0.7259 -0.2237
  734SOL    HW2 2202   1.426   0.352   2.739 -0.6201  0.0105  2.2236
  735SOL     OW 2203   2.876   2.678   2.322  0.2456 -0.1599  0.8229
  735SOL    HW1 2204   2.852   2.642   2.227  0.7806 -0.9087 -0.5124
  735SOL    HW2 2205   2.973   2.722   2.329 -1.8736  1.6160 -1.4716
  736SOL     OW 2206   0.878   0.414   2.522  0.0360 -0.0748  0.0393
  736SOL    HW1 2207   0.775   0.429   2.527  0.4900 -0.0331  0.3459
  736SOL    HW2 2208   0.903   0.354   2.441  3.4692 -0.7340  0.1014
  737SOL     OW 2209   2.683   0.480   2.794 -0.2438  0.1328  0.1071
  737SOL    HW1 2210   2.648   0.410   2.863  4.1981  1.8405 -0.5197
  737SOL    HW2 2211   2.783   0.449   2.768  0.7156 -1.1501  0.9520
  738SOL     OW 2212   1.767   1.240   2.859 -0.1160 -0.1089  0.0662
  738SOL    HW1 2213   1.858   1.229   2.813  1.5198 -0.3282 -1.5929
  738SOL    HW2 2214   1.701   1.166   2.830 -0.4894  1.5115 -0.6043
  739SOL     OW 2215   1.844   0.730   0.622  0.0821 -0.8080 -0.2188
  739SOL    HW1 2216   1.873   0.713   0.722  1.0351 -0.6725  3.1489
  739SOL    HW2 2217   1.796   0.650   0.580  1.2226  3.6645  1.0080
  740SOL     OW 2218   1.982   1.914   2.355 -0.5329  0.7850 -0.3722
  740SOL    HW1 2219   2.050   1.841   2.380 -0.0500 -2.9612  1.5364
  740SOL    HW2 2220   1.929   1.900   2.270  1.5013 -0.3896  3.2009
  741SOL     OW 2221   2.547   0.114   2.456  0.1435 -0.2927 -0.1642
  741SOL    HW1 2222   2.646   0.121   2.428 -1.1964  1.8665  2.7455
  741SOL    HW2 2223   2.481   0.119   2.374  0.4731  0.3116 -0.0504
  742SOL     OW 2224   2.202   1.462   0.189  0.2465  0.0531  0.0347
  742SOL    HW1 2225   2.115   1.508   0.152 -2.0033  1.3749 -1.9936
  742SOL    HW2 2226   2.180   1.367   0.231 -2.4704  0.4588 -0.3122
  743SOL     OW 2227   1.764   0.644   2.552  0.2062 -0.1887  0.1598
  743SOL    HW1 2228   1.723   0.598   2.468  1.4541  0.4474 -0.0311
  743SOL    HW2 2229   1.693   0.669   2.623  1.8419 -1.6569  1.0819
  744SOL     OW 2230   2.711   2.134   0.182 -1.3269 -0.2224 -0.0370
  744SOL    HW1 2231   2.684   2.178   0.271 -1.8937 -0.4878 -2.1264
  744SOL    HW2 2232   2.699   2.028   0.186  0.2173 -0.6864 -1.9007
  745SOL     OW 2233   2.225   2.509   2.216 -0.4496 -0.2635 -0.2285
  745SOL    HW1 2234   2.144   2.531   2.152  0.7177  0.8271  0.4577
  745SOL    HW2 2235   2.195   2.530   2.312 -1.1112 -1.2189  0.3100
  746SOL     OW 2236   3.080   2.540   1.795  0.1955  0.1268 -0.1230
  746SOL    HW1 2237   3.165   2.493   1.762 -1.1001  1.0131 -0.1353
  746SOL    HW2 2238   3.098   2.641   1.808  0.1701  0.8470 -1.7217
  747SOL     OW 2239   3.086   1.802   1.666 -0.1224 -0.3542  0.0748
  747SOL    HW1 2240   3.031   1.710   1.649  2.5584 -2.3861  0.3678
  747SOL    HW2 2241   3.183   1.806   1.629 -1.8565 -1.0418 -1.3379
  748SOL     OW 2242   1.822   2.679   2.948 -0.0889  0.6672 -0.0683
  748SOL    HW1 2243   1.809   2.752   3.020 -0.1822 -1.8874 -1.8683
  748SOL    HW2 2244   1.760   2.679   2.861  1.2123 -1.8806  1.1312
  749SOL     OW 2245   1.279   2.882   0.816 -0.7621  0.5441  0.0280
  749SOL    HW1 2246   1.188   2.916   0.792  5.3302 -0.8735 -0.7277
  749SOL    HW2 2247   1.355   2.945   0.787  0.8083  2.1551 -0.5546
  750SOL     OW 2248   2.269   0.222   1.845  0.5371  0.2820  0.1283
  750SOL    HW1 2249   2.300   0.285   1.769  2.6508  3.2603 -0.6160
  750SOL    HW2 2250   2.270   0.264   1.941  0.4399  1.6531  0.3416
  751SOL     OW 2251   0.823   2.112   2.909 -0.5485  0.6685  0.2059
  751SOL    HW1 2252   0.898   2.117   2.983  2.6897 -2.9313  0.6197
  751SOL    HW2 2253   0.732   2.076   2.944  0.8393  2.1678  0.7438
  752SOL     OW 2254   1.338   0.771   1.145  0.7946  0.2003 -0.3338
  752SOL    HW1 2255   1.382   0.862   1.164  0.6817  1.2079 -0.4571
  752SOL    HW2 2256   1.397   0.696   1.185  0.5430  2.5110  0.0267
  753SOL     OW 2257   1.003   2.546   1.834 -0.0880  0.5936 -0.5705
  753SOL    HW1 2258   1.100   2.565   1.818  1.0444  0.0936 -2.7770
  753SOL    HW2 2259   0.948   2.626   1.847 -0.4602  2.3577 -1.5846
  754SOL     OW 2260   1.138   1.223   3.001 -0.1555 -0.8794 -0.4490
  754SOL    HW1 2261   1.205   1.160   2.952 -0.3885 -2.0116  3.2701
  754SOL    HW2 2262   1.170   1.324   3.003  1.5593 -1.3532  0.3499
  755SOL     OW 2263   1.933   0.491   2.188 -0.1171 -0.2497  0.1751
  755SOL    HW1 2264   2.010   0.423   2.217  1.7213 -2.6271 -2.0767
  755SOL    HW2 2265   1.841   0.465   2.237  2.1694  3.5941 -0.2719
  756SOL     OW 2266   2.504   0.979   2.978  0.0595 -0.2153 -0.4980
  756SOL    HW1 2267   2.605   0.954   2.962  0.9186 -0.4116  1.0985
  756SOL    HW2 2268   2.440   0.910   3.022  0.1005  1.5511 -1.2652
  757SOL     OW 2269   0.130   0.416   1.958 -0.2429 -0.2006 -0.1658
  757SOL    HW1 2270   0.131   0.319   1.925  1.4459  2.2648  1.6639
  757SOL    HW2 2271   0.067   0.417   2.041 -0.5584  1.0076  3.3378
  758SOL     OW 2272   2.327   0.081   1.409 -0.4462  0.0632  0.2119
  758SOL    HW1 2273   2.262   0.033   1.470 -0.0536 -0.3702 -1.0524
  758SOL    HW2 2274   2.327   0.038   1.315 -0.3763 -0.9431 -1.1682
  759SOL     OW 2275   1.728   0.120   0.092 -0.0033  0.0496 -0.0144
  759SOL    HW1 2276   1.696   0.127  -0.008  2.0899 -0.5405 -1.4265
  759SOL    HW2 2277   1.832   0.097   0.101  0.8669  0.8091 -2.1264
  760SOL     OW 2278   2.710   2.103   2.814  0.2014 -0.6885  0.6502
  760SOL    HW1 2279   2.666   2.164   2.888  0.4748  1.9350 -0.0230
  760SOL    HW2 2280   2.816   2.112   2.815 -1.3684 -2.1496 -2.3429
  761SOL     OW 2281   1.952   1.781   1.743 -0.2007 -0.1447 -1.0041
  761SOL    HW1 2282   1.989   1.689   1.773 -0.3760  0.2281 -0.5495
  761SOL    HW2 2283   1.875   1.755   1.680  1.3092 -2.1461 -2.0049
  762SOL     OW 2284   0.502   2.387   0.928  0.5571  0.2669  0.1468
  762SOL    HW1 2285   0.556   2.408   0.843  0.5202 -1.9111  0.2957
  762SOL    HW2 2286   0.554   2.406   1.012 -0.6646  0.5714  0.1548
  763SOL     OW 2287   2.130   1.611   2.984 -0.4561 -0.0460  0.5954
  763SOL    HW1 2288   2.226   1.587   3.010  2.2215 -0.0193  1.3096
  763SOL    HW2 2289   2.057   1.543   3.024  1.3004  1.3917  1.3944
  764SOL     OW 2290   0.660   0.568   0.646 -0.3659 -0.0658 -0.6665
  764SOL    HW1 2291   0.561   0.529   0.642  3.1871 -0.5210 -2.3472
  764SOL    HW2 2292   0.711   0.538   0.737  0.8937 -1.5675  0.1808
  765SOL     OW 2293   0.826   0.262   0.735  0.2459 -0.0263 -0.4115
  765SOL    HW1 2294   0.843   0.213   0.645 -0.4922  5.2037  0.5152
  765SOL    HW2 2295   0.858   0.363   0.743  0.4819  5.3283  3.0545
  766SOL     OW 2296   2.900   2.209   3.055  0.0055  0.0452 -0.0006
  766SOL    HW1 2297   2.817   2.184   3.118 -1.6261 -1.7427 -0.7989
  766SOL    HW2 2298   2.949   2.293   3.091 -0.5003 -0.4925 -0.6196
  767SOL     OW 2299   2.844   1.623   0.511 -0.2443 -0.2803  0.3927
  767SOL    HW1 2300   2.764   1.613   0.576  0.4764 -0.6026  3.2843
  767SOL    HW2 2301   2.928   1.664   0.557  0.8570  1.9932 -0.3518
  768SOL     OW 2302   1.024   0.224   0.192 -0.0129 -0.1482 -0.4681
  768SOL    HW1 2303   1.012   0.291   0.271 -0.0853  1.0362 -1.1016
  768SOL    HW2 2304   1.108   0.160   0.209  0.8911  0.0542  0.9744
  769SOL     OW 2305   1.136   1.795   2.278 -0.4629  0.2226 -0.0079
  769SOL    HW1 2306   1.045   1.806   2.327  1.5695  1.9625 -2.8309
  769SOL    HW2 2307   1.207   1.798   2.350 -0.8131 -0.3811  1.4930
  770SOL     OW 2308   0.192   1.155   2.285  0.2529  0.0013 -0.1051
  770SOL    HW1 2309   0.205   1.238   2.344 -0.9511  0.8874  1.5108
  770SOL    HW2 2310   0.090   1.121   2.276  1.3191 -3.3999 -1.1615
  771SOL     OW 2311   3.075   2.808   1.896 -0.0547 -0.4519  0.2361
  771SOL    HW1 2312   2.999   2.830   1.823  0.2845  0.0296 -0.1889
  771SOL    HW2 2313   3.064   2.861   1.987  0.0164  1.1044  1.3883
  772SOL     OW 2314   2.346   0.209   2.838  0.4779  0.1741  0.0329
  772SOL    HW1 2315   2.415   0.134   2.803 -0.3258 -0.7678 -1.9178
  772SOL    HW2 2316   2.354   0.221   2.940 -1.9563 -1.3758 -2.6466
  773SOL     OW 2317   0.577   2.084   2.437  0.1222  0.5227 -0.5725
  773SOL    HW1 2318   0.532   2.151   2.376 -5.3609  0.5055 -0.1738
  773SOL    HW2 2319   0.533   2.079   2.527  1.1935 -1.1314 -2.2131
  774SOL     OW 2320   2.105   0.008   2.641  0.0169 -0.3024 -0.0755
  774SOL    HW1 2321   2.128   0.107   2.662  1.1628  0.6473  1.1646
  774SOL    HW2 2322   2.157  -0.055   2.703  0.8496  2.3741  0.1317
  775SOL     OW 2323   2.527   2.867   2.287 -0.1720  0.2633 -0.9227
  775SOL    HW1 2324   2.428   2.885   2.296  2.9311  0.9237  2.7420
  775SOL    HW2 2325   2.577   2.879   2.378  3.8776 -1.1222  0.8042
  776SOL     OW 2326   0.011   1.224   0.187  0.3750 -0.3623  0.0744
  776SOL    HW1 2327  -0.047   1.211   0.096 -0.9068 -1.6848  0.8328
  776SOL    HW2 2328  -0.043   1.225   0.276 -0.4548  0.3398 -1.0204
  777SOL     OW 2329   0.385   3.003   0.498 -0.2150 -0.0213 -0.0377
  777SOL    HW1 2330   0.283   2.995   0.468 -1.3574 -1.9462 -2.2253
  777SOL    HW2 2331   0.429   2.906   0.503 -2.1825 -2.8736  1.6699
  778SOL     OW 2332   1.337   2.000   0.266  0.7107  0.3538  0.2968
  778SOL    HW1 2333   1.284   2.063   0.326  0.4827 -0.9367  1.7046
  778SOL    HW2 2334   1.361   2.043   0.172  1.0188 -1.4609 -2.3114
  779SOL     OW 2335   0.138   0.795   0.496  0.1228  0.8747 -0.1265
  779SOL    HW1 2336   0.077   0.714   0.475 -1.6005 -2.1712  1.0600
  779SOL    HW2 2337   0.088   0.878   0.527  1.3785  0.0127 -2.0479
  780SOL     OW 2338   0.128   0.341   2.344 -0.4748  0.3411  0.1540
  780SOL    HW1 2339   0.109   0.427   2.401  0.6578 -0.0981 -1.5999
  780SOL    HW2 2340   0.230   0.337   2.311 -0.2839  0.7726 -0.6476
  781SOL     OW 2341   0.699   1.661   1.536 -0.2435 -0.0184  0.4784
  781SOL    HW1 2342   0.732   1.577   1.590  1.0008 -1.0012  1.4667
  781SOL    HW2 2343   0.597   1.661   1.516 -0.0789  0.8633 -1.0694
  782SOL     OW 2344   2.611   3.097   0.889 -0.0835  0.0582 -0.0304
  782SOL    HW1 2345   2.547   3.121   0.812 -0.0761 -1.7428 -0.0122
  782SOL    HW2 2346   2.570   3.115   0.983 -2.9062  0.3788  1.4422
  783SOL     OW 2347   2.717   0.700   2.413 -0.2380  0.0651 -0.2194
  783SOL    HW1 2348   2.691   0.729   2.510  0.4744 -0.2773  1.1065
  783SOL    HW2 2349   2.716   0.598   2.395 -1.6180  0.2552 -0.1350
  784SOL     OW 2350   1.432   2.128   0.049  0.0852 -0.7378  0.0389
  784SOL    HW1 2351   1.501   2.191   0.084 -1.0680 -0.1245 -1.1710
  784SOL    HW2 2352   1.423   2.133  -0.055 -0.3894  0.9049  2.0675
  785SOL     OW 2353   2.103   0.295   0.034 -0.0305 -0.0602 -0.1346
  785SOL    HW1 2354   2.011   0.316   0.082 -2.6244 -2.6807 -3.7057
  785SOL    HW2 2355   2.128   0.379  -0.020  0.0658  3.0379  1.3794
  786SOL     OW 2356   2.044   2.186   2.283 -0.4259  0.1039  0.2826
  786SOL    HW1 2357   2.025   2.089   2.307  0.6265  2.0734 -1.4972
  786SOL    HW2 2358   2.146   2.212   2.285  3.3636  2.6964  1.0312
  787SOL     OW 2359   1.421   0.527   0.891  0.4375  0.3067  0.8006
  787SOL    HW1 2360   1.330   0.581   0.881  0.0968  0.4337 -2.1838
  787SOL    HW2 2361   1.456   0.496   0.797 -0.1429 -1.9519 -1.9583
  788SOL     OW 2362   1.227   0.437   0.001 -0.2318  0.1159  0.0577
  788SOL    HW1 2363   1.138   0.385  -0.010  1.2783 -0.4009 -0.5437
  788SOL    HW2 2364   1.220   0.532   0.049 -2.1008 -0.1357  1.5458
  789SOL     OW 2365   2.576   0.106   1.970 -0.0622  0.6151 -0.3275
  789SOL    HW1 2366   2.526   0.031   1.920 -1.7905 -2.9254 -2.8516
  789SOL    HW2 2367   2.649   0.069   2.034  0.1357 -0.9535  1.0837
  790SOL     OW 2368   2.599   2.822   0.711  0.6542 -0.0013 -0.1214
  790SOL    HW1 2369   2.689   2.843   0.663 -2.2285 -0.0459  1.5144
  790SOL    HW2 2370   2.614   2.808   0.814  0.2056  0.8855  3.2526
  791SOL     OW 2371   1.929   1.190   0.130 -0.2355  0.3097 -0.8196
  791SOL    HW1 2372   1.870   1.127   0.188 -0.1842  1.4462 -0.5447
  791SOL    HW2 2373   2.022   1.194   0.180 -1.9659 -4.3183 -2.1483
  792SOL     OW 2374   0.460   1.886   2.218 -0.4488 -0.5044 -0.6370
  792SOL    HW1 2375   0.505   1.915   2.307 -2.4496 -1.9339  1.6103
  792SOL    HW2 2376   0.445   1.783   2.219 -0.5939 -3.2466  1.5289
  793SOL     OW 2377   2.106   1.614   2.080 -0.3731  0.3872  0.2258
  793SOL    HW1 2378   2.174   1.690   2.056 -1.4719 -2.1010  1.3582
  793SOL    HW2 2379   2.127   1.521   2.028  1.0183  0.3856 -1.0748
  794SOL     OW 2380   0.447   1.588   2.247  0.5072 -0.5578  0.2171
  794SOL    HW1 2381   0.450   1.511   2.176 -0.0321 -1.9185 -0.2325
  794SOL    HW2 2382   0.410   1.546   2.333 -0.5713  3.6686  1.2694
  795SOL     OW 2383   2.469   2.230   1.796 -0.1860 -0.1475 -0.0478
  795SOL    HW1 2384   2.459   2.214   1.899  0.9887  1.1045 -0.1947
  795SOL    HW2 2385   2.447   2.144   1.740  1.9580  1.3092  3.0067
  796SOL     OW 2386   3.089   1.078   2.722  0.1208 -0.5263 -0.3242
  796SOL    HW1 2387   2.991   1.091   2.744  0.4067 -1.0251 -0.4955
  796SOL    HW2 2388   3.149   1.100   2.801 -0.0320 -1.1824 -3.8349
  797SOL     OW 2389   0.808   0.670   1.465  0.3528 -0.4828  0.3053
  797SOL    HW1 2390   0.891   0.725   1.486  0.8081 -1.1508  1.0908
  797SOL    HW2 2391   0.751   0.712   1.391 -0.2839 -1.7483 -0.2106
  798SOL     OW 2392   1.372   0.482   1.177 -0.1856 -0.0973 -0.0959
  798SOL    HW1 2393   1.443   0.423   1.228  0.0133 -0.1231  1.8328
  798SOL    HW2 2394   1.389   0.489   1.073  0.4632 -2.6144  0.1093
  799SOL     OW 2395   1.941   2.639   1.062  0.0392  0.0201 -0.3810
  799SOL    HW1 2396   1.875   2.574   1.107 -0.4747 -0.1916  1.6317
  799SOL    HW2 2397   1.908   2.686   0.975  0.0589 -0.1873  0.7263
  800SOL     OW 2398   3.058   0.627   1.824  0.2005 -0.0726 -0.4581
  800SOL    HW1 2399   3.011   0.661   1.908  1.5959 -1.3458  0.4481
  800SOL    HW2 2400   3.126   0.554   1.853  4.6929  2.1286 -0.4579
  801SOL     OW 2401   1.893   2.189   0.191  0.0234  0.1340  0.3058
  801SOL    HW1 2402   1.816   2.147   0.135  1.9592  0.3016  1.1174
  801SOL    HW2 2403   1.987   2.164   0.154 -0.3857 -0.8562 -2.2644
  802SOL     OW 2404   0.741   0.826   2.558 -0.4026 -0.4806  0.2343
  802SOL    HW1 2405   0.803   0.775   2.491  1.6686  2.3539 -1.2120
  802SOL    HW2 2406   0.640   0.794   2.556  0.4144  0.5133  0.4785
  803SOL     OW 2407   0.891   0.167   0.970  0.4193  0.1517 -0.0156
  803SOL    HW1 2408   0.983   0.203   1.002  1.8804  0.2512  0.1268
  803SOL    HW2 2409   0.863   0.206   0.878 -0.6232 -1.5092 -1.4430
  804SOL     OW 2410   0.390   3.069   2.071  0.4227 -0.4422  0.0880
  804SOL    HW1 2411   0.316   3.133   2.044  1.2199  0.1020  1.4788
  804SOL    HW2 2412   0.358   2.974   2.089  0.0570 -0.6980  0.1917
  805SOL     OW 2413   2.445   0.303   0.303  0.2686  0.5998  0.2984
  805SOL    HW1 2414   2.548   0.313   0.308  1.5143  0.0101 -2.6732
  805SOL    HW2 2415   2.428   0.269   0.211  2.4509 -0.0700  1.7147
  806SOL     OW 2416   0.707   2.413   1.673  0.1987  0.5748  0.1672
  806SOL    HW1 2417   0.686   2.517   1.690 -1.0977  2.2236 -0.2855
  806SOL    HW2 2418   0.811   2.392   1.669  1.2841 -0.2808  0.5263
  807SOL     OW 2419   2.491   0.935   0.437  0.5595  0.3240  0.1737
  807SOL    HW1 2420   2.573   0.873   0.448 -2.0908 -1.3324 -1.5127
  807SOL    HW2 2421   2.467   0.982   0.348 -2.5036  0.8891  0.1663
  808SOL     OW 2422   0.594   1.979   3.002 -0.7475  0.1604 -0.4289
  808SOL    HW1 2423   0.560   2.003   3.099  0.9104 -0.5743 -1.5223
  808SOL    HW2 2424   0.568   1.883   2.968 -3.0180  0.5073 -0.9156
  809SOL     OW 2425   2.692   1.999   1.917 -0.1647 -0.0829 -0.0064
  809SOL    HW1 2426   2.764   2.072   1.905  0.1577  0.3961  0.4245
  809SOL    HW2 2427   2.682   1.942   1.830  0.2697 -2.4657  0.7245
  810SOL     OW 2428   2.105   1.138   0.531  0.3766 -0.0588  0.5895
  810SOL    HW1 2429   2.102   1.078   0.610 -4.4210  0.2559 -2.8632
  810SOL    HW2 2430   2.048   1.220   0.544 -1.8106  1.0031 -1.1387
  811SOL     OW 2431   1.337   2.318   1.216 -0.2542  0.2119 -0.0341
  811SOL    HW1 2432   1.299   2.243   1.276 -1.2012  0.7403  1.4576
  811SOL    HW2 2433   1.303   2.308   1.119 -2.6302  5.0772 -0.0785
  812SOL     OW 2434   1.359   0.757   1.985  0.2826 -0.2399 -0.0130
  812SOL    HW1 2435   1.429   0.817   2.030 -1.5219  0.7358  0.2140
  812SOL    HW2 2436   1.271   0.807   1.954  0.9393  2.9882 -0.3334
  813SOL     OW 2437   1.697   2.023   2.470  0.0081  0.1558  0.5778
  813SOL    HW1 2438   1.786   1.973   2.498 -1.5327  0.8449 -0.5300
  813SOL    HW2 2439   1.690   2.039   2.371 -0.2619 -2.9169  2.2986
  814SOL     OW 2440   2.867   1.577   2.912  0.1634 -0.5780 -0.4302
  814SOL    HW1 2441   2.961   1.599   2.954 -0.8798  0.8531  0.2034
  814SOL    HW2 2442   2.827   1.662   2.869  1.7614  0.7739 -1.0297
  815SOL     OW 2443   2.279   2.889   2.682 -0.0743 -0.0465  0.3330
  815SOL    HW1 2444   2.231   2.844   2.759 -0.3055  1.9940  0.9778
  815SOL    HW2 2445   2.383   2.874   2.678  0.3379  1.1579  1.1288
  816SOL     OW 2446   1.744   0.330   1.646 -0.2259 -0.0295  0.7475
  816SOL    HW1 2447   1.645   0.304   1.664 -0.2681 -2.8049  0.6014
  816SOL    HW2 2448   1.796   0.370   1.728 -0.3541  0.0874 -2.4110
  817SOL     OW 2449   0.473   1.211   2.471  0.1320  0.7985  0.1109
  817SOL    HW1 2450   0.435   1.302   2.447 -1.8911  0.5762  0.5232
  817SOL    HW2 2451   0.506   1.146   2.394  1.2419  1.4037  0.4748
  818SOL     OW 2452   2.016   0.829   0.440 -0.4223  0.4182  0.1530
  818SOL    HW1 2453   2.043   0.928   0.469 -1.3029  1.8818 -0.6288
  818SOL    HW2 2454   1.953   0.788   0.512  1.6515 -0.0624 -2.0368
  819SOL     OW 2455   2.758   2.970   3.055  0.2040  0.0783  0.1725
  819SOL    HW1 2456   2.828   2.900   3.019 -3.0428 -1.0955  0.1899
  819SOL    HW2 2457   2.686   2.996   2.989 -0.9136 -0.9684  0.4981
  820SOL     OW 2458   1.191   1.095   0.555  0.1461 -0.0387 -0.2647
  820SOL    HW1 2459   1.261   1.145   0.609  1.4837 -0.6094  0.5705
  820SOL    HW2 2460   1.189   0.996   0.584  0.9110  1.4832  0.9507
  821SOL     OW 2461   3.071   1.294   0.649  0.0728 -0.4403 -0.1224
  821SOL    HW1 2462   3.036   1.276   0.746 -1.5189 -0.7866  3.6056
  821SOL    HW2 2463   3.159   1.344   0.652 -0.2352 -2.3137  1.8826
  822SOL     OW 2464   2.566   1.774   2.476  0.1910 -0.0067 -0.2444
  822SOL    HW1 2465   2.559   1.865   2.529 -3.6931  1.2927 -1.6501
  822SOL    HW2 2466   2.535   1.780   2.380  0.6597 -1.2119 -0.0751
  823SOL     OW 2467   2.021   0.892   1.180  0.4697  0.4483 -0.2850
  823SOL    HW1 2468   2.000   0.903   1.281  2.0341  1.0115 -0.4474
  823SOL    HW2 2469   1.936   0.907   1.121  2.0067  0.4702  0.0462
  824SOL     OW 2470   0.195   2.056   2.725 -0.1878 -0.1654 -0.4433
  824SOL    HW1 2471   0.161   1.996   2.807 -0.8235 -2.3550  0.6418
  824SOL    HW2 2472   0.220   2.007   2.637 -0.4048 -0.3020 -3.4020
  825SOL     OW 2473   1.250   1.064   0.273 -0.3379 -1.0780 -0.4570
  825SOL    HW1 2474   1.227   1.033   0.370  0.1157 -0.0738  0.2497
  825SOL    HW2 2475   1.303   1.151   0.260 -1.0329  1.0681 -2.1868
  826SOL     OW 2476   1.912   0.683   1.552  0.3174 -0.2683  0.0618
  826SOL    HW1 2477   1.989   0.630   1.601 -2.3144 -0.1718  0.1594
  826SOL    HW2 2478   1.838   0.622   1.507  0.1888  2.4401 -0.9387
  827SOL     OW 2479   0.783   1.402   0.245 -0.2821  0.0954 -0.0618
  827SOL    HW1 2480   0.815   1.332   0.175 -1.4701  1.5133  1.5144
  827SOL    HW2 2481   0.731   1.363   0.325  1.8482  1.2823  3.3167
  828SOL     OW 2482   2.581   0.057   1.598  0.4012  0.1543 -0.0311
  828SOL    HW1 2483   2.503   0.072   1.528 -0.5450 -2.9273 -0.7383
  828SOL    HW2 2484   2.555  -0.030   1.652 -0.4663  0.9663 -1.4547
  829SOL     OW 2485   2.746   2.495   3.014  0.5635 -0.1868  0.2829
  829SOL    HW1 2486   2.688   2.412   2.997  0.9258  0.3557 -0.5198
  829SOL    HW2 2487   2.695   2.563   3.076 -1.5613 -4.4821  2.1761
  830SOL     OW 2488   2.781   0.926   2.983  0.0844  0.2715 -0.0045
  830SOL    HW1 2489   2.820   0.998   3.048  0.3779 -2.0967 -0.5640
  830SOL    HW2 2490   2.792   0.826   3.016 -3.0077  0.3767  0.8279
  831SOL     OW 2491   3.092   0.590   0.388 -0.6545 -0.4127  0.0102
  831SOL    HW1 2492   3.040   0.546   0.464  1.7303  0.6650 -1.1064
  831SOL    HW2 2493   3.112   0.527   0.309 -1.2741 -2.3975 -0.8340
  832SOL     OW 2494   1.804   0.750   3.059  0.0247 -0.0115 -0.4163
  832SOL    HW1 2495   1.731   0.823   3.037  0.4811  0.2179 -1.6303
  832SOL    HW2 2496   1.776   0.652   3.046 -0.1613  0.9448  2.4700
  833SOL     OW 2497   2.426   2.124   0.567  0.8033 -0.2033 -0.5860
  833SOL    HW1 2498   2.320   2.128   0.559 -0.8747  3.1047 -2.0058
  833SOL    HW2 2499   2.471   2.031   0.551  1.9048 -2.2476 -1.9107
  834SOL     OW 2500   0.054   0.227   0.686  0.1705  0.4406 -0.6510
  834SOL    HW1 2501   0.026   0.144   0.746  3.0167  0.1601 -2.1860
  834SOL    HW2 2502   0.132   0.199   0.624  1.6034 -1.7287 -0.2914
  835SOL     OW 2503   2.444   1.464   1.181 -0.7605 -0.3291 -0.1380
  835SOL    HW1 2504   2.524   1.511   1.226 -2.8010 -2.5065  0.1306
  835SOL    HW2 2505   2.462   1.456   1.079  2.9494  2.0033 -1.2924
  836SOL     OW 2506   1.542   0.865   2.590 -0.4041 -0.1350 -0.0401
  836SOL    HW1 2507   1.439   0.851   2.582  1.3998 -0.0270  1.9866
  836SOL    HW2 2508   1.590   0.865   2.497 -2.1890 -0.4022 -0.0143
  837SOL     OW 2509   1.521   0.065   0.478  0.1660 -0.3903  0.5312
  837SOL    HW1 2510   1.527   0.163   0.457  0.8855 -0.8622  3.6860
  837SOL    HW2 2511   1.509   0.010   0.390  1.1455 -1.7518 -0.0621
  838SOL     OW 2512   1.328   1.614   2.675 -0.6070 -0.5116  0.1284
  838SOL    HW1 2513   1.378   1.547   2.739 -0.7714 -2.3694 -0.2412
  838SOL    HW2 2514   1.245   1.562   2.643 -1.1506 -0.0060  2.0290
  839SOL     OW 2515   1.608   0.250   0.980 -0.1292  0.2814  0.3522
  839SOL    HW1 2516   1.647   0.316   1.053 -0.2987  0.6569 -0.7176
  839SOL    HW2 2517   1.561   0.169   1.027 -1.4270 -2.1521  1.8800
  840SOL     OW 2518   2.562   2.906   1.719 -0.4081  0.3118  0.1180
  840SOL    HW1 2519   2.513   2.852   1.646  2.8592 -0.1678 -1.0951
  840SOL    HW2 2520   2.561   2.875   1.816  0.3739 -0.6727  3.3074
  841SOL     OW 2521   1.580   0.922   3.042  0.2632  0.3086 -0.5579
  841SOL    HW1 2522   1.478   0.899   3.073 -1.6006  0.0345  2.1451
  841SOL    HW2 2523   1.587   0.992   2.968  0.8964  0.9666 -1.0181
  842SOL     OW 2524   0.811   1.507   0.881  0.5700  0.6532 -0.1880
  842SOL    HW1 2525   0.761   1.565   0.950  0.8434 -0.0694 -0.7939
  842SOL    HW2 2526   0.742   1.444   0.841  0.4848  1.3549 -0.2384
  843SOL     OW 2527   0.143   3.065   1.401  0.7520  0.0104 -0.2471
  843SOL    HW1 2528   0.154   3.145   1.470 -0.4370  0.1345  0.3947
  843SOL    HW2 2529   0.073   2.996   1.436  0.1278  2.9114  1.4731
  844SOL     OW 2530   0.796   2.456   0.243  0.1716  0.1927  0.2366
  844SOL    HW1 2531   0.725   2.433   0.315  0.4825  0.9958 -0.6923
  844SOL    HW2 2532   0.764   2.527   0.174  2.4611 -1.0243 -1.4500
  845SOL     OW 2533   1.649   2.831   1.274  0.0064 -0.2655 -0.3510
  845SOL    HW1 2534   1.647   2.745   1.226 -2.5427  0.6049 -0.3553
  845SOL    HW2 2535   1.675   2.833   1.373 -0.9797  0.1504  2.5393
  846SOL     OW 2536   1.519   3.023   0.753  0.2719 -0.1626 -0.0801
  846SOL    HW1 2537   1.499   3.114   0.703 -2.9828 -3.0042 -4.4752
  846SOL    HW2 2538   1.582   2.968   0.689  2.4326 -0.0121 -1.3007
  847SOL     OW 2539   2.089   1.776   0.450 -0.0017 -0.2039  0.2611
  847SOL    HW1 2540   2.046   1.686   0.484 -0.3994  4.9628 -0.5097
  847SOL    HW2 2541   2.016   1.851   0.424  0.7952  1.3406 -1.1889
  848SOL     OW 2542   2.432   0.883   2.639  0.2132  0.1431  0.0388
  848SOL    HW1 2543   2.383   0.974   2.655 -1.0815 -0.7418 -0.0827
  848SOL    HW2 2544   2.360   0.809   2.618  0.1392  1.5311  1.4782
  849SOL     OW 2545   2.521   0.899   2.379 -0.3120 -0.5379  0.3587
  849SOL    HW1 2546   2.600   0.834   2.362 -1.4319  0.8219 -1.3718
  849SOL    HW2 2547   2.497   0.897   2.482 -1.4915  0.1239  2.8085
  850SOL     OW 2548   1.568   0.041   1.348  0.1489  0.9496 -0.3085
  850SOL    HW1 2549   1.566  -0.004   1.253 -1.5717  0.0906 -2.5695
  850SOL    HW2 2550   1.531  -0.035   1.409 -0.2918 -1.0282  1.1868
  851SOL     OW 2551   0.588   1.708   0.716 -0.0802 -0.0379 -0.5103
  851SOL    HW1 2552   0.674   1.719   0.768  1.4601  1.1272 -0.0084
  851SOL    HW2 2553   0.602   1.710   0.618  1.0250  1.4793 -1.4095
  852SOL     OW 2554   0.840   2.090   1.653  0.5027  0.3437 -0.1425
  852SOL    HW1 2555   0.898   2.174   1.631  0.7854 -0.4093  2.1083
  852SOL    HW2 2556   0.772   2.098   1.735 -0.5104 -1.7418  0.7499
  853SOL     OW 2557   2.538   1.530   2.631  0.1056 -0.0219 -0.3305
  853SOL    HW1 2558   2.485   1.447   2.605  1.2035 -0.7596  1.5973
  853SOL    HW2 2559   2.531   1.612   2.567  0.0194 -1.3236  0.3944
  854SOL     OW 2560   2.412   1.412   1.779 -0.1265  0.1370  0.4303
  854SOL    HW1 2561   2.482   1.399   1.703 -1.4202 -0.9321 -0.5532
  854SOL    HW2 2562   2.373   1.322   1.805 -0.0095  3.0434  0.1635
  855SOL     OW 2563   2.058   2.382   1.125 -0.2146  0.0770 -0.2497
  855SOL    HW1 2564   2.046   2.472   1.076  0.7574  0.7256  1.1166
  855SOL    HW2 2565   2.136   2.388   1.194  1.4095 -2.4474  0.0280
  856SOL     OW 2566   1.334   1.421   0.913 -0.5447  0.4621  0.1317
  856SOL    HW1 2567   1.388   1.464   0.994 -1.0575 -0.2114 -1.5285
  856SOL    HW2 2568   1.233   1.450   0.914 -1.7342 -0.0040  2.4658
  857SOL     OW 2569   0.027   2.720   1.073 -0.5737  0.7256  0.5633
  857SOL    HW1 2570   0.029   2.751   0.973 -0.7991 -2.1307  1.0924
  857SOL    HW2 2571   0.074   2.631   1.091 -0.7344 -2.1233  1.5829
  858SOL     OW 2572   2.388   2.045   1.623  0.1511 -0.1367 -0.8277
  858SOL    HW1 2573   2.301   1.997   1.618 -1.5985 -1.8669  0.2988
  858SOL    HW2 2574   2.466   1.976   1.632  1.2383  0.3329 -0.4404
  859SOL     OW 2575   2.437   0.564   1.093  0.6933 -0.3513 -0.1384
  859SOL    HW1 2576   2.490   0.627   1.023  0.5891  0.1518 -2.5783
  859SOL    HW2 2577   2.499   0.491   1.141  0.4137  0.1750  2.3939
  860SOL     OW 2578   1.885   2.824   0.484  0.3747  0.0166  0.3867
  860SOL    HW1 2579   1.877   2.797   0.383 -0.7293 -1.9367  2.1402
  860SOL    HW2 2580   1.890   2.925   0.501 -0.1607  2.1928  2.4449
  861SOL     OW 2581   1.041   2.492   2.878 -0.4687  0.0970 -0.3423
  861SOL    HW1 2582   1.132   2.533   2.854 -0.1116  1.5790 -1.3534
  861SOL    HW2 2583   1.019   2.517   2.973 -1.7568  1.3028 -0.6441
  862SOL     OW 2584   2.829   2.539   1.691  0.2646 -0.2676 -0.5553
  862SOL    HW1 2585   2.911   2.566   1.751  1.0220  4.6937 -0.2959
  862SOL    HW2 2586   2.775   2.625   1.667  0.8323 -0.5808  0.4595
  863SOL     OW 2587   1.830   2.733   0.226  0.2728  0.0341 -0.3086
  863SOL    HW1 2588   1.875   2.646   0.240 -2.3129  2.3063  1.7704
  863SOL    HW2 2589   1.730   2.717   0.200 -0.2327 -1.1187  0.2903
  864SOL     OW 2590   2.049   1.213   2.790 -0.2191  0.1846  0.6917
  864SOL    HW1 2591   2.016   1.157   2.712 -1.6119 -0.2323  2.2941
  864SOL    HW2 2592   2.152   1.220   2.792 -2.5646  2.0848  0.4187
  865SOL     OW 2593   2.103   1.970   0.709  0.5478 -0.3612 -0.1567
  865SOL    HW1 2594   2.186   1.921   0.750 -1.5639  0.9703  2.1093
  865SOL    HW2 2595   2.018   1.948   0.762  2.3778  0.0780  1.2329
  866SOL     OW 2596   2.959   2.940   1.085  0.1732  0.1130  0.0626
  866SOL    HW1 2597   2.954   3.003   1.005  0.9068  1.8183 -2.1401
  866SOL    HW2 2598   3.037   2.870   1.077 -0.7500  1.8797 -1.2066
  867SOL     OW 2599   0.324   1.367   0.882 -0.2882  0.1302 -0.3484
  867SOL    HW1 2600   0.343   1.303   0.803 -0.1427  0.9248  2.0560
  867SOL    HW2 2601   0.346   1.466   0.858 -2.2323 -0.1411 -2.1298
  868SOL     OW 2602   0.793   1.900   2.064 -0.4241 -0.2023 -0.1372
  868SOL    HW1 2603   0.770   1.857   2.158 -0.9328 -3.5559 -0.8416
  868SOL    HW2 2604   0.729   1.967   2.032  3.8565 -0.0017  0.1872
  869SOL     OW 2605   2.622   1.896   1.658 -0.3098  0.2576 -0.3094
  869SOL    HW1 2606   2.670   1.949   1.581  3.6047 -1.2454 -1.8886
  869SOL    HW2 2607   2.619   1.794   1.630 -0.2167  2.2807  0.1760
  870SOL     OW 2608   2.381   2.688   1.141  0.4946  0.7889 -0.2186
  870SOL    HW1 2609   2.369   2.617   1.216 -3.7096 -0.6034  0.3963
  870SOL    HW2 2610   2.458   2.750   1.159 -2.4851  0.4220 -2.0627
  871SOL     OW 2611   3.076   2.266   0.552  0.2199  0.6150 -0.3551
  871SOL    HW1 2612   3.004   2.269   0.629  0.5393 -6.2463 -0.0459
  871SOL    HW2 2613   3.033   2.289   0.458  1.6170 -0.0711 -0.4064
  872SOL     OW 2614   2.077   0.490   1.704  0.1492 -0.7421  0.1613
  872SOL    HW1 2615   2.038   0.498   1.799  1.3633 -0.0537  3.1415
  872SOL    HW2 2616   2.177   0.457   1.716  0.6541  0.4090  1.2437
  873SOL     OW 2617   1.708   2.071   3.077 -0.2887  0.5655 -0.4077
  873SOL    HW1 2618   1.632   2.025   3.024 -0.6519  2.0246 -0.6388
  873SOL    HW2 2619   1.749   2.147   3.019 -1.8589  2.3601 -0.3522
  874SOL     OW 2620   0.662   2.494   0.702  0.4664 -0.3781  0.0214
  874SOL    HW1 2621   0.662   2.573   0.772  1.8854  2.2803  1.5699
  874SOL    HW2 2622   0.747   2.438   0.712 -1.8197  2.2031 -0.4758
  875SOL     OW 2623   2.343   1.629   1.400 -1.1380  0.4573 -0.2736
  875SOL    HW1 2624   2.437   1.621   1.446 -2.3892 -1.2505  2.2789
  875SOL    HW2 2625   2.339   1.567   1.315 -0.5877  1.7774  1.8531
  876SOL     OW 2626   0.075   2.297   2.649  0.0176 -0.4666 -0.5729
  876SOL    HW1 2627   0.114   2.203   2.670 -1.1396  2.9584  0.9489
  876SOL    HW2 2628   0.137   2.378   2.682  0.5331 -1.1931 -0.8385
  877SOL     OW 2629   2.869   2.620   0.681 -0.1019  0.5061  0.0550
  877SOL    HW1 2630   2.912   2.714   0.665 -0.6458 -0.7338 -3.0944
  877SOL    HW2 2631   2.951   2.556   0.714 -0.6475 -1.8061 -0.3001
  878SOL     OW 2632   2.841   1.614   2.306  0.0106  0.1287  0.2356
  878SOL    HW1 2633   2.782   1.683   2.256 -1.5813 -3.3315 -2.3203
  878SOL    HW2 2634   2.824   1.594   2.405  0.4281  0.2126 -0.4702
  879SOL     OW 2635   2.493   0.013   1.134 -0.5864  0.3114  0.6288
  879SOL    HW1 2636   2.546  -0.046   1.200 -0.8988 -2.3938 -1.8868
  879SOL    HW2 2637   2.393  -0.009   1.127 -1.4371  2.6874 -0.1377
  880SOL     OW 2638   0.630   0.537   2.267 -0.5630 -0.1089 -0.3691
  880SOL    HW1 2639   0.617   0.470   2.342  2.3342 -1.4374 -0.0484
  880SOL    HW2 2640   0.702   0.504   2.200  0.8969  0.7841 -0.5397
  881SOL     OW 2641   0.816   0.088   0.467 -0.0252 -0.8419 -1.0449
  881SOL    HW1 2642   0.872   0.013   0.510  0.9846  1.4782  0.9598
  881SOL    HW2 2643   0.736   0.063   0.406 -0.2427 -2.1525 -2.5687
  882SOL     OW 2644   2.740   1.623   1.726 -0.3661 -0.5763 -0.8694
  882SOL    HW1 2645   2.842   1.616   1.696 -0.3145  3.3626  0.5233
  882SOL    HW2 2646   2.727   1.578   1.814  0.1544  1.8656  0.9017
  883SOL     OW 2647   0.818   0.505   0.853 -0.5592 -0.2439 -0.0614
  883SOL    HW1 2648   0.862   0.594   0.886 -0.1500  0.8222  2.4737
  883SOL    HW2 2649   0.789   0.450   0.938  1.1065 -0.1941  0.9590
  884SOL     OW 2650   1.193   1.726   1.087  0.3265 -0.0799  0.5350
  884SOL    HW1 2651   1.142   1.636   1.074 -4.2278 -4.0168 -2.5549
  884SOL    HW2 2652   1.225   1.765   0.997 -0.1572 -0.3062  1.8748
  885SOL     OW 2653   2.331   1.872   2.281 -0.6917  0.1442 -0.3003
  885SOL    HW1 2654   2.269   1.821   2.348 -1.3679  1.9227 -0.6594
  885SOL    HW2 2655   2.337   1.973   2.311  1.0569  0.8596  0.6332
  886SOL     OW 2656   2.598   0.372   1.782  0.2500 -0.7015  0.7813
  886SOL    HW1 2657   2.611   0.277   1.828 -1.4816  0.5543 -0.2510
  886SOL    HW2 2658   2.687   0.428   1.783  2.2070  0.0506 -2.5386
  887SOL     OW 2659   0.123   2.056   1.341  0.2113  0.6135 -0.8840
  887SOL    HW1 2660   0.035   2.001   1.324  0.3224 -2.9798 -1.1669
  887SOL    HW2 2661   0.120   2.153   1.299 -0.9909  1.2160  0.2219
  888SOL     OW 2662   0.593   1.235   1.565 -0.5166  0.3144  0.0798
  888SOL    HW1 2663   0.582   1.291   1.476 -2.0915 -0.6486 -2.7808
  888SOL    HW2 2664   0.627   1.137   1.539  0.3043  3.4895  0.2226
  889SOL     OW 2665   0.823   2.441   2.218  0.3542 -0.0343  0.5122
  889SOL    HW1 2666   0.736   2.390   2.246 -3.6199  1.4198 -0.8188
  889SOL    HW2 2667   0.857   2.415   2.124 -0.5367  0.7986  1.1004
  890SOL     OW 2668   2.398   2.470   0.308  0.2328 -0.0905 -0.9900
  890SOL    HW1 2669   2.485   2.527   0.310 -1.1645 -0.3253 -0.3229
  890SOL    HW2 2670   2.318   2.524   0.348 -2.7299 -2.2409  0.6882
  891SOL     OW 2671   2.614   1.716   0.720  0.3960 -0.5106 -0.3132
  891SOL    HW1 2672   2.655   1.738   0.808 -1.8624  4.1954 -1.8159
  891SOL    HW2 2673   2.514   1.695   0.721  1.2104  0.6214 -3.3334
  892SOL     OW 2674   0.364   0.299   2.245  0.0659  0.7473 -0.1958
  892SOL    HW1 2675   0.470   0.313   2.253  1.2315 -0.8963 -1.1222
  892SOL    HW2 2676   0.336   0.277   2.149 -0.0099 -0.9334  1.4106
  893SOL     OW 2677   1.755   0.254   2.678 -0.1379  0.2723  0.0838
  893SOL    HW1 2678   1.819   0.336   2.663  3.6025  1.7369  0.4271
  893SOL    HW2 2679   1.654   0.282   2.686 -3.3339  0.7634  1.0850
  894SOL     OW 2680   2.133   2.086   0.111  0.2493 -0.5225 -0.1568
  894SOL    HW1 2681   2.137   2.033   0.017 -1.6107 -2.6742 -1.3712
  894SOL    HW2 2682   2.186   2.038   0.189 -0.7950  0.0102 -0.4358
  895SOL     OW 2683   2.773   1.450   0.854  0.2978 -0.6869 -0.1067
  895SOL    HW1 2684   2.853   1.393   0.888 -1.9506 -0.6220  2.8422
  895SOL    HW2 2685   2.768   1.540   0.903  0.7858  1.6012  2.0493
  896SOL     OW 2686   1.842   1.721   1.267  0.3937  0.8150 -0.1068
  896SOL    HW1 2687   1.940   1.697   1.236  0.5636 -1.3521  0.7744
  896SOL    HW2 2688   1.775   1.672   1.208  1.1436  1.8672  0.4784
  897SOL     OW 2689   0.248   0.546   2.995 -0.5280  0.2138  0.3275
  897SOL    HW1 2690   0.192   0.592   2.917 -2.2092  1.1566  0.1997
  897SOL    HW2 2691   0.339   0.596   3.020  1.3627  1.6669 -2.5317
  898SOL     OW 2692   0.667   2.839   1.105  0.1228 -0.2432 -0.2972
  898SOL    HW1 2693   0.725   2.925   1.128 -2.3634  0.8246  2.3215
  898SOL    HW2 2694   0.701   2.759   1.159  0.5375 -0.3721 -2.5986
  899SOL     OW 2695   2.880   0.943   1.366  0.2366  0.3907 -0.6842
  899SOL    HW1 2696   2.873   0.960   1.262 -1.5107 -3.4953 -1.5168
  899SOL    HW2 2697   2.968   0.977   1.408  1.5137  0.0621  1.6986
  900SOL     OW 2698   0.961   2.510   2.457  0.2740 -0.2720  0.2943
  900SOL    HW1 2699   0.889   2.500   2.383  0.0142  0.5417  3.8486
  900SOL    HW2 2700   0.930   2.472   2.547  0.2779 -0.3980  0.3183
  901SOL     OW 2701   1.885   2.368   1.424  0.0312  0.1537 -0.5293
  901SOL    HW1 2702   1.887   2.294   1.354  0.3373 -0.6489  1.0117
  901SOL    HW2 2703   1.976   2.377   1.475 -0.2966 -1.0998  2.1794
  902SOL     OW 2704   2.590   1.657   1.508 -0.5889 -0.6642  0.2178
  902SOL    HW1 2705   2.641   1.616   1.589  0.6962  3.4685  0.4361
  902SOL    HW2 2706   2.641   1.639   1.420  1.0798 -2.1845  0.0047
  903SOL     OW 2707   0.298   2.360   1.998  0.6063  0.5373 -0.3635
  903SOL    HW1 2708   0.236   2.276   1.977  0.8475 -0.3811 -0.2165
  903SOL    HW2 2709   0.300   2.432   1.919 -1.5361 -1.4818 -1.5282
  904SOL     OW 2710   1.979   0.817   2.454 -0.1603  0.5839  0.2246
  904SOL    HW1 2711   1.908   0.758   2.496  2.2562  0.6845  1.0699
  904SOL    HW2 2712   2.020   0.772   2.369  1.3279  0.5579 -0.7830
  905SOL     OW 2713   2.814   0.120   2.400 -0.1995 -0.0959 -0.3283
  905SOL    HW1 2714   2.846   0.051   2.469  1.0473  1.4417  1.6080
  905SOL    HW2 2715   2.865   0.208   2.415 -0.3290 -1.9538  1.3127
  906SOL     OW 2716   0.148   1.740   1.906 -0.3705  0.2835  0.1539
  906SOL    HW1 2717   0.067   1.769   1.850  1.5148  1.3318  1.2225
  906SOL    HW2 2718   0.237   1.764   1.867 -1.1449 -2.0951 -0.1015
  907SOL     OW 2719   0.239   2.498   0.976 -0.4845  0.0832 -0.1865
  907SOL    HW1 2720   0.337   2.460   0.978 -0.8161  0.2664 -2.0979
  907SOL    HW2 2721   0.240   2.593   0.930  2.5292 -0.8310 -1.3879
  908SOL     OW 2722   2.869   2.959   0.396 -0.0785  0.1664 -0.0566
  908SOL    HW1 2723   2.775   2.981   0.366 -0.1507  3.3021 -1.2014
  908SOL    HW2 2724   2.902   2.878   0.336 -2.0620  0.0893  1.2706
  909SOL     OW 2725   0.900   1.030   2.628 -0.1105 -0.0616  0.3981
  909SOL    HW1 2726   0.849   0.939   2.617  1.0706 -2.1153 -0.6064
  909SOL    HW2 2727   0.950   1.061   2.537  1.7943 -1.6829  1.9978
  910SOL     OW 2728   1.833   1.874   2.122 -0.8504  0.4363  0.4951
  910SOL    HW1 2729   1.897   1.920   2.052  0.7455 -0.6407 -1.7401
  910SOL    HW2 2730   1.753   1.928   2.162 -2.5613 -1.4993  1.3147
  911SOL     OW 2731   1.753   2.864   1.552 -0.3241  0.7608 -0.1612
  911SOL    HW1 2732   1.852   2.871   1.521 -0.3839 -0.9279 -2.7462
  911SOL    HW2 2733   1.734   2.783   1.614 -2.3377 -1.2466 -1.8205
  912SOL     OW 2734   2.836   0.982   0.714  0.4365 -0.1004  0.4342
  912SOL    HW1 2735   2.855   0.959   0.812  0.4738  2.0655  1.2768
  912SOL    HW2 2736   2.798   1.078   0.709  1.6555  0.5446 -1.3576
  913SOL     OW 2737   2.591   1.284   1.597 -0.1001 -0.2325 -0.4177
  913SOL    HW1 2738   2.598   1.177   1.608  2.6072 -1.8537 -2.6353
  913SOL    HW2 2739   2.624   1.309   1.501 -1.6512  0.2285 -0.7411
  914SOL     OW 2740   2.885   0.569   1.164 -0.5107  0.3255  0.4741
  914SOL    HW1 2741   2.863   0.469   1.187 -0.3702 -0.8197  0.6381
  914SOL    HW2 2742   2.824   0.638   1.213  1.3372  3.2545 -0.1691
  915SOL     OW 2743   1.206   0.696   0.910 -0.2332  0.9201  0.2109
  915SOL    HW1 2744   1.255   0.720   1.000  0.6856  0.4119 -2.4476
  915SOL    HW2 2745   1.102   0.710   0.915 -1.7407  0.3592 -0.8460
  916SOL     OW 2746   0.596   0.088   0.674 -0.0869 -0.2557  0.3565
  916SOL    HW1 2747   0.649   0.153   0.728  1.1262 -0.6666 -1.6683
  916SOL    HW2 2748   0.603   0.104   0.574  0.4777 -2.2461 -1.5374
  917SOL     OW 2749   2.843   2.624   2.035 -0.0184 -0.3704 -0.0049
  917SOL    HW1 2750   2.749   2.655   1.996  1.7883  1.9841 -0.7174
  917SOL    HW2 2751   2.918   2.683   1.989 -2.3669  0.1188 -0.6424
  918SOL     OW 2752   1.079   2.093   3.050  0.0030  0.3596  0.4624
  918SOL    HW1 2753   1.081   2.188   3.091  0.8650  0.6659 -2.6860
  918SOL    HW2 2754   1.143   2.086   2.964 -0.1194 -2.1431 -0.4027
  919SOL     OW 2755   0.766   1.659   2.784  0.5785 -0.7670  0.0662
  919SOL    HW1 2756   0.822   1.747   2.801 -2.2700 -0.4631 -1.4790
  919SOL    HW2 2757   0.786   1.619   2.688 -1.3514 -0.3657  1.1532
  920SOL     OW 2758   1.346   1.818   2.477 -0.2199  0.3095 -0.2004
  920SOL    HW1 2759   1.412   1.786   2.407  0.0778  1.3135 -0.0648
  920SOL    HW2 2760   1.347   1.756   2.559  0.6741 -1.3618  0.6536
  921SOL     OW 2761   1.125   0.125   2.568  0.1698 -0.5971  0.5560
  921SOL    HW1 2762   1.117   0.092   2.467  2.4832  0.2871 -3.2680
  921SOL    HW2 2763   1.033   0.124   2.616  1.0277 -1.1786 -3.3117
  922SOL     OW 2764   2.177   2.467   2.831  0.2224  0.0059 -0.6819
  922SOL    HW1 2765   2.178   2.367   2.854  0.3724  2.4529  0.0805
  922SOL    HW2 2766   2.132   2.480   2.741 -0.4585  0.7580 -1.0843
  923SOL     OW 2767   1.180   2.705   0.278  0.6692 -0.3667  0.3428
  923SOL    HW1 2768   1.240   2.775   0.327  0.2385 -2.5580  1.5252
  923SOL    HW2 2769   1.210   2.604   0.297 -0.3096  0.0514 -1.4113
  924SOL     OW 2770   2.944   1.692   0.141  0.5706  0.2878 -0.0556
  924SOL    HW1 2771   2.850   1.662   0.111 -1.6285  0.9925  0.1255
  924SOL    HW2 2772   3.015   1.622   0.146  1.1383  2.4316  2.8174
  925SOL     OW 2773   0.010   2.891   1.578  0.4557 -0.4805 -0.4152
  925SOL    HW1 2774  -0.055   2.958   1.620  0.8012  3.1152 -0.0213
  925SOL    HW2 2775  -0.036   2.806   1.552  1.1450  2.8609  1.1748
  926SOL     OW 2776   1.256   2.749   1.328  0.1637  0.5103  0.1464
  926SOL    HW1 2777   1.250   2.781   1.227  2.5133  1.3712  1.4386
  926SOL    HW2 2778   1.339   2.798   1.372 -0.3436  0.2798  1.4619
  927SOL     OW 2779   0.363   2.585   1.784 -0.1835  0.2171  0.1421
  927SOL    HW1 2780   0.317   2.539   1.703 -1.6916  1.7329 -0.7913
  927SOL    HW2 2781   0.359   2.688   1.777 -2.1937 -0.0658 -0.1914
  928SOL     OW 2782   1.676   2.069   2.214  0.4088 -0.0250  0.4412
  928SOL    HW1 2783   1.718   2.143   2.147 -1.1135 -1.5231 -1.5268
  928SOL    HW2 2784   1.571   2.055   2.203 -1.0553  1.0284  1.7424
  929SOL     OW 2785   2.434   2.508   2.905 -0.2318 -0.3570 -0.5887
  929SOL    HW1 2786   2.332   2.504   2.880  1.5456  1.0844 -0.3684
  929SOL    HW2 2787   2.495   2.519   2.828  3.2640  2.7171  0.8154
  930SOL     OW 2788   2.122   2.084   1.076 -0.2827  0.3970  0.5354
  930SOL    HW1 2789   2.160   2.031   1.156 -0.8155  1.7394  1.1806
  930SOL    HW2 2790   2.121   2.188   1.090 -0.2756  0.1823 -1.2040
  931SOL     OW 2791   0.473   1.598   2.633 -0.1261  0.0148 -0.2412
  931SOL    HW1 2792   0.463   1.649   2.726  0.5839 -0.8499  0.1056
  931SOL    HW2 2793   0.574   1.590   2.602  0.2335  2.4551  2.5003
  932SOL     OW 2794   0.353   0.032   3.087 -0.3070  0.4852  0.0669
  932SOL    HW1 2795   0.418   0.114   3.074  1.4557 -0.8117  0.1316
  932SOL    HW2 2796   0.393  -0.054   3.046 -1.1652  3.1758  2.1687
  933SOL     OW 2797   1.005   0.834   2.996  0.5878 -0.1097  0.2743
  933SOL    HW1 2798   0.990   0.919   3.051  0.3594 -1.5901 -1.7836
  933SOL    HW2 2799   0.943   0.761   3.031 -1.4816  2.1939  1.6262
  934SOL     OW 2800   0.886   2.962   2.619  0.3382  0.5500  0.3458
  934SOL    HW1 2801   0.857   2.892   2.544 -0.0249 -1.6884  1.4752
  934SOL    HW2 2802   0.938   2.921   2.696  1.2385 -1.0432  2.4003
  935SOL     OW 2803   3.105   0.625   0.758 -0.4064 -0.9584  0.1041
  935SOL    HW1 2804   3.060   0.561   0.694  0.6634  4.1339  0.6455
  935SOL    HW2 2805   3.045   0.667   0.829 -1.5719  1.5812  0.5395
  936SOL     OW 2806   1.111   2.881   0.089 -0.0889 -0.0420 -0.0200
  936SOL    HW1 2807   1.206   2.901   0.050 -0.8628  0.9489 -0.2720
  936SOL    HW2 2808   1.117   2.815   0.169  2.7367  1.0511  0.5261
  937SOL     OW 2809   1.988   2.603   2.090 -0.8549 -0.3385 -0.0254
  937SOL    HW1 2810   1.939   2.636   2.174  1.2278 -0.0461 -2.7660
  937SOL    HW2 2811   1.987   2.675   2.014  1.9946  1.2091 -1.4481
  938SOL     OW 2812   2.750   2.121   1.536 -0.3735 -0.1674  0.1999
  938SOL    HW1 2813   2.699   2.202   1.576  0.2629 -1.1999 -2.0797
  938SOL    HW2 2814   2.833   2.088   1.586 -1.0144 -0.4198 -1.5710
  939SOL     OW 2815   2.835   1.204   2.487 -0.1509 -0.2300  0.1462
  939SOL    HW1 2816   2.914   1.180   2.424  0.4051 -0.2940  2.3400
  939SOL    HW2 2817   2.833   1.135   2.562  1.0354 -2.7212 -2.8063
  940SOL     OW 2818   1.055   0.430   2.742 -0.4189  0.3604  0.0574
  940SOL    HW1 2819   1.143   0.375   2.726  1.5105  0.6327 -0.6511
  940SOL    HW2 2820   0.985   0.426   2.663  1.3666 -1.1454  1.2563
  941SOL     OW 2821   0.085   2.812   2.281  0.2358 -0.4265 -0.1102
  941SOL    HW1 2822   0.110   2.735   2.215  0.4637  3.5066 -2.4066
  941SOL    HW2 2823   0.164   2.842   2.339 -1.4199  1.0981  0.6736
  942SOL     OW 2824   0.133   0.047   2.434 -0.3895  0.1746  0.3273
  942SOL    HW1 2825   0.168   0.056   2.530  1.3037  0.3008 -0.6036
  942SOL    HW2 2826   0.132   0.140   2.391 -3.3901  1.6680  1.0377
  943SOL     OW 2827   2.133   1.691   2.354  0.2677  0.1161 -0.3342
  943SOL    HW1 2828   2.108   1.653   2.260  1.5329 -3.5777 -1.1275
  943SOL    HW2 2829   2.163   1.608   2.416  1.2815  0.6077 -1.9660
  944SOL     OW 2830   2.197   2.304   1.569  0.2343 -0.0954  0.0736
  944SOL    HW1 2831   2.222   2.312   1.672 -0.5018  1.0310  1.0327
  944SOL    HW2 2832   2.143   2.217   1.560 -0.5794 -0.7649 -0.5917
  945SOL     OW 2833   0.663   1.651   0.178  0.3984  0.1650  0.5803
  945SOL    HW1 2834   0.600   1.626   0.101 -0.6050  0.9845  0.7411
  945SOL    HW2 2835   0.707   1.565   0.223  0.8807  0.2017  0.6427
  946SOL     OW 2836   0.370   0.991   2.587 -0.4208 -0.0642  0.7753
  946SOL    HW1 2837   0.311   0.959   2.508  1.3735  0.2186 -2.1168
  946SOL    HW2 2838   0.413   1.079   2.564 -1.0962 -0.9765 -0.3243
  947SOL     OW 2839   1.469   0.540   3.030 -0.4665  0.0904 -0.0967
  947SOL    HW1 2840   1.450   0.592   2.941 -0.1589 -2.0473  0.0354
  947SOL    HW2 2841   1.383   0.488   3.060  0.7922 -1.5376 -0.9886
  948SOL     OW 2842   1.958   2.939   2.154  0.4947  0.0515  0.3985
  948SOL    HW1 2843   1.942   2.903   2.054  0.3616  2.0222  1.2863
  948SOL    HW2 2844   1.934   2.861   2.220  2.3855 -2.6742 -0.9141
  949SOL     OW 2845   0.578   2.502   0.440 -0.3403 -0.2731 -0.2436
  949SOL    HW1 2846   0.569   2.603   0.450 -0.4523 -3.0620 -0.5307
  949SOL    HW2 2847   0.643   2.461   0.508  1.6026 -2.1419  0.0731
  950SOL     OW 2848   0.224   2.239   2.956 -0.5196  0.2962 -0.2118
  950SOL    HW1 2849   0.233   2.336   2.924  1.0305  2.9929  0.1366
  950SOL    HW2 2850   0.172   2.181   2.880  1.9481  0.1165 -1.9419
  951SOL     OW 2851   1.260   2.675   2.799  0.0121 -0.5420  0.5920
  951SOL    HW1 2852   1.329   2.619   2.847 -1.9469  1.8204 -2.0885
  951SOL    HW2 2853   1.301   2.726   2.716  0.1708  0.4809 -1.6290
  952SOL     OW 2854   0.031   1.640   0.405  0.5451 -0.1789 -0.0332
  952SOL    HW1 2855   0.082   1.731   0.425 -1.3315  2.0983  2.7501
  952SOL    HW2 2856   0.034   1.567   0.482 -4.4081 -3.0074  2.6429
  953SOL     OW 2857   2.476   1.725   0.311  0.2032 -0.2902  0.0728
  953SOL    HW1 2858   2.471   1.622   0.333  3.1599  2.0221 -0.9138
  953SOL    HW2 2859   2.467   1.746   0.207 -0.2208  0.3494 -2.1842
  954SOL     OW 2860   2.210   0.513   0.927 -0.1176  0.0415  0.4984
  954SOL    HW1 2861   2.229   0.518   0.822 -2.5677  1.2936 -2.0922
  954SOL    HW2 2862   2.298   0.544   0.976 -0.3862  0.1034 -0.5671
  955SOL     OW 2863   0.174   2.616   1.382  0.5780 -0.4085 -0.0328
  955SOL    HW1 2864   0.068   2.622   1.372 -0.0835 -1.4789 -0.1044
  955SOL    HW2 2865   0.226   2.706   1.367  3.6281  1.2989  1.5778
  956SOL     OW 2866   2.794   2.495   2.542 -0.1085  0.5333  0.0787
  956SOL    HW1 2867   2.809   2.395   2.536 -0.7845  1.7906  1.2253
  956SOL    HW2 2868   2.829   2.556   2.463 -1.4444  2.5153 -0.5184
  957SOL     OW 2869   1.637   2.052   2.738 -0.2648  0.6178 -0.3356
  957SOL    HW1 2870   1.647   1.959   2.789 -0.1021 -2.1907 -3.4852
  957SOL    HW2 2871   1.654   2.041   2.640 -3.4141  0.4368 -0.6606
  958SOL     OW 2872   2.603   2.256   3.031  0.1786  0.2677  0.4918
  958SOL    HW1 2873   2.507   2.301   3.045 -0.8930  3.5534  1.1120
  958SOL    HW2 2874   2.638   2.228   3.123 -0.9095  1.9630 -2.7004
  959SOL     OW 2875   0.383   2.811   0.123  0.3378 -0.2825  0.2604
  959SOL    HW1 2876   0.298   2.844   0.167 -0.2521  1.1763  1.9830
  959SOL    HW2 2877   0.400   2.709   0.126 -0.1442  2.2191 -0.2673
  960SOL     OW 2878   1.915   0.522   1.918 -0.2281 -0.4737  0.5881
  960SOL    HW1 2879   1.874   0.609   1.876  0.1062  1.8149 -1.5881
  960SOL    HW2 2880   1.929   0.531   2.022 -1.3269  1.4903 -1.2419
  961SOL     OW 2881   2.504   1.895   1.065 -0.0155  0.1838 -0.0206
  961SOL    HW1 2882   2.520   1.979   1.006 -1.8830 -1.9129 -1.0644
  961SOL    HW2 2883   2.517   1.912   1.168  0.8312 -0.4289  1.0743
  962SOL     OW 2884   1.328   0.915   0.038 -0.3702 -0.1338 -0.1458
  962SOL    HW1 2885   1.288   0.951  -0.050  0.0387  0.4681  1.1925
  962SOL    HW2 2886   1.297   0.979   0.122 -0.6564  2.6384 -0.4899
  963SOL     OW 2887   2.300   2.578   1.822  0.8056 -0.1886  0.1361
  963SOL    HW1 2888   2.258   2.485   1.845 -0.1568  1.5995  1.8024
  963SOL    HW2 2889   2.342   2.624   1.908  0.0184 -0.2406  1.8412
  964SOL     OW 2890   2.345   0.402   1.669  0.2708  0.4039  0.3064
  964SOL    HW1 2891   2.442   0.387   1.716  4.0472 -0.1199  1.3029
  964SOL    HW2 2892   2.354   0.404   1.565  2.1496  1.1205 -1.0625
  965SOL     OW 2893   2.637   3.004   0.220 -0.2179 -0.3375 -0.4431
  965SOL    HW1 2894   2.683   2.991   0.128  0.0791 -1.5780 -1.0337
  965SOL    HW2 2895   2.555   3.066   0.210 -1.3678 -0.1718 -0.9739
  966SOL     OW 2896   2.492   2.488   2.243 -0.2111 -0.1395 -0.1604
  966SOL    HW1 2897   2.515   2.576   2.194  0.2230 -0.8950  0.8527
  966SOL    HW2 2898   2.390   2.472   2.246 -2.3800 -0.5133 -0.2624
  967SOL     OW 2899   2.739   2.834   2.494  0.3845 -0.7764 -0.5597
  967SOL    HW1 2900   2.758   2.785   2.403 -0.6527 -2.4578  1.4268
  967SOL    HW2 2901   2.825   2.882   2.524 -1.2157 -2.1369 -2.0972
  968SOL     OW 2902   1.964   1.066   2.585  0.4563 -0.3971 -0.3182
  968SOL    HW1 2903   1.882   1.129   2.562  2.0837  1.6472  1.4983
  968SOL    HW2 2904   1.980   0.977   2.526  0.4557 -1.8092  0.9036
  969SOL     OW 2905   2.715   2.579   1.055  1.0223 -0.3899 -0.0949
  969SOL    HW1 2906   2.683   2.670   1.025  0.5266 -1.9315 -0.2863
  969SOL    HW2 2907   2.735   2.510   0.979  1.7570 -0.6156 -1.5033
  970SOL     OW 2908   1.073   2.108   1.865 -0.2224  0.3230 -0.5969
  970SOL    HW1 2909   1.089   2.022   1.925 -0.8542 -0.0802  0.9294
  970SOL    HW2 2910   1.033   2.083   1.772  1.9288 -2.4093  0.3316
  971SOL     OW 2911   2.920   2.186   1.957 -0.2210  0.0558 -0.2881
  971SOL    HW1 2912   2.931   2.272   2.015  1.9572 -0.3210  0.1456
  971SOL    HW2 2913   2.993   2.168   1.889 -2.3322  0.7938 -2.6460
  972SOL     OW 2914   1.879   2.447   0.257  0.0930 -0.2542 -0.4951
  972SOL    HW1 2915   1.879   2.345   0.226  2.4895  2.6193  2.5938
  972SOL    HW2 2916   1.913   2.460   0.354  0.2202 -0.8760  1.2157
  973SOL     OW 2917   1.139   0.897   1.889  0.4088  0.8308 -0.0909
  973SOL    HW1 2918   1.095   0.803   1.882 -0.4751 -0.7623 -2.7022
  973SOL    HW2 2919   1.081   0.961   1.831  0.5871 -0.8804 -0.0199
  974SOL     OW 2920   1.577   0.547   1.972  0.3226  0.4943 -0.1212
  974SOL    HW1 2921   1.650   0.589   1.910  1.5356  0.6712  1.2277
  974SOL    HW2 2922   1.482   0.590   1.964 -0.5997 -0.2872 -2.7339
  975SOL     OW 2923   2.366   3.014   0.039 -0.3772  0.4300  0.1553
  975SOL    HW1 2924   2.303   2.931   0.035 -0.2270 -0.8023  1.6972
  975SOL    HW2 2925   2.414   3.021  -0.049 -0.8741 -2.3129 -1.0787
  976SOL     OW 2926   1.920   2.733   2.318 -0.2508 -0.4456  0.0541
  976SOL    HW1 2927   1.825   2.709   2.356 -1.4024  0.0647  0.2192
  976SOL    HW2 2928   1.977   2.760   2.404 -0.9738  0.6886  1.2612
  977SOL     OW 2929   0.492   0.682   0.974 -0.1430  0.6884  0.3687
  977SOL    HW1 2930   0.421   0.681   0.895 -0.1641 -0.5269  0.2159
  977SOL    HW2 2931   0.554   0.767   0.973 -2.7179 -0.8522 -0.5413
   3.10000   3.10000   3.10000
