1000 SPC/Fw water molecules t=   1.15000 step= 1150
 2931
    1SOL     OW    1   2.566   0.342   2.606  0.0112  0.3279 -0.7051
    1SOL    HW1    2   2.557   0.241   2.629 -2.3343  1.5596 -0.2502
    1SOL    HW2    3   2.615   0.388   2.682  1.5332 -1.0490  0.2015
    2SOL     OW    4   2.759   3.019   1.382  0.2992 -0.1010 -0.2757
    2SOL    HW1    5   2.837   3.034   1.315  1.8363 -0.5887  1.5627
    2SOL    HW2    6   2.735   3.103   1.433  0.8603 -1.4641 -0.4132
    3SOL     OW    7   2.617   2.608   0.432  0.3052  0.3536 -0.0202
    3SOL    HW1    8   2.586   2.508   0.437 -0.7091 -1.7019  0.1403
    3SOL    HW2    9   2.700   2.626   0.489  2.3978 -1.7475 -1.8465
    4SOL     OW   10   1.229   1.535   2.359  0.0758 -0.4178  0.2471
    4SOL    HW1   11   1.159   1.569   2.297  4.5214  0.3663  0.9777
    4SOL    HW2   12   1.220   1.435   2.380 -1.7303 -0.7643  0.8014
    5SOL     OW   13   1.130   1.566   3.035 -0.1977  0.3282 -0.0420
    5SOL    HW1   14   1.185   1.651   3.028 -0.0639  0.2903 -2.6128
    5SOL    HW2   15   1.031   1.581   3.070  2.6208  1.3261  4.0019
    6SOL     OW   16   0.200   1.752   2.994  0.7993  0.5502  0.3088
    6SOL    HW1   17   0.123   1.784   3.058 -0.3906  1.1373  1.1173
    6SOL    HW2   18   0.276   1.711   3.042 -1.8924 -0.1982  2.0904
    7SOL     OW   19   2.554   0.890   1.059 -0.4210 -0.6185 -0.2566
    7SOL    HW1   20   2.473   0.830   1.085 -0.8875 -2.2810  0.8037
    7SOL    HW2   21   2.551   0.923   0.960 -0.7314 -0.3088 -0.9221
    8SOL     OW   22   0.433   0.608   1.473  0.2505 -0.0574 -0.4753
    8SOL    HW1   23   0.514   0.558   1.514  1.2675 -0.4339  1.8599
    8SOL    HW2   24   0.404   0.564   1.380  0.5898 -0.0329 -0.8957
    9SOL     OW   25   1.206   0.912   2.435 -0.0991 -0.7045 -0.0577
    9SOL    HW1   26   1.246   0.946   2.349 -1.3996  0.4720  0.6477
    9SOL    HW2   27   1.193   0.811   2.420 -0.3574 -0.0684 -1.2140
   10SOL     OW   28   0.661   1.364   1.315  0.4162 -0.1019  0.5035
   10SOL    HW1   29   0.563   1.372   1.279 -1.3582  0.8211  0.9284
   10SOL    HW2   30   0.707   1.463   1.308  0.2496 -1.5383 -1.4970
   11SOL     OW   31   2.320   2.817   0.853 -0.1170 -0.3191  0.3968
   11SOL    HW1   32   2.260   2.808   0.939  2.9514 -0.1108 -2.1811
   11SOL    HW2   33   2.415   2.783   0.865 -1.6974  1.1320  0.8886
   12SOL     OW   34   1.486   0.850   0.418 -1.0551 -0.0775 -0.0686
   12SOL    HW1   35   1.408   0.899   0.371  0.1123 -0.2473  0.0608
   12SOL    HW2   36   1.545   0.791   0.358 -1.0446 -1.3395 -0.2516
   13SOL     OW   37   2.467   0.722   1.783 -0.2087  0.3697  0.1710
   13SOL    HW1   38   2.423   0.657   1.857 -1.3700 -0.2918  2.6334
   13SOL    HW2   39   2.455   0.677   1.688 -0.4779  3.1934 -0.2471
   14SOL     OW   40   1.847   0.093   0.688  0.2728 -0.2790  0.1249
   14SOL    HW1   41   1.762   0.116   0.632  0.6329 -0.2583 -0.4509
   14SOL    HW2   42   1.846   0.000   0.734  0.4580  0.3891  2.3998
   15SOL     OW   43   1.881   2.094   2.736 -1.1041  0.1249 -0.1575
   15SOL    HW1   44   1.843   2.189   2.755  0.9819  0.6467 -0.6015
   15SOL    HW2   45   1.883   2.068   2.637 -1.4944  1.0762  1.6163
   16SOL     OW   46   1.604   1.692   3.005 -0.5766 -0.2997  0.5384
   16SOL    HW1   47   1.602   1.591   3.038 -0.3584  0.8963 -2.5763
   16SOL    HW2   48   1.686   1.748   3.034 -2.6874 -0.0721  0.3713
   17SOL     OW   49   0.062   0.456   0.149  0.0236  0.3031 -0.0548
   17SOL    HW1   50   0.146   0.471   0.082 -1.5648 -2.6787 -2.4638
   17SOL    HW2   51  -0.028   0.499   0.109 -1.9152  0.9346 -0.6438
   18SOL     OW   52   0.927   2.959   2.141  0.2838  0.1118  0.1111
   18SOL    HW1   53   0.835   2.913   2.151  0.7792  1.0375 -0.1585
   18SOL    HW2   54   0.983   2.932   2.052 -1.4278  2.1765 -1.2189
   19SOL     OW   55   0.503   0.820   1.874 -0.6403  0.2688 -0.0184
   19SOL    HW1   56   0.511   0.789   1.976 -2.1107 -0.7982 -0.8947
   19SOL    HW2   57   0.569   0.895   1.852 -2.7883 -0.2095 -2.1247
   20SOL     OW   58   0.190   2.801   0.856  0.3342  0.3796 -0.1382
   20SOL    HW1   59   0.106   2.864   0.837  0.5557 -0.3276  0.5644
   20SOL    HW2   60   0.204   2.728   0.780 -2.0609  0.1208 -0.0449
   21SOL     OW   61   2.699   0.249   1.986  0.3481 -0.1377 -0.4191
   21SOL    HW1   62   2.645   0.166   1.970  1.4683 -0.5775  0.5606
   21SOL    HW2   63   2.795   0.228   2.020 -1.1462 -0.0167 -0.9119
   22SOL     OW   64   2.325   0.225   0.128 -0.0279 -1.6570 -0.4471
   22SOL    HW1   65   2.341   0.124   0.103  0.4608 -0.7064  0.8565
   22SOL    HW2   66   2.288   0.285   0.046 -1.3806 -0.9108 -1.6730
   23SOL     OW   67   2.786   0.592   0.645 -0.0323  0.0819  0.5377
   23SOL    HW1   68   2.813   0.489   0.620 -1.7621 -1.6788  0.8863
   23SOL    HW2   69   2.798   0.663   0.570  2.2871  0.3385  1.1578
   24SOL     OW   70   0.228   1.931   0.435 -0.2705 -0.3519  0.1368
   24SOL    HW1   71   0.185   2.006   0.374 -1.0050 -0.8269  2.3229
   24SOL    HW2   72   0.325   1.900   0.393  1.7643  0.3018  0.6395
   25SOL     OW   73   2.243   0.654   0.220 -0.2346 -0.1807 -1.0273
   25SOL    HW1   74   2.250   0.637   0.117 -0.9644 -0.6286  0.2105
   25SOL    HW2   75   2.301   0.585   0.274 -1.0555 -2.0911  1.3412
   26SOL     OW   76   2.466   2.172   2.046 -0.2962  0.3202 -0.5097
   26SOL    HW1   77   2.553   2.223   2.078 -0.9514 -0.3935 -0.9772
   26SOL    HW2   78   2.483   2.111   1.961 -4.4320 -1.4577 -0.5398
   27SOL     OW   79   0.605   2.899   0.239  0.9181  0.3111  0.9718
   27SOL    HW1   80   0.698   2.945   0.235  1.9785  0.2328  1.5877
   27SOL    HW2   81   0.542   2.925   0.158 -2.8750  0.4085  1.5123
   28SOL     OW   82   1.580   0.173   0.288 -0.0952 -0.1728 -0.3304
   28SOL    HW1   83   1.640   0.139   0.207 -0.6337 -2.1932 -0.8457
   28SOL    HW2   84   1.588   0.275   0.306  0.3953  0.8141 -0.1431
   29SOL     OW   85   1.972   0.579   0.319  0.0227 -0.2803 -0.4640
   29SOL    HW1   86   1.905   0.621   0.389 -1.4046  1.8324  1.6992
   29SOL    HW2   87   2.064   0.630   0.306  0.4187  4.1382  0.5851
   30SOL     OW   88   0.174   2.067   0.919  0.4297  0.2970 -0.1487
   30SOL    HW1   89   0.142   2.009   0.836  0.0863  0.2559 -0.4644
   30SOL    HW2   90   0.102   2.127   0.966  0.9863  1.2782 -1.8454
   31SOL     OW   91   2.128   0.034   2.390 -0.4998  1.1154  0.4927
   31SOL    HW1   92   2.102   0.019   2.489 -1.0969  0.3207  0.9006
   31SOL    HW2   93   2.054   0.012   2.325  1.4349  1.0005 -0.4419
   32SOL     OW   94   2.996   0.022   0.209 -0.1059 -0.1379  0.1258
   32SOL    HW1   95   2.989  -0.082   0.232  0.8788  2.2781  2.9545
   32SOL    HW2   96   3.096   0.052   0.211  1.6242 -1.1140  0.1567
   33SOL     OW   97   0.884   0.338   0.612 -0.0793 -0.1692  0.6906
   33SOL    HW1   98   0.889   0.244   0.570 -0.6977  0.1067  1.3627
   33SOL    HW2   99   0.980   0.377   0.631  2.4869 -0.6644  0.2971
   34SOL     OW  100   0.341   2.715   1.081 -0.0856 -0.2561 -0.1250
   34SOL    HW1  101   0.301   2.760   0.998  2.3606  0.8337  1.6071
   34SOL    HW2  102   0.427   2.766   1.112 -1.4774  0.7122  0.8188
   35SOL     OW  103   0.056   0.103   1.895  0.5914  0.1587 -0.1827
   35SOL    HW1  104   0.081   0.010   1.931  0.9892  0.2973 -0.8828
   35SOL    HW2  105  -0.005   0.093   1.812 -2.8426 -1.1070  1.9574
   36SOL     OW  106   1.912   1.251   1.614 -0.7610  0.0053 -0.4288
   36SOL    HW1  107   1.977   1.174   1.623 -0.8110  4.5585 -0.2739
   36SOL    HW2  108   1.952   1.339   1.577  0.1436 -0.4106  1.5659
   37SOL     OW  109   1.174   0.247   0.968  0.0227  0.3861 -0.0618
   37SOL    HW1  110   1.236   0.317   1.021  2.9078  1.4136 -0.0453
   37SOL    HW2  111   1.236   0.187   0.906  0.9864 -2.5458 -2.3688
   38SOL     OW  112   1.148   2.812   2.390  0.2967 -0.1893  0.0765
   38SOL    HW1  113   1.086   2.725   2.404 -1.6589  1.2395  0.3623
   38SOL    HW2  114   1.097   2.896   2.356 -1.1713  0.3499 -3.7199
   39SOL     OW  115   2.326   1.431   3.062  0.5204 -0.9507  0.0395
   39SOL    HW1  116   2.382   1.344   3.071 -1.1911  0.5364 -0.0110
   39SOL    HW2  117   2.283   1.458   3.155  2.5592 -0.6679 -1.0020
   40SOL     OW  118   2.002   2.455   2.605  0.5000  0.1624  1.3855
   40SOL    HW1  119   1.964   2.554   2.599 -0.7797 -0.3046 -0.0280
   40SOL    HW2  120   1.968   2.390   2.533  1.0374  0.8233  1.5244
   41SOL     OW  121   3.025   0.660   2.801 -0.4137 -0.4342 -0.2379
   41SOL    HW1  122   2.929   0.702   2.809 -0.0624 -0.8239  0.2273
   41SOL    HW2  123   3.019   0.553   2.783  1.7802 -2.8031 -0.7944
   42SOL     OW  124   1.760   1.800   0.482 -0.4679 -0.5770  0.5317
   42SOL    HW1  125   1.709   1.713   0.480 -2.1357  2.1053 -0.0698
   42SOL    HW2  126   1.773   1.837   0.387 -1.6368  4.0441 -0.4538
   43SOL     OW  127   0.418   1.686   1.163  0.1077 -0.1331  0.6374
   43SOL    HW1  128   0.398   1.596   1.213 -0.3216  1.2819 -0.8717
   43SOL    HW2  129   0.342   1.724   1.107 -0.6006 -0.1365 -0.7393
   44SOL     OW  130   1.705   2.358   2.992 -0.4248 -0.5396 -0.4884
   44SOL    HW1  131   1.627   2.429   2.999 -0.4626 -1.6628 -1.1344
   44SOL    HW2  132   1.722   2.330   2.892 -0.3949 -0.5249  2.5816
   45SOL     OW  133   0.349   1.889   2.614 -0.0663 -0.4115 -0.5492
   45SOL    HW1  134   0.310   1.889   2.517 -0.5341 -3.0810 -0.6036
   45SOL    HW2  135   0.393   1.802   2.647 -0.1575  0.7790  1.5649
   46SOL     OW  136   1.287   0.619   0.144  0.0485 -0.1295 -0.0145
   46SOL    HW1  137   1.317   0.700   0.084 -0.5144  0.1254  1.0717
   46SOL    HW2  138   1.188   0.617   0.162  1.5084  0.4636  0.5202
   47SOL     OW  139   0.226   2.517   1.568 -0.4133 -0.1581  0.4177
   47SOL    HW1  140   0.242   2.416   1.563  2.2623 -0.0889 -2.8205
   47SOL    HW2  141   0.213   2.561   1.477  0.2850 -2.8284  3.0491
   48SOL     OW  142   2.633   0.635   0.138 -0.3306 -0.1239 -0.0912
   48SOL    HW1  143   2.616   0.610   0.242  1.5290  0.3662  1.0608
   48SOL    HW2  144   2.728   0.675   0.124 -2.0182  0.9962 -0.0908
   49SOL     OW  145   0.327   0.742   1.700  0.5994 -0.1592 -0.8104
   49SOL    HW1  146   0.403   0.780   1.763  0.0356  1.7104 -4.5233
   49SOL    HW2  147   0.368   0.720   1.607  2.1895  0.4862 -1.1952
   50SOL     OW  148   1.673   1.118   0.348 -0.1697 -0.7284  0.0348
   50SOL    HW1  149   1.697   1.024   0.303  2.3117  1.3732  0.3188
   50SOL    HW2  150   1.665   1.117   0.453  0.7041  0.2321 -1.8903
   51SOL     OW  151   2.979   1.738   0.271  0.6949 -0.3709  0.5189
   51SOL    HW1  152   2.969   1.662   0.198 -0.4058 -0.1203 -2.1403
   51SOL    HW2  153   3.035   1.715   0.357  1.0891 -1.3086 -3.2628
   52SOL     OW  154   0.801   2.129   0.596  0.1414  0.4528  0.3492
   52SOL    HW1  155   0.713   2.137   0.648 -0.7666 -0.2905  2.3602
   52SOL    HW2  156   0.868   2.062   0.641 -1.4249  2.0185 -0.2052
   53SOL     OW  157   0.217   0.445   1.599 -0.8437  1.0141 -0.1386
   53SOL    HW1  158   0.290   0.513   1.566 -2.1974  0.7683  1.0622
   53SOL    HW2  159   0.126   0.481   1.569 -0.4477 -1.0236 -0.8142
   54SOL     OW  160   1.819   0.494   3.045 -0.2333  0.0725 -0.8792
   54SOL    HW1  161   1.883   0.429   3.097  1.1630  0.3140 -0.7323
   54SOL    HW2  162   1.716   0.471   3.074 -2.2315 -1.2874  2.4804
   55SOL     OW  163   0.778   2.889   0.674  0.2557  0.2706 -0.7164
   55SOL    HW1  164   0.739   2.984   0.655 -2.7455 -0.4554  0.1686
   55SOL    HW2  165   0.879   2.885   0.640  0.1838 -0.9244  0.0676
   56SOL     OW  166   0.607   1.600   0.018 -0.5639  0.8378  0.1141
   56SOL    HW1  167   0.529   1.643   0.075 -0.1945 -2.2627  1.2927
   56SOL    HW2  168   0.572   1.522  -0.041 -0.5970  0.4065  1.3054
   57SOL     OW  169   1.723   2.514   2.342 -0.4025 -0.1314  0.4246
   57SOL    HW1  170   1.786   2.431   2.341 -3.9898  3.0670  0.2543
   57SOL    HW2  171   1.658   2.517   2.422 -1.5809 -0.1078  0.8758
   58SOL     OW  172   0.688   0.297   1.066 -0.0635 -0.1574 -0.2352
   58SOL    HW1  173   0.596   0.307   1.113 -0.2032  0.9962  1.9465
   58SOL    HW2  174   0.720   0.202   1.067 -0.7856  0.6891 -2.3862
   59SOL     OW  175   0.399   2.313   2.726 -0.1428  0.5310 -0.2556
   59SOL    HW1  176   0.448   2.227   2.705 -0.5411  2.3388  1.7801
   59SOL    HW2  177   0.454   2.363   2.799  0.6471 -0.4925  2.8185
   60SOL     OW  178   2.319   2.097   2.302 -0.1064  0.0281  0.1420
   60SOL    HW1  179   2.346   2.138   2.209  0.1445 -1.3850  2.4218
   60SOL    HW2  180   2.370   2.132   2.388 -0.2871 -1.9532  1.1553
   61SOL     OW  181   1.262   0.585   0.437 -0.1672 -0.1416 -0.4859
   61SOL    HW1  182   1.179   0.643   0.469 -1.2838  3.4572 -2.0529
   61SOL    HW2  183   1.284   0.593   0.331 -1.0520 -0.2978 -0.2415
   62SOL     OW  184   2.722   1.764   2.920  0.4602 -0.4981 -0.1701
   62SOL    HW1  185   2.670   1.774   2.829  0.2916 -0.7161 -0.5199
   62SOL    HW2  186   2.768   1.673   2.926 -3.2141 -0.8502 -1.7373
   63SOL     OW  187   0.526   0.816   0.208  0.2117 -0.0598  0.0343
   63SOL    HW1  188   0.579   0.898   0.171  0.0465  0.4242 -2.3404
   63SOL    HW2  189   0.533   0.799   0.311  1.4093  2.5592  1.5614
   64SOL     OW  190   0.020   0.456   2.460 -0.4436  1.0006  0.1054
   64SOL    HW1  191   0.088   0.501   2.522 -3.2618 -0.1706  3.3589
   64SOL    HW2  192  -0.003   0.505   2.372  3.0204 -3.4527  1.3646
   65SOL     OW  193   0.184   1.504   0.627  0.5870  0.1419  0.6593
   65SOL    HW1  194   0.203   1.551   0.714 -0.3456  1.5400  0.7367
   65SOL    HW2  195   0.264   1.500   0.560 -2.0103 -0.7526 -0.8976
   66SOL     OW  196   2.535   0.370   0.561 -0.2136  0.6148 -0.4291
   66SOL    HW1  197   2.631   0.335   0.563 -0.4637  0.6544 -0.1313
   66SOL    HW2  198   2.487   0.362   0.653  0.1047 -2.5514  2.8206
   67SOL     OW  199   0.573   2.469   1.426  0.6028 -0.0568 -0.7362
   67SOL    HW1  200   0.663   2.437   1.462  1.0354 -0.5905 -3.0264
   67SOL    HW2  201   0.500   2.394   1.423  0.4268 -1.2913  0.6843
   68SOL     OW  202   0.967   1.035   2.530 -0.1000 -0.3033 -0.1684
   68SOL    HW1  203   1.064   1.007   2.493 -0.2471  0.4451  2.0437
   68SOL    HW2  204   0.895   1.058   2.454  1.5455 -0.2421  1.1010
   69SOL     OW  205   0.700   2.801   2.161 -0.3213  0.1505  0.3002
   69SOL    HW1  206   0.733   2.704   2.149  2.6756  0.9575  0.7654
   69SOL    HW2  207   0.600   2.809   2.155  3.8545 -1.3411  0.4112
   70SOL     OW  208   0.488   0.172   2.585  0.0324 -0.4234 -0.4614
   70SOL    HW1  209   0.390   0.174   2.621  0.0511 -0.1975 -0.6898
   70SOL    HW2  210   0.536   0.088   2.618  0.8617 -1.9048  0.3783
   71SOL     OW  211   1.108   1.808   0.384 -0.1036  0.3927  0.1467
   71SOL    HW1  212   1.034   1.753   0.431  1.5847  0.9050 -1.9300
   71SOL    HW2  213   1.077   1.829   0.286 -3.1756  0.2045 -1.8107
   72SOL     OW  214   1.808   0.204   2.161  0.0725 -0.2212 -0.0038
   72SOL    HW1  215   1.879   0.283   2.140  1.0720  3.7950 -0.8081
   72SOL    HW2  216   1.861   0.116   2.180 -2.1510  1.8426  1.6434
   73SOL     OW  217   2.818   2.197   2.392  0.0939 -0.0590  0.1377
   73SOL    HW1  218   2.792   2.103   2.370 -0.2360  0.7243 -0.6197
   73SOL    HW2  219   2.875   2.205   2.482  0.8363  0.9084  1.3211
   74SOL     OW  220   2.658   2.855   2.188 -0.2955  0.3342  0.2415
   74SOL    HW1  221   2.608   2.819   2.277 -3.2375 -1.3471  0.1356
   74SOL    HW2  222   2.759   2.859   2.193 -2.0907 -3.8167 -1.1963
   75SOL     OW  223   0.972   0.841   1.096 -0.4010  0.0493 -0.7977
   75SOL    HW1  224   0.892   0.886   1.050  0.4089  0.3011  0.1017
   75SOL    HW2  225   1.005   0.873   1.190  0.5017  1.2568 -0.7222
   76SOL     OW  226   1.769   1.195   2.482  0.3660  0.2116  0.1567
   76SOL    HW1  227   1.664   1.185   2.460 -2.3796  1.9428 -1.3898
   76SOL    HW2  228   1.796   1.293   2.508  2.9991  1.7525 -3.8213
   77SOL     OW  229   2.937   0.945   1.020  0.0970 -0.3931  0.3091
   77SOL    HW1  230   2.921   0.847   0.990  1.2544  0.3329 -0.1105
   77SOL    HW2  231   3.010   0.953   1.093  1.6173  0.7979  0.0335
   78SOL     OW  232   1.994   1.487   1.480 -0.1866  0.0075  0.8030
   78SOL    HW1  233   2.091   1.482   1.441  1.0090 -3.0240  1.1543
   78SOL    HW2  234   1.927   1.547   1.432  1.2379  1.9926  0.7556
   79SOL     OW  235   0.625   1.416   0.790  0.1364  0.3013  0.2474
   79SOL    HW1  236   0.526   1.403   0.813  1.9711 -0.6058 -0.6706
   79SOL    HW2  237   0.662   1.366   0.700 -0.2071 -3.2220 -0.2800
   80SOL     OW  238   0.665   0.454   1.539  0.1633 -0.2984 -0.0111
   80SOL    HW1  239   0.698   0.515   1.463 -2.2468 -0.3927 -1.6800
   80SOL    HW2  240   0.652   0.353   1.509  0.1699 -0.0196 -0.5504
   81SOL     OW  241   1.049   1.302   2.624 -0.2459 -0.3190 -0.1228
   81SOL    HW1  242   1.048   1.200   2.631 -2.5306  0.4544 -0.1336
   81SOL    HW2  243   0.970   1.340   2.572 -1.2727 -2.0211 -1.0766
   82SOL     OW  244   0.936   3.006   1.517 -0.4964 -0.1499 -0.3104
   82SOL    HW1  245   0.842   2.967   1.495 -1.8536 -1.4616  1.5180
   82SOL    HW2  246   1.006   2.991   1.443 -0.5170 -0.1677 -0.3984
   83SOL     OW  247   2.625   2.386   0.844 -0.0303 -0.2083  0.4090
   83SOL    HW1  248   2.523   2.402   0.864 -2.3705  2.2448  1.5856
   83SOL    HW2  249   2.637   2.341   0.757  0.5396  0.3556  1.4153
   84SOL     OW  250   0.681   3.074   2.386  0.6785  0.1269 -0.5194
   84SOL    HW1  251   0.620   3.077   2.471 -1.3795  0.9937 -0.9611
   84SOL    HW2  252   0.737   2.990   2.382 -0.2928  3.4388 -2.8575
   85SOL     OW  253   0.278   1.605   1.435 -0.2006  0.1491  0.1530
   85SOL    HW1  254   0.231   1.700   1.436 -0.4357  1.4665 -0.1634
   85SOL    HW2  255   0.349   1.588   1.515 -0.9499 -1.3787 -1.0597
   86SOL     OW  256   0.469   1.070   1.481  0.2553  0.4811 -0.6411
   86SOL    HW1  257   0.417   1.007   1.417  0.2557  1.3537 -1.5669
   86SOL    HW2  258   0.565   1.042   1.505 -0.2068  0.0284 -2.5607
   87SOL     OW  259   1.640   0.657   0.261  0.6086 -0.0203  0.3759
   87SOL    HW1  260   1.699   0.734   0.218  2.2876  2.2498  0.9929
   87SOL    HW2  261   1.584   0.616   0.189  0.0485  1.4067  0.3308
   88SOL     OW  262   1.575   1.368   0.280  1.1004  0.3957 -0.2202
   88SOL    HW1  263   1.623   1.275   0.278  1.2169 -1.3630  0.7758
   88SOL    HW2  264   1.471   1.356   0.271 -1.8148 -2.0225  2.3330
   89SOL     OW  265   3.097   0.417   0.586  0.0113 -0.9577  0.1406
   89SOL    HW1  266   3.156   0.343   0.555 -0.3332  0.4544 -0.7692
   89SOL    HW2  267   2.997   0.394   0.578  1.1242  0.0038  1.3398
   90SOL     OW  268   0.891   1.573   0.058 -0.0292  0.4713  0.2278
   90SOL    HW1  269   0.914   1.475   0.071 -0.0754 -0.7096 -1.0875
   90SOL    HW2  270   0.789   1.587   0.036 -1.3100 -1.3463  3.1839
   91SOL     OW  271   1.224   1.473   1.781 -0.0757 -0.4856 -0.2176
   91SOL    HW1  272   1.189   1.564   1.824 -1.3478 -0.4021  0.7032
   91SOL    HW2  273   1.328   1.458   1.798 -2.5390  0.7919  0.7505
   92SOL     OW  274   3.095   0.957   1.233 -0.1689 -0.0375  0.3298
   92SOL    HW1  275   3.164   1.028   1.206 -0.2410 -0.6563  0.0697
   92SOL    HW2  276   3.103   0.947   1.335  1.7899  0.9828  0.0984
   93SOL     OW  277   3.075   2.729   0.052 -0.1105 -0.3411  0.0025
   93SOL    HW1  278   3.037   2.712  -0.042  1.7553 -1.0756  2.0036
   93SOL    HW2  279   3.102   2.642   0.103 -1.2052  0.7760 -1.4519
   94SOL     OW  280   1.506   1.473   1.822  0.0524 -0.0420  0.0285
   94SOL    HW1  281   1.569   1.389   1.821  1.8490  2.4014  0.3756
   94SOL    HW2  282   1.551   1.552   1.866  1.6440 -1.5434  1.1086
   95SOL     OW  283   1.474   2.507   2.978  0.6860  0.2098 -0.4084
   95SOL    HW1  284   1.399   2.545   3.036  2.3455 -1.1844 -1.5391
   95SOL    HW2  285   1.444   2.415   2.930  0.8489 -1.6099 -0.2526
   96SOL     OW  286   0.560   2.097   1.309  0.0698 -0.0869 -0.5788
   96SOL    HW1  287   0.516   2.030   1.242 -1.6254 -0.6454  2.0223
   96SOL    HW2  288   0.620   2.046   1.379 -0.0706 -1.6160 -0.1303
   97SOL     OW  289   0.309   1.627   2.446 -0.1015  0.0455  0.1602
   97SOL    HW1  290   0.238   1.667   2.385 -2.2707 -0.3422 -0.8952
   97SOL    HW2  291   0.282   1.639   2.543  0.2219  1.3057 -0.7785
   98SOL     OW  292   2.104   1.615   1.187  0.0192 -0.7299  0.4570
   98SOL    HW1  293   2.005   1.579   1.190 -2.0871 -1.5676  0.5508
   98SOL    HW2  294   2.167   1.542   1.149  0.4413 -0.6408 -2.1528
   99SOL     OW  295   2.549   2.064   1.306  0.2530  0.5003 -0.0819
   99SOL    HW1  296   2.635   2.034   1.355  1.1685 -2.4837 -0.4935
   99SOL    HW2  297   2.480   1.984   1.291 -0.4767  0.1866 -1.6464
  100SOL     OW  298   2.296   0.415   2.094 -0.0521  0.3103 -0.2551
  100SOL    HW1  299   2.274   0.378   2.189 -0.6724 -4.5740 -0.1020
  100SOL    HW2  300   2.393   0.456   2.090  2.2711  1.9257 -1.1806
  101SOL     OW  301   0.435   1.496   0.466  0.6729  0.4318 -0.1721
  101SOL    HW1  302   0.442   1.566   0.545  3.4528  1.1529  0.5473
  101SOL    HW2  303   0.513   1.502   0.401 -1.9483 -0.6312 -0.9398
  102SOL     OW  304   2.262   1.059   0.820 -0.2238  0.4171  0.0654
  102SOL    HW1  305   2.186   1.026   0.756  2.8645  1.2474  1.6783
  102SOL    HW2  306   2.331   1.111   0.766  0.4033  0.8756  1.0997
  103SOL     OW  307   2.212   0.099   0.381  0.0313  0.2893  0.3731
  103SOL    HW1  308   2.223   0.167   0.306  1.3246 -1.5910 -1.6415
  103SOL    HW2  309   2.302   0.079   0.432 -0.4248  2.6681 -0.6045
  104SOL     OW  310   0.085   1.840   2.124 -0.5129  0.8601 -0.1674
  104SOL    HW1  311   0.126   1.837   2.026 -1.4711 -0.1150 -1.8568
  104SOL    HW2  312  -0.015   1.859   2.129  2.7112 -0.4482  0.5753
  105SOL     OW  313   1.275   2.110   0.789  0.0007  0.0100  0.3300
  105SOL    HW1  314   1.348   2.158   0.737 -2.0201  2.5448  1.2431
  105SOL    HW2  315   1.199   2.075   0.729  0.4393  2.5334 -1.1525
  106SOL     OW  316   2.133   0.362   1.400  0.1412 -0.3506  0.2680
  106SOL    HW1  317   2.097   0.267   1.407 -0.5203  1.4779  0.6108
  106SOL    HW2  318   2.108   0.415   1.483 -0.7066 -0.4330 -1.9840
  107SOL     OW  319   1.913   2.942   1.231  0.0904 -0.0936 -0.0464
  107SOL    HW1  320   1.888   3.037   1.273 -2.4993  0.7577  0.5275
  107SOL    HW2  321   1.836   2.907   1.166 -0.6040 -2.0780 -0.7571
  108SOL     OW  322   0.809   2.803   1.268  0.3684  0.1521 -0.5752
  108SOL    HW1  323   0.832   2.702   1.275  0.4443  1.2191  1.7883
  108SOL    HW2  324   0.897   2.856   1.262 -0.8844 -2.7295 -0.0099
  109SOL     OW  325   2.108   0.129   0.754 -0.0525  0.3320 -0.1517
  109SOL    HW1  326   2.008   0.128   0.722 -0.0355 -0.6364 -1.1005
  109SOL    HW2  327   2.120   0.084   0.848 -1.5774 -1.6752 -0.7702
  110SOL     OW  328   0.483   2.809   2.754 -0.5031 -0.2462  0.0202
  110SOL    HW1  329   0.448   2.768   2.667  0.7383 -0.2781  1.1248
  110SOL    HW2  330   0.533   2.736   2.817  0.4124 -0.5954  2.4227
  111SOL     OW  331   1.252   0.470   2.342 -0.3509  0.0744  0.2473
  111SOL    HW1  332   1.178   0.522   2.403 -1.0309  1.0813  1.3438
  111SOL    HW2  333   1.324   0.422   2.398 -0.2679 -1.2901 -0.8808
  112SOL     OW  334   1.756   0.484   1.491  0.2780 -0.5024  0.3033
  112SOL    HW1  335   1.738   0.472   1.388 -0.3157  0.2558  0.6156
  112SOL    HW2  336   1.679   0.446   1.557 -0.6509  0.0676 -1.8754
  113SOL     OW  337   2.389   1.624   1.749 -0.1552 -0.4022 -0.2794
  113SOL    HW1  338   2.448   1.542   1.744  0.4331  0.0373 -1.3960
  113SOL    HW2  339   2.376   1.655   1.843  1.9189  1.3318 -0.6847
  114SOL     OW  340   0.326   0.537   1.229  0.2474  0.7521 -0.4384
  114SOL    HW1  341   0.394   0.596   1.185 -2.4406 -1.2238  0.2983
  114SOL    HW2  342   0.229   0.576   1.249 -0.2256 -3.2804  0.1524
  115SOL     OW  343   2.757   1.625   1.232  0.2454 -0.0748  0.9163
  115SOL    HW1  344   2.709   1.536   1.259  0.2620 -3.0171  3.7587
  115SOL    HW2  345   2.858   1.606   1.199 -0.4604 -1.7183  1.1493
  116SOL     OW  346   1.808   1.033   0.617  0.2547  0.4663  0.5333
  116SOL    HW1  347   1.732   0.970   0.636  0.6852  3.9296  0.8523
  116SOL    HW2  348   1.791   1.118   0.668  5.1819 -1.7167  0.3698
  117SOL     OW  349   1.166   0.377   0.568 -0.4606 -0.1259  0.7300
  117SOL    HW1  350   1.195   0.467   0.529 -1.0388 -3.9211  2.8456
  117SOL    HW2  351   1.134   0.313   0.487 -0.5389 -0.7334 -1.6512
  118SOL     OW  352   1.078   1.184   1.131 -0.3873  0.1403  0.3227
  118SOL    HW1  353   1.051   1.108   1.193  0.5063 -2.3513  1.0211
  118SOL    HW2  354   1.135   1.258   1.175 -2.4365  1.9125  0.1538
  119SOL     OW  355   1.817   1.572   2.164  0.0310 -0.1781  0.5079
  119SOL    HW1  356   1.795   1.672   2.152  0.9629  0.5939  0.1732
  119SOL    HW2  357   1.911   1.549   2.122  0.0772 -1.8658 -2.0595
  120SOL     OW  358   2.915   2.854   0.247 -0.7643 -0.2448 -0.2935
  120SOL    HW1  359   2.999   2.813   0.200  0.0425 -0.3178 -1.0303
  120SOL    HW2  360   2.825   2.798   0.230 -0.2447 -1.1846  0.8827
  121SOL     OW  361   1.922   0.731   2.215 -0.5111 -0.2938 -0.4602
  121SOL    HW1  362   1.947   0.799   2.139  2.0747 -1.0166  0.6529
  121SOL    HW2  363   1.947   0.633   2.195  0.1587 -0.9502  0.9705
  122SOL     OW  364   2.685   2.580   1.332 -0.5744  0.0286  0.0547
  122SOL    HW1  365   2.709   2.533   1.238 -2.1876 -2.0700 -0.6429
  122SOL    HW2  366   2.595   2.540   1.363 -0.2500 -2.9569  2.1631
  123SOL     OW  367   1.743   0.042   1.706 -0.6822  0.0775 -0.2183
  123SOL    HW1  368   1.746  -0.050   1.656 -1.3924 -0.3823  0.6866
  123SOL    HW2  369   1.836   0.074   1.730  1.6150  3.1789 -1.9503
  124SOL     OW  370   0.042   0.452   1.100 -0.7103 -0.3432 -0.7457
  124SOL    HW1  371   0.062   0.522   1.174  0.8451  0.3497  1.6521
  124SOL    HW2  372   0.015   0.494   1.006 -0.6119  1.4241  0.9536
  125SOL     OW  373   0.899   1.893   0.743  0.4364  0.5106  0.3363
  125SOL    HW1  374   0.972   1.820   0.762  0.6190 -0.0007 -0.0514
  125SOL    HW2  375   0.819   1.893   0.811  0.6357 -1.4101 -0.8787
  126SOL     OW  376   1.833   2.277   2.415 -0.0018  0.0969 -0.1021
  126SOL    HW1  377   1.878   2.240   2.328  2.0463  1.4332 -1.2629
  126SOL    HW2  378   1.755   2.226   2.455  0.2267  2.2710 -0.1803
  127SOL     OW  379   0.926   0.937   0.175 -0.3796  0.4462  0.1146
  127SOL    HW1  380   0.948   0.972   0.271  2.9445  0.9000 -0.5392
  127SOL    HW2  381   0.931   0.835   0.178  2.1367  3.6732 -0.3558
  128SOL     OW  382   0.906   0.250   1.401 -0.0448  1.0048  0.2812
  128SOL    HW1  383   0.920   0.325   1.333  1.1318 -0.4420  3.4931
  128SOL    HW2  384   0.830   0.177   1.381  0.0069  2.3167 -0.3492
  129SOL     OW  385   1.868   0.677   1.870 -0.0931 -0.0742 -0.2823
  129SOL    HW1  386   1.843   0.686   1.771  1.4655 -0.8828  2.2613
  129SOL    HW2  387   1.879   0.765   1.915 -0.4596 -1.0635 -0.8045
  130SOL     OW  388   1.423   2.147   1.037  0.1612  0.1324 -0.0603
  130SOL    HW1  389   1.370   2.113   0.952  0.2496  2.4299 -2.1387
  130SOL    HW2  390   1.487   2.224   1.006 -2.5199 -0.0811  1.0004
  131SOL     OW  391   3.018   1.367   1.382  0.4445 -0.9638  0.0908
  131SOL    HW1  392   2.977   1.286   1.439  1.2308 -0.9079  1.7111
  131SOL    HW2  393   3.125   1.362   1.366  1.1027 -3.5057  2.1337
  132SOL     OW  394   2.038   2.421   0.461 -0.3729 -0.2409 -0.3930
  132SOL    HW1  395   1.936   2.433   0.475  3.1702 -0.2665  0.2708
  132SOL    HW2  396   2.082   2.386   0.549  1.3772  2.4901  2.2978
  133SOL     OW  397   1.758   2.343   2.727 -0.2106  0.1552 -0.0074
  133SOL    HW1  398   1.694   2.402   2.669 -1.4242 -3.2539  0.3105
  133SOL    HW2  399   1.854   2.382   2.735 -1.8748 -0.2752 -1.2071
  134SOL     OW  400   2.681   2.273   1.594  0.0319 -0.5272 -0.2057
  134SOL    HW1  401   2.599   2.266   1.657  1.5563  0.7162  2.0857
  134SOL    HW2  402   2.735   2.361   1.602  0.0629 -0.7730 -0.0364
  135SOL     OW  403   0.724   1.465   2.679 -0.1011  0.3546 -0.1569
  135SOL    HW1  404   0.658   1.391   2.713  0.7609 -0.5101 -0.4244
  135SOL    HW2  405   0.767   1.430   2.591  1.7145 -0.9126 -1.2078
  136SOL     OW  406   1.233   2.031   0.491 -0.4265  0.0008  0.1851
  136SOL    HW1  407   1.170   2.114   0.489 -0.3227 -2.1634 -2.2495
  136SOL    HW2  408   1.188   1.941   0.468  2.5059 -1.1910 -2.2435
  137SOL     OW  409   0.435   1.198   2.254 -0.0147 -0.0757 -0.3625
  137SOL    HW1  410   0.335   1.203   2.262 -1.5175  2.0530  2.1568
  137SOL    HW2  411   0.477   1.103   2.247 -0.5958 -0.2248  3.3546
  138SOL     OW  412   2.503   1.509   0.268  0.0754 -0.3710  0.1279
  138SOL    HW1  413   2.415   1.466   0.233 -1.6839 -0.1825 -1.5532
  138SOL    HW2  414   2.584   1.446   0.274  2.6900 -0.1099 -0.7285
  139SOL     OW  415   1.908   2.626   1.435  0.3209 -0.0069  1.2212
  139SOL    HW1  416   1.839   2.675   1.374 -0.6833 -1.1237  0.8851
  139SOL    HW2  417   1.897   2.520   1.422  1.3606  1.3363  2.3237
  140SOL     OW  418   3.022   2.985   2.537  0.3291  0.4272  0.3728
  140SOL    HW1  419   3.077   2.899   2.533 -1.3685  3.3881 -0.7745
  140SOL    HW2  420   3.075   3.069   2.511 -0.2649 -0.5740  1.1353
  141SOL     OW  421   1.310   1.707   1.644 -0.1588 -0.2318  0.3892
  141SOL    HW1  422   1.216   1.734   1.611 -0.0630 -1.3460  1.1264
  141SOL    HW2  423   1.315   1.625   1.707 -0.5224  1.4301  2.2649
  142SOL     OW  424   1.547   0.589   2.247  0.3716 -0.4641 -0.1734
  142SOL    HW1  425   1.568   0.572   2.148 -2.5564  0.5215  0.4464
  142SOL    HW2  426   1.450   0.566   2.265 -1.1401  0.0680 -1.8898
  143SOL     OW  427   2.767   0.909   0.511  0.3639 -0.0206 -0.1349
  143SOL    HW1  428   2.836   0.934   0.438  1.1221 -0.3515 -0.1010
  143SOL    HW2  429   2.808   0.934   0.600  0.1352 -0.9384  1.7653
  144SOL     OW  430   2.883   1.165   1.520  0.4823 -0.6016 -0.1559
  144SOL    HW1  431   2.802   1.149   1.582  2.9080  0.0628 -1.5404
  144SOL    HW2  432   2.959   1.095   1.539 -0.7064  0.3599  0.8621
  145SOL     OW  433   1.024   1.804   0.120 -0.4085 -0.6664 -0.3073
  145SOL    HW1  434   1.111   1.831   0.067 -1.3858  0.0404 -1.0610
  145SOL    HW2  435   0.977   1.715   0.091 -1.4917  2.2787 -0.9642
  146SOL     OW  436   2.453   0.666   1.518 -0.1237 -0.4572 -0.3425
  146SOL    HW1  437   2.421   0.584   1.469 -3.6739  2.9076 -2.1436
  146SOL    HW2  438   2.426   0.750   1.466  3.5564 -0.9130  1.4122
  147SOL     OW  439   1.105   2.573   0.621  0.0158  0.0424  0.2243
  147SOL    HW1  440   1.061   2.609   0.535 -1.3666 -0.6945 -0.0804
  147SOL    HW2  441   1.183   2.511   0.607 -2.2491  2.3872 -2.0083
  148SOL     OW  442   1.626   1.438   0.010  0.1387  0.0333 -0.2322
  148SOL    HW1  443   1.621   1.355  -0.050  1.7137 -0.4562  2.2100
  148SOL    HW2  444   1.599   1.418   0.109  2.3248 -0.1411  0.0141
  149SOL     OW  445   0.642   1.468   1.931  0.1866  0.3774 -0.6705
  149SOL    HW1  446   0.574   1.418   1.994 -0.6131  2.1655 -0.1439
  149SOL    HW2  447   0.705   1.403   1.873  0.6136  0.3460 -1.5154
  150SOL     OW  448   3.034   1.225   0.983 -0.5146  0.0818  0.3499
  150SOL    HW1  449   3.105   1.175   1.040  0.2958  0.0310  1.3633
  150SOL    HW2  450   2.952   1.162   0.985 -0.6387  0.7401  0.0537
  151SOL     OW  451   0.156   0.701   2.109  0.6260  0.1987 -0.3751
  151SOL    HW1  452   0.132   0.792   2.064  1.7232  0.7538  0.1325
  151SOL    HW2  453   0.239   0.655   2.064  1.8836  0.5529  0.9575
  152SOL     OW  454   1.452   1.785   1.165  0.2822 -0.0252 -0.4247
  152SOL    HW1  455   1.507   1.869   1.163 -0.5493 -3.0292  2.2001
  152SOL    HW2  456   1.349   1.798   1.177 -1.4648 -0.5116  0.7034
  153SOL     OW  457   0.150   1.557   0.220  0.5917 -0.1448  0.1974
  153SOL    HW1  458   0.125   1.454   0.205 -0.4883  0.9902  0.0039
  153SOL    HW2  459   0.103   1.598   0.306  0.5887  1.1930  0.4398
  154SOL     OW  460   2.358   1.907   2.850  0.2184  0.1237 -0.3704
  154SOL    HW1  461   2.374   1.813   2.894 -0.0598  1.5749 -2.8239
  154SOL    HW2  462   2.424   1.928   2.776 -0.8628  1.9920 -0.2253
  155SOL     OW  463   2.525   1.138   0.396 -0.2623 -0.5481  0.1261
  155SOL    HW1  464   2.602   1.141   0.325 -1.7332  1.9433 -0.8998
  155SOL    HW2  465   2.444   1.085   0.374  1.4182  0.5204  1.9356
  156SOL     OW  466   2.468   0.854   0.757  0.0373 -0.6561 -0.4873
  156SOL    HW1  467   2.372   0.851   0.792  0.8402  0.9171 -2.1992
  156SOL    HW2  468   2.482   0.867   0.655  2.0647  0.9783 -1.7512
  157SOL     OW  469   1.232   3.005   2.978 -0.3333  0.1737  0.8132
  157SOL    HW1  470   1.305   2.962   2.911 -0.1548 -1.5274 -0.6452
  157SOL    HW2  471   1.266   3.089   3.026  0.1532 -2.4404 -0.7410
  158SOL     OW  472   0.975   1.874   1.876  0.2929 -0.5109 -0.5870
  158SOL    HW1  473   1.019   1.966   1.846 -0.2630  0.0259  0.4769
  158SOL    HW2  474   0.900   1.895   1.947 -0.0045 -2.6781  0.9336
  159SOL     OW  475   0.889   0.453   1.195 -0.1412 -0.1217  0.0748
  159SOL    HW1  476   0.836   0.528   1.254  0.9587  0.1271 -3.1015
  159SOL    HW2  477   0.827   0.390   1.142  0.4173  1.3899  1.3400
  160SOL     OW  478   1.365   2.461   1.573  0.3314 -0.0631 -0.1671
  160SOL    HW1  479   1.333   2.377   1.628  0.6645 -1.1528 -0.6842
  160SOL    HW2  480   1.471   2.478   1.572 -0.3086 -0.0867  0.2843
  161SOL     OW  481   3.084   2.881   0.455  0.0726 -1.0512  0.0743
  161SOL    HW1  482   3.048   2.793   0.495  1.5321 -2.0116  3.5480
  161SOL    HW2  483   3.025   2.912   0.374 -1.6342  0.5055 -3.6208
  162SOL     OW  484   2.591   1.837   0.489 -0.3586 -0.4331  0.3115
  162SOL    HW1  485   2.549   1.796   0.405  1.6825  0.3455 -0.2534
  162SOL    HW2  486   2.611   1.757   0.549  1.6701  0.1898 -2.7175
  163SOL     OW  487   1.975   2.716   0.726 -0.1577  0.1142 -0.4329
  163SOL    HW1  488   1.937   2.735   0.632 -1.2447 -0.9152  0.8350
  163SOL    HW2  489   2.020   2.621   0.742  0.4000  0.3791  1.0178
  164SOL     OW  490   3.058   0.193   1.269  0.5058  0.0647  0.6549
  164SOL    HW1  491   3.102   0.275   1.212 -2.4414  1.8228 -2.0038
  164SOL    HW2  492   3.132   0.157   1.339  2.6389  2.5699  1.1622
  165SOL     OW  493   1.021   1.398   0.755  0.4367  0.1315 -0.1797
  165SOL    HW1  494   0.971   1.439   0.836  1.2775  4.1206 -0.9054
  165SOL    HW2  495   1.020   1.455   0.667  0.8788 -0.9694  1.4844
  166SOL     OW  496   1.598   1.009   1.811  0.0532  0.1785 -0.3142
  166SOL    HW1  497   1.498   0.993   1.832  1.2223 -0.4605 -0.3730
  166SOL    HW2  498   1.634   1.106   1.811  1.4763 -2.5895  1.2259
  167SOL     OW  499   0.753   1.977   1.467 -0.4203 -0.2017 -0.5158
  167SOL    HW1  500   0.776   2.047   1.546 -0.6337  1.7554 -1.3551
  167SOL    HW2  501   0.692   1.892   1.498 -0.3717 -0.9779  0.8234
  168SOL     OW  502   1.612   2.349   0.166 -0.0690 -0.4647  0.5498
  168SOL    HW1  503   1.669   2.344   0.078 -1.8869  0.8525 -0.5664
  168SOL    HW2  504   1.653   2.311   0.254 -2.9608  1.4558  1.5847
  169SOL     OW  505   0.187   2.568   2.238  0.0254 -0.2073  0.2550
  169SOL    HW1  506   0.188   2.514   2.148  2.6420 -0.9717 -1.7118
  169SOL    HW2  507   0.183   2.519   2.327 -0.0417  3.0511  1.0511
  170SOL     OW  508   1.113   0.236   2.005 -0.1082  0.4313  0.0018
  170SOL    HW1  509   1.183   0.193   2.063  0.8796  0.6073 -0.7287
  170SOL    HW2  510   1.138   0.231   1.907 -0.4414  0.1874  3.9336
  171SOL     OW  511   0.175   0.791   2.363 -0.1546  0.1345 -0.0266
  171SOL    HW1  512   0.097   0.827   2.417 -1.2569  1.1872 -0.0365
  171SOL    HW2  513   0.149   0.770   2.268 -0.6701  1.5839  1.9171
  172SOL     OW  514   0.967   0.976   2.882  0.6111  0.1854  0.0835
  172SOL    HW1  515   0.943   1.020   2.975 -0.7370  1.1030 -0.6029
  172SOL    HW2  516   0.901   1.006   2.803  0.3579  0.9803 -2.6108
  173SOL     OW  517   0.561   2.526   0.118 -0.2875 -0.4482  0.0050
  173SOL    HW1  518   0.516   2.483   0.036 -0.9441 -1.1529  1.3777
  173SOL    HW2  519   0.482   2.573   0.167 -2.1336 -1.0166 -3.9400
  174SOL     OW  520   1.521   2.799   1.020 -0.3210  0.4113 -0.0808
  174SOL    HW1  521   1.565   2.862   0.953  1.9357  1.6132  0.9679
  174SOL    HW2  522   1.502   2.698   0.987  0.4943  1.0228  1.5057
  175SOL     OW  523   0.481   3.059   1.722 -0.1491 -0.2472 -0.2123
  175SOL    HW1  524   0.565   3.036   1.783 -0.7632  0.2707  0.9473
  175SOL    HW2  525   0.445   3.157   1.736  0.5042 -0.0973 -0.0418
  176SOL     OW  526   2.535   0.379   0.022 -0.0298 -0.2659 -0.1382
  176SOL    HW1  527   2.581   0.460   0.060  1.2015  0.1682  1.5111
  176SOL    HW2  528   2.468   0.338   0.085  0.7026  2.3372 -0.7272
  177SOL     OW  529   0.300   0.317   0.932 -0.0944 -0.3863  0.5131
  177SOL    HW1  530   0.268   0.219   0.916  0.2239 -0.1434 -2.7004
  177SOL    HW2  531   0.236   0.386   0.972  1.3759  0.7377 -1.4236
  178SOL     OW  532   0.038   2.740   2.592  0.0252 -0.3177  0.6726
  178SOL    HW1  533   0.037   2.646   2.544 -0.6802 -3.1572  0.1219
  178SOL    HW2  534   0.099   2.747   2.673 -2.2662 -0.7790  1.5125
  179SOL     OW  535   3.015   1.579   1.162  0.3474 -0.1399 -0.1455
  179SOL    HW1  536   3.035   1.555   1.061 -0.2156 -1.1416 -0.2633
  179SOL    HW2  537   3.009   1.498   1.225  0.9511  0.5639 -0.8825
  180SOL     OW  538   0.186   1.301   1.807 -0.0123  0.2630 -0.3127
  180SOL    HW1  539   0.258   1.260   1.870  0.8547  0.2220  0.0358
  180SOL    HW2  540   0.176   1.396   1.830  1.5426 -2.2423 -0.0051
  181SOL     OW  541   3.075   1.914   2.477 -0.6221  0.4346  0.5118
  181SOL    HW1  542   3.123   2.001   2.445 -3.9939 -1.9969 -0.5385
  181SOL    HW2  543   2.991   1.892   2.422 -0.8156  0.7420 -0.9264
  182SOL     OW  544   2.351   1.217   1.217 -0.4392 -0.0851  0.4534
  182SOL    HW1  545   2.267   1.178   1.172  0.6603 -1.5981 -1.4375
  182SOL    HW2  546   2.346   1.325   1.210 -0.3415  4.2301  1.0024
  183SOL     OW  547   1.408   2.255   2.542  0.6399  0.1200 -0.0649
  183SOL    HW1  548   1.317   2.200   2.556 -1.2821 -1.8727  0.1919
  183SOL    HW2  549   1.491   2.200   2.513 -2.6817  0.3894 -0.4927
  184SOL     OW  550   2.034   0.950   0.727  0.3138  0.0863  0.3742
  184SOL    HW1  551   1.949   0.988   0.686  3.1387 -0.9982 -0.5076
  184SOL    HW2  552   2.030   0.855   0.762  4.1159  1.1746 -1.0593
  185SOL     OW  553   1.573   2.740   1.952  0.0931 -0.4634  0.0474
  185SOL    HW1  554   1.506   2.818   1.937 -0.9572  0.4952  0.3015
  185SOL    HW2  555   1.619   2.746   2.044 -0.7468 -1.0672  0.6212
  186SOL     OW  556   0.108   2.220   1.645 -0.5153 -0.5158 -0.3861
  186SOL    HW1  557   0.094   2.279   1.726  1.2103 -3.4280 -2.8753
  186SOL    HW2  558   0.195   2.162   1.653 -0.2339 -0.5835  1.8117
  187SOL     OW  559   1.386   0.656   1.651  0.1548 -0.6396  0.1950
  187SOL    HW1  560   1.466   0.713   1.630 -0.6280  1.0213  0.7483
  187SOL    HW2  561   1.404   0.569   1.701 -1.8010 -1.9081  0.7256
  188SOL     OW  562   2.819   2.757   1.451  0.6323  0.4050  0.5918
  188SOL    HW1  563   2.789   2.854   1.456  1.6203 -2.7172  2.9879
  188SOL    HW2  564   2.748   2.699   1.397  0.3275 -0.1060 -1.2291
  189SOL     OW  565   0.892   1.206   1.439 -0.7811  0.9492 -0.0959
  189SOL    HW1  566   0.940   1.257   1.516  0.0135 -1.4046 -1.7670
  189SOL    HW2  567   0.832   1.264   1.380  2.3020 -0.3344 -4.1080
  190SOL     OW  568   1.468   1.922   1.606  0.0991 -0.5395 -0.3111
  190SOL    HW1  569   1.430   1.827   1.610  1.0493  1.1356  1.2511
  190SOL    HW2  570   1.474   1.978   1.696  0.1551  1.7181 -1.2816
  191SOL     OW  571   0.911   0.756   1.495  0.3098  0.1303  0.1749
  191SOL    HW1  572   0.989   0.699   1.534  1.4920  1.4078  0.7756
  191SOL    HW2  573   0.954   0.831   1.433  2.7498 -0.3853 -1.8443
  192SOL     OW  574   1.839   2.335   1.116 -0.3074  0.6325  0.2665
  192SOL    HW1  575   1.751   2.339   1.062  2.1326  0.4297 -1.1535
  192SOL    HW2  576   1.926   2.314   1.057 -0.3980  0.5557 -0.3940
  193SOL     OW  577   0.505   0.524   0.424 -0.4384 -0.8992 -0.1154
  193SOL    HW1  578   0.440   0.443   0.435  1.0795 -0.9430  0.9002
  193SOL    HW2  579   0.570   0.507   0.342  3.6876 -1.3739 -1.7690
  194SOL     OW  580   0.348   0.907   1.309  0.0056  0.5733  0.9441
  194SOL    HW1  581   0.323   0.811   1.342 -1.2875 -1.3245 -0.7468
  194SOL    HW2  582   0.354   0.914   1.206  0.3045  2.3121  0.7695
  195SOL     OW  583   1.011   2.909   0.550 -0.2376 -0.2564 -0.2714
  195SOL    HW1  584   0.975   2.825   0.501  0.8615 -0.0294  2.4110
  195SOL    HW2  585   1.102   2.934   0.504 -1.1958  0.6477  4.4048
  196SOL     OW  586   0.198   1.371   1.365  0.1590  0.2866  0.0485
  196SOL    HW1  587   0.232   1.468   1.398 -4.6247  2.2957  0.1092
  196SOL    HW2  588   0.202   1.298   1.439 -0.3021  1.5311  1.0232
  197SOL     OW  589   0.821   2.042   0.240 -0.3696 -0.2610  0.0518
  197SOL    HW1  590   0.780   1.990   0.319  3.2541 -0.7879  3.9495
  197SOL    HW2  591   0.789   2.006   0.148 -0.2248 -1.2370  0.1408
  198SOL     OW  592   0.320   1.279   0.360  0.6845 -0.7235 -0.1760
  198SOL    HW1  593   0.228   1.277   0.319  0.9609 -0.4205 -1.5486
  198SOL    HW2  594   0.345   1.370   0.405  3.3182  2.0956  1.3336
  199SOL     OW  595   2.289   0.431   2.579 -0.3518  0.4798  0.5929
  199SOL    HW1  596   2.218   0.383   2.647  1.2804  1.2003  1.0307
  199SOL    HW2  597   2.389   0.406   2.593  0.3907  1.0906 -2.8064
  200SOL     OW  598   3.075   2.951   0.747  0.0837  0.4469  0.0528
  200SOL    HW1  599   3.057   3.052   0.728  1.9642  2.1453 -0.6543
  200SOL    HW2  600   3.103   2.904   0.657 -3.2424  0.5845 -3.6196
  201SOL     OW  601   1.021   0.687   0.529 -0.5584 -0.3692 -0.0186
  201SOL    HW1  602   1.064   0.732   0.613  1.2796  2.2053 -0.6816
  201SOL    HW2  603   0.927   0.651   0.539  2.3760  1.1407 -3.7658
  202SOL     OW  604   0.401   1.142   1.930  0.8068  0.4746 -0.4008
  202SOL    HW1  605   0.486   1.111   1.884  0.5441 -1.2256 -2.2964
  202SOL    HW2  606   0.422   1.189   2.019 -2.9260  2.7937 -0.7212
  203SOL     OW  607   0.621   0.195   1.484  0.4322 -0.5014  0.2977
  203SOL    HW1  608   0.645   0.135   1.398 -0.3423 -0.3133 -2.0156
  203SOL    HW2  609   0.694   0.176   1.560  1.7314 -0.3674  0.9741
  204SOL     OW  610   2.104   1.808   2.921  0.1339  0.4784  0.3170
  204SOL    HW1  611   2.088   1.705   2.912  2.7807  0.4166 -2.0645
  204SOL    HW2  612   2.179   1.838   2.854 -1.4369 -2.4731  2.9568
  205SOL     OW  613   1.850   1.819   3.039 -0.3338  0.0270  0.3844
  205SOL    HW1  614   1.942   1.818   2.991  0.0017 -0.0111  0.2687
  205SOL    HW2  615   1.816   1.919   3.046  1.1327  0.7615  0.1727
  206SOL     OW  616   2.419   2.808   0.350 -0.2776  0.1675  0.2322
  206SOL    HW1  617   2.463   2.722   0.389  0.7389  0.9511 -1.3367
  206SOL    HW2  618   2.489   2.877   0.330 -2.7523 -1.3180  0.3122
  207SOL     OW  619   0.680   1.818   2.942  0.2579 -0.9308  0.1401
  207SOL    HW1  620   0.752   1.752   2.902  1.3989 -0.2272  2.1031
  207SOL    HW2  621   0.636   1.777   3.029 -2.4903 -0.9230 -1.5720
  208SOL     OW  622   1.162   1.625   1.377  0.2645  0.7144 -1.0080
  208SOL    HW1  623   1.165   1.687   1.291 -0.8768  0.6499 -2.6225
  208SOL    HW2  624   1.162   1.678   1.465 -2.1713  1.1000 -2.5682
  209SOL     OW  625   0.248   0.948   3.068  0.0687  0.4525  0.4159
  209SOL    HW1  626   0.215   0.873   3.006  0.9078  0.3631  0.3274
  209SOL    HW2  627   0.257   0.918   3.165  3.6323 -0.6636  0.7462
  210SOL     OW  628   1.717   0.502   1.175 -0.4594  0.4597  0.2576
  210SOL    HW1  629   1.666   0.590   1.159 -1.7157 -3.6839  1.7887
  210SOL    HW2  630   1.819   0.508   1.187 -0.0511 -1.8213  0.6585
  211SOL     OW  631   2.087   1.025   1.598  0.2185 -1.0210 -0.1618
  211SOL    HW1  632   2.130   0.969   1.672  3.2444 -0.9940 -0.0093
  211SOL    HW2  633   2.148   1.097   1.554 -1.7375  1.0625  0.1613
  212SOL     OW  634   0.008   0.978   1.515 -0.3514  0.4050  0.0084
  212SOL    HW1  635   0.105   1.014   1.529 -0.2347  0.1981  0.1712
  212SOL    HW2  636  -0.006   0.884   1.558 -0.6575  1.0614  0.6076
  213SOL     OW  637   2.736   0.165   0.383 -0.8670 -0.0839  0.1408
  213SOL    HW1  638   2.792   0.148   0.297  0.6726 -4.0198 -4.2692
  213SOL    HW2  639   2.650   0.111   0.387 -0.6069  0.6902 -1.8917
  214SOL     OW  640   2.198   0.320   2.319  0.1430  0.0996  0.0781
  214SOL    HW1  641   2.254   0.372   2.387 -0.9851  2.3989 -2.4679
  214SOL    HW2  642   2.151   0.236   2.358 -3.7093  0.7358  1.7747
  215SOL     OW  643   1.624   2.304   2.086  0.1001 -0.5956  0.2432
  215SOL    HW1  644   1.720   2.337   2.065  1.0704 -1.9164  0.1776
  215SOL    HW2  645   1.572   2.370   2.143  1.5193 -0.2033 -0.6030
  216SOL     OW  646   2.214   0.640   0.674  0.7238 -0.0767 -0.6369
  216SOL    HW1  647   2.217   0.537   0.651 -0.6893  1.7461  3.3384
  216SOL    HW2  648   2.218   0.698   0.586 -1.0354 -1.8673 -0.4854
  217SOL     OW  649   0.770   2.789   2.442  0.3247 -0.0004  0.2056
  217SOL    HW1  650   0.757   2.712   2.510  3.2813 -0.3919 -2.6210
  217SOL    HW2  651   0.733   2.766   2.349 -1.9345 -1.4206  0.4468
  218SOL     OW  652   1.891   1.441   0.032  0.0749  0.2860  0.3002
  218SOL    HW1  653   1.786   1.452   0.023 -0.7200 -0.4818  2.4658
  218SOL    HW2  654   1.917   1.364   0.104 -0.9920  1.2133  0.7153
  219SOL     OW  655   2.450   1.301   2.517  0.0656 -0.1777 -0.2063
  219SOL    HW1  656   2.454   1.265   2.423  0.5399  1.5697 -0.6496
  219SOL    HW2  657   2.466   1.222   2.582 -1.8134 -1.1710 -0.8955
  220SOL     OW  658   1.458   1.042   1.318 -0.2920 -0.8539  0.4375
  220SOL    HW1  659   1.563   1.059   1.336  0.2602  2.1898  0.2164
  220SOL    HW2  660   1.436   1.061   1.217 -1.3247 -0.2064  1.4068
  221SOL     OW  661   1.278   0.989   2.176  0.1628  0.3387 -0.1702
  221SOL    HW1  662   1.225   0.976   2.087 -0.0409 -2.2933 -0.3559
  221SOL    HW2  663   1.372   1.026   2.162 -1.8311  1.3073  1.8496
  222SOL     OW  664   1.127   0.094   1.197  0.4469  0.3934 -0.0042
  222SOL    HW1  665   1.123   0.166   1.272 -2.5075  1.0255  0.0583
  222SOL    HW2  666   1.139   0.133   1.101  1.3030  2.1860  2.1721
  223SOL     OW  667   2.704   0.926   2.140  0.0503  0.0558 -0.2800
  223SOL    HW1  668   2.661   1.011   2.184 -0.5308 -0.4936  1.3277
  223SOL    HW2  669   2.803   0.922   2.168 -0.9561 -0.0226  0.1157
  224SOL     OW  670   1.506   1.079   2.737 -0.3096 -0.3286 -0.1488
  224SOL    HW1  671   1.555   0.999   2.702  0.0028  0.9222 -2.3433
  224SOL    HW2  672   1.506   1.154   2.662 -1.2460 -3.2171  1.6920
  225SOL     OW  673   2.982   2.732   2.881 -0.4342 -0.9509  0.1161
  225SOL    HW1  674   2.907   2.732   2.813 -0.5037  0.1255 -3.9165
  225SOL    HW2  675   3.075   2.732   2.837 -0.0364 -0.2807  1.3586
  226SOL     OW  676   2.451   1.624   2.896 -0.5694  0.3219  0.2525
  226SOL    HW1  677   2.486   1.586   2.800  1.3570 -1.6144 -2.2381
  226SOL    HW2  678   2.400   1.559   2.956  0.8279  0.5852 -0.9291
  227SOL     OW  679   0.830   0.178   3.092 -0.1839  0.6571 -0.0530
  227SOL    HW1  680   0.892   0.258   3.061  1.2931  2.7003  0.1593
  227SOL    HW2  681   0.761   0.142   3.017 -2.5219 -1.8298  0.2228
  228SOL     OW  682   2.434   0.576   2.874  0.4334 -0.4602  0.1496
  228SOL    HW1  683   2.475   0.638   2.800 -0.0203  2.2513 -5.1400
  228SOL    HW2  684   2.491   0.492   2.896  0.6730 -0.5708 -0.0478
  229SOL     OW  685   0.560   0.504   1.823  0.0078 -0.6672 -0.3514
  229SOL    HW1  686   0.561   0.405   1.850  1.6255  1.6251  1.9778
  229SOL    HW2  687   0.599   0.518   1.726  1.0845  3.3556 -0.1244
  230SOL     OW  688   1.934   1.159   2.080 -0.4687  0.2182 -0.0700
  230SOL    HW1  689   2.000   1.198   2.007  0.5469 -1.1916 -1.7355
  230SOL    HW2  690   1.843   1.211   2.079 -0.0158  0.1369 -0.2992
  231SOL     OW  691   0.639   1.041   0.044 -0.3338  0.3063 -0.5996
  231SOL    HW1  692   0.720   1.096   0.020  1.2459 -0.3201  0.5251
  231SOL    HW2  693   0.556   1.098   0.077 -0.6289 -0.3705 -1.6648
  232SOL     OW  694   2.447   3.079   2.877  0.3432  0.0089 -0.5547
  232SOL    HW1  695   2.503   2.990   2.881 -0.6765 -0.2690  1.5003
  232SOL    HW2  696   2.468   3.143   2.795 -1.7056 -0.4254 -2.7130
  233SOL     OW  697   1.743   1.210   1.135  1.2516 -0.2093  0.2591
  233SOL    HW1  698   1.781   1.141   1.067 -0.1930 -0.2957 -0.3788
  233SOL    HW2  699   1.743   1.174   1.230 -1.5261 -0.3894 -1.2498
  234SOL     OW  700   1.576   2.489   1.844  0.3382 -0.2783 -0.6854
  234SOL    HW1  701   1.578   2.584   1.889  0.5430 -2.0282  0.9244
  234SOL    HW2  702   1.626   2.415   1.891 -1.6590 -1.4434  1.1079
  235SOL     OW  703   3.090   3.042   2.803  0.0453 -0.0549 -0.0802
  235SOL    HW1  704   3.037   3.023   2.715 -2.6347 -0.8809 -0.4526
  235SOL    HW2  705   3.022   3.070   2.880 -0.0400  0.1811 -1.3980
  236SOL     OW  706   2.868   0.743   0.059  0.2891 -0.2391 -0.5688
  236SOL    HW1  707   2.942   0.777   0.126  1.8901 -0.9567  0.6072
  236SOL    HW2  708   2.902   0.662   0.001 -1.4627  0.4634  1.6630
  237SOL     OW  709   1.562   1.634   0.963  0.1904 -0.3565 -0.0079
  237SOL    HW1  710   1.662   1.615   0.972 -1.7458  1.8781  2.8132
  237SOL    HW2  711   1.523   1.674   1.053 -0.8625 -2.1781  0.3960
  238SOL     OW  712   1.803   1.246   0.795  0.8768 -0.1470 -0.6256
  238SOL    HW1  713   1.851   1.283   0.882 -3.5775  2.4789 -0.5456
  238SOL    HW2  714   1.726   1.306   0.766  0.1493  0.8237 -1.2561
  239SOL     OW  715   2.107   0.307   2.747  0.2245 -0.4906  0.0580
  239SOL    HW1  716   2.131   0.242   2.824  0.3945 -0.8922  3.5186
  239SOL    HW2  717   2.017   0.357   2.767 -0.1659 -1.2932 -1.0367
  240SOL     OW  718   0.934   0.679   0.262  0.0234  0.7225 -0.3769
  240SOL    HW1  719   0.963   0.584   0.226  0.7445  0.5246  2.3152
  240SOL    HW2  720   0.949   0.683   0.367 -2.7894  0.9879  0.1093
  241SOL     OW  721   0.611   0.038   0.404 -0.2210  0.0205 -0.4719
  241SOL    HW1  722   0.655   0.104   0.332 -0.7974  0.8092 -2.7713
  241SOL    HW2  723   0.591  -0.051   0.361  0.1484 -1.6764  0.5424
  242SOL     OW  724   0.599   2.478   1.144 -0.2633 -0.5063  0.2548
  242SOL    HW1  725   0.582   2.470   1.246  1.5205  2.7163  0.6805
  242SOL    HW2  726   0.565   2.565   1.100  0.7246  0.4431  1.2966
  243SOL     OW  727   1.077   0.600   2.489 -0.0011  0.0753 -0.3836
  243SOL    HW1  728   0.995   0.622   2.429  0.3055 -2.3978  0.7356
  243SOL    HW2  729   1.049   0.566   2.584 -1.4940 -1.4219 -2.6667
  244SOL     OW  730   2.849   1.867   2.344 -0.2542 -0.1492  0.3552
  244SOL    HW1  731   2.878   1.862   2.247 -0.5658 -1.2096  0.5425
  244SOL    HW2  732   2.752   1.851   2.361  2.5753 -0.9520 -0.4415
  245SOL     OW  733   2.230   0.866   2.139 -1.1800  0.7426  0.1387
  245SOL    HW1  734   2.320   0.880   2.191 -1.5885 -1.0008 -1.1819
  245SOL    HW2  735   2.153   0.905   2.188 -0.2855  0.4472 -5.0070
  246SOL     OW  736   0.223   2.916   1.704  0.1207 -0.0176 -0.5364
  246SOL    HW1  737   0.172   2.935   1.621  0.4849  0.1353  1.0534
  246SOL    HW2  738   0.317   2.957   1.705 -0.7151 -1.9230  0.9143
  247SOL     OW  739   2.209   0.634   3.003 -0.0433  0.0345 -0.1527
  247SOL    HW1  740   2.273   0.608   2.924  1.3399  0.0133 -2.5829
  247SOL    HW2  741   2.160   0.721   2.978 -1.1213  0.2075  1.6099
  248SOL     OW  742   2.177   1.830   1.588  0.3810  0.2141 -0.2727
  248SOL    HW1  743   2.260   1.779   1.632  0.4949 -0.6883 -1.1139
  248SOL    HW2  744   2.092   1.812   1.643 -2.3821  0.5620 -1.1267
  249SOL     OW  745   1.889   1.972   1.925  0.5397  0.0174 -0.4072
  249SOL    HW1  746   1.890   1.910   1.842  1.3520  1.1606 -0.5365
  249SOL    HW2  747   1.987   1.978   1.965  2.1048 -1.6841  1.2697
  250SOL     OW  748   1.082   0.685   1.869  0.0208 -0.0025  0.0760
  250SOL    HW1  749   1.124   0.624   1.940 -2.7977  0.2353 -1.0564
  250SOL    HW2  750   1.074   0.644   1.776  0.5951 -0.5089  0.2698
  251SOL     OW  751   0.025   1.632   2.546 -0.6049  0.7324  0.3879
  251SOL    HW1  752   0.007   1.727   2.508 -1.2175  0.9585 -4.1264
  251SOL    HW2  753  -0.056   1.569   2.554  1.9101 -2.2158 -0.4340
  252SOL     OW  754   1.614   0.807   1.596 -0.1151 -0.1693  0.9431
  252SOL    HW1  755   1.695   0.806   1.535  1.6311 -1.5257 -0.9572
  252SOL    HW2  756   1.623   0.870   1.678  0.4728  0.5897  2.7208
  253SOL     OW  757   0.990   1.576   0.544 -0.4672  0.1783 -0.4456
  253SOL    HW1  758   0.988   1.516   0.457  1.5613  0.6558  0.2228
  253SOL    HW2  759   0.898   1.617   0.565 -2.4823 -0.5535 -0.7937
  254SOL     OW  760   2.034   2.176   1.626  0.0390 -0.3290 -0.3241
  254SOL    HW1  761   1.986   2.127   1.548 -1.0930  0.4520 -0.6648
  254SOL    HW2  762   1.958   2.212   1.690  0.1692  0.6513 -0.1920
  255SOL     OW  763   0.140   1.141   2.929  0.1684  0.4028 -0.3777
  255SOL    HW1  764   0.184   1.237   2.902 -0.2239  2.4585  1.1737
  255SOL    HW2  765   0.191   1.073   2.990  2.2808 -0.0339  1.9147
  256SOL     OW  766   2.855   1.417   1.774  0.7943  0.2400  0.3856
  256SOL    HW1  767   2.766   1.454   1.809 -1.3760  0.2695 -0.8159
  256SOL    HW2  768   2.848   1.317   1.765 -1.0746  2.5650 -1.5664
  257SOL     OW  769   0.757   0.142   1.721  0.2246 -0.0000 -1.1186
  257SOL    HW1  770   0.832   0.213   1.707  0.1309 -2.6719 -0.8948
  257SOL    HW2  771   0.795   0.057   1.766  2.3669 -0.4331  2.0871
  258SOL     OW  772   3.009   1.220   0.439 -0.0561 -0.2695 -0.5092
  258SOL    HW1  773   2.934   1.290   0.446  1.3855 -0.3616  1.5579
  258SOL    HW2  774   3.083   1.234   0.506 -0.5060  0.9681  0.1839
  259SOL     OW  775   0.461   2.923   3.049  0.1333 -0.3255 -0.2455
  259SOL    HW1  776   0.367   2.877   3.074  0.1313 -0.0306 -0.4985
  259SOL    HW2  777   0.513   2.868   2.983 -1.9419  0.0662  2.2915
  260SOL     OW  778   2.739   0.711   2.799 -0.0993 -0.5241  0.0830
  260SOL    HW1  779   2.664   0.736   2.731  1.0750 -0.7676  1.4269
  260SOL    HW2  780   2.687   0.666   2.877  0.7368 -1.8969 -0.0206
  261SOL     OW  781   2.686   1.370   1.293 -0.6142 -0.3266  0.4969
  261SOL    HW1  782   2.645   1.295   1.233 -0.4531 -0.8352  3.6358
  261SOL    HW2  783   2.756   1.337   1.359  0.6448 -1.4901 -2.3725
  262SOL     OW  784   1.390   2.964   1.972  0.0608 -0.1420 -0.3983
  262SOL    HW1  785   1.435   3.036   1.913 -3.1099  1.1138 -0.8433
  262SOL    HW2  786   1.289   2.975   1.975  1.5303  1.5240 -1.5713
  263SOL     OW  787   0.855   0.662   2.341  0.3722  0.0820 -0.6226
  263SOL    HW1  788   0.786   0.593   2.299  0.9345 -1.9425  0.7475
  263SOL    HW2  789   0.906   0.697   2.260 -1.7297 -2.9251 -1.2780
  264SOL     OW  790   2.237   0.807   0.462  0.0577 -0.0767  0.6565
  264SOL    HW1  791   2.242   0.753   0.371  0.5616 -0.2324  1.0369
  264SOL    HW2  792   2.339   0.839   0.479  1.5598 -1.3119 -0.2252
  265SOL     OW  793   0.946   2.450   2.606 -0.4065  0.4109 -0.2855
  265SOL    HW1  794   1.001   2.520   2.663  2.2418  0.7309 -1.1834
  265SOL    HW2  795   0.951   2.352   2.652 -0.5877 -3.4856  2.9261
  266SOL     OW  796   1.332   1.783   3.035  0.6325  0.6273 -0.4763
  266SOL    HW1  797   1.325   1.838   3.122  1.7771  0.0539  1.3511
  266SOL    HW2  798   1.425   1.748   3.010 -1.6087  0.0920 -3.6234
  267SOL     OW  799   1.038   0.024   2.347 -0.3189  0.1107  0.2943
  267SOL    HW1  800   1.035  -0.005   2.247 -0.2620 -2.0713  1.1340
  267SOL    HW2  801   0.968   0.100   2.364  1.5062 -0.4821 -1.7445
  268SOL     OW  802   0.605   1.153   1.051 -0.4335 -0.0388 -0.1312
  268SOL    HW1  803   0.627   1.201   1.138  1.2764  0.2111  1.3414
  268SOL    HW2  804   0.564   1.210   0.977  0.3300 -1.1922  3.5292
  269SOL     OW  805   2.290   2.554   1.613 -0.2851 -0.4989 -0.1163
  269SOL    HW1  806   2.363   2.486   1.634 -1.9644 -0.9799  5.4674
  269SOL    HW2  807   2.249   2.589   1.701  0.0214  1.9101  0.0032
  270SOL     OW  808   0.154   2.977   1.965 -0.2816  0.3718 -0.4074
  270SOL    HW1  809   0.187   2.947   1.872  1.1697 -0.9872 -0.2360
  270SOL    HW2  810   0.105   2.903   2.017 -1.7392  0.7074  0.4181
  271SOL     OW  811   0.422   1.400   1.194 -0.2929 -0.2947 -0.2431
  271SOL    HW1  812   0.391   1.387   1.097 -2.7546 -1.2195 -0.6565
  271SOL    HW2  813   0.348   1.404   1.265  1.8905 -1.3883  0.9355
  272SOL     OW  814   2.035   2.920   1.927 -0.0838  0.1936 -0.2579
  272SOL    HW1  815   1.954   2.881   1.880 -0.0392  1.8466  1.0961
  272SOL    HW2  816   2.114   2.963   1.868 -0.4505  1.1239  1.0737
  273SOL     OW  817   1.490   1.454   2.740  0.1695  0.1852 -0.0132
  273SOL    HW1  818   1.386   1.445   2.741  1.0539 -1.4444 -0.1662
  273SOL    HW2  819   1.537   1.413   2.826  0.8852  2.6053  1.0196
  274SOL     OW  820   1.196   0.499   2.061 -0.0178 -0.0131  0.4476
  274SOL    HW1  821   1.140   0.412   2.045  0.1710  0.5492 -3.4865
  274SOL    HW2  822   1.233   0.498   2.159  0.4698  0.1789  0.3362
  275SOL     OW  823   0.619   2.092   1.890  0.1287  0.2234  0.0533
  275SOL    HW1  824   0.557   2.171   1.926  1.7200  0.2027 -0.3224
  275SOL    HW2  825   0.560   2.011   1.854 -2.4426  0.1579  0.2552
  276SOL     OW  826   2.218   1.048   2.752 -0.0394  0.1510  0.6370
  276SOL    HW1  827   2.154   1.095   2.685 -1.0802  3.6484  1.9931
  276SOL    HW2  828   2.165   0.978   2.805  0.0811  1.6683 -1.0882
  277SOL     OW  829   3.085   0.791   0.237 -0.3379 -0.4696  0.3749
  277SOL    HW1  830   3.183   0.807   0.213 -2.1128 -1.7064 -0.4829
  277SOL    HW2  831   3.075   0.708   0.293 -0.2915  0.0702 -1.3789
  278SOL     OW  832   0.245   0.309   2.971  0.0622 -1.0536 -1.0053
  278SOL    HW1  833   0.319   0.240   2.975 -0.1400  3.1000 -0.5298
  278SOL    HW2  834   0.273   0.404   3.001  0.8860  0.1781 -0.3342
  279SOL     OW  835   0.214   0.043   0.898  0.7249 -0.9116 -0.0095
  279SOL    HW1  836   0.201   0.012   0.994  2.9733  0.3339 -0.6015
  279SOL    HW2  837   0.270  -0.025   0.841 -0.3286 -1.7177 -0.2064
  280SOL     OW  838   1.595   2.945   2.432 -0.0039 -0.1081 -0.1362
  280SOL    HW1  839   1.651   3.004   2.495 -4.1960 -0.1462  0.0125
  280SOL    HW2  840   1.544   3.004   2.367  1.5815  1.5811  0.0628
  281SOL     OW  841   0.584   0.956   2.285  0.3451  0.1516  0.3624
  281SOL    HW1  842   0.572   0.874   2.226 -0.0452  1.6581  2.3656
  281SOL    HW2  843   0.524   0.956   2.371  0.7539  0.5547  1.1403
  282SOL     OW  844   1.773   2.505   0.508 -0.1400 -0.4326  0.0138
  282SOL    HW1  845   1.732   2.421   0.462 -0.7187 -0.8627 -3.7399
  282SOL    HW2  846   1.719   2.594   0.490  1.8973  2.2654 -0.8673
  283SOL     OW  847   1.231   0.937   0.811 -0.1142 -0.0489 -0.3606
  283SOL    HW1  848   1.255   0.888   0.898 -2.0446  1.3169  1.3652
  283SOL    HW2  849   1.159   1.008   0.837  0.2588  2.5582 -1.2297
  284SOL     OW  850   2.227   2.846   2.524 -0.3015  0.1348 -0.4244
  284SOL    HW1  851   2.325   2.826   2.523  0.9697 -0.4411 -0.7911
  284SOL    HW2  852   2.197   2.904   2.607  2.3145  1.0896 -1.3148
  285SOL     OW  853   1.345   3.036   2.574  0.3711  0.0514  0.2945
  285SOL    HW1  854   1.357   3.022   2.477  1.1523 -0.0708  0.3797
  285SOL    HW2  855   1.246   3.065   2.594 -0.1580 -1.1788 -0.7143
  286SOL     OW  856   0.441   0.433   0.721  0.0445  0.2083  0.2497
  286SOL    HW1  857   0.406   0.356   0.789 -0.5599 -2.3970 -1.0667
  286SOL    HW2  858   0.410   0.412   0.625  0.1069  0.1573  2.1638
  287SOL     OW  859   0.094   1.258   2.487  0.0090 -0.0036 -0.0689
  287SOL    HW1  860   0.050   1.190   2.550 -1.8893  1.0277  1.4743
  287SOL    HW2  861   0.081   1.353   2.533 -0.3606 -1.7869  1.8556
  288SOL     OW  862   1.586   2.631   1.618 -0.3002  0.2223 -0.2663
  288SOL    HW1  863   1.606   2.560   1.684 -1.1657  1.0685  1.3988
  288SOL    HW2  864   1.618   2.606   1.520  1.4152 -0.5637 -2.7627
  289SOL     OW  865   0.615   2.748   0.863 -0.2603 -0.0731  0.0249
  289SOL    HW1  866   0.678   2.807   0.803 -1.7424  4.7243 -0.5677
  289SOL    HW2  867   0.603   2.783   0.959 -2.0525  0.2140 -1.7725
  290SOL     OW  868   2.796   1.134   1.798  0.0542 -0.4131  0.5028
  290SOL    HW1  869   2.735   1.052   1.780 -1.3262  0.9500  0.3171
  290SOL    HW2  870   2.866   1.115   1.867  1.7321  0.7637 -0.8683
  291SOL     OW  871   1.997   0.017   0.022 -0.3521 -0.0458  0.2682
  291SOL    HW1  872   1.998   0.054   0.120  0.6758  0.9916  1.4727
  291SOL    HW2  873   2.048   0.085  -0.036 -1.0541 -2.2929 -0.5083
  292SOL     OW  874   3.006   1.210   3.076 -0.0066  0.3726 -0.1106
  292SOL    HW1  875   2.938   1.253   3.016  1.7243 -0.1000  1.3387
  292SOL    HW2  876   3.085   1.174   3.025 -0.8638 -1.4040 -0.7274
  293SOL     OW  877   0.562   2.160   0.277  0.1576  0.4862  0.3084
  293SOL    HW1  878   0.501   2.226   0.331 -2.5705  5.3944  0.7285
  293SOL    HW2  879   0.656   2.143   0.316  0.1377  0.2644  0.4440
  294SOL     OW  880   1.825   2.284   1.770 -0.4001  0.0451  0.2091
  294SOL    HW1  881   1.829   2.306   1.871 -0.5677 -0.2384 -1.0896
  294SOL    HW2  882   1.747   2.342   1.721 -3.0690  2.7751  2.1446
  295SOL     OW  883   0.981   1.053   0.424  0.0273 -0.4624 -0.5440
  295SOL    HW1  884   1.075   1.039   0.471  1.8121 -0.3602 -2.1738
  295SOL    HW2  885   0.906   1.052   0.493 -0.6305  1.6348  3.0889
  296SOL     OW  886   1.198   2.114   2.613 -0.2166  0.0661  0.9067
  296SOL    HW1  887   1.101   2.141   2.637 -1.8180  2.5241  3.1032
  296SOL    HW2  888   1.207   2.032   2.545  1.8083  0.3664 -0.2651
  297SOL     OW  889   1.374   0.626   1.308 -0.8341 -0.0281 -0.0374
  297SOL    HW1  890   1.402   0.582   1.394 -0.5562 -1.0796 -2.5682
  297SOL    HW2  891   1.460   0.667   1.259  1.7042 -1.2883 -1.4316
  298SOL     OW  892   0.490   1.371   2.981 -0.0983  0.3174 -0.2734
  298SOL    HW1  893   0.461   1.305   3.059 -0.7100 -1.8091  0.9289
  298SOL    HW2  894   0.563   1.328   2.924 -3.0448  1.7489  2.4337
  299SOL     OW  895   0.464   0.286   1.233 -0.1837 -0.0152  0.8265
  299SOL    HW1  896   0.388   0.351   1.196 -1.1319  1.4044 -1.2055
  299SOL    HW2  897   0.477   0.284   1.333 -0.8370  1.5029  0.1655
  300SOL     OW  898   1.267   1.688   2.661  0.2781 -0.4194 -0.4049
  300SOL    HW1  899   1.246   1.587   2.653  2.3511  1.4192 -2.9091
  300SOL    HW2  900   1.337   1.705   2.738  0.4751 -0.8844  3.8732
  301SOL     OW  901   0.365   0.296   0.477 -0.1290  0.2725 -0.3022
  301SOL    HW1  902   0.268   0.270   0.500 -1.9047  1.2131  0.6264
  301SOL    HW2  903   0.428   0.216   0.495  2.7613 -0.7113  1.4229
  302SOL     OW  904   1.271   2.422   2.363 -0.6494 -0.0980  0.1296
  302SOL    HW1  905   1.174   2.451   2.395 -3.8638 -2.2994  0.4628
  302SOL    HW2  906   1.331   2.379   2.434 -1.1340  2.2793 -1.3802
  303SOL     OW  907   0.938   2.409   0.786 -0.4448  0.3146 -0.5063
  303SOL    HW1  908   0.983   2.453   0.707 -3.0463  1.8540  2.4549
  303SOL    HW2  909   0.992   2.430   0.877 -2.1227  1.1184  0.3456
  304SOL     OW  910   0.098   1.956   0.687 -0.3311 -0.2461  0.4296
  304SOL    HW1  911   0.181   1.951   0.620  2.0091  2.3612 -0.3595
  304SOL    HW2  912   0.026   2.008   0.635 -1.1335  0.0583 -0.6215
  305SOL     OW  913   1.580   0.835   0.659  0.0534  0.0868  0.5720
  305SOL    HW1  914   1.539   0.848   0.563 -0.6952  3.4295 -1.2928
  305SOL    HW2  915   1.635   0.746   0.673 -0.2440  2.6134  4.5672
  306SOL     OW  916   0.441   1.872   1.881 -0.7303  0.0354 -0.6288
  306SOL    HW1  917   0.519   1.807   1.861  0.2345  0.0484 -1.2229
  306SOL    HW2  918   0.430   1.893   1.981 -0.9688 -0.2520  1.2571
  307SOL     OW  919   3.078   0.884   2.516  0.1056  0.3255  0.2233
  307SOL    HW1  920   3.103   0.940   2.601  0.9662 -1.9410  1.3133
  307SOL    HW2  921   3.016   0.802   2.533  2.5840  0.5082 -1.5342
  308SOL     OW  922   1.582   2.692   2.793  0.6189  0.4190  0.4314
  308SOL    HW1  923   1.568   2.622   2.719  1.5429 -0.2211 -0.8160
  308SOL    HW2  924   1.528   2.679   2.880 -0.1609  1.1305 -1.3947
  309SOL     OW  925   1.251   0.192   1.772 -0.2665 -0.3631 -0.0868
  309SOL    HW1  926   1.329   0.130   1.799 -0.3735  0.4939  1.5629
  309SOL    HW2  927   1.210   0.177   1.675  0.0130 -0.8739  0.4663
  310SOL     OW  928   1.536   2.563   0.695  0.3581 -0.0273  0.2514
  310SOL    HW1  929   1.490   2.587   0.786  0.6517  1.4205 -2.2904
  310SOL    HW2  930   1.591   2.641   0.645  1.3045  2.3891 -2.7789
  311SOL     OW  931   1.146   0.906   1.722 -0.1279  0.2080  0.7006
  311SOL    HW1  932   1.123   0.818   1.778 -0.5482 -1.4109  2.0712
  311SOL    HW2  933   1.197   0.886   1.631 -2.3091 -0.1925 -0.6591
  312SOL     OW  934   1.565   0.747   1.139 -0.0082 -0.1059 -0.2805
  312SOL    HW1  935   1.622   0.830   1.134  1.2027  1.3831 -1.3043
  312SOL    HW2  936   1.523   0.718   1.050 -2.4849 -0.0830 -1.6696
  313SOL     OW  937   1.595   1.402   0.707  0.2322  0.0283  0.2632
  313SOL    HW1  938   1.517   1.417   0.772  0.2550 -2.4580 -0.6911
  313SOL    HW2  939   1.579   1.315   0.642 -0.1675 -0.7800  0.2853
  314SOL     OW  940   2.964   0.030   3.052  0.1304 -0.0844 -0.4713
  314SOL    HW1  941   2.971   0.034   3.157 -2.5731  0.5646 -1.6397
  314SOL    HW2  942   2.888  -0.032   3.020  2.2114  0.6672  1.5209
  315SOL     OW  943   1.107   0.236   2.802 -0.1108 -0.0467 -0.6127
  315SOL    HW1  944   1.096   0.156   2.738  0.9725 -1.5602  0.1365
  315SOL    HW2  945   1.158   0.202   2.889  0.5529  1.4473  1.0197
  316SOL     OW  946   1.753   2.060   0.943 -0.6683 -0.0244 -0.2310
  316SOL    HW1  947   1.720   2.072   1.037  2.6411 -1.9301 -1.5425
  316SOL    HW2  948   1.744   2.146   0.881 -1.0173  0.5445 -2.2884
  317SOL     OW  949   1.201   0.657   2.837  0.2624 -0.4309 -0.1304
  317SOL    HW1  950   1.122   0.688   2.904 -2.8432 -0.0568  0.7079
  317SOL    HW2  951   1.159   0.601   2.760  3.1585 -1.6004  3.5830
  318SOL     OW  952   1.426   3.033   2.236  0.1669  0.7152  0.1485
  318SOL    HW1  953   1.400   3.133   2.239  1.4994  1.7085  1.3276
  318SOL    HW2  954   1.411   2.992   2.142  0.6572  0.4142 -0.2997
  319SOL     OW  955   0.579   2.402   2.905 -0.0908 -0.7791  0.0000
  319SOL    HW1  956   0.545   2.344   2.980  0.9705 -1.8124 -2.1263
  319SOL    HW2  957   0.663   2.367   2.867 -0.3596 -0.0789  0.8071
  320SOL     OW  958   1.702   2.234   0.420  0.3448  0.0844  0.3312
  320SOL    HW1  959   1.766   2.158   0.385  3.6225 -1.3132 -2.4307
  320SOL    HW2  960   1.627   2.196   0.477  0.9037  1.2441 -3.6552
  321SOL     OW  961   1.678   2.780   0.558 -0.1887 -0.1465 -0.4933
  321SOL    HW1  962   1.598   2.828   0.520  1.7055 -1.6413  1.7524
  321SOL    HW2  963   1.773   2.806   0.518 -0.4900 -0.7786  1.8114
  322SOL     OW  964   2.598   1.127   2.317  0.2122 -0.2180  0.1418
  322SOL    HW1  965   2.654   1.172   2.390  0.2236  1.8577  2.0340
  322SOL    HW2  966   2.537   1.049   2.352 -0.6641 -0.4341  1.1247
  323SOL     OW  967   1.168   2.685   0.843 -0.3088 -0.1227 -0.2997
  323SOL    HW1  968   1.133   2.638   0.758 -0.2843 -0.9384  1.3366
  323SOL    HW2  969   1.111   2.770   0.871 -0.0707 -3.7593 -0.8940
  324SOL     OW  970   0.266   2.481   2.509  0.1284  0.7836  0.1566
  324SOL    HW1  971   0.266   2.428   2.597  0.1235  2.7024 -0.7898
  324SOL    HW2  972   0.305   2.573   2.525  0.8097 -1.5761 -0.2680
  325SOL     OW  973   1.250   3.018   0.447 -0.3437 -0.9423  0.0157
  325SOL    HW1  974   1.281   3.052   0.354 -0.3088  0.0204  1.6102
  325SOL    HW2  975   1.285   3.075   0.523 -2.2354 -2.7741 -0.6009
  326SOL     OW  976   2.438   0.775   3.095 -0.0917 -0.1152  0.0289
  326SOL    HW1  977   2.391   0.726   3.018  1.7596 -0.7314  0.8152
  326SOL    HW2  978   2.502   0.718   3.155 -0.9742  3.5432 -1.8280
  327SOL     OW  979   2.813   0.319   0.586  0.3827 -0.0726 -0.6379
  327SOL    HW1  980   2.788   0.267   0.499 -4.1754  1.6466 -3.2961
  327SOL    HW2  981   2.843   0.257   0.662 -1.2163  3.4560  1.2993
  328SOL     OW  982   2.597   0.593   0.406 -0.0233  0.4826  0.1913
  328SOL    HW1  983   2.529   0.666   0.434  0.7623  0.4286  2.3735
  328SOL    HW2  984   2.583   0.505   0.462  2.2167  1.4376 -0.9127
  329SOL     OW  985   2.925   2.945   2.159 -0.3407  0.2764 -0.0688
  329SOL    HW1  986   3.015   2.924   2.211  0.4552 -0.8822 -0.5761
  329SOL    HW2  987   2.906   3.050   2.151 -0.1003  0.9585  2.4814
  330SOL     OW  988   0.552   0.203   1.898 -0.1239 -0.2373  0.6205
  330SOL    HW1  989   0.622   0.179   1.823  4.2537  0.3507 -0.2600
  330SOL    HW2  990   0.588   0.169   1.990  4.1572  0.2367  3.5273
  331SOL     OW  991   3.008   1.948   1.097  0.2296 -0.5807 -0.1219
  331SOL    HW1  992   2.952   1.980   1.015  0.1831 -1.3369 -0.5022
  331SOL    HW2  993   2.950   1.938   1.182 -1.9605  2.3820 -0.9056
  332SOL     OW  994   0.402   1.196   0.090 -0.4145 -0.0053  0.1243
  332SOL    HW1  995   0.338   1.126   0.063  1.0386  1.0005  2.6246
  332SOL    HW2  996   0.389   1.240   0.184  4.6824  1.6776 -0.6874
  333SOL     OW  997   2.936   1.030   0.254  0.4111 -0.5201  0.3143
  333SOL    HW1  998   2.962   1.120   0.291  0.5430 -1.9673 -0.2179
  333SOL    HW2  999   3.012   0.965   0.258 -0.6668 -0.9637  3.1758
  334SOL     OW 1000   1.698   1.274   1.809 -0.5870 -0.2986 -0.4653
  334SOL    HW1 1001   1.778   1.288   1.739 -0.0833 -0.3633 -0.8654
  334SOL    HW2 1002   1.723   1.296   1.909  2.1050  0.8581  0.9448
  335SOL     OW 1003   1.990   2.728   2.573 -0.8622  0.4166 -0.3037
  335SOL    HW1 1004   1.941   2.756   2.659 -0.3797 -0.1349  1.8438
  335SOL    HW2 1005   2.079   2.775   2.558  0.9274 -1.1233 -1.4979
  336SOL     OW 1006   0.247   0.078   2.723 -0.1445 -0.0822  0.4873
  336SOL    HW1 1007   0.289   0.113   2.811  1.6575 -0.8502 -0.6076
  336SOL    HW2 1008   0.162   0.015   2.735 -0.2063 -2.3887 -0.4498
  337SOL     OW 1009   0.987   2.871   2.895 -0.0251  0.0411  0.8499
  337SOL    HW1 1010   0.929   2.818   2.961 -3.6854  2.9920 -0.1357
  337SOL    HW2 1011   1.057   2.933   2.941 -3.5960 -0.7756 -0.3395
  338SOL     OW 1012   0.075   1.019   0.676 -0.0988 -0.3217  0.3894
  338SOL    HW1 1013  -0.026   1.002   0.694  0.4097  2.5222 -0.3046
  338SOL    HW2 1014   0.089   1.124   0.674 -0.4563  0.8946  2.0833
  339SOL     OW 1015   1.712   1.313   2.110 -0.1757 -0.2961  0.5632
  339SOL    HW1 1016   1.630   1.380   2.096 -3.3191 -0.5416 -2.2710
  339SOL    HW2 1017   1.770   1.360   2.182  2.2995  0.0880  0.5881
  340SOL     OW 1018   2.288   0.762   1.160 -0.2724 -0.4444  0.0818
  340SOL    HW1 1019   2.192   0.771   1.131  1.2713 -2.4020 -0.8123
  340SOL    HW2 1020   2.335   0.672   1.134  1.1959  0.0405  0.2268
  341SOL     OW 1021   1.921   2.088   0.293  0.0766 -0.1255  0.1871
  341SOL    HW1 1022   1.963   2.134   0.210  0.8134  0.9539 -1.2053
  341SOL    HW2 1023   1.984   2.090   0.376 -0.7402  1.2292  0.9297
  342SOL     OW 1024   2.180   2.140   2.792  0.0311  0.2750 -0.2318
  342SOL    HW1 1025   2.242   2.065   2.824 -3.2740  0.3945  0.7121
  342SOL    HW2 1026   2.084   2.109   2.769 -2.0281  4.1385  2.9812
  343SOL     OW 1027   0.379   0.823   2.795  0.4794  0.0593 -0.0116
  343SOL    HW1 1028   0.409   0.803   2.696  2.7834  1.0019 -1.1022
  343SOL    HW2 1029   0.451   0.851   2.861 -1.4323 -2.9673  1.1636
  344SOL     OW 1030   1.913   1.475   0.435 -0.6491  0.3634  0.2295
  344SOL    HW1 1031   1.907   1.391   0.371  1.1632  0.4491 -1.0852
  344SOL    HW2 1032   1.817   1.510   0.454 -0.3070  0.5788  1.0337
  345SOL     OW 1033   1.405   2.254   2.888 -0.5284  0.1622 -0.1392
  345SOL    HW1 1034   1.324   2.253   2.822  0.8271 -0.6547 -2.5687
  345SOL    HW2 1035   1.468   2.178   2.860 -1.6331 -1.1713 -0.4407
  346SOL     OW 1036   2.359   0.891   1.389 -0.2988  0.0992 -0.3933
  346SOL    HW1 1037   2.288   0.956   1.436  0.6018  1.2020  0.9042
  346SOL    HW2 1038   2.324   0.847   1.302  1.3363 -0.1617  0.6911
  347SOL     OW 1039   0.752   2.735   1.614  0.0555  0.1738 -0.2086
  347SOL    HW1 1040   0.693   2.720   1.696  0.7224 -0.5547  1.7931
  347SOL    HW2 1041   0.705   2.782   1.533  0.7699 -0.8358  1.1605
  348SOL     OW 1042   0.161   0.718   2.918 -0.4863  0.1616  0.1396
  348SOL    HW1 1043   0.080   0.712   2.859  0.5855  1.6441  1.3664
  348SOL    HW2 1044   0.247   0.740   2.864 -2.8160 -3.6308  1.0765
  349SOL     OW 1045   1.875   0.435   2.776 -0.3578  0.2776 -0.0972
  349SOL    HW1 1046   1.863   0.505   2.698  0.7387  1.2312  0.9038
  349SOL    HW2 1047   1.855   0.471   2.871  1.2118  1.1219 -2.0751
  350SOL     OW 1048   1.647   0.412   0.393 -0.0314 -0.2539 -0.0408
  350SOL    HW1 1049   1.716   0.407   0.473 -0.8543 -1.4541  4.2017
  350SOL    HW2 1050   1.640   0.507   0.349  1.6945  1.2532  1.0498
  351SOL     OW 1051   0.985   0.815   2.106 -0.0187  0.2755 -0.0720
  351SOL    HW1 1052   0.968   0.915   2.105 -2.0845 -0.2347 -0.3186
  351SOL    HW2 1053   0.995   0.773   2.009 -0.7000  2.5637 -1.9472
  352SOL     OW 1054   2.069   1.344   0.657  0.5826 -0.1060 -0.4127
  352SOL    HW1 1055   2.031   1.404   0.582  0.2333 -0.0852  3.2700
  352SOL    HW2 1056   2.000   1.290   0.719 -0.4834  1.8487  1.6875
  353SOL     OW 1057   2.157   2.808   1.100  0.8279  0.1954 -0.4766
  353SOL    HW1 1058   2.232   2.775   1.167 -0.3311 -1.0662  1.0327
  353SOL    HW2 1059   2.073   2.745   1.090  1.5899 -1.4099  1.1221
  354SOL     OW 1060   0.235   1.375   2.862  0.4397  0.3431 -0.4111
  354SOL    HW1 1061   0.240   1.454   2.798  0.9116  0.0043  0.7044
  354SOL    HW2 1062   0.331   1.365   2.898  1.5785 -0.1772  0.5141
  355SOL     OW 1063   0.724   1.601   0.558  0.3442  0.1701 -0.0264
  355SOL    HW1 1064   0.742   1.526   0.628  1.3795 -0.1003 -1.0092
  355SOL    HW2 1065   0.718   1.563   0.458  0.0881 -1.8880  0.9431
  356SOL     OW 1066   0.797   0.332   2.048 -0.0817 -0.3015  0.2289
  356SOL    HW1 1067   0.863   0.248   2.058  0.6493 -1.3710  0.7310
  356SOL    HW2 1068   0.823   0.390   1.959  2.6897  1.8467 -2.9646
  357SOL     OW 1069   0.985   1.324   0.319 -1.0014  0.0737  0.4378
  357SOL    HW1 1070   1.083   1.339   0.292 -0.8907  0.0285 -0.0628
  357SOL    HW2 1071   0.982   1.237   0.372 -0.6317 -2.2729  0.5044
  358SOL     OW 1072   1.651   1.538   0.468 -0.2074 -0.0481 -0.0218
  358SOL    HW1 1073   1.600   1.511   0.550  0.2496  0.6193 -2.1161
  358SOL    HW2 1074   1.607   1.506   0.384  0.0643 -0.4180  0.0197
  359SOL     OW 1075   1.574   2.620   0.220  0.1740 -0.0644  0.4631
  359SOL    HW1 1076   1.561   2.526   0.182  0.5970 -0.9109 -1.8410
  359SOL    HW2 1077   1.511   2.635   0.300  1.3662 -1.3291 -1.2375
  360SOL     OW 1078   0.783   0.569   0.533 -0.4500 -0.4193  0.0289
  360SOL    HW1 1079   0.681   0.566   0.511 -0.4670  0.6815  2.2889
  360SOL    HW2 1080   0.826   0.475   0.548 -3.4514  3.4718 -0.0806
  361SOL     OW 1081   1.274   1.301   0.665  0.5297 -0.2222  0.2145
  361SOL    HW1 1082   1.332   1.360   0.725  0.7726 -0.2312 -0.5385
  361SOL    HW2 1083   1.174   1.328   0.674  1.9843  0.1720 -2.6615
  362SOL     OW 1084   1.384   1.790   0.802 -0.0395 -0.5195 -0.4864
  362SOL    HW1 1085   1.443   1.742   0.873 -0.4131  0.4509 -0.7353
  362SOL    HW2 1086   1.422   1.879   0.767  0.2513 -0.7266  0.0085
  363SOL     OW 1087   1.237   1.347   2.050  0.4976  0.0764 -0.2448
  363SOL    HW1 1088   1.337   1.376   2.073  1.0347  0.5639  2.3009
  363SOL    HW2 1089   1.198   1.387   1.959 -5.0859  2.8258  2.2236
  364SOL     OW 1090   0.514   2.345   1.991 -0.4538  0.5132  0.1900
  364SOL    HW1 1091   0.434   2.409   1.976  0.6449  1.5908 -1.3712
  364SOL    HW2 1092   0.605   2.390   1.963  0.2795  0.0690 -0.9041
  365SOL     OW 1093   0.985   1.978   1.326  0.6504  0.0531 -0.3440
  365SOL    HW1 1094   0.884   1.993   1.354  0.8677 -1.8847 -0.3712
  365SOL    HW2 1095   1.007   2.008   1.231 -1.4742  1.0562  1.1643
  366SOL     OW 1096   2.846   1.961   0.391  0.0974  0.0814  0.4131
  366SOL    HW1 1097   2.752   1.929   0.419  0.9077  3.4818 -3.3690
  366SOL    HW2 1098   2.890   1.894   0.319  1.8233 -0.2923  0.3755
  367SOL     OW 1099   0.893   1.141   3.090  0.6416 -0.2465  0.6879
  367SOL    HW1 1100   0.890   1.065   3.157 -1.0432  1.7874 -1.0612
  367SOL    HW2 1101   0.956   1.216   3.124  1.5994 -0.1808 -0.2470
  368SOL     OW 1102   1.458   0.541   0.646  0.0740  0.4132 -0.9693
  368SOL    HW1 1103   1.403   0.549   0.559  1.1633  2.1452  1.7110
  368SOL    HW2 1104   1.552   0.577   0.624 -2.6514  0.3737  1.9586
  369SOL     OW 1105   0.370   1.675   0.123  0.3348 -0.0471  0.1096
  369SOL    HW1 1106   0.401   1.744   0.199  1.6266  0.6871  2.5595
  369SOL    HW2 1107   0.291   1.611   0.151 -2.0806  1.1233  0.5534
  370SOL     OW 1108   0.437   2.038   1.051  0.2795  0.3687  0.6969
  370SOL    HW1 1109   0.446   2.144   1.040  2.9281  2.0030  2.8554
  370SOL    HW2 1110   0.338   2.008   1.039  2.8173  0.3503  0.2742
  371SOL     OW 1111   2.909   2.211   2.637  0.1807  0.1528 -0.3136
  371SOL    HW1 1112   2.838   2.169   2.699  1.2666  1.8634 -1.6769
  371SOL    HW2 1113   3.003   2.226   2.679 -1.2067  2.1124 -3.4637
  372SOL     OW 1114   1.033   2.015   1.060 -0.2851  0.1280  0.1395
  372SOL    HW1 1115   0.956   2.074   1.017 -0.1886  1.5839 -0.8335
  372SOL    HW2 1116   1.112   2.005   0.994 -0.6389 -0.7915 -1.4632
  373SOL     OW 1117   1.970   1.944   0.832 -0.3248 -0.2711  0.3807
  373SOL    HW1 1118   2.052   1.932   0.896  0.9495  0.1933  0.2398
  373SOL    HW2 1119   1.879   1.983   0.867 -1.9455  1.9649 -2.1277
  374SOL     OW 1120   1.860   0.386   0.563 -0.0189 -0.0391 -0.3390
  374SOL    HW1 1121   1.882   0.358   0.664  2.5908 -1.3886  2.7746
  374SOL    HW2 1122   1.953   0.412   0.513 -0.7732  0.1279  0.6544
  375SOL     OW 1123   2.402   2.151   1.070  0.4537 -0.0251  0.1438
  375SOL    HW1 1124   2.441   2.121   0.978 -0.3312  1.0613 -0.2004
  375SOL    HW2 1125   2.473   2.149   1.149  0.4058 -1.5285 -0.0466
  376SOL     OW 1126   3.033   0.557   1.505 -0.2640 -0.4789 -0.2076
  376SOL    HW1 1127   3.077   0.632   1.561 -2.2378 -1.0126  0.9146
  376SOL    HW2 1128   2.929   0.567   1.511 -3.0310 -0.2874 -2.7126
  377SOL     OW 1129   2.159   2.916   0.289 -0.0613 -0.2886  0.4472
  377SOL    HW1 1130   2.123   3.009   0.279 -0.9972 -0.2734 -1.4796
  377SOL    HW2 1131   2.261   2.911   0.306 -0.8449  1.3629 -0.1828
  378SOL     OW 1132   1.774   1.849   2.603 -0.6531 -0.3780 -0.7432
  378SOL    HW1 1133   1.802   1.824   2.698 -0.6733 -2.5221 -0.9997
  378SOL    HW2 1134   1.766   1.761   2.549  1.6312  0.2218  0.6859
  379SOL     OW 1135   0.695   0.099   2.868 -0.4826  0.0181 -0.6852
  379SOL    HW1 1136   0.652   0.024   2.817  2.0083  1.0522 -2.6915
  379SOL    HW2 1137   0.733   0.172   2.803  1.5050 -1.5963 -1.0044
  380SOL     OW 1138   1.518   1.149   0.623 -0.1665  0.3590  0.0637
  380SOL    HW1 1139   1.423   1.186   0.628  2.2150 -0.4311 -1.4175
  380SOL    HW2 1140   1.532   1.055   0.664 -1.4371 -0.9916 -0.1950
  381SOL     OW 1141   1.348   1.167   1.527  0.2330 -0.2980  0.4444
  381SOL    HW1 1142   1.387   1.134   1.434 -1.1604 -1.0616 -0.5931
  381SOL    HW2 1143   1.411   1.164   1.606  0.6481  3.3472 -1.1120
  382SOL     OW 1144   1.783   0.874   0.183  0.2559  0.2287  0.0686
  382SOL    HW1 1145   1.813   0.838   0.090  1.2966  1.7254 -1.3241
  382SOL    HW2 1146   1.861   0.862   0.254 -0.4141 -0.4634  2.3860
  383SOL     OW 1147   2.587   1.008   1.461 -0.0428 -0.2366  0.5366
  383SOL    HW1 1148   2.504   0.949   1.437  0.3690 -2.1461  1.2068
  383SOL    HW2 1149   2.662   0.990   1.399 -1.3289  1.4095 -2.4489
  384SOL     OW 1150   0.985   2.250   0.140 -0.2459 -0.5369  0.5895
  384SOL    HW1 1151   0.941   2.339   0.176  0.3700  1.2848  1.9949
  384SOL    HW2 1152   0.958   2.168   0.202 -2.1285 -1.1454 -0.1941
  385SOL     OW 1153   3.011   2.047   1.645 -0.3428 -0.4665 -0.1080
  385SOL    HW1 1154   3.090   2.111   1.645 -2.6691  1.7599 -2.1674
  385SOL    HW2 1155   3.029   1.944   1.649 -3.1504  0.8533  1.3371
  386SOL     OW 1156   0.494   1.071   0.428  0.3319  0.2548  0.0703
  386SOL    HW1 1157   0.452   0.977   0.445  0.6387  0.7034 -0.3963
  386SOL    HW2 1158   0.424   1.140   0.399  0.9770 -2.0484  1.8243
  387SOL     OW 1159   0.977   0.300   1.683 -0.0745  0.5821  0.1558
  387SOL    HW1 1160   1.020   0.390   1.691 -0.3586  0.0769 -1.0821
  387SOL    HW2 1161   0.954   0.277   1.583 -0.3720  1.0621 -0.3051
  388SOL     OW 1162   1.206   2.688   1.740  0.3103 -0.1626  0.2434
  388SOL    HW1 1163   1.229   2.668   1.640  1.4443  2.3704  0.9579
  388SOL    HW2 1164   1.256   2.619   1.801 -0.1750 -0.1561 -1.2130
  389SOL     OW 1165   0.192   3.030   1.139 -0.5162  0.3938  0.4695
  389SOL    HW1 1166   0.155   3.038   1.232 -1.6057 -0.1940  0.8888
  389SOL    HW2 1167   0.154   2.945   1.091 -3.2044 -2.4669  2.1045
  390SOL     OW 1168   1.020   0.991   1.329  0.1552  0.1677 -0.5258
  390SOL    HW1 1169   1.109   0.965   1.375  2.1024  2.7934 -0.1988
  390SOL    HW2 1170   0.973   1.072   1.383  1.2745  2.6734 -1.4183
  391SOL     OW 1171   2.149   1.093   1.073  0.6245  0.5294 -0.2913
  391SOL    HW1 1172   2.121   1.003   1.112 -3.0501 -2.0552 -1.8437
  391SOL    HW2 1173   2.191   1.082   0.979 -3.3988  0.4697  0.4743
  392SOL     OW 1174   0.848   2.734   3.090  0.2033 -0.8497 -0.0099
  392SOL    HW1 1175   0.902   2.656   3.131 -1.0808  1.4247  1.5717
  392SOL    HW2 1176   0.814   2.799   3.157 -2.4085  0.5802 -1.6002
  393SOL     OW 1177   0.370   0.529   2.001  0.1959  0.4021 -0.0390
  393SOL    HW1 1178   0.292   0.465   1.988 -2.1525 -0.6254 -0.5641
  393SOL    HW2 1179   0.430   0.535   1.913  1.9538  3.9042  3.0880
  394SOL     OW 1180   3.037   1.820   2.798 -0.7759  0.3794 -0.2326
  394SOL    HW1 1181   3.047   1.879   2.880 -0.6465  2.7036 -2.8609
  394SOL    HW2 1182   3.092   1.850   2.711 -1.6852 -2.1168 -1.5821
  395SOL     OW 1183   1.648   1.964   0.680  0.2231  0.2428 -0.2083
  395SOL    HW1 1184   1.684   1.891   0.614  0.6390 -0.8862  0.2950
  395SOL    HW2 1185   1.676   1.948   0.781  1.3030  0.4459  0.3371
  396SOL     OW 1186   2.840   1.881   1.300 -0.0093  0.6062  0.3414
  396SOL    HW1 1187   2.814   1.778   1.309 -0.5859 -1.2024 -0.4353
  396SOL    HW2 1188   2.824   1.940   1.386  0.7147 -2.3220 -2.3414
  397SOL     OW 1189   1.038   2.230   0.504  0.3211 -0.3127 -0.0808
  397SOL    HW1 1190   0.947   2.197   0.543 -0.2732 -0.4709  0.6845
  397SOL    HW2 1191   1.046   2.335   0.506 -1.4260 -1.8384 -1.0502
  398SOL     OW 1192   2.128   3.073   1.007 -0.3743  1.1261  0.1880
  398SOL    HW1 1193   2.128   2.973   1.043 -1.2951 -1.2239  2.8523
  398SOL    HW2 1194   2.071   3.140   1.065  3.6601  0.5474 -0.9061
  399SOL     OW 1195   3.037   2.487   2.520  0.1489 -0.5241 -0.3520
  399SOL    HW1 1196   2.949   2.449   2.483 -0.2519 -0.1517  0.5917
  399SOL    HW2 1197   3.059   2.458   2.622  2.3187 -2.6299  0.6518
  400SOL     OW 1198   0.765   1.619   1.336 -0.1562 -0.3656 -0.2641
  400SOL    HW1 1199   0.741   1.678   1.413  0.6789 -2.5134  1.3940
  400SOL    HW2 1200   0.790   1.667   1.244 -3.0514  2.4943 -0.0608
  401SOL     OW 1201   1.786   0.092   1.336  0.1145 -0.0623 -0.2903
  401SOL    HW1 1202   1.826   0.115   1.429  1.1739 -0.1039 -1.9451
  401SOL    HW2 1203   1.679   0.098   1.332 -0.9113  0.5558  0.2778
  402SOL     OW 1204   1.323   0.148   3.059  0.1909  0.1631  0.0960
  402SOL    HW1 1205   1.423   0.145   3.030 -1.1568  3.1650  0.3676
  402SOL    HW2 1206   1.277   0.241   3.061 -1.0853  2.3813 -0.8221
  403SOL     OW 1207   2.324   1.774   0.886  0.0532 -0.0918  0.7266
  403SOL    HW1 1208   2.424   1.782   0.906  1.1941  0.3116 -0.7116
  403SOL    HW2 1209   2.273   1.822   0.961 -1.3294 -0.2478 -2.7669
  404SOL     OW 1210   0.184   2.527   2.790 -0.2491  0.2372 -0.6327
  404SOL    HW1 1211   0.257   2.467   2.837  1.2859 -0.5143  2.0399
  404SOL    HW2 1212   0.186   2.626   2.822  1.3953 -0.0961  1.1027
  405SOL     OW 1213   0.163   2.393   0.673 -0.2789 -0.2565  0.1948
  405SOL    HW1 1214   0.131   2.330   0.591 -1.9963 -2.7448  1.1019
  405SOL    HW2 1215   0.196   2.486   0.645  0.6888 -4.3229 -4.3653
  406SOL     OW 1216   0.037   1.512   3.029  0.4377  0.6337 -0.0493
  406SOL    HW1 1217   0.070   1.412   3.008  2.5105 -0.0406 -1.0769
  406SOL    HW2 1218   0.117   1.572   3.037 -3.0718  0.8543  0.1548
  407SOL     OW 1219   1.577   0.961   0.903 -0.3096  0.0181  0.6318
  407SOL    HW1 1220   1.581   0.910   0.808 -0.8835 -1.9530  2.6278
  407SOL    HW2 1221   1.484   0.977   0.932  2.0338 -1.2738 -2.3163
  408SOL     OW 1222   1.597   2.339   0.940  0.7041  0.3144 -0.2148
  408SOL    HW1 1223   1.637   2.315   0.848  0.0681  0.3685  0.7017
  408SOL    HW2 1224   1.548   2.437   0.937  3.3449  2.7231  0.5823
  409SOL     OW 1225   0.629   0.849   0.689 -0.1636  0.1225  0.6993
  409SOL    HW1 1226   0.579   0.836   0.603  1.6047  0.8591  0.6242
  409SOL    HW2 1227   0.647   0.755   0.735  2.4984 -1.4878  3.0026
  410SOL     OW 1228   1.279   2.054   1.420  0.7535 -0.0382  0.2538
  410SOL    HW1 1229   1.348   1.996   1.471  0.5659 -0.8316 -1.6190
  410SOL    HW2 1230   1.185   2.003   1.404 -2.5994 -4.3408 -3.0165
  411SOL     OW 1231   2.530   1.860   3.086  0.5297  0.4458 -0.2539
  411SOL    HW1 1232   2.472   1.926   3.036  2.0146  1.4201 -0.1198
  411SOL    HW2 1233   2.605   1.817   3.026  1.0680  0.2552 -0.7611
  412SOL     OW 1234   1.464   2.497   2.191  0.3235 -0.1041 -0.1407
  412SOL    HW1 1235   1.502   2.590   2.212 -0.7061  0.1281 -3.4163
  412SOL    HW2 1236   1.379   2.471   2.252  0.3942  1.2080 -0.4816
  413SOL     OW 1237   3.076   0.267   2.983  0.0004 -0.9491  0.4312
  413SOL    HW1 1238   3.031   0.174   3.006 -1.7992 -0.6117  0.9385
  413SOL    HW2 1239   3.178   0.258   2.955 -0.6179  1.8189  0.2596
  414SOL     OW 1240   1.831   1.518   1.239  0.5223  0.3468 -0.1020
  414SOL    HW1 1241   1.734   1.564   1.248 -0.2683  3.6019 -0.8086
  414SOL    HW2 1242   1.821   1.422   1.204 -1.4248  1.5790 -0.2100
  415SOL     OW 1243   0.335   2.177   0.713  0.1843  0.4894 -0.6534
  415SOL    HW1 1244   0.293   2.270   0.712  3.5235 -0.7079  1.0390
  415SOL    HW2 1245   0.293   2.116   0.787  0.8963  0.0428  2.4241
  416SOL     OW 1246   0.348   1.018   1.053  0.8837 -0.0978 -0.3082
  416SOL    HW1 1247   0.314   0.992   0.957  2.3830  3.5740  0.7755
  416SOL    HW2 1248   0.448   1.040   1.056 -0.7896  1.8431  0.2667
  417SOL     OW 1249   2.198   2.286   1.942  1.0217 -0.0828  0.6757
  417SOL    HW1 1250   2.288   2.265   1.987  1.3717  1.7869  1.7976
  417SOL    HW2 1251   2.132   2.203   1.953  0.3983  1.1561  0.0079
  418SOL     OW 1252   1.101   0.511   1.359 -0.3488  0.1109  0.7540
  418SOL    HW1 1253   1.053   0.473   1.274 -0.6811  0.1406 -1.4105
  418SOL    HW2 1254   1.198   0.552   1.334 -0.0187  0.5405  2.5118
  419SOL     OW 1255   0.926   0.436   3.008 -0.0209  0.6035  0.1399
  419SOL    HW1 1256   0.946   0.425   2.907  0.8203  3.8946 -0.5551
  419SOL    HW2 1257   0.850   0.496   3.029 -1.6694 -1.6981 -0.4438
  420SOL     OW 1258   0.063   2.251   0.442  0.4189  0.4603  0.3461
  420SOL    HW1 1259   0.102   2.215   0.355  2.0148  0.5641  2.5074
  420SOL    HW2 1260  -0.003   2.180   0.483 -1.1449  0.1372 -1.2539
  421SOL     OW 1261   0.360   2.993   0.679 -0.3130  0.3961 -0.1262
  421SOL    HW1 1262   0.373   2.896   0.710  0.7249 -0.3312 -1.2034
  421SOL    HW2 1263   0.447   3.046   0.684 -4.1897  1.5906 -0.7159
  422SOL     OW 1264   1.055   2.493   1.014  0.6311 -0.2522 -0.3437
  422SOL    HW1 1265   1.096   2.564   0.954 -0.7907 -2.2434  0.9552
  422SOL    HW2 1266   1.038   2.515   1.114 -0.7271  1.3581 -0.8988
  423SOL     OW 1267   0.077   0.664   1.267 -0.0473  0.1941  0.7412
  423SOL    HW1 1268   0.032   0.639   1.359 -2.0033  1.3279  3.1572
  423SOL    HW2 1269   0.033   0.753   1.224 -0.6825  0.1868 -0.7491
  424SOL     OW 1270   0.998   2.213   2.039 -0.4614 -0.6507  0.4086
  424SOL    HW1 1271   0.981   2.315   2.011  1.3537 -0.0839 -0.1098
  424SOL    HW2 1272   0.988   2.206   2.142 -1.1229  3.3851  0.4569
  425SOL     OW 1273   2.002   1.354   0.984  0.1117 -0.9486  0.0588
  425SOL    HW1 1274   2.055   1.277   1.028 -0.5523  0.5519  0.9637
  425SOL    HW2 1275   2.064   1.429   0.938  2.9976  1.3263  2.1593
  426SOL     OW 1276   1.518   1.616   1.374 -0.6901 -0.0147 -0.2361
  426SOL    HW1 1277   1.526   1.683   1.294  1.0251 -1.0343  3.2124
  426SOL    HW2 1278   1.434   1.632   1.433 -2.6287  2.2334 -0.3297
  427SOL     OW 1279   1.892   2.376   2.041  0.0626 -0.4088 -0.2649
  427SOL    HW1 1280   1.932   2.294   2.095  1.9450  0.9397  1.2322
  427SOL    HW2 1281   1.931   2.467   2.070 -0.2416  1.9392  0.5482
  428SOL     OW 1282   0.878   3.006   0.211 -0.1006  0.5714 -0.0420
  428SOL    HW1 1283   0.865   3.097   0.165 -0.1029 -1.1787  0.4709
  428SOL    HW2 1284   0.974   2.963   0.202 -1.1930  1.7163  1.4177
  429SOL     OW 1285   1.348   0.064   0.232  0.0805 -0.0171  0.8618
  429SOL    HW1 1286   1.435   0.108   0.266 -1.0937 -0.9768 -1.2369
  429SOL    HW2 1287   1.342   0.073   0.128 -3.2981 -0.5810  1.7787
  430SOL     OW 1288   2.805   1.403   0.314 -0.7509  0.0555 -0.2632
  430SOL    HW1 1289   2.840   1.460   0.232 -1.0508 -1.7346  0.3038
  430SOL    HW2 1290   2.805   1.450   0.407  2.6697 -0.0663  2.1647
  431SOL     OW 1291   2.128   1.565   0.860 -0.2533 -0.4702  0.2203
  431SOL    HW1 1292   2.208   1.631   0.866  0.3064 -0.0873  0.3588
  431SOL    HW2 1293   2.080   1.582   0.769 -1.4741  1.6934 -1.9243
  432SOL     OW 1294   2.866   2.242   1.255 -0.6051 -0.2755  0.7089
  432SOL    HW1 1295   2.822   2.173   1.320  0.9007  0.9122  1.3906
  432SOL    HW2 1296   2.936   2.300   1.309 -0.1501 -1.2924  2.8563
  433SOL     OW 1297   1.932   0.391   0.846 -0.4892 -0.4598 -0.6784
  433SOL    HW1 1298   1.863   0.334   0.900 -2.8002  0.7166 -0.9939
  433SOL    HW2 1299   2.025   0.368   0.868 -1.7801  0.0413  0.8817
  434SOL     OW 1300   1.495   0.294   0.735 -0.3630 -0.9481  0.0350
  434SOL    HW1 1301   1.449   0.384   0.714  0.5318 -3.3088  2.0277
  434SOL    HW2 1302   1.567   0.295   0.805 -0.4893 -0.4172  0.3098
  435SOL     OW 1303   1.481   1.472   2.123  0.8803  0.1783 -0.6501
  435SOL    HW1 1304   1.426   1.522   2.197  0.0136  4.8474 -0.7822
  435SOL    HW2 1305   1.496   1.538   2.043  0.5127  0.7663  2.5772
  436SOL     OW 1306   1.677   2.753   2.206  0.2072  0.3439  0.2371
  436SOL    HW1 1307   1.634   2.838   2.251  0.7842  0.0221  3.0503
  436SOL    HW2 1308   1.677   2.664   2.259 -0.2293 -1.6299 -1.9151
  437SOL     OW 1309   1.039   2.920   0.939  0.0600  0.3831 -0.3510
  437SOL    HW1 1310   1.002   3.005   0.897 -1.5350  0.9943  5.9749
  437SOL    HW2 1311   1.025   2.906   1.040  1.5088 -0.7268 -0.8734
  438SOL     OW 1312   1.018   2.595   1.286 -0.1509  0.2258  0.3222
  438SOL    HW1 1313   1.057   2.654   1.361 -1.6947  3.4998  1.3576
  438SOL    HW2 1314   1.028   2.493   1.307 -0.8233  1.5326  0.3883
  439SOL     OW 1315   0.684   1.734   1.085  0.3184  0.2814  0.1924
  439SOL    HW1 1316   0.697   1.823   1.034  1.0677  0.7429  0.4761
  439SOL    HW2 1317   0.588   1.717   1.119 -0.0306 -0.2113 -0.3711
  440SOL     OW 1318   0.987   2.486   1.975  0.2613  0.3056  0.4189
  440SOL    HW1 1319   0.946   2.510   1.879  0.2417 -0.0942  0.1742
  440SOL    HW2 1320   1.086   2.510   1.973 -0.8553  0.7783 -1.8426
  441SOL     OW 1321   0.492   2.724   1.395  0.2886  0.3902  0.6131
  441SOL    HW1 1322   0.511   2.618   1.387  0.1351  0.2026  0.5063
  441SOL    HW2 1323   0.404   2.751   1.358  3.1481 -0.2918 -0.4634
  442SOL     OW 1324   2.339   0.655   2.427 -0.1699  0.2142  0.0440
  442SOL    HW1 1325   2.339   0.561   2.470  0.3856  1.6840  0.7043
  442SOL    HW2 1326   2.240   0.686   2.421 -1.1847  3.6170  1.1838
  443SOL     OW 1327   1.241   2.728   2.141  0.0639 -0.1374 -0.1134
  443SOL    HW1 1328   1.264   2.804   2.207  1.9064  0.9780  2.0182
  443SOL    HW2 1329   1.236   2.630   2.186  1.6169  0.2020  1.6581
  444SOL     OW 1330   1.084   1.286   1.606 -0.4034  0.1675  0.0830
  444SOL    HW1 1331   1.164   1.248   1.548 -1.9479 -2.4868 -1.3317
  444SOL    HW2 1332   1.119   1.345   1.686  0.9631  0.9169  1.0112
  445SOL     OW 1333   0.017   2.395   1.845 -0.4069  0.1538 -0.4106
  445SOL    HW1 1334  -0.008   2.483   1.801  1.5755 -0.4391  1.3394
  445SOL    HW2 1335  -0.059   2.354   1.902 -0.8521  1.4411  2.3483
  446SOL     OW 1336   0.251   1.933   2.338 -0.5084 -0.0927 -0.1935
  446SOL    HW1 1337   0.195   2.007   2.383  2.3667 -0.9806  1.1496
  446SOL    HW2 1338   0.212   1.883   2.261  1.8182  0.3030  0.4993
  447SOL     OW 1339   1.186   1.709   1.918 -0.2780 -0.1496 -0.3088
  447SOL    HW1 1340   1.097   1.764   1.902 -0.7404 -0.7401  0.1528
  447SOL    HW2 1341   1.269   1.768   1.920 -1.7926  1.6306  3.9140
  448SOL     OW 1342   0.124   1.524   1.966  0.3943  0.3565 -0.1826
  448SOL    HW1 1343   0.113   1.619   1.934 -0.6066 -3.0327  1.8799
  448SOL    HW2 1344   0.091   1.512   2.062  1.7343  1.6689 -0.0334
  449SOL     OW 1345   1.936   2.948   0.854  0.6827 -0.3728 -0.3216
  449SOL    HW1 1346   2.000   2.993   0.926  1.3355  2.4037 -0.5646
  449SOL    HW2 1347   1.978   2.863   0.802  0.5227 -1.5912 -1.9693
  450SOL     OW 1348   2.341   1.389   0.733 -0.5408 -0.4314  0.1658
  450SOL    HW1 1349   2.248   1.353   0.712 -0.2919  0.2074 -1.6284
  450SOL    HW2 1350   2.366   1.468   0.668  1.3446 -0.4552  2.4038
  451SOL     OW 1351   1.352   3.011   1.462 -0.3909  0.8052 -0.1965
  451SOL    HW1 1352   1.280   3.077   1.488 -0.9891  0.8965 -0.8568
  451SOL    HW2 1353   1.385   2.950   1.540 -0.9376  1.9617  0.9137
  452SOL     OW 1354   2.694   2.295   2.157 -0.4852  0.1919 -0.2016
  452SOL    HW1 1355   2.606   2.343   2.185 -0.5185 -1.0283 -0.0243
  452SOL    HW2 1356   2.737   2.247   2.242 -0.8536  2.5645 -0.9731
  453SOL     OW 1357   2.486   2.650   3.087  0.2372 -0.1900 -0.3752
  453SOL    HW1 1358   2.395   2.702   3.104  2.5052 -1.2226  0.1384
  453SOL    HW2 1359   2.474   2.574   3.015 -1.6025  3.1667  1.1740
  454SOL     OW 1360   1.023   1.161   2.093  0.1667 -0.1999 -0.5208
  454SOL    HW1 1361   0.997   1.146   1.992  1.2072 -2.1219 -1.4515
  454SOL    HW2 1362   1.112   1.212   2.094  0.8876  0.2159 -0.3479
  455SOL     OW 1363   0.646   2.673   2.929  0.1263 -0.4724 -0.5085
  455SOL    HW1 1364   0.734   2.699   2.976 -1.4176  1.9671 -0.0685
  455SOL    HW2 1365   0.620   2.574   2.949 -1.0709 -2.8703  1.0083
  456SOL     OW 1366   0.459   1.866   0.302  0.1490  0.3008  0.3732
  456SOL    HW1 1367   0.529   1.836   0.371  0.8762  0.3642  0.6514
  456SOL    HW2 1368   0.477   1.961   0.274  1.3319 -0.9074  1.1965
  457SOL     OW 1369   0.270   2.651   0.651  0.1464 -0.3866  0.5724
  457SOL    HW1 1370   0.261   2.713   0.570  0.1532 -1.3251  1.5992
  457SOL    HW2 1371   0.361   2.610   0.662  2.2222 -0.0510  0.8060
  458SOL     OW 1372   2.964   3.049   1.213  0.3987  0.3326  0.0031
  458SOL    HW1 1373   2.974   3.150   1.195  1.2465  0.6309 -0.5323
  458SOL    HW2 1374   2.953   3.001   1.122 -1.6628  1.8026  1.8733
  459SOL     OW 1375   2.173   2.551   0.778  0.1152 -0.7754  0.6094
  459SOL    HW1 1376   2.198   2.651   0.803  1.1169  0.1378  0.0282
  459SOL    HW2 1377   2.253   2.510   0.726 -0.1991  1.6057  0.7830
  460SOL     OW 1378   1.169   2.001   2.867 -0.2866 -0.4222  0.2496
  460SOL    HW1 1379   1.204   2.019   2.767  0.5390  1.0627  1.5837
  460SOL    HW2 1380   1.234   1.941   2.921 -0.8634  1.2370  1.1118
  461SOL     OW 1381   0.543   2.075   2.688 -0.3516 -0.0582 -0.5219
  461SOL    HW1 1382   0.474   2.001   2.671  1.1241 -1.2457 -0.6868
  461SOL    HW2 1383   0.579   2.064   2.785  0.0520 -1.9878  1.0462
  462SOL     OW 1384   0.957   1.121   1.835 -0.3853 -0.9615  0.4116
  462SOL    HW1 1385   1.012   1.049   1.783 -0.5768  0.1479 -1.1448
  462SOL    HW2 1386   0.905   1.197   1.773  0.0054  1.2567 -1.1134
  463SOL     OW 1387   0.461   0.773   0.484 -0.5032 -0.6957  0.2636
  463SOL    HW1 1388   0.460   0.672   0.475  0.4859  1.3392  1.4508
  463SOL    HW2 1389   0.365   0.804   0.516 -0.4060  0.1598 -1.8444
  464SOL     OW 1390   0.611   2.273   2.237 -0.3464 -0.0455 -0.2968
  464SOL    HW1 1391   0.579   2.358   2.293 -0.0688  0.8374  2.0256
  464SOL    HW2 1392   0.580   2.281   2.137 -0.0834  1.6715  0.7155
  465SOL     OW 1393   0.309   0.913   0.782  0.3092  0.0595  0.4967
  465SOL    HW1 1394   0.216   0.942   0.739 -1.8423 -0.7615 -2.8489
  465SOL    HW2 1395   0.338   0.819   0.770 -0.1355  1.8603  1.3856
  466SOL     OW 1396   1.353   1.130   1.074 -0.5287  0.3959  0.1723
  466SOL    HW1 1397   1.394   1.172   0.992 -3.2033  0.4473  0.3804
  466SOL    HW2 1398   1.250   1.124   1.064  0.6238 -1.0513 -0.3744
  467SOL     OW 1399   0.452   0.360   2.373  0.1486 -0.2486  0.4037
  467SOL    HW1 1400   0.405   0.456   2.375  0.1055 -0.0437 -0.5862
  467SOL    HW2 1401   0.478   0.312   2.462  0.4054 -2.0586 -1.6144
  468SOL     OW 1402   0.454   2.293   1.655  0.2406  0.1733  0.0504
  468SOL    HW1 1403   0.496   2.367   1.711 -2.2462 -0.8900  1.5101
  468SOL    HW2 1404   0.414   2.325   1.565 -1.0497  0.3916 -2.2735
  469SOL     OW 1405   1.510   1.386   1.196 -0.0112 -0.4101  0.2085
  469SOL    HW1 1406   1.576   1.311   1.157  1.8738 -0.1145 -0.9423
  469SOL    HW2 1407   1.527   1.421   1.291 -2.0800  0.9721  1.3162
  470SOL     OW 1408   3.037   1.666   0.778  0.3512  0.1434  0.3576
  470SOL    HW1 1409   3.108   1.731   0.746 -0.1413 -2.8149  0.2884
  470SOL    HW2 1410   2.958   1.709   0.835  1.0389  1.3782 -0.2552
  471SOL     OW 1411   2.664   1.306   2.148 -0.7105  0.2271  0.0846
  471SOL    HW1 1412   2.637   1.245   2.228  1.0229 -0.7514  0.8148
  471SOL    HW2 1413   2.749   1.365   2.172 -1.1290  0.4895 -0.8465
  472SOL     OW 1414   1.131   2.479   3.072 -0.0855  0.2756 -0.2518
  472SOL    HW1 1415   1.177   2.479   3.168 -0.2693 -1.6240  2.1272
  472SOL    HW2 1416   1.129   2.380   3.032  2.8050 -1.1209 -0.8505
  473SOL     OW 1417   1.103   1.530   0.997  0.1249 -0.2948 -0.2451
  473SOL    HW1 1418   0.992   1.532   0.992 -2.5374 -0.0994  1.6350
  473SOL    HW2 1419   1.144   1.510   1.087  0.1445  1.7531 -2.1739
  474SOL     OW 1420   0.706   1.292   0.559 -0.0689 -0.4254  0.5079
  474SOL    HW1 1421   0.660   1.278   0.467  2.0795  1.2554 -1.8709
  474SOL    HW2 1422   0.755   1.202   0.591 -0.2411 -1.5361 -0.0836
  475SOL     OW 1423   2.828   0.092   0.801 -0.2169  0.2471 -0.0896
  475SOL    HW1 1424   2.915   0.140   0.842 -0.6770  1.4309  2.2530
  475SOL    HW2 1425   2.739   0.123   0.854 -1.1362 -0.2705  1.5877
  476SOL     OW 1426   0.942   3.033   1.810 -0.9259  0.2357 -1.1642
  476SOL    HW1 1427   1.014   2.971   1.855  0.1915 -1.3174 -1.2026
  476SOL    HW2 1428   0.947   3.038   1.704  1.3010  1.8361 -2.2615
  477SOL     OW 1429   1.468   0.329   2.472 -0.3289  0.3710  0.1124
  477SOL    HW1 1430   1.440   0.352   2.574 -3.9499  2.0171 -0.0367
  477SOL    HW2 1431   1.566   0.302   2.457 -0.2361 -2.2229 -1.6566
  478SOL     OW 1432   2.215   1.849   0.263 -0.4368 -0.0241 -0.0250
  478SOL    HW1 1433   2.143   1.769   0.243 -0.0274 -1.5317 -0.1038
  478SOL    HW2 1434   2.313   1.819   0.261  0.1802  1.0314 -2.8755
  479SOL     OW 1435   1.248   1.077   2.919 -0.6394  0.2598  0.2643
  479SOL    HW1 1436   1.317   1.085   2.846 -2.5570 -0.9173 -1.7604
  479SOL    HW2 1437   1.156   1.032   2.893  1.8984 -1.4826 -2.3813
  480SOL     OW 1438   2.551   2.343   0.369 -1.0794 -0.3899 -0.4461
  480SOL    HW1 1439   2.541   2.240   0.380  2.2645 -0.9663  0.5565
  480SOL    HW2 1440   2.473   2.396   0.325  0.4499 -0.3517 -1.1061
  481SOL     OW 1441   1.019   1.124   0.826  0.6271 -0.0363 -0.7890
  481SOL    HW1 1442   1.040   1.220   0.786 -1.7294  1.4476  1.3943
  481SOL    HW2 1443   1.002   1.127   0.929  0.8538 -0.7801  0.1063
  482SOL     OW 1444   1.578   0.279   2.051  0.4513 -0.1495 -0.3469
  482SOL    HW1 1445   1.573   0.379   2.036 -1.0653  1.5805  2.5652
  482SOL    HW2 1446   1.673   0.250   2.087 -1.0806  0.3679 -0.6677
  483SOL     OW 1447   0.125   2.304   1.277  0.0815 -0.0620 -0.1672
  483SOL    HW1 1448   0.054   2.333   1.346 -0.7327  0.4494 -0.3706
  483SOL    HW2 1449   0.139   2.372   1.203 -2.2297 -1.4095 -1.5364
  484SOL     OW 1450   1.739   1.061   1.364  0.0731 -0.0001  0.2933
  484SOL    HW1 1451   1.799   0.976   1.349  1.3823 -0.3198 -1.1951
  484SOL    HW2 1452   1.791   1.131   1.424 -1.0456  2.6570  0.4268
  485SOL     OW 1453   0.662   1.038   1.801 -0.3925  0.1544  0.1127
  485SOL    HW1 1454   0.671   0.994   1.705  3.2082  2.8098 -0.4579
  485SOL    HW2 1455   0.751   1.071   1.834 -0.2940 -1.1068  1.0235
  486SOL     OW 1456   0.853   1.957   2.455  0.7642 -0.3429  0.1559
  486SOL    HW1 1457   0.914   1.924   2.528 -0.4988 -2.8006 -0.0893
  486SOL    HW2 1458   0.843   2.060   2.456 -1.7705  2.1361 -2.7422
  487SOL     OW 1459   1.839   1.625   0.939 -0.9327 -0.5440  0.0788
  487SOL    HW1 1460   1.905   1.562   0.990 -0.7808  0.5442  0.8842
  487SOL    HW2 1461   1.847   1.627   0.837 -2.2202  0.1871 -2.7883
  488SOL     OW 1462   2.952   0.870   2.257 -0.3009 -0.0592  0.1048
  488SOL    HW1 1463   2.944   0.769   2.240 -0.7181  0.1192  0.7362
  488SOL    HW2 1464   3.007   0.886   2.345  1.9260  0.9974 -0.3867
  489SOL     OW 1465   2.757   0.218   1.314  0.3995  0.3913 -0.2033
  489SOL    HW1 1466   2.717   0.174   1.399 -2.3049 -2.5574  0.3775
  489SOL    HW2 1467   2.862   0.204   1.301 -0.2998  1.5761 -1.3120
  490SOL     OW 1468   1.456   2.932   2.820  0.1972 -0.6681 -0.5013
  490SOL    HW1 1469   1.524   2.850   2.803  1.8277  0.8211  0.0020
  490SOL    HW2 1470   1.415   2.959   2.729  2.6787 -0.1221  0.0439
  491SOL     OW 1471   1.827   1.458   2.604  0.2612 -0.0473 -0.2040
  491SOL    HW1 1472   1.817   1.422   2.699  0.2576  0.1698 -1.5032
  491SOL    HW2 1473   1.915   1.510   2.595  0.7229  1.4494 -0.8479
  492SOL     OW 1474   0.530   1.971   0.684  0.2160 -0.1695 -0.5057
  492SOL    HW1 1475   0.586   1.963   0.778 -0.4330 -1.2690  0.6773
  492SOL    HW2 1476   0.450   2.037   0.681  0.9817 -0.7347  0.4271
  493SOL     OW 1477   0.384   1.400   2.058 -0.2255 -0.0646  0.7752
  493SOL    HW1 1478   0.301   1.459   2.037  0.4680  1.5703  0.8344
  493SOL    HW2 1479   0.374   1.343   2.139 -0.0391  1.4921 -1.6177
  494SOL     OW 1480   2.703   2.700   0.167 -0.7671  0.2975  0.4939
  494SOL    HW1 1481   2.695   2.630   0.242  0.1768  4.4549  0.2017
  494SOL    HW2 1482   2.637   2.686   0.090  1.1881 -1.4424  1.1438
  495SOL     OW 1483   2.755   2.664   2.715  0.8184 -0.4359 -0.3606
  495SOL    HW1 1484   2.672   2.602   2.709  0.1253  1.2082  0.6210
  495SOL    HW2 1485   2.785   2.694   2.618  1.2990  0.0239 -1.8309
  496SOL     OW 1486   2.053   2.247   0.705  0.3876 -0.5572  0.0594
  496SOL    HW1 1487   2.082   2.281   0.799 -2.5581  1.2495  0.1612
  496SOL    HW2 1488   2.104   2.167   0.671 -1.9418 -0.2847  0.3498
  497SOL     OW 1489   0.253   2.968   2.451  0.0194 -0.2112  0.4887
  497SOL    HW1 1490   0.214   3.043   2.509  0.2494 -1.1245  2.6003
  497SOL    HW2 1491   0.296   3.001   2.360  0.6033 -0.9638  0.2109
  498SOL     OW 1492   1.230   1.405   1.217  0.5417  0.0111  0.2563
  498SOL    HW1 1493   1.330   1.405   1.194  1.3510 -0.7611  0.3917
  498SOL    HW2 1494   1.201   1.471   1.294 -0.7842  0.6771  0.1100
  499SOL     OW 1495   0.703   1.853   0.446  0.1415  0.5815  0.2103
  499SOL    HW1 1496   0.751   1.765   0.469 -1.7235 -1.3933  2.7719
  499SOL    HW2 1497   0.682   1.911   0.529  0.4776 -0.2533 -1.1111
  500SOL     OW 1498   1.450   2.883   1.681  0.1466  0.2280 -0.2219
  500SOL    HW1 1499   1.391   2.866   1.765  2.9528  1.9645 -0.3385
  500SOL    HW2 1500   1.501   2.790   1.662  3.7249  0.5046 -0.6508
  501SOL     OW 1501   0.814   1.119   2.283  0.3766  0.0075 -0.1075
  501SOL    HW1 1502   0.729   1.057   2.262 -2.4764 -2.0014  0.6766
  501SOL    HW2 1503   0.876   1.136   2.201  0.2966  0.1171  1.5037
  502SOL     OW 1504   2.618   0.954   1.731  0.5425 -0.2372 -0.2409
  502SOL    HW1 1505   2.595   0.977   1.630  0.0497 -0.7638 -1.5901
  502SOL    HW2 1506   2.620   0.855   1.751 -0.3787  1.5804  0.9819
  503SOL     OW 1507   1.287   0.117   0.666 -0.2647  1.0291 -0.1013
  503SOL    HW1 1508   1.210   0.163   0.613 -2.2684 -2.9502 -1.4686
  503SOL    HW2 1509   1.371   0.183   0.674 -0.5989  0.3755 -0.4365
  504SOL     OW 1510   3.017   2.336   1.463  0.2791  0.1099 -0.4360
  504SOL    HW1 1511   2.951   2.389   1.521 -0.1986 -0.6281 -0.9158
  504SOL    HW2 1512   3.088   2.272   1.515  4.3096  1.0770 -3.9034
  505SOL     OW 1513   2.287   1.165   1.479 -0.8109 -0.3995  0.6892
  505SOL    HW1 1514   2.298   1.170   1.371  0.1516  0.3791 -0.6756
  505SOL    HW2 1515   2.346   1.238   1.523  0.7959  3.1713  1.9224
  506SOL     OW 1516   1.976   0.170   1.805  0.5164 -0.2953 -0.0079
  506SOL    HW1 1517   2.056   0.127   1.860  1.8819 -0.2666  1.4007
  506SOL    HW2 1518   1.951   0.269   1.842 -0.0838  3.6096 -0.7670
  507SOL     OW 1519   0.524   0.700   2.147  0.1944 -0.2672 -0.2150
  507SOL    HW1 1520   0.465   0.629   2.091  1.0730  4.4513 -1.7723
  507SOL    HW2 1521   0.613   0.654   2.185  1.3484  0.1451  2.1893
  508SOL     OW 1522   0.247   1.642   0.847 -0.4766  0.3832  0.8553
  508SOL    HW1 1523   0.338   1.670   0.811 -3.6004  1.6942 -2.7735
  508SOL    HW2 1524   0.201   1.704   0.921 -2.3075 -1.3574  0.8539
  509SOL     OW 1525   1.238   1.254   2.338  0.9101 -0.0690 -0.1788
  509SOL    HW1 1526   1.220   1.294   2.246 -0.5443  0.8942 -0.6943
  509SOL    HW2 1527   1.205   1.149   2.329  0.1518 -0.7316 -1.0956
  510SOL     OW 1528   1.272   2.005   2.106  0.6450  0.5231 -0.7275
  510SOL    HW1 1529   1.271   2.095   2.055 -0.2743 -1.3948 -0.5921
  510SOL    HW2 1530   1.174   1.967   2.129 -0.7109  0.8347 -0.5069
  511SOL     OW 1531   3.050   2.786   1.312  0.2541  0.7508 -0.1295
  511SOL    HW1 1532   3.030   2.759   1.214  0.2697 -3.1351 -0.8116
  511SOL    HW2 1533   2.965   2.785   1.368 -2.4013 -1.2628 -0.1537
  512SOL     OW 1534   2.387   0.453   1.349 -0.5289  0.2099 -0.2623
  512SOL    HW1 1535   2.295   0.416   1.364  1.6751 -1.0246  1.9663
  512SOL    HW2 1536   2.442   0.401   1.278  1.6295  0.8640 -1.6251
  513SOL     OW 1537   2.541   2.036   0.840 -0.1933  0.0867  0.0276
  513SOL    HW1 1538   2.478   2.102   0.790  0.5786 -2.6666 -0.9593
  513SOL    HW2 1539   2.616   2.007   0.775  1.3328  2.4356 -2.8142
  514SOL     OW 1540   0.597   2.755   0.480 -0.2599  0.3692  0.7450
  514SOL    HW1 1541   0.592   2.807   0.389 -0.0762 -0.6617  0.0457
  514SOL    HW2 1542   0.663   2.791   0.549  1.1714  0.7312 -1.4924
  515SOL     OW 1543   1.993   1.145   2.339  0.6107 -0.6571 -0.8417
  515SOL    HW1 1544   1.983   1.149   2.239 -0.4353  0.4256  4.4193
  515SOL    HW2 1545   1.910   1.134   2.397  3.7445  0.4228 -3.6193
  516SOL     OW 1546   0.220   0.320   1.899 -0.4707  0.4834  0.0321
  516SOL    HW1 1547   0.280   0.315   1.816 -1.9691  0.9607  1.6946
  516SOL    HW2 1548   0.164   0.234   1.910 -1.2395 -0.6172 -0.6005
  517SOL     OW 1549   0.453  -0.002   1.179  0.5907 -0.7291 -0.0760
  517SOL    HW1 1550   0.484   0.097   1.178 -0.3636 -0.0748 -0.0143
  517SOL    HW2 1551   0.359  -0.022   1.147  0.2779  1.6825 -0.2519
  518SOL     OW 1552   2.248  -0.000   1.828  0.1599 -0.1090  0.0406
  518SOL    HW1 1553   2.322   0.071   1.838  1.9036  1.7102  1.6716
  518SOL    HW2 1554   2.231  -0.031   1.726 -2.6524  2.0881 -1.5108
  519SOL     OW 1555   2.345   2.209   2.575  0.1781  0.7292  0.2827
  519SOL    HW1 1556   2.273   2.163   2.638  0.6787 -0.4658  0.5207
  519SOL    HW2 1557   2.312   2.304   2.544  1.3567 -0.5205 -0.4847
  520SOL     OW 1558   1.814   2.802   1.807  0.1193 -0.0038  0.7044
  520SOL    HW1 1559   1.723   2.780   1.858 -0.8618 -0.0764  2.6398
  520SOL    HW2 1560   1.861   2.714   1.766 -0.7873  1.5263 -1.1928
  521SOL     OW 1561   0.588   3.098   2.134  0.0997  0.3916  0.7690
  521SOL    HW1 1562   0.488   3.077   2.158 -0.0495  1.9807  2.0722
  521SOL    HW2 1563   0.642   3.090   2.220  1.2495  0.9413  0.8182
  522SOL     OW 1564   0.196   1.900   1.474  0.0959 -0.4403 -0.5048
  522SOL    HW1 1565   0.258   1.955   1.538 -2.9012  1.8549  0.9042
  522SOL    HW2 1566   0.197   1.932   1.373  0.4136  1.7268  0.0671
  523SOL     OW 1567   2.238   3.008   1.554  0.2965 -0.0922  0.2185
  523SOL    HW1 1568   2.320   2.948   1.583  0.1682  1.2543 -1.9583
  523SOL    HW2 1569   2.183   2.959   1.478 -0.1313  1.8732  0.6179
  524SOL     OW 1570   0.158   2.804   2.847  0.3816  0.3603  0.3256
  524SOL    HW1 1571   0.083   2.879   2.850  2.6275  2.6637 -0.9740
  524SOL    HW2 1572   0.254   2.838   2.823 -1.5120  0.3069 -1.6651
  525SOL     OW 1573   2.159   2.031   0.454 -0.0285  0.1254  0.7640
  525SOL    HW1 1574   2.158   1.980   0.546  0.0960  0.2342  0.9587
  525SOL    HW2 1575   2.173   1.971   0.368  1.1913 -0.3618 -0.9707
  526SOL     OW 1576   0.437   1.570   1.659 -0.4642  0.0624  0.3774
  526SOL    HW1 1577   0.465   1.601   1.751 -0.2366 -0.7597 -0.5853
  526SOL    HW2 1578   0.464   1.472   1.634 -0.3007  1.2000  1.9750
  527SOL     OW 1579   1.059   2.922   1.221  0.3355  0.0264  0.2670
  527SOL    HW1 1580   1.149   2.870   1.226  0.4806  0.9731  0.6891
  527SOL    HW2 1581   1.078   3.022   1.203  0.6948  1.0428  0.1396
  528SOL     OW 1582   1.326   2.430   0.556 -0.2670 -0.2786 -0.1015
  528SOL    HW1 1583   1.378   2.340   0.543 -0.9137  0.4899  0.7482
  528SOL    HW2 1584   1.385   2.502   0.599 -1.8995 -2.2766  0.2635
  529SOL     OW 1585   1.938   1.740   0.675  0.1616  0.1354 -0.1239
  529SOL    HW1 1586   1.860   1.766   0.608  1.1546 -0.2401  0.3001
  529SOL    HW2 1587   1.959   1.825   0.729 -4.0407 -0.9857 -1.0088
  530SOL     OW 1588   0.307   2.618   0.295 -0.4825 -0.3209  0.2346
  530SOL    HW1 1589   0.319   2.710   0.345  0.2985 -0.4629  2.2248
  530SOL    HW2 1590   0.311   2.536   0.357  1.5972  2.0619 -2.1792
  531SOL     OW 1591   1.843   0.986   0.959 -0.2163  0.1567  0.9606
  531SOL    HW1 1592   1.887   1.058   0.904 -0.2803 -1.9460 -0.5621
  531SOL    HW2 1593   1.739   0.986   0.943 -2.4620  2.4168  1.3418
  532SOL     OW 1594   0.421   1.178   0.708  0.3583 -0.3874  0.2591
  532SOL    HW1 1595   0.489   1.179   0.624 -0.1144 -2.5947  0.4253
  532SOL    HW2 1596   0.382   1.083   0.725  2.2912  0.5942  0.6732
  533SOL     OW 1597   1.730   0.009   2.591  0.0852  0.0853 -0.1265
  533SOL    HW1 1598   1.825  -0.009   2.622  0.0285  0.8189  0.6109
  533SOL    HW2 1599   1.682   0.084   2.640 -0.7446 -0.6293 -0.3194
  534SOL     OW 1600   0.370   0.207   1.641 -0.0444 -0.3120  0.4031
  534SOL    HW1 1601   0.467   0.208   1.595  0.9136 -1.6071  1.1968
  534SOL    HW2 1602   0.309   0.293   1.618  0.1865 -0.3777  0.1561
  535SOL     OW 1603   1.963   0.367   0.137  0.3001 -0.4537  0.0915
  535SOL    HW1 1604   1.954   0.456   0.186  0.4178 -2.2111 -0.8886
  535SOL    HW2 1605   1.949   0.285   0.195 -0.8889 -1.1330 -1.4006
  536SOL     OW 1606   1.411   2.561   0.935 -0.5814  0.1372 -0.3825
  536SOL    HW1 1607   1.408   2.535   1.038  1.1978  1.6059  0.7247
  536SOL    HW2 1608   1.318   2.580   0.897  0.8204 -0.9349  0.2835
  537SOL     OW 1609   0.787   0.240   2.394 -0.2634  0.6012  0.8435
  537SOL    HW1 1610   0.791   0.305   2.311 -1.3248 -0.9028 -0.5160
  537SOL    HW2 1611   0.731   0.153   2.367  3.2984 -1.6740  0.8570
  538SOL     OW 1612   1.649   2.374   1.554 -0.2099  0.0508  0.6765
  538SOL    HW1 1613   1.633   2.275   1.520  0.5084 -0.4819 -2.2972
  538SOL    HW2 1614   1.715   2.416   1.482  0.2361  0.5935 -1.0681
  539SOL     OW 1615   0.214   1.608   2.732  0.0584  0.1719 -0.2083
  539SOL    HW1 1616   0.134   1.622   2.664 -1.0994 -1.8034  2.9815
  539SOL    HW2 1617   0.210   1.670   2.813 -1.9495 -0.8156 -0.1162
  540SOL     OW 1618   2.690   1.711   1.922 -0.1334  0.5701 -0.1807
  540SOL    HW1 1619   2.662   1.641   1.995 -3.2081  0.6737  0.2932
  540SOL    HW2 1620   2.623   1.797   1.928 -1.8368  2.0710  2.8038
  541SOL     OW 1621   0.474   2.202   0.018 -0.2279 -0.1422 -0.0163
  541SOL    HW1 1622   0.492   2.198   0.121 -1.2968 -1.9399 -0.1058
  541SOL    HW2 1623   0.378   2.173   0.004 -0.3475 -1.5560  1.6815
  542SOL     OW 1624   2.262   2.582   0.445 -0.2946  0.1024 -0.1052
  542SOL    HW1 1625   2.235   2.681   0.457  1.9591  0.8035  1.5535
  542SOL    HW2 1626   2.176   2.523   0.455 -0.3683 -0.8979  1.9951
  543SOL     OW 1627   1.085   1.851   1.552  0.1439  0.3789  0.4056
  543SOL    HW1 1628   1.062   1.907   1.632 -0.3851  0.3746 -1.4649
  543SOL    HW2 1629   1.032   1.881   1.467 -0.3339 -0.3133 -0.9558
  544SOL     OW 1630   1.009   0.415   0.168  0.4662 -0.1242  0.1301
  544SOL    HW1 1631   1.022   0.323   0.210  1.2929  2.1252 -0.1369
  544SOL    HW2 1632   0.966   0.423   0.077  1.8749 -1.0196  3.0033
  545SOL     OW 1633   1.103   1.725   0.802 -0.1755 -0.0732  0.1707
  545SOL    HW1 1634   1.203   1.734   0.767 -1.5626 -1.1549 -1.4201
  545SOL    HW2 1635   1.095   1.655   0.881 -0.7540  0.7361  1.9816
  546SOL     OW 1636   2.647   1.470   3.019 -0.6116 -0.5079 -0.3421
  546SOL    HW1 1637   2.613   1.554   2.960 -3.7761  0.1282 -1.5324
  546SOL    HW2 1638   2.571   1.426   3.072 -0.6344  1.4123  0.8950
  547SOL     OW 1639   0.596   3.037   2.678  0.5643 -0.0586  0.2928
  547SOL    HW1 1640   0.700   3.011   2.663 -1.2858  2.1960  3.7954
  547SOL    HW2 1641   0.534   2.954   2.695 -0.4597  0.4365 -2.1351
  548SOL     OW 1642   2.086   0.904   2.962 -0.0714  0.9132 -0.7276
  548SOL    HW1 1643   1.988   0.872   2.969 -3.3263  0.8219 -1.7944
  548SOL    HW2 1644   2.101   0.993   3.006 -0.0765 -1.8338  0.7956
  549SOL     OW 1645   0.699   0.517   0.206 -0.0323  0.6560 -0.3139
  549SOL    HW1 1646   0.671   0.545   0.108  0.4149  0.3987 -0.3849
  549SOL    HW2 1647   0.762   0.583   0.255 -1.5926 -3.6774 -4.0992
  550SOL     OW 1648   2.574   2.826   2.902  0.5327  0.1751  0.6618
  550SOL    HW1 1649   2.526   2.759   2.965  1.0210  1.7558 -1.4038
  550SOL    HW2 1650   2.638   2.792   2.828  1.9597  0.0855 -0.0619
  551SOL     OW 1651   0.262   0.876   0.229  0.3724 -0.2220  0.0039
  551SOL    HW1 1652   0.362   0.850   0.233  0.1045 -0.2637  1.3617
  551SOL    HW2 1653   0.222   0.874   0.326  0.9257 -0.6126  1.3657
  552SOL     OW 1654   0.661   2.942   1.894 -0.9265  0.0667  0.1641
  552SOL    HW1 1655   0.638   3.003   1.982 -0.8220  1.2395  1.5818
  552SOL    HW2 1656   0.761   2.953   1.866  0.3852 -0.3097  0.9419
  553SOL     OW 1657   2.967   2.512   0.361 -0.4674 -0.3617  0.1601
  553SOL    HW1 1658   2.922   2.413   0.363 -1.5577 -2.9090  0.5806
  553SOL    HW2 1659   2.908   2.580   0.412 -0.1261 -0.6183  0.9513
  554SOL     OW 1660   2.154   0.386   0.570 -0.5747  0.1250 -0.0048
  554SOL    HW1 1661   2.219   0.400   0.489  1.0687  1.5162 -1.3239
  554SOL    HW2 1662   2.131   0.290   0.599  0.1768 -0.0227  2.1903
  555SOL     OW 1663   0.386   2.728   2.520 -0.3468  0.2028 -0.2329
  555SOL    HW1 1664   0.324   2.815   2.498 -0.3485  0.9361  0.5699
  555SOL    HW2 1665   0.434   2.691   2.434  1.1286 -1.0219 -2.1418
  556SOL     OW 1666   0.840   2.400   1.508 -0.2705 -0.2577  0.6106
  556SOL    HW1 1667   0.897   2.468   1.565  1.6637 -3.8558  0.0291
  556SOL    HW2 1668   0.904   2.339   1.452  0.2472 -0.1228 -1.7064
  557SOL     OW 1669   0.105   2.102   0.223  0.8557  0.1248  0.2909
  557SOL    HW1 1670   0.003   2.099   0.207  0.2280  1.6116  0.5110
  557SOL    HW2 1671   0.165   2.092   0.141 -1.1782 -2.3168 -1.4694
  558SOL     OW 1672   2.808   2.284   0.338 -0.3341  0.0422  0.6573
  558SOL    HW1 1673   2.714   2.324   0.340  0.1381  0.6505 -1.3666
  558SOL    HW2 1674   2.812   2.201   0.276  3.4977 -0.8377 -0.9972
  559SOL     OW 1675   0.372   2.280   1.405  0.1689 -0.1943  0.6413
  559SOL    HW1 1676   0.283   2.287   1.347 -0.4016  0.2997 -2.1939
  559SOL    HW2 1677   0.439   2.213   1.361 -1.6046 -1.0378 -1.9247
  560SOL     OW 1678   2.113   1.177   3.065  0.4194  0.7573  0.4035
  560SOL    HW1 1679   2.116   1.182   3.167 -0.6271 -0.7475 -0.7517
  560SOL    HW2 1680   2.151   1.261   3.017  0.3129  0.6580 -0.1417
  561SOL     OW 1681   3.060   1.854   0.035  0.0565  0.1795 -0.3965
  561SOL    HW1 1682   3.053   1.831   0.136  1.0169 -3.0253  0.8628
  561SOL    HW2 1683   3.004   1.937   0.008 -2.7461  1.3136 -0.2377
  562SOL     OW 1684   0.959   2.221   2.329 -0.3161 -0.0903 -0.1492
  562SOL    HW1 1685   0.909   2.241   2.421  1.3825  0.5981 -0.2362
  562SOL    HW2 1686   1.056   2.229   2.349 -0.6618 -1.4158  4.0789
  563SOL     OW 1687   0.706   2.586   2.619 -0.4281  0.0012  0.1089
  563SOL    HW1 1688   0.792   2.527   2.624 -0.2303  3.0496 -1.2265
  563SOL    HW2 1689   0.676   2.627   2.708 -1.0154 -0.5767  0.8078
  564SOL     OW 1690   2.825   1.327   2.904 -0.2787  0.3155  0.1339
  564SOL    HW1 1691   2.737   1.357   2.948 -1.3135  1.0340 -1.4875
  564SOL    HW2 1692   2.869   1.405   2.851 -2.0926  0.5227  0.1110
  565SOL     OW 1693   2.536   2.012   2.639  0.0498 -0.4690  0.0976
  565SOL    HW1 1694   2.475   2.096   2.608  0.5036 -0.7926 -1.6581
  565SOL    HW2 1695   2.605   2.047   2.713 -0.4906  2.1042  1.6803
  566SOL     OW 1696   2.084   2.831   1.429 -0.3498 -0.5954 -0.2687
  566SOL    HW1 1697   2.051   2.730   1.444  2.7162 -3.4701 -0.7062
  566SOL    HW2 1698   2.036   2.868   1.344 -0.8524 -1.8651  0.5684
  567SOL     OW 1699   2.419   3.071   2.378 -0.0414 -0.6321  0.3322
  567SOL    HW1 1700   2.327   3.032   2.390  0.6242 -3.1766  0.4516
  567SOL    HW2 1701   2.448   3.073   2.276  3.6622  1.0574  1.0436
  568SOL     OW 1702   1.529   1.743   0.216  0.4149 -0.4435 -0.4095
  568SOL    HW1 1703   1.458   1.818   0.196 -0.6836 -0.7081 -3.0453
  568SOL    HW2 1704   1.625   1.775   0.201  1.3135  4.0667  0.3020
  569SOL     OW 1705   0.295   0.634   0.849 -0.5168  0.1609 -0.2530
  569SOL    HW1 1706   0.343   0.567   0.785 -2.1485 -3.7377  0.5318
  569SOL    HW2 1707   0.200   0.609   0.861  1.3950 -0.8591  0.8338
  570SOL     OW 1708   0.616   0.863   2.930  0.3959 -0.1446  0.1864
  570SOL    HW1 1709   0.694   0.881   2.858  0.8260  1.8786 -1.8137
  570SOL    HW2 1710   0.615   0.930   3.009 -0.2504  0.6377  2.2700
  571SOL     OW 1711   0.790   3.069   1.035 -0.1125 -0.2754  0.5671
  571SOL    HW1 1712   0.862   3.114   0.973 -0.0078 -3.2323  3.8580
  571SOL    HW2 1713   0.784   2.967   1.015 -0.0703  0.3452 -1.1783
  572SOL     OW 1714   1.633   2.583   1.330  0.2074 -0.0795  0.1814
  572SOL    HW1 1715   1.556   2.532   1.295  1.5040  1.8554  2.4374
  572SOL    HW2 1716   1.629   2.683   1.305 -0.5418  0.2478 -1.3190
  573SOL     OW 1717   2.910   0.503   2.001 -0.0552 -0.1401 -0.0667
  573SOL    HW1 1718   2.822   0.453   1.993 -0.9497 -1.8101 -1.2252
  573SOL    HW2 1719   2.974   0.483   1.915  2.5156 -3.7754  2.1625
  574SOL     OW 1720   0.144   1.777   1.082 -0.7356  0.6690  0.1584
  574SOL    HW1 1721   0.131   1.881   1.104  2.4468  0.7582  0.0709
  574SOL    HW2 1722   0.083   1.716   1.141  0.0883 -0.3411 -0.8438
  575SOL     OW 1723   0.833   2.179   0.925 -0.2429  0.4136 -0.0822
  575SOL    HW1 1724   0.788   2.211   1.014  1.6768 -1.8581 -1.8946
  575SOL    HW2 1725   0.874   2.254   0.864 -0.2655  0.7533  1.2421
  576SOL     OW 1726   2.872   3.004   1.681 -0.2932 -0.3466 -0.0460
  576SOL    HW1 1727   2.774   3.005   1.714 -1.2799 -1.5501  1.1395
  576SOL    HW2 1728   2.901   3.091   1.628  2.1429 -0.2060  0.3659
  577SOL     OW 1729   2.489   1.207   0.002  0.5301  0.0427 -0.3280
  577SOL    HW1 1730   2.503   1.141  -0.077 -1.6775 -0.8303  0.6147
  577SOL    HW2 1731   2.570   1.215   0.065 -1.7336  0.8278  2.8055
  578SOL     OW 1732   1.440   2.715   2.436  0.6851 -0.0132  0.2838
  578SOL    HW1 1733   1.347   2.759   2.414  1.4164  1.7707 -1.0212
  578SOL    HW2 1734   1.510   2.788   2.438  0.8450 -2.2743 -1.8852
  579SOL     OW 1735   0.054   2.500   0.165  0.3101  0.0774  0.1175
  579SOL    HW1 1736   0.001   2.495   0.256 -1.0834  1.1829  0.3846
  579SOL    HW2 1737   0.156   2.517   0.175 -0.5785 -2.5517  0.9698
  580SOL     OW 1738   0.955   2.677   0.380 -0.3162 -0.4466 -0.0548
  580SOL    HW1 1739   1.026   2.704   0.304 -0.4394  3.3940  1.2130
  580SOL    HW2 1740   0.881   2.624   0.341  0.8528  0.7721 -2.7686
  581SOL     OW 1741   1.229   2.668   1.458 -0.1859  0.0018 -0.1050
  581SOL    HW1 1742   1.266   2.584   1.504 -1.4635 -0.4485 -0.2277
  581SOL    HW2 1743   1.289   2.716   1.384 -2.8900  0.3262 -3.8586
  582SOL     OW 1744   1.514   0.077   1.849 -0.0979  0.4861  0.0316
  582SOL    HW1 1745   1.539   0.142   1.926 -1.0833 -0.4943 -0.4220
  582SOL    HW2 1746   1.592   0.059   1.780  1.1603  2.5289  1.8096
  583SOL     OW 1747   2.453   3.069   0.550 -0.1105  0.2091 -0.4722
  583SOL    HW1 1748   2.516   3.007   0.495  0.3106 -1.0354 -0.4542
  583SOL    HW2 1749   2.368   3.017   0.579 -2.2760 -4.4924 -2.7978
  584SOL     OW 1750   1.544   1.068   2.159 -0.3723  0.7454  0.4867
  584SOL    HW1 1751   1.607   1.145   2.148 -1.2637 -0.6890  0.7382
  584SOL    HW2 1752   1.594   0.985   2.200  4.5487  1.7394  1.3595
  585SOL     OW 1753   2.156   2.674   2.931  0.1279  0.6298  0.1487
  585SOL    HW1 1754   2.153   2.574   2.897 -0.5235 -2.3694  1.4071
  585SOL    HW2 1755   2.067   2.713   2.961  2.1862  0.2961 -1.2132
  586SOL     OW 1756   2.824   0.363   1.625  0.0953 -0.2910  0.2933
  586SOL    HW1 1757   2.802   0.461   1.659 -1.2528 -3.4963 -2.6305
  586SOL    HW2 1758   2.748   0.324   1.568 -1.5101  1.2228  0.9407
  587SOL     OW 1759   2.084   1.548   2.643  0.2464 -0.5213  0.6585
  587SOL    HW1 1760   2.130   1.471   2.587  0.9195  1.9838 -0.9564
  587SOL    HW2 1761   2.085   1.520   2.742 -0.6213 -0.6496  1.1424
  588SOL     OW 1762   0.450   2.652   2.241 -0.6241  0.0939 -0.3876
  588SOL    HW1 1763   0.353   2.634   2.215  2.2587 -2.2489 -2.7967
  588SOL    HW2 1764   0.502   2.571   2.288  0.3168 -0.7261  0.6061
  589SOL     OW 1765   2.138   1.342   2.473  0.0001 -0.0412  0.0459
  589SOL    HW1 1766   2.092   1.255   2.432 -0.2836 -0.4906 -0.7384
  589SOL    HW2 1767   2.240   1.339   2.450 -1.1726  0.3505 -2.0233
  590SOL     OW 1768   2.340   1.701   2.041 -0.4774  0.4226 -0.3922
  590SOL    HW1 1769   2.402   1.620   2.058  2.9584  0.5042  3.0853
  590SOL    HW2 1770   2.336   1.760   2.127 -0.0635  0.7921  2.0720
  591SOL     OW 1771   1.277   2.420   0.209 -0.2564 -0.1224 -0.4687
  591SOL    HW1 1772   1.280   2.320   0.171 -2.9195 -0.2561 -1.9048
  591SOL    HW2 1773   1.286   2.423   0.311  0.3112  0.0670  0.7262
  592SOL     OW 1774   1.775   2.280   0.733 -0.6062  0.4798 -0.0366
  592SOL    HW1 1775   1.770   2.365   0.677 -1.6079 -0.1410  2.0318
  592SOL    HW2 1776   1.864   2.228   0.714  1.0377  1.3701 -0.6505
  593SOL     OW 1777   0.704   0.233   0.219 -0.0246 -0.0758 -0.3347
  593SOL    HW1 1778   0.760   0.221   0.134  0.1183 -0.4920  0.1251
  593SOL    HW2 1779   0.709   0.334   0.238  3.8493  0.0824 -1.2094
  594SOL     OW 1780   1.023   1.831   2.679 -0.3116 -0.3364  0.4928
  594SOL    HW1 1781   1.101   1.770   2.654  0.9155  1.2908 -2.1467
  594SOL    HW2 1782   1.035   1.886   2.762 -2.4081 -2.3962 -1.0917
  595SOL     OW 1783   1.542   0.028   1.079  0.4743  0.7057  0.4011
  595SOL    HW1 1784   1.612  -0.029   1.029  0.7442  0.4292 -2.2444
  595SOL    HW2 1785   1.446   0.017   1.039 -0.7730  0.0191  1.7175
  596SOL     OW 1786   0.039   1.490   2.263  0.0867  1.0076  0.5078
  596SOL    HW1 1787   0.070   1.391   2.267  1.4611  3.7835 -2.1817
  596SOL    HW2 1788   0.040   1.543   2.350 -0.4371 -1.1420 -0.9358
  597SOL     OW 1789   1.933   2.566   1.726 -0.1491  0.6349  0.1556
  597SOL    HW1 1790   1.947   2.572   1.624  0.6272  3.7107  0.3779
  597SOL    HW2 1791   2.008   2.509   1.762 -1.2866  0.8034  0.2273
  598SOL     OW 1792   2.554   2.935   1.220  0.1032 -0.5449  0.1874
  598SOL    HW1 1793   2.624   2.970   1.290 -0.0268 -1.5425  0.0847
  598SOL    HW2 1794   2.589   2.914   1.124 -1.6074 -0.2479 -1.7419
  599SOL     OW 1795   2.873   0.330   2.494 -0.1778 -0.0330 -0.2182
  599SOL    HW1 1796   2.969   0.368   2.495 -1.0311  1.0865  0.8134
  599SOL    HW2 1797   2.822   0.386   2.424  1.0133 -3.1772 -2.4737
  600SOL     OW 1798   2.794   1.124   2.739 -0.0575  0.1023 -0.1870
  600SOL    HW1 1799   2.783   1.027   2.775  0.9584 -1.6711 -2.4590
  600SOL    HW2 1800   2.811   1.203   2.807  1.5452 -1.4801  0.0237
  601SOL     OW 1801   3.020   1.317   1.997  0.5611 -0.3275  0.4162
  601SOL    HW1 1802   2.949   1.365   1.944 -0.2032  0.9976  1.9366
  601SOL    HW2 1803   3.116   1.351   1.970  1.1046  0.6931  0.6391
  602SOL     OW 1804   1.427   1.748   2.290  0.2219 -0.1879 -0.1837
  602SOL    HW1 1805   1.345   1.687   2.323  2.0699  0.7172  0.9118
  602SOL    HW2 1806   1.517   1.710   2.323  0.5935  0.6724 -2.0956
  603SOL     OW 1807   0.605   1.215   2.782  0.1870 -0.0046  0.7173
  603SOL    HW1 1808   0.524   1.185   2.724  1.6817 -1.2401 -1.3313
  603SOL    HW2 1809   0.686   1.146   2.789  0.1595 -2.6765  1.4285
  604SOL     OW 1810   2.389   1.005   0.159  0.3000 -0.1045 -0.0935
  604SOL    HW1 1811   2.430   1.090   0.114  2.5827  2.2100  2.0334
  604SOL    HW2 1812   2.407   0.922   0.108  0.8122  0.0764  1.1105
  605SOL     OW 1813   2.521   1.131   1.932 -0.4732 -0.3752 -0.2521
  605SOL    HW1 1814   2.559   1.050   1.872  0.6113  2.7861 -1.1459
  605SOL    HW2 1815   2.589   1.162   2.000 -1.5262 -2.1436 -0.6290
  606SOL     OW 1816   1.549   2.490   2.564  0.3463 -0.7603 -0.0447
  606SOL    HW1 1817   1.474   2.554   2.534  4.6640  0.7496 -0.4720
  606SOL    HW2 1818   1.512   2.391   2.563 -0.6532 -0.9277  2.7645
  607SOL     OW 1819   1.328   1.579   0.333  0.1442 -0.3588 -0.3017
  607SOL    HW1 1820   1.245   1.638   0.344 -2.8483 -0.0956 -0.5308
  607SOL    HW2 1821   1.408   1.633   0.289  1.5835  0.5285 -0.9843
  608SOL     OW 1822   1.442   2.809   0.401  0.1696 -0.2860  0.2308
  608SOL    HW1 1823   1.514   2.858   0.340  2.5374 -0.0307 -0.1306
  608SOL    HW2 1824   1.363   2.876   0.423  0.4265  3.6978  0.5613
  609SOL     OW 1825   1.273   1.330   0.264 -0.0916  0.0395  0.4731
  609SOL    HW1 1826   1.282   1.428   0.299 -0.7440 -0.3208 -1.1878
  609SOL    HW2 1827   1.257   1.325   0.158  2.6453 -2.1041 -4.0113
  610SOL     OW 1828   2.944   1.157   2.234  0.0899 -0.2301 -0.6248
  610SOL    HW1 1829   2.959   1.057   2.210  0.9459 -1.0752  1.0515
  610SOL    HW2 1830   2.939   1.220   2.151 -0.7386 -1.1185 -1.5093
  611SOL     OW 1831   2.527   0.289   1.163 -0.4544  0.2365  0.3946
  611SOL    HW1 1832   2.454   0.217   1.155  0.1828  0.3601 -3.2761
  611SOL    HW2 1833   2.611   0.256   1.215  0.1485  0.3413 -0.3291
  612SOL     OW 1834   0.759   2.260   1.168 -0.2432  0.1350  0.2040
  612SOL    HW1 1835   0.703   2.182   1.214 -1.9925  0.8044  4.1027
  612SOL    HW2 1836   0.711   2.348   1.145  2.2408 -2.3460  1.2731
  613SOL     OW 1837   0.812   1.388   2.402 -0.6677 -0.5457 -0.2586
  613SOL    HW1 1838   0.793   1.459   2.327  1.5780 -0.2367 -2.0234
  613SOL    HW2 1839   0.821   1.289   2.367  0.8830 -1.1679 -0.3959
  614SOL     OW 1840   1.557   1.694   1.969  0.0558 -0.6859  0.1775
  614SOL    HW1 1841   1.529   1.777   1.915 -1.2086  1.6882  1.8844
  614SOL    HW2 1842   1.596   1.719   2.062  0.0927 -0.5440  0.5040
  615SOL     OW 1843   0.812   1.355   1.725 -0.6137  0.0161  0.5448
  615SOL    HW1 1844   0.726   1.354   1.665 -0.1611  2.2283  0.6812
  615SOL    HW2 1845   0.877   1.434   1.688  0.8503  4.0613  1.1770
  616SOL     OW 1846   1.059   1.615   2.143  0.6459  0.7762  0.2943
  616SOL    HW1 1847   0.967   1.572   2.130 -0.0924 -2.4429 -0.6065
  616SOL    HW2 1848   1.098   1.644   2.054 -2.1786  1.1914 -0.1691
  617SOL     OW 1849   2.958   1.574   1.563  0.0535  0.0816 -0.5040
  617SOL    HW1 1850   2.949   1.535   1.658  2.0487  1.7758 -0.7651
  617SOL    HW2 1851   2.998   1.508   1.500 -1.4537  3.0564 -0.8497
  618SOL     OW 1852   1.909   2.032   1.429  0.8611  0.9512  0.1531
  618SOL    HW1 1853   1.954   2.018   1.335 -0.0830 -0.2526 -3.1374
  618SOL    HW2 1854   1.893   1.940   1.477 -3.4953 -0.0545 -0.9265
  619SOL     OW 1855   1.743   0.503   2.415 -0.2899 -0.4471 -0.5383
  619SOL    HW1 1856   1.676   0.538   2.346 -1.1243  1.7485 -0.0534
  619SOL    HW2 1857   1.732   0.402   2.440  0.2540  0.0103  3.0225
  620SOL     OW 1858   2.210   2.981   0.636 -0.3609  0.4234 -0.7294
  620SOL    HW1 1859   2.160   3.064   0.679  0.8833 -0.8813 -1.3201
  620SOL    HW2 1860   2.245   2.911   0.701  1.1049 -0.6090 -1.3047
  621SOL     OW 1861   2.125   1.861   1.314  0.3687  0.3184 -0.1036
  621SOL    HW1 1862   2.140   1.851   1.418  0.6016 -1.1562 -0.4676
  621SOL    HW2 1863   2.098   1.769   1.276 -0.0408 -2.6450 -1.9200
  622SOL     OW 1864   2.233   0.884   1.786 -0.6934 -0.2280 -0.0372
  622SOL    HW1 1865   2.335   0.890   1.760 -1.7339 -1.4010 -1.0494
  622SOL    HW2 1866   2.221   0.794   1.838 -0.3927  0.2683 -0.0832
  623SOL     OW 1867   1.358   0.808   2.623  0.1577 -0.0740 -0.1201
  623SOL    HW1 1868   1.294   0.756   2.688  1.6461  0.1821 -1.4203
  623SOL    HW2 1869   1.309   0.870   2.554 -0.9685 -0.2304  1.4943
  624SOL     OW 1870   0.573   0.635   3.080 -0.7541  0.1665  0.4884
  624SOL    HW1 1871   0.582   0.696   3.002  0.9919 -3.2503  0.6650
  624SOL    HW2 1872   0.566   0.695   3.165  0.2874  0.2860  0.1485
  625SOL     OW 1873   2.823   1.753   0.959 -0.3234 -0.1127 -0.2400
  625SOL    HW1 1874   2.721   1.760   0.957  0.1156  2.3954 -2.8601
  625SOL    HW2 1875   2.861   1.786   1.049 -1.3909  0.4827  1.1117
  626SOL     OW 1876   0.603   2.681   1.861 -0.4679 -0.1779  0.1550
  626SOL    HW1 1877   0.631   2.777   1.888 -0.6788 -1.1524  0.4835
  626SOL    HW2 1878   0.500   2.673   1.859  0.3974 -0.0443 -1.9419
  627SOL     OW 1879   0.715   0.983   1.554 -0.2433 -0.0926  0.3976
  627SOL    HW1 1880   0.732   0.908   1.489 -0.8490 -3.1596  3.2134
  627SOL    HW2 1881   0.771   1.067   1.532 -1.8530  1.1115 -0.1094
  628SOL     OW 1882   2.396   0.164   0.728 -0.2210 -0.1127  0.1205
  628SOL    HW1 1883   2.407   0.103   0.645  0.9465 -0.7141 -0.7338
  628SOL    HW2 1884   2.293   0.195   0.735  1.9365  2.8978 -1.3709
  629SOL     OW 1885   1.958   0.890   2.008  0.3932  0.1735  0.6101
  629SOL    HW1 1886   2.052   0.885   1.964  0.3498  0.1358  0.6908
  629SOL    HW2 1887   1.948   0.988   2.043  1.5554 -1.2915  0.0838
  630SOL     OW 1888   2.829   2.211   0.805 -0.1824 -0.0086 -0.9902
  630SOL    HW1 1889   2.764   2.260   0.866  1.0729  3.8318 -1.9421
  630SOL    HW2 1890   2.806   2.110   0.779 -1.6592 -3.0267  2.2481
  631SOL     OW 1891   2.933   0.138   2.117  0.1939  0.0927  0.2266
  631SOL    HW1 1892   3.001   0.184   2.176 -2.9467 -0.5934 -0.6280
  631SOL    HW2 1893   2.974   0.108   2.024  2.0919 -0.2400  0.8897
  632SOL     OW 1894   2.421   2.520   0.665 -0.2307  0.1087 -0.4384
  632SOL    HW1 1895   2.510   2.568   0.701  0.8756 -1.6766  0.1801
  632SOL    HW2 1896   2.372   2.585   0.601  2.2828 -0.0513 -1.5529
  633SOL     OW 1897   1.475   1.273   2.516 -0.0175  0.4466  0.1141
  633SOL    HW1 1898   1.473   1.365   2.567 -0.9055  0.3695  2.1405
  633SOL    HW2 1899   1.392   1.268   2.451 -0.7158 -0.3215 -0.9534
  634SOL     OW 1900   0.653   1.970   0.914 -0.3995  0.4068 -0.1796
  634SOL    HW1 1901   0.565   2.005   0.965 -1.7339  1.0427 -1.1143
  634SOL    HW2 1902   0.732   2.038   0.911 -0.0754  0.6120 -0.3920
  635SOL     OW 1903   3.091   2.325   3.055  0.1666 -0.1935  0.0570
  635SOL    HW1 1904   3.042   2.358   2.964  0.4049  1.3844 -0.5492
  635SOL    HW2 1905   3.098   2.403   3.127 -1.6707 -1.5995  1.2222
  636SOL     OW 1906   2.280   2.716   2.081  0.3838 -0.0162 -0.3422
  636SOL    HW1 1907   2.272   2.824   2.071  0.1394 -1.2955 -0.4790
  636SOL    HW2 1908   2.232   2.683   2.168 -2.6411  2.4042  1.3565
  637SOL     OW 1909   2.586   0.733   2.010 -0.4407 -0.4559 -0.1679
  637SOL    HW1 1910   2.534   0.753   1.920 -0.1794 -1.6411  1.4927
  637SOL    HW2 1911   2.628   0.817   2.060  0.6309  1.0218 -0.3575
  638SOL     OW 1912   2.391   1.813   1.270 -0.4807  0.3298  0.5839
  638SOL    HW1 1913   2.291   1.824   1.288  1.8899  0.2777 -0.1624
  638SOL    HW2 1914   2.434   1.747   1.336  1.2887 -0.4325 -0.8172
  639SOL     OW 1915   1.317   2.198   1.707  0.1422  0.7922 -0.0541
  639SOL    HW1 1916   1.343   2.151   1.621 -0.5967  0.4651  1.4064
  639SOL    HW2 1917   1.221   2.179   1.744 -0.1395 -1.5587  0.5048
  640SOL     OW 1918   0.207   1.167   1.556 -0.6771  0.5412  0.1139
  640SOL    HW1 1919   0.186   1.203   1.651  2.0495  0.4494  0.5340
  640SOL    HW2 1920   0.306   1.149   1.534  0.3305  2.4192 -1.9396
  641SOL     OW 1921   2.040   0.119   1.548  0.2844 -0.7492 -0.1852
  641SOL    HW1 1922   2.050   0.162   1.641 -1.7830 -0.7798  0.5337
  641SOL    HW2 1923   2.081   0.024   1.549  0.6173  1.0348 -0.0838
  642SOL     OW 1924   1.951   0.116   0.297  0.0171  0.0295 -0.1390
  642SOL    HW1 1925   2.031   0.132   0.355 -0.4660  0.5500 -0.7335
  642SOL    HW2 1926   1.869   0.102   0.351  1.1529 -2.6304 -0.6584
  643SOL     OW 1927   2.881   1.860   2.074 -0.2128  0.0281 -0.1764
  643SOL    HW1 1928   2.843   1.766   2.055  0.7622  0.9512  2.0465
  643SOL    HW2 1929   2.855   1.935   2.009  1.9154 -0.8422 -1.8590
  644SOL     OW 1930   2.266   2.363   1.202 -0.2075 -0.1012 -0.1362
  644SOL    HW1 1931   2.325   2.283   1.161 -0.8403 -3.7406  2.3117
  644SOL    HW2 1932   2.214   2.329   1.287  2.2799 -1.0835 -1.2102
  645SOL     OW 1933   0.641   0.865   1.248  0.0912  0.3038 -0.8638
  645SOL    HW1 1934   0.546   0.896   1.272 -1.5712 -3.5066 -2.7451
  645SOL    HW2 1935   0.661   0.869   1.147 -0.7568 -1.4007  1.5780
  646SOL     OW 1936   1.431   1.937   1.888 -0.0146  0.2427 -0.4478
  646SOL    HW1 1937   1.520   1.991   1.876 -0.3275 -0.6683 -1.1130
  646SOL    HW2 1938   1.372   1.976   1.966 -2.8571  1.7794 -0.2700
  647SOL     OW 1939   0.813   1.066   0.648 -0.2710 -0.9298  0.0066
  647SOL    HW1 1940   0.887   1.082   0.723  1.0274  4.0207  1.0792
  647SOL    HW2 1941   0.754   0.979   0.666 -2.2649  0.3025  1.6235
  648SOL     OW 1942   0.130   0.186   0.229  0.3080 -0.0865  0.1101
  648SOL    HW1 1943   0.164   0.121   0.150 -0.5532  0.4285 -0.8888
  648SOL    HW2 1944   0.135   0.285   0.203  0.9533 -0.7902  0.3524
  649SOL     OW 1945   3.056   0.242   0.887  0.1300  0.3210  0.0698
  649SOL    HW1 1946   3.158   0.226   0.869 -0.2965 -2.4863  0.2821
  649SOL    HW2 1947   3.044   0.304   0.969 -0.1580 -0.5847  1.3325
  650SOL     OW 1948   2.714   0.650   1.447 -0.0272  0.5098 -0.0642
  650SOL    HW1 1949   2.617   0.669   1.472  1.1803 -1.7737 -0.1456
  650SOL    HW2 1950   2.755   0.727   1.389  1.9109 -1.2825  1.1498
  651SOL     OW 1951   0.939   1.555   1.595  0.3747 -0.0147  0.4120
  651SOL    HW1 1952   0.980   1.643   1.621 -2.3120 -1.1589  0.9128
  651SOL    HW2 1953   0.985   1.514   1.511 -0.6462 -1.8085 -2.2368
  652SOL     OW 1954   2.267   2.466   2.525 -0.6196  0.9337 -0.2930
  652SOL    HW1 1955   2.174   2.435   2.554  2.1657 -0.8788 -1.9731
  652SOL    HW2 1956   2.258   2.522   2.441 -0.2973 -0.1648 -2.1664
  653SOL     OW 1957   2.704   1.200   0.180  0.8804  0.2704 -0.2525
  653SOL    HW1 1958   2.755   1.271   0.241 -1.1046  0.8891  1.0896
  653SOL    HW2 1959   2.772   1.138   0.132 -1.8194 -0.8516  1.7558
  654SOL     OW 1960   1.291   2.260   1.246 -0.1897  0.0209 -0.7930
  654SOL    HW1 1961   1.298   2.197   1.332  1.8463  2.0597 -0.4683
  654SOL    HW2 1962   1.329   2.220   1.159 -1.1661  1.9598  1.7960
  655SOL     OW 1963   0.203   0.969   1.861 -0.0204 -0.0604 -0.2148
  655SOL    HW1 1964   0.241   0.889   1.808  1.2379 -2.0854  2.3984
  655SOL    HW2 1965   0.283   1.025   1.897  1.3653 -1.7121 -1.9617
  656SOL     OW 1966   2.546   2.514   2.653  0.2947 -0.0184 -0.4853
  656SOL    HW1 1967   2.601   2.513   2.568 -4.5191 -0.7266  1.0871
  656SOL    HW2 1968   2.449   2.504   2.622 -1.3917 -1.0750  0.5442
  657SOL     OW 1969   3.061   1.062   1.934  0.1961  0.0939 -0.0964
  657SOL    HW1 1970   3.050   1.160   1.968  0.8716 -1.9274 -1.6640
  657SOL    HW2 1971   3.156   1.036   1.898 -0.2944 -2.7554  0.1152
  658SOL     OW 1972   1.722   0.238   2.427  0.1119 -0.1283  0.1144
  658SOL    HW1 1973   1.740   0.143   2.463  0.8729  1.7258  0.6937
  658SOL    HW2 1974   1.718   0.240   2.324 -2.1208 -0.1588  2.5394
  659SOL     OW 1975   1.453   0.651   2.944  0.0958 -0.2877  0.2150
  659SOL    HW1 1976   1.521   0.725   2.929 -2.9077 -0.0333 -0.6656
  659SOL    HW2 1977   1.363   0.670   2.896  0.4150 -0.1178 -1.1080
  660SOL     OW 1978   1.416   0.335   1.451  0.5947 -0.6092 -0.2797
  660SOL    HW1 1979   1.467   0.363   1.538  1.0070 -0.3436  3.5539
  660SOL    HW2 1980   1.451   0.247   1.415 -0.3060  0.9159  0.6526
  661SOL     OW 1981   2.497   1.182   0.683 -0.2959 -0.3802  0.2795
  661SOL    HW1 1982   2.522   1.179   0.580  0.4317 -0.6970 -0.7819
  661SOL    HW2 1983   2.442   1.269   0.711 -1.0532 -1.9361 -0.3378
  662SOL     OW 1984   1.370   0.448   1.854  0.0873 -0.2372 -0.2968
  662SOL    HW1 1985   1.339   0.353   1.833  0.8521  0.6323 -0.3677
  662SOL    HW2 1986   1.322   0.490   1.935  1.7720 -1.0334 -0.6289
  663SOL     OW 1987   0.770   1.555   2.174  0.4607 -0.0878 -0.8061
  663SOL    HW1 1988   0.739   1.646   2.223  0.1130  4.1400  0.1972
  663SOL    HW2 1989   0.729   1.538   2.078 -1.0428  0.8272  1.2295
  664SOL     OW 1990   1.636   2.115   1.489 -0.2414  0.2604 -0.1822
  664SOL    HW1 1991   1.585   2.030   1.522  2.4184  1.1516 -2.9696
  664SOL    HW2 1992   1.737   2.098   1.473 -0.7618  0.2471 -2.6428
  665SOL     OW 1993   2.257   0.641   1.955 -0.3241  0.2275 -0.3582
  665SOL    HW1 1994   2.243   0.550   2.006  1.2090 -0.4674 -0.6212
  665SOL    HW2 1995   2.247   0.724   2.012 -0.3482 -1.0982  2.3107
  666SOL     OW 1996   0.389   2.352   0.430  0.0699 -0.0202  0.2025
  666SOL    HW1 1997   0.468   2.406   0.472  1.0103 -0.6482 -0.9100
  666SOL    HW2 1998   0.355   2.277   0.486  2.6459  0.2808  2.1071
  667SOL     OW 1999   2.001   0.161   1.152  0.3636  0.5586 -0.5100
  667SOL    HW1 2000   2.011   0.264   1.134  1.9882 -1.1527 -0.3036
  667SOL    HW2 2001   1.927   0.131   1.220 -1.3700  2.7604 -2.5104
  668SOL     OW 2002   1.993   0.478   1.201  0.0740 -0.5265 -0.4320
  668SOL    HW1 2003   2.045   0.524   1.127 -1.1412 -0.1392  0.4268
  668SOL    HW2 2004   2.058   0.448   1.277  1.0501 -0.9908  2.3807
  669SOL     OW 2005   3.042   2.239   0.995 -0.2851  0.7383  0.1243
  669SOL    HW1 2006   2.978   2.236   0.908 -3.0533 -2.4144  0.1753
  669SOL    HW2 2007   2.990   2.243   1.089 -4.5214  1.3827 -0.3776
  670SOL     OW 2008   2.862   2.342   1.948  0.4484 -0.0707  0.2335
  670SOL    HW1 2009   2.798   2.323   2.028 -1.2080 -0.8250  0.5700
  670SOL    HW2 2010   2.871   2.447   1.933 -0.9747 -1.0535 -0.5486
  671SOL     OW 2011   1.768   1.732   1.448  0.0383 -0.2068 -0.0345
  671SOL    HW1 2012   1.805   1.780   1.360  1.6130  1.9259  0.2892
  671SOL    HW2 2013   1.688   1.668   1.435  4.0040 -0.9078  0.6003
  672SOL     OW 2014   0.372   0.610   2.365  0.2163 -0.7647  0.2605
  672SOL    HW1 2015   0.423   0.642   2.279  0.3976  2.4018  0.6369
  672SOL    HW2 2016   0.292   0.678   2.391 -0.6709 -1.6988  0.2057
  673SOL     OW 2017   0.149   1.159   1.148  0.2021  0.1204 -0.7003
  673SOL    HW1 2018   0.163   1.248   1.203  0.7676  2.3738 -0.4591
  673SOL    HW2 2019   0.230   1.128   1.095 -0.7093 -1.3227 -0.0164
  674SOL     OW 2020   1.600   2.940   0.218  0.0769  0.0528 -0.4631
  674SOL    HW1 2021   1.669   3.013   0.202 -1.5077  0.0040  0.8459
  674SOL    HW2 2022   1.599   2.856   0.155 -0.6721  2.8753 -0.8443
  675SOL     OW 2023   1.660   0.855   2.315 -0.2373  0.7729 -0.1060
  675SOL    HW1 2024   1.766   0.843   2.297 -0.9467 -1.9152 -3.1741
  675SOL    HW2 2025   1.611   0.770   2.282  2.6372  1.8422 -1.1441
  676SOL     OW 2026   2.484   1.464   2.028  0.0207  0.4800  0.5147
  676SOL    HW1 2027   2.488   1.443   1.929  0.6191  3.6949 -0.8015
  676SOL    HW2 2028   2.542   1.400   2.090 -0.1290 -0.8212  0.4675
  677SOL     OW 2029   1.950   0.680   0.813 -0.6082 -0.3430  0.1276
  677SOL    HW1 2030   1.954   0.732   0.905 -1.4601  0.6321  0.0093
  677SOL    HW2 2031   1.960   0.575   0.832 -1.6176 -1.1279  0.2260
  678SOL     OW 2032   0.043   0.740   1.661  0.0507 -0.3769 -0.1681
  678SOL    HW1 2033   0.143   0.739   1.675  0.8829  0.5880  0.8218
  678SOL    HW2 2034  -0.012   0.752   1.749  0.4675  0.6602 -1.4101
  679SOL     OW 2035   2.601   1.153   1.118  0.3827 -0.1016  0.0634
  679SOL    HW1 2036   2.503   1.168   1.157 -0.8525  1.8342  1.9645
  679SOL    HW2 2037   2.624   1.057   1.087  1.4341 -1.1185  2.5572
  680SOL     OW 2038   2.776   0.627   1.698  0.3376  0.1707 -0.4212
  680SOL    HW1 2039   2.744   0.656   1.603 -0.1308 -0.4726  0.0345
  680SOL    HW2 2040   2.829   0.700   1.753 -3.3927  1.1800  4.9835
  681SOL     OW 2041   2.993   0.147   1.628 -0.0320 -0.2984 -0.8415
  681SOL    HW1 2042   3.066   0.172   1.562 -0.4704 -1.8311  2.9693
  681SOL    HW2 2043   2.928   0.223   1.638  0.1770 -2.0334  0.1126
  682SOL     OW 2044   0.718   0.043   1.299  0.7472 -0.1717  0.6592
  682SOL    HW1 2045   0.695  -0.037   1.359  1.3216  0.0475 -4.2678
  682SOL    HW2 2046   0.755   0.015   1.209  1.0058  3.0986  2.4792
  683SOL     OW 2047   1.321   0.218   2.185  0.3694 -0.0843 -0.5371
  683SOL    HW1 2048   1.306   0.264   2.278 -3.2170  1.0101  0.2545
  683SOL    HW2 2049   1.399   0.258   2.127 -0.5263 -0.2139  0.1918
  684SOL     OW 2050   1.470   2.150   0.563  0.3416  0.6786  0.3962
  684SOL    HW1 2051   1.529   2.074   0.604 -1.6632  1.5662  1.7280
  684SOL    HW2 2052   1.382   2.114   0.520  1.7499  0.2172  0.0688
  685SOL     OW 2053   2.158   2.009   1.941  0.2495  0.0725 -0.6658
  685SOL    HW1 2054   2.206   2.006   1.848 -3.1146 -1.0267  0.8048
  685SOL    HW2 2055   2.205   1.949   2.012 -2.1362 -1.9927  1.8017
  686SOL     OW 2056   1.513   1.795   2.767 -0.1512 -0.5584 -0.1174
  686SOL    HW1 2057   1.571   1.747   2.841 -0.8633  0.4376  1.7171
  686SOL    HW2 2058   1.521   1.758   2.669 -0.6844  1.0546 -2.0164
  687SOL     OW 2059   1.263   2.512   1.959  0.4285 -0.1308 -0.7363
  687SOL    HW1 2060   1.296   2.416   1.983 -1.2326  1.4609  0.6353
  687SOL    HW2 2061   1.337   2.571   1.990 -2.8767 -0.3518  2.3316
  688SOL     OW 2062   2.067   1.548   1.730 -0.0060 -0.7469 -0.8594
  688SOL    HW1 2063   2.171   1.555   1.731  0.5444  0.7055 -3.4877
  688SOL    HW2 2064   2.027   1.539   1.636  0.3149  1.4177  0.1719
  689SOL     OW 2065   2.476   1.084   2.679  0.4542  0.0497  1.1904
  689SOL    HW1 2066   2.372   1.058   2.707 -2.3097  0.2300 -0.2240
  689SOL    HW2 2067   2.549   1.073   2.751  1.0552  1.1823 -0.6759
  690SOL     OW 2068   2.267   2.798   0.053 -0.5627 -0.0387 -0.5311
  690SOL    HW1 2069   2.219   2.746  -0.022 -2.7426 -2.8482  4.2056
  690SOL    HW2 2070   2.217   2.795   0.143  0.4298 -1.5309  0.5740
  691SOL     OW 2071   2.558   0.466   2.111 -0.3840 -0.6872 -0.5486
  691SOL    HW1 2072   2.612   0.402   2.054 -1.1959  1.4054  1.4471
  691SOL    HW2 2073   2.564   0.567   2.077 -0.1939  0.1779  0.0706
  692SOL     OW 2074   2.775   1.224   0.720  0.2200  0.2985 -0.1605
  692SOL    HW1 2075   2.672   1.212   0.737  0.9203 -1.7932  0.3630
  692SOL    HW2 2076   2.816   1.291   0.785 -0.1264 -1.4961  3.2495
  693SOL     OW 2077   2.780   2.936   0.640 -0.1096 -0.3437 -0.4306
  693SOL    HW1 2078   2.800   3.021   0.697  1.0868  0.2483  1.5701
  693SOL    HW2 2079   2.735   2.960   0.552  0.8216 -0.6131  0.7327
  694SOL     OW 2080   2.422   2.217   0.086  0.4373 -0.0127  0.2485
  694SOL    HW1 2081   2.386   2.302   0.127  0.0561  1.1356 -2.5752
  694SOL    HW2 2082   2.349   2.155   0.046  0.8615  1.4623 -0.8075
  695SOL     OW 2083   0.605   2.954   1.482  0.1778  0.2582 -0.4354
  695SOL    HW1 2084   0.553   2.876   1.436  1.3588  0.6471  1.1113
  695SOL    HW2 2085   0.549   2.999   1.559  0.7126 -2.7733 -0.7705
  696SOL     OW 2086   2.793   1.947   0.750 -1.2395 -0.4821  0.1481
  696SOL    HW1 2087   2.809   1.859   0.801 -3.5518 -0.0639 -1.3309
  696SOL    HW2 2088   2.841   1.956   0.655  0.1559  0.3691 -0.2209
  697SOL     OW 2089   1.646   2.077   1.833  0.5318 -0.3078  0.5220
  697SOL    HW1 2090   1.739   2.037   1.871  0.2511  1.5329  1.4269
  697SOL    HW2 2091   1.670   2.171   1.796 -0.5946  3.2198 -0.7238
  698SOL     OW 2092   2.968   0.397   2.745 -0.2433  0.3567 -0.3558
  698SOL    HW1 2093   2.909   0.360   2.664  2.1319  1.2354 -2.9101
  698SOL    HW2 2094   3.010   0.327   2.809  0.4080 -0.6815  0.6683
  699SOL     OW 2095   1.570   0.069   2.938 -0.0749 -0.4590 -0.5911
  699SOL    HW1 2096   1.526  -0.005   2.879 -0.7913 -0.3391 -1.3290
  699SOL    HW2 2097   1.613   0.136   2.868 -3.6993 -1.8601 -0.2004
  700SOL     OW 2098   1.012   2.300   1.310 -0.2582 -0.0057 -0.2242
  700SOL    HW1 2099   1.110   2.281   1.283  0.7526  1.4665  0.8762
  700SOL    HW2 2100   0.942   2.251   1.249  0.8458  0.3725  1.3054
  701SOL     OW 2101   1.927   2.836   3.056 -0.0369  0.0560  0.1831
  701SOL    HW1 2102   1.910   2.794   3.152 -0.4366 -1.9331  1.0057
  701SOL    HW2 2103   1.938   2.939   3.065 -2.1488  2.0886 -0.8395
  702SOL     OW 2104   2.068   1.353   1.908  0.3552  0.5773 -0.3373
  702SOL    HW1 2105   2.145   1.281   1.891  3.4000 -2.1669  2.2008
  702SOL    HW2 2106   2.069   1.433   1.847  0.7378 -0.2998  1.7309
  703SOL     OW 2107   1.969   0.883   1.403  0.2180 -0.2592 -0.5190
  703SOL    HW1 2108   1.973   0.789   1.448  0.5559 -0.1869 -0.9643
  703SOL    HW2 2109   1.999   0.957   1.473 -0.0555  0.9024  2.5846
  704SOL     OW 2110   0.327   2.042   1.663  0.0591  0.4271  0.1399
  704SOL    HW1 2111   0.347   1.967   1.736 -1.1332 -0.2227  1.0455
  704SOL    HW2 2112   0.383   2.127   1.661  0.7030 -0.7844 -3.1264
  705SOL     OW 2113   2.509   1.383   0.959  0.1841 -0.2112 -0.2853
  705SOL    HW1 2114   2.441   1.369   0.882 -1.8074  0.1933 -0.7102
  705SOL    HW2 2115   2.564   1.295   0.986  1.1417 -0.0933  1.0021
  706SOL     OW 2116   0.648   1.711   1.835  0.3143 -0.2803  0.2363
  706SOL    HW1 2117   0.670   1.616   1.870  0.3759 -0.1600 -0.5825
  706SOL    HW2 2118   0.723   1.777   1.869  1.2662 -3.3364  1.8365
  707SOL     OW 2119   2.247   1.151   1.886 -0.0593 -0.7235  0.3596
  707SOL    HW1 2120   2.350   1.164   1.914  0.6673  0.0161 -0.7319
  707SOL    HW2 2121   2.232   1.052   1.858  1.4902 -1.9198 -2.8306
  708SOL     OW 2122   2.972   0.516   3.048 -0.1173 -0.3721  0.1085
  708SOL    HW1 2123   2.984   0.566   2.960  0.2889  2.0543  2.5075
  708SOL    HW2 2124   2.986   0.421   3.039 -3.0666  2.2986  0.9431
  709SOL     OW 2125   1.777   1.876   0.192  0.0696  0.5691 -0.2918
  709SOL    HW1 2126   1.833   1.965   0.208  1.6323  0.7933 -1.3529
  709SOL    HW2 2127   1.787   1.830   0.101 -1.6809 -1.2908  0.8640
  710SOL     OW 2128   1.682   1.621   2.418 -0.4086  0.0039  0.3349
  710SOL    HW1 2129   1.734   1.626   2.326 -0.5251  1.6403 -3.1844
  710SOL    HW2 2130   1.725   1.552   2.483  0.6000 -0.0552  2.9565
  711SOL     OW 2131   2.650   2.968   0.954 -1.1451  0.1731 -0.0897
  711SOL    HW1 2132   2.625   3.069   0.951  0.5112  0.6427  0.4512
  711SOL    HW2 2133   2.750   2.960   0.944 -1.8630  0.4778 -2.3536
  712SOL     OW 2134   1.372   2.231   1.979  0.1284  0.1238 -0.3201
  712SOL    HW1 2135   1.452   2.283   2.020  2.0327 -1.3523  0.9605
  712SOL    HW2 2136   1.380   2.209   1.876  0.2539 -1.6418 -2.3486
  713SOL     OW 2137   2.917   1.467   2.568 -0.8483  0.1317 -0.1517
  713SOL    HW1 2138   2.865   1.390   2.524  1.5806 -0.3936 -3.0700
  713SOL    HW2 2139   2.901   1.485   2.665 -0.4498  0.2100 -1.0786
  714SOL     OW 2140   2.666   0.485   2.395 -0.0191 -0.3047 -0.6113
  714SOL    HW1 2141   2.619   0.425   2.471 -1.7979 -1.0210 -0.0126
  714SOL    HW2 2142   2.608   0.496   2.307 -0.5952 -1.0663 -0.9950
  715SOL     OW 2143   1.602   2.039   1.208  0.3830 -0.1023  0.0547
  715SOL    HW1 2144   1.515   2.082   1.164 -0.7021 -0.5647  1.0280
  715SOL    HW2 2145   1.624   2.076   1.307  0.0032  0.4079  2.3594
  716SOL     OW 2146   1.186   0.176   1.497  0.1166  0.2463  0.3527
  716SOL    HW1 2147   1.094   0.224   1.485  0.8826  0.3859 -2.6506
  716SOL    HW2 2148   1.270   0.229   1.467  0.4252 -1.6037 -1.2258
  717SOL     OW 2149   1.124   0.590   1.620  0.1853  0.3171 -0.1539
  717SOL    HW1 2150   1.221   0.614   1.640  2.4899 -0.8577 -2.6925
  717SOL    HW2 2151   1.123   0.534   1.530  1.7055 -0.0663 -2.5134
  718SOL     OW 2152   0.740   0.929   0.939  0.5611  0.1481  0.2317
  718SOL    HW1 2153   0.690   0.902   0.853  0.3959 -1.5715  1.0569
  718SOL    HW2 2154   0.699   1.020   0.966  0.6387 -1.5826  0.0614
  719SOL     OW 2155   0.671   1.811   2.267 -0.1278  0.2609  0.2647
  719SOL    HW1 2156   0.722   1.857   2.344 -2.1118 -0.3035  0.2460
  719SOL    HW2 2157   0.578   1.780   2.283  1.8764  1.1924 -1.3867
  720SOL     OW 2158   2.170   1.154   0.254 -0.2798  0.0425 -0.3040
  720SOL    HW1 2159   2.231   1.095   0.196  0.4117  0.4363 -0.4492
  720SOL    HW2 2160   2.190   1.138   0.357 -0.3236 -1.2036  0.9220
  721SOL     OW 2161   2.283   2.989   2.087  0.0554 -0.2223 -0.3385
  721SOL    HW1 2162   2.316   3.048   2.008  0.5521  0.1767  2.3844
  721SOL    HW2 2163   2.185   3.014   2.104  0.4743  3.1476 -3.1467
  722SOL     OW 2164   2.358   1.621   0.577  0.2781 -0.3310  0.2844
  722SOL    HW1 2165   2.378   1.609   0.476 -0.2156  0.6884  1.5236
  722SOL    HW2 2166   2.328   1.715   0.602  2.8981 -2.0259  0.6643
  723SOL     OW 2167   2.559   2.683   2.010  0.5971 -0.5677  0.2471
  723SOL    HW1 2168   2.605   2.754   2.077  1.9995 -1.9236  0.9944
  723SOL    HW2 2169   2.457   2.692   2.007  0.5624 -0.4722 -0.8723
  724SOL     OW 2170   0.533   2.466   2.417  0.1322 -0.3453 -0.0788
  724SOL    HW1 2171   0.443   2.421   2.449  2.5325  1.7269 -0.4530
  724SOL    HW2 2172   0.590   2.505   2.499 -1.9496  1.7331 -0.4677
  725SOL     OW 2173   2.428   2.779   1.511  0.1388 -0.2149 -0.0277
  725SOL    HW1 2174   2.442   2.780   1.410 -1.7775  0.2692  2.4661
  725SOL    HW2 2175   2.364   2.705   1.538 -0.4422  0.2119  0.4793
  726SOL     OW 2176   2.398   2.224   0.674 -0.5479 -0.3773  0.0751
  726SOL    HW1 2177   2.382   2.328   0.655 -2.3131  1.9795 -2.4677
  726SOL    HW2 2178   2.435   2.175   0.596 -0.2912  0.8552  0.9765
  727SOL     OW 2179   0.153   3.061   0.051  0.4410  0.3268  0.1748
  727SOL    HW1 2180   0.190   2.964   0.045 -0.6113 -0.5833  0.7006
  727SOL    HW2 2181   0.067   3.082  -0.008 -3.0013  1.4312  1.0669
  728SOL     OW 2182   2.880   0.689   0.981 -0.0224 -0.1483  0.0755
  728SOL    HW1 2183   2.792   0.673   0.929  2.2258  1.3171  1.7614
  728SOL    HW2 2184   2.863   0.656   1.079  1.8630  1.9024 -0.3576
  729SOL     OW 2185   2.976   2.513   0.751 -0.7255 -0.0475 -0.3417
  729SOL    HW1 2186   2.913   2.441   0.768  1.6933  3.5643 -0.3903
  729SOL    HW2 2187   3.073   2.481   0.740 -1.5711  1.8420  0.1433
  730SOL     OW 2188   2.608   0.642   0.850 -0.2508 -0.6544  0.4566
  730SOL    HW1 2189   2.552   0.729   0.824 -4.3557  1.6143  2.5565
  730SOL    HW2 2190   2.682   0.613   0.773  2.8641  0.1314 -1.0396
  731SOL     OW 2191   0.140   2.150   2.436 -0.1702 -0.6111 -0.0252
  731SOL    HW1 2192   0.119   2.162   2.538  0.4251  0.6315 -0.3182
  731SOL    HW2 2193   0.188   2.237   2.396  0.4928  3.0715  1.3172
  732SOL     OW 2194   1.113   2.850   1.945 -0.5985  0.5288 -0.1788
  732SOL    HW1 2195   1.165   2.807   2.026 -1.5586 -1.9869 -1.8835
  732SOL    HW2 2196   1.127   2.794   1.861 -0.2817  2.3177  1.2897
  733SOL     OW 2197   3.045   0.571   2.220  0.1455  0.5601 -0.2912
  733SOL    HW1 2198   3.145   0.601   2.194 -3.5367  1.5813 -1.7889
  733SOL    HW2 2199   2.994   0.555   2.132 -0.6801  2.5436  0.6693
  734SOL     OW 2200   1.415   0.374   2.756 -0.0756  0.2706 -0.0623
  734SOL    HW1 2201   1.420   0.466   2.798 -0.0429  0.7617 -0.4198
  734SOL    HW2 2202   1.322   0.331   2.773  1.0844  1.5359 -0.2424
  735SOL     OW 2203   2.891   2.623   2.251  0.4294 -0.5972 -0.3595
  735SOL    HW1 2204   2.842   2.611   2.161  1.2734  0.9813  0.3598
  735SOL    HW2 2205   2.995   2.623   2.248 -1.4196 -0.1397  0.9139
  736SOL     OW 2206   0.749   0.311   2.652 -0.0905  0.0546 -0.0821
  736SOL    HW1 2207   0.642   0.320   2.647 -1.0444  2.8727 -1.9782
  736SOL    HW2 2208   0.784   0.264   2.564  2.4361  0.1560 -3.7443
  737SOL     OW 2209   2.672   0.379   2.860 -0.1740 -0.0320 -0.1513
  737SOL    HW1 2210   2.666   0.365   2.963 -0.0745 -0.8339 -0.5490
  737SOL    HW2 2211   2.767   0.352   2.827 -0.6935 -2.4733  1.6120
  738SOL     OW 2212   1.603   1.252   2.919 -0.0702 -0.2849 -0.0415
  738SOL    HW1 2213   1.706   1.229   2.928  2.4564 -0.1216  0.9766
  738SOL    HW2 2214   1.561   1.194   2.838  0.5780 -1.3139 -1.6070
  739SOL     OW 2215   1.724   0.594   0.692 -0.0144 -0.4634 -0.3973
  739SOL    HW1 2216   1.780   0.636   0.765 -1.0192  0.2676  0.3216
  739SOL    HW2 2217   1.768   0.508   0.655 -0.2397  0.5700  1.1342
  740SOL     OW 2218   2.003   1.929   2.289 -0.3600  0.1857  0.7807
  740SOL    HW1 2219   2.051   1.844   2.309 -2.1079  1.4160 -1.7613
  740SOL    HW2 2220   1.898   1.923   2.278 -1.2124  0.6017 -0.1134
  741SOL     OW 2221   2.540   0.068   2.638  0.1903 -0.1361 -0.1171
  741SOL    HW1 2222   2.639   0.038   2.647  1.7376 -0.5829 -2.4774
  741SOL    HW2 2223   2.491   0.038   2.553  0.8456 -0.2835  1.8609
  742SOL     OW 2224   2.222   1.467   0.207 -0.2381  0.1316 -0.5855
  742SOL    HW1 2225   2.152   1.542   0.226 -3.0310 -1.4782  0.1163
  742SOL    HW2 2226   2.189   1.372   0.240 -1.6522 -0.3884 -0.2578
  743SOL     OW 2227   1.831   0.665   2.615  0.5054 -0.0771  0.1604
  743SOL    HW1 2228   1.802   0.606   2.531 -0.3101 -0.9359 -0.3412
  743SOL    HW2 2229   1.780   0.750   2.630  1.7121 -1.0413  2.2518
  744SOL     OW 2230   2.668   2.100   0.067  0.6166  0.3314 -0.0424
  744SOL    HW1 2231   2.574   2.146   0.094  0.5404 -2.2491  0.5665
  744SOL    HW2 2232   2.667   1.992   0.057 -2.2998 -3.5091 -0.3173
  745SOL     OW 2233   2.159   2.635   2.331  0.1428  0.1274 -0.1261
  745SOL    HW1 2234   2.067   2.614   2.293  1.4619 -0.1770 -0.6869
  745SOL    HW2 2235   2.153   2.725   2.378 -1.2071 -0.7085 -2.8531
  746SOL     OW 2236   3.063   2.627   1.725 -0.0823 -0.2503  0.1666
  746SOL    HW1 2237   3.143   2.629   1.656  1.5640 -1.6883 -0.8573
  746SOL    HW2 2238   3.050   2.719   1.773 -1.1203  1.4020 -1.0136
  747SOL     OW 2239   0.004   1.802   1.630 -0.1720 -0.0383  0.1106
  747SOL    HW1 2240  -0.043   1.711   1.599 -1.5637 -1.3533 -2.9316
  747SOL    HW2 2241   0.063   1.841   1.557 -1.0285  0.5748  2.7303
  748SOL     OW 2242   1.855   2.733   2.814 -0.2254  0.0877 -0.5468
  748SOL    HW1 2243   1.874   2.785   2.902  4.8567 -0.6931 -2.4202
  748SOL    HW2 2244   1.753   2.721   2.802  1.2347 -3.4595 -0.9319
  749SOL     OW 2245   1.314   3.063   0.924  0.0723 -0.0784 -0.6880
  749SOL    HW1 2246   1.219   3.015   0.925 -2.2704  1.8471 -2.6469
  749SOL    HW2 2247   1.362   3.070   0.836 -0.1049  2.7419  0.2575
  750SOL     OW 2248   2.401   0.219   1.878  0.5280  0.7485  0.8370
  750SOL    HW1 2249   2.399   0.272   1.789  0.1225  0.4848 -0.7022
  750SOL    HW2 2250   2.389   0.279   1.962  0.7130  1.2588 -0.0188
  751SOL     OW 2251   0.936   2.210   2.704  0.4773 -0.5269 -0.2216
  751SOL    HW1 2252   0.951   2.216   2.807 -0.5710  0.6408  0.1506
  751SOL    HW2 2253   0.845   2.165   2.678 -0.0720  1.6132  0.3261
  752SOL     OW 2254   1.260   0.874   1.436  0.4164  0.1179  0.5945
  752SOL    HW1 2255   1.331   0.942   1.403 -3.3537  1.6215  0.7527
  752SOL    HW2 2256   1.284   0.776   1.430 -2.3696  2.1259  1.4285
  753SOL     OW 2257   0.958   2.583   1.718  0.2751  0.0329 -0.1938
  753SOL    HW1 2258   1.043   2.638   1.736  0.5155  0.9006  2.5931
  753SOL    HW2 2259   0.880   2.650   1.689  0.1685  2.5427  0.8115
  754SOL     OW 2260   1.170   1.298   0.010  0.9140  0.6178  0.3753
  754SOL    HW1 2261   1.179   1.232  -0.074  1.1888  1.0897 -0.9582
  754SOL    HW2 2262   1.162   1.401  -0.013 -1.0813  1.6521 -0.4979
  755SOL     OW 2263   1.977   0.438   2.199  0.2401 -0.2858 -0.4277
  755SOL    HW1 2264   2.074   0.404   2.214 -0.2444  0.6460  1.3788
  755SOL    HW2 2265   1.916   0.438   2.287  0.7760 -1.5032  0.3412
  756SOL     OW 2266   2.553   0.985   2.956  0.2388 -0.6899 -0.4697
  756SOL    HW1 2267   2.658   0.973   2.965 -2.1519  0.3301 -0.9877
  756SOL    HW2 2268   2.501   0.921   3.015  0.1418  1.4246 -0.8200
  757SOL     OW 2269   3.067   0.437   1.801  0.5888 -0.1614  0.1921
  757SOL    HW1 2270   3.154   0.406   1.851  3.0186 -2.2243  1.3544
  757SOL    HW2 2271   3.047   0.378   1.721 -2.7942  1.2954 -0.1001
  758SOL     OW 2272   2.389   0.089   1.408  0.1807  0.5329 -0.1094
  758SOL    HW1 2273   2.307   0.065   1.471 -1.8843 -1.1752 -0.1641
  758SOL    HW2 2274   2.360   0.082   1.308 -3.8971 -2.4957 -3.2753
  759SOL     OW 2275   1.712   0.058   0.074 -0.0592 -0.4952  0.3890
  759SOL    HW1 2276   1.661   0.048  -0.016  1.5030 -1.2746  0.8216
  759SOL    HW2 2277   1.812   0.086   0.063  1.7032 -1.1949 -0.5157
  760SOL     OW 2278   2.733   2.087   2.808  0.0629 -0.5638 -0.1736
  760SOL    HW1 2279   2.807   2.019   2.834  0.6323 -1.1428  1.0806
  760SOL    HW2 2280   2.724   2.172   2.873 -0.2214  0.3853 -0.1258
  761SOL     OW 2281   1.904   1.783   1.724  0.1249 -0.3689 -0.0157
  761SOL    HW1 2282   1.937   1.696   1.768 -1.2307  2.5830 -1.4201
  761SOL    HW2 2283   1.831   1.768   1.652  1.5638  0.4170  0.1710
  762SOL     OW 2284   0.461   2.316   0.983  0.0121 -0.1955  0.2950
  762SOL    HW1 2285   0.484   2.313   0.884 -1.8696 -1.1384  0.1514
  762SOL    HW2 2286   0.511   2.382   1.048 -0.2549  0.6037 -0.8457
  763SOL     OW 2287   2.080   1.507   2.929  0.0645  0.1010 -0.1070
  763SOL    HW1 2288   2.172   1.479   2.962  0.0905  1.0244  1.1363
  763SOL    HW2 2289   2.009   1.458   2.985  0.0443 -1.3595 -0.1803
  764SOL     OW 2290   0.631   0.602   0.847  0.2332  0.4372 -0.5783
  764SOL    HW1 2291   0.583   0.519   0.802 -0.0429 -0.1660 -0.4049
  764SOL    HW2 2292   0.717   0.586   0.904 -0.0339  0.0069 -1.0539
  765SOL     OW 2293   0.715   0.228   0.795  0.1855 -0.1736  0.0427
  765SOL    HW1 2294   0.754   0.304   0.728  0.5069  0.0862 -1.0916
  765SOL    HW2 2295   0.702   0.270   0.889  1.1545  0.1446 -1.2066
  766SOL     OW 2296   2.932   2.087   3.090  0.5956  0.1336 -0.0439
  766SOL    HW1 2297   2.833   2.093   3.126  1.3694 -3.0066 -1.5588
  766SOL    HW2 2298   2.976   2.180   3.080 -1.5037  1.1176 -2.7274
  767SOL     OW 2299   2.828   1.562   0.566  0.4236 -0.1238 -0.6277
  767SOL    HW1 2300   2.749   1.591   0.624  0.0734  1.6884 -4.3415
  767SOL    HW2 2301   2.926   1.568   0.607 -0.1578  0.2948  0.3383
  768SOL     OW 2302   1.108   0.200   0.356 -0.1478 -0.4240 -0.3330
  768SOL    HW1 2303   1.025   0.142   0.372 -0.6264  2.4758 -2.7446
  768SOL    HW2 2304   1.195   0.150   0.318  2.7127 -2.5124 -1.1402
  769SOL     OW 2305   1.058   1.893   2.227  0.6511 -0.6818 -0.0065
  769SOL    HW1 2306   0.996   1.928   2.300 -2.2598  3.3795 -2.6708
  769SOL    HW2 2307   1.049   1.794   2.217  2.6626  0.1706 -0.3254
  770SOL     OW 2308   0.159   1.194   2.237 -0.2081  0.3517 -0.3667
  770SOL    HW1 2309   0.134   1.209   2.336 -1.4064  0.6167 -0.0846
  770SOL    HW2 2310   0.083   1.145   2.186  1.9589  1.7637 -1.1368
  771SOL     OW 2311   2.962   2.862   1.898 -0.7146 -0.0890 -0.6461
  771SOL    HW1 2312   2.933   2.923   1.822  0.7636 -0.2497  2.3534
  771SOL    HW2 2313   2.927   2.889   1.990 -2.0598  0.2942 -0.9620
  772SOL     OW 2314   2.176   0.134   2.940  0.0029 -0.8869  0.2430
  772SOL    HW1 2315   2.277   0.110   2.924 -0.3804 -1.1884 -0.1525
  772SOL    HW2 2316   2.165   0.232   2.976 -2.3576  1.9421  2.8727
  773SOL     OW 2317   0.695   2.208   2.490  0.4044 -0.0580  0.3454
  773SOL    HW1 2318   0.671   2.201   2.389 -1.3791 -0.1835 -0.8601
  773SOL    HW2 2319   0.628   2.154   2.553 -0.4125  0.3688  1.7274
  774SOL     OW 2320   2.018   0.039   2.644  0.6740  0.6105 -0.0512
  774SOL    HW1 2321   2.070   0.115   2.690 -2.7607 -1.4204 -1.0291
  774SOL    HW2 2322   2.054  -0.052   2.682 -0.7199 -1.0749  2.2198
  775SOL     OW 2323   2.528   2.817   2.437  0.0226 -0.0430  0.2848
  775SOL    HW1 2324   2.528   2.920   2.422 -0.4667  1.8304  2.0165
  775SOL    HW2 2325   2.615   2.786   2.487  1.4168 -2.4936 -1.2067
  776SOL     OW 2326   0.070   1.281   0.202 -0.5183 -0.7897  0.4367
  776SOL    HW1 2327   0.032   1.229   0.121  0.2127 -0.1776  0.5002
  776SOL    HW2 2328   0.014   1.272   0.294 -0.1533 -1.3748 -1.6097
  777SOL     OW 2329   0.256   2.832   0.467 -0.0296  0.0432  0.3364
  777SOL    HW1 2330   0.153   2.845   0.459 -2.4747 -2.8712 -3.1316
  777SOL    HW2 2331   0.307   2.910   0.511 -4.1639  0.9278  2.5248
  778SOL     OW 2332   1.335   1.948   0.183  0.2934 -0.0353  0.0285
  778SOL    HW1 2333   1.276   1.978   0.263  1.1937  0.5328 -2.8673
  778SOL    HW2 2334   1.368   2.033   0.131  0.5640  0.8062 -0.2779
  779SOL     OW 2335   0.204   0.852   0.485  0.0698 -0.0448  0.0586
  779SOL    HW1 2336   0.170   0.753   0.477 -0.7528 -0.8894  0.8951
  779SOL    HW2 2337   0.150   0.913   0.550 -0.0626 -1.1808  0.3778
  780SOL     OW 2338   0.089   0.261   2.248 -0.2555 -0.3691 -0.3974
  780SOL    HW1 2339   0.052   0.351   2.286 -0.0219  0.0862 -3.1294
  780SOL    HW2 2340   0.176   0.273   2.196 -1.0014 -0.3787  2.0718
  781SOL     OW 2341   0.630   1.740   1.554  0.1545 -0.3228  0.1162
  781SOL    HW1 2342   0.667   1.748   1.651  2.4938  2.8497 -1.0114
  781SOL    HW2 2343   0.544   1.678   1.555  0.6463  1.5840 -1.7203
  782SOL     OW 2344   2.594   0.155   0.915 -0.0002 -0.9044 -0.5877
  782SOL    HW1 2345   2.522   0.153   0.839 -1.1155 -2.8264  1.6188
  782SOL    HW2 2346   2.567   0.213   1.000  0.0398 -0.0278  2.3029
  783SOL     OW 2347   2.851   0.699   2.528 -0.5796 -0.4413 -0.0716
  783SOL    HW1 2348   2.809   0.690   2.624 -1.9324 -1.4808 -3.8522
  783SOL    HW2 2349   2.815   0.626   2.461  0.0559 -1.4292  0.7815
  784SOL     OW 2350   1.397   2.210   0.070  0.0820  0.2036 -0.2058
  784SOL    HW1 2351   1.474   2.280   0.090  0.3392  3.3074 -0.3041
  784SOL    HW2 2352   1.369   2.210  -0.029 -1.2869  0.0093 -1.1124
  785SOL     OW 2353   2.171   0.377   3.065  0.2458 -0.3217 -0.3917
  785SOL    HW1 2354   2.093   0.376   3.129  2.7371  0.4771 -0.6859
  785SOL    HW2 2355   2.182   0.479   3.033  1.1085 -0.5322 -2.0668
  786SOL     OW 2356   2.010   2.190   2.214  0.1684 -0.0928 -0.7118
  786SOL    HW1 2357   2.007   2.084   2.235  0.7311 -2.3517 -1.3988
  786SOL    HW2 2358   2.103   2.227   2.232  1.7154 -1.6178  1.9844
  787SOL     OW 2359   1.415   0.614   0.924 -0.0929 -0.1222 -0.3303
  787SOL    HW1 2360   1.341   0.677   0.958 -1.3662  0.6260  1.6840
  787SOL    HW2 2361   1.411   0.593   0.822 -2.2444  0.5694 -0.4559
  788SOL     OW 2362   1.229   0.419   3.052 -0.2857  0.7105 -0.0877
  788SOL    HW1 2363   1.139   0.448   3.011  0.4529 -0.8920 -3.0198
  788SOL    HW2 2364   1.258   0.481   3.136  2.2691  0.8355  1.7320
  789SOL     OW 2365   2.594   0.028   1.794  0.3411  0.8753 -0.2593
  789SOL    HW1 2366   2.531   0.091   1.838  0.5281 -1.6398 -1.4493
  789SOL    HW2 2367   2.551  -0.070   1.771  0.3880  1.6030  0.3228
  790SOL     OW 2368   2.586   2.720   0.849 -0.0247  0.2479  0.1081
  790SOL    HW1 2369   2.592   2.823   0.873  0.7788 -0.0515  4.1476
  790SOL    HW2 2370   2.644   2.663   0.918  2.7234 -2.6012  2.1892
  791SOL     OW 2371   1.910   1.266   0.270 -0.1190  0.2943 -0.3568
  791SOL    HW1 2372   1.815   1.221   0.282  0.5459  1.5378 -1.0401
  791SOL    HW2 2373   1.995   1.202   0.276  0.4165 -0.6289  1.4270
  792SOL     OW 2374   0.458   1.995   2.134  0.5798  0.3827  0.0936
  792SOL    HW1 2375   0.495   2.090   2.143 -0.0075 -2.0729  2.6850
  792SOL    HW2 2376   0.393   1.981   2.216 -2.4775  1.7634 -1.3452
  793SOL     OW 2377   2.091   1.566   2.068  0.4311 -0.1885 -0.3335
  793SOL    HW1 2378   2.176   1.623   2.066 -0.3244 -2.4504  1.0013
  793SOL    HW2 2379   2.102   1.469   2.020 -1.5710 -1.3964  1.1898
  794SOL     OW 2380   0.465   1.358   2.473  0.5940  0.6256 -0.0410
  794SOL    HW1 2381   0.478   1.332   2.374 -1.0851  0.8618  0.7762
  794SOL    HW2 2382   0.444   1.457   2.490 -0.3682 -1.5239  0.7741
  795SOL     OW 2383   2.455   2.348   1.744  0.8752  0.5602  0.6607
  795SOL    HW1 2384   2.432   2.418   1.816 -0.7605  0.7857  1.0664
  795SOL    HW2 2385   2.392   2.271   1.736  2.1389  1.2267  1.0715
  796SOL     OW 2386   0.004   1.096   2.701 -0.5397 -0.1443  0.6452
  796SOL    HW1 2387  -0.097   1.083   2.721  1.0589  0.5412 -0.7003
  796SOL    HW2 2388   0.067   1.105   2.785  3.0246 -0.3074 -2.6461
  797SOL     OW 2389   0.729   0.625   1.342 -0.4819  0.0108 -0.4494
  797SOL    HW1 2390   0.809   0.659   1.401 -2.2572  1.3527  1.0522
  797SOL    HW2 2391   0.683   0.709   1.300  0.9239  0.5868  2.6761
  798SOL     OW 2392   1.331   0.419   1.087 -0.0126  0.0836  0.2246
  798SOL    HW1 2393   1.332   0.454   1.182 -2.4485 -1.7119 -2.1314
  798SOL    HW2 2394   1.370   0.488   1.015  0.3761  0.5298 -3.0023
  799SOL     OW 2395   1.944   2.612   1.049 -0.1696  0.0721 -0.1323
  799SOL    HW1 2396   1.933   2.523   1.097  1.4047  0.2762  3.7028
  799SOL    HW2 2397   1.862   2.632   0.986 -0.9423 -0.3324 -3.6721
  800SOL     OW 2398   2.918   0.822   1.856 -0.4547  0.4762 -0.6441
  800SOL    HW1 2399   2.983   0.903   1.869  0.2986  0.5373 -1.2847
  800SOL    HW2 2400   2.879   0.802   1.948 -0.1092  1.1887  0.2015
  801SOL     OW 2401   2.005   2.188   0.031 -0.1431 -0.2125  0.0066
  801SOL    HW1 2402   1.938   2.201  -0.049  1.8806  0.2301  1.3087
  801SOL    HW2 2403   2.088   2.131  -0.002  0.6941 -1.3893 -2.6115
  802SOL     OW 2404   0.637   0.823   2.576  0.6820  0.0267 -0.5621
  802SOL    HW1 2405   0.694   0.802   2.489  0.0987 -2.7653 -0.5304
  802SOL    HW2 2406   0.539   0.845   2.553  2.5610  1.7582  0.4672
  803SOL     OW 2407   0.986   0.096   0.857 -0.0789 -0.1895  0.4728
  803SOL    HW1 2408   1.048   0.165   0.907 -0.4460  1.2885 -0.5230
  803SOL    HW2 2409   0.936   0.135   0.776  0.6347 -0.1585  2.2079
  804SOL     OW 2410   0.315   3.058   2.202 -0.0718 -0.2259  0.3165
  804SOL    HW1 2411   0.304   3.162   2.183  2.2641  0.2396 -2.1235
  804SOL    HW2 2412   0.244   3.004   2.146 -0.2905  1.3397 -1.0622
  805SOL     OW 2413   2.355   0.406   0.357  0.3780  0.0373 -0.5999
  805SOL    HW1 2414   2.442   0.393   0.408 -5.0048 -1.8095  1.0459
  805SOL    HW2 2415   2.342   0.336   0.282 -0.0999 -0.4018  1.5154
  806SOL     OW 2416   0.720   2.440   1.793  0.2786 -0.2631  0.0249
  806SOL    HW1 2417   0.669   2.530   1.804 -1.1815 -2.4242  2.6834
  806SOL    HW2 2418   0.822   2.458   1.774 -0.2627  0.4842  0.8737
  807SOL     OW 2419   2.485   0.861   0.428 -0.0956  0.8085  0.7013
  807SOL    HW1 2420   2.591   0.857   0.439  2.9707  1.2475 -1.4982
  807SOL    HW2 2421   2.467   0.895   0.335  1.6389  1.0631 -0.4340
  808SOL     OW 2422   0.644   2.087   2.937  0.3529  0.0792  0.3579
  808SOL    HW1 2423   0.587   2.118   3.014  2.8375  0.2707 -0.6400
  808SOL    HW2 2424   0.671   1.989   2.949  0.3807  0.5903  0.9490
  809SOL     OW 2425   2.577   1.978   1.869 -0.1020 -0.1666 -0.4810
  809SOL    HW1 2426   2.682   1.998   1.869  0.4181 -0.8007  0.5022
  809SOL    HW2 2427   2.545   1.989   1.771 -1.4722  1.6924 -0.2682
  810SOL     OW 2428   2.210   1.117   0.511  0.0559  0.5830 -0.2284
  810SOL    HW1 2429   2.174   1.029   0.543 -2.0232  0.4893 -3.2395
  810SOL    HW2 2430   2.183   1.192   0.570 -0.1432  0.6498  0.4602
  811SOL     OW 2431   1.388   2.510   1.198  0.1937 -0.2792  0.0828
  811SOL    HW1 2432   1.342   2.421   1.224 -0.9848  3.7432 -0.6618
  811SOL    HW2 2433   1.332   2.594   1.224  0.3617  0.6136 -1.8866
  812SOL     OW 2434   1.418   0.728   1.982  0.0719 -0.2323  0.2567
  812SOL    HW1 2435   1.379   0.771   2.067 -2.7846  1.4058 -1.3955
  812SOL    HW2 2436   1.393   0.779   1.894  0.3714  0.7615  0.7248
  813SOL     OW 2437   1.656   2.061   2.471 -0.4512  0.1074 -0.2769
  813SOL    HW1 2438   1.718   1.990   2.515  0.4825 -1.3667  0.5242
  813SOL    HW2 2439   1.603   2.020   2.394  1.1620  0.8230 -0.1296
  814SOL     OW 2440   2.943   1.588   2.848  0.5245 -0.0960  0.4291
  814SOL    HW1 2441   3.022   1.552   2.903 -0.0491  0.3185 -0.5914
  814SOL    HW2 2442   2.965   1.681   2.811 -1.1580 -3.5983  1.1664
  815SOL     OW 2443   2.184   2.963   2.793 -0.3598  0.1053  0.5638
  815SOL    HW1 2444   2.147   2.884   2.842  2.5838  2.2762  0.5449
  815SOL    HW2 2445   2.263   3.005   2.841  1.1525  0.0335  0.0180
  816SOL     OW 2446   1.586   0.351   1.679 -0.3481  0.5813  0.4191
  816SOL    HW1 2447   1.656   0.286   1.722  1.7610 -0.5535 -0.1857
  816SOL    HW2 2448   1.553   0.422   1.742 -1.5216  0.9540 -0.8616
  817SOL     OW 2449   0.363   1.160   2.637 -0.3057 -0.0644  0.1098
  817SOL    HW1 2450   0.287   1.187   2.698  0.7161  3.0569  1.0718
  817SOL    HW2 2451   0.389   1.235   2.572 -1.8598 -1.5193  2.0144
  818SOL     OW 2452   1.959   0.873   0.389 -0.0497 -1.1070 -0.2200
  818SOL    HW1 2453   2.058   0.849   0.413 -0.9443 -0.6461 -0.7754
  818SOL    HW2 2454   1.906   0.921   0.465 -1.2184  0.1616  1.8057
  819SOL     OW 2455   2.769   2.956   3.040  0.0395 -0.0299  0.5883
  819SOL    HW1 2456   2.811   2.869   3.084 -2.3106 -2.4464  1.6089
  819SOL    HW2 2457   2.698   2.938   2.964 -0.1605  1.4642 -0.0585
  820SOL     OW 2458   1.216   1.040   0.561  0.2897  0.2168  0.1453
  820SOL    HW1 2459   1.217   1.139   0.594 -0.4803 -2.9135 -1.1732
  820SOL    HW2 2460   1.242   0.974   0.635  0.3998  1.1364  0.6026
  821SOL     OW 2461   0.036   1.283   0.696 -0.0256 -0.7524  0.1246
  821SOL    HW1 2462  -0.005   1.283   0.795  0.6750 -0.5367  2.0602
  821SOL    HW2 2463   0.084   1.368   0.665 -1.0036  1.2988  2.7256
  822SOL     OW 2464   2.597   1.789   2.459 -0.4306  0.6726  0.0477
  822SOL    HW1 2465   2.581   1.855   2.536 -1.4897 -1.4150 -0.5301
  822SOL    HW2 2466   2.515   1.784   2.397  1.1187 -0.0692 -1.1478
  823SOL     OW 2467   2.003   0.831   1.133  0.0474  0.9918  0.3284
  823SOL    HW1 2468   1.975   0.827   1.230 -1.4030 -0.5623  0.0023
  823SOL    HW2 2469   1.948   0.905   1.074 -0.3117  0.1665 -2.0145
  824SOL     OW 2470   0.179   2.005   2.809  0.3373 -0.3981 -0.2491
  824SOL    HW1 2471   0.173   1.926   2.876 -1.2457  0.5141  3.0872
  824SOL    HW2 2472   0.241   1.990   2.726 -1.2849  2.0098  0.1556
  825SOL     OW 2473   1.300   1.036   0.296  0.3618 -0.1403 -0.1208
  825SOL    HW1 2474   1.350   1.130   0.282  0.4917 -0.3312  1.2912
  825SOL    HW2 2475   1.234   1.041   0.372  1.1555 -2.5561 -1.1233
  826SOL     OW 2476   1.962   0.663   1.554  0.0752  0.1406  0.3557
  826SOL    HW1 2477   2.040   0.623   1.607  1.3621  0.7115  0.5106
  826SOL    HW2 2478   1.890   0.592   1.525 -1.2159 -0.6510 -0.2900
  827SOL     OW 2479   0.719   1.206   0.281 -0.7674  0.4518  0.1004
  827SOL    HW1 2480   0.817   1.184   0.259  1.0903 -0.0544  0.9149
  827SOL    HW2 2481   0.656   1.124   0.296 -3.6128 -1.4489  0.1039
  828SOL     OW 2482   2.635   0.108   1.535  0.1680 -0.9357  0.4045
  828SOL    HW1 2483   2.540   0.095   1.485  0.2758  1.4953 -1.8362
  828SOL    HW2 2484   2.632   0.095   1.638 -1.3899  1.4660  2.4901
  829SOL     OW 2485   2.901   2.443   2.888  0.2501  0.0268 -0.7039
  829SOL    HW1 2486   2.824   2.378   2.920 -1.5687  1.6174 -0.2537
  829SOL    HW2 2487   2.868   2.528   2.841 -0.4698 -1.6457 -1.6770
  830SOL     OW 2488   2.819   0.997   3.046  0.5195  0.6053 -0.1417
  830SOL    HW1 2489   2.904   1.053   3.064  0.0216  1.8025  0.4861
  830SOL    HW2 2490   2.816   0.907   3.098 -2.8301 -0.5891  0.1773
  831SOL     OW 2491   0.127   0.587   0.405  0.2878 -0.3352  0.3089
  831SOL    HW1 2492   0.096   0.528   0.484  0.4975  0.2069  0.6828
  831SOL    HW2 2493   0.139   0.540   0.314 -0.3635  2.1064 -0.5812
  832SOL     OW 2494   1.845   0.790   3.006  0.1313  0.0034  0.1250
  832SOL    HW1 2495   1.754   0.834   2.983  0.2622 -2.5081 -1.6316
  832SOL    HW2 2496   1.835   0.685   3.008 -0.2786 -1.8438  0.7240
  833SOL     OW 2497   2.445   2.078   0.459 -0.6248 -0.5125 -0.1544
  833SOL    HW1 2498   2.350   2.065   0.421 -0.0704  0.4923  2.4483
  833SOL    HW2 2499   2.506   1.991   0.478  0.6976  0.4272 -0.0186
  834SOL     OW 2500   0.114   0.186   0.503  0.2521 -0.2797  0.0983
  834SOL    HW1 2501   0.107   0.095   0.551 -1.7423 -2.2223  0.3124
  834SOL    HW2 2502   0.123   0.175   0.398  0.4000 -2.0756  2.7231
  835SOL     OW 2503   2.369   1.503   1.160  0.3318 -0.0630  0.0527
  835SOL    HW1 2504   2.382   1.604   1.151  1.6085  1.2624 -1.6786
  835SOL    HW2 2505   2.430   1.455   1.088  3.7584  3.8831  2.5135
  836SOL     OW 2506   1.642   0.870   2.581 -0.2904  0.4267 -0.3443
  836SOL    HW1 2507   1.553   0.832   2.614  1.3948  0.8292 -0.0661
  836SOL    HW2 2508   1.657   0.852   2.480  1.5777  0.5147  0.6099
  837SOL     OW 2509   1.610   0.104   0.555  0.3024 -0.6082  0.2486
  837SOL    HW1 2510   1.563   0.177   0.617  0.4014 -0.7712  0.9666
  837SOL    HW2 2511   1.602   0.126   0.454  0.7266  1.0166 -0.6372
  838SOL     OW 2512   1.209   1.440   2.782  0.5347 -0.5594 -0.1301
  838SOL    HW1 2513   1.157   1.489   2.858 -2.3751 -1.1629 -1.1448
  838SOL    HW2 2514   1.143   1.380   2.727 -0.1234 -1.9422  1.3412
  839SOL     OW 2515   1.671   0.260   0.989 -0.2941  0.6436  0.5038
  839SOL    HW1 2516   1.659   0.343   1.050 -1.3050 -0.7857 -0.8365
  839SOL    HW2 2517   1.648   0.167   1.033  0.3424 -0.9840 -1.3932
  840SOL     OW 2518   2.522   2.870   1.759 -0.0825 -0.0948  0.2927
  840SOL    HW1 2519   2.498   2.838   1.666 -0.2069  0.6607 -1.3844
  840SOL    HW2 2520   2.514   2.801   1.832  0.2955 -0.5506 -1.0175
  841SOL     OW 2521   1.587   0.921   2.970  0.1066  0.0324  0.1455
  841SOL    HW1 2522   1.525   0.921   3.052 -1.3498 -2.1505  0.9591
  841SOL    HW2 2523   1.550   0.990   2.898 -0.5810  2.6747  0.2591
  842SOL     OW 2524   0.849   1.513   0.965 -0.3465 -0.2716  0.0793
  842SOL    HW1 2525   0.807   1.589   1.025 -1.5566 -1.3128  0.6193
  842SOL    HW2 2526   0.771   1.467   0.907 -0.8295  2.6250 -0.1442
  843SOL     OW 2527   0.144   0.120   1.476 -0.4363 -0.1202 -0.4741
  843SOL    HW1 2528   0.202   0.161   1.552 -2.4767 -1.0245  2.3016
  843SOL    HW2 2529   0.103   0.030   1.497  1.5785 -1.2000 -0.9908
  844SOL     OW 2530   0.767   2.487   0.293  0.2940 -0.1683  0.0817
  844SOL    HW1 2531   0.716   2.447   0.377 -2.1043 -1.8805  0.4775
  844SOL    HW2 2532   0.695   2.502   0.218 -1.6646 -1.4614 -0.6589
  845SOL     OW 2533   1.646   2.870   1.374  0.4756  0.3805  0.0747
  845SOL    HW1 2534   1.686   2.874   1.467 -0.6673  0.8890 -0.2521
  845SOL    HW2 2535   1.588   2.951   1.350  2.0235  2.3564  2.3398
  846SOL     OW 2536   1.650   2.977   0.852  0.1785 -0.0081  0.3548
  846SOL    HW1 2537   1.619   2.997   0.758  3.5277 -1.9544  1.0351
  846SOL    HW2 2538   1.756   2.970   0.848  0.5620 -1.8313  0.7388
  847SOL     OW 2539   2.022   1.654   0.232  0.1845 -0.0926 -0.1734
  847SOL    HW1 2540   1.960   1.627   0.315  0.0607  0.7568 -2.0486
  847SOL    HW2 2541   1.984   1.632   0.139  1.1905  1.1620 -0.5183
  848SOL     OW 2542   2.522   0.793   2.673 -0.1596 -0.1893  0.1629
  848SOL    HW1 2543   2.501   0.891   2.693  0.6724  0.2514 -1.2879
  848SOL    HW2 2544   2.454   0.742   2.607 -2.6971  0.0340 -0.1269
  849SOL     OW 2545   2.488   0.880   2.350 -0.4092  0.0547  0.2509
  849SOL    HW1 2546   2.567   0.859   2.290 -0.7846 -0.2408 -1.3017
  849SOL    HW2 2547   2.436   0.795   2.380 -1.2283  1.0073 -0.9614
  850SOL     OW 2548   1.505   0.100   1.344  0.0088 -0.1480 -0.4919
  850SOL    HW1 2549   1.518   0.087   1.240 -1.4319 -0.9935  2.2574
  850SOL    HW2 2550   1.433   0.035   1.389 -0.6538  1.8893  1.3864
  851SOL     OW 2551   0.460   1.703   0.649  0.2267 -0.2740  0.3187
  851SOL    HW1 2552   0.456   1.801   0.626 -0.7231  0.0454 -0.4796
  851SOL    HW2 2553   0.558   1.672   0.659 -0.4020  0.4030  0.2006
  852SOL     OW 2554   0.799   2.158   1.663  0.5717  0.4260  0.2013
  852SOL    HW1 2555   0.778   2.253   1.634  0.4736  0.2283 -2.0384
  852SOL    HW2 2556   0.749   2.132   1.754  1.5006 -1.2665 -0.3805
  853SOL     OW 2557   2.478   1.568   2.610 -0.1952 -0.2066  0.2926
  853SOL    HW1 2558   2.453   1.471   2.586  3.1592  1.0110 -0.1050
  853SOL    HW2 2559   2.519   1.622   2.533 -0.1879  0.1308 -2.1257
  854SOL     OW 2560   2.517   1.380   1.771 -0.0517  0.7022  0.1932
  854SOL    HW1 2561   2.534   1.352   1.671  0.0661  0.8103  0.7860
  854SOL    HW2 2562   2.528   1.300   1.836 -1.9404  0.4108  0.6071
  855SOL     OW 2563   2.117   2.368   0.965 -0.2517  0.2294 -0.7266
  855SOL    HW1 2564   2.120   2.450   0.902  0.6399  0.8888 -0.6801
  855SOL    HW2 2565   2.178   2.387   1.048  2.7014  1.8878  0.4861
  856SOL     OW 2566   1.365   1.467   0.881  0.8115 -0.3823  0.4756
  856SOL    HW1 2567   1.440   1.531   0.921  0.0396  1.6160 -2.4432
  856SOL    HW2 2568   1.276   1.476   0.926  2.1896 -3.6471 -2.2206
  857SOL     OW 2569   2.966   2.655   1.030 -0.0800  0.0546 -0.0365
  857SOL    HW1 2570   2.889   2.587   1.047  1.3195 -0.0783 -2.0590
  857SOL    HW2 2571   3.046   2.613   0.987  1.2885  1.4213  0.9579
  858SOL     OW 2572   2.313   2.098   1.705  0.0741  0.8024 -0.0932
  858SOL    HW1 2573   2.224   2.107   1.655  2.5506 -0.9358 -0.1834
  858SOL    HW2 2574   2.374   2.020   1.673 -0.3691 -0.2147 -2.1716
  859SOL     OW 2575   2.436   0.551   1.040  0.3267 -0.1041  0.4993
  859SOL    HW1 2576   2.488   0.605   0.976 -0.5340 -2.3363  1.4882
  859SOL    HW2 2577   2.491   0.467   1.067  0.6589  0.9240 -1.3390
  860SOL     OW 2578   1.938   2.821   0.479  0.3747 -0.0866  0.3243
  860SOL    HW1 2579   1.945   2.802   0.376 -1.1977 -0.4414 -3.9796
  860SOL    HW2 2580   2.025   2.873   0.504 -1.4260 -1.3871  0.9674
  861SOL     OW 2581   1.086   2.574   2.822  0.5549  0.6870  0.1164
  861SOL    HW1 2582   1.140   2.654   2.788 -0.1743 -0.7228 -0.0170
  861SOL    HW2 2583   1.125   2.543   2.911  1.5701  2.9178 -1.2650
  862SOL     OW 2584   2.844   2.503   1.598  0.0570  0.0213  0.0879
  862SOL    HW1 2585   2.913   2.528   1.670  1.8638 -3.4080  2.7771
  862SOL    HW2 2586   2.817   2.590   1.540 -1.6784  1.0857  0.2202
  863SOL     OW 2587   1.849   2.682   0.193  0.3618 -0.0427  0.3381
  863SOL    HW1 2588   1.899   2.595   0.170  0.2653  0.7074 -2.5626
  863SOL    HW2 2589   1.744   2.663   0.191 -0.3100 -2.5572 -1.2394
  864SOL     OW 2590   1.870   1.143   2.882 -0.2642 -0.1655  0.3080
  864SOL    HW1 2591   1.879   1.125   2.780 -2.0774  1.4868  1.4584
  864SOL    HW2 2592   1.958   1.123   2.929 -1.8351 -0.1876 -1.4506
  865SOL     OW 2593   2.202   1.846   0.653 -0.6545  0.6092  0.8350
  865SOL    HW1 2594   2.260   1.831   0.739 -0.0126  0.4849 -2.7725
  865SOL    HW2 2595   2.105   1.809   0.663  0.4825  0.7391  2.1662
  866SOL     OW 2596   2.962   2.910   0.983  0.2541 -1.0723  0.2079
  866SOL    HW1 2597   2.995   2.936   0.883  0.5394 -0.3300 -0.3450
  866SOL    HW2 2598   2.972   2.809   1.003 -1.4241 -0.2327  1.6720
  867SOL     OW 2599   0.323   1.390   0.937  0.0968 -0.2725  0.1024
  867SOL    HW1 2600   0.308   1.329   0.853  1.1548 -1.8922 -1.7654
  867SOL    HW2 2601   0.319   1.490   0.912 -1.4081 -2.5403 -0.6353
  868SOL     OW 2602   0.758   1.901   2.027 -0.0410  0.4198  0.2539
  868SOL    HW1 2603   0.718   1.857   2.113  0.6828  1.5954 -1.7451
  868SOL    HW2 2604   0.694   1.970   1.985 -1.0352 -0.0531 -2.2541
  869SOL     OW 2605   2.518   1.931   1.598 -0.2005 -0.2057  0.1729
  869SOL    HW1 2606   2.616   1.961   1.580 -2.0714  0.0368 -0.4706
  869SOL    HW2 2607   2.495   1.834   1.568 -1.2376 -0.9707  1.0372
  870SOL     OW 2608   2.306   2.635   1.288 -0.3344 -0.2154  0.0025
  870SOL    HW1 2609   2.286   2.536   1.250  0.8464 -4.0569 -1.0551
  870SOL    HW2 2610   2.239   2.657   1.365  0.4210 -1.8550 -1.1399
  871SOL     OW 2611   2.993   2.098   0.571  0.3358 -0.4691 -0.4688
  871SOL    HW1 2612   2.937   2.169   0.625 -1.8561 -0.6560  1.8943
  871SOL    HW2 2613   2.930   2.048   0.500 -2.0336  1.5255  1.2757
  872SOL     OW 2614   2.123   0.478   1.688  0.1994 -0.0191  0.0385
  872SOL    HW1 2615   2.091   0.456   1.785 -1.6026 -0.5310  1.4778
  872SOL    HW2 2616   2.227   0.472   1.688  0.7908  1.2280  1.0846
  873SOL     OW 2617   1.732   2.075   3.003 -0.0913  0.4245 -0.6004
  873SOL    HW1 2618   1.705   2.171   3.029 -0.0063 -0.0515 -1.9858
  873SOL    HW2 2619   1.677   2.045   2.921  0.8453 -0.5280  1.3960
  874SOL     OW 2620   0.653   2.468   0.799  0.4464 -0.6282  0.2721
  874SOL    HW1 2621   0.618   2.560   0.844 -0.7583  0.9488 -1.2430
  874SOL    HW2 2622   0.754   2.454   0.807 -1.1542  0.9242  1.5222
  875SOL     OW 2623   2.290   1.475   1.434  0.3333 -0.3287  0.0189
  875SOL    HW1 2624   2.337   1.533   1.505 -0.8776 -0.5393 -2.3636
  875SOL    HW2 2625   2.335   1.479   1.337  1.1628 -1.1469 -1.9463
  876SOL     OW 2626   0.084   2.237   2.685  0.0972 -0.1295 -0.2330
  876SOL    HW1 2627   0.118   2.159   2.735 -1.7050  2.3079 -0.8164
  876SOL    HW2 2628   0.102   2.331   2.726 -4.4372  0.5537 -1.8566
  877SOL     OW 2629   2.871   2.692   0.569 -0.0404 -0.2930  0.8274
  877SOL    HW1 2630   2.838   2.782   0.606 -0.2113  2.6416 -0.6273
  877SOL    HW2 2631   2.916   2.629   0.640 -3.0626  0.6747  1.3936
  878SOL     OW 2632   2.823   1.594   2.183  0.2038  0.3728  0.0936
  878SOL    HW1 2633   2.919   1.561   2.201  0.4763 -2.9932 -1.9639
  878SOL    HW2 2634   2.789   1.666   2.249  0.5365  0.2608  0.9484
  879SOL     OW 2635   2.367   0.036   1.141  0.1141  0.1204 -0.0058
  879SOL    HW1 2636   2.416  -0.051   1.174  0.8903  0.2624 -0.6759
  879SOL    HW2 2637   2.284   0.008   1.085 -0.0971  1.0713 -1.3876
  880SOL     OW 2638   0.684   0.488   2.231  0.1206 -0.0065 -0.0160
  880SOL    HW1 2639   0.603   0.440   2.281 -0.4299  0.0979 -1.5671
  880SOL    HW2 2640   0.725   0.424   2.156  1.8802 -0.5820 -0.5600
  881SOL     OW 2641   0.872   0.078   0.498  0.4987  0.1837  0.3249
  881SOL    HW1 2642   0.911  -0.013   0.529 -1.2782 -0.7409 -1.0066
  881SOL    HW2 2643   0.777   0.068   0.467 -0.4476 -2.9235  2.2617
  882SOL     OW 2644   2.705   1.671   1.622  0.0250 -0.4686  0.3049
  882SOL    HW1 2645   2.785   1.611   1.590 -0.4879 -0.5724 -2.0549
  882SOL    HW2 2646   2.710   1.704   1.719  0.0528  0.4679 -2.3616
  883SOL     OW 2647   0.869   0.594   0.963  0.4239 -0.2982 -0.2458
  883SOL    HW1 2648   0.900   0.694   0.972  0.1890 -0.2403  0.4748
  883SOL    HW2 2649   0.900   0.533   1.044  1.9082 -1.2464  2.3010
  884SOL     OW 2650   1.187   1.782   1.141  0.1404 -0.3667 -0.0450
  884SOL    HW1 2651   1.173   1.739   1.050 -1.8440  1.2516  1.0057
  884SOL    HW2 2652   1.124   1.863   1.154 -1.9733  3.4133 -0.9210
  885SOL     OW 2653   2.350   1.817   2.298  0.1661  0.2159  0.1706
  885SOL    HW1 2654   2.270   1.769   2.344 -0.6685 -0.1412  0.2229
  885SOL    HW2 2655   2.326   1.925   2.287  0.6872  0.5043  1.7020
  886SOL     OW 2656   2.593   0.462   1.815  0.5013  0.3914 -0.0292
  886SOL    HW1 2657   2.652   0.400   1.871 -0.0664 -0.2793 -0.5745
  886SOL    HW2 2658   2.652   0.537   1.773 -1.0363  2.0588  0.2797
  887SOL     OW 2659   0.139   2.036   1.237  0.8649  0.2785 -0.4542
  887SOL    HW1 2660   0.056   2.034   1.172 -0.9375 -0.4985 -0.1892
  887SOL    HW2 2661   0.154   2.137   1.272 -3.9346  0.2202  1.4703
  888SOL     OW 2662   0.545   1.321   1.556 -0.1439 -0.3297 -0.2534
  888SOL    HW1 2663   0.605   1.351   1.476  0.2788  1.0483 -0.1729
  888SOL    HW2 2664   0.515   1.225   1.548  0.6524 -2.1766  0.7095
  889SOL     OW 2665   0.822   2.550   2.194 -0.5517 -0.1029 -0.0511
  889SOL    HW1 2666   0.762   2.471   2.209  1.8479 -0.2811 -3.0774
  889SOL    HW2 2667   0.877   2.532   2.107 -2.9384 -1.1358 -1.1102
  890SOL     OW 2668   2.368   2.475   0.217 -0.3605  0.2714  0.2424
  890SOL    HW1 2669   2.394   2.551   0.150  1.2770  0.1603 -0.0777
  890SOL    HW2 2670   2.320   2.513   0.305 -0.8804  1.2157  0.6119
  891SOL     OW 2671   2.603   1.630   0.761 -0.3123 -0.8244 -0.3381
  891SOL    HW1 2672   2.647   1.556   0.821  0.6140 -1.9770  0.2896
  891SOL    HW2 2673   2.505   1.611   0.733  0.8116  3.8054 -2.0205
  892SOL     OW 2674   0.337   0.238   2.146 -0.4644 -0.5503  0.2275
  892SOL    HW1 2675   0.358   0.268   2.052 -2.3096  1.1960  0.2674
  892SOL    HW2 2676   0.406   0.276   2.213 -2.0688  1.6565 -1.6417
  893SOL     OW 2677   1.675   0.242   2.747 -0.1833 -0.3479  0.3609
  893SOL    HW1 2678   1.765   0.295   2.764 -1.7359  0.4034  2.2299
  893SOL    HW2 2679   1.588   0.299   2.758 -1.4090 -0.7383  1.0809
  894SOL     OW 2680   2.202   2.018   0.020  0.8438 -0.3285  0.3424
  894SOL    HW1 2681   2.168   1.967  -0.058 -1.4011  0.6596  0.0508
  894SOL    HW2 2682   2.212   1.960   0.108 -0.9497  1.1999  1.8943
  895SOL     OW 2683   2.860   1.422   0.877  0.3304 -0.0563 -0.2724
  895SOL    HW1 2684   2.918   1.355   0.928 -0.2462  0.9716  0.7818
  895SOL    HW2 2685   2.862   1.520   0.917  0.8955  2.0133  0.8936
  896SOL     OW 2686   1.804   1.864   1.189 -0.0104 -0.1200 -0.5031
  896SOL    HW1 2687   1.864   1.862   1.104 -1.0444  1.0911 -1.9396
  896SOL    HW2 2688   1.726   1.933   1.179 -0.2562 -0.0488  0.4569
  897SOL     OW 2689   0.278   0.549   3.093  0.2136 -0.2634 -0.0685
  897SOL    HW1 2690   0.225   0.611   3.021  0.4826  0.9703 -3.1522
  897SOL    HW2 2691   0.382   0.567   3.079  0.7426  2.3840 -0.0764
  898SOL     OW 2692   0.588   2.861   1.112  0.1879  0.0863  0.4405
  898SOL    HW1 2693   0.546   2.956   1.117  2.3255 -1.1424 -0.6512
  898SOL    HW2 2694   0.665   2.848   1.182  0.3838  1.6611 -0.0587
  899SOL     OW 2695   2.756   0.888   1.279 -0.2092 -0.0596 -0.2243
  899SOL    HW1 2696   2.706   0.869   1.192 -0.8861 -1.6227  2.0660
  899SOL    HW2 2697   2.849   0.922   1.257 -1.6152 -1.8944 -0.0840
  900SOL     OW 2698   1.006   2.556   2.386  0.2760 -0.0196  0.3534
  900SOL    HW1 2699   0.936   2.554   2.312  1.2081  0.2862  2.0717
  900SOL    HW2 2700   0.975   2.500   2.471 -1.2564 -0.4898  1.8282
  901SOL     OW 2701   1.889   2.358   1.384 -0.4111  0.3337  0.7382
  901SOL    HW1 2702   1.863   2.346   1.281 -0.8242  1.0380  0.6068
  901SOL    HW2 2703   1.992   2.346   1.402 -0.9538  1.8837 -2.8033
  902SOL     OW 2704   2.526   1.664   1.445  0.0350 -0.2125 -0.2804
  902SOL    HW1 2705   2.574   1.652   1.537  0.9575  0.8613  0.1521
  902SOL    HW2 2706   2.592   1.640   1.368  2.0131  1.2554 -3.0960
  903SOL     OW 2707   0.273   2.482   1.962  0.4774 -0.0114 -0.1240
  903SOL    HW1 2708   0.185   2.443   1.933 -0.7037  0.5264  3.7203
  903SOL    HW2 2709   0.283   2.576   1.914  1.0293  0.7968  0.7051
  904SOL     OW 2710   2.076   0.704   2.452 -0.2906 -0.5135 -0.5724
  904SOL    HW1 2711   2.017   0.678   2.534 -0.0416 -2.0799  1.0413
  904SOL    HW2 2712   2.020   0.730   2.370  0.1860 -0.2091  2.3910
  905SOL     OW 2713   2.805   0.061   2.584 -0.3333 -0.0678  0.4585
  905SOL    HW1 2714   2.892   0.013   2.553 -0.7986 -0.2765  0.3779
  905SOL    HW2 2715   2.791   0.158   2.547 -2.8478  1.0243 -0.6986
  906SOL     OW 2716   0.144   1.785   1.859  0.4504  0.1151  0.1503
  906SOL    HW1 2717   0.074   1.799   1.782  0.4227  0.7749  0.0905
  906SOL    HW2 2718   0.238   1.805   1.815  0.4911  3.4414 -1.4138
  907SOL     OW 2719   0.144   2.448   0.995  0.4054  0.5054  0.0064
  907SOL    HW1 2720   0.235   2.444   0.955 -1.0570  2.8160  1.0212
  907SOL    HW2 2721   0.090   2.364   0.984 -0.0088  1.6309 -0.8358
  908SOL     OW 2722   2.669   2.952   0.393 -0.0683  0.2753  0.4394
  908SOL    HW1 2723   2.638   3.004   0.307 -3.2040  0.4648  0.4870
  908SOL    HW2 2724   2.764   2.916   0.381 -2.8284  0.5464 -0.3640
  909SOL     OW 2725   0.774   1.004   2.707  0.0728 -0.7820  0.6558
  909SOL    HW1 2726   0.708   0.928   2.683  1.1170 -0.8248  0.8367
  909SOL    HW2 2727   0.853   1.009   2.640 -1.8293 -0.0304  1.3060
  910SOL     OW 2728   1.743   1.850   2.148 -0.3183  0.7319 -0.1334
  910SOL    HW1 2729   1.788   1.890   2.066  0.1035  0.4599  2.4274
  910SOL    HW2 2730   1.661   1.905   2.172  3.5766  0.2707  1.0209
  911SOL     OW 2731   1.873   2.928   1.581 -0.1340  0.4536  0.2477
  911SOL    HW1 2732   1.956   2.885   1.532 -0.5135 -0.2143 -1.1863
  911SOL    HW2 2733   1.839   2.873   1.662  1.5708 -0.5520  2.2561
  912SOL     OW 2734   2.909   0.983   0.737  0.4125 -0.0733  0.0568
  912SOL    HW1 2735   2.929   0.945   0.834  1.6181 -2.8382 -0.8712
  912SOL    HW2 2736   2.859   1.076   0.734 -1.3381  1.1471  1.0446
  913SOL     OW 2737   2.549   1.295   1.520  0.2527  0.0450  0.5496
  913SOL    HW1 2738   2.559   1.194   1.507 -1.2327 -1.7530  0.0458
  913SOL    HW2 2739   2.599   1.351   1.444 -0.2437  0.9471 -0.5307
  914SOL     OW 2740   2.860   0.559   1.223 -0.9605 -0.2634 -0.4062
  914SOL    HW1 2741   2.920   0.481   1.238 -1.4097  1.0476  2.3307
  914SOL    HW2 2742   2.797   0.582   1.301  0.9681 -0.4693  0.6970
  915SOL     OW 2743   1.242   0.784   1.052  0.4328  0.2992 -0.7404
  915SOL    HW1 2744   1.265   0.740   1.145  0.3216 -2.6784  0.2457
  915SOL    HW2 2745   1.140   0.779   1.040 -0.8168  1.7869 -0.3507
  916SOL     OW 2746   0.626   0.018   0.671  0.8995 -0.1919  0.2213
  916SOL    HW1 2747   0.656   0.102   0.732  1.0124  0.7676  2.2760
  916SOL    HW2 2748   0.624   0.039   0.570  0.5056  0.3200 -0.5661
  917SOL     OW 2749   2.813   2.622   1.971 -0.6680  0.1570  0.4993
  917SOL    HW1 2750   2.712   2.649   1.988  0.3420  2.9056  0.3092
  917SOL    HW2 2751   2.865   2.683   1.901 -0.9908  0.3384 -2.4671
  918SOL     OW 2752   1.063   2.232   2.968  0.1419  0.2875  0.0456
  918SOL    HW1 2753   1.022   2.232   3.063  1.2172 -2.9091 -0.2224
  918SOL    HW2 2754   1.082   2.134   2.936 -0.1390  0.9804  0.5953
  919SOL     OW 2755   0.874   1.652   2.830  0.1295 -0.0785  0.3940
  919SOL    HW1 2756   0.928   1.712   2.767  1.5430  0.4081  0.2079
  919SOL    HW2 2757   0.837   1.564   2.786 -1.5844 -1.3203 -0.4431
  920SOL     OW 2758   1.250   1.904   2.477  0.6065  0.0180 -0.3566
  920SOL    HW1 2759   1.256   1.889   2.378 -0.6388 -0.7549 -0.2617
  920SOL    HW2 2760   1.265   1.819   2.535  0.2581  1.2384 -0.2507
  921SOL     OW 2761   1.095   0.035   2.625  0.1571  0.4120  0.0287
  921SOL    HW1 2762   1.086   0.044   2.522  1.0364  0.3568  0.2794
  921SOL    HW2 2763   1.012  -0.002   2.668 -3.2431  1.7135 -0.3623
  922SOL     OW 2764   2.186   2.415   2.820 -0.4123  0.0841  0.5080
  922SOL    HW1 2765   2.199   2.312   2.821 -0.8605 -2.5653  2.6337
  922SOL    HW2 2766   2.122   2.441   2.738 -2.7677  0.0653 -0.1784
  923SOL     OW 2767   1.231   2.708   0.244 -0.1037  1.2418 -0.1905
  923SOL    HW1 2768   1.311   2.739   0.304  0.9461  1.8234 -0.5323
  923SOL    HW2 2769   1.251   2.612   0.204  0.4216  0.3735 -1.5577
  924SOL     OW 2770   2.884   1.515   0.076 -0.4573  0.5017 -0.4025
  924SOL    HW1 2771   2.796   1.530   0.018 -1.4096 -0.9901 -2.1316
  924SOL    HW2 2772   2.969   1.519   0.017  1.6745 -4.7456 -0.3282
  925SOL     OW 2773   0.039   2.975   1.505 -0.7242 -0.3043 -0.3009
  925SOL    HW1 2774  -0.056   3.005   1.538 -1.1175  1.6348  0.3848
  925SOL    HW2 2775   0.038   2.937   1.411  0.6691 -0.4445  1.1187
  926SOL     OW 2776   1.347   2.819   1.253  0.3813 -0.0606  0.2917
  926SOL    HW1 2777   1.402   2.824   1.162 -1.4555  1.3820 -0.6423
  926SOL    HW2 2778   1.343   2.912   1.301 -0.7664  0.8782 -0.3935
  927SOL     OW 2779   0.331   2.672   1.779 -0.5513  0.1994  0.6574
  927SOL    HW1 2780   0.309   2.601   1.702  1.8188 -0.6808 -1.7719
  927SOL    HW2 2781   0.295   2.767   1.760  0.4246 -1.7006 -0.8397
  928SOL     OW 2782   1.546   2.032   2.210 -0.0372 -0.3817 -0.7532
  928SOL    HW1 2783   1.564   2.124   2.163 -1.1323 -1.4041 -0.6222
  928SOL    HW2 2784   1.453   1.997   2.202  4.1343 -0.9807 -1.3772
  929SOL     OW 2785   2.432   2.476   2.882 -0.0362 -0.0870  0.4019
  929SOL    HW1 2786   2.326   2.452   2.874 -1.7868 -0.5315 -0.6998
  929SOL    HW2 2787   2.476   2.477   2.789 -0.9808  1.5273 -0.1783
  930SOL     OW 2788   2.183   1.961   1.047  0.2447  0.1593  0.1992
  930SOL    HW1 2789   2.177   1.910   1.138  0.7760 -0.9802 -0.0813
  930SOL    HW2 2790   2.241   2.043   1.055  0.2726 -0.6223 -0.8479
  931SOL     OW 2791   0.550   1.709   2.712 -0.3776  0.1256 -0.2331
  931SOL    HW1 2792   0.588   1.765   2.787 -2.7515 -1.8976  0.4870
  931SOL    HW2 2793   0.619   1.634   2.703 -1.0872  0.3785 -2.4291
  932SOL     OW 2794   0.407   0.103   2.955 -0.0094  0.2826 -0.3877
  932SOL    HW1 2795   0.499   0.097   2.916 -3.4412  3.7542  0.2425
  932SOL    HW2 2796   0.391   0.031   3.032 -1.5695 -0.8149  1.1916
  933SOL     OW 2797   1.035   0.740   3.029 -0.3336 -0.5686  0.0171
  933SOL    HW1 2798   1.099   0.784   3.100  2.1905 -0.9749 -1.6584
  933SOL    HW2 2799   0.988   0.813   2.970 -2.2090 -1.5285  1.1372
  934SOL     OW 2800   0.872   2.963   2.654  0.3477  1.0835 -0.1254
  934SOL    HW1 2801   0.871   2.911   2.566  0.7936 -2.1486  1.2299
  934SOL    HW2 2802   0.902   2.913   2.742  3.1199  0.5840  0.8732
  935SOL     OW 2803   0.018   0.557   0.836  0.1132 -0.0195  0.0785
  935SOL    HW1 2804   0.022   0.515   0.744  0.1743  0.3512 -0.1707
  935SOL    HW2 2805  -0.079   0.603   0.846 -1.8903 -0.7956  0.5466
  936SOL     OW 2806   1.111   2.881   0.092  0.4534  0.0153  0.4108
  936SOL    HW1 2807   1.159   2.901  -0.003  1.3103  1.2200 -2.1109
  936SOL    HW2 2808   1.159   2.816   0.156  2.7162  1.4984  0.9988
  937SOL     OW 2809   1.970   2.646   2.113 -0.0557  0.3905  0.2502
  937SOL    HW1 2810   1.874   2.667   2.127  4.2173  1.2809 -3.1648
  937SOL    HW2 2811   2.010   2.710   2.042  1.1154  2.0236  2.2156
  938SOL     OW 2812   2.774   2.056   1.493 -0.0105  0.1352 -0.4990
  938SOL    HW1 2813   2.724   2.140   1.535  2.0944 -0.1554 -0.2138
  938SOL    HW2 2814   2.858   2.031   1.555 -0.0849 -1.6168 -1.0708
  939SOL     OW 2815   2.819   1.223   2.486  0.0650  0.3327  0.3877
  939SOL    HW1 2816   2.848   1.180   2.395  1.1200  1.9895 -2.8004
  939SOL    HW2 2817   2.808   1.161   2.572  0.4003 -2.5273 -0.2665
  940SOL     OW 2818   0.989   0.463   2.723 -0.5837 -0.6096 -0.6952
  940SOL    HW1 2819   1.057   0.383   2.741  1.4751  1.2462 -0.7846
  940SOL    HW2 2820   0.888   0.444   2.697 -1.9641  2.3067 -0.3378
  941SOL     OW 2821   0.077   2.832   2.255 -0.0329 -0.1088 -0.6729
  941SOL    HW1 2822   0.115   2.730   2.265  1.0693 -0.9526 -2.2143
  941SOL    HW2 2823   0.117   2.892   2.332  0.8312  4.1703  0.9118
  942SOL     OW 2824   0.054   0.111   2.471  0.1389  0.0570  0.5402
  942SOL    HW1 2825   0.067   0.164   2.556 -1.0319 -0.7142 -0.3355
  942SOL    HW2 2826   0.082   0.156   2.385 -2.0892 -0.4911  0.3359
  943SOL     OW 2827   2.101   1.679   2.365 -0.0302 -0.6512 -0.8094
  943SOL    HW1 2828   2.099   1.593   2.316  0.8262 -0.8412  1.1382
  943SOL    HW2 2829   2.095   1.666   2.468  1.8010 -2.1025  0.7361
  944SOL     OW 2830   2.146   2.366   1.474  0.0493 -0.0798  0.1268
  944SOL    HW1 2831   2.189   2.447   1.526 -2.5024 -0.4212 -0.1204
  944SOL    HW2 2832   2.118   2.282   1.529 -1.2151  2.0220 -0.5600
  945SOL     OW 2833   0.715   1.495   0.326 -0.2919 -0.0409  0.0643
  945SOL    HW1 2834   0.690   1.545   0.241 -1.5446 -0.2480  1.0365
  945SOL    HW2 2835   0.752   1.402   0.315 -0.5498  0.7840  0.7075
  946SOL     OW 2836   0.401   0.933   2.485  0.2407 -0.0154  0.1284
  946SOL    HW1 2837   0.325   0.868   2.453 -0.1020  0.3869 -0.0955
  946SOL    HW2 2838   0.372   1.023   2.527  0.4601 -0.1040  2.5532
  947SOL     OW 2839   1.550   0.482   0.047  0.0125  0.7201 -0.4611
  947SOL    HW1 2840   1.499   0.528  -0.027  0.3823  1.1839  1.3088
  947SOL    HW2 2841   1.487   0.424   0.111 -1.9925  0.5657  5.1966
  948SOL     OW 2842   1.975   3.057   2.174  0.0862  0.0327 -0.2995
  948SOL    HW1 2843   2.001   3.026   2.079 -0.1318 -1.9143  2.0610
  948SOL    HW2 2844   1.949   2.974   2.239  4.9005 -2.9587  2.0150
  949SOL     OW 2845   0.594   2.487   0.537  0.4169  0.0416 -0.6545
  949SOL    HW1 2846   0.594   2.588   0.506  0.1612 -0.0015  3.7055
  949SOL    HW2 2847   0.614   2.479   0.641 -1.7039  2.8026 -0.7374
  950SOL     OW 2848   0.206   2.137   3.067  0.2002 -0.1196  0.3192
  950SOL    HW1 2849   0.116   2.187   3.065  2.4215  0.8051  0.2595
  950SOL    HW2 2850   0.238   2.104   2.974 -0.8024 -0.9044  0.2164
  951SOL     OW 2851   1.202   2.779   2.676 -0.2823  0.1331 -1.1641
  951SOL    HW1 2852   1.205   2.810   2.576  2.0435  0.3056  0.3686
  951SOL    HW2 2853   1.130   2.830   2.735 -0.5822  1.8250 -0.1304
  952SOL     OW 2854   0.067   1.688   0.446  0.4266 -0.0182 -0.0034
  952SOL    HW1 2855   0.141   1.761   0.459  4.7505 -1.0657 -0.5900
  952SOL    HW2 2856   0.075   1.628   0.535  3.8338  2.2842 -0.7483
  953SOL     OW 2857   2.487   1.774   0.232  0.5008  0.3534 -0.7766
  953SOL    HW1 2858   2.514   1.673   0.229  1.2386 -2.7158  2.1560
  953SOL    HW2 2859   2.500   1.826   0.140  1.7564 -1.4106  0.0685
  954SOL     OW 2860   2.176   0.540   0.962  0.1695 -0.1069  0.2309
  954SOL    HW1 2861   2.169   0.572   0.865 -0.6422  1.9652  0.2503
  954SOL    HW2 2862   2.274   0.534   0.995 -0.3768 -1.1059 -0.9290
  955SOL     OW 2863   0.187   2.629   1.301  0.3310 -0.4986  0.5584
  955SOL    HW1 2864   0.108   2.697   1.311  2.5194 -1.8713  2.5630
  955SOL    HW2 2865   0.232   2.633   1.209 -0.5950  2.1234 -0.5150
  956SOL     OW 2866   2.759   2.467   2.424  0.0296 -0.4016  0.1711
  956SOL    HW1 2867   2.776   2.367   2.428 -1.8519  2.2400 -1.8443
  956SOL    HW2 2868   2.788   2.517   2.332  3.6645  0.8167 -0.6039
  957SOL     OW 2869   1.578   2.066   2.781  0.0995 -0.1172 -0.3474
  957SOL    HW1 2870   1.518   1.982   2.760 -0.6336 -0.2706 -1.2251
  957SOL    HW2 2871   1.640   2.098   2.707 -1.8088 -0.6330 -2.3512
  958SOL     OW 2872   2.691   2.309   2.986  0.2358  0.8760 -0.0034
  958SOL    HW1 2873   2.597   2.349   2.969  1.5129  3.1605 -2.0571
  958SOL    HW2 2874   2.686   2.231   3.054 -0.1969  1.1823 -2.6195
  959SOL     OW 2875   0.228   2.802   0.053 -0.1352 -0.6412 -0.0813
  959SOL    HW1 2876   0.127   2.777   0.032 -2.1606 -1.0501  0.5282
  959SOL    HW2 2877   0.267   2.750   0.133 -0.0985  0.4633 -0.1498
  960SOL     OW 2878   1.952   0.407   1.905 -0.0095  0.4120  0.1414
  960SOL    HW1 2879   1.906   0.486   1.856 -0.5894  0.3239 -2.3525
  960SOL    HW2 2880   1.983   0.438   1.999 -2.3818 -0.9424 -0.3146
  961SOL     OW 2881   2.566   1.827   1.029 -0.6373  0.4842 -0.2744
  961SOL    HW1 2882   2.585   1.910   0.967 -0.7678  2.1771 -0.0429
  961SOL    HW2 2883   2.526   1.847   1.123 -3.0022  0.8153  1.2536
  962SOL     OW 2884   1.273   0.896   0.052 -0.0946  0.1734 -0.0068
  962SOL    HW1 2885   1.248   0.960  -0.025 -0.7348  1.3428 -1.4014
  962SOL    HW2 2886   1.266   0.945   0.143  0.5013  2.8100 -1.7787
  963SOL     OW 2887   2.201   2.554   1.875 -0.2116  0.3385 -0.0948
  963SOL    HW1 2888   2.207   2.452   1.900 -2.0166  0.0377  0.0194
  963SOL    HW2 2889   2.241   2.617   1.950 -1.1300 -0.5030 -2.7194
  964SOL     OW 2890   2.390   0.388   1.655  0.1249  0.2824  0.0623
  964SOL    HW1 2891   2.476   0.413   1.711 -0.0190 -0.8408 -2.1961
  964SOL    HW2 2892   2.408   0.403   1.554  0.6022  0.6589  1.3981
  965SOL     OW 2893   2.586   3.054   0.161 -0.0985 -0.0748  0.4394
  965SOL    HW1 2894   2.654   3.033   0.087 -1.8504  0.1884 -0.7076
  965SOL    HW2 2895   2.492   3.060   0.125 -2.4463 -3.1077 -1.5540
  966SOL     OW 2896   2.480   2.484   2.205  0.1624 -0.0922  0.1636
  966SOL    HW1 2897   2.400   2.495   2.270 -1.4102 -0.7169 -0.8519
  966SOL    HW2 2898   2.491   2.566   2.144  0.1258 -0.6644 -2.9552
  967SOL     OW 2899   2.818   2.773   2.460 -0.0534  0.6055 -0.2736
  967SOL    HW1 2900   2.847   2.722   2.376  1.3834  2.6512  0.0981
  967SOL    HW2 2901   2.889   2.839   2.493  1.2284  1.1359  0.1311
  968SOL     OW 2902   1.951   1.050   2.627 -0.0188  0.2836  0.4134
  968SOL    HW1 2903   1.870   1.100   2.585  4.2388 -1.8593  1.3133
  968SOL    HW2 2904   1.997   0.981   2.568  0.3370  1.3231  1.8978
  969SOL     OW 2905   2.758   2.446   1.085 -0.0941 -0.2643 -0.5871
  969SOL    HW1 2906   2.702   2.421   1.002 -0.4650 -2.0649  1.5725
  969SOL    HW2 2907   2.799   2.363   1.134  1.8955 -0.8649  0.2390
  970SOL     OW 2908   1.065   2.113   1.778  0.3852  0.3329 -0.9085
  970SOL    HW1 2909   0.979   2.130   1.719 -2.0330  3.7119 -0.1159
  970SOL    HW2 2910   1.050   2.158   1.870  0.5093  1.4781  0.3426
  971SOL     OW 2911   2.842   2.075   1.859 -0.3568  0.5465  0.3082
  971SOL    HW1 2912   2.819   2.171   1.882  0.0267 -0.3614  0.0505
  971SOL    HW2 2913   2.913   2.058   1.785  2.4428  1.9080  1.3700
  972SOL     OW 2914   1.952   2.421   0.168 -0.4667 -0.1755  0.2616
  972SOL    HW1 2915   1.961   2.331   0.114 -0.6754  0.3302 -0.9851
  972SOL    HW2 2916   1.981   2.419   0.271  2.0170  2.5452  0.7618
  973SOL     OW 2917   1.315   1.066   1.866  0.4063 -0.3506 -0.2250
  973SOL    HW1 2918   1.242   1.017   1.805 -1.7471  1.4539 -0.3771
  973SOL    HW2 2919   1.305   1.169   1.866 -0.3642  1.5053  0.4042
  974SOL     OW 2920   1.630   0.553   1.986 -0.2702 -0.0945  0.1286
  974SOL    HW1 2921   1.726   0.587   1.953  2.8015  0.0673  2.7167
  974SOL    HW2 2922   1.553   0.626   1.964 -2.4025  1.2482  0.3339
  975SOL     OW 2923   2.349   3.064   0.048  0.1093  0.0825  0.4547
  975SOL    HW1 2924   2.291   2.977   0.061  0.7525  2.5660  0.1362
  975SOL    HW2 2925   2.383   3.070  -0.053  0.7126 -0.2303 -0.4004
  976SOL     OW 2926   1.921   2.838   2.332 -0.0693  0.1084  0.5571
  976SOL    HW1 2927   1.845   2.788   2.279 -1.0341 -2.9250  0.8150
  976SOL    HW2 2928   1.942   2.789   2.418 -1.8571  1.9336  1.5220
  977SOL     OW 2929   0.464   0.713   1.041  0.1927  0.0150  0.1071
  977SOL    HW1 2930   0.385   0.689   0.980 -2.3222  1.7410  0.5011
  977SOL    HW2 2931   0.550   0.724   0.981  1.7093  1.5026  0.0286
   3.10000   3.10000   3.10000
