1000 SPC/Fw water molecules t=   0.58000 step= 580
 2931
    1SOL     OW    1   2.484   0.370   2.613  0.1714  0.4676 -0.0902
    1SOL    HW1    2   2.515   0.277   2.577  0.4882 -0.5393 -0.2380
    1SOL    HW2    3   2.533   0.406   2.697 -1.0026 -1.0105  0.4573
    2SOL     OW    4   2.699   3.042   1.423 -0.1124 -0.1411 -0.7805
    2SOL    HW1    5   2.739   3.088   1.335  1.2859  1.3159  0.8879
    2SOL    HW2    6   2.632   3.103   1.472  0.0304  0.7408  0.0381
    3SOL     OW    7   2.745   2.584   0.396 -0.0011 -0.0686 -0.2216
    3SOL    HW1    8   2.723   2.486   0.434 -1.6387  0.3969 -0.5786
    3SOL    HW2    9   2.810   2.639   0.456 -0.8587  0.4319  0.6591
    4SOL     OW   10   1.299   1.455   2.359 -0.0711 -0.2597 -0.0093
    4SOL    HW1   11   1.209   1.506   2.341 -2.8732  1.5693  1.1086
    4SOL    HW2   12   1.287   1.365   2.417 -1.7282 -3.7396  0.4337
    5SOL     OW   13   1.192   1.498   3.064 -0.0353 -0.1591  0.2371
    5SOL    HW1   14   1.238   1.581   3.112  0.7618  0.3629  1.5984
    5SOL    HW2   15   1.096   1.485   3.094  1.3558  0.7813 -0.0733
    6SOL     OW   16   0.078   1.833   2.926  0.3058 -0.0217  0.4206
    6SOL    HW1   17   0.007   1.850   3.003 -2.0644  3.3537 -3.0416
    6SOL    HW2   18   0.172   1.806   2.964  2.3067 -0.6738  0.5832
    7SOL     OW   19   2.565   0.907   1.157 -1.3386 -0.0434 -0.1342
    7SOL    HW1   20   2.470   0.861   1.180 -0.1552 -0.5629 -2.2561
    7SOL    HW2   21   2.578   0.904   1.053 -0.7132  0.2033 -0.1127
    8SOL     OW   22   0.450   0.595   1.527 -0.0409 -0.1675  0.2186
    8SOL    HW1   23   0.548   0.571   1.559  1.4231  2.7621  1.4948
    8SOL    HW2   24   0.435   0.582   1.425  0.1751 -1.7999  1.8111
    9SOL     OW   25   1.160   0.929   2.298  0.3784  0.0690  0.1474
    9SOL    HW1   26   1.248   0.970   2.256 -1.5149 -0.1208  1.3106
    9SOL    HW2   27   1.117   0.856   2.235 -0.6721 -2.4527 -0.2022
   10SOL     OW   28   0.678   1.345   1.266 -0.0528  0.2720  0.0857
   10SOL    HW1   29   0.589   1.374   1.214  0.7949 -2.0306  1.2318
   10SOL    HW2   30   0.733   1.429   1.279 -0.5963 -1.5866  2.6433
   11SOL     OW   31   2.373   2.715   0.950 -0.2259  0.2257  0.2399
   11SOL    HW1   32   2.360   2.703   1.054  1.8585  4.0017  2.7303
   11SOL    HW2   33   2.468   2.704   0.910 -0.7439  0.6852  0.3368
   12SOL     OW   34   1.471   0.918   0.333  0.0709 -0.7796 -0.1514
   12SOL    HW1   35   1.396   0.982   0.298 -1.5874 -1.7737 -1.1466
   12SOL    HW2   36   1.491   0.843   0.263 -0.7266 -1.2904 -1.9215
   13SOL     OW   37   2.522   0.673   1.799 -0.8782 -0.7594 -0.4592
   13SOL    HW1   38   2.439   0.681   1.865 -0.4631  0.2771  1.8739
   13SOL    HW2   39   2.491   0.659   1.702 -0.0609  0.2608 -1.0167
   14SOL     OW   40   1.969   0.071   0.744 -0.5107  0.0771  0.3824
   14SOL    HW1   41   1.912   0.122   0.673  1.3843 -2.1788 -0.8994
   14SOL    HW2   42   1.916  -0.007   0.794 -0.2152  0.4214  0.8391
   15SOL     OW   43   1.944   2.002   2.790 -0.3084 -0.7994 -0.3434
   15SOL    HW1   44   1.900   2.102   2.795 -1.4718  0.7759  1.3428
   15SOL    HW2   45   1.889   1.937   2.731 -0.2960  1.1347 -2.5657
   16SOL     OW   46   1.614   1.712   3.012 -0.0249  0.0407 -0.2869
   16SOL    HW1   47   1.626   1.607   3.008  4.4566 -0.9006 -1.5234
   16SOL    HW2   48   1.696   1.762   3.053  0.3380  1.1474  1.6462
   17SOL     OW   49   0.100   0.511   0.152 -0.0606  0.3293 -0.0421
   17SOL    HW1   50   0.169   0.545   0.082  1.8355 -0.9698  0.5848
   17SOL    HW2   51   0.012   0.473   0.106 -0.2842  1.3675 -1.2902
   18SOL     OW   52   0.990   2.952   2.121 -0.2222  0.6509  0.0529
   18SOL    HW1   53   0.920   2.886   2.151 -1.4920  0.3611  0.8868
   18SOL    HW2   54   1.049   2.921   2.038 -3.6897  2.6598 -2.1365
   19SOL     OW   55   0.527   0.827   1.906 -0.7529 -0.0114  0.0132
   19SOL    HW1   56   0.512   0.805   2.004 -1.1206  0.4621 -0.5597
   19SOL    HW2   57   0.620   0.795   1.878  2.0356 -1.3086  0.1981
   20SOL     OW   58   0.191   2.796   0.812  0.3161  0.0711  0.0357
   20SOL    HW1   59   0.129   2.853   0.753  1.3167 -1.6781  1.0181
   20SOL    HW2   60   0.275   2.772   0.760  0.5657 -0.6739  2.7823
   21SOL     OW   61   2.775   0.195   2.063  0.1573 -0.1472 -0.4144
   21SOL    HW1   62   2.690   0.150   2.020 -0.8833 -1.9204  0.7373
   21SOL    HW2   63   2.833   0.120   2.108  3.0836  0.4412  2.0493
   22SOL     OW   64   2.353   0.230   0.088  0.1495 -0.1900  0.2419
   22SOL    HW1   65   2.345   0.126   0.082 -0.1982 -4.0712  0.4530
   22SOL    HW2   66   2.260   0.277   0.105  1.7872 -0.3612 -0.0763
   23SOL     OW   67   2.734   0.638   0.620 -0.1925  0.3266 -0.1164
   23SOL    HW1   68   2.742   0.543   0.572  1.2948 -0.5667  0.6729
   23SOL    HW2   69   2.735   0.716   0.549 -1.0741 -2.1890  1.4429
   24SOL     OW   70   0.131   1.919   0.375  0.5625  0.3472 -0.4567
   24SOL    HW1   71   0.095   1.948   0.283 -0.5844 -1.9314  0.2965
   24SOL    HW2   72   0.237   1.919   0.364  0.3622  0.0529  1.1331
   25SOL     OW   73   2.217   0.509   0.242 -0.2654 -0.2618  0.9962
   25SOL    HW1   74   2.244   0.591   0.304 -1.6077 -3.4202  1.4316
   25SOL    HW2   75   2.222   0.541   0.143  0.7890 -0.8493 -0.5832
   26SOL     OW   76   2.552   2.120   2.075 -0.5360 -0.4488 -0.2618
   26SOL    HW1   77   2.607   2.171   2.147  0.3316 -1.3630  1.2631
   26SOL    HW2   78   2.609   2.041   2.025 -0.6391  0.6884 -0.9507
   27SOL     OW   79   0.603   2.932   0.166 -0.1289 -0.1592  0.3013
   27SOL    HW1   80   0.697   2.972   0.147  1.3936 -2.8349  0.0221
   27SOL    HW2   81   0.539   2.948   0.084  1.9892  1.0334 -2.6856
   28SOL     OW   82   1.538   0.181   0.302 -0.2951  0.0611 -0.4259
   28SOL    HW1   83   1.596   0.183   0.219 -1.9276  0.3613 -0.3694
   28SOL    HW2   84   1.520   0.279   0.340 -3.5119 -1.3760  0.3257
   29SOL     OW   85   1.973   0.508   0.362  0.3431  0.3244  0.1620
   29SOL    HW1   86   1.965   0.608   0.399 -1.0366  4.5949  1.8994
   29SOL    HW2   87   2.068   0.490   0.326 -0.6733  4.0383 -0.8576
   30SOL     OW   88   0.228   2.047   0.900  0.2245 -0.0502 -0.9891
   30SOL    HW1   89   0.232   2.047   0.799  2.1211  2.6070  1.0013
   30SOL    HW2   90   0.140   2.075   0.950 -0.9866 -2.1482 -0.2663
   31SOL     OW   91   2.097   3.091   2.306  0.1442 -0.2530 -0.1483
   31SOL    HW1   92   2.095   3.055   2.406 -3.3812 -0.0906  3.0257
   31SOL    HW2   93   2.024   3.046   2.245 -2.6011  3.9977 -2.0958
   32SOL     OW   94   2.957   0.202   0.241 -0.3467 -0.1955  0.2025
   32SOL    HW1   95   2.918   0.131   0.301  1.0534  0.9224 -3.1109
   32SOL    HW2   96   3.058   0.219   0.250  0.1571 -0.8310  1.9440
   33SOL     OW   97   0.920   0.348   0.576  0.1143  0.1952  0.8142
   33SOL    HW1   98   0.915   0.244   0.543  3.2167 -2.6259  0.5272
   33SOL    HW2   99   1.014   0.372   0.610  3.4033  1.5962 -1.9399
   34SOL     OW  100   0.367   2.844   1.082  0.0338 -0.6389  0.5613
   34SOL    HW1  101   0.308   2.772   1.037  0.2303 -2.3244  2.3716
   34SOL    HW2  102   0.471   2.836   1.067 -0.2273 -1.0030 -1.1755
   35SOL     OW  103   0.023   0.215   1.860 -0.0257  0.0957 -0.0265
   35SOL    HW1  104   0.073   0.125   1.887  1.2169  0.6991  0.6243
   35SOL    HW2  105  -0.051   0.195   1.787 -0.4105 -0.7213 -1.3397
   36SOL     OW  106   1.938   1.084   1.845  0.2270 -0.5195 -0.1387
   36SOL    HW1  107   1.972   1.057   1.755  1.0784  1.7124 -1.3784
   36SOL    HW2  108   1.996   1.167   1.878  0.8483  2.0356  4.1145
   37SOL     OW  109   1.198   0.161   0.924  0.2712  0.1329 -0.2871
   37SOL    HW1  110   1.249   0.207   0.999 -2.3502 -2.2047 -0.3922
   37SOL    HW2  111   1.243   0.074   0.886 -1.1313  0.9005 -0.6686
   38SOL     OW  112   1.112   2.763   2.428  0.2373 -0.0744  0.0650
   38SOL    HW1  113   1.062   2.676   2.430  2.8904  2.7808 -1.7948
   38SOL    HW2  114   1.054   2.842   2.390  0.6049  2.8023  0.4719
   39SOL     OW  115   2.314   1.387   3.009  0.5686  0.2517 -0.1443
   39SOL    HW1  116   2.393   1.321   3.001 -0.3982  1.4310  2.1266
   39SOL    HW2  117   2.283   1.383   3.111  2.3118  3.5015  0.6905
   40SOL     OW  118   2.115   2.519   2.523  0.3129 -0.1620  0.3002
   40SOL    HW1  119   2.080   2.614   2.537 -1.0167 -3.6103  1.7545
   40SOL    HW2  120   2.051   2.446   2.480  1.5494  1.1040  0.7997
   41SOL     OW  121   2.949   0.685   2.741 -0.4481  0.2257  0.1000
   41SOL    HW1  122   2.870   0.755   2.720  1.8280 -1.7740 -0.6120
   41SOL    HW2  123   2.927   0.582   2.731  1.5910  0.9345 -0.7060
   42SOL     OW  124   1.768   1.752   0.560  0.2289  0.1687 -0.8169
   42SOL    HW1  125   1.744   1.651   0.536 -1.8170  0.0983 -0.6033
   42SOL    HW2  126   1.796   1.810   0.479  3.4614  1.5127 -0.2163
   43SOL     OW  127   0.479   1.717   1.090  0.9390  0.2244 -0.5378
   43SOL    HW1  128   0.472   1.619   1.126 -3.1860 -0.3152 -2.5168
   43SOL    HW2  129   0.397   1.753   1.043 -0.6272  3.2342  0.9298
   44SOL     OW  130   1.819   2.478   3.051  0.2299 -0.1499  0.3027
   44SOL    HW1  131   1.805   2.565   3.001 -2.8246  1.8528 -1.2397
   44SOL    HW2  132   1.896   2.475   3.113  0.2397  2.0430  0.5408
   45SOL     OW  133   0.306   1.912   2.609  0.1407 -0.2818  0.0922
   45SOL    HW1  134   0.283   1.926   2.507  2.1936  1.8891  2.8362
   45SOL    HW2  135   0.389   1.850   2.619 -0.7076  2.4017  1.2919
   46SOL     OW  136   1.207   0.644   0.152  0.3144 -0.1085 -0.0777
   46SOL    HW1  137   1.246   0.731   0.110 -2.0597  0.9237  1.0265
   46SOL    HW2  138   1.118   0.663   0.199  1.6135 -1.0786 -2.2470
   47SOL     OW  139   0.191   2.458   1.643  0.2880  0.0073  0.1645
   47SOL    HW1  140   0.275   2.399   1.653  0.7509 -1.4636 -0.1109
   47SOL    HW2  141   0.148   2.449   1.543  2.2137 -0.4318 -0.0127
   48SOL     OW  142   2.618   0.604   0.142  0.3777  0.3586 -0.2334
   48SOL    HW1  143   2.581   0.628   0.240  0.1337  1.4562  1.2825
   48SOL    HW2  144   2.708   0.638   0.112  0.4634  2.5721 -0.8846
   49SOL     OW  145   0.355   0.769   1.703 -0.2273 -0.0485  0.1852
   49SOL    HW1  146   0.429   0.800   1.775  0.8276  0.1006  2.0966
   49SOL    HW2  147   0.398   0.688   1.648 -0.6594 -0.9841  0.8161
   50SOL     OW  148   1.658   1.123   0.310 -0.0858 -0.0547  0.2589
   50SOL    HW1  149   1.615   1.031   0.288  0.2918  0.6310  0.9996
   50SOL    HW2  150   1.617   1.158   0.393 -0.1646  0.5883  1.5784
   51SOL     OW  151   2.914   1.868   0.341 -0.2218 -0.7735  0.5400
   51SOL    HW1  152   2.860   1.816   0.269 -1.5975 -0.9171  0.4440
   51SOL    HW2  153   3.001   1.819   0.371 -2.5056 -1.1282  2.7967
   52SOL     OW  154   0.823   1.924   0.467 -0.5098  0.5302  0.1748
   52SOL    HW1  155   0.756   1.988   0.517 -0.4987  1.6108  2.1521
   52SOL    HW2  156   0.842   1.843   0.525 -1.4421  0.9632 -1.4286
   53SOL     OW  157   3.101   0.382   1.562  0.4216  0.5474 -0.0892
   53SOL    HW1  158   3.117   0.404   1.660  1.8539  0.5620  0.6011
   53SOL    HW2  159   3.033   0.433   1.513  2.8124  0.7129  2.1211
   54SOL     OW  160   1.775   0.461   3.077 -0.2707  0.5723 -0.0087
   54SOL    HW1  161   1.804   0.405   3.159  0.2833  0.8631  3.7655
   54SOL    HW2  162   1.671   0.478   3.069 -0.8030 -1.6834  0.5322
   55SOL     OW  163   0.748   2.896   0.652  0.1817 -0.1735  0.7189
   55SOL    HW1  164   0.694   2.985   0.669 -1.8501 -3.7734  4.2719
   55SOL    HW2  165   0.842   2.922   0.629 -0.8324 -0.2165 -0.2342
   56SOL     OW  166   0.441   1.567   3.050 -0.1844  0.1808  0.3340
   56SOL    HW1  167   0.368   1.630   3.075  1.4289 -3.3333 -3.3086
   56SOL    HW2  168   0.398   1.473   3.019  1.0363 -0.8659 -0.8961
   57SOL     OW  169   1.817   2.506   2.673  0.1879 -0.4088 -0.3515
   57SOL    HW1  170   1.844   2.467   2.584  0.6207  1.5343  0.7539
   57SOL    HW2  171   1.713   2.505   2.692 -1.0278  3.0874  0.9983
   58SOL     OW  172   0.650   0.374   1.053  0.0689 -0.3244 -0.4627
   58SOL    HW1  173   0.568   0.443   1.037 -2.1829 -0.2847 -0.4174
   58SOL    HW2  174   0.630   0.277   1.080  0.4549  0.9735  0.0034
   59SOL     OW  175   0.402   2.382   2.762 -0.3089  0.4658  0.2079
   59SOL    HW1  176   0.423   2.293   2.717 -0.1581  2.8546  1.1122
   59SOL    HW2  177   0.482   2.409   2.825  1.2007  0.1173  0.6494
   60SOL     OW  178   2.317   2.066   2.218 -0.5994 -0.8006 -0.3637
   60SOL    HW1  179   2.404   2.102   2.174  0.9451  3.1688 -0.9140
   60SOL    HW2  180   2.320   2.085   2.323  2.2406  0.1319  0.8970
   61SOL     OW  181   1.296   0.576   0.535  0.4513 -0.0998  0.1368
   61SOL    HW1  182   1.223   0.654   0.554 -3.6678 -0.0698 -1.1666
   61SOL    HW2  183   1.291   0.539   0.436  0.0384 -1.9980 -0.2169
   62SOL     OW  184   2.675   1.785   2.934  0.6246  0.5045 -0.7208
   62SOL    HW1  185   2.665   1.689   2.977 -0.3391 -0.5187  1.1049
   62SOL    HW2  186   2.759   1.787   2.874 -1.5758  0.8515  2.1902
   63SOL     OW  187   0.586   0.929   0.160  0.4054  0.3565  0.3917
   63SOL    HW1  188   0.564   1.029   0.143 -1.1364 -0.1498 -3.2340
   63SOL    HW2  189   0.642   0.913   0.245  3.4275 -1.5685 -0.9085
   64SOL     OW  190   0.081   0.576   2.545  0.5490 -0.1625 -0.0599
   64SOL    HW1  191   0.056   0.606   2.636  0.6151  2.0213 -1.1522
   64SOL    HW2  192   0.070   0.659   2.485  1.9442 -1.1066  0.6477
   65SOL     OW  193   0.203   1.484   0.553  0.1812  0.0591  0.0625
   65SOL    HW1  194   0.240   1.537   0.641  2.5687  0.7700  1.4871
   65SOL    HW2  195   0.277   1.439   0.496  2.1927 -0.6987  0.0919
   66SOL     OW  196   2.524   0.433   0.604  0.5212 -0.2709 -0.3765
   66SOL    HW1  197   2.431   0.457   0.642 -2.4926  0.3424 -0.9857
   66SOL    HW2  198   2.534   0.331   0.596  0.1681  0.2217 -2.1089
   67SOL     OW  199   0.555   2.522   1.386  0.3674  0.4824 -0.4091
   67SOL    HW1  200   0.616   2.503   1.466 -1.3804  0.7643  0.4135
   67SOL    HW2  201   0.498   2.437   1.369 -0.2922 -0.8810  3.4282
   68SOL     OW  202   1.017   1.101   2.453 -0.1479  0.1472 -0.0246
   68SOL    HW1  203   1.090   1.039   2.410 -1.0115  1.5993 -1.0088
   68SOL    HW2  204   0.931   1.116   2.398  1.0217 -1.5194 -0.3518
   69SOL     OW  205   0.789   2.764   2.190  0.5035  0.2546  0.5207
   69SOL    HW1  206   0.811   2.656   2.180  1.4659 -0.7569  0.2231
   69SOL    HW2  207   0.688   2.786   2.197 -1.4064 -1.6232  1.4743
   70SOL     OW  208   0.626   0.281   2.711 -0.6033  0.3826  0.0711
   70SOL    HW1  209   0.604   0.349   2.790 -0.1918  2.1409 -0.3592
   70SOL    HW2  210   0.571   0.190   2.725  0.6133 -3.0790  0.9523
   71SOL     OW  211   1.054   1.773   0.332 -0.0682 -0.4007  0.3860
   71SOL    HW1  212   0.996   1.689   0.356 -0.7484  1.1381 -2.5150
   71SOL    HW2  213   1.053   1.795   0.228  0.6667 -2.4632 -2.9818
   72SOL     OW  214   1.767   0.160   2.031  0.1640  0.3318  0.4379
   72SOL    HW1  215   1.844   0.186   1.965  0.1379  1.0438 -1.4792
   72SOL    HW2  216   1.800   0.097   2.100  0.1460  2.6286  1.0663
   73SOL     OW  217   2.786   2.164   2.476  0.5275  0.4577 -0.5113
   73SOL    HW1  218   2.761   2.062   2.458 -0.0057 -5.0961 -1.3302
   73SOL    HW2  219   2.820   2.175   2.579 -2.3505 -2.3419 -0.5091
   74SOL     OW  220   2.723   2.931   2.025  0.0880 -0.5000  0.3987
   74SOL    HW1  221   2.678   2.928   2.116  3.1272  1.3370 -1.1611
   74SOL    HW2  222   2.814   2.968   2.032 -0.1434 -1.1008 -2.5515
   75SOL     OW  223   0.954   0.767   1.045 -0.5286  0.0919  0.4400
   75SOL    HW1  224   0.862   0.777   0.995  1.4373 -0.2368  2.6398
   75SOL    HW2  225   0.964   0.829   1.125  0.0955 -2.7303 -0.4346
   76SOL     OW  226   1.702   1.263   2.545 -0.4020  0.2715 -0.3640
   76SOL    HW1  227   1.606   1.218   2.551 -0.7763  0.4482  1.1408
   76SOL    HW2  228   1.711   1.352   2.594  0.3313  0.6341 -2.0765
   77SOL     OW  229   2.932   0.950   0.967  0.4274 -0.2227 -0.1415
   77SOL    HW1  230   2.907   0.851   0.950 -3.1935 -2.1272 -1.2428
   77SOL    HW2  231   2.939   0.965   1.069 -0.7596 -2.0243  0.8645
   78SOL     OW  232   2.058   1.389   1.534 -0.0700 -0.1417  0.3059
   78SOL    HW1  233   2.141   1.455   1.530 -0.8132  0.5274 -1.8884
   78SOL    HW2  234   2.013   1.378   1.440 -0.8600  0.2827  0.0692
   79SOL     OW  235   0.643   1.312   0.870  0.0497  0.1310  0.7534
   79SOL    HW1  236   0.547   1.343   0.889  0.9469  3.0729 -0.3246
   79SOL    HW2  237   0.671   1.341   0.774  2.6870 -0.7652 -1.7598
   80SOL     OW  238   0.677   0.473   1.616  0.0013 -0.2313  0.2614
   80SOL    HW1  239   0.736   0.540   1.564 -3.2897 -1.0797 -3.1688
   80SOL    HW2  240   0.711   0.376   1.604 -2.5396  1.2577  1.6413
   81SOL     OW  241   1.054   1.387   2.600 -0.2824  0.7112 -0.0744
   81SOL    HW1  242   1.057   1.284   2.574 -0.9850 -4.9213  0.8114
   81SOL    HW2  243   0.973   1.431   2.553 -0.8772 -0.0355  0.2115
   82SOL     OW  244   0.939   2.947   1.510 -0.3416 -0.1461  0.2306
   82SOL    HW1  245   0.938   2.995   1.416 -0.2946  0.1895 -1.7341
   82SOL    HW2  246   0.876   2.865   1.523 -1.5151 -0.3131  1.0418
   83SOL     OW  247   2.697   2.483   0.850 -0.2868  0.2518 -0.0206
   83SOL    HW1  248   2.621   2.415   0.820  2.4706  1.8876 -1.1625
   83SOL    HW2  249   2.684   2.577   0.811 -1.2344  0.0973 -0.9062
   84SOL     OW  250   0.698   3.087   2.318 -0.0349  0.0486 -0.2538
   84SOL    HW1  251   0.654   3.009   2.371 -1.7914 -2.0275  1.8587
   84SOL    HW2  252   0.799   3.065   2.297 -2.0990 -5.5303 -1.7017
   85SOL     OW  253   0.361   1.615   1.539 -0.3263  0.1369 -0.1126
   85SOL    HW1  254   0.297   1.696   1.543 -2.7309  1.6743 -3.2943
   85SOL    HW2  255   0.385   1.576   1.632  1.5838 -1.6471  1.6840
   86SOL     OW  256   0.367   0.962   1.509  0.1690  0.1465  0.2660
   86SOL    HW1  257   0.340   0.926   1.414  1.9891  0.0945 -0.2981
   86SOL    HW2  258   0.366   0.884   1.582  0.4990 -0.5783 -1.0419
   87SOL     OW  259   1.555   0.660   0.186  0.2669  0.2734 -0.3248
   87SOL    HW1  260   1.648   0.709   0.194 -2.1638 -2.3654 -1.8393
   87SOL    HW2  261   1.530   0.622   0.093  1.2014 -1.0564  0.2831
   88SOL     OW  262   1.573   1.398   0.244  0.5126  0.4725 -0.0118
   88SOL    HW1  263   1.587   1.296   0.265  0.2432  0.3966 -0.0922
   88SOL    HW2  264   1.468   1.415   0.261 -0.9698  1.1399 -1.2263
   89SOL     OW  265   0.033   0.412   0.596  0.2355  0.1690 -0.2064
   89SOL    HW1  266   0.110   0.347   0.571 -1.6360  0.5513  1.2900
   89SOL    HW2  267  -0.061   0.373   0.568 -0.8546 -1.0124  0.0292
   90SOL     OW  268   0.913   1.559   3.087  0.0102  0.4977  0.4692
   90SOL    HW1  269   0.830   1.555   3.144 -0.2713 -0.7502 -0.5979
   90SOL    HW2  270   0.890   1.606   2.997 -0.7455  0.0116  0.1108
   91SOL     OW  271   1.271   1.420   1.809 -0.3351 -0.0473 -0.3972
   91SOL    HW1  272   1.228   1.511   1.833  0.0049 -1.1266 -2.6334
   91SOL    HW2  273   1.340   1.431   1.737 -0.9295  1.3933  0.2546
   92SOL     OW  274   3.066   0.994   1.206  0.6972 -0.1238  0.0244
   92SOL    HW1  275   3.119   1.068   1.155  0.8286 -1.1489 -0.0090
   92SOL    HW2  276   3.087   0.990   1.307 -0.4952 -2.7756  2.2163
   93SOL     OW  277   3.079   2.740   0.023  0.1844  0.4311 -0.1413
   93SOL    HW1  278   3.028   2.745  -0.070 -2.6123 -1.3989  0.9887
   93SOL    HW2  279   3.130   2.653   0.050 -2.2610 -1.0177 -1.3293
   94SOL     OW  280   1.548   1.478   1.707 -0.3279  0.1023  1.0122
   94SOL    HW1  281   1.577   1.384   1.727  2.3376  1.7679 -0.6163
   94SOL    HW2  282   1.587   1.548   1.776  1.3648 -1.7889  1.7464
   95SOL     OW  283   1.357   2.521   3.014  0.6703 -0.1815  0.2440
   95SOL    HW1  284   1.274   2.515   3.074  1.9976  0.6842  2.3957
   95SOL    HW2  285   1.380   2.427   2.975  0.9416 -3.0680 -1.2316
   96SOL     OW  286   0.524   2.031   1.303 -0.0940  0.4204  0.3929
   96SOL    HW1  287   0.517   2.030   1.198 -0.9021  0.4608  0.8328
   96SOL    HW2  288   0.592   1.960   1.329 -0.5513  0.2710  0.9973
   97SOL     OW  289   0.398   1.605   2.448  0.6119  0.5972 -0.0913
   97SOL    HW1  290   0.315   1.574   2.500 -0.6346  2.1070  0.9004
   97SOL    HW2  291   0.447   1.684   2.493  0.4231 -1.1471 -0.1287
   98SOL     OW  292   1.957   1.584   1.250 -0.2035 -0.2172 -0.1488
   98SOL    HW1  293   1.923   1.542   1.336  3.1710 -0.6088 -1.9637
   98SOL    HW2  294   1.963   1.521   1.169  0.8670 -0.4198 -2.1882
   99SOL     OW  295   2.489   2.118   1.372  0.0730  0.4891 -0.2193
   99SOL    HW1  296   2.450   2.163   1.457  0.0226 -0.6597  0.4026
   99SOL    HW2  297   2.474   2.015   1.370 -1.0144  0.6425  1.3008
  100SOL     OW  298   2.295   0.385   2.082 -0.1013 -0.3721 -0.2610
  100SOL    HW1  299   2.231   0.339   2.156 -1.1666  0.1778 -0.3126
  100SOL    HW2  300   2.387   0.422   2.124  1.2791  2.4682  0.5230
  101SOL     OW  301   0.372   1.495   0.252 -0.2935  0.1394  0.1520
  101SOL    HW1  302   0.431   1.515   0.338 -1.4087 -0.5734  2.8178
  101SOL    HW2  303   0.403   1.551   0.170  1.3420  0.7601 -0.1022
  102SOL     OW  304   2.313   1.012   0.835 -0.5787 -0.4013  0.0544
  102SOL    HW1  305   2.230   0.947   0.830  0.3282  0.8568  2.7531
  102SOL    HW2  306   2.321   1.084   0.762  0.2236  0.0974 -2.1012
  103SOL     OW  307   2.285   0.003   0.413  0.1637  0.0443  0.1764
  103SOL    HW1  308   2.324   0.088   0.367  2.1342  1.6901 -0.1195
  103SOL    HW2  309   2.366  -0.053   0.443 -0.7737  1.3033 -1.7395
  104SOL     OW  310   0.078   1.733   2.205 -0.1432 -0.4968 -0.1629
  104SOL    HW1  311   0.127   1.684   2.123  0.0517  1.6063 -0.4852
  104SOL    HW2  312  -0.021   1.768   2.189 -1.1605  0.5346  0.5263
  105SOL     OW  313   1.269   2.089   0.796  0.5686  0.7102 -0.3329
  105SOL    HW1  314   1.216   2.136   0.722 -1.3435 -0.1017 -0.3456
  105SOL    HW2  315   1.298   1.995   0.771  0.1784  0.0822  0.4035
  106SOL     OW  316   2.145   0.552   1.382  0.4310  0.1595  0.4260
  106SOL    HW1  317   2.085   0.481   1.431 -2.7670 -1.0843 -1.1509
  106SOL    HW2  318   2.154   0.641   1.434 -0.5282 -0.1068  2.1657
  107SOL     OW  319   1.759   3.004   1.107  0.1425 -0.0683  0.6291
  107SOL    HW1  320   1.812   3.082   1.151  1.4428 -3.3023  0.5468
  107SOL    HW2  321   1.701   2.952   1.180 -0.6372 -0.9052  1.4438
  108SOL     OW  322   0.817   2.764   1.212  0.0995  0.1123 -0.6292
  108SOL    HW1  323   0.777   2.750   1.310 -0.3775  1.8553  0.3752
  108SOL    HW2  324   0.921   2.759   1.210  0.7241 -1.5597 -0.9936
  109SOL     OW  325   2.243   0.148   0.777  0.7045 -0.3753 -0.4678
  109SOL    HW1  326   2.145   0.111   0.752 -1.5187  0.1260 -1.3081
  109SOL    HW2  327   2.254   0.167   0.880 -0.7744 -1.3806  1.5614
  110SOL     OW  328   0.450   2.833   2.735  0.0854  0.5530  0.1986
  110SOL    HW1  329   0.429   2.863   2.638  1.5061  0.9729  0.6631
  110SOL    HW2  330   0.539   2.781   2.742 -0.7253  4.0510  1.3131
  111SOL     OW  331   1.321   0.517   2.281  0.0400 -0.2585 -0.3227
  111SOL    HW1  332   1.245   0.557   2.342  0.5988 -1.3509 -1.4780
  111SOL    HW2  333   1.368   0.432   2.319 -0.9380 -1.3430  2.0953
  112SOL     OW  334   1.750   0.494   1.471 -0.1023 -0.3763  0.3351
  112SOL    HW1  335   1.741   0.464   1.370  0.9888  0.9435 -1.2403
  112SOL    HW2  336   1.703   0.431   1.536  0.1286 -1.1534 -0.0497
  113SOL     OW  337   2.261   1.633   1.765 -0.1070  0.3446  0.4104
  113SOL    HW1  338   2.282   1.534   1.747  0.3866 -0.1362  2.9015
  113SOL    HW2  339   2.319   1.674   1.841  0.1785 -0.4700 -0.8995
  114SOL     OW  340   0.367   0.524   1.252  0.2053 -0.2389 -0.5634
  114SOL    HW1  341   0.403   0.608   1.206  2.8727 -3.0102 -1.4787
  114SOL    HW2  342   0.312   0.470   1.189  2.5291  0.7201  2.6204
  115SOL     OW  343   2.751   1.649   1.260  0.7667  0.3330  0.0776
  115SOL    HW1  344   2.742   1.548   1.293 -0.2028  0.3020  0.9754
  115SOL    HW2  345   2.760   1.656   1.157  1.4410 -0.5227  0.1103
  116SOL     OW  346   1.819   1.012   0.715  0.6835  0.3503 -0.0812
  116SOL    HW1  347   1.720   0.994   0.689 -2.6230  1.9133  0.7083
  116SOL    HW2  348   1.830   1.114   0.737 -0.1569  0.8732  0.0684
  117SOL     OW  349   1.163   0.410   0.675  0.2826 -0.1607  0.1499
  117SOL    HW1  350   1.169   0.420   0.780 -2.4869 -1.1957 -0.9249
  117SOL    HW2  351   1.222   0.475   0.621  1.3968  1.2862 -0.0205
  118SOL     OW  352   1.093   1.148   1.071 -0.0587  0.3692 -0.0595
  118SOL    HW1  353   1.078   1.052   1.126 -2.6597 -2.0161  1.3086
  118SOL    HW2  354   1.127   1.215   1.140  1.7097 -1.5165 -1.0798
  119SOL     OW  355   1.846   1.622   2.107  0.0805  0.2893 -0.2678
  119SOL    HW1  356   1.814   1.718   2.140 -0.1650  0.4368 -1.8055
  119SOL    HW2  357   1.944   1.615   2.121 -5.5570 -0.0352 -0.2308
  120SOL     OW  358   2.954   2.848   0.232 -0.6290  0.0375 -0.2635
  120SOL    HW1  359   3.007   2.795   0.160  3.2179 -0.1173 -1.2121
  120SOL    HW2  360   2.868   2.799   0.264  1.2445  2.1770 -1.4892
  121SOL     OW  361   2.015   0.768   2.279  0.1423  0.2694 -0.1291
  121SOL    HW1  362   2.018   0.832   2.200 -1.0686  0.0063 -0.6152
  121SOL    HW2  363   2.030   0.667   2.247  1.8041 -0.8866 -1.5758
  122SOL     OW  364   2.603   2.679   1.241 -0.8787  0.6283 -0.2528
  122SOL    HW1  365   2.654   2.585   1.228 -1.1821  1.9789  0.6088
  122SOL    HW2  366   2.606   2.738   1.162 -0.1447  0.7192  1.0732
  123SOL     OW  367   1.733   0.061   1.675 -0.0249  0.0174 -0.1430
  123SOL    HW1  368   1.778  -0.017   1.628 -2.5311  0.9662  0.5107
  123SOL    HW2  369   1.801   0.106   1.744 -0.1330 -2.0269 -0.4471
  124SOL     OW  370   0.120   0.414   1.105  0.1187  0.2667 -0.3627
  124SOL    HW1  371   0.119   0.478   1.186 -0.4609 -0.8355  3.0650
  124SOL    HW2  372   0.076   0.445   1.018 -0.1827 -2.7444  2.6202
  125SOL     OW  373   0.847   1.764   0.676  0.0736  1.1590 -0.0898
  125SOL    HW1  374   0.949   1.740   0.668  1.2138  0.3352  1.4892
  125SOL    HW2  375   0.796   1.715   0.746 -0.3544  1.3133 -0.8644
  126SOL     OW  376   1.913   2.347   2.438 -0.1757 -0.6908  0.3374
  126SOL    HW1  377   1.983   2.300   2.378 -2.9665 -0.6755 -2.3892
  126SOL    HW2  378   1.846   2.278   2.476  1.7777 -1.3980  0.9550
  127SOL     OW  379   0.830   0.905   0.321  0.1261 -0.1794  0.0631
  127SOL    HW1  380   0.886   0.978   0.369  0.8926 -2.0340  0.8912
  127SOL    HW2  381   0.898   0.829   0.297  0.9723  1.3791  3.1428
  128SOL     OW  382   0.962   0.190   1.373  0.4437  0.2701  0.1786
  128SOL    HW1  383   0.952   0.280   1.320  2.3574  3.0852 -1.9887
  128SOL    HW2  384   0.876   0.125   1.361 -1.7175  0.0865  1.5964
  129SOL     OW  385   1.819   0.688   1.883 -0.2911  0.1860 -0.0896
  129SOL    HW1  386   1.837   0.703   1.786  0.6106 -2.5646  4.2800
  129SOL    HW2  387   1.845   0.773   1.939 -0.1033  0.5282  3.0163
  130SOL     OW  388   1.350   2.234   1.023  0.6038  0.1257 -0.2709
  130SOL    HW1  389   1.316   2.184   0.934 -2.2909  2.6369 -2.4320
  130SOL    HW2  390   1.425   2.306   1.006  0.2068  1.9554 -0.4570
  131SOL     OW  391   3.088   1.457   1.390 -0.5155 -0.0714 -0.2663
  131SOL    HW1  392   3.043   1.366   1.399 -0.3213 -0.1603  0.0080
  131SOL    HW2  393   3.192   1.454   1.388  1.0297 -3.7823 -1.5740
  132SOL     OW  394   2.008   2.436   0.516 -0.1492  0.6161  0.5269
  132SOL    HW1  395   1.907   2.436   0.508  0.8876 -1.3517 -1.6535
  132SOL    HW2  396   2.048   2.378   0.595 -0.7938 -0.9500 -1.3698
  133SOL     OW  397   1.859   2.275   2.791 -0.5573 -0.1643 -1.0324
  133SOL    HW1  398   1.839   2.311   2.886 -0.2960  0.7674 -1.5427
  133SOL    HW2  399   1.884   2.352   2.727  0.3937  1.3877 -2.3066
  134SOL     OW  400   2.687   2.336   1.623 -0.8142 -0.6297  0.1786
  134SOL    HW1  401   2.630   2.308   1.709 -2.2208  0.7812  0.5940
  134SOL    HW2  402   2.727   2.432   1.621  0.3940 -1.0608 -0.3318
  135SOL     OW  403   0.708   1.526   2.660 -0.2676  0.3297  0.6075
  135SOL    HW1  404   0.680   1.434   2.687  2.1603  4.7574 -2.5194
  135SOL    HW2  405   0.757   1.510   2.569 -0.0119 -2.6749  0.0403
  136SOL     OW  406   1.197   1.976   0.450  0.2713 -0.5968  0.2932
  136SOL    HW1  407   1.140   2.025   0.519 -0.9053 -0.9575  0.1240
  136SOL    HW2  408   1.146   1.900   0.396  1.4709 -2.4103 -3.2175
  137SOL     OW  409   0.376   1.143   2.129  0.4271  0.0985  0.1266
  137SOL    HW1  410   0.278   1.148   2.175 -0.2003 -0.5579  1.4803
  137SOL    HW2  411   0.429   1.058   2.157  1.7549 -1.0096  0.4547
  138SOL     OW  412   2.432   1.484   0.258  0.7064 -0.0087  0.2363
  138SOL    HW1  413   2.339   1.482   0.212  0.7816  2.1265 -1.1823
  138SOL    HW2  414   2.457   1.396   0.306 -1.2585  0.8426  2.6523
  139SOL     OW  415   1.817   2.658   1.284  0.2599 -0.0971  0.5027
  139SOL    HW1  416   1.720   2.645   1.240 -2.9729  0.5236 -2.1942
  139SOL    HW2  417   1.862   2.571   1.318  0.0988 -3.1944 -0.1938
  140SOL     OW  418   3.005   2.936   2.619 -0.6973 -0.7987 -0.0931
  140SOL    HW1  419   3.089   2.874   2.596 -0.4136 -1.9295 -2.8578
  140SOL    HW2  420   3.014   3.000   2.700 -0.3792  0.7232 -0.4792
  141SOL     OW  421   1.267   1.709   1.601  0.2391 -0.2745 -0.1769
  141SOL    HW1  422   1.182   1.752   1.637 -0.7610 -0.0669 -0.3613
  141SOL    HW2  423   1.338   1.702   1.675  0.0298  2.3528  1.3347
  142SOL     OW  424   1.559   0.617   2.180 -0.8402  0.1034  0.0604
  142SOL    HW1  425   1.564   0.600   2.079 -0.0013  2.3158  0.1936
  142SOL    HW2  426   1.463   0.611   2.222  1.9014 -1.0764  0.0425
  143SOL     OW  427   2.736   0.877   0.500 -0.2154  0.3902 -0.0868
  143SOL    HW1  428   2.787   0.930   0.426 -0.1966 -0.4477 -2.2295
  143SOL    HW2  429   2.753   0.908   0.600  2.6939 -1.3362  3.1577
  144SOL     OW  430   2.936   1.233   1.448 -0.0212 -1.1710  0.4406
  144SOL    HW1  431   2.881   1.189   1.525  2.3693 -0.8825  1.1437
  144SOL    HW2  432   2.987   1.160   1.398 -2.1667  0.1426 -1.7229
  145SOL     OW  433   1.008   1.856   0.081 -0.3263  0.3919  0.5160
  145SOL    HW1  434   1.061   1.926   0.027  1.1637 -0.7693  0.9930
  145SOL    HW2  435   0.980   1.770   0.029 -1.0121  0.9796 -0.2529
  146SOL     OW  436   2.451   0.660   1.534 -0.0082  0.1294  0.4588
  146SOL    HW1  437   2.446   0.575   1.476  1.1857  0.0745  0.0549
  146SOL    HW2  438   2.388   0.743   1.512 -0.2688  2.2174  1.3916
  147SOL     OW  439   1.108   2.455   0.597 -0.2500  0.3069  0.5753
  147SOL    HW1  440   1.051   2.490   0.513 -0.5957 -0.8621  3.0581
  147SOL    HW2  441   1.200   2.413   0.573 -2.2979 -1.2521  0.0766
  148SOL     OW  442   1.644   1.447   3.073  0.0022  0.0910  0.2243
  148SOL    HW1  443   1.664   1.353   3.024  0.5949 -1.3893 -1.5174
  148SOL    HW2  444   1.605   1.446   3.170 -0.9299  0.5855 -0.5833
  149SOL     OW  445   0.718   1.448   1.935 -0.1811  0.1692  0.2478
  149SOL    HW1  446   0.629   1.416   1.975 -1.0621 -0.6015 -0.1408
  149SOL    HW2  447   0.758   1.381   1.869  1.7685 -1.0474  2.6670
  150SOL     OW  448   3.037   1.254   0.962  0.3689  0.1435  0.4494
  150SOL    HW1  449   3.122   1.226   1.015 -0.9561  1.1557  1.4800
  150SOL    HW2  450   2.988   1.172   0.920 -0.9613 -0.4471 -0.7153
  151SOL     OW  451   0.197   0.775   2.094  0.8238 -0.0524 -0.7342
  151SOL    HW1  452   0.200   0.852   2.020 -4.5791 -0.0198 -0.0103
  151SOL    HW2  453   0.270   0.701   2.083 -0.2274  0.7889 -1.4352
  152SOL     OW  454   1.369   1.781   1.293  0.3513  0.9903  0.4394
  152SOL    HW1  455   1.363   1.871   1.339 -0.6626 -1.6229 -0.2366
  152SOL    HW2  456   1.285   1.761   1.236  1.2425 -0.3085 -0.7672
  153SOL     OW  457   0.021   1.552   0.172 -1.5645 -0.5304  0.1712
  153SOL    HW1  458   0.038   1.448   0.173 -0.8983  0.1192  0.3583
  153SOL    HW2  459   0.014   1.592   0.270  0.0287 -1.6851  2.5254
  154SOL     OW  460   2.341   1.854   2.808 -0.2351 -0.0512 -0.6565
  154SOL    HW1  461   2.335   1.754   2.826 -1.5689  0.4398  0.8905
  154SOL    HW2  462   2.432   1.876   2.768 -0.2357 -2.7370 -2.9019
  155SOL     OW  463   2.433   1.232   0.402 -0.3939 -0.0322  1.1246
  155SOL    HW1  464   2.516   1.208   0.343  0.6792  0.0815  3.6426
  155SOL    HW2  465   2.340   1.190   0.366 -0.9411 -0.2562 -0.0327
  156SOL     OW  466   2.569   0.953   0.892 -0.0861  0.2866 -0.3297
  156SOL    HW1  467   2.467   0.984   0.887 -1.9126 -0.8160 -1.2191
  156SOL    HW2  468   2.634   1.026   0.865  1.9451  0.0150 -1.4260
  157SOL     OW  469   1.248   2.998   3.028  0.6894  0.2590  0.6170
  157SOL    HW1  470   1.292   2.982   2.934 -1.3765  2.5629  0.7285
  157SOL    HW2  471   1.236   3.100   3.040  1.2601  0.0185 -1.9975
  158SOL     OW  472   1.004   1.847   2.006  0.2222 -0.2699  0.0232
  158SOL    HW1  473   1.021   1.941   1.972 -0.8048 -0.8876 -1.2082
  158SOL    HW2  474   0.929   1.842   2.079 -1.4331 -2.5119  3.4273
  159SOL     OW  475   0.860   0.446   1.257  0.3915  0.2759 -0.5179
  159SOL    HW1  476   0.821   0.522   1.314 -2.0095 -2.0732  0.8511
  159SOL    HW2  477   0.795   0.413   1.183 -1.1541 -3.9307 -0.1881
  160SOL     OW  478   1.450   2.413   1.680  0.2309 -0.3599 -0.1142
  160SOL    HW1  479   1.418   2.508   1.660  0.3775 -0.4578 -3.0952
  160SOL    HW2  480   1.530   2.390   1.618  0.5488  2.7871  0.1204
  161SOL     OW  481   0.124   2.897   0.324 -0.4497 -0.0989 -0.0026
  161SOL    HW1  482   0.026   2.853   0.322  2.3859  2.7679  1.4702
  161SOL    HW2  483   0.139   2.974   0.256 -1.1667 -0.8311  0.3704
  162SOL     OW  484   2.561   1.922   0.435 -0.3049  0.3323  0.4145
  162SOL    HW1  485   2.586   1.895   0.338 -3.0247 -2.2018 -2.0731
  162SOL    HW2  486   2.541   1.847   0.504 -2.3667  1.1699 -1.9398
  163SOL     OW  487   1.948   2.717   0.780 -0.4876  0.2579  0.2331
  163SOL    HW1  488   1.901   2.722   0.689  0.6062  1.3293  0.2103
  163SOL    HW2  489   2.024   2.648   0.784 -2.0204  1.7932  1.1202
  164SOL     OW  490   3.036   0.209   1.188 -0.1825 -0.7330 -0.4332
  164SOL    HW1  491   3.092   0.268   1.127 -2.5614 -0.2912  0.6592
  164SOL    HW2  492   3.088   0.140   1.241 -2.7976 -1.3617 -2.6805
  165SOL     OW  493   0.936   1.423   0.659 -0.2368 -0.2652 -0.0731
  165SOL    HW1  494   0.923   1.490   0.739 -0.3143  0.9822  2.1896
  165SOL    HW2  495   0.898   1.455   0.565 -0.3784  0.6391  0.6648
  166SOL     OW  496   1.475   1.087   1.741 -0.0085 -0.0864  0.5673
  166SOL    HW1  497   1.400   1.099   1.804  1.2110  1.1813 -1.1369
  166SOL    HW2  498   1.564   1.130   1.772 -1.0870 -0.2003 -1.2453
  167SOL     OW  499   0.771   1.903   1.486 -0.3001  0.0935 -0.2363
  167SOL    HW1  500   0.767   1.964   1.572 -0.9881  1.0997  1.7554
  167SOL    HW2  501   0.743   1.805   1.503  0.6864  0.5846 -0.6174
  168SOL     OW  502   1.639   2.401   0.132 -0.3767  0.2356  0.2835
  168SOL    HW1  503   1.722   2.433   0.075  0.5903 -2.9084 -2.9932
  168SOL    HW2  504   1.672   2.339   0.208 -2.8368  0.4265  1.8155
  169SOL     OW  505   0.210   2.584   2.233 -0.5690 -0.7656 -0.0195
  169SOL    HW1  506   0.180   2.515   2.164  1.1398 -0.2023 -0.7786
  169SOL    HW2  507   0.262   2.549   2.312 -2.5106  0.6111  2.1059
  170SOL     OW  508   1.234   0.286   1.961 -0.1518 -0.8463  0.5430
  170SOL    HW1  509   1.300   0.265   2.041  1.2975 -1.5258 -0.5558
  170SOL    HW2  510   1.194   0.202   1.918 -0.0834 -0.2780 -1.2755
  171SOL     OW  511   0.218   0.835   2.371  0.0861  0.0178 -0.0659
  171SOL    HW1  512   0.128   0.850   2.421  0.0452  1.9869  0.5162
  171SOL    HW2  513   0.210   0.822   2.265  0.9761  1.1815  0.1776
  172SOL     OW  514   0.906   1.104   2.937 -0.6744 -0.5628 -0.5416
  172SOL    HW1  515   0.987   1.153   2.976 -0.8600 -3.4169  0.4596
  172SOL    HW2  516   0.911   1.087   2.837 -0.1370 -0.2635 -0.7581
  173SOL     OW  517   0.660   2.686   0.067 -0.3751  0.1641 -0.1236
  173SOL    HW1  518   0.648   2.772   0.114 -0.7832 -0.8503  1.8118
  173SOL    HW2  519   0.568   2.641   0.051 -1.1274  0.0123 -0.9248
  174SOL     OW  520   1.399   2.858   1.065  0.1465 -0.1192 -0.0478
  174SOL    HW1  521   1.366   2.943   1.020 -1.5580  2.5513  1.4809
  174SOL    HW2  522   1.379   2.774   1.007 -0.0895  0.4517  0.0360
  175SOL     OW  523   0.411   0.056   1.652  0.2991 -0.0128  0.5734
  175SOL    HW1  524   0.476   0.086   1.727 -0.9258 -1.0113  1.6800
  175SOL    HW2  525   0.349   0.129   1.619  0.5386 -1.9782  0.7452
  176SOL     OW  526   2.561   0.385   3.066  0.2717 -0.2776 -1.0424
  176SOL    HW1  527   2.589   0.461   3.135  0.7678 -1.8245  2.6005
  176SOL    HW2  528   2.504   0.315   3.110  2.9335  2.5086  2.9246
  177SOL     OW  529   0.347   0.289   0.956 -0.2488  0.1786  0.4134
  177SOL    HW1  530   0.406   0.218   1.001  0.9691 -0.3968 -1.0445
  177SOL    HW2  531   0.269   0.302   1.016  0.5532 -0.8554  3.0942
  178SOL     OW  532   0.031   2.683   2.625  0.5498 -0.4363  0.3241
  178SOL    HW1  533  -0.061   2.640   2.654 -0.8750  0.3580 -1.7056
  178SOL    HW2  534   0.102   2.699   2.697 -0.4480 -0.8537  0.2731
  179SOL     OW  535   0.019   1.700   1.185  0.1728 -0.1791  0.1987
  179SOL    HW1  536  -0.068   1.760   1.187 -3.6597  3.0999  2.0999
  179SOL    HW2  537   0.026   1.639   1.265 -1.0542 -1.0539  0.3664
  180SOL     OW  538   0.217   1.206   1.854  0.7891 -0.4337  0.1141
  180SOL    HW1  539   0.316   1.220   1.866 -2.4710 -1.1254  0.0127
  180SOL    HW2  540   0.165   1.245   1.935 -1.2396  0.0208  2.6657
  181SOL     OW  541   3.021   1.843   2.519  0.1152 -0.5994  0.0058
  181SOL    HW1  542   3.091   1.925   2.521 -1.7100  1.0562 -2.6688
  181SOL    HW2  543   2.939   1.859   2.462  3.4650  1.7253  1.7332
  182SOL     OW  544   2.273   1.291   1.163 -0.2019  0.0154  0.1232
  182SOL    HW1  545   2.200   1.230   1.115 -1.2899 -0.5980  2.0444
  182SOL    HW2  546   2.281   1.385   1.118  1.3053  0.4554 -1.8055
  183SOL     OW  547   1.492   2.243   2.517 -0.3139 -0.4427  0.3230
  183SOL    HW1  548   1.411   2.171   2.517 -0.0935 -0.9002  2.9890
  183SOL    HW2  549   1.584   2.197   2.521 -4.2100 -1.3528  3.0801
  184SOL     OW  550   2.060   0.927   0.801  0.3713 -0.3953 -0.6956
  184SOL    HW1  551   1.971   0.964   0.754 -0.0531  1.4536  1.2026
  184SOL    HW2  552   2.037   0.846   0.861  2.1670 -2.1859 -0.7022
  185SOL     OW  553   1.566   2.731   2.081  0.1223  0.2915  0.1725
  185SOL    HW1  554   1.509   2.814   2.046 -0.7947 -0.1396  0.2495
  185SOL    HW2  555   1.534   2.705   2.173 -2.0769  2.7122 -1.3802
  186SOL     OW  556   0.075   2.174   1.696 -0.6626  0.1065 -0.0660
  186SOL    HW1  557   0.110   2.266   1.672 -0.4840 -2.1389 -2.8743
  186SOL    HW2  558   0.149   2.098   1.713  1.9573 -0.2181 -1.5835
  187SOL     OW  559   1.389   0.709   1.663 -0.0046  0.1726 -0.2728
  187SOL    HW1  560   1.439   0.719   1.573  0.2985  2.8362  0.0574
  187SOL    HW2  561   1.428   0.774   1.734  1.3218  0.8972 -3.2758
  188SOL     OW  562   2.792   2.808   1.459 -0.3032 -0.5710  0.0652
  188SOL    HW1  563   2.765   2.908   1.452  2.3624  0.1626 -1.1082
  188SOL    HW2  564   2.719   2.749   1.412  1.2998  0.1091 -2.1643
  189SOL     OW  565   0.849   1.067   1.364 -0.6609  0.5061 -0.3985
  189SOL    HW1  566   0.922   1.122   1.419 -0.0654  0.0624  0.3773
  189SOL    HW2  567   0.796   1.114   1.291 -0.3994 -1.3546 -0.8314
  190SOL     OW  568   1.539   1.883   1.584 -0.1931  0.3679  0.4488
  190SOL    HW1  569   1.440   1.870   1.561 -0.6041 -1.3736  0.1002
  190SOL    HW2  570   1.562   1.863   1.685  2.6901 -0.5123  1.5484
  191SOL     OW  571   0.962   0.753   1.540 -0.2864  0.0219 -0.5353
  191SOL    HW1  572   0.994   0.655   1.532 -0.0053 -1.0089  1.3191
  191SOL    HW2  573   1.040   0.813   1.577  0.9061 -0.5879  0.4808
  192SOL     OW  574   1.850   2.235   1.126 -0.0654 -0.7663 -0.1338
  192SOL    HW1  575   1.781   2.194   1.058  1.9405  1.2320 -0.4351
  192SOL    HW2  576   1.919   2.300   1.077  1.3428  1.7656  1.1389
  193SOL     OW  577   0.514   0.612   0.396  0.2075 -0.2591  0.3529
  193SOL    HW1  578   0.497   0.552   0.477  0.2446  0.3691 -2.3743
  193SOL    HW2  579   0.577   0.567   0.326 -0.8667  0.1199 -2.5301
  194SOL     OW  580   0.291   0.825   1.258  0.4314 -0.0917  0.1418
  194SOL    HW1  581   0.225   0.744   1.252  0.2419 -2.2145 -0.9730
  194SOL    HW2  582   0.270   0.900   1.190  0.3682 -0.8459  1.4898
  195SOL     OW  583   0.999   2.913   0.468 -0.1896 -0.1073  0.9308
  195SOL    HW1  584   0.990   2.815   0.448  1.1518 -2.5096  0.2377
  195SOL    HW2  585   1.095   2.955   0.460  3.7118  0.1896  1.5351
  196SOL     OW  586   0.263   1.398   1.392 -0.3382 -0.4942 -0.4362
  196SOL    HW1  587   0.306   1.487   1.428 -2.5266  0.3485  0.5251
  196SOL    HW2  588   0.250   1.327   1.470  0.8815 -0.5156 -1.1137
  197SOL     OW  589   0.866   2.038   0.211 -1.3376 -0.3910 -0.3507
  197SOL    HW1  590   0.862   2.004   0.312 -0.3402  1.0525  1.7432
  197SOL    HW2  591   0.926   1.970   0.158  0.9447  0.7214  0.3236
  198SOL     OW  592   0.278   1.237   0.269  0.0088 -0.1435 -0.4332
  198SOL    HW1  593   0.187   1.227   0.224  1.4347  1.5394 -2.1107
  198SOL    HW2  594   0.325   1.335   0.255  1.0501  2.1806 -0.8438
  199SOL     OW  595   2.212   0.363   2.533 -0.4987 -0.8225  0.1808
  199SOL    HW1  596   2.155   0.307   2.597  2.5281  0.6970 -1.0732
  199SOL    HW2  597   2.308   0.383   2.569  2.7485  3.2669  0.0658
  200SOL     OW  598   0.032   2.965   0.670  0.5689  0.3741  0.4261
  200SOL    HW1  599  -0.066   2.955   0.635  1.3984 -1.6006  1.1565
  200SOL    HW2  600   0.050   3.029   0.751  0.2142 -1.2816  0.2670
  201SOL     OW  601   1.095   0.730   0.648  0.2117  0.2166 -0.0289
  201SOL    HW1  602   1.088   0.814   0.705 -0.6142 -0.0067  0.8780
  201SOL    HW2  603   1.003   0.688   0.634 -0.3466  2.9235 -0.0294
  202SOL     OW  604   0.490   1.229   1.829 -0.7552 -0.2404  0.3599
  202SOL    HW1  605   0.511   1.220   1.731  0.8623 -1.0847  1.6165
  202SOL    HW2  606   0.548   1.159   1.884  2.4473 -1.3253 -0.6821
  203SOL     OW  607   0.733   0.186   1.574 -0.1316 -0.0264  0.0241
  203SOL    HW1  608   0.728   0.133   1.484  0.2383 -2.3909  0.0753
  203SOL    HW2  609   0.771   0.123   1.650 -0.3179 -0.8688 -2.4498
  204SOL     OW  610   2.092   1.865   2.998 -0.8855 -0.0184 -0.4061
  204SOL    HW1  611   2.086   1.757   3.001 -0.6875 -1.6219 -1.0545
  204SOL    HW2  612   2.047   1.917   2.913  2.4949  0.5535 -1.6771
  205SOL     OW  613   1.824   1.893   0.033 -0.4006  0.2909 -0.4354
  205SOL    HW1  614   1.912   1.862  -0.008 -0.1753 -0.0282  0.6424
  205SOL    HW2  615   1.788   1.987  -0.004  0.3320  1.4612  1.1617
  206SOL     OW  616   2.516   2.779   0.318  0.1504  0.0440 -0.4005
  206SOL    HW1  617   2.577   2.697   0.331 -2.1446  2.1106 -0.6115
  206SOL    HW2  618   2.544   2.833   0.237 -0.8997  2.0662  2.3769
  207SOL     OW  619   0.548   1.782   2.916 -0.3299 -0.2079  0.3172
  207SOL    HW1  620   0.650   1.767   2.901 -1.1251 -0.7876  0.9691
  207SOL    HW2  621   0.500   1.708   2.969  0.3439  1.1329 -1.8135
  208SOL     OW  622   1.120   1.544   1.402  0.8314  0.0784 -0.1250
  208SOL    HW1  623   1.114   1.625   1.337  1.2236 -0.7049  0.5526
  208SOL    HW2  624   1.167   1.570   1.492 -1.0385 -0.0831 -2.8250
  209SOL     OW  625   0.273   0.949   2.995 -0.2515  0.1419  0.0504
  209SOL    HW1  626   0.333   0.894   2.930  1.2597  0.0998 -0.2051
  209SOL    HW2  627   0.240   0.900   3.080  0.4985  0.0118 -0.2877
  210SOL     OW  628   1.754   0.469   1.205  0.7327 -0.3494  0.1101
  210SOL    HW1  629   1.684   0.523   1.154 -0.2918 -1.1078 -0.5258
  210SOL    HW2  630   1.856   0.486   1.175  0.3301 -0.8324  0.0339
  211SOL     OW  631   2.094   1.058   1.619  0.4622 -0.2023  0.2550
  211SOL    HW1  632   2.161   1.007   1.674 -0.8954 -3.7600 -2.7457
  211SOL    HW2  633   2.139   1.130   1.554  0.1149  1.5654  1.1409
  212SOL     OW  634   0.043   0.998   1.462  0.2879  0.0936  0.1920
  212SOL    HW1  635   0.084   1.080   1.507  2.6447 -0.8852 -0.8320
  212SOL    HW2  636   0.061   0.916   1.521 -0.4382  3.0677  0.6675
  213SOL     OW  637   2.762   0.387   0.258  0.0466  0.2025  0.3770
  213SOL    HW1  638   2.833   0.324   0.233  0.3912 -0.1309  1.8169
  213SOL    HW2  639   2.707   0.439   0.187 -2.9247  0.5188 -0.6394
  214SOL     OW  640   2.150   0.245   2.278 -0.4461  0.1426  0.2979
  214SOL    HW1  641   2.152   0.288   2.373  1.1525  0.3091  0.7217
  214SOL    HW2  642   2.124   0.144   2.287 -1.7082  0.5775 -0.9857
  215SOL     OW  643   1.640   2.300   2.027  0.3463  1.3611  0.4911
  215SOL    HW1  644   1.743   2.321   2.035 -1.0482 -0.1349 -0.3240
  215SOL    HW2  645   1.586   2.357   2.091 -0.3716 -1.8030  0.8772
  216SOL     OW  646   2.221   0.554   0.715  0.0815  0.1964  0.2662
  216SOL    HW1  647   2.228   0.453   0.682 -0.2967  1.1138  1.8058
  216SOL    HW2  648   2.169   0.615   0.653  1.1090  1.8863 -0.6935
  217SOL     OW  649   0.725   2.767   2.487 -0.1278 -0.1666 -0.0171
  217SOL    HW1  650   0.712   2.693   2.557  0.8406 -2.3037 -0.4642
  217SOL    HW2  651   0.762   2.724   2.402 -0.5358 -1.5307 -0.0776
  218SOL     OW  652   1.917   1.431   0.061  0.5644  0.5441  0.1256
  218SOL    HW1  653   1.826   1.461   0.013 -2.8306 -1.7219 -0.0862
  218SOL    HW2  654   1.895   1.345   0.121  0.5115  0.9868  1.4626
  219SOL     OW  655   2.338   1.287   2.584 -0.4176 -0.5871  0.6254
  219SOL    HW1  656   2.361   1.233   2.504 -0.1933 -1.4818  1.5068
  219SOL    HW2  657   2.345   1.227   2.671 -1.0155  1.3297 -0.1041
  220SOL     OW  658   1.549   0.990   1.232  0.2620 -0.3046  0.1656
  220SOL    HW1  659   1.634   1.037   1.271 -2.8561  2.3076  1.0524
  220SOL    HW2  660   1.496   1.045   1.159  0.6675  3.3326  1.4835
  221SOL     OW  661   1.356   1.065   2.199 -0.5033 -0.3551  0.0370
  221SOL    HW1  662   1.317   1.107   2.109 -0.2706  0.0474 -2.7053
  221SOL    HW2  663   1.458   1.047   2.193 -0.0690 -0.6994 -1.3075
  222SOL     OW  664   1.230   0.025   1.188 -0.2968  0.2695 -0.7695
  222SOL    HW1  665   1.272  -0.007   1.276  0.1313 -0.4462 -0.9340
  222SOL    HW2  666   1.232   0.129   1.177 -0.4781 -0.0919 -1.3718
  223SOL     OW  667   2.830   0.862   2.053 -0.4887 -0.2570  0.3956
  223SOL    HW1  668   2.871   0.868   2.146 -0.4284  2.4793 -0.1995
  223SOL    HW2  669   2.875   0.920   1.983 -1.3256  0.8949  0.7021
  224SOL     OW  670   1.497   0.964   2.738  0.2973  0.4330  0.0044
  224SOL    HW1  671   1.552   0.914   2.660 -0.4654  4.1025 -0.8296
  224SOL    HW2  672   1.482   1.066   2.715  0.6417 -0.0295 -1.6323
  225SOL     OW  673   2.962   2.780   2.892  0.0838  0.1190 -0.4560
  225SOL    HW1  674   2.945   2.705   2.823  2.4747  0.8912  0.3376
  225SOL    HW2  675   3.022   2.858   2.858 -1.8195 -2.3586 -0.1384
  226SOL     OW  676   2.415   1.581   2.833  0.0327 -0.2920 -0.3540
  226SOL    HW1  677   2.480   1.562   2.754 -0.9550 -0.5479 -0.4987
  226SOL    HW2  678   2.351   1.506   2.848  0.9316 -0.8416  0.2532
  227SOL     OW  679   0.872   0.144   3.046 -0.9776  0.0243  0.1670
  227SOL    HW1  680   0.872   0.040   3.069  1.0089  1.9730 -1.5899
  227SOL    HW2  681   0.859   0.157   2.941 -2.0437 -0.1947  1.4072
  228SOL     OW  682   2.385   0.626   2.841  0.2858 -0.0603  0.0142
  228SOL    HW1  683   2.339   0.675   2.757  2.1110 -0.6596 -0.6340
  228SOL    HW2  684   2.479   0.590   2.825 -1.1560 -0.0101  0.6605
  229SOL     OW  685   0.579   0.524   1.897  0.4140 -0.5036 -0.3689
  229SOL    HW1  686   0.553   0.487   1.800  0.8993  0.2036  0.2059
  229SOL    HW2  687   0.678   0.559   1.912 -1.1921  2.1190  6.7050
  230SOL     OW  688   1.921   1.193   2.165 -0.3050  0.2812  0.0171
  230SOL    HW1  689   1.974   1.233   2.082  0.7140 -1.5323 -0.2169
  230SOL    HW2  690   1.822   1.223   2.157  2.8769 -3.3414  1.2419
  231SOL     OW  691   0.657   0.990   2.969  0.4815 -0.0479 -0.9635
  231SOL    HW1  692   0.733   1.060   2.952  1.1030  1.0060  1.4085
  231SOL    HW2  693   0.610   1.009   3.063  0.0341  1.8504 -0.0080
  232SOL     OW  694   2.441   0.028   2.747 -0.2316 -0.1545  0.4257
  232SOL    HW1  695   2.509  -0.018   2.805  0.6427  1.5872 -1.0527
  232SOL    HW2  696   2.488   0.070   2.663  0.8577  3.1949  2.1271
  233SOL     OW  697   1.701   1.302   1.114  0.0667 -0.2503  0.7000
  233SOL    HW1  698   1.726   1.354   1.026  2.5418  0.4545  0.8803
  233SOL    HW2  699   1.722   1.205   1.114 -1.9069  2.8757  0.7035
  234SOL     OW  700   1.610   2.576   1.838 -0.3576  0.4152  0.3420
  234SOL    HW1  701   1.610   2.621   1.934  0.9297  0.4750  1.3497
  234SOL    HW2  702   1.531   2.512   1.815 -0.5098 -2.5764  0.4584
  235SOL     OW  703   0.021   3.019   2.902 -0.1040 -0.4543 -0.5000
  235SOL    HW1  704   0.091   3.093   2.878  1.9945 -1.0002  1.8948
  235SOL    HW2  705  -0.048   3.045   2.974  0.9890  1.5093  1.0805
  236SOL     OW  706   2.883   0.699   0.141 -0.2916  0.6411  0.2440
  236SOL    HW1  707   2.947   0.783   0.164  1.7062 -0.8783 -2.1612
  236SOL    HW2  708   2.929   0.624   0.079 -2.0340  1.1019 -1.1571
  237SOL     OW  709   1.442   1.666   1.045 -0.3462  0.7446  0.2491
  237SOL    HW1  710   1.536   1.653   1.014  0.3550 -0.1241  1.1374
  237SOL    HW2  711   1.430   1.694   1.147  1.2240  3.0972 -0.8078
  238SOL     OW  712   1.778   1.282   0.823  0.4423 -0.4275  0.1981
  238SOL    HW1  713   1.870   1.304   0.791 -0.8072  1.5497 -0.8577
  238SOL    HW2  714   1.716   1.359   0.792  0.0787 -0.1271 -2.2566
  239SOL     OW  715   2.044   0.258   2.722 -0.3867 -0.3175  0.0761
  239SOL    HW1  716   2.113   0.229   2.793 -1.4945  0.7146 -0.3133
  239SOL    HW2  717   1.964   0.307   2.760  0.0173 -1.0357 -0.2427
  240SOL     OW  718   0.981   0.662   0.288  0.3322 -0.5123  1.1276
  240SOL    HW1  719   0.980   0.561   0.250 -0.0223 -2.7330 -2.3367
  240SOL    HW2  720   0.950   0.668   0.387  1.1117  2.4545 -0.4025
  241SOL     OW  721   0.585   0.105   0.321  0.1602  0.3662 -0.0678
  241SOL    HW1  722   0.616   0.169   0.253  0.9699 -2.6899  1.2102
  241SOL    HW2  723   0.555   0.009   0.288  1.8838 -1.4339 -0.6324
  242SOL     OW  724   0.676   2.481   1.128  0.7034 -0.2407 -0.5192
  242SOL    HW1  725   0.653   2.526   1.219 -1.7989 -0.9556  1.5691
  242SOL    HW2  726   0.773   2.506   1.087 -0.0394  0.4942 -0.5669
  243SOL     OW  727   1.109   0.622   2.437 -0.0441 -0.0889  0.2040
  243SOL    HW1  728   1.037   0.687   2.404  0.8521 -1.0537  1.7005
  243SOL    HW2  729   1.061   0.533   2.475 -1.0304  2.1769 -2.0580
  244SOL     OW  730   2.793   1.849   2.375 -0.8448 -0.1665 -0.8324
  244SOL    HW1  731   2.834   1.832   2.279  0.1725 -0.0897 -0.3230
  244SOL    HW2  732   2.718   1.783   2.396 -0.4997 -1.0253  0.5165
  245SOL     OW  733   2.499   0.681   2.179 -0.4736 -0.1963 -0.1266
  245SOL    HW1  734   2.515   0.765   2.243  1.7979  1.1707  0.7991
  245SOL    HW2  735   2.555   0.598   2.200 -3.2099  2.1906  2.2563
  246SOL     OW  736   0.251   2.939   1.692 -0.8402 -0.2400 -0.3397
  246SOL    HW1  737   0.223   2.913   1.596 -0.5489  0.1157 -0.0921
  246SOL    HW2  738   0.318   3.021   1.692  1.6374 -0.5031 -0.0521
  247SOL     OW  739   2.191   0.552   3.050 -0.9325 -0.2596  0.4317
  247SOL    HW1  740   2.260   0.544   2.974  0.6833 -0.6480 -1.4615
  247SOL    HW2  741   2.162   0.654   3.066 -1.6198  1.3794 -3.9803
  248SOL     OW  742   2.133   1.805   1.584  0.0588 -0.4966 -0.2862
  248SOL    HW1  743   2.192   1.753   1.653 -0.3093 -0.4452 -0.3007
  248SOL    HW2  744   2.031   1.803   1.609 -3.1211  0.9872 -3.5765
  249SOL     OW  745   1.952   1.940   1.931 -0.1523 -0.9598 -0.3378
  249SOL    HW1  746   1.948   1.893   1.838  0.0498  0.3695 -3.1114
  249SOL    HW2  747   2.048   1.981   1.953  1.2895 -0.1043 -0.3501
  250SOL     OW  748   1.116   0.740   1.867  0.4472 -0.0649  0.2608
  250SOL    HW1  749   1.139   0.662   1.930  0.6318  1.7362  1.2564
  250SOL    HW2  750   1.151   0.718   1.775  0.5207  1.5391  1.1672
  251SOL     OW  751   3.038   1.561   2.544  0.3458  0.0913  0.2209
  251SOL    HW1  752   3.029   1.668   2.535 -2.2801 -0.3661 -3.1037
  251SOL    HW2  753   2.941   1.522   2.556 -0.2193  0.5700 -0.5429
  252SOL     OW  754   1.541   0.888   1.509  0.3233 -0.0486  0.6884
  252SOL    HW1  755   1.551   0.905   1.406  2.1207  2.1834 -1.4101
  252SOL    HW2  756   1.518   0.977   1.565 -0.0594 -0.3052 -0.2578
  253SOL     OW  757   0.896   1.547   0.392 -0.3252 -0.0753  0.1163
  253SOL    HW1  758   0.960   1.459   0.383 -2.5047 -0.8930 -1.3051
  253SOL    HW2  759   0.805   1.524   0.354 -1.3209 -3.2045 -0.3768
  254SOL     OW  760   2.075   2.139   1.573 -0.1985 -0.8493 -0.6625
  254SOL    HW1  761   2.016   2.092   1.502 -0.8932 -0.1895  0.6622
  254SOL    HW2  762   2.027   2.156   1.666 -1.8291 -1.3813 -0.8530
  255SOL     OW  763   0.097   1.167   2.929 -0.5328  0.1115  0.1147
  255SOL    HW1  764   0.147   1.256   2.918  1.4249  1.2485 -2.5846
  255SOL    HW2  765   0.163   1.088   2.940 -1.1614  0.9261 -0.2942
  256SOL     OW  766   2.807   1.355   1.825  0.1485 -0.0941 -0.1522
  256SOL    HW1  767   2.768   1.430   1.887 -0.8775 -0.7847  0.0035
  256SOL    HW2  768   2.750   1.268   1.826  1.8474  0.0466 -0.8851
  257SOL     OW  769   0.888   0.129   1.813 -0.2887 -0.1749 -0.3097
  257SOL    HW1  770   0.958   0.197   1.780 -2.9978 -2.4052  1.2695
  257SOL    HW2  771   0.924   0.031   1.800 -0.6357  0.3940 -3.2458
  258SOL     OW  772   2.951   1.284   0.416 -0.4393  0.5817 -0.3220
  258SOL    HW1  773   2.913   1.379   0.412  1.9573 -1.8534 -2.9104
  258SOL    HW2  774   2.982   1.261   0.511 -2.7346 -1.6575  1.2145
  259SOL     OW  775   0.482   2.933   3.008  0.3059 -0.1756  0.1746
  259SOL    HW1  776   0.403   2.890   3.066  2.3422 -0.3861  0.9289
  259SOL    HW2  777   0.525   2.857   2.952  2.3078 -1.0180 -1.9426
  260SOL     OW  778   2.721   0.837   2.715  0.4469 -0.4796 -0.3729
  260SOL    HW1  779   2.623   0.836   2.677  0.9977 -1.9459 -3.4042
  260SOL    HW2  780   2.730   0.825   2.819  1.2672  0.0143  1.1890
  261SOL     OW  781   2.727   1.377   1.342  0.0740  0.0956  0.7471
  261SOL    HW1  782   2.666   1.320   1.280  0.9766  1.5388  0.4155
  261SOL    HW2  783   2.804   1.330   1.386  0.0304 -0.3633 -1.0900
  262SOL     OW  784   1.445   2.948   1.994  0.3848  0.3121 -0.1812
  262SOL    HW1  785   1.456   3.025   1.927 -2.7000  0.0586  0.4703
  262SOL    HW2  786   1.344   2.912   1.998  1.2077 -3.6524  1.1282
  263SOL     OW  787   0.878   0.732   2.363  0.5512 -0.0268  0.2703
  263SOL    HW1  788   0.835   0.642   2.322 -2.1670 -0.2078  0.8272
  263SOL    HW2  789   0.911   0.803   2.291  0.3323 -1.4695 -0.4379
  264SOL     OW  790   2.229   0.757   0.366 -0.1066  0.7781 -0.8757
  264SOL    HW1  791   2.133   0.738   0.398 -0.4370 -0.1665  0.1366
  264SOL    HW2  792   2.295   0.823   0.410  1.0361  1.4634  0.9439
  265SOL     OW  793   0.911   2.281   2.626  0.2731 -0.0864 -0.5333
  265SOL    HW1  794   0.971   2.324   2.696  1.2779 -0.3859  0.9095
  265SOL    HW2  795   0.882   2.182   2.651 -0.7599 -0.5407  0.0339
  266SOL     OW  796   1.329   1.756   0.013  0.0227  0.1610 -0.4466
  266SOL    HW1  797   1.319   1.841   0.078  1.7977  1.8993 -0.6020
  266SOL    HW2  798   1.427   1.732  -0.013  1.0992 -1.0819 -2.0257
  267SOL     OW  799   1.020   3.066   2.375 -0.4595  0.3233 -0.0095
  267SOL    HW1  800   1.055   3.028   2.283 -0.8461  0.7262 -1.3977
  267SOL    HW2  801   1.007   3.168   2.372  0.7765 -0.7408  0.4240
  268SOL     OW  802   0.645   1.136   1.070 -0.3642  0.1520 -0.3251
  268SOL    HW1  803   0.657   1.192   1.156 -1.8494 -0.9814  0.7470
  268SOL    HW2  804   0.659   1.197   0.987  0.6258 -1.9219  2.6072
  269SOL     OW  805   2.450   2.456   1.553  0.6015 -0.2381 -0.1274
  269SOL    HW1  806   2.544   2.409   1.563  2.7870  1.0916 -0.0751
  269SOL    HW2  807   2.414   2.483   1.649 -0.9418  1.5901 -0.4198
  270SOL     OW  808   0.134   3.069   1.892 -0.1898  0.6686 -0.3173
  270SOL    HW1  809   0.167   3.018   1.806  0.7594 -0.0192 -0.1224
  270SOL    HW2  810   0.066   3.014   1.945  0.4459 -0.1150 -1.1731
  271SOL     OW  811   0.459   1.439   1.143 -0.5961 -0.2351 -0.0773
  271SOL    HW1  812   0.422   1.417   1.048 -0.4490 -0.7237 -0.4695
  271SOL    HW2  813   0.381   1.439   1.211 -1.3361  1.0647  3.3032
  272SOL     OW  814   1.971   2.876   1.928 -0.3573 -0.7467  0.0627
  272SOL    HW1  815   1.916   2.811   1.870 -1.2950 -2.0299 -3.9072
  272SOL    HW2  816   2.022   2.954   1.879  0.8205 -1.6287  0.6941
  273SOL     OW  817   1.378   1.440   2.845  0.0294  0.3976  0.1776
  273SOL    HW1  818   1.312   1.491   2.787 -0.7626 -0.5294  2.7267
  273SOL    HW2  819   1.366   1.467   2.940  0.4522 -0.4814 -2.2997
  274SOL     OW  820   1.173   0.531   2.038  0.2687  0.0009 -0.6203
  274SOL    HW1  821   1.199   0.436   1.992 -1.9417 -0.4766  1.5418
  274SOL    HW2  822   1.230   0.539   2.125  2.3784  0.6222  0.7028
  275SOL     OW  823   0.615   2.079   1.918  0.4896  0.3939 -0.4864
  275SOL    HW1  824   0.572   2.172   1.930 -0.4123 -0.2342  0.5453
  275SOL    HW2  825   0.542   2.011   1.891 -2.7900 -2.8134  0.0570
  276SOL     OW  826   2.179   0.905   2.805 -0.3943  0.4739  1.0231
  276SOL    HW1  827   2.118   0.895   2.726 -0.2326 -1.9115  0.2085
  276SOL    HW2  828   2.140   0.870   2.898  0.1990 -1.4024  0.2251
  277SOL     OW  829   3.061   0.880   0.228  0.0592  0.0769  0.0925
  277SOL    HW1  830   3.156   0.914   0.216 -0.3188 -0.6059  2.4920
  277SOL    HW2  831   3.063   0.810   0.303 -0.5699 -0.2390  1.2320
  278SOL     OW  832   0.235   0.285   3.022 -0.1013 -0.0299  0.6178
  278SOL    HW1  833   0.310   0.210   3.042  2.1676 -2.9147  0.9543
  278SOL    HW2  834   0.270   0.388   3.026 -0.0354  1.1034  0.5829
  279SOL     OW  835   0.114   0.065   0.887 -0.2551  0.0217 -0.4711
  279SOL    HW1  836   0.137   0.035   0.985 -2.7951 -0.0618 -0.3750
  279SOL    HW2  837   0.205   0.094   0.841  1.8733 -1.0213  1.1387
  280SOL     OW  838   1.629   2.883   2.569 -0.3662 -0.1417  0.0457
  280SOL    HW1  839   1.707   2.956   2.582  2.1997 -1.9743 -0.5516
  280SOL    HW2  840   1.537   2.924   2.539  0.2671  0.6536  0.4630
  281SOL     OW  841   0.565   0.970   2.292 -0.1684  0.0157 -0.0336
  281SOL    HW1  842   0.579   0.876   2.254  0.3382  1.0306  1.5269
  281SOL    HW2  843   0.511   0.972   2.377  0.5431  0.3621 -2.0804
  282SOL     OW  844   1.705   2.384   0.510  0.6446  0.0444 -0.0850
  282SOL    HW1  845   1.652   2.315   0.451  0.1337 -2.2390 -0.2160
  282SOL    HW2  846   1.697   2.486   0.488  3.7512  3.6142  2.0334
  283SOL     OW  847   1.162   0.942   0.827 -0.6611 -0.1650 -0.1965
  283SOL    HW1  848   1.179   0.866   0.899  1.6802 -1.0771  0.2046
  283SOL    HW2  849   1.093   1.017   0.861 -0.5946 -0.1961  0.4724
  284SOL     OW  850   2.354   2.783   2.306 -0.3911 -0.3952  0.2834
  284SOL    HW1  851   2.420   2.843   2.254  1.0203 -0.5706 -3.7748
  284SOL    HW2  852   2.334   2.825   2.401 -0.7977  1.1935 -1.7935
  285SOL     OW  853   1.395   3.011   2.518 -0.0730  1.0654  0.0906
  285SOL    HW1  854   1.385   3.008   2.412 -1.3487  2.2540 -3.0685
  285SOL    HW2  855   1.310   3.051   2.559  0.5135 -0.1686 -2.5901
  286SOL     OW  856   0.442   0.422   0.728  0.0140  0.0937  0.1218
  286SOL    HW1  857   0.404   0.362   0.802  0.3719 -0.0877  0.9598
  286SOL    HW2  858   0.448   0.364   0.643  1.2787 -1.1772  0.6747
  287SOL     OW  859   0.149   1.300   2.544  0.1490  0.4216 -0.0660
  287SOL    HW1  860   0.104   1.230   2.604  0.2376  0.7554  2.6922
  287SOL    HW2  861   0.092   1.388   2.529 -0.8247 -0.8408 -1.8543
  288SOL     OW  862   1.537   2.646   1.570  0.0400 -0.2325  0.5473
  288SOL    HW1  863   1.618   2.606   1.624 -0.4144  0.4788  0.6352
  288SOL    HW2  864   1.557   2.667   1.468  2.3725 -0.8725 -4.5411
  289SOL     OW  865   0.671   2.692   0.810 -0.6080  0.2352 -0.3488
  289SOL    HW1  866   0.702   2.773   0.753 -0.5419 -0.8978  1.6069
  289SOL    HW2  867   0.649   2.726   0.905  1.3229 -0.0687  3.0695
  290SOL     OW  868   2.838   1.083   1.649 -0.1801  0.1843  0.8191
  290SOL    HW1  869   2.768   1.004   1.654  0.1896 -3.1560  0.2863
  290SOL    HW2  870   2.900   1.091   1.732 -0.5241 -1.0516  1.7368
  291SOL     OW  871   1.946   0.060   0.057 -0.4944  0.3136 -0.2494
  291SOL    HW1  872   1.993   0.049   0.152  1.5557  0.2243  0.8197
  291SOL    HW2  873   2.001   0.132   0.006  1.4511 -0.5516  1.2554
  292SOL     OW  874   2.965   1.191   3.061  0.0624  0.8755  0.3301
  292SOL    HW1  875   2.913   1.268   3.016 -1.9095 -0.7629  1.6491
  292SOL    HW2  876   3.050   1.172   3.010 -1.4791  2.3407  2.8560
  293SOL     OW  877   0.577   2.114   0.156  0.1214 -0.8362 -0.0125
  293SOL    HW1  878   0.541   2.156   0.250  0.4761 -0.5664  2.8182
  293SOL    HW2  879   0.679   2.109   0.155 -0.1318  1.5815  0.2858
  294SOL     OW  880   1.704   2.229   1.764  0.3976 -0.1263  0.0393
  294SOL    HW1  881   1.681   2.290   1.845  1.2896 -1.9203  0.3696
  294SOL    HW2  882   1.708   2.291   1.677  0.5212  0.5332  0.0756
  295SOL     OW  883   1.031   1.010   0.481  0.3838 -0.1752  0.7567
  295SOL    HW1  884   1.116   1.003   0.542  0.1527 -0.2721 -0.2047
  295SOL    HW2  885   0.946   1.029   0.537 -2.9906  2.9109  0.7999
  296SOL     OW  886   1.283   2.074   2.507  0.0496  0.2641 -0.5196
  296SOL    HW1  887   1.288   2.103   2.413 -0.2550  1.4249  0.5858
  296SOL    HW2  888   1.303   1.972   2.519 -1.2514 -0.9356 -1.7059
  297SOL     OW  889   1.467   0.598   1.396 -0.4482 -0.3582  0.2637
  297SOL    HW1  890   1.434   0.500   1.408  1.3454 -1.3808  1.4980
  297SOL    HW2  891   1.570   0.605   1.415  1.6330 -1.0911 -0.6732
  298SOL     OW  892   0.501   1.294   2.934  0.2143  1.1279  0.7038
  298SOL    HW1  893   0.527   1.215   2.999  0.2633  0.3590 -1.5096
  298SOL    HW2  894   0.557   1.281   2.850  0.8486  0.3173  0.9379
  299SOL     OW  895   0.476   0.269   1.400  0.1624  0.6890 -0.9464
  299SOL    HW1  896   0.472   0.355   1.343  4.0175 -1.3997  1.6246
  299SOL    HW2  897   0.555   0.260   1.461 -2.4129  0.4725 -1.5922
  300SOL     OW  898   1.191   1.809   2.884  0.1243 -0.1980 -0.5532
  300SOL    HW1  899   1.181   1.720   2.831 -3.6950 -1.1106 -2.5210
  300SOL    HW2  900   1.238   1.793   2.980  0.7388 -1.4272  2.3224
  301SOL     OW  901   0.470   0.271   0.503  0.3288 -0.0368  0.2052
  301SOL    HW1  902   0.371   0.269   0.479  0.3866  2.0757  1.1222
  301SOL    HW2  903   0.525   0.228   0.427  3.0358 -0.7195  2.6362
  302SOL     OW  904   1.208   2.371   2.252 -0.1802 -0.1261  0.2173
  302SOL    HW1  905   1.124   2.412   2.308 -3.7358  2.4560  0.3312
  302SOL    HW2  906   1.223   2.272   2.263 -2.4948  2.0883 -0.6805
  303SOL     OW  907   0.959   2.325   0.799  0.5126  0.1209 -0.0501
  303SOL    HW1  908   1.015   2.370   0.723 -0.6271 -0.3133  1.5649
  303SOL    HW2  909   0.939   2.389   0.881  1.4558 -0.0429  0.1957
  304SOL     OW  910   0.164   2.053   0.635  0.3309 -0.3047  0.2816
  304SOL    HW1  911   0.176   2.007   0.545 -2.8374 -0.1426 -0.1013
  304SOL    HW2  912   0.095   2.132   0.633 -4.6547 -1.2061  0.4303
  305SOL     OW  913   1.580   0.903   0.593  0.3492  0.1914  0.0827
  305SOL    HW1  914   1.514   0.883   0.509 -1.7226  0.1100 -0.0799
  305SOL    HW2  915   1.650   0.829   0.617  0.6405 -0.2621  0.2618
  306SOL     OW  916   0.459   1.843   1.881  0.3526 -0.7846  0.4728
  306SOL    HW1  917   0.544   1.780   1.872 -0.5357 -0.8619  0.7271
  306SOL    HW2  918   0.418   1.835   1.981 -2.3927  0.3615  1.3234
  307SOL     OW  919   3.099   0.856   2.581 -0.7876  0.0247 -0.6399
  307SOL    HW1  920   3.119   0.954   2.610 -0.0987 -1.0641 -2.0166
  307SOL    HW2  921   3.042   0.795   2.647 -2.2244  3.9894  3.0231
  308SOL     OW  922   1.529   2.701   2.845 -0.2538  0.6714  0.2845
  308SOL    HW1  923   1.516   2.621   2.784 -1.7074 -0.0618 -2.8996
  308SOL    HW2  924   1.512   2.676   2.944  0.5304 -1.2095 -1.7904
  309SOL     OW  925   1.213   0.066   1.784 -0.1207  0.0891  0.1823
  309SOL    HW1  926   1.311   0.069   1.806 -0.5674  0.7737 -0.4243
  309SOL    HW2  927   1.191   0.070   1.683  1.5219 -1.0924 -0.1552
  310SOL     OW  928   1.515   2.543   0.681 -0.2422 -0.2453 -0.1448
  310SOL    HW1  929   1.515   2.610   0.759 -1.6675  0.9688  1.9228
  310SOL    HW2  930   1.572   2.574   0.601  1.1189  2.2149  0.1188
  311SOL     OW  931   1.199   0.896   1.597  0.2795  0.4549  0.2612
  311SOL    HW1  932   1.280   0.837   1.622  1.8005  0.0629  0.2540
  311SOL    HW2  933   1.225   0.982   1.538  0.7806 -1.0428 -2.8961
  312SOL     OW  934   1.653   0.674   1.006 -0.6145 -0.3538 -0.3346
  312SOL    HW1  935   1.608   0.766   0.991  0.3028  1.0906 -5.4607
  312SOL    HW2  936   1.596   0.597   0.972 -0.6246 -1.1513  0.7631
  313SOL     OW  937   1.550   1.415   0.673  0.6595 -0.0544  0.3747
  313SOL    HW1  938   1.489   1.432   0.755  0.7102 -1.6099  0.0887
  313SOL    HW2  939   1.520   1.328   0.615 -0.1275  0.1453 -1.4464
  314SOL     OW  940   2.997   0.026   0.051 -0.0555  0.6006 -0.3847
  314SOL    HW1  941   2.978   0.096   0.121  2.2474  1.4940 -2.1261
  314SOL    HW2  942   2.940  -0.058   0.070 -0.1394  2.2252  0.2468
  315SOL     OW  943   1.214   0.206   2.812 -0.1806 -0.1869  0.2565
  315SOL    HW1  944   1.219   0.130   2.744  0.4441 -0.7653 -1.6625
  315SOL    HW2  945   1.226   0.180   2.913  2.2367  1.9050 -0.3745
  316SOL     OW  946   1.689   2.101   0.925  0.5624 -0.3638  0.0473
  316SOL    HW1  947   1.625   2.076   1.005  0.9019  1.4779  0.6528
  316SOL    HW2  948   1.670   2.193   0.882  2.4711 -2.7501  0.6826
  317SOL     OW  949   1.107   0.714   2.858 -0.0242 -0.2448 -0.0777
  317SOL    HW1  950   1.028   0.754   2.912  0.8237 -1.8255 -0.3252
  317SOL    HW2  951   1.084   0.626   2.813 -1.8745  0.1440  2.6535
  318SOL     OW  952   1.350   3.021   2.258 -0.6689  0.3869  0.0047
  318SOL    HW1  953   1.325   3.125   2.252 -0.4397  0.7004  1.9059
  318SOL    HW2  954   1.413   2.995   2.171 -0.8961  2.1094 -0.4950
  319SOL     OW  955   0.639   2.431   2.925  0.0614  0.6624  0.4075
  319SOL    HW1  956   0.584   2.389   3.005  0.8491 -0.8733 -1.9010
  319SOL    HW2  957   0.735   2.395   2.923 -0.9428  0.3469 -2.4462
  320SOL     OW  958   1.641   2.166   0.307  0.4889  0.2335 -0.0892
  320SOL    HW1  959   1.736   2.121   0.338  2.6556 -3.3016 -0.4200
  320SOL    HW2  960   1.565   2.139   0.372  1.2285 -1.7271 -1.5919
  321SOL     OW  961   1.675   2.661   0.482  0.1257 -0.0781 -0.1135
  321SOL    HW1  962   1.602   2.716   0.434 -0.0334  1.7862  2.3282
  321SOL    HW2  963   1.762   2.713   0.499 -0.9149  1.0920 -0.6171
  322SOL     OW  964   2.547   1.135   2.300 -0.6556  0.0692 -0.1685
  322SOL    HW1  965   2.624   1.161   2.365  0.5863 -0.4555  1.0119
  322SOL    HW2  966   2.528   1.033   2.307 -2.2218 -0.7693  1.6082
  323SOL     OW  967   1.028   2.647   0.821  0.7038 -0.0640  0.1297
  323SOL    HW1  968   1.049   2.628   0.722 -0.5002  1.5930  1.9053
  323SOL    HW2  969   1.019   2.748   0.845  3.8089  0.7448  2.3132
  324SOL     OW  970   0.242   2.507   2.512 -0.0558  0.7150  0.1127
  324SOL    HW1  971   0.178   2.441   2.558  0.9602  0.7529  0.6095
  324SOL    HW2  972   0.208   2.604   2.499  0.3446 -0.2653  0.1244
  325SOL     OW  973   1.266   3.029   0.447 -0.2635  0.0712  0.2313
  325SOL    HW1  974   1.276   3.076   0.354  2.1138  0.9371 -0.2810
  325SOL    HW2  975   1.271   3.096   0.527 -0.4113 -1.2155  1.3664
  326SOL     OW  976   2.455   0.759   3.092 -0.6323  0.1358  0.3095
  326SOL    HW1  977   2.409   0.716   3.008  2.4448  1.1908 -1.9814
  326SOL    HW2  978   2.510   0.688   3.143  0.7132  1.1773  1.3561
  327SOL     OW  979   2.863   0.341   0.523 -0.3747 -0.4455  0.6154
  327SOL    HW1  980   2.836   0.332   0.422 -1.8801 -1.0011 -0.0289
  327SOL    HW2  981   2.793   0.295   0.584  1.2001  1.4578 -0.1295
  328SOL     OW  982   2.512   0.634   0.394 -0.1840 -0.6105 -0.1055
  328SOL    HW1  983   2.450   0.714   0.410  1.3901  1.9637  4.3046
  328SOL    HW2  984   2.514   0.579   0.479  0.6159  2.5127  1.5237
  329SOL     OW  985   2.984   2.994   2.155  0.1175  0.7159 -0.4260
  329SOL    HW1  986   3.015   2.913   2.211 -1.8495  1.7950  1.1985
  329SOL    HW2  987   3.037   3.082   2.176 -0.8556 -0.4823  0.1493
  330SOL     OW  988   0.564   0.166   1.867  0.4690 -0.8513 -0.2130
  330SOL    HW1  989   0.661   0.199   1.865 -1.5655  0.3489 -2.1148
  330SOL    HW2  990   0.550   0.105   1.951 -0.2853  1.9972 -0.5381
  331SOL     OW  991   2.965   1.938   1.114  0.1210  0.0969 -0.0415
  331SOL    HW1  992   3.025   2.010   1.071  1.7279 -0.3208  1.3263
  331SOL    HW2  993   2.895   1.970   1.184  2.8658  0.3270  1.3510
  332SOL     OW  994   0.432   1.133   0.071  0.2783  0.1976 -0.1928
  332SOL    HW1  995   0.381   1.073   0.003 -0.9444  0.0001  1.2090
  332SOL    HW2  996   0.386   1.143   0.163  0.6272  1.6807 -1.4735
  333SOL     OW  997   2.861   1.062   0.310 -0.0327  0.1734 -0.0262
  333SOL    HW1  998   2.898   1.143   0.370  0.7699 -0.6457 -0.9075
  333SOL    HW2  999   2.938   1.009   0.263  0.0935 -1.5991 -0.0529
  334SOL     OW 1000   1.691   1.193   1.860 -0.1929  0.5829 -0.8339
  334SOL    HW1 1001   1.780   1.147   1.836 -1.4133  1.1054  0.8203
  334SOL    HW2 1002   1.703   1.261   1.942  1.5997  1.0821 -0.6842
  335SOL     OW 1003   1.981   2.733   2.616 -0.2901 -0.0228  0.2417
  335SOL    HW1 1004   1.913   2.686   2.675 -2.2354 -0.5231  0.4931
  335SOL    HW2 1005   2.044   2.792   2.668 -0.9219  0.1708  1.5830
  336SOL     OW 1006   0.244   0.078   2.844 -0.0238 -0.0564  0.2442
  336SOL    HW1 1007   0.337   0.055   2.809  0.4513  1.0084 -0.2769
  336SOL    HW2 1008   0.241   0.173   2.890  0.2595  2.8265  2.1776
  337SOL     OW 1009   0.925   2.810   2.808 -0.3033  0.1239 -0.3084
  337SOL    HW1 1010   0.912   2.774   2.907 -0.4358 -1.9562  0.4768
  337SOL    HW2 1011   1.016   2.775   2.763  1.0312  0.0914 -0.9543
  338SOL     OW 1012   0.052   1.031   0.685 -0.5197  0.4299 -0.1335
  338SOL    HW1 1013  -0.036   0.983   0.681 -1.2658  3.1595  0.2669
  338SOL    HW2 1014   0.042   1.130   0.688 -0.3717  0.0119  0.4741
  339SOL     OW 1015   1.709   1.359   2.087 -0.2918  0.1607  0.5688
  339SOL    HW1 1016   1.613   1.368   2.120  1.2521 -0.1583 -2.2230
  339SOL    HW2 1017   1.752   1.453   2.089  1.0819  0.0185 -1.5391
  340SOL     OW 1018   2.358   0.721   1.216 -0.0219 -0.0541 -0.5125
  340SOL    HW1 1019   2.258   0.729   1.200  0.8221 -1.2370 -2.8619
  340SOL    HW2 1020   2.407   0.649   1.157 -0.3890 -1.4765 -0.8280
  341SOL     OW 1021   1.937   2.144   0.356 -0.0077 -1.0076 -0.3232
  341SOL    HW1 1022   1.955   2.187   0.264  1.2076 -0.7999  0.6475
  341SOL    HW2 1023   2.019   2.115   0.404 -0.6554 -0.0976 -1.1712
  342SOL     OW 1024   2.194   2.089   2.748  0.2960  0.0045 -0.1265
  342SOL    HW1 1025   2.264   2.018   2.774 -2.1711 -0.2553 -1.8561
  342SOL    HW2 1026   2.095   2.057   2.769 -1.9540  2.4759  0.0887
  343SOL     OW 1027   0.378   0.789   2.748 -0.0841 -0.0577  0.3161
  343SOL    HW1 1028   0.362   0.863   2.677 -0.7130  2.3870 -1.7884
  343SOL    HW2 1029   0.474   0.768   2.772 -0.7627  3.7165 -0.2907
  344SOL     OW 1030   1.950   1.394   0.456  0.2978 -0.1540  0.2967
  344SOL    HW1 1031   1.931   1.312   0.391  1.7585 -1.9770 -2.6462
  344SOL    HW2 1032   1.859   1.438   0.484 -1.3244 -0.9650  0.4878
  345SOL     OW 1033   1.363   2.263   2.893 -0.1053  0.1794 -0.0947
  345SOL    HW1 1034   1.288   2.205   2.854  1.4047  1.3917  0.8269
  345SOL    HW2 1035   1.450   2.242   2.844 -1.7325  0.5521 -0.4525
  346SOL     OW 1036   2.318   0.898   1.429  0.4250  0.1165 -0.2744
  346SOL    HW1 1037   2.283   0.993   1.400  1.3928 -0.9196 -0.1728
  346SOL    HW2 1038   2.326   0.840   1.345  0.6985  1.1775  1.1637
  347SOL     OW 1039   0.715   2.779   1.470 -0.3432 -0.3165 -0.1467
  347SOL    HW1 1040   0.693   2.728   1.558 -0.0062 -1.3214  1.6353
  347SOL    HW2 1041   0.647   2.856   1.461  1.5583  0.5204  0.1782
  348SOL     OW 1042   0.148   0.675   2.818  0.7436  0.1873 -0.2924
  348SOL    HW1 1043   0.110   0.763   2.845 -0.0645  0.8930 -1.5357
  348SOL    HW2 1044   0.233   0.694   2.765 -2.5080 -0.9968  0.9483
  349SOL     OW 1045   1.802   0.411   2.816 -0.1155  0.2372  0.0691
  349SOL    HW1 1046   1.787   0.493   2.748 -0.4907  0.8137 -1.7767
  349SOL    HW2 1047   1.805   0.431   2.918  0.0316 -2.3766  1.7473
  350SOL     OW 1048   1.549   0.442   0.360 -0.5613  0.2003  0.1006
  350SOL    HW1 1049   1.615   0.466   0.439 -0.2772  0.0496 -0.0345
  350SOL    HW2 1050   1.568   0.511   0.286 -0.1905  0.2340  1.2908
  351SOL     OW 1051   0.952   0.851   2.095 -0.4030 -0.2942  0.2950
  351SOL    HW1 1052   0.929   0.950   2.092  3.4306 -2.2251 -1.6152
  351SOL    HW2 1053   0.990   0.815   2.004  0.5137  2.5647  0.3311
  352SOL     OW 1054   2.029   1.291   0.684 -0.4772 -0.2705 -0.4058
  352SOL    HW1 1055   2.011   1.337   0.591  0.7283  1.0138  1.4265
  352SOL    HW2 1056   2.121   1.332   0.727  0.7053  0.4922  1.2115
  353SOL     OW 1057   2.151   2.915   1.087  0.7961  0.1331 -0.1340
  353SOL    HW1 1058   2.226   2.846   1.098  3.6112  0.6051 -0.8066
  353SOL    HW2 1059   2.062   2.869   1.060 -0.3012 -2.1075 -1.9486
  354SOL     OW 1060   0.244   1.403   2.893 -0.0963  0.0352 -0.1953
  354SOL    HW1 1061   0.244   1.473   2.820  0.9718 -2.1174  2.8253
  354SOL    HW2 1062   0.340   1.356   2.896 -0.2973 -0.5985 -3.9131
  355SOL     OW 1063   0.505   1.529   0.496 -0.4049  0.2682 -0.3244
  355SOL    HW1 1064   0.470   1.623   0.525 -2.0711 -1.1035 -0.3865
  355SOL    HW2 1065   0.604   1.511   0.520 -0.4202 -0.1308 -1.5966
  356SOL     OW 1066   0.952   0.280   2.089 -0.0459  0.0909 -0.4656
  356SOL    HW1 1067   1.035   0.334   2.063 -1.0983 -1.5061  1.1884
  356SOL    HW2 1068   0.902   0.247   2.000 -1.4008 -2.1329 -0.5620
  357SOL     OW 1069   1.017   1.289   0.391 -0.3311 -0.5192  0.0777
  357SOL    HW1 1070   0.991   1.203   0.344 -1.5106  1.9159  0.7904
  357SOL    HW2 1071   1.056   1.279   0.485 -1.3524  2.6281  0.2789
  358SOL     OW 1072   1.695   1.517   0.471  0.2368  0.0150 -0.4599
  358SOL    HW1 1073   1.637   1.477   0.549 -0.0062 -0.7805 -0.6967
  358SOL    HW2 1074   1.667   1.470   0.381 -0.1377 -0.9323 -0.8797
  359SOL     OW 1075   1.594   2.743   0.062 -0.1429  0.2936 -0.1957
  359SOL    HW1 1076   1.505   2.696   0.063 -0.1281  0.7473  2.7783
  359SOL    HW2 1077   1.587   2.849   0.050 -1.4457 -0.0932  0.8152
  360SOL     OW 1078   0.880   0.609   0.538  0.2144  0.1776 -0.3888
  360SOL    HW1 1079   0.792   0.645   0.580  0.2120 -1.9876  0.4763
  360SOL    HW2 1080   0.874   0.509   0.519  0.4771  1.0042  0.5254
  361SOL     OW 1081   1.194   1.392   0.699  0.0071 -0.4343  0.0095
  361SOL    HW1 1082   1.217   1.418   0.794 -2.7806 -0.0727 -0.8349
  361SOL    HW2 1083   1.101   1.433   0.666 -3.7635 -0.1220 -0.1477
  362SOL     OW 1084   1.343   1.775   0.781 -0.2169  0.6763  0.2392
  362SOL    HW1 1085   1.366   1.713   0.863  0.8508  1.3163  0.3422
  362SOL    HW2 1086   1.425   1.820   0.742 -1.1687 -1.2296 -2.0956
  363SOL     OW 1087   1.198   1.267   2.036 -0.1108 -0.0364 -0.3941
  363SOL    HW1 1088   1.240   1.337   2.100 -1.1938 -0.9001  0.3533
  363SOL    HW2 1089   1.210   1.294   1.936  4.0602  1.1145 -0.8419
  364SOL     OW 1090   0.525   2.347   1.923 -0.4024  0.2394 -0.1944
  364SOL    HW1 1091   0.433   2.397   1.929 -1.3969 -1.4063  1.4640
  364SOL    HW2 1092   0.596   2.394   1.861 -2.7010 -0.6975 -1.4594
  365SOL     OW 1093   1.024   1.877   1.393 -0.1326 -0.7216 -0.2288
  365SOL    HW1 1094   0.923   1.894   1.417  1.0744  2.1737 -1.0559
  365SOL    HW2 1095   1.037   1.805   1.323 -2.3365 -0.6106  2.8308
  366SOL     OW 1096   2.816   2.067   0.495 -0.3133  0.3100 -0.0226
  366SOL    HW1 1097   2.720   2.044   0.480 -1.0204  2.4705 -0.8884
  366SOL    HW2 1098   2.878   1.991   0.448 -0.6255 -0.3662 -0.6906
  367SOL     OW 1099   0.850   1.147   0.172  0.7389 -0.4287 -0.2464
  367SOL    HW1 1100   0.865   1.060   0.227  3.8135  0.6009  0.8491
  367SOL    HW2 1101   0.909   1.164   0.087  0.4249  1.4533 -0.0045
  368SOL     OW 1102   1.496   0.584   0.712 -0.9358 -0.5170 -0.3115
  368SOL    HW1 1103   1.425   0.604   0.637  2.1307  1.8178 -2.8143
  368SOL    HW2 1104   1.584   0.640   0.702 -2.1413 -2.2697  0.6926
  369SOL     OW 1105   0.228   1.702   0.064  0.5205  0.6640  0.1042
  369SOL    HW1 1106   0.268   1.771   0.134  2.1191  0.8659  2.2838
  369SOL    HW2 1107   0.152   1.647   0.105 -1.1545  3.6328 -1.2983
  370SOL     OW 1108   0.448   2.103   1.046  0.4535 -0.4298  0.1725
  370SOL    HW1 1109   0.476   2.206   1.035 -0.1960  0.1093 -0.7368
  370SOL    HW2 1110   0.374   2.074   0.981 -0.2704  0.8984  1.0684
  371SOL     OW 1111   2.890   2.229   2.723 -0.2148 -0.4139 -0.4176
  371SOL    HW1 1112   2.874   2.199   2.820 -3.4684 -0.7912  1.8575
  371SOL    HW2 1113   2.992   2.247   2.703 -0.5697  1.6193 -0.3016
  372SOL     OW 1114   1.070   1.950   1.033  0.1297  0.1102  1.1210
  372SOL    HW1 1115   1.008   2.031   1.054  0.8341  1.1435  0.8001
  372SOL    HW2 1116   1.139   1.979   0.956  0.2628  1.3037  1.8421
  373SOL     OW 1117   1.959   1.992   0.904 -0.1009  0.4178  0.2201
  373SOL    HW1 1118   2.035   2.000   0.975  1.2222  0.6072  0.4337
  373SOL    HW2 1119   1.873   2.046   0.928 -1.6592  1.7864 -0.4833
  374SOL     OW 1120   1.778   0.462   0.568 -0.2021  0.0413  0.0741
  374SOL    HW1 1121   1.779   0.391   0.639  0.7281 -1.1669  2.7925
  374SOL    HW2 1122   1.863   0.475   0.510 -1.3412 -1.2220  3.0531
  375SOL     OW 1123   2.360   2.166   1.106 -0.0858  1.1344 -0.3515
  375SOL    HW1 1124   2.442   2.184   1.038  3.0852 -0.7222 -0.2457
  375SOL    HW2 1125   2.388   2.150   1.204 -0.6244 -1.2473  1.2040
  376SOL     OW 1126   2.998   0.610   1.417 -0.0377 -0.2673 -0.0574
  376SOL    HW1 1127   3.073   0.666   1.468 -0.6164  0.2148  0.3818
  376SOL    HW2 1128   2.902   0.616   1.461  1.0103 -2.2169  0.9220
  377SOL     OW 1129   2.233   2.828   0.347 -0.2554 -0.4857 -0.3419
  377SOL    HW1 1130   2.222   2.929   0.339 -0.8101  0.4170  1.8312
  377SOL    HW2 1131   2.330   2.791   0.355 -1.7930 -1.0909  0.8416
  378SOL     OW 1132   1.752   1.841   2.686  0.6930 -0.4961  0.4755
  378SOL    HW1 1133   1.663   1.842   2.732  0.7020 -0.7030 -3.7404
  378SOL    HW2 1134   1.787   1.747   2.684 -0.4126  0.1145  0.3592
  379SOL     OW 1135   0.877   0.130   2.731  0.3153 -0.6511 -0.4334
  379SOL    HW1 1136   0.832   0.048   2.688  1.8050  0.5101 -0.7958
  379SOL    HW2 1137   0.812   0.216   2.725 -2.8019  0.2951 -0.6282
  380SOL     OW 1138   1.502   1.197   0.530 -0.0622  0.0416 -0.6412
  380SOL    HW1 1139   1.402   1.200   0.516  3.7398  1.4826  2.0822
  380SOL    HW2 1140   1.530   1.105   0.558  0.2713  1.2869  1.8650
  381SOL     OW 1141   1.311   1.190   1.525  0.4856 -0.6286 -0.2617
  381SOL    HW1 1142   1.372   1.228   1.451  0.3298  2.1208  0.0555
  381SOL    HW2 1143   1.362   1.154   1.608 -0.0073  1.1218 -0.2838
  382SOL     OW 1144   1.775   0.805   0.237  0.6245  0.1652 -0.7681
  382SOL    HW1 1145   1.802   0.790   0.137 -0.8042 -0.4778 -1.1112
  382SOL    HW2 1146   1.846   0.780   0.310  0.2223  0.7642  0.3940
  383SOL     OW 1147   2.572   0.958   1.509  0.0000  0.2519 -0.5908
  383SOL    HW1 1148   2.470   0.946   1.483  2.6183 -0.8344  0.5618
  383SOL    HW2 1149   2.630   0.911   1.441 -0.2343  0.2334  0.9535
  384SOL     OW 1150   0.904   2.272   0.086  0.0713 -0.3474  0.6903
  384SOL    HW1 1151   0.868   2.361   0.118 -0.7981 -0.0211  0.4096
  384SOL    HW2 1152   0.880   2.185   0.144 -0.6318 -1.1780 -1.6623
  385SOL     OW 1153   2.999   1.978   1.804 -0.1216 -0.2442 -0.0078
  385SOL    HW1 1154   3.061   2.040   1.749 -4.9219  1.7086 -1.5398
  385SOL    HW2 1155   3.023   1.882   1.769  0.5610  1.2878  0.7693
  386SOL     OW 1156   0.432   1.154   0.463  0.2608 -0.6236 -0.1225
  386SOL    HW1 1157   0.481   1.065   0.447  1.4299  1.5286  0.8861
  386SOL    HW2 1158   0.356   1.181   0.397 -2.2544 -0.6124 -2.4396
  387SOL     OW 1159   1.004   0.344   1.666 -0.2948  0.6418  0.2035
  387SOL    HW1 1160   1.072   0.422   1.654  0.9278  0.5231  1.6684
  387SOL    HW2 1161   0.960   0.308   1.586  5.2523  2.0602  0.5474
  388SOL     OW 1162   1.223   2.644   1.789  0.3546 -0.3030  0.0475
  388SOL    HW1 1163   1.228   2.632   1.680 -1.2584  0.5242 -3.2071
  388SOL    HW2 1164   1.262   2.568   1.850 -0.3436  0.0568  1.4851
  389SOL     OW 1165   0.220   3.093   1.132 -0.9032  0.1380  0.1770
  389SOL    HW1 1166   0.169   3.097   1.223  0.4733  0.2940  3.5782
  389SOL    HW2 1167   0.267   2.998   1.117  0.7622  2.0817  0.6164
  390SOL     OW 1168   1.052   0.941   1.229  0.1804 -0.0295 -0.5045
  390SOL    HW1 1169   1.147   0.910   1.266  0.1556 -3.2104  1.6585
  390SOL    HW2 1170   0.984   0.986   1.294  2.0723  0.7414 -0.6738
  391SOL     OW 1171   2.057   1.145   1.038 -0.3373  0.7752 -0.4786
  391SOL    HW1 1172   1.979   1.097   1.085 -2.3156 -0.8695  2.7687
  391SOL    HW2 1173   2.093   1.108   0.949 -0.6915  0.6669  1.2707
  392SOL     OW 1174   0.933   2.665   3.053  0.7612 -0.5007 -0.1767
  392SOL    HW1 1175   0.846   2.668   3.107 -0.1916 -0.1557  0.4021
  392SOL    HW2 1176   1.016   2.692   3.110  3.2725 -0.9190  0.5613
  393SOL     OW 1177   0.394   0.500   2.094  0.0766 -0.3620  0.3938
  393SOL    HW1 1178   0.296   0.466   2.080  0.4083 -1.3559 -2.0126
  393SOL    HW2 1179   0.456   0.499   2.006  0.4901 -0.5909  0.2864
  394SOL     OW 1180   2.919   1.833   2.795 -0.2059 -0.3151  0.1333
  394SOL    HW1 1181   3.011   1.832   2.841  1.0364 -1.9067  0.3289
  394SOL    HW2 1182   2.937   1.837   2.692 -0.5106  0.2828  0.5684
  395SOL     OW 1183   1.576   1.921   0.713  0.1232 -0.2509  0.0673
  395SOL    HW1 1184   1.649   1.865   0.667 -1.7468  0.3409 -0.5682
  395SOL    HW2 1185   1.607   1.976   0.793 -2.6397 -0.9466 -2.2872
  396SOL     OW 1186   2.745   2.055   1.331 -0.0212 -0.0928  0.1805
  396SOL    HW1 1187   2.765   2.010   1.420  0.3745 -2.6218 -0.1589
  396SOL    HW2 1188   2.646   2.088   1.325  0.2044 -1.4944  1.8165
  397SOL     OW 1189   1.027   2.113   0.622 -0.4024  0.2094  0.2197
  397SOL    HW1 1190   0.957   2.053   0.580 -1.9983 -1.0716 -0.2011
  397SOL    HW2 1191   0.983   2.178   0.694  2.9789  1.3257 -0.6940
  398SOL     OW 1192   2.205   0.099   1.060  0.0002 -0.3718 -0.8688
  398SOL    HW1 1193   2.198  -0.007   1.064  2.7763  1.2996 -0.0645
  398SOL    HW2 1194   2.115   0.145   1.066 -1.1823 -1.6747  2.0166
  399SOL     OW 1195   2.909   2.560   2.736 -0.7968  0.5861  0.1312
  399SOL    HW1 1196   2.876   2.514   2.651  0.4070  2.4745  0.0018
  399SOL    HW2 1197   2.873   2.513   2.826 -2.0389 -2.0311  2.6989
  400SOL     OW 1198   0.810   1.589   1.280 -0.4130 -0.0124 -0.4735
  400SOL    HW1 1199   0.772   1.610   1.374  0.8922  0.5207  1.0034
  400SOL    HW2 1200   0.798   1.663   1.205  1.6287  0.4447 -0.1043
  401SOL     OW 1201   1.801   0.129   1.266  0.0567  0.0569  0.0917
  401SOL    HW1 1202   1.875   0.168   1.324 -2.5851 -0.5329 -0.0340
  401SOL    HW2 1203   1.700   0.133   1.300 -1.3849  0.1505  0.2111
  402SOL     OW 1204   1.327   0.169   3.054  0.7041 -0.5726  0.0440
  402SOL    HW1 1205   1.407   0.158   2.987  1.1941  0.6292  0.7200
  402SOL    HW2 1206   1.334   0.259   3.109 -1.1670  2.1253  3.0071
  403SOL     OW 1207   2.319   1.835   0.927 -0.5202  0.2775  0.1017
  403SOL    HW1 1208   2.417   1.828   0.966  2.2126  3.0330 -1.1657
  403SOL    HW2 1209   2.261   1.903   0.977  2.2283  0.4351 -2.5904
  404SOL     OW 1210   0.170   2.494   2.866  0.3371  0.1876 -0.2645
  404SOL    HW1 1211   0.267   2.462   2.840 -1.3393  0.5776  0.2422
  404SOL    HW2 1212   0.174   2.592   2.895  0.3884 -2.4503  0.1655
  405SOL     OW 1213   0.236   2.546   0.539  0.1005 -0.1453 -0.1501
  405SOL    HW1 1214   0.177   2.566   0.456 -0.7237 -0.9165  2.8289
  405SOL    HW2 1215   0.289   2.630   0.570 -0.4606 -3.1461  3.5512
  406SOL     OW 1216   0.011   1.528   2.987  0.1296 -0.1423  0.5232
  406SOL    HW1 1217   0.095   1.490   2.931  0.0039 -1.0117 -1.5475
  406SOL    HW2 1218   0.029   1.535   3.088  1.3326  0.7273  2.5496
  407SOL     OW 1219   1.512   0.907   0.920  0.0656  0.6172 -0.1928
  407SOL    HW1 1220   1.510   0.894   0.816 -2.1475 -1.9156 -0.5775
  407SOL    HW2 1221   1.454   0.983   0.953  3.1545 -1.2698  1.9304
  408SOL     OW 1222   1.561   2.419   0.973 -0.0436 -0.1776  0.0786
  408SOL    HW1 1223   1.644   2.411   0.912  1.8772 -0.6653 -1.2459
  408SOL    HW2 1224   1.566   2.516   1.022  1.8803 -1.0926  2.1379
  409SOL     OW 1225   0.644   0.826   0.715 -0.9258  0.1913  0.3876
  409SOL    HW1 1226   0.575   0.853   0.642 -2.5502  1.0682 -1.7669
  409SOL    HW2 1227   0.662   0.722   0.718 -0.0476  0.9377  0.6558
  410SOL     OW 1228   1.271   2.013   1.453  0.3486 -0.2906 -0.2180
  410SOL    HW1 1229   1.261   2.036   1.558 -1.1721 -2.4475 -3.3767
  410SOL    HW2 1230   1.181   1.961   1.424 -0.7194 -2.0839 -3.5129
  411SOL     OW 1231   2.392   1.801   3.104  0.3633 -0.3892 -0.0051
  411SOL    HW1 1232   2.313   1.814   3.038  1.7310 -0.7215  0.6976
  411SOL    HW2 1233   2.482   1.833   3.067 -0.3791 -0.1223  0.7648
  412SOL     OW 1234   1.511   2.451   2.213  0.1470  0.9808  0.3527
  412SOL    HW1 1235   1.561   2.510   2.285 -1.4530  0.7293  0.2596
  412SOL    HW2 1236   1.423   2.407   2.243  5.1222 -0.1239  0.1438
  413SOL     OW 1237   3.059   0.257   2.979  0.1758  0.6027 -0.2001
  413SOL    HW1 1238   3.010   0.190   3.046  3.2511 -2.3422  1.4197
  413SOL    HW2 1239   3.161   0.274   2.996  0.1950  0.8549 -0.3809
  414SOL     OW 1240   1.745   1.382   1.388  0.0945  0.2068  0.1928
  414SOL    HW1 1241   1.692   1.462   1.422 -1.4179 -3.1014 -0.4029
  414SOL    HW2 1242   1.732   1.369   1.285 -0.4611  0.9342  0.0130
  415SOL     OW 1243   0.353   2.266   0.615  0.1714  0.2329 -0.3102
  415SOL    HW1 1244   0.316   2.361   0.606 -0.2594 -3.0827  0.7940
  415SOL    HW2 1245   0.281   2.190   0.637  1.6331  1.1224  1.1496
  416SOL     OW 1246   0.372   1.056   1.054  0.0895  0.4240 -0.4493
  416SOL    HW1 1247   0.335   1.005   0.969  2.1493  2.4899 -0.3737
  416SOL    HW2 1248   0.470   1.090   1.051  0.1574  1.9905  0.8840
  417SOL     OW 1249   2.118   2.368   1.905  0.0041  0.1482 -0.0833
  417SOL    HW1 1250   2.161   2.309   1.973 -0.1489 -0.4340 -1.5069
  417SOL    HW2 1251   2.034   2.414   1.934  0.4713 -2.6800 -1.7677
  418SOL     OW 1252   1.131   0.521   1.311 -0.5722 -0.0099  0.0519
  418SOL    HW1 1253   1.036   0.523   1.284  1.6708 -0.5452 -2.1150
  418SOL    HW2 1254   1.180   0.456   1.245  1.0933 -0.7409 -0.2677
  419SOL     OW 1255   1.011   0.377   3.046  0.3584  0.2695  0.4487
  419SOL    HW1 1256   1.051   0.414   2.956 -0.4446 -1.3578 -1.1793
  419SOL    HW2 1257   0.957   0.289   3.030  2.2841  0.0905 -2.8509
  420SOL     OW 1258   0.233   2.255   0.329 -0.1186 -0.1105 -0.2425
  420SOL    HW1 1259   0.187   2.204   0.248 -0.0845  0.5908  0.0881
  420SOL    HW2 1260   0.170   2.298   0.401 -1.2134  0.4460  1.3084
  421SOL     OW 1261   0.354   3.082   0.683  0.2542  0.0541  0.1009
  421SOL    HW1 1262   0.353   2.996   0.630 -3.5780 -1.5161  0.3422
  421SOL    HW2 1263   0.447   3.123   0.686 -0.6217  0.7646 -0.1497
  422SOL     OW 1264   0.929   2.504   1.040  0.0556 -0.1775  0.2298
  422SOL    HW1 1265   0.961   2.560   0.959  2.2095 -0.4666 -1.1888
  422SOL    HW2 1266   0.981   2.544   1.124  0.4155  4.8283 -1.4064
  423SOL     OW 1267   0.052   0.679   1.207 -0.2994 -0.4666  0.0403
  423SOL    HW1 1268  -0.008   0.653   1.288 -1.2249 -1.4078 -0.5850
  423SOL    HW2 1269   0.015   0.769   1.165  0.1289 -2.0625 -0.1278
  424SOL     OW 1270   0.980   2.180   2.075 -0.0664  0.4445 -0.6151
  424SOL    HW1 1271   0.998   2.281   2.060 -2.0387  0.6409 -0.4797
  424SOL    HW2 1272   0.989   2.150   2.170  0.4241  0.9324 -2.2923
  425SOL     OW 1273   1.989   1.429   1.027  0.0191 -0.0242 -0.0687
  425SOL    HW1 1274   2.014   1.328   1.028 -2.9986  0.3830  1.8768
  425SOL    HW2 1275   2.057   1.488   0.981 -2.2941  0.0037 -0.2980
  426SOL     OW 1276   1.518   1.561   1.443 -0.3454  0.4215  0.1262
  426SOL    HW1 1277   1.452   1.635   1.433  1.4595 -1.4003  0.8475
  426SOL    HW2 1278   1.499   1.507   1.529 -0.8410  2.7370  1.7567
  427SOL     OW 1279   1.895   2.408   2.101 -0.3609 -0.1095  0.1993
  427SOL    HW1 1280   1.962   2.359   2.164 -0.3933  0.1435 -0.1270
  427SOL    HW2 1281   1.876   2.512   2.123  1.1255  0.7264 -1.7692
  428SOL     OW 1282   0.865   2.999   0.148 -0.0185 -0.4395  0.3113
  428SOL    HW1 1283   0.925   3.080   0.176 -0.2634 -1.0251 -0.1333
  428SOL    HW2 1284   0.921   2.918   0.141 -1.2766  3.3928 -1.6599
  429SOL     OW 1285   1.304   0.100   0.219 -0.5778  0.2050 -0.2985
  429SOL    HW1 1286   1.381   0.148   0.269 -1.9499  2.1000  0.2628
  429SOL    HW2 1287   1.320   0.093   0.113  0.0655  0.0760 -0.8173
  430SOL     OW 1288   2.817   1.536   0.354  0.3777  0.1086 -0.3798
  430SOL    HW1 1289   2.868   1.590   0.286 -0.8489  2.0404  0.4573
  430SOL    HW2 1290   2.809   1.587   0.449  0.5538 -0.9763  0.1804
  431SOL     OW 1291   2.130   1.630   0.894  0.2311  0.0951 -0.5016
  431SOL    HW1 1292   2.195   1.698   0.937 -0.4129  0.4347  0.6537
  431SOL    HW2 1293   2.057   1.672   0.833  0.1469 -1.4086 -1.7368
  432SOL     OW 1294   2.932   2.246   1.241  0.2001 -0.1743  0.2537
  432SOL    HW1 1295   2.865   2.173   1.264 -2.2542 -2.2867  1.4769
  432SOL    HW2 1296   2.974   2.281   1.333  2.9587 -1.3685  4.1554
  433SOL     OW 1297   1.860   0.348   0.815  0.5700 -0.0830 -0.3153
  433SOL    HW1 1298   1.797   0.362   0.892  1.2308  1.5828 -1.7539
  433SOL    HW2 1299   1.906   0.255   0.819 -0.2063 -1.1730 -2.8417
  434SOL     OW 1300   1.540   0.304   0.733  0.3744  0.3263 -0.4767
  434SOL    HW1 1301   1.512   0.392   0.693 -0.4926 -3.7209  1.9708
  434SOL    HW2 1302   1.572   0.316   0.833  1.3748  1.3842  2.1025
  435SOL     OW 1303   1.433   1.416   2.131  0.2493 -0.8186  0.3646
  435SOL    HW1 1304   1.384   1.429   2.224 -0.8531  1.1944 -0.1129
  435SOL    HW2 1305   1.423   1.497   2.073  2.5968 -3.0564  2.7232
  436SOL     OW 1306   1.619   2.624   2.417 -0.5010 -0.2485 -0.4488
  436SOL    HW1 1307   1.627   2.726   2.443  0.7370 -1.4691 -1.6909
  436SOL    HW2 1308   1.604   2.565   2.505 -2.5258 -0.0098  0.8034
  437SOL     OW 1309   1.087   2.893   0.915 -0.2356 -0.0008 -0.7924
  437SOL    HW1 1310   1.039   2.986   0.918 -0.6104  0.1163  1.0100
  437SOL    HW2 1311   1.128   2.881   1.008 -1.8563  0.7489  1.6825
  438SOL     OW 1312   1.088   2.583   1.271 -0.3715  0.5738 -0.0127
  438SOL    HW1 1313   1.138   2.645   1.345 -0.5823  1.2317 -0.4185
  438SOL    HW2 1314   1.035   2.498   1.309 -3.4226  1.6141 -0.8968
  439SOL     OW 1315   0.733   1.779   1.014 -0.1630 -0.5734  0.1746
  439SOL    HW1 1316   0.726   1.868   0.958 -0.9045  1.5430  0.5445
  439SOL    HW2 1317   0.639   1.742   1.045 -2.9841 -0.4152 -2.2638
  440SOL     OW 1318   1.049   2.450   2.041  0.3499  0.1265 -0.5302
  440SOL    HW1 1319   1.035   2.534   1.980 -0.0402  1.3291  1.0205
  440SOL    HW2 1320   1.149   2.439   2.066 -2.3305  2.6452  1.4292
  441SOL     OW 1321   0.393   2.764   1.420  0.3061  0.7754 -0.7790
  441SOL    HW1 1322   0.472   2.695   1.446  2.4095 -1.8195  1.4475
  441SOL    HW2 1323   0.369   2.742   1.322 -2.3559  0.5818  0.1522
  442SOL     OW 1324   2.244   0.680   2.604  0.3344  0.4349  0.1286
  442SOL    HW1 1325   2.234   0.579   2.579 -0.0853  2.2152 -0.8877
  442SOL    HW2 1326   2.155   0.729   2.583  0.2835 -0.9577 -1.5752
  443SOL     OW 1327   1.251   2.674   2.198 -0.4007 -0.3642 -0.2189
  443SOL    HW1 1328   1.262   2.574   2.208 -0.1776  2.9089  2.6066
  443SOL    HW2 1329   1.198   2.716   2.280  1.3739  1.1075  0.5105
  444SOL     OW 1330   1.032   1.221   1.494  0.2173  0.2948 -0.0496
  444SOL    HW1 1331   1.120   1.245   1.451  1.1912  0.9289  2.2761
  444SOL    HW2 1332   1.036   1.239   1.597 -0.4599 -0.5039  4.3518
  445SOL     OW 1333   0.032   2.358   1.947 -0.7429  1.0082 -0.1862
  445SOL    HW1 1334   0.053   2.277   1.890  0.1540  0.4734 -1.1833
  445SOL    HW2 1335  -0.034   2.344   2.029 -0.0855 -0.3870 -0.2702
  446SOL     OW 1336   0.177   1.938   2.366  0.2219  0.2132  0.0320
  446SOL    HW1 1337   0.131   2.029   2.369  1.7530  0.1387  0.2877
  446SOL    HW2 1338   0.137   1.868   2.302 -1.4280 -2.9626 -1.8750
  447SOL     OW 1339   1.228   1.676   1.929 -0.2204 -0.1704 -0.2596
  447SOL    HW1 1340   1.141   1.714   1.968 -0.8301 -0.9973 -2.9191
  447SOL    HW2 1341   1.308   1.721   1.973 -0.2772 -1.7523 -0.0431
  448SOL     OW 1342   0.162   1.426   2.023 -0.2090  0.4115 -0.1768
  448SOL    HW1 1343   0.142   1.501   1.960 -1.6934 -0.3977 -1.8828
  448SOL    HW2 1344   0.093   1.426   2.104 -1.1920  1.4545  0.4265
  449SOL     OW 1345   1.838   2.955   0.852 -0.6379  0.9964  0.1088
  449SOL    HW1 1346   1.825   2.962   0.954 -0.3909  1.5861 -0.9330
  449SOL    HW2 1347   1.894   2.870   0.820  2.4558 -0.4291 -1.2041
  450SOL     OW 1348   2.267   1.482   0.699  0.2236 -0.1171  0.7189
  450SOL    HW1 1349   2.244   1.553   0.769 -1.0850  1.9816  1.8076
  450SOL    HW2 1350   2.272   1.529   0.605  1.1295  0.6836  2.3369
  451SOL     OW 1351   1.388   3.067   1.493 -0.5328 -0.1924  0.0451
  451SOL    HW1 1352   1.300   3.130   1.497  2.1437  0.0178 -1.2263
  451SOL    HW2 1353   1.406   3.006   1.570  1.4857  1.2385  1.2067
  452SOL     OW 1354   2.654   2.274   2.266  0.2938  0.0778  0.1366
  452SOL    HW1 1355   2.587   2.354   2.282 -2.6581 -0.5547  0.0807
  452SOL    HW2 1356   2.689   2.228   2.351  1.1876  0.3156 -2.0554
  453SOL     OW 1357   2.457   2.666   0.024 -0.3406 -0.0672  0.1238
  453SOL    HW1 1358   2.364   2.719   0.037 -0.9526  1.3654 -4.2786
  453SOL    HW2 1359   2.443   2.588  -0.041 -2.6136 -0.3768 -0.9180
  454SOL     OW 1360   0.961   1.127   2.034  0.6096 -0.0965  0.6122
  454SOL    HW1 1361   0.957   1.120   1.932 -0.0616 -2.6015  0.0078
  454SOL    HW2 1362   1.046   1.174   2.070 -0.8987  3.1650  0.6814
  455SOL     OW 1363   0.659   2.685   2.810  0.1656  0.1313 -0.7369
  455SOL    HW1 1364   0.759   2.719   2.802  1.8182  1.4166 -0.9897
  455SOL    HW2 1365   0.652   2.600   2.876 -2.2435 -3.2267  2.4972
  456SOL     OW 1366   0.372   1.883   0.230 -0.4790 -0.2549 -0.1920
  456SOL    HW1 1367   0.475   1.876   0.240 -1.7894  2.1715 -0.6615
  456SOL    HW2 1368   0.333   1.975   0.210 -1.0079 -2.7607  1.5586
  457SOL     OW 1369   0.388   2.789   0.606 -0.0677 -0.2303 -0.6371
  457SOL    HW1 1370   0.405   2.821   0.503 -1.2138  0.0894 -1.4493
  457SOL    HW2 1371   0.480   2.777   0.657  4.3564  1.0014 -2.1129
  458SOL     OW 1372   2.809   0.040   1.196  0.0031  0.1793 -0.4729
  458SOL    HW1 1373   2.897   0.095   1.200  1.5821 -0.0720 -3.0060
  458SOL    HW2 1374   2.824  -0.045   1.142  0.6625 -1.3287  1.6072
  459SOL     OW 1375   2.202   2.536   0.821 -0.1666  0.0166 -0.0844
  459SOL    HW1 1376   2.241   2.606   0.883 -2.2226 -0.1880  0.7873
  459SOL    HW2 1377   2.263   2.520   0.743  0.3290  1.5042  0.7223
  460SOL     OW 1378   1.215   2.068   2.779 -0.2732  0.2920 -0.0674
  460SOL    HW1 1379   1.232   2.076   2.679 -1.9581  1.3667  1.4140
  460SOL    HW2 1380   1.249   1.980   2.820 -0.7912  0.0907  0.5326
  461SOL     OW 1381   0.482   2.102   2.712  0.6328  0.3662 -0.2528
  461SOL    HW1 1382   0.429   2.022   2.677  1.0873  0.9285 -2.7545
  461SOL    HW2 1383   0.527   2.090   2.803 -1.3490  2.4858 -0.8915
  462SOL     OW 1384   0.981   1.072   1.739  0.5317  0.4139 -0.4787
  462SOL    HW1 1385   1.045   1.014   1.681  1.8575  0.4464 -0.7303
  462SOL    HW2 1386   0.892   1.105   1.695 -0.4487  1.5939 -0.8089
  463SOL     OW 1387   0.476   0.865   0.495  0.2152  0.2322  0.1904
  463SOL    HW1 1388   0.496   0.766   0.461  0.6399 -3.1690 -2.0944
  463SOL    HW2 1389   0.381   0.897   0.473  0.3259  0.1893  1.0160
  464SOL     OW 1390   0.617   2.334   2.203 -0.5413 -0.0964  0.0882
  464SOL    HW1 1391   0.597   2.412   2.265 -0.5524 -0.5717  0.4702
  464SOL    HW2 1392   0.582   2.345   2.110  0.1199  0.7902  1.5692
  465SOL     OW 1393   0.284   0.915   0.843  0.3851  0.3144  0.2932
  465SOL    HW1 1394   0.203   0.925   0.783 -0.4972 -0.9898 -0.9044
  465SOL    HW2 1395   0.317   0.820   0.847  0.6466 -1.1847  1.4685
  466SOL     OW 1396   1.399   1.158   1.052  0.2981  0.1844  0.3676
  466SOL    HW1 1397   1.430   1.232   0.987  2.1017 -1.5096 -1.3911
  466SOL    HW2 1398   1.300   1.132   1.048 -1.0349 -0.4939 -1.1032
  467SOL     OW 1399   0.614   0.418   2.459  0.0840 -0.3166 -0.0003
  467SOL    HW1 1400   0.558   0.508   2.455 -2.0801  1.1380 -0.0020
  467SOL    HW2 1401   0.612   0.375   2.552 -2.0867  0.5876  1.7135
  468SOL     OW 1402   0.383   2.265   1.613  0.1931  0.0540 -0.0814
  468SOL    HW1 1403   0.473   2.281   1.657 -0.7891 -1.5936 -0.6360
  468SOL    HW2 1404   0.390   2.255   1.510  2.7336  0.8758 -0.2000
  469SOL     OW 1405   1.470   1.297   1.346  0.3269 -0.3140 -0.4368
  469SOL    HW1 1406   1.498   1.276   1.254 -0.5477  1.4888  3.9439
  469SOL    HW2 1407   1.487   1.397   1.368  0.4887  1.8615 -2.5042
  470SOL     OW 1408   3.014   1.846   0.719 -0.0254  0.8100  0.1325
  470SOL    HW1 1409   3.060   1.903   0.646 -0.3271  0.6387  0.0257
  470SOL    HW2 1410   3.068   1.754   0.735  1.8261 -2.9566 -1.0551
  471SOL     OW 1411   2.593   1.364   2.149  0.1177 -0.1762 -0.3174
  471SOL    HW1 1412   2.576   1.298   2.225 -1.3360  1.6505  1.7658
  471SOL    HW2 1413   2.667   1.433   2.178 -1.6328 -0.4871  0.0906
  472SOL     OW 1414   1.166   2.377   0.069  0.0895  0.0929 -0.7253
  472SOL    HW1 1415   1.231   2.365   0.148 -0.7016 -2.8434 -2.9058
  472SOL    HW2 1416   1.089   2.310   0.072 -0.3814  0.5537 -1.5584
  473SOL     OW 1417   1.076   1.487   1.034 -0.1933 -0.1294  0.0150
  473SOL    HW1 1418   0.989   1.522   0.994  0.6026 -1.8047  0.0935
  473SOL    HW2 1419   1.060   1.414   1.108 -1.4149 -1.0762  1.6063
  474SOL     OW 1420   0.649   1.285   0.592  0.0453  0.3816  0.3461
  474SOL    HW1 1421   0.558   1.244   0.567  2.1734  0.1919 -1.2336
  474SOL    HW2 1422   0.730   1.221   0.600  0.2931 -0.8099  1.0997
  475SOL     OW 1423   2.825   0.023   0.811 -0.1603  0.0801  0.3169
  475SOL    HW1 1424   2.895   0.094   0.831 -0.4025 -2.1564  0.5706
  475SOL    HW2 1425   2.731   0.060   0.834 -0.1055 -2.4083 -1.0241
  476SOL     OW 1426   1.021   2.976   1.768  0.8856 -0.0853 -0.5628
  476SOL    HW1 1427   1.103   3.040   1.787 -0.8201  3.9157  0.5711
  476SOL    HW2 1428   1.002   2.966   1.667  0.7303  0.1939 -0.7358
  477SOL     OW 1429   1.443   0.315   2.409 -0.0569  0.1974  0.5924
  477SOL    HW1 1430   1.414   0.353   2.501  0.7134 -1.1532  0.0687
  477SOL    HW2 1431   1.544   0.289   2.413  0.7705 -1.1822  0.4465
  478SOL     OW 1432   2.231   1.849   0.230  0.2079 -0.0711 -0.7434
  478SOL    HW1 1433   2.168   1.764   0.255 -0.9812 -1.1585  0.7299
  478SOL    HW2 1434   2.305   1.834   0.163 -2.1723  0.0867 -1.0289
  479SOL     OW 1435   1.267   0.949   2.880 -0.1155 -0.0297 -0.4851
  479SOL    HW1 1436   1.353   0.948   2.820 -0.4401 -2.2430  0.1711
  479SOL    HW2 1437   1.196   0.877   2.849  0.1158 -0.4343  0.0898
  480SOL     OW 1438   2.602   2.327   0.391  0.4960 -0.2463  0.4830
  480SOL    HW1 1439   2.560   2.266   0.464  2.0268  0.2258  1.1273
  480SOL    HW2 1440   2.530   2.384   0.338 -0.0633 -1.1898 -0.3813
  481SOL     OW 1441   0.975   1.167   0.827 -0.6734 -0.4988  0.4797
  481SOL    HW1 1442   0.952   1.262   0.794 -0.8830 -0.2706 -0.5420
  481SOL    HW2 1443   1.020   1.170   0.919 -0.6798  1.9287 -3.2028
  482SOL     OW 1444   1.561   0.318   1.989  0.1920 -0.2541  0.0415
  482SOL    HW1 1445   1.576   0.404   1.930  1.7174  1.5601 -0.6738
  482SOL    HW2 1446   1.645   0.259   1.991 -2.2130  2.0388 -1.3659
  483SOL     OW 1447   0.136   2.313   1.244 -0.2162 -0.1602 -0.4655
  483SOL    HW1 1448   0.107   2.390   1.306 -4.7436 -1.2162  1.4490
  483SOL    HW2 1449   0.164   2.351   1.152 -0.7061 -0.8832 -1.5880
  484SOL     OW 1450   1.766   1.103   1.327  0.2052  0.4114 -0.1205
  484SOL    HW1 1451   1.816   1.041   1.391 -3.5626 -0.4210 -0.0445
  484SOL    HW2 1452   1.757   1.199   1.371 -1.6750  0.6202 -0.5147
  485SOL     OW 1453   0.762   0.773   1.788 -0.1484  0.3002 -0.1466
  485SOL    HW1 1454   0.727   0.841   1.715 -0.0519  1.3335 -0.6626
  485SOL    HW2 1455   0.855   0.735   1.765  2.7557  1.0472 -1.4207
  486SOL     OW 1456   0.844   1.879   2.449 -0.1504  0.6291  0.5247
  486SOL    HW1 1457   0.883   1.871   2.542 -0.2314 -0.9132 -2.8973
  486SOL    HW2 1458   0.845   1.978   2.418 -0.9298  2.1714 -0.5350
  487SOL     OW 1459   1.756   1.579   0.948  0.2484  0.0889 -0.4357
  487SOL    HW1 1460   1.833   1.518   0.983  0.1020  1.8205 -0.5973
  487SOL    HW2 1461   1.793   1.645   0.880  0.4487  1.5213 -0.1751
  488SOL     OW 1462   2.953   0.876   2.311 -0.0576  0.8067 -0.1896
  488SOL    HW1 1463   2.968   0.774   2.287 -2.1643 -0.9102 -1.3818
  488SOL    HW2 1464   2.956   0.889   2.414 -0.3716  0.0339 -0.0638
  489SOL     OW 1465   2.796   0.372   1.292  0.6293 -0.0297 -0.1959
  489SOL    HW1 1466   2.749   0.327   1.372  0.9421  1.9056  0.9978
  489SOL    HW2 1467   2.882   0.323   1.263 -0.2203 -0.8235 -1.0380
  490SOL     OW 1468   1.400   2.940   2.803  0.2250 -0.6607  0.5390
  490SOL    HW1 1469   1.416   2.838   2.826  0.6715  0.9532 -0.8456
  490SOL    HW2 1470   1.453   2.960   2.716 -0.7931  1.9913  1.7162
  491SOL     OW 1471   1.709   1.517   2.655 -0.2346  0.4101 -0.0855
  491SOL    HW1 1472   1.659   1.517   2.746  0.7964  1.1053 -2.8303
  491SOL    HW2 1473   1.809   1.527   2.667 -4.0236 -2.5729 -0.5371
  492SOL     OW 1474   0.578   2.068   0.630  0.1820  0.1829 -0.5397
  492SOL    HW1 1475   0.605   2.027   0.725 -1.0505  2.4608 -1.3048
  492SOL    HW2 1476   0.515   2.148   0.635  0.2371  2.5198 -1.1711
  493SOL     OW 1477   0.473   1.385   2.078 -0.3996  0.0755  0.3943
  493SOL    HW1 1478   0.409   1.455   2.031 -2.4997 -1.6167  0.6613
  493SOL    HW2 1479   0.432   1.292   2.092  0.4714  1.2859  2.5259
  494SOL     OW 1480   2.721   2.559   0.082  0.1329  0.7130  0.4846
  494SOL    HW1 1481   2.731   2.547   0.185 -0.9304  1.2060  1.0905
  494SOL    HW2 1482   2.628   2.595   0.052 -2.0126 -1.2032 -2.2462
  495SOL     OW 1483   2.558   2.747   2.600 -0.1676 -0.4132  0.3050
  495SOL    HW1 1484   2.561   2.643   2.607  1.1396  1.2272 -1.3519
  495SOL    HW2 1485   2.637   2.784   2.538 -1.7956 -2.2640  0.2534
  496SOL     OW 1486   2.023   2.286   0.815 -0.1165 -0.3328 -0.2845
  496SOL    HW1 1487   2.067   2.358   0.877 -0.4911  2.9111  0.4430
  496SOL    HW2 1488   2.021   2.190   0.856 -0.7532  1.3320 -1.4490
  497SOL     OW 1489   0.154   3.012   2.361  0.4648 -0.1879 -0.1218
  497SOL    HW1 1490   0.129   3.080   2.435  1.3714  1.1087  0.3974
  497SOL    HW2 1491   0.193   3.059   2.273  2.4850 -2.8627  0.8501
  498SOL     OW 1492   1.199   1.315   1.265 -0.1245  0.0309  0.1946
  498SOL    HW1 1493   1.305   1.310   1.277  0.5205 -0.2309  1.8460
  498SOL    HW2 1494   1.156   1.399   1.312  2.1137 -0.7064 -0.2020
  499SOL     OW 1495   0.636   1.813   0.261  0.0852  0.5776  0.3974
  499SOL    HW1 1496   0.658   1.750   0.184 -0.4923 -1.3510 -3.2766
  499SOL    HW2 1497   0.723   1.855   0.305  3.8026 -2.6084 -0.4112
  500SOL     OW 1498   1.396   2.874   1.689 -0.3471  0.0869  0.1511
  500SOL    HW1 1499   1.402   2.874   1.793 -2.8763 -2.3189 -2.7417
  500SOL    HW2 1500   1.406   2.783   1.646  0.5459  0.3219  2.3448
  501SOL     OW 1501   0.777   1.167   2.281 -0.0444  0.1109  0.7684
  501SOL    HW1 1502   0.687   1.112   2.277 -0.6575  1.4754 -0.3178
  501SOL    HW2 1503   0.808   1.197   2.196  0.3635  0.5799  1.9616
  502SOL     OW 1504   2.559   0.938   1.781 -0.7155  0.2860 -0.1425
  502SOL    HW1 1505   2.571   0.964   1.680  0.5606  2.0201  1.8301
  502SOL    HW2 1506   2.579   0.837   1.799 -0.9316  0.9909  0.4146
  503SOL     OW 1507   1.294   0.165   0.587  0.0698  0.1552 -0.2421
  503SOL    HW1 1508   1.223   0.237   0.621 -2.4953 -0.2617  2.2716
  503SOL    HW2 1509   1.392   0.197   0.610  1.7223  1.0926 -0.5351
  504SOL     OW 1510   3.013   2.333   1.472 -0.4487 -0.1170 -0.0586
  504SOL    HW1 1511   2.966   2.419   1.508 -0.1786 -0.6963  0.5416
  504SOL    HW2 1512   3.080   2.287   1.533  2.4905 -0.2441 -1.6631
  505SOL     OW 1513   2.282   1.185   1.413  0.2376  0.5069 -0.2502
  505SOL    HW1 1514   2.263   1.236   1.326 -2.9683 -1.2422  1.9988
  505SOL    HW2 1515   2.376   1.207   1.457  0.5282 -1.3768  2.2671
  506SOL     OW 1516   1.930   0.202   1.809 -0.0939  0.2027  0.3719
  506SOL    HW1 1517   2.015   0.138   1.801 -0.9430  1.1208  0.7378
  506SOL    HW2 1518   1.944   0.305   1.825 -0.4209  0.5423 -2.7819
  507SOL     OW 1519   0.559   0.698   2.176  0.3328 -0.1744 -0.6024
  507SOL    HW1 1520   0.508   0.626   2.122  1.8659  4.7071  0.2153
  507SOL    HW2 1521   0.643   0.656   2.221  0.4884 -1.6277 -0.6174
  508SOL     OW 1522   0.319   1.652   0.785 -0.4640 -0.4783 -0.5145
  508SOL    HW1 1523   0.396   1.706   0.734  2.7689  0.9333 -0.6197
  508SOL    HW2 1524   0.275   1.705   0.867 -0.8163 -1.8714  2.4042
  509SOL     OW 1525   1.290   1.193   2.440  0.0720  0.3084 -0.0353
  509SOL    HW1 1526   1.326   1.149   2.357  1.2716 -2.1333  0.4939
  509SOL    HW2 1527   1.185   1.173   2.447 -0.4720 -0.6521 -3.1981
  510SOL     OW 1528   1.271   2.104   2.228 -0.1259  0.6530  0.1549
  510SOL    HW1 1529   1.279   2.124   2.130  1.8781  0.9203  2.3407
  510SOL    HW2 1530   1.188   2.047   2.260  1.3658  0.6255  0.4882
  511SOL     OW 1531   3.006   2.698   1.265 -0.4789 -0.2054 -0.3781
  511SOL    HW1 1532   3.028   2.708   1.160 -1.5447 -1.2809  1.6753
  511SOL    HW2 1533   2.910   2.728   1.298 -0.4091  0.8680  0.1302
  512SOL     OW 1534   2.405   0.459   1.377  0.4887 -0.1746  0.3189
  512SOL    HW1 1535   2.305   0.485   1.364  2.9549 -1.5445 -1.6767
  512SOL    HW2 1536   2.441   0.402   1.295 -2.8356 -1.1375 -0.1454
  513SOL     OW 1537   2.569   2.166   0.946  0.6903 -0.4650 -0.0010
  513SOL    HW1 1538   2.535   2.230   0.875 -0.5882  0.1273  2.0647
  513SOL    HW2 1539   2.664   2.134   0.924 -1.7610  1.2799 -1.5751
  514SOL     OW 1540   0.676   2.773   0.407  0.1953  0.1771  0.1513
  514SOL    HW1 1541   0.649   2.865   0.365 -1.5332  0.2445  3.3630
  514SOL    HW2 1542   0.715   2.784   0.500  2.5695 -2.8292 -0.4700
  515SOL     OW 1543   1.910   1.357   2.368 -0.2957 -0.5662  0.0670
  515SOL    HW1 1544   1.934   1.291   2.294 -1.2769  2.0057  0.1743
  515SOL    HW2 1545   1.834   1.316   2.429  1.3151  0.5905  0.4453
  516SOL     OW 1546   0.290   0.314   1.892  0.1469  0.0987 -0.0004
  516SOL    HW1 1547   0.380   0.263   1.900 -2.0849  0.7895 -0.0031
  516SOL    HW2 1548   0.215   0.255   1.852 -1.3210 -0.9257 -2.7852
  517SOL     OW 1549   0.475   0.115   1.120  0.2658 -0.0362 -0.3027
  517SOL    HW1 1550   0.471   0.164   1.218  0.7184 -0.4813  2.3560
  517SOL    HW2 1551   0.390   0.051   1.105  0.7133 -0.3030  2.6017
  518SOL     OW 1552   2.126   3.094   1.791  0.0038  0.2221 -0.0074
  518SOL    HW1 1553   2.192   3.174   1.814  2.4992 -0.3954 -2.1690
  518SOL    HW2 1554   2.145   3.044   1.698  2.8152  0.0962  2.3898
  519SOL     OW 1555   2.304   2.114   2.491 -0.1996 -0.7486 -0.3080
  519SOL    HW1 1556   2.260   2.102   2.590  0.0375 -2.3442 -0.5684
  519SOL    HW2 1557   2.309   2.218   2.465  0.9153 -1.3935 -2.9066
  520SOL     OW 1558   1.822   2.704   1.733  0.2181 -0.3204  0.3138
  520SOL    HW1 1559   1.736   2.646   1.757  2.7393  1.2509 -1.2556
  520SOL    HW2 1560   1.902   2.654   1.700 -1.9745  0.2969 -0.5044
  521SOL     OW 1561   0.551   0.006   2.078 -0.0781 -0.0558 -0.4084
  521SOL    HW1 1562   0.452  -0.004   2.115 -1.1541 -0.6937 -0.9635
  521SOL    HW2 1563   0.621  -0.009   2.151  1.7062  1.4728 -2.6693
  522SOL     OW 1564   0.202   1.839   1.533 -0.2871 -0.4651  0.4851
  522SOL    HW1 1565   0.235   1.911   1.599  0.5855  0.5457 -1.3576
  522SOL    HW2 1566   0.173   1.888   1.447 -0.9733  0.4708  3.3371
  523SOL     OW 1567   2.185   2.920   1.542  0.0047  0.0044  1.1613
  523SOL    HW1 1568   2.249   2.840   1.547  1.0494  1.6454 -1.0152
  523SOL    HW2 1569   2.115   2.919   1.465 -0.7268  3.5447 -1.7776
  524SOL     OW 1570   0.188   2.787   2.850  0.1723  0.0282  0.3669
  524SOL    HW1 1571   0.119   2.868   2.862 -2.0092  1.5741  0.2411
  524SOL    HW2 1572   0.276   2.817   2.810 -3.1254 -0.6905  0.3268
  525SOL     OW 1573   2.177   2.045   0.423  0.4532 -0.5074  0.4365
  525SOL    HW1 1574   2.192   1.996   0.509  0.1300  1.7031 -1.5278
  525SOL    HW2 1575   2.171   1.978   0.339 -0.0743  0.6979 -1.1109
  526SOL     OW 1576   0.437   1.540   1.831  0.3023 -0.0224 -0.4057
  526SOL    HW1 1577   0.525   1.590   1.815  1.3319 -4.1934 -0.8713
  526SOL    HW2 1578   0.439   1.432   1.843  1.2360 -0.0086 -0.2338
  527SOL     OW 1579   1.100   2.889   1.208 -0.0079 -0.6786 -0.2750
  527SOL    HW1 1580   1.152   2.827   1.268  3.0627  0.1735  0.5302
  527SOL    HW2 1581   1.148   2.982   1.206  1.9535  0.3112  0.4648
  528SOL     OW 1582   1.366   2.350   0.526  0.4483 -0.0689  0.3673
  528SOL    HW1 1583   1.404   2.253   0.532 -0.8016  4.0649  0.7897
  528SOL    HW2 1584   1.406   2.412   0.598  2.2659  0.8235  0.8291
  529SOL     OW 1585   1.915   1.757   0.776  0.0597  0.1266  0.0137
  529SOL    HW1 1586   1.855   1.761   0.686  0.2693 -0.3119  1.2310
  529SOL    HW2 1587   1.918   1.847   0.832  1.3581  0.6477  0.5485
  530SOL     OW 1588   0.416   2.545   0.168 -0.4001 -0.4271  0.3065
  530SOL    HW1 1589   0.441   2.531   0.270 -0.0684 -0.3005  3.9750
  530SOL    HW2 1590   0.446   2.472   0.103 -1.1922 -1.2738  0.7246
  531SOL     OW 1591   1.825   0.962   1.115  0.2129 -0.2067  0.1844
  531SOL    HW1 1592   1.732   0.947   1.072 -0.0389 -0.0296  0.8282
  531SOL    HW2 1593   1.816   1.018   1.207 -1.0187 -0.5553  0.3562
  532SOL     OW 1594   0.284   1.177   0.722  0.1382 -0.0631  0.6926
  532SOL    HW1 1595   0.315   1.164   0.622  1.4713 -1.0982  1.3909
  532SOL    HW2 1596   0.229   1.093   0.749  1.1076 -0.5450  0.6939
  533SOL     OW 1597   1.795   0.012   2.581  0.1835 -0.0428  0.6046
  533SOL    HW1 1598   1.888  -0.004   2.625  2.3438 -0.2162 -0.1322
  533SOL    HW2 1599   1.729   0.066   2.645 -0.6153 -1.0403 -0.1139
  534SOL     OW 1600   0.218   0.213   1.503 -0.3513 -0.0045 -0.5468
  534SOL    HW1 1601   0.311   0.239   1.466 -2.8387 -0.1027 -0.0942
  534SOL    HW2 1602   0.144   0.286   1.510 -0.6599 -0.5321  0.6195
  535SOL     OW 1603   1.850   0.331   0.212 -0.1450  0.0091 -0.2711
  535SOL    HW1 1604   1.870   0.398   0.288 -0.5032 -0.4407  0.4527
  535SOL    HW2 1605   1.777   0.267   0.232 -0.8492  0.6145 -4.2331
  536SOL     OW 1606   1.338   2.600   0.931  0.4799 -0.3465 -0.0244
  536SOL    HW1 1607   1.381   2.505   0.923  2.2811  0.1594  0.7501
  536SOL    HW2 1608   1.239   2.597   0.913  1.0246 -1.1380 -1.1265
  537SOL     OW 1609   0.890   0.221   2.351 -0.1789 -0.0359  0.1608
  537SOL    HW1 1610   0.928   0.218   2.252  0.7802 -0.1192  2.2954
  537SOL    HW2 1611   0.802   0.164   2.359 -1.3239  3.3257 -0.4586
  538SOL     OW 1612   1.653   2.350   1.491 -0.4719  0.5136 -0.0036
  538SOL    HW1 1613   1.644   2.251   1.455  0.4720 -0.6227 -2.4035
  538SOL    HW2 1614   1.721   2.412   1.442  1.1523  0.4466  1.4349
  539SOL     OW 1615   0.166   1.585   2.676 -0.3195  0.0741 -0.4645
  539SOL    HW1 1616   0.081   1.558   2.624  2.9074 -1.8615 -0.9830
  539SOL    HW2 1617   0.176   1.682   2.700 -0.0467 -4.4043 -0.5775
  540SOL     OW 1618   2.713   1.677   1.988  0.5008 -0.3691  0.2168
  540SOL    HW1 1619   2.649   1.597   1.979  0.1254 -3.0024 -2.7091
  540SOL    HW2 1620   2.680   1.773   1.965  0.6963  2.3617  1.9045
  541SOL     OW 1621   0.452   2.337   0.002  0.3644 -0.3613  0.4802
  541SOL    HW1 1622   0.502   2.261   0.053 -3.6531  3.4418  2.2116
  541SOL    HW2 1623   0.356   2.311  -0.032  1.4615 -1.7428 -1.2222
  542SOL     OW 1624   2.253   2.572   0.457  0.1310  0.3001 -0.7029
  542SOL    HW1 1625   2.238   2.653   0.392 -0.3023  0.0405  0.3583
  542SOL    HW2 1626   2.171   2.514   0.472  0.9415 -0.2192  1.5735
  543SOL     OW 1627   0.993   1.779   1.721  0.3326 -0.5746  0.2862
  543SOL    HW1 1628   0.982   1.799   1.824  0.3512 -0.0149 -0.0746
  543SOL    HW2 1629   0.932   1.832   1.659  0.7388  0.1963 -1.0161
  544SOL     OW 1630   0.895   0.398   0.216  0.5189 -0.2848 -0.6100
  544SOL    HW1 1631   0.908   0.311   0.268  0.1159 -0.6896 -0.4105
  544SOL    HW2 1632   0.916   0.384   0.115 -3.6123 -1.7461 -1.0341
  545SOL     OW 1633   1.108   1.720   0.623 -0.4915 -0.1481  0.5715
  545SOL    HW1 1634   1.201   1.720   0.671 -1.3928  0.1654 -0.2441
  545SOL    HW2 1635   1.114   1.702   0.521 -0.4716  0.0985  1.3631
  546SOL     OW 1636   2.645   1.538   3.065 -0.1482 -0.0547 -0.4923
  546SOL    HW1 1637   2.552   1.527   3.014 -1.8538  1.0913 -1.8772
  546SOL    HW2 1638   2.628   1.528   3.161 -1.9967  0.6396 -2.8884
  547SOL     OW 1639   0.544   0.028   2.772 -0.0745  0.3446 -0.2944
  547SOL    HW1 1640   0.609  -0.023   2.707  0.7126 -0.0414  2.5143
  547SOL    HW2 1641   0.528  -0.041   2.849  0.3932 -4.9585 -1.1454
  548SOL     OW 1642   2.045   0.833   3.027 -0.5087 -0.2998  0.0159
  548SOL    HW1 1643   1.943   0.802   3.041 -0.2804  0.8293 -1.0030
  548SOL    HW2 1644   2.065   0.930   3.057 -0.2158  0.7036 -0.0956
  549SOL     OW 1645   0.654   0.500   0.193  0.2448  0.6982  0.5667
  549SOL    HW1 1646   0.633   0.553   0.103  2.8062  1.3247  0.0165
  549SOL    HW2 1647   0.756   0.476   0.215 -2.8795 -1.5431 -0.5706
  550SOL     OW 1648   2.545   2.860   2.870 -0.4594  0.1070  0.3914
  550SOL    HW1 1649   2.538   2.783   2.935 -0.6513  0.2218 -1.4124
  550SOL    HW2 1650   2.541   2.819   2.778 -0.0044 -0.5092 -0.4182
  551SOL     OW 1651   0.273   0.914   0.231  0.3281 -0.1057  0.3738
  551SOL    HW1 1652   0.373   0.929   0.230 -0.9548 -0.6555  1.2927
  551SOL    HW2 1653   0.231   0.905   0.328  0.2499  1.6766 -0.2510
  552SOL     OW 1654   0.778   2.860   1.847 -0.7352  0.9024  0.2764
  552SOL    HW1 1655   0.752   2.905   1.939  1.1102 -1.2369 -1.0028
  552SOL    HW2 1656   0.865   2.901   1.812 -0.3344 -0.9379  3.7375
  553SOL     OW 1657   3.092   2.525   0.361  0.7980 -0.0099  0.0970
  553SOL    HW1 1658   3.040   2.436   0.339  1.5512  1.7657  1.5089
  553SOL    HW2 1659   3.040   2.599   0.414  0.7760 -2.8691 -0.1960
  554SOL     OW 1660   2.242   0.322   0.562 -0.3622  0.4491 -0.0158
  554SOL    HW1 1661   2.303   0.301   0.483  1.6115  2.6594  1.8982
  554SOL    HW2 1662   2.240   0.243   0.633  2.3973 -0.5109  1.1672
  555SOL     OW 1663   0.427   2.884   2.457  0.1606 -0.1153  0.9596
  555SOL    HW1 1664   0.351   2.954   2.461 -1.9019 -0.9373 -1.5132
  555SOL    HW2 1665   0.435   2.830   2.368  0.9109 -1.2183 -0.1807
  556SOL     OW 1666   0.907   2.375   1.670 -0.2870  0.1683 -0.7481
  556SOL    HW1 1667   0.923   2.454   1.737 -0.1190  0.6169 -0.3967
  556SOL    HW2 1668   0.969   2.378   1.585  1.4031 -1.0475 -0.8539
  557SOL     OW 1669   0.113   2.097   0.130 -0.2114  0.0106  0.2649
  557SOL    HW1 1670   0.021   2.045   0.121 -1.0714  0.4002 -1.5917
  557SOL    HW2 1671   0.138   2.152   0.046 -2.1890 -0.2102  1.3381
  558SOL     OW 1672   2.944   2.278   0.353 -0.3223  0.0808  0.7380
  558SOL    HW1 1673   2.877   2.205   0.389 -0.7544 -1.5769 -3.7156
  558SOL    HW2 1674   2.948   2.278   0.251 -0.1785  1.5507  0.5117
  559SOL     OW 1675   0.397   2.264   1.325 -0.2077  0.0737  0.2029
  559SOL    HW1 1676   0.306   2.292   1.278  1.7562  1.2348  0.1106
  559SOL    HW2 1677   0.431   2.169   1.299 -1.2924 -1.0327 -0.6944
  560SOL     OW 1678   2.093   1.101   3.065  0.1932 -0.2917 -0.2125
  560SOL    HW1 1679   2.061   1.197   3.096 -0.4911  0.6192 -0.2030
  560SOL    HW2 1680   2.196   1.096   3.067 -0.4636  0.0225 -1.1707
  561SOL     OW 1681   3.008   1.939   3.094  0.0087  0.1003  0.0461
  561SOL    HW1 1682   2.960   1.852   3.129 -1.6581 -0.0556 -0.2212
  561SOL    HW2 1683   2.947   2.018   3.055 -1.0109 -0.7964  0.8672
  562SOL     OW 1684   0.921   2.130   2.381 -0.0929 -0.0201  0.3267
  562SOL    HW1 1685   0.815   2.130   2.375  0.9653  1.9921  2.5921
  562SOL    HW2 1686   0.956   2.196   2.448  1.8750 -0.9891  3.9897
  563SOL     OW 1687   0.683   2.443   2.594 -0.0258  0.3435 -0.3507
  563SOL    HW1 1688   0.760   2.372   2.590 -2.5044 -0.3556  2.1785
  563SOL    HW2 1689   0.662   2.469   2.697 -1.5170 -1.1770  1.6707
  564SOL     OW 1690   2.755   1.301   2.896  0.6089 -0.2140  0.6717
  564SOL    HW1 1691   2.678   1.322   2.963 -0.9613 -1.8183  1.8618
  564SOL    HW2 1692   2.807   1.390   2.870  1.1693  0.0669 -0.0711
  565SOL     OW 1693   2.535   1.988   2.567  0.1249  0.5708  0.1746
  565SOL    HW1 1694   2.446   2.036   2.544  1.2342 -0.4817 -1.9162
  565SOL    HW2 1695   2.568   2.017   2.663 -1.0517  1.7176 -0.1436
  566SOL     OW 1696   2.010   2.874   1.321  0.0649 -0.3448 -0.0816
  566SOL    HW1 1697   1.942   2.803   1.295  0.1245  0.4228 -0.4354
  566SOL    HW2 1698   2.076   2.897   1.248 -0.4613  0.5376 -1.0360
  567SOL     OW 1699   2.442   0.130   2.218  0.3076 -0.0197  0.7932
  567SOL    HW1 1700   2.408   0.066   2.145 -0.7672  1.8027  3.2211
  567SOL    HW2 1701   2.412   0.224   2.198  1.4021  1.2441 -1.9047
  568SOL     OW 1702   1.548   1.816   0.283  0.2604  0.2850 -0.7032
  568SOL    HW1 1703   1.501   1.894   0.236 -0.6802 -0.4366  0.4097
  568SOL    HW2 1704   1.649   1.822   0.286 -2.0992 -3.5200 -5.4766
  569SOL     OW 1705   0.308   0.647   0.821 -0.1145  0.3727  0.4218
  569SOL    HW1 1706   0.367   0.565   0.781 -0.3469 -1.1133 -1.2996
  569SOL    HW2 1707   0.215   0.611   0.863  0.4952 -4.3399  1.3088
  570SOL     OW 1708   0.642   0.743   2.834  0.6984 -0.3412  0.6444
  570SOL    HW1 1709   0.706   0.740   2.749 -0.7445  1.9134 -1.0495
  570SOL    HW2 1710   0.628   0.842   2.869 -0.0312 -1.7066  0.3925
  571SOL     OW 1711   0.865   3.061   1.104 -0.3008 -0.0052  0.1093
  571SOL    HW1 1712   0.901   3.120   1.025 -0.9686  0.9985  1.1881
  571SOL    HW2 1713   0.896   2.965   1.096  0.4033 -0.5757 -2.0024
  572SOL     OW 1714   1.571   2.641   1.138  0.2452  0.2049 -0.3356
  572SOL    HW1 1715   1.504   2.580   1.189 -2.2619 -1.8319 -0.8323
  572SOL    HW2 1716   1.528   2.728   1.100 -1.2793  1.5557  0.5924
  573SOL     OW 1717   2.927   0.423   2.052 -0.1363 -0.8660  0.2469
  573SOL    HW1 1718   2.865   0.343   2.064  0.6769  0.3436 -0.3294
  573SOL    HW2 1719   2.875   0.506   2.015 -0.3165  1.2280 -2.3737
  574SOL     OW 1720   0.208   1.778   0.995  0.5218 -0.2708 -0.3472
  574SOL    HW1 1721   0.206   1.882   0.982 -0.3245 -1.0133  1.6027
  574SOL    HW2 1722   0.151   1.748   1.078 -4.5673  1.1195 -1.3946
  575SOL     OW 1723   0.802   2.164   0.963  0.1323 -0.1936  0.1767
  575SOL    HW1 1724   0.804   2.202   1.058  1.5955  0.4168  0.1535
  575SOL    HW2 1725   0.866   2.215   0.900 -0.2011  0.4080  0.2098
  576SOL     OW 1726   2.936   2.925   1.707 -0.0329  0.2743 -0.4522
  576SOL    HW1 1727   2.879   2.863   1.649  1.0670  3.0749 -0.7231
  576SOL    HW2 1728   2.927   3.024   1.675 -0.8633 -3.1301  0.9693
  577SOL     OW 1729   2.547   1.245   3.085 -0.1642 -0.3302 -0.0030
  577SOL    HW1 1730   2.558   1.157   3.033  0.3183  0.2548  3.7464
  577SOL    HW2 1731   2.613   1.253   3.168 -1.6052 -0.7040  0.0250
  578SOL     OW 1732   1.310   2.696   2.575  0.0226 -0.7995  0.4734
  578SOL    HW1 1733   1.241   2.745   2.517  1.1343 -0.1745 -3.3717
  578SOL    HW2 1734   1.383   2.762   2.607 -0.2041  2.4414  0.4943
  579SOL     OW 1735   0.117   2.514   0.105  0.3019 -0.2094  0.0987
  579SOL    HW1 1736   0.098   2.542   0.203 -1.1859  1.0109 -0.5095
  579SOL    HW2 1737   0.210   2.472   0.089 -1.0821  0.2571  1.2101
  580SOL     OW 1738   1.006   2.608   0.384 -0.0531 -0.4443 -0.2903
  580SOL    HW1 1739   1.094   2.635   0.338 -1.1117 -1.6283  1.2734
  580SOL    HW2 1740   0.927   2.579   0.324 -1.5876 -0.2593 -0.9785
  581SOL     OW 1741   1.237   2.624   1.513 -0.4945 -0.6036 -0.0894
  581SOL    HW1 1742   1.269   2.536   1.467 -2.1704  0.0933 -1.1390
  581SOL    HW2 1743   1.268   2.717   1.471  1.5283 -0.7631  1.3223
  582SOL     OW 1744   1.491   0.089   1.833 -0.1821  0.1840 -0.5726
  582SOL    HW1 1745   1.500   0.174   1.889  1.9288  0.1151 -1.4963
  582SOL    HW2 1746   1.578   0.078   1.772  1.7247  1.7847 -0.6490
  583SOL     OW 1747   2.501   2.973   0.536  0.4269  0.4291 -0.3648
  583SOL    HW1 1748   2.519   2.900   0.465 -0.5466  0.9696  1.4312
  583SOL    HW2 1749   2.447   2.929   0.614  0.4842 -4.7618  1.5900
  584SOL     OW 1750   1.616   1.026   2.085  0.2638 -0.2468  0.0884
  584SOL    HW1 1751   1.639   1.084   2.003 -0.5796 -2.2421  1.3222
  584SOL    HW2 1752   1.685   0.954   2.108 -0.3072 -1.0931  0.8116
  585SOL     OW 1753   2.092   2.644   2.905 -0.2530  0.8651  0.6280
  585SOL    HW1 1754   2.124   2.548   2.881  0.1404 -2.7436  0.6235
  585SOL    HW2 1755   1.993   2.645   2.913  0.9067 -0.0175  1.5121
  586SOL     OW 1756   2.736   0.241   1.515 -0.2600 -0.2897  0.4188
  586SOL    HW1 1757   2.778   0.315   1.569  0.4295 -2.4700 -0.4343
  586SOL    HW2 1758   2.649   0.210   1.564  1.9181 -0.3170 -1.7787
  587SOL     OW 1759   1.970   1.612   2.737  0.1236 -0.4324  0.2209
  587SOL    HW1 1760   2.018   1.574   2.652 -0.0264  1.2850  0.7565
  587SOL    HW2 1761   2.001   1.568   2.822  1.1028 -0.0127  0.0604
  588SOL     OW 1762   0.464   2.736   2.230 -0.3928 -0.0825  0.3273
  588SOL    HW1 1763   0.368   2.703   2.205  1.4672 -0.2338  1.5604
  588SOL    HW2 1764   0.512   2.680   2.301 -1.0589  1.2615  0.7263
  589SOL     OW 1765   2.106   1.441   2.545 -0.0698 -0.0905 -0.3084
  589SOL    HW1 1766   2.039   1.395   2.479  1.1617 -1.4922 -1.9487
  589SOL    HW2 1767   2.196   1.395   2.555 -1.2377  1.5721  0.5861
  590SOL     OW 1768   2.367   1.670   2.029 -0.1397 -0.0717 -0.0439
  590SOL    HW1 1769   2.442   1.607   1.995  0.1167  0.9916 -1.6559
  590SOL    HW2 1770   2.382   1.716   2.120 -0.9216 -2.2208  0.4090
  591SOL     OW 1771   1.373   2.419   0.273  0.7408 -0.1448 -0.3167
  591SOL    HW1 1772   1.466   2.421   0.232  0.3806  0.6453  0.8009
  591SOL    HW2 1773   1.375   2.397   0.374  1.1484 -1.9820 -0.9525
  592SOL     OW 1774   1.766   2.372   0.796  0.4876 -0.0496  0.2928
  592SOL    HW1 1775   1.739   2.382   0.695  0.9831  1.1851  2.3089
  592SOL    HW2 1776   1.866   2.343   0.805  2.9167  1.0574 -1.8534
  593SOL     OW 1777   0.639   0.260   0.077  0.8838  0.8138  0.6000
  593SOL    HW1 1778   0.733   0.228   0.049  0.2262  2.1996 -0.1064
  593SOL    HW2 1779   0.637   0.360   0.093  1.9406  4.1369  1.8001
  594SOL     OW 1780   0.965   1.892   2.692  0.6104 -0.5376  0.5399
  594SOL    HW1 1781   1.050   1.876   2.750  0.2822 -2.2398 -1.0356
  594SOL    HW2 1782   0.896   1.958   2.734  1.5953  0.7443  1.5979
  595SOL     OW 1783   1.535   0.052   1.014 -0.7915  0.5198 -0.1243
  595SOL    HW1 1784   1.598  -0.031   1.014  0.1131  1.1280  0.5550
  595SOL    HW2 1785   1.462   0.049   0.940  0.9535  2.0949  1.3131
  596SOL     OW 1786   3.073   1.462   2.208  0.1419  0.8964 -0.0220
  596SOL    HW1 1787   2.970   1.441   2.220  1.3951  1.2754  1.0783
  596SOL    HW2 1788   3.118   1.527   2.272  0.7140  0.2243  1.8010
  597SOL     OW 1789   2.054   2.618   1.641  0.2682  0.1925  0.4626
  597SOL    HW1 1790   2.084   2.565   1.551 -1.1655 -2.7143 -3.8936
  597SOL    HW2 1791   2.122   2.609   1.718  0.7786 -1.9033  0.7821
  598SOL     OW 1792   2.461   2.932   1.367  0.2489  0.3941 -0.9051
  598SOL    HW1 1793   2.560   2.968   1.391  2.0944 -1.5027  1.6551
  598SOL    HW2 1794   2.467   2.853   1.297 -2.0602 -3.3363 -0.4021
  599SOL     OW 1795   2.934   0.395   2.453  0.4299  0.1735  0.3704
  599SOL    HW1 1796   2.969   0.492   2.438 -1.3385  1.3837 -0.3740
  599SOL    HW2 1797   2.833   0.388   2.438  1.2598 -1.9487 -0.3614
  600SOL     OW 1798   2.825   1.128   2.697  0.3068 -0.3997  0.5105
  600SOL    HW1 1799   2.821   1.027   2.720 -2.4629 -1.5567  0.5018
  600SOL    HW2 1800   2.777   1.186   2.766 -1.5415  0.6419  2.3600
  601SOL     OW 1801   3.033   1.259   1.979 -0.9247  0.7235 -0.5501
  601SOL    HW1 1802   2.940   1.303   1.958 -1.9851 -0.2582 -0.4123
  601SOL    HW2 1803   3.109   1.326   1.981 -0.8594 -3.2825  0.3577
  602SOL     OW 1804   1.439   1.706   2.376  0.1310 -0.3869 -0.1858
  602SOL    HW1 1805   1.403   1.612   2.352  1.2277 -0.4133  0.7656
  602SOL    HW2 1806   1.546   1.714   2.364 -1.5469 -0.7828  1.0459
  603SOL     OW 1807   0.639   1.253   2.677 -0.1113 -0.5929  0.3603
  603SOL    HW1 1808   0.552   1.221   2.631  0.4805 -0.0274  1.1119
  603SOL    HW2 1809   0.713   1.177   2.683  0.2936 -3.3467 -2.1999
  604SOL     OW 1810   2.404   0.990   0.154  0.0517  0.1952 -0.4341
  604SOL    HW1 1811   2.438   1.076   0.097  3.5707  1.8228  0.1059
  604SOL    HW2 1812   2.436   0.903   0.106 -0.7127  1.1520 -0.5006
  605SOL     OW 1813   2.646   1.154   1.946 -0.3704 -0.1318 -0.0756
  605SOL    HW1 1814   2.614   1.064   1.903 -1.0455  2.6010  1.4578
  605SOL    HW2 1815   2.603   1.174   2.034 -0.2856  0.2303 -1.9502
  606SOL     OW 1816   1.518   2.504   2.657  0.2132  0.1412  0.1853
  606SOL    HW1 1817   1.452   2.572   2.622 -0.2574 -1.1721  3.3577
  606SOL    HW2 1818   1.496   2.404   2.624 -0.2326  0.0873 -1.9443
  607SOL     OW 1819   1.381   1.600   0.396  0.0074  0.1866 -0.0415
  607SOL    HW1 1820   1.415   1.601   0.493 -0.3888 -0.5598  1.3531
  607SOL    HW2 1821   1.425   1.680   0.345 -2.2152  0.1773  2.7892
  608SOL     OW 1822   1.439   2.824   0.411  0.1425 -0.2236 -0.6046
  608SOL    HW1 1823   1.522   2.869   0.370  0.1215  0.7726 -1.3081
  608SOL    HW2 1824   1.368   2.895   0.441  1.6148 -0.0620  3.8032
  609SOL     OW 1825   1.260   1.391   0.270  0.2608  0.5587  0.0983
  609SOL    HW1 1826   1.291   1.481   0.311 -0.3808 -0.6168  0.5492
  609SOL    HW2 1827   1.160   1.397   0.229 -0.7864  1.5676 -1.7806
  610SOL     OW 1828   3.010   1.133   2.237  0.7123 -0.0691 -0.9466
  610SOL    HW1 1829   2.996   1.030   2.236 -1.5832  0.2800 -0.7452
  610SOL    HW2 1830   2.999   1.178   2.144  3.8579  0.1536  1.1247
  611SOL     OW 1831   2.558   0.312   1.171  0.5756 -0.1854 -0.0172
  611SOL    HW1 1832   2.513   0.227   1.211  0.9100  0.0207  0.4069
  611SOL    HW2 1833   2.657   0.333   1.200  0.0052 -0.4979  0.4776
  612SOL     OW 1834   0.811   2.231   1.241 -0.3212  0.2151 -0.0457
  612SOL    HW1 1835   0.750   2.169   1.297 -1.8449 -0.3334 -1.8879
  612SOL    HW2 1836   0.766   2.317   1.203 -1.6840  0.2034 -2.0783
  613SOL     OW 1837   0.838   1.416   2.426 -0.0789 -0.4756 -0.1236
  613SOL    HW1 1838   0.888   1.403   2.336 -2.6517  0.6092 -0.1030
  613SOL    HW2 1839   0.754   1.358   2.431  1.0033  0.3071  2.5819
  614SOL     OW 1840   1.644   1.639   1.917 -0.3310  0.6238  0.3361
  614SOL    HW1 1841   1.586   1.707   1.971 -1.6944 -0.0279  0.3509
  614SOL    HW2 1842   1.733   1.616   1.966 -2.0341 -0.7897  3.0575
  615SOL     OW 1843   0.792   1.269   1.689 -0.0538 -0.1736 -0.3629
  615SOL    HW1 1844   0.707   1.271   1.632 -3.1704  4.5131 -2.6543
  615SOL    HW2 1845   0.857   1.341   1.656  2.0611  0.1291 -0.6137
  616SOL     OW 1846   1.076   1.611   2.300 -0.4138 -0.2318  0.6498
  616SOL    HW1 1847   1.006   1.599   2.226 -2.7170  1.3384 -0.1124
  616SOL    HW2 1848   1.110   1.711   2.304  2.2067  2.3941 -0.7052
  617SOL     OW 1849   2.915   1.537   1.613 -0.1848 -0.0985  0.0810
  617SOL    HW1 1850   2.914   1.460   1.686 -1.0479  2.4573  1.7782
  617SOL    HW2 1851   2.964   1.509   1.528 -1.4479 -1.1015 -0.8902
  618SOL     OW 1852   1.934   2.069   1.310  0.5613 -0.1874 -0.1338
  618SOL    HW1 1853   1.901   2.116   1.225  0.2174 -2.7124  0.2800
  618SOL    HW2 1854   1.929   1.965   1.292  1.8688  0.0198  0.8267
  619SOL     OW 1855   1.746   0.479   2.368  0.2925 -0.4323  0.2233
  619SOL    HW1 1856   1.666   0.508   2.310 -0.7539 -0.8805  0.7737
  619SOL    HW2 1857   1.730   0.378   2.393 -1.4909 -1.0315 -0.3359
  620SOL     OW 1858   2.332   2.954   0.752 -0.0328  0.4554 -0.0343
  620SOL    HW1 1859   2.288   3.044   0.780  1.1583  0.3199 -2.1611
  620SOL    HW2 1860   2.325   2.883   0.822  1.4945  0.3413  2.9208
  621SOL     OW 1861   2.096   1.816   1.330  0.5377  0.1849  0.0100
  621SOL    HW1 1862   2.100   1.822   1.434 -2.1775 -0.4626 -1.9144
  621SOL    HW2 1863   2.061   1.720   1.299 -0.3181 -1.2635 -1.2300
  622SOL     OW 1864   2.290   0.913   1.798  0.1114 -0.0858 -0.6783
  622SOL    HW1 1865   2.396   0.917   1.777  1.9252 -0.1509  0.0221
  622SOL    HW2 1866   2.267   0.850   1.875  2.9825  1.2701  0.2937
  623SOL     OW 1867   1.339   0.790   2.471 -0.1899 -0.0635  1.0048
  623SOL    HW1 1868   1.252   0.739   2.469 -0.1711  3.9345  0.9517
  623SOL    HW2 1869   1.317   0.884   2.447  0.1465 -0.1978  3.8396
  624SOL     OW 1870   0.566   0.672   3.086 -0.4624  0.5050 -0.4270
  624SOL    HW1 1871   0.611   0.695   2.997  1.8742 -0.6516  1.8661
  624SOL    HW2 1872   0.559   0.750   3.153 -0.4468  0.3897 -4.1676
  625SOL     OW 1873   2.771   1.723   0.997  0.0676 -0.0804  0.2827
  625SOL    HW1 1874   2.682   1.772   1.001  1.0828 -0.1851 -1.7327
  625SOL    HW2 1875   2.850   1.791   0.985  0.5122 -1.5851 -0.7474
  626SOL     OW 1876   0.621   2.699   1.706 -0.1859  0.5346 -0.1309
  626SOL    HW1 1877   0.668   2.777   1.754  0.2157 -0.5792  0.4620
  626SOL    HW2 1878   0.520   2.699   1.736 -1.6415  2.1200 -2.1336
  627SOL     OW 1879   0.694   0.955   1.560 -0.2855 -0.1987  0.0296
  627SOL    HW1 1880   0.622   0.905   1.512  3.0667  0.4497 -1.8148
  627SOL    HW2 1881   0.775   0.986   1.497 -1.0316  0.8220 -1.6494
  628SOL     OW 1882   2.495   0.136   0.656 -0.0160 -0.3692  0.4090
  628SOL    HW1 1883   2.510   0.053   0.594 -1.1997 -1.9408 -2.9913
  628SOL    HW2 1884   2.397   0.137   0.696  0.0892 -1.8957 -0.0270
  629SOL     OW 1885   1.939   0.931   2.086  0.3701 -0.3208  0.1704
  629SOL    HW1 1886   1.944   0.972   1.992  3.0924 -0.7959 -0.9571
  629SOL    HW2 1887   1.919   1.004   2.156  2.9609 -0.7189 -1.3127
  630SOL     OW 1888   2.920   2.330   0.818  0.3689 -0.5240  0.4482
  630SOL    HW1 1889   2.834   2.390   0.815  2.5121  0.0743 -0.7603
  630SOL    HW2 1890   2.891   2.232   0.798 -0.1247 -0.0932 -0.9295
  631SOL     OW 1891   3.082   0.142   2.182 -0.3842 -0.1783 -0.4535
  631SOL    HW1 1892   3.088   0.202   2.261  0.8812  0.0763 -0.3452
  631SOL    HW2 1893   3.079   0.196   2.091  0.5730  2.3713  1.3892
  632SOL     OW 1894   2.463   2.579   0.643 -0.2331  0.8151 -0.1168
  632SOL    HW1 1895   2.520   2.666   0.661  0.3160 -1.4125 -1.2216
  632SOL    HW2 1896   2.384   2.595   0.568  0.1408  1.7333 -2.0581
  633SOL     OW 1897   1.453   1.231   2.673 -0.0557  0.0128 -0.2012
  633SOL    HW1 1898   1.427   1.309   2.735 -1.3903 -0.3572 -3.5811
  633SOL    HW2 1899   1.387   1.236   2.594 -2.2759 -1.4428 -0.7065
  634SOL     OW 1900   0.635   1.983   0.874  0.2930 -0.1774  0.1308
  634SOL    HW1 1901   0.550   2.000   0.933 -1.6485  1.4115 -1.0295
  634SOL    HW2 1902   0.710   2.056   0.892  3.8921 -1.3655  0.0748
  635SOL     OW 1903   3.000   2.345   0.059  0.2437 -0.4052 -0.1168
  635SOL    HW1 1904   2.936   2.399  -0.002 -0.4577 -1.2907 -0.8564
  635SOL    HW2 1905   3.087   2.395   0.075  0.8112  0.9132  2.0051
  636SOL     OW 1906   2.333   2.741   1.955 -0.2731 -0.0642 -0.2085
  636SOL    HW1 1907   2.332   2.835   2.002 -0.6084 -1.7829 -0.4051
  636SOL    HW2 1908   2.262   2.679   2.004 -1.2355 -1.2595  2.0537
  637SOL     OW 1909   2.746   0.624   1.962 -0.3575  0.1464 -0.1586
  637SOL    HW1 1910   2.672   0.622   1.896  1.2304  0.5168 -1.7329
  637SOL    HW2 1911   2.752   0.715   2.019 -1.0187  2.8054  1.3375
  638SOL     OW 1912   2.421   1.841   1.310  0.1047 -0.6171 -0.1792
  638SOL    HW1 1913   2.319   1.832   1.318  0.4755  2.2154  0.1948
  638SOL    HW2 1914   2.465   1.754   1.349 -3.6331  0.3988  0.2636
  639SOL     OW 1915   1.301   2.168   1.699 -0.1200 -0.8315  0.0097
  639SOL    HW1 1916   1.345   2.262   1.692 -1.3658 -2.8283 -3.7091
  639SOL    HW2 1917   1.213   2.167   1.757 -0.4663  1.8924 -0.8719
  640SOL     OW 1918   0.221   1.199   1.591 -0.0702 -0.2086 -0.3536
  640SOL    HW1 1919   0.201   1.206   1.696 -0.0538  3.1386 -0.2296
  640SOL    HW2 1920   0.286   1.125   1.556 -0.2573  1.8029 -2.1908
  641SOL     OW 1921   2.019   0.319   1.453 -0.7697 -0.1680  0.6902
  641SOL    HW1 1922   1.960   0.360   1.522  0.6686 -0.9876  0.3513
  641SOL    HW2 1923   2.093   0.256   1.491  0.5104  1.7871 -0.8823
  642SOL     OW 1924   2.017   0.046   0.329 -0.2870 -0.4481 -0.1847
  642SOL    HW1 1925   2.105   0.016   0.378  1.2060  1.4965 -2.2725
  642SOL    HW2 1926   1.961   0.117   0.379 -0.0366 -2.2251  0.7759
  643SOL     OW 1927   2.923   1.787   2.123  0.0468  0.2571 -0.2181
  643SOL    HW1 1928   2.849   1.752   2.059  0.7860  0.0702 -1.3449
  643SOL    HW2 1929   2.944   1.891   2.114  3.3350 -0.3963  0.6091
  644SOL     OW 1930   2.266   2.402   1.205 -0.2802 -0.5193 -0.4418
  644SOL    HW1 1931   2.315   2.326   1.149  0.9272  0.5450  1.0123
  644SOL    HW2 1932   2.239   2.371   1.302  0.5593  1.7438  0.2026
  645SOL     OW 1933   0.568   0.864   1.284  0.2866  0.2273 -0.0345
  645SOL    HW1 1934   0.467   0.878   1.268  0.7877  1.2885 -2.2121
  645SOL    HW2 1935   0.623   0.917   1.213 -4.0772  2.0644 -0.6714
  646SOL     OW 1936   1.465   1.825   2.042  0.0371 -0.3595 -0.1320
  646SOL    HW1 1937   1.546   1.875   1.997  2.1431 -1.2594  1.2810
  646SOL    HW2 1938   1.474   1.821   2.145 -1.7610 -1.0077  0.5534
  647SOL     OW 1939   0.833   1.027   0.633 -0.5905 -0.4149  0.5201
  647SOL    HW1 1940   0.881   1.071   0.713 -1.6397 -1.2611 -1.4216
  647SOL    HW2 1941   0.770   0.955   0.665  0.7641  0.6781  0.7945
  648SOL     OW 1942   0.147   0.227   0.230  0.4852  0.2188  0.1497
  648SOL    HW1 1943   0.186   0.147   0.173  3.3170  0.9926  0.7770
  648SOL    HW2 1944   0.153   0.318   0.189 -1.0638  0.3937  1.9971
  649SOL     OW 1945   3.003   0.243   0.857 -0.0457  0.3782  0.2238
  649SOL    HW1 1946   3.088   0.193   0.886 -0.5026 -1.3438  1.8195
  649SOL    HW2 1947   3.017   0.347   0.856  1.1986  2.4296  0.8689
  650SOL     OW 1948   2.731   0.633   1.511  0.3529  0.2880 -0.6532
  650SOL    HW1 1949   2.629   0.641   1.538  2.2263  2.1651  0.7563
  650SOL    HW2 1950   2.750   0.712   1.443  0.7908 -0.2780 -2.0155
  651SOL     OW 1951   0.925   1.516   1.622  0.2580  0.0286 -0.4757
  651SOL    HW1 1952   0.960   1.599   1.671 -2.8127  0.8458 -0.1358
  651SOL    HW2 1953   0.984   1.483   1.543  1.6981 -1.7594 -1.8879
  652SOL     OW 1954   2.321   2.398   2.438 -0.9260  0.4467 -0.1280
  652SOL    HW1 1955   2.244   2.448   2.485 -0.2452 -0.5356 -0.4222
  652SOL    HW2 1956   2.360   2.451   2.359 -3.1657 -1.5518 -0.6833
  653SOL     OW 1957   2.688   1.266   0.239 -0.4507 -0.6332 -0.5293
  653SOL    HW1 1958   2.706   1.368   0.257 -1.5882  0.2419 -0.3013
  653SOL    HW2 1959   2.757   1.197   0.282  0.1565  1.5886  0.8928
  654SOL     OW 1960   1.273   2.229   1.287  0.2599 -0.0449  0.3598
  654SOL    HW1 1961   1.283   2.148   1.352 -2.1608  1.6020  2.4522
  654SOL    HW2 1962   1.297   2.217   1.184 -0.2574  0.1448 -0.0285
  655SOL     OW 1963   0.198   0.925   1.867  0.0703 -0.0383  0.0350
  655SOL    HW1 1964   0.261   0.869   1.805  1.0859 -0.1378 -0.8223
  655SOL    HW2 1965   0.208   1.030   1.859  0.0563  0.8947  1.3030
  656SOL     OW 1966   2.555   2.475   2.616  0.1800 -0.5154  0.0750
  656SOL    HW1 1967   2.652   2.468   2.576 -0.1641 -2.5974  1.1814
  656SOL    HW2 1968   2.483   2.451   2.547 -0.1590 -2.5774 -2.4503
  657SOL     OW 1969   3.000   1.004   1.872 -0.1368 -0.7866  0.2190
  657SOL    HW1 1970   3.007   1.092   1.928  1.7100  0.7367 -0.5360
  657SOL    HW2 1971   3.097   0.962   1.872 -1.0104  1.2717  1.1594
  658SOL     OW 1972   1.721   0.210   2.367  0.1099 -0.2310  0.0206
  658SOL    HW1 1973   1.744   0.144   2.442 -2.3615 -1.0666  0.5587
  658SOL    HW2 1974   1.719   0.165   2.271  1.2295  1.9254  0.9303
  659SOL     OW 1975   1.396   0.607   2.827  0.5599 -0.1159  0.6951
  659SOL    HW1 1976   1.460   0.683   2.810  1.1861 -1.4166 -1.8367
  659SOL    HW2 1977   1.300   0.643   2.857 -1.0611  0.4982  3.6151
  660SOL     OW 1978   1.386   0.346   1.426 -0.5840  0.0873 -0.2733
  660SOL    HW1 1979   1.408   0.384   1.518 -1.1044 -0.6799  1.3155
  660SOL    HW2 1980   1.447   0.266   1.402  4.7417 -0.5072  1.3615
  661SOL     OW 1981   2.376   1.232   0.675 -0.7112 -0.0592 -0.8071
  661SOL    HW1 1982   2.404   1.224   0.572 -1.3700  0.1328  2.0576
  661SOL    HW2 1983   2.319   1.317   0.690 -1.9122 -2.1921  2.1702
  662SOL     OW 1984   1.387   0.408   1.747  0.1505 -0.0405  0.0018
  662SOL    HW1 1985   1.334   0.337   1.803 -3.7103 -1.0478  0.5550
  662SOL    HW2 1986   1.384   0.503   1.787 -1.4656  0.7087 -1.5264
  663SOL     OW 1987   0.860   1.567   2.128  0.0259  0.4981  0.7913
  663SOL    HW1 1988   0.803   1.649   2.169  3.1750  5.3295 -0.6099
  663SOL    HW2 1989   0.812   1.506   2.065  2.2443  3.2869  0.5681
  664SOL     OW 1990   1.650   2.076   1.397  0.1628 -0.3696 -0.0137
  664SOL    HW1 1991   1.591   2.014   1.459  0.4586  1.2677 -1.6042
  664SOL    HW2 1992   1.745   2.040   1.384  0.0646 -3.5263 -2.2094
  665SOL     OW 1993   2.307   0.688   1.971  0.0113  0.4710  0.2607
  665SOL    HW1 1994   2.238   0.608   1.973  0.8924 -0.0352  2.6909
  665SOL    HW2 1995   2.376   0.687   2.047  2.7335 -0.2032 -0.5621
  666SOL     OW 1996   0.512   2.264   0.354  0.0358  0.9831 -0.1361
  666SOL    HW1 1997   0.554   2.342   0.407 -0.4757 -0.5043  1.4866
  666SOL    HW2 1998   0.409   2.262   0.371 -2.2596  1.3807 -1.8734
  667SOL     OW 1999   1.963   0.219   1.051  0.5867 -0.2289  0.2630
  667SOL    HW1 2000   1.991   0.320   1.054  2.7594  1.1903 -1.9964
  667SOL    HW2 2001   1.901   0.186   1.130 -0.5378  1.4688  0.7973
  668SOL     OW 2002   2.012   0.498   1.134 -0.1629 -0.5017  0.2304
  668SOL    HW1 2003   2.082   0.521   1.056  0.2715 -4.3402 -3.2150
  668SOL    HW2 2004   2.051   0.517   1.232 -1.0668  0.2490 -0.5308
  669SOL     OW 2005   3.072   2.179   1.012  0.2745 -0.3150 -0.1456
  669SOL    HW1 2006   3.051   2.241   0.931 -0.0920 -0.9150  2.5994
  669SOL    HW2 2007   3.024   2.220   1.102 -2.4318 -0.3860  1.1187
  670SOL     OW 2008   2.886   2.320   2.111  0.3945  0.0781 -0.7125
  670SOL    HW1 2009   2.799   2.310   2.172  2.1906 -1.9452 -2.0895
  670SOL    HW2 2010   2.887   2.409   2.065  0.9875 -1.9187  1.0902
  671SOL     OW 2011   1.792   1.810   1.473 -0.0380  0.3085 -0.2879
  671SOL    HW1 2012   1.805   1.800   1.370 -0.6864 -1.5469 -0.6334
  671SOL    HW2 2013   1.694   1.823   1.510  1.3364 -0.3104  1.0666
  672SOL     OW 2014   0.462   0.647   2.421 -0.3457 -0.2288 -0.6345
  672SOL    HW1 2015   0.488   0.677   2.328  2.5584 -2.2691 -0.7129
  672SOL    HW2 2016   0.363   0.677   2.440  0.8204  1.1260 -3.4384
  673SOL     OW 2017   0.157   1.167   1.143  0.1036 -0.5774  0.2781
  673SOL    HW1 2018   0.171   1.230   1.222  2.7339 -1.9863 -1.7457
  673SOL    HW2 2019   0.248   1.120   1.114 -0.1470 -1.1905 -1.2082
  674SOL     OW 2020   1.632   2.994   0.315  0.3560 -0.2939  0.3221
  674SOL    HW1 2021   1.592   3.086   0.312 -0.0433 -2.6887 -2.2484
  674SOL    HW2 2022   1.729   2.993   0.279  2.1477  0.7557 -1.3592
  675SOL     OW 2023   1.725   0.819   2.269  0.6601 -0.1889 -0.5057
  675SOL    HW1 2024   1.823   0.805   2.237 -0.1989 -0.8232 -2.8393
  675SOL    HW2 2025   1.661   0.742   2.239  0.1278 -1.7478 -1.3210
  676SOL     OW 2026   2.537   1.494   1.922 -0.2674 -0.4718  0.4090
  676SOL    HW1 2027   2.472   1.459   1.847 -0.6730 -3.4805 -2.1974
  676SOL    HW2 2028   2.552   1.416   1.989 -2.5628  2.6244  0.2022
  677SOL     OW 2029   1.921   0.712   0.919  0.0895  0.5239  0.3403
  677SOL    HW1 2030   1.850   0.745   0.988 -1.4096  3.3873 -1.0796
  677SOL    HW2 2031   1.947   0.610   0.928  1.4514 -2.2816 -1.1986
  678SOL     OW 2032   0.063   0.748   1.589 -0.2309  0.0682  0.4045
  678SOL    HW1 2033   0.166   0.760   1.583  1.4389 -3.9021  0.2109
  678SOL    HW2 2034   0.028   0.724   1.683 -0.8553  3.5804 -0.8752
  679SOL     OW 2035   2.568   1.181   1.216 -0.8962 -0.2539 -0.0129
  679SOL    HW1 2036   2.472   1.212   1.197  0.5159 -0.6504 -1.5668
  679SOL    HW2 2037   2.576   1.081   1.217  0.4580  0.0696 -0.0461
  680SOL     OW 2038   2.830   0.436   1.664  0.2170  0.0534  0.3548
  680SOL    HW1 2039   2.796   0.515   1.603  0.2863  1.8314  0.7844
  680SOL    HW2 2040   2.934   0.453   1.688  2.5590  1.4308 -1.1763
  681SOL     OW 2041   2.957   0.084   1.594  0.3344  0.5762  0.2176
  681SOL    HW1 2042   3.029   0.086   1.516 -0.5323  1.4522 -2.2854
  681SOL    HW2 2043   2.861   0.106   1.556 -4.0405  1.7697  0.7329
  682SOL     OW 2044   0.732   0.049   1.345  0.1944 -0.1918 -0.1831
  682SOL    HW1 2045   0.659  -0.017   1.385 -2.0755  0.0134 -1.8621
  682SOL    HW2 2046   0.762   0.023   1.248  0.1182 -1.1826 -2.5560
  683SOL     OW 2047   1.398   0.203   2.180 -0.2217 -0.1357  0.0289
  683SOL    HW1 2048   1.414   0.227   2.282 -1.4728  2.8329  2.1509
  683SOL    HW2 2049   1.466   0.250   2.111  1.0785  0.6438 -2.2038
  684SOL     OW 2050   1.455   2.069   0.500 -0.7398 -0.4277 -0.7351
  684SOL    HW1 2051   1.518   2.015   0.564  1.0500 -1.4164 -0.6622
  684SOL    HW2 2052   1.360   2.026   0.474 -0.0759 -1.3035 -1.3546
  685SOL     OW 2053   2.199   2.087   1.969  0.2033  0.4988 -0.1067
  685SOL    HW1 2054   2.241   2.087   1.873  0.9629  2.3299  3.6185
  685SOL    HW2 2055   2.273   2.064   2.044  2.2833  1.1166  1.4773
  686SOL     OW 2056   1.519   1.846   2.801 -0.0770 -0.2529  0.2055
  686SOL    HW1 2057   1.568   1.800   2.880 -0.7920  0.3312 -0.7699
  686SOL    HW2 2058   1.435   1.796   2.761 -0.7636  0.4633 -2.6382
  687SOL     OW 2059   1.340   2.449   1.983  0.3030 -0.0689 -0.1769
  687SOL    HW1 2060   1.358   2.344   1.973 -0.9462 -1.1858  0.1474
  687SOL    HW2 2061   1.405   2.487   2.052 -1.2602 -1.6086  2.3352
  688SOL     OW 2062   1.999   1.548   1.761  0.1790 -0.0792 -0.4482
  688SOL    HW1 2063   2.090   1.595   1.791  0.3751  2.1922 -0.0410
  688SOL    HW2 2064   2.005   1.493   1.672  0.9668 -4.5851 -0.4063
  689SOL     OW 2065   2.379   1.087   2.763  0.0992  0.1895 -0.3333
  689SOL    HW1 2066   2.307   1.015   2.785 -1.2406  1.0487 -0.7876
  689SOL    HW2 2067   2.438   1.095   2.847 -3.9193 -1.0079  3.1717
  690SOL     OW 2068   2.216   2.806   0.027  0.2957 -0.2364  0.4394
  690SOL    HW1 2069   2.163   2.777  -0.057 -1.3368 -2.4903  1.3475
  690SOL    HW2 2070   2.153   2.814   0.109 -3.4519  3.4816  3.8831
  691SOL     OW 2071   2.596   0.417   2.143  0.3117 -0.0800 -0.4838
  691SOL    HW1 2072   2.645   0.329   2.130  0.6239 -0.5437 -1.7095
  691SOL    HW2 2073   2.602   0.476   2.057 -1.0170  1.8584 -2.5841
  692SOL     OW 2074   2.666   1.218   0.752  0.4250 -0.1528 -0.0458
  692SOL    HW1 2075   2.565   1.195   0.759  2.7914 -0.1884 -2.2986
  692SOL    HW2 2076   2.692   1.302   0.807 -0.5049  1.9364 -2.7327
  693SOL     OW 2077   2.834   2.950   0.596 -0.6831  0.1419  0.8380
  693SOL    HW1 2078   2.825   3.016   0.674  0.4370  0.0600  0.6118
  693SOL    HW2 2079   2.820   2.983   0.496 -0.3266  0.0248  0.2656
  694SOL     OW 2080   2.398   2.245   0.086 -0.6092  0.2018  0.0910
  694SOL    HW1 2081   2.418   2.277   0.182 -2.1639  2.8764  0.0129
  694SOL    HW2 2082   2.307   2.207   0.071  1.0286 -0.7498 -0.3820
  695SOL     OW 2083   0.529   2.978   1.465  0.5915  0.5811  0.9911
  695SOL    HW1 2084   0.464   2.896   1.447  1.5635 -1.1187  0.9843
  695SOL    HW2 2085   0.478   3.054   1.515 -2.2303 -0.2455 -0.9591
  696SOL     OW 2086   2.846   2.064   0.765 -0.6695  0.1657 -0.0551
  696SOL    HW1 2087   2.904   1.981   0.788 -0.8434 -1.1263  0.1554
  696SOL    HW2 2088   2.814   2.068   0.668  1.8715 -0.0089  0.1377
  697SOL     OW 2089   1.649   1.940   1.848 -0.4370  0.8564 -0.4538
  697SOL    HW1 2090   1.735   1.884   1.847 -1.1504  0.2480  2.0816
  697SOL    HW2 2091   1.667   2.037   1.817 -2.4795  2.4776 -2.6355
  698SOL     OW 2092   2.896   0.401   2.739  0.3965 -0.4411 -0.0952
  698SOL    HW1 2093   2.904   0.401   2.636 -0.8310 -0.5924  2.1451
  698SOL    HW2 2094   2.969   0.350   2.783 -2.2733  0.2535  0.5567
  699SOL     OW 2095   1.545   0.044   2.933 -0.4662  0.3385 -0.0149
  699SOL    HW1 2096   1.492  -0.034   2.888 -0.7001  1.1057 -1.1550
  699SOL    HW2 2097   1.594   0.095   2.859 -3.0447  0.7578  0.2689
  700SOL     OW 2098   1.035   2.331   1.391 -0.7746  0.5251 -0.3442
  700SOL    HW1 2099   1.134   2.294   1.372 -0.2974  0.0698  0.7201
  700SOL    HW2 2100   0.966   2.262   1.362  2.7123 -0.0839  0.9690
  701SOL     OW 2101   1.935   2.901   3.088 -0.2669  0.2955 -0.7928
  701SOL    HW1 2102   1.884   2.849   3.158  3.5676 -2.6698 -2.1327
  701SOL    HW2 2103   1.951   2.999   3.112 -0.9127 -0.3461 -0.8962
  702SOL     OW 2104   2.073   1.321   1.955  0.5694  0.5584  0.0999
  702SOL    HW1 2105   2.161   1.302   1.907 -1.3506 -2.1999 -0.2602
  702SOL    HW2 2106   2.018   1.390   1.907 -0.4779 -0.4965  1.0722
  703SOL     OW 2107   1.928   0.921   1.457 -0.2970  0.2031 -0.1895
  703SOL    HW1 2108   1.900   0.836   1.506 -1.3387  0.2960 -2.0358
  703SOL    HW2 2109   2.001   0.974   1.505 -0.2109 -0.9476 -1.7105
  704SOL     OW 2110   0.283   2.024   1.744  0.0964 -0.0172 -0.2167
  704SOL    HW1 2111   0.338   1.963   1.805 -1.4327  2.7434 -1.2637
  704SOL    HW2 2112   0.329   2.117   1.728  0.2530  1.2131  2.4129
  705SOL     OW 2113   2.552   1.555   0.883  0.3689 -0.1340 -0.2208
  705SOL    HW1 2114   2.491   1.476   0.851 -1.1205 -0.1953 -1.4230
  705SOL    HW2 2115   2.652   1.537   0.882 -0.4675 -1.6554  1.4260
  706SOL     OW 2116   0.698   1.709   1.891 -0.5059 -0.0133  0.1990
  706SOL    HW1 2117   0.729   1.609   1.896 -2.2069  1.7495  0.5795
  706SOL    HW2 2118   0.755   1.773   1.943 -0.7525  0.2819 -0.7725
  707SOL     OW 2119   2.312   1.170   1.879 -0.0487 -0.0175 -0.6862
  707SOL    HW1 2120   2.361   1.170   1.971 -1.1005  3.0344 -0.7890
  707SOL    HW2 2121   2.299   1.073   1.846  2.2955  0.8972 -0.8778
  708SOL     OW 2122   2.964   0.526   3.040  0.4282 -0.4377 -0.0991
  708SOL    HW1 2123   2.975   0.595   2.965  1.7339 -2.1784  0.5552
  708SOL    HW2 2124   2.976   0.430   3.014  2.2559  2.6906  0.7631
  709SOL     OW 2125   1.832   1.873   0.306 -0.4673  0.1030 -0.0908
  709SOL    HW1 2126   1.882   1.967   0.320 -1.1488 -0.1418  0.6114
  709SOL    HW2 2127   1.836   1.845   0.205  1.9164  0.3681  1.3653
  710SOL     OW 2128   1.700   1.617   2.380 -0.4086 -0.0824 -0.0639
  710SOL    HW1 2129   1.800   1.620   2.349 -0.7856  1.0856 -2.1255
  710SOL    HW2 2130   1.700   1.598   2.480 -1.4885  0.4032 -0.7349
  711SOL     OW 2131   2.566   2.928   1.090  0.3035  0.4243  0.8283
  711SOL    HW1 2132   2.521   3.019   1.080  1.1190 -0.1793  0.1185
  711SOL    HW2 2133   2.668   2.924   1.080 -1.7023 -0.2635  1.4768
  712SOL     OW 2134   1.404   2.160   1.971 -0.5446  0.6872  0.0695
  712SOL    HW1 2135   1.500   2.196   1.984  1.2999  0.5479 -1.2526
  712SOL    HW2 2136   1.388   2.113   1.879 -0.8644 -1.8601 -1.6542
  713SOL     OW 2137   2.786   1.472   2.493 -0.3155  0.5212  0.1300
  713SOL    HW1 2138   2.787   1.375   2.460  1.7864  1.8541  1.3940
  713SOL    HW2 2139   2.696   1.488   2.543 -0.1553  2.0066  0.0276
  714SOL     OW 2140   2.650   0.444   2.412  0.4191  0.3161  0.5478
  714SOL    HW1 2141   2.572   0.414   2.474 -0.7644  1.6872  3.4502
  714SOL    HW2 2142   2.629   0.420   2.310 -0.4908 -1.8354 -2.5061
  715SOL     OW 2143   1.533   2.063   1.151  0.1638 -0.5920 -0.5978
  715SOL    HW1 2144   1.451   2.120   1.139  0.0090 -1.7945  0.1447
  715SOL    HW2 2145   1.565   2.056   1.253 -0.7391 -2.2997 -0.4483
  716SOL     OW 2146   1.174   0.120   1.508  0.2947  0.1798  0.5271
  716SOL    HW1 2147   1.078   0.132   1.455 -1.2023 -0.4528 -1.3360
  716SOL    HW2 2148   1.226   0.212   1.519 -0.9259 -2.8314 -0.4676
  717SOL     OW 2149   1.169   0.551   1.589  0.5901  0.1323 -0.9771
  717SOL    HW1 2150   1.256   0.606   1.598  0.8263 -0.0953  2.1124
  717SOL    HW2 2151   1.145   0.513   1.495 -0.8689  0.2767  0.9089
  718SOL     OW 2152   0.670   0.874   0.983  0.3352 -0.7313  0.1801
  718SOL    HW1 2153   0.649   0.859   0.881  1.3952 -0.0779  1.9738
  718SOL    HW2 2154   0.662   0.973   1.017 -0.9806 -1.2801  2.9829
  719SOL     OW 2155   0.677   1.708   2.305  0.5898 -0.7118 -0.4662
  719SOL    HW1 2156   0.729   1.775   2.372  2.7427 -1.3035  2.9277
  719SOL    HW2 2157   0.662   1.617   2.340 -0.9410 -1.4768  0.5237
  720SOL     OW 2158   2.195   1.126   0.270 -0.2497 -0.5748 -0.2052
  720SOL    HW1 2159   2.260   1.056   0.225 -0.4174  0.3664 -0.3179
  720SOL    HW2 2160   2.143   1.084   0.356 -3.8290 -1.5203 -0.9041
  721SOL     OW 2161   2.253   3.027   2.069  0.8093 -0.3396 -0.0819
  721SOL    HW1 2162   2.207   3.065   1.982 -1.8368  0.5713 -1.2152
  721SOL    HW2 2163   2.201   3.037   2.156 -0.2486  1.0635  0.6090
  722SOL     OW 2164   2.297   1.597   0.458 -0.3492 -0.0987  0.4443
  722SOL    HW1 2165   2.364   1.573   0.384  1.1072  0.8854  0.6219
  722SOL    HW2 2166   2.207   1.632   0.429  0.0507 -1.8948 -1.8631
  723SOL     OW 2167   2.644   2.675   1.883 -0.1490 -0.0588 -0.2176
  723SOL    HW1 2168   2.680   2.751   1.942  2.4239 -0.2822  0.2055
  723SOL    HW2 2169   2.550   2.642   1.914 -1.8715 -0.2855  2.3610
  724SOL     OW 2170   0.502   2.513   2.402 -0.1156  0.3961  0.2518
  724SOL    HW1 2171   0.411   2.508   2.451  0.4261  2.0473  0.3443
  724SOL    HW2 2172   0.582   2.469   2.454  0.4855 -3.6069 -0.2830
  725SOL     OW 2173   2.368   2.714   1.492 -0.5321  0.3975 -0.2703
  725SOL    HW1 2174   2.429   2.794   1.466  1.8904  1.9351 -1.6238
  725SOL    HW2 2175   2.420   2.630   1.526  2.1785 -1.3021  3.3539
  726SOL     OW 2176   2.494   2.318   0.730  0.3044 -0.1859  0.2375
  726SOL    HW1 2177   2.479   2.410   0.689  2.2873 -3.6237  1.6716
  726SOL    HW2 2178   2.497   2.244   0.655  0.3688 -3.4207 -1.3162
  727SOL     OW 2179   0.176   3.063   0.109  0.5715 -0.4454 -0.6305
  727SOL    HW1 2180   0.250   3.054   0.040 -0.7482 -0.5626 -1.0646
  727SOL    HW2 2181   0.077   3.064   0.070 -1.4341 -2.3247 -0.9073
  728SOL     OW 2182   2.879   0.687   0.898 -0.4156 -0.0480  0.2087
  728SOL    HW1 2183   2.803   0.693   0.829 -0.4740  1.4969  1.3918
  728SOL    HW2 2184   2.852   0.681   0.999  3.2813 -0.5349  1.9563
  729SOL     OW 2185   0.026   2.547   0.714 -0.1138 -0.3056 -0.1363
  729SOL    HW1 2186   0.002   2.470   0.771 -0.9064  0.4053 -0.9264
  729SOL    HW2 2187   0.114   2.531   0.661 -1.0579 -0.3244  0.6548
  730SOL     OW 2188   2.567   0.692   0.827  0.8658  0.4055  0.0521
  730SOL    HW1 2189   2.568   0.797   0.836  0.6493  0.3220  1.1634
  730SOL    HW2 2190   2.614   0.663   0.741 -1.4133  2.3259  1.6380
  731SOL     OW 2191   0.026   2.180   2.435 -0.1906 -0.2706 -0.0320
  731SOL    HW1 2192   0.033   2.247   2.514  2.7094 -0.1770 -1.1117
  731SOL    HW2 2193  -0.050   2.198   2.369  1.3271 -1.1787 -1.3339
  732SOL     OW 2194   1.189   2.834   1.986  0.1332  0.5500 -0.0412
  732SOL    HW1 2195   1.215   2.762   2.054  0.4519 -0.6287 -0.4016
  732SOL    HW2 2196   1.180   2.790   1.893  0.7059  1.0152 -1.2079
  733SOL     OW 2197   3.033   0.632   2.227 -0.5259 -0.1777  0.2473
  733SOL    HW1 2198   3.127   0.668   2.198 -3.1028  1.6034 -0.6561
  733SOL    HW2 2199   3.012   0.547   2.174 -0.1113 -2.2061 -1.3554
  734SOL     OW 2200   1.418   0.369   2.678 -0.2856  0.3980  0.2970
  734SOL    HW1 2201   1.445   0.461   2.721  0.1708 -1.6934  1.3063
  734SOL    HW2 2202   1.343   0.321   2.733 -0.0429 -0.6274 -3.6069
  735SOL     OW 2203   2.888   2.610   2.291 -0.1193 -0.0675  0.1356
  735SOL    HW1 2204   2.858   2.576   2.203  1.9192  4.6320  1.3315
  735SOL    HW2 2205   2.975   2.664   2.284 -1.2426 -2.1079  1.4232
  736SOL     OW 2206   0.933   0.437   2.547 -0.1371 -1.0117  0.3744
  736SOL    HW1 2207   0.860   0.514   2.542 -0.6389 -1.3581  1.9465
  736SOL    HW2 2208   0.925   0.360   2.476 -0.8141  2.9884 -2.0051
  737SOL     OW 2209   2.623   0.475   2.829  0.1795 -0.6300 -0.1665
  737SOL    HW1 2210   2.587   0.425   2.920  2.0072  0.2773  2.2770
  737SOL    HW2 2211   2.721   0.453   2.809 -1.2924 -2.8577 -0.5790
  738SOL     OW 2212   1.720   1.258   2.903 -0.4760 -0.1576  0.0352
  738SOL    HW1 2213   1.819   1.224   2.894  2.1877 -0.0458 -0.8557
  738SOL    HW2 2214   1.650   1.227   2.831 -0.1497 -0.7296 -1.2512
  739SOL     OW 2215   1.760   0.705   0.679  0.0932  0.2964 -0.1107
  739SOL    HW1 2216   1.802   0.703   0.775  0.6299  0.7657 -2.8135
  739SOL    HW2 2217   1.763   0.613   0.634 -0.3576  1.3806  1.8949
  740SOL     OW 2218   1.943   1.907   2.377  0.4757 -0.6557 -0.2408
  740SOL    HW1 2219   2.001   1.830   2.409  1.7258  2.4471 -1.3486
  740SOL    HW2 2220   1.897   1.879   2.282 -0.8791  1.1319  0.4318
  741SOL     OW 2221   2.579   0.123   2.527  0.0296  0.2149 -0.2209
  741SOL    HW1 2222   2.681   0.094   2.532  1.1730  0.4043  0.6512
  741SOL    HW2 2223   2.526   0.091   2.446  0.4241  2.2726  1.6706
  742SOL     OW 2224   2.209   1.375   0.162 -0.0041  0.0895  0.0400
  742SOL    HW1 2225   2.118   1.415   0.166  2.4744 -1.6864  2.2629
  742SOL    HW2 2226   2.203   1.277   0.188 -2.9652  2.3639  0.4992
  743SOL     OW 2227   1.748   0.617   2.633 -0.0076 -0.3480 -0.3030
  743SOL    HW1 2228   1.783   0.561   2.544  2.3567 -1.3492 -0.2312
  743SOL    HW2 2229   1.699   0.704   2.607 -0.7496  1.2900  3.0487
  744SOL     OW 2230   2.706   2.007   0.062 -0.1571  0.0519  0.0099
  744SOL    HW1 2231   2.634   2.074   0.100  0.5917 -3.0952 -0.9987
  744SOL    HW2 2232   2.684   1.907   0.087  0.4183 -0.0448  3.8652
  745SOL     OW 2233   2.175   2.650   2.138  0.3764  0.3136  0.1241
  745SOL    HW1 2234   2.079   2.689   2.144 -0.5538 -2.4537 -3.0761
  745SOL    HW2 2235   2.236   2.683   2.214  0.6758 -1.1558 -0.5754
  746SOL     OW 2236   0.011   2.647   1.725 -0.4284  0.1509 -0.0127
  746SOL    HW1 2237   0.073   2.559   1.735  0.6534 -0.7160  0.8910
  746SOL    HW2 2238  -0.005   2.709   1.810  0.9207  1.2073 -2.0630
  747SOL     OW 2239   3.080   1.746   1.668 -0.4540  0.3816  0.5071
  747SOL    HW1 2240   3.001   1.680   1.636 -0.1222 -2.3570 -1.2214
  747SOL    HW2 2241   3.159   1.762   1.607  0.3505  1.5174  0.5303
  748SOL     OW 2242   1.812   2.713   2.909  0.3805  0.2461  0.1933
  748SOL    HW1 2243   1.846   2.792   2.966 -1.0969 -1.4905  0.4327
  748SOL    HW2 2244   1.708   2.714   2.889 -1.9178  0.6605  0.2228
  749SOL     OW 2245   1.328   3.023   0.854  0.2493 -0.7747 -0.0323
  749SOL    HW1 2246   1.244   2.951   0.842 -2.4605 -0.7095  1.9169
  749SOL    HW2 2247   1.409   2.993   0.802 -0.0712 -1.9925 -0.5605
  750SOL     OW 2248   2.303   0.199   1.863  0.0167  0.4217 -0.0960
  750SOL    HW1 2249   2.314   0.258   1.777  0.7003 -1.1499  0.5613
  750SOL    HW2 2250   2.305   0.254   1.947  0.7632 -1.4182 -0.8172
  751SOL     OW 2251   0.779   2.038   2.835  0.7052 -0.4461  0.2008
  751SOL    HW1 2252   0.868   2.049   2.891  1.1221  0.9087  1.4474
  751SOL    HW2 2253   0.690   2.052   2.891 -2.9189 -1.3047 -0.1181
  752SOL     OW 2254   1.316   0.849   1.270 -0.4592  0.0146 -0.3614
  752SOL    HW1 2255   1.402   0.901   1.255 -1.3038  0.7587  1.0704
  752SOL    HW2 2256   1.335   0.758   1.319  1.2926 -0.5574  0.5223
  753SOL     OW 2257   0.936   2.640   1.816 -0.0794  0.3301 -0.2530
  753SOL    HW1 2258   1.034   2.654   1.792  0.1631 -0.1025 -0.9108
  753SOL    HW2 2259   0.889   2.731   1.842 -0.5358  0.6907 -0.1245
  754SOL     OW 2260   1.140   1.189   3.031  0.5542 -0.4707 -0.3203
  754SOL    HW1 2261   1.212   1.128   2.979  0.2923 -0.0187  2.5209
  754SOL    HW2 2262   1.177   1.282   3.062 -0.9351 -0.7301 -0.7012
  755SOL     OW 2263   2.003   0.498   2.251  0.8196  0.0431  0.1371
  755SOL    HW1 2264   2.047   0.406   2.256 -1.5383  1.5701 -0.6628
  755SOL    HW2 2265   1.919   0.511   2.319 -3.0736 -0.4512 -2.3481
  756SOL     OW 2266   2.588   1.000   2.964  0.1504 -0.0286 -0.2073
  756SOL    HW1 2267   2.689   1.008   2.987  0.2004  3.2403  0.3134
  756SOL    HW2 2268   2.542   0.910   2.988 -0.9298 -2.6209  1.5197
  757SOL     OW 2269   0.099   0.480   2.019 -0.5636 -0.5092  0.0651
  757SOL    HW1 2270   0.159   0.419   1.953 -2.2097 -2.6913 -2.1633
  757SOL    HW2 2271   0.006   0.435   2.031  2.9694  2.3326  0.5165
  758SOL     OW 2272   2.226   0.098   1.483  0.7294  0.3852 -0.7882
  758SOL    HW1 2273   2.228  -0.001   1.517  1.4050  1.3846 -0.3223
  758SOL    HW2 2274   2.272   0.102   1.391  0.8323 -0.4072  0.4620
  759SOL     OW 2275   1.678   0.132   0.075  0.0079 -0.0513 -0.1838
  759SOL    HW1 2276   1.625   0.113  -0.012 -1.5878  1.1498  1.4787
  759SOL    HW2 2277   1.781   0.113   0.057  2.2471 -1.1743 -1.9198
  760SOL     OW 2278   2.581   2.047   2.839  0.9969 -0.4438  0.3373
  760SOL    HW1 2279   2.608   1.960   2.889 -1.0097 -2.3115  1.8050
  760SOL    HW2 2280   2.613   2.133   2.888  1.7992 -0.6054 -0.9042
  761SOL     OW 2281   1.864   1.783   1.729 -0.6974 -0.0950 -0.3041
  761SOL    HW1 2282   1.885   1.688   1.758 -0.1001  0.0844  0.7081
  761SOL    HW2 2283   1.820   1.793   1.635 -0.6065  0.4859 -1.6891
  762SOL     OW 2284   0.491   2.367   0.962  0.4003 -0.0505  0.3750
  762SOL    HW1 2285   0.522   2.365   0.865  0.2715  1.4334  0.5402
  762SOL    HW2 2286   0.560   2.419   1.025 -0.9314 -0.6292  0.1093
  763SOL     OW 2287   2.097   1.577   3.009 -0.2577  0.4309 -0.0671
  763SOL    HW1 2288   2.162   1.506   2.978 -1.1719  2.9618 -0.3949
  763SOL    HW2 2289   2.026   1.528   3.066 -3.6222 -0.8168 -2.1385
  764SOL     OW 2290   0.683   0.580   0.743  0.0781 -0.0183  0.1753
  764SOL    HW1 2291   0.606   0.512   0.726  0.5671 -0.2401 -0.9001
  764SOL    HW2 2292   0.767   0.536   0.778  0.7992 -2.1567  2.0277
  765SOL     OW 2293   0.777   0.251   0.788 -0.3639  0.0784 -0.0773
  765SOL    HW1 2294   0.823   0.300   0.700  1.3578 -1.8817 -0.8232
  765SOL    HW2 2295   0.737   0.317   0.852 -0.3000 -0.3460 -0.9597
  766SOL     OW 2296   2.858   2.159   2.985 -0.0210 -0.4578  0.2984
  766SOL    HW1 2297   2.794   2.111   3.049  0.5547  1.9369 -0.4050
  766SOL    HW2 2298   2.894   2.241   3.036 -1.1112  2.8502 -0.9406
  767SOL     OW 2299   2.782   1.676   0.575 -0.1868  0.2377  0.3060
  767SOL    HW1 2300   2.683   1.690   0.576 -1.3431 -1.4924  0.7417
  767SOL    HW2 2301   2.834   1.736   0.642  1.6602  1.0530  0.9292
  768SOL     OW 2302   1.030   0.091   0.234 -0.1305 -0.7855  0.0394
  768SOL    HW1 2303   1.002   0.085   0.334 -1.3132 -2.2736 -1.4580
  768SOL    HW2 2304   1.135   0.085   0.227  2.5240 -1.5056 -1.0097
  769SOL     OW 2305   1.101   1.882   2.339  0.1919 -0.4174 -0.0118
  769SOL    HW1 2306   0.998   1.882   2.331 -1.2456  1.2967  0.4305
  769SOL    HW2 2307   1.131   1.873   2.439  2.4166 -0.5963 -1.9765
  770SOL     OW 2308   0.170   1.156   2.298 -0.4844  0.6015  0.0387
  770SOL    HW1 2309   0.200   1.208   2.381  0.4828  2.6312 -1.3535
  770SOL    HW2 2310   0.066   1.137   2.294  0.8271 -0.1983 -0.0124
  771SOL     OW 2311   3.067   2.843   1.936 -0.5154 -0.1945 -0.2566
  771SOL    HW1 2312   3.017   2.867   1.852 -1.4606 -1.2723  1.4364
  771SOL    HW2 2313   3.035   2.890   2.022  3.8091 -0.5364  0.8555
  772SOL     OW 2314   2.237   0.175   2.862 -0.0816 -0.6511  0.4976
  772SOL    HW1 2315   2.321   0.129   2.828 -2.2247 -0.5021  1.9938
  772SOL    HW2 2316   2.254   0.221   2.954  1.0753  0.3186  0.9027
  773SOL     OW 2317   0.652   2.111   2.387  0.0554 -0.3343  0.4303
  773SOL    HW1 2318   0.617   2.161   2.305  3.2276 -0.2578  1.1999
  773SOL    HW2 2319   0.602   2.147   2.470  3.3016 -1.9687 -1.1111
  774SOL     OW 2320   2.089   3.066   2.592 -0.8022  0.5213  0.3597
  774SOL    HW1 2321   2.090   3.161   2.630  0.4285 -0.4728 -0.7869
  774SOL    HW2 2322   2.141   2.992   2.656  1.1475 -0.3946  1.5060
  775SOL     OW 2323   2.563   2.979   2.263  0.0085 -0.1569  1.0239
  775SOL    HW1 2324   2.536   3.079   2.250  1.8295 -2.3934 -0.3439
  775SOL    HW2 2325   2.619   2.964   2.349 -0.1351 -1.1045  0.8573
  776SOL     OW 2326   0.022   1.232   0.196 -0.0857  0.1224  0.1667
  776SOL    HW1 2327  -0.019   1.210   0.105  1.2990  0.3452 -1.2612
  776SOL    HW2 2328  -0.044   1.229   0.279 -0.4869 -2.0847 -0.0191
  777SOL     OW 2329   0.393   2.893   0.364 -0.5575 -0.2732 -0.4581
  777SOL    HW1 2330   0.291   2.896   0.339 -2.8645 -1.3044  0.4265
  777SOL    HW2 2331   0.451   2.891   0.279  0.0941 -0.2045 -1.5373
  778SOL     OW 2332   1.340   1.978   0.162  0.1373 -0.3765  0.1552
  778SOL    HW1 2333   1.287   2.007   0.245  1.5671 -0.1612 -1.2320
  778SOL    HW2 2334   1.391   2.059   0.112 -0.9408  1.0981 -0.0075
  779SOL     OW 2335   0.183   0.906   0.486  0.3133 -0.4098  0.3087
  779SOL    HW1 2336   0.156   0.807   0.479  2.1038  1.9379  0.2671
  779SOL    HW2 2337   0.133   0.950   0.569 -2.6554  1.4924  0.9019
  780SOL     OW 2338   0.106   0.312   2.422 -0.6116 -0.2431  0.0117
  780SOL    HW1 2339   0.089   0.400   2.478 -2.3084  1.6616  0.0539
  780SOL    HW2 2340   0.199   0.309   2.375 -2.0631  0.8500 -0.2162
  781SOL     OW 2341   0.658   1.646   1.530 -0.3343 -0.4142  0.2596
  781SOL    HW1 2342   0.702   1.592   1.604 -1.0738  0.1449  0.9908
  781SOL    HW2 2343   0.553   1.648   1.531 -0.4818  1.7984  1.0250
  782SOL     OW 2344   2.611   0.140   0.913  0.0134 -0.2788 -0.1529
  782SOL    HW1 2345   2.579   0.182   0.826 -0.0214 -2.1194 -0.9148
  782SOL    HW2 2346   2.597   0.214   0.988 -0.9293  1.0483  0.9722
  783SOL     OW 2347   2.786   0.675   2.449  0.1717 -0.2024  0.7034
  783SOL    HW1 2348   2.779   0.701   2.549 -0.8833 -0.0864 -2.3018
  783SOL    HW2 2349   2.729   0.591   2.425  1.1202  4.2165  0.6930
  784SOL     OW 2350   1.481   2.171   0.030  0.3940  0.5234 -0.4181
  784SOL    HW1 2351   1.507   2.260   0.069  0.0600 -2.7534  0.7276
  784SOL    HW2 2352   1.426   2.184  -0.061  0.3252  1.6879 -3.4334
  785SOL     OW 2353   2.074   0.321   0.053  0.3380  0.4097  0.3896
  785SOL    HW1 2354   1.983   0.320   0.103  1.8565  0.8234  1.7502
  785SOL    HW2 2355   2.101   0.419   0.032 -0.4346 -3.1308 -0.4660
  786SOL     OW 2356   2.073   2.188   2.263  0.3167  0.0932  0.6594
  786SOL    HW1 2357   2.011   2.110   2.303  2.8222 -2.0038  0.9894
  786SOL    HW2 2358   2.157   2.146   2.228 -3.6602  0.9608  0.2151
  787SOL     OW 2359   1.344   0.493   0.915  0.2989 -0.9516 -0.3931
  787SOL    HW1 2360   1.293   0.581   0.942  0.9352  0.6252  0.0406
  787SOL    HW2 2361   1.398   0.508   0.833 -0.8045  0.8798  3.5437
  788SOL     OW 2362   1.276   0.387   0.082  0.4498  0.5105  0.2608
  788SOL    HW1 2363   1.186   0.343   0.071  2.4931  1.7661  0.9225
  788SOL    HW2 2364   1.255   0.476   0.127  2.2081 -0.9051 -1.6838
  789SOL     OW 2365   2.563   0.075   1.940  0.2500 -0.2240  0.3129
  789SOL    HW1 2366   2.467   0.080   1.917  2.3004 -2.5748  0.5487
  789SOL    HW2 2367   2.608  -0.022   1.946 -2.6487  0.9840  0.3959
  790SOL     OW 2368   2.611   2.804   0.788 -0.2791  0.0911  0.1390
  790SOL    HW1 2369   2.625   2.866   0.702  0.6473  0.5712 -0.6111
  790SOL    HW2 2370   2.610   2.864   0.873  1.0039  1.2297  3.1978
  791SOL     OW 2371   1.899   1.204   0.222 -0.0961 -0.1581 -0.8638
  791SOL    HW1 2372   1.809   1.164   0.247 -1.7734 -0.0476 -1.6719
  791SOL    HW2 2373   1.971   1.128   0.233  0.3328 -2.3458 -0.0803
  792SOL     OW 2374   0.435   1.775   2.141  0.4451  0.3239  0.0909
  792SOL    HW1 2375   0.505   1.704   2.170  0.1930  0.2927 -1.7542
  792SOL    HW2 2376   0.358   1.781   2.210 -0.0110 -0.1642 -0.2236
  793SOL     OW 2377   2.107   1.560   2.138 -0.5128 -0.4182  0.1570
  793SOL    HW1 2378   2.201   1.603   2.126  0.2801 -1.1141  1.6466
  793SOL    HW2 2379   2.107   1.463   2.099  0.4599  0.2872  1.2973
  794SOL     OW 2380   0.542   1.392   2.343 -0.4100 -0.2604  0.0842
  794SOL    HW1 2381   0.533   1.390   2.238 -1.1400 -2.7860  1.8297
  794SOL    HW2 2382   0.487   1.472   2.381 -0.6948 -2.0999 -2.4178
  795SOL     OW 2383   2.517   2.269   1.835  0.0453 -0.3738  0.3620
  795SOL    HW1 2384   2.538   2.236   1.932 -0.3354  2.1749  0.1558
  795SOL    HW2 2385   2.425   2.229   1.800  0.0628  2.3479 -0.1022
  796SOL     OW 2386   3.089   1.120   2.677 -0.2389 -0.0242  0.0902
  796SOL    HW1 2387   2.985   1.126   2.678  0.2876  1.7121 -2.2738
  796SOL    HW2 2388   3.126   1.130   2.772  1.0606  0.0013 -0.6342
  797SOL     OW 2389   0.747   0.677   1.408 -0.0622 -0.0621  0.0862
  797SOL    HW1 2390   0.820   0.722   1.468 -1.6210  1.0471  0.2056
  797SOL    HW2 2391   0.678   0.740   1.363  1.7799 -1.7948 -2.0721
  798SOL     OW 2392   1.277   0.332   1.132 -0.2410 -0.1582  0.5160
  798SOL    HW1 2393   1.332   0.350   1.212 -3.2279  0.5331 -1.8109
  798SOL    HW2 2394   1.298   0.391   1.047 -0.7153 -3.0057  0.6133
  799SOL     OW 2395   1.966   2.715   1.059 -0.3761  0.1158  0.3348
  799SOL    HW1 2396   1.900   2.694   1.137 -0.9807 -0.2018 -0.2039
  799SOL    HW2 2397   1.923   2.722   0.959  1.1568  0.1142 -1.0066
  800SOL     OW 2398   3.049   0.630   1.824  0.2253  0.5534 -0.2859
  800SOL    HW1 2399   2.973   0.663   1.886  2.3690 -0.0804 -0.6000
  800SOL    HW2 2400   3.125   0.587   1.882 -2.6617  0.3527  0.3513
  801SOL     OW 2401   1.971   2.247   0.069 -0.4130 -0.2853 -0.2322
  801SOL    HW1 2402   1.884   2.241   0.012 -1.2491 -1.0543  2.1969
  801SOL    HW2 2403   2.041   2.172   0.053  1.3562  0.0063  0.1429
  802SOL     OW 2404   0.725   0.830   2.560 -0.0236 -0.0925 -0.0099
  802SOL    HW1 2405   0.782   0.786   2.482 -0.5616 -0.4449  3.1584
  802SOL    HW2 2406   0.634   0.859   2.524 -1.1287  0.4305 -2.5977
  803SOL     OW 2407   0.962   0.073   0.877  0.1763 -0.3914 -0.2087
  803SOL    HW1 2408   1.058   0.102   0.889 -3.2888 -0.3263 -0.6929
  803SOL    HW2 2409   0.896   0.150   0.848  1.6288 -1.6339  0.7453
  804SOL     OW 2410   0.279   0.028   2.142  0.2379 -0.2355 -0.2236
  804SOL    HW1 2411   0.311   0.124   2.162 -1.2849  1.4520  2.1409
  804SOL    HW2 2412   0.242   0.008   2.046 -3.3169  2.6587 -2.2021
  805SOL     OW 2413   2.410   0.265   0.368 -0.2898 -0.4482  0.0617
  805SOL    HW1 2414   2.465   0.342   0.415 -2.4452  4.0089 -0.0309
  805SOL    HW2 2415   2.411   0.274   0.262 -0.1262  0.9654 -0.7585
  806SOL     OW 2416   0.645   2.417   1.675  0.2389 -0.6165  0.2138
  806SOL    HW1 2417   0.641   2.520   1.689 -0.7954  0.0346 -0.9774
  806SOL    HW2 2418   0.741   2.387   1.645  0.7890 -1.0894  1.1230
  807SOL     OW 2419   2.460   0.905   0.427  0.7001 -0.0918  0.1100
  807SOL    HW1 2420   2.560   0.913   0.466  2.2943  0.4749 -1.1826
  807SOL    HW2 2421   2.444   0.933   0.329 -2.7907  0.2309  0.7361
  808SOL     OW 2422   0.547   2.043   3.000  0.5641 -0.1795 -0.2117
  808SOL    HW1 2423   0.564   2.080   3.095 -1.5753  1.6908 -0.7690
  808SOL    HW2 2424   0.529   1.944   2.997 -0.4053  3.2754  0.5481
  809SOL     OW 2425   2.697   1.939   1.948  0.4551 -0.4365  0.0302
  809SOL    HW1 2426   2.778   1.995   1.972  1.1777 -1.0853  0.4792
  809SOL    HW2 2427   2.666   1.939   1.851  0.3836 -1.3905  0.7343
  810SOL     OW 2428   2.110   1.039   0.515 -0.0735 -0.1870  0.3348
  810SOL    HW1 2429   2.179   1.002   0.587  0.0167 -1.9917 -0.3726
  810SOL    HW2 2430   2.047   1.109   0.561  0.0198 -1.5339 -0.6882
  811SOL     OW 2431   1.363   2.483   1.285  0.2646 -0.1122 -0.2415
  811SOL    HW1 2432   1.375   2.379   1.297  0.9026  1.0160 -0.1181
  811SOL    HW2 2433   1.269   2.502   1.242 -2.4106 -0.9304  0.7637
  812SOL     OW 2434   1.455   0.852   1.946 -0.4705 -0.2160 -0.3292
  812SOL    HW1 2435   1.516   0.924   1.987 -3.3607  3.3438 -1.2525
  812SOL    HW2 2436   1.368   0.900   1.925 -1.1218  1.8707 -0.6174
  813SOL     OW 2437   1.749   2.114   2.465  0.3715 -0.2708 -0.3604
  813SOL    HW1 2438   1.818   2.037   2.481 -0.4111 -2.7922 -0.3597
  813SOL    HW2 2439   1.691   2.107   2.377  1.5577 -4.5509  0.0729
  814SOL     OW 2440   2.874   1.564   2.829  0.3417  0.2779 -0.2092
  814SOL    HW1 2441   2.963   1.546   2.881 -0.7623 -0.9509 -1.7597
  814SOL    HW2 2442   2.866   1.663   2.800  1.3286 -0.4972  3.3568
  815SOL     OW 2443   2.180   2.888   2.768 -0.2884  0.4269  0.5194
  815SOL    HW1 2444   2.139   2.824   2.839  2.6613  1.1130 -3.3846
  815SOL    HW2 2445   2.284   2.882   2.757 -0.1294  0.1768  1.2289
  816SOL     OW 2446   1.637   0.333   1.662  0.0477  0.2694  0.2731
  816SOL    HW1 2447   1.659   0.231   1.667 -0.3002  1.4103  0.1906
  816SOL    HW2 2448   1.546   0.362   1.709 -3.1046  1.0876  3.1060
  817SOL     OW 2449   0.416   1.233   2.530 -0.0921  0.3562 -0.3469
  817SOL    HW1 2450   0.323   1.261   2.562  1.2306  0.3271 -0.7065
  817SOL    HW2 2451   0.458   1.287   2.448  1.0080 -2.1134  0.0598
  818SOL     OW 2452   1.981   0.787   0.463 -0.0259  0.2640  0.0441
  818SOL    HW1 2453   2.021   0.883   0.458 -1.5563 -0.9099  1.1126
  818SOL    HW2 2454   1.924   0.766   0.550  0.3101 -0.7322  1.0206
  819SOL     OW 2455   2.779   2.920   3.028 -0.4042  0.2637 -0.2755
  819SOL    HW1 2456   2.854   2.852   2.992  0.6847  0.8007 -0.7694
  819SOL    HW2 2457   2.699   2.929   2.961  0.4722  0.8532 -2.0900
  820SOL     OW 2458   1.267   1.119   0.653 -0.0573  0.3560 -0.2233
  820SOL    HW1 2459   1.246   1.220   0.676 -0.5947 -2.9491  3.0526
  820SOL    HW2 2460   1.242   1.056   0.736  1.1403 -0.6535  3.7253
  821SOL     OW 2461   3.092   1.301   0.677 -0.1885  0.4237  0.2817
  821SOL    HW1 2462   3.058   1.320   0.774 -0.4416 -0.0348 -3.0394
  821SOL    HW2 2463   3.168   1.361   0.641  0.7384 -1.9708 -2.9143
  822SOL     OW 2464   2.538   1.741   2.434 -0.3987  0.0514 -0.3620
  822SOL    HW1 2465   2.543   1.839   2.476  2.2420  0.5554  1.1208
  822SOL    HW2 2466   2.473   1.738   2.352 -0.3833  0.0495  2.9347
  823SOL     OW 2467   2.094   0.787   1.210  0.9841  0.6024 -0.0834
  823SOL    HW1 2468   2.035   0.816   1.289  0.6426  1.0202 -0.3174
  823SOL    HW2 2469   2.035   0.761   1.126  0.0752  1.1390  1.2005
  824SOL     OW 2470   0.148   2.070   2.786  0.8761  0.1792 -0.7035
  824SOL    HW1 2471   0.089   1.997   2.835 -1.6495  1.9111  4.6411
  824SOL    HW2 2472   0.219   2.021   2.725  0.1607  0.7887  0.7165
  825SOL     OW 2473   1.248   1.102   0.312  0.1361  0.3282 -0.0038
  825SOL    HW1 2474   1.210   1.202   0.302 -0.6202 -1.2241  1.5471
  825SOL    HW2 2475   1.224   1.064   0.404  0.4430 -1.6707 -2.4020
  826SOL     OW 2476   1.923   0.675   1.611 -0.4218  0.4253  0.0412
  826SOL    HW1 2477   2.004   0.614   1.631  1.0011  0.8631 -0.0978
  826SOL    HW2 2478   1.852   0.621   1.556 -1.0395  0.4022 -2.0542
  827SOL     OW 2479   0.703   1.373   0.283 -0.1961  0.2952  0.2641
  827SOL    HW1 2480   0.753   1.285   0.253  0.5005 -1.3336  3.8724
  827SOL    HW2 2481   0.674   1.362   0.384 -0.7929 -0.5461 -1.5031
  828SOL     OW 2482   2.516   0.089   1.587 -0.3029 -0.3484 -0.1919
  828SOL    HW1 2483   2.418   0.117   1.568 -1.2784  0.2431  0.6970
  828SOL    HW2 2484   2.536   0.016   1.662  1.7606 -3.1869  0.8878
  829SOL     OW 2485   2.829   2.446   2.968  0.1479 -0.2856 -0.4173
  829SOL    HW1 2486   2.772   2.358   2.959 -2.6698  0.6470 -0.0134
  829SOL    HW2 2487   2.792   2.509   3.044  2.4610  0.3943  0.4638
  830SOL     OW 2488   2.864   0.950   2.992 -0.0082 -0.0896 -0.5240
  830SOL    HW1 2489   2.903   1.042   3.031 -2.0855  1.5664  1.4499
  830SOL    HW2 2490   2.882   0.869   3.057  2.6483 -0.4823  2.3711
  831SOL     OW 2491   0.110   0.657   0.393  0.3982 -0.5291  0.4199
  831SOL    HW1 2492   0.062   0.581   0.448 -0.5321  0.8623  3.1911
  831SOL    HW2 2493   0.133   0.623   0.298  1.3922  1.2703  0.1151
  832SOL     OW 2494   1.799   0.736   3.070 -0.4592 -0.1761 -0.0815
  832SOL    HW1 2495   1.706   0.759   3.031  1.1705 -2.6620 -0.4066
  832SOL    HW2 2496   1.817   0.631   3.068  2.1190  0.7566  0.9726
  833SOL     OW 2497   2.444   2.164   0.516  0.0807  0.0376 -0.0444
  833SOL    HW1 2498   2.356   2.160   0.462 -0.1858  0.8150 -1.5707
  833SOL    HW2 2499   2.509   2.085   0.489 -1.1803 -0.4069 -2.7967
  834SOL     OW 2500   0.194   0.207   0.498 -0.0776  0.2453  0.0298
  834SOL    HW1 2501   0.183   0.116   0.541 -2.8597 -1.8985  2.0381
  834SOL    HW2 2502   0.167   0.206   0.401  1.4285 -0.4770  1.2471
  835SOL     OW 2503   2.381   1.576   1.133  0.3654 -0.1203  0.1559
  835SOL    HW1 2504   2.389   1.670   1.171 -0.3168  2.3647  0.5450
  835SOL    HW2 2505   2.455   1.564   1.068  0.5132  0.3272  3.2616
  836SOL     OW 2506   1.609   0.828   2.528  0.0621 -0.1133  0.1229
  836SOL    HW1 2507   1.507   0.808   2.517 -0.8963 -0.4287 -0.7314
  836SOL    HW2 2508   1.649   0.860   2.436  0.6741  0.2010 -1.0658
  837SOL     OW 2509   1.723   0.174   0.574  0.0216  0.2776  1.0713
  837SOL    HW1 2510   1.663   0.235   0.634  0.2045 -0.2464  1.3150
  837SOL    HW2 2511   1.671   0.091   0.541 -1.0953 -1.6094 -2.2273
  838SOL     OW 2512   1.138   1.560   2.782  0.2523  0.1248  0.2598
  838SOL    HW1 2513   1.146   1.525   2.879 -0.4982 -0.3084 -1.0544
  838SOL    HW2 2514   1.119   1.486   2.707  3.6108 -0.9463  0.7370
  839SOL     OW 2515   1.625   0.306   0.996  0.0273  0.3694  0.7307
  839SOL    HW1 2516   1.673   0.338   1.084  0.1938  1.6207  2.0683
  839SOL    HW2 2517   1.592   0.205   1.001  2.5156 -1.0977 -0.3386
  840SOL     OW 2518   2.462   2.943   1.740  0.6662  0.5295  0.3131
  840SOL    HW1 2519   2.373   2.921   1.790 -2.3138 -1.6098  0.5164
  840SOL    HW2 2520   2.523   2.864   1.747 -3.6848 -0.8053  0.2065
  841SOL     OW 2521   1.550   0.828   2.983 -0.1823 -0.0523 -0.5049
  841SOL    HW1 2522   1.487   0.855   3.060 -0.5604  1.6556  4.6868
  841SOL    HW2 2523   1.544   0.902   2.909  0.1612  0.5834  0.1783
  842SOL     OW 2524   0.848   1.563   0.914 -0.4620  0.4481  0.3774
  842SOL    HW1 2525   0.817   1.647   0.968 -1.2382  0.1245  0.4621
  842SOL    HW2 2526   0.787   1.481   0.933 -0.8396  2.4879  1.2696
  843SOL     OW 2527   0.056   0.028   1.373 -0.1303  0.1990  0.1558
  843SOL    HW1 2528   0.120   0.085   1.433 -0.5433 -0.9555  0.1872
  843SOL    HW2 2529   0.069  -0.070   1.389  4.1933  2.8494  0.7177
  844SOL     OW 2530   0.804   2.471   0.239  0.5306  0.1537  0.0956
  844SOL    HW1 2531   0.767   2.446   0.335  0.0406 -0.5046  0.8153
  844SOL    HW2 2532   0.748   2.540   0.180  1.3796  0.9704 -1.0844
  845SOL     OW 2533   1.643   2.898   1.330 -0.2173  0.0949  0.5865
  845SOL    HW1 2534   1.732   2.843   1.347  1.8900  2.2540  2.3448
  845SOL    HW2 2535   1.606   2.934   1.418 -1.4513  0.6899 -1.5571
  846SOL     OW 2536   1.557   2.906   0.743 -0.2606 -0.2989 -0.4532
  846SOL    HW1 2537   1.560   2.885   0.643 -0.6739  0.3609  1.3945
  846SOL    HW2 2538   1.651   2.927   0.778 -0.4789 -0.0021 -2.1219
  847SOL     OW 2539   2.031   1.663   0.370 -0.2144  0.1568 -0.3754
  847SOL    HW1 2540   2.002   1.563   0.399  3.3780  1.2933  2.5563
  847SOL    HW2 2541   1.965   1.736   0.379 -0.1890 -0.7862  1.2889
  848SOL     OW 2542   2.451   0.851   2.606 -0.4421  0.3585 -0.0588
  848SOL    HW1 2543   2.435   0.936   2.663  3.3355 -0.2863 -0.7271
  848SOL    HW2 2544   2.364   0.797   2.587  0.1202 -0.7654  1.1899
  849SOL     OW 2545   2.565   0.860   2.368  0.3126  0.1810 -0.3420
  849SOL    HW1 2546   2.662   0.830   2.368 -1.0931 -1.3960 -2.4103
  849SOL    HW2 2547   2.514   0.851   2.459  3.5631 -0.5130 -0.9385
  850SOL     OW 2548   1.524   0.141   1.306  0.3677  0.4188 -0.9762
  850SOL    HW1 2549   1.505   0.122   1.206  0.9760  4.6196 -2.0475
  850SOL    HW2 2550   1.503   0.062   1.369  1.6326  1.9697  1.4555
  851SOL     OW 2551   0.466   1.809   0.551  0.2549 -1.0678 -0.4448
  851SOL    HW1 2552   0.488   1.902   0.592  0.1916 -0.8299  2.7665
  851SOL    HW2 2553   0.511   1.802   0.456 -1.1309  1.3668 -1.7124
  852SOL     OW 2554   0.812   2.104   1.697  0.2215  0.3557 -0.6007
  852SOL    HW1 2555   0.853   2.200   1.683  0.3737  0.7062 -1.4006
  852SOL    HW2 2556   0.750   2.110   1.781  1.3772 -1.5487 -0.7643
  853SOL     OW 2557   2.530   1.497   2.583  0.8876  0.1202  0.5842
  853SOL    HW1 2558   2.457   1.426   2.563  3.2127  2.3411 -1.8024
  853SOL    HW2 2559   2.521   1.587   2.524 -3.4231  0.5567  0.7183
  854SOL     OW 2560   2.385   1.380   1.735  0.0135  0.0125  0.0662
  854SOL    HW1 2561   2.438   1.356   1.648 -1.7407  2.6950  0.9933
  854SOL    HW2 2562   2.355   1.292   1.785  2.9531 -1.9719  0.6460
  855SOL     OW 2563   2.034   2.441   1.063 -0.5669 -0.8780 -0.7311
  855SOL    HW1 2564   2.052   2.535   1.020  0.7597  1.1796 -0.9685
  855SOL    HW2 2565   2.114   2.417   1.125  1.0069  1.3369  2.4820
  856SOL     OW 2566   1.324   1.435   0.938 -0.4100  0.0617  0.0825
  856SOL    HW1 2567   1.395   1.504   0.971  0.0250  1.0563  0.8728
  856SOL    HW2 2568   1.228   1.455   0.981 -2.8580 -1.5275  1.9745
  857SOL     OW 2569   3.025   2.703   0.948 -0.2388 -0.0083  0.0507
  857SOL    HW1 2570   2.981   2.608   0.926  0.9262 -1.2570 -2.7919
  857SOL    HW2 2571   3.112   2.717   0.899  0.2299  0.7004  0.1806
  858SOL     OW 2572   2.329   2.097   1.709  0.1216 -0.0384 -0.1857
  858SOL    HW1 2573   2.256   2.099   1.635  3.0535 -0.1002  0.2727
  858SOL    HW2 2574   2.413   2.034   1.692  1.0546 -0.6827 -0.6340
  859SOL     OW 2575   2.472   0.538   1.046  0.1650 -0.3389  0.1922
  859SOL    HW1 2576   2.512   0.585   0.962 -0.7177 -1.9433 -0.3735
  859SOL    HW2 2577   2.533   0.466   1.090  2.3223 -2.7590 -0.5401
  860SOL     OW 2578   1.922   2.797   0.437  1.2586  0.2367 -0.1609
  860SOL    HW1 2579   1.887   2.776   0.335  0.0988  0.4388 -3.1223
  860SOL    HW2 2580   2.025   2.812   0.446 -1.1178 -3.0393 -0.5446
  861SOL     OW 2581   1.008   2.388   2.879 -0.2881 -0.2529  0.0067
  861SOL    HW1 2582   1.070   2.467   2.846 -1.1583  0.3285 -0.0788
  861SOL    HW2 2583   1.019   2.388   2.984  1.8225 -0.7874 -0.6465
  862SOL     OW 2584   2.865   2.557   1.625  0.0888  0.1622  0.2999
  862SOL    HW1 2585   2.962   2.571   1.654 -0.9117  2.0105 -1.0316
  862SOL    HW2 2586   2.830   2.650   1.600  0.2059  1.2816  2.2483
  863SOL     OW 2587   1.834   2.709   0.184  0.1874 -0.2040  0.2830
  863SOL    HW1 2588   1.891   2.623   0.182 -1.4196 -0.9093 -0.6007
  863SOL    HW2 2589   1.741   2.692   0.140  2.2704  1.6963  0.5563
  864SOL     OW 2590   1.997   1.225   2.824 -0.5338 -0.0391 -0.2581
  864SOL    HW1 2591   1.953   1.176   2.742 -0.0351 -0.8225 -2.0165
  864SOL    HW2 2592   2.027   1.157   2.902  0.5160  0.0594  0.6596
  865SOL     OW 2593   2.195   1.889   0.695  0.0277  0.3761 -0.8433
  865SOL    HW1 2594   2.253   1.884   0.781 -0.7524  0.3038 -0.7846
  865SOL    HW2 2595   2.097   1.910   0.717 -1.9021 -0.8798 -1.3296
  866SOL     OW 2596   2.849   2.914   1.008 -0.2133  0.1936 -0.2187
  866SOL    HW1 2597   2.847   2.985   0.931 -0.3523 -0.2385 -1.4809
  866SOL    HW2 2598   2.925   2.839   0.989  4.4222 -1.7038 -0.6548
  867SOL     OW 2599   0.368   1.400   0.899  0.6621  0.0243 -0.5788
  867SOL    HW1 2600   0.313   1.313   0.858 -1.1755 -1.3203 -2.4926
  867SOL    HW2 2601   0.338   1.485   0.850  2.8375  1.2727 -0.0155
  868SOL     OW 2602   0.750   1.919   2.127 -0.0312 -0.3399  0.0045
  868SOL    HW1 2603   0.691   1.867   2.194  1.5765  0.5106 -1.8938
  868SOL    HW2 2604   0.699   2.000   2.076  0.8510  2.0302 -0.4108
  869SOL     OW 2605   2.550   1.926   1.672 -0.0853 -0.0912  0.1825
  869SOL    HW1 2606   2.617   1.998   1.642  0.1890  0.1075  0.2887
  869SOL    HW2 2607   2.587   1.825   1.668  1.7648  0.0721 -2.8295
  870SOL     OW 2608   2.319   2.690   1.209 -0.1540  0.2568 -1.2202
  870SOL    HW1 2609   2.305   2.589   1.186  0.0279 -3.0375 -3.3094
  870SOL    HW2 2610   2.304   2.698   1.310  2.1466  2.0079 -0.9657
  871SOL     OW 2611   0.012   2.278   0.562 -0.3747 -0.1898 -0.3066
  871SOL    HW1 2612  -0.018   2.355   0.623  0.3257 -2.6288  1.8962
  871SOL    HW2 2613  -0.056   2.266   0.485 -1.5657  0.2169 -2.1032
  872SOL     OW 2614   2.114   0.485   1.678 -0.4303  0.5162  0.1994
  872SOL    HW1 2615   2.082   0.485   1.780  0.5489 -0.9742  0.3882
  872SOL    HW2 2616   2.218   0.479   1.671 -0.8698  0.3859  0.5920
  873SOL     OW 2617   1.737   2.136   3.059  0.6721 -0.2548  0.5341
  873SOL    HW1 2618   1.656   2.141   3.126 -0.8406 -0.1091 -0.2336
  873SOL    HW2 2619   1.694   2.126   2.963 -2.2502 -2.7116  2.1811
  874SOL     OW 2620   0.689   2.420   0.771 -0.2722  0.6251  0.0912
  874SOL    HW1 2621   0.691   2.526   0.789  1.2614  1.0760 -0.6554
  874SOL    HW2 2622   0.767   2.379   0.718 -0.1924 -1.7808 -2.1789
  875SOL     OW 2623   2.291   1.542   1.434  0.4728 -0.2775  0.3106
  875SOL    HW1 2624   2.372   1.590   1.477  0.1667  0.8958  0.0526
  875SOL    HW2 2625   2.285   1.557   1.329  0.2997 -0.3339 -5.0514
  876SOL     OW 2626   0.050   2.295   2.681  0.1187  0.4113 -0.1199
  876SOL    HW1 2627   0.093   2.210   2.732  0.2293 -1.8192  2.3191
  876SOL    HW2 2628   0.059   2.375   2.741 -0.7555 -0.5754 -0.2709
  877SOL     OW 2629   2.965   2.714   0.539  0.3801 -0.1788 -1.1813
  877SOL    HW1 2630   2.913   2.804   0.569 -0.1310 -0.4067 -0.7055
  877SOL    HW2 2631   3.006   2.659   0.619 -0.1708 -3.1716 -1.7020
  878SOL     OW 2632   2.793   1.523   2.237 -0.5453  0.4754  0.0460
  878SOL    HW1 2633   2.834   1.606   2.192  1.9495  0.1963 -0.9910
  878SOL    HW2 2634   2.815   1.511   2.338  0.2780 -1.4580 -1.5078
  879SOL     OW 2635   2.415   0.089   1.262  0.5586  0.1086  0.3106
  879SOL    HW1 2636   2.430  -0.011   1.291  0.3402  1.6265  0.6041
  879SOL    HW2 2637   2.335   0.101   1.194  0.1377 -0.2689  0.2081
  880SOL     OW 2638   0.768   0.497   2.241  0.1270 -0.4113 -0.7606
  880SOL    HW1 2639   0.705   0.441   2.304  0.3891  1.4025 -2.3086
  880SOL    HW2 2640   0.835   0.435   2.189  1.9054  1.1142  0.8635
  881SOL     OW 2641   0.889   0.104   0.458  0.5365  0.2459 -0.3092
  881SOL    HW1 2642   0.932   0.016   0.492  0.8008 -2.3114 -1.4180
  881SOL    HW2 2643   0.790   0.090   0.439  2.5221 -1.5584  2.4676
  882SOL     OW 2644   2.715   1.712   1.699  0.0954  0.4378 -0.1228
  882SOL    HW1 2645   2.776   1.646   1.643  1.1208 -1.3983 -1.1281
  882SOL    HW2 2646   2.727   1.700   1.798 -3.1239  0.5800 -1.6145
  883SOL     OW 2647   0.877   0.476   0.928  0.2065  0.2837  0.1688
  883SOL    HW1 2648   0.926   0.558   0.966 -0.5095  0.6431 -0.9729
  883SOL    HW2 2649   0.802   0.444   0.992 -2.1389 -2.0940  0.9756
  884SOL     OW 2650   1.114   1.712   1.178 -0.0649 -0.0532 -0.2630
  884SOL    HW1 2651   1.110   1.625   1.131  1.7330  1.2216  3.4058
  884SOL    HW2 2652   1.102   1.799   1.113 -1.5971  0.7901 -0.2650
  885SOL     OW 2653   2.316   1.783   2.282  0.0233  0.1730  0.3142
  885SOL    HW1 2654   2.228   1.743   2.328 -0.1124 -2.6767  2.9743
  885SOL    HW2 2655   2.319   1.885   2.253  2.7883  1.6276  0.3713
  886SOL     OW 2656   2.599   0.376   1.813 -0.5751  0.1568  0.3159
  886SOL    HW1 2657   2.592   0.290   1.870 -0.2286  2.7661  1.8775
  886SOL    HW2 2658   2.693   0.404   1.777  1.4360  1.1588 -2.8195
  887SOL     OW 2659   0.121   2.006   1.306 -0.0558 -0.6813  0.4135
  887SOL    HW1 2660   0.026   1.966   1.288 -2.0082 -1.0180 -1.6758
  887SOL    HW2 2661   0.133   2.098   1.257  1.3193  0.5578 -0.0760
  888SOL     OW 2662   0.594   1.227   1.509 -0.5461  0.4853  0.2686
  888SOL    HW1 2663   0.630   1.259   1.419 -2.5432 -2.0100 -0.2532
  888SOL    HW2 2664   0.602   1.122   1.526 -0.6329 -2.5494  0.7149
  889SOL     OW 2665   0.826   2.502   2.202 -0.3867  0.0763 -0.9166
  889SOL    HW1 2666   0.750   2.432   2.194 -0.1095 -1.7622 -1.4469
  889SOL    HW2 2667   0.903   2.488   2.130  0.5305 -0.5892 -3.6123
  890SOL     OW 2668   2.416   2.486   0.247 -0.4046  0.1474 -0.5017
  890SOL    HW1 2669   2.411   2.527   0.149  1.1750  1.9404 -0.9917
  890SOL    HW2 2670   2.350   2.516   0.321  0.5936 -0.5169  1.3463
  891SOL     OW 2671   2.512   1.697   0.620 -0.1949 -0.3944 -0.4501
  891SOL    HW1 2672   2.504   1.653   0.714  1.5481  3.2100 -0.1210
  891SOL    HW2 2673   2.431   1.681   0.556 -0.5769  3.1177 -0.1858
  892SOL     OW 2674   0.383   0.274   2.326 -0.1229 -0.0278  0.3397
  892SOL    HW1 2675   0.407   0.368   2.288  1.9142  2.7195  2.4652
  892SOL    HW2 2676   0.441   0.247   2.406 -0.2233 -3.7904 -1.5551
  893SOL     OW 2677   1.650   0.203   2.718 -0.1283  0.0312  0.0663
  893SOL    HW1 2678   1.722   0.276   2.741 -1.4303  1.0975 -0.9481
  893SOL    HW2 2679   1.560   0.260   2.699 -0.3385  1.8498 -2.0438
  894SOL     OW 2680   2.176   2.071   0.047  0.4235  0.1089  0.3201
  894SOL    HW1 2681   2.148   2.012  -0.032 -1.3683  1.9949 -1.0889
  894SOL    HW2 2682   2.206   2.011   0.122  3.0842 -0.7106 -1.6036
  895SOL     OW 2683   2.809   1.468   0.892  0.3749  0.6554  0.2868
  895SOL    HW1 2684   2.886   1.416   0.936  1.3330 -1.5062  1.2759
  895SOL    HW2 2685   2.809   1.573   0.912  1.5851  0.3714 -0.0138
  896SOL     OW 2686   1.807   1.830   1.201 -0.7807 -0.4039 -0.2822
  896SOL    HW1 2687   1.848   1.735   1.186  0.1331 -0.3828 -2.3469
  896SOL    HW2 2688   1.747   1.863   1.122 -0.3109  1.5895  0.9793
  897SOL     OW 2689   0.274   0.570   3.049  0.0027 -0.4228 -0.1614
  897SOL    HW1 2690   0.209   0.594   2.970  0.2192  0.0950 -0.4432
  897SOL    HW2 2691   0.372   0.597   3.040  2.8412  0.3966  1.8182
  898SOL     OW 2692   0.641   2.883   1.042 -0.4494  0.2088 -0.0169
  898SOL    HW1 2693   0.656   2.987   1.042 -1.9978  2.5185 -0.5889
  898SOL    HW2 2694   0.710   2.831   1.102  1.7148 -1.4783  1.0932
  899SOL     OW 2695   2.799   0.845   1.360  0.5796 -0.0275  0.2865
  899SOL    HW1 2696   2.809   0.780   1.273  0.7628  0.6563 -2.0543
  899SOL    HW2 2697   2.893   0.879   1.396  2.2699 -0.4826  1.6761
  900SOL     OW 2698   0.971   2.504   2.420  0.7676  0.2245  0.0933
  900SOL    HW1 2699   0.924   2.517   2.328  2.8724  4.1913  0.1037
  900SOL    HW2 2700   0.919   2.431   2.483 -0.4748 -2.6917  2.3664
  901SOL     OW 2701   1.885   2.401   1.356  0.1437 -0.3059  0.2143
  901SOL    HW1 2702   1.880   2.340   1.267  0.9594  0.6043  0.2349
  901SOL    HW2 2703   1.978   2.389   1.399 -0.3765 -0.5582 -0.8104
  902SOL     OW 2704   2.542   1.650   1.495  0.2563 -0.1728 -0.1930
  902SOL    HW1 2705   2.580   1.645   1.590  1.6260 -0.6967 -0.2535
  902SOL    HW2 2706   2.617   1.658   1.423 -1.0947 -1.8635 -1.5277
  903SOL     OW 2707   0.291   2.464   1.962 -0.4491 -1.0057  0.0159
  903SOL    HW1 2708   0.196   2.425   1.938 -1.8447  1.8504 -1.4381
  903SOL    HW2 2709   0.299   2.564   1.928 -2.1180  0.3391  1.7450
  904SOL     OW 2710   1.976   0.785   2.571 -0.2023 -0.1769  0.3578
  904SOL    HW1 2711   1.890   0.732   2.607  0.8309 -1.1585  0.5009
  904SOL    HW2 2712   1.972   0.792   2.468 -1.1092  2.9301  0.8522
  905SOL     OW 2713   2.915   0.104   2.500 -0.7802 -0.1069  0.6504
  905SOL    HW1 2714   2.965   0.020   2.468  1.0562  2.1856  0.4101
  905SOL    HW2 2715   2.980   0.187   2.488  1.3020 -1.1857  0.4836
  906SOL     OW 2716   0.126   1.663   1.883  0.1154 -0.3200  0.7260
  906SOL    HW1 2717   0.075   1.682   1.794  2.3648 -0.5807  3.3235
  906SOL    HW2 2718   0.223   1.698   1.877 -3.2676  0.4658  0.6703
  907SOL     OW 2719   0.214   2.419   0.971  0.0616  0.2153  0.1497
  907SOL    HW1 2720   0.312   2.386   0.962  1.2555  0.7779 -1.3049
  907SOL    HW2 2721   0.185   2.485   0.896 -3.6118 -0.5413  0.5333
  908SOL     OW 2722   2.808   3.054   0.328  0.0682 -0.9262  0.7167
  908SOL    HW1 2723   2.723   3.041   0.262  1.3823  0.8513 -1.3648
  908SOL    HW2 2724   2.881   2.982   0.302  0.0968 -0.2143  1.1766
  909SOL     OW 2725   0.839   1.057   2.671  0.1837  0.0807  0.1158
  909SOL    HW1 2726   0.791   0.969   2.644  0.6980  1.7063 -2.0129
  909SOL    HW2 2727   0.904   1.091   2.601 -0.2457  1.6477 -0.0428
  910SOL     OW 2728   1.786   1.885   2.154  0.3739 -0.2099  0.6316
  910SOL    HW1 2729   1.844   1.919   2.072 -0.4006 -0.5952 -1.8833
  910SOL    HW2 2730   1.732   1.963   2.195 -1.7764 -0.6298  0.5211
  911SOL     OW 2731   1.843   2.924   1.567 -0.1728 -0.4599  0.2731
  911SOL    HW1 2732   1.914   2.882   1.499  1.2934  0.6908  0.2596
  911SOL    HW2 2733   1.802   2.851   1.625 -0.8370 -0.5963 -1.8564
  912SOL     OW 2734   2.858   1.009   0.713 -0.4372 -0.1956 -0.4114
  912SOL    HW1 2735   2.884   0.978   0.811  1.8212  2.1676 -1.3783
  912SOL    HW2 2736   2.787   1.083   0.715  1.8751  1.2029 -1.2440
  913SOL     OW 2737   2.514   1.254   1.513 -0.0607  0.6206 -0.1146
  913SOL    HW1 2738   2.543   1.156   1.539 -0.2434 -1.1139  1.4182
  913SOL    HW2 2739   2.578   1.310   1.453 -2.8259  2.0438  0.8764
  914SOL     OW 2740   2.780   0.634   1.156  0.4849 -0.3417 -0.4292
  914SOL    HW1 2741   2.808   0.545   1.191 -2.4062  0.0475  1.6382
  914SOL    HW2 2742   2.680   0.660   1.169  0.0725 -0.9873  2.6391
  915SOL     OW 2743   1.235   0.717   1.011 -0.4331 -0.0044  0.4885
  915SOL    HW1 2744   1.258   0.763   1.103  2.1666 -1.2731 -0.6610
  915SOL    HW2 2745   1.137   0.701   0.995  2.9616  0.5634 -2.0765
  916SOL     OW 2746   0.624   0.052   0.639 -0.1741 -0.3068  0.1776
  916SOL    HW1 2747   0.649   0.096   0.731  0.8220  2.7818 -2.2572
  916SOL    HW2 2748   0.594   0.118   0.570  0.2227 -2.3445  1.9136
  917SOL     OW 2749   2.890   2.565   2.002 -0.5758 -0.0827  0.4509
  917SOL    HW1 2750   2.822   2.570   1.925 -0.1393  0.9258  0.6772
  917SOL    HW2 2751   2.979   2.611   1.973  2.3700 -2.1539 -0.9791
  918SOL     OW 2752   1.029   2.096   2.995 -0.5900  0.4828 -0.4688
  918SOL    HW1 2753   0.981   2.182   3.034  0.8774  0.7591  0.9091
  918SOL    HW2 2754   1.103   2.111   2.923 -0.9895  2.6236 -1.3809
  919SOL     OW 2755   0.811   1.687   2.850  0.0488 -0.5765  0.2943
  919SOL    HW1 2756   0.885   1.757   2.825 -1.4678  2.0148  3.6729
  919SOL    HW2 2757   0.786   1.628   2.766  0.2571  1.4128 -0.9326
  920SOL     OW 2758   1.260   1.783   2.558 -0.4494  0.5953  0.4955
  920SOL    HW1 2759   1.332   1.759   2.486  0.3833  0.3034 -2.2634
  920SOL    HW2 2760   1.235   1.715   2.631 -1.5329 -0.2849  1.9419
  921SOL     OW 2761   1.115  -0.000   2.645 -0.4253 -0.4007 -0.9402
  921SOL    HW1 2762   1.086  -0.047   2.560 -0.4200  0.1143  2.3770
  921SOL    HW2 2763   1.037   0.061   2.684 -0.8138  2.2809  1.0477
  922SOL     OW 2764   2.203   2.365   2.789  0.5469  0.2585 -0.7326
  922SOL    HW1 2765   2.190   2.261   2.783  0.5073 -0.6386  3.9591
  922SOL    HW2 2766   2.171   2.425   2.711  2.9225  0.5197  3.1447
  923SOL     OW 2767   1.255   2.668   0.262  0.2725 -0.2262  0.1455
  923SOL    HW1 2768   1.322   2.719   0.328 -0.6127 -0.5808 -1.1687
  923SOL    HW2 2769   1.293   2.575   0.231 -2.0021  0.4148  1.0934
  924SOL     OW 2770   2.894   1.709   0.097 -0.1233 -0.2616 -0.2851
  924SOL    HW1 2771   2.814   1.655   0.061 -0.8434  1.0371  0.0008
  924SOL    HW2 2772   2.989   1.660   0.094 -1.1997  0.4884 -1.4808
  925SOL     OW 2773   0.050   2.854   1.464  0.3531  0.4930 -0.0120
  925SOL    HW1 2774   0.017   2.827   1.559 -0.9074  0.8842  0.8384
  925SOL    HW2 2775  -0.006   2.797   1.391  0.3906  0.1110 -0.6298
  926SOL     OW 2776   1.326   2.825   1.357  0.5511  0.2807  0.2073
  926SOL    HW1 2777   1.364   2.820   1.259  0.1573  1.5027 -0.3440
  926SOL    HW2 2778   1.356   2.919   1.389  3.6457 -0.8957 -1.9640
  927SOL     OW 2779   0.349   2.668   1.756 -0.2903  0.8994 -0.1527
  927SOL    HW1 2780   0.303   2.589   1.703  0.1970  0.1815  1.8276
  927SOL    HW2 2781   0.306   2.761   1.738 -0.5683 -0.4052  0.4065
  928SOL     OW 2782   1.629   2.096   2.223  0.0833 -0.3720  0.6736
  928SOL    HW1 2783   1.662   2.164   2.146  0.9000 -0.1281 -0.3670
  928SOL    HW2 2784   1.527   2.092   2.235 -2.5195  0.5311 -0.9972
  929SOL     OW 2785   2.423   2.516   2.887  0.5023  0.0755 -0.0159
  929SOL    HW1 2786   2.330   2.468   2.876 -2.5741  1.0171  1.0432
  929SOL    HW2 2787   2.482   2.494   2.805  0.3550  1.3404 -0.5538
  930SOL     OW 2788   2.161   1.977   1.100 -0.5167 -0.5082  0.2932
  930SOL    HW1 2789   2.148   1.939   1.195  0.2453  4.7243 -1.7327
  930SOL    HW2 2790   2.235   2.046   1.097 -0.1301 -1.5997 -1.9594
  931SOL     OW 2791   0.553   1.745   2.642 -0.1706 -0.6043 -0.0162
  931SOL    HW1 2792   0.557   1.776   2.738  0.5460 -2.0580 -2.2913
  931SOL    HW2 2793   0.607   1.658   2.625  0.8945  0.9917  2.0154
  932SOL     OW 2794   0.438   0.121   3.073  0.2653  0.2372 -0.0221
  932SOL    HW1 2795   0.511   0.171   3.124 -0.8983  2.0719 -1.4505
  932SOL    HW2 2796   0.470   0.026   3.036 -0.6374 -2.1755 -2.8436
  933SOL     OW 2797   0.919   0.825   3.026  0.0790 -0.1603  0.4887
  933SOL    HW1 2798   0.834   0.801   3.080  0.4493 -0.0907 -1.6654
  933SOL    HW2 2799   0.918   0.921   2.993 -1.2271  0.1173  0.5864
  934SOL     OW 2800   0.777   2.997   2.650  0.8587  0.1073  0.2376
  934SOL    HW1 2801   0.750   2.939   2.570 -1.0103  1.6995  0.0966
  934SOL    HW2 2802   0.829   2.942   2.725 -2.1723  1.7106  0.0893
  935SOL     OW 2803   0.019   0.497   0.874  0.0669 -0.2957  0.3793
  935SOL    HW1 2804   0.021   0.476   0.768  2.7245 -0.5488 -3.4696
  935SOL    HW2 2805  -0.053   0.565   0.904 -0.2766 -2.6307  1.4757
  936SOL     OW 2806   1.102   2.815   0.100 -0.0868  0.0761  0.1136
  936SOL    HW1 2807   1.152   2.877   0.037 -3.1257 -0.4327  0.5018
  936SOL    HW2 2808   1.170   2.758   0.158  0.1637  0.0706  0.0901
  937SOL     OW 2809   1.863   2.681   2.094 -1.0577  0.1665 -0.6065
  937SOL    HW1 2810   1.759   2.688   2.092 -0.6492  0.6320 -2.0252
  937SOL    HW2 2811   1.905   2.751   2.030  1.9329  0.0331 -0.7014
  938SOL     OW 2812   2.786   2.077   1.629 -0.2545 -0.2819  0.2378
  938SOL    HW1 2813   2.767   2.178   1.608  0.4921  1.1466  1.7772
  938SOL    HW2 2814   2.866   2.064   1.696  1.8449 -0.8979  1.0866
  939SOL     OW 2815   2.803   1.208   2.413  0.4783 -0.7970 -0.3717
  939SOL    HW1 2816   2.884   1.185   2.350  1.8366  0.8969  3.8427
  939SOL    HW2 2817   2.832   1.191   2.509 -1.6798  1.9482 -2.0863
  940SOL     OW 2818   1.084   0.447   2.785 -0.1135 -0.1245  0.3270
  940SOL    HW1 2819   1.129   0.353   2.783  1.8477  1.5629  2.6182
  940SOL    HW2 2820   1.021   0.469   2.705 -0.1394  2.8563 -0.9710
  941SOL     OW 2821   0.030   2.773   2.287  0.2425  0.0473  0.1589
  941SOL    HW1 2822   0.099   2.703   2.266  1.0066  2.6731 -0.7354
  941SOL    HW2 2823   0.078   2.852   2.338 -0.7089 -0.0279 -0.1272
  942SOL     OW 2824   0.139   0.091   2.579  0.1065 -0.0044  0.0501
  942SOL    HW1 2825   0.130   0.109   2.680 -3.0277 -0.5410  2.0194
  942SOL    HW2 2826   0.133   0.175   2.519  1.3433  0.7411 -1.0121
  943SOL     OW 2827   2.102   1.671   2.402  0.1114  0.5447  0.3262
  943SOL    HW1 2828   2.074   1.624   2.316  0.1249  1.7658 -1.3816
  943SOL    HW2 2829   2.119   1.592   2.468  0.4319 -0.5825  0.6417
  944SOL     OW 2830   2.178   2.375   1.468 -0.4334 -0.2191  0.1783
  944SOL    HW1 2831   2.269   2.409   1.507  0.8092  3.1000 -1.5381
  944SOL    HW2 2832   2.140   2.284   1.508 -3.3422  1.8873 -0.1625
  945SOL     OW 2833   0.664   1.582   0.100 -0.0468 -0.4080  0.4689
  945SOL    HW1 2834   0.579   1.584   0.038 -0.1454  1.1119  3.8080
  945SOL    HW2 2835   0.671   1.496   0.157  0.3836 -1.2812 -0.4927
  946SOL     OW 2836   0.418   0.954   2.528  0.7808  0.2857 -0.2560
  946SOL    HW1 2837   0.346   0.892   2.478 -2.3706  1.3713 -0.7639
  946SOL    HW2 2838   0.422   1.052   2.493  0.7812  0.6982 -0.0196
  947SOL     OW 2839   1.491   0.505   3.057 -0.0474  0.0573 -0.5620
  947SOL    HW1 2840   1.464   0.535   2.965  0.2238  1.8140 -0.6828
  947SOL    HW2 2841   1.418   0.450   3.107 -0.1684 -3.8258 -1.3211
  948SOL     OW 2842   1.877   3.011   2.169 -0.0853 -0.3814 -0.3141
  948SOL    HW1 2843   1.907   2.955   2.089  0.9651 -0.3450 -0.6120
  948SOL    HW2 2844   1.866   2.949   2.258 -1.9887 -0.9987 -1.0609
  949SOL     OW 2845   0.646   2.490   0.465  0.2441 -0.2928 -0.3508
  949SOL    HW1 2846   0.654   2.591   0.442 -1.3450  2.0083 -0.9679
  949SOL    HW2 2847   0.634   2.483   0.566  0.3417  2.7262 -0.1573
  950SOL     OW 2848   0.194   2.251   2.997  0.2660 -0.5821  0.2846
  950SOL    HW1 2849   0.140   2.329   2.958  1.9426 -1.9461 -1.1965
  950SOL    HW2 2850   0.203   2.175   2.927 -1.1228 -0.6828  3.9154
  951SOL     OW 2851   1.176   2.625   2.807  0.0380  0.3891  0.0323
  951SOL    HW1 2852   1.230   2.676   2.880 -0.2952  0.9645 -0.4317
  951SOL    HW2 2853   1.206   2.641   2.712  2.8987 -2.7456  1.3102
  952SOL     OW 2854   0.028   1.668   0.433 -0.1545  0.1977 -0.2808
  952SOL    HW1 2855   0.083   1.754   0.420  4.5129  1.6589 -0.5407
  952SOL    HW2 2856   0.087   1.591   0.456 -1.7195  1.1170  0.2594
  953SOL     OW 2857   2.564   1.763   0.217 -0.1395  0.1649  0.0506
  953SOL    HW1 2858   2.564   1.668   0.264  0.0176  0.6582  2.9976
  953SOL    HW2 2859   2.498   1.779   0.141 -0.4623  0.4086  1.1786
  954SOL     OW 2860   2.215   0.578   0.974 -0.1806 -0.4372 -0.6219
  954SOL    HW1 2861   2.214   0.580   0.865 -1.0638  0.4068  0.6499
  954SOL    HW2 2862   2.313   0.552   1.006  0.9966  0.9501 -2.3876
  955SOL     OW 2863   0.123   2.562   1.381  0.0156 -0.2437 -0.5184
  955SOL    HW1 2864   0.052   2.597   1.311  3.0016  1.3661  0.9344
  955SOL    HW2 2865   0.154   2.633   1.448  2.3636  0.0628  0.4418
  956SOL     OW 2866   2.807   2.445   2.490  0.1355  0.0771  0.2169
  956SOL    HW1 2867   2.805   2.341   2.490 -1.2170  1.5858  0.0680
  956SOL    HW2 2868   2.856   2.484   2.404 -0.7590 -2.8889 -0.6892
  957SOL     OW 2869   1.622   2.114   2.828  0.7211  0.6300 -0.4254
  957SOL    HW1 2870   1.572   2.024   2.829  1.2758 -1.1934 -1.9580
  957SOL    HW2 2871   1.678   2.137   2.742  1.3939  1.9299  1.0916
  958SOL     OW 2872   2.588   2.282   2.996 -0.3349 -0.0950 -0.4288
  958SOL    HW1 2873   2.543   2.359   2.946  0.5824 -0.2440 -0.1697
  958SOL    HW2 2874   2.515   2.240   3.062  0.5441  0.2988  0.9057
  959SOL     OW 2875   0.322   2.781   0.052 -0.4940  0.4788 -0.8329
  959SOL    HW1 2876   0.227   2.782   0.015  0.6208  1.0347  0.4173
  959SOL    HW2 2877   0.346   2.687   0.096 -0.0483 -0.8160  1.6666
  960SOL     OW 2878   2.008   0.464   1.943 -0.4862  0.4519 -0.0216
  960SOL    HW1 2879   1.947   0.549   1.929  0.2609  0.0041  0.8017
  960SOL    HW2 2880   2.029   0.453   2.043 -1.5026 -0.1747  2.0434
  961SOL     OW 2881   2.553   1.896   1.067 -0.1486 -0.5581  0.2165
  961SOL    HW1 2882   2.552   1.992   1.027 -1.4978 -2.5393 -1.5338
  961SOL    HW2 2883   2.532   1.900   1.168  0.8348  1.2635  1.6748
  962SOL     OW 2884   1.306   0.911   0.083 -0.0314 -0.0609 -0.1531
  962SOL    HW1 2885   1.281   0.930  -0.016 -1.5144  1.4180 -3.6789
  962SOL    HW2 2886   1.270   0.985   0.145 -0.9484 -1.2962  0.2708
  963SOL     OW 2887   2.304   2.527   1.775 -0.2359  0.0683 -0.1868
  963SOL    HW1 2888   2.238   2.458   1.815  1.3479  1.7280 -0.4917
  963SOL    HW2 2889   2.321   2.609   1.829 -3.9551  0.0814 -2.2832
  964SOL     OW 2890   2.374   0.400   1.658  0.6302  0.4005 -0.5477
  964SOL    HW1 2891   2.452   0.391   1.722 -1.4570  0.9843 -2.4236
  964SOL    HW2 2892   2.401   0.394   1.555  0.0749 -1.1521 -0.2158
  965SOL     OW 2893   2.617   2.977   0.126 -0.2198 -0.2440  0.5943
  965SOL    HW1 2894   2.686   2.934   0.060 -1.2566 -0.9989  1.7164
  965SOL    HW2 2895   2.538   3.027   0.080  2.2271  1.0658  0.7487
  966SOL     OW 2896   2.546   2.558   2.302  0.2744  0.3040  0.5573
  966SOL    HW1 2897   2.643   2.587   2.328 -0.3078 -0.6606  1.7114
  966SOL    HW2 2898   2.479   2.636   2.299  3.3609  1.1623  4.0447
  967SOL     OW 2899   2.785   2.812   2.460  0.5574  0.7450 -0.2149
  967SOL    HW1 2900   2.822   2.743   2.393 -2.4488 -0.4728  1.3441
  967SOL    HW2 2901   2.858   2.872   2.508  2.3562 -1.5628 -0.9911
  968SOL     OW 2902   1.932   1.065   2.604  0.1382  0.4014  0.2528
  968SOL    HW1 2903   1.849   1.109   2.561  1.4095 -1.3396 -0.9569
  968SOL    HW2 2904   1.924   0.966   2.595  2.2844 -0.5665  0.9277
  969SOL     OW 2905   2.757   2.457   1.121  0.2470  0.1078  0.0737
  969SOL    HW1 2906   2.743   2.453   1.018  1.0401  1.3728  1.0553
  969SOL    HW2 2907   2.788   2.369   1.166 -1.7762 -2.0013  0.1378
  970SOL     OW 2908   1.051   2.123   1.820 -0.4246  0.0744 -0.3511
  970SOL    HW1 2909   0.964   2.104   1.768 -0.7048  1.2596  1.9318
  970SOL    HW2 2910   1.036   2.167   1.915 -1.1965 -0.4794  0.1633
  971SOL     OW 2911   2.926   2.056   2.057  0.7653  0.3262 -0.1649
  971SOL    HW1 2912   2.914   2.157   2.077  2.9083 -2.9176 -1.4551
  971SOL    HW2 2913   2.982   2.039   1.970 -1.9439  1.2069  1.8633
  972SOL     OW 2914   1.989   2.478   0.220  0.3160 -0.1753  0.1317
  972SOL    HW1 2915   1.998   2.399   0.160  0.6130 -0.1622  0.3597
  972SOL    HW2 2916   2.007   2.459   0.322 -0.5888  2.6000  1.5618
  973SOL     OW 2917   1.249   1.017   1.889 -0.0243  0.3190  0.3519
  973SOL    HW1 2918   1.187   0.936   1.893 -0.1844  1.7381 -0.0982
  973SOL    HW2 2919   1.198   1.107   1.901  1.5645  1.8451  0.5048
  974SOL     OW 2920   1.568   0.607   1.898  0.1304 -0.4188  0.2762
  974SOL    HW1 2921   1.670   0.639   1.881  3.3707 -1.8393  0.1851
  974SOL    HW2 2922   1.503   0.692   1.894 -0.2054  1.4509  0.1675
  975SOL     OW 2923   2.373   3.053   0.020  0.1026  0.2424 -0.5415
  975SOL    HW1 2924   2.312   2.984   0.065  1.1676 -2.0346 -1.9817
  975SOL    HW2 2925   2.351   3.052  -0.081 -0.7087 -0.9556  0.6790
  976SOL     OW 2926   1.883   2.804   2.350  0.0993  0.5076 -0.3891
  976SOL    HW1 2927   1.850   2.712   2.306  2.8952  0.3534 -1.1458
  976SOL    HW2 2928   1.922   2.794   2.445  1.7989 -2.4376 -0.5106
  977SOL     OW 2929   0.507   0.649   1.012 -0.5294  0.8134  0.7614
  977SOL    HW1 2930   0.424   0.646   0.943 -1.4606  1.5184  1.2317
  977SOL    HW2 2931   0.586   0.717   0.979  2.4172  1.0505  0.3514
   3.10000   3.10000   3.10000
