1000 SPC/Fw water molecules t=   0.62000 step= 620
 2931
    1SOL     OW    1   2.480   0.378   2.611 -0.0826 -0.0982 -0.0427
    1SOL    HW1    2   2.512   0.281   2.587 -1.9516 -1.5347 -0.5550
    1SOL    HW2    3   2.543   0.419   2.682 -0.3341  0.3332  0.8359
    2SOL     OW    4   2.700   3.057   1.403  0.1915  0.1074 -0.4092
    2SOL    HW1    5   2.741   3.091   1.314 -0.2093 -2.1987 -0.1400
    2SOL    HW2    6   2.689   3.132   1.476  1.7317  2.3041  1.1786
    3SOL     OW    7   2.734   2.587   0.375 -0.3265 -0.0139 -0.7736
    3SOL    HW1    8   2.696   2.495   0.408  0.0315  2.7660  0.7207
    3SOL    HW2    9   2.826   2.610   0.420 -0.1922  0.8774 -0.5650
    4SOL     OW   10   1.287   1.457   2.362  0.1109  0.0602 -0.0324
    4SOL    HW1   11   1.194   1.511   2.347 -2.3214  4.3334 -0.3290
    4SOL    HW2   12   1.275   1.374   2.428 -1.6369  0.2588  1.7545
    5SOL     OW   13   1.181   1.499   3.077 -0.2777  0.1252  0.2760
    5SOL    HW1   14   1.252   1.573   3.095 -1.8781  0.4659 -1.0956
    5SOL    HW2   15   1.087   1.523   3.109 -2.0089 -1.1432  0.2584
    6SOL     OW   16   0.093   1.842   2.935 -0.0015  0.4032 -0.0272
    6SOL    HW1   17   0.031   1.872   3.014  2.8285 -1.5052  2.4863
    6SOL    HW2   18   0.139   1.751   2.967  0.8240  0.0903  1.2526
    7SOL     OW   19   2.527   0.911   1.152 -0.4189  0.4725 -0.0771
    7SOL    HW1   20   2.460   0.841   1.187  1.4074  4.1067 -2.0299
    7SOL    HW2   21   2.532   0.921   1.047  0.3923 -1.8884  0.1260
    8SOL     OW   22   0.436   0.590   1.532 -0.6238 -0.2218 -0.1047
    8SOL    HW1   23   0.504   0.519   1.571 -1.2668 -0.5040 -1.0752
    8SOL    HW2   24   0.428   0.587   1.430  1.6593  1.2107  0.2584
    9SOL     OW   25   1.149   0.918   2.309 -0.4156 -0.3705  0.2061
    9SOL    HW1   26   1.238   0.950   2.270 -0.9184 -2.2427 -0.7163
    9SOL    HW2   27   1.088   0.868   2.236 -1.0424  1.4748  0.8399
   10SOL     OW   28   0.668   1.335   1.270 -0.6214 -0.6431 -0.0818
   10SOL    HW1   29   0.587   1.385   1.237  2.6169 -0.8988  1.9465
   10SOL    HW2   30   0.749   1.401   1.274 -1.6880  3.8923 -0.6971
   11SOL     OW   31   2.369   2.738   0.923  0.1125  0.5748 -1.2796
   11SOL    HW1   32   2.373   2.695   1.018 -1.8751  0.9029 -0.2167
   11SOL    HW2   33   2.462   2.769   0.897 -0.4806  2.5644 -1.9868
   12SOL     OW   34   1.475   0.881   0.328  0.1323 -0.6361  0.1856
   12SOL    HW1   35   1.395   0.951   0.318 -0.5989 -0.8699  1.5299
   12SOL    HW2   36   1.469   0.792   0.269  1.6572 -1.2254 -0.8003
   13SOL     OW   37   2.503   0.657   1.800  0.1378 -0.0237  0.6545
   13SOL    HW1   38   2.418   0.640   1.857 -1.1922  1.4311 -0.7460
   13SOL    HW2   39   2.477   0.670   1.699 -1.1826  0.5819 -0.5795
   14SOL     OW   40   1.958   0.089   0.742 -0.2292  0.7263 -0.4151
   14SOL    HW1   41   1.871   0.125   0.697  0.0632  1.5139  1.6119
   14SOL    HW2   42   1.930   0.016   0.811  1.1586  1.1933 -1.7786
   15SOL     OW   43   1.942   2.001   2.784 -0.0911  0.6095 -0.2929
   15SOL    HW1   44   1.929   2.097   2.740  2.7454 -0.3876  0.2003
   15SOL    HW2   45   1.886   1.926   2.733  1.8647 -1.9353 -2.1544
   16SOL     OW   46   1.617   1.717   3.014 -0.0903  0.2512  0.4653
   16SOL    HW1   47   1.617   1.614   3.042 -2.4936 -1.7500 -2.7458
   16SOL    HW2   48   1.713   1.763   3.026  2.2418  0.1322 -1.3971
   17SOL     OW   49   0.100   0.519   0.147 -0.1953  0.2722  0.0416
   17SOL    HW1   50   0.176   0.531   0.076 -0.0672 -0.0832 -1.0218
   17SOL    HW2   51   0.006   0.537   0.111  2.1011 -2.5511 -0.0107
   18SOL     OW   52   0.960   2.982   2.125 -0.4732  0.8258  0.0923
   18SOL    HW1   53   0.908   2.890   2.136 -2.9290 -1.7023 -0.8519
   18SOL    HW2   54   1.056   2.966   2.099 -2.1722  0.5392 -0.2240
   19SOL     OW   55   0.512   0.826   1.913 -0.1641  0.1078  0.2538
   19SOL    HW1   56   0.530   0.828   2.013  0.6887 -1.1486  1.1369
   19SOL    HW2   57   0.598   0.825   1.851  3.1074 -0.0700 -1.5892
   20SOL     OW   58   0.203   2.788   0.827  0.3543 -0.1856  0.5649
   20SOL    HW1   59   0.131   2.839   0.776  0.4628 -1.6773  1.4206
   20SOL    HW2   60   0.278   2.765   0.761 -2.4854 -1.7921 -2.7629
   21SOL     OW   61   2.783   0.187   2.063  0.1246 -0.1309  0.2000
   21SOL    HW1   62   2.703   0.142   2.012  0.0400 -1.2356 -0.1473
   21SOL    HW2   63   2.847   0.118   2.109 -0.3750 -2.2178 -0.6790
   22SOL     OW   64   2.356   0.215   0.093 -0.0399 -0.2996 -0.2289
   22SOL    HW1   65   2.373   0.109   0.073 -1.0338 -2.8738  0.0820
   22SOL    HW2   66   2.257   0.241   0.092  0.8357 -0.4914  1.0358
   23SOL     OW   67   2.735   0.643   0.619  0.4795  0.3129 -0.1198
   23SOL    HW1   68   2.784   0.559   0.580 -2.0061  2.2984  0.1652
   23SOL    HW2   69   2.753   0.729   0.568  0.2964 -1.9444  1.0597
   24SOL     OW   70   0.151   1.925   0.379  0.1984 -0.1119  0.4503
   24SOL    HW1   71   0.099   2.009   0.348  1.9998  1.4133 -0.2732
   24SOL    HW2   72   0.227   1.901   0.314 -1.4135  4.9964  0.5162
   25SOL     OW   73   2.222   0.501   0.269  0.5035  0.0135  0.7357
   25SOL    HW1   74   2.235   0.599   0.285 -2.3435 -1.4131 -4.3799
   25SOL    HW2   75   2.188   0.479   0.171 -2.0288  0.8596  1.2807
   26SOL     OW   76   2.527   2.110   2.074 -0.1384 -0.3807 -0.0559
   26SOL    HW1   77   2.570   2.190   2.129 -0.3132  1.6227  1.3138
   26SOL    HW2   78   2.596   2.041   2.039 -1.5773  2.4095  1.0721
   27SOL     OW   79   0.597   2.943   0.175 -0.2136  0.6033  0.1974
   27SOL    HW1   80   0.699   2.967   0.174  0.9814 -0.5967 -1.9027
   27SOL    HW2   81   0.553   2.940   0.080 -2.8764 -0.5619  1.6209
   28SOL     OW   82   1.535   0.180   0.293  0.3235  0.0225 -0.1150
   28SOL    HW1   83   1.575   0.169   0.198 -0.3774  1.9599 -1.8497
   28SOL    HW2   84   1.511   0.278   0.312 -2.5622 -2.5788 -1.3891
   29SOL     OW   85   1.971   0.540   0.386 -0.4628  0.5086  0.7122
   29SOL    HW1   86   1.977   0.644   0.418  0.2720  1.1053  0.9705
   29SOL    HW2   87   2.062   0.493   0.376  0.9629 -1.0748  1.4916
   30SOL     OW   88   0.225   2.040   0.893 -0.3746 -0.1350  0.2589
   30SOL    HW1   89   0.196   2.029   0.798 -1.3241 -0.8630  0.9145
   30SOL    HW2   90   0.182   2.128   0.925  2.1887 -1.2369  0.9372
   31SOL     OW   91   2.095   3.080   2.306  0.3002 -0.0891  0.0983
   31SOL    HW1   92   2.105   3.057   2.410 -0.7567 -0.1675  0.7693
   31SOL    HW2   93   2.021   3.017   2.265  0.3365 -1.9304 -0.5528
   32SOL     OW   94   2.955   0.193   0.252 -0.0626 -0.3760  0.4876
   32SOL    HW1   95   2.903   0.134   0.312  0.4320 -1.2153 -0.5934
   32SOL    HW2   96   3.048   0.218   0.290  0.7605 -0.1556 -1.2655
   33SOL     OW   97   0.933   0.341   0.594 -0.2454 -0.3057 -0.0827
   33SOL    HW1   98   0.923   0.256   0.531  0.2973 -1.2898  1.8876
   33SOL    HW2   99   1.028   0.349   0.648  4.3339  2.6924  1.1015
   34SOL     OW  100   0.358   2.822   1.114 -0.2961 -0.4135  0.7871
   34SOL    HW1  101   0.323   2.772   1.030 -1.6777  2.0199 -0.6015
   34SOL    HW2  102   0.457   2.854   1.101 -0.6341  0.0864  2.5047
   35SOL     OW  103   0.013   0.220   1.847 -0.5112  0.4168 -0.5159
   35SOL    HW1  104   0.045   0.120   1.861 -0.8353  0.1691 -0.6807
   35SOL    HW2  105  -0.052   0.229   1.764  0.2103 -0.6920 -0.8961
   36SOL     OW  106   1.955   1.079   1.843  0.1612  0.1012  0.2469
   36SOL    HW1  107   2.013   1.055   1.759  1.5968 -0.3312 -4.5825
   36SOL    HW2  108   1.987   1.165   1.894  1.7319  1.3098 -2.8056
   37SOL     OW  109   1.210   0.170   0.897  0.1931  0.4041 -0.7951
   37SOL    HW1  110   1.243   0.232   0.970  1.3772 -0.8649 -1.9841
   37SOL    HW2  111   1.272   0.089   0.884 -1.9611  1.0361 -0.6008
   38SOL     OW  112   1.113   2.777   2.418  0.0849  0.5497 -0.0822
   38SOL    HW1  113   1.048   2.702   2.413 -1.1273  0.3420 -1.1823
   38SOL    HW2  114   1.068   2.871   2.421 -0.8225 -1.0510 -0.8113
   39SOL     OW  115   2.340   1.399   3.016  0.4723  0.0968  0.4622
   39SOL    HW1  116   2.419   1.334   3.013 -0.4651  1.6615  0.1987
   39SOL    HW2  117   2.255   1.361   3.058  4.0480 -1.5975 -1.1454
   40SOL     OW  118   2.097   2.510   2.554 -0.8886 -0.4951  0.9080
   40SOL    HW1  119   2.070   2.607   2.562  2.2597  0.2858 -2.1111
   40SOL    HW2  120   2.019   2.449   2.535  3.5190 -0.4793  1.2677
   41SOL     OW  121   2.955   0.681   2.756  0.3464 -0.5858  0.4318
   41SOL    HW1  122   2.869   0.735   2.745  5.1088 -0.4932  0.1367
   41SOL    HW2  123   2.938   0.581   2.729  0.8469  1.5334  1.9229
   42SOL     OW  124   1.769   1.775   0.535 -0.3381  0.3275 -0.0400
   42SOL    HW1  125   1.775   1.672   0.525  1.8563  0.7218  0.4812
   42SOL    HW2  126   1.785   1.820   0.438  1.5240  1.0331 -1.4527
   43SOL     OW  127   0.481   1.714   1.075 -0.5599 -0.6653  0.2619
   43SOL    HW1  128   0.475   1.613   1.091  1.6431 -1.3420 -0.1026
   43SOL    HW2  129   0.388   1.763   1.092 -3.2322  1.0545 -3.2021
   44SOL     OW  130   1.825   2.477   3.051 -0.2048 -0.0918 -0.1266
   44SOL    HW1  131   1.831   2.569   3.000  2.1506  3.3166 -1.4072
   44SOL    HW2  132   1.905   2.462   3.112  2.5680 -2.2791  1.6563
   45SOL     OW  133   0.323   1.906   2.615  0.4270 -0.1671 -0.2622
   45SOL    HW1  134   0.266   1.899   2.531  4.6999 -0.0855  0.3368
   45SOL    HW2  135   0.399   1.838   2.616 -0.9504  2.6377 -0.4560
   46SOL     OW  136   1.228   0.658   0.148  0.6428  1.0673  0.4268
   46SOL    HW1  137   1.265   0.743   0.102 -1.2252 -1.5984 -2.7734
   46SOL    HW2  138   1.148   0.672   0.210 -0.2393  0.8267 -1.1273
   47SOL     OW  139   0.205   2.452   1.639 -0.0682  0.2960 -0.5493
   47SOL    HW1  140   0.293   2.389   1.641  2.6368 -0.4409  2.2405
   47SOL    HW2  141   0.170   2.476   1.545  0.6226 -2.0332  2.5673
   48SOL     OW  142   2.625   0.614   0.138 -0.7964 -0.1657  0.3146
   48SOL    HW1  143   2.580   0.619   0.231  1.4537  1.5258  0.3728
   48SOL    HW2  144   2.715   0.670   0.141  4.1206  0.8130 -4.7961
   49SOL     OW  145   0.345   0.769   1.710 -0.4929  0.1695 -0.1857
   49SOL    HW1  146   0.400   0.788   1.799  0.9589 -0.8132  0.1465
   49SOL    HW2  147   0.389   0.694   1.648 -0.3931 -1.5866  2.6573
   50SOL     OW  148   1.655   1.128   0.313  0.1534  0.1751 -0.5402
   50SOL    HW1  149   1.639   1.034   0.284  0.7953  0.5536 -0.3637
   50SOL    HW2  150   1.594   1.158   0.392 -0.9218 -0.5896  2.8468
   51SOL     OW  151   2.903   1.838   0.364 -0.4826 -0.5895  0.3525
   51SOL    HW1  152   2.932   1.825   0.264  2.2242 -0.0270  2.1327
   51SOL    HW2  153   2.932   1.757   0.420  0.4328 -0.1205  0.2110
   52SOL     OW  154   0.786   1.970   0.474 -1.3535  1.2520  0.1488
   52SOL    HW1  155   0.701   2.028   0.500  1.4155  3.1765  2.6012
   52SOL    HW2  156   0.818   1.913   0.553 -0.2148 -0.8777  0.6114
   53SOL     OW  157   0.039   0.402   1.568  1.4689  0.6356  0.1933
   53SOL    HW1  158   0.067   0.462   1.646  0.2745  1.1309  1.3052
   53SOL    HW2  159  -0.016   0.457   1.502 -4.7499 -0.7273  0.6569
   54SOL     OW  160   1.760   0.471   3.085 -0.3417 -0.0482 -0.1112
   54SOL    HW1  161   1.799   0.408   3.162  1.8797 -1.3731  1.5869
   54SOL    HW2  162   1.656   0.471   3.080 -0.4250  0.3078 -1.6131
   55SOL     OW  163   0.763   2.898   0.672  0.3670  0.3592  0.1094
   55SOL    HW1  164   0.728   2.993   0.671  5.1619  0.6969 -2.8094
   55SOL    HW2  165   0.863   2.888   0.650  2.4984  0.7041  2.4714
   56SOL     OW  166   0.439   1.560   3.059  0.3792 -0.7633  0.0960
   56SOL    HW1  167   0.341   1.568   3.082 -0.8306  2.1754 -0.8764
   56SOL    HW2  168   0.466   1.479   2.999 -1.3986  2.3801  2.8870
   57SOL     OW  169   1.811   2.515   2.642 -0.5875  0.3671 -0.8973
   57SOL    HW1  170   1.823   2.461   2.556 -0.9776 -2.5841 -1.4821
   57SOL    HW2  171   1.709   2.514   2.664  0.4520 -1.5367 -2.3496
   58SOL     OW  172   0.652   0.360   1.039 -0.0974 -0.2495 -0.3893
   58SOL    HW1  173   0.601   0.450   1.031  2.9191 -0.5382  1.3514
   58SOL    HW2  174   0.582   0.284   1.045 -0.2589 -1.6057  1.3521
   59SOL     OW  175   0.407   2.397   2.775  0.6778  0.1221  0.2769
   59SOL    HW1  176   0.428   2.303   2.741  1.3876  0.7443 -0.5012
   59SOL    HW2  177   0.480   2.437   2.840 -0.5954  0.1360 -0.9923
   60SOL     OW  178   2.312   2.039   2.211 -0.5391 -0.7936 -0.1397
   60SOL    HW1  179   2.402   2.065   2.152  0.2488  2.2293 -3.2787
   60SOL    HW2  180   2.309   2.065   2.315  1.0160 -0.8365  0.9721
   61SOL     OW  181   1.301   0.591   0.508 -0.1850  0.5158 -0.8105
   61SOL    HW1  182   1.241   0.672   0.544  1.0153  0.4594  0.8761
   61SOL    HW2  183   1.292   0.575   0.405 -0.4662  1.6968 -1.3755
   62SOL     OW  184   2.689   1.800   2.925  0.5528  0.0209 -0.0182
   62SOL    HW1  185   2.687   1.695   2.925 -0.9534  1.2619 -0.0865
   62SOL    HW2  186   2.769   1.836   2.876  0.9596 -3.4486  0.0004
   63SOL     OW  187   0.605   0.926   0.163  0.3494 -0.4690 -0.4377
   63SOL    HW1  188   0.534   1.002   0.164  1.2691  2.3173  1.2889
   63SOL    HW2  189   0.677   0.946   0.238 -1.7115 -0.1284  4.0141
   64SOL     OW  190   0.100   0.567   2.540  0.3460 -0.1305 -0.1843
   64SOL    HW1  191   0.157   0.568   2.627  4.3176 -2.8782 -0.3813
   64SOL    HW2  192   0.115   0.637   2.471  0.9096 -1.1958  0.7697
   65SOL     OW  193   0.209   1.486   0.569 -0.0991 -0.0223  0.5605
   65SOL    HW1  194   0.245   1.544   0.653 -2.5512 -1.3282  2.0285
   65SOL    HW2  195   0.290   1.459   0.505  0.1788  1.1835 -2.0373
   66SOL     OW  196   2.532   0.409   0.585  0.2266 -0.7439 -0.3344
   66SOL    HW1  197   2.475   0.477   0.642  0.5705 -0.2923  1.9824
   66SOL    HW2  198   2.510   0.309   0.601 -1.1014 -2.1514 -1.3784
   67SOL     OW  199   0.558   2.526   1.375 -0.0632 -0.1113 -0.4467
   67SOL    HW1  200   0.621   2.521   1.456  0.2631  0.1474  0.1713
   67SOL    HW2  201   0.499   2.441   1.350 -2.2209  0.3281 -1.0791
   68SOL     OW  202   1.009   1.113   2.446 -0.0995  0.2664 -0.3613
   68SOL    HW1  203   1.045   1.035   2.387  3.1773  1.4840  1.0612
   68SOL    HW2  204   0.932   1.163   2.400 -1.0668  1.3401  1.9376
   69SOL     OW  205   0.792   2.776   2.215 -0.0865 -0.0100  0.4889
   69SOL    HW1  206   0.816   2.677   2.186 -0.4870  1.8205  2.6230
   69SOL    HW2  207   0.697   2.802   2.174 -1.7120  2.1176 -0.3527
   70SOL     OW  208   0.605   0.297   2.715 -0.2947  0.5081 -0.1083
   70SOL    HW1  209   0.570   0.375   2.774 -1.5653 -1.7926  1.5587
   70SOL    HW2  210   0.562   0.200   2.737 -1.3538  0.1430  1.0199
   71SOL     OW  211   1.057   1.746   0.345 -0.0406 -0.7301  0.4596
   71SOL    HW1  212   1.007   1.657   0.360  1.5548 -1.5825  0.8397
   71SOL    HW2  213   1.037   1.796   0.250  1.1106  0.7101  0.0456
   72SOL     OW  214   1.790   0.168   2.058  0.4627  0.2990  0.7681
   72SOL    HW1  215   1.849   0.194   1.976  3.2519 -1.7165  3.0943
   72SOL    HW2  216   1.795   0.066   2.076  1.8027 -2.4733  1.9795
   73SOL     OW  217   2.804   2.157   2.457  0.7288 -0.3613 -0.2688
   73SOL    HW1  218   2.766   2.054   2.436 -1.4186 -1.1885 -0.9760
   73SOL    HW2  219   2.820   2.178   2.558 -0.9085  0.9593 -2.0878
   74SOL     OW  220   2.725   2.911   2.034 -0.1753 -0.6601  0.2841
   74SOL    HW1  221   2.651   2.915   2.099 -1.0660 -0.9334 -1.9434
   74SOL    HW2  222   2.817   2.935   2.074  0.0660  2.1246  2.7115
   75SOL     OW  223   0.932   0.754   1.053 -0.5893 -0.3311  0.1872
   75SOL    HW1  224   0.836   0.767   1.028  3.7690 -2.5174 -0.4331
   75SOL    HW2  225   0.964   0.825   1.121 -3.4787 -0.9782  0.3880
   76SOL     OW  226   1.688   1.276   2.531 -0.5477  0.2552 -0.0346
   76SOL    HW1  227   1.604   1.228   2.565  1.0146  1.0880 -3.8200
   76SOL    HW2  228   1.697   1.370   2.578  0.2936  0.7336  1.9676
   77SOL     OW  229   2.943   0.942   0.959  0.4902  0.0281 -0.2214
   77SOL    HW1  230   2.917   0.839   0.949 -0.8780 -2.4087  1.0156
   77SOL    HW2  231   3.010   0.965   1.034  0.0101 -0.8008  1.8747
   78SOL     OW  232   2.058   1.390   1.539 -0.1051 -0.2970 -0.2664
   78SOL    HW1  233   2.135   1.411   1.472 -0.1023  0.9704  1.8364
   78SOL    HW2  234   1.993   1.313   1.514  0.9316 -0.6220  0.0451
   79SOL     OW  235   0.653   1.336   0.884  0.4379  0.5601  0.1371
   79SOL    HW1  236   0.554   1.366   0.901 -1.9707  0.7354 -0.2373
   79SOL    HW2  237   0.673   1.330   0.779  1.7243  3.3217 -0.7920
   80SOL     OW  238   0.676   0.464   1.619 -0.0633 -0.2794  0.0520
   80SOL    HW1  239   0.729   0.535   1.565  0.4695 -0.8056  1.2317
   80SOL    HW2  240   0.710   0.368   1.602  0.2664  1.6953 -3.6446
   81SOL     OW  241   1.043   1.394   2.595  0.0186  0.2489  0.0707
   81SOL    HW1  242   1.077   1.296   2.629 -0.1284 -1.0893 -0.6914
   81SOL    HW2  243   0.976   1.391   2.514 -3.8563 -1.0144  0.6693
   82SOL     OW  244   0.926   2.942   1.508 -0.0574 -0.1897 -0.4122
   82SOL    HW1  245   0.973   2.968   1.418  1.1456  0.3064  0.8611
   82SOL    HW2  246   0.853   2.870   1.487 -0.9093 -0.3904  0.2342
   83SOL     OW  247   2.695   2.497   0.844 -0.0475  0.0986 -0.0912
   83SOL    HW1  248   2.645   2.420   0.802  2.9307  1.3127  2.0375
   83SOL    HW2  249   2.659   2.593   0.816  1.1223  1.5126 -0.8016
   84SOL     OW  250   0.692   3.071   2.310 -0.3762 -0.3865  0.0687
   84SOL    HW1  251   0.626   3.061   2.396 -0.9899  0.1872  1.2870
   84SOL    HW2  252   0.753   2.990   2.292  0.5182  0.2419 -1.8200
   85SOL     OW  253   0.353   1.611   1.539 -0.0970 -0.5808 -0.3158
   85SOL    HW1  254   0.291   1.699   1.542 -1.8324  2.7784  4.1732
   85SOL    HW2  255   0.384   1.588   1.639  3.3100 -0.5440  1.8699
   86SOL     OW  256   0.372   0.972   1.516  0.0769  0.0707  0.2528
   86SOL    HW1  257   0.354   0.917   1.427 -0.7555  1.1816  0.0409
   86SOL    HW2  258   0.360   0.914   1.602  0.1336  1.0356 -0.9959
   87SOL     OW  259   1.551   0.664   0.178  0.0901  0.2932  0.0243
   87SOL    HW1  260   1.636   0.713   0.200 -2.9027 -2.2584  0.9099
   87SOL    HW2  261   1.549   0.619   0.084 -1.9822  0.3790  0.2382
   88SOL     OW  262   1.578   1.403   0.236 -0.2103 -0.1387 -0.4054
   88SOL    HW1  263   1.613   1.310   0.267 -1.5054  0.2145  0.6462
   88SOL    HW2  264   1.476   1.424   0.249  1.7616 -3.1211  0.3137
   89SOL     OW  265   0.031   0.426   0.592 -0.1600  0.3886 -0.1206
   89SOL    HW1  266   0.097   0.356   0.558  0.2970  1.0859  2.0037
   89SOL    HW2  267  -0.071   0.402   0.572  0.3376 -0.6009 -0.2353
   90SOL     OW  268   0.920   1.585   3.096  0.3784  0.9329  0.2823
   90SOL    HW1  269   0.846   1.578   3.169 -1.3023 -1.3908  0.7917
   90SOL    HW2  270   0.887   1.633   3.009  0.8716  1.7351  1.2469
   91SOL     OW  271   1.262   1.422   1.795  0.0482  0.4829 -0.0266
   91SOL    HW1  272   1.233   1.516   1.824 -0.4848 -0.8367 -1.0652
   91SOL    HW2  273   1.360   1.411   1.764  0.4382 -1.2224 -0.8936
   92SOL     OW  274   3.081   0.966   1.214  0.3241 -0.8435  0.0779
   92SOL    HW1  275   3.123   1.050   1.173  0.1856 -0.9892  0.3665
   92SOL    HW2  276   3.106   0.971   1.318  2.2831 -0.1966  1.3934
   93SOL     OW  277   3.097   2.746   0.021  1.0646 -0.0391 -0.3450
   93SOL    HW1  278   3.064   2.745  -0.076 -1.6159  1.2880  0.0112
   93SOL    HW2  279   3.135   2.654   0.050 -0.1229  0.4898  4.1824
   94SOL     OW  280   1.539   1.478   1.749 -0.2555 -0.0303  1.0283
   94SOL    HW1  281   1.610   1.411   1.718  0.1398 -2.2345  0.2466
   94SOL    HW2  282   1.571   1.546   1.822 -2.4664  0.9360 -0.2318
   95SOL     OW  283   1.389   2.516   3.023  0.7090  0.1740 -0.1160
   95SOL    HW1  284   1.326   2.491   3.102 -0.9046 -0.2410  0.9777
   95SOL    HW2  285   1.401   2.430   2.958  3.3495 -1.8539  1.6972
   96SOL     OW  286   0.530   2.042   1.315  0.1347  0.5676  0.1299
   96SOL    HW1  287   0.513   2.045   1.214  1.4912 -1.2784  1.1415
   96SOL    HW2  288   0.582   1.961   1.353  1.6595 -0.1382 -0.1898
   97SOL     OW  289   0.411   1.620   2.444  0.1322  0.1156 -0.0804
   97SOL    HW1  290   0.311   1.597   2.469 -0.8435 -1.9083 -2.4219
   97SOL    HW2  291   0.460   1.669   2.519 -2.4610  2.3291 -0.3270
   98SOL     OW  292   1.957   1.583   1.242  0.0236  0.2612  0.1105
   98SOL    HW1  293   1.902   1.549   1.317 -1.0201  1.5710 -0.0711
   98SOL    HW2  294   1.961   1.515   1.162 -0.2754 -0.8258 -0.8533
   99SOL     OW  295   2.472   2.128   1.364 -0.2849  0.2734 -0.0577
   99SOL    HW1  296   2.498   2.200   1.433 -0.7729  1.6068 -1.4644
   99SOL    HW2  297   2.446   2.036   1.405 -1.8570 -0.1465 -0.8972
  100SOL     OW  298   2.295   0.366   2.077 -0.1897 -0.4894 -0.1688
  100SOL    HW1  299   2.241   0.332   2.163  1.7028  0.0192  0.2952
  100SOL    HW2  300   2.360   0.447   2.100  0.1249 -2.8084  0.7567
  101SOL     OW  301   0.362   1.498   0.259 -0.4753  0.1905 -0.2051
  101SOL    HW1  302   0.422   1.520   0.346  1.4865  0.2626 -0.4117
  101SOL    HW2  303   0.376   1.567   0.181 -0.7083  2.1782  0.3360
  102SOL     OW  304   2.308   1.011   0.835  0.1085  0.1383  0.0076
  102SOL    HW1  305   2.229   0.956   0.804  1.4920 -0.3996  2.1715
  102SOL    HW2  306   2.310   1.105   0.780 -1.5364  1.1596 -2.1547
  103SOL     OW  307   2.295   0.016   0.410  0.1689  0.2526  0.0625
  103SOL    HW1  308   2.333   0.113   0.383  0.1607  0.7146 -2.5157
  103SOL    HW2  309   2.362  -0.052   0.440  0.9896  1.1249 -2.2103
  104SOL     OW  310   0.081   1.735   2.199  0.5234  0.6163 -0.4776
  104SOL    HW1  311   0.136   1.714   2.115 -0.9277 -0.4188  3.6821
  104SOL    HW2  312  -0.013   1.775   2.167  0.5493  2.4968  0.7078
  105SOL     OW  313   1.278   2.110   0.782  0.0643  0.2407 -0.1736
  105SOL    HW1  314   1.191   2.103   0.725 -0.6307  1.3746 -1.2801
  105SOL    HW2  315   1.332   2.021   0.779  0.7992 -0.7495 -2.4665
  106SOL     OW  316   2.152   0.544   1.396  0.0439 -0.5893  0.1649
  106SOL    HW1  317   2.112   0.448   1.419 -0.3045 -0.7026  1.6227
  106SOL    HW2  318   2.118   0.618   1.462 -0.5735  0.6074  0.1485
  107SOL     OW  319   1.758   2.995   1.127 -0.1804 -0.0370  0.4743
  107SOL    HW1  320   1.799   3.080   1.167 -1.1746  0.3904  0.0362
  107SOL    HW2  321   1.733   2.926   1.203  0.4561  0.8153 -0.9356
  108SOL     OW  322   0.827   2.772   1.197  0.1799  0.2867 -0.1323
  108SOL    HW1  323   0.780   2.732   1.281  1.2239 -0.2054 -0.2431
  108SOL    HW2  324   0.930   2.753   1.195  0.8487  0.1266 -1.8608
  109SOL     OW  325   2.245   0.120   0.769 -0.5946 -0.7074 -0.1572
  109SOL    HW1  326   2.139   0.112   0.751 -0.7642 -1.3710 -0.2363
  109SOL    HW2  327   2.265   0.106   0.873  1.8716 -0.9676  0.6309
  110SOL     OW  328   0.449   2.859   2.744 -0.1016  0.3214  0.2993
  110SOL    HW1  329   0.423   2.881   2.645 -0.5795  0.6037  1.6251
  110SOL    HW2  330   0.521   2.788   2.749  1.3308  3.5852  0.4049
  111SOL     OW  331   1.313   0.509   2.275 -0.4826  0.0265  0.3924
  111SOL    HW1  332   1.233   0.553   2.323 -0.4392 -1.4659 -0.8226
  111SOL    HW2  333   1.360   0.436   2.337  1.6383 -2.6893 -1.9228
  112SOL     OW  334   1.749   0.500   1.486 -0.1668  0.6629  0.3174
  112SOL    HW1  335   1.762   0.447   1.398 -0.2968  0.2477  1.0419
  112SOL    HW2  336   1.714   0.440   1.564  0.2868 -2.3074  1.8916
  113SOL     OW  337   2.257   1.643   1.781 -0.0531  0.1455  0.4973
  113SOL    HW1  338   2.323   1.578   1.731 -1.4267 -0.1618 -2.7620
  113SOL    HW2  339   2.282   1.664   1.879  1.2745  1.0600 -0.8000
  114SOL     OW  340   0.395   0.509   1.236  0.6321 -0.4430 -0.1078
  114SOL    HW1  341   0.429   0.578   1.165 -0.2851  1.2719  1.9058
  114SOL    HW2  342   0.300   0.486   1.226  1.2534  0.2120 -0.5914
  115SOL     OW  343   2.772   1.650   1.280  0.4122 -0.2300  0.7096
  115SOL    HW1  344   2.787   1.549   1.297 -0.7083  1.5809  1.2793
  115SOL    HW2  345   2.770   1.676   1.178  0.6102 -0.6925 -0.7763
  116SOL     OW  346   1.833   1.038   0.712  0.3145  0.2639 -0.0915
  116SOL    HW1  347   1.755   0.981   0.662 -1.3334  0.3895 -1.4005
  116SOL    HW2  348   1.802   1.116   0.774  0.7442  1.1619 -0.2366
  117SOL     OW  349   1.170   0.389   0.697  0.4400 -0.7455  1.1544
  117SOL    HW1  350   1.212   0.389   0.788  3.6906  0.0653 -2.1142
  117SOL    HW2  351   1.217   0.463   0.636 -0.8646  1.5660 -1.5910
  118SOL     OW  352   1.102   1.166   1.071  0.1641  0.1033 -0.1150
  118SOL    HW1  353   1.102   1.071   1.119  1.2275  3.9588 -0.0035
  118SOL    HW2  354   1.120   1.246   1.135  1.6152  0.7101  1.7574
  119SOL     OW  355   1.834   1.620   2.100 -0.3156 -0.2639  0.1944
  119SOL    HW1  356   1.813   1.713   2.137  0.4152 -3.5349 -1.8169
  119SOL    HW2  357   1.930   1.598   2.107 -0.4687  2.1039  1.7981
  120SOL     OW  358   2.939   2.843   0.220 -0.3447 -0.3370 -0.1719
  120SOL    HW1  359   3.008   2.824   0.138 -0.6151 -2.1602 -1.8975
  120SOL    HW2  360   2.886   2.760   0.234 -0.0239 -0.2129 -0.2027
  121SOL     OW  361   2.025   0.768   2.294  0.0902 -0.4709  0.8876
  121SOL    HW1  362   2.033   0.837   2.215  1.2535  3.0172  0.7177
  121SOL    HW2  363   2.033   0.666   2.266  0.4367  1.0129 -1.2353
  122SOL     OW  364   2.599   2.701   1.245  0.5054 -0.0844  0.1325
  122SOL    HW1  365   2.630   2.617   1.198  0.4129  3.3836  2.5639
  122SOL    HW2  366   2.589   2.784   1.182  2.5410  1.7272 -0.8528
  123SOL     OW  367   1.723   0.062   1.673 -0.0654  0.1057 -0.0706
  123SOL    HW1  368   1.755  -0.031   1.641  0.7819 -0.1950  0.0823
  123SOL    HW2  369   1.801   0.119   1.708 -3.3459 -1.3410  0.7712
  124SOL     OW  370   0.132   0.413   1.115  0.1022  0.2015  0.1309
  124SOL    HW1  371   0.092   0.505   1.151  1.2112 -0.6534  0.0610
  124SOL    HW2  372   0.089   0.406   1.026 -2.5769 -0.2436  2.3503
  125SOL     OW  373   0.846   1.798   0.683 -0.1783  0.7275  0.1710
  125SOL    HW1  374   0.931   1.744   0.658  0.1307  1.1317 -0.2744
  125SOL    HW2  375   0.818   1.782   0.780 -0.4788  2.1412  2.6628
  126SOL     OW  376   1.907   2.322   2.454 -0.1220 -0.3867  0.6962
  126SOL    HW1  377   1.993   2.286   2.407  0.1702  0.0261  1.2177
  126SOL    HW2  378   1.840   2.247   2.478 -1.5251  0.4323 -1.1355
  127SOL     OW  379   0.841   0.893   0.315 -0.0466 -0.6739 -0.2942
  127SOL    HW1  380   0.858   0.913   0.415  0.9843  2.1112 -2.1123
  127SOL    HW2  381   0.885   0.806   0.280  3.8715  2.6421 -0.7318
  128SOL     OW  382   0.972   0.213   1.371  0.0933  0.5169  0.0259
  128SOL    HW1  383   0.960   0.310   1.321 -2.2605  2.6074 -1.0613
  128SOL    HW2  384   0.887   0.151   1.352  1.4458 -0.9338 -1.3223
  129SOL     OW  385   1.834   0.694   1.888  0.4229  0.1775  0.1764
  129SOL    HW1  386   1.837   0.720   1.792 -0.0131  3.4244 -0.8730
  129SOL    HW2  387   1.828   0.776   1.953  0.1694 -0.4397 -2.0601
  130SOL     OW  388   1.367   2.239   1.014  0.3256 -0.2492 -0.1099
  130SOL    HW1  389   1.340   2.195   0.922 -1.4608  0.3836  0.6216
  130SOL    HW2  390   1.442   2.313   0.999  0.4473  1.5706  0.1276
  131SOL     OW  391   3.069   1.444   1.376 -0.5767 -0.4231 -0.3136
  131SOL    HW1  392   3.042   1.345   1.394 -0.3003 -3.2362 -1.1638
  131SOL    HW2  393   3.172   1.464   1.383 -0.2053  3.5211 -0.4502
  132SOL     OW  394   2.005   2.444   0.531  0.2688  0.1058  0.7224
  132SOL    HW1  395   1.901   2.444   0.526 -0.8072  0.4981 -1.0252
  132SOL    HW2  396   2.036   2.429   0.627 -0.2249  1.5664 -2.0078
  133SOL     OW  397   1.848   2.259   2.772  0.1512 -0.1070 -0.0070
  133SOL    HW1  398   1.895   2.282   2.861  3.2946 -0.5391 -0.8851
  133SOL    HW2  399   1.849   2.339   2.701  0.6390  0.8190 -2.1369
  134SOL     OW  400   2.676   2.318   1.641  0.4137 -0.2565  0.7754
  134SOL    HW1  401   2.617   2.308   1.728 -0.8822 -1.4256 -0.6005
  134SOL    HW2  402   2.732   2.406   1.645 -1.5091  2.3685 -1.9898
  135SOL     OW  403   0.715   1.519   2.658  0.3999 -0.8313 -0.1923
  135SOL    HW1  404   0.665   1.442   2.692 -0.6213  1.0949 -0.1856
  135SOL    HW2  405   0.779   1.505   2.575 -1.0729  1.6026  1.4598
  136SOL     OW  406   1.201   1.951   0.448 -0.1896 -0.5290 -0.2331
  136SOL    HW1  407   1.136   2.020   0.492 -1.7208  1.1189  1.1835
  136SOL    HW2  408   1.143   1.875   0.402 -1.3441 -0.6381 -1.0170
  137SOL     OW  409   0.399   1.131   2.143  0.5368 -0.3903  0.3952
  137SOL    HW1  410   0.307   1.156   2.189  1.0040  0.1298 -0.6848
  137SOL    HW2  411   0.465   1.079   2.210  1.0884 -0.5739  1.9433
  138SOL     OW  412   2.466   1.487   0.274  0.8632  0.1282  0.3974
  138SOL    HW1  413   2.400   1.445   0.207 -1.0730  0.6938  2.2286
  138SOL    HW2  414   2.503   1.411   0.333  1.8781 -1.3099 -0.3931
  139SOL     OW  415   1.815   2.651   1.291 -0.0144  0.0686  0.1252
  139SOL    HW1  416   1.709   2.656   1.277 -1.2946 -0.4228 -0.1347
  139SOL    HW2  417   1.843   2.554   1.325  3.1948 -2.8658  0.4247
  140SOL     OW  418   2.988   2.907   2.609  0.1755 -0.6136 -0.0437
  140SOL    HW1  419   3.038   2.814   2.598 -0.4049  0.1923 -0.3183
  140SOL    HW2  420   3.056   2.978   2.647  2.4711 -1.2765 -0.3007
  141SOL     OW  421   1.269   1.708   1.610  0.1475 -0.0477  0.4195
  141SOL    HW1  422   1.167   1.708   1.588 -2.0292  1.8124 -0.5300
  141SOL    HW2  423   1.300   1.639   1.681 -0.2351 -2.3524 -0.3358
  142SOL     OW  424   1.546   0.619   2.190 -0.1572 -0.1047  0.4935
  142SOL    HW1  425   1.554   0.601   2.087  0.9056 -2.6889  0.2421
  142SOL    HW2  426   1.451   0.599   2.221  2.2009  2.2405 -1.3287
  143SOL     OW  427   2.735   0.899   0.483  0.0468  0.6217 -0.4016
  143SOL    HW1  428   2.790   0.951   0.407  2.8931 -0.4875 -0.8894
  143SOL    HW2  429   2.767   0.946   0.576  0.5403  0.4958 -0.0644
  144SOL     OW  430   2.933   1.201   1.449 -0.2165 -0.4949 -0.0892
  144SOL    HW1  431   2.912   1.174   1.546 -0.6789  0.2901 -1.2888
  144SOL    HW2  432   2.995   1.135   1.402  2.4165  0.1547  2.9449
  145SOL     OW  433   1.004   1.861   0.080 -0.2706 -0.2722 -0.2879
  145SOL    HW1  434   1.034   1.924   0.003 -1.6843  2.4008 -0.2581
  145SOL    HW2  435   0.981   1.766   0.046  2.5361 -0.6480  0.6837
  146SOL     OW  436   2.454   0.684   1.536 -0.0703  0.8479 -0.8508
  146SOL    HW1  437   2.426   0.606   1.475 -1.1921 -1.3793 -0.2629
  146SOL    HW2  438   2.403   0.767   1.499  1.6465 -0.6115  0.5034
  147SOL     OW  439   1.098   2.467   0.614  0.1114  0.7761 -0.3240
  147SOL    HW1  440   1.066   2.511   0.527  0.4298 -3.1675  2.9872
  147SOL    HW2  441   1.195   2.430   0.601 -0.4378  0.9586  1.3609
  148SOL     OW  442   1.654   1.453   3.079  0.4482  0.1253  0.0170
  148SOL    HW1  443   1.669   1.366   3.019  1.0494 -1.0733  1.3535
  148SOL    HW2  444   1.629   1.424   3.177 -0.7404  2.0918  0.7701
  149SOL     OW  445   0.710   1.440   1.952 -0.0067 -0.2416  0.5979
  149SOL    HW1  446   0.625   1.412   2.004 -1.3355  0.0550  1.5493
  149SOL    HW2  447   0.731   1.379   1.872 -2.7446  0.9038 -1.9444
  150SOL     OW  448   3.042   1.260   0.974 -0.0513  0.3821  0.1990
  150SOL    HW1  449   3.122   1.275   1.037  0.5642 -1.7482 -0.9253
  150SOL    HW2  450   2.999   1.165   0.984  0.2421  0.0929  0.8460
  151SOL     OW  451   0.218   0.768   2.088  0.4254 -0.3971  0.3682
  151SOL    HW1  452   0.255   0.835   2.017  2.2294 -2.6194  1.5809
  151SOL    HW2  453   0.224   0.672   2.052 -1.1393  1.7467 -0.7251
  152SOL     OW  454   1.381   1.804   1.298  0.3329 -0.2410 -0.1213
  152SOL    HW1  455   1.364   1.892   1.348 -0.2840  1.3815 -2.8567
  152SOL    HW2  456   1.290   1.760   1.277  0.9511  0.8436 -0.9488
  153SOL     OW  457   3.073   1.527   0.184 -0.9329 -0.6548  0.2745
  153SOL    HW1  458   3.086   1.424   0.195  0.0998 -0.5367 -1.1358
  153SOL    HW2  459   3.090   1.581   0.274 -1.2524  0.2465 -0.0527
  154SOL     OW  460   2.333   1.844   2.777 -0.0021 -0.3097 -0.7703
  154SOL    HW1  461   2.366   1.746   2.775  1.1996 -1.0535 -1.8331
  154SOL    HW2  462   2.402   1.914   2.745  0.2292  0.8626  0.6047
  155SOL     OW  463   2.421   1.237   0.419 -0.1812 -0.0248 -0.4210
  155SOL    HW1  464   2.516   1.193   0.408 -0.5366 -0.2821 -2.1502
  155SOL    HW2  465   2.352   1.200   0.349  1.8533  2.4678 -0.1733
  156SOL     OW  466   2.571   0.972   0.873 -0.0344  0.3909 -0.5065
  156SOL    HW1  467   2.465   0.982   0.872 -0.6530  1.9628 -0.1895
  156SOL    HW2  468   2.615   1.067   0.852  0.0986  3.9876  1.3450
  157SOL     OW  469   1.261   2.998   3.050  0.4283 -0.5073  0.5248
  157SOL    HW1  470   1.303   2.941   2.976 -1.4437  1.5301  1.2810
  157SOL    HW2  471   1.288   3.100   3.057 -3.4474 -0.1482  2.4147
  158SOL     OW  472   1.009   1.839   1.994  0.4279 -0.2894 -0.7033
  158SOL    HW1  473   1.047   1.934   1.988  0.4011  2.2302  0.8909
  158SOL    HW2  474   0.925   1.836   2.062 -2.1895  0.4490 -1.9255
  159SOL     OW  475   0.859   0.450   1.242 -0.4095 -0.0211 -0.2947
  159SOL    HW1  476   0.829   0.544   1.274  0.1346  2.3182 -0.0735
  159SOL    HW2  477   0.781   0.404   1.190 -0.5078  0.2588 -0.0876
  160SOL     OW  478   1.445   2.389   1.663 -0.4062 -0.6658 -0.4891
  160SOL    HW1  479   1.421   2.491   1.665 -2.0555 -0.2715  2.2281
  160SOL    HW2  480   1.517   2.359   1.594 -0.3160 -1.1218 -0.1409
  161SOL     OW  481   0.110   2.899   0.322 -0.8901  0.3651 -0.4664
  161SOL    HW1  482   0.014   2.880   0.327  4.7101 -1.5330  0.0175
  161SOL    HW2  483   0.137   2.944   0.231  0.4459 -0.2451  0.5910
  162SOL     OW  484   2.543   1.930   0.447 -0.0685 -0.4365  0.2364
  162SOL    HW1  485   2.567   1.888   0.352 -0.7935  2.1877 -2.4655
  162SOL    HW2  486   2.565   1.863   0.519 -2.5774 -0.3101  1.1443
  163SOL     OW  487   1.937   2.724   0.782 -0.1487  0.2510 -0.2209
  163SOL    HW1  488   1.917   2.745   0.683 -0.0264 -1.2251 -0.1581
  163SOL    HW2  489   2.017   2.662   0.790 -0.3824 -0.3195  0.1791
  164SOL     OW  490   3.026   0.194   1.175  0.1469  0.2046  0.0530
  164SOL    HW1  491   3.107   0.252   1.153  1.1701 -1.6311  0.0329
  164SOL    HW2  492   3.054   0.130   1.247  1.1129  2.0716 -0.6839
  165SOL     OW  493   0.917   1.426   0.673 -0.4401  0.3126  0.4921
  165SOL    HW1  494   0.859   1.474   0.750 -0.5630 -0.3998  2.3341
  165SOL    HW2  495   0.898   1.472   0.583 -0.2058 -1.2693  0.2990
  166SOL     OW  496   1.469   1.085   1.735 -0.1988 -0.1222 -0.4286
  166SOL    HW1  497   1.412   1.034   1.803  0.2662 -0.0292  2.4847
  166SOL    HW2  498   1.539   1.143   1.779 -0.1451 -0.5453 -2.4246
  167SOL     OW  499   0.753   1.909   1.481 -0.5160  0.1959 -0.1279
  167SOL    HW1  500   0.786   1.987   1.546  0.9943 -0.4882 -0.3081
  167SOL    HW2  501   0.716   1.827   1.532  0.1391 -1.1812  0.5138
  168SOL     OW  502   1.619   2.396   0.151 -0.1743  0.0053  0.1503
  168SOL    HW1  503   1.685   2.459   0.101  3.3998 -1.6814  2.4581
  168SOL    HW2  504   1.665   2.311   0.192  1.8319 -0.1270 -0.2379
  169SOL     OW  505   0.196   2.554   2.227 -0.4340 -0.6838 -0.2755
  169SOL    HW1  506   0.251   2.485   2.178 -1.1806 -0.3191 -1.1603
  169SOL    HW2  507   0.189   2.526   2.327  3.2641  0.2448  1.9622
  170SOL     OW  508   1.216   0.252   1.977 -0.8455 -0.3417  0.5247
  170SOL    HW1  509   1.275   0.224   2.059  0.3350  0.6709 -0.4200
  170SOL    HW2  510   1.216   0.175   1.905 -1.0482 -1.5674 -0.0715
  171SOL     OW  511   0.224   0.834   2.373  0.1611 -0.2248 -0.2409
  171SOL    HW1  512   0.131   0.866   2.412  0.3924 -0.1088  0.7587
  171SOL    HW2  513   0.217   0.816   2.270 -0.4245  0.2988  1.6456
  172SOL     OW  514   0.900   1.080   2.924  0.4915 -0.2824 -0.3282
  172SOL    HW1  515   0.985   1.127   2.958 -0.3936  0.4633  2.8585
  172SOL    HW2  516   0.890   1.088   2.822  4.1152 -1.5580 -1.2621
  173SOL     OW  517   0.656   2.672   0.068  0.2971 -1.0156  0.0512
  173SOL    HW1  518   0.642   2.766   0.109  1.3895  4.2623 -0.1809
  173SOL    HW2  519   0.571   2.617   0.056 -0.8971  0.2054  1.3372
  174SOL     OW  520   1.404   2.843   1.079  0.2466 -0.6136  0.4836
  174SOL    HW1  521   1.373   2.924   1.017 -1.3586  0.6987 -2.8110
  174SOL    HW2  522   1.369   2.755   1.042 -0.6839 -0.6026  1.5262
  175SOL     OW  523   0.409   0.048   1.672 -0.6803 -0.2776  0.2759
  175SOL    HW1  524   0.476   0.095   1.736 -0.4947 -0.9502 -0.2805
  175SOL    HW2  525   0.360   0.115   1.614  0.9429  0.0670 -1.0414
  176SOL     OW  526   2.568   0.377   3.072 -0.0560  0.1581  0.5930
  176SOL    HW1  527   2.588   0.473   3.114  2.6506 -0.2645 -1.0667
  176SOL    HW2  528   2.498   0.314   3.118 -1.1580 -4.1416  1.3557
  177SOL     OW  529   0.339   0.302   0.968 -0.1202  0.2584  0.0665
  177SOL    HW1  530   0.400   0.238   1.019  1.5017  1.1839  0.6455
  177SOL    HW2  531   0.263   0.350   1.020  0.0363  3.2822  3.2079
  178SOL     OW  532   0.050   2.670   2.638 -0.0669 -0.2735  0.6189
  178SOL    HW1  533  -0.020   2.603   2.674  1.8663  0.8156  2.0302
  178SOL    HW2  534   0.093   2.720   2.719  1.7058  1.7993 -0.7588
  179SOL     OW  535   0.012   1.694   1.195 -0.1222 -0.0175 -0.0696
  179SOL    HW1  536  -0.046   1.785   1.184 -0.1718  1.4349 -0.3708
  179SOL    HW2  537  -0.029   1.622   1.259 -1.2751 -2.2840  3.5848
  180SOL     OW  538   0.230   1.191   1.872 -0.0643 -0.0746  0.2871
  180SOL    HW1  539   0.328   1.196   1.857  0.2245  2.1950  1.6360
  180SOL    HW2  540   0.192   1.279   1.921 -1.6738  0.4816  0.7717
  181SOL     OW  541   3.020   1.835   2.518 -0.0890  0.2256 -0.5035
  181SOL    HW1  542   3.100   1.876   2.466  0.2993 -2.8206  3.6702
  181SOL    HW2  543   2.931   1.822   2.466 -3.4172 -2.4225  1.3367
  182SOL     OW  544   2.268   1.292   1.161  0.1095  0.0501 -0.0764
  182SOL    HW1  545   2.186   1.270   1.100  0.3730  1.6592  0.2977
  182SOL    HW2  546   2.295   1.394   1.159 -1.6063  0.4754  0.3583
  183SOL     OW  547   1.495   2.242   2.547  0.2913  0.0655  0.5249
  183SOL    HW1  548   1.407   2.190   2.522  3.0840  1.7614  2.6752
  183SOL    HW2  549   1.583   2.197   2.522  0.9092  1.6171  2.0333
  184SOL     OW  550   2.066   0.904   0.778 -0.0548 -0.5522 -0.7844
  184SOL    HW1  551   1.990   0.968   0.744  0.6830 -0.0871  0.4134
  184SOL    HW2  552   2.023   0.836   0.848 -1.9031  0.8263  1.8760
  185SOL     OW  553   1.577   2.738   2.086 -0.2272  0.4463  0.1546
  185SOL    HW1  554   1.543   2.833   2.056  0.2382 -0.8718  0.4150
  185SOL    HW2  555   1.510   2.671   2.128  0.9668 -3.1630 -0.9969
  186SOL     OW  556   0.052   2.189   1.688 -0.0644  0.5265  0.1425
  186SOL    HW1  557   0.088   2.284   1.682 -3.0864  3.5752 -0.9904
  186SOL    HW2  558   0.128   2.122   1.715  0.3609  0.1782 -2.4054
  187SOL     OW  559   1.388   0.716   1.660  0.1305 -0.0456  0.3704
  187SOL    HW1  560   1.443   0.747   1.575 -1.6357  2.2259 -1.3172
  187SOL    HW2  561   1.424   0.751   1.749 -4.4257  0.6496  1.4510
  188SOL     OW  562   2.782   2.773   1.454 -0.5334 -0.9370 -0.1730
  188SOL    HW1  563   2.750   2.872   1.445  0.0069 -0.1465 -2.3987
  188SOL    HW2  564   2.715   2.709   1.409 -0.0933  1.2241 -0.9111
  189SOL     OW  565   0.838   1.094   1.356  0.0698  0.7551  0.0941
  189SOL    HW1  566   0.912   1.160   1.389  0.2752 -0.6551 -1.3406
  189SOL    HW2  567   0.787   1.143   1.282 -0.1026  2.0962  0.4664
  190SOL     OW  568   1.540   1.890   1.596  0.1389  0.1879  0.0307
  190SOL    HW1  569   1.445   1.844   1.587 -1.6418 -0.8654  0.6606
  190SOL    HW2  570   1.552   1.935   1.691 -1.2002  0.3351 -0.2231
  191SOL     OW  571   0.974   0.755   1.535  0.5490 -0.0594 -0.0105
  191SOL    HW1  572   1.026   0.667   1.556  1.5168 -0.4892 -0.7007
  191SOL    HW2  573   1.037   0.839   1.527 -0.7218  1.7685 -0.5471
  192SOL     OW  574   1.859   2.225   1.117  0.1532 -0.4531  0.2391
  192SOL    HW1  575   1.805   2.173   1.048  2.0711 -0.3103  0.8638
  192SOL    HW2  576   1.929   2.295   1.076 -1.3154  0.3895 -0.7858
  193SOL     OW  577   0.512   0.606   0.415 -0.2497 -0.0804  0.7311
  193SOL    HW1  578   0.486   0.525   0.468 -0.2705  0.4048  1.0711
  193SOL    HW2  579   0.592   0.585   0.348  0.3935 -1.9006  1.9837
  194SOL     OW  580   0.308   0.826   1.265  0.2739  0.1397  0.2298
  194SOL    HW1  581   0.229   0.756   1.257 -0.4197  0.5069  0.1129
  194SOL    HW2  582   0.300   0.899   1.195  1.4435  0.0607  0.4761
  195SOL     OW  583   1.001   2.910   0.509 -0.1727  0.1787  1.0587
  195SOL    HW1  584   0.994   2.831   0.440 -0.3213 -3.8932 -1.8502
  195SOL    HW2  585   1.098   2.953   0.503  2.2499  1.9049  3.2094
  196SOL     OW  586   0.252   1.382   1.372 -0.1582 -0.3057 -0.3976
  196SOL    HW1  587   0.303   1.464   1.412  0.5337 -1.0190 -2.1061
  196SOL    HW2  588   0.236   1.307   1.445  0.2010  1.2076 -0.8576
  197SOL     OW  589   0.820   2.028   0.212 -0.5012 -0.4406  0.1571
  197SOL    HW1  590   0.830   2.016   0.317  2.2327  0.1078 -0.4772
  197SOL    HW2  591   0.886   1.966   0.158  1.4202  1.1361  0.5072
  198SOL     OW  592   0.287   1.249   0.249  0.3338  0.3051 -0.2381
  198SOL    HW1  593   0.190   1.223   0.218 -2.1503 -0.6101 -3.6415
  198SOL    HW2  594   0.305   1.356   0.246  3.1289 -0.9420  0.2904
  199SOL     OW  595   2.214   0.346   2.532 -0.1058 -0.2554  0.0344
  199SOL    HW1  596   2.133   0.325   2.585  1.0404 -2.2760  0.0104
  199SOL    HW2  597   2.304   0.325   2.588  1.2350  1.4157  0.7646
  200SOL     OW  598   0.049   2.978   0.692  0.0864  0.4153  0.4450
  200SOL    HW1  599  -0.042   2.975   0.647  1.9229  0.0895  0.0669
  200SOL    HW2  600   0.054   3.056   0.761 -0.2723 -3.4185  1.5630
  201SOL     OW  601   1.110   0.739   0.641  0.6147  0.0932 -0.4468
  201SOL    HW1  602   1.132   0.807   0.717  1.0237  1.0521 -0.3046
  201SOL    HW2  603   1.012   0.725   0.613 -0.3285 -2.2334  0.3401
  202SOL     OW  604   0.487   1.216   1.825  0.6800 -0.4130 -0.4129
  202SOL    HW1  605   0.534   1.234   1.733  1.0832  1.3279 -2.2043
  202SOL    HW2  606   0.527   1.141   1.886 -2.3832  0.3852 -0.5754
  203SOL     OW  607   0.717   0.190   1.575 -0.4239  0.0551  0.2927
  203SOL    HW1  608   0.713   0.124   1.490 -1.5152  2.2722 -2.1886
  203SOL    HW2  609   0.775   0.159   1.655 -0.6813  0.6350 -2.2757
  204SOL     OW  610   2.054   1.857   2.982 -1.0858 -0.1491 -0.3357
  204SOL    HW1  611   2.066   1.750   2.975  1.3015  1.2140 -0.4355
  204SOL    HW2  612   2.007   1.894   2.897  1.1125  1.9036  3.3279
  205SOL     OW  613   1.820   1.875   0.022 -0.1652 -0.8328 -0.1730
  205SOL    HW1  614   1.913   1.864  -0.028  2.9107 -0.7470  0.9283
  205SOL    HW2  615   1.790   1.974   0.008  1.5085 -1.9208  1.5025
  206SOL     OW  616   2.515   2.791   0.318 -0.0711  0.0065  0.4261
  206SOL    HW1  617   2.578   2.722   0.354 -0.2148  2.8924  0.2482
  206SOL    HW2  618   2.563   2.850   0.247  1.4965 -2.4027  0.0030
  207SOL     OW  619   0.547   1.773   2.924  0.2297 -0.1648  0.3161
  207SOL    HW1  620   0.644   1.738   2.925 -1.1516  0.7138 -1.8805
  207SOL    HW2  621   0.489   1.725   2.992  1.0737  1.1378 -0.4859
  208SOL     OW  622   1.155   1.549   1.402  1.0916  0.3717 -0.0015
  208SOL    HW1  623   1.123   1.605   1.319 -0.2527  0.9262  2.2058
  208SOL    HW2  624   1.234   1.587   1.449 -2.0867 -2.2039 -0.6202
  209SOL     OW  625   0.266   0.960   3.002 -0.1369  0.2886  0.3754
  209SOL    HW1  626   0.289   0.921   2.907  0.1433  2.0955 -0.6715
  209SOL    HW2  627   0.268   0.885   3.072 -0.2482  0.1632 -0.5586
  210SOL     OW  628   1.762   0.458   1.204  0.2305 -0.1799  0.2264
  210SOL    HW1  629   1.744   0.558   1.177 -1.6488  1.4735  0.2225
  210SOL    HW2  630   1.856   0.431   1.171 -1.6523  0.8906 -0.1355
  211SOL     OW  631   2.115   1.050   1.619  0.3731 -0.0018 -0.2843
  211SOL    HW1  632   2.183   0.985   1.667  2.4615  0.6507  3.2910
  211SOL    HW2  633   2.164   1.123   1.567  0.3789 -3.8392 -1.8618
  212SOL     OW  634   0.050   0.998   1.476  0.0874 -0.3882  0.3023
  212SOL    HW1  635   0.094   1.086   1.512 -1.9594  0.3891  0.6856
  212SOL    HW2  636   0.073   0.911   1.523 -1.7021  0.9342  0.9454
  213SOL     OW  637   2.755   0.395   0.288 -0.2343  0.3649  0.9644
  213SOL    HW1  638   2.824   0.325   0.257  1.3938 -2.6977 -0.9338
  213SOL    HW2  639   2.747   0.457   0.207  0.9712  0.0686  1.2959
  214SOL     OW  640   2.140   0.269   2.293  0.2039  0.3924  0.3250
  214SOL    HW1  641   2.156   0.294   2.394 -0.4317 -1.2292  1.3199
  214SOL    HW2  642   2.114   0.169   2.282 -2.2167  0.6585  0.6671
  215SOL     OW  643   1.651   2.336   2.042 -0.0934  0.2647  0.0325
  215SOL    HW1  644   1.748   2.345   2.076 -2.5002 -0.0834 -0.8524
  215SOL    HW2  645   1.594   2.410   2.090  0.7014  1.1761  1.9764
  216SOL     OW  646   2.217   0.571   0.692 -0.1685  0.7498 -0.8171
  216SOL    HW1  647   2.218   0.489   0.629  0.7836  1.7179  1.1386
  216SOL    HW2  648   2.269   0.654   0.652  2.5457  1.0725 -1.3368
  217SOL     OW  649   0.726   2.760   2.487  0.1998  0.0599 -0.1023
  217SOL    HW1  650   0.715   2.666   2.533  0.2366 -1.1720  0.7828
  217SOL    HW2  651   0.754   2.764   2.387 -1.1395  1.6510 -1.0794
  218SOL     OW  652   1.923   1.442   0.069  0.0045  0.0839  0.3085
  218SOL    HW1  653   1.839   1.492   0.023  2.3197  2.8088 -0.4254
  218SOL    HW2  654   1.905   1.345   0.104 -1.4514  0.9117 -0.8138
  219SOL     OW  655   2.326   1.278   2.591  0.0233 -0.0736  0.0531
  219SOL    HW1  656   2.333   1.252   2.490 -0.3041  0.6705 -2.0921
  219SOL    HW2  657   2.351   1.204   2.655 -2.6011  0.7813 -2.8165
  220SOL     OW  658   1.537   0.999   1.239 -0.3896  0.5185  0.1793
  220SOL    HW1  659   1.626   1.038   1.274 -0.5121 -1.1507  3.9435
  220SOL    HW2  660   1.485   1.059   1.169 -2.8366 -0.2118 -0.8986
  221SOL     OW  661   1.361   1.067   2.183  0.2308  0.3021 -0.4486
  221SOL    HW1  662   1.298   1.106   2.107 -0.4454 -1.1602 -0.3609
  221SOL    HW2  663   1.462   1.056   2.152  2.0443 -0.1734  0.2355
  222SOL     OW  664   1.220   0.032   1.172 -0.4219  0.0672 -0.1741
  222SOL    HW1  665   1.292   0.024   1.246  0.5064  0.6963 -0.0806
  222SOL    HW2  666   1.185   0.128   1.161 -0.0024 -1.1252 -0.0077
  223SOL     OW  667   2.811   0.865   2.064 -0.5706  0.1725  0.0792
  223SOL    HW1  668   2.831   0.873   2.165 -0.2957 -1.4490  1.1921
  223SOL    HW2  669   2.879   0.916   2.004  2.0367 -0.7394 -1.1702
  224SOL     OW  670   1.513   0.986   2.739  0.5586  0.3154 -0.1224
  224SOL    HW1  671   1.553   0.920   2.668 -0.8183 -1.0278  3.5315
  224SOL    HW2  672   1.483   1.083   2.705 -2.0723  0.3307  1.5298
  225SOL     OW  673   2.958   2.783   2.880 -0.2277  0.1475 -0.3815
  225SOL    HW1  674   2.911   2.710   2.822  0.1341 -0.4684  1.4937
  225SOL    HW2  675   3.000   2.857   2.827 -0.8643  0.4826  2.6472
  226SOL     OW  676   2.416   1.572   2.826  0.1235  0.2098  0.1155
  226SOL    HW1  677   2.466   1.541   2.741  0.5265  0.9067  1.2865
  226SOL    HW2  678   2.377   1.495   2.885 -2.8170 -1.6615  0.2052
  227SOL     OW  679   0.838   0.146   3.036 -0.2598 -0.2649 -0.3390
  227SOL    HW1  680   0.860   0.098   3.123 -3.0341  2.6241 -2.2605
  227SOL    HW2  681   0.847   0.089   2.951  0.3938  1.7063  2.9477
  228SOL     OW  682   2.400   0.623   2.855  0.0826 -0.2974  0.3763
  228SOL    HW1  683   2.336   0.639   2.776  1.6565  0.9224  3.0733
  228SOL    HW2  684   2.488   0.574   2.827  2.3940  1.5094  0.8942
  229SOL     OW  685   0.601   0.503   1.894  0.6700 -0.3236  0.1004
  229SOL    HW1  686   0.635   0.505   1.793 -1.9283 -0.5955  1.5096
  229SOL    HW2  687   0.572   0.603   1.914 -0.7561 -1.3643 -6.3237
  230SOL     OW  688   1.918   1.192   2.146 -0.1167  0.0592 -0.7027
  230SOL    HW1  689   2.008   1.240   2.125 -3.2652 -1.5634 -1.9034
  230SOL    HW2  690   1.839   1.248   2.121  4.4446  2.4187 -0.3384
  231SOL     OW  691   0.653   0.985   2.950 -0.7239 -0.1386  0.0840
  231SOL    HW1  692   0.745   1.037   2.933  0.2895 -0.8013  0.6378
  231SOL    HW2  693   0.589   1.028   3.022 -1.7231 -0.5098 -2.4968
  232SOL     OW  694   2.443   0.023   2.770 -0.0035 -0.4458  0.2615
  232SOL    HW1  695   2.458  -0.074   2.799  1.5115 -1.1471  2.8576
  232SOL    HW2  696   2.484   0.051   2.678  1.3746 -0.5182  1.9629
  233SOL     OW  697   1.700   1.305   1.137 -0.1326  0.2106  0.0967
  233SOL    HW1  698   1.723   1.324   1.039 -2.7574 -2.2463  1.6071
  233SOL    HW2  699   1.736   1.215   1.164  1.8313  0.8295  2.4885
  234SOL     OW  700   1.599   2.584   1.859 -0.4027  0.2557  0.2535
  234SOL    HW1  701   1.572   2.637   1.946  2.5316 -0.1063  0.7790
  234SOL    HW2  702   1.541   2.495   1.854 -0.5279 -1.0717  1.9634
  235SOL     OW  703   0.028   3.013   2.884  0.2673  0.1111 -0.4777
  235SOL    HW1  704   0.086   3.093   2.851  0.8447  1.5224 -1.3951
  235SOL    HW2  705  -0.039   3.037   2.961 -1.0104 -2.6783  0.4627
  236SOL     OW  706   2.871   0.719   0.126  0.2678  0.5251 -0.6890
  236SOL    HW1  707   2.936   0.788   0.170 -3.9917  0.0930  0.0506
  236SOL    HW2  708   2.917   0.652   0.058  0.1692  1.2025  1.2506
  237SOL     OW  709   1.446   1.694   1.044  0.0665  0.7644 -0.0129
  237SOL    HW1  710   1.537   1.643   1.046  2.9194 -0.9446 -2.0819
  237SOL    HW2  711   1.425   1.742   1.132 -1.0354 -0.8826 -1.2002
  238SOL     OW  712   1.790   1.276   0.823 -0.2105 -0.0132  0.2281
  238SOL    HW1  713   1.881   1.263   0.774  1.6996 -0.5154 -0.0182
  238SOL    HW2  714   1.720   1.345   0.788  1.8702  1.6893  0.5424
  239SOL     OW  715   2.018   0.246   2.717 -0.4968 -0.3783  0.1236
  239SOL    HW1  716   2.070   0.220   2.800 -0.4016  1.5824 -0.4311
  239SOL    HW2  717   1.937   0.305   2.737 -1.4806  0.3397 -1.1844
  240SOL     OW  718   0.992   0.635   0.305  0.3198 -0.6692 -0.2891
  240SOL    HW1  719   0.973   0.543   0.251  2.4124 -2.1531  2.8750
  240SOL    HW2  720   0.944   0.627   0.398 -1.2890 -1.8106 -1.1514
  241SOL     OW  721   0.603   0.108   0.315  0.3804 -0.2677 -0.3016
  241SOL    HW1  722   0.621   0.172   0.238  3.1978  3.2189 -0.4786
  241SOL    HW2  723   0.583   0.014   0.282  0.7803  2.3076  0.5686
  242SOL     OW  724   0.690   2.464   1.133  0.4314 -0.3235  0.4584
  242SOL    HW1  725   0.655   2.540   1.202  1.0651  2.0075  0.5278
  242SOL    HW2  726   0.775   2.497   1.081 -1.5735 -0.4647  0.9941
  243SOL     OW  727   1.125   0.612   2.448  0.3798 -0.5483  0.4432
  243SOL    HW1  728   1.048   0.667   2.403  2.0423  0.5651 -0.7292
  243SOL    HW2  729   1.094   0.536   2.506  2.3821  3.0315 -1.4189
  244SOL     OW  730   2.774   1.847   2.348  0.1258  0.3723 -0.4556
  244SOL    HW1  731   2.819   1.830   2.256 -0.9598 -0.7878  0.7731
  244SOL    HW2  732   2.673   1.818   2.351 -1.8295 -1.3913 -0.6519
  245SOL     OW  733   2.476   0.677   2.179 -0.2226 -0.1429  0.6561
  245SOL    HW1  734   2.517   0.759   2.235 -0.7624  0.5638 -1.2421
  245SOL    HW2  735   2.527   0.592   2.190 -0.9166 -1.6933 -3.0138
  246SOL     OW  736   0.230   2.924   1.668 -0.2766 -0.2075 -0.7191
  246SOL    HW1  737   0.168   2.898   1.587 -0.7197 -0.1162 -1.2306
  246SOL    HW2  738   0.300   3.001   1.646 -2.3208  0.8710 -1.0192
  247SOL     OW  739   2.159   0.556   3.052 -0.9017  0.4785 -0.1404
  247SOL    HW1  740   2.252   0.583   3.003  2.0131  0.8405 -1.0388
  247SOL    HW2  741   2.102   0.639   3.079  0.1182 -1.6914  3.3962
  248SOL     OW  742   2.127   1.791   1.588 -0.0675 -0.2709  0.0134
  248SOL    HW1  743   2.196   1.736   1.643 -0.8042  0.5847  1.8967
  248SOL    HW2  744   2.034   1.791   1.641  0.4268 -0.9785  1.6803
  249SOL     OW  745   1.952   1.915   1.934  0.1382 -0.3501  0.4322
  249SOL    HW1  746   1.913   1.850   1.859 -1.6395 -1.0498 -1.3418
  249SOL    HW2  747   2.028   1.978   1.899 -0.5572  0.0288 -0.1337
  250SOL     OW  748   1.126   0.750   1.884 -0.2639  0.3853  0.4717
  250SOL    HW1  749   1.157   0.667   1.935  2.0397 -0.1198 -1.2716
  250SOL    HW2  750   1.164   0.755   1.790  1.2216  0.3308  0.3674
  251SOL     OW  751   3.044   1.562   2.533  0.2101  0.0699 -0.1327
  251SOL    HW1  752   3.044   1.666   2.549 -1.2994 -1.6755 -2.3031
  251SOL    HW2  753   2.946   1.523   2.514  1.8190 -0.6601 -2.5561
  252SOL     OW  754   1.559   0.898   1.526  0.5194  0.6595  0.5390
  252SOL    HW1  755   1.547   0.942   1.428 -1.3987 -0.9162 -1.0388
  252SOL    HW2  756   1.548   0.966   1.603  1.1659 -1.6949 -0.6344
  253SOL     OW  757   0.886   1.534   0.393  0.2824 -0.5308  0.1040
  253SOL    HW1  758   0.956   1.457   0.396 -1.0476  3.0429 -0.4167
  253SOL    HW2  759   0.783   1.501   0.375 -4.0681  0.4698  1.2739
  254SOL     OW  760   2.063   2.115   1.552 -0.3004 -0.5711 -0.2754
  254SOL    HW1  761   2.051   2.094   1.450  1.5007  0.9065 -1.3035
  254SOL    HW2  762   1.991   2.067   1.609  1.5765  0.1658  0.4484
  255SOL     OW  763   0.092   1.173   2.927  0.0667  0.0158  0.2346
  255SOL    HW1  764   0.146   1.262   2.906  0.4440  1.2117 -1.7676
  255SOL    HW2  765   0.149   1.098   2.964  0.7398  0.2607 -1.4888
  256SOL     OW  766   2.807   1.363   1.815 -0.5544  0.3332 -0.7719
  256SOL    HW1  767   2.725   1.414   1.854  0.3887 -0.3935 -1.0961
  256SOL    HW2  768   2.784   1.263   1.799 -0.7861  0.7490 -0.6400
  257SOL     OW  769   0.871   0.127   1.795 -0.0547  0.3090 -0.6802
  257SOL    HW1  770   0.919   0.215   1.793 -1.7852 -1.5953  2.0117
  257SOL    HW2  771   0.931   0.046   1.820 -2.3113  1.8248  1.8479
  258SOL     OW  772   2.942   1.305   0.413 -0.0949  0.5591 -0.1913
  258SOL    HW1  773   2.889   1.390   0.401  1.3448  1.0637  4.6410
  258SOL    HW2  774   3.004   1.316   0.500  1.1284 -0.0510  0.6201
  259SOL     OW  775   0.509   2.936   3.014  0.5336  0.3226  0.4185
  259SOL    HW1  776   0.432   2.879   3.052  1.0899  0.7349 -0.9355
  259SOL    HW2  777   0.509   2.934   2.906 -1.2958  1.0087 -1.5704
  260SOL     OW  778   2.720   0.821   2.697 -0.5628 -0.1958 -0.3248
  260SOL    HW1  779   2.616   0.835   2.677 -1.2472  0.3338  1.6567
  260SOL    HW2  780   2.741   0.862   2.793 -0.3439  0.6430 -0.7889
  261SOL     OW  781   2.724   1.377   1.359 -0.2282 -0.2978  0.1954
  261SOL    HW1  782   2.667   1.316   1.301  0.1802  1.3110 -0.4824
  261SOL    HW2  783   2.790   1.320   1.414  2.3177 -0.4570 -0.4132
  262SOL     OW  784   1.442   2.968   1.989  0.0089  0.7688  0.0524
  262SOL    HW1  785   1.481   3.046   1.931  0.6311  0.5444 -1.9159
  262SOL    HW2  786   1.346   2.941   1.958  1.2453  0.6636 -0.9742
  263SOL     OW  787   0.880   0.734   2.349 -0.2447 -0.1120 -0.7755
  263SOL    HW1  788   0.855   0.633   2.328  0.3752  1.7659  0.0581
  263SOL    HW2  789   0.891   0.782   2.257  0.5168  1.1041  1.8280
  264SOL     OW  790   2.230   0.785   0.337  0.0976  0.6395 -0.5734
  264SOL    HW1  791   2.156   0.819   0.398 -1.1115 -0.4204 -0.5020
  264SOL    HW2  792   2.318   0.807   0.387  2.3177  0.6225 -2.4363
  265SOL     OW  793   0.920   2.276   2.632  0.0258  0.0076  0.7785
  265SOL    HW1  794   0.977   2.303   2.719  2.5638 -0.1296  3.4341
  265SOL    HW2  795   0.856   2.198   2.653  0.1783  0.2608 -1.0634
  266SOL     OW  796   1.343   1.750   3.087  0.5609 -0.2892 -0.6166
  266SOL    HW1  797   1.316   1.817   3.164 -1.8110 -0.8542 -0.8711
  266SOL    HW2  798   1.450   1.745   3.081  2.6070  0.7745 -1.0325
  267SOL     OW  799   1.006   3.069   2.374 -0.6008 -0.0844 -0.0856
  267SOL    HW1  800   1.008   3.023   2.279  1.6337  0.7493  0.9585
  267SOL    HW2  801   0.949   3.155   2.373  0.7495  0.6714 -1.0787
  268SOL     OW  802   0.637   1.135   1.079  0.3991  0.0927  0.2762
  268SOL    HW1  803   0.648   1.192   1.166 -0.2748  0.5472  0.2985
  268SOL    HW2  804   0.657   1.190   0.999  0.3024  0.0372  2.5854
  269SOL     OW  805   2.448   2.458   1.549 -0.7945  0.2832 -0.2843
  269SOL    HW1  806   2.540   2.407   1.564  0.2641  0.5177  2.1953
  269SOL    HW2  807   2.402   2.491   1.637  0.9546  1.0613 -0.0023
  270SOL     OW  808   0.130   3.082   1.894  0.0387 -0.1871  0.2770
  270SOL    HW1  809   0.198   3.063   1.817 -0.1645  0.0735 -0.0639
  270SOL    HW2  810   0.066   3.002   1.907 -0.6984 -0.4637  0.8657
  271SOL     OW  811   0.425   1.433   1.159 -0.6045  0.0442  0.5213
  271SOL    HW1  812   0.398   1.412   1.061 -1.5349 -0.7377 -1.4121
  271SOL    HW2  813   0.350   1.408   1.231 -3.9569 -1.5333  0.5545
  272SOL     OW  814   1.955   2.856   1.916 -0.0041  0.2282 -0.4117
  272SOL    HW1  815   1.908   2.799   1.837 -3.0742 -2.2687 -0.2522
  272SOL    HW2  816   2.043   2.890   1.879  0.0360 -0.5559  0.3672
  273SOL     OW  817   1.395   1.446   2.841  0.7464 -0.1486 -0.2554
  273SOL    HW1  818   1.311   1.502   2.827  1.8158 -0.9156 -1.1417
  273SOL    HW2  819   1.417   1.421   2.936  1.6373  0.6701 -0.1165
  274SOL     OW  820   1.194   0.532   2.024  0.7201 -0.3614 -0.4982
  274SOL    HW1  821   1.189   0.437   1.987 -1.3750  2.3792  1.4844
  274SOL    HW2  822   1.223   0.538   2.128 -0.0083 -1.6401  1.6529
  275SOL     OW  823   0.631   2.086   1.894  0.6530  0.0725 -0.6319
  275SOL    HW1  824   0.593   2.182   1.904 -0.9455  1.5322  0.1360
  275SOL    HW2  825   0.562   2.003   1.906 -2.1767 -1.0647 -1.4634
  276SOL     OW  826   2.166   0.922   2.822 -0.2758  0.3732  0.1880
  276SOL    HW1  827   2.122   0.872   2.741 -0.5851  0.0248 -3.4017
  276SOL    HW2  828   2.118   0.897   2.909  0.8759  0.6181 -0.9024
  277SOL     OW  829   3.078   0.880   0.247  0.6202 -0.2116  0.5311
  277SOL    HW1  830   3.153   0.925   0.194  0.3391  1.2939 -0.9951
  277SOL    HW2  831   3.106   0.822   0.329  2.0248  0.3593  1.5552
  278SOL     OW  832   0.234   0.290   3.045  0.0081  0.3331  0.4914
  278SOL    HW1  833   0.329   0.237   3.056  1.5860 -2.5222  0.0493
  278SOL    HW2  834   0.256   0.393   3.035 -0.1952 -0.5554  0.1165
  279SOL     OW  835   0.110   0.060   0.867  0.2036 -0.0198 -0.5024
  279SOL    HW1  836   0.128   0.062   0.969  1.2629  0.1487 -1.2301
  279SOL    HW2  837   0.197   0.063   0.807 -0.1948  1.2093  0.7371
  280SOL     OW  838   1.616   2.873   2.564 -0.2028 -0.1134 -0.2940
  280SOL    HW1  839   1.705   2.928   2.575 -2.9445 -0.0097  1.6610
  280SOL    HW2  840   1.535   2.939   2.557 -0.8443 -1.3603  0.3868
  281SOL     OW  841   0.567   0.971   2.274  0.3517 -0.1409 -0.5897
  281SOL    HW1  842   0.571   0.876   2.238 -0.1735  0.3866  0.1179
  281SOL    HW2  843   0.526   0.977   2.367  0.9488  0.2512 -0.8579
  282SOL     OW  844   1.747   2.393   0.509  1.0718  0.1791  0.0916
  282SOL    HW1  845   1.711   2.319   0.442  0.0984  0.5668 -0.8029
  282SOL    HW2  846   1.685   2.480   0.493 -1.1130  0.8210 -0.7847
  283SOL     OW  847   1.143   0.928   0.829 -0.3121 -0.2456  0.2427
  283SOL    HW1  848   1.184   0.866   0.906 -2.5572 -0.8844  0.8916
  283SOL    HW2  849   1.071   0.994   0.864  1.0687 -1.0045 -0.5614
  284SOL     OW  850   2.345   2.776   2.313 -0.3351  0.0546  0.4028
  284SOL    HW1  851   2.441   2.822   2.290  2.2480  1.9476  2.4805
  284SOL    HW2  852   2.302   2.812   2.396  0.9979 -1.9899 -0.1563
  285SOL     OW  853   1.380   3.049   2.527 -0.7471  0.6072  0.6306
  285SOL    HW1  854   1.383   3.046   2.418  0.4776  1.6493 -1.0100
  285SOL    HW2  855   1.296   3.090   2.568  0.7474  2.9427  1.0020
  286SOL     OW  856   0.452   0.424   0.741  0.3998  0.2180  0.4807
  286SOL    HW1  857   0.412   0.365   0.816  0.2029 -2.2992  0.4007
  286SOL    HW2  858   0.479   0.377   0.653 -0.6501  0.2127 -0.4902
  287SOL     OW  859   0.145   1.317   2.538 -0.5385  0.4403 -0.3091
  287SOL    HW1  860   0.083   1.245   2.585 -1.5652 -1.4114  0.8406
  287SOL    HW2  861   0.101   1.408   2.537  3.0105  0.1639  0.9655
  288SOL     OW  862   1.538   2.662   1.571  0.1448  0.4550  0.4149
  288SOL    HW1  863   1.567   2.662   1.669  0.6793  1.2284  0.7829
  288SOL    HW2  864   1.593   2.587   1.514 -0.8905 -0.6484  0.2017
  289SOL     OW  865   0.648   2.696   0.817 -0.5851  0.0739  0.3434
  289SOL    HW1  866   0.691   2.758   0.750 -0.1666 -0.9443  1.6129
  289SOL    HW2  867   0.612   2.746   0.904 -3.4263  2.2434 -0.2031
  290SOL     OW  868   2.833   1.075   1.689 -0.1536 -0.3347  0.6690
  290SOL    HW1  869   2.750   1.034   1.637 -1.7473  1.9853  2.1714
  290SOL    HW2  870   2.868   1.012   1.766  1.3804 -0.3223  1.7222
  291SOL     OW  871   1.942   0.073   0.059  0.0705  0.4020  0.2372
  291SOL    HW1  872   1.972   0.031   0.153  0.7793 -0.5226 -1.5820
  291SOL    HW2  873   1.991   0.158   0.025  0.5097 -0.6569 -0.2956
  292SOL     OW  874   2.961   1.222   3.082 -0.0938  0.5494  0.4487
  292SOL    HW1  875   2.893   1.275   3.026  2.5813  0.5191 -0.1165
  292SOL    HW2  876   3.048   1.213   3.032 -0.1630 -0.0182  0.0800
  293SOL     OW  877   0.576   2.094   0.160 -0.7706  0.0303  0.1350
  293SOL    HW1  878   0.572   2.176   0.229 -2.6668 -1.0885 -0.5537
  293SOL    HW2  879   0.652   2.025   0.184  1.5787 -1.6664 -0.7838
  294SOL     OW  880   1.719   2.216   1.766  0.2834 -0.1873  0.1649
  294SOL    HW1  881   1.727   2.259   1.859  2.2990  2.8503 -1.4526
  294SOL    HW2  882   1.699   2.279   1.687  1.3800 -1.3178  2.3398
  295SOL     OW  883   1.054   1.012   0.509  0.6073  0.0854  0.4165
  295SOL    HW1  884   1.148   1.020   0.546 -0.3401  2.2713 -0.0977
  295SOL    HW2  885   0.981   1.020   0.586 -0.0507  0.7120  4.8883
  296SOL     OW  886   1.273   2.070   2.502 -0.4193 -0.2170  0.5041
  296SOL    HW1  887   1.246   2.081   2.403 -2.2742 -0.5098 -2.7578
  296SOL    HW2  888   1.265   1.971   2.531  0.4789  0.1892 -0.0642
  297SOL     OW  889   1.461   0.602   1.400 -0.1306  0.4916 -0.0187
  297SOL    HW1  890   1.402   0.518   1.414 -1.0271 -0.0252 -0.1097
  297SOL    HW2  891   1.564   0.593   1.421  0.0727 -0.6294  0.1601
  298SOL     OW  892   0.511   1.335   2.949  0.1036  0.8190  0.4844
  298SOL    HW1  893   0.480   1.278   3.030  1.7240  0.7117 -1.9594
  298SOL    HW2  894   0.553   1.289   2.863 -1.1981  1.6296 -1.4379
  299SOL     OW  895   0.483   0.285   1.364  0.1703  0.2829 -0.5357
  299SOL    HW1  896   0.471   0.377   1.327 -2.5936 -3.2812 -4.3852
  299SOL    HW2  897   0.551   0.277   1.439  2.8961  0.4158 -2.2388
  300SOL     OW  898   1.193   1.811   2.863  0.3743  0.8680 -0.3771
  300SOL    HW1  899   1.194   1.710   2.825  0.5886 -2.4090 -1.3206
  300SOL    HW2  900   1.249   1.814   2.955 -1.5434 -1.5925  1.6792
  301SOL     OW  901   0.480   0.271   0.512  0.1117  0.0876  0.3820
  301SOL    HW1  902   0.386   0.229   0.524 -1.3520 -1.7655 -3.5441
  301SOL    HW2  903   0.518   0.238   0.421 -0.2163 -1.2049  0.1839
  302SOL     OW  904   1.198   2.393   2.271 -0.2034  0.7570  0.5342
  302SOL    HW1  905   1.132   2.418   2.351  1.9609  2.1039 -1.1547
  302SOL    HW2  906   1.214   2.292   2.268  0.5734 -0.8304  2.1525
  303SOL     OW  907   0.975   2.332   0.806  0.2155  0.4389  0.5498
  303SOL    HW1  908   1.014   2.380   0.722 -1.3772 -2.1709 -0.4773
  303SOL    HW2  909   1.009   2.376   0.894  0.1609 -0.3162 -1.0135
  304SOL     OW  910   0.155   2.047   0.621 -0.1434 -0.1228 -0.7521
  304SOL    HW1  911   0.181   1.989   0.538 -0.2394 -2.1689 -1.5578
  304SOL    HW2  912   0.121   2.145   0.595 -2.8870  1.1291 -0.1521
  305SOL     OW  913   1.591   0.920   0.595  0.3080  0.6002 -0.5687
  305SOL    HW1  914   1.551   0.894   0.500 -0.9055 -0.6469  2.3677
  305SOL    HW2  915   1.621   0.832   0.645 -0.0335  1.4044  3.4835
  306SOL     OW  916   0.447   1.846   1.891 -0.7631  0.7091 -0.0734
  306SOL    HW1  917   0.526   1.791   1.849 -1.4379 -0.2417  2.0173
  306SOL    HW2  918   0.434   1.817   1.994 -1.0212  1.6777 -1.0099
  307SOL     OW  919   3.069   0.875   2.552 -0.7893  0.5581 -0.7178
  307SOL    HW1  920   3.072   0.942   2.629  1.6697  0.7757 -0.8459
  307SOL    HW2  921   3.025   0.784   2.581 -0.3173 -1.0131 -4.7246
  308SOL     OW  922   1.530   2.700   2.861  0.1855 -0.3706  0.5324
  308SOL    HW1  923   1.540   2.647   2.768 -0.0560 -2.4760 -2.2361
  308SOL    HW2  924   1.475   2.650   2.928  1.4425 -0.3090  0.9628
  309SOL     OW  925   1.225   0.075   1.783  0.5617  0.2534 -0.2114
  309SOL    HW1  926   1.328   0.070   1.785  2.8036 -0.4091  1.0056
  309SOL    HW2  927   1.186   0.119   1.698 -0.8581 -0.0876 -0.3460
  310SOL     OW  928   1.504   2.544   0.680 -0.2638  0.0876  0.2352
  310SOL    HW1  929   1.439   2.583   0.753 -1.4870  1.1642  1.5023
  310SOL    HW2  930   1.583   2.608   0.657  1.4359  0.8413 -1.1138
  311SOL     OW  931   1.199   0.920   1.591 -0.1211  0.9359 -0.4395
  311SOL    HW1  932   1.270   0.845   1.618  1.0396 -1.9292 -1.1373
  311SOL    HW2  933   1.242   1.013   1.576 -2.6683  0.3506  2.8042
  312SOL     OW  934   1.625   0.663   0.987 -0.4459 -0.1983 -0.3443
  312SOL    HW1  935   1.567   0.749   0.972 -2.1865  1.2102  0.3918
  312SOL    HW2  936   1.571   0.576   0.974 -0.4503 -1.2218 -1.5958
  313SOL     OW  937   1.574   1.407   0.689  0.5237 -0.5424  0.2017
  313SOL    HW1  938   1.503   1.443   0.757  1.6582  2.3003  1.7158
  313SOL    HW2  939   1.540   1.321   0.637  0.3378  1.2971  1.2972
  314SOL     OW  940   3.004   0.036   0.011  0.2451  0.1213 -1.4230
  314SOL    HW1  941   2.994   0.081   0.103 -1.8945 -2.4357  1.0876
  314SOL    HW2  942   2.921  -0.016  -0.014  1.1940  0.4840 -2.2922
  315SOL     OW  943   1.218   0.205   2.807  0.4215  0.0940 -0.0566
  315SOL    HW1  944   1.160   0.121   2.774 -0.9977 -1.4771 -1.4558
  315SOL    HW2  945   1.270   0.181   2.891 -3.4727 -0.7103  0.2939
  316SOL     OW  946   1.712   2.087   0.920  0.0877 -0.0177 -0.5395
  316SOL    HW1  947   1.646   2.059   0.997  2.0676 -2.0547 -0.4805
  316SOL    HW2  948   1.689   2.178   0.882  0.1846 -1.4094  1.5143
  317SOL     OW  949   1.114   0.709   2.865  0.3481  0.0632  0.3631
  317SOL    HW1  950   1.043   0.752   2.924  2.3608  0.8839 -0.8524
  317SOL    HW2  951   1.089   0.622   2.814 -0.2931 -0.9340 -1.0470
  318SOL     OW  952   1.330   3.044   2.246 -0.2920  0.5135 -0.7094
  318SOL    HW1  953   1.349   3.145   2.218  1.8776 -1.4062 -0.9855
  318SOL    HW2  954   1.370   2.979   2.174 -1.2502  0.8051  3.9009
  319SOL     OW  955   0.641   2.449   2.928 -0.0346  0.3553  0.1860
  319SOL    HW1  956   0.584   2.428   3.010  1.1663 -0.6307 -1.6440
  319SOL    HW2  957   0.742   2.433   2.942  0.4151 -0.1646  1.5979
  320SOL     OW  958   1.665   2.177   0.308  0.9325  0.3989  0.1799
  320SOL    HW1  959   1.765   2.156   0.341 -1.7837 -0.2827  0.6644
  320SOL    HW2  960   1.591   2.122   0.357 -1.1502  1.2361  1.0075
  321SOL     OW  961   1.675   2.669   0.483 -0.1578  0.2415 -0.0829
  321SOL    HW1  962   1.590   2.701   0.436 -1.1619 -0.2623 -0.1638
  321SOL    HW2  963   1.764   2.696   0.438  2.3513 -0.3744  1.4884
  322SOL     OW  964   2.531   1.139   2.308 -0.0021  0.1585  0.0410
  322SOL    HW1  965   2.629   1.170   2.332 -0.2537  1.5972  4.9722
  322SOL    HW2  966   2.520   1.036   2.316 -0.2210 -1.1506  0.3033
  323SOL     OW  967   1.060   2.638   0.833  0.8925 -0.2207 -0.0314
  323SOL    HW1  968   1.077   2.589   0.746  1.9085 -0.9847  1.6267
  323SOL    HW2  969   1.064   2.742   0.825 -1.4206 -0.2376 -1.3856
  324SOL     OW  970   0.239   2.536   2.510  0.1123  0.3082  0.0901
  324SOL    HW1  971   0.291   2.467   2.565  0.6517  1.5589  0.9860
  324SOL    HW2  972   0.156   2.563   2.563  0.7739  0.7301 -2.2389
  325SOL     OW  973   1.252   3.033   0.459 -0.4518 -0.0530  0.1511
  325SOL    HW1  974   1.232   3.059   0.359 -1.7356  1.0602  0.1305
  325SOL    HW2  975   1.276   3.122   0.510  1.2318  0.3561  0.6797
  326SOL     OW  976   2.441   0.780   3.087 -0.3319  0.7209 -0.3680
  326SOL    HW1  977   2.399   0.725   3.010  1.3706  0.9377 -0.5767
  326SOL    HW2  978   2.511   0.720   3.137  1.6682 -0.5344 -2.3986
  327SOL     OW  979   2.853   0.333   0.544 -0.2666  0.1940  0.6176
  327SOL    HW1  980   2.803   0.346   0.452  1.3594 -1.0410  0.4534
  327SOL    HW2  981   2.799   0.288   0.616  0.4651 -0.5270 -0.5206
  328SOL     OW  982   2.510   0.613   0.398  0.2624 -0.6090 -0.2106
  328SOL    HW1  983   2.504   0.712   0.432 -1.4610  0.3540  0.8647
  328SOL    HW2  984   2.509   0.531   0.460 -2.1670 -2.7001 -0.8388
  329SOL     OW  985   2.981   3.002   2.137 -0.3068  0.1134 -0.2871
  329SOL    HW1  986   2.994   2.955   2.227  1.2518 -1.2366 -1.7330
  329SOL    HW2  987   3.030   3.092   2.133 -0.0104 -2.1494 -1.3799
  330SOL     OW  988   0.572   0.151   1.844  0.3120 -0.1099 -0.5308
  330SOL    HW1  989   0.670   0.177   1.838  0.1969 -1.2883  1.8980
  330SOL    HW2  990   0.556   0.092   1.926  0.8853  2.6281 -0.4240
  331SOL     OW  991   2.969   1.934   1.124 -0.3953 -0.4107  0.2988
  331SOL    HW1  992   3.006   2.015   1.068  3.3832  0.1727  1.1430
  331SOL    HW2  993   2.894   1.965   1.184  1.0968 -1.2592  1.4550
  332SOL     OW  994   0.445   1.140   0.045  0.0153  0.2713 -0.8596
  332SOL    HW1  995   0.390   1.066  -0.004  2.6732  0.1048 -2.8188
  332SOL    HW2  996   0.401   1.167   0.134  1.8464 -3.1048  0.2773
  333SOL     OW  997   2.858   1.049   0.305 -0.1230 -0.0900 -0.2455
  333SOL    HW1  998   2.880   1.132   0.363 -1.6307 -2.2537 -0.4317
  333SOL    HW2  999   2.945   0.997   0.273  1.0944 -0.2630  0.6688
  334SOL     OW 1000   1.693   1.221   1.843  0.2786  0.8669 -0.0356
  334SOL    HW1 1001   1.786   1.184   1.820 -0.3622 -0.0866 -1.6529
  334SOL    HW2 1002   1.691   1.290   1.922 -0.2696 -1.2409 -1.0157
  335SOL     OW 1003   1.966   2.743   2.622 -0.3466  0.4661 -0.1386
  335SOL    HW1 1004   1.906   2.667   2.664 -1.4605 -1.3014  0.1708
  335SOL    HW2 1005   1.987   2.819   2.688 -0.4474  1.4189  2.3073
  336SOL     OW 1006   0.239   0.078   2.850 -0.1726  0.0573 -0.1966
  336SOL    HW1 1007   0.335   0.081   2.811  3.1452 -1.5214  1.6540
  336SOL    HW2 1008   0.231   0.133   2.942 -1.7459  0.4303  1.6796
  337SOL     OW 1009   0.917   2.800   2.808  0.1465 -0.2609  0.0247
  337SOL    HW1 1010   0.947   2.744   2.893 -1.2095 -1.1227  0.4456
  337SOL    HW2 1011   0.997   2.806   2.740 -1.0176 -0.5283  0.5062
  338SOL     OW 1012   0.020   1.034   0.681 -0.5939 -0.2988 -0.1542
  338SOL    HW1 1013  -0.081   1.021   0.686 -1.5465 -2.5552 -0.2887
  338SOL    HW2 1014   0.050   1.133   0.677  0.6620  2.3084 -0.6365
  339SOL     OW 1015   1.708   1.362   2.096  0.3314 -0.2166  0.1897
  339SOL    HW1 1016   1.611   1.348   2.121  0.4436  1.4500 -0.2001
  339SOL    HW2 1017   1.734   1.463   2.096 -1.2610  0.1481 -3.1093
  340SOL     OW 1018   2.362   0.716   1.198 -0.0947 -0.5223 -0.1187
  340SOL    HW1 1019   2.258   0.728   1.197 -2.3354  0.4609 -0.0333
  340SOL    HW2 1020   2.400   0.641   1.134  2.6528  1.0522 -0.4083
  341SOL     OW 1021   1.935   2.107   0.332  0.3500 -0.3001 -0.7464
  341SOL    HW1 1022   1.945   2.154   0.240 -0.1176 -1.1545 -1.0137
  341SOL    HW2 1023   2.025   2.081   0.376  1.6031  0.2967  2.2615
  342SOL     OW 1024   2.201   2.088   2.739  0.1416 -0.1123 -0.2849
  342SOL    HW1 1025   2.260   2.019   2.787  0.9572  0.5783  0.3705
  342SOL    HW2 1026   2.101   2.055   2.742  1.1164 -0.8272  1.8604
  343SOL     OW 1027   0.393   0.810   2.755  0.5262  0.5831  0.1809
  343SOL    HW1 1028   0.420   0.849   2.659 -0.6958  3.4347 -0.7375
  343SOL    HW2 1029   0.473   0.766   2.798  2.6934  0.8180  2.7591
  344SOL     OW 1030   1.950   1.394   0.439  0.0734  0.1119 -0.7397
  344SOL    HW1 1031   1.963   1.320   0.364 -1.7818 -1.0596 -0.8410
  344SOL    HW2 1032   1.853   1.438   0.444 -1.6740 -0.4358  0.0742
  345SOL     OW 1033   1.378   2.274   2.882  0.6727  0.0870 -0.5602
  345SOL    HW1 1034   1.301   2.216   2.849  0.7318  2.2890 -2.0977
  345SOL    HW2 1035   1.470   2.248   2.846  0.1178 -0.7014 -0.0553
  346SOL     OW 1036   2.335   0.902   1.419  0.3648  0.4221 -0.1499
  346SOL    HW1 1037   2.290   0.994   1.425 -0.7087 -3.2226 -0.6805
  346SOL    HW2 1038   2.315   0.849   1.334 -0.5877  0.3993  0.4270
  347SOL     OW 1039   0.716   2.780   1.462  0.2488  0.2748 -0.4868
  347SOL    HW1 1040   0.684   2.725   1.546 -0.6670  0.2069  1.1256
  347SOL    HW2 1041   0.653   2.859   1.442 -1.8119 -0.1429  0.8021
  348SOL     OW 1042   0.159   0.676   2.818  0.1516 -0.0013  0.1369
  348SOL    HW1 1043   0.059   0.671   2.785 -0.6277 -2.1823 -0.1843
  348SOL    HW2 1044   0.213   0.751   2.787 -3.4113 -0.0593 -2.2696
  349SOL     OW 1045   1.808   0.408   2.812  0.2546 -0.1559 -0.1591
  349SOL    HW1 1046   1.801   0.488   2.742  1.2900 -1.0788  0.3545
  349SOL    HW2 1047   1.802   0.453   2.907  0.8227  1.0141  0.9090
  350SOL     OW 1048   1.535   0.453   0.374 -0.0640  0.1070  0.4525
  350SOL    HW1 1049   1.596   0.464   0.456 -2.4700  2.1422 -0.7226
  350SOL    HW2 1050   1.527   0.531   0.306  2.8313 -1.2727 -0.1588
  351SOL     OW 1051   0.951   0.841   2.111  0.3897 -0.1804  0.2192
  351SOL    HW1 1052   0.957   0.943   2.096 -2.0350  1.2225  3.1727
  351SOL    HW2 1053   0.984   0.784   2.031 -0.4256 -1.6585  2.2510
  352SOL     OW 1054   2.025   1.281   0.689  0.3806 -0.0988  0.0426
  352SOL    HW1 1055   1.979   1.306   0.599 -0.6631  1.2194  0.7330
  352SOL    HW2 1056   2.119   1.325   0.703 -2.6436 -2.6030 -0.8204
  353SOL     OW 1057   2.184   2.916   1.077  0.4004  0.0003 -0.0279
  353SOL    HW1 1058   2.253   2.856   1.131  0.6468 -3.9395  0.5366
  353SOL    HW2 1059   2.107   2.854   1.037 -0.2366 -0.3983 -3.5981
  354SOL     OW 1060   0.239   1.398   2.869  0.0355 -0.1947 -0.7116
  354SOL    HW1 1061   0.219   1.429   2.775 -1.3570 -0.1765 -0.4440
  354SOL    HW2 1062   0.338   1.400   2.899 -3.3964  0.6322 -0.2747
  355SOL     OW 1063   0.490   1.530   0.483  0.0507 -0.5492 -0.0412
  355SOL    HW1 1064   0.502   1.631   0.508  0.0093 -1.6335  1.9162
  355SOL    HW2 1065   0.537   1.470   0.552 -1.6766  0.0404  0.5996
  356SOL     OW 1066   0.942   0.278   2.076 -0.3775 -0.2411  0.0881
  356SOL    HW1 1067   1.039   0.284   2.043 -0.9047 -2.5319 -3.3427
  356SOL    HW2 1068   0.889   0.200   2.031  1.3682  2.3512 -0.1743
  357SOL     OW 1069   0.998   1.292   0.397 -0.4766  0.3756  0.3214
  357SOL    HW1 1070   0.977   1.205   0.349 -0.0215  0.6862 -0.2260
  357SOL    HW2 1071   1.044   1.272   0.488  0.5469 -3.3818 -1.1827
  358SOL     OW 1072   1.705   1.505   0.456  0.3688 -0.1189 -0.0037
  358SOL    HW1 1073   1.662   1.470   0.545 -0.6888 -0.9704 -0.3505
  358SOL    HW2 1074   1.657   1.472   0.367  1.3146 -1.1070 -0.2623
  359SOL     OW 1075   1.585   2.756   0.065 -0.2992  0.4249  0.3838
  359SOL    HW1 1076   1.543   2.660   0.076  0.7812 -3.1360 -2.5377
  359SOL    HW2 1077   1.516   2.828   0.047  1.7697 -2.1805 -0.2898
  360SOL     OW 1078   0.867   0.617   0.545 -0.7107  0.0294  0.8706
  360SOL    HW1 1079   0.775   0.618   0.589  0.2834  0.0730  0.1014
  360SOL    HW2 1080   0.918   0.529   0.562  0.2660 -0.4173  0.0271
  361SOL     OW 1081   1.194   1.370   0.696 -0.1083 -0.2410 -0.1445
  361SOL    HW1 1082   1.261   1.407   0.765  1.4158 -1.8660  2.9061
  361SOL    HW2 1083   1.102   1.426   0.687  0.0947  0.6605 -0.8177
  362SOL     OW 1084   1.334   1.804   0.789 -0.2930  0.7801  0.5278
  362SOL    HW1 1085   1.338   1.754   0.879  0.0075 -0.0682 -2.4693
  362SOL    HW2 1086   1.429   1.830   0.754  0.7651  1.2008 -0.0834
  363SOL     OW 1087   1.204   1.273   2.017  0.2270  0.3450 -0.1510
  363SOL    HW1 1088   1.260   1.327   2.084  1.9226  2.0220 -3.5072
  363SOL    HW2 1089   1.203   1.322   1.922 -2.0768 -3.6952 -2.5302
  364SOL     OW 1090   0.513   2.339   1.928 -0.0933 -0.5383  0.2214
  364SOL    HW1 1091   0.415   2.379   1.926  0.0207 -0.2896 -1.0278
  364SOL    HW2 1092   0.568   2.367   1.847 -0.2385  0.5895  3.6986
  365SOL     OW 1093   1.026   1.864   1.396 -0.1054 -0.2614  0.4771
  365SOL    HW1 1094   0.928   1.848   1.420  1.4609 -1.2548 -0.8959
  365SOL    HW2 1095   1.057   1.812   1.315  1.5132  1.8842 -0.2914
  366SOL     OW 1096   2.797   2.072   0.484 -0.3179 -0.0074 -0.2515
  366SOL    HW1 1097   2.692   2.070   0.475 -3.4813 -2.0462 -2.2532
  366SOL    HW2 1098   2.841   1.986   0.445 -0.7568  2.0493  0.7492
  367SOL     OW 1099   0.879   1.141   0.167  0.6584 -0.1021 -0.1641
  367SOL    HW1 1100   0.889   1.045   0.208 -0.4360  0.7629  2.2593
  367SOL    HW2 1101   0.933   1.146   0.080  0.7569 -1.6002  1.0237
  368SOL     OW 1102   1.487   0.569   0.708  0.1370  0.1079 -0.2497
  368SOL    HW1 1103   1.406   0.575   0.639  0.5212 -1.9958 -0.1177
  368SOL    HW2 1104   1.562   0.634   0.690 -0.8381 -2.0129  2.7546
  369SOL     OW 1105   0.231   1.729   0.061 -0.5267  0.2232 -0.4189
  369SOL    HW1 1106   0.299   1.801   0.097 -1.9534  0.5500 -0.4337
  369SOL    HW2 1107   0.152   1.712   0.124 -0.9453 -0.5156  1.2083
  370SOL     OW 1108   0.458   2.094   1.047 -0.0203  0.0285 -0.0504
  370SOL    HW1 1109   0.487   2.189   1.014 -0.1802 -1.1743  1.9877
  370SOL    HW2 1110   0.382   2.052   0.989  0.3804 -2.2631 -1.7837
  371SOL     OW 1111   2.872   2.209   2.710 -0.2528 -0.5093 -0.5094
  371SOL    HW1 1112   2.846   2.174   2.809 -1.1341  0.0800  3.1382
  371SOL    HW2 1113   2.957   2.267   2.714 -0.5717 -0.6728  1.5870
  372SOL     OW 1114   1.079   1.962   1.074  0.2893  0.6550  0.7852
  372SOL    HW1 1115   0.977   1.993   1.074 -0.2098 -2.8923 -0.1824
  372SOL    HW2 1116   1.138   2.004   1.000 -1.9816 -0.2251  2.3928
  373SOL     OW 1117   1.958   2.010   0.904  0.2555  0.0296 -0.5023
  373SOL    HW1 1118   2.027   2.011   0.983  1.6087  2.4347  0.2449
  373SOL    HW2 1119   1.861   2.044   0.932 -0.4005  1.8175  0.8394
  374SOL     OW 1120   1.774   0.465   0.572  0.2008  0.2706 -0.3531
  374SOL    HW1 1121   1.820   0.417   0.657  0.4808 -2.3818  3.3970
  374SOL    HW2 1122   1.843   0.491   0.507 -1.5326  3.9795  0.6512
  375SOL     OW 1123   2.371   2.181   1.112  0.4094  0.0148  0.3232
  375SOL    HW1 1124   2.434   2.179   1.029 -1.2506 -0.6167 -0.4722
  375SOL    HW2 1125   2.430   2.170   1.200  1.3104 -0.4845  2.7287
  376SOL     OW 1126   3.004   0.595   1.429  0.2433 -0.2784  0.3395
  376SOL    HW1 1127   3.034   0.668   1.497  1.3205 -1.6488 -0.1989
  376SOL    HW2 1128   2.902   0.596   1.414  1.6855 -0.0512 -0.7799
  377SOL     OW 1129   2.221   2.824   0.341 -0.1930  0.5444 -0.2316
  377SOL    HW1 1130   2.222   2.921   0.379  0.7453  1.3382  0.4534
  377SOL    HW2 1131   2.302   2.816   0.280 -0.5365 -1.0125  1.1760
  378SOL     OW 1132   1.780   1.813   2.684  0.7026 -0.8242 -0.1007
  378SOL    HW1 1133   1.686   1.789   2.709  0.2136 -2.0467  0.2670
  378SOL    HW2 1134   1.848   1.737   2.678  0.4382 -0.8626 -1.8125
  379SOL     OW 1135   0.885   0.130   2.725  0.1891  0.2359 -0.0669
  379SOL    HW1 1136   0.831   0.043   2.708 -0.5293 -0.2637 -1.5179
  379SOL    HW2 1137   0.846   0.218   2.680  1.8205  0.1756  2.0892
  380SOL     OW 1138   1.507   1.194   0.525 -0.1159 -0.2038  0.3672
  380SOL    HW1 1139   1.411   1.175   0.529  0.7803 -1.5343  1.6454
  380SOL    HW2 1140   1.558   1.112   0.561  0.4052 -0.6839  0.9525
  381SOL     OW 1141   1.330   1.160   1.521  0.4407 -0.8419  0.0041
  381SOL    HW1 1142   1.398   1.194   1.451 -0.4239 -2.2909 -2.5051
  381SOL    HW2 1143   1.375   1.145   1.612  0.8701 -0.0821 -1.7600
  382SOL     OW 1144   1.801   0.816   0.216  0.5897  0.5135 -0.2405
  382SOL    HW1 1145   1.817   0.778   0.119  0.5531 -1.6111  0.4024
  382SOL    HW2 1146   1.892   0.827   0.264 -0.1840 -1.3752 -1.5891
  383SOL     OW 1147   2.592   0.976   1.495  0.6626  0.8112 -0.2983
  383SOL    HW1 1148   2.499   0.948   1.466  3.7623  0.8649  2.1613
  383SOL    HW2 1149   2.665   0.956   1.423  1.1959 -1.5958 -0.9327
  384SOL     OW 1150   0.916   2.261   0.102  0.1203 -0.3869  0.5715
  384SOL    HW1 1151   0.869   2.349   0.137 -0.0888  2.7504 -0.7102
  384SOL    HW2 1152   0.868   2.179   0.142  1.2097  1.8168  0.2560
  385SOL     OW 1153   2.989   1.988   1.794 -0.4876  0.4411 -0.3077
  385SOL    HW1 1154   3.070   2.048   1.774  0.6066 -1.1478 -3.8443
  385SOL    HW2 1155   3.000   1.896   1.751  1.7640  2.7671 -0.7543
  386SOL     OW 1156   0.450   1.138   0.472  0.4791 -0.1330  0.3854
  386SOL    HW1 1157   0.439   1.038   0.482  1.2408 -0.0919 -0.0039
  386SOL    HW2 1158   0.385   1.174   0.394 -1.2966  1.4943 -0.4422
  387SOL     OW 1159   1.001   0.359   1.678 -0.1120  0.2238  0.3132
  387SOL    HW1 1160   1.047   0.450   1.681  0.2100 -1.1242  0.4156
  387SOL    HW2 1161   1.008   0.319   1.587 -1.4224 -1.9754 -0.9272
  388SOL     OW 1162   1.226   2.632   1.791  0.0609 -0.2377  0.0348
  388SOL    HW1 1163   1.223   2.600   1.687 -0.7514 -0.1489  1.3556
  388SOL    HW2 1164   1.275   2.556   1.846 -0.3846 -1.1024  1.8297
  389SOL     OW 1165   0.199   3.087   1.144 -0.3220 -0.3446  0.0894
  389SOL    HW1 1166   0.121   3.112   1.213 -1.2032 -0.4627 -0.3270
  389SOL    HW2 1167   0.209   2.986   1.125 -0.2732  0.7667  0.1383
  390SOL     OW 1168   1.054   0.927   1.222  0.0404 -0.2646 -0.0348
  390SOL    HW1 1169   1.154   0.918   1.254 -0.0102 -1.5552 -1.2542
  390SOL    HW2 1170   0.990   0.943   1.301 -2.2109 -0.6949 -0.6680
  391SOL     OW 1171   2.038   1.170   1.029 -0.3789  0.2054 -0.2835
  391SOL    HW1 1172   1.954   1.104   1.042 -2.4498  0.2704 -1.7560
  391SOL    HW2 1173   2.089   1.132   0.952  1.1260  1.7237 -0.7451
  392SOL     OW 1174   0.945   2.649   3.042  0.0115 -0.2787 -0.4307
  392SOL    HW1 1175   0.843   2.648   3.058 -2.1918  0.8731  0.1883
  392SOL    HW2 1176   0.998   2.719   3.102  1.1643  0.8140  1.0275
  393SOL     OW 1177   0.396   0.492   2.099  0.1547 -0.1444 -0.1487
  393SOL    HW1 1178   0.299   0.456   2.085 -0.9200  0.6645  2.7455
  393SOL    HW2 1179   0.458   0.465   2.018  0.4372  1.3043  1.2601
  394SOL     OW 1180   2.928   1.823   2.796  0.5345  0.0084 -0.2886
  394SOL    HW1 1181   3.020   1.824   2.848  1.7139  2.1437  0.5910
  394SOL    HW2 1182   2.934   1.856   2.699  1.6148 -0.6710  1.0659
  395SOL     OW 1183   1.576   1.909   0.702  0.0805 -0.2513 -0.3994
  395SOL    HW1 1184   1.637   1.860   0.636 -0.0881  1.3499 -0.0372
  395SOL    HW2 1185   1.635   1.952   0.771  1.6932 -2.1615 -2.1465
  396SOL     OW 1186   2.757   2.041   1.334  0.2102 -0.5466  0.0436
  396SOL    HW1 1187   2.787   2.021   1.432 -0.1824  1.1791  2.3227
  396SOL    HW2 1188   2.660   2.071   1.325  0.6176 -2.4895 -2.8435
  397SOL     OW 1189   1.019   2.111   0.629  0.3038 -0.0517  0.2891
  397SOL    HW1 1190   0.932   2.061   0.593 -2.6609  0.3521 -1.8143
  397SOL    HW2 1191   0.996   2.198   0.677 -1.9260 -3.0729 -0.0206
  398SOL     OW 1192   2.221   0.073   1.034  0.6846 -0.7118 -0.5325
  398SOL    HW1 1193   2.191  -0.022   1.051  3.5115  0.9520 -0.7753
  398SOL    HW2 1194   2.143   0.143   1.050 -1.8299 -0.0822  1.4265
  399SOL     OW 1195   2.881   2.576   2.726 -0.5590  0.2263 -0.3287
  399SOL    HW1 1196   2.840   2.520   2.649 -0.3167 -1.2425 -2.6704
  399SOL    HW2 1197   2.872   2.523   2.820 -1.6467 -0.1191 -0.0889
  400SOL     OW 1198   0.797   1.594   1.269 -0.3245  0.3393 -0.3040
  400SOL    HW1 1199   0.747   1.628   1.355 -0.7679 -0.0770  0.5212
  400SOL    HW2 1200   0.786   1.665   1.197  0.0323 -1.1149  0.5138
  401SOL     OW 1201   1.811   0.142   1.274  0.3011  0.4816  0.3427
  401SOL    HW1 1202   1.862   0.187   1.349  2.9797  1.1665 -0.1392
  401SOL    HW2 1203   1.709   0.162   1.284  1.7346 -0.6990 -0.4155
  402SOL     OW 1204   1.340   0.162   3.063  0.0521  0.0884  0.1966
  402SOL    HW1 1205   1.417   0.131   2.999 -0.1057  1.6923 -1.4448
  402SOL    HW2 1206   1.353   0.263   3.102  1.0682  1.7213  1.3366
  403SOL     OW 1207   2.309   1.843   0.924 -0.2598 -0.0596  0.1027
  403SOL    HW1 1208   2.408   1.857   0.960  0.1691  0.6072 -2.6519
  403SOL    HW2 1209   2.244   1.905   0.972 -0.2459  2.9837 -4.7517
  404SOL     OW 1210   0.174   2.497   2.854  0.0561  0.0376 -0.2315
  404SOL    HW1 1211   0.268   2.464   2.834 -3.2706  1.7907  1.7665
  404SOL    HW2 1212   0.167   2.596   2.877  0.8775 -0.2603 -1.4757
  405SOL     OW 1213   0.242   2.529   0.549  0.1903 -0.7348  0.3093
  405SOL    HW1 1214   0.186   2.523   0.463  1.9450  1.4504  1.1134
  405SOL    HW2 1215   0.297   2.617   0.546 -2.5577  0.2072 -2.1485
  406SOL     OW 1216   0.013   1.517   3.003  0.0891 -0.2966  0.0532
  406SOL    HW1 1217   0.106   1.472   2.981 -1.0321  0.8332  1.5446
  406SOL    HW2 1218  -0.012   1.509   3.108 -0.7578 -2.3056  3.3312
  407SOL     OW 1219   1.524   0.918   0.909  0.1784  0.0598 -0.1512
  407SOL    HW1 1220   1.465   0.929   0.825  3.0225  1.9956 -0.1851
  407SOL    HW2 1221   1.519   1.003   0.964 -0.1976  1.9242 -1.8428
  408SOL     OW 1222   1.567   2.411   0.975  0.0986  0.0017  0.4491
  408SOL    HW1 1223   1.643   2.401   0.897  3.9303 -0.2401 -0.9619
  408SOL    HW2 1224   1.588   2.483   1.044 -0.1210 -1.5520 -2.7698
  409SOL     OW 1225   0.607   0.850   0.727 -0.7349  0.0133  0.6533
  409SOL    HW1 1226   0.558   0.882   0.637 -2.8383  1.5773 -0.6007
  409SOL    HW2 1227   0.634   0.752   0.721 -0.6605  0.3573 -1.6638
  410SOL     OW 1228   1.267   1.992   1.440 -0.1179 -0.1067  0.2614
  410SOL    HW1 1229   1.299   2.038   1.524 -3.8887 -3.0724 -0.8939
  410SOL    HW2 1230   1.169   1.945   1.445  1.1889  1.7733  0.9389
  411SOL     OW 1231   2.407   1.789   3.093  0.4298 -0.3206 -0.9703
  411SOL    HW1 1232   2.336   1.811   3.025  1.4397  0.3669  0.8761
  411SOL    HW2 1233   2.501   1.795   3.051  0.3665 -1.7853  0.3966
  412SOL     OW 1234   1.502   2.473   2.226 -0.5738  0.0950  0.2632
  412SOL    HW1 1235   1.550   2.550   2.277 -2.0630 -1.5257 -1.8674
  412SOL    HW2 1236   1.471   2.404   2.291 -2.7476 -0.4952 -3.0909
  413SOL     OW 1237   3.068   0.276   2.973  0.2170 -0.1745 -0.1518
  413SOL    HW1 1238   3.020   0.194   3.018 -3.2969  3.9770 -0.6968
  413SOL    HW2 1239   3.168   0.286   3.008  0.9866  1.7761  0.7328
  414SOL     OW 1240   1.759   1.394   1.388  0.5883  0.5525  0.0952
  414SOL    HW1 1241   1.691   1.449   1.439  1.3349  1.1919 -0.3197
  414SOL    HW2 1242   1.743   1.385   1.285  0.6156 -0.4606  0.5922
  415SOL     OW 1243   0.366   2.273   0.611  0.0194  0.1020 -0.2919
  415SOL    HW1 1244   0.328   2.368   0.605  2.7784  0.2480  3.0627
  415SOL    HW2 1245   0.296   2.200   0.611  3.2000  2.0788  1.8671
  416SOL     OW 1246   0.389   1.068   1.038  0.1730 -0.1836 -0.4350
  416SOL    HW1 1247   0.366   0.993   0.975 -1.4764  1.5586  1.0920
  416SOL    HW2 1248   0.493   1.081   1.048 -0.1671  0.8286  0.1609
  417SOL     OW 1249   2.120   2.364   1.900 -0.0361 -0.1989 -0.3892
  417SOL    HW1 1250   2.144   2.264   1.902  0.9284 -1.1730  3.0631
  417SOL    HW2 1251   2.027   2.374   1.935  0.5518  0.1212  2.0811
  418SOL     OW 1252   1.114   0.516   1.302 -0.0138 -0.2297 -0.3753
  418SOL    HW1 1253   1.013   0.501   1.295 -2.7983  0.4083 -1.2222
  418SOL    HW2 1254   1.172   0.456   1.241 -2.1785  0.3249 -0.4239
  419SOL     OW 1255   1.028   0.377   3.060  0.4466 -0.2424  0.1864
  419SOL    HW1 1256   1.019   0.440   2.976  3.5863  1.5747  0.8182
  419SOL    HW2 1257   0.970   0.289   3.063 -1.0156  0.1521  1.9735
  420SOL     OW 1258   0.223   2.255   0.325 -0.4154 -0.1943  0.2340
  420SOL    HW1 1259   0.173   2.200   0.253  0.9689  2.4622 -2.2332
  420SOL    HW2 1260   0.161   2.271   0.408 -1.6900  1.8353 -0.8648
  421SOL     OW 1261   0.344   3.086   0.691 -0.7259  0.3279  0.2726
  421SOL    HW1 1262   0.298   2.992   0.683  0.4120 -2.9307  0.2881
  421SOL    HW2 1263   0.439   3.076   0.728 -0.3120 -1.3014  3.5829
  422SOL     OW 1264   0.955   2.516   1.035  0.6183  0.1699  0.1217
  422SOL    HW1 1265   0.984   2.576   0.950  3.1724 -0.7144 -1.7024
  422SOL    HW2 1266   1.007   2.527   1.127 -0.8516  0.1855 -0.0986
  423SOL     OW 1267   0.045   0.658   1.203  0.1095 -0.3780 -0.3151
  423SOL    HW1 1268  -0.006   0.634   1.294 -0.6949 -0.5398  0.4475
  423SOL    HW2 1269   0.016   0.745   1.163 -1.0605 -2.6161  2.5665
  424SOL     OW 1270   0.976   2.199   2.061 -0.1087  0.5607 -0.0665
  424SOL    HW1 1271   1.024   2.289   2.049 -0.4743 -0.0902  0.2579
  424SOL    HW2 1272   0.936   2.187   2.154  0.0994  0.1419  1.0851
  425SOL     OW 1273   1.979   1.431   1.022 -0.4317  0.0991 -0.3253
  425SOL    HW1 1274   1.996   1.333   1.001  1.7521  1.9302 -0.8645
  425SOL    HW2 1275   2.050   1.486   0.971  1.5794 -0.3136 -0.9672
  426SOL     OW 1276   1.508   1.566   1.449  0.0307  0.1986 -0.2379
  426SOL    HW1 1277   1.483   1.627   1.373 -0.8118  0.2546 -0.3783
  426SOL    HW2 1278   1.499   1.604   1.544 -2.8395 -2.5174  0.5590
  427SOL     OW 1279   1.892   2.403   2.098  0.5757  0.3105 -0.1103
  427SOL    HW1 1280   1.982   2.378   2.147  0.4645 -0.0165 -1.1170
  427SOL    HW2 1281   1.869   2.505   2.107  0.1524 -2.7500  0.4852
  428SOL     OW 1282   0.868   2.973   0.148  0.2225 -0.7531 -0.0173
  428SOL    HW1 1283   0.924   3.053   0.180 -0.9025 -1.7845 -1.7216
  428SOL    HW2 1284   0.924   2.895   0.122  0.0514 -1.8212 -0.0241
  429SOL     OW 1285   1.281   0.091   0.218 -0.1333 -0.3555  0.1068
  429SOL    HW1 1286   1.371   0.122   0.263  1.8270 -1.2982  1.9104
  429SOL    HW2 1287   1.279   0.124   0.119  0.2512 -0.3415  1.7050
  430SOL     OW 1288   2.830   1.533   0.336 -0.1194 -0.0961 -0.2519
  430SOL    HW1 1289   2.811   1.583   0.246 -2.8488  0.2285 -1.3830
  430SOL    HW2 1290   2.815   1.592   0.420  2.1474 -1.0054 -1.7130
  431SOL     OW 1291   2.132   1.628   0.881 -0.2013  0.0879  0.1595
  431SOL    HW1 1292   2.215   1.691   0.881  0.0400  0.9684 -0.1805
  431SOL    HW2 1293   2.049   1.688   0.859 -0.3245 -0.1294 -1.4400
  432SOL     OW 1294   2.921   2.223   1.240 -0.3385  0.0998 -0.4257
  432SOL    HW1 1295   2.872   2.129   1.257 -0.7877 -5.6883  0.1877
  432SOL    HW2 1296   2.954   2.273   1.328  1.5305 -1.1813  2.4784
  433SOL     OW 1297   1.876   0.347   0.798  0.2475  0.1200 -0.4951
  433SOL    HW1 1298   1.810   0.331   0.874  0.3213 -1.8245  1.3050
  433SOL    HW2 1299   1.934   0.262   0.785  0.6913  0.6847  2.1001
  434SOL     OW 1300   1.546   0.310   0.732 -0.0048 -0.0399  0.3473
  434SOL    HW1 1301   1.561   0.406   0.709  1.7195  0.0302 -0.7210
  434SOL    HW2 1302   1.557   0.288   0.836 -0.6843  0.0454  0.0329
  435SOL     OW 1303   1.449   1.388   2.146  0.1493 -0.4022  0.4099
  435SOL    HW1 1304   1.401   1.414   2.235  1.3739 -1.5571 -0.3668
  435SOL    HW2 1305   1.439   1.452   2.069 -0.0479 -1.5442 -0.1361
  436SOL     OW 1306   1.604   2.624   2.409  0.0554  0.7430  0.2059
  436SOL    HW1 1307   1.659   2.711   2.420 -1.0419  0.5854  0.5323
  436SOL    HW2 1308   1.537   2.612   2.489  1.5151  1.0260 -0.9535
  437SOL     OW 1309   1.080   2.910   0.902 -0.2697  0.4381 -0.6014
  437SOL    HW1 1310   1.033   2.992   0.859  0.8760  1.6402  2.3553
  437SOL    HW2 1311   1.054   2.882   1.002  1.6877 -0.2816  1.4694
  438SOL     OW 1312   1.060   2.595   1.274 -0.6386 -0.1591  0.4890
  438SOL    HW1 1313   1.096   2.669   1.337 -2.5550 -0.8266 -3.4627
  438SOL    HW2 1314   1.057   2.504   1.329  0.2851  1.7780  0.9975
  439SOL     OW 1315   0.736   1.776   1.032  0.4913  0.3792  0.5057
  439SOL    HW1 1316   0.725   1.853   0.960  3.5706  2.2265  0.5405
  439SOL    HW2 1317   0.641   1.740   1.061 -1.3536  0.2207  1.3675
  440SOL     OW 1318   1.042   2.466   2.014 -0.0230  0.1116 -0.9310
  440SOL    HW1 1319   1.032   2.507   1.919 -1.9323 -0.1461  0.1223
  440SOL    HW2 1320   1.128   2.493   2.061 -0.7402  3.3674 -1.5876
  441SOL     OW 1321   0.399   2.772   1.386 -0.0802  0.1744 -0.8064
  441SOL    HW1 1322   0.461   2.687   1.366 -0.3378  0.9050 -1.3369
  441SOL    HW2 1323   0.389   2.840   1.308  3.7536  0.0924 -4.3357
  442SOL     OW 1324   2.241   0.684   2.601 -0.1306 -0.2678 -0.2014
  442SOL    HW1 1325   2.258   0.606   2.537  0.1665  1.2055  0.5465
  442SOL    HW2 1326   2.142   0.721   2.603 -0.2929 -0.0754  1.3381
  443SOL     OW 1327   1.241   2.665   2.195 -0.1710 -0.0663  0.4107
  443SOL    HW1 1328   1.224   2.565   2.206 -1.5590 -0.4498 -4.5078
  443SOL    HW2 1329   1.198   2.721   2.272 -1.1772 -3.2393 -2.3160
  444SOL     OW 1330   1.040   1.228   1.504  0.0767 -0.1246  0.1037
  444SOL    HW1 1331   1.143   1.230   1.490  3.5568  0.0378 -0.4530
  444SOL    HW2 1332   1.007   1.253   1.603 -0.8428  4.4790  0.8977
  445SOL     OW 1333   0.006   2.387   1.934 -0.9478  0.5355 -0.5434
  445SOL    HW1 1334  -0.013   2.358   1.834 -2.0547  1.6691 -2.9944
  445SOL    HW2 1335  -0.067   2.350   1.996  2.0080 -0.1092  0.4817
  446SOL     OW 1336   0.185   1.940   2.370  0.1085 -0.2139  0.4122
  446SOL    HW1 1337   0.140   2.031   2.359 -0.0322  1.9977  0.1228
  446SOL    HW2 1338   0.169   1.874   2.285  0.1483 -0.9192 -3.1445
  447SOL     OW 1339   1.227   1.668   1.918  0.1990 -0.3231 -0.2828
  447SOL    HW1 1340   1.141   1.702   1.962  1.5268  0.5775  2.5756
  447SOL    HW2 1341   1.309   1.716   1.956  0.0763  0.1898  0.1703
  448SOL     OW 1342   0.150   1.423   2.017 -0.1988 -0.8561  0.1782
  448SOL    HW1 1343   0.138   1.517   1.971 -1.7554  1.8052 -0.9151
  448SOL    HW2 1344   0.100   1.412   2.108  1.5407 -1.1117  0.5162
  449SOL     OW 1345   1.807   2.983   0.856 -1.0422  0.2482  0.2804
  449SOL    HW1 1346   1.793   2.986   0.959  0.8109 -0.8127  1.9003
  449SOL    HW2 1347   1.843   2.887   0.825 -1.0613  0.5700 -0.7486
  450SOL     OW 1348   2.278   1.471   0.733  0.5902 -0.7725  0.2560
  450SOL    HW1 1349   2.229   1.528   0.809  0.3397  1.0609  1.8685
  450SOL    HW2 1350   2.265   1.502   0.637 -0.1877 -0.5878  1.2551
  451SOL     OW 1351   1.396   3.056   1.486  0.0696  0.0209 -0.1073
  451SOL    HW1 1352   1.320   3.118   1.509  4.7867 -1.2188 -1.1323
  451SOL    HW2 1353   1.409   2.996   1.572  2.6262 -1.4831  1.9657
  452SOL     OW 1354   2.664   2.280   2.258  0.1467  0.2580 -0.6424
  452SOL    HW1 1355   2.632   2.379   2.274  2.7350  0.4377 -0.6407
  452SOL    HW2 1356   2.692   2.236   2.347 -1.0005 -0.0729  0.5139
  453SOL     OW 1357   2.444   2.654   0.007 -0.0909 -0.2301 -0.2259
  453SOL    HW1 1358   2.351   2.675   0.048  0.4048 -1.0209 -3.5885
  453SOL    HW2 1359   2.451   2.583  -0.074  2.3481 -1.9198 -1.9458
  454SOL     OW 1360   0.970   1.120   2.050 -0.1223 -0.4314  0.3582
  454SOL    HW1 1361   0.936   1.094   1.956 -0.3281  2.4794 -1.7357
  454SOL    HW2 1362   1.057   1.174   2.039  1.3200 -1.4408  1.1138
  455SOL     OW 1363   0.667   2.687   2.788 -0.3299  0.0090 -0.6766
  455SOL    HW1 1364   0.755   2.750   2.790  3.0236  0.9764  0.8476
  455SOL    HW2 1365   0.676   2.599   2.852  1.3627 -0.4450  0.7923
  456SOL     OW 1366   0.369   1.886   0.226  0.9049  0.5796 -0.2855
  456SOL    HW1 1367   0.467   1.861   0.241 -0.8070 -1.3896  2.2045
  456SOL    HW2 1368   0.361   1.965   0.164  1.3939  0.7424  0.7960
  457SOL     OW 1369   0.399   2.773   0.593  0.2811 -0.4993 -0.2218
  457SOL    HW1 1370   0.395   2.815   0.495  2.2664 -0.3506  0.5948
  457SOL    HW2 1371   0.493   2.730   0.623 -1.2044 -2.1054  1.1046
  458SOL     OW 1372   2.813   0.033   1.170 -0.2347 -0.2350 -0.7252
  458SOL    HW1 1373   2.884   0.110   1.176  1.8570 -2.2993  0.3587
  458SOL    HW2 1374   2.838  -0.049   1.109 -1.2108 -2.7780 -1.8042
  459SOL     OW 1375   2.190   2.551   0.816 -0.3849  0.5649 -0.1184
  459SOL    HW1 1376   2.235   2.627   0.868 -0.0234  3.7382 -2.4741
  459SOL    HW2 1377   2.246   2.524   0.735 -0.5910 -0.6024 -2.6968
  460SOL     OW 1378   1.198   2.085   2.779 -0.4395  0.6098  0.1192
  460SOL    HW1 1379   1.238   2.087   2.687  0.1707 -0.0714  0.2293
  460SOL    HW2 1380   1.201   1.988   2.816  0.7475 -0.4978 -1.3167
  461SOL     OW 1381   0.501   2.133   2.699  0.0493  0.9218 -0.1246
  461SOL    HW1 1382   0.443   2.056   2.661  1.1259 -1.1303  1.3576
  461SOL    HW2 1383   0.534   2.103   2.791  3.2035 -0.1033 -2.3088
  462SOL     OW 1384   1.005   1.083   1.740  0.4247  0.0985  0.4970
  462SOL    HW1 1385   1.028   1.024   1.657 -0.7029 -0.3431 -0.0941
  462SOL    HW2 1386   0.913   1.130   1.724  0.1490  0.9558  0.8885
  463SOL     OW 1387   0.476   0.868   0.495 -0.2857 -0.0263  0.0308
  463SOL    HW1 1388   0.513   0.772   0.460  0.8492 -1.5456  0.3292
  463SOL    HW2 1389   0.374   0.862   0.517 -2.2696  1.3237 -2.3140
  464SOL     OW 1390   0.589   2.327   2.210 -0.7869 -0.4793  0.0615
  464SOL    HW1 1391   0.533   2.395   2.263  2.3169  2.6212  1.5439
  464SOL    HW2 1392   0.572   2.330   2.110 -2.0091  0.1464 -1.1862
  465SOL     OW 1393   0.280   0.918   0.836 -0.4056  0.2051 -0.3357
  465SOL    HW1 1394   0.187   0.956   0.814 -1.5386  1.9067 -0.4486
  465SOL    HW2 1395   0.286   0.814   0.822 -0.8184 -3.6826 -1.5624
  466SOL     OW 1396   1.411   1.151   1.056  0.3329 -0.1889  0.1081
  466SOL    HW1 1397   1.450   1.246   1.054  0.4507  0.7301  1.2192
  466SOL    HW2 1398   1.307   1.158   1.069 -1.6225 -1.4674 -1.1963
  467SOL     OW 1399   0.612   0.413   2.463  0.1012 -0.0279 -0.1082
  467SOL    HW1 1400   0.551   0.500   2.457 -0.0580  0.5496 -2.1090
  467SOL    HW2 1401   0.601   0.356   2.551 -1.0592 -1.2429  3.0037
  468SOL     OW 1402   0.407   2.263   1.610  0.7383 -0.0817 -0.0979
  468SOL    HW1 1403   0.491   2.319   1.627  1.5067  0.6824  1.9405
  468SOL    HW2 1404   0.372   2.261   1.513  0.6928 -1.1102 -0.2100
  469SOL     OW 1405   1.477   1.307   1.319 -0.0074  0.6556 -0.6724
  469SOL    HW1 1406   1.555   1.320   1.260  1.5600  0.6412  0.0532
  469SOL    HW2 1407   1.453   1.387   1.384 -0.9106 -1.3741  1.4630
  470SOL     OW 1408   3.014   1.862   0.720 -0.1468  0.2997 -0.1053
  470SOL    HW1 1409   3.081   1.934   0.685  2.0861  0.9363  1.9126
  470SOL    HW2 1410   3.060   1.769   0.748 -0.9560  1.1324  1.8109
  471SOL     OW 1411   2.586   1.350   2.151  0.0182 -0.6712  0.3250
  471SOL    HW1 1412   2.541   1.289   2.224 -1.7177  0.6339  2.2765
  471SOL    HW2 1413   2.670   1.400   2.182 -2.5346  0.3476  0.2354
  472SOL     OW 1414   1.164   2.376   0.042  0.1563  0.1202 -0.4529
  472SOL    HW1 1415   1.240   2.353   0.105 -0.6862  0.3824 -0.0849
  472SOL    HW2 1416   1.072   2.387   0.088 -0.9782 -1.0400 -2.0027
  473SOL     OW 1417   1.059   1.469   1.043 -0.6924 -0.3723  0.2380
  473SOL    HW1 1418   0.973   1.497   0.995 -1.8924 -1.3085 -0.4048
  473SOL    HW2 1419   1.043   1.421   1.135  0.7264  0.6547  0.3694
  474SOL     OW 1420   0.654   1.284   0.598 -0.1969 -0.4147  0.0063
  474SOL    HW1 1421   0.573   1.239   0.557 -0.4519 -2.9048  1.9348
  474SOL    HW2 1422   0.739   1.228   0.577  1.7812  2.4275  0.2582
  475SOL     OW 1423   2.833   0.022   0.826  0.3319  0.2457  0.3750
  475SOL    HW1 1424   2.896   0.102   0.817 -0.5817  1.8734  3.5724
  475SOL    HW2 1425   2.746   0.056   0.869  1.2429  1.5841  0.0959
  476SOL     OW 1426   1.032   2.975   1.757 -0.1874 -0.1485  0.1151
  476SOL    HW1 1427   1.131   3.005   1.753 -0.7067 -0.0536 -1.6009
  476SOL    HW2 1428   0.991   2.961   1.661 -2.6081  1.3266 -1.4998
  477SOL     OW 1429   1.457   0.321   2.434  0.5149  0.1637  0.0629
  477SOL    HW1 1430   1.439   0.353   2.531 -1.5126 -0.0595  0.2265
  477SOL    HW2 1431   1.533   0.249   2.427  0.6975  0.0960  2.6323
  478SOL     OW 1432   2.226   1.846   0.209 -0.6245 -0.1479 -0.0314
  478SOL    HW1 1433   2.151   1.788   0.250  2.7016  0.9568 -1.1171
  478SOL    HW2 1434   2.288   1.787   0.150  4.1025  0.1750  0.0438
  479SOL     OW 1435   1.255   0.945   2.876 -0.2921 -0.0329  0.0827
  479SOL    HW1 1436   1.328   0.970   2.805 -0.4905  0.1626 -0.2323
  479SOL    HW2 1437   1.198   0.861   2.852  0.1500  1.1680  1.3696
  480SOL     OW 1438   2.628   2.341   0.396  0.4580  0.3567 -0.2574
  480SOL    HW1 1439   2.560   2.280   0.448 -0.6804  2.6292  0.6588
  480SOL    HW2 1440   2.589   2.366   0.303 -0.0106 -0.5100  1.4402
  481SOL     OW 1441   0.942   1.158   0.837 -0.6715  0.0768  0.3126
  481SOL    HW1 1442   0.951   1.242   0.774 -1.0125 -0.5567  1.2193
  481SOL    HW2 1443   0.994   1.164   0.923 -0.5020 -1.2748 -0.5185
  482SOL     OW 1444   1.558   0.316   1.985 -0.1759  0.1199  0.0708
  482SOL    HW1 1445   1.545   0.419   1.959  0.9519 -0.5611 -0.7480
  482SOL    HW2 1446   1.649   0.286   2.016 -0.4193 -1.6249 -0.8255
  483SOL     OW 1447   0.133   2.294   1.219  0.0787 -0.9318 -0.6735
  483SOL    HW1 1448   0.102   2.368   1.287  3.2330  1.5755  1.4473
  483SOL    HW2 1449   0.171   2.341   1.132  2.1601  1.9062 -0.5594
  484SOL     OW 1450   1.769   1.123   1.346  0.1474  0.4265  0.2814
  484SOL    HW1 1451   1.829   1.056   1.399 -1.3537 -0.6319  3.3035
  484SOL    HW2 1452   1.774   1.219   1.386  0.0077 -2.4084  2.0557
  485SOL     OW 1453   0.761   0.797   1.773 -0.2766  0.8129 -0.3940
  485SOL    HW1 1454   0.744   0.835   1.677 -0.0112  1.0758 -1.5627
  485SOL    HW2 1455   0.858   0.757   1.785  1.4933 -0.8564  1.4797
  486SOL     OW 1456   0.837   1.873   2.464 -0.3381 -0.6680  0.2556
  486SOL    HW1 1457   0.874   1.876   2.557  0.8158 -0.0071  0.8285
  486SOL    HW2 1458   0.788   1.962   2.436 -0.7854 -0.4110  3.1151
  487SOL     OW 1459   1.767   1.594   0.936  0.1705  0.1873  0.0617
  487SOL    HW1 1460   1.819   1.510   0.959 -0.7255  1.8374 -1.5197
  487SOL    HW2 1461   1.814   1.653   0.862  1.6295  2.0957 -0.5492
  488SOL     OW 1462   2.944   0.892   2.304 -0.0382  0.2442 -0.0751
  488SOL    HW1 1463   2.959   0.793   2.270 -0.2762 -0.9596  0.9423
  488SOL    HW2 1464   2.993   0.907   2.395 -0.3789 -0.2404  0.4730
  489SOL     OW 1465   2.828   0.370   1.277  0.7061 -0.2453 -0.3608
  489SOL    HW1 1466   2.816   0.325   1.368  0.6903 -1.0964 -1.0287
  489SOL    HW2 1467   2.903   0.326   1.222  2.0696  1.1001  0.1281
  490SOL     OW 1468   1.409   2.942   2.818  0.2255  0.4600  0.3708
  490SOL    HW1 1469   1.442   2.846   2.835 -2.4916  1.7204 -1.5628
  490SOL    HW2 1470   1.375   2.958   2.722  0.2127 -1.4432  0.6541
  491SOL     OW 1471   1.704   1.528   2.647 -0.1646  0.1275 -0.0483
  491SOL    HW1 1472   1.614   1.540   2.685  3.1882  0.4281 -2.4442
  491SOL    HW2 1473   1.780   1.558   2.705 -1.7764 -0.5613 -0.9059
  492SOL     OW 1474   0.583   2.077   0.597  0.0217  0.0674 -0.7168
  492SOL    HW1 1475   0.607   2.048   0.691  0.8589 -1.2162 -3.2621
  492SOL    HW2 1476   0.509   2.156   0.595 -1.6928  2.1558 -0.0396
  493SOL     OW 1477   0.454   1.393   2.086 -0.6450  0.3755 -0.1207
  493SOL    HW1 1478   0.374   1.454   2.100  2.3401  0.3598  0.9471
  493SOL    HW2 1479   0.425   1.293   2.085  0.0481 -0.8196  1.9251
  494SOL     OW 1480   2.720   2.593   0.103  0.1035  0.8159  0.3503
  494SOL    HW1 1481   2.740   2.585   0.205 -0.6683  0.7442  1.6356
  494SOL    HW2 1482   2.621   2.628   0.088 -0.9435  2.5846  0.0705
  495SOL     OW 1483   2.556   2.740   2.620  0.4072 -0.0767  0.3943
  495SOL    HW1 1484   2.539   2.638   2.605 -0.4660  0.4342  2.3571
  495SOL    HW2 1485   2.636   2.783   2.572 -3.6983  0.3580  2.4862
  496SOL     OW 1486   2.030   2.278   0.792  0.4183 -0.3170 -0.8670
  496SOL    HW1 1487   2.055   2.336   0.878 -0.4681 -1.4958  0.3465
  496SOL    HW2 1488   2.035   2.178   0.810  0.1678  0.1058 -0.0937
  497SOL     OW 1489   0.182   2.999   2.367  0.8528 -0.3804  0.1073
  497SOL    HW1 1490   0.152   3.067   2.444 -0.9145 -0.1545  0.0977
  497SOL    HW2 1491   0.207   3.048   2.280 -0.2954 -0.2662  2.2367
  498SOL     OW 1492   1.199   1.317   1.265  0.1915  0.0919  0.1383
  498SOL    HW1 1493   1.301   1.294   1.275 -1.1446  1.0577 -3.0808
  498SOL    HW2 1494   1.166   1.391   1.331 -0.8403 -0.8880 -1.6559
  499SOL     OW 1495   0.638   1.816   0.270 -0.4028 -0.1556  0.4802
  499SOL    HW1 1496   0.675   1.720   0.231  2.4414 -3.3440 -1.2362
  499SOL    HW2 1497   0.690   1.857   0.350 -1.5751  0.7191  0.7242
  500SOL     OW 1498   1.391   2.876   1.687  0.0071 -0.0104  0.0811
  500SOL    HW1 1499   1.330   2.836   1.753 -1.7867  0.7022 -3.8781
  500SOL    HW2 1500   1.474   2.818   1.665  1.0657  0.8352 -3.4952
  501SOL     OW 1501   0.780   1.160   2.308  0.1363 -0.5590  0.7669
  501SOL    HW1 1502   0.702   1.099   2.321  0.5816  2.9020 -0.4833
  501SOL    HW2 1503   0.836   1.132   2.224  1.4755 -1.3654 -4.9512
  502SOL     OW 1504   2.547   0.949   1.775  0.0083 -0.1221 -0.2861
  502SOL    HW1 1505   2.571   0.967   1.676 -0.1549 -1.2240  0.4044
  502SOL    HW2 1506   2.564   0.849   1.799  2.0193  0.9529 -0.5721
  503SOL     OW 1507   1.301   0.173   0.590  0.2768  0.0029  0.0743
  503SOL    HW1 1508   1.240   0.254   0.624  1.5068  1.5919 -0.6364
  503SOL    HW2 1509   1.404   0.190   0.610  0.6816 -0.0731  1.1193
  504SOL     OW 1510   3.008   2.338   1.487 -0.2471  0.3620  0.4947
  504SOL    HW1 1511   2.973   2.419   1.537  1.7062  0.7428 -0.3357
  504SOL    HW2 1512   3.012   2.255   1.552 -1.9145 -0.9114  2.2985
  505SOL     OW 1513   2.273   1.181   1.417 -0.2277 -0.4216  0.3166
  505SOL    HW1 1514   2.269   1.213   1.319 -0.5677  1.2163  0.4931
  505SOL    HW2 1515   2.359   1.231   1.455 -1.0772  0.8226 -2.2882
  506SOL     OW 1516   1.928   0.207   1.817  0.5111  0.0538  0.0582
  506SOL    HW1 1517   1.997   0.133   1.836 -3.4420 -0.3956 -0.7875
  506SOL    HW2 1518   1.956   0.296   1.865 -2.7057 -0.9824  2.0836
  507SOL     OW 1519   0.587   0.699   2.155  0.5700 -0.0772 -0.4284
  507SOL    HW1 1520   0.511   0.636   2.146  3.6986 -0.6420 -3.0953
  507SOL    HW2 1521   0.678   0.647   2.163 -0.9854  1.5532  2.9062
  508SOL     OW 1522   0.308   1.632   0.761 -0.2652 -0.2807 -0.5660
  508SOL    HW1 1523   0.359   1.696   0.692 -0.6136 -0.9355 -1.8515
  508SOL    HW2 1524   0.283   1.685   0.852  1.4611  1.8166  0.0231
  509SOL     OW 1525   1.286   1.190   2.437 -0.4528 -0.3416  0.1246
  509SOL    HW1 1526   1.327   1.154   2.345  0.3019 -0.7227 -4.3329
  509SOL    HW2 1527   1.192   1.155   2.463  2.0641  0.7642  0.3637
  510SOL     OW 1528   1.270   2.118   2.228  0.1210 -0.1399 -0.5239
  510SOL    HW1 1529   1.292   2.147   2.133 -2.4263  0.2263 -1.5043
  510SOL    HW2 1530   1.208   2.040   2.222 -0.5176  4.7484  1.1051
  511SOL     OW 1531   2.999   2.700   1.256 -0.2333 -0.2551 -0.0036
  511SOL    HW1 1532   2.961   2.663   1.170  2.3543  3.2299  2.1840
  511SOL    HW2 1533   2.926   2.698   1.332  0.8530  1.7584 -0.1941
  512SOL     OW 1534   2.419   0.439   1.377  0.3732 -0.2127 -0.4475
  512SOL    HW1 1535   2.323   0.468   1.352 -0.2814 -1.4231  2.5055
  512SOL    HW2 1536   2.482   0.407   1.301  0.7237 -0.4602  2.9441
  513SOL     OW 1537   2.602   2.141   0.937  1.0404 -0.7878 -0.4065
  513SOL    HW1 1538   2.569   2.207   0.865  2.2109  0.4407 -1.1530
  513SOL    HW2 1539   2.683   2.090   0.910 -1.0718 -0.6438  0.4069
  514SOL     OW 1540   0.681   2.762   0.419 -0.1614 -0.4956  0.3769
  514SOL    HW1 1541   0.591   2.796   0.385  1.2721 -2.0826 -2.3916
  514SOL    HW2 1542   0.729   2.834   0.476 -2.0083  3.1046  0.5466
  515SOL     OW 1543   1.900   1.346   2.390 -0.2761 -0.2640  0.7497
  515SOL    HW1 1544   1.938   1.275   2.326 -0.2931 -1.8702  2.0711
  515SOL    HW2 1545   1.822   1.312   2.447  0.8382  0.6895 -2.0300
  516SOL     OW 1546   0.290   0.309   1.886  0.2130 -0.1150 -0.0536
  516SOL    HW1 1547   0.385   0.298   1.855 -0.7319  0.0090 -1.4627
  516SOL    HW2 1548   0.218   0.251   1.830 -1.0427 -1.8977  0.0626
  517SOL     OW 1549   0.490   0.115   1.127  0.1831  0.1119  0.5207
  517SOL    HW1 1550   0.525   0.161   1.217  0.4813  0.8809 -3.8271
  517SOL    HW2 1551   0.398   0.066   1.142  1.1669 -0.4887 -0.3007
  518SOL     OW 1552   2.139   3.096   1.797  0.5185  0.0310  0.0199
  518SOL    HW1 1553   2.197   3.184   1.818 -1.2907  1.8537  4.5809
  518SOL    HW2 1554   2.150   3.060   1.701 -1.6069 -1.2297  1.8899
  519SOL     OW 1555   2.301   2.101   2.473 -0.0504 -0.0467 -0.4039
  519SOL    HW1 1556   2.252   2.071   2.561  0.5817  3.5628 -1.5824
  519SOL    HW2 1557   2.294   2.207   2.462 -0.5534 -0.1112  1.6014
  520SOL     OW 1558   1.832   2.706   1.745  0.2009 -0.2925  0.5069
  520SOL    HW1 1559   1.757   2.657   1.788  0.8922  2.9345 -4.7296
  520SOL    HW2 1560   1.916   2.647   1.726  0.9875 -1.2892 -1.4726
  521SOL     OW 1561   0.554   3.094   2.069  0.0537 -0.3765 -0.3906
  521SOL    HW1 1562   0.452   3.115   2.080  1.6151 -0.2395  3.2728
  521SOL    HW2 1563   0.597   3.083   2.164  0.7361 -3.7102  1.1783
  522SOL     OW 1564   0.188   1.840   1.546 -0.2709  0.4312  0.1522
  522SOL    HW1 1565   0.221   1.904   1.620 -1.9304 -0.8409  0.3200
  522SOL    HW2 1566   0.154   1.880   1.458 -1.9382 -0.9313  0.3170
  523SOL     OW 1567   2.181   2.938   1.576 -0.2940  0.4302  0.5451
  523SOL    HW1 1568   2.241   2.856   1.587  1.1499  0.7120  1.2208
  523SOL    HW2 1569   2.119   2.910   1.495  0.5579 -0.2888 -0.3246
  524SOL     OW 1570   0.188   2.782   2.857 -0.0480 -0.2941  0.0258
  524SOL    HW1 1571   0.123   2.858   2.892  0.6407 -1.6050 -1.7028
  524SOL    HW2 1572   0.280   2.817   2.833  0.2471  0.4719 -0.0253
  525SOL     OW 1573   2.196   2.028   0.437  0.3945 -0.2109 -0.3481
  525SOL    HW1 1574   2.187   1.980   0.528  1.4747 -1.1343  0.6278
  525SOL    HW2 1575   2.254   1.969   0.375 -1.1188  0.3161  3.0493
  526SOL     OW 1576   0.449   1.524   1.796  0.1799 -0.7944 -0.8459
  526SOL    HW1 1577   0.517   1.572   1.857 -1.3718  4.5051 -0.5450
  526SOL    HW2 1578   0.440   1.425   1.821 -0.8135  0.9128 -3.5947
  527SOL     OW 1579   1.102   2.877   1.191 -0.1203  0.3556 -0.5208
  527SOL    HW1 1580   1.180   2.818   1.232  1.1773 -4.0468 -0.9736
  527SOL    HW2 1581   1.126   2.975   1.160  0.8953  1.0697 -0.6632
  528SOL     OW 1582   1.381   2.349   0.546  0.1411 -0.3421  0.2610
  528SOL    HW1 1583   1.407   2.256   0.561 -0.0217  2.2158 -0.6815
  528SOL    HW2 1584   1.432   2.422   0.606 -0.7875  0.8819  0.7560
  529SOL     OW 1585   1.920   1.766   0.785  0.0229  0.4569 -0.1859
  529SOL    HW1 1586   1.885   1.768   0.687  0.2202  1.9452  1.7541
  529SOL    HW2 1587   1.925   1.864   0.827  0.2657 -0.3434  1.2768
  530SOL     OW 1588   0.395   2.537   0.186 -0.5940 -0.0107  0.3335
  530SOL    HW1 1589   0.412   2.500   0.284 -1.0523  0.2385  0.4882
  530SOL    HW2 1590   0.429   2.462   0.121 -1.2215 -1.9993 -1.6009
  531SOL     OW 1591   1.836   0.955   1.110  0.2652  0.0804  0.0271
  531SOL    HW1 1592   1.762   0.892   1.072  1.5077 -1.1136 -0.8399
  531SOL    HW2 1593   1.821   0.988   1.207  0.8121 -2.2002 -1.8165
  532SOL     OW 1594   0.307   1.189   0.741  0.8980  0.2477  0.1412
  532SOL    HW1 1595   0.341   1.181   0.644 -2.5596 -0.1950  0.5635
  532SOL    HW2 1596   0.322   1.107   0.803  2.2968 -0.5491 -1.0186
  533SOL     OW 1597   1.799   0.008   2.593 -0.3704 -0.0529 -0.1864
  533SOL    HW1 1598   1.906  -0.005   2.592  1.9635  1.3126  2.8193
  533SOL    HW2 1599   1.766   0.087   2.651  0.5242 -1.3895 -0.0956
  534SOL     OW 1600   0.211   0.214   1.490  0.3285  0.3054 -0.2136
  534SOL    HW1 1601   0.277   0.253   1.427  0.4620 -2.3451  1.3653
  534SOL    HW2 1602   0.138   0.284   1.516  1.2177 -0.2164  0.1757
  535SOL     OW 1603   1.844   0.334   0.197  0.1907  0.0750 -0.2315
  535SOL    HW1 1604   1.860   0.396   0.276 -0.7073  3.1019 -0.5171
  535SOL    HW2 1605   1.755   0.282   0.206 -2.8899 -0.9845  2.1776
  536SOL     OW 1606   1.355   2.596   0.923  0.6350  0.1276 -0.2082
  536SOL    HW1 1607   1.430   2.562   0.983 -0.1723  0.2114 -0.7130
  536SOL    HW2 1608   1.288   2.523   0.893 -1.3034 -1.9188  0.9749
  537SOL     OW 1609   0.882   0.228   2.358 -0.3263  0.0802  0.0094
  537SOL    HW1 1610   0.920   0.250   2.265 -1.2213 -1.1323  2.0347
  537SOL    HW2 1611   0.803   0.161   2.352  2.0206 -0.7454 -2.2018
  538SOL     OW 1612   1.646   2.351   1.493  0.2328 -0.4824 -0.1259
  538SOL    HW1 1613   1.611   2.267   1.440 -1.9143 -1.1337  0.4326
  538SOL    HW2 1614   1.738   2.376   1.453  0.6187  2.0978  0.6436
  539SOL     OW 1615   0.183   1.587   2.672  0.6131  0.2631  0.1402
  539SOL    HW1 1616   0.089   1.575   2.632  3.7221  2.9209  0.3372
  539SOL    HW2 1617   0.177   1.661   2.736 -0.7198 -1.3033 -0.2550
  540SOL     OW 1618   2.734   1.658   1.977  0.5782 -0.3809 -0.5501
  540SOL    HW1 1619   2.659   1.584   1.987 -0.9425 -2.3667  0.3309
  540SOL    HW2 1620   2.685   1.750   1.978 -0.3951  1.1423 -4.2139
  541SOL     OW 1621   0.459   2.316   0.023  0.2751 -0.8043  0.5641
  541SOL    HW1 1622   0.515   2.255   0.077  1.9185  1.4320 -2.5583
  541SOL    HW2 1623   0.386   2.265  -0.032 -0.9300  2.3191  2.3747
  542SOL     OW 1624   2.252   2.574   0.440 -0.1498 -0.0669 -0.1167
  542SOL    HW1 1625   2.251   2.665   0.392  0.6600 -1.8479  0.5910
  542SOL    HW2 1626   2.153   2.545   0.462 -2.2124 -0.3118 -1.9338
  543SOL     OW 1627   1.003   1.756   1.720  0.1237 -0.5417 -0.0702
  543SOL    HW1 1628   0.987   1.770   1.820 -0.8962 -1.0663 -1.4848
  543SOL    HW2 1629   1.004   1.847   1.669  1.3590  0.7314 -0.2845
  544SOL     OW 1630   0.920   0.386   0.193  0.8150  0.3223 -0.0987
  544SOL    HW1 1631   0.958   0.308   0.249  0.0871 -1.7080  0.1790
  544SOL    HW2 1632   0.973   0.400   0.103 -0.8299 -2.3066 -2.8013
  545SOL     OW 1633   1.101   1.711   0.649  0.2822 -0.2226  0.5603
  545SOL    HW1 1634   1.182   1.738   0.707 -0.8641 -0.4528 -0.3180
  545SOL    HW2 1635   1.114   1.722   0.548 -0.0384 -0.7607  1.6706
  546SOL     OW 1636   2.622   1.548   3.043 -0.6944  0.5141 -0.9079
  546SOL    HW1 1637   2.577   1.570   2.951 -0.1482 -0.7145  1.0608
  546SOL    HW2 1638   2.559   1.517   3.118 -1.9486 -1.3843  1.6319
  547SOL     OW 1639   0.545   0.019   2.765  0.0403 -0.3053 -0.6424
  547SOL    HW1 1640   0.644  -0.011   2.765 -0.4667 -0.5806  3.5299
  547SOL    HW2 1641   0.471  -0.047   2.724  0.0393  0.3843 -1.0893
  548SOL     OW 1642   2.033   0.819   3.038 -0.3458 -0.4488  0.5264
  548SOL    HW1 1643   1.938   0.776   3.048  1.5228 -0.2176 -1.4685
  548SOL    HW2 1644   2.035   0.921   3.068  0.6707  0.8447  2.1967
  549SOL     OW 1645   0.666   0.538   0.203  0.7901  1.2944 -0.1202
  549SOL    HW1 1646   0.633   0.589   0.118 -2.8685 -2.9471  0.4407
  549SOL    HW2 1647   0.765   0.523   0.208 -1.7744  0.1528 -0.3308
  550SOL     OW 1648   2.526   2.863   2.870 -0.6014  0.0633 -0.1735
  550SOL    HW1 1649   2.500   2.808   2.950 -1.2968  0.8418  0.6834
  550SOL    HW2 1650   2.541   2.819   2.776 -0.4535 -1.6164 -0.8685
  551SOL     OW 1651   0.284   0.911   0.233  0.4073 -0.1568 -0.0002
  551SOL    HW1 1652   0.366   0.853   0.216 -0.4068 -1.8755 -1.2210
  551SOL    HW2 1653   0.261   0.920   0.333 -1.3981 -0.2737 -2.7086
  552SOL     OW 1654   0.765   2.895   1.867 -0.4899  0.9589  0.7412
  552SOL    HW1 1655   0.705   2.947   1.927  1.6271  0.0892 -3.6754
  552SOL    HW2 1656   0.849   2.944   1.830  0.5755 -2.6533 -1.1424
  553SOL     OW 1657   0.027   2.528   0.363  0.5529 -0.1283  0.1261
  553SOL    HW1 1658  -0.025   2.446   0.394  3.3270  0.6283 -1.8795
  553SOL    HW2 1659  -0.025   2.614   0.385  3.9737  0.0746  0.3541
  554SOL     OW 1660   2.222   0.337   0.580 -0.6854  0.0570  0.4180
  554SOL    HW1 1661   2.263   0.315   0.487  1.9885  0.9896 -1.8127
  554SOL    HW2 1662   2.244   0.266   0.653 -1.8577 -0.1420  0.2246
  555SOL     OW 1663   0.419   2.893   2.483 -0.3009  0.2601  0.3566
  555SOL    HW1 1664   0.319   2.887   2.455 -1.9273  1.9524  0.3596
  555SOL    HW2 1665   0.475   2.829   2.421  0.9685 -0.2531  0.9914
  556SOL     OW 1666   0.911   2.382   1.638  0.1243  0.1722 -0.9226
  556SOL    HW1 1667   0.950   2.467   1.686  0.4600  0.5347  0.0742
  556SOL    HW2 1668   0.948   2.372   1.540 -0.3577  1.0348 -0.9504
  557SOL     OW 1669   0.098   2.094   0.134 -0.3567 -0.1701 -0.1312
  557SOL    HW1 1670   0.022   2.031   0.093 -0.5559 -1.1862  3.8980
  557SOL    HW2 1671   0.144   2.152   0.061  1.5851 -1.3142 -0.3329
  558SOL     OW 1672   2.933   2.289   0.350 -0.2611  0.3717 -0.3337
  558SOL    HW1 1673   2.861   2.244   0.409  0.0130  1.9325  0.0380
  558SOL    HW2 1674   2.922   2.280   0.246  1.1856 -0.2313 -1.5501
  559SOL     OW 1675   0.390   2.288   1.349 -0.2514  0.7599  0.5323
  559SOL    HW1 1676   0.303   2.291   1.298  1.6338  2.2592  1.7171
  559SOL    HW2 1677   0.448   2.202   1.327  0.1700 -0.5794  0.5879
  560SOL     OW 1678   2.098   1.099   3.056 -0.0621  0.0926 -0.1589
  560SOL    HW1 1679   2.042   1.168   3.109  0.8362 -0.6953 -0.2944
  560SOL    HW2 1680   2.199   1.118   3.048  0.4433  0.6407  0.4028
  561SOL     OW 1681   3.003   1.948   0.005 -0.1536  0.0502  0.3147
  561SOL    HW1 1682   2.945   1.862   0.031  1.1555 -2.2265  0.1779
  561SOL    HW2 1683   2.945   2.018  -0.045  4.2422  0.7599  0.6110
  562SOL     OW 1684   0.933   2.147   2.383  0.2552  0.5149 -0.5337
  562SOL    HW1 1685   0.833   2.143   2.373  2.7829 -1.7880 -0.9903
  562SOL    HW2 1686   0.962   2.211   2.465  1.0140  4.6191  1.5554
  563SOL     OW 1687   0.682   2.453   2.593 -0.0607  0.5354  0.4359
  563SOL    HW1 1688   0.776   2.410   2.608  0.4938  0.6840 -3.6754
  563SOL    HW2 1689   0.625   2.469   2.680  2.4981 -1.4227 -1.4435
  564SOL     OW 1690   2.774   1.303   2.920  0.2175  0.1658  0.2200
  564SOL    HW1 1691   2.683   1.312   2.975 -1.3543  3.1485  0.6534
  564SOL    HW2 1692   2.811   1.397   2.890  1.4254 -0.2652  1.6828
  565SOL     OW 1693   2.543   1.998   2.575  0.2130 -0.1572  0.3773
  565SOL    HW1 1694   2.461   2.057   2.553  1.4190  0.7926  1.6587
  565SOL    HW2 1695   2.592   2.023   2.665  1.1332  1.2383 -1.6220
  566SOL     OW 1696   2.013   2.868   1.334  0.0374 -0.0712  0.9568
  566SOL    HW1 1697   1.957   2.783   1.332 -1.4240  0.1800  0.6793
  566SOL    HW2 1698   2.040   2.896   1.238  0.9170  0.8967 -1.5984
  567SOL     OW 1699   2.457   0.131   2.255  0.4014 -0.0380  0.9854
  567SOL    HW1 1700   2.383   0.072   2.222  1.0039 -0.0847  1.9771
  567SOL    HW2 1701   2.517   0.178   2.182  3.5374 -2.1443  0.7013
  568SOL     OW 1702   1.540   1.810   0.259 -0.6151 -0.5804 -0.5201
  568SOL    HW1 1703   1.463   1.873   0.230  1.8190  0.5627  0.6897
  568SOL    HW2 1704   1.617   1.820   0.196 -0.2978  1.6172  0.1509
  569SOL     OW 1705   0.299   0.641   0.841 -0.3022 -0.3791  0.3453
  569SOL    HW1 1706   0.359   0.573   0.784  1.1098 -0.3369  3.3952
  569SOL    HW2 1707   0.208   0.599   0.879 -1.0901  3.2638  0.5474
  570SOL     OW 1708   0.672   0.744   2.835  0.6672  0.0886 -0.6783
  570SOL    HW1 1709   0.700   0.746   2.734  2.2036 -0.8232  2.4387
  570SOL    HW2 1710   0.670   0.841   2.877 -3.3544 -1.0613 -0.6125
  571SOL     OW 1711   0.849   3.063   1.112 -0.2964 -0.1190 -0.0766
  571SOL    HW1 1712   0.895   3.080   1.021  0.6605 -1.3047  0.8842
  571SOL    HW2 1713   0.871   2.969   1.155  0.2394 -1.9078  0.7003
  572SOL     OW 1714   1.574   2.640   1.147  0.2713 -0.2940  0.5135
  572SOL    HW1 1715   1.507   2.600   1.220  0.0888 -1.1847  4.5791
  572SOL    HW2 1716   1.539   2.728   1.101 -1.0690  0.9911 -1.1376
  573SOL     OW 1717   2.922   0.417   2.055 -0.1792  0.4092  0.0001
  573SOL    HW1 1718   2.883   0.323   2.051 -1.6571 -0.4457  1.1666
  573SOL    HW2 1719   2.854   0.490   2.019  0.2541  1.3310 -1.8889
  574SOL     OW 1720   0.216   1.772   0.987 -0.1367  0.1098 -0.3276
  574SOL    HW1 1721   0.209   1.869   0.952 -0.3955 -0.5307 -0.1973
  574SOL    HW2 1722   0.176   1.751   1.083  2.6099 -2.6519  1.9383
  575SOL     OW 1723   0.832   2.158   0.974  0.9279 -0.2198  0.2241
  575SOL    HW1 1724   0.812   2.195   1.070 -0.6302  0.8266  1.3908
  575SOL    HW2 1725   0.866   2.226   0.904  3.5885 -0.9130  0.3764
  576SOL     OW 1726   2.934   2.936   1.685 -0.1535  0.5003 -0.9859
  576SOL    HW1 1727   2.863   2.883   1.636  1.3777 -1.0828  3.6547
  576SOL    HW2 1728   2.935   3.036   1.673 -0.6386 -1.8523  1.7582
  577SOL     OW 1729   2.539   1.231   3.090 -0.0587 -0.3096 -0.0898
  577SOL    HW1 1730   2.553   1.145   3.037 -1.7957  0.1034 -0.5989
  577SOL    HW2 1731   2.591   1.240   3.181 -2.3780  0.7532 -1.7853
  578SOL     OW 1732   1.336   2.672   2.595  0.4316 -0.2751  0.3720
  578SOL    HW1 1733   1.249   2.646   2.541 -1.6684 -1.3700 -1.9251
  578SOL    HW2 1734   1.374   2.768   2.574  3.5190 -1.2998 -1.9351
  579SOL     OW 1735   0.121   2.509   0.116  0.2170 -0.0349  0.3477
  579SOL    HW1 1736   0.074   2.500   0.210  1.0884 -0.4272  0.0481
  579SOL    HW2 1737   0.218   2.533   0.133 -0.5557  0.8374  0.5255
  580SOL     OW 1738   1.010   2.598   0.385  0.5048 -0.0570  0.3574
  580SOL    HW1 1739   1.085   2.624   0.323  1.1535 -0.0761  1.2494
  580SOL    HW2 1740   0.933   2.551   0.330 -0.9093  1.2957 -0.7341
  581SOL     OW 1741   1.226   2.601   1.513  0.1880 -0.4410  0.0044
  581SOL    HW1 1742   1.266   2.522   1.460 -0.4059 -1.1744  1.2509
  581SOL    HW2 1743   1.274   2.686   1.479 -1.8372 -0.6189 -0.2819
  582SOL     OW 1744   1.487   0.095   1.813  0.1268 -0.0148 -0.4341
  582SOL    HW1 1745   1.496   0.186   1.864 -1.8716 -0.0615  1.7119
  582SOL    HW2 1746   1.564   0.064   1.748 -0.8153  1.2460  0.3051
  583SOL     OW 1747   2.508   2.977   0.527 -0.0774 -0.0361 -0.0876
  583SOL    HW1 1748   2.514   2.901   0.460 -0.8084  1.1251 -0.4653
  583SOL    HW2 1749   2.465   2.964   0.627  0.4875  0.2229  1.6426
  584SOL     OW 1750   1.617   1.008   2.090 -0.1374 -0.4531  0.2325
  584SOL    HW1 1751   1.680   1.068   2.039 -0.2807 -0.3415  1.0521
  584SOL    HW2 1752   1.658   0.972   2.179  0.4643 -2.2444 -1.0328
  585SOL     OW 1753   2.087   2.668   2.933  0.1302  0.3781  0.7806
  585SOL    HW1 1754   2.113   2.574   2.890  0.7276  0.9035 -1.0699
  585SOL    HW2 1755   1.991   2.701   2.918 -2.4653  1.3700  0.3479
  586SOL     OW 1756   2.726   0.230   1.532 -0.4280 -0.1370  0.4260
  586SOL    HW1 1757   2.741   0.318   1.582 -0.4829  0.8382  0.9988
  586SOL    HW2 1758   2.642   0.184   1.561  2.2552  2.4654  2.7001
  587SOL     OW 1759   1.966   1.590   2.742 -0.2664 -0.5417 -0.0610
  587SOL    HW1 1760   2.015   1.514   2.695 -3.3554 -0.3644  0.8526
  587SOL    HW2 1761   2.007   1.609   2.836 -0.1057 -1.7877  1.7067
  588SOL     OW 1762   0.460   2.728   2.251  0.0604 -0.0197  0.1217
  588SOL    HW1 1763   0.378   2.745   2.197  1.2131  0.9791  1.8534
  588SOL    HW2 1764   0.460   2.633   2.291 -0.3226  0.6539  2.6093
  589SOL     OW 1765   2.105   1.446   2.538 -0.2972  0.1480  0.1633
  589SOL    HW1 1766   2.022   1.409   2.487  0.5060  0.6973 -0.2505
  589SOL    HW2 1767   2.177   1.375   2.556  2.8241  1.0506 -0.6183
  590SOL     OW 1768   2.347   1.673   2.033 -0.7462 -0.0378  0.2937
  590SOL    HW1 1769   2.416   1.597   2.015  0.1145  0.6410  0.5561
  590SOL    HW2 1770   2.364   1.716   2.125 -1.6908  1.4236  0.5289
  591SOL     OW 1771   1.390   2.413   0.253 -0.3707 -0.1579 -0.2354
  591SOL    HW1 1772   1.481   2.401   0.205  0.0646 -0.4834  0.1455
  591SOL    HW2 1773   1.392   2.389   0.354 -1.8488  0.9708  0.2442
  592SOL     OW 1774   1.768   2.366   0.802 -0.4372 -0.3162 -0.3219
  592SOL    HW1 1775   1.759   2.390   0.704  0.5411 -0.6530  1.1253
  592SOL    HW2 1776   1.865   2.331   0.829  0.4863  0.3099  2.1365
  593SOL     OW 1777   0.660   0.274   0.099 -0.2060 -0.2728  0.4692
  593SOL    HW1 1778   0.736   0.236   0.043 -0.6566 -1.9121  0.6301
  593SOL    HW2 1779   0.666   0.378   0.125  0.4557  2.9635 -0.0982
  594SOL     OW 1780   0.980   1.870   2.712 -0.0182 -0.5105  0.2623
  594SOL    HW1 1781   1.066   1.848   2.765 -2.2397 -2.5315  1.7929
  594SOL    HW2 1782   0.919   1.938   2.764 -0.6945 -0.2626 -0.2481
  595SOL     OW 1783   1.513   0.069   1.019 -0.3194  0.0882  0.3055
  595SOL    HW1 1784   1.602   0.019   1.042 -0.7867 -0.5729 -2.1322
  595SOL    HW2 1785   1.458   0.018   0.951  0.9548  0.8969  1.3886
  596SOL     OW 1786   3.076   1.482   2.225 -0.4625 -0.0402  0.5447
  596SOL    HW1 1787   2.977   1.472   2.236  1.8994 -0.0102  1.2604
  596SOL    HW2 1788   3.105   1.583   2.245  3.1026  2.2590 -1.8515
  597SOL     OW 1789   2.066   2.605   1.645 -0.0632 -0.2298 -0.1973
  597SOL    HW1 1790   2.061   2.581   1.540  1.2677 -0.9437  1.0718
  597SOL    HW2 1791   2.162   2.579   1.683  0.6281 -0.6424  1.6078
  598SOL     OW 1792   2.463   2.937   1.340 -0.2789  0.4660 -0.3050
  598SOL    HW1 1793   2.552   2.975   1.385  0.5849 -2.6748  1.0440
  598SOL    HW2 1794   2.481   2.924   1.234  2.7828  1.7653 -0.8736
  599SOL     OW 1795   2.933   0.408   2.469  0.0776  0.4459  0.2424
  599SOL    HW1 1796   2.984   0.496   2.450  0.0984 -0.9221  1.0054
  599SOL    HW2 1797   2.832   0.412   2.442 -2.3362  2.6083  1.7601
  600SOL     OW 1798   2.818   1.110   2.711 -0.2397 -0.5094  0.2037
  600SOL    HW1 1799   2.729   1.060   2.697 -1.8869  0.1230 -1.9732
  600SOL    HW2 1800   2.807   1.191   2.780 -0.5215  3.6132  1.0820
  601SOL     OW 1801   3.002   1.265   1.962 -0.4746 -0.3486 -0.3547
  601SOL    HW1 1802   2.926   1.316   1.909  0.6699  1.4040  2.5363
  601SOL    HW2 1803   3.069   1.334   1.995  0.1953  0.9396 -1.0189
  602SOL     OW 1804   1.429   1.688   2.370 -0.4210 -0.4364 -0.1579
  602SOL    HW1 1805   1.368   1.605   2.353 -0.7112 -0.6766 -0.4546
  602SOL    HW2 1806   1.529   1.667   2.363 -4.4591  1.6289  2.0310
  603SOL     OW 1807   0.634   1.237   2.706 -0.2574 -0.1316  0.9556
  603SOL    HW1 1808   0.558   1.227   2.636 -0.6760 -0.0111  0.6355
  603SOL    HW2 1809   0.721   1.179   2.688  0.6585  2.4623  0.1005
  604SOL     OW 1810   2.412   1.003   0.141  0.3439  0.2347 -0.0929
  604SOL    HW1 1811   2.513   1.023   0.121 -2.7774 -0.4372 -0.1855
  604SOL    HW2 1812   2.376   0.914   0.099  1.4777 -1.2299  1.4602
  605SOL     OW 1813   2.637   1.158   1.934 -0.2227  0.0904 -0.4354
  605SOL    HW1 1814   2.611   1.071   1.892  3.4664  3.0754 -1.0309
  605SOL    HW2 1815   2.628   1.164   2.036  0.0915 -1.3134  0.1536
  606SOL     OW 1816   1.524   2.497   2.649  0.5562 -0.8125 -0.1529
  606SOL    HW1 1817   1.443   2.557   2.623  0.8544  3.6295 -0.5762
  606SOL    HW2 1818   1.510   2.396   2.628 -1.9700  0.9675  0.8726
  607SOL     OW 1819   1.384   1.613   0.406  0.3322  0.4528  0.3423
  607SOL    HW1 1820   1.361   1.621   0.508 -0.9514  3.4723  0.2209
  607SOL    HW2 1821   1.453   1.678   0.370 -0.6888 -1.1699  0.1797
  608SOL     OW 1822   1.453   2.816   0.395  0.2071 -0.0327 -0.2147
  608SOL    HW1 1823   1.542   2.870   0.379  2.4079 -0.7739 -1.4528
  608SOL    HW2 1824   1.376   2.880   0.423  0.3444  0.7576 -0.5670
  609SOL     OW 1825   1.275   1.410   0.267  0.5056  0.2442 -0.2052
  609SOL    HW1 1826   1.308   1.500   0.311  0.1291  1.4193 -0.3914
  609SOL    HW2 1827   1.181   1.414   0.222  2.9692 -1.6145  1.0015
  610SOL     OW 1828   3.024   1.140   2.204 -0.1221  0.2058 -0.8204
  610SOL    HW1 1829   3.018   1.036   2.221  0.6103  0.1459 -2.9928
  610SOL    HW2 1830   2.973   1.172   2.123 -1.1261 -0.3195  1.8641
  611SOL     OW 1831   2.580   0.296   1.168  0.6309 -0.2075 -0.0455
  611SOL    HW1 1832   2.535   0.212   1.213 -1.9685 -0.4915 -0.8586
  611SOL    HW2 1833   2.676   0.312   1.204  0.9843 -1.0337 -2.3885
  612SOL     OW 1834   0.784   2.242   1.232 -0.7285  0.2855 -0.0891
  612SOL    HW1 1835   0.720   2.171   1.270  0.4419 -0.6289  1.6472
  612SOL    HW2 1836   0.733   2.330   1.202 -1.2948  0.7354 -1.9656
  613SOL     OW 1837   0.823   1.414   2.429 -0.4927  0.1746 -0.2611
  613SOL    HW1 1838   0.839   1.496   2.371  0.5194  0.6274  2.5212
  613SOL    HW2 1839   0.802   1.330   2.371  1.2666  1.8763 -2.7398
  614SOL     OW 1840   1.623   1.644   1.927 -0.2806 -0.1536  0.0237
  614SOL    HW1 1841   1.566   1.718   1.978  0.4112 -0.8984  2.4052
  614SOL    HW2 1842   1.719   1.632   1.966 -0.1399 -2.2644 -1.9093
  615SOL     OW 1843   0.794   1.283   1.678  0.3472  0.3543  0.1796
  615SOL    HW1 1844   0.712   1.241   1.623 -3.8547 -1.2675 -0.7019
  615SOL    HW2 1845   0.836   1.372   1.641  1.9659  1.9697 -2.5025
  616SOL     OW 1846   1.069   1.601   2.324  0.1479 -0.4171  0.8691
  616SOL    HW1 1847   1.018   1.569   2.237 -1.7023  1.1505 -3.1006
  616SOL    HW2 1848   1.075   1.708   2.330  0.2257  1.1869  2.9281
  617SOL     OW 1849   2.908   1.532   1.620 -0.0467  0.0076  0.2920
  617SOL    HW1 1850   2.866   1.449   1.666  3.0551 -0.7973 -1.4806
  617SOL    HW2 1851   2.953   1.508   1.526  1.1519 -1.3326 -1.4944
  618SOL     OW 1852   1.959   2.053   1.326  0.3286 -0.3531  0.2805
  618SOL    HW1 1853   1.938   2.103   1.239  1.7745 -1.6392 -0.5677
  618SOL    HW2 1854   1.979   1.954   1.319  0.9305  2.9292  0.6297
  619SOL     OW 1855   1.753   0.473   2.373  0.1578 -0.0108 -0.0188
  619SOL    HW1 1856   1.676   0.521   2.319 -0.4716 -0.3393 -0.9194
  619SOL    HW2 1857   1.740   0.371   2.399 -0.3312  0.1758  0.5614
  620SOL     OW 1858   2.336   2.964   0.752  0.2105  0.2517 -0.2985
  620SOL    HW1 1859   2.275   3.043   0.762  0.0590 -0.7706  1.3501
  620SOL    HW2 1860   2.315   2.884   0.820 -1.7907 -3.5198 -0.2916
  621SOL     OW 1861   2.117   1.814   1.302  0.5958 -0.6268 -0.5607
  621SOL    HW1 1862   2.118   1.826   1.405 -3.6543  2.6307 -0.6429
  621SOL    HW2 1863   2.052   1.735   1.272  1.9798  0.2882 -1.4270
  622SOL     OW 1864   2.285   0.903   1.777 -0.3411 -0.3696 -0.4678
  622SOL    HW1 1865   2.387   0.934   1.782 -2.5244  1.0845 -0.5294
  622SOL    HW2 1866   2.271   0.812   1.827 -2.9581 -1.6603  1.3040
  623SOL     OW 1867   1.335   0.790   2.523 -0.2979 -0.1125  1.2218
  623SOL    HW1 1868   1.293   0.700   2.504  2.5999 -1.1166  2.8334
  623SOL    HW2 1869   1.282   0.874   2.499 -1.6818  0.0723  0.0943
  624SOL     OW 1870   0.544   0.692   3.084 -0.7084  0.8747  0.1305
  624SOL    HW1 1871   0.579   0.693   2.987  2.1707 -0.0364  0.4438
  624SOL    HW2 1872   0.569   0.775   3.136  0.1021 -2.6982  3.4910
  625SOL     OW 1873   2.791   1.733   1.006  0.7341  0.6018  0.6915
  625SOL    HW1 1874   2.694   1.769   0.995  0.6544  1.4491 -2.5791
  625SOL    HW2 1875   2.859   1.806   1.028 -0.7340 -0.6596 -1.1068
  626SOL     OW 1876   0.605   2.699   1.706 -0.3420 -0.5402  0.1949
  626SOL    HW1 1877   0.650   2.781   1.748 -1.5156  2.1737 -1.0349
  626SOL    HW2 1878   0.503   2.691   1.727 -0.5953  1.5294  0.6695
  627SOL     OW 1879   0.683   0.948   1.552 -0.0387 -0.1544 -0.5129
  627SOL    HW1 1880   0.607   0.895   1.506 -4.5034 -0.2247  0.4691
  627SOL    HW2 1881   0.755   0.984   1.485 -0.1286  0.3562  1.6886
  628SOL     OW 1882   2.499   0.125   0.664  0.1098  0.0127  0.1702
  628SOL    HW1 1883   2.536   0.035   0.616  2.3214 -1.4106 -0.8463
  628SOL    HW2 1884   2.397   0.122   0.685  0.6789  0.5513  0.5830
  629SOL     OW 1885   1.961   0.923   2.065  0.6126 -0.1937 -0.7764
  629SOL    HW1 1886   1.963   0.943   1.963 -0.2413  1.7079 -1.7036
  629SOL    HW2 1887   1.919   1.000   2.115 -0.0921 -2.4134  0.2358
  630SOL     OW 1888   2.946   2.312   0.823  0.6533 -0.2694  0.0163
  630SOL    HW1 1889   2.880   2.387   0.839  1.5104 -1.9258 -1.7361
  630SOL    HW2 1890   2.898   2.221   0.801 -1.2100  0.6725 -0.3352
  631SOL     OW 1891   3.069   0.164   2.169 -0.0360  0.8292 -0.4126
  631SOL    HW1 1892   3.109   0.197   2.262 -1.0426  2.8502  2.8368
  631SOL    HW2 1893   3.099   0.216   2.087 -1.6789 -1.2591 -0.8048
  632SOL     OW 1894   2.453   2.598   0.640 -0.2725  0.2369 -0.0472
  632SOL    HW1 1895   2.464   2.695   0.674 -2.5927 -1.6308  0.6086
  632SOL    HW2 1896   2.395   2.589   0.551  0.5784 -0.5554  3.2757
  633SOL     OW 1897   1.440   1.232   2.659 -0.2230  0.2185 -0.1807
  633SOL    HW1 1898   1.429   1.308   2.725 -0.2830 -0.6525 -1.0976
  633SOL    HW2 1899   1.390   1.233   2.565 -0.0806  0.9005 -0.4210
  634SOL     OW 1900   0.641   1.989   0.873  0.0959  0.2282 -0.3978
  634SOL    HW1 1901   0.564   1.986   0.946  0.6774 -0.7129  1.7144
  634SOL    HW2 1902   0.713   2.062   0.903  0.9038  0.4288  1.5881
  635SOL     OW 1903   3.006   2.338   0.061 -0.1788 -0.3096 -0.1292
  635SOL    HW1 1904   2.954   2.395  -0.007 -0.6925  1.7089  0.3985
  635SOL    HW2 1905   3.104   2.373   0.072  1.7717  1.1796  0.6198
  636SOL     OW 1906   2.334   2.748   1.935  0.3585  0.4572 -0.5458
  636SOL    HW1 1907   2.346   2.847   1.954 -0.3740 -0.6499  0.2889
  636SOL    HW2 1908   2.261   2.703   1.999 -0.4816 -0.8142 -2.5091
  637SOL     OW 1909   2.737   0.620   1.954 -0.0175 -0.2520  0.2072
  637SOL    HW1 1910   2.643   0.622   1.907 -2.8907 -1.0822 -3.7325
  637SOL    HW2 1911   2.755   0.712   2.004 -0.9422 -0.0824 -0.9604
  638SOL     OW 1912   2.409   1.827   1.314 -0.4351 -0.2167  0.3256
  638SOL    HW1 1913   2.307   1.808   1.309 -0.1410 -2.6313  0.3813
  638SOL    HW2 1914   2.462   1.772   1.380 -0.4350 -0.2506 -4.0640
  639SOL     OW 1915   1.294   2.131   1.690 -0.1671 -0.7505 -0.2293
  639SOL    HW1 1916   1.320   2.228   1.703 -2.0330 -2.1888 -0.2786
  639SOL    HW2 1917   1.201   2.104   1.732  1.7368 -2.0271 -0.6682
  640SOL     OW 1918   0.224   1.190   1.558  0.0965 -0.3657 -0.6494
  640SOL    HW1 1919   0.198   1.196   1.659  1.4700 -1.7154 -2.4061
  640SOL    HW2 1920   0.300   1.117   1.554 -0.1238  1.6303 -0.8009
  641SOL     OW 1921   1.993   0.303   1.471 -0.3465 -0.7790  0.1910
  641SOL    HW1 1922   1.997   0.341   1.566  1.5718  1.3922  1.1105
  641SOL    HW2 1923   2.059   0.229   1.456 -1.6978 -0.1948  0.6902
  642SOL     OW 1924   2.010   0.031   0.319  0.0290 -0.3393 -0.0293
  642SOL    HW1 1925   2.112   0.014   0.322 -0.5220 -0.7323 -1.1198
  642SOL    HW2 1926   1.970   0.024   0.413 -0.9982 -2.7606 -0.8152
  643SOL     OW 1927   2.924   1.794   2.127  0.0001  0.1588  0.1373
  643SOL    HW1 1928   2.902   1.745   2.038 -0.0063  0.7820 -1.3090
  643SOL    HW2 1929   2.942   1.895   2.104  0.3330 -1.0111  1.1288
  644SOL     OW 1930   2.247   2.414   1.196 -0.7078  0.6301 -0.1579
  644SOL    HW1 1931   2.296   2.334   1.151  1.4411  2.9652  1.4529
  644SOL    HW2 1932   2.211   2.388   1.290 -0.9373 -0.5333 -1.3950
  645SOL     OW 1933   0.581   0.871   1.281  0.1807 -0.0671 -0.1522
  645SOL    HW1 1934   0.489   0.819   1.295  0.0412  0.0007  2.5446
  645SOL    HW2 1935   0.583   0.946   1.210  3.9740  1.2613  2.8434
  646SOL     OW 1936   1.457   1.808   2.042 -0.8925 -0.0086  0.0880
  646SOL    HW1 1937   1.468   1.900   1.995 -1.8933  0.1478  0.6124
  646SOL    HW2 1938   1.466   1.810   2.146  1.5642 -0.1395  0.4667
  647SOL     OW 1939   0.793   1.022   0.662 -0.6903  0.1960  0.6080
  647SOL    HW1 1940   0.843   1.073   0.733 -2.1668  0.3495 -2.3159
  647SOL    HW2 1941   0.715   0.966   0.694 -0.6353 -0.0797  1.5066
  648SOL     OW 1942   0.161   0.239   0.243  0.2434  0.3494  0.2541
  648SOL    HW1 1943   0.185   0.172   0.171 -2.3471  0.6069  2.1455
  648SOL    HW2 1944   0.126   0.328   0.202  0.0266  1.7371 -0.8708
  649SOL     OW 1945   3.000   0.241   0.865 -0.1854 -0.4588 -0.1871
  649SOL    HW1 1946   3.084   0.180   0.877  2.4854  0.5858  2.2981
  649SOL    HW2 1947   3.016   0.342   0.889 -1.5724  0.6977  1.1047
  650SOL     OW 1948   2.735   0.639   1.500 -0.1968 -0.1168 -0.0508
  650SOL    HW1 1949   2.633   0.638   1.508  1.1242  0.9962  0.0856
  650SOL    HW2 1950   2.773   0.729   1.458 -1.1246  0.7863  0.5331
  651SOL     OW 1951   0.930   1.513   1.602 -0.1945 -0.0483 -0.5464
  651SOL    HW1 1952   0.965   1.588   1.664  1.9810  0.5822  0.6505
  651SOL    HW2 1953   1.007   1.490   1.533  1.1823 -0.9341  0.1298
  652SOL     OW 1954   2.324   2.386   2.419  0.3293 -0.6169 -0.4682
  652SOL    HW1 1955   2.247   2.444   2.453  0.4022 -1.1965 -1.7197
  652SOL    HW2 1956   2.365   2.422   2.333  1.8552 -0.0354  1.2496
  653SOL     OW 1957   2.660   1.249   0.221 -0.2029 -0.5746 -0.1764
  653SOL    HW1 1958   2.712   1.333   0.259 -1.7539  0.1424 -1.4303
  653SOL    HW2 1959   2.726   1.169   0.209 -2.1937 -0.7910  0.1752
  654SOL     OW 1960   1.275   2.229   1.305 -0.0678  0.2700 -0.0850
  654SOL    HW1 1961   1.279   2.129   1.340 -1.3659 -0.5205  0.9146
  654SOL    HW2 1962   1.294   2.226   1.202  1.0872 -1.1168  1.5779
  655SOL     OW 1963   0.176   0.930   1.862 -1.0782  0.1516 -0.1108
  655SOL    HW1 1964   0.243   0.876   1.800 -0.1563 -1.1989 -1.7439
  655SOL    HW2 1965   0.197   1.033   1.864 -2.4975 -0.4232 -0.5472
  656SOL     OW 1966   2.549   2.451   2.620 -0.3954 -0.5379  0.2051
  656SOL    HW1 1967   2.643   2.428   2.584  0.2591  1.2066 -0.6338
  656SOL    HW2 1968   2.469   2.412   2.562 -2.1372 -0.1778 -1.2683
  657SOL     OW 1969   3.004   0.988   1.886  0.3788 -0.4066  0.5517
  657SOL    HW1 1970   2.997   1.088   1.922 -0.3688 -0.1496 -0.5938
  657SOL    HW2 1971   3.098   0.948   1.876 -1.7811  1.7915  0.3726
  658SOL     OW 1972   1.713   0.192   2.373 -0.2208 -0.5343 -0.1368
  658SOL    HW1 1973   1.743   0.126   2.450 -0.1945 -0.7703  1.4535
  658SOL    HW2 1974   1.752   0.167   2.284 -0.8892 -0.6876  2.6323
  659SOL     OW 1975   1.400   0.615   2.833 -0.4798  0.1234 -0.5206
  659SOL    HW1 1976   1.469   0.692   2.816  0.8702  3.9981  2.0604
  659SOL    HW2 1977   1.301   0.650   2.840  0.9927  0.6302 -0.5703
  660SOL     OW 1978   1.371   0.331   1.434 -0.4831 -0.7271  0.4560
  660SOL    HW1 1979   1.379   0.359   1.535  0.4196  2.8877  1.7763
  660SOL    HW2 1980   1.453   0.280   1.387  2.6200 -1.3531 -1.4693
  661SOL     OW 1981   2.348   1.221   0.676 -0.6734 -0.4331  0.6745
  661SOL    HW1 1982   2.359   1.214   0.574 -0.0767  2.3893  4.5009
  661SOL    HW2 1983   2.327   1.321   0.703 -1.3069  0.2239 -0.6168
  662SOL     OW 1984   1.377   0.402   1.741 -0.1504 -0.0680 -0.3515
  662SOL    HW1 1985   1.341   0.383   1.839  0.2195 -2.1865  0.4829
  662SOL    HW2 1986   1.431   0.490   1.738 -0.6531  1.8714  0.3164
  663SOL     OW 1987   0.875   1.589   2.150  0.1005 -0.0700  0.0306
  663SOL    HW1 1988   0.790   1.609   2.205  3.2515 -0.8475 -1.7950
  663SOL    HW2 1989   0.845   1.531   2.073  0.3225 -1.3817 -1.0378
  664SOL     OW 1990   1.649   2.066   1.397 -0.2855 -0.0217  0.0437
  664SOL    HW1 1991   1.606   2.006   1.467 -0.5393  0.3204 -1.9630
  664SOL    HW2 1992   1.754   2.051   1.387  1.4703  1.8275  1.5471
  665SOL     OW 1993   2.305   0.702   1.984 -0.8798  0.1267 -0.0402
  665SOL    HW1 1994   2.221   0.646   1.999 -1.4217  3.2122 -1.0236
  665SOL    HW2 1995   2.373   0.694   2.066  1.6870 -1.4720  0.4864
  666SOL     OW 1996   0.499   2.300   0.340 -0.0836  0.5743 -0.8824
  666SOL    HW1 1997   0.547   2.373   0.395 -1.4602  2.5952 -0.7935
  666SOL    HW2 1998   0.397   2.280   0.366 -1.3290  0.8548  0.5488
  667SOL     OW 1999   1.983   0.213   1.070  0.4326 -0.1714  0.5867
  667SOL    HW1 2000   1.987   0.317   1.095  0.6639  0.4153  1.6477
  667SOL    HW2 2001   1.929   0.162   1.143  1.6854 -0.9382  0.2136
  668SOL     OW 2002   2.027   0.480   1.134  0.4728 -0.2310  0.3021
  668SOL    HW1 2003   2.110   0.510   1.067  2.4534 -1.1217  0.4292
  668SOL    HW2 2004   2.044   0.523   1.226  1.6447 -1.8568 -1.0887
  669SOL     OW 2005   3.077   2.162   1.012  0.1289 -0.3810 -0.1333
  669SOL    HW1 2006   3.038   2.230   0.946  1.5571 -0.8720  0.4052
  669SOL    HW2 2007   3.075   2.196   1.114  1.2352 -0.9259 -1.7567
  670SOL     OW 2008   2.899   2.315   2.093 -0.1508 -0.2508 -0.0456
  670SOL    HW1 2009   2.824   2.286   2.155  2.6816  2.7419 -1.7079
  670SOL    HW2 2010   2.891   2.416   2.073 -1.1237  0.1410  0.0136
  671SOL     OW 2011   1.781   1.816   1.461 -0.7043 -0.0141 -0.5616
  671SOL    HW1 2012   1.790   1.815   1.356  0.2588  0.7535  0.1676
  671SOL    HW2 2013   1.682   1.831   1.485  0.4438 -0.0681  0.4699
  672SOL     OW 2014   0.446   0.635   2.396 -0.5458 -0.2020 -0.2953
  672SOL    HW1 2015   0.521   0.668   2.332  0.7406  2.1382 -0.3530
  672SOL    HW2 2016   0.367   0.698   2.406  1.2764 -1.1591 -0.8158
  673SOL     OW 2017   0.159   1.170   1.152  0.1247  0.5923  0.2157
  673SOL    HW1 2018   0.168   1.234   1.230 -2.2543  0.1318  0.4396
  673SOL    HW2 2019   0.250   1.136   1.112  0.2654  1.6069  2.1766
  674SOL     OW 2020   1.648   2.989   0.315  0.4106 -0.0165 -0.0543
  674SOL    HW1 2021   1.624   3.088   0.320  0.3470  2.4261  1.7608
  674SOL    HW2 2022   1.749   2.968   0.326  0.1380 -1.7377  1.4181
  675SOL     OW 2023   1.737   0.810   2.251  0.1649 -0.1137  0.0152
  675SOL    HW1 2024   1.834   0.783   2.274  0.0294  0.8053  1.1227
  675SOL    HW2 2025   1.675   0.731   2.214 -1.4438 -1.3276 -0.4031
  676SOL     OW 2026   2.536   1.483   1.931  0.2496 -0.0725  0.1421
  676SOL    HW1 2027   2.473   1.461   1.846  0.0656  1.0030  0.2279
  676SOL    HW2 2028   2.556   1.408   1.995 -2.9164 -0.3794 -1.2580
  677SOL     OW 2029   1.925   0.725   0.926 -0.0002  0.1971  0.0995
  677SOL    HW1 2030   1.823   0.702   0.947 -0.5610 -4.8436  0.2400
  677SOL    HW2 2031   1.987   0.641   0.954  0.5208 -0.2691 -0.0757
  678SOL     OW 2032   0.060   0.751   1.601  0.1279 -0.0385  0.1820
  678SOL    HW1 2033   0.165   0.751   1.601 -0.5672  4.7556  0.4767
  678SOL    HW2 2034   0.022   0.714   1.689  1.2704 -1.3799 -0.0773
  679SOL     OW 2035   2.537   1.180   1.213 -0.6453  0.3207  0.0568
  679SOL    HW1 2036   2.450   1.227   1.195 -0.1369 -0.0127 -0.4328
  679SOL    HW2 2037   2.532   1.078   1.192 -2.8607 -1.5123 -0.9939
  680SOL     OW 2038   2.832   0.451   1.686 -0.1411  0.4039  0.7186
  680SOL    HW1 2039   2.812   0.519   1.605 -0.0273  1.1047 -0.8621
  680SOL    HW2 2040   2.923   0.460   1.736 -2.6870 -0.5809  0.2837
  681SOL     OW 2041   2.965   0.104   1.600  0.4868  0.3166  0.1943
  681SOL    HW1 2042   3.024   0.083   1.516  1.0680  0.2296  1.1132
  681SOL    HW2 2043   2.870   0.156   1.579 -2.0454 -0.3087 -1.3233
  682SOL     OW 2044   0.733   0.035   1.329 -0.0110 -0.0092  0.1428
  682SOL    HW1 2045   0.667  -0.034   1.373  0.4530 -0.5455  1.6766
  682SOL    HW2 2046   0.761   0.014   1.226 -1.0162  1.9226 -2.9174
  683SOL     OW 2047   1.388   0.201   2.170 -0.3430 -0.0176 -0.1397
  683SOL    HW1 2048   1.402   0.251   2.265  1.7796 -0.9344  2.2610
  683SOL    HW2 2049   1.458   0.245   2.101 -0.4380 -0.0032 -1.5515
  684SOL     OW 2050   1.442   2.057   0.474 -0.0674 -0.2501 -0.3022
  684SOL    HW1 2051   1.487   2.006   0.556  3.1855  0.5637 -0.5598
  684SOL    HW2 2052   1.353   2.008   0.452  2.0195  0.7241 -1.9688
  685SOL     OW 2053   2.204   2.108   1.957 -0.0146  0.1252 -0.5274
  685SOL    HW1 2054   2.282   2.083   1.897 -1.5347  1.8705 -0.3915
  685SOL    HW2 2055   2.218   2.080   2.060  0.4389  2.3298 -1.1661
  686SOL     OW 2056   1.501   1.846   2.788 -0.6314 -0.0904 -0.6689
  686SOL    HW1 2057   1.540   1.794   2.868  0.3351  1.4516 -0.5658
  686SOL    HW2 2058   1.398   1.847   2.798  1.3237  1.8036  2.4574
  687SOL     OW 2059   1.351   2.449   1.974  0.1277  0.2719 -0.3669
  687SOL    HW1 2060   1.340   2.346   1.967  1.7589  1.0283  1.9358
  687SOL    HW2 2061   1.376   2.483   2.070 -0.1628  1.7590  0.8817
  688SOL     OW 2062   2.006   1.532   1.755  0.2483 -0.2243  0.3377
  688SOL    HW1 2063   2.104   1.566   1.772 -0.5731 -0.8357  1.5537
  688SOL    HW2 2064   2.004   1.497   1.653  1.0184 -0.8744 -1.3976
  689SOL     OW 2065   2.377   1.077   2.774  0.1456 -0.5048  0.5884
  689SOL    HW1 2066   2.294   1.022   2.807  1.2210 -0.9786  1.8921
  689SOL    HW2 2067   2.472   1.054   2.809  1.0210  0.1709 -0.8002
  690SOL     OW 2068   2.221   2.804   0.050  0.2567  0.1303  0.6411
  690SOL    HW1 2069   2.164   2.753  -0.022 -0.8634  1.8760 -3.7332
  690SOL    HW2 2070   2.165   2.842   0.137 -1.9305 -0.8139  3.3179
  691SOL     OW 2071   2.609   0.409   2.119  0.4874  0.0202 -0.2125
  691SOL    HW1 2072   2.667   0.322   2.108  1.6258 -3.8243 -0.0108
  691SOL    HW2 2073   2.647   0.491   2.065  1.1409 -0.3942 -2.4126
  692SOL     OW 2074   2.681   1.215   0.743  0.2710 -0.0719 -0.6946
  692SOL    HW1 2075   2.603   1.253   0.694  1.9770  3.0649  3.0792
  692SOL    HW2 2076   2.753   1.289   0.764 -0.5230 -0.4496  2.3174
  693SOL     OW 2077   2.817   2.946   0.623 -0.3649 -0.2930  0.4176
  693SOL    HW1 2078   2.811   3.020   0.695  0.7342 -0.9896  1.8741
  693SOL    HW2 2079   2.797   2.990   0.530  1.9692 -1.8388  0.3878
  694SOL     OW 2080   2.387   2.249   0.089  0.1841  0.0836 -0.4251
  694SOL    HW1 2081   2.360   2.347   0.107  1.5493 -0.5693  4.3634
  694SOL    HW2 2082   2.307   2.187   0.084 -1.4477 -0.5748  0.3473
  695SOL     OW 2083   0.555   3.008   1.489  0.8064  0.4163  0.2646
  695SOL    HW1 2084   0.470   2.950   1.471 -0.6702  0.7154  1.0724
  695SOL    HW2 2085   0.551   3.062   1.577  0.7026  1.7300 -1.0288
  696SOL     OW 2086   2.821   2.075   0.767 -0.6503  0.1965  0.0628
  696SOL    HW1 2087   2.880   1.989   0.778  1.7128  0.7331 -0.0536
  696SOL    HW2 2088   2.786   2.083   0.672 -1.6152  1.9255  0.2114
  697SOL     OW 2089   1.627   1.982   1.833 -0.8028  0.8335 -0.2020
  697SOL    HW1 2090   1.684   1.899   1.813  0.1504 -0.2708 -0.6773
  697SOL    HW2 2091   1.687   2.071   1.833  2.9625  0.7979 -0.4815
  698SOL     OW 2092   2.902   0.394   2.743  0.1035  0.1834  0.3064
  698SOL    HW1 2093   2.940   0.386   2.650 -2.0239 -1.1810  1.7997
  698SOL    HW2 2094   2.943   0.323   2.804  2.5399 -0.7028 -1.1479
  699SOL     OW 2095   1.543   0.061   2.923  0.4400  0.0075 -0.4549
  699SOL    HW1 2096   1.506  -0.032   2.895  0.7751  1.9055 -1.0843
  699SOL    HW2 2097   1.588   0.117   2.847  1.1131  1.3067  0.4762
  700SOL     OW 2098   1.013   2.349   1.382 -0.5010  0.1864 -0.6436
  700SOL    HW1 2099   1.089   2.277   1.373 -1.4839  1.2218  3.7755
  700SOL    HW2 2100   0.924   2.322   1.339 -1.7533 -0.2679  0.6295
  701SOL     OW 2101   1.920   2.900   3.060 -0.1314  0.2481 -0.2448
  701SOL    HW1 2102   1.926   2.858   3.152 -3.3497  2.2383  0.6536
  701SOL    HW2 2103   1.941   3.001   3.065  0.4608  0.4158  0.1153
  702SOL     OW 2104   2.085   1.335   1.958  0.3846  0.2857  0.2232
  702SOL    HW1 2105   2.168   1.280   1.935  0.8995  1.5487 -0.8196
  702SOL    HW2 2106   2.058   1.397   1.879 -1.4338 -1.9122 -3.3740
  703SOL     OW 2107   1.918   0.923   1.448  0.1280  0.2130 -0.0101
  703SOL    HW1 2108   1.899   0.830   1.486 -0.3189 -0.5354 -0.5799
  703SOL    HW2 2109   1.976   0.972   1.516  1.1249 -2.2278  0.1950
  704SOL     OW 2110   0.298   2.018   1.734  0.5602 -0.2689 -0.4253
  704SOL    HW1 2111   0.355   1.966   1.802 -0.9691  0.9706  0.8539
  704SOL    HW2 2112   0.350   2.091   1.679 -0.4425 -1.1499 -0.0154
  705SOL     OW 2113   2.545   1.546   0.871 -0.5584 -0.2429 -0.3191
  705SOL    HW1 2114   2.475   1.491   0.819 -0.4414  0.6158  0.8962
  705SOL    HW2 2115   2.641   1.516   0.852  1.5929  1.1422 -1.7487
  706SOL     OW 2116   0.686   1.712   1.891  0.2060 -0.2700 -0.0751
  706SOL    HW1 2117   0.723   1.619   1.895  0.5416  2.1501 -1.0034
  706SOL    HW2 2118   0.737   1.776   1.956 -0.7366  0.3766  1.7173
  707SOL     OW 2119   2.299   1.171   1.871 -0.7390  0.0363  0.3688
  707SOL    HW1 2120   2.379   1.158   1.934  1.1893 -2.3743 -4.2949
  707SOL    HW2 2121   2.267   1.082   1.829 -0.4750 -0.2588 -0.4426
  708SOL     OW 2122   2.990   0.521   3.042  0.5610  0.3463  0.0733
  708SOL    HW1 2123   2.974   0.556   2.949 -1.0666  0.8513  2.0611
  708SOL    HW2 2124   3.008   0.421   3.039  1.7235  0.0557  0.9639
  709SOL     OW 2125   1.835   1.878   0.302  0.4422 -0.0962 -0.7507
  709SOL    HW1 2126   1.886   1.966   0.327 -1.8767 -2.1864 -2.6475
  709SOL    HW2 2127   1.809   1.876   0.202 -0.5562 -1.2252  1.0565
  710SOL     OW 2128   1.687   1.619   2.381 -0.3289  0.0137 -0.2685
  710SOL    HW1 2129   1.741   1.585   2.300  1.1373 -1.6114  2.3240
  710SOL    HW2 2130   1.727   1.595   2.474  2.8034  0.5347  0.2871
  711SOL     OW 2131   2.591   2.939   1.096  0.9223  0.3396 -0.4420
  711SOL    HW1 2132   2.568   3.037   1.083  0.5489 -0.1437 -1.7935
  711SOL    HW2 2133   2.688   2.925   1.069 -0.2197 -1.2685 -0.6383
  712SOL     OW 2134   1.386   2.181   1.975 -0.6287  0.4592  0.1761
  712SOL    HW1 2135   1.486   2.213   1.963  2.1276 -0.8374  1.6560
  712SOL    HW2 2136   1.344   2.155   1.881  0.1347 -2.2883 -0.9353
  713SOL     OW 2137   2.790   1.482   2.505  0.3861  0.0356  0.2298
  713SOL    HW1 2138   2.807   1.387   2.472  0.0194 -1.0041  1.0302
  713SOL    HW2 2139   2.711   1.485   2.574  0.5896 -2.7812  0.6641
  714SOL     OW 2140   2.662   0.449   2.416  0.4990 -0.1485 -0.1814
  714SOL    HW1 2141   2.584   0.426   2.486 -3.7943 -0.9887 -1.1558
  714SOL    HW2 2142   2.634   0.434   2.314 -0.1014  0.6637 -1.6593
  715SOL     OW 2143   1.544   2.035   1.122  0.3791 -0.5339 -0.5566
  715SOL    HW1 2144   1.463   2.096   1.095 -1.7919  1.0157 -0.2973
  715SOL    HW2 2145   1.572   2.045   1.220  0.2848 -2.6628 -3.1005
  716SOL     OW 2146   1.187   0.135   1.524  0.2790  0.8911 -0.0755
  716SOL    HW1 2147   1.084   0.142   1.487  2.3939 -0.1450  1.0185
  716SOL    HW2 2148   1.241   0.212   1.487 -0.7634 -1.6698  0.5121
  717SOL     OW 2149   1.184   0.561   1.561  0.0885  0.5246 -0.5545
  717SOL    HW1 2150   1.274   0.616   1.568 -0.1328  0.7897 -3.0211
  717SOL    HW2 2151   1.173   0.537   1.462  0.0667 -1.9683  2.0551
  718SOL     OW 2152   0.692   0.859   0.996  0.5020 -0.0045  0.1639
  718SOL    HW1 2153   0.663   0.841   0.900 -0.9165  0.9780  2.3605
  718SOL    HW2 2154   0.711   0.962   1.008  2.0022 -0.2328  0.1122
  719SOL     OW 2155   0.689   1.690   2.306 -0.1197 -0.0066  0.5639
  719SOL    HW1 2156   0.736   1.757   2.373  0.5232  0.9852 -0.8786
  719SOL    HW2 2157   0.646   1.606   2.357 -4.8171 -3.1288  2.8660
  720SOL     OW 2158   2.183   1.108   0.266 -0.2022 -0.1628  0.1567
  720SOL    HW1 2159   2.253   1.049   0.213  1.6631 -0.1598  1.5473
  720SOL    HW2 2160   2.163   1.068   0.364 -1.6652 -0.6725 -1.9121
  721SOL     OW 2161   2.278   3.021   2.068  0.5112 -0.0808 -0.0579
  721SOL    HW1 2162   2.235   3.072   1.986  2.6732  1.4141 -0.5751
  721SOL    HW2 2163   2.206   3.003   2.143 -2.1433 -1.1078  1.7020
  722SOL     OW 2164   2.281   1.600   0.475 -0.3312  0.0579  0.4959
  722SOL    HW1 2165   2.333   1.574   0.390 -0.3871 -1.2225 -0.9589
  722SOL    HW2 2166   2.199   1.658   0.455 -2.0284  1.0737  2.8398
  723SOL     OW 2167   2.641   2.683   1.887  0.0166  0.4344  0.1135
  723SOL    HW1 2168   2.658   2.781   1.921  0.1477  1.3893  3.6856
  723SOL    HW2 2169   2.543   2.647   1.903 -0.7699 -0.3672 -0.3373
  724SOL     OW 2170   0.495   2.519   2.406 -0.4642 -0.0230 -0.1144
  724SOL    HW1 2171   0.403   2.531   2.451 -1.2738  1.2466  0.2976
  724SOL    HW2 2172   0.570   2.496   2.478  0.4176 -3.3108 -1.7211
  725SOL     OW 2173   2.352   2.727   1.488 -0.5195  0.2233  0.0547
  725SOL    HW1 2174   2.404   2.800   1.431 -0.3050  1.8076 -4.3764
  725SOL    HW2 2175   2.398   2.629   1.487  1.5742 -2.4891  0.2505
  726SOL     OW 2176   2.508   2.316   0.738  0.1515  0.2931  0.0116
  726SOL    HW1 2177   2.490   2.408   0.703  0.0892  0.2079 -0.0546
  726SOL    HW2 2178   2.506   2.242   0.660  2.0377  0.9882 -0.8746
  727SOL     OW 2179   0.184   3.047   0.085 -0.2351 -0.1760 -0.4603
  727SOL    HW1 2180   0.262   3.041   0.018  2.0758 -1.4022 -0.4486
  727SOL    HW2 2181   0.101   3.100   0.048  0.9632  0.5692  0.1728
  728SOL     OW 2182   2.874   0.677   0.912  0.3204 -0.4658  0.1080
  728SOL    HW1 2183   2.799   0.661   0.842 -0.8604 -0.9628  0.7597
  728SOL    HW2 2184   2.831   0.670   1.007  0.2395  0.8542 -0.4703
  729SOL     OW 2185   0.004   2.531   0.714 -0.5366 -0.0779  0.1047
  729SOL    HW1 2186  -0.036   2.440   0.741 -2.1470 -3.2499 -0.8277
  729SOL    HW2 2187   0.092   2.528   0.666 -2.6863 -0.5143  0.8678
  730SOL     OW 2188   2.594   0.693   0.847  0.6307 -0.2257  0.7166
  730SOL    HW1 2189   2.592   0.797   0.856  0.8919 -1.3623 -1.0191
  730SOL    HW2 2190   2.628   0.660   0.757 -0.6883 -0.3692  1.1884
  731SOL     OW 2191   0.027   2.158   2.421  0.0507 -0.6725 -0.3711
  731SOL    HW1 2192   0.038   2.196   2.515 -1.1771  1.5131 -1.0736
  731SOL    HW2 2193  -0.065   2.185   2.382 -0.7508 -1.3615  0.5179
  732SOL     OW 2194   1.209   2.841   1.977  0.2884  0.0445 -0.1573
  732SOL    HW1 2195   1.212   2.803   2.074  3.4450 -1.7393  0.9638
  732SOL    HW2 2196   1.193   2.772   1.901  0.1974 -1.6522 -0.8918
  733SOL     OW 2197   3.014   0.623   2.229 -0.2786  0.0618 -0.0881
  733SOL    HW1 2198   3.102   0.626   2.180 -0.1752 -3.2875  2.2993
  733SOL    HW2 2199   2.951   0.542   2.199 -1.9825 -2.5003 -0.2473
  734SOL     OW 2200   1.404   0.374   2.691 -0.5390  0.0210  0.5075
  734SOL    HW1 2201   1.402   0.463   2.744  0.4073 -1.4811 -0.6084
  734SOL    HW2 2202   1.335   0.307   2.731  0.9017  2.0667  3.1137
  735SOL     OW 2203   2.892   2.619   2.294  0.4960  0.4628  0.1946
  735SOL    HW1 2204   2.868   2.588   2.202 -2.3762 -3.8739  1.6701
  735SOL    HW2 2205   2.980   2.668   2.300 -1.1677  1.2761 -2.0737
  736SOL     OW 2206   0.926   0.407   2.557 -0.3367 -1.0500  0.6017
  736SOL    HW1 2207   0.831   0.403   2.598  1.1062  1.3379 -1.2873
  736SOL    HW2 2208   0.934   0.336   2.480  2.2337  2.9678 -2.5656
  737SOL     OW 2209   2.639   0.452   2.807  0.5658 -0.5334 -0.5145
  737SOL    HW1 2210   2.614   0.395   2.892 -1.4337  0.8944 -2.7728
  737SOL    HW2 2211   2.741   0.457   2.788  1.6138  0.5048 -0.5727
  738SOL     OW 2212   1.708   1.248   2.893 -0.2903 -0.0984 -0.4241
  738SOL    HW1 2213   1.813   1.232   2.876  1.3623 -0.4234  1.2562
  738SOL    HW2 2214   1.652   1.183   2.835 -1.8777 -1.7543  1.5840
  739SOL     OW 2215   1.766   0.718   0.671  0.4381  0.1752 -0.1616
  739SOL    HW1 2216   1.813   0.729   0.759 -2.8172 -0.2987 -0.9303
  739SOL    HW2 2217   1.760   0.621   0.637 -1.6699  1.6461 -1.0011
  740SOL     OW 2218   1.967   1.908   2.376  0.3110  0.9084  0.1001
  740SOL    HW1 2219   2.002   1.819   2.416  0.4472 -1.1549 -1.2895
  740SOL    HW2 2220   1.905   1.888   2.294  5.1720 -2.6977  2.0072
  741SOL     OW 2221   2.585   0.140   2.522  0.2446  0.5551 -0.2108
  741SOL    HW1 2222   2.689   0.122   2.524 -1.9787 -0.2560 -0.2495
  741SOL    HW2 2223   2.552   0.141   2.425  1.2243 -0.5306 -0.8377
  742SOL     OW 2224   2.196   1.384   0.167 -0.5910  0.1441  0.0867
  742SOL    HW1 2225   2.116   1.444   0.160  0.0400  1.1756 -0.3984
  742SOL    HW2 2226   2.189   1.289   0.203  2.2897 -0.2012  0.0404
  743SOL     OW 2227   1.758   0.602   2.621  0.2863 -0.7577 -0.2832
  743SOL    HW1 2228   1.747   0.542   2.534  1.8214  4.0956  0.6740
  743SOL    HW2 2229   1.705   0.695   2.600 -0.7141  2.5481 -3.8189
  744SOL     OW 2230   2.691   2.008   0.074 -0.7933  0.1742  0.6769
  744SOL    HW1 2231   2.598   2.047   0.076  1.8199 -1.0140 -1.4655
  744SOL    HW2 2232   2.705   1.927   0.140 -0.5932  0.7316 -2.2904
  745SOL     OW 2233   2.171   2.640   2.150 -0.1759 -0.5139  0.0217
  745SOL    HW1 2234   2.071   2.646   2.169  0.3846  1.1974  3.9632
  745SOL    HW2 2235   2.228   2.678   2.228 -1.0450 -0.6801  1.5439
  746SOL     OW 2236  -0.003   2.655   1.725  0.0821  0.2393  0.1536
  746SOL    HW1 2237   0.078   2.589   1.708 -1.5471  0.9217 -1.0393
  746SOL    HW2 2238   0.007   2.701   1.817 -2.8696 -2.3172 -0.6707
  747SOL     OW 2239   3.067   1.757   1.690 -0.3807 -0.1968  0.6608
  747SOL    HW1 2240   3.009   1.673   1.665 -1.6381  1.8930  2.1946
  747SOL    HW2 2241   3.148   1.767   1.623  2.7429  0.5540 -0.9722
  748SOL     OW 2242   1.814   2.723   2.911 -0.2688  0.1844 -0.2269
  748SOL    HW1 2243   1.850   2.792   2.978  0.2460  0.0257 -2.0764
  748SOL    HW2 2244   1.709   2.726   2.900 -0.2242 -3.5618  0.6674
  749SOL     OW 2245   1.333   3.007   0.852 -0.0404 -0.0382  0.4613
  749SOL    HW1 2246   1.240   2.958   0.850  3.7826  0.7755 -1.1745
  749SOL    HW2 2247   1.402   2.968   0.780  1.8418  0.8790 -4.1453
  750SOL     OW 2248   2.308   0.213   1.850  0.3697  0.3029 -0.6059
  750SOL    HW1 2249   2.351   0.272   1.779 -2.4772  0.2039  0.7939
  750SOL    HW2 2250   2.297   0.268   1.937  1.1820  1.4151  0.1750
  751SOL     OW 2251   0.810   2.023   2.847  0.2672 -0.4438 -0.1293
  751SOL    HW1 2252   0.897   2.054   2.902  2.1963 -2.2692 -0.3404
  751SOL    HW2 2253   0.724   2.067   2.894  1.4913  2.0223  1.3132
  752SOL     OW 2254   1.309   0.828   1.266  0.2620 -0.7029  0.0449
  752SOL    HW1 2255   1.388   0.895   1.254  2.3943 -0.6468  0.3649
  752SOL    HW2 2256   1.333   0.743   1.322 -1.2732 -1.6491 -0.0253
  753SOL     OW 2257   0.941   2.637   1.804 -0.0704 -0.3063 -0.5123
  753SOL    HW1 2258   1.038   2.679   1.798  1.9690  0.8379  0.1167
  753SOL    HW2 2259   0.866   2.706   1.818  2.1622 -0.1590  1.3008
  754SOL     OW 2260   1.156   1.173   3.020  0.3210 -0.4669 -0.5563
  754SOL    HW1 2261   1.211   1.116   2.956 -3.3521  2.1384  1.0035
  754SOL    HW2 2262   1.197   1.265   3.041  0.4672 -1.5907 -0.1170
  755SOL     OW 2263   2.016   0.495   2.244 -0.2879  0.2206 -0.0825
  755SOL    HW1 2264   2.077   0.413   2.260  0.0976 -1.0785 -5.2621
  755SOL    HW2 2265   1.930   0.488   2.303  3.6060  0.1947  0.1506
  756SOL     OW 2266   2.588   0.991   2.969 -0.0431 -0.5121  0.1047
  756SOL    HW1 2267   2.685   0.969   3.002  0.2045  1.2879  4.6394
  756SOL    HW2 2268   2.521   0.917   3.009 -1.7687 -1.6338 -0.8931
  757SOL     OW 2269   0.082   0.460   2.010 -0.2914 -0.4716 -0.2585
  757SOL    HW1 2270   0.154   0.397   1.961 -1.3636  3.4169 -1.2095
  757SOL    HW2 2271  -0.013   0.425   2.012  1.5342  0.8309 -1.6790
  758SOL     OW 2272   2.256   0.116   1.465  0.4149  0.4613 -0.2305
  758SOL    HW1 2273   2.223   0.020   1.475  1.6845  1.8671  0.2673
  758SOL    HW2 2274   2.317   0.135   1.383 -0.5783  0.8853 -0.3234
  759SOL     OW 2275   1.672   0.125   0.062 -0.3848 -0.1772 -0.2419
  759SOL    HW1 2276   1.641   0.099  -0.031 -0.3316  0.6654 -0.3733
  759SOL    HW2 2277   1.779   0.124   0.074  0.5893 -2.2098 -1.7836
  760SOL     OW 2278   2.615   2.033   2.838  0.3861  0.2371 -0.4862
  760SOL    HW1 2279   2.630   1.936   2.880 -1.1790 -0.8965  1.0422
  760SOL    HW2 2280   2.588   2.105   2.906  0.4143  0.4907 -0.3247
  761SOL     OW 2281   1.850   1.779   1.716  0.0066 -0.1098 -0.0449
  761SOL    HW1 2282   1.853   1.677   1.736 -0.9435 -3.1008  0.0456
  761SOL    HW2 2283   1.809   1.794   1.622  0.2387  0.8384 -1.0241
  762SOL     OW 2284   0.498   2.362   0.969  0.0979 -0.1450  0.1921
  762SOL    HW1 2285   0.534   2.374   0.871 -1.9282 -1.5989 -2.3166
  762SOL    HW2 2286   0.562   2.408   1.036  0.3151 -1.2501 -3.3331
  763SOL     OW 2287   2.081   1.595   2.995 -0.2822  0.5813 -0.4504
  763SOL    HW1 2288   2.166   1.550   2.967  0.2075 -0.1094 -0.9224
  763SOL    HW2 2289   2.027   1.545   3.070  0.5439 -2.2243  0.1401
  764SOL     OW 2290   0.688   0.562   0.749 -0.2678 -0.0108  0.1442
  764SOL    HW1 2291   0.612   0.494   0.752  0.6621 -0.3282 -0.4878
  764SOL    HW2 2292   0.775   0.535   0.805  3.5863 -1.2539 -0.2055
  765SOL     OW 2293   0.759   0.240   0.776 -0.3886 -0.4434 -0.5570
  765SOL    HW1 2294   0.799   0.311   0.712 -2.4603 -1.2218  3.2854
  765SOL    HW2 2295   0.741   0.277   0.874  0.1374  0.5544  3.0455
  766SOL     OW 2296   2.863   2.136   2.995  0.0995 -0.6423  0.0626
  766SOL    HW1 2297   2.786   2.086   3.039 -0.3106 -0.3209  0.5484
  766SOL    HW2 2298   2.919   2.202   3.054  0.7929 -1.7184  1.7932
  767SOL     OW 2299   2.785   1.682   0.589  0.4934 -0.0391  0.0387
  767SOL    HW1 2300   2.680   1.693   0.586 -3.4848  1.8125 -0.2427
  767SOL    HW2 2301   2.829   1.753   0.651 -0.8137 -0.2566  1.7343
  768SOL     OW 2302   1.022   0.075   0.219 -0.9901  0.2054 -0.4631
  768SOL    HW1 2303   0.995   0.085   0.318  2.0131 -3.4673  0.3248
  768SOL    HW2 2304   1.130   0.067   0.210  0.5045 -1.3712  0.5042
  769SOL     OW 2305   1.115   1.875   2.332  0.5433 -0.0894 -0.3532
  769SOL    HW1 2306   1.032   1.928   2.369  0.2520  0.8374 -0.2782
  769SOL    HW2 2307   1.169   1.834   2.409 -0.3709  2.4440  1.3112
  770SOL     OW 2308   0.175   1.181   2.304  0.4538  0.5167 -0.0379
  770SOL    HW1 2309   0.162   1.228   2.398  0.9118  0.7440  1.1957
  770SOL    HW2 2310   0.083   1.173   2.257  1.5072  1.9545  2.0717
  771SOL     OW 2311   3.055   2.834   1.925 -0.1034 -0.0873 -0.2848
  771SOL    HW1 2312   2.998   2.862   1.844 -0.4479  0.4516 -1.6074
  771SOL    HW2 2313   3.008   2.867   2.010 -0.4929  1.3085 -2.2962
  772SOL     OW 2314   2.240   0.152   2.900  0.1454 -0.5404  0.9385
  772SOL    HW1 2315   2.302   0.117   2.828  0.9677  1.7610  0.8135
  772SOL    HW2 2316   2.286   0.203   2.977 -2.9061  0.5738  0.0720
  773SOL     OW 2317   0.659   2.114   2.402  0.1975  0.2078  0.3118
  773SOL    HW1 2318   0.616   2.193   2.353 -1.8734 -1.1436  2.1496
  773SOL    HW2 2319   0.595   2.061   2.456 -0.1549  1.8031 -2.5090
  774SOL     OW 2320   2.061   3.096   2.601 -0.3309  0.6884  0.2773
  774SOL    HW1 2321   2.050   3.191   2.643 -3.1730  2.0919  0.3724
  774SOL    HW2 2322   2.092   3.024   2.674  0.4274  1.8302 -2.3504
  775SOL     OW 2323   2.575   2.962   2.294  0.3439 -0.4915  0.5817
  775SOL    HW1 2324   2.542   3.057   2.296  1.6603 -2.7935  1.7738
  775SOL    HW2 2325   2.654   2.944   2.361  1.3272  0.5176 -1.1546
  776SOL     OW 2326   0.011   1.244   0.198 -0.4601  0.5909  0.6475
  776SOL    HW1 2327  -0.059   1.226   0.121  0.2614  0.2190 -1.6342
  776SOL    HW2 2328  -0.038   1.262   0.286 -0.3827 -1.9205 -0.9892
  777SOL     OW 2329   0.376   2.881   0.338  0.0592 -0.5083 -0.2343
  777SOL    HW1 2330   0.269   2.893   0.332 -1.3938  0.2636 -1.9284
  777SOL    HW2 2331   0.432   2.924   0.261 -0.0614  2.3962 -2.0217
  778SOL     OW 2332   1.350   1.975   0.168  0.2225  0.2383 -0.0077
  778SOL    HW1 2333   1.297   2.000   0.253 -0.4423 -0.9139  0.7062
  778SOL    HW2 2334   1.396   2.057   0.121  1.2306 -2.5811  1.2053
  779SOL     OW 2335   0.201   0.895   0.502  0.4316 -0.2740  0.4266
  779SOL    HW1 2336   0.165   0.804   0.474  0.1234 -0.8391  3.1789
  779SOL    HW2 2337   0.144   0.942   0.579  0.5008 -1.9688  0.4290
  780SOL     OW 2338   0.098   0.299   2.413  0.0225 -0.4647 -0.4575
  780SOL    HW1 2339   0.043   0.378   2.457  0.9549 -0.7316 -0.1265
  780SOL    HW2 2340   0.199   0.319   2.410 -0.2190 -2.0317  0.3307
  781SOL     OW 2341   0.645   1.644   1.536 -0.3666  0.0688 -0.1614
  781SOL    HW1 2342   0.721   1.584   1.572  2.0305  0.2857 -0.9166
  781SOL    HW2 2343   0.554   1.598   1.528  0.4879 -0.3977  1.9581
  782SOL     OW 2344   2.596   0.129   0.917 -0.3410 -0.5474  0.5497
  782SOL    HW1 2345   2.558   0.132   0.821 -1.2528  2.8902 -1.3367
  782SOL    HW2 2346   2.587   0.212   0.977 -1.0390 -1.3238 -2.0963
  783SOL     OW 2347   2.790   0.688   2.472  0.0883  0.4859  0.6858
  783SOL    HW1 2348   2.786   0.733   2.564 -0.8565  0.0006 -2.2296
  783SOL    HW2 2349   2.756   0.594   2.470 -1.7069  5.4382 -0.1905
  784SOL     OW 2350   1.475   2.195   0.025 -0.5783  0.3094  0.2282
  784SOL    HW1 2351   1.493   2.280   0.078  1.2598  3.5850 -0.3700
  784SOL    HW2 2352   1.422   2.214  -0.065  0.9013  0.7372  0.6234
  785SOL     OW 2353   2.098   0.315   0.061  0.7068 -0.3227  0.0671
  785SOL    HW1 2354   2.011   0.319   0.118  0.5300 -0.5704 -2.6508
  785SOL    HW2 2355   2.118   0.400   0.010 -0.0952 -2.9096  2.3145
  786SOL     OW 2356   2.065   2.187   2.287 -0.1428 -0.4576  0.6061
  786SOL    HW1 2357   2.045   2.097   2.333 -2.3091  3.1904 -1.7682
  786SOL    HW2 2358   2.140   2.189   2.220 -0.1345  2.4052 -1.0907
  787SOL     OW 2359   1.343   0.470   0.926 -0.4822 -0.1963  0.7823
  787SOL    HW1 2360   1.279   0.549   0.950  0.6735 -0.3721 -0.6268
  787SOL    HW2 2361   1.400   0.486   0.844  3.0703 -1.9243  1.5341
  788SOL     OW 2362   1.288   0.404   0.088  0.3111  0.0541 -0.0277
  788SOL    HW1 2363   1.205   0.388   0.034  1.4106  1.1663 -3.0454
  788SOL    HW2 2364   1.281   0.486   0.145 -4.3219 -0.4863 -1.1329
  789SOL     OW 2365   2.571   0.058   1.950 -0.0507 -0.6572 -0.0658
  789SOL    HW1 2366   2.491   0.110   1.910 -1.4250  3.8257  1.0876
  789SOL    HW2 2367   2.571  -0.038   1.928  2.6365  2.8963  1.6295
  790SOL     OW 2368   2.611   2.807   0.796  0.3615 -0.2531  0.1943
  790SOL    HW1 2369   2.679   2.831   0.721 -0.1008 -0.8191  0.6974
  790SOL    HW2 2370   2.632   2.855   0.890  1.2724  3.0928  0.8075
  791SOL     OW 2371   1.902   1.201   0.195  0.3498  0.0725 -0.7880
  791SOL    HW1 2372   1.821   1.184   0.259 -2.2385 -0.8022  1.8578
  791SOL    HW2 2373   1.960   1.118   0.170  0.0952 -0.0248  1.4036
  792SOL     OW 2374   0.443   1.781   2.161  0.2075  0.0912  0.8256
  792SOL    HW1 2375   0.537   1.761   2.197 -0.4210 -0.1079  2.2597
  792SOL    HW2 2376   0.374   1.803   2.235  1.1951 -0.2226  0.7965
  793SOL     OW 2377   2.101   1.547   2.146 -0.0957 -0.2297 -0.1605
  793SOL    HW1 2378   2.158   1.614   2.091  0.1780 -0.2720  1.3982
  793SOL    HW2 2379   2.094   1.454   2.105  1.2027  1.7044  0.5422
  794SOL     OW 2380   0.528   1.393   2.349 -0.2857  0.7437 -0.0812
  794SOL    HW1 2381   0.509   1.393   2.248 -0.3482  0.0574  1.9623
  794SOL    HW2 2382   0.482   1.470   2.399  1.1695 -1.1636 -0.3959
  795SOL     OW 2383   2.518   2.263   1.844 -0.0693 -0.3991  0.0312
  795SOL    HW1 2384   2.515   2.221   1.940 -1.3547  0.2274 -0.3256
  795SOL    HW2 2385   2.455   2.209   1.783 -1.1285  0.6178  2.9348
  796SOL     OW 2386   3.096   1.121   2.677  0.1753 -0.1279 -0.0619
  796SOL    HW1 2387   2.996   1.130   2.693  0.3023  2.3961  0.5670
  796SOL    HW2 2388   3.144   1.156   2.761 -0.0813  2.2060  0.2336
  797SOL     OW 2389   0.734   0.654   1.397 -0.0997 -0.5323 -0.3421
  797SOL    HW1 2390   0.816   0.681   1.452 -0.2642 -1.1530 -1.4884
  797SOL    HW2 2391   0.676   0.735   1.373 -0.9216 -1.9119 -0.0337
  798SOL     OW 2392   1.269   0.319   1.149  0.0114 -0.0832  0.0742
  798SOL    HW1 2393   1.328   0.296   1.227  0.0800 -1.2600  1.7920
  798SOL    HW2 2394   1.312   0.386   1.087 -1.3381 -1.8590  3.8583
  799SOL     OW 2395   1.959   2.720   1.056 -0.0386  0.0884 -0.2219
  799SOL    HW1 2396   1.889   2.717   1.135 -0.6424  1.1593  0.4886
  799SOL    HW2 2397   1.912   2.727   0.963  2.1354 -0.0917  2.5040
  800SOL     OW 2398   3.054   0.648   1.820 -0.1748  0.2654  0.3743
  800SOL    HW1 2399   2.966   0.686   1.855  1.0959 -0.7611 -0.9160
  800SOL    HW2 2400   3.112   0.597   1.889 -0.1900  0.4408 -2.9486
  801SOL     OW 2401   1.970   2.237   0.090  0.5126 -0.0832  1.0722
  801SOL    HW1 2402   1.888   2.210   0.034 -0.5696  1.7327  2.6571
  801SOL    HW2 2403   2.053   2.181   0.060 -0.8541 -2.6180  0.8112
  802SOL     OW 2404   0.715   0.829   2.571 -0.0893 -0.1546  0.3205
  802SOL    HW1 2405   0.777   0.802   2.495 -3.0504 -0.4579  0.3542
  802SOL    HW2 2406   0.613   0.846   2.544 -1.5234  1.0748  1.1157
  803SOL     OW 2407   0.951   0.048   0.868 -0.4565 -0.4164 -0.5284
  803SOL    HW1 2408   1.045   0.084   0.867 -0.2899 -3.3427  1.0813
  803SOL    HW2 2409   0.884   0.112   0.826  0.8837 -1.8153  1.7665
  804SOL     OW 2410   0.281   0.031   2.137 -0.1456  0.3023  0.1591
  804SOL    HW1 2411   0.267   0.132   2.165  0.1760  3.1046 -2.2213
  804SOL    HW2 2412   0.232   0.014   2.044  1.0170 -3.1332 -2.5523
  805SOL     OW 2413   2.402   0.263   0.355 -0.3171 -0.1081 -0.5855
  805SOL    HW1 2414   2.458   0.352   0.372  0.5907 -1.5030  2.4164
  805SOL    HW2 2415   2.399   0.236   0.253 -0.4309  1.9060 -0.6132
  806SOL     OW 2416   0.631   2.410   1.684 -0.6260  0.1364  0.2417
  806SOL    HW1 2417   0.609   2.510   1.707  0.2279  1.1137  0.4440
  806SOL    HW2 2418   0.731   2.396   1.659 -1.5291  0.7516 -1.3951
  807SOL     OW 2419   2.476   0.906   0.424  0.2498  0.0464 -0.1175
  807SOL    HW1 2420   2.567   0.910   0.474 -1.4116 -0.5193 -0.2930
  807SOL    HW2 2421   2.492   0.934   0.325  0.1307 -0.7473 -1.6891
  808SOL     OW 2422   0.561   2.045   2.973  0.2357 -0.1229 -0.9623
  808SOL    HW1 2423   0.591   2.066   3.070 -0.0209  0.4302 -1.3766
  808SOL    HW2 2424   0.549   1.946   2.961 -0.5764  0.8923  0.2481
  809SOL     OW 2425   2.707   1.935   1.944  0.0391  0.2129 -0.0218
  809SOL    HW1 2426   2.799   1.981   1.961  0.4837  2.7297 -0.8029
  809SOL    HW2 2427   2.686   1.938   1.845 -0.6449  0.7897 -0.4084
  810SOL     OW 2428   2.102   1.027   0.527 -0.0384 -0.2209  0.3578
  810SOL    HW1 2429   2.143   0.967   0.601 -2.8862  1.9304  0.4177
  810SOL    HW2 2430   2.059   1.113   0.567  0.3745 -0.4965  0.6469
  811SOL     OW 2431   1.371   2.496   1.269  0.1657  0.5003 -0.5152
  811SOL    HW1 2432   1.331   2.402   1.282 -2.3253  1.9776 -0.3416
  811SOL    HW2 2433   1.308   2.562   1.214  0.7496  1.2420 -0.8123
  812SOL     OW 2434   1.441   0.840   1.928 -0.0369 -0.6707 -0.3704
  812SOL    HW1 2435   1.522   0.869   1.986  1.2249 -0.2301 -2.0614
  812SOL    HW2 2436   1.344   0.885   1.937 -2.5639 -1.2716  0.5315
  813SOL     OW 2437   1.764   2.090   2.470  0.2906 -0.7946  0.2421
  813SOL    HW1 2438   1.834   2.011   2.477  2.4669  0.2472  2.7850
  813SOL    HW2 2439   1.712   2.088   2.379 -2.8477  0.9615  0.0670
  814SOL     OW 2440   2.889   1.548   2.835  0.4724 -0.7627  0.5171
  814SOL    HW1 2441   2.969   1.541   2.900 -1.4790  0.3263 -0.1383
  814SOL    HW2 2442   2.889   1.636   2.782 -0.7477 -2.6400 -0.2390
  815SOL     OW 2443   2.177   2.893   2.786  0.0932  0.0383  0.5934
  815SOL    HW1 2444   2.167   2.817   2.850 -2.4858  1.5729 -1.3707
  815SOL    HW2 2445   2.267   2.944   2.794 -2.3739  0.8601 -0.3429
  816SOL     OW 2446   1.636   0.336   1.669  0.0610 -0.2146  0.0221
  816SOL    HW1 2447   1.669   0.240   1.674  1.0935  0.2235 -0.8913
  816SOL    HW2 2448   1.534   0.347   1.703 -1.7464 -1.4632  0.4488
  817SOL     OW 2449   0.414   1.238   2.526 -0.0958  0.0317  0.1838
  817SOL    HW1 2450   0.313   1.256   2.537  0.1738  0.6606  2.0372
  817SOL    HW2 2451   0.449   1.291   2.444 -1.0563 -1.8415  3.2850
  818SOL     OW 2452   1.962   0.797   0.476 -0.9555  0.4743  0.4422
  818SOL    HW1 2453   1.991   0.887   0.517  1.0729 -0.1982  0.3641
  818SOL    HW2 2454   1.872   0.766   0.519 -0.1160  0.6383 -1.3792
  819SOL     OW 2455   2.764   2.933   3.010 -0.3661  0.3672 -0.3635
  819SOL    HW1 2456   2.838   2.866   2.976 -1.4918  1.3803  1.2826
  819SOL    HW2 2457   2.668   2.908   2.975 -0.7366  0.5152 -0.6967
  820SOL     OW 2458   1.262   1.123   0.653 -0.2507 -0.1318 -0.0105
  820SOL    HW1 2459   1.250   1.226   0.652  2.7736 -0.7493 -1.1997
  820SOL    HW2 2460   1.209   1.069   0.733  1.5203 -0.1095  1.2257
  821SOL     OW 2461   3.086   1.321   0.668 -0.0027  0.6716 -0.3615
  821SOL    HW1 2462   3.082   1.298   0.766  0.4715  0.0997 -3.0051
  821SOL    HW2 2463   3.171   1.382   0.653 -0.8532  2.5921  3.6510
  822SOL     OW 2464   2.535   1.745   2.444  0.0823  0.1216  0.6172
  822SOL    HW1 2465   2.530   1.831   2.508 -1.2103  0.3897 -1.3274
  822SOL    HW2 2466   2.463   1.752   2.372  0.1257 -0.5761  1.5549
  823SOL     OW 2467   2.110   0.820   1.203 -0.0992  1.0919 -0.4338
  823SOL    HW1 2468   2.063   0.874   1.279 -0.1045 -0.9201  0.9860
  823SOL    HW2 2469   2.066   0.828   1.112  1.8289  1.5813  1.4291
  824SOL     OW 2470   0.174   2.069   2.775  0.4353  0.0415 -0.1963
  824SOL    HW1 2471   0.150   1.984   2.839  2.5698 -1.8250 -0.4417
  824SOL    HW2 2472   0.255   2.044   2.716  1.7989 -0.5770  2.7964
  825SOL     OW 2473   1.257   1.098   0.302  0.4179  0.0092 -0.5648
  825SOL    HW1 2474   1.301   1.185   0.273 -0.9911 -3.9970 -0.6003
  825SOL    HW2 2475   1.157   1.105   0.324  1.2481  0.8702 -0.5220
  826SOL     OW 2476   1.901   0.684   1.608 -0.5946  0.2256  0.1708
  826SOL    HW1 2477   1.982   0.627   1.640  0.2944 -0.9026 -0.9117
  826SOL    HW2 2478   1.834   0.626   1.551  0.4871 -0.6616 -2.8198
  827SOL     OW 2479   0.688   1.365   0.292 -0.5990 -0.9208  0.0757
  827SOL    HW1 2480   0.776   1.310   0.267  0.5126  2.1297 -0.3883
  827SOL    HW2 2481   0.606   1.312   0.321 -0.1395  0.2546 -1.4763
  828SOL     OW 2482   2.507   0.067   1.587 -0.2356 -0.3619  0.0133
  828SOL    HW1 2483   2.416   0.114   1.564 -1.4198 -0.6274 -0.5352
  828SOL    HW2 2484   2.489  -0.001   1.667  2.3320  0.0255  0.8714
  829SOL     OW 2485   2.821   2.438   2.968 -0.3429  0.0710  0.2901
  829SOL    HW1 2486   2.764   2.351   2.959  2.4431 -1.4831  0.7730
  829SOL    HW2 2487   2.784   2.500   3.044 -2.6718 -0.1356  1.0713
  830SOL     OW 2488   2.859   0.950   2.987 -0.0902 -0.0562 -0.2508
  830SOL    HW1 2489   2.926   1.032   2.996 -0.3244  0.2404  0.9306
  830SOL    HW2 2490   2.893   0.858   3.030 -2.5891 -1.0829 -0.2040
  831SOL     OW 2491   0.114   0.639   0.421 -0.1241 -0.1846  0.8031
  831SOL    HW1 2492   0.119   0.570   0.500 -0.2899 -2.2721 -1.5980
  831SOL    HW2 2493   0.111   0.589   0.328  0.6237 -2.5235  0.6601
  832SOL     OW 2494   1.783   0.732   3.057 -0.5355  0.2835 -0.5189
  832SOL    HW1 2495   1.700   0.787   3.026 -1.5909 -1.8455 -0.9115
  832SOL    HW2 2496   1.764   0.630   3.064  2.0762  1.8950 -1.3946
  833SOL     OW 2497   2.429   2.154   0.513 -0.5714  0.1229  0.1207
  833SOL    HW1 2498   2.325   2.136   0.497 -2.3788 -0.9734  0.0612
  833SOL    HW2 2499   2.487   2.072   0.483  2.3257  1.5552  1.9953
  834SOL     OW 2500   0.193   0.211   0.512 -0.0222  0.1452  0.5119
  834SOL    HW1 2501   0.210   0.111   0.544  3.2370 -2.3281 -0.0530
  834SOL    HW2 2502   0.186   0.223   0.412  0.8811  1.2341 -0.6807
  835SOL     OW 2503   2.396   1.574   1.145  0.2361 -0.3977  0.2864
  835SOL    HW1 2504   2.371   1.664   1.193  1.2498 -0.2068  2.2115
  835SOL    HW2 2505   2.449   1.577   1.059 -0.4516  1.1748 -3.0712
  836SOL     OW 2506   1.607   0.824   2.521  0.1434 -0.1106 -0.1605
  836SOL    HW1 2507   1.502   0.827   2.514 -1.1400 -0.4040  1.4283
  836SOL    HW2 2508   1.657   0.829   2.428 -1.8983  1.0012 -2.3959
  837SOL     OW 2509   1.731   0.153   0.601  0.4737 -0.9054  0.1872
  837SOL    HW1 2510   1.681   0.212   0.669 -0.1307 -1.1086  1.0043
  837SOL    HW2 2511   1.705   0.180   0.501  0.5123  1.1604 -0.4633
  838SOL     OW 2512   1.143   1.556   2.788 -0.3925 -0.4194  0.1082
  838SOL    HW1 2513   1.117   1.515   2.879  0.6145  0.7836  0.7267
  838SOL    HW2 2514   1.105   1.503   2.706  3.1428 -0.0590  0.0041
  839SOL     OW 2515   1.640   0.325   1.015  0.2780  0.3122 -0.2277
  839SOL    HW1 2516   1.686   0.376   1.097  0.8849  1.4316 -0.1163
  839SOL    HW2 2517   1.568   0.256   1.048 -0.9880  2.3793  1.3748
  840SOL     OW 2518   2.475   2.954   1.755  0.0285  0.1592  0.1749
  840SOL    HW1 2519   2.382   2.932   1.710  0.7136  0.2864 -1.3689
  840SOL    HW2 2520   2.535   2.874   1.777  2.7064 -0.4813  2.1641
  841SOL     OW 2521   1.545   0.833   2.976  0.2760  0.3988 -0.1398
  841SOL    HW1 2522   1.468   0.853   3.051 -4.7894 -1.0346 -0.8429
  841SOL    HW2 2523   1.534   0.882   2.886 -1.1591  0.2643 -0.2434
  842SOL     OW 2524   0.832   1.549   0.914 -0.4062 -1.1749 -0.3287
  842SOL    HW1 2525   0.795   1.626   0.975 -0.0895 -0.8181 -0.9568
  842SOL    HW2 2526   0.769   1.470   0.902  0.5216 -0.1769 -1.0386
  843SOL     OW 2527   0.058   0.032   1.377 -0.2241  0.0656  0.1573
  843SOL    HW1 2528   0.131   0.091   1.423 -2.0980  0.0731 -1.3824
  843SOL    HW2 2529   0.046  -0.067   1.409  0.5249 -3.2135 -3.0307
  844SOL     OW 2530   0.813   2.484   0.233 -0.2952  0.4054 -0.4546
  844SOL    HW1 2531   0.747   2.483   0.315  1.4421 -0.3188  0.3608
  844SOL    HW2 2532   0.780   2.558   0.169  1.0521 -0.2718  1.0122
  845SOL     OW 2533   1.638   2.907   1.361  0.0660  0.4322  1.0611
  845SOL    HW1 2534   1.699   2.888   1.444 -2.6791  0.0246  0.9798
  845SOL    HW2 2535   1.542   2.937   1.386 -2.3206 -0.9044 -0.6184
  846SOL     OW 2536   1.552   2.894   0.724  0.1006 -0.3762 -0.5867
  846SOL    HW1 2537   1.552   2.887   0.624  0.0585  0.2162  0.4330
  846SOL    HW2 2538   1.634   2.938   0.768 -1.5505  0.7385  0.2018
  847SOL     OW 2539   2.038   1.663   0.361  0.0473 -0.2023 -0.2019
  847SOL    HW1 2540   1.990   1.581   0.392  2.6906  1.9577 -2.9249
  847SOL    HW2 2541   1.971   1.723   0.308 -0.5654  2.6507 -1.3191
  848SOL     OW 2542   2.462   0.871   2.612  0.6135  0.5694  0.0420
  848SOL    HW1 2543   2.411   0.950   2.654 -1.0668 -1.0944 -0.0174
  848SOL    HW2 2544   2.392   0.796   2.594  0.3990  1.5885  0.2915
  849SOL     OW 2545   2.588   0.865   2.349  0.5092 -0.0356 -0.0518
  849SOL    HW1 2546   2.676   0.821   2.380  1.6640  0.0851 -0.3845
  849SOL    HW2 2547   2.521   0.873   2.423  0.1800  0.9020 -2.6329
  850SOL     OW 2548   1.537   0.161   1.272  0.0421  0.6886 -0.5929
  850SOL    HW1 2549   1.504   0.118   1.181 -2.1504 -3.6290  0.0964
  850SOL    HW2 2550   1.510   0.092   1.347  0.9365 -3.0261 -1.1805
  851SOL     OW 2551   0.478   1.786   0.536  0.3531  0.0056 -0.1704
  851SOL    HW1 2552   0.539   1.847   0.597  1.9013  1.0462 -1.4549
  851SOL    HW2 2553   0.470   1.819   0.439 -1.4322  0.9732  0.6672
  852SOL     OW 2554   0.804   2.112   1.672 -0.5240 -0.0072 -0.8284
  852SOL    HW1 2555   0.832   2.210   1.651 -0.3330  0.0392  1.9539
  852SOL    HW2 2556   0.743   2.098   1.753  0.6577  2.2581 -0.1474
  853SOL     OW 2557   2.541   1.514   2.603 -0.4409  0.2530  0.0356
  853SOL    HW1 2558   2.467   1.443   2.587 -0.3109  0.6538  1.9259
  853SOL    HW2 2559   2.551   1.590   2.528  2.3590  1.0914  3.5076
  854SOL     OW 2560   2.380   1.392   1.722 -0.3487  0.5240 -0.6663
  854SOL    HW1 2561   2.435   1.352   1.645  2.5451 -0.3047  2.9097
  854SOL    HW2 2562   2.329   1.316   1.775  0.1780  1.0266 -0.0331
  855SOL     OW 2563   2.021   2.415   1.043 -0.3806 -0.3541 -0.6229
  855SOL    HW1 2564   1.974   2.507   1.064 -1.3355  0.1536  0.6316
  855SOL    HW2 2565   2.126   2.411   1.069  3.2722 -0.1026  1.0737
  856SOL     OW 2566   1.318   1.444   0.948  0.2809  0.4308  0.1128
  856SOL    HW1 2567   1.363   1.533   0.979  0.7363  0.5951  0.2653
  856SOL    HW2 2568   1.216   1.439   0.981 -0.8280  1.1358  0.4158
  857SOL     OW 2569   3.023   2.707   0.948 -0.1026  0.0808 -0.3925
  857SOL    HW1 2570   3.021   2.648   0.863  0.8649  2.0745  0.6683
  857SOL    HW2 2571   3.119   2.748   0.968  2.9055  1.2217  4.0878
  858SOL     OW 2572   2.336   2.096   1.705  0.0358 -0.1697 -0.0696
  858SOL    HW1 2573   2.242   2.078   1.670  0.3535  1.6599 -0.0270
  858SOL    HW2 2574   2.409   2.024   1.675  1.2888  2.5200 -1.2638
  859SOL     OW 2575   2.482   0.529   1.043  0.1203 -0.2052 -0.1798
  859SOL    HW1 2576   2.540   0.582   0.976 -1.2817  1.8459 -1.4605
  859SOL    HW2 2577   2.530   0.441   1.081  2.3799 -0.6654  1.0589
  860SOL     OW 2578   1.959   2.794   0.424  0.8266 -0.2270 -0.5661
  860SOL    HW1 2579   1.915   2.763   0.328  0.4601 -0.2972  1.9146
  860SOL    HW2 2580   2.059   2.807   0.414 -0.1986  0.7450  0.1353
  861SOL     OW 2581   1.005   2.393   2.870 -0.0431  0.4663 -0.3430
  861SOL    HW1 2582   1.028   2.492   2.851  0.4670 -0.8014  1.0986
  861SOL    HW2 2583   1.043   2.354   2.956  0.1850  0.4194 -2.6699
  862SOL     OW 2584   2.866   2.557   1.633 -0.3040 -0.4945  0.1087
  862SOL    HW1 2585   2.954   2.597   1.673  0.9443 -2.8876 -0.8524
  862SOL    HW2 2586   2.806   2.621   1.577  1.9401  0.4006 -1.2370
  863SOL     OW 2587   1.848   2.714   0.193  0.3173  0.3916  0.1046
  863SOL    HW1 2588   1.902   2.625   0.196  1.3107  0.8607 -1.0979
  863SOL    HW2 2589   1.771   2.721   0.127  0.7711 -0.3035  1.2525
  864SOL     OW 2590   1.974   1.224   2.825 -0.5388  0.1539  0.5174
  864SOL    HW1 2591   1.940   1.167   2.740  0.5824 -0.9018 -0.5886
  864SOL    HW2 2592   2.030   1.165   2.892 -1.2739 -0.1146 -1.3381
  865SOL     OW 2593   2.190   1.906   0.655 -0.1188  0.0142 -0.5959
  865SOL    HW1 2594   2.247   1.913   0.740 -1.1617  3.5297  0.0109
  865SOL    HW2 2595   2.099   1.857   0.669  0.1073 -1.6219  0.7181
  866SOL     OW 2596   2.841   2.920   1.001 -0.3199 -0.0173  0.0424
  866SOL    HW1 2597   2.861   2.994   0.928  0.0345  0.2886 -1.2023
  866SOL    HW2 2598   2.901   2.829   0.989  0.9519 -0.7647 -0.0919
  867SOL     OW 2599   0.393   1.397   0.865  0.7626 -0.1274 -0.5054
  867SOL    HW1 2600   0.347   1.306   0.833  0.6829  2.8601  1.2143
  867SOL    HW2 2601   0.348   1.484   0.825 -2.4533  1.0738 -2.5440
  868SOL     OW 2602   0.757   1.903   2.112  0.2118 -0.2873 -0.6476
  868SOL    HW1 2603   0.730   1.906   2.209  2.1971  2.2831 -0.3168
  868SOL    HW2 2604   0.746   1.996   2.063  0.6401 -2.6753  0.8441
  869SOL     OW 2605   2.551   1.937   1.672 -0.0378 -0.1167 -0.0363
  869SOL    HW1 2606   2.638   1.986   1.636  1.6107  1.9114 -1.5163
  869SOL    HW2 2607   2.574   1.839   1.691 -3.6591  1.4066  2.0147
  870SOL     OW 2608   2.301   2.686   1.202 -0.5048 -0.1704  0.2301
  870SOL    HW1 2609   2.247   2.594   1.187 -2.2935 -2.3358  3.3826
  870SOL    HW2 2610   2.314   2.710   1.300 -1.4156  0.6250  3.3210
  871SOL     OW 2611   3.102   2.261   0.563  0.0465 -0.6965  0.3232
  871SOL    HW1 2612   3.038   2.260   0.643 -1.2237 -1.4444  0.3657
  871SOL    HW2 2613   3.048   2.263   0.472 -1.9716  0.9665 -1.1859
  872SOL     OW 2614   2.101   0.506   1.699 -0.1404  0.4893  0.6057
  872SOL    HW1 2615   2.077   0.519   1.800 -1.7604  0.0372 -1.6907
  872SOL    HW2 2616   2.196   0.465   1.681  0.3410  0.8483  1.7080
  873SOL     OW 2617   1.745   2.133   3.076 -0.5512  0.0874 -0.1635
  873SOL    HW1 2618   1.654   2.156   3.125  0.7527  0.3507  0.5995
  873SOL    HW2 2619   1.741   2.131   2.971  0.9443  0.3463 -0.2485
  874SOL     OW 2620   0.676   2.437   0.753 -0.2745  0.4007 -0.5154
  874SOL    HW1 2621   0.636   2.530   0.772 -1.5508 -1.1604 -2.4607
  874SOL    HW2 2622   0.774   2.433   0.795  1.0401  1.0842  1.2489
  875SOL     OW 2623   2.303   1.525   1.429  0.2179 -0.7841 -0.3154
  875SOL    HW1 2624   2.382   1.575   1.474  1.9130  0.9014  0.8295
  875SOL    HW2 2625   2.320   1.508   1.323 -0.2160  0.9961 -1.1998
  876SOL     OW 2626   0.058   2.316   2.685  0.1412  0.1805  0.0814
  876SOL    HW1 2627   0.098   2.224   2.720 -0.2806  1.5562  2.1194
  876SOL    HW2 2628   0.084   2.401   2.739  1.4145  2.2347  0.8629
  877SOL     OW 2629   2.971   2.694   0.503 -0.1186 -0.1859 -0.6891
  877SOL    HW1 2630   2.912   2.779   0.521  0.5110 -2.1264  0.2893
  877SOL    HW2 2631   3.026   2.669   0.591 -1.5825 -1.1615  0.2183
  878SOL     OW 2632   2.786   1.537   2.230 -0.1011  0.1189 -0.0108
  878SOL    HW1 2633   2.791   1.626   2.173 -2.6789  0.4979 -1.4888
  878SOL    HW2 2634   2.771   1.553   2.330  3.0927 -0.0865  0.0239
  879SOL     OW 2635   2.426   0.095   1.259  0.0235 -0.0662 -0.5615
  879SOL    HW1 2636   2.431  -0.001   1.298 -0.9739  1.0763 -0.6860
  879SOL    HW2 2637   2.354   0.104   1.182  0.7895  0.9843  0.2516
  880SOL     OW 2638   0.775   0.496   2.216  0.2812  0.0852 -0.4315
  880SOL    HW1 2639   0.742   0.448   2.300  1.1821 -1.0461 -2.5515
  880SOL    HW2 2640   0.810   0.428   2.145 -3.5785  0.0200 -0.4428
  881SOL     OW 2641   0.907   0.089   0.464  0.2063 -0.5289  0.3169
  881SOL    HW1 2642   0.938  -0.010   0.489  1.6304 -0.4631  1.4546
  881SOL    HW2 2643   0.806   0.103   0.462 -0.9599  0.8164 -0.8157
  882SOL     OW 2644   2.721   1.713   1.696  0.0947  0.1672  0.0421
  882SOL    HW1 2645   2.795   1.658   1.644 -3.1605 -1.8954 -0.8728
  882SOL    HW2 2646   2.728   1.688   1.794  1.0654 -2.8357  1.3389
  883SOL     OW 2647   0.874   0.500   0.938 -0.0904  0.8732  0.0640
  883SOL    HW1 2648   0.922   0.583   0.976 -0.1813  1.4828  1.9435
  883SOL    HW2 2649   0.829   0.439   1.013  1.0330 -0.2167  2.5101
  884SOL     OW 2650   1.118   1.715   1.175  0.3970  0.2540  0.1123
  884SOL    HW1 2651   1.096   1.651   1.099 -1.4937 -1.1538 -1.3483
  884SOL    HW2 2652   1.125   1.812   1.135 -0.6420 -3.8419 -0.1566
  885SOL     OW 2653   2.323   1.789   2.288  0.0148  0.0256 -0.1590
  885SOL    HW1 2654   2.234   1.759   2.338  0.8214  0.0795 -0.6121
  885SOL    HW2 2655   2.299   1.885   2.248  1.5214  1.2331  1.7143
  886SOL     OW 2656   2.592   0.374   1.820  0.1077 -0.3623 -0.0118
  886SOL    HW1 2657   2.597   0.310   1.897 -0.8999 -0.1442  0.5539
  886SOL    HW2 2658   2.687   0.423   1.809  0.3267  1.7151  1.9164
  887SOL     OW 2659   0.114   1.983   1.323  0.0194 -0.4512  0.4786
  887SOL    HW1 2660   0.085   1.944   1.229  0.3874 -0.8484 -0.1971
  887SOL    HW2 2661   0.111   2.087   1.328 -2.9046  0.2587  0.7729
  888SOL     OW 2662   0.562   1.232   1.527 -0.8457 -0.1422  0.5047
  888SOL    HW1 2663   0.591   1.288   1.446  1.0571  2.0816  0.0118
  888SOL    HW2 2664   0.543   1.131   1.502 -3.0648  0.7525  0.4331
  889SOL     OW 2665   0.823   2.500   2.158 -0.1077  0.1705 -0.5695
  889SOL    HW1 2666   0.742   2.434   2.153 -2.5275 -1.2754 -1.1734
  889SOL    HW2 2667   0.903   2.478   2.090  1.1211  2.2567 -1.4578
  890SOL     OW 2668   2.410   2.488   0.233  0.0114  0.2300 -0.3216
  890SOL    HW1 2669   2.421   2.568   0.167  0.3584 -1.1954 -0.3163
  890SOL    HW2 2670   2.337   2.511   0.305  0.1633  0.6473  0.0491
  891SOL     OW 2671   2.505   1.700   0.612  0.0263  0.2538  0.2734
  891SOL    HW1 2672   2.490   1.675   0.710 -3.8129 -1.8867 -2.3264
  891SOL    HW2 2673   2.426   1.658   0.560  1.9689  0.2447  0.1875
  892SOL     OW 2674   0.369   0.271   2.337 -0.4954 -0.2664  0.2019
  892SOL    HW1 2675   0.420   0.362   2.320 -0.7576  1.1088 -0.7004
  892SOL    HW2 2676   0.427   0.190   2.314  0.0154 -0.8844 -1.6961
  893SOL     OW 2677   1.638   0.213   2.724 -0.3420  0.3609  0.2303
  893SOL    HW1 2678   1.707   0.278   2.770  0.4129  0.5250 -1.2362
  893SOL    HW2 2679   1.541   0.251   2.704  1.6305 -0.3472  2.7059
  894SOL     OW 2680   2.193   2.071   0.053  0.1188 -0.0865 -0.0600
  894SOL    HW1 2681   2.156   2.008  -0.020  1.4404 -2.2938 -1.0474
  894SOL    HW2 2682   2.200   2.022   0.143 -1.2355 -1.5619  1.3036
  895SOL     OW 2683   2.830   1.471   0.903  0.3078 -0.1117  0.3311
  895SOL    HW1 2684   2.917   1.423   0.944  3.5641 -0.6846 -0.0746
  895SOL    HW2 2685   2.825   1.568   0.938  0.4440 -1.2367 -3.0179
  896SOL     OW 2686   1.778   1.817   1.186 -0.8095 -0.1512 -0.5212
  896SOL    HW1 2687   1.804   1.720   1.155 -1.6300 -0.5266  0.0041
  896SOL    HW2 2688   1.695   1.854   1.138 -0.8250 -1.5478  1.3135
  897SOL     OW 2689   0.289   0.554   3.043  0.4436 -0.3260 -0.0680
  897SOL    HW1 2690   0.244   0.595   2.959 -0.9626 -0.5812  0.5166
  897SOL    HW2 2691   0.385   0.599   3.056  2.9535  0.6245 -1.7057
  898SOL     OW 2692   0.619   2.884   1.041 -0.7549 -0.1193 -0.0141
  898SOL    HW1 2693   0.657   2.981   1.025  0.6546  0.7956 -0.9855
  898SOL    HW2 2694   0.696   2.825   1.088  2.0867 -1.3577  0.3068
  899SOL     OW 2695   2.832   0.858   1.361  0.7643  1.0668 -0.0814
  899SOL    HW1 2696   2.794   0.875   1.265  0.9218 -0.0492  1.2395
  899SOL    HW2 2697   2.930   0.899   1.375  1.1149 -0.1296 -2.3919
  900SOL     OW 2698   1.003   2.513   2.425  0.8299  0.1698  0.3684
  900SOL    HW1 2699   0.929   2.475   2.359 -1.1472 -3.0118 -0.2709
  900SOL    HW2 2700   1.013   2.450   2.511 -1.1443  1.4322 -1.7482
  901SOL     OW 2701   1.899   2.390   1.363  0.1928 -0.5509  0.2318
  901SOL    HW1 2702   1.873   2.314   1.298  2.9894  2.9517 -0.3281
  901SOL    HW2 2703   2.000   2.399   1.386 -0.6082  1.4620  0.9405
  902SOL     OW 2704   2.555   1.641   1.474  0.4495 -0.1622 -0.7245
  902SOL    HW1 2705   2.617   1.669   1.553  0.2352 -0.5370  0.9143
  902SOL    HW2 2706   2.611   1.623   1.389  0.7768  1.0111  0.4341
  903SOL     OW 2707   0.262   2.444   1.968 -0.4904 -0.0538  0.2592
  903SOL    HW1 2708   0.163   2.403   1.966  0.2126 -2.2222  1.4614
  903SOL    HW2 2709   0.275   2.536   1.920 -0.6963 -1.5843 -0.6114
  904SOL     OW 2710   1.979   0.786   2.579  0.3183 -0.0324  0.2115
  904SOL    HW1 2711   1.894   0.737   2.609  1.0687  2.0701 -3.2741
  904SOL    HW2 2712   1.996   0.782   2.476 -0.0851  0.1428 -0.6303
  905SOL     OW 2713   2.881   0.107   2.520 -0.9547  0.3161  0.4630
  905SOL    HW1 2714   2.933   0.027   2.561 -2.7547 -0.4784  1.3160
  905SOL    HW2 2715   2.934   0.189   2.480 -2.9452 -1.0723 -0.8510
  906SOL     OW 2716   0.137   1.670   1.911  0.4048  1.0950  0.1505
  906SOL    HW1 2717   0.060   1.694   1.851  2.4741 -1.3591  2.4518
  906SOL    HW2 2718   0.228   1.681   1.868 -1.1466 -1.9245  1.7122
  907SOL     OW 2719   0.211   2.426   0.979 -0.1580  0.1811  0.3268
  907SOL    HW1 2720   0.311   2.391   0.978  0.4146 -1.6215 -0.4967
  907SOL    HW2 2721   0.199   2.511   0.923  2.3559  0.2375  0.4578
  908SOL     OW 2722   2.809   3.036   0.358 -0.2802 -0.0477  0.9439
  908SOL    HW1 2723   2.707   3.033   0.337  3.2482 -1.4206  1.2500
  908SOL    HW2 2724   2.864   2.971   0.294 -1.7901  2.3535 -1.0880
  909SOL     OW 2725   0.849   1.060   2.658  0.1332 -0.2543 -0.3294
  909SOL    HW1 2726   0.793   0.976   2.647 -0.9490  0.7242 -0.1768
  909SOL    HW2 2727   0.918   1.069   2.580 -0.3685  2.1896 -2.7533
  910SOL     OW 2728   1.800   1.881   2.157  0.3613 -0.0686  0.0486
  910SOL    HW1 2729   1.868   1.917   2.083  0.2890  0.0845 -2.2513
  910SOL    HW2 2730   1.724   1.952   2.179 -1.1337  2.4150 -0.9841
  911SOL     OW 2731   1.830   2.915   1.567 -0.3054  0.1685 -0.2510
  911SOL    HW1 2732   1.899   2.917   1.491 -3.9286 -2.3331 -0.0092
  911SOL    HW2 2733   1.831   2.826   1.624 -1.6321 -0.6768 -0.6618
  912SOL     OW 2734   2.854   1.011   0.704 -0.1887  0.0042 -0.1472
  912SOL    HW1 2735   2.862   0.954   0.788  0.7296  1.3935 -0.9284
  912SOL    HW2 2736   2.787   1.090   0.722  0.3912  0.2207  3.5339
  913SOL     OW 2737   2.521   1.278   1.519  0.2059  0.5093  0.0747
  913SOL    HW1 2738   2.566   1.183   1.510 -0.6306  1.3191  0.0606
  913SOL    HW2 2739   2.593   1.347   1.495  1.0623 -0.6428  0.9118
  914SOL     OW 2740   2.790   0.616   1.157 -0.1860 -0.3955  0.1153
  914SOL    HW1 2741   2.795   0.525   1.206  3.9033 -3.8698  1.3418
  914SOL    HW2 2742   2.694   0.649   1.142 -0.2847  0.3005 -0.2637
  915SOL     OW 2743   1.222   0.723   1.024 -0.2075  0.2177  0.2650
  915SOL    HW1 2744   1.261   0.759   1.113 -4.6837 -1.3010 -0.2661
  915SOL    HW2 2745   1.124   0.698   1.048 -0.0115 -1.4371  1.8516
  916SOL     OW 2746   0.624   0.046   0.649  0.1539 -0.0343  0.2386
  916SOL    HW1 2747   0.656   0.110   0.723 -0.2555 -4.9671  1.7653
  916SOL    HW2 2748   0.563   0.085   0.578 -0.3514  0.3585 -1.8014
  917SOL     OW 2749   2.872   2.574   2.012 -0.5665  0.4498  0.1162
  917SOL    HW1 2750   2.777   2.608   1.988 -1.1310 -0.1174  0.6323
  917SOL    HW2 2751   2.940   2.579   1.932 -1.5155  2.0358 -0.3647
  918SOL     OW 2752   1.003   2.111   2.985 -0.0945  0.5635  0.4093
  918SOL    HW1 2753   0.992   2.180   3.063 -2.6890 -0.6535  0.1990
  918SOL    HW2 2754   1.076   2.138   2.914  0.9304 -1.4636 -0.8809
  919SOL     OW 2755   0.813   1.682   2.872 -0.1872  0.0377  0.3414
  919SOL    HW1 2756   0.867   1.748   2.811  2.2809 -2.9669  0.3471
  919SOL    HW2 2757   0.789   1.595   2.819  1.1187  0.6462  0.5749
  920SOL     OW 2758   1.250   1.807   2.565 -0.0001  0.5293 -0.0629
  920SOL    HW1 2759   1.344   1.761   2.545  1.4304  0.0112  0.0143
  920SOL    HW2 2760   1.191   1.734   2.610 -1.8855 -0.2277 -0.1044
  921SOL     OW 2761   1.105   3.095   2.619  0.0786  0.0714 -0.4735
  921SOL    HW1 2762   1.104   3.101   2.518 -0.9659  0.0974 -0.5557
  921SOL    HW2 2763   1.014   3.136   2.657 -1.0822 -2.0788 -1.4342
  922SOL     OW 2764   2.227   2.386   2.779  0.6382  0.3626 -0.2257
  922SOL    HW1 2765   2.216   2.281   2.775 -2.0252  2.3607 -3.1046
  922SOL    HW2 2766   2.177   2.418   2.697 -0.8507  0.7250  3.2681
  923SOL     OW 2767   1.264   2.656   0.273  0.3273 -0.2308  0.1915
  923SOL    HW1 2768   1.333   2.723   0.312 -1.6223 -3.7728  0.6986
  923SOL    HW2 2769   1.310   2.566   0.250 -0.3900  1.4140  0.0344
  924SOL     OW 2770   2.875   1.700   0.090 -0.5602 -0.2827 -0.0191
  924SOL    HW1 2771   2.810   1.670   0.014 -0.5028 -0.5963  0.1590
  924SOL    HW2 2772   2.937   1.623   0.118 -1.1593  2.2623 -0.6871
  925SOL     OW 2773   0.058   2.873   1.470 -0.1589  0.6009  0.1007
  925SOL    HW1 2774  -0.011   2.842   1.545 -0.5505 -2.4696 -0.7387
  925SOL    HW2 2775   0.043   2.827   1.377  1.0930  0.5133  2.4227
  926SOL     OW 2776   1.347   2.829   1.347  0.2089 -0.2257 -0.4152
  926SOL    HW1 2777   1.402   2.838   1.259 -1.8430 -0.7366  0.9614
  926SOL    HW2 2778   1.338   2.910   1.411 -1.8203  0.1405 -3.1682
  927SOL     OW 2779   0.334   2.699   1.757 -0.5247  0.3188  0.1508
  927SOL    HW1 2780   0.292   2.617   1.709  1.8770  2.4803 -1.3803
  927SOL    HW2 2781   0.297   2.790   1.718  1.1624 -0.3821 -0.4454
  928SOL     OW 2782   1.616   2.086   2.227 -0.2655  0.1067 -0.1892
  928SOL    HW1 2783   1.636   2.173   2.175 -2.2186 -1.2501 -0.9603
  928SOL    HW2 2784   1.517   2.092   2.270 -2.3151 -1.7664  2.2852
  929SOL     OW 2785   2.443   2.513   2.879  0.3521 -0.0831 -0.3027
  929SOL    HW1 2786   2.356   2.461   2.844 -0.7645  1.7466 -3.8476
  929SOL    HW2 2787   2.506   2.537   2.800  2.5921 -1.8268 -0.9267
  930SOL     OW 2788   2.145   1.981   1.099 -0.3776  0.1992  0.1166
  930SOL    HW1 2789   2.158   1.909   1.164  0.1479  0.5412 -3.2710
  930SOL    HW2 2790   2.192   2.070   1.122  1.3814  0.0604 -0.4529
  931SOL     OW 2791   0.536   1.736   2.647 -0.2051 -0.1966  0.7348
  931SOL    HW1 2792   0.525   1.771   2.743 -0.4123  0.9715  0.3555
  931SOL    HW2 2793   0.613   1.666   2.639 -1.2491  1.2990 -3.3259
  932SOL     OW 2794   0.454   0.121   3.073  0.3732 -0.0621  0.0098
  932SOL    HW1 2795   0.533   0.168   3.121  3.0878  0.3394  2.5377
  932SOL    HW2 2796   0.479   0.020   3.052  2.7345  0.3824  0.4039
  933SOL     OW 2797   0.925   0.822   3.041  0.0977 -0.2808  0.3123
  933SOL    HW1 2798   0.839   0.781   3.070  1.1139  0.9911 -0.3153
  933SOL    HW2 2799   0.918   0.922   3.011  1.7303  1.1669 -0.1988
  934SOL     OW 2800   0.791   2.982   2.653  0.0923 -0.8267  0.2947
  934SOL    HW1 2801   0.749   2.916   2.583 -0.3479 -1.8316  0.3780
  934SOL    HW2 2802   0.832   2.925   2.727 -1.8972  0.7097 -2.7261
  935SOL     OW 2803   0.019   0.498   0.861  0.2013  0.1420 -0.7367
  935SOL    HW1 2804   0.016   0.463   0.757 -3.4017  1.0764 -0.9887
  935SOL    HW2 2805  -0.052   0.572   0.874  0.6972  1.4743  0.8049
  936SOL     OW 2806   1.097   2.829   0.100 -0.1819  0.2211  0.0266
  936SOL    HW1 2807   1.161   2.896   0.057  0.8931  0.7904  0.0358
  936SOL    HW2 2808   1.147   2.757   0.156  1.0256  2.0843 -2.3192
  937SOL     OW 2809   1.832   2.680   2.078 -0.3709 -0.6525  0.2599
  937SOL    HW1 2810   1.729   2.690   2.096 -0.4376  1.5545 -1.1541
  937SOL    HW2 2811   1.861   2.749   2.002 -0.2247  1.1440 -0.5734
  938SOL     OW 2812   2.776   2.061   1.641 -0.0868 -0.4688  0.2363
  938SOL    HW1 2813   2.746   2.162   1.634 -1.4465  0.2678 -2.0134
  938SOL    HW2 2814   2.866   2.042   1.695  1.2667  0.7861 -0.2044
  939SOL     OW 2815   2.816   1.188   2.413  0.2966 -0.4723 -0.1866
  939SOL    HW1 2816   2.882   1.190   2.337 -2.6528  2.0317  1.6289
  939SOL    HW2 2817   2.828   1.118   2.485  1.6955  0.4596 -0.2467
  940SOL     OW 2818   1.078   0.444   2.794 -0.2619 -0.1054  0.0704
  940SOL    HW1 2819   1.131   0.357   2.805 -0.6904 -0.7869 -1.9948
  940SOL    HW2 2820   1.021   0.428   2.705 -0.0643 -0.4867 -0.4241
  941SOL     OW 2821   0.026   2.783   2.296 -0.2504  0.3083  0.3005
  941SOL    HW1 2822   0.079   2.701   2.266  1.1617 -0.7305 -0.6324
  941SOL    HW2 2823   0.084   2.861   2.329 -1.6845 -2.5415  0.5689
  942SOL     OW 2824   0.136   0.082   2.574 -0.2141 -0.6628 -0.0031
  942SOL    HW1 2825   0.199   0.103   2.656  2.6003  1.3712 -0.4140
  942SOL    HW2 2826   0.115   0.169   2.519  0.1411  0.2197 -3.0761
  943SOL     OW 2827   2.103   1.680   2.402 -0.0604 -0.0039 -0.1264
  943SOL    HW1 2828   2.104   1.631   2.310 -0.1301 -4.4573 -0.6163
  943SOL    HW2 2829   2.113   1.619   2.484  2.4866 -0.8502 -0.1730
  944SOL     OW 2830   2.161   2.377   1.469 -0.3235 -0.0828 -0.2720
  944SOL    HW1 2831   2.250   2.409   1.520 -0.5070 -1.4359  2.3371
  944SOL    HW2 2832   2.141   2.282   1.509  0.4935  1.3055  0.8549
  945SOL     OW 2833   0.663   1.570   0.129 -0.0059  0.0011  0.6974
  945SOL    HW1 2834   0.597   1.555   0.054  0.2779  1.6000  2.5430
  945SOL    HW2 2835   0.665   1.488   0.196  0.8829 -0.8124  0.6482
  946SOL     OW 2836   0.432   0.961   2.514  0.0556 -0.1320 -0.1811
  946SOL    HW1 2837   0.352   0.940   2.446  0.5691 -3.1396  1.0591
  946SOL    HW2 2838   0.435   1.065   2.537  2.4472  1.9760 -3.9637
  947SOL     OW 2839   1.510   0.490   3.058  0.5897 -0.5782  0.5894
  947SOL    HW1 2840   1.478   0.521   2.964 -1.4755 -0.5614 -2.9348
  947SOL    HW2 2841   1.428   0.465   3.116  1.0446  0.0419  1.1315
  948SOL     OW 2842   1.866   3.008   2.141 -0.3895  0.0167 -0.6773
  948SOL    HW1 2843   1.884   2.946   2.057  0.4871 -2.1523 -1.6508
  948SOL    HW2 2844   1.862   2.953   2.228 -3.3078  1.3908 -3.4865
  949SOL     OW 2845   0.648   2.500   0.466 -0.1116  0.4125  0.2894
  949SOL    HW1 2846   0.683   2.600   0.452  2.1990  0.6499  1.8611
  949SOL    HW2 2847   0.666   2.451   0.555  2.2096 -2.4566 -0.2401
  950SOL     OW 2848   0.212   2.229   3.015  0.6419 -0.3714  0.2127
  950SOL    HW1 2849   0.193   2.330   3.026 -2.4742 -1.4204  1.9614
  950SOL    HW2 2850   0.192   2.191   2.924  0.6930  1.6220  1.8845
  951SOL     OW 2851   1.165   2.635   2.810 -0.4578  0.0050  0.4927
  951SOL    HW1 2852   1.206   2.586   2.889 -1.3674 -2.4851 -1.8634
  951SOL    HW2 2853   1.235   2.687   2.756  0.5775  2.7905  0.3351
  952SOL     OW 2854   0.031   1.674   0.417 -0.0645 -0.0377 -0.4424
  952SOL    HW1 2855   0.047   1.779   0.404 -0.4862  2.3647 -0.0911
  952SOL    HW2 2856   0.101   1.623   0.471  4.5948 -2.3775 -1.2137
  953SOL     OW 2857   2.565   1.765   0.226  0.0792 -0.3280  0.4218
  953SOL    HW1 2858   2.547   1.664   0.238 -0.1743  1.5780 -2.0841
  953SOL    HW2 2859   2.512   1.794   0.142 -0.1855  2.6059 -0.2278
  954SOL     OW 2860   2.207   0.558   0.969 -0.0386 -0.4718 -0.2587
  954SOL    HW1 2861   2.200   0.552   0.864 -0.8134  0.7733  2.7945
  954SOL    HW2 2862   2.307   0.548   1.003 -0.0134 -2.5629 -2.3978
  955SOL     OW 2863   0.133   2.567   1.382  0.1872  0.4903  0.2743
  955SOL    HW1 2864   0.037   2.580   1.355  1.3927 -1.1995  1.5537
  955SOL    HW2 2865   0.199   2.629   1.325  1.1505 -1.7582 -3.0032
  956SOL     OW 2866   2.810   2.444   2.504  0.1954  0.1607 -0.0691
  956SOL    HW1 2867   2.841   2.346   2.491 -0.8953  0.0904  1.0026
  956SOL    HW2 2868   2.846   2.511   2.433 -0.1102 -0.9463  2.9555
  957SOL     OW 2869   1.631   2.128   2.804 -0.0924  0.2252 -0.5221
  957SOL    HW1 2870   1.610   2.039   2.750 -2.6155 -1.1106 -0.6711
  957SOL    HW2 2871   1.705   2.183   2.759 -1.5605 -0.2439  0.6844
  958SOL     OW 2872   2.573   2.289   2.980 -0.3283 -0.0966 -0.2437
  958SOL    HW1 2873   2.524   2.356   2.917 -0.4056  2.8032  1.1183
  958SOL    HW2 2874   2.523   2.275   3.069 -1.3237  1.9831 -2.5878
  959SOL     OW 2875   0.300   2.783   0.033 -0.3458 -0.2095 -0.2923
  959SOL    HW1 2876   0.198   2.786   0.037 -1.2058 -0.0363  1.0436
  959SOL    HW2 2877   0.340   2.713   0.102 -1.0567 -0.5209 -0.2473
  960SOL     OW 2878   1.986   0.485   1.944 -0.5877  0.3305  0.1083
  960SOL    HW1 2879   1.922   0.565   1.929  2.5391  1.2584 -0.3437
  960SOL    HW2 2880   2.013   0.470   2.046  0.7552  1.5091  1.6918
  961SOL     OW 2881   2.554   1.877   1.060  0.1824 -0.5952 -0.0981
  961SOL    HW1 2882   2.589   1.972   1.066 -0.3841 -0.8111 -0.2502
  961SOL    HW2 2883   2.497   1.845   1.143 -1.3425  0.2985 -0.2980
  962SOL     OW 2884   1.296   0.911   0.062 -0.1054 -0.0456 -0.5025
  962SOL    HW1 2885   1.264   0.910  -0.042 -2.0056 -0.5247 -2.6626
  962SOL    HW2 2886   1.277   0.998   0.113 -0.3950  1.5339 -1.1146
  963SOL     OW 2887   2.292   2.533   1.765 -0.1725 -0.0958  0.0199
  963SOL    HW1 2888   2.226   2.474   1.812 -0.6549  0.8183 -3.3816
  963SOL    HW2 2889   2.331   2.604   1.826 -0.4287  1.7095  0.2380
  964SOL     OW 2890   2.378   0.398   1.642 -0.1656 -0.1745 -0.1655
  964SOL    HW1 2891   2.459   0.397   1.704  0.1649 -1.4822 -0.7581
  964SOL    HW2 2892   2.407   0.410   1.542 -1.5341 -3.0116  2.0789
  965SOL     OW 2893   2.609   2.972   0.159 -0.2477  0.2937  0.3896
  965SOL    HW1 2894   2.676   2.964   0.080  0.5237 -0.0411  2.5689
  965SOL    HW2 2895   2.520   3.011   0.127  0.7624 -1.7098 -0.1170
  966SOL     OW 2896   2.560   2.564   2.329  0.5292 -0.0963  0.8918
  966SOL    HW1 2897   2.645   2.578   2.385 -0.8555  1.5139 -0.2713
  966SOL    HW2 2898   2.488   2.637   2.340 -1.7177 -1.3916 -3.3885
  967SOL     OW 2899   2.790   2.838   2.450 -0.3492  0.5150 -0.3480
  967SOL    HW1 2900   2.841   2.788   2.375 -1.3041  2.4466 -1.8797
  967SOL    HW2 2901   2.854   2.897   2.507 -2.4631  0.5211 -0.9723
  968SOL     OW 2902   1.940   1.071   2.604  0.0972  0.1501 -0.2751
  968SOL    HW1 2903   1.858   1.116   2.568  0.4060 -0.6044  0.3922
  968SOL    HW2 2904   1.946   0.967   2.602 -1.3238 -2.7527 -1.8129
  969SOL     OW 2905   2.759   2.469   1.131 -0.0102  0.4601  0.1465
  969SOL    HW1 2906   2.725   2.460   1.034 -0.3686 -0.1297  0.5336
  969SOL    HW2 2907   2.835   2.401   1.153  0.3115  1.0151  0.5248
  970SOL     OW 2908   1.049   2.122   1.811  0.1480 -0.0567 -0.2701
  970SOL    HW1 2909   0.970   2.120   1.744  0.6234 -1.8500 -1.2146
  970SOL    HW2 2910   1.020   2.158   1.906  1.4155 -1.7336 -0.0391
  971SOL     OW 2911   2.959   2.052   2.047  0.8293 -0.1717 -0.3353
  971SOL    HW1 2912   2.948   2.150   2.073  0.4169 -3.6215 -0.1658
  971SOL    HW2 2913   2.996   2.033   1.954 -1.3520 -1.5263  2.9421
  972SOL     OW 2914   1.994   2.477   0.226  0.0554  0.1245  0.2399
  972SOL    HW1 2915   1.978   2.387   0.177 -0.8957 -2.5382 -0.8871
  972SOL    HW2 2916   2.044   2.455   0.313 -0.8157 -1.1574 -1.6408
  973SOL     OW 2917   1.235   1.033   1.906 -0.3155  0.4886  0.2645
  973SOL    HW1 2918   1.170   1.027   1.826 -1.2832  2.2707 -0.9401
  973SOL    HW2 2919   1.238   1.130   1.941  1.3749 -0.5246  0.0525
  974SOL     OW 2920   1.564   0.592   1.918 -0.3866 -0.4777  0.5506
  974SOL    HW1 2921   1.664   0.620   1.890 -0.3594  2.3549  1.3061
  974SOL    HW2 2922   1.494   0.672   1.912 -0.6019  0.6012  0.0013
  975SOL     OW 2923   2.371   3.055   3.096  0.0263 -0.0957 -0.6957
  975SOL    HW1 2924   2.308   2.973   3.106 -2.1373  0.6077 -0.6380
  975SOL    HW2 2925   2.374   3.102   3.005  1.2814  1.6869  0.9711
  976SOL     OW 2926   1.890   2.813   2.345  0.3297 -0.0890 -0.3882
  976SOL    HW1 2927   1.879   2.740   2.274 -2.9561  1.5128  1.7840
  976SOL    HW2 2928   1.918   2.777   2.442 -1.2502  2.2587  3.2074
  977SOL     OW 2929   0.489   0.665   1.053 -0.3499  0.2457  1.0039
  977SOL    HW1 2930   0.433   0.649   0.962  0.3057 -0.1061  0.7327
  977SOL    HW2 2931   0.561   0.745   1.043 -0.1690 -2.1390 -1.0716
   3.10000   3.10000   3.10000
