1000 SPC/Fw water molecules t=   0.56000 step= 560
 2931
    1SOL     OW    1   2.480   0.360   2.615  0.3045  0.5239 -0.0360
    1SOL    HW1    2   2.514   0.261   2.614 -1.1796  0.8217 -2.8304
    1SOL    HW2    3   2.531   0.419   2.684  0.3110  1.1827 -0.0630
    2SOL     OW    4   2.696   3.053   1.437  0.3961 -0.8932 -0.6398
    2SOL    HW1    5   2.740   3.087   1.350 -1.8606 -1.1480 -0.9089
    2SOL    HW2    6   2.661   3.133   1.496 -2.7638 -0.8987 -1.5003
    3SOL     OW    7   2.746   2.588   0.400 -0.2292 -0.3345 -0.0479
    3SOL    HW1    8   2.723   2.490   0.409  2.1164  0.2147  0.9640
    3SOL    HW2    9   2.825   2.615   0.462  1.1346  1.7226 -2.0435
    4SOL     OW   10   1.304   1.465   2.358 -0.4689 -0.8087  0.0546
    4SOL    HW1   11   1.213   1.514   2.337  1.9468 -1.4875  0.2540
    4SOL    HW2   12   1.297   1.379   2.413  1.1785  3.2493 -0.3343
    5SOL     OW   13   1.189   1.501   3.059  0.3903 -0.1501  0.4747
    5SOL    HW1   14   1.243   1.585   3.088 -1.7482 -0.6807 -0.5996
    5SOL    HW2   15   1.084   1.510   3.073 -2.0849 -1.3856  0.0980
    6SOL     OW   16   0.074   1.830   2.916  0.0173  0.1469  0.6130
    6SOL    HW1   17   0.034   1.864   3.003 -0.1084 -2.8126  1.6308
    6SOL    HW2   18   0.166   1.789   2.942  0.3355  3.3687  0.3166
    7SOL     OW   19   2.587   0.907   1.164 -0.8634 -0.0525 -0.3412
    7SOL    HW1   20   2.517   0.847   1.198 -1.7250  2.7295 -1.4429
    7SOL    HW2   21   2.587   0.922   1.061 -1.6422 -1.0336 -0.7867
    8SOL     OW   22   0.451   0.598   1.519  0.1895 -0.0566  0.5715
    8SOL    HW1   23   0.519   0.523   1.542 -1.1719 -0.5303 -0.5311
    8SOL    HW2   24   0.417   0.591   1.422  0.6325  1.3722 -0.4788
    9SOL     OW   25   1.154   0.927   2.293  0.2556  0.1208  0.4810
    9SOL    HW1   26   1.228   0.986   2.255  1.1463  0.3182 -1.4014
    9SOL    HW2   27   1.087   0.899   2.218  3.0980 -1.4260  1.3596
   10SOL     OW   28   0.681   1.342   1.262 -0.5531  0.0206  0.2344
   10SOL    HW1   29   0.598   1.385   1.225  0.7385  0.9720 -0.3691
   10SOL    HW2   30   0.759   1.415   1.261 -0.0450  3.8452 -1.4071
   11SOL     OW   31   2.375   2.706   0.940  0.0360  0.5458  0.6350
   11SOL    HW1   32   2.358   2.695   1.043 -1.7409 -2.3527 -0.9985
   11SOL    HW2   33   2.473   2.723   0.917 -0.6444 -1.9562 -1.3767
   12SOL     OW   34   1.472   0.932   0.338 -0.0057 -0.3901 -0.1921
   12SOL    HW1   35   1.390   0.994   0.326  1.3599 -0.9371 -3.4964
   12SOL    HW2   36   1.466   0.841   0.288  1.4136  1.0376 -1.4029
   13SOL     OW   37   2.537   0.683   1.808 -0.6229  0.0265 -0.4090
   13SOL    HW1   38   2.451   0.669   1.865 -0.0718  0.4222 -1.9939
   13SOL    HW2   39   2.515   0.658   1.708 -1.4408 -1.2531 -0.3803
   14SOL     OW   40   1.976   0.072   0.735 -0.3019 -0.1360  0.4801
   14SOL    HW1   41   1.899   0.130   0.701 -0.0529  1.0641 -1.1171
   14SOL    HW2   42   1.942  -0.017   0.772 -0.6984  0.6990  1.2934
   15SOL     OW   43   1.948   2.013   2.799  0.0218  0.0088 -0.5384
   15SOL    HW1   44   1.930   2.111   2.788 -0.7455 -3.7238 -1.6503
   15SOL    HW2   45   1.870   1.951   2.765  0.6747 -2.6351  0.1948
   16SOL     OW   46   1.612   1.712   3.017  0.2923 -0.2614 -0.3750
   16SOL    HW1   47   1.593   1.616   3.052 -2.0064  1.8084 -1.0084
   16SOL    HW2   48   1.697   1.759   3.055 -0.0849 -0.8764 -1.4903
   17SOL     OW   49   0.100   0.504   0.152 -0.1065  0.2582  0.0407
   17SOL    HW1   50   0.161   0.537   0.074 -0.9866  1.3837 -0.1446
   17SOL    HW2   51   0.010   0.472   0.122  1.9490 -0.0600  0.3111
   18SOL     OW   52   0.995   2.939   2.123 -0.0024  0.5273 -0.6037
   18SOL    HW1   53   0.916   2.866   2.120 -0.5644 -0.2267  1.5053
   18SOL    HW2   54   1.081   2.898   2.085  0.5086  1.1468  2.5437
   19SOL     OW   55   0.536   0.830   1.909 -0.3284 -0.1951 -0.3568
   19SOL    HW1   56   0.541   0.786   2.004 -0.0737  0.9803  0.3537
   19SOL    HW2   57   0.627   0.814   1.852 -0.9940 -0.8919  1.4306
   20SOL     OW   58   0.185   2.795   0.808  0.2268 -0.0965  0.3055
   20SOL    HW1   59   0.107   2.858   0.782  0.1702  2.2561 -1.9038
   20SOL    HW2   60   0.255   2.791   0.729  1.7915  0.3771 -0.6521
   21SOL     OW   61   2.769   0.199   2.072  0.2421 -0.2473 -0.3215
   21SOL    HW1   62   2.694   0.170   2.005  2.2402 -0.5773 -0.3559
   21SOL    HW2   63   2.822   0.116   2.105 -1.5020 -0.0205 -2.8470
   22SOL     OW   64   2.347   0.239   0.084  0.4023 -0.4421  0.3312
   22SOL    HW1   65   2.365   0.136   0.066 -1.9722  1.6252 -0.1791
   22SOL    HW2   66   2.249   0.261   0.086  0.8797  0.8256  1.0125
   23SOL     OW   67   2.741   0.632   0.622 -0.5156  0.1758 -0.1644
   23SOL    HW1   68   2.711   0.552   0.566  2.0556  0.8934 -0.6575
   23SOL    HW2   69   2.740   0.719   0.569 -0.0491  0.6365 -2.6753
   24SOL     OW   70   0.124   1.913   0.380  0.1746  0.0171 -0.0414
   24SOL    HW1   71   0.098   2.000   0.332  1.1292 -1.6941 -4.7337
   24SOL    HW2   72   0.214   1.882   0.346  0.6736  4.8358  1.5642
   25SOL     OW   73   2.224   0.518   0.224 -0.3712 -0.4233  1.1139
   25SOL    HW1   74   2.246   0.607   0.262  2.1316 -0.2897 -0.6486
   25SOL    HW2   75   2.233   0.518   0.120 -1.9214  2.5770  1.8210
   26SOL     OW   76   2.556   2.129   2.078  0.2668 -0.6853 -0.1417
   26SOL    HW1   77   2.598   2.191   2.154  0.8378  0.1902 -1.0073
   26SOL    HW2   78   2.610   2.049   2.055 -1.3014  0.3314  0.6095
   27SOL     OW   79   0.601   2.938   0.164  0.1950 -0.3485  0.0873
   27SOL    HW1   80   0.696   2.985   0.155 -0.9280  1.5837 -2.0394
   27SOL    HW2   81   0.546   2.933   0.076 -1.0506  0.4701  2.4564
   28SOL     OW   82   1.552   0.179   0.312 -1.1019  0.4117 -0.1177
   28SOL    HW1   83   1.582   0.160   0.211  1.1270  0.1375 -1.4122
   28SOL    HW2   84   1.560   0.281   0.327  1.2817  0.0888 -1.4730
   29SOL     OW   85   1.971   0.500   0.365 -0.3149  0.4260 -0.2246
   29SOL    HW1   86   1.984   0.604   0.380  0.1992 -3.5743 -0.3295
   29SOL    HW2   87   2.059   0.451   0.337  0.6495 -0.7606 -1.0596
   30SOL     OW   88   0.218   2.046   0.917  0.8315  0.2100 -0.7489
   30SOL    HW1   89   0.183   2.027   0.818  1.0526 -3.6796 -2.2714
   30SOL    HW2   90   0.168   2.132   0.951  0.2911 -2.0801  1.8287
   31SOL     OW   91   2.103   3.088   2.308 -0.6528  0.4386 -0.2256
   31SOL    HW1   92   2.115   3.082   2.412 -0.0773 -1.2811 -2.7391
   31SOL    HW2   93   2.010   3.045   2.288  2.0136 -3.9192  0.3735
   32SOL     OW   94   2.964   0.204   0.240 -0.3324 -0.0572 -0.0390
   32SOL    HW1   95   2.918   0.156   0.320 -1.6374 -2.1200  1.1143
   32SOL    HW2   96   3.069   0.224   0.251  0.0294  0.4836 -1.7360
   33SOL     OW   97   0.911   0.344   0.561  0.4666 -0.0595  0.4123
   33SOL    HW1   98   0.897   0.257   0.511  0.4132  3.5985  2.3162
   33SOL    HW2   99   1.001   0.353   0.621 -0.5389 -0.3355  2.0539
   34SOL     OW  100   0.363   2.856   1.073  0.2325 -0.4455  0.6036
   34SOL    HW1  101   0.323   2.841   0.978 -0.7426 -4.1425  1.2121
   34SOL    HW2  102   0.463   2.880   1.072  0.3620 -2.6294  0.4431
   35SOL     OW  103   0.023   0.209   1.861 -0.0209  0.3998 -0.1184
   35SOL    HW1  104   0.055   0.111   1.865  0.0390  1.1287  0.4315
   35SOL    HW2  105  -0.049   0.221   1.791  0.8371 -1.3675  1.2871
   36SOL     OW  106   1.935   1.089   1.846  0.0132  0.1920  0.2221
   36SOL    HW1  107   1.963   1.044   1.753  0.4670 -1.2465 -0.3852
   36SOL    HW2  108   1.993   1.175   1.862 -0.4985 -3.7271 -3.1290
   37SOL     OW  109   1.201   0.160   0.929 -0.3468 -0.3184 -0.3713
   37SOL    HW1  110   1.241   0.242   0.982  1.4166  1.2956  1.2036
   37SOL    HW2  111   1.272   0.086   0.910 -0.7850 -2.0091 -0.7077
   38SOL     OW  112   1.095   2.759   2.423  1.2408  0.4969  0.2614
   38SOL    HW1  113   1.039   2.675   2.448 -1.1951 -1.8590  2.4940
   38SOL    HW2  114   1.033   2.839   2.396  0.5470 -2.3353 -0.6705
   39SOL     OW  115   2.301   1.377   3.008  0.3855  0.7686  0.1464
   39SOL    HW1  116   2.394   1.334   3.001  0.2428 -1.9856  0.2559
   39SOL    HW2  117   2.261   1.370   3.103  2.2129 -3.1914 -0.5479
   40SOL     OW  118   2.108   2.522   2.516 -0.0107 -0.0918  0.2678
   40SOL    HW1  119   2.081   2.619   2.548  2.8022  3.6173 -0.4926
   40SOL    HW2  120   2.026   2.467   2.488  1.7379 -2.8330 -0.2966
   41SOL     OW  121   2.952   0.682   2.739 -0.0470  0.1174 -0.0271
   41SOL    HW1  122   2.873   0.741   2.743  1.0256  2.8271 -0.1279
   41SOL    HW2  123   2.926   0.582   2.743 -0.1134 -0.8398  1.4115
   42SOL     OW  124   1.760   1.754   0.570  0.7405 -0.4552 -0.1911
   42SOL    HW1  125   1.735   1.657   0.547  1.5009  0.0333  0.6774
   42SOL    HW2  126   1.759   1.810   0.480 -2.0805  0.3288  0.0144
   43SOL     OW  127   0.467   1.712   1.102  0.3471  0.0318 -0.5163
   43SOL    HW1  128   0.494   1.625   1.147  1.6341  2.3634  0.0862
   43SOL    HW2  129   0.373   1.712   1.052  1.0220  0.0896 -2.1120
   44SOL     OW  130   1.820   2.478   3.045 -0.2171  0.1588  0.2929
   44SOL    HW1  131   1.826   2.569   2.985  0.6011 -1.3009  0.5217
   44SOL    HW2  132   1.914   2.448   3.085 -0.2346 -0.8349  3.1041
   45SOL     OW  133   0.306   1.912   2.604  0.1105  0.2757  0.1563
   45SOL    HW1  134   0.243   1.909   2.523 -1.2408 -1.5327 -0.7957
   45SOL    HW2  135   0.383   1.845   2.594 -0.0287 -2.8163  0.8511
   46SOL     OW  136   1.205   0.646   0.153 -0.1443 -0.1836 -0.0701
   46SOL    HW1  137   1.268   0.723   0.122  0.0028 -0.4969 -1.7834
   46SOL    HW2  138   1.121   0.676   0.208 -1.4471  1.3521  1.8963
   47SOL     OW  139   0.185   2.454   1.638  0.1164  0.3145  0.1783
   47SOL    HW1  140   0.262   2.381   1.625  2.3161  1.0562  1.0207
   47SOL    HW2  141   0.144   2.490   1.555  0.0087 -1.8243  2.1376
   48SOL     OW  142   2.613   0.595   0.144 -0.0077  0.4098  0.3024
   48SOL    HW1  143   2.566   0.585   0.235 -0.4227  0.3798 -4.4191
   48SOL    HW2  144   2.714   0.634   0.154  2.0280 -1.4047 -3.7255
   49SOL     OW  145   0.359   0.773   1.699 -0.1995 -0.2422  0.1811
   49SOL    HW1  146   0.423   0.774   1.780  0.3325  0.1217 -3.2611
   49SOL    HW2  147   0.386   0.705   1.627  1.0745 -0.0784  1.8668
   50SOL     OW  148   1.659   1.126   0.304  0.0606 -0.2786  0.0286
   50SOL    HW1  149   1.628   1.029   0.283 -0.4804  0.1504  0.7327
   50SOL    HW2  150   1.611   1.162   0.397 -0.7377 -0.7237  1.0865
   51SOL     OW  151   2.925   1.881   0.329 -0.7829 -0.6650  0.7843
   51SOL    HW1  152   2.883   1.847   0.241 -0.5109 -0.7200  1.3421
   51SOL    HW2  153   3.017   1.842   0.345  0.2825 -0.3552  0.3228
   52SOL     OW  154   0.829   1.918   0.463 -0.0945  0.0785 -0.0432
   52SOL    HW1  155   0.744   1.973   0.485  1.6989 -1.0258  0.7061
   52SOL    HW2  156   0.850   1.846   0.538  1.2221 -0.2879  2.2146
   53SOL     OW  157   3.094   0.370   1.560  0.2207  0.5875  0.3092
   53SOL    HW1  158   3.096   0.412   1.658  0.8326 -0.8678  1.2304
   53SOL    HW2  159   3.034   0.425   1.491 -2.9224  0.9224 -2.2941
   54SOL     OW  160   1.775   0.454   3.075  0.1742  0.1597  0.1222
   54SOL    HW1  161   1.804   0.385   3.151  0.4158  0.4027 -1.8941
   54SOL    HW2  162   1.674   0.471   3.070  1.8510  2.2502 -0.6878
   55SOL     OW  163   0.746   2.906   0.636 -0.2419 -0.6155  1.1431
   55SOL    HW1  164   0.718   3.000   0.605  1.6979 -0.7112 -1.6180
   55SOL    HW2  165   0.847   2.890   0.612  1.8089  2.3168  0.4620
   56SOL     OW  166   0.438   1.571   3.047  0.5970 -0.5555 -0.1463
   56SOL    HW1  167   0.355   1.625   3.089 -2.0961  2.3151  4.0877
   56SOL    HW2  168   0.411   1.478   3.014 -1.6594  1.5685  2.8096
   57SOL     OW  169   1.813   2.512   2.673  0.0761 -0.0814  0.3577
   57SOL    HW1  170   1.841   2.477   2.578  0.4656 -1.5630 -1.3888
   57SOL    HW2  171   1.715   2.484   2.690  1.6393 -0.8006  0.0164
   58SOL     OW  172   0.653   0.379   1.062 -0.5211 -0.0802 -0.4563
   58SOL    HW1  173   0.597   0.463   1.057  1.8775 -2.5145 -0.8925
   58SOL    HW2  174   0.597   0.293   1.073  2.8542 -3.6321  0.4874
   59SOL     OW  175   0.407   2.369   2.759 -0.2083  0.8879  0.0496
   59SOL    HW1  176   0.418   2.272   2.723  1.0207 -0.8216 -0.7289
   59SOL    HW2  177   0.492   2.404   2.808 -1.3581 -0.8002  1.1132
   60SOL     OW  178   2.327   2.075   2.227 -0.3945 -0.1420 -0.4637
   60SOL    HW1  179   2.422   2.086   2.181 -0.9071 -2.0127  1.1932
   60SOL    HW2  180   2.317   2.094   2.328 -1.1888 -1.5335 -2.1282
   61SOL     OW  181   1.294   0.584   0.528 -0.2597 -0.4736  0.3947
   61SOL    HW1  182   1.231   0.649   0.577  3.6153 -0.5353 -1.2713
   61SOL    HW2  183   1.303   0.597   0.428 -0.8677 -3.7807  1.5527
   62SOL     OW  184   2.665   1.780   2.945  0.2135 -0.0166 -0.3022
   62SOL    HW1  185   2.665   1.678   2.968  1.4846  1.1875 -1.7323
   62SOL    HW2  186   2.748   1.804   2.891  1.7956 -1.5897 -2.6231
   63SOL     OW  187   0.579   0.921   0.157  0.2259  0.5760 -0.0771
   63SOL    HW1  188   0.536   1.017   0.164  3.6457  2.4051  1.0039
   63SOL    HW2  189   0.628   0.904   0.249 -1.4125 -0.1331  1.2355
   64SOL     OW  190   0.069   0.576   2.544  0.6089  0.1511 -0.2497
   64SOL    HW1  191   0.082   0.579   2.653 -2.5727  2.6602  2.7624
   64SOL    HW2  192   0.039   0.664   2.501  0.3622  0.7877  0.6904
   65SOL     OW  193   0.196   1.484   0.553  0.4846  0.1316 -0.0394
   65SOL    HW1  194   0.223   1.537   0.632 -2.1922 -2.0058 -2.8954
   65SOL    HW2  195   0.272   1.448   0.493 -1.0249 -0.6361  0.4679
   66SOL     OW  196   2.514   0.433   0.610  0.3554  0.0044 -0.3457
   66SOL    HW1  197   2.458   0.497   0.674 -1.0574 -2.9428 -0.8981
   66SOL    HW2  198   2.520   0.334   0.642  2.5264  0.1409 -0.1504
   67SOL     OW  199   0.549   2.512   1.394  0.2446  0.6004 -0.4052
   67SOL    HW1  200   0.599   2.467   1.472  2.7587  0.7539 -1.3227
   67SOL    HW2  201   0.497   2.448   1.328  0.9813 -0.5757  0.2961
   68SOL     OW  202   1.018   1.100   2.455  0.0473 -0.2175 -0.3096
   68SOL    HW1  203   1.051   1.013   2.412  2.9591 -0.6703  2.2462
   68SOL    HW2  204   0.941   1.148   2.404 -1.1861  0.8692  1.1299
   69SOL     OW  205   0.779   2.765   2.180  0.5233 -0.5926  0.5098
   69SOL    HW1  206   0.787   2.667   2.189  0.1099  3.1117 -0.3922
   69SOL    HW2  207   0.682   2.799   2.161  1.2402  1.9147  1.2008
   70SOL     OW  208   0.635   0.280   2.708 -0.4083 -0.1389  0.1586
   70SOL    HW1  209   0.625   0.326   2.796 -1.4913 -1.9337 -1.3696
   70SOL    HW2  210   0.601   0.184   2.718 -2.4960  3.4219  1.0785
   71SOL     OW  211   1.057   1.777   0.332 -0.2754 -0.0904 -0.4052
   71SOL    HW1  212   0.999   1.698   0.360  0.3710 -0.9590  1.3662
   71SOL    HW2  213   1.036   1.826   0.244  0.0507  0.1118  2.3116
   72SOL     OW  214   1.768   0.149   2.028 -0.2393  0.9973  0.0471
   72SOL    HW1  215   1.823   0.167   1.941  1.6107 -0.6134  2.5245
   72SOL    HW2  216   1.779   0.047   2.059  1.2397 -1.4737  0.1256
   73SOL     OW  217   2.781   2.161   2.489  0.0895  0.0614 -0.6064
   73SOL    HW1  218   2.734   2.066   2.488  2.7689  2.0923 -1.1069
   73SOL    HW2  219   2.813   2.193   2.577  1.9486 -1.1225 -2.2177
   74SOL     OW  220   2.719   2.941   2.022  0.2748 -0.4354 -0.2271
   74SOL    HW1  221   2.634   2.940   2.086 -0.4257 -2.7307  3.1652
   74SOL    HW2  222   2.811   2.955   2.079  2.4526  2.3515  1.1739
   75SOL     OW  223   0.959   0.764   1.032 -0.2736  0.0230  0.6058
   75SOL    HW1  224   0.868   0.794   1.001 -0.7465 -1.1796 -2.3818
   75SOL    HW2  225   0.999   0.829   1.106 -0.0729  2.9722  2.5482
   76SOL     OW  226   1.714   1.255   2.552 -0.9218  0.2469 -0.2359
   76SOL    HW1  227   1.621   1.219   2.545  1.6620  0.0311 -1.5294
   76SOL    HW2  228   1.716   1.353   2.594 -0.4343  1.8439  1.3173
   77SOL     OW  229   2.925   0.956   0.971  0.0981 -0.4144 -0.3265
   77SOL    HW1  230   2.938   0.852   0.949  2.4373  0.9841  1.2980
   77SOL    HW2  231   2.966   0.990   1.062  0.1392  0.3883 -1.8375
   78SOL     OW  232   2.061   1.397   1.529 -0.1888 -0.4551  0.2109
   78SOL    HW1  233   2.158   1.421   1.520 -1.1198 -0.0848  1.8958
   78SOL    HW2  234   2.016   1.349   1.451  1.3925  1.9153 -1.3815
   79SOL     OW  235   0.638   1.314   0.858  0.4446 -0.0967  0.5451
   79SOL    HW1  236   0.537   1.310   0.889 -0.2566 -1.9375  0.6025
   79SOL    HW2  237   0.649   1.299   0.752 -0.8240  3.6511  1.3582
   80SOL     OW  238   0.681   0.473   1.609 -0.3746  0.2778  0.1404
   80SOL    HW1  239   0.754   0.546   1.616  1.2664  0.0585 -0.0606
   80SOL    HW2  240   0.720   0.379   1.601  1.6004 -0.7081  0.1958
   81SOL     OW  241   1.058   1.376   2.599 -0.0050  0.3915  0.2379
   81SOL    HW1  242   1.077   1.278   2.566 -1.3137  4.7498 -0.2396
   81SOL    HW2  243   0.984   1.421   2.544  1.1753  1.6755  0.4069
   82SOL     OW  244   0.947   2.948   1.507 -0.5143  0.0727 -0.0789
   82SOL    HW1  245   0.961   3.013   1.428 -1.1041 -1.4128  1.6704
   82SOL    HW2  246   0.871   2.879   1.489  1.9675 -1.8267  3.1138
   83SOL     OW  247   2.697   2.477   0.851  0.2857  0.0788 -0.1790
   83SOL    HW1  248   2.616   2.427   0.817 -1.3275 -0.7871  2.2057
   83SOL    HW2  249   2.705   2.577   0.820 -0.5468  1.7021  0.4202
   84SOL     OW  250   0.706   3.089   2.321 -0.5722 -0.1398 -0.2827
   84SOL    HW1  251   0.659   3.005   2.365  1.9151  0.8579  0.1217
   84SOL    HW2  252   0.807   3.095   2.330 -1.1893  2.7009  0.2035
   85SOL     OW  253   0.372   1.611   1.545 -0.7216  0.1260 -0.4848
   85SOL    HW1  254   0.318   1.703   1.532 -0.8056 -0.3512  3.3374
   85SOL    HW2  255   0.354   1.583   1.645  0.8009 -0.1079 -1.9493
   86SOL     OW  256   0.361   0.961   1.505  0.4558 -0.0953  0.1415
   86SOL    HW1  257   0.322   0.916   1.421 -0.6024  0.2567  0.3754
   86SOL    HW2  258   0.373   0.898   1.583 -0.8582  0.1821  0.0742
   87SOL     OW  259   1.549   0.657   0.194  0.5107 -0.0516 -0.5102
   87SOL    HW1  260   1.626   0.717   0.220  1.2544  1.5317 -0.1038
   87SOL    HW2  261   1.542   0.635   0.092 -2.5210  0.1423 -1.6349
   88SOL     OW  262   1.564   1.386   0.244  0.3070  0.7540 -0.0433
   88SOL    HW1  263   1.596   1.289   0.245 -2.7991  0.4111  1.9200
   88SOL    HW2  264   1.469   1.397   0.274  3.6795 -1.1453  0.3447
   89SOL     OW  265   0.030   0.410   0.600  0.1402  0.0268 -0.1750
   89SOL    HW1  266   0.091   0.337   0.562  1.6157  0.3983 -0.8640
   89SOL    HW2  267  -0.070   0.398   0.573  1.4078 -1.1915 -0.3946
   90SOL     OW  268   0.915   1.553   3.076 -0.1110  0.1120  0.5411
   90SOL    HW1  269   0.831   1.560   3.142 -1.7129  0.4878  1.4156
   90SOL    HW2  270   0.892   1.583   2.980 -0.1223  0.7464  1.4938
   91SOL     OW  271   1.274   1.423   1.818 -0.2233 -0.3159 -0.4378
   91SOL    HW1  272   1.265   1.510   1.872 -1.0935  0.5955 -0.2028
   91SOL    HW2  273   1.356   1.415   1.751  1.1404  0.6619 -2.1254
   92SOL     OW  274   3.052   0.998   1.204  0.5036 -0.1554  0.1301
   92SOL    HW1  275   3.122   1.061   1.161 -0.4818  0.0964 -1.5083
   92SOL    HW2  276   3.087   0.983   1.305  1.8483  1.0800 -0.6964
   93SOL     OW  277   3.083   2.734   0.030 -0.4688  0.0260 -0.6570
   93SOL    HW1  278   3.044   2.739  -0.066  1.1795  3.4476 -0.3297
   93SOL    HW2  279   3.124   2.641   0.052  2.2719  2.2641  2.2414
   94SOL     OW  280   1.550   1.474   1.690  0.0833  0.3611  0.5904
   94SOL    HW1  281   1.560   1.377   1.730 -0.6035 -1.8118  1.6122
   94SOL    HW2  282   1.585   1.550   1.750 -1.7449  1.2036 -0.6392
   95SOL     OW  283   1.342   2.528   3.012  0.8023 -0.4979  0.1415
   95SOL    HW1  284   1.252   2.498   3.056 -1.1581  1.3778 -2.4034
   95SOL    HW2  285   1.379   2.451   2.950 -0.4884  0.8704  1.7499
   96SOL     OW  286   0.531   2.023   1.294 -0.5685  0.5621  0.4598
   96SOL    HW1  287   0.496   2.022   1.197  3.7614 -2.3572 -0.1681
   96SOL    HW2  288   0.595   1.943   1.313  0.2097  0.2973 -0.9407
   97SOL     OW  289   0.388   1.593   2.450  0.4455  0.6189 -0.1882
   97SOL    HW1  290   0.305   1.554   2.502  0.5306 -0.6651 -0.5174
   97SOL    HW2  291   0.436   1.672   2.498  0.1606  2.0794 -0.4159
   98SOL     OW  292   1.956   1.589   1.259  0.3099 -0.2879 -0.5331
   98SOL    HW1  293   1.884   1.558   1.325 -0.1390  0.9713  1.8045
   98SOL    HW2  294   1.973   1.516   1.180 -0.7706 -0.0551 -0.4692
   99SOL     OW  295   2.483   2.109   1.372  0.4675  0.3333  0.1393
   99SOL    HW1  296   2.454   2.159   1.458  0.1649  0.9699 -0.7521
   99SOL    HW2  297   2.457   2.008   1.363  1.9721 -0.5066  0.3411
  100SOL     OW  298   2.296   0.388   2.087  0.0014  0.0084 -0.0294
  100SOL    HW1  299   2.248   0.344   2.162  0.5506  0.0468 -1.6184
  100SOL    HW2  300   2.390   0.414   2.113 -3.0280 -1.1364  0.1000
  101SOL     OW  301   0.377   1.491   0.249 -0.2214  0.2661  0.1796
  101SOL    HW1  302   0.451   1.506   0.317 -0.6264  1.2293 -2.0444
  101SOL    HW2  303   0.394   1.544   0.162 -0.2269 -0.2359  1.1561
  102SOL     OW  304   2.323   1.018   0.834 -0.3207 -0.3744  0.0679
  102SOL    HW1  305   2.228   0.988   0.814  0.6351 -2.6468 -1.4020
  102SOL    HW2  306   2.339   1.116   0.793 -1.1792 -0.3852 -0.3770
  103SOL     OW  307   2.283  -0.000   0.409 -0.0673 -0.0889  0.0006
  103SOL    HW1  308   2.305   0.099   0.378  1.1961 -0.8903  1.1202
  103SOL    HW2  309   2.349  -0.041   0.477  1.5101  1.2155  0.8071
  104SOL     OW  310   0.082   1.742   2.205 -0.1880 -0.5556 -0.2204
  104SOL    HW1  311   0.130   1.678   2.151 -0.8302  1.1209  2.0101
  104SOL    HW2  312  -0.017   1.750   2.177  0.1037  1.4936  2.3418
  105SOL     OW  313   1.261   2.074   0.804  0.3657  0.8821 -0.3787
  105SOL    HW1  314   1.194   2.124   0.741  2.3967  1.5452 -1.8816
  105SOL    HW2  315   1.280   1.976   0.771  0.9352  0.6913 -0.6641
  106SOL     OW  316   2.141   0.550   1.372 -0.0918 -0.0090  0.4790
  106SOL    HW1  317   2.121   0.476   1.443  0.3619  1.3623 -0.0760
  106SOL    HW2  318   2.130   0.647   1.408  2.7733 -0.2606  1.1892
  107SOL     OW  319   1.758   3.007   1.096  0.1489 -0.2024  0.5724
  107SOL    HW1  320   1.771   3.104   1.126 -0.3883  1.4209 -0.1788
  107SOL    HW2  321   1.717   2.950   1.172 -1.5332  0.9904 -1.8495
  108SOL     OW  322   0.817   2.761   1.223 -0.1154  0.1507 -0.4560
  108SOL    HW1  323   0.779   2.755   1.319  0.5796 -1.5811 -1.9373
  108SOL    HW2  324   0.917   2.783   1.225 -0.7593  0.1021  0.2916
  109SOL     OW  325   2.230   0.152   0.785  0.4124 -0.0163 -0.2952
  109SOL    HW1  326   2.132   0.121   0.776  3.1504 -1.2117 -0.8638
  109SOL    HW2  327   2.259   0.179   0.880  1.2154  0.2882 -1.9089
  110SOL     OW  328   0.444   2.821   2.727  0.5169  0.7829  0.4857
  110SOL    HW1  329   0.446   2.833   2.623 -2.2556  1.1394 -0.3832
  110SOL    HW2  330   0.511   2.749   2.760  0.6836 -2.1197 -0.5890
  111SOL     OW  331   1.317   0.528   2.284  0.1266 -0.5992  0.0814
  111SOL    HW1  332   1.243   0.560   2.345  1.2252  0.5939  1.3620
  111SOL    HW2  333   1.370   0.442   2.316  1.3778 -0.3871 -2.4799
  112SOL     OW  334   1.751   0.504   1.472 -0.0031 -0.4395 -0.4140
  112SOL    HW1  335   1.747   0.473   1.373 -0.2189 -1.9535  1.6443
  112SOL    HW2  336   1.711   0.429   1.538 -0.6705 -0.4173  0.5803
  113SOL     OW  337   2.263   1.627   1.759 -0.1504  0.2510  0.2262
  113SOL    HW1  338   2.324   1.558   1.707 -1.4004 -1.7870 -1.0005
  113SOL    HW2  339   2.292   1.649   1.855  0.2824  1.7646  0.1974
  114SOL     OW  340   0.362   0.527   1.260  0.5280 -0.2473 -0.2298
  114SOL    HW1  341   0.366   0.630   1.239  0.4104  1.2142 -1.3827
  114SOL    HW2  342   0.300   0.479   1.191 -2.4224 -0.7471 -3.0421
  115SOL     OW  343   2.732   1.641   1.262  0.9815  0.2509 -0.1466
  115SOL    HW1  344   2.744   1.541   1.276  1.8826  2.0897 -0.2760
  115SOL    HW2  345   2.757   1.673   1.165  0.0152 -0.0415 -1.4728
  116SOL     OW  346   1.809   1.009   0.713  0.5697 -0.1124  0.2049
  116SOL    HW1  347   1.731   0.958   0.663  0.1784  1.6885  1.6860
  116SOL    HW2  348   1.783   1.093   0.768  2.2388  1.0855 -2.6280
  117SOL     OW  349   1.155   0.405   0.681  0.4679  0.5708 -0.3563
  117SOL    HW1  350   1.206   0.416   0.768 -1.2515  0.6180 -0.0667
  117SOL    HW2  351   1.194   0.473   0.609  0.8916 -0.1925 -0.8125
  118SOL     OW  352   1.098   1.147   1.072 -0.3344 -0.3466 -0.2263
  118SOL    HW1  353   1.071   1.062   1.118  3.8067  3.8090 -0.7877
  118SOL    HW2  354   1.125   1.222   1.140 -2.0998  0.9779  2.6325
  119SOL     OW  355   1.850   1.614   2.114 -0.7070  0.3872 -0.3480
  119SOL    HW1  356   1.816   1.709   2.135  2.5332 -0.0907  1.1300
  119SOL    HW2  357   1.956   1.607   2.117  5.4634  1.8955 -0.4221
  120SOL     OW  358   2.958   2.844   0.242  0.0077  0.2539 -0.5289
  120SOL    HW1  359   2.993   2.809   0.146 -1.2041 -0.3506 -0.0506
  120SOL    HW2  360   2.900   2.773   0.282 -2.9558  0.4869 -0.6071
  121SOL     OW  361   2.011   0.763   2.287  0.2920  0.1632 -0.4947
  121SOL    HW1  362   2.014   0.826   2.202  1.7136  0.8407 -1.5440
  121SOL    HW2  363   2.012   0.662   2.266 -0.4930  2.7230 -0.0273
  122SOL     OW  364   2.629   2.664   1.247 -1.3070  0.4471 -0.2161
  122SOL    HW1  365   2.660   2.581   1.200 -1.4921  0.2550  1.9621
  122SOL    HW2  366   2.581   2.733   1.180 -0.5909  2.5189 -4.1231
  123SOL     OW  367   1.735   0.062   1.681 -0.0909  0.0308 -0.1608
  123SOL    HW1  368   1.771  -0.024   1.628  3.3339 -1.5144 -2.1045
  123SOL    HW2  369   1.810   0.124   1.711 -0.9919  0.5911  1.2458
  124SOL     OW  370   0.121   0.413   1.106 -0.1362 -0.1460  0.2198
  124SOL    HW1  371   0.086   0.498   1.162  2.1358 -0.9248  1.8726
  124SOL    HW2  372   0.086   0.430   1.007 -0.1217  0.4525 -3.1097
  125SOL     OW  373   0.846   1.738   0.678 -0.0042  1.3611 -0.1320
  125SOL    HW1  374   0.948   1.740   0.653 -1.0860  1.4256  0.4418
  125SOL    HW2  375   0.828   1.706   0.776 -2.2516 -0.3642  0.4149
  126SOL     OW  376   1.917   2.359   2.435 -0.1802 -0.3398  0.0608
  126SOL    HW1  377   2.002   2.313   2.394  1.1876 -1.3149  1.2518
  126SOL    HW2  378   1.834   2.297   2.429 -0.4253 -1.2524  1.2417
  127SOL     OW  379   0.827   0.909   0.314  0.0724  0.0609  0.4935
  127SOL    HW1  380   0.895   0.946   0.383  0.4189  0.4001  0.7898
  127SOL    HW2  381   0.851   0.818   0.270  3.8636 -0.2093  0.3855
  128SOL     OW  382   0.953   0.187   1.368  0.3191 -0.1108  0.4081
  128SOL    HW1  383   0.920   0.280   1.336  0.5230 -2.7602 -0.1352
  128SOL    HW2  384   0.880   0.120   1.350  2.8211  1.4921 -0.0984
  129SOL     OW  385   1.829   0.688   1.876 -0.6624 -0.1462  0.7466
  129SOL    HW1  386   1.852   0.702   1.775 -1.2463  3.3498 -3.7196
  129SOL    HW2  387   1.861   0.771   1.928 -0.9353 -0.2071 -2.7317
  130SOL     OW  388   1.342   2.230   1.029  0.2132  0.1754 -0.3176
  130SOL    HW1  389   1.317   2.162   0.957  1.8754 -0.0346  2.7409
  130SOL    HW2  390   1.418   2.294   0.998  0.7297 -0.6825  1.9296
  131SOL     OW  391   3.096   1.467   1.397 -0.2916 -0.8867 -0.3793
  131SOL    HW1  392   3.033   1.382   1.409 -0.4863 -1.8222 -0.4251
  131SOL    HW2  393   3.200   1.453   1.403 -1.1957  3.0565  0.3312
  132SOL     OW  394   2.011   2.424   0.509 -0.0927  0.2985  0.3945
  132SOL    HW1  395   1.906   2.428   0.511 -1.5980  2.8220 -0.1205
  132SOL    HW2  396   2.047   2.387   0.595  2.2174  1.7295 -0.9445
  133SOL     OW  397   1.872   2.274   2.816 -0.6632  0.0805 -1.2905
  133SOL    HW1  398   1.838   2.283   2.912  0.1034  0.8320 -1.6978
  133SOL    HW2  399   1.863   2.363   2.760  1.3268 -1.0120 -2.0158
  134SOL     OW  400   2.701   2.346   1.621 -0.6159 -0.2240  0.1908
  134SOL    HW1  401   2.649   2.327   1.707  0.1694 -3.7392 -1.4938
  134SOL    HW2  402   2.770   2.425   1.629 -1.9743  1.1386 -0.9767
  135SOL     OW  403   0.712   1.515   2.649 -0.0518  0.8266  0.6097
  135SOL    HW1  404   0.668   1.421   2.672 -0.9758 -5.0647  0.0007
  135SOL    HW2  405   0.776   1.517   2.564 -1.2637 -0.6126 -0.1905
  136SOL     OW  406   1.196   1.992   0.444 -0.3163 -1.0710  0.2292
  136SOL    HW1  407   1.141   2.056   0.510  1.2607  0.0075  1.9309
  136SOL    HW2  408   1.136   1.909   0.421  0.0329  1.1450  1.3886
  137SOL     OW  409   0.368   1.139   2.121  0.0646  0.2294  0.5891
  137SOL    HW1  410   0.294   1.161   2.187  0.9118  0.4684 -1.8027
  137SOL    HW2  411   0.439   1.076   2.165 -2.2498 -1.4379  0.1989
  138SOL     OW  412   2.424   1.484   0.250  0.0092 -0.1035  0.6044
  138SOL    HW1  413   2.346   1.431   0.203 -1.4600  2.5579  1.0252
  138SOL    HW2  414   2.494   1.419   0.292 -0.1241 -1.7308 -0.3536
  139SOL     OW  415   1.813   2.665   1.276  0.0740 -0.5280  0.2717
  139SOL    HW1  416   1.732   2.641   1.215  2.1260  0.6956  4.5427
  139SOL    HW2  417   1.855   2.578   1.318  1.5225  1.5445  0.1309
  140SOL     OW  418   3.016   2.954   2.620 -0.2636 -0.9644  0.0453
  140SOL    HW1  419   3.069   2.867   2.624  1.2421  2.4317 -0.7510
  140SOL    HW2  420   3.035   3.012   2.703 -3.7173 -0.7061  0.5304
  141SOL     OW  421   1.262   1.712   1.604  0.3389 -0.1087 -0.2523
  141SOL    HW1  422   1.175   1.754   1.650  0.4813  0.6180  0.7792
  141SOL    HW2  423   1.322   1.655   1.668  1.3193  2.3438  0.0661
  142SOL     OW  424   1.573   0.614   2.180 -0.6785  0.3231 -0.0181
  142SOL    HW1  425   1.577   0.583   2.080  0.1292 -1.1561 -1.3099
  142SOL    HW2  426   1.478   0.604   2.216 -1.5669  1.4883  0.4809
  143SOL     OW  427   2.738   0.875   0.498  0.0080 -0.0378  0.1783
  143SOL    HW1  428   2.782   0.929   0.420  1.0435 -0.5935  1.2728
  143SOL    HW2  429   2.760   0.927   0.586 -3.8530 -1.6387 -0.4824
  144SOL     OW  430   2.938   1.250   1.439 -0.2820 -0.5395  0.2891
  144SOL    HW1  431   2.881   1.215   1.520 -0.5903 -1.1204  0.2710
  144SOL    HW2  432   3.014   1.182   1.418 -0.0268 -2.2887  1.1925
  145SOL     OW  433   1.014   1.848   0.066 -0.1870  0.2147  0.8970
  145SOL    HW1  434   1.021   1.925  -0.005  1.0436  1.9927  1.9659
  145SOL    HW2  435   1.010   1.754   0.026 -1.6831  0.8430  1.5434
  146SOL     OW  436   2.452   0.660   1.529 -0.1274  0.1152  0.0033
  146SOL    HW1  437   2.425   0.586   1.454  1.4673 -3.3177  0.7887
  146SOL    HW2  438   2.408   0.748   1.502  0.4265 -2.7712  0.9015
  147SOL     OW  439   1.112   2.450   0.584 -0.1883  0.1465  0.3985
  147SOL    HW1  440   1.081   2.514   0.514 -1.3353 -1.1357 -0.4587
  147SOL    HW2  441   1.209   2.416   0.566  2.3182  0.5280  2.4564
  148SOL     OW  442   1.641   1.451   3.076  0.2550 -0.4974 -0.4811
  148SOL    HW1  443   1.669   1.382   3.004 -0.6007  0.4186  1.4854
  148SOL    HW2  444   1.624   1.405   3.166  0.2131  3.1844  1.5814
  149SOL     OW  445   0.720   1.437   1.925  0.1184  0.8716  0.7170
  149SOL    HW1  446   0.640   1.403   1.989 -0.9278  1.2612  0.2174
  149SOL    HW2  447   0.727   1.378   1.837  0.2488  1.9553  0.0025
  150SOL     OW  448   3.032   1.250   0.949  0.1808  0.2997  0.7940
  150SOL    HW1  449   3.117   1.244   1.006  0.9527 -2.5359 -0.6135
  150SOL    HW2  450   2.983   1.158   0.953  1.0695  0.8399 -2.2669
  151SOL     OW  451   0.188   0.776   2.112  0.2892  0.1255 -0.8614
  151SOL    HW1  452   0.199   0.827   2.024  3.1026  0.5115 -1.1386
  151SOL    HW2  453   0.230   0.685   2.099  1.8526 -0.2011  0.1157
  152SOL     OW  454   1.361   1.764   1.285  0.3802  0.7172  0.2661
  152SOL    HW1  455   1.374   1.855   1.334  0.2276  3.3828  1.6571
  152SOL    HW2  456   1.259   1.744   1.269  0.0049  1.9941 -1.3028
  153SOL     OW  457   0.045   1.556   0.171 -0.5329  0.2604 -0.2297
  153SOL    HW1  458   0.057   1.455   0.184 -1.1740  0.3123 -0.6947
  153SOL    HW2  459   0.043   1.610   0.259 -2.6810  0.3409 -2.6451
  154SOL     OW  460   2.348   1.856   2.821 -0.6591 -0.2203 -0.5767
  154SOL    HW1  461   2.386   1.757   2.807 -1.5584 -1.4928 -0.2183
  154SOL    HW2  462   2.424   1.929   2.833  1.2446 -1.4605 -3.0223
  155SOL     OW  463   2.443   1.232   0.379 -0.7078 -0.0220  1.0505
  155SOL    HW1  464   2.519   1.211   0.315 -1.3257 -0.4352 -0.7233
  155SOL    HW2  465   2.356   1.195   0.346  0.5645  0.8181  2.8754
  156SOL     OW  466   2.573   0.949   0.897 -0.3081  0.0191 -0.2471
  156SOL    HW1  467   2.474   0.968   0.872  1.2010  1.4742  3.1343
  156SOL    HW2  468   2.626   1.041   0.890  0.0133  0.2301 -0.4421
  157SOL     OW  469   1.233   2.990   3.017  0.5798  0.3538  0.4797
  157SOL    HW1  470   1.281   2.968   2.928  2.7708  0.9488  0.4017
  157SOL    HW2  471   1.241   3.085   3.056 -0.3254  1.6242 -0.1502
  158SOL     OW  472   1.000   1.856   2.001  0.0921 -0.5955  0.4066
  158SOL    HW1  473   1.058   1.942   1.992 -1.3886  1.0965 -1.3520
  158SOL    HW2  474   0.911   1.883   2.053  2.2029 -2.2642  0.3708
  159SOL     OW  475   0.853   0.448   1.270  0.1541 -0.3906 -0.7731
  159SOL    HW1  476   0.819   0.537   1.317  3.5856  1.7417 -0.5151
  159SOL    HW2  477   0.792   0.424   1.189  2.5061  2.1577 -0.9226
  160SOL     OW  478   1.443   2.416   1.684  0.3324 -0.3306 -0.1223
  160SOL    HW1  479   1.440   2.516   1.651 -1.2522  1.2175  2.2100
  160SOL    HW2  480   1.483   2.345   1.620  3.0744  1.6368 -1.6402
  161SOL     OW  481   0.130   2.897   0.321 -0.5355 -0.0145  0.2254
  161SOL    HW1  482   0.043   2.856   0.313  0.2748 -2.1007 -0.0101
  161SOL    HW2  483   0.149   2.964   0.244  1.3433  1.7410 -0.1583
  162SOL     OW  484   2.573   1.921   0.438 -0.8923 -0.1806 -0.5070
  162SOL    HW1  485   2.579   1.871   0.344  3.3102  3.6833 -1.1099
  162SOL    HW2  486   2.546   1.856   0.512  1.4741  0.3806  1.1429
  163SOL     OW  487   1.959   2.706   0.772 -0.5937  0.8133  0.5045
  163SOL    HW1  488   1.916   2.693   0.678 -2.5206  1.6008  0.5830
  163SOL    HW2  489   2.047   2.651   0.782  0.6659 -1.5902 -0.0724
  164SOL     OW  490   3.042   0.222   1.200 -0.2864 -0.7717 -0.9171
  164SOL    HW1  491   3.111   0.287   1.152  0.3875  0.6238 -3.1626
  164SOL    HW2  492   3.089   0.175   1.281  1.4237 -0.1610  1.1801
  165SOL     OW  493   0.935   1.429   0.660  0.1140 -0.2610 -0.2278
  165SOL    HW1  494   0.904   1.498   0.730  2.5570 -1.6801 -0.5996
  165SOL    HW2  495   0.914   1.459   0.566 -0.3892 -2.3133  0.6209
  166SOL     OW  496   1.473   1.092   1.729  0.3069 -0.0967  0.5485
  166SOL    HW1  497   1.403   1.031   1.784 -3.3056  0.0980  3.7173
  166SOL    HW2  498   1.559   1.115   1.786  1.9983  0.8333  0.5200
  167SOL     OW  499   0.776   1.898   1.491 -0.0929  0.2687 -0.2394
  167SOL    HW1  500   0.776   1.978   1.557  0.1545 -2.1179 -0.7195
  167SOL    HW2  501   0.708   1.822   1.516  0.2975 -1.2069 -0.4323
  168SOL     OW  502   1.640   2.395   0.135  0.0402  0.4084 -0.2738
  168SOL    HW1  503   1.685   2.446   0.056  3.4542 -1.0692  3.3813
  168SOL    HW2  504   1.698   2.314   0.158  1.8082  2.2704 -0.1249
  169SOL     OW  505   0.222   2.595   2.233 -0.5839 -0.4358  0.1005
  169SOL    HW1  506   0.193   2.539   2.150 -3.6807 -1.2649  1.3284
  169SOL    HW2  507   0.291   2.541   2.294  1.2833 -0.1946  0.9314
  170SOL     OW  508   1.239   0.297   1.952 -0.2736 -0.2021  0.4675
  170SOL    HW1  509   1.271   0.270   2.046  0.1532  2.2786  0.2339
  170SOL    HW2  510   1.203   0.212   1.900 -2.1228 -1.3432  1.8214
  171SOL     OW  511   0.217   0.830   2.373  0.0645  0.3851 -0.3004
  171SOL    HW1  512   0.135   0.861   2.429 -1.0669 -1.8498 -0.5084
  171SOL    HW2  513   0.194   0.833   2.275  0.9859 -1.2263 -0.0032
  172SOL     OW  514   0.912   1.113   2.946  0.2669 -0.1543 -0.2891
  172SOL    HW1  515   1.006   1.157   2.974  1.0499  2.1202 -0.3213
  172SOL    HW2  516   0.896   1.111   2.841 -0.3717 -2.3572 -0.6761
  173SOL     OW  517   0.670   2.680   0.069 -0.4992  0.2149 -0.2248
  173SOL    HW1  518   0.668   2.787   0.094 -1.2367  2.1805  1.1120
  173SOL    HW2  519   0.576   2.634   0.082 -0.0024  1.4345 -2.2225
  174SOL     OW  520   1.396   2.851   1.065  0.0543  0.6133  0.0879
  174SOL    HW1  521   1.387   2.937   1.002  0.1128 -0.0838 -0.7300
  174SOL    HW2  522   1.362   2.768   1.015  1.7505  1.3718 -1.0041
  175SOL     OW  523   0.408   0.059   1.643  0.0268 -0.2769  0.4039
  175SOL    HW1  524   0.479   0.118   1.693  1.5256 -1.7464  1.3564
  175SOL    HW2  525   0.338   0.121   1.591 -0.6381  2.5013  0.4688
  176SOL     OW  526   2.552   0.387   3.084  0.6838  0.1412 -0.5011
  176SOL    HW1  527   2.567   0.476   3.134  0.3277 -0.2475 -2.7196
  176SOL    HW2  528   2.472   0.320   3.104 -1.3654 -3.5519 -2.7184
  177SOL     OW  529   0.351   0.288   0.945  0.1480 -0.0210  0.4537
  177SOL    HW1  530   0.391   0.222   1.019 -2.0874 -0.0233  1.2029
  177SOL    HW2  531   0.250   0.320   0.968 -0.5645 -1.2383  2.8841
  178SOL     OW  532   0.025   2.692   2.621 -0.1147 -0.5780  0.2066
  178SOL    HW1  533  -0.045   2.626   2.659 -0.3744  0.7940 -0.9818
  178SOL    HW2  534   0.099   2.713   2.693  2.8125 -0.3564 -0.5341
  179SOL     OW  535   0.022   1.699   1.183 -0.3686  0.2935 -0.1871
  179SOL    HW1  536  -0.052   1.763   1.144  1.0313 -3.9416  2.6169
  179SOL    HW2  537  -0.007   1.632   1.259  2.6652  0.5113  1.5943
  180SOL     OW  538   0.210   1.209   1.853 -0.2106 -0.1947 -0.0294
  180SOL    HW1  539   0.313   1.220   1.843  2.5918  2.1837  0.7696
  180SOL    HW2  540   0.172   1.284   1.922  0.1883 -1.8560 -0.0798
  181SOL     OW  541   3.020   1.851   2.527  0.0480 -0.1442 -0.8762
  181SOL    HW1  542   3.088   1.919   2.504 -0.1142 -1.1332  4.6217
  181SOL    HW2  543   2.931   1.843   2.468 -4.4360 -0.3107 -3.4950
  182SOL     OW  544   2.279   1.289   1.160 -0.3790  0.0732  0.0718
  182SOL    HW1  545   2.212   1.248   1.096  1.4198  0.7563  0.2193
  182SOL    HW2  546   2.278   1.393   1.155 -1.5621 -0.8490 -1.4718
  183SOL     OW  547   1.504   2.255   2.511 -0.7942 -0.7854  0.3709
  183SOL    HW1  548   1.423   2.196   2.510  0.6129 -0.1804 -2.0700
  183SOL    HW2  549   1.593   2.213   2.483  2.0398  0.2810 -2.3607
  184SOL     OW  550   2.051   0.933   0.813  0.3009 -0.2050 -0.6269
  184SOL    HW1  551   1.969   0.969   0.764  1.1547 -2.2327 -1.8700
  184SOL    HW2  552   2.019   0.856   0.877 -0.3162  0.7750  0.3565
  185SOL     OW  553   1.569   2.718   2.078 -0.3991  0.8392 -0.1035
  185SOL    HW1  554   1.530   2.809   2.046  0.4124  1.0365  1.5759
  185SOL    HW2  555   1.540   2.683   2.173  0.6308  0.3768  2.7189
  186SOL     OW  556   0.082   2.180   1.701  0.0968 -0.6607 -0.4422
  186SOL    HW1  557   0.118   2.278   1.706 -0.3027  0.9542  0.5805
  186SOL    HW2  558   0.156   2.108   1.709 -4.4045 -1.9114  0.2308
  187SOL     OW  559   1.386   0.706   1.671  0.2786  0.1744 -0.4078
  187SOL    HW1  560   1.448   0.702   1.586  0.5571 -1.2032 -1.1808
  187SOL    HW2  561   1.421   0.746   1.758 -0.6290  1.6628 -0.4362
  188SOL     OW  562   2.796   2.806   1.462 -0.0401  0.5819 -0.2834
  188SOL    HW1  563   2.768   2.907   1.449 -3.1205  0.2317  0.1399
  188SOL    HW2  564   2.723   2.747   1.422 -1.1134  0.9961  1.8773
  189SOL     OW  565   0.861   1.060   1.372 -0.1617  0.4797 -0.3949
  189SOL    HW1  566   0.924   1.125   1.427 -0.0975 -2.4360  0.4495
  189SOL    HW2  567   0.800   1.119   1.311 -1.5997 -0.0071 -1.8578
  190SOL     OW  568   1.540   1.876   1.573  0.0905  0.1515  0.6114
  190SOL    HW1  569   1.441   1.893   1.545 -0.2253  0.4855  0.5694
  190SOL    HW2  570   1.554   1.904   1.671 -1.2854 -2.2044 -0.8823
  191SOL     OW  571   0.969   0.753   1.552 -0.3498  0.0525 -0.4238
  191SOL    HW1  572   1.021   0.664   1.535 -1.6297  0.6461 -2.5104
  191SOL    HW2  573   1.030   0.837   1.553 -0.0011 -1.2369  0.6003
  192SOL     OW  574   1.849   2.249   1.124  0.2299 -0.6949  0.1359
  192SOL    HW1  575   1.769   2.212   1.076 -0.0283 -1.1258 -0.3102
  192SOL    HW2  576   1.899   2.323   1.071 -1.2096 -2.8328 -1.3772
  193SOL     OW  577   0.511   0.616   0.397 -0.0196  0.0484 -0.2463
  193SOL    HW1  578   0.481   0.552   0.470  1.3313 -0.7822  1.1061
  193SOL    HW2  579   0.559   0.562   0.320  2.2076 -1.2518  2.0272
  194SOL     OW  580   0.284   0.832   1.255  0.2427 -0.4669  0.1168
  194SOL    HW1  581   0.192   0.780   1.255  1.8101 -1.4739  1.5515
  194SOL    HW2  582   0.290   0.901   1.180 -1.9812 -0.3361 -0.2053
  195SOL     OW  583   0.997   2.918   0.453  0.5252 -0.2672  0.5550
  195SOL    HW1  584   0.981   2.816   0.424 -1.9199  0.6642  1.8498
  195SOL    HW2  585   1.094   2.955   0.440 -3.6481  0.2802  0.6739
  196SOL     OW  586   0.269   1.406   1.401 -0.3327 -0.2016 -0.3617
  196SOL    HW1  587   0.327   1.481   1.441  0.9246 -1.5127 -2.0030
  196SOL    HW2  588   0.254   1.328   1.465 -1.2176  0.9608  0.7740
  197SOL     OW  589   0.888   2.045   0.221 -0.8429 -0.1904 -0.4551
  197SOL    HW1  590   0.886   2.004   0.315 -2.2842 -1.0253 -2.7042
  197SOL    HW2  591   0.923   1.976   0.152 -1.6922 -0.9797  0.3264
  198SOL     OW  592   0.275   1.239   0.277  0.2665  0.0519 -0.3862
  198SOL    HW1  593   0.171   1.219   0.269 -1.5516 -1.0014  0.5622
  198SOL    HW2  594   0.303   1.335   0.262  1.0832 -4.3702  0.1388
  199SOL     OW  595   2.216   0.376   2.530  0.1233 -0.5845  0.1582
  199SOL    HW1  596   2.141   0.356   2.598 -1.8136 -2.1733  0.7547
  199SOL    HW2  597   2.311   0.344   2.567 -1.8579 -0.2562 -0.0761
  200SOL     OW  598   0.018   2.961   0.666  0.6646  0.0714 -0.0223
  200SOL    HW1  599  -0.069   2.977   0.613 -0.1572 -1.2621  0.4680
  200SOL    HW2  600   0.046   3.045   0.715  1.9765 -1.3941  2.4767
  201SOL     OW  601   1.097   0.726   0.648 -0.1588  0.1404  0.0665
  201SOL    HW1  602   1.082   0.808   0.713 -1.1129  1.5143 -0.8873
  201SOL    HW2  603   1.011   0.677   0.609 -1.3829 -1.2404  1.7857
  202SOL     OW  604   0.501   1.237   1.817 -0.3225 -0.4369  1.0446
  202SOL    HW1  605   0.520   1.220   1.715 -1.2983 -0.7714 -1.4387
  202SOL    HW2  606   0.521   1.163   1.886  0.7000  0.7472 -1.4528
  203SOL     OW  607   0.734   0.194   1.579 -0.0487 -0.7134 -0.4547
  203SOL    HW1  608   0.743   0.140   1.489 -0.2531 -0.4209 -0.8268
  203SOL    HW2  609   0.778   0.158   1.663 -0.6036 -1.3822 -0.5376
  204SOL     OW  610   2.101   1.861   3.004 -0.2134  0.5312 -0.3861
  204SOL    HW1  611   2.128   1.765   2.984 -0.9070  1.4106  3.3084
  204SOL    HW2  612   2.052   1.894   2.925 -1.7748 -0.0184  3.2657
  205SOL     OW  613   1.832   1.883   0.036 -0.5207  0.5908  0.1936
  205SOL    HW1  614   1.933   1.882   0.005  0.6715 -0.6637 -2.2384
  205SOL    HW2  615   1.791   1.973   0.014 -0.0711 -0.9603 -0.9702
  206SOL     OW  616   2.517   2.776   0.326 -0.2117  0.2818 -0.2713
  206SOL    HW1  617   2.575   2.697   0.356  1.2029 -1.7728 -1.6886
  206SOL    HW2  618   2.551   2.810   0.231  0.6015 -0.2749 -3.5918
  207SOL     OW  619   0.557   1.784   2.913 -0.5355 -0.1170  0.1287
  207SOL    HW1  620   0.660   1.770   2.895  0.1187  1.4304 -1.5201
  207SOL    HW2  621   0.511   1.700   2.955 -2.2915 -1.2346  1.7039
  208SOL     OW  622   1.107   1.542   1.410  0.5226 -0.0333 -0.3964
  208SOL    HW1  623   1.079   1.598   1.327  1.7153  2.8951 -0.9188
  208SOL    HW2  624   1.171   1.591   1.470  0.7512 -1.2141  2.0657
  209SOL     OW  625   0.276   0.948   2.995 -0.0920 -0.1032 -0.1074
  209SOL    HW1  626   0.313   0.890   2.917  0.2774  0.6223  0.6067
  209SOL    HW2  627   0.263   0.897   3.084 -2.6578  1.3303  0.2933
  210SOL     OW  628   1.739   0.475   1.197  0.8318 -0.3100  0.5471
  210SOL    HW1  629   1.697   0.567   1.164 -1.2897 -0.5207  0.1836
  210SOL    HW2  630   1.839   0.479   1.191 -0.1523  0.3615  0.3844
  211SOL     OW  631   2.091   1.064   1.615 -0.1626 -0.3532  0.0198
  211SOL    HW1  632   2.164   1.040   1.689  1.4238  0.8605  2.5438
  211SOL    HW2  633   2.136   1.121   1.541 -1.1630 -1.3978  1.0438
  212SOL     OW  634   0.036   0.997   1.460  0.4800  0.0784 -0.2131
  212SOL    HW1  635   0.065   1.065   1.535 -1.0922  1.0808  0.8491
  212SOL    HW2  636   0.022   0.898   1.492  2.3631 -1.1848  2.8231
  213SOL     OW  637   2.761   0.381   0.254 -0.0388  0.4170 -0.1758
  213SOL    HW1  638   2.830   0.309   0.208  1.6579 -1.5795  0.1263
  213SOL    HW2  639   2.726   0.452   0.184  0.0856 -0.3586  2.6968
  214SOL     OW  640   2.160   0.251   2.275 -0.6365 -0.5911 -0.0689
  214SOL    HW1  641   2.188   0.287   2.369 -2.6139 -0.5375  0.4924
  214SOL    HW2  642   2.135   0.149   2.277  1.9051 -1.1607  1.9778
  215SOL     OW  643   1.639   2.281   2.022 -0.1080  0.3560 -0.0115
  215SOL    HW1  644   1.738   2.305   2.018  0.0963  1.0993  0.6706
  215SOL    HW2  645   1.590   2.355   2.083 -1.5049  3.7066  0.2439
  216SOL     OW  646   2.220   0.544   0.705  0.1104  0.4646  0.5407
  216SOL    HW1  647   2.229   0.467   0.639  0.6680 -1.2819  2.7724
  216SOL    HW2  648   2.148   0.614   0.671 -0.3814  0.7616 -1.1008
  217SOL     OW  649   0.730   2.775   2.488 -0.3393 -0.2873  0.0175
  217SOL    HW1  650   0.687   2.703   2.552  1.5116 -1.0311  0.2101
  217SOL    HW2  651   0.769   2.740   2.397 -0.0915 -2.4448  1.5661
  218SOL     OW  652   1.911   1.420   0.060  0.0032  0.4776 -0.0964
  218SOL    HW1  653   1.833   1.463   0.010  1.8732 -0.0604  1.4303
  218SOL    HW2  654   1.890   1.338   0.115 -0.8415  1.2241 -2.5437
  219SOL     OW  655   2.345   1.296   2.571 -0.1928 -0.0886  0.9405
  219SOL    HW1  656   2.369   1.264   2.471 -0.5754 -2.3224 -1.0720
  219SOL    HW2  657   2.351   1.220   2.639 -0.3706 -0.1221  0.7173
  220SOL     OW  658   1.541   0.989   1.226  0.4099  0.3683  0.3710
  220SOL    HW1  659   1.621   1.030   1.278  3.2418 -2.5397 -0.8985
  220SOL    HW2  660   1.501   1.047   1.150 -1.2388 -3.4282 -0.4710
  221SOL     OW  661   1.369   1.075   2.200 -0.6315 -0.5910 -0.1107
  221SOL    HW1  662   1.314   1.133   2.135  0.7907 -2.4855  1.1276
  221SOL    HW2  663   1.467   1.054   2.169  0.0571 -0.2218  2.7954
  222SOL     OW  664   1.239   0.022   1.207 -0.5249  0.0102 -1.1870
  222SOL    HW1  665   1.281   0.028   1.301 -0.4466 -3.0451 -0.5397
  222SOL    HW2  666   1.211   0.113   1.173  1.9759  1.0734  2.1232
  223SOL     OW  667   2.840   0.865   2.046 -0.6882 -0.0031  0.4106
  223SOL    HW1  668   2.875   0.856   2.144  0.1419 -1.9307  0.5864
  223SOL    HW2  669   2.905   0.917   1.977 -0.0830 -1.2241 -1.4604
  224SOL     OW  670   1.494   0.955   2.741  0.0740  0.3586 -0.1933
  224SOL    HW1  671   1.538   0.896   2.672  0.7392 -0.9708  0.9819
  224SOL    HW2  672   1.479   1.055   2.716  0.0133  1.0968 -0.7518
  225SOL     OW  673   2.962   2.777   2.894 -0.0469  0.2260  0.2630
  225SOL    HW1  674   2.923   2.709   2.825 -1.4633 -0.7726 -0.5661
  225SOL    HW2  675   3.017   2.853   2.854  1.4779  1.9297  0.2658
  226SOL     OW  676   2.417   1.588   2.838 -0.1246 -0.1820 -0.1560
  226SOL    HW1  677   2.468   1.562   2.751  1.3964  0.2075  0.9064
  226SOL    HW2  678   2.349   1.514   2.874 -1.8523 -2.0115 -1.6833
  227SOL     OW  679   0.886   0.138   3.037 -0.4174  0.6057  0.5594
  227SOL    HW1  680   0.884   0.064   3.104 -2.5291 -2.4879 -1.9555
  227SOL    HW2  681   0.906   0.112   2.943 -1.5743  2.0353 -0.2846
  228SOL     OW  682   2.378   0.629   2.844  0.3881 -0.0607 -0.2649
  228SOL    HW1  683   2.317   0.653   2.767  0.2499  1.0372  1.4528
  228SOL    HW2  684   2.467   0.580   2.819  2.5611 -0.5436 -1.0560
  229SOL     OW  685   0.575   0.529   1.895  0.1882 -0.0361  0.2490
  229SOL    HW1  686   0.509   0.496   1.827  0.3924 -0.6455  0.1712
  229SOL    HW2  687   0.654   0.556   1.836  2.9059 -1.1694  3.2903
  230SOL     OW  688   1.920   1.194   2.160  0.1912 -0.6171  0.2073
  230SOL    HW1  689   1.997   1.223   2.100 -1.6456  2.9966  0.7292
  230SOL    HW2  690   1.842   1.256   2.141 -1.3822  2.4264  1.8104
  231SOL     OW  691   0.645   0.989   2.985  0.5074  0.0027 -0.6118
  231SOL    HW1  692   0.733   1.038   2.962 -0.7620  1.3589 -1.1359
  231SOL    HW2  693   0.624   0.967   3.082  0.2788  3.6858 -2.1280
  232SOL     OW  694   2.446   0.028   2.743 -0.1604  0.3619 -0.2033
  232SOL    HW1  695   2.480  -0.059   2.793  1.7386  0.2759  2.6857
  232SOL    HW2  696   2.487   0.045   2.648 -1.4026 -1.5856 -0.4768
  233SOL     OW  697   1.699   1.304   1.103  0.1235  0.1698  0.2778
  233SOL    HW1  698   1.684   1.335   1.005  1.1257  1.5342  1.7147
  233SOL    HW2  699   1.754   1.216   1.107 -0.0068 -4.3563  1.0650
  234SOL     OW  700   1.619   2.569   1.837 -0.5621  0.3868 -0.2427
  234SOL    HW1  701   1.582   2.629   1.912  2.7423 -0.2171 -0.0072
  234SOL    HW2  702   1.543   2.509   1.795 -0.4819  1.7624 -0.0372
  235SOL     OW  703   0.020   3.024   2.907  0.2050  0.0123 -0.0252
  235SOL    HW1  704   0.090   3.092   2.869 -1.2237  0.6303 -1.0347
  235SOL    HW2  705  -0.044   3.060   2.981 -2.1477 -3.1246 -1.0574
  236SOL     OW  706   2.884   0.689   0.136  0.5073  0.3659 -0.0288
  236SOL    HW1  707   2.934   0.757   0.188 -2.7472  1.1551  0.0388
  236SOL    HW2  708   2.939   0.624   0.080  1.1744 -0.4115  2.3023
  237SOL     OW  709   1.451   1.648   1.038 -0.7597  0.9837  0.5078
  237SOL    HW1  710   1.558   1.659   1.025  0.8153  0.4433 -2.4417
  237SOL    HW2  711   1.415   1.678   1.129 -0.1981 -2.4672  0.7666
  238SOL     OW  712   1.771   1.289   0.820  0.0584 -0.3735  0.2804
  238SOL    HW1  713   1.876   1.293   0.795  1.6112  1.6641 -0.5128
  238SOL    HW2  714   1.710   1.368   0.788  1.8060  0.3682  1.6319
  239SOL     OW  715   2.042   0.266   2.713  0.3834 -0.5030  0.5825
  239SOL    HW1  716   2.127   0.230   2.768  1.4504 -0.8985  1.5046
  239SOL    HW2  717   1.975   0.324   2.773 -0.5887  0.8602  1.4075
  240SOL     OW  718   0.968   0.673   0.275  0.9303 -0.6386  0.1648
  240SOL    HW1  719   0.952   0.579   0.236  3.7636  1.3082  2.6082
  240SOL    HW2  720   0.947   0.660   0.375 -0.4386 -0.7154  1.4472
  241SOL     OW  721   0.585   0.104   0.319 -0.1989 -0.3697  0.2884
  241SOL    HW1  722   0.589   0.162   0.228  1.7689  5.5778 -0.6724
  241SOL    HW2  723   0.529   0.018   0.313  1.5605  1.6024 -0.2878
  242SOL     OW  724   0.665   2.483   1.137  0.4451  0.0265 -0.4390
  242SOL    HW1  725   0.645   2.558   1.207  1.5351 -1.0230  0.4630
  242SOL    HW2  726   0.753   2.502   1.094 -0.4137 -0.7503  0.5101
  243SOL     OW  727   1.114   0.621   2.434 -0.3969 -0.0181  0.1424
  243SOL    HW1  728   1.037   0.684   2.402 -3.4563  0.6273 -0.8851
  243SOL    HW2  729   1.086   0.552   2.501 -0.0587 -1.4431 -0.5593
  244SOL     OW  730   2.807   1.852   2.386 -0.2106 -0.1842 -0.3728
  244SOL    HW1  731   2.832   1.831   2.289 -0.9357  0.6116  0.3666
  244SOL    HW2  732   2.706   1.824   2.407 -0.6936 -2.4718 -0.8878
  245SOL     OW  733   2.505   0.681   2.177  0.0207  0.0810  0.3515
  245SOL    HW1  734   2.516   0.751   2.253 -2.4579 -0.5721 -1.1732
  245SOL    HW2  735   2.581   0.616   2.164  0.0468 -2.5472  0.2687
  246SOL     OW  736   0.266   2.939   1.694 -0.6784  0.2239  0.1112
  246SOL    HW1  737   0.229   2.898   1.608 -0.0794  1.2073 -0.9468
  246SOL    HW2  738   0.326   3.022   1.676 -2.5410 -0.1278  1.3171
  247SOL     OW  739   2.210   0.559   3.049 -0.9991 -0.3796 -0.1402
  247SOL    HW1  740   2.260   0.564   2.955  0.1676 -0.0376  0.7330
  247SOL    HW2  741   2.160   0.642   3.075  3.5590 -1.5186  1.8624
  248SOL     OW  742   2.133   1.815   1.598 -0.1775 -0.5307 -0.8678
  248SOL    HW1  743   2.205   1.751   1.633  0.1851  1.3815  1.3700
  248SOL    HW2  744   2.054   1.811   1.665  0.8193 -1.8462 -2.2920
  249SOL     OW  745   1.953   1.959   1.945  0.1124 -0.8995 -0.8893
  249SOL    HW1  746   1.941   1.886   1.872  0.5530 -0.1707  0.0343
  249SOL    HW2  747   2.039   2.015   1.938 -1.2069 -2.9314  0.1856
  250SOL     OW  748   1.109   0.739   1.862  0.4498  0.2995  0.3237
  250SOL    HW1  749   1.123   0.659   1.929 -0.7422 -2.5288 -1.4526
  250SOL    HW2  750   1.117   0.706   1.763  2.3073 -1.4003 -0.4894
  251SOL     OW  751   3.036   1.561   2.543  0.1217 -0.1712 -0.1797
  251SOL    HW1  752   3.036   1.662   2.536 -0.3411 -0.8665  3.0562
  251SOL    HW2  753   2.946   1.516   2.516 -1.9579  2.1595  3.4303
  252SOL     OW  754   1.534   0.889   1.500  0.3085  0.0042  0.3758
  252SOL    HW1  755   1.523   0.911   1.399  0.5963 -1.7982  1.3632
  252SOL    HW2  756   1.540   0.965   1.562 -1.3963 -0.5772 -1.7685
  253SOL     OW  757   0.908   1.549   0.392 -0.5223 -0.1400  0.1901
  253SOL    HW1  758   0.964   1.467   0.395 -1.2958  1.6630 -0.2425
  253SOL    HW2  759   0.817   1.547   0.335 -2.0682 -0.0612 -1.1902
  254SOL     OW  760   2.081   2.155   1.584 -0.4045 -0.6865 -0.3714
  254SOL    HW1  761   2.031   2.105   1.508 -0.7248 -0.9811 -1.8482
  254SOL    HW2  762   2.030   2.173   1.670  2.2673 -0.7717 -0.0534
  255SOL     OW  763   0.109   1.159   2.927 -0.6583  0.3837  0.0443
  255SOL    HW1  764   0.146   1.261   2.931 -1.4653  0.0445  1.2067
  255SOL    HW2  765   0.179   1.087   2.954 -0.4680  0.3287 -0.2085
  256SOL     OW  766   2.805   1.357   1.831 -0.0412 -0.0337 -0.3078
  256SOL    HW1  767   2.774   1.450   1.858  1.0396 -0.9569  1.8430
  256SOL    HW2  768   2.741   1.281   1.863 -1.1308 -1.6689 -2.7630
  257SOL     OW  769   0.896   0.135   1.820 -0.4533 -0.5411 -0.4028
  257SOL    HW1  770   0.949   0.202   1.762  2.7664  1.0154 -1.0969
  257SOL    HW2  771   0.952   0.054   1.854 -0.2691 -1.0113 -0.5648
  258SOL     OW  772   2.962   1.281   0.427 -0.6716 -0.3224 -0.8342
  258SOL    HW1  773   2.891   1.355   0.437 -0.3387  2.7739  0.4857
  258SOL    HW2  774   3.033   1.293   0.507 -0.2171 -0.1483  0.0590
  259SOL     OW  775   0.473   2.941   3.007  0.3397 -0.5510  0.1413
  259SOL    HW1  776   0.405   2.880   3.049 -1.7894  2.0739 -1.5875
  259SOL    HW2  777   0.513   2.896   2.919  0.6602 -3.5301  2.9768
  260SOL     OW  778   2.713   0.844   2.725  0.2249 -0.4236 -0.4913
  260SOL    HW1  779   2.620   0.861   2.682  0.1381  1.5054  1.4874
  260SOL    HW2  780   2.704   0.850   2.827  2.5638 -1.7205 -1.2867
  261SOL     OW  781   2.722   1.374   1.328  0.1087  0.0146  0.5825
  261SOL    HW1  782   2.681   1.296   1.268 -1.2138  0.3981 -0.1463
  261SOL    HW2  783   2.820   1.349   1.364  1.4415  0.4127  3.5121
  262SOL     OW  784   1.436   2.947   1.993  0.1061 -0.3020  0.2430
  262SOL    HW1  785   1.491   3.031   1.966  0.9364  0.2700 -2.8241
  262SOL    HW2  786   1.335   2.959   1.975  1.3857  1.7255  0.9993
  263SOL     OW  787   0.868   0.734   2.350  0.3379 -0.2862  0.7966
  263SOL    HW1  788   0.851   0.645   2.304  2.5854  0.5657  1.9248
  263SOL    HW2  789   0.883   0.808   2.282  1.2937  1.1759  2.7687
  264SOL     OW  790   2.235   0.739   0.381 -0.6430  1.1089 -0.6406
  264SOL    HW1  791   2.136   0.765   0.410 -1.1101 -3.1512 -1.8593
  264SOL    HW2  792   2.303   0.819   0.399  1.1579 -3.0812 -0.4788
  265SOL     OW  793   0.907   2.285   2.634  0.0288 -0.4553 -0.4766
  265SOL    HW1  794   0.945   2.331   2.724  1.4484  1.2298 -1.3895
  265SOL    HW2  795   0.878   2.189   2.649  1.6089  1.5705 -0.2281
  266SOL     OW  796   1.328   1.749   0.022  0.1447  0.6791 -0.3049
  266SOL    HW1  797   1.298   1.820   0.088 -0.5830 -1.4451 -1.1912
  266SOL    HW2  798   1.431   1.745   0.013 -1.3422 -0.8496 -0.9490
  267SOL     OW  799   1.030   3.062   2.377 -0.4885  0.0175 -0.1262
  267SOL    HW1  800   1.035   3.019   2.282  2.7907  1.1045  0.9495
  267SOL    HW2  801   1.005   3.162   2.377 -1.0739  1.2522 -0.6977
  268SOL     OW  802   0.654   1.138   1.073 -0.4912 -0.4461  0.0211
  268SOL    HW1  803   0.668   1.207   1.153  0.8177  1.0142  0.0154
  268SOL    HW2  804   0.654   1.189   0.983 -1.6184  1.3360 -1.3191
  269SOL     OW  805   2.438   2.456   1.556  0.6529  0.4856 -0.0224
  269SOL    HW1  806   2.521   2.396   1.562 -2.1870 -0.8977 -0.2538
  269SOL    HW2  807   2.397   2.471   1.649  2.0235 -2.7397 -0.7533
  270SOL     OW  808   0.136   3.060   1.902 -0.0943  0.4256 -0.6465
  270SOL    HW1  809   0.197   3.018   1.828 -2.4903 -0.4293 -1.6698
  270SOL    HW2  810   0.080   2.986   1.952 -1.5019  1.7812  0.8973
  271SOL     OW  811   0.468   1.444   1.146 -0.1702 -0.1680 -0.3512
  271SOL    HW1  812   0.431   1.440   1.048 -0.7927 -1.1223  0.0730
  271SOL    HW2  813   0.389   1.412   1.211 -0.9948  0.9788 -2.3110
  272SOL     OW  814   1.975   2.894   1.929  0.2068 -0.8150 -0.2431
  272SOL    HW1  815   1.927   2.829   1.859 -1.2440 -1.4054  4.2407
  272SOL    HW2  816   2.031   2.966   1.885 -2.4650 -0.0772  1.1902
  273SOL     OW  817   1.381   1.433   2.842 -0.0001  0.2074  0.0243
  273SOL    HW1  818   1.315   1.478   2.772 -1.2070  1.9717 -0.8588
  273SOL    HW2  819   1.349   1.441   2.942 -1.3995  2.9823  2.6188
  274SOL     OW  820   1.167   0.534   2.048  0.4180 -0.4327 -0.5360
  274SOL    HW1  821   1.200   0.459   1.993  1.4429  0.9198  0.7198
  274SOL    HW2  822   1.209   0.537   2.145  0.4921 -1.7809 -1.4284
  275SOL     OW  823   0.611   2.077   1.927  0.1485 -0.0575 -0.3242
  275SOL    HW1  824   0.571   2.174   1.926 -1.1299 -0.6329 -1.1649
  275SOL    HW2  825   0.540   2.002   1.902  1.8883  2.9478 -1.8884
  276SOL     OW  826   2.186   0.898   2.787 -0.3315  0.1971  0.9756
  276SOL    HW1  827   2.121   0.927   2.706 -0.1032 -0.1341 -1.5066
  276SOL    HW2  828   2.135   0.862   2.868  2.0962  1.6367  1.5575
  277SOL     OW  829   3.064   0.880   0.226 -0.4860 -0.0356  0.0247
  277SOL    HW1  830   3.145   0.928   0.178  2.7364 -1.0831  1.1970
  277SOL    HW2  831   3.095   0.811   0.299 -1.2604  0.1354 -0.0592
  278SOL     OW  832   0.235   0.290   3.009  0.2001 -0.1495  0.6110
  278SOL    HW1  833   0.313   0.236   3.052 -2.9995 -0.6004 -1.6070
  278SOL    HW2  834   0.243   0.387   3.028  1.0772 -2.9872 -0.7694
  279SOL     OW  835   0.121   0.067   0.894 -0.5386 -0.1981 -0.0101
  279SOL    HW1  836   0.173   0.032   0.976  1.2141 -0.2170 -1.2561
  279SOL    HW2  837   0.179   0.072   0.809  0.2112  2.2119  2.1938
  280SOL     OW  838   1.634   2.887   2.566 -0.2230  0.0364  0.3293
  280SOL    HW1  839   1.701   2.962   2.566 -1.5942 -0.5500  1.0715
  280SOL    HW2  840   1.544   2.924   2.532 -0.8860 -1.3759 -1.1844
  281SOL     OW  841   0.569   0.967   2.291 -0.1313  0.2707  0.0372
  281SOL    HW1  842   0.557   0.882   2.230  1.0551 -1.4513 -0.9399
  281SOL    HW2  843   0.519   0.957   2.384 -1.2825 -0.2740  2.3743
  282SOL     OW  844   1.694   2.383   0.511  0.3413  0.1942 -0.0635
  282SOL    HW1  845   1.661   2.312   0.443  0.2808  0.5499  2.0264
  282SOL    HW2  846   1.664   2.474   0.467  0.1503 -0.6826  0.6460
  283SOL     OW  847   1.171   0.946   0.832 -0.3063 -0.1151 -0.1583
  283SOL    HW1  848   1.185   0.871   0.900 -2.2864  0.7184 -0.4215
  283SOL    HW2  849   1.098   1.009   0.857  1.0642 -1.1869 -1.5446
  284SOL     OW  850   2.362   2.790   2.305 -0.3936 -0.2980  0.0698
  284SOL    HW1  851   2.425   2.876   2.296 -0.1601 -1.3509 -0.2872
  284SOL    HW2  852   2.352   2.764   2.400 -1.0329  3.9907 -0.2157
  285SOL     OW  853   1.394   2.988   2.524  0.4205  1.1328 -0.4639
  285SOL    HW1  854   1.379   2.995   2.419  0.0962 -0.9236  1.2469
  285SOL    HW2  855   1.327   3.039   2.582 -1.3262  0.7726  0.2127
  286SOL     OW  856   0.442   0.421   0.726  0.1462  0.1471  0.0735
  286SOL    HW1  857   0.415   0.359   0.810 -2.1127 -1.0110 -1.2619
  286SOL    HW2  858   0.453   0.366   0.636 -2.2863 -0.4261  0.2988
  287SOL     OW  859   0.147   1.293   2.545 -0.0246  0.4536  0.0190
  287SOL    HW1  860   0.072   1.218   2.562  0.9567 -0.8167 -0.2053
  287SOL    HW2  861   0.112   1.386   2.555  0.5461 -1.0501 -0.5279
  288SOL     OW  862   1.534   2.653   1.563  0.3514 -0.4726  0.2868
  288SOL    HW1  863   1.621   2.618   1.597 -2.2460 -1.4163  0.7574
  288SOL    HW2  864   1.536   2.693   1.465  0.5106 -2.0652  3.5630
  289SOL     OW  865   0.681   2.690   0.813 -0.3201 -0.0933 -0.0269
  289SOL    HW1  866   0.720   2.755   0.743 -1.2606  2.3150 -0.0284
  289SOL    HW2  867   0.644   2.741   0.899 -1.5002 -0.2939 -1.8147
  290SOL     OW  868   2.841   1.082   1.633 -0.2320 -0.0187  0.7662
  290SOL    HW1  869   2.748   1.043   1.650  2.6234 -1.0629 -0.4818
  290SOL    HW2  870   2.910   1.062   1.706  0.6649  3.1365  0.2117
  291SOL     OW  871   1.956   0.057   0.061 -0.4601 -0.1370 -0.2570
  291SOL    HW1  872   1.973   0.050   0.164 -0.1037  2.4210 -2.0597
  291SOL    HW2  873   1.993   0.139   0.013 -1.0491 -0.1914 -0.0994
  292SOL     OW  874   2.971   1.177   3.053 -0.6527  0.3490  0.5900
  292SOL    HW1  875   2.902   1.239   3.005  2.0016  3.3926 -0.7295
  292SOL    HW2  876   3.065   1.177   3.001  1.2650 -1.2960 -2.8845
  293SOL     OW  877   0.581   2.125   0.147 -0.6361 -0.1291  0.7857
  293SOL    HW1  878   0.548   2.194   0.215  0.5032 -2.2530 -1.6911
  293SOL    HW2  879   0.666   2.074   0.180  1.6491 -0.0168 -0.5171
  294SOL     OW  880   1.696   2.230   1.760  0.4630 -0.0387  0.3699
  294SOL    HW1  881   1.661   2.287   1.839 -0.3064  3.2764 -1.3243
  294SOL    HW2  882   1.694   2.278   1.672 -0.3632  0.1836  2.9203
  295SOL     OW  883   1.037   1.013   0.465 -0.6080  0.0904  0.7664
  295SOL    HW1  884   1.118   0.983   0.516 -1.6270  2.1076  1.3248
  295SOL    HW2  885   0.950   1.010   0.531 -0.0017 -3.9930 -0.6346
  296SOL     OW  886   1.287   2.066   2.514 -0.2236  0.6093 -0.0388
  296SOL    HW1  887   1.249   2.070   2.412  1.0511  0.2265 -4.1771
  296SOL    HW2  888   1.291   1.968   2.550  0.5796  2.1233 -0.5342
  297SOL     OW  889   1.474   0.611   1.390 -0.2481 -0.7937  0.4206
  297SOL    HW1  890   1.424   0.523   1.370  1.0450 -0.3764  0.4420
  297SOL    HW2  891   1.571   0.604   1.424 -1.6170 -0.0963 -0.3604
  298SOL     OW  892   0.492   1.274   2.920  0.4124  0.8952  0.7183
  298SOL    HW1  893   0.514   1.227   3.008  2.1763 -0.2438 -0.9975
  298SOL    HW2  894   0.554   1.251   2.836  1.9306  0.2398  1.2127
  299SOL     OW  895   0.471   0.260   1.415  0.2674  0.1855 -0.5951
  299SOL    HW1  896   0.433   0.349   1.379 -2.6541  1.0965 -2.4038
  299SOL    HW2  897   0.568   0.262   1.455  3.0863 -0.3005  2.0708
  300SOL     OW  898   1.192   1.815   2.892 -0.0233 -0.3276 -0.1304
  300SOL    HW1  899   1.168   1.717   2.858  3.4867 -0.5787  0.2989
  300SOL    HW2  900   1.238   1.808   2.983 -1.9947  0.4093 -3.3708
  301SOL     OW  901   0.459   0.273   0.494  0.6971  0.1574  0.4233
  301SOL    HW1  902   0.364   0.233   0.516  0.3399 -2.1372 -2.0399
  301SOL    HW2  903   0.500   0.214   0.418 -1.4686 -0.6347 -0.4539
  302SOL     OW  904   1.221   2.371   2.252 -1.2496  0.2117 -0.1139
  302SOL    HW1  905   1.156   2.385   2.330  1.4814  0.6146 -3.6033
  302SOL    HW2  906   1.249   2.269   2.244  2.1733 -2.7856  1.1772
  303SOL     OW  907   0.951   2.326   0.797  0.2663 -0.2578  0.1270
  303SOL    HW1  908   1.017   2.361   0.726  1.5567  1.0714 -0.7606
  303SOL    HW2  909   0.945   2.390   0.878 -2.9046 -1.1243 -0.0311
  304SOL     OW  910   0.161   2.061   0.629  0.0220 -0.2378  0.1968
  304SOL    HW1  911   0.181   1.996   0.549  2.7193 -0.5979  0.1422
  304SOL    HW2  912   0.096   2.143   0.608  3.8151  0.8058  1.8674
  305SOL     OW  913   1.576   0.900   0.594 -0.0249  0.0308 -0.3492
  305SOL    HW1  914   1.548   0.908   0.498 -0.4870 -1.0762  3.1158
  305SOL    HW2  915   1.642   0.822   0.608  0.9737  1.6091  2.2128
  306SOL     OW  916   0.455   1.859   1.873  0.0192 -0.8001  0.4902
  306SOL    HW1  917   0.543   1.830   1.834  0.2551 -0.9232  1.7260
  306SOL    HW2  918   0.445   1.823   1.967  0.3850  2.1987 -0.9552
  307SOL     OW  919   0.016   0.856   2.588 -0.8820  0.0475 -0.0018
  307SOL    HW1  920   0.001   0.945   2.636 -0.1264  0.6585  0.0144
  307SOL    HW2  921  -0.017   0.770   2.636  0.4788 -1.7640 -3.4704
  308SOL     OW  922   1.534   2.690   2.849 -0.2526  0.4525 -0.3802
  308SOL    HW1  923   1.539   2.610   2.773  0.6050 -1.9935  1.9216
  308SOL    HW2  924   1.493   2.658   2.936  1.6037  3.4701  1.4930
  309SOL     OW  925   1.217   0.064   1.781 -0.3682  0.0063 -0.0119
  309SOL    HW1  926   1.324   0.056   1.788  1.2438 -0.6831  1.6935
  309SOL    HW2  927   1.180   0.104   1.692 -0.9116 -0.5539 -0.0900
  310SOL     OW  928   1.515   2.545   0.682  0.2185 -0.0166  0.0007
  310SOL    HW1  929   1.516   2.610   0.764  1.5673 -0.1503 -1.6139
  310SOL    HW2  930   1.574   2.577   0.600 -1.1684 -2.2632 -0.5322
  311SOL     OW  931   1.189   0.893   1.591  0.6596  0.0030  0.2693
  311SOL    HW1  932   1.263   0.819   1.604  0.5175  0.0316  1.2302
  311SOL    HW2  933   1.223   0.987   1.592 -1.9838 -1.9387 -1.6429
  312SOL     OW  934   1.662   0.679   1.018 -0.2241 -0.0699 -0.7615
  312SOL    HW1  935   1.597   0.757   1.051  0.4862 -0.0534 -0.0175
  312SOL    HW2  936   1.618   0.626   0.939 -2.0414 -2.3403  1.9044
  313SOL     OW  937   1.536   1.420   0.672  0.6819 -0.5514 -0.3006
  313SOL    HW1  938   1.456   1.445   0.730  1.7161  0.4291  1.8116
  313SOL    HW2  939   1.532   1.326   0.634  0.0190  1.0752  0.9360
  314SOL     OW  940   2.997   0.008   0.056  0.1774  1.1436 -0.0964
  314SOL    HW1  941   2.952   0.070   0.132 -2.1503  1.1534  1.9287
  314SOL    HW2  942   2.944  -0.080   0.043  0.3095  0.5488  1.8185
  315SOL     OW  943   1.217   0.211   2.803  0.0551 -0.3712  0.7718
  315SOL    HW1  944   1.176   0.125   2.750  1.0824 -0.1701 -1.4483
  315SOL    HW2  945   1.221   0.190   2.903 -3.4167  0.1802  0.1996
  316SOL     OW  946   1.675   2.108   0.924  0.7211 -0.2198  0.0526
  316SOL    HW1  947   1.616   2.079   1.007 -0.0374 -2.5920 -0.1381
  316SOL    HW2  948   1.650   2.199   0.887 -0.2121  0.8144 -1.1637
  317SOL     OW  949   1.110   0.721   2.855 -0.2665 -0.0957  0.2242
  317SOL    HW1  950   1.045   0.748   2.931 -2.0835 -0.4483 -0.0008
  317SOL    HW2  951   1.104   0.619   2.824  0.2001 -1.9189 -2.6839
  318SOL     OW  952   1.365   3.016   2.254 -0.7272  0.1531  0.1635
  318SOL    HW1  953   1.352   3.106   2.214 -2.0711 -1.0568  0.9587
  318SOL    HW2  954   1.395   2.948   2.191  1.6352  4.2456  0.7447
  319SOL     OW  955   0.641   2.419   2.919 -0.2412  0.4404  0.1209
  319SOL    HW1  956   0.563   2.403   2.983  1.2084  0.5772  3.0182
  319SOL    HW2  957   0.730   2.391   2.962  1.1542  0.2370  0.2389
  320SOL     OW  958   1.631   2.166   0.313  0.6091 -0.1505 -0.4753
  320SOL    HW1  959   1.726   2.166   0.347 -3.6336 -0.5267 -1.0034
  320SOL    HW2  960   1.564   2.118   0.375 -1.4519  1.9294  0.6090
  321SOL     OW  961   1.672   2.660   0.484  0.1558  0.2318 -0.0522
  321SOL    HW1  962   1.594   2.687   0.420  0.4763 -0.2517 -0.4865
  321SOL    HW2  963   1.766   2.707   0.467  2.1476 -0.4429  2.0198
  322SOL     OW  964   2.561   1.135   2.303 -0.7846 -0.0541  0.0877
  322SOL    HW1  965   2.643   1.174   2.357 -1.6614 -0.6329 -1.0020
  322SOL    HW2  966   2.561   1.029   2.299 -0.5657  0.7661 -1.8805
  323SOL     OW  967   1.013   2.642   0.815  0.6821  0.4323  0.4218
  323SOL    HW1  968   1.051   2.602   0.729  0.9767  0.7669 -0.9312
  323SOL    HW2  969   1.010   2.747   0.816 -2.4344  0.3979  0.1338
  324SOL     OW  970   0.242   2.495   2.506 -0.1018  0.6074  0.3733
  324SOL    HW1  971   0.197   2.412   2.550 -0.9225  0.3472  0.6842
  324SOL    HW2  972   0.190   2.582   2.526  2.6838  3.0641 -2.0023
  325SOL     OW  973   1.265   3.031   0.441  0.3829 -0.1520  0.3676
  325SOL    HW1  974   1.265   3.067   0.343 -1.4968 -1.1646  0.7615
  325SOL    HW2  975   1.282   3.111   0.506  0.0610 -0.3753  0.6130
  326SOL     OW  976   2.465   0.760   3.083 -0.3140 -0.2261  0.2902
  326SOL    HW1  977   2.403   0.705   3.021 -2.2029  0.4708  2.3184
  326SOL    HW2  978   2.523   0.694   3.142 -2.0810 -1.8388  0.1174
  327SOL     OW  979   2.871   0.348   0.512 -0.3515 -0.3426  0.5755
  327SOL    HW1  980   2.834   0.388   0.423  0.4938 -3.1083 -0.0558
  327SOL    HW2  981   2.807   0.287   0.560 -2.1001  0.0853  0.8866
  328SOL     OW  982   2.516   0.637   0.392 -0.1167  0.3156  0.0580
  328SOL    HW1  983   2.428   0.696   0.380  0.6609  0.8282  0.0203
  328SOL    HW2  984   2.514   0.555   0.460 -1.1316 -0.0963  1.3814
  329SOL     OW  985   2.983   2.978   2.162  0.0868  0.7559 -0.2181
  329SOL    HW1  986   3.046   2.908   2.208  0.4486 -0.6970 -1.3648
  329SOL    HW2  987   3.012   3.075   2.180  1.5412  1.2721 -1.6339
  330SOL     OW  988   0.556   0.180   1.874  0.2434 -0.4724 -0.2776
  330SOL    HW1  989   0.653   0.209   1.853  2.9074 -1.6378  1.5164
  330SOL    HW2  990   0.557   0.101   1.941  0.3283 -2.6426 -0.7361
  331SOL     OW  991   2.957   1.937   1.115  0.5278  0.2698  0.0386
  331SOL    HW1  992   2.992   2.019   1.060  2.2340 -0.7711 -1.3072
  331SOL    HW2  993   2.866   1.952   1.158  0.2768 -1.4031  0.2037
  332SOL     OW  994   0.427   1.127   0.072  0.3216  0.1756 -0.0437
  332SOL    HW1  995   0.381   1.084  -0.009  0.3020 -0.5352  0.0689
  332SOL    HW2  996   0.363   1.180   0.134 -0.3169 -2.3627  3.3304
  333SOL     OW  997   2.860   1.057   0.312  0.1299  0.3749 -0.0571
  333SOL    HW1  998   2.897   1.135   0.366 -1.0291  0.1966  0.2730
  333SOL    HW2  999   2.936   0.996   0.272  0.6696  2.0332 -0.9714
  334SOL     OW 1000   1.692   1.182   1.878  0.0795  0.4026 -0.8130
  334SOL    HW1 1001   1.788   1.147   1.854  1.6798  0.2094 -2.1134
  334SOL    HW2 1002   1.688   1.268   1.935 -0.1505 -1.6723  0.1202
  335SOL     OW 1003   1.988   2.740   2.608 -0.2891 -0.6890  0.2680
  335SOL    HW1 1004   1.924   2.675   2.665  0.3499  0.2946  1.3090
  335SOL    HW2 1005   2.059   2.797   2.666  0.2760  0.2449 -0.5781
  336SOL     OW 1006   0.242   0.076   2.834  0.0125  0.1775  0.7997
  336SOL    HW1 1007   0.337   0.041   2.809 -0.1526  0.5726  0.1481
  336SOL    HW2 1008   0.243   0.159   2.897  0.4840 -1.3085 -2.4660
  337SOL     OW 1009   0.928   2.808   2.814  0.0645 -0.0830 -0.2721
  337SOL    HW1 1010   0.927   2.783   2.914 -1.0066  2.0540 -1.4944
  337SOL    HW2 1011   1.008   2.766   2.769 -1.5125  1.7592  0.6548
  338SOL     OW 1012   0.060   1.018   0.690 -0.1064  0.5972 -0.3444
  338SOL    HW1 1013  -0.032   0.965   0.698 -0.1312 -1.8642 -1.3904
  338SOL    HW2 1014   0.045   1.125   0.670  0.0551  2.8659  0.0476
  339SOL     OW 1015   1.710   1.358   2.080  0.1447 -0.2237 -0.1092
  339SOL    HW1 1016   1.608   1.368   2.104 -1.3662  0.1046  4.3695
  339SOL    HW2 1017   1.758   1.451   2.101 -1.0148  0.6391  2.0179
  340SOL     OW 1018   2.357   0.728   1.228  0.2439 -0.6747 -0.6528
  340SOL    HW1 1019   2.252   0.741   1.219 -1.3173  1.0212  1.6240
  340SOL    HW2 1020   2.401   0.667   1.156  0.5107 -0.1034  0.9499
  341SOL     OW 1021   1.932   2.162   0.358  0.4284 -0.7554  0.0272
  341SOL    HW1 1022   1.933   2.205   0.264 -0.1992 -0.7792 -0.2270
  341SOL    HW2 1023   2.030   2.136   0.397  2.4540 -1.0748  2.6380
  342SOL     OW 1024   2.197   2.087   2.750 -0.6240  0.0417 -0.0950
  342SOL    HW1 1025   2.261   2.025   2.801  2.3899  0.3442  0.6207
  342SOL    HW2 1026   2.101   2.049   2.756  1.7279 -1.6457  0.2475
  343SOL     OW 1027   0.380   0.786   2.746  0.2860  0.4121 -0.1833
  343SOL    HW1 1028   0.398   0.856   2.667 -2.7836  0.3106  2.4526
  343SOL    HW2 1029   0.466   0.731   2.775 -0.0946 -3.3647  0.8971
  344SOL     OW 1030   1.941   1.398   0.449  0.6586 -0.1577  0.3769
  344SOL    HW1 1031   1.919   1.336   0.368 -1.6601  0.3211  4.2105
  344SOL    HW2 1032   1.859   1.458   0.470  1.4503 -0.7552 -0.3466
  345SOL     OW 1033   1.369   2.259   2.894 -0.5942  0.2573  0.1628
  345SOL    HW1 1034   1.297   2.202   2.842 -1.1628 -1.3738 -1.4858
  345SOL    HW2 1035   1.466   2.229   2.871  0.0458  0.3985 -2.3928
  346SOL     OW 1036   2.310   0.896   1.432  0.3748  0.1122 -0.0286
  346SOL    HW1 1037   2.269   0.990   1.426 -0.4146 -0.1515 -2.6449
  346SOL    HW2 1038   2.312   0.843   1.340 -0.6469 -0.3472 -2.1113
  347SOL     OW 1039   0.722   2.786   1.472 -0.2328 -0.4143 -0.1549
  347SOL    HW1 1040   0.690   2.735   1.559 -0.7787  0.7387 -1.1253
  347SOL    HW2 1041   0.649   2.855   1.445 -1.3978 -0.8511  1.0920
  348SOL     OW 1042   0.139   0.670   2.824  0.2233 -0.0878 -0.4622
  348SOL    HW1 1043   0.066   0.742   2.859  3.0551  4.0237  1.4848
  348SOL    HW2 1044   0.225   0.715   2.786  2.7701  0.3833 -0.8252
  349SOL     OW 1045   1.809   0.407   2.810 -0.4713  0.3143  0.4067
  349SOL    HW1 1046   1.784   0.494   2.761  0.2300 -2.3530 -0.4105
  349SOL    HW2 1047   1.798   0.427   2.913  0.2554  1.0883  0.0480
  350SOL     OW 1048   1.564   0.440   0.359 -0.8404 -0.3097  0.0007
  350SOL    HW1 1049   1.625   0.460   0.438 -1.8640  2.4259 -1.6920
  350SOL    HW2 1050   1.532   0.522   0.302  1.9364  1.3962 -0.5425
  351SOL     OW 1051   0.958   0.857   2.093 -0.1761 -0.4081 -0.1486
  351SOL    HW1 1052   0.924   0.953   2.071 -3.3064  2.2891  2.6089
  351SOL    HW2 1053   0.983   0.793   2.017 -0.8122 -0.6637 -0.7639
  352SOL     OW 1054   2.038   1.295   0.691 -0.2512 -0.1678 -0.1247
  352SOL    HW1 1055   1.989   1.331   0.608  1.1517  0.3837 -2.1253
  352SOL    HW2 1056   2.122   1.345   0.712 -3.2710 -1.9844 -0.4148
  353SOL     OW 1057   2.139   2.918   1.091  0.3065 -0.3598 -0.3000
  353SOL    HW1 1058   2.213   2.845   1.113 -1.3000 -1.2189 -0.3520
  353SOL    HW2 1059   2.051   2.868   1.059  0.1803  1.8502  2.1165
  354SOL     OW 1060   0.247   1.406   2.895 -0.3012 -0.2165  0.2291
  354SOL    HW1 1061   0.226   1.443   2.799  2.2352  2.3893 -4.2863
  354SOL    HW2 1062   0.334   1.350   2.902  0.8185  3.1966  1.4861
  355SOL     OW 1063   0.514   1.530   0.501 -0.5087 -0.2466 -0.3312
  355SOL    HW1 1064   0.499   1.617   0.552 -1.4798  0.9580 -1.6606
  355SOL    HW2 1065   0.570   1.466   0.559  3.5927  3.4731 -0.1822
  356SOL     OW 1066   0.954   0.283   2.095 -0.1092 -0.4982 -0.0453
  356SOL    HW1 1067   1.034   0.342   2.075  1.1593 -0.1363 -2.5122
  356SOL    HW2 1068   0.923   0.239   2.009 -0.1623  3.8371  0.5777
  357SOL     OW 1069   1.024   1.298   0.389 -0.2954 -0.4230  0.1663
  357SOL    HW1 1070   0.993   1.214   0.335  0.7478 -2.6986 -1.6361
  357SOL    HW2 1071   1.059   1.264   0.481  1.5546  0.1199  1.1112
  358SOL     OW 1072   1.693   1.512   0.479  0.1499  0.3561 -0.3110
  358SOL    HW1 1073   1.636   1.478   0.560 -0.6556  1.1960 -0.6629
  358SOL    HW2 1074   1.646   1.507   0.387  0.3695 -1.4632  0.6187
  359SOL     OW 1075   1.593   2.736   0.063  0.3082  0.6073  0.1082
  359SOL    HW1 1076   1.506   2.682   0.038 -1.2105 -0.4866 -1.0591
  359SOL    HW2 1077   1.586   2.835   0.052  1.9904 -1.1576 -0.4755
  360SOL     OW 1078   0.873   0.611   0.540  0.3134 -0.1375  0.0310
  360SOL    HW1 1079   0.780   0.640   0.573  0.9400  1.5158 -0.3313
  360SOL    HW2 1080   0.897   0.510   0.564 -1.9164 -2.7074 -0.8423
  361SOL     OW 1081   1.207   1.395   0.697 -1.2251  0.1412  0.1676
  361SOL    HW1 1082   1.264   1.417   0.782 -0.3116  0.6843  1.7464
  361SOL    HW2 1083   1.109   1.430   0.694  1.9121  0.2548 -1.3888
  362SOL     OW 1084   1.350   1.762   0.776 -0.4458  0.3880  0.2405
  362SOL    HW1 1085   1.336   1.721   0.868  0.8661 -0.4541 -1.2992
  362SOL    HW2 1086   1.436   1.825   0.771  0.6312  2.5415  0.2860
  363SOL     OW 1087   1.199   1.267   2.045 -0.0720  0.0457 -0.5313
  363SOL    HW1 1088   1.284   1.312   2.082 -2.7569  2.0834  1.9134
  363SOL    HW2 1089   1.167   1.314   1.957 -0.5167 -2.1919 -0.8227
  364SOL     OW 1090   0.539   2.341   1.929 -0.7322  0.3497 -0.4747
  364SOL    HW1 1091   0.450   2.396   1.942 -1.1108  1.3750 -2.0965
  364SOL    HW2 1092   0.598   2.384   1.860  1.7131  0.5216  2.2049
  365SOL     OW 1093   1.030   1.890   1.395 -0.4161 -0.6154  0.0453
  365SOL    HW1 1094   0.933   1.874   1.425 -1.1124 -1.2214 -0.4543
  365SOL    HW2 1095   1.053   1.853   1.301  0.3680 -1.9446 -2.1884
  366SOL     OW 1096   2.819   2.060   0.495  0.2279  0.2815 -0.1093
  366SOL    HW1 1097   2.718   2.024   0.486 -1.0502 -1.3301 -0.4049
  366SOL    HW2 1098   2.876   2.004   0.432 -0.2160  0.7749  2.5725
  367SOL     OW 1099   0.836   1.154   0.176  0.7759 -0.4889 -0.1597
  367SOL    HW1 1100   0.776   1.072   0.196  1.2176 -0.0398  1.6974
  367SOL    HW2 1101   0.886   1.146   0.087  1.7531  2.3318  0.8484
  368SOL     OW 1102   1.514   0.592   0.718 -0.5634 -0.1706 -0.2821
  368SOL    HW1 1103   1.430   0.584   0.656 -2.2683 -0.0759  1.0095
  368SOL    HW2 1104   1.587   0.658   0.691 -0.5988  1.1262 -0.7095
  369SOL     OW 1105   0.226   1.691   0.059 -0.6322  0.2512  0.4066
  369SOL    HW1 1106   0.249   1.776   0.113 -0.2362 -2.3928  0.0308
  369SOL    HW2 1107   0.158   1.627   0.110  1.5200 -2.2945  2.7275
  370SOL     OW 1108   0.443   2.109   1.042  0.2046 -0.0771 -0.0280
  370SOL    HW1 1109   0.465   2.207   1.023  1.1811 -1.3020  2.5014
  370SOL    HW2 1110   0.348   2.078   1.008 -0.3088 -1.1431 -1.6127
  371SOL     OW 1111   2.895   2.234   2.726 -0.1800 -0.0455 -0.0286
  371SOL    HW1 1112   2.878   2.203   2.828  2.1880  0.2028 -0.3003
  371SOL    HW2 1113   2.991   2.268   2.720 -0.1018 -3.3634 -0.8652
  372SOL     OW 1114   1.070   1.946   1.010  0.0697  0.1666  1.0226
  372SOL    HW1 1115   0.982   1.995   1.029  1.6819  3.0960  0.4880
  372SOL    HW2 1116   1.117   1.968   0.926 -1.1151  0.1021  2.5194
  373SOL     OW 1117   1.962   1.987   0.900 -0.1888  0.2165  0.1428
  373SOL    HW1 1118   2.023   1.971   0.985 -0.6031  0.0403 -0.5818
  373SOL    HW2 1119   1.867   2.021   0.927  1.3327 -0.3568  0.4440
  374SOL     OW 1120   1.783   0.466   0.558 -0.0104 -0.2673  0.4871
  374SOL    HW1 1121   1.811   0.400   0.644 -4.0696 -1.3332  2.3058
  374SOL    HW2 1122   1.844   0.460   0.476 -0.9063  2.7877 -0.5229
  375SOL     OW 1123   2.360   2.150   1.120  0.0330  0.2923 -1.1575
  375SOL    HW1 1124   2.412   2.145   1.031 -1.5938  2.4766  1.1676
  375SOL    HW2 1125   2.424   2.149   1.204 -2.4784  1.1858 -0.3327
  376SOL     OW 1126   2.999   0.616   1.420 -0.0472 -0.1314 -0.0020
  376SOL    HW1 1127   3.054   0.657   1.497  1.9404 -1.5995 -0.9437
  376SOL    HW2 1128   2.898   0.631   1.428  0.0373 -0.1559  0.5823
  377SOL     OW 1129   2.242   2.834   0.350 -0.5029 -0.1183 -0.0983
  377SOL    HW1 1130   2.221   2.939   0.354 -2.4057  0.3297 -2.3361
  377SOL    HW2 1131   2.343   2.820   0.326  0.0329 -2.1238  1.4553
  378SOL     OW 1132   1.748   1.851   2.677 -0.0534 -0.3786  0.3233
  378SOL    HW1 1133   1.645   1.845   2.710 -1.6476 -1.2622  4.8250
  378SOL    HW2 1134   1.796   1.757   2.675 -1.1605 -2.5334  1.6204
  379SOL     OW 1135   0.873   0.141   2.742  0.1001 -0.1304 -0.5963
  379SOL    HW1 1136   0.825   0.053   2.718 -1.6419 -0.9045 -1.4322
  379SOL    HW2 1137   0.821   0.224   2.714  1.7732 -2.5650  0.6791
  380SOL     OW 1138   1.503   1.188   0.534 -0.1160  1.0151  0.0689
  380SOL    HW1 1139   1.401   1.191   0.529 -2.8925 -1.1562 -3.0671
  380SOL    HW2 1140   1.529   1.093   0.576 -0.3406 -2.6011 -2.0056
  381SOL     OW 1141   1.303   1.194   1.536  0.2733  0.2052 -0.6830
  381SOL    HW1 1142   1.363   1.232   1.457  0.9216 -2.3043 -1.7429
  381SOL    HW2 1143   1.363   1.168   1.616 -0.7742 -2.4373 -0.8171
  382SOL     OW 1144   1.767   0.802   0.251  0.3055  0.0490 -0.6598
  382SOL    HW1 1145   1.806   0.799   0.154 -0.1615  0.5121 -1.3372
  382SOL    HW2 1146   1.841   0.790   0.321 -0.8110 -1.2562 -0.4588
  383SOL     OW 1147   2.569   0.955   1.517  0.0911  0.0342  0.0285
  383SOL    HW1 1148   2.477   0.930   1.479 -1.2001  1.1933 -0.6198
  383SOL    HW2 1149   2.648   0.937   1.448  0.5974 -1.9865 -3.2347
  384SOL     OW 1150   0.903   2.279   0.070 -0.0641 -0.5974  0.8514
  384SOL    HW1 1151   0.874   2.358   0.138  1.1080  3.2814 -0.8279
  384SOL    HW2 1152   0.914   2.193   0.122  0.6948  0.9705  0.5835
  385SOL     OW 1153   3.006   1.983   1.801 -0.5819 -0.1396  0.1174
  385SOL    HW1 1154   3.096   2.031   1.780  2.2307 -3.2048 -1.3887
  385SOL    HW2 1155   3.006   1.889   1.763  2.4091  0.0537  0.7133
  386SOL     OW 1156   0.432   1.161   0.474 -0.1030 -0.2271 -0.8828
  386SOL    HW1 1157   0.444   1.060   0.469  1.4740 -0.3808 -1.8399
  386SOL    HW2 1158   0.384   1.198   0.384 -0.5433  1.2017  2.0449
  387SOL     OW 1159   1.006   0.326   1.661  0.2451  1.1485  0.2575
  387SOL    HW1 1160   1.062   0.413   1.635  1.0678  0.2378  0.0321
  387SOL    HW2 1161   0.921   0.308   1.601 -3.5381 -2.5354 -0.6894
  388SOL     OW 1162   1.215   2.645   1.790  0.4871  0.0290 -0.3014
  388SOL    HW1 1163   1.230   2.641   1.689  0.2472  0.4223  3.2694
  388SOL    HW2 1164   1.269   2.568   1.832  0.1111  0.8756  1.5026
  389SOL     OW 1165   0.238   3.085   1.126 -0.7189  0.4627  0.3619
  389SOL    HW1 1166   0.154   3.096   1.186  0.8351  0.2770  0.1583
  389SOL    HW2 1167   0.268   2.988   1.115 -1.9727  0.3452 -1.1555
  390SOL     OW 1168   1.050   0.939   1.236  0.0013  0.4072  0.0248
  390SOL    HW1 1169   1.143   0.927   1.279 -0.0483  2.5409 -3.7365
  390SOL    HW2 1170   0.972   0.957   1.303 -1.5997 -0.4795 -0.5405
  391SOL     OW 1171   2.067   1.133   1.040 -0.5659  0.3651  0.0631
  391SOL    HW1 1172   1.990   1.068   1.078 -0.1138  3.0893  0.7020
  391SOL    HW2 1173   2.114   1.087   0.961  0.2916  2.7961 -1.3791
  392SOL     OW 1174   0.913   2.675   3.055  1.1019 -0.5477 -0.0471
  392SOL    HW1 1175   0.815   2.668   3.094  1.9733  0.3932  0.1031
  392SOL    HW2 1176   0.974   2.740   3.111 -0.0084 -1.9672 -0.8027
  393SOL     OW 1177   0.389   0.509   2.093  0.4476 -0.4725 -0.5055
  393SOL    HW1 1178   0.290   0.486   2.076 -0.3346 -0.3475  3.0757
  393SOL    HW2 1179   0.452   0.501   2.013 -0.7477 -0.1355  0.1686
  394SOL     OW 1180   2.922   1.838   2.788 -0.1192 -0.4311  0.4513
  394SOL    HW1 1181   3.005   1.852   2.852  1.0426  1.8683 -1.4247
  394SOL    HW2 1182   2.946   1.854   2.689  0.5621 -0.4650  1.2957
  395SOL     OW 1183   1.579   1.926   0.715 -0.3629 -0.2942 -0.2528
  395SOL    HW1 1184   1.644   1.855   0.671  1.2234 -0.4093 -1.4229
  395SOL    HW2 1185   1.633   1.985   0.784  0.2966  1.1777  2.9338
  396SOL     OW 1186   2.749   2.058   1.325 -0.5460 -0.2371  0.2998
  396SOL    HW1 1187   2.788   2.060   1.423 -1.0491 -1.2235  0.8277
  396SOL    HW2 1188   2.656   2.101   1.315  0.3978  1.1981 -0.9669
  397SOL     OW 1189   1.033   2.110   0.620 -0.1030  0.3354  0.0470
  397SOL    HW1 1190   0.966   2.044   0.567 -0.6322 -0.0602  0.6100
  397SOL    HW2 1191   0.979   2.163   0.686 -1.1094 -2.1731  0.0034
  398SOL     OW 1192   2.205   0.101   1.077  0.0849 -0.1052 -0.6533
  398SOL    HW1 1193   2.166   0.007   1.078  0.4585 -0.1312 -1.4062
  398SOL    HW2 1194   2.130   0.173   1.050 -0.3323  1.2681 -2.1129
  399SOL     OW 1195   2.924   2.549   2.729 -0.6801  0.5884  0.5480
  399SOL    HW1 1196   2.875   2.490   2.657 -0.5386 -0.6880 -0.9570
  399SOL    HW2 1197   2.905   2.512   2.825 -0.4001  2.1209 -2.7325
  400SOL     OW 1198   0.814   1.589   1.287 -0.0884  0.2159 -0.3130
  400SOL    HW1 1199   0.765   1.614   1.378  0.0161 -2.7107  0.3227
  400SOL    HW2 1200   0.799   1.661   1.217 -0.9497 -2.0717 -0.6165
  401SOL     OW 1201   1.806   0.131   1.263 -0.5010 -0.1094  0.2740
  401SOL    HW1 1202   1.879   0.167   1.328  3.1280  0.3733 -0.2041
  401SOL    HW2 1203   1.710   0.140   1.298  0.6858 -1.4592 -2.3736
  402SOL     OW 1204   1.317   0.166   3.048  0.2950  0.7147  0.3221
  402SOL    HW1 1205   1.408   0.135   3.013 -1.2570  2.0032 -1.9552
  402SOL    HW2 1206   1.322   0.265   3.089  2.0105 -1.0011 -0.8883
  403SOL     OW 1207   2.323   1.827   0.932 -0.0203  0.6962 -0.5264
  403SOL    HW1 1208   2.425   1.826   0.957 -2.0775 -3.7776  1.5369
  403SOL    HW2 1209   2.268   1.884   1.000 -3.2312 -0.1671  1.1658
  404SOL     OW 1210   0.166   2.495   2.870 -0.0071 -0.4512  0.2692
  404SOL    HW1 1211   0.244   2.454   2.818  1.1328  1.2054 -0.2627
  404SOL    HW2 1212   0.158   2.600   2.859  2.1211  2.4094 -0.2049
  405SOL     OW 1213   0.237   2.554   0.538 -0.0621 -0.4097  0.3604
  405SOL    HW1 1214   0.180   2.538   0.455  0.3351  0.8090 -2.1148
  405SOL    HW2 1215   0.284   2.644   0.528  1.1226  1.0066 -0.7070
  406SOL     OW 1216   0.005   1.529   2.975  0.5320  0.0062  0.4266
  406SOL    HW1 1217   0.096   1.499   2.944 -2.1187  0.8456  1.0949
  406SOL    HW2 1218   0.007   1.548   3.079  0.3007 -1.5551  0.0236
  407SOL     OW 1219   1.509   0.900   0.923  0.2489  0.0040 -0.1389
  407SOL    HW1 1220   1.551   0.904   0.829 -1.5207  0.5901 -0.1310
  407SOL    HW2 1221   1.433   0.970   0.926 -1.1039  2.3083  0.3904
  408SOL     OW 1222   1.558   2.420   0.972  0.3332  0.2329  0.3165
  408SOL    HW1 1223   1.630   2.417   0.893  0.8138  0.5634  1.4631
  408SOL    HW2 1224   1.558   2.503   1.026 -0.8504 -0.0872 -4.7458
  409SOL     OW 1225   0.663   0.834   0.706 -0.7573 -0.8150  0.5126
  409SOL    HW1 1226   0.587   0.852   0.633 -0.2335 -1.0037  2.0045
  409SOL    HW2 1227   0.663   0.734   0.733 -1.6199 -0.6940  0.2097
  410SOL     OW 1228   1.267   2.018   1.465 -0.0680 -0.4553 -0.8163
  410SOL    HW1 1229   1.290   2.095   1.522 -1.2736 -1.9433  2.2439
  410SOL    HW2 1230   1.172   1.980   1.480  1.2799  2.4685 -0.1982
  411SOL     OW 1231   2.388   1.813   3.103 -0.0408 -0.6239  0.1156
  411SOL    HW1 1232   2.296   1.816   3.059  0.1205 -0.5777 -1.3988
  411SOL    HW2 1233   2.463   1.802   3.030  3.1854  2.7175  0.8637
  412SOL     OW 1234   1.504   2.432   2.209  0.4201  0.8318  0.2045
  412SOL    HW1 1235   1.562   2.475   2.281  2.3786  1.3401 -1.3136
  412SOL    HW2 1236   1.403   2.432   2.232 -2.7523 -0.5976 -0.3118
  413SOL     OW 1237   3.052   0.250   2.980  0.5298 -0.0110  0.0715
  413SOL    HW1 1238   2.991   0.186   3.029 -0.8182  4.2711 -1.1581
  413SOL    HW2 1239   3.153   0.243   2.999  0.6235  1.1502  0.7725
  414SOL     OW 1240   1.748   1.382   1.381 -0.3246 -0.2198  0.5726
  414SOL    HW1 1241   1.695   1.461   1.423  0.7692  3.6742 -0.0483
  414SOL    HW2 1242   1.720   1.361   1.282 -0.0323 -0.0240  0.2094
  415SOL     OW 1243   0.351   2.265   0.623 -0.2116 -0.2158 -0.3377
  415SOL    HW1 1244   0.324   2.359   0.593  0.8059  3.1605 -0.9197
  415SOL    HW2 1245   0.280   2.195   0.619  0.9100 -0.1295 -0.7580
  416SOL     OW 1246   0.372   1.042   1.061  0.0492  0.8495 -0.4795
  416SOL    HW1 1247   0.338   0.993   0.977 -3.5723 -0.7468  1.4982
  416SOL    HW2 1248   0.476   1.056   1.061  0.1677  1.9550 -0.7902
  417SOL     OW 1249   2.119   2.371   1.910 -0.0399 -0.0588 -0.4516
  417SOL    HW1 1250   2.143   2.272   1.947  2.6810 -0.3629  4.4922
  417SOL    HW2 1251   2.036   2.410   1.963 -1.7793  3.1659 -0.4742
  418SOL     OW 1252   1.137   0.520   1.311  0.1326  0.1844 -0.0554
  418SOL    HW1 1253   1.029   0.511   1.306 -3.3867  0.5750 -0.6539
  418SOL    HW2 1254   1.188   0.459   1.243 -3.1198  0.1593  0.1682
  419SOL     OW 1255   1.005   0.375   3.046  0.1214 -0.0316 -0.2834
  419SOL    HW1 1256   1.022   0.412   2.950  2.7935  0.4071  0.6474
  419SOL    HW2 1257   0.957   0.283   3.058 -0.9752 -0.7553 -0.1223
  420SOL     OW 1258   0.234   2.256   0.332 -0.0693 -0.0611 -0.1548
  420SOL    HW1 1259   0.193   2.196   0.260  0.9494  0.1885 -0.2892
  420SOL    HW2 1260   0.163   2.295   0.397  2.8848  0.7555 -0.0977
  421SOL     OW 1261   0.351   3.084   0.679  0.0749 -0.1354  0.3199
  421SOL    HW1 1262   0.349   2.985   0.641  3.3719  0.3613 -2.3620
  421SOL    HW2 1263   0.452   3.111   0.684  0.7172  0.5525  0.6462
  422SOL     OW 1264   0.927   2.505   1.036  0.0208  0.0485  0.2632
  422SOL    HW1 1265   0.943   2.589   0.972  1.9435  0.4580  0.9320
  422SOL    HW2 1266   0.991   2.490   1.115 -0.3782  0.5378 -0.7768
  423SOL     OW 1267   0.058   0.692   1.207 -0.0566 -0.6190 -0.1686
  423SOL    HW1 1268  -0.006   0.644   1.275 -1.2542  1.0961  1.2564
  423SOL    HW2 1269   0.020   0.778   1.175 -0.0701 -1.4871  1.4097
  424SOL     OW 1270   0.985   2.173   2.090 -0.2753  0.3604 -0.9839
  424SOL    HW1 1271   1.009   2.275   2.093  0.7804  0.6152 -1.2656
  424SOL    HW2 1272   0.937   2.140   2.179  1.0365  0.0228  2.5050
  425SOL     OW 1273   1.992   1.428   1.028 -0.3735 -0.0566  0.0294
  425SOL    HW1 1274   2.031   1.334   1.011  1.3982  0.3696 -0.1392
  425SOL    HW2 1275   2.054   1.500   0.976  2.9787  1.1571 -0.6994
  426SOL     OW 1276   1.522   1.550   1.436 -0.1065  0.3592  0.2072
  426SOL    HW1 1277   1.461   1.632   1.411 -2.9962  2.4807  2.7806
  426SOL    HW2 1278   1.550   1.544   1.540 -2.8198 -3.1559  1.5433
  427SOL     OW 1279   1.900   2.405   2.098 -0.1456  0.4985  0.1668
  427SOL    HW1 1280   1.969   2.354   2.156  0.2661 -0.2703  0.5258
  427SOL    HW2 1281   1.907   2.505   2.111 -3.7742 -1.1040  1.9692
  428SOL     OW 1282   0.869   3.006   0.140 -0.4691 -0.2456  0.3616
  428SOL    HW1 1283   0.924   3.087   0.181  0.2537  0.0510  0.4543
  428SOL    HW2 1284   0.921   2.914   0.154  1.8467 -4.3877  2.2367
  429SOL     OW 1285   1.312   0.090   0.223 -0.2078  0.7847 -0.2577
  429SOL    HW1 1286   1.401   0.121   0.271  1.1737 -0.3711  0.1374
  429SOL    HW2 1287   1.309   0.124   0.129 -0.1445 -3.4171  0.8317
  430SOL     OW 1288   2.811   1.527   0.355  0.1173  0.7648  0.3396
  430SOL    HW1 1289   2.875   1.577   0.289  2.0653  0.4010 -1.1735
  430SOL    HW2 1290   2.793   1.582   0.440  1.2517  0.8021 -1.0300
  431SOL     OW 1291   2.127   1.628   0.905  0.0160  0.1613 -0.4206
  431SOL    HW1 1292   2.213   1.690   0.903  0.5409 -0.2838  1.0893
  431SOL    HW2 1293   2.046   1.678   0.861  0.4892  0.3320 -0.7104
  432SOL     OW 1294   2.923   2.252   1.229  0.6549 -0.4564  0.6731
  432SOL    HW1 1295   2.861   2.170   1.263  1.4568  1.1331  0.8448
  432SOL    HW2 1296   2.980   2.297   1.304 -4.2309 -0.5572 -1.4963
  433SOL     OW 1297   1.847   0.348   0.822  0.7796  0.0176 -0.3339
  433SOL    HW1 1298   1.758   0.336   0.879  0.6619  2.0813  3.8693
  433SOL    HW2 1299   1.925   0.305   0.876  0.2140 -3.5148 -3.3435
  434SOL     OW 1300   1.530   0.302   0.733  0.4309 -0.1936  0.4019
  434SOL    HW1 1301   1.541   0.402   0.709 -0.2172  3.2112 -1.5555
  434SOL    HW2 1302   1.555   0.281   0.833  0.0769  2.0066 -1.3099
  435SOL     OW 1303   1.428   1.433   2.120  0.3236 -0.9076  0.7028
  435SOL    HW1 1304   1.404   1.444   2.221 -0.6398 -1.6419  0.1364
  435SOL    HW2 1305   1.392   1.507   2.059 -1.3930  1.6127 -0.7177
  436SOL     OW 1306   1.630   2.633   2.425 -0.6816 -0.6358 -0.2400
  436SOL    HW1 1307   1.634   2.725   2.469 -0.5434  0.4376 -0.6730
  436SOL    HW2 1308   1.641   2.557   2.492 -0.1779  1.5790  0.0581
  437SOL     OW 1309   1.091   2.897   0.926 -0.2277 -0.4536 -0.5685
  437SOL    HW1 1310   1.051   2.989   0.900  0.5887 -0.3286  2.5191
  437SOL    HW2 1311   1.114   2.880   1.029  3.1535  1.4589 -1.0628
  438SOL     OW 1312   1.094   2.567   1.275 -0.2659  0.9982  0.1168
  438SOL    HW1 1313   1.134   2.623   1.345  0.3505  0.6469 -2.8983
  438SOL    HW2 1314   1.094   2.472   1.308 -1.0108  0.9970 -2.6877
  439SOL     OW 1315   0.739   1.784   1.016 -0.4356  0.1903 -0.2624
  439SOL    HW1 1316   0.732   1.852   0.939  0.7704 -1.0758  1.1030
  439SOL    HW2 1317   0.653   1.775   1.074  1.8443 -1.5377  0.1022
  440SOL     OW 1318   1.042   2.449   2.046  0.4488  0.1534  0.0457
  440SOL    HW1 1319   1.013   2.497   1.959  1.6701  1.2513  0.2123
  440SOL    HW2 1320   1.140   2.418   2.048  1.4470 -2.1349 -0.1476
  441SOL     OW 1321   0.382   2.744   1.430  0.7177  1.0676 -0.2255
  441SOL    HW1 1322   0.445   2.663   1.440  0.3375  5.8879 -1.2569
  441SOL    HW2 1323   0.366   2.755   1.330  3.1808 -2.0607 -0.6687
  442SOL     OW 1324   2.236   0.668   2.600  0.4678  0.7664  0.1306
  442SOL    HW1 1325   2.231   0.568   2.577  0.1920 -0.1388  2.3201
  442SOL    HW2 1326   2.144   0.719   2.614 -0.8802  1.2800 -0.3507
  443SOL     OW 1327   1.258   2.675   2.201 -0.3353  0.2598 -0.0887
  443SOL    HW1 1328   1.239   2.579   2.171  1.7582 -3.3141  0.2482
  443SOL    HW2 1329   1.213   2.701   2.289 -1.1873 -0.3959 -1.5372
  444SOL     OW 1330   1.026   1.217   1.489  0.1296  0.1245  0.4026
  444SOL    HW1 1331   1.113   1.212   1.428  1.0641  1.1826 -0.3854
  444SOL    HW2 1332   1.049   1.241   1.590  0.0529 -0.7062 -2.3072
  445SOL     OW 1333   0.048   2.337   1.954 -1.0811  1.0754 -0.3329
  445SOL    HW1 1334   0.036   2.256   1.887  1.8929 -0.3515 -0.1493
  445SOL    HW2 1335  -0.033   2.354   2.012  1.4257 -0.0773  1.2889
  446SOL     OW 1336   0.174   1.939   2.370  0.2353 -0.1622 -0.3425
  446SOL    HW1 1337   0.118   2.028   2.364 -1.0053 -0.0148  1.2229
  446SOL    HW2 1338   0.132   1.863   2.305  1.3149  1.0395  0.8535
  447SOL     OW 1339   1.235   1.681   1.939 -0.4980 -0.4702 -0.6586
  447SOL    HW1 1340   1.147   1.726   1.974  0.0913  1.4793  1.3979
  447SOL    HW2 1341   1.315   1.747   1.954 -0.6262  0.8738  0.0228
  448SOL     OW 1342   0.165   1.418   2.025 -0.2666  0.0731  0.0468
  448SOL    HW1 1343   0.175   1.516   1.977 -0.3947  1.7853  0.3276
  448SOL    HW2 1344   0.114   1.419   2.115  0.6908  0.3029 -1.8933
  449SOL     OW 1345   1.846   2.938   0.850 -0.1085  0.5128  0.1463
  449SOL    HW1 1346   1.819   2.958   0.949 -0.4118  0.3085  1.4586
  449SOL    HW2 1347   1.895   2.846   0.839 -2.5468  2.7433 -0.4408
  450SOL     OW 1348   2.263   1.479   0.685  0.2212  0.1535  0.4253
  450SOL    HW1 1349   2.211   1.541   0.756  2.9086  1.5573  0.3707
  450SOL    HW2 1350   2.276   1.521   0.590 -1.4808  0.5908  0.4837
  451SOL     OW 1351   1.394   3.066   1.490 -0.2251  0.4850 -0.0093
  451SOL    HW1 1352   1.312   3.122   1.508 -0.4872  0.5308 -1.5047
  451SOL    HW2 1353   1.405   2.996   1.576  0.3311 -3.0778  0.5819
  452SOL     OW 1354   2.651   2.278   2.268 -0.0214 -0.4554 -0.3944
  452SOL    HW1 1355   2.619   2.376   2.283  0.3103 -1.2846 -1.0797
  452SOL    HW2 1356   2.678   2.232   2.358  0.0778 -1.2938  0.9651
  453SOL     OW 1357   2.467   2.665   0.022 -0.4391  0.2503  0.3218
  453SOL    HW1 1358   2.388   2.719   0.053 -0.0297 -3.8376  0.4790
  453SOL    HW2 1359   2.460   2.622  -0.075 -1.1267 -1.1748  0.2968
  454SOL     OW 1360   0.947   1.129   2.022  0.7850 -0.0861  0.5061
  454SOL    HW1 1361   0.934   1.136   1.917  1.1998  1.3384  0.5281
  454SOL    HW2 1362   1.046   1.159   2.047  1.3044 -2.0061  1.2625
  455SOL     OW 1363   0.660   2.683   2.821 -0.1214  0.0671 -0.4126
  455SOL    HW1 1364   0.753   2.727   2.822 -1.3710 -2.1167 -0.9226
  455SOL    HW2 1365   0.667   2.594   2.871 -0.2031  4.6526 -1.9854
  456SOL     OW 1366   0.379   1.892   0.232 -0.1370 -0.5189  0.0293
  456SOL    HW1 1367   0.462   1.831   0.245  1.3790 -0.1103  0.4303
  456SOL    HW2 1368   0.403   1.979   0.184 -4.0120  2.5847 -0.8705
  457SOL     OW 1369   0.387   2.789   0.623  0.0816  0.0625 -1.0095
  457SOL    HW1 1370   0.408   2.832   0.534  1.0521 -0.9265  1.2252
  457SOL    HW2 1371   0.467   2.763   0.681 -2.6207  1.6317 -1.3307
  458SOL     OW 1372   2.809   0.035   1.205 -0.1053  0.1868 -0.3257
  458SOL    HW1 1373   2.872   0.118   1.220  0.9066 -1.6384  0.2778
  458SOL    HW2 1374   2.828  -0.023   1.119  0.2363  0.3861 -1.2387
  459SOL     OW 1375   2.205   2.538   0.820 -0.1169 -0.1418  0.3142
  459SOL    HW1 1376   2.281   2.601   0.863  0.1251  1.1681  1.0983
  459SOL    HW2 1377   2.245   2.473   0.747  1.0747  1.1542 -2.4391
  460SOL     OW 1378   1.222   2.063   2.779 -0.1732  0.4197  0.0405
  460SOL    HW1 1379   1.238   2.074   2.675 -0.0421 -1.2814 -1.8834
  460SOL    HW2 1380   1.213   1.960   2.806  2.2160  0.0519  0.7648
  461SOL     OW 1381   0.470   2.097   2.720  0.6826  0.1658 -0.4026
  461SOL    HW1 1382   0.406   2.021   2.681 -0.9464 -0.6561  1.1256
  461SOL    HW2 1383   0.519   2.061   2.805  2.7150  0.1375  0.8051
  462SOL     OW 1384   0.974   1.061   1.754  0.1667  0.6160 -1.0519
  462SOL    HW1 1385   1.012   0.994   1.685  2.4324  1.2802  0.9187
  462SOL    HW2 1386   0.892   1.113   1.718 -0.1374 -2.2993 -0.1304
  463SOL     OW 1387   0.469   0.866   0.491  0.5147 -0.4118  0.1190
  463SOL    HW1 1388   0.496   0.775   0.445  0.2160  1.8879  3.0486
  463SOL    HW2 1389   0.369   0.869   0.514  0.1487  2.6326 -2.8566
  464SOL     OW 1390   0.624   2.339   2.197  0.1496 -0.1903  0.4262
  464SOL    HW1 1391   0.552   2.374   2.268  0.4325  3.0117  0.6250
  464SOL    HW2 1392   0.583   2.310   2.103 -1.9366 -0.1086 -1.6653
  465SOL     OW 1393   0.274   0.910   0.839  0.5413  0.2555  0.1135
  465SOL    HW1 1394   0.182   0.945   0.797  1.4043 -0.0672 -0.2383
  465SOL    HW2 1395   0.303   0.810   0.806  1.5116 -0.0252  1.1909
  466SOL     OW 1396   1.392   1.155   1.042  0.3576  0.2059  0.4511
  466SOL    HW1 1397   1.400   1.257   1.022  1.8249 -0.6644 -0.8727
  466SOL    HW2 1398   1.298   1.130   1.082  0.5474 -0.4691 -0.7732
  467SOL     OW 1399   0.615   0.421   2.458 -0.1617  0.1448 -0.0822
  467SOL    HW1 1400   0.560   0.509   2.467  1.3553 -1.8044 -0.2334
  467SOL    HW2 1401   0.638   0.369   2.548  0.6207 -0.4503 -0.6111
  468SOL     OW 1402   0.383   2.264   1.617 -0.2158  0.0232 -0.0865
  468SOL    HW1 1403   0.466   2.325   1.635  2.3803 -0.9051  1.0951
  468SOL    HW2 1404   0.361   2.245   1.516 -0.1721 -0.7224 -0.0469
  469SOL     OW 1405   1.463   1.301   1.343  0.1991 -0.1172  0.7789
  469SOL    HW1 1406   1.523   1.264   1.267  0.7231 -0.4292 -4.6126
  469SOL    HW2 1407   1.501   1.385   1.400  0.9433  0.2394 -0.7579
  470SOL     OW 1408   3.012   1.832   0.715  0.0910  0.5929  0.3083
  470SOL    HW1 1409   3.074   1.890   0.659 -0.7261 -0.1104 -0.4978
  470SOL    HW2 1410   3.059   1.766   0.778 -0.4219  1.4817 -4.8440
  471SOL     OW 1411   2.593   1.366   2.156 -0.0140  0.1416 -0.2996
  471SOL    HW1 1412   2.568   1.272   2.200  1.9633 -1.2042 -0.3340
  471SOL    HW2 1413   2.677   1.413   2.195  0.2410  0.8539 -0.5396
  472SOL     OW 1414   1.167   2.377   0.086 -0.0070 -0.1354 -0.8894
  472SOL    HW1 1415   1.230   2.404   0.164 -0.5638  0.7108  0.8372
  472SOL    HW2 1416   1.081   2.322   0.113  0.1519 -1.9939 -1.0835
  473SOL     OW 1417   1.082   1.491   1.033 -0.3007 -0.2716  0.2418
  473SOL    HW1 1418   0.997   1.512   0.972 -2.0285  2.6027  0.4899
  473SOL    HW2 1419   1.068   1.416   1.104 -0.1465  0.8927 -1.1577
  474SOL     OW 1420   0.649   1.279   0.583 -0.0284  0.1677  0.3749
  474SOL    HW1 1421   0.555   1.248   0.552 -2.5058  1.1872  3.3748
  474SOL    HW2 1422   0.723   1.204   0.580  0.8448  1.6884  1.2142
  475SOL     OW 1423   2.829   0.025   0.806 -0.3308 -0.2680  0.0365
  475SOL    HW1 1424   2.905   0.099   0.808  0.3702  1.6402  1.7892
  475SOL    HW2 1425   2.749   0.063   0.862 -0.4380  1.8046  1.1647
  476SOL     OW 1426   1.002   2.977   1.774  0.9526 -0.0213  0.0394
  476SOL    HW1 1427   1.100   2.979   1.807 -0.0815  1.7595 -2.2864
  476SOL    HW2 1428   0.995   2.968   1.668 -0.3403 -0.9443 -0.5407
  477SOL     OW 1429   1.449   0.315   2.407 -0.4838 -0.0808 -0.4226
  477SOL    HW1 1430   1.420   0.319   2.508 -0.6110  2.7790  0.8248
  477SOL    HW2 1431   1.548   0.284   2.397 -1.0806  1.3219  2.0809
  478SOL     OW 1432   2.226   1.853   0.243  0.0014 -0.5114 -0.4968
  478SOL    HW1 1433   2.170   1.772   0.261  1.1728  3.2092 -1.2587
  478SOL    HW2 1434   2.305   1.833   0.175  3.8992  0.6924 -1.4123
  479SOL     OW 1435   1.267   0.953   2.892  0.1464 -0.2568 -0.8219
  479SOL    HW1 1436   1.344   0.968   2.826  0.5373  0.5837 -1.2694
  479SOL    HW2 1437   1.211   0.868   2.874 -0.2684  0.8854 -1.6011
  480SOL     OW 1438   2.596   2.336   0.380 -0.0396 -0.4171  0.5359
  480SOL    HW1 1439   2.527   2.269   0.418 -0.9099 -0.4230  1.1734
  480SOL    HW2 1440   2.548   2.411   0.330  1.2311 -0.7843  1.2759
  481SOL     OW 1441   0.988   1.174   0.822 -0.5008 -0.3114 -0.0130
  481SOL    HW1 1442   0.990   1.268   0.775 -2.3689  1.0154  2.4053
  481SOL    HW2 1443   1.009   1.175   0.925 -1.0334 -1.6538  3.6373
  482SOL     OW 1444   1.557   0.319   1.988 -0.0202 -0.0017 -0.1035
  482SOL    HW1 1445   1.567   0.411   1.939  0.5881 -1.6939  0.0081
  482SOL    HW2 1446   1.645   0.274   2.024  2.4776 -1.5133  0.5563
  483SOL     OW 1447   0.146   2.319   1.249 -0.6656 -0.3851  0.0519
  483SOL    HW1 1448   0.158   2.410   1.301 -0.4736 -0.1453 -1.4268
  483SOL    HW2 1449   0.143   2.344   1.148  2.3446  1.6082  0.6996
  484SOL     OW 1450   1.770   1.098   1.337 -0.6671  0.2258 -0.7385
  484SOL    HW1 1451   1.840   1.035   1.389  3.1067  0.9587 -0.0123
  484SOL    HW2 1452   1.767   1.191   1.380  1.2617 -0.8206 -0.5857
  485SOL     OW 1453   0.764   0.766   1.788 -0.1647  0.4445  0.1979
  485SOL    HW1 1454   0.751   0.839   1.715 -1.7639 -1.2767  1.1168
  485SOL    HW2 1455   0.861   0.724   1.788 -2.2052 -0.6824 -1.5020
  486SOL     OW 1456   0.845   1.863   2.443 -0.0909  0.6863  0.0955
  486SOL    HW1 1457   0.888   1.856   2.539  1.1866  2.4426  3.0590
  486SOL    HW2 1458   0.864   1.959   2.405  0.3991 -0.2881  1.5497
  487SOL     OW 1459   1.752   1.576   0.956  0.1190  0.0911 -0.2878
  487SOL    HW1 1460   1.816   1.509   1.000  0.7287  0.1309 -1.4915
  487SOL    HW2 1461   1.797   1.635   0.880  0.0114  0.3909 -1.3007
  488SOL     OW 1462   2.957   0.865   2.314 -0.3406  0.2227 -0.1158
  488SOL    HW1 1463   2.989   0.769   2.286 -0.0925  1.2605  2.0668
  488SOL    HW2 1464   2.965   0.877   2.415 -0.3469  1.0062 -0.6693
  489SOL     OW 1465   2.787   0.371   1.288  0.2002  0.0368  0.4719
  489SOL    HW1 1466   2.771   0.324   1.383 -1.7880 -1.6372 -0.1355
  489SOL    HW2 1467   2.886   0.358   1.258  0.8125 -1.1618  1.4423
  490SOL     OW 1468   1.400   2.948   2.794 -0.2787 -0.1209  0.3281
  490SOL    HW1 1469   1.440   2.857   2.819 -2.4355 -1.4845  1.2136
  490SOL    HW2 1470   1.413   2.966   2.693  4.3231 -2.4472 -0.9664
  491SOL     OW 1471   1.719   1.511   2.663 -0.7294  0.1450 -0.5659
  491SOL    HW1 1472   1.660   1.492   2.743 -0.2653  0.8914  1.6349
  491SOL    HW2 1473   1.808   1.561   2.688  3.1333  2.3519 -0.2263
  492SOL     OW 1474   0.574   2.060   0.635  0.3875  0.3147  0.2880
  492SOL    HW1 1475   0.604   2.028   0.727  1.2891 -1.3929 -0.6038
  492SOL    HW2 1476   0.505   2.142   0.638 -1.1350  0.0465  1.0623
  493SOL     OW 1477   0.485   1.388   2.069 -0.7436 -0.1662  0.2609
  493SOL    HW1 1478   0.422   1.462   2.036  1.5375  0.5027 -0.0621
  493SOL    HW2 1479   0.438   1.294   2.083 -1.4277 -2.0127 -0.5072
  494SOL     OW 1480   2.715   2.550   0.079  0.3801  0.2411 -0.2343
  494SOL    HW1 1481   2.751   2.517   0.170  0.0251  0.7475 -0.7698
  494SOL    HW2 1482   2.636   2.618   0.089  1.3888 -0.2367 -1.6321
  495SOL     OW 1483   2.559   2.758   2.598  0.1538 -0.5456 -0.3263
  495SOL    HW1 1484   2.537   2.659   2.619  0.4764 -2.2513  1.7541
  495SOL    HW2 1485   2.647   2.775   2.550  1.5138  0.5663  1.7440
  496SOL     OW 1486   2.023   2.287   0.822 -0.0021  0.1001 -0.2301
  496SOL    HW1 1487   2.090   2.350   0.871 -0.4873 -1.7208 -0.8378
  496SOL    HW2 1488   2.049   2.190   0.834 -0.6562 -0.5809  1.4289
  497SOL     OW 1489   0.142   3.015   2.362  0.6797 -0.1475 -0.2056
  497SOL    HW1 1490   0.140   3.066   2.454 -0.9378  0.7263 -0.9367
  497SOL    HW2 1491   0.176   3.076   2.290 -1.2442  0.6662  0.0258
  498SOL     OW 1492   1.195   1.319   1.259  0.4873 -0.4500  0.3253
  498SOL    HW1 1493   1.294   1.299   1.278 -0.3830  1.0026 -1.6701
  498SOL    HW2 1494   1.156   1.390   1.322 -0.9226  1.1019 -0.3292
  499SOL     OW 1495   0.630   1.806   0.259  0.3613  0.3529 -0.0485
  499SOL    HW1 1496   0.678   1.722   0.210  0.6823  1.8635  0.1884
  499SOL    HW2 1497   0.690   1.869   0.312 -2.1959 -0.1840 -1.9758
  500SOL     OW 1498   1.404   2.875   1.687 -0.5387 -0.0711  0.2997
  500SOL    HW1 1499   1.445   2.891   1.777 -0.8702  0.2815  1.3162
  500SOL    HW2 1500   1.428   2.785   1.637 -2.7858 -1.8414 -2.2324
  501SOL     OW 1501   0.779   1.163   2.266 -0.4171  0.2945  1.0112
  501SOL    HW1 1502   0.704   1.095   2.288  0.7067  0.8630 -0.2200
  501SOL    HW2 1503   0.813   1.158   2.160  0.1023  2.3291 -3.3931
  502SOL     OW 1504   2.577   0.936   1.780 -0.8659 -0.1722  0.0671
  502SOL    HW1 1505   2.565   0.937   1.676 -2.1653 -0.3602 -1.4672
  502SOL    HW2 1506   2.569   0.839   1.814  0.2198 -0.8852 -0.4378
  503SOL     OW 1507   1.294   0.162   0.592 -0.1153  0.1889 -0.2207
  503SOL    HW1 1508   1.238   0.246   0.600  2.0676 -1.4767 -0.1475
  503SOL    HW2 1509   1.384   0.178   0.638 -1.2875  0.6913 -2.6154
  504SOL     OW 1510   3.022   2.340   1.479 -0.3128 -0.3215 -0.5841
  504SOL    HW1 1511   2.955   2.411   1.507  1.1525  0.2210 -1.3136
  504SOL    HW2 1512   3.027   2.261   1.550  1.3611  0.4612  1.3099
  505SOL     OW 1513   2.275   1.175   1.413  0.5532  0.4451  0.2219
  505SOL    HW1 1514   2.274   1.214   1.315  0.5111  2.8456 -2.1008
  505SOL    HW2 1515   2.355   1.225   1.458  0.7150  0.1059 -0.1311
  506SOL     OW 1516   1.933   0.200   1.805 -0.1223 -0.0487  0.0530
  506SOL    HW1 1517   1.999   0.127   1.786 -0.4738  0.2531 -1.1148
  506SOL    HW2 1518   1.977   0.278   1.858 -2.8260  1.8553  0.2200
  507SOL     OW 1519   0.552   0.701   2.185  0.2411 -0.2176 -0.2623
  507SOL    HW1 1520   0.491   0.622   2.161 -0.2278 -3.9099 -1.4855
  507SOL    HW2 1521   0.652   0.669   2.195  0.1980  0.3647  1.8696
  508SOL     OW 1522   0.326   1.659   0.789 -0.1887 -0.0543  0.1125
  508SOL    HW1 1523   0.368   1.724   0.722 -0.1933 -3.9097  1.3967
  508SOL    HW2 1524   0.272   1.710   0.859 -0.1996  0.1898 -2.9596
  509SOL     OW 1525   1.288   1.191   2.445  0.1758 -0.1724 -0.2042
  509SOL    HW1 1526   1.316   1.162   2.345 -2.3703  0.6413 -2.3973
  509SOL    HW2 1527   1.206   1.143   2.483 -0.3989  4.3734 -1.3591
  510SOL     OW 1528   1.267   2.091   2.225  0.1275  0.8197  0.3480
  510SOL    HW1 1529   1.313   2.086   2.129 -1.4659  0.6036 -3.8922
  510SOL    HW2 1530   1.217   2.002   2.242 -1.4027  1.9104  1.3589
  511SOL     OW 1531   3.017   2.704   1.268 -0.4570 -0.3014 -0.1348
  511SOL    HW1 1532   3.029   2.722   1.172  1.2201 -0.7507  0.2792
  511SOL    HW2 1533   2.919   2.714   1.299 -0.3274 -0.3666  1.2131
  512SOL     OW 1534   2.394   0.456   1.371  0.6359  0.4596  0.2840
  512SOL    HW1 1535   2.297   0.486   1.352 -2.0949 -0.0751  1.1065
  512SOL    HW2 1536   2.457   0.427   1.295  0.0631 -0.3475  0.1641
  513SOL     OW 1537   2.564   2.174   0.942 -0.0612 -0.2058  0.5477
  513SOL    HW1 1538   2.533   2.213   0.847  0.7447 -0.4504 -2.0491
  513SOL    HW2 1539   2.660   2.140   0.943  0.6454 -1.8479 -0.0832
  514SOL     OW 1540   0.673   2.770   0.406  0.0841  0.1914 -0.0170
  514SOL    HW1 1541   0.679   2.800   0.309 -0.8504  3.6901  1.2511
  514SOL    HW2 1542   0.669   2.852   0.474  1.2117 -0.7022  3.4233
  515SOL     OW 1543   1.915   1.366   2.373 -0.1670 -0.2796 -0.3029
  515SOL    HW1 1544   1.938   1.291   2.301  0.0915 -2.7083 -2.3568
  515SOL    HW2 1545   1.826   1.343   2.415 -0.2698 -1.7333 -1.4341
  516SOL     OW 1546   0.292   0.312   1.895 -0.2053  0.1361 -0.1596
  516SOL    HW1 1547   0.379   0.266   1.867  0.7649 -0.7408  1.2753
  516SOL    HW2 1548   0.204   0.254   1.877  1.2542 -0.5121 -0.4051
  517SOL     OW 1549   0.469   0.119   1.124  0.3237 -0.4583 -0.1682
  517SOL    HW1 1550   0.486   0.139   1.220 -4.2053  1.8820 -3.4515
  517SOL    HW2 1551   0.400   0.048   1.109 -0.6515  1.2277 -1.7093
  518SOL     OW 1552   2.123   3.090   1.792  0.2835  0.0495 -0.2324
  518SOL    HW1 1553   2.204   3.153   1.812 -1.4841  2.4275  2.0208
  518SOL    HW2 1554   2.117   3.054   1.700 -1.8969  0.9799  0.5811
  519SOL     OW 1555   2.307   2.135   2.500 -0.1628 -1.0430 -0.4648
  519SOL    HW1 1556   2.248   2.116   2.578  1.5164  0.4434 -0.5548
  519SOL    HW2 1557   2.317   2.236   2.492 -1.9444 -0.6688  0.3410
  520SOL     OW 1558   1.815   2.712   1.730 -0.1316 -0.5977  0.0732
  520SOL    HW1 1559   1.760   2.652   1.789 -1.4096 -0.1732  0.5791
  520SOL    HW2 1560   1.902   2.665   1.686  4.0310 -0.9172 -0.4605
  521SOL     OW 1561   0.552   0.003   2.091 -0.1325  0.1939 -0.7867
  521SOL    HW1 1562   0.453  -0.006   2.118  1.5405  1.2479 -0.7807
  521SOL    HW2 1563   0.609   0.007   2.180  0.1612 -1.9540  1.2359
  522SOL     OW 1564   0.208   1.849   1.520 -0.4803 -0.5641  0.7419
  522SOL    HW1 1565   0.216   1.909   1.606  1.0777  0.7683  0.2930
  522SOL    HW2 1566   0.214   1.896   1.427 -0.3541 -0.0106 -1.0390
  523SOL     OW 1567   2.183   2.920   1.524  0.1886 -0.1450  0.5078
  523SOL    HW1 1568   2.254   2.847   1.544 -0.2714 -0.9744  2.6901
  523SOL    HW2 1569   2.114   2.880   1.453 -0.4919  1.8221  2.5267
  524SOL     OW 1570   0.190   2.787   2.840 -0.4243  0.2028  0.5643
  524SOL    HW1 1571   0.153   2.876   2.877 -0.2202 -2.4922 -1.4021
  524SOL    HW2 1572   0.291   2.791   2.814  3.3449  1.1444  1.0157
  525SOL     OW 1573   2.171   2.047   0.421 -0.0861  0.0077 -0.5100
  525SOL    HW1 1574   2.183   2.016   0.521  3.0395 -1.6024  2.6454
  525SOL    HW2 1575   2.218   1.980   0.359 -1.8663  0.7658  0.0431
  526SOL     OW 1576   0.428   1.542   1.834  0.6494 -0.3859  0.0678
  526SOL    HW1 1577   0.494   1.611   1.872  1.3210  2.8122 -2.9434
  526SOL    HW2 1578   0.457   1.447   1.829 -3.8293  0.7536 -0.5190
  527SOL     OW 1579   1.090   2.899   1.210  0.7761 -0.3987 -0.0925
  527SOL    HW1 1580   1.156   2.844   1.275 -0.2312 -0.8294  0.9837
  527SOL    HW2 1581   1.124   2.994   1.183  0.8848 -2.0064  1.7603
  528SOL     OW 1582   1.360   2.346   0.526  0.1724  0.2931 -0.5046
  528SOL    HW1 1583   1.386   2.249   0.520  0.7942 -1.7457  0.2379
  528SOL    HW2 1584   1.421   2.403   0.593 -1.8185  0.3973  1.5863
  529SOL     OW 1585   1.913   1.752   0.782 -0.0511  0.3948 -0.6760
  529SOL    HW1 1586   1.873   1.750   0.689  0.0312  1.1095 -0.7398
  529SOL    HW2 1587   1.931   1.849   0.812 -1.7378 -0.4194  0.5643
  530SOL     OW 1588   0.427   2.553   0.157 -0.6606 -0.2202  0.6889
  530SOL    HW1 1589   0.439   2.535   0.259 -0.0083  0.4016 -2.8602
  530SOL    HW2 1590   0.423   2.462   0.104  0.7827  0.2989 -1.4982
  531SOL     OW 1591   1.825   0.967   1.105 -0.0655 -0.2395  0.8097
  531SOL    HW1 1592   1.740   0.934   1.057 -1.5085  1.0808  1.3268
  531SOL    HW2 1593   1.810   1.002   1.198  0.9631  0.5338 -0.9813
  532SOL     OW 1594   0.285   1.186   0.709 -0.1378 -0.7209  0.6239
  532SOL    HW1 1595   0.327   1.183   0.616 -4.2468 -1.7030 -0.2816
  532SOL    HW2 1596   0.216   1.110   0.725  0.2815 -1.3317  0.4745
  533SOL     OW 1597   1.788   0.014   2.571  0.1756 -0.1656  0.4945
  533SOL    HW1 1598   1.889  -0.005   2.589 -0.4021  0.6843  3.2893
  533SOL    HW2 1599   1.757   0.095   2.622  0.9962 -1.1261  0.0261
  534SOL     OW 1600   0.228   0.212   1.513 -0.4241  0.2686 -0.4836
  534SOL    HW1 1601   0.313   0.244   1.463  2.4599 -1.3904 -0.0894
  534SOL    HW2 1602   0.155   0.288   1.526 -1.8015 -0.1404 -0.7530
  535SOL     OW 1603   1.848   0.324   0.216  0.1506  0.6542 -0.3601
  535SOL    HW1 1604   1.902   0.408   0.253  0.3220 -0.9780  1.7179
  535SOL    HW2 1605   1.791   0.283   0.298 -0.2979 -2.4782  1.7193
  536SOL     OW 1606   1.325   2.609   0.934  0.9905 -0.6746 -0.1979
  536SOL    HW1 1607   1.355   2.517   0.900 -0.4301 -0.5353  1.2836
  536SOL    HW2 1608   1.222   2.628   0.911 -1.3580 -1.6240  0.3972
  537SOL     OW 1609   0.894   0.217   2.348  0.0288  0.4060  0.0713
  537SOL    HW1 1610   0.898   0.259   2.255 -3.3133 -1.8833 -1.8788
  537SOL    HW2 1611   0.805   0.168   2.361  1.1119 -3.0871 -1.1509
  538SOL     OW 1612   1.658   2.340   1.495 -0.0240  0.3710 -0.5784
  538SOL    HW1 1613   1.628   2.242   1.477  0.1536  1.7426  2.8295
  538SOL    HW2 1614   1.740   2.370   1.438 -2.0766  3.9107 -0.9932
  539SOL     OW 1615   0.173   1.590   2.687 -0.3856 -0.4123 -0.5413
  539SOL    HW1 1616   0.073   1.579   2.656 -2.4885 -1.6460 -1.3164
  539SOL    HW2 1617   0.189   1.690   2.708  1.1641  3.6767  0.2271
  540SOL     OW 1618   2.711   1.686   1.987 -0.3626 -0.4189 -0.1740
  540SOL    HW1 1619   2.630   1.619   1.960  1.0874 -1.9198  4.3960
  540SOL    HW2 1620   2.680   1.788   1.979  1.0583 -1.9243 -2.2047
  541SOL     OW 1621   0.447   2.339   3.095  0.3736  0.1275  0.3725
  541SOL    HW1 1622   0.504   2.256   3.096  1.7199 -1.4845  0.9348
  541SOL    HW2 1623   0.350   2.322   3.060 -1.2329  1.1183  2.2973
  542SOL     OW 1624   2.248   2.568   0.466  0.5051  0.0941 -0.4315
  542SOL    HW1 1625   2.231   2.668   0.454  0.0993 -0.6457 -3.5425
  542SOL    HW2 1626   2.154   2.518   0.481 -1.1028 -0.4724 -0.0959
  543SOL     OW 1627   0.989   1.787   1.717  0.1298 -0.3145  0.2860
  543SOL    HW1 1628   0.994   1.803   1.817 -0.2479 -0.7592 -0.9431
  543SOL    HW2 1629   0.918   1.850   1.670 -0.0890 -0.5337 -0.8898
  544SOL     OW 1630   0.896   0.402   0.223 -0.6644 -0.2706 -0.2003
  544SOL    HW1 1631   0.909   0.323   0.290  0.4075 -1.4011 -1.0518
  544SOL    HW2 1632   0.974   0.412   0.153 -0.3993  1.1491 -0.5241
  545SOL     OW 1633   1.119   1.720   0.613 -0.6354 -0.0628  0.4850
  545SOL    HW1 1634   1.199   1.746   0.673  0.6577 -0.2343  0.0901
  545SOL    HW2 1635   1.138   1.731   0.512 -0.7054 -1.0032 -0.1515
  546SOL     OW 1636   2.648   1.540   3.081 -0.1570  0.1103 -1.2190
  546SOL    HW1 1637   2.563   1.521   3.028  1.6874 -1.0694  1.7800
  546SOL    HW2 1638   2.648   1.505   3.181 -1.3591 -0.5231  2.1099
  547SOL     OW 1639   0.543   0.024   2.775  0.1156  0.3651 -0.1165
  547SOL    HW1 1640   0.590  -0.033   2.702  0.7443 -0.7842  0.1339
  547SOL    HW2 1641   0.530  -0.013   2.873  0.6705 -1.1176 -1.7382
  548SOL     OW 1642   2.058   0.837   3.030 -0.7720 -0.1444 -0.2241
  548SOL    HW1 1643   1.971   0.786   3.036 -0.0477  0.0089  0.8804
  548SOL    HW2 1644   2.043   0.939   3.051  0.9396  0.2935  1.2394
  549SOL     OW 1645   0.645   0.490   0.182  0.9614  0.4842  0.3424
  549SOL    HW1 1646   0.613   0.560   0.112 -2.7469 -0.9048  1.3181
  549SOL    HW2 1647   0.744   0.476   0.188  1.5804  1.3591  2.1827
  550SOL     OW 1648   2.554   2.859   2.865 -0.3381  0.2114  0.2709
  550SOL    HW1 1649   2.525   2.791   2.940  0.7929 -2.1114  0.2375
  550SOL    HW2 1650   2.565   2.816   2.765 -2.2715 -1.9012  0.3861
  551SOL     OW 1651   0.266   0.915   0.219  0.2661  0.0613  0.9642
  551SOL    HW1 1652   0.368   0.904   0.203  2.4229  1.7418  0.5525
  551SOL    HW2 1653   0.239   0.915   0.318 -0.6661 -2.4769  0.4983
  552SOL     OW 1654   0.791   2.851   1.844 -0.3449  0.1494  0.1685
  552SOL    HW1 1655   0.745   2.894   1.919  0.2756  1.4270 -0.6923
  552SOL    HW2 1656   0.875   2.905   1.806 -0.8831  3.0064 -4.0519
  553SOL     OW 1657   3.078   2.527   0.358  0.4859 -0.1677  0.2314
  553SOL    HW1 1658   3.015   2.447   0.353  0.9352 -2.0933 -2.1473
  553SOL    HW2 1659   3.047   2.604   0.417  0.6573  2.4152 -0.7816
  554SOL     OW 1660   2.241   0.316   0.565  0.5039  0.0652 -0.0111
  554SOL    HW1 1661   2.299   0.285   0.480 -1.7477 -1.8133 -3.7362
  554SOL    HW2 1662   2.218   0.240   0.631 -0.9113  2.3255 -0.9712
  555SOL     OW 1663   0.422   2.890   2.445  0.2775 -0.4343  0.1938
  555SOL    HW1 1664   0.358   2.972   2.440  1.2033 -0.5284  4.3144
  555SOL    HW2 1665   0.443   2.844   2.354 -1.2031 -0.1655  1.5204
  556SOL     OW 1666   0.913   2.372   1.682 -0.1626  0.1102 -0.4972
  556SOL    HW1 1667   0.927   2.456   1.741 -0.8442 -0.6831  0.0991
  556SOL    HW2 1668   0.972   2.373   1.598 -1.9557  1.7804 -0.2012
  557SOL     OW 1669   0.118   2.097   0.125 -0.3638 -0.0717  0.2354
  557SOL    HW1 1670   0.038   2.042   0.094 -0.7751  0.6571  3.7031
  557SOL    HW2 1671   0.170   2.148   0.050  0.4153  0.6239 -1.0813
  558SOL     OW 1672   2.951   2.276   0.340 -0.2988  0.2310  0.5410
  558SOL    HW1 1673   2.882   2.241   0.408  1.0828 -0.8799  0.7109
  558SOL    HW2 1674   2.934   2.255   0.238 -0.2678 -1.1409 -0.0393
  559SOL     OW 1675   0.400   2.267   1.324 -0.3931 -0.1331 -0.2958
  559SOL    HW1 1676   0.303   2.252   1.302  0.1274  0.5315 -0.0110
  559SOL    HW2 1677   0.460   2.179   1.322 -0.2700 -0.3779  0.2932
  560SOL     OW 1678   2.091   1.107   3.071 -0.0518 -0.2957 -0.3417
  560SOL    HW1 1679   2.051   1.196   3.098  2.8048 -1.0033  0.2628
  560SOL    HW2 1680   2.193   1.105   3.076  0.4633 -0.3398  0.1682
  561SOL     OW 1681   3.008   1.939   3.099 -0.2056 -0.0900 -0.5568
  561SOL    HW1 1682   2.942   1.874   3.145  2.4059 -2.0493  0.3021
  561SOL    HW2 1683   2.965   2.005   3.038  2.5045  0.3677  1.4822
  562SOL     OW 1684   0.918   2.133   2.367  0.2714 -0.3458  0.9042
  562SOL    HW1 1685   0.820   2.122   2.344  1.3678 -1.3029 -0.3652
  562SOL    HW2 1686   0.939   2.214   2.437 -0.2453  1.6637  0.0109
  563SOL     OW 1687   0.688   2.438   2.597 -0.4941 -0.0079  0.0066
  563SOL    HW1 1688   0.761   2.366   2.600  2.3940  1.1046 -1.4132
  563SOL    HW2 1689   0.663   2.477   2.686  2.2502 -0.2919 -2.7136
  564SOL     OW 1690   2.746   1.311   2.882  0.3246 -0.6552  0.8189
  564SOL    HW1 1691   2.668   1.331   2.948  0.6246  1.1037 -0.5663
  564SOL    HW2 1692   2.777   1.400   2.841 -0.1155 -1.9994  1.1917
  565SOL     OW 1693   2.532   1.976   2.565  0.2108  0.3832 -0.0205
  565SOL    HW1 1694   2.452   2.035   2.538 -1.0771  1.7573  3.1508
  565SOL    HW2 1695   2.569   2.004   2.656  0.6833  0.4247 -0.6789
  566SOL     OW 1696   2.007   2.877   1.329  0.2450 -0.0083 -0.6279
  566SOL    HW1 1697   1.946   2.796   1.303 -0.2786 -0.2961 -0.0458
  566SOL    HW2 1698   2.067   2.912   1.247  2.7188 -0.8496 -0.0548
  567SOL     OW 1699   2.438   0.124   2.203  0.3715  0.3233  0.6099
  567SOL    HW1 1700   2.410   0.078   2.115 -0.4422 -1.3825  0.0423
  567SOL    HW2 1701   2.369   0.197   2.241  0.7998  3.3603 -1.6653
  568SOL     OW 1702   1.548   1.812   0.297  0.0341 -0.0282 -0.8242
  568SOL    HW1 1703   1.477   1.869   0.246  1.3904  2.9286 -1.2369
  568SOL    HW2 1704   1.604   1.871   0.362  4.4754  0.0707  0.7612
  569SOL     OW 1705   0.309   0.640   0.815 -0.0290  0.3486  0.2857
  569SOL    HW1 1706   0.355   0.562   0.769 -1.2797  1.1873  2.8935
  569SOL    HW2 1707   0.210   0.646   0.816  2.0770  0.0616  2.2915
  570SOL     OW 1708   0.629   0.754   2.823  0.5166 -0.4704  0.1834
  570SOL    HW1 1709   0.699   0.716   2.761 -0.5120 -0.0949  1.6499
  570SOL    HW2 1710   0.654   0.841   2.869 -0.6225  0.6041  0.2291
  571SOL     OW 1711   0.867   3.063   1.105  0.1113  0.0250 -0.3293
  571SOL    HW1 1712   0.903   3.099   1.014  0.7436 -0.4587  0.0123
  571SOL    HW2 1713   0.919   2.979   1.143 -2.1012 -2.4209 -1.3312
  572SOL     OW 1714   1.569   2.637   1.147 -0.0503  0.1658 -0.6323
  572SOL    HW1 1715   1.503   2.587   1.214  1.7398  1.1359 -0.5771
  572SOL    HW2 1716   1.536   2.732   1.117  1.2595 -0.9564 -1.8134
  573SOL     OW 1717   2.928   0.438   2.051 -0.0276 -0.4312 -0.0413
  573SOL    HW1 1718   2.892   0.339   2.054 -2.4787 -1.2190 -0.2114
  573SOL    HW2 1719   2.851   0.504   2.019  1.7615 -1.0100  1.2035
  574SOL     OW 1720   0.205   1.785   0.999 -0.0536 -0.3118 -0.1619
  574SOL    HW1 1721   0.203   1.886   0.978 -0.2459 -0.3145 -0.7336
  574SOL    HW2 1722   0.146   1.749   1.081  3.5978 -0.5694  2.1002
  575SOL     OW 1723   0.802   2.167   0.961 -0.1083 -0.1096 -0.0702
  575SOL    HW1 1724   0.802   2.188   1.065 -1.0906  0.5935  0.4247
  575SOL    HW2 1725   0.860   2.231   0.901  0.8869 -0.8751  0.1355
  576SOL     OW 1726   2.937   2.922   1.714 -0.0993  0.0865 -0.0618
  576SOL    HW1 1727   2.877   2.860   1.658 -0.7501 -1.4898 -1.0151
  576SOL    HW2 1728   2.954   3.015   1.674  0.4777  2.1235 -2.1518
  577SOL     OW 1729   2.550   1.248   3.084 -0.1954  0.0033  0.2277
  577SOL    HW1 1730   2.577   1.165   3.025 -0.2308 -0.5667 -3.6265
  577SOL    HW2 1731   2.604   1.261   3.168  1.3761 -0.4261 -0.7622
  578SOL     OW 1732   1.317   2.707   2.575 -0.3977 -0.5046 -0.1972
  578SOL    HW1 1733   1.235   2.725   2.506 -1.3530  3.5668  1.8640
  578SOL    HW2 1734   1.390   2.781   2.575 -1.2465 -2.6083  2.3215
  579SOL     OW 1735   0.116   2.517   0.103 -0.0528 -0.0135  0.0047
  579SOL    HW1 1736   0.081   2.505   0.202  1.3463  1.5389  1.0522
  579SOL    HW2 1737   0.213   2.488   0.092  0.4616 -1.5909 -2.5988
  580SOL     OW 1738   1.010   2.620   0.388 -0.3224 -0.7168 -0.1183
  580SOL    HW1 1739   1.099   2.635   0.334  1.4778  1.1608 -0.0995
  580SOL    HW2 1740   0.943   2.558   0.334 -1.1738  0.6308 -0.2344
  581SOL     OW 1741   1.246   2.633   1.516 -0.2729 -0.1836 -0.4666
  581SOL    HW1 1742   1.313   2.558   1.496 -1.6633 -1.7617  0.3102
  581SOL    HW2 1743   1.272   2.719   1.465 -2.4723  0.9184  0.6659
  582SOL     OW 1744   1.491   0.082   1.845 -0.0279  0.3669 -0.6782
  582SOL    HW1 1745   1.507   0.166   1.907 -0.1426  1.0531  0.4005
  582SOL    HW2 1746   1.567   0.051   1.783 -0.9816  1.2333  0.9879
  583SOL     OW 1747   2.495   2.967   0.539  0.3760  0.2682 -0.1353
  583SOL    HW1 1748   2.505   2.884   0.477 -0.2858 -1.3817  0.2576
  583SOL    HW2 1749   2.421   2.967   0.618  0.2492  0.3121 -3.3987
  584SOL     OW 1750   1.612   1.032   2.081 -0.0964 -0.2580 -0.0366
  584SOL    HW1 1751   1.650   1.097   2.008  0.3260  1.4982 -0.6359
  584SOL    HW2 1752   1.688   0.991   2.141  1.2772 -2.8506 -2.7801
  585SOL     OW 1753   2.094   2.633   2.894  0.1575  0.3091  0.6810
  585SOL    HW1 1754   2.135   2.538   2.867 -1.5865  2.6423 -0.4241
  585SOL    HW2 1755   1.989   2.644   2.874 -2.2535  0.1131 -0.2822
  586SOL     OW 1756   2.734   0.244   1.510  0.3732  0.0773 -0.1634
  586SOL    HW1 1757   2.767   0.314   1.585 -0.6732  2.3062  2.5220
  586SOL    HW2 1758   2.650   0.194   1.542 -0.4552  1.4482  3.3145
  587SOL     OW 1759   1.965   1.615   2.730  0.3134  0.0327  0.1695
  587SOL    HW1 1760   2.030   1.560   2.672 -0.6003  0.6688 -1.3345
  587SOL    HW2 1761   1.995   1.615   2.832  0.3930 -3.4201  2.1656
  588SOL     OW 1762   0.471   2.735   2.223 -0.5473  0.1280  0.3896
  588SOL    HW1 1763   0.384   2.725   2.172 -1.4489  0.0559  0.8032
  588SOL    HW2 1764   0.498   2.648   2.277  2.6983  0.3402  2.2145
  589SOL     OW 1765   2.109   1.444   2.554 -0.1726 -0.1660 -0.6646
  589SOL    HW1 1766   2.026   1.413   2.496 -0.4087  0.8342  0.6543
  589SOL    HW2 1767   2.178   1.367   2.575  2.6590 -0.8910 -1.0271
  590SOL     OW 1768   2.367   1.673   2.029  0.2854 -0.2017  0.1438
  590SOL    HW1 1769   2.435   1.593   2.028  0.3790 -1.1048 -0.7370
  590SOL    HW2 1770   2.370   1.728   2.119  2.0437  1.9380 -0.4551
  591SOL     OW 1771   1.360   2.425   0.270  0.4207 -0.3308  0.3265
  591SOL    HW1 1772   1.452   2.398   0.228  2.0383  0.2153  0.8078
  591SOL    HW2 1773   1.347   2.389   0.370  1.7290  1.1885  2.1317
  592SOL     OW 1774   1.752   2.371   0.788  0.6567  0.2697  0.4000
  592SOL    HW1 1775   1.724   2.370   0.691  1.1566 -1.0917  0.2181
  592SOL    HW2 1776   1.853   2.341   0.806 -0.3829 -1.0242  1.3999
  593SOL     OW 1777   0.628   0.237   0.067  0.0183  0.9472  0.1254
  593SOL    HW1 1778   0.721   0.211   0.028  0.6323 -0.2609  2.0400
  593SOL    HW2 1779   0.625   0.329   0.127 -0.5381  1.3963 -1.9496
  594SOL     OW 1780   0.953   1.901   2.686  0.6320 -0.3193  0.1650
  594SOL    HW1 1781   1.032   1.938   2.739  1.1693 -2.7634  1.4837
  594SOL    HW2 1782   0.862   1.940   2.721  0.6504  0.2531 -0.7360
  595SOL     OW 1783   1.543   0.042   1.014 -0.1056  0.5111 -0.0390
  595SOL    HW1 1784   1.622  -0.023   1.033 -1.4867 -1.7089 -0.5609
  595SOL    HW2 1785   1.470  -0.005   0.964 -1.0869  1.5882 -1.8005
  596SOL     OW 1786   3.069   1.444   2.210 -0.1708  0.7066 -0.2292
  596SOL    HW1 1787   2.970   1.432   2.206  1.6238 -1.1798 -0.4709
  596SOL    HW2 1788   3.098   1.532   2.264  3.2459  1.2322 -0.4239
  597SOL     OW 1789   2.052   2.614   1.635  0.1479 -0.0010  0.1130
  597SOL    HW1 1790   2.103   2.574   1.556 -2.4771  3.0021  3.5494
  597SOL    HW2 1791   2.119   2.642   1.708 -1.0776 -0.1410  0.1800
  598SOL     OW 1792   2.460   2.928   1.378  0.1039  0.0518 -0.1547
  598SOL    HW1 1793   2.544   2.978   1.406 -2.4241  1.1682 -3.5267
  598SOL    HW2 1794   2.474   2.886   1.285 -0.5852 -0.2753  1.6266
  599SOL     OW 1795   2.920   0.394   2.450  0.8287 -0.0148  0.0184
  599SOL    HW1 1796   2.996   0.453   2.412 -1.1654  1.9717  1.5237
  599SOL    HW2 1797   2.825   0.420   2.416 -0.7647 -0.0776  1.3565
  600SOL     OW 1798   2.822   1.132   2.683  0.0739 -0.1002  0.7026
  600SOL    HW1 1799   2.792   1.037   2.714  4.1218  0.0944  0.4138
  600SOL    HW2 1800   2.796   1.212   2.752 -0.0800 -1.3091  0.3693
  601SOL     OW 1801   3.046   1.250   1.990 -0.3725  0.2860 -0.3957
  601SOL    HW1 1802   2.975   1.284   1.923 -1.8796  0.3105  2.2188
  601SOL    HW2 1803   3.117   1.327   2.004  2.0393  3.4158 -2.9190
  602SOL     OW 1804   1.442   1.712   2.374 -0.3033 -0.1309  0.4162
  602SOL    HW1 1805   1.381   1.630   2.360 -0.7155 -1.0083 -0.4669
  602SOL    HW2 1806   1.538   1.688   2.377 -0.3906  1.7711 -1.5218
  603SOL     OW 1807   0.641   1.266   2.678 -0.1518 -0.5078 -0.2398
  603SOL    HW1 1808   0.565   1.253   2.607 -0.6679 -2.5445 -1.4407
  603SOL    HW2 1809   0.719   1.195   2.675 -1.5302  0.8920  2.3160
  604SOL     OW 1810   2.404   0.984   0.159  0.0107  0.5324  0.0173
  604SOL    HW1 1811   2.422   1.058   0.093 -2.5417 -2.2271  1.2418
  604SOL    HW2 1812   2.415   0.890   0.119  1.7298  0.3019 -1.3030
  605SOL     OW 1813   2.652   1.154   1.945 -0.1759  0.1377 -0.0257
  605SOL    HW1 1814   2.641   1.066   1.893 -1.3102 -2.0530  0.6821
  605SOL    HW2 1815   2.641   1.146   2.049 -3.5313  1.5319  2.5869
  606SOL     OW 1816   1.513   2.499   2.649  0.2148  0.1818  0.4069
  606SOL    HW1 1817   1.441   2.556   2.597  0.0620  2.1915 -1.9168
  606SOL    HW2 1818   1.499   2.398   2.640  0.3264  2.0097  2.0711
  607SOL     OW 1819   1.384   1.599   0.392 -0.3738  0.0332  0.2993
  607SOL    HW1 1820   1.409   1.601   0.494  2.3947  0.7212 -0.2665
  607SOL    HW2 1821   1.443   1.661   0.335  0.8005 -0.0543 -0.5760
  608SOL     OW 1822   1.437   2.828   0.418 -0.0103 -0.0693 -0.1158
  608SOL    HW1 1823   1.516   2.889   0.381  1.1844 -1.2655  0.0202
  608SOL    HW2 1824   1.352   2.887   0.438 -1.1033 -0.7753 -4.1885
  609SOL     OW 1825   1.258   1.382   0.267 -0.2000  0.2660  0.0512
  609SOL    HW1 1826   1.296   1.463   0.319 -0.6431  2.0935  0.6986
  609SOL    HW2 1827   1.160   1.367   0.284  1.8480  3.1563 -3.8595
  610SOL     OW 1828   2.991   1.134   2.253  1.0396  0.0350 -0.5380
  610SOL    HW1 1829   2.996   1.030   2.265  1.7539 -0.7260 -1.4764
  610SOL    HW2 1830   2.997   1.163   2.154 -2.9778  0.6717 -2.1551
  611SOL     OW 1831   2.548   0.315   1.170  0.5229 -0.0837  0.1757
  611SOL    HW1 1832   2.499   0.228   1.202 -0.2656 -0.4393 -0.7155
  611SOL    HW2 1833   2.639   0.329   1.217  1.3439  0.8671 -1.9241
  612SOL     OW 1834   0.817   2.229   1.244 -0.4351 -0.0608 -0.1648
  612SOL    HW1 1835   0.772   2.161   1.308  0.2531  0.3999  0.5012
  612SOL    HW2 1836   0.764   2.319   1.231  2.6199  0.5716 -1.2084
  613SOL     OW 1837   0.837   1.425   2.425  0.0504 -0.4666  0.2994
  613SOL    HW1 1838   0.920   1.431   2.365 -0.1661 -2.7243 -1.3637
  613SOL    HW2 1839   0.761   1.373   2.377 -1.6544 -1.6953  0.8227
  614SOL     OW 1840   1.650   1.626   1.907 -0.2178  0.5847  0.7663
  614SOL    HW1 1841   1.595   1.700   1.953  0.5386  0.4463  0.6438
  614SOL    HW2 1842   1.749   1.625   1.936  0.4866  0.9484 -0.8513
  615SOL     OW 1843   0.793   1.274   1.702  0.0401 -0.3325 -0.7822
  615SOL    HW1 1844   0.738   1.220   1.626 -0.0738  0.1602  1.9700
  615SOL    HW2 1845   0.828   1.369   1.671 -1.2532 -1.7889 -1.3300
  616SOL     OW 1846   1.086   1.608   2.287 -0.3881  0.4537  0.7069
  616SOL    HW1 1847   1.017   1.585   2.209  0.2862  0.1817  1.5894
  616SOL    HW2 1848   1.087   1.709   2.314 -0.8088 -2.7907 -0.2167
  617SOL     OW 1849   2.919   1.536   1.610 -0.2848  0.1966  0.4530
  617SOL    HW1 1850   2.888   1.449   1.650  2.9246 -0.3361 -0.2515
  617SOL    HW2 1851   2.977   1.517   1.523 -0.1106 -0.2141 -0.5400
  618SOL     OW 1852   1.922   2.072   1.318  0.7434 -0.3963 -0.3798
  618SOL    HW1 1853   1.912   2.155   1.254 -1.5198 -0.7225 -3.5418
  618SOL    HW2 1854   1.911   1.983   1.270  0.1099  1.9270 -1.5117
  619SOL     OW 1855   1.740   0.490   2.369  0.2941 -0.5362  0.0406
  619SOL    HW1 1856   1.691   0.547   2.294 -1.4625 -3.0980 -1.9083
  619SOL    HW2 1857   1.754   0.388   2.352 -0.0776 -0.0702  0.6309
  620SOL     OW 1858   2.330   2.946   0.752  0.2124  0.5510 -0.0991
  620SOL    HW1 1859   2.284   3.023   0.800  0.2583 -0.0755 -0.3321
  620SOL    HW2 1860   2.314   2.852   0.804 -0.7821  0.4559  0.6359
  621SOL     OW 1861   2.093   1.814   1.326 -0.3575  0.0379  0.2617
  621SOL    HW1 1862   2.116   1.821   1.427  2.2082 -0.5779  1.6434
  621SOL    HW2 1863   2.034   1.730   1.305  1.4259  0.9574  1.2892
  622SOL     OW 1864   2.281   0.915   1.811  0.8055 -0.0951 -0.6095
  622SOL    HW1 1865   2.380   0.928   1.794 -2.2294 -0.4279 -0.6861
  622SOL    HW2 1866   2.252   0.821   1.848 -1.9495 -0.4441  1.3231
  623SOL     OW 1867   1.343   0.790   2.452 -0.0002  0.1608  1.1442
  623SOL    HW1 1868   1.294   0.698   2.470 -3.4834 -1.3560 -2.1418
  623SOL    HW2 1869   1.294   0.853   2.379 -0.5983  2.2712 -0.2492
  624SOL     OW 1870   0.573   0.664   3.096 -0.1927  0.1705 -0.4770
  624SOL    HW1 1871   0.576   0.695   2.995 -0.3243  1.4649 -2.5187
  624SOL    HW2 1872   0.579   0.740   3.166 -0.0865 -0.4968  2.6023
  625SOL     OW 1873   2.771   1.729   0.991  0.0876 -0.3872  0.0683
  625SOL    HW1 1874   2.677   1.774   1.010 -1.6102 -0.4133  2.7408
  625SOL    HW2 1875   2.848   1.792   1.013 -0.8932  0.2216 -0.0109
  626SOL     OW 1876   0.622   2.686   1.710 -0.0936  0.6621 -0.4704
  626SOL    HW1 1877   0.687   2.741   1.773 -1.1965  2.7634  0.2976
  626SOL    HW2 1878   0.524   2.674   1.746  1.9168 -0.0009  1.8683
  627SOL     OW 1879   0.695   0.956   1.564  0.3087  0.1834 -0.4109
  627SOL    HW1 1880   0.600   0.928   1.531 -2.5846 -1.8170 -0.4155
  627SOL    HW2 1881   0.768   0.971   1.493  0.5676 -0.2686  2.3790
  628SOL     OW 1882   2.497   0.149   0.651 -0.1874 -0.8631  0.0954
  628SOL    HW1 1883   2.530   0.052   0.625 -0.8242  0.7936 -0.3817
  628SOL    HW2 1884   2.401   0.157   0.684  1.5184  0.0800  1.2186
  629SOL     OW 1885   1.926   0.938   2.079  0.7903 -0.3149  0.5662
  629SOL    HW1 1886   1.936   0.990   1.987 -0.9342  0.2996  0.9181
  629SOL    HW2 1887   1.926   1.010   2.153 -1.8862  0.4857  1.6025
  630SOL     OW 1888   2.915   2.337   0.810  0.0206 -0.0228  0.2396
  630SOL    HW1 1889   2.830   2.393   0.827 -1.6143 -1.9804  1.4167
  630SOL    HW2 1890   2.895   2.236   0.791 -0.8620 -0.7526  2.1666
  631SOL     OW 1891   3.086   0.145   2.189  0.0130 -0.2522 -0.4009
  631SOL    HW1 1892   3.103   0.221   2.263 -2.1488  1.3017  1.4856
  631SOL    HW2 1893   3.091   0.173   2.091 -2.4338 -0.1597  0.3923
  632SOL     OW 1894   2.465   2.567   0.647  0.0053  0.3340 -0.3433
  632SOL    HW1 1895   2.493   2.657   0.680  0.7614  0.5526 -0.0381
  632SOL    HW2 1896   2.398   2.568   0.572 -0.5963 -0.2743  2.8007
  633SOL     OW 1897   1.456   1.230   2.681 -0.0460 -0.0193 -0.4516
  633SOL    HW1 1898   1.432   1.299   2.758 -1.1121  1.1579 -0.1976
  633SOL    HW2 1899   1.395   1.234   2.593 -0.6011  3.6922  0.7324
  634SOL     OW 1900   0.627   1.986   0.875  0.3065  0.0554 -0.3056
  634SOL    HW1 1901   0.552   1.976   0.945  2.3001 -0.8776  0.5554
  634SOL    HW2 1902   0.691   2.062   0.908 -0.9786 -0.1718 -1.4256
  635SOL     OW 1903   2.994   2.351   0.060  0.2609 -0.1677 -0.0908
  635SOL    HW1 1904   2.930   2.413   0.005  0.9614  0.6859  1.0471
  635SOL    HW2 1905   3.089   2.399   0.072  0.4228 -0.5513 -0.9115
  636SOL     OW 1906   2.343   2.749   1.957 -0.6250 -0.5788  0.0019
  636SOL    HW1 1907   2.346   2.845   1.984 -0.8044 -0.6252  0.4342
  636SOL    HW2 1908   2.274   2.693   2.010  0.1649  0.4640 -1.4466
  637SOL     OW 1909   2.751   0.616   1.967 -0.0374  0.5352 -0.0822
  637SOL    HW1 1910   2.667   0.631   1.901 -1.7285 -0.3402 -0.5331
  637SOL    HW2 1911   2.796   0.707   1.988 -2.2975 -2.9930 -0.3085
  638SOL     OW 1912   2.420   1.848   1.312  0.1052  0.0764 -0.3343
  638SOL    HW1 1913   2.323   1.819   1.340  0.0015 -2.3533  0.9620
  638SOL    HW2 1914   2.490   1.814   1.378 -0.8408 -3.8350 -1.0503
  639SOL     OW 1915   1.305   2.182   1.700 -0.1220 -0.5017 -0.2604
  639SOL    HW1 1916   1.336   2.275   1.727  1.3533 -0.2498  2.3771
  639SOL    HW2 1917   1.210   2.159   1.738  0.3335 -1.0940  1.8599
  640SOL     OW 1918   0.223   1.197   1.591 -0.0310  0.1688  0.5483
  640SOL    HW1 1919   0.219   1.208   1.695 -1.7521 -0.0730  0.4293
  640SOL    HW2 1920   0.290   1.121   1.573  0.8019 -0.5015 -0.8270
  641SOL     OW 1921   2.031   0.316   1.442 -0.2422  0.5297  0.4027
  641SOL    HW1 1922   1.961   0.357   1.509 -2.5717  1.8107  1.5186
  641SOL    HW2 1923   2.078   0.231   1.479  0.0138  0.3435  0.7586
  642SOL     OW 1924   2.019   0.055   0.333  0.1350 -0.4876 -0.1691
  642SOL    HW1 1925   2.099   0.021   0.390 -1.5795 -2.1405  1.4596
  642SOL    HW2 1926   1.985   0.146   0.365 -1.9548 -0.5990 -0.5391
  643SOL     OW 1927   2.916   1.786   2.130  0.5438  0.0462 -0.4645
  643SOL    HW1 1928   2.860   1.728   2.064 -1.2272 -0.3214  1.3180
  643SOL    HW2 1929   2.913   1.884   2.096 -0.7046  0.2163  0.1366
  644SOL     OW 1930   2.272   2.410   1.210 -0.2459 -0.3062 -0.1704
  644SOL    HW1 1931   2.296   2.320   1.172 -0.5706  0.8529 -2.2775
  644SOL    HW2 1932   2.240   2.400   1.307 -0.8563 -3.0502 -0.5841
  645SOL     OW 1933   0.569   0.858   1.289 -0.0986  0.2317 -0.2133
  645SOL    HW1 1934   0.465   0.844   1.282 -1.5290  2.4729 -1.8228
  645SOL    HW2 1935   0.629   0.862   1.207  1.0656  3.4353  0.2135
  646SOL     OW 1936   1.465   1.830   2.042  0.0884 -0.2117  0.0537
  646SOL    HW1 1937   1.493   1.902   1.974  0.8233 -0.4590  1.7498
  646SOL    HW2 1938   1.501   1.847   2.138 -0.9834  0.2848  0.2097
  647SOL     OW 1939   0.834   1.037   0.634  0.4657 -0.4488 -0.5035
  647SOL    HW1 1940   0.882   1.084   0.714  0.2074 -0.8841  1.7560
  647SOL    HW2 1941   0.767   0.959   0.662 -1.1675 -1.4994  0.1337
  648SOL     OW 1942   0.134   0.223   0.226  0.7236  0.0329  0.1426
  648SOL    HW1 1943   0.145   0.130   0.180 -0.7581  1.6106 -0.4049
  648SOL    HW2 1944   0.183   0.299   0.171  0.3693  2.9225 -0.7508
  649SOL     OW 1945   3.000   0.231   0.851  0.1782  0.8010  0.4962
  649SOL    HW1 1946   3.089   0.175   0.859  0.6506  2.2448 -0.9838
  649SOL    HW2 1947   3.018   0.332   0.863 -1.2316 -0.8381 -1.7095
  650SOL     OW 1948   2.721   0.630   1.522  0.5770 -0.1155 -0.4224
  650SOL    HW1 1949   2.622   0.605   1.519  0.1768  1.2150  0.4185
  650SOL    HW2 1950   2.736   0.728   1.493 -1.3361 -0.6572 -2.1174
  651SOL     OW 1951   0.920   1.515   1.632  0.3363 -0.0191 -0.4004
  651SOL    HW1 1952   0.960   1.598   1.683  2.1986  0.4519 -1.1135
  651SOL    HW2 1953   0.957   1.519   1.533 -0.3390 -1.1290  0.9797
  652SOL     OW 1954   2.346   2.391   2.441 -1.3903  0.0926 -0.2430
  652SOL    HW1 1955   2.254   2.443   2.447 -2.5952  1.1282  3.1590
  652SOL    HW2 1956   2.414   2.441   2.380 -1.1983  1.7381 -0.6456
  653SOL     OW 1957   2.694   1.279   0.246 -0.0894 -0.6704 -0.0752
  653SOL    HW1 1958   2.749   1.344   0.303 -1.9620  1.6369 -2.7807
  653SOL    HW2 1959   2.733   1.186   0.243 -0.4210 -0.3561  0.2880
  654SOL     OW 1960   1.271   2.227   1.281  0.1632  0.1766  0.1170
  654SOL    HW1 1961   1.281   2.128   1.316  1.8738 -0.8410  1.3690
  654SOL    HW2 1962   1.270   2.222   1.179  0.0882  0.6207  0.5969
  655SOL     OW 1963   0.193   0.927   1.866  0.4734  0.0599  0.1091
  655SOL    HW1 1964   0.254   0.868   1.803 -0.8065 -1.1876 -0.0389
  655SOL    HW2 1965   0.216   1.026   1.859 -0.6370 -1.6176 -2.2489
  656SOL     OW 1966   2.553   2.489   2.617  0.2147 -0.7392 -0.0114
  656SOL    HW1 1967   2.642   2.464   2.569 -0.0965  1.8200 -1.8843
  656SOL    HW2 1968   2.468   2.440   2.574  0.1214  2.3370 -2.1082
  657SOL     OW 1969   3.004   1.016   1.869 -0.4926 -0.5124  0.1274
  657SOL    HW1 1970   3.023   1.113   1.909  0.1880 -1.2850  1.5841
  657SOL    HW2 1971   3.085   0.958   1.853  1.0073  1.6572  1.4385
  658SOL     OW 1972   1.718   0.211   2.366  0.0936 -0.0226  0.0105
  658SOL    HW1 1973   1.781   0.156   2.430  0.8708 -0.4954  0.6975
  658SOL    HW2 1974   1.704   0.163   2.281  0.4525  0.0325  0.6396
  659SOL     OW 1975   1.387   0.612   2.812  0.2390 -0.4257  0.6242
  659SOL    HW1 1976   1.434   0.699   2.850  1.4695  1.3693 -1.0725
  659SOL    HW2 1977   1.287   0.632   2.795  3.0091 -0.0624  3.2839
  660SOL     OW 1978   1.393   0.345   1.431 -0.1928  0.1003 -0.2335
  660SOL    HW1 1979   1.422   0.356   1.532  0.4423  1.8629 -0.8970
  660SOL    HW2 1980   1.433   0.262   1.374 -2.5528  0.4712  0.1508
  661SOL     OW 1981   2.390   1.236   0.683 -0.9439 -0.4581 -0.3278
  661SOL    HW1 1982   2.439   1.212   0.601 -0.1156  1.2123 -0.7267
  661SOL    HW2 1983   2.367   1.339   0.683  1.3818  1.8041  0.3775
  662SOL     OW 1984   1.390   0.407   1.745 -0.4722  0.1825  0.2137
  662SOL    HW1 1985   1.336   0.361   1.823  2.8644 -2.3941 -2.4735
  662SOL    HW2 1986   1.423   0.501   1.772 -2.0322 -0.0832  2.1522
  663SOL     OW 1987   0.858   1.557   2.118 -0.1857  0.6473  0.2882
  663SOL    HW1 1988   0.779   1.565   2.182  2.4475  2.9863 -0.2605
  663SOL    HW2 1989   0.824   1.497   2.035 -1.0003 -3.9245 -1.1341
  664SOL     OW 1990   1.645   2.083   1.404  0.1346 -0.5875 -0.6699
  664SOL    HW1 1991   1.618   2.013   1.472 -1.8465  0.9095  0.4827
  664SOL    HW2 1992   1.750   2.102   1.400  0.7213  0.0260  0.9288
  665SOL     OW 1993   2.304   0.678   1.965  0.1802  0.3551  0.3469
  665SOL    HW1 1994   2.250   0.595   1.952 -0.6811  3.1264 -1.3444
  665SOL    HW2 1995   2.346   0.691   2.062  0.1810  0.6612  0.9023
  666SOL     OW 1996   0.512   2.252   0.362 -0.0863  0.1208 -0.7608
  666SOL    HW1 1997   0.562   2.333   0.403 -1.1450  1.1314 -1.0839
  666SOL    HW2 1998   0.414   2.242   0.397  1.1645  1.7782  0.1463
  667SOL     OW 1999   1.953   0.224   1.049  0.2743 -0.3614  0.1414
  667SOL    HW1 2000   1.955   0.320   1.089  0.9540 -1.1699 -1.9822
  667SOL    HW2 2001   1.898   0.162   1.108  1.3350  0.2425 -0.8473
  668SOL     OW 2002   2.015   0.508   1.133  0.1617 -0.2101 -0.1309
  668SOL    HW1 2003   2.095   0.552   1.082 -1.2120  1.6471  1.0007
  668SOL    HW2 2004   2.048   0.500   1.227 -0.6610 -0.7912 -0.8573
  669SOL     OW 2005   3.070   2.184   1.008 -0.1688 -0.2183  0.5695
  669SOL    HW1 2006   3.035   2.242   0.934  1.3151  0.8128 -1.1560
  669SOL    HW2 2007   3.050   2.218   1.102  1.6397  1.0115 -2.8674
  670SOL     OW 2008   2.876   2.322   2.125  0.4837 -0.4077 -0.4563
  670SOL    HW1 2009   2.791   2.309   2.182 -0.3677  2.4399  0.3207
  670SOL    HW2 2010   2.870   2.410   2.064 -0.3694  3.2184 -1.9616
  671SOL     OW 2011   1.788   1.803   1.479  0.1240  0.4096 -0.4199
  671SOL    HW1 2012   1.817   1.846   1.389  1.9129 -2.4829 -1.0647
  671SOL    HW2 2013   1.688   1.819   1.496  0.5843  0.4277  1.0959
  672SOL     OW 2014   0.464   0.652   2.440  0.0957 -0.1763 -1.1355
  672SOL    HW1 2015   0.455   0.690   2.340 -1.4001  0.8842 -2.3644
  672SOL    HW2 2016   0.376   0.652   2.489  0.1869  0.1619 -2.7878
  673SOL     OW 2017   0.149   1.186   1.140  0.6245 -1.2679  0.0641
  673SOL    HW1 2018   0.150   1.255   1.217 -0.4489 -0.2933  2.0436
  673SOL    HW2 2019   0.244   1.150   1.113  0.9720 -0.4259  1.1431
  674SOL     OW 2020   1.622   3.002   0.312  0.5544 -0.5625 -0.0397
  674SOL    HW1 2021   1.597   3.104   0.333 -0.3895  1.6873  1.2037
  674SOL    HW2 2022   1.726   2.986   0.295 -0.7747  0.0441 -0.5727
  675SOL     OW 2023   1.714   0.826   2.281  0.4456 -0.5039 -0.5973
  675SOL    HW1 2024   1.811   0.805   2.303  0.0987  0.7489 -2.1777
  675SOL    HW2 2025   1.656   0.748   2.238 -0.4185  0.2984  0.6383
  676SOL     OW 2026   2.543   1.498   1.918 -0.2474  0.3692  0.1665
  676SOL    HW1 2027   2.495   1.459   1.831 -1.0410  1.5503  2.7954
  676SOL    HW2 2028   2.569   1.429   1.991  0.7158 -3.6000 -1.6517
  677SOL     OW 2029   1.920   0.702   0.916  0.0827  0.3901  0.0696
  677SOL    HW1 2030   1.833   0.699   0.972  1.9907  2.9271  2.3537
  677SOL    HW2 2031   1.959   0.606   0.924 -2.3434  1.5960 -0.1558
  678SOL     OW 2032   0.069   0.747   1.584 -0.3736  0.1653 -0.0809
  678SOL    HW1 2033   0.162   0.783   1.614 -0.8237  0.7211 -2.0452
  678SOL    HW2 2034   0.029   0.683   1.656  0.5382 -1.5012  1.6361
  679SOL     OW 2035   2.582   1.187   1.216 -0.4876  0.0253  0.1685
  679SOL    HW1 2036   2.483   1.218   1.215 -1.0503 -0.2407 -0.0027
  679SOL    HW2 2037   2.591   1.083   1.187 -1.5934 -2.4460  0.6586
  680SOL     OW 2038   2.827   0.436   1.662  0.0128 -0.2949 -0.2060
  680SOL    HW1 2039   2.780   0.513   1.607  2.0525  0.6113  0.1998
  680SOL    HW2 2040   2.889   0.466   1.736  0.8569 -1.5407 -5.5269
  681SOL     OW 2041   2.954   0.068   1.592  0.0919  0.9517  0.0638
  681SOL    HW1 2042   3.044   0.071   1.546 -2.9897 -0.3017 -0.1476
  681SOL    HW2 2043   2.883   0.127   1.543  1.1933 -3.0653 -0.7564
  682SOL     OW 2044   0.728   0.046   1.348  0.1188  0.5251 -0.0471
  682SOL    HW1 2045   0.655  -0.016   1.383  3.5784  0.0431  1.6376
  682SOL    HW2 2046   0.751   0.032   1.247  1.2822 -0.2105  2.1199
  683SOL     OW 2047   1.399   0.198   2.171  0.2909  0.6518  0.6566
  683SOL    HW1 2048   1.404   0.239   2.268  1.0545 -3.4825  0.6301
  683SOL    HW2 2049   1.463   0.249   2.109 -1.2528 -1.3795  2.6232
  684SOL     OW 2050   1.467   2.080   0.515 -0.5175 -0.8175 -0.6646
  684SOL    HW1 2051   1.499   2.027   0.600  2.2300  0.4226 -1.5696
  684SOL    HW2 2052   1.378   2.046   0.482  0.2331  2.1835 -0.4256
  685SOL     OW 2053   2.192   2.074   1.963  0.2353  0.7738  0.7272
  685SOL    HW1 2054   2.246   2.077   1.878 -1.0049 -2.0766 -2.1947
  685SOL    HW2 2055   2.247   2.063   2.048  1.3089 -1.9577 -3.1870
  686SOL     OW 2056   1.515   1.849   2.806  0.4447 -0.1500 -0.6667
  686SOL    HW1 2057   1.539   1.801   2.896  3.0426  1.6013  1.0234
  686SOL    HW2 2058   1.426   1.814   2.769  2.1030 -0.6678  0.7150
  687SOL     OW 2059   1.334   2.452   1.982  0.2313 -0.3806  0.3764
  687SOL    HW1 2060   1.358   2.353   1.970  1.2082  2.1065 -0.6804
  687SOL    HW2 2061   1.412   2.508   2.022  1.6825  0.0097 -0.0795
  688SOL     OW 2062   1.996   1.547   1.772  0.1346  0.2208 -0.6125
  688SOL    HW1 2063   2.093   1.577   1.773 -2.3223 -0.6011  1.9063
  688SOL    HW2 2064   1.974   1.506   1.678  1.5657  3.2863 -0.7204
  689SOL     OW 2065   2.382   1.084   2.769 -0.4255  0.1322 -0.2665
  689SOL    HW1 2066   2.305   1.021   2.806  1.4427 -1.7645  1.2309
  689SOL    HW2 2067   2.481   1.058   2.790 -0.1487  1.8222  1.2992
  690SOL     OW 2068   2.215   2.809   0.017 -0.1413 -0.0404  0.3458
  690SOL    HW1 2069   2.174   2.793  -0.075  0.3419  0.6313  1.5617
  690SOL    HW2 2070   2.160   2.764   0.098  0.7100  1.3048 -1.8188
  691SOL     OW 2071   2.591   0.415   2.151  0.1455  0.3311 -0.0934
  691SOL    HW1 2072   2.640   0.320   2.158  1.3592  0.4528 -0.4674
  691SOL    HW2 2073   2.626   0.466   2.066 -1.0595  0.0507  2.0447
  692SOL     OW 2074   2.656   1.215   0.760  0.4847  0.1181 -0.7506
  692SOL    HW1 2075   2.561   1.249   0.747 -1.7470 -1.0905  3.1401
  692SOL    HW2 2076   2.711   1.284   0.815 -0.9807  0.0605  2.0078
  693SOL     OW 2077   2.848   2.951   0.579 -0.6869 -0.3180  0.7380
  693SOL    HW1 2078   2.826   3.005   0.667 -0.1396 -0.7482  2.4084
  693SOL    HW2 2079   2.813   3.002   0.496  1.4836 -2.8897 -0.5016
  694SOL     OW 2080   2.409   2.236   0.084 -0.3764  0.6600  0.0518
  694SOL    HW1 2081   2.436   2.258   0.183  1.0374 -0.7703 -0.5577
  694SOL    HW2 2082   2.311   2.194   0.075 -3.4819  1.1860 -0.1748
  695SOL     OW 2083   0.522   2.977   1.447  0.1364 -0.3951  0.8017
  695SOL    HW1 2084   0.450   2.903   1.434 -1.2772  1.2892  0.4812
  695SOL    HW2 2085   0.506   3.036   1.530  0.0657  0.3763  0.1591
  696SOL     OW 2086   2.856   2.063   0.769 -0.4178 -0.1711 -0.3010
  696SOL    HW1 2087   2.926   1.985   0.776  0.0196  0.7439  1.0680
  696SOL    HW2 2088   2.831   2.086   0.670 -2.9425 -0.2389 -0.6220
  697SOL     OW 2089   1.659   1.924   1.856 -0.4776  0.5403 -0.1033
  697SOL    HW1 2090   1.731   1.863   1.812  1.4268  1.6488  0.6059
  697SOL    HW2 2091   1.697   2.023   1.855 -1.0320  0.1892 -2.1080
  698SOL     OW 2092   2.894   0.413   2.737 -0.1476 -0.3545  0.0971
  698SOL    HW1 2093   2.894   0.382   2.637  0.8400 -0.4473 -1.7869
  698SOL    HW2 2094   2.947   0.341   2.795  3.9919 -2.1643  0.2118
  699SOL     OW 2095   1.557   0.039   2.933 -0.7959  0.2813  0.1477
  699SOL    HW1 2096   1.504  -0.044   2.899  1.0628 -0.2288 -0.5373
  699SOL    HW2 2097   1.617   0.085   2.858  1.4542 -1.3079 -1.6577
  700SOL     OW 2098   1.046   2.321   1.397 -0.2024  0.4043 -0.1255
  700SOL    HW1 2099   1.133   2.274   1.366 -0.4781  2.2748 -0.4425
  700SOL    HW2 2100   0.960   2.302   1.342 -2.8522 -0.9154 -0.5720
  701SOL     OW 2101   1.935   2.894   0.003  0.2668  0.2719 -0.5487
  701SOL    HW1 2102   1.878   2.855   0.083 -3.9197  2.4384  0.2427
  701SOL    HW2 2103   1.945   3.000   0.013  1.3672  2.0590 -1.3604
  702SOL     OW 2104   2.062   1.315   1.951  0.3750 -0.1005  0.3744
  702SOL    HW1 2105   2.164   1.293   1.942  2.2261  2.9043 -1.8215
  702SOL    HW2 2106   2.034   1.391   1.881 -0.9626  1.8481  0.4080
  703SOL     OW 2107   1.935   0.915   1.462 -0.3279  0.4307 -0.3162
  703SOL    HW1 2108   1.923   0.821   1.512 -1.0651  0.0440  1.4774
  703SOL    HW2 2109   1.989   0.980   1.526  0.3592  1.8699  0.0186
  704SOL     OW 2110   0.287   2.019   1.748 -0.3806  0.6143 -0.0094
  704SOL    HW1 2111   0.342   1.944   1.795  1.1217 -1.9418  0.4780
  704SOL    HW2 2112   0.338   2.080   1.681 -1.3666  0.6401  0.3472
  705SOL     OW 2113   2.538   1.557   0.885  0.8937 -0.1964 -0.0179
  705SOL    HW1 2114   2.491   1.467   0.868  0.6762  2.0066 -0.2633
  705SOL    HW2 2115   2.644   1.550   0.874  2.5075  1.0975 -0.9091
  706SOL     OW 2116   0.709   1.711   1.884 -0.4962 -0.3103  0.2124
  706SOL    HW1 2117   0.727   1.611   1.902  1.3195 -0.9586  0.2654
  706SOL    HW2 2118   0.750   1.772   1.961  1.0477  1.6525  1.0641
  707SOL     OW 2119   2.310   1.168   1.898  0.2547  0.1582 -1.0439
  707SOL    HW1 2120   2.386   1.150   1.963 -2.1002 -2.3413  0.6218
  707SOL    HW2 2121   2.279   1.077   1.857  0.0526 -1.5509 -1.2496
  708SOL     OW 2122   2.959   0.531   3.038  0.0660  0.0734  0.2545
  708SOL    HW1 2123   2.946   0.599   2.961  0.8991  2.7543  0.5831
  708SOL    HW2 2124   2.948   0.430   3.011 -0.5660 -3.8132  0.4556
  709SOL     OW 2125   1.843   1.872   0.309 -0.4878  0.0019 -0.3519
  709SOL    HW1 2126   1.881   1.961   0.338 -0.4480 -0.5404 -2.1107
  709SOL    HW2 2127   1.802   1.871   0.215 -0.7280 -0.4544 -0.8515
  710SOL     OW 2128   1.711   1.621   2.387 -0.5933  0.2094 -0.6903
  710SOL    HW1 2129   1.790   1.576   2.339  1.0428  0.2274  4.1236
  710SOL    HW2 2130   1.694   1.571   2.479  1.3964 -2.2024  0.4183
  711SOL     OW 2131   2.565   2.919   1.071 -0.1004  0.5054  0.9993
  711SOL    HW1 2132   2.517   3.012   1.068 -2.2990  0.6839  1.4117
  711SOL    HW2 2133   2.668   2.927   1.059  1.4039 -0.5067 -0.0801
  712SOL     OW 2134   1.411   2.149   1.972 -0.1766  0.5621 -0.2104
  712SOL    HW1 2135   1.508   2.185   1.993 -1.6333 -0.1803  1.2882
  712SOL    HW2 2136   1.394   2.129   1.871  0.3216 -0.5646  2.4163
  713SOL     OW 2137   2.787   1.460   2.497  0.2892  0.5339 -0.5378
  713SOL    HW1 2138   2.798   1.357   2.466 -3.0371 -1.5922 -1.8157
  713SOL    HW2 2139   2.697   1.469   2.549 -0.1161 -0.9072 -0.3063
  714SOL     OW 2140   2.648   0.438   2.402 -0.0335  0.2089  0.2120
  714SOL    HW1 2141   2.571   0.413   2.470 -0.7944 -0.7580 -3.0837
  714SOL    HW2 2142   2.612   0.443   2.305  1.6363 -0.0511  4.0636
  715SOL     OW 2143   1.532   2.075   1.159  0.0347 -0.7220 -0.0001
  715SOL    HW1 2144   1.454   2.143   1.133 -1.1066  1.0459 -1.2053
  715SOL    HW2 2145   1.577   2.094   1.249  0.0589  0.4389 -2.0113
  716SOL     OW 2146   1.176   0.123   1.503 -0.4435 -0.3472  0.0506
  716SOL    HW1 2147   1.089   0.133   1.452  1.4806 -0.5176  1.6623
  716SOL    HW2 2148   1.218   0.211   1.511  0.8511  0.1862  0.8637
  717SOL     OW 2149   1.156   0.549   1.596  0.5654  0.0349 -0.0302
  717SOL    HW1 2150   1.243   0.583   1.648  1.9149  3.5874 -2.1269
  717SOL    HW2 2151   1.187   0.531   1.499 -2.7334 -2.7831 -1.6665
  718SOL     OW 2152   0.663   0.888   0.974  0.2250 -0.4558  0.4935
  718SOL    HW1 2153   0.664   0.878   0.873 -1.8045 -2.6203 -0.3720
  718SOL    HW2 2154   0.682   0.988   1.002  0.3069  0.5785 -0.5451
  719SOL     OW 2155   0.663   1.721   2.310  0.9391 -0.2491 -0.1089
  719SOL    HW1 2156   0.719   1.796   2.354 -3.0991 -1.5270 -2.1846
  719SOL    HW2 2157   0.672   1.625   2.359  0.6642 -2.0528 -0.2178
  720SOL     OW 2158   2.203   1.133   0.274 -0.6371 -0.2687 -0.2203
  720SOL    HW1 2159   2.264   1.060   0.236  0.3814 -0.1135 -0.8526
  720SOL    HW2 2160   2.181   1.114   0.372  2.9049  1.2194 -1.6937
  721SOL     OW 2161   2.244   3.032   2.069  0.1157 -0.2287 -0.0576
  721SOL    HW1 2162   2.192   3.050   1.983  3.7391  0.8341  1.0685
  721SOL    HW2 2163   2.194   3.046   2.161  0.7511 -0.9534  0.0951
  722SOL     OW 2164   2.303   1.604   0.453 -0.1582 -0.5814 -0.0572
  722SOL    HW1 2165   2.336   1.547   0.368  1.0887 -0.6167  0.3882
  722SOL    HW2 2166   2.207   1.650   0.440 -0.5446  1.4527  1.4198
  723SOL     OW 2167   2.649   2.678   1.888 -0.4080 -0.2013 -0.2981
  723SOL    HW1 2168   2.653   2.776   1.925 -0.2990 -1.2732  0.8991
  723SOL    HW2 2169   2.552   2.644   1.873  1.1375 -0.1307  1.9402
  724SOL     OW 2170   0.503   2.505   2.397  0.1677  0.3538  0.4170
  724SOL    HW1 2171   0.408   2.480   2.436 -0.8865 -0.2014 -0.7290
  724SOL    HW2 2172   0.572   2.514   2.474 -0.3925  1.7456 -1.7058
  725SOL     OW 2173   2.367   2.706   1.500  0.4236  0.2580 -0.4781
  725SOL    HW1 2174   2.422   2.790   1.470 -1.1448 -1.6338  0.7648
  725SOL    HW2 2175   2.412   2.610   1.484 -0.8185  2.8311 -1.2467
  726SOL     OW 2176   2.489   2.328   0.728  0.3937 -0.6109 -0.0715
  726SOL    HW1 2177   2.485   2.430   0.699 -3.2783  3.0341 -0.8225
  726SOL    HW2 2178   2.455   2.265   0.650  1.1032  0.4950  1.7422
  727SOL     OW 2179   0.166   3.077   0.121  0.3138 -0.8477 -0.5630
  727SOL    HW1 2180   0.244   3.069   0.053  2.1727 -1.1897 -0.0703
  727SOL    HW2 2181   0.072   3.087   0.079  2.4977  0.9792  0.7242
  728SOL     OW 2182   2.885   0.688   0.894 -0.4848  0.1011  0.3995
  728SOL    HW1 2183   2.859   0.648   0.802 -1.6681  1.0068 -0.7328
  728SOL    HW2 2184   2.816   0.657   0.966  1.0393  1.1259  1.5017
  729SOL     OW 2185   0.026   2.550   0.718 -0.0869  0.1843 -0.2677
  729SOL    HW1 2186   0.023   2.460   0.779 -0.0329 -2.4468  1.3157
  729SOL    HW2 2187   0.112   2.554   0.659  0.0808 -2.3852 -0.7722
  730SOL     OW 2188   2.553   0.679   0.824  0.4605  0.8322  0.3461
  730SOL    HW1 2189   2.550   0.782   0.841  0.9788  1.2138 -2.4560
  730SOL    HW2 2190   2.615   0.654   0.743  1.6249 -0.4194 -2.4868
  731SOL     OW 2191   0.026   2.185   2.433  0.2094 -0.0077  0.1704
  731SOL    HW1 2192   0.027   2.215   2.532 -1.2832  0.1208  0.8094
  731SOL    HW2 2193  -0.069   2.203   2.395 -0.4236  0.0217 -1.1015
  732SOL     OW 2194   1.189   2.823   1.987 -0.2361  0.7305 -0.1570
  732SOL    HW1 2195   1.223   2.778   2.078 -0.5126 -1.5859 -0.9665
  732SOL    HW2 2196   1.200   2.757   1.904 -1.2177 -0.0007  0.5005
  733SOL     OW 2197   3.050   0.635   2.224 -0.9359  0.1922  0.1518
  733SOL    HW1 2198   3.141   0.638   2.180 -0.7681 -0.5659  1.9326
  733SOL    HW2 2199   2.986   0.561   2.180  1.7339 -0.9049 -0.4406
  734SOL     OW 2200   1.423   0.363   2.678 -0.0863  0.2654 -0.1348
  734SOL    HW1 2201   1.413   0.464   2.687  1.2441  1.1642 -0.5915
  734SOL    HW2 2202   1.351   0.316   2.736 -1.1601  1.9560  2.3907
  735SOL     OW 2203   2.892   2.612   2.283 -0.3360 -0.1187  0.5807
  735SOL    HW1 2204   2.881   2.552   2.197 -3.3602 -3.5268 -2.0672
  735SOL    HW2 2205   2.977   2.676   2.282  1.4421  1.4929 -1.0614
  736SOL     OW 2206   0.934   0.453   2.540  0.0274 -0.4807  0.0208
  736SOL    HW1 2207   0.872   0.509   2.484  0.2890  1.0628  3.9030
  736SOL    HW2 2208   0.932   0.354   2.520  0.0749 -1.5277  1.3634
  737SOL     OW 2209   2.622   0.488   2.827 -0.0293 -0.6467  0.3895
  737SOL    HW1 2210   2.588   0.452   2.916 -1.4610 -1.6485 -3.0632
  737SOL    HW2 2211   2.725   0.479   2.810  2.0300  0.1571  1.1814
  738SOL     OW 2212   1.726   1.258   2.903 -0.2102  0.0582 -0.0980
  738SOL    HW1 2213   1.826   1.254   2.876 -1.8915 -2.7038  2.9033
  738SOL    HW2 2214   1.663   1.225   2.829 -1.2109  1.3108  2.0221
  739SOL     OW 2215   1.758   0.700   0.681  0.0435  0.1438  0.0073
  739SOL    HW1 2216   1.804   0.714   0.771 -1.6079 -1.3565  2.4347
  739SOL    HW2 2217   1.771   0.602   0.639  0.3484 -1.9086 -1.4339
  740SOL     OW 2218   1.935   1.918   2.381  0.2982 -0.4045 -0.3662
  740SOL    HW1 2219   1.971   1.834   2.430  0.3491 -3.7156  0.0639
  740SOL    HW2 2220   1.883   1.891   2.303  3.5587 -2.2033  0.8169
  741SOL     OW 2221   2.578   0.114   2.526  0.0036  0.6045  0.4832
  741SOL    HW1 2222   2.680   0.124   2.520 -1.2909 -2.6761  0.1931
  741SOL    HW2 2223   2.540   0.103   2.431 -1.7314 -2.6782 -0.8494
  742SOL     OW 2224   2.201   1.371   0.157  1.0339  0.3890  0.2219
  742SOL    HW1 2225   2.103   1.407   0.136 -2.5770  1.0096  0.1216
  742SOL    HW2 2226   2.207   1.292   0.230  1.2564 -3.7222  0.5280
  743SOL     OW 2227   1.751   0.624   2.631 -0.0322 -0.3452  0.1223
  743SOL    HW1 2228   1.731   0.551   2.570  1.7637  3.0378  2.2012
  743SOL    HW2 2229   1.677   0.697   2.614 -1.7365 -0.9453 -1.8847
  744SOL     OW 2230   2.708   2.010   0.060 -0.0544 -0.2309  0.2083
  744SOL    HW1 2231   2.653   2.071   0.115 -0.9526  0.9290 -0.9507
  744SOL    HW2 2232   2.669   1.918   0.036  0.1684 -0.3028  1.6016
  745SOL     OW 2233   2.164   2.646   2.143  0.4660 -0.0109 -0.5037
  745SOL    HW1 2234   2.069   2.678   2.167  1.5713  3.9472 -0.2550
  745SOL    HW2 2235   2.229   2.701   2.201  1.4723 -0.5662  0.7747
  746SOL     OW 2236   0.014   2.646   1.728  0.2002 -0.1198 -0.0682
  746SOL    HW1 2237   0.088   2.581   1.702 -1.6485  0.0740  0.6827
  746SOL    HW2 2238   0.029   2.687   1.818 -3.4669  0.5359 -0.0497
  747SOL     OW 2239   3.088   1.742   1.661 -0.3291 -0.2845  0.2614
  747SOL    HW1 2240   3.020   1.667   1.642 -1.7884  4.8030  2.3522
  747SOL    HW2 2241   3.154   1.765   1.579  2.0160  0.2547  0.6010
  748SOL     OW 2242   1.811   2.711   2.908 -0.3508  0.0229  0.1090
  748SOL    HW1 2243   1.847   2.797   2.949  1.0194  0.4825 -0.6987
  748SOL    HW2 2244   1.720   2.720   2.857  1.1582 -1.2913  1.9076
  749SOL     OW 2245   1.330   3.038   0.852 -0.9374 -0.6520  0.2133
  749SOL    HW1 2246   1.247   2.991   0.828  5.4834 -1.3499 -0.1700
  749SOL    HW2 2247   1.411   3.003   0.791  1.9555 -0.1299  0.0573
  750SOL     OW 2248   2.301   0.195   1.864  0.2684  0.0215 -0.1699
  750SOL    HW1 2249   2.317   0.248   1.777 -1.7453  0.5970 -0.8567
  750SOL    HW2 2250   2.285   0.264   1.945 -0.4461  1.4237  2.3557
  751SOL     OW 2251   0.772   2.048   2.833  0.1123 -0.5009  0.0987
  751SOL    HW1 2252   0.858   2.050   2.888 -0.4222 -1.1536 -1.7202
  751SOL    HW2 2253   0.692   2.066   2.896  2.2514 -0.9491 -1.2658
  752SOL     OW 2254   1.322   0.846   1.274 -0.1867  0.2582  0.0438
  752SOL    HW1 2255   1.413   0.898   1.255  1.6793 -0.7501 -0.7778
  752SOL    HW2 2256   1.335   0.758   1.328 -1.3975  0.2554 -1.7767
  753SOL     OW 2257   0.943   2.626   1.822 -0.5413  0.9699 -0.2763
  753SOL    HW1 2258   1.038   2.666   1.802 -0.2411  1.5137 -0.8841
  753SOL    HW2 2259   0.873   2.700   1.833  1.9216  1.4618 -0.2582
  754SOL     OW 2260   1.138   1.203   3.037 -0.2745 -0.8852 -0.2890
  754SOL    HW1 2261   1.178   1.141   2.971 -0.8344  0.2578 -1.1876
  754SOL    HW2 2262   1.198   1.283   3.058 -0.2115  0.3004  0.2228
  755SOL     OW 2263   1.993   0.493   2.248  0.0672  0.4148  0.2700
  755SOL    HW1 2264   2.049   0.407   2.257  2.0077 -1.2856 -0.5401
  755SOL    HW2 2265   1.915   0.493   2.314  4.0205  2.9045  1.1433
  756SOL     OW 2266   2.586   1.001   2.968  0.1183 -0.0267  0.0044
  756SOL    HW1 2267   2.687   0.974   2.967 -0.3295  0.0937 -0.6928
  756SOL    HW2 2268   2.528   0.916   2.994  0.1950  1.7807 -2.4635
  757SOL     OW 2269   0.110   0.486   2.017 -0.5554 -0.1073  0.2352
  757SOL    HW1 2270   0.179   0.429   1.967 -0.9515  1.5455  1.6608
  757SOL    HW2 2271   0.014   0.451   2.013 -2.5438 -4.1329 -1.6756
  758SOL     OW 2272   2.214   0.088   1.499  0.6174  0.4406 -0.5823
  758SOL    HW1 2273   2.194  -0.014   1.494  0.4611  0.7340 -0.0498
  758SOL    HW2 2274   2.257   0.128   1.413  1.0494 -1.3303 -3.1995
  759SOL     OW 2275   1.676   0.132   0.076  0.2115  0.2697  0.1434
  759SOL    HW1 2276   1.638   0.091  -0.010  1.7715  0.0448 -0.1421
  759SOL    HW2 2277   1.777   0.111   0.087 -1.9939  0.1100 -1.4142
  760SOL     OW 2278   2.562   2.054   2.832  0.8038 -0.1861  0.2282
  760SOL    HW1 2279   2.639   1.991   2.869 -1.0163 -1.1927  0.5335
  760SOL    HW2 2280   2.562   2.143   2.885  3.1255 -0.5115  0.7832
  761SOL     OW 2281   1.878   1.785   1.736 -0.7954 -0.1749 -0.4029
  761SOL    HW1 2282   1.916   1.686   1.753 -1.1785 -1.1090  0.0132
  761SOL    HW2 2283   1.854   1.797   1.633 -1.5311  0.4420  0.9195
  762SOL     OW 2284   0.484   2.368   0.956  0.2567  0.0933  0.2666
  762SOL    HW1 2285   0.541   2.349   0.869 -0.5152 -0.9793 -2.0491
  762SOL    HW2 2286   0.539   2.410   1.029  0.9461 -0.0742 -0.4824
  763SOL     OW 2287   2.103   1.567   3.008 -0.6066  0.3633 -0.0688
  763SOL    HW1 2288   2.193   1.512   3.001  0.8823 -1.6621  0.7383
  763SOL    HW2 2289   2.046   1.538   3.093  3.6361 -0.0184  1.3913
  764SOL     OW 2290   0.679   0.569   0.737  0.0922  0.9714  0.1392
  764SOL    HW1 2291   0.594   0.515   0.762  1.7555 -0.1717 -0.6352
  764SOL    HW2 2292   0.768   0.541   0.794  1.2203 -0.2191 -2.0035
  765SOL     OW 2293   0.777   0.250   0.789  0.3667  0.0855 -0.3896
  765SOL    HW1 2294   0.820   0.307   0.721 -1.2479 -0.8358  2.4157
  765SOL    HW2 2295   0.773   0.304   0.881 -2.4283  2.9635  2.4965
  766SOL     OW 2296   2.861   2.162   2.986 -0.3701  0.2602 -0.3421
  766SOL    HW1 2297   2.778   2.114   3.029  0.5113 -3.4192  2.0242
  766SOL    HW2 2298   2.930   2.198   3.058 -1.4185 -0.8525 -0.0729
  767SOL     OW 2299   2.785   1.675   0.571  0.1183 -0.0833 -0.0847
  767SOL    HW1 2300   2.684   1.686   0.609 -1.7406  0.4175 -1.5824
  767SOL    HW2 2301   2.852   1.725   0.631 -3.1502 -1.0193  0.6439
  768SOL     OW 2302   1.033   0.109   0.234 -0.1307 -1.1532 -0.0852
  768SOL    HW1 2303   0.990   0.130   0.324  2.3319  1.2086  0.2830
  768SOL    HW2 2304   1.135   0.130   0.235 -2.5320 -0.4516  0.3552
  769SOL     OW 2305   1.100   1.890   2.340 -0.0958 -0.3032  0.1168
  769SOL    HW1 2306   0.995   1.885   2.333  0.0035 -1.8355 -0.9601
  769SOL    HW2 2307   1.130   1.875   2.436 -1.8779  0.1867  0.8029
  770SOL     OW 2308   0.175   1.143   2.302  0.0456  0.4404 -0.3745
  770SOL    HW1 2309   0.178   1.187   2.397  1.3849  0.4155  0.7812
  770SOL    HW2 2310   0.087   1.166   2.257 -1.4651 -0.7380  1.8081
  771SOL     OW 2311   3.071   2.845   1.938  0.1012 -0.0175  0.1535
  771SOL    HW1 2312   3.040   2.884   1.841  0.5633  1.8353 -2.7944
  771SOL    HW2 2313   3.005   2.885   2.010 -1.3595  0.2696 -0.4863
  772SOL     OW 2314   2.247   0.184   2.858 -0.9997 -0.2886  0.0775
  772SOL    HW1 2315   2.326   0.138   2.805  2.6175  0.3242 -0.0622
  772SOL    HW2 2316   2.273   0.222   2.951 -1.2822 -0.7291 -0.9508
  773SOL     OW 2317   0.645   2.123   2.381  0.7327 -0.5292  0.3207
  773SOL    HW1 2318   0.601   2.168   2.298 -3.2357 -1.7180 -0.8752
  773SOL    HW2 2319   0.582   2.119   2.459 -1.9080  2.6217  0.5756
  774SOL     OW 2320   2.103   3.062   2.584 -0.4779 -0.2741  0.5849
  774SOL    HW1 2321   2.095   3.156   2.624 -1.4665  1.2119  0.4159
  774SOL    HW2 2322   2.124   2.992   2.653 -1.1838  1.3110 -2.2875
  775SOL     OW 2323   2.562   2.983   2.244  0.1136 -0.1589  0.7224
  775SOL    HW1 2324   2.518   3.075   2.244 -0.2332  0.6781  2.4627
  775SOL    HW2 2325   2.632   2.972   2.321 -0.7955  0.0563  2.6119
  776SOL     OW 2326   0.019   1.233   0.193  0.3169 -0.2076  0.1918
  776SOL    HW1 2327  -0.053   1.204   0.120  0.6940 -0.3085 -0.8775
  776SOL    HW2 2328  -0.028   1.267   0.277  2.1932 -0.2587 -0.7781
  777SOL     OW 2329   0.407   2.901   0.372 -0.6498 -0.5142 -0.3183
  777SOL    HW1 2330   0.304   2.889   0.355  1.0495  0.7568 -2.6722
  777SOL    HW2 2331   0.461   2.882   0.285 -2.0036 -0.0627 -0.3270
  778SOL     OW 2332   1.336   1.983   0.165  0.3628  0.0146 -0.6152
  778SOL    HW1 2333   1.276   2.009   0.244 -0.1469 -0.1344  1.3335
  778SOL    HW2 2334   1.394   2.057   0.125  0.6388 -1.8960  0.2114
  779SOL     OW 2335   0.182   0.906   0.477 -0.0633  0.3856  0.4116
  779SOL    HW1 2336   0.134   0.816   0.456 -2.1837 -1.5468  3.1061
  779SOL    HW2 2337   0.137   0.958   0.555  1.3839 -2.9383  0.1260
  780SOL     OW 2338   0.124   0.314   2.421 -0.9752 -0.0433  0.0965
  780SOL    HW1 2339   0.118   0.413   2.455 -1.0767 -2.1430  1.6448
  780SOL    HW2 2340   0.217   0.292   2.384 -1.0949  0.1323 -0.6467
  781SOL     OW 2341   0.665   1.654   1.523 -0.4296 -0.2554  0.4305
  781SOL    HW1 2342   0.732   1.594   1.578 -0.5234 -1.1986  1.1159
  781SOL    HW2 2343   0.571   1.615   1.513  0.1268  1.4671 -0.8437
  782SOL     OW 2344   2.610   0.147   0.917  0.2409 -0.4393 -0.2132
  782SOL    HW1 2345   2.556   0.183   0.835  0.4068  3.3541  0.9743
  782SOL    HW2 2346   2.605   0.209   0.998 -1.0769 -0.8268 -4.0233
  783SOL     OW 2347   2.779   0.676   2.441  0.5464  0.0772  0.0852
  783SOL    HW1 2348   2.783   0.706   2.537  0.0175  0.0254  2.4319
  783SOL    HW2 2349   2.731   0.587   2.429  0.1531 -2.9781 -0.1322
  784SOL     OW 2350   1.471   2.168   0.042  0.2913 -0.3642 -0.6089
  784SOL    HW1 2351   1.513   2.260   0.067  0.9929  3.0410 -1.4205
  784SOL    HW2 2352   1.403   2.181  -0.036  2.3561 -1.3439  0.5511
  785SOL     OW 2353   2.068   0.314   0.043  0.2925  0.1742  0.5479
  785SOL    HW1 2354   1.987   0.328   0.109 -2.3943  0.2282 -0.3018
  785SOL    HW2 2355   2.101   0.398  -0.002  0.0974  3.8766  3.3637
  786SOL     OW 2356   2.065   2.188   2.252  0.2356  0.0325  0.5154
  786SOL    HW1 2357   1.998   2.113   2.264  0.9760  1.8858  1.7274
  786SOL    HW2 2358   2.164   2.158   2.232  3.8173 -3.8524  0.0166
  787SOL     OW 2359   1.337   0.506   0.918  0.0019 -0.4180  0.1399
  787SOL    HW1 2360   1.308   0.598   0.964  0.5267 -0.5504 -0.7828
  787SOL    HW2 2361   1.415   0.517   0.847  1.4128 -0.4381 -4.8919
  788SOL     OW 2362   1.260   0.387   0.085  1.4422 -0.6682 -0.1823
  788SOL    HW1 2363   1.176   0.348   0.034 -2.4231 -0.7209  1.2443
  788SOL    HW2 2364   1.239   0.486   0.118 -3.0103  0.6187 -0.0855
  789SOL     OW 2365   2.560   0.081   1.932  0.2404 -0.6438  0.6021
  789SOL    HW1 2366   2.462   0.102   1.894 -3.7482  1.6474  0.1067
  789SOL    HW2 2367   2.597  -0.011   1.925  2.7033  0.8811  1.8556
  790SOL     OW 2368   2.615   2.799   0.782 -0.0032  0.4169  0.1926
  790SOL    HW1 2369   2.641   2.854   0.703 -2.8973  0.2387  2.6960
  790SOL    HW2 2370   2.592   2.860   0.864  0.5922 -0.3531 -1.1118
  791SOL     OW 2371   1.904   1.210   0.240 -0.3003 -0.3406 -0.9738
  791SOL    HW1 2372   1.812   1.158   0.267  0.9736 -1.8870  0.4455
  791SOL    HW2 2373   1.986   1.149   0.235 -3.5314  0.2218 -0.1025
  792SOL     OW 2374   0.425   1.766   2.142  0.4044  0.4676 -0.2687
  792SOL    HW1 2375   0.509   1.746   2.197 -0.2180 -2.4064 -0.1450
  792SOL    HW2 2376   0.351   1.805   2.201  1.8833 -1.4929  2.1130
  793SOL     OW 2377   2.120   1.567   2.133 -0.6396 -0.2982  0.4864
  793SOL    HW1 2378   2.195   1.622   2.085 -0.3163 -0.5278  1.0429
  793SOL    HW2 2379   2.100   1.475   2.091 -0.0479 -0.3956 -0.2229
  794SOL     OW 2380   0.550   1.404   2.343 -0.2944 -0.9088  0.0029
  794SOL    HW1 2381   0.525   1.388   2.244 -0.3964  3.2488 -2.2418
  794SOL    HW2 2382   0.495   1.481   2.385  0.1047  1.2723  0.8716
  795SOL     OW 2383   2.516   2.270   1.830 -0.1544  0.2027  0.2945
  795SOL    HW1 2384   2.532   2.223   1.920  1.9651 -1.4712  0.5517
  795SOL    HW2 2385   2.445   2.219   1.777 -0.1474 -0.7661  1.0547
  796SOL     OW 2386   3.094   1.116   2.680 -0.1002  0.1409 -0.4507
  796SOL    HW1 2387   2.994   1.147   2.680 -0.4951 -0.6928  2.0764
  796SOL    HW2 2388   3.139   1.151   2.770 -2.5175  1.0451  1.2999
  797SOL     OW 2389   0.749   0.677   1.405 -0.2377  0.1056  0.3799
  797SOL    HW1 2390   0.830   0.726   1.448  1.8907 -1.6839 -0.3958
  797SOL    HW2 2391   0.669   0.740   1.384 -1.2374  0.6479  0.0285
  798SOL     OW 2392   1.287   0.338   1.126 -0.7701 -0.3830 -0.0131
  798SOL    HW1 2393   1.362   0.327   1.200  1.8714 -0.4017  4.4734
  798SOL    HW2 2394   1.316   0.408   1.053 -1.2604  0.8157 -0.3185
  799SOL     OW 2395   1.969   2.715   1.052  0.0186 -0.0083  0.1443
  799SOL    HW1 2396   1.914   2.675   1.128  0.9348  0.4263  1.2310
  799SOL    HW2 2397   1.933   2.693   0.962 -1.2146  2.8251  2.8070
  800SOL     OW 2398   3.047   0.618   1.828  0.1112  0.6252 -0.1519
  800SOL    HW1 2399   2.955   0.649   1.862 -0.3553  0.8165  3.0568
  800SOL    HW2 2400   3.120   0.602   1.899  1.5692 -0.6689 -0.0979
  801SOL     OW 2401   1.976   2.254   0.073 -0.1040 -0.4177 -0.2031
  801SOL    HW1 2402   1.898   2.219   0.014 -0.3886  3.4437 -2.2354
  801SOL    HW2 2403   2.062   2.195   0.053 -1.3248 -1.7779  0.5624
  802SOL     OW 2404   0.727   0.831   2.563  0.1299 -0.1086 -0.1957
  802SOL    HW1 2405   0.774   0.805   2.476 -0.5040  1.0546 -2.0184
  802SOL    HW2 2406   0.621   0.843   2.551  0.4608  1.8728 -1.4561
  803SOL     OW 2407   0.957   0.077   0.880  0.1554  0.0869 -0.2108
  803SOL    HW1 2408   1.047   0.132   0.901  4.5902  0.5204  1.8982
  803SOL    HW2 2409   0.884   0.134   0.834 -1.2482  0.1705  0.0327
  804SOL     OW 2410   0.278   0.030   2.146 -0.2246  0.0816 -0.2247
  804SOL    HW1 2411   0.300   0.132   2.141  2.5042 -1.5080  1.0651
  804SOL    HW2 2412   0.246  -0.011   2.053  2.9813 -2.1950  1.0496
  805SOL     OW 2413   2.418   0.268   0.362 -0.3105  0.1820  0.5077
  805SOL    HW1 2414   2.512   0.283   0.398 -3.3911  1.9894  1.1739
  805SOL    HW2 2415   2.406   0.274   0.262  0.2249 -1.0683  2.4461
  806SOL     OW 2416   0.639   2.430   1.668  0.2428 -0.5064  0.3998
  806SOL    HW1 2417   0.631   2.535   1.688  1.9850 -0.8918  3.0344
  806SOL    HW2 2418   0.735   2.397   1.681 -0.1157  0.0875 -2.5078
  807SOL     OW 2419   2.444   0.912   0.424  1.0272 -0.5398  0.0315
  807SOL    HW1 2420   2.518   0.866   0.477 -0.4819  3.4373  0.7521
  807SOL    HW2 2421   2.476   0.936   0.329 -0.5402 -0.7726 -1.3266
  808SOL     OW 2422   0.540   2.043   3.000  0.2744  0.3421  0.3667
  808SOL    HW1 2423   0.542   2.042   3.106  1.8638  0.1542  1.1085
  808SOL    HW2 2424   0.538   1.944   2.962  0.0535 -2.5229 -1.4590
  809SOL     OW 2425   2.687   1.948   1.941  0.3760 -0.3179  0.6309
  809SOL    HW1 2426   2.784   1.984   1.971  1.3270  0.8607  1.6333
  809SOL    HW2 2427   2.661   1.981   1.845 -0.6863 -2.8390 -0.7207
  810SOL     OW 2428   2.110   1.046   0.512  0.0702 -0.4658 -0.0795
  810SOL    HW1 2429   2.184   1.018   0.574 -1.6450  1.1287  0.3301
  810SOL    HW2 2430   2.055   1.118   0.557 -0.0057  0.5709  0.4436
  811SOL     OW 2431   1.363   2.487   1.289 -0.2286 -0.3122 -0.1064
  811SOL    HW1 2432   1.335   2.390   1.305  1.7153 -0.6504 -0.1236
  811SOL    HW2 2433   1.295   2.540   1.229 -0.5288 -2.7191 -0.0314
  812SOL     OW 2434   1.465   0.850   1.950 -0.2938  0.1729 -0.1693
  812SOL    HW1 2435   1.537   0.879   2.022  0.0793  0.5537 -0.4621
  812SOL    HW2 2436   1.381   0.916   1.933 -0.5869  0.6326 -0.2791
  813SOL     OW 2437   1.741   2.127   2.471  0.3460 -1.0155 -0.1010
  813SOL    HW1 2438   1.804   2.047   2.492  1.6373  1.2614 -0.3787
  813SOL    HW2 2439   1.704   2.132   2.375 -2.3272  4.1025  0.9649
  814SOL     OW 2440   2.869   1.556   2.835  0.2136  0.4913 -0.2750
  814SOL    HW1 2441   2.955   1.558   2.891  0.5769  1.3841  0.7770
  814SOL    HW2 2442   2.865   1.629   2.764 -0.7924  2.3057 -0.3538
  815SOL     OW 2443   2.184   2.874   2.762 -0.0503  0.8432  0.2478
  815SOL    HW1 2444   2.144   2.816   2.833 -2.9657  1.5397  2.4791
  815SOL    HW2 2445   2.286   2.875   2.755 -0.1863  0.7559 -0.8808
  816SOL     OW 2446   1.640   0.326   1.652 -0.3139  0.3618  0.8042
  816SOL    HW1 2447   1.661   0.226   1.653  0.4570  0.2406  0.4040
  816SOL    HW2 2448   1.546   0.350   1.689  2.5805  0.1649 -1.9541
  817SOL     OW 2449   0.414   1.227   2.533  0.3369  0.2622 -0.0833
  817SOL    HW1 2450   0.312   1.256   2.543 -2.0880 -0.4375  2.6110
  817SOL    HW2 2451   0.458   1.284   2.461  0.2606  1.2666  0.8428
  818SOL     OW 2452   1.979   0.784   0.464  0.2166 -0.0411  0.0895
  818SOL    HW1 2453   2.018   0.879   0.463  2.5353  0.4333 -2.6033
  818SOL    HW2 2454   1.904   0.773   0.533  1.5467  0.2158 -0.7175
  819SOL     OW 2455   2.786   2.915   3.031 -0.2889  0.1242 -0.0750
  819SOL    HW1 2456   2.858   2.854   2.994 -1.9111 -0.0658  1.0529
  819SOL    HW2 2457   2.699   2.907   2.977 -0.5052  1.1639  0.9488
  820SOL     OW 2458   1.263   1.119   0.647  0.5775 -0.3210  0.6849
  820SOL    HW1 2459   1.245   1.216   0.672 -0.1359  1.4957 -1.5913
  820SOL    HW2 2460   1.235   1.043   0.713 -2.2103  2.1067 -0.9877
  821SOL     OW 2461   3.096   1.295   0.676 -0.2149  0.2908  0.0764
  821SOL    HW1 2462   3.072   1.292   0.774 -1.1189  0.5373  1.5146
  821SOL    HW2 2463   3.157   1.378   0.660  0.4648  0.6434 -0.6672
  822SOL     OW 2464   2.546   1.740   2.435 -0.2188  0.1382  0.1395
  822SOL    HW1 2465   2.529   1.813   2.508 -2.5847  0.9984 -2.4211
  822SOL    HW2 2466   2.467   1.735   2.373 -0.2155 -0.6154 -2.1200
  823SOL     OW 2467   2.075   0.777   1.212  0.9610  0.1791 -0.2269
  823SOL    HW1 2468   2.007   0.821   1.278  0.5638 -1.2452  1.0288
  823SOL    HW2 2469   2.040   0.759   1.120 -0.2616 -0.0741  1.4808
  824SOL     OW 2470   0.136   2.062   2.792  0.3102  0.4646  0.1160
  824SOL    HW1 2471   0.109   1.970   2.832 -0.7683  0.5333 -4.5517
  824SOL    HW2 2472   0.202   2.039   2.720  0.6056 -0.2433  0.1073
  825SOL     OW 2473   1.250   1.099   0.310 -0.4197  0.0125  0.1791
  825SOL    HW1 2474   1.276   1.192   0.283 -3.7153  0.5061  0.9837
  825SOL    HW2 2475   1.186   1.095   0.390  3.2733 -0.3796  5.0816
  826SOL     OW 2476   1.928   0.666   1.610 -0.1051  0.4700  0.0527
  826SOL    HW1 2477   2.009   0.603   1.635 -1.2905 -0.1977 -0.2549
  826SOL    HW2 2478   1.856   0.610   1.555  0.3645  0.0085  1.7508
  827SOL     OW 2479   0.705   1.369   0.278 -0.0024  0.1185  0.3198
  827SOL    HW1 2480   0.753   1.308   0.208 -1.4575 -1.2863  0.9928
  827SOL    HW2 2481   0.683   1.331   0.368  0.5115  0.2526  0.6690
  828SOL     OW 2482   2.520   0.098   1.592 -0.1781 -0.6038 -0.2642
  828SOL    HW1 2483   2.439   0.115   1.529 -0.3891  0.6062  1.3054
  828SOL    HW2 2484   2.498   0.016   1.652  3.4345  3.5252  0.7547
  829SOL     OW 2485   2.826   2.452   2.971 -0.0363 -0.3017  0.3891
  829SOL    HW1 2486   2.805   2.353   2.950 -0.2668  1.0398 -0.0693
  829SOL    HW2 2487   2.772   2.488   3.053 -0.4889  0.7873 -0.6423
  830SOL     OW 2488   2.859   0.945   2.997  0.5916  0.7559 -0.0259
  830SOL    HW1 2489   2.905   1.034   3.022  1.7557 -1.9206  0.1521
  830SOL    HW2 2490   2.860   0.873   3.070  0.0431  0.6522 -3.4916
  831SOL     OW 2491   0.098   0.664   0.383  0.7648 -0.1184  0.5161
  831SOL    HW1 2492   0.080   0.591   0.452 -0.7622 -1.4950 -2.9783
  831SOL    HW2 2493   0.118   0.611   0.296  1.3753 -0.3733  0.1147
  832SOL     OW 2494   1.804   0.739   3.071 -0.0753 -0.3043 -0.1089
  832SOL    HW1 2495   1.724   0.797   3.039 -2.1480  0.6229 -0.1692
  832SOL    HW2 2496   1.785   0.639   3.061 -0.2978 -0.0045 -0.7469
  833SOL     OW 2497   2.440   2.156   0.518  0.4659  0.5494 -0.1775
  833SOL    HW1 2498   2.336   2.149   0.503  0.5321  0.9616 -1.5066
  833SOL    HW2 2499   2.494   2.068   0.521  1.2086  2.0348  0.9972
  834SOL     OW 2500   0.196   0.205   0.496 -0.1387  0.2935  0.2325
  834SOL    HW1 2501   0.234   0.106   0.526 -0.9608  0.3681 -0.5235
  834SOL    HW2 2502   0.170   0.211   0.391 -1.1100 -1.1844 -1.5428
  835SOL     OW 2503   2.375   1.576   1.127  0.2285 -0.0397  0.5804
  835SOL    HW1 2504   2.405   1.666   1.174 -0.3745  0.3358 -2.2269
  835SOL    HW2 2505   2.420   1.563   1.032  2.6692  0.5791 -0.8955
  836SOL     OW 2506   1.605   0.831   2.526  0.4177  0.0262  0.0495
  836SOL    HW1 2507   1.504   0.806   2.503  1.3460 -1.8258  1.2761
  836SOL    HW2 2508   1.666   0.831   2.441 -1.6651  0.5035 -0.0593
  837SOL     OW 2509   1.725   0.169   0.557 -0.1857  0.2683  0.6425
  837SOL    HW1 2510   1.659   0.228   0.611  0.5784  0.3234  1.4321
  837SOL    HW2 2511   1.685   0.074   0.541 -0.5230  2.4140  1.6059
  838SOL     OW 2512   1.135   1.561   2.779  0.0419 -0.4905 -0.1548
  838SOL    HW1 2513   1.139   1.521   2.874  1.2484  1.0689  1.4617
  838SOL    HW2 2514   1.076   1.511   2.714 -0.6828  2.4300  0.0888
  839SOL     OW 2515   1.626   0.300   0.984 -0.0805  0.1396  0.5554
  839SOL    HW1 2516   1.670   0.338   1.069  0.8236 -1.8085 -1.1265
  839SOL    HW2 2517   1.578   0.210   1.002 -1.8284  1.7665 -0.8817
  840SOL     OW 2518   2.456   2.937   1.735 -0.0907  0.1900  0.0680
  840SOL    HW1 2519   2.373   2.892   1.780  1.9628  3.4857  1.7329
  840SOL    HW2 2520   2.546   2.884   1.737  1.4483 -1.7175  2.3547
  841SOL     OW 2521   1.556   0.831   2.989 -0.1166 -0.0670 -0.1268
  841SOL    HW1 2522   1.462   0.828   3.042  1.0271  0.1965 -2.8630
  841SOL    HW2 2523   1.548   0.872   2.896 -2.3490 -0.6891  1.0734
  842SOL     OW 2524   0.855   1.550   0.905  0.0154  0.6003  0.4863
  842SOL    HW1 2525   0.817   1.642   0.939 -0.2938  0.8375  0.2050
  842SOL    HW2 2526   0.788   1.473   0.903  0.3148 -0.0031  2.3474
  843SOL     OW 2527   0.059   0.023   1.369 -0.0144  0.3412  0.0295
  843SOL    HW1 2528   0.139   0.069   1.416 -0.6000  1.6774  1.1100
  843SOL    HW2 2529   0.019  -0.068   1.408 -2.1810 -2.4851  0.9053
  844SOL     OW 2530   0.793   2.472   0.236  0.3222 -0.0482  0.1462
  844SOL    HW1 2531   0.746   2.453   0.326  3.6667 -1.5965 -0.0074
  844SOL    HW2 2532   0.741   2.542   0.185  0.8033 -2.3911  0.6834
  845SOL     OW 2533   1.646   2.894   1.321 -0.1138  0.2857  0.1877
  845SOL    HW1 2534   1.694   2.806   1.304  0.6711  2.8363  2.3008
  845SOL    HW2 2535   1.662   2.928   1.418 -3.4297 -0.3544  3.0912
  846SOL     OW 2536   1.564   2.914   0.751 -0.5314 -0.4609 -0.3777
  846SOL    HW1 2537   1.564   2.876   0.655  1.4317  0.3879 -2.0838
  846SOL    HW2 2538   1.660   2.923   0.793  0.3019 -0.2526  0.2530
  847SOL     OW 2539   2.035   1.659   0.375 -0.3408 -0.3650 -0.0195
  847SOL    HW1 2540   1.990   1.572   0.360  0.8725  1.1535  0.5808
  847SOL    HW2 2541   1.970   1.741   0.346 -0.2332  4.3733  0.4728
  848SOL     OW 2542   2.455   0.850   2.613  0.2343 -0.0684 -0.6336
  848SOL    HW1 2543   2.395   0.929   2.642  0.6581  1.2173  1.6639
  848SOL    HW2 2544   2.391   0.766   2.604 -2.4779  1.2638 -3.0669
  849SOL     OW 2545   2.561   0.860   2.373 -0.0676 -0.1524  0.0199
  849SOL    HW1 2546   2.660   0.828   2.395  2.7379  1.9023 -0.0370
  849SOL    HW2 2547   2.500   0.868   2.456 -2.8540  0.2089 -0.8644
  850SOL     OW 2548   1.515   0.126   1.322  0.4008  0.9781 -0.5422
  850SOL    HW1 2549   1.519   0.072   1.233 -0.5970  0.8660 -1.5905
  850SOL    HW2 2550   1.479   0.054   1.391  1.1282 -1.1558 -1.5862
  851SOL     OW 2551   0.463   1.828   0.556  0.1147 -0.7527 -0.1871
  851SOL    HW1 2552   0.493   1.925   0.582 -0.3084 -1.1677 -2.5249
  851SOL    HW2 2553   0.517   1.792   0.479  0.0105  0.1942  0.9034
  852SOL     OW 2554   0.805   2.099   1.711  0.5839  0.1633 -0.6159
  852SOL    HW1 2555   0.834   2.196   1.695 -0.9819 -0.1749  0.0752
  852SOL    HW2 2556   0.734   2.094   1.785 -0.3883  3.9076 -1.2300
  853SOL     OW 2557   2.516   1.496   2.575  0.4992 -0.0841  0.1235
  853SOL    HW1 2558   2.433   1.437   2.584 -1.7290 -0.3802  1.0280
  853SOL    HW2 2559   2.522   1.570   2.506  2.3942 -0.8666  0.5290
  854SOL     OW 2560   2.384   1.380   1.727  0.0027  0.0723  0.6749
  854SOL    HW1 2561   2.440   1.335   1.654  0.4468 -0.4158 -0.1200
  854SOL    HW2 2562   2.337   1.310   1.789 -1.3168  0.3245 -1.0187
  855SOL     OW 2563   2.043   2.451   1.073 -0.4490 -0.3172 -0.3692
  855SOL    HW1 2564   2.016   2.551   1.064  2.8060 -1.8865 -2.2500
  855SOL    HW2 2565   2.137   2.435   1.122 -1.3628 -1.5971 -1.1906
  856SOL     OW 2566   1.335   1.434   0.935 -0.6547  0.0548  0.2140
  856SOL    HW1 2567   1.394   1.507   0.979 -0.3129 -1.7544 -1.0848
  856SOL    HW2 2568   1.238   1.444   0.969  1.7812  2.3687 -1.1816
  857SOL     OW 2569   3.029   2.706   0.952 -0.2580 -0.2827 -0.3013
  857SOL    HW1 2570   2.978   2.620   0.958  1.3019  2.5762 -0.5189
  857SOL    HW2 2571   3.109   2.706   0.880  1.9438 -0.1291 -0.8398
  858SOL     OW 2572   2.324   2.098   1.712  0.2409 -0.1122 -0.2594
  858SOL    HW1 2573   2.230   2.094   1.671 -1.2722  0.6804 -0.8189
  858SOL    HW2 2574   2.385   2.016   1.692  2.0894  2.0007  1.0530
  859SOL     OW 2575   2.470   0.551   1.045 -0.2367 -0.7246 -0.2166
  859SOL    HW1 2576   2.511   0.592   0.957  2.5430  0.4889  1.3576
  859SOL    HW2 2577   2.498   0.450   1.062  1.9133  1.6827  2.5277
  860SOL     OW 2578   1.901   2.793   0.444  0.9249  0.2104 -0.4802
  860SOL    HW1 2579   1.883   2.761   0.350  0.0325  0.6144  3.7797
  860SOL    HW2 2580   1.977   2.856   0.447  3.5463 -1.2266 -0.3720
  861SOL     OW 2581   1.015   2.395   2.879 -0.3431 -0.4951 -0.0246
  861SOL    HW1 2582   1.081   2.468   2.849 -0.3084 -0.4984  2.2775
  861SOL    HW2 2583   0.984   2.406   2.975  2.3327  0.5000 -0.1021
  862SOL     OW 2584   2.867   2.554   1.617 -0.4532 -0.1173  0.4375
  862SOL    HW1 2585   2.945   2.583   1.682  2.8941 -0.3720 -0.8677
  862SOL    HW2 2586   2.837   2.625   1.545  0.3104  1.7581  1.9439
  863SOL     OW 2587   1.833   2.713   0.182 -0.0459 -0.0017 -0.2949
  863SOL    HW1 2588   1.887   2.623   0.193  0.6188 -0.2171  1.0204
  863SOL    HW2 2589   1.740   2.703   0.136 -1.8838 -3.7674  0.4854
  864SOL     OW 2590   2.002   1.223   2.831 -0.0835  0.2978 -0.1487
  864SOL    HW1 2591   2.015   1.189   2.734 -2.4585 -1.5537  1.3494
  864SOL    HW2 2592   2.059   1.172   2.895 -2.7082 -1.3771 -3.1545
  865SOL     OW 2593   2.194   1.887   0.706  0.1637 -0.0880 -0.3407
  865SOL    HW1 2594   2.267   1.848   0.769 -0.7393  1.1754  1.9789
  865SOL    HW2 2595   2.110   1.917   0.761  0.2624 -0.5506 -1.5825
  866SOL     OW 2596   2.847   2.917   1.013  0.4085 -0.4913 -0.1599
  866SOL    HW1 2597   2.862   2.988   0.941 -0.9641 -0.6625  1.0673
  866SOL    HW2 2598   2.897   2.828   0.995 -2.1770  3.6221 -0.8524
  867SOL     OW 2599   0.354   1.396   0.908  0.7287  0.1022 -0.3141
  867SOL    HW1 2600   0.322   1.319   0.854  0.9952  3.2914  4.3349
  867SOL    HW2 2601   0.325   1.488   0.865 -2.8225 -0.6775 -2.4709
  868SOL     OW 2602   0.750   1.922   2.126 -0.1484  0.0335  0.0426
  868SOL    HW1 2603   0.695   1.869   2.192 -0.9946 -0.3752  1.8466
  868SOL    HW2 2604   0.694   1.976   2.063  0.9418 -1.4943  2.1319
  869SOL     OW 2605   2.551   1.932   1.670  0.0501 -0.6707  0.0849
  869SOL    HW1 2606   2.633   1.987   1.630 -0.7841  2.1368 -0.2462
  869SOL    HW2 2607   2.574   1.839   1.699 -2.3706  1.2263 -0.3739
  870SOL     OW 2608   2.313   2.683   1.234  0.5110  0.3548 -1.2912
  870SOL    HW1 2609   2.313   2.578   1.240  0.7948  3.2724  0.2139
  870SOL    HW2 2610   2.332   2.718   1.330 -2.3789 -3.4035  0.3721
  871SOL     OW 2611   0.022   2.284   0.570 -0.5877 -0.4225 -0.1586
  871SOL    HW1 2612  -0.003   2.380   0.599 -1.1167 -0.1149 -1.3950
  871SOL    HW2 2613  -0.036   2.256   0.485  0.0469  0.7277  0.4040
  872SOL     OW 2614   2.120   0.480   1.678 -0.2622  0.1783 -0.1500
  872SOL    HW1 2615   2.084   0.467   1.772  1.3182  1.4004 -0.4430
  872SOL    HW2 2616   2.212   0.431   1.662  1.7138  1.4491  0.4151
  873SOL     OW 2617   1.734   2.143   3.054 -0.1387 -0.6132 -0.0093
  873SOL    HW1 2618   1.648   2.139   3.112  0.6975  1.6396  0.1328
  873SOL    HW2 2619   1.718   2.139   2.950 -1.0295  3.6456 -0.8231
  874SOL     OW 2620   0.690   2.412   0.764 -0.0097  0.3621  0.6063
  874SOL    HW1 2621   0.672   2.503   0.803 -0.1054 -1.2726 -0.5997
  874SOL    HW2 2622   0.789   2.379   0.785  0.4629  1.0490 -3.4898
  875SOL     OW 2623   2.281   1.548   1.434  0.3147 -0.2549 -0.2258
  875SOL    HW1 2624   2.379   1.556   1.468 -0.3255  0.6297  0.4852
  875SOL    HW2 2625   2.276   1.537   1.331  1.7846  2.1981  4.2103
  876SOL     OW 2626   0.050   2.295   2.682 -0.4106 -0.5256 -0.1511
  876SOL    HW1 2627   0.087   2.205   2.716  1.7020  4.0519 -1.8970
  876SOL    HW2 2628   0.074   2.379   2.744  1.7257  0.8830  1.3097
  877SOL     OW 2629   2.955   2.713   0.562  0.4305  0.4977 -0.8364
  877SOL    HW1 2630   2.919   2.807   0.569  1.1293 -0.8148 -0.7101
  877SOL    HW2 2631   3.036   2.699   0.625 -0.5141 -0.3376 -0.0401
  878SOL     OW 2632   2.807   1.516   2.235 -0.5438  0.2521  0.2703
  878SOL    HW1 2633   2.804   1.613   2.193  1.3414  0.2759 -0.5716
  878SOL    HW2 2634   2.775   1.515   2.334 -0.1781  1.1290  1.1174
  879SOL     OW 2635   2.402   0.085   1.254  0.6289  0.2074  0.4078
  879SOL    HW1 2636   2.402  -0.008   1.295  1.7273 -1.0638 -1.0565
  879SOL    HW2 2637   2.334   0.097   1.176  1.1371  0.8685  0.5062
  880SOL     OW 2638   0.767   0.503   2.257 -0.0910 -0.2356 -0.6956
  880SOL    HW1 2639   0.713   0.462   2.333  0.2726 -2.8115 -0.2715
  880SOL    HW2 2640   0.786   0.434   2.184  2.2083 -0.7887 -0.0369
  881SOL     OW 2641   0.873   0.101   0.464  1.0425  0.2315 -0.1162
  881SOL    HW1 2642   0.905   0.015   0.518  0.2717  0.9073 -0.1720
  881SOL    HW2 2643   0.782   0.096   0.413 -1.4121  0.1994 -0.7906
  882SOL     OW 2644   2.715   1.701   1.708 -0.0219  0.5326 -0.7054
  882SOL    HW1 2645   2.782   1.654   1.643 -2.3133  1.3705  0.0187
  882SOL    HW2 2646   2.749   1.694   1.808  1.6996  0.7164  1.2807
  883SOL     OW 2647   0.875   0.479   0.925  0.0772 -0.4273  0.0409
  883SOL    HW1 2648   0.943   0.535   0.977 -1.4347  0.6671  0.8315
  883SOL    HW2 2649   0.797   0.449   0.988  2.3850  0.6317  0.0322
  884SOL     OW 2650   1.116   1.717   1.179  0.0700 -0.2858  0.0861
  884SOL    HW1 2651   1.095   1.632   1.115 -2.4420 -3.2151 -3.0750
  884SOL    HW2 2652   1.101   1.802   1.125  0.7700 -1.5601  1.9999
  885SOL     OW 2653   2.316   1.784   2.270 -0.1536 -0.2282  0.6633
  885SOL    HW1 2654   2.239   1.748   2.329  0.7586  0.3781 -1.3309
  885SOL    HW2 2655   2.291   1.884   2.260  1.3340 -0.8122 -1.2687
  886SOL     OW 2656   2.605   0.366   1.813 -0.1213  0.7305 -0.0937
  886SOL    HW1 2657   2.604   0.263   1.806 -0.9416 -0.1187  2.4654
  886SOL    HW2 2658   2.696   0.403   1.773 -0.9107  0.2380  2.5605
  887SOL     OW 2659   0.123   2.019   1.299 -0.1409 -0.6667  0.2155
  887SOL    HW1 2660   0.033   1.968   1.284  0.4826  1.1737  2.2275
  887SOL    HW2 2661   0.118   2.120   1.279  0.1710 -3.0205 -1.8000
  888SOL     OW 2662   0.606   1.221   1.506 -0.6408  0.0021  0.0365
  888SOL    HW1 2663   0.628   1.282   1.424  2.2969  1.0312 -0.2384
  888SOL    HW2 2664   0.615   1.120   1.487 -0.2698  2.8685  2.9243
  889SOL     OW 2665   0.830   2.500   2.210  0.2704  0.1219  0.1553
  889SOL    HW1 2666   0.755   2.424   2.209 -0.1827  1.2265  1.0512
  889SOL    HW2 2667   0.917   2.478   2.158 -1.8617  1.2238  1.5364
  890SOL     OW 2668   2.424   2.481   0.259 -0.3824  0.3054 -0.7316
  890SOL    HW1 2669   2.410   2.513   0.163  0.9150 -1.8398  0.0284
  890SOL    HW2 2670   2.349   2.521   0.320  0.3607 -0.7085  1.0879
  891SOL     OW 2671   2.513   1.701   0.626 -0.1555 -0.0566 -0.2330
  891SOL    HW1 2672   2.515   1.657   0.719  0.5407 -2.2024  0.1034
  891SOL    HW2 2673   2.440   1.653   0.570  0.6179 -0.0699 -1.9166
  892SOL     OW 2674   0.382   0.278   2.320  0.0403 -0.5064  0.3413
  892SOL    HW1 2675   0.395   0.314   2.222  0.1286  3.3752  2.5105
  892SOL    HW2 2676   0.455   0.316   2.384 -0.7562 -1.9613  2.9828
  893SOL     OW 2677   1.654   0.201   2.720 -0.3075  0.0388 -0.3579
  893SOL    HW1 2678   1.720   0.267   2.765 -0.4314  0.3434  0.0312
  893SOL    HW2 2679   1.561   0.238   2.698  1.4472  1.0756  3.0733
  894SOL     OW 2680   2.169   2.070   0.047  0.1871 -0.0074 -0.4786
  894SOL    HW1 2681   2.161   1.987  -0.021  1.0115 -1.1728  0.4036
  894SOL    HW2 2682   2.168   2.032   0.146  0.5364 -1.4706  0.0607
  895SOL     OW 2683   2.802   1.458   0.887  0.2707  0.5629  0.1771
  895SOL    HW1 2684   2.883   1.395   0.917  0.1045  1.3671  1.1751
  895SOL    HW2 2685   2.806   1.548   0.932 -2.1405  0.1667 -2.0950
  896SOL     OW 2686   1.822   1.836   1.204 -0.8103 -0.2163 -0.0311
  896SOL    HW1 2687   1.875   1.747   1.220 -2.1626 -1.0144 -0.5389
  896SOL    HW2 2688   1.753   1.825   1.132  0.8503  1.7099 -1.0585
  897SOL     OW 2689   0.270   0.577   3.048  0.2384 -0.1854  0.0770
  897SOL    HW1 2690   0.224   0.606   2.959 -2.3254 -1.5109  2.0230
  897SOL    HW2 2691   0.372   0.610   3.051 -0.1756 -1.0597 -1.5470
  898SOL     OW 2692   0.647   2.876   1.041 -0.0394  0.4540  0.0952
  898SOL    HW1 2693   0.691   2.970   1.038 -2.4994 -0.5639  1.0956
  898SOL    HW2 2694   0.702   2.819   1.109 -1.1352  1.9420 -1.1763
  899SOL     OW 2695   2.789   0.842   1.358  0.2948  0.1190 -0.2559
  899SOL    HW1 2696   2.778   0.792   1.272  4.2355 -0.1562  2.7916
  899SOL    HW2 2697   2.854   0.919   1.347  2.6518 -4.1967  2.8693
  900SOL     OW 2698   0.963   2.500   2.424 -0.2912  0.0198 -0.8703
  900SOL    HW1 2699   0.885   2.488   2.356 -0.3306 -1.4226 -2.0560
  900SOL    HW2 2700   0.939   2.450   2.507  0.2671  2.8091 -5.2592
  901SOL     OW 2701   1.885   2.409   1.351 -0.2356 -0.3271  0.0845
  901SOL    HW1 2702   1.869   2.348   1.272  0.5341 -1.7117  2.2633
  901SOL    HW2 2703   1.974   2.392   1.401  0.6761 -1.1290  0.1648
  902SOL     OW 2704   2.538   1.655   1.494  0.2191 -0.2958  0.2038
  902SOL    HW1 2705   2.558   1.660   1.597 -0.8035 -0.8325  0.9805
  902SOL    HW2 2706   2.625   1.647   1.439  0.4569  2.7987  0.5644
  903SOL     OW 2707   0.300   2.484   1.961 -0.3492 -0.9243 -0.0014
  903SOL    HW1 2708   0.211   2.431   1.968 -0.2588 -0.5264 -0.3675
  903SOL    HW2 2709   0.316   2.545   1.880 -0.9495  0.6678  2.1951
  904SOL     OW 2710   1.978   0.787   2.562 -0.2418  0.0823  0.5820
  904SOL    HW1 2711   1.903   0.731   2.598  0.8595  1.1729 -0.5562
  904SOL    HW2 2712   2.009   0.760   2.465 -1.4061 -2.4766  0.0991
  905SOL     OW 2713   2.924   0.104   2.487 -0.2521  0.1484  0.7284
  905SOL    HW1 2714   2.990   0.024   2.494 -0.8269 -1.9980 -3.3463
  905SOL    HW2 2715   2.955   0.197   2.455  2.3909 -1.3854  1.0170
  906SOL     OW 2716   0.129   1.668   1.870 -0.5243 -0.1654  0.5004
  906SOL    HW1 2717   0.063   1.707   1.803 -0.7362  0.4170 -2.5334
  906SOL    HW2 2718   0.227   1.667   1.841  2.1528  2.0263  0.6684
  907SOL     OW 2719   0.213   2.415   0.967 -0.0292  0.1991  0.0744
  907SOL    HW1 2720   0.307   2.377   0.995 -0.2387  0.5261  0.1600
  907SOL    HW2 2721   0.228   2.502   0.915  0.4176 -1.5915 -1.1771
  908SOL     OW 2722   2.807   3.070   0.315 -0.0782 -0.6386  0.5287
  908SOL    HW1 2723   2.715   3.056   0.281  1.9904 -2.5574  0.9278
  908SOL    HW2 2724   2.873   3.002   0.277 -0.6364 -1.0624  0.0136
  909SOL     OW 2725   0.837   1.054   2.670 -0.0308  0.0147 -0.1629
  909SOL    HW1 2726   0.788   0.963   2.658 -0.4797 -0.4964  2.1043
  909SOL    HW2 2727   0.917   1.068   2.599  0.6875  0.9912 -0.7332
  910SOL     OW 2728   1.784   1.889   2.143 -0.0081 -0.2392  0.5209
  910SOL    HW1 2729   1.841   1.913   2.058 -0.6460  1.0954  1.7276
  910SOL    HW2 2730   1.717   1.968   2.160  1.7162  1.1140  1.0452
  911SOL     OW 2731   1.844   2.933   1.564 -0.0129 -0.4133 -0.0673
  911SOL    HW1 2732   1.898   2.916   1.479  0.0702 -3.8820  3.0789
  911SOL    HW2 2733   1.855   2.856   1.636 -0.8256 -0.4974  2.5373
  912SOL     OW 2734   2.861   1.012   0.722  0.1882 -0.3390 -0.3094
  912SOL    HW1 2735   2.876   0.982   0.819 -0.7366 -1.4552 -0.3323
  912SOL    HW2 2736   2.799   1.098   0.721 -2.5183 -0.2721  1.2768
  913SOL     OW 2737   2.523   1.244   1.517 -0.5599  0.3878 -0.3814
  913SOL    HW1 2738   2.557   1.144   1.517 -1.8856  0.9869  1.9311
  913SOL    HW2 2739   2.589   1.296   1.458  0.4527  1.1506 -0.8028
  914SOL     OW 2740   2.772   0.643   1.161  0.1170 -0.3347 -0.1444
  914SOL    HW1 2741   2.801   0.553   1.212  4.5876 -2.1727 -1.2794
  914SOL    HW2 2742   2.673   0.662   1.142  1.5382  1.1027 -0.2831
  915SOL     OW 2743   1.230   0.724   1.008  0.6896 -0.6815 -0.2369
  915SOL    HW1 2744   1.279   0.766   1.087 -1.3812  0.0960  0.7006
  915SOL    HW2 2745   1.129   0.715   1.035 -3.6979 -2.7927 -0.6399
  916SOL     OW 2746   0.625   0.058   0.637  0.1787 -0.4014  0.1256
  916SOL    HW1 2747   0.680   0.084   0.720 -3.3477 -2.0335  2.8090
  916SOL    HW2 2748   0.592   0.140   0.578 -1.6825  1.7087 -2.8487
  917SOL     OW 2749   2.900   2.566   1.990 -0.2088 -0.2571  0.7313
  917SOL    HW1 2750   2.808   2.580   1.942  1.1406  0.2518 -2.0322
  917SOL    HW2 2751   2.950   2.658   2.002 -0.7477 -1.1364 -2.5234
  918SOL     OW 2752   1.037   2.080   3.003 -0.1805  1.0818 -0.2880
  918SOL    HW1 2753   1.001   2.169   3.038 -2.4667 -0.6857 -1.6461
  918SOL    HW2 2754   1.115   2.087   2.934 -0.4832 -0.3154 -0.4947
  919SOL     OW 2755   0.814   1.698   2.842 -0.2157 -0.2540  0.4127
  919SOL    HW1 2756   0.874   1.729   2.766  0.9193 -1.1293  1.5436
  919SOL    HW2 2757   0.757   1.618   2.810  0.9978 -0.6586 -1.0456
  920SOL     OW 2758   1.268   1.777   2.556 -0.1170  0.0215 -0.3461
  920SOL    HW1 2759   1.334   1.754   2.476 -1.4653  0.2408  1.0974
  920SOL    HW2 2760   1.217   1.690   2.585  1.1329  1.4963  3.1132
  921SOL     OW 2761   1.124   0.006   2.656 -0.3485 -0.2544 -0.0792
  921SOL    HW1 2762   1.109  -0.018   2.556 -1.4355 -1.6282 -2.3541
  921SOL    HW2 2763   1.033   0.034   2.699  1.5754  0.9640 -2.2538
  922SOL     OW 2764   2.187   2.366   2.794  0.7521 -0.3158  0.0188
  922SOL    HW1 2765   2.203   2.262   2.783  1.3357 -0.3899 -1.8361
  922SOL    HW2 2766   2.157   2.396   2.702 -0.5223  3.5436 -1.6471
  923SOL     OW 2767   1.255   2.672   0.262 -0.1294 -0.1528 -0.2578
  923SOL    HW1 2768   1.313   2.728   0.323 -0.6731 -0.9565  1.3227
  923SOL    HW2 2769   1.292   2.576   0.256  1.1796 -1.1264 -1.6806
  924SOL     OW 2770   2.898   1.709   0.105 -0.0778  0.1399 -0.3634
  924SOL    HW1 2771   2.836   1.666   0.032 -2.0562 -1.4962  0.7253
  924SOL    HW2 2772   2.985   1.660   0.111  0.1718  1.2051  0.7773
  925SOL     OW 2773   0.043   2.844   1.465  0.3139  0.3802 -0.3737
  925SOL    HW1 2774   0.014   2.811   1.559  0.9811  0.5542 -0.7391
  925SOL    HW2 2775  -0.007   2.802   1.390 -0.0624 -0.0362  3.0691
  926SOL     OW 2776   1.316   2.822   1.352  0.3362 -0.4110  0.3761
  926SOL    HW1 2777   1.370   2.832   1.264  0.4318  0.6741  1.6471
  926SOL    HW2 2778   1.318   2.901   1.420  1.1838  2.8628 -2.0315
  927SOL     OW 2779   0.352   2.652   1.758 -0.0970  0.5572 -0.0619
  927SOL    HW1 2780   0.300   2.603   1.686  0.2713 -0.4083  0.3102
  927SOL    HW2 2781   0.339   2.753   1.751 -1.1166  1.1003 -0.7947
  928SOL     OW 2782   1.627   2.104   2.213  0.1184 -0.1857  0.0511
  928SOL    HW1 2783   1.635   2.173   2.139  1.9605 -2.1327  1.9837
  928SOL    HW2 2784   1.529   2.074   2.237  0.7793  0.0146  0.8215
  929SOL     OW 2785   2.418   2.509   2.886  0.0034  0.4244  0.2421
  929SOL    HW1 2786   2.340   2.441   2.862  1.4922  1.4275 -0.6175
  929SOL    HW2 2787   2.478   2.518   2.802  0.2867 -2.5646  0.4553
  930SOL     OW 2788   2.166   1.980   1.097  0.2564  0.3880 -0.1181
  930SOL    HW1 2789   2.130   1.920   1.173  0.4645 -2.3476  1.2609
  930SOL    HW2 2790   2.233   2.060   1.131  0.5860  1.7757  2.6104
  931SOL     OW 2791   0.550   1.757   2.641  0.4770 -0.5531  0.1458
  931SOL    HW1 2792   0.538   1.795   2.738 -0.1477  1.1572  2.5009
  931SOL    HW2 2793   0.608   1.670   2.634 -0.5715 -2.6448 -2.4537
  932SOL     OW 2794   0.429   0.110   3.076  0.7363  0.7021 -0.1243
  932SOL    HW1 2795   0.516   0.167   3.100  1.9442  0.5830  2.5722
  932SOL    HW2 2796   0.461   0.014   3.059  1.7987  4.2515 -0.1768
  933SOL     OW 2797   0.915   0.829   3.016  0.1582 -0.3604  0.5664
  933SOL    HW1 2798   0.858   0.809   3.096 -1.6974 -0.3070 -0.7720
  933SOL    HW2 2799   0.934   0.934   2.997 -0.1157  0.9974 -0.8643
  934SOL     OW 2800   0.764   2.989   2.647  0.5388  0.5462  0.1148
  934SOL    HW1 2801   0.739   2.913   2.576  1.3422 -0.1145 -2.4092
  934SOL    HW2 2802   0.837   2.951   2.703  0.8265  0.4587  0.3431
  935SOL     OW 2803   0.013   0.510   0.866  0.2985 -0.8182  0.4618
  935SOL    HW1 2804   0.023   0.477   0.767 -1.8727 -0.1943  3.6546
  935SOL    HW2 2805  -0.053   0.588   0.869  1.1671  0.7007  1.5070
  936SOL     OW 2806   1.106   2.817   0.095 -0.1956 -0.4030  0.3473
  936SOL    HW1 2807   1.165   2.885   0.037  3.2707  1.0925  0.4958
  936SOL    HW2 2808   1.165   2.763   0.160 -0.4442  1.0506  0.4006
  937SOL     OW 2809   1.878   2.678   2.105 -0.5045  0.0580 -0.3907
  937SOL    HW1 2810   1.776   2.692   2.117 -0.3566 -0.0349  0.2688
  937SOL    HW2 2811   1.921   2.756   2.050 -2.7648  0.6301 -1.4177
  938SOL     OW 2812   2.787   2.081   1.621  0.0986 -0.1438  0.6126
  938SOL    HW1 2813   2.765   2.181   1.606  0.6869 -1.5360 -1.9151
  938SOL    HW2 2814   2.870   2.060   1.679 -1.8656  1.7166  0.4068
  939SOL     OW 2815   2.795   1.218   2.420  0.4951  0.1840 -0.2145
  939SOL    HW1 2816   2.855   1.187   2.339 -1.9442 -2.1423 -2.3737
  939SOL    HW2 2817   2.813   1.168   2.511  3.2087 -2.5122  1.1241
  940SOL     OW 2818   1.083   0.446   2.775  0.1514  0.0744  0.4336
  940SOL    HW1 2819   1.140   0.358   2.782 -0.6216 -1.5869  0.3199
  940SOL    HW2 2820   1.021   0.430   2.690 -1.0669  1.1876  1.3888
  941SOL     OW 2821   0.022   2.773   2.284  0.2907  0.0580  0.2221
  941SOL    HW1 2822   0.093   2.692   2.270  1.3103 -2.5564  0.1504
  941SOL    HW2 2823   0.068   2.859   2.318  2.3985 -1.8158 -0.0290
  942SOL     OW 2824   0.135   0.089   2.576  0.2351  0.2019  0.2084
  942SOL    HW1 2825   0.205   0.098   2.654 -2.7174  1.6163  0.9324
  942SOL    HW2 2826   0.115   0.183   2.533  0.1457 -0.9143 -0.5202
  943SOL     OW 2827   2.096   1.661   2.393  0.2874  0.5639  0.5554
  943SOL    HW1 2828   2.095   1.606   2.302 -1.2104 -2.3937  2.5509
  943SOL    HW2 2829   2.112   1.596   2.474  1.3771 -0.2106 -2.2959
  944SOL     OW 2830   2.187   2.374   1.466 -0.4514  0.0811  0.1492
  944SOL    HW1 2831   2.275   2.406   1.513 -0.6673 -0.5939  0.9440
  944SOL    HW2 2832   2.162   2.289   1.518  0.2055 -1.8551 -1.8309
  945SOL     OW 2833   0.667   1.587   0.092 -0.5153  0.0179  0.1206
  945SOL    HW1 2834   0.608   1.563   0.011  0.8123 -0.8197 -1.2083
  945SOL    HW2 2835   0.659   1.516   0.170  0.4682 -0.4451  0.7645
  946SOL     OW 2836   0.406   0.948   2.530  0.4231  0.2538 -0.0094
  946SOL    HW1 2837   0.334   0.911   2.467  4.0822 -1.9028  1.2523
  946SOL    HW2 2838   0.388   1.043   2.566  0.1827  1.7745 -3.7645
  947SOL     OW 2839   1.495   0.505   3.068 -0.3478 -0.1499 -0.3169
  947SOL    HW1 2840   1.457   0.526   2.969  0.5293  0.5596 -1.5702
  947SOL    HW2 2841   1.417   0.488   3.138  0.5849  1.4458 -0.9456
  948SOL     OW 2842   1.876   3.016   2.174  0.2756 -0.0077  0.0388
  948SOL    HW1 2843   1.896   2.977   2.077 -1.2611 -2.5364 -0.5722
  948SOL    HW2 2844   1.857   2.944   2.242  2.1382  2.2049  0.0329
  949SOL     OW 2845   0.640   2.492   0.473  0.3320  0.0755 -0.5327
  949SOL    HW1 2846   0.659   2.597   0.470  0.6180 -1.5514  0.1141
  949SOL    HW2 2847   0.637   2.446   0.568 -1.0702  1.4716  0.6893
  950SOL     OW 2848   0.188   2.259   2.994  0.1532 -0.4866 -0.0672
  950SOL    HW1 2849   0.160   2.360   2.978 -2.7702  1.1456  0.2159
  950SOL    HW2 2850   0.193   2.204   2.908  2.2374  0.7839 -2.3748
  951SOL     OW 2851   1.169   2.621   2.803  0.2257  0.0068  0.4077
  951SOL    HW1 2852   1.238   2.598   2.878  1.4474  6.0431  0.5677
  951SOL    HW2 2853   1.219   2.652   2.714 -1.2630  2.5983 -2.3949
  952SOL     OW 2854   0.030   1.660   0.432 -0.2626  0.5369  0.1795
  952SOL    HW1 2855   0.052   1.765   0.442  0.0273 -1.7142 -1.0514
  952SOL    HW2 2856   0.082   1.594   0.499  3.3573 -0.8790  0.1121
  953SOL     OW 2857   2.569   1.756   0.208 -0.2200  0.2589  0.7006
  953SOL    HW1 2858   2.553   1.662   0.243  2.1568  1.7222 -0.3516
  953SOL    HW2 2859   2.497   1.778   0.133 -0.8313  1.5477 -1.0251
  954SOL     OW 2860   2.215   0.586   0.984  0.0369 -0.3383 -0.3050
  954SOL    HW1 2861   2.218   0.580   0.885  2.1110 -1.0900  0.3038
  954SOL    HW2 2862   2.306   0.567   1.029 -0.9917 -2.7388  0.0217
  955SOL     OW 2863   0.118   2.564   1.390  0.1869 -0.0406 -0.6916
  955SOL    HW1 2864   0.030   2.570   1.342 -0.1092 -0.7689 -1.6218
  955SOL    HW2 2865   0.151   2.660   1.424 -1.0308 -0.8633  4.0588
  956SOL     OW 2866   2.804   2.444   2.489  0.1627 -0.0337 -0.0972
  956SOL    HW1 2867   2.826   2.348   2.461  0.6454 -1.7015  0.7284
  956SOL    HW2 2868   2.847   2.520   2.434  1.3854 -0.6875 -0.1995
  957SOL     OW 2869   1.601   2.103   2.826  1.4028  0.3678  0.5073
  957SOL    HW1 2870   1.550   2.011   2.840 -0.3318  1.3147  1.4649
  957SOL    HW2 2871   1.654   2.102   2.740  0.2567  1.5103  1.1532
  958SOL     OW 2872   2.589   2.284   3.000  0.2236 -0.2408  0.0998
  958SOL    HW1 2873   2.568   2.374   2.954 -3.4699  0.3501  0.0278
  958SOL    HW2 2874   2.530   2.273   3.083 -1.1275 -0.2747 -2.4692
  959SOL     OW 2875   0.326   2.774   0.064  0.2816  0.1362 -0.3712
  959SOL    HW1 2876   0.225   2.760   0.044 -0.8021  0.1531 -2.9088
  959SOL    HW2 2877   0.363   2.692   0.117 -2.5525  0.3196 -2.4709
  960SOL     OW 2878   2.016   0.459   1.938 -0.2899  0.2217  0.3259
  960SOL    HW1 2879   1.932   0.517   1.925  0.5894  1.4722  0.6167
  960SOL    HW2 2880   2.050   0.456   2.039 -0.7924 -0.0790  0.3053
  961SOL     OW 2881   2.559   1.907   1.063 -0.3038 -0.4726 -0.1099
  961SOL    HW1 2882   2.556   2.008   1.045 -0.0938  0.2401  2.2264
  961SOL    HW2 2883   2.505   1.882   1.151  0.8894  1.3505  0.5114
  962SOL     OW 2884   1.309   0.912   0.085 -0.0491 -0.0286  0.0364
  962SOL    HW1 2885   1.271   0.924  -0.014  0.9722 -0.5330  2.3696
  962SOL    HW2 2886   1.275   0.985   0.150 -0.3123  1.0482 -2.0896
  963SOL     OW 2887   2.308   2.525   1.782 -0.1973  0.1493 -0.5003
  963SOL    HW1 2888   2.240   2.456   1.823 -1.2049 -1.6939 -1.3399
  963SOL    HW2 2889   2.354   2.588   1.854  2.9726  2.1265  0.4770
  964SOL     OW 2890   2.367   0.388   1.671  0.0030  0.7027 -0.7107
  964SOL    HW1 2891   2.455   0.405   1.727  2.5418 -0.0207  1.9221
  964SOL    HW2 2892   2.375   0.417   1.573  0.6779 -0.6367 -0.7000
  965SOL     OW 2893   2.617   2.981   0.121  0.2547 -0.2010 -0.1402
  965SOL    HW1 2894   2.689   2.985   0.046  1.5991 -0.7557 -0.4089
  965SOL    HW2 2895   2.522   2.998   0.084 -1.1757 -0.4429 -0.1809
  966SOL     OW 2896   2.539   2.551   2.289  0.4733  0.4544  0.6972
  966SOL    HW1 2897   2.622   2.606   2.308  1.3411 -1.3638  0.2848
  966SOL    HW2 2898   2.462   2.600   2.241 -1.3563  1.5069  1.1838
  967SOL     OW 2899   2.777   2.803   2.462  0.1095  0.2683 -0.0402
  967SOL    HW1 2900   2.841   2.740   2.407  1.4988 -0.2176 -1.5666
  967SOL    HW2 2901   2.827   2.859   2.531 -1.1816  1.0678 -0.1427
  968SOL     OW 2902   1.924   1.062   2.602  0.5385  0.1388  0.1922
  968SOL    HW1 2903   1.845   1.122   2.574  0.1115 -1.8044 -1.3232
  968SOL    HW2 2904   1.919   0.963   2.558 -2.8374 -1.2833  0.0068
  969SOL     OW 2905   2.751   2.455   1.122  0.2587  0.0890 -0.1175
  969SOL    HW1 2906   2.727   2.447   1.022  0.5476 -0.8241 -0.9897
  969SOL    HW2 2907   2.840   2.408   1.146 -1.5127 -0.6220  1.2837
  970SOL     OW 2908   1.064   2.121   1.827 -0.8561  0.2611 -0.2940
  970SOL    HW1 2909   0.995   2.083   1.758 -1.5331 -0.1748 -1.8192
  970SOL    HW2 2910   1.029   2.137   1.923  0.7624  2.0719 -0.6138
  971SOL     OW 2911   2.912   2.052   2.058  0.7131  0.0569  0.1550
  971SOL    HW1 2912   2.902   2.151   2.088 -1.3031  3.5048 -0.2027
  971SOL    HW2 2913   2.961   2.038   1.968  2.5755 -0.6633 -2.0540
  972SOL     OW 2914   1.984   2.479   0.217  0.3112  0.0566  0.1998
  972SOL    HW1 2915   1.987   2.388   0.158 -0.1156 -0.7440 -2.0443
  972SOL    HW2 2916   1.997   2.454   0.316  0.4128 -0.9587 -1.7144
  973SOL     OW 2917   1.245   1.006   1.885  0.2355  0.9416  0.2263
  973SOL    HW1 2918   1.197   0.914   1.861 -0.6940 -0.8226  1.2673
  973SOL    HW2 2919   1.176   1.083   1.885  0.7895  0.2199  1.2006
  974SOL     OW 2920   1.561   0.610   1.893  0.4200  0.1774  0.0129
  974SOL    HW1 2921   1.661   0.629   1.887 -3.0704  2.8366  1.8211
  974SOL    HW2 2922   1.514   0.691   1.933  0.6303 -1.9735 -1.9880
  975SOL     OW 2923   2.368   3.053   0.029  0.4816 -0.0235 -0.3291
  975SOL    HW1 2924   2.298   2.982   0.066 -0.5999  0.9884  0.4130
  975SOL    HW2 2925   2.376   3.058  -0.073 -2.4166 -0.8425 -1.0526
  976SOL     OW 2926   1.880   2.798   2.361  0.1483 -0.1688 -0.7168
  976SOL    HW1 2927   1.816   2.726   2.337  2.1296  1.1249 -2.0080
  976SOL    HW2 2928   1.899   2.810   2.464 -0.4074  1.6909 -0.3272
  977SOL     OW 2929   0.517   0.629   0.997 -0.5775  1.1436  0.6963
  977SOL    HW1 2930   0.446   0.639   0.928  0.4327  0.3743  1.1139
  977SOL    HW2 2931   0.554   0.717   1.023  0.0033 -1.6933 -3.9350
   3.10000   3.10000   3.10000
