1000 SPC/Fw water molecules t=   1.10000 step= 1100
 2931
    1SOL     OW    1   2.557   0.341   2.636  0.0322 -0.0919 -0.2935
    1SOL    HW1    2   2.535   0.241   2.650  0.1845  0.0615 -2.0083
    1SOL    HW2    3   2.630   0.375   2.707  2.2890 -3.6073 -1.9675
    2SOL     OW    4   2.732   3.019   1.397  0.6301 -0.4479 -0.6012
    2SOL    HW1    5   2.805   3.038   1.321  1.6583 -0.0362  2.2736
    2SOL    HW2    6   2.704   3.106   1.450  1.7494  0.5635 -0.3993
    3SOL     OW    7   2.607   2.614   0.439 -0.1383 -0.3312 -0.2675
    3SOL    HW1    8   2.583   2.516   0.418  0.8898  1.7959  0.8815
    3SOL    HW2    9   2.707   2.626   0.462 -0.9736 -0.8673  1.9697
    4SOL     OW   10   1.227   1.558   2.330  0.0205 -0.4547  0.6072
    4SOL    HW1   11   1.165   1.589   2.247 -0.7454  0.9474 -0.6366
    4SOL    HW2   12   1.184   1.472   2.375 -0.2431  1.4971  0.8402
    5SOL     OW   13   1.152   1.541   3.026  0.0396  0.1237 -0.7365
    5SOL    HW1   14   1.207   1.632   3.032  1.3176 -0.2487 -0.9674
    5SOL    HW2   15   1.065   1.544   3.079 -0.6094  2.1393 -1.1065
    6SOL     OW   16   0.167   1.741   2.985  0.3698  0.0479  0.1596
    6SOL    HW1   17   0.099   1.793   3.045  3.0359 -0.8860 -1.8446
    6SOL    HW2   18   0.249   1.694   3.036  2.7232  0.6685 -1.8121
    7SOL     OW   19   2.575   0.904   1.064 -0.5056  0.1759 -0.3695
    7SOL    HW1   20   2.478   0.901   1.099  1.7680 -1.0873  0.9854
    7SOL    HW2   21   2.585   0.852   0.976 -0.1953 -0.8682  1.1564
    8SOL     OW   22   0.404   0.610   1.501  0.4603 -0.2294 -0.4369
    8SOL    HW1   23   0.492   0.575   1.546  0.4788 -1.0166 -2.4036
    8SOL    HW2   24   0.400   0.576   1.405 -1.1147 -1.4208 -0.0161
    9SOL     OW   25   1.197   0.928   2.425  0.1933  0.3231  0.1649
    9SOL    HW1   26   1.256   0.955   2.339 -0.4713 -3.5136 -0.2731
    9SOL    HW2   27   1.161   0.834   2.410  1.9302  1.6855 -0.4375
   10SOL     OW   28   0.669   1.376   1.308 -0.3560 -0.2106 -0.0372
   10SOL    HW1   29   0.576   1.380   1.257 -0.9328  2.0722  1.8050
   10SOL    HW2   30   0.726   1.458   1.300  0.5472  1.0699 -1.7155
   11SOL     OW   31   2.310   2.808   0.853  0.0860  0.7080 -0.6140
   11SOL    HW1   32   2.267   2.831   0.944 -0.6553  1.3550  2.3864
   11SOL    HW2   33   2.418   2.802   0.852  2.6467 -0.0153 -1.4455
   12SOL     OW   34   1.515   0.865   0.379 -0.2187 -0.5641  0.7999
   12SOL    HW1   35   1.461   0.930   0.318 -1.4587  0.0114  1.8535
   12SOL    HW2   36   1.544   0.777   0.331 -2.1733 -0.2383  2.5787
   13SOL     OW   37   2.473   0.713   1.773 -0.0811  0.0771 -0.3157
   13SOL    HW1   38   2.393   0.682   1.829  0.4275 -0.2892 -1.8703
   13SOL    HW2   39   2.472   0.662   1.684  0.3737 -3.2080 -0.8053
   14SOL     OW   40   1.848   0.098   0.680 -0.2165 -0.1172  0.2262
   14SOL    HW1   41   1.761   0.109   0.624  0.0111  1.6708 -0.0441
   14SOL    HW2   42   1.837   0.028   0.756  1.0027 -0.9892 -0.7626
   15SOL     OW   43   1.942   2.090   2.732 -0.9038 -0.0373  0.2374
   15SOL    HW1   44   1.897   2.184   2.721 -1.0559  0.2324 -0.6179
   15SOL    HW2   45   1.880   2.010   2.705 -0.4351 -1.9314 -2.3431
   16SOL     OW   46   1.626   1.695   2.990 -0.0943 -0.0230  0.0948
   16SOL    HW1   47   1.627   1.599   3.032 -0.5908 -2.1410  0.1860
   16SOL    HW2   48   1.717   1.748   3.012  1.2457  2.3668  1.1842
   17SOL     OW   49   0.081   0.453   0.158 -0.6034 -0.1927 -0.0621
   17SOL    HW1   50   0.164   0.481   0.107  1.1740 -0.4779 -1.8435
   17SOL    HW2   51  -0.003   0.462   0.102  0.1464  0.7475  0.4700
   18SOL     OW   52   0.931   2.943   2.141 -0.3408  0.2693 -0.3558
   18SOL    HW1   53   0.831   2.905   2.131 -2.9371  1.1629 -0.1924
   18SOL    HW2   54   0.992   2.911   2.070  0.7840  0.3749  0.7589
   19SOL     OW   55   0.540   0.815   1.899 -0.6406 -0.2148 -0.0561
   19SOL    HW1   56   0.581   0.780   1.985  2.1940  1.4327  0.2612
   19SOL    HW2   57   0.607   0.887   1.855  0.9747  2.1405 -0.2279
   20SOL     OW   58   0.181   2.791   0.872  0.1410  0.1127  0.0059
   20SOL    HW1   59   0.114   2.859   0.835 -1.9393  0.9354  1.6473
   20SOL    HW2   60   0.217   2.726   0.799 -0.4816  0.1350 -2.0238
   21SOL     OW   61   2.690   0.264   2.010 -0.0447 -0.1714 -0.2750
   21SOL    HW1   62   2.661   0.199   1.930  0.0731  0.0254 -1.7885
   21SOL    HW2   63   2.767   0.225   2.068 -0.4691 -0.5356  0.5482
   22SOL     OW   64   2.329   0.273   0.153 -0.1112  0.1573  0.1702
   22SOL    HW1   65   2.341   0.171   0.133 -1.4068 -2.2723 -1.2438
   22SOL    HW2   66   2.267   0.317   0.084  0.8707  0.8688  1.5248
   23SOL     OW   67   2.787   0.591   0.617 -0.0038 -0.0400  0.6656
   23SOL    HW1   68   2.798   0.492   0.630 -1.5164 -0.6481 -0.1779
   23SOL    HW2   69   2.767   0.616   0.519 -1.4634  3.5061 -0.4977
   24SOL     OW   70   0.219   1.946   0.420  0.4670 -0.4892  0.5951
   24SOL    HW1   71   0.171   2.000   0.348 -0.1197  2.1669 -2.5740
   24SOL    HW2   72   0.311   1.922   0.389  1.0019  1.7620  0.8825
   25SOL     OW   73   2.244   0.640   0.247  0.4207  0.9478  0.2417
   25SOL    HW1   74   2.256   0.648   0.146 -0.7031  2.7479 -1.5897
   25SOL    HW2   75   2.302   0.562   0.284 -0.4034  0.5127 -2.6922
   26SOL     OW   76   2.480   2.161   2.067 -0.4255  0.0786 -0.1790
   26SOL    HW1   77   2.570   2.213   2.080  1.4803  2.3304  0.2646
   26SOL    HW2   78   2.497   2.091   1.990 -0.5834 -1.6274 -0.4951
   27SOL     OW   79   0.586   2.903   0.198 -0.3241 -0.2565  0.3561
   27SOL    HW1   80   0.686   2.912   0.173 -0.0962  1.0755  0.4275
   27SOL    HW2   81   0.533   2.941   0.120  1.4111 -1.3813  0.7827
   28SOL     OW   82   1.587   0.178   0.290  0.1473 -0.0844  0.2719
   28SOL    HW1   83   1.662   0.146   0.229  0.4476  0.9624  1.5741
   28SOL    HW2   84   1.597   0.280   0.307 -1.3107 -0.3754 -0.8270
   29SOL     OW   85   1.982   0.584   0.333 -0.4367 -0.3878 -0.3568
   29SOL    HW1   86   1.931   0.670   0.324  1.6898 -1.6076 -0.1558
   29SOL    HW2   87   2.080   0.580   0.310 -1.6831 -2.0771 -1.3994
   30SOL     OW   88   0.151   2.034   0.929 -0.0172  1.2390 -0.2015
   30SOL    HW1   89   0.136   1.991   0.836  2.3336 -1.6241  0.9153
   30SOL    HW2   90   0.075   2.100   0.956 -0.1036  3.3541 -0.0698
   31SOL     OW   91   2.151  -0.002   2.372  0.0390  0.3783  0.5420
   31SOL    HW1   92   2.120  -0.018   2.470 -2.8526  2.1471 -1.8423
   31SOL    HW2   93   2.078   0.051   2.318  0.5068 -1.6524 -3.3209
   32SOL     OW   94   2.980   0.035   0.234  0.5736 -0.1130 -0.8170
   32SOL    HW1   95   2.960  -0.065   0.234  2.7071 -2.0909  1.0612
   32SOL    HW2   96   3.079   0.066   0.214  1.5020 -2.0188  0.2256
   33SOL     OW   97   0.901   0.328   0.586 -0.2131  0.4557  0.4104
   33SOL    HW1   98   0.886   0.227   0.565 -2.5350  0.6175 -0.7099
   33SOL    HW2   99   1.002   0.355   0.594 -0.9448 -2.3657 -3.1719
   34SOL     OW  100   0.337   2.726   1.083  0.2367 -0.3767  0.0420
   34SOL    HW1  101   0.297   2.739   0.985  0.2532 -1.3570 -1.8721
   34SOL    HW2  102   0.434   2.764   1.099  0.0829  0.0525 -3.1637
   35SOL     OW  103   0.017   0.110   1.900  0.4305 -0.0201 -0.1297
   35SOL    HW1  104   0.054   0.013   1.914  1.0055  0.8181  1.0977
   35SOL    HW2  105  -0.049   0.122   1.820  3.5046 -2.0636 -1.3257
   36SOL     OW  106   1.922   1.270   1.637  0.4386 -1.0357 -0.7239
   36SOL    HW1  107   1.982   1.182   1.625  1.5315 -3.7411 -0.9067
   36SOL    HW2  108   1.940   1.351   1.571 -1.7280  0.3545  0.1742
   37SOL     OW  109   1.174   0.222   0.974 -0.0233  0.5064 -0.2343
   37SOL    HW1  110   1.221   0.305   1.008 -1.9618 -0.4794 -0.2818
   37SOL    HW2  111   1.237   0.145   0.955 -0.2379  3.9990 -0.1755
   38SOL     OW  112   1.141   2.813   2.418 -0.1684 -0.6215 -1.2396
   38SOL    HW1  113   1.080   2.733   2.417 -2.1316  0.9984  0.0239
   38SOL    HW2  114   1.105   2.901   2.373  0.7143  1.1819  1.6018
   39SOL     OW  115   2.309   1.454   3.055 -0.1155 -0.0117 -0.0256
   39SOL    HW1  116   2.355   1.357   3.057  0.9956 -1.9858 -0.4595
   39SOL    HW2  117   2.283   1.485   3.151  1.7898 -0.1350  2.3194
   40SOL     OW  118   1.986   2.431   2.552 -0.1549  0.5483  0.4180
   40SOL    HW1  119   1.970   2.532   2.552  2.7545  0.5206  0.9172
   40SOL    HW2  120   1.946   2.374   2.472  0.0485 -0.8702 -0.0819
   41SOL     OW  121   3.026   0.678   2.808  0.0648 -0.4368  0.0731
   41SOL    HW1  122   2.934   0.718   2.790 -1.0266  0.7126  1.2715
   41SOL    HW2  123   3.019   0.578   2.793 -0.7861  1.6541 -2.4096
   42SOL     OW  124   1.773   1.799   0.465  0.0008  0.3868 -0.5148
   42SOL    HW1  125   1.729   1.703   0.473 -2.2576  1.3608 -0.9755
   42SOL    HW2  126   1.791   1.819   0.364 -0.3356 -2.5023  1.8512
   43SOL     OW  127   0.424   1.693   1.139 -0.4926 -0.0228  0.3588
   43SOL    HW1  128   0.423   1.594   1.161  0.7990 -0.1948  0.3702
   43SOL    HW2  129   0.335   1.729   1.094  0.4439  1.1719 -0.0639
   44SOL     OW  130   1.723   2.385   3.009 -0.3119 -0.4911  0.2013
   44SOL    HW1  131   1.629   2.433   3.000 -2.1839 -0.8254 -0.3405
   44SOL    HW2  132   1.770   2.378   2.915 -0.4024 -2.1801 -3.6679
   45SOL     OW  133   0.356   1.903   2.630 -0.1720  0.1642 -0.2557
   45SOL    HW1  134   0.318   1.880   2.536 -1.3492  1.9987  1.3950
   45SOL    HW2  135   0.412   1.826   2.674 -1.6731 -0.2172  1.1484
   46SOL     OW  136   1.265   0.621   0.144  0.8625  0.1248 -0.0523
   46SOL    HW1  137   1.269   0.717   0.103  0.4456  0.9851  0.8871
   46SOL    HW2  138   1.166   0.587   0.164 -1.2345 -1.3006  0.6202
   47SOL     OW  139   0.226   2.538   1.545  0.3446 -0.4598  0.4987
   47SOL    HW1  140   0.193   2.438   1.562 -1.7063  0.6909  3.0423
   47SOL    HW2  141   0.218   2.576   1.446  0.6296  0.2235 -2.7588
   48SOL     OW  142   2.629   0.625   0.134 -0.0351  0.0131  0.0466
   48SOL    HW1  143   2.590   0.597   0.224  1.5631 -0.4089  0.0372
   48SOL    HW2  144   2.726   0.668   0.143  1.2940  2.4458 -0.2468
   49SOL     OW  145   0.300   0.746   1.736 -0.5155 -0.1028 -0.8307
   49SOL    HW1  146   0.392   0.776   1.776  0.3561  2.2561 -0.1014
   49SOL    HW2  147   0.302   0.707   1.640  0.7999 -1.1862  0.2250
   50SOL     OW  148   1.672   1.136   0.348  0.2989  0.0503  0.0866
   50SOL    HW1  149   1.687   1.050   0.293 -0.9786 -1.4262 -2.6750
   50SOL    HW2  150   1.668   1.114   0.449 -2.3703 -0.8360  2.9328
   51SOL     OW  151   2.938   1.748   0.253  0.5877 -0.0562  0.0388
   51SOL    HW1  152   2.875   1.682   0.206 -1.2753  2.2378  2.3003
   51SOL    HW2  153   2.999   1.703   0.325  4.6463  0.1399  1.9164
   52SOL     OW  154   0.803   2.098   0.581 -0.1841  0.7651  0.3637
   52SOL    HW1  155   0.698   2.110   0.586  0.1618  0.5678 -1.3116
   52SOL    HW2  156   0.840   2.021   0.640  0.0203 -1.1162  1.1857
   53SOL     OW  157   0.240   0.437   1.591  0.6100 -0.7993  0.1703
   53SOL    HW1  158   0.310   0.510   1.562 -0.0672  1.7505 -0.0703
   53SOL    HW2  159   0.144   0.479   1.589  0.1750  1.6101  1.1521
   54SOL     OW  160   1.809   0.508   3.056  0.1614 -0.3251 -0.2277
   54SOL    HW1  161   1.873   0.464   3.124  0.3127 -0.9038  0.6554
   54SOL    HW2  162   1.714   0.489   3.073  2.7410 -1.4113  1.5183
   55SOL     OW  163   0.762   2.883   0.700  0.2576 -0.5512  0.1475
   55SOL    HW1  164   0.718   2.970   0.672 -0.1938  0.2567  0.4189
   55SOL    HW2  165   0.850   2.874   0.648  0.0170  1.5586 -2.8034
   56SOL     OW  166   0.620   1.565   0.008  0.2497  0.4455  0.1019
   56SOL    HW1  167   0.539   1.612   0.049 -1.2818 -0.1712  1.3072
   56SOL    HW2  168   0.594   1.492  -0.066  1.5979  0.5895 -2.0806
   57SOL     OW  169   1.747   2.525   2.340 -0.5030 -0.0651 -0.1783
   57SOL    HW1  170   1.785   2.430   2.330  1.6912 -2.2294 -1.5440
   57SOL    HW2  171   1.702   2.545   2.435 -0.4126  1.0076 -1.0365
   58SOL     OW  172   0.709   0.281   1.076 -0.5848  1.0141  0.1229
   58SOL    HW1  173   0.607   0.290   1.094  2.2064 -0.5614 -1.1267
   58SOL    HW2  174   0.734   0.181   1.046  0.0622 -0.0940  2.4941
   59SOL     OW  175   0.391   2.302   2.725  0.2587 -0.1117  0.0595
   59SOL    HW1  176   0.436   2.213   2.690 -0.1760 -2.3782  1.5123
   59SOL    HW2  177   0.444   2.349   2.801  0.0453 -1.6669 -3.1271
   60SOL     OW  178   2.327   2.092   2.277  0.0628  0.5343  0.3968
   60SOL    HW1  179   2.383   2.145   2.206  3.7166  1.3643 -2.0655
   60SOL    HW2  180   2.325   2.135   2.372 -4.1048 -0.6933  2.0088
   61SOL     OW  181   1.295   0.614   0.444 -0.8453 -0.8309  0.0548
   61SOL    HW1  182   1.212   0.669   0.474 -0.5142 -1.5529  0.6478
   61SOL    HW2  183   1.310   0.599   0.346  0.2809 -1.0614 -0.3413
   62SOL     OW  184   2.714   1.789   2.926 -0.1238 -0.7087  0.0574
   62SOL    HW1  185   2.667   1.708   2.883  0.9712  0.4425 -2.1657
   62SOL    HW2  186   2.817   1.798   2.907  1.9666 -0.2751 -1.8253
   63SOL     OW  187   0.521   0.805   0.192  0.0330  0.2394  0.8577
   63SOL    HW1  188   0.559   0.885   0.140  0.0179 -2.3034  0.0181
   63SOL    HW2  189   0.528   0.817   0.294 -1.5818  0.8909 -0.0511
   64SOL     OW  190   0.052   0.430   2.455 -0.6786 -0.0417  0.0081
   64SOL    HW1  191   0.144   0.458   2.502  1.2322 -0.4669 -2.0078
   64SOL    HW2  192   0.029   0.494   2.371 -3.1606 -0.9439 -4.5614
   65SOL     OW  193   0.174   1.507   0.592  0.3181 -0.2382  0.3427
   65SOL    HW1  194   0.187   1.547   0.693  0.7090  0.9224 -0.6149
   65SOL    HW2  195   0.264   1.469   0.557 -1.7016 -3.9256  1.0280
   66SOL     OW  196   2.545   0.357   0.576  0.0860  0.1502 -0.1047
   66SOL    HW1  197   2.647   0.369   0.588 -0.5622  0.0199 -0.2358
   66SOL    HW2  198   2.498   0.287   0.638  0.4962  0.5143 -3.6944
   67SOL     OW  199   0.563   2.476   1.447 -0.2972 -0.2916 -0.1310
   67SOL    HW1  200   0.660   2.433   1.452 -0.3770 -2.6976  0.2623
   67SOL    HW2  201   0.486   2.409   1.427  0.0069  1.4088 -0.8298
   68SOL     OW  202   0.981   1.064   2.503 -0.2211 -1.0089  0.6975
   68SOL    HW1  203   1.073   1.024   2.473  2.5183 -1.1018  2.3913
   68SOL    HW2  204   0.914   1.071   2.422 -1.4199  0.9004 -2.6938
   69SOL     OW  205   0.699   2.788   2.157  0.1893  0.5358 -0.3601
   69SOL    HW1  206   0.768   2.706   2.150 -0.2942  1.6499  0.8507
   69SOL    HW2  207   0.604   2.750   2.189 -1.9066 -0.7060  2.1324
   70SOL     OW  208   0.475   0.203   2.617  0.2037 -0.8240 -0.6778
   70SOL    HW1  209   0.377   0.187   2.643  0.9356 -0.6320 -0.1233
   70SOL    HW2  210   0.534   0.116   2.632  0.6041  1.2446  1.1647
   71SOL     OW  211   1.125   1.788   0.405 -0.3150  0.5312 -0.9111
   71SOL    HW1  212   1.086   1.713   0.463  0.3812 -2.4520 -1.2081
   71SOL    HW2  213   1.094   1.792   0.303 -1.9070 -0.2802  1.5987
   72SOL     OW  214   1.823   0.197   2.159 -0.4795  0.3424  0.1983
   72SOL    HW1  215   1.882   0.278   2.174 -2.1618 -1.1097  0.0168
   72SOL    HW2  216   1.881   0.111   2.159  4.1923 -1.6738  0.7656
   73SOL     OW  217   2.815   2.180   2.391  0.0015  0.7177 -0.1022
   73SOL    HW1  218   2.836   2.082   2.353  0.8951  0.3084 -1.3675
   73SOL    HW2  219   2.847   2.186   2.489 -2.1265  0.2949 -1.7469
   74SOL     OW  220   2.682   2.849   2.175 -0.5508 -0.0032  0.6979
   74SOL    HW1  221   2.637   2.838   2.265  1.4938 -0.1032 -0.8842
   74SOL    HW2  222   2.787   2.871   2.183  3.1976  1.6300 -1.9890
   75SOL     OW  223   0.962   0.842   1.112  0.6409  0.1115  0.2709
   75SOL    HW1  224   0.894   0.901   1.060  0.9950 -1.7996 -2.1064
   75SOL    HW2  225   0.972   0.867   1.211  1.2944 -3.7991 -1.1116
   76SOL     OW  226   1.729   1.199   2.498  0.3712 -0.4062 -0.3485
   76SOL    HW1  227   1.629   1.212   2.501  2.8665 -1.5031 -2.6337
   76SOL    HW2  228   1.778   1.286   2.527  0.5395 -0.8992 -1.1867
   77SOL     OW  229   2.930   0.957   1.004 -0.0210  0.2194  0.1726
   77SOL    HW1  230   2.898   0.859   0.983 -0.2349  0.1904 -0.7281
   77SOL    HW2  231   2.991   0.958   1.088 -1.2147 -0.4019 -1.5456
   78SOL     OW  232   2.001   1.480   1.458  0.0403  0.4246 -0.2728
   78SOL    HW1  233   2.105   1.474   1.455 -2.2503 -0.3989  1.2808
   78SOL    HW2  234   1.956   1.483   1.363 -0.5736  2.2774  1.0346
   79SOL     OW  235   0.618   1.405   0.791  0.1245 -0.0618 -0.4546
   79SOL    HW1  236   0.524   1.435   0.820 -2.3899  1.4589  1.8752
   79SOL    HW2  237   0.627   1.362   0.699  2.1731  0.3687 -0.0437
   80SOL     OW  238   0.650   0.483   1.562  0.5683 -0.7578 -0.4451
   80SOL    HW1  239   0.701   0.530   1.481 -0.1441 -1.1203 -0.9659
   80SOL    HW2  240   0.626   0.386   1.544 -1.9527 -0.3288  0.8449
   81SOL     OW  241   1.046   1.313   2.620  0.1931 -0.3113  0.0906
   81SOL    HW1  242   1.012   1.215   2.602 -0.1603 -0.6927 -0.4628
   81SOL    HW2  243   0.990   1.394   2.586  1.6536  0.6207  0.8162
   82SOL     OW  244   0.960   3.011   1.537 -0.5983 -0.0909 -0.4668
   82SOL    HW1  245   0.859   3.006   1.517  1.1188 -1.3933 -1.1230
   82SOL    HW2  246   1.015   2.980   1.456  1.6009  1.9488  0.1344
   83SOL     OW  247   2.629   2.395   0.844 -0.8047 -0.3998 -0.2924
   83SOL    HW1  248   2.526   2.395   0.838  3.0901  2.3205  0.0270
   83SOL    HW2  249   2.664   2.447   0.759  0.4050 -2.6623 -3.3994
   84SOL     OW  250   0.649   3.049   2.397  0.4388  0.4619  0.6303
   84SOL    HW1  251   0.614   3.071   2.494  0.6018 -0.5386  0.3606
   84SOL    HW2  252   0.701   2.955   2.404  2.2244 -2.0770  1.4654
   85SOL     OW  253   0.288   1.616   1.436 -0.0365 -0.0201  0.1859
   85SOL    HW1  254   0.287   1.719   1.442  2.3526  1.0684 -1.9357
   85SOL    HW2  255   0.339   1.577   1.517  1.3313 -3.0944  0.7825
   86SOL     OW  256   0.455   1.040   1.519  0.0148  0.6998 -0.4019
   86SOL    HW1  257   0.407   0.970   1.460 -0.3512  3.4775 -1.7095
   86SOL    HW2  258   0.558   1.025   1.524 -0.7325  2.2282 -0.1778
   87SOL     OW  259   1.594   0.651   0.238  0.9108  0.1829  0.5188
   87SOL    HW1  260   1.650   0.721   0.194 -0.9658 -2.0085  2.1046
   87SOL    HW2  261   1.562   0.579   0.167  2.4224  0.8173 -0.7925
   88SOL     OW  262   1.530   1.357   0.271 -0.2189  0.0958  0.1641
   88SOL    HW1  263   1.590   1.276   0.288 -0.0452  1.3370 -0.6338
   88SOL    HW2  264   1.430   1.337   0.266  2.3042 -0.5801  0.6227
   89SOL     OW  265   3.084   0.450   0.584  0.3165 -0.2770 -0.1652
   89SOL    HW1  266   3.128   0.357   0.551  0.8808  0.0893  0.3506
   89SOL    HW2  267   2.983   0.438   0.605  1.6816 -0.7819 -1.1293
   90SOL     OW  268   0.890   1.560   0.054 -0.5486  0.0697 -0.1839
   90SOL    HW1  269   0.923   1.510   0.141 -0.0560 -0.4253 -0.8973
   90SOL    HW2  270   0.788   1.560   0.040  0.0551  0.0042  0.2642
   91SOL     OW  271   1.234   1.479   1.795  0.1211 -0.1481 -0.2192
   91SOL    HW1  272   1.217   1.577   1.828  0.4218  0.8633 -2.2034
   91SOL    HW2  273   1.336   1.452   1.804  3.8158  0.4393  0.3945
   92SOL     OW  274   3.092   0.941   1.239  0.2832  0.2737 -0.1917
   92SOL    HW1  275   3.136   1.034   1.213 -1.4251  0.9408  1.7721
   92SOL    HW2  276   3.096   0.924   1.342  2.2782  0.0193 -1.0058
   93SOL     OW  277   3.076   2.745   0.033 -0.7604 -0.2478  0.8141
   93SOL    HW1  278   3.022   2.747  -0.058  1.5896  1.5971 -2.8751
   93SOL    HW2  279   3.097   2.648   0.071  1.3089 -2.3597  0.2785
   94SOL     OW  280   1.497   1.468   1.807 -0.5113  0.0678  0.3235
   94SOL    HW1  281   1.563   1.387   1.804  1.0576 -0.2490 -1.3631
   94SOL    HW2  282   1.524   1.557   1.864 -0.9064  0.1682  0.5923
   95SOL     OW  283   1.441   2.509   3.002  0.6647 -0.1450 -0.4604
   95SOL    HW1  284   1.357   2.552   3.047 -1.9060  1.1886  1.3285
   95SOL    HW2  285   1.419   2.419   2.955 -0.0615  0.4048  0.3168
   96SOL     OW  286   0.563   2.102   1.312 -0.1295  0.1675  0.5935
   96SOL    HW1  287   0.497   2.042   1.260 -0.4479  0.6650 -1.0044
   96SOL    HW2  288   0.623   2.053   1.382 -0.9180 -2.2998 -0.1695
   97SOL     OW  289   0.337   1.613   2.442 -0.9834  0.4529 -0.1740
   97SOL    HW1  290   0.335   1.714   2.416 -2.0796 -1.5622  4.2513
   97SOL    HW2  291   0.326   1.598   2.545  0.1855 -0.6699 -0.5243
   98SOL     OW  292   2.087   1.644   1.177  0.6309 -0.1233  0.1879
   98SOL    HW1  293   2.000   1.596   1.189  3.2658  0.2887  0.7091
   98SOL    HW2  294   2.153   1.585   1.124 -0.4016 -1.3342  2.4642
   99SOL     OW  295   2.532   2.050   1.293  0.4828 -0.0887  0.5085
   99SOL    HW1  296   2.531   2.092   1.387  1.4637  1.4054 -0.5197
   99SOL    HW2  297   2.501   1.953   1.291 -1.2466  1.0624  2.5405
  100SOL     OW  298   2.313   0.394   2.091 -0.5480  0.4266  0.3070
  100SOL    HW1  299   2.257   0.365   2.171 -0.5907  2.1428 -0.5214
  100SOL    HW2  300   2.399   0.432   2.131 -2.9493  1.0836 -0.2788
  101SOL     OW  301   0.413   1.495   0.474 -0.0483  0.3885  0.2395
  101SOL    HW1  302   0.406   1.581   0.530  1.2307  0.1413 -1.5335
  101SOL    HW2  303   0.510   1.460   0.464  0.9076 -1.1291 -1.3532
  102SOL     OW  304   2.254   1.041   0.830  0.4724  0.0229 -0.1474
  102SOL    HW1  305   2.181   1.008   0.761 -1.7666  3.1527 -1.3642
  102SOL    HW2  306   2.309   1.126   0.794  2.3432 -2.1618 -3.8162
  103SOL     OW  307   2.224   0.076   0.373 -0.4041  0.3636  0.0061
  103SOL    HW1  308   2.243   0.175   0.341  0.1159  1.0671  0.0569
  103SOL    HW2  309   2.245   0.055   0.470  1.5019  0.7440 -0.3259
  104SOL     OW  310   0.096   1.809   2.144 -0.0331  0.5047 -0.7815
  104SOL    HW1  311   0.109   1.801   2.042  1.6305  0.7064  0.8426
  104SOL    HW2  312  -0.002   1.828   2.174 -2.8611  0.1048  1.2283
  105SOL     OW  313   1.286   2.096   0.785 -0.1378  0.1499 -0.1930
  105SOL    HW1  314   1.331   2.140   0.700 -0.2008  1.3383 -0.4118
  105SOL    HW2  315   1.208   2.030   0.768 -1.3029  1.5161  0.6362
  106SOL     OW  316   2.129   0.378   1.410  0.0024 -0.4246 -0.5211
  106SOL    HW1  317   2.078   0.286   1.427  1.7204 -1.8577  0.9060
  106SOL    HW2  318   2.116   0.441   1.493 -1.2365 -0.3248  0.0830
  107SOL     OW  319   1.905   2.961   1.239  0.3617 -0.3940 -0.3216
  107SOL    HW1  320   1.845   3.038   1.268  0.7542 -0.5885  1.5793
  107SOL    HW2  321   1.855   2.878   1.213  0.9100  0.5192 -0.5010
  108SOL     OW  322   0.802   2.795   1.282 -0.1395  0.1706  0.0311
  108SOL    HW1  323   0.836   2.705   1.324  2.7539 -0.2414 -1.3781
  108SOL    HW2  324   0.882   2.862   1.257  1.0328  1.9578 -0.8186
  109SOL     OW  325   2.118   0.110   0.771 -0.3954  0.4248 -0.4538
  109SOL    HW1  326   2.029   0.147   0.729 -0.2224  1.0424 -1.1781
  109SOL    HW2  327   2.107   0.066   0.866 -0.3253 -0.4659 -0.1579
  110SOL     OW  328   0.481   2.818   2.769  0.8888 -0.2578 -0.1907
  110SOL    HW1  329   0.448   2.768   2.682 -1.2236 -3.2233 -0.9944
  110SOL    HW2  330   0.546   2.764   2.824 -1.1294 -0.2987 -0.1460
  111SOL     OW  331   1.295   0.475   2.332 -1.0737 -0.2544  0.2922
  111SOL    HW1  332   1.243   0.537   2.391  0.3302 -0.3285 -1.4236
  111SOL    HW2  333   1.361   0.415   2.390  0.5160  0.1399  0.6154
  112SOL     OW  334   1.741   0.506   1.473  0.5880 -0.2290  0.4323
  112SOL    HW1  335   1.721   0.480   1.375  0.3588  0.1643 -1.7448
  112SOL    HW2  336   1.681   0.467   1.543  0.0345  0.3986  3.4170
  113SOL     OW  337   2.372   1.642   1.769  0.6555 -0.5156 -0.2405
  113SOL    HW1  338   2.432   1.556   1.753  0.8747  0.3929  2.4604
  113SOL    HW2  339   2.378   1.672   1.871  2.1014  2.3202 -2.5729
  114SOL     OW  340   0.338   0.530   1.240 -0.6363 -0.0963 -0.1564
  114SOL    HW1  341   0.373   0.611   1.174  1.9804  2.0675 -3.3485
  114SOL    HW2  342   0.238   0.544   1.266 -0.8689 -2.5185  2.6704
  115SOL     OW  343   2.732   1.633   1.200  0.5718  0.0219  0.3067
  115SOL    HW1  344   2.707   1.536   1.231 -0.2033  2.1447  0.8504
  115SOL    HW2  345   2.812   1.641   1.143  2.2239 -1.0445  0.6186
  116SOL     OW  346   1.779   1.006   0.591  0.0871  0.1020  0.0668
  116SOL    HW1  347   1.704   0.938   0.629 -0.0734  1.3061  0.6091
  116SOL    HW2  348   1.773   1.098   0.647 -2.0575 -0.0347  2.7961
  117SOL     OW  349   1.172   0.362   0.556 -0.4525  0.0488 -0.3690
  117SOL    HW1  350   1.222   0.454   0.535  2.5294  4.3717 -2.0430
  117SOL    HW2  351   1.162   0.298   0.475  1.0701  1.2106  0.1480
  118SOL     OW  352   1.103   1.171   1.108 -0.6083  0.5672  0.4645
  118SOL    HW1  353   1.055   1.107   1.177 -0.0904  2.1368 -1.4613
  118SOL    HW2  354   1.144   1.253   1.156 -3.4032  0.8158 -0.5748
  119SOL     OW  355   1.825   1.587   2.158  0.1569  0.0090 -0.1963
  119SOL    HW1  356   1.798   1.688   2.160  1.1263 -0.6637  1.6851
  119SOL    HW2  357   1.926   1.575   2.140 -0.2546  0.3070 -0.3164
  120SOL     OW  358   2.927   2.857   0.226  0.1636 -0.2158  0.5873
  120SOL    HW1  359   3.008   2.836   0.162  1.1603  1.8600  1.5004
  120SOL    HW2  360   2.846   2.804   0.193 -0.9398  0.6689  1.3958
  121SOL     OW  361   1.940   0.744   2.233 -0.2865 -0.4306 -0.0458
  121SOL    HW1  362   1.959   0.818   2.162  1.6602  1.6262  1.1010
  121SOL    HW2  363   1.970   0.647   2.201 -0.2330 -0.2605 -0.4793
  122SOL     OW  364   2.669   2.559   1.315  1.1502 -0.1135 -0.1539
  122SOL    HW1  365   2.707   2.517   1.231 -2.0529 -1.2054  0.4253
  122SOL    HW2  366   2.575   2.603   1.307  1.5204  0.2724 -2.2007
  123SOL     OW  367   1.754   0.035   1.707  0.4250  0.1451 -0.0454
  123SOL    HW1  368   1.775  -0.051   1.658  2.9854 -0.0598  4.0228
  123SOL    HW2  369   1.843   0.071   1.753 -1.6810  1.6301 -0.0205
  124SOL     OW  370   0.060   0.436   1.091  0.0069  0.7143  0.7215
  124SOL    HW1  371   0.062   0.519   1.154 -0.8538 -0.3569  0.0487
  124SOL    HW2  372   0.066   0.465   0.994 -0.3320 -1.1175 -1.1234
  125SOL     OW  373   0.870   1.876   0.723  0.4232  0.3539  0.3183
  125SOL    HW1  374   0.958   1.819   0.737  1.8725  0.2330  0.6143
  125SOL    HW2  375   0.808   1.876   0.804  0.8185  2.4926  1.4856
  126SOL     OW  376   1.834   2.267   2.425  0.0533  0.0967 -0.0738
  126SOL    HW1  377   1.880   2.226   2.339  1.7555  2.3677  2.4706
  126SOL    HW2  378   1.760   2.199   2.458  0.7347 -0.8049 -0.2643
  127SOL     OW  379   0.941   0.919   0.174 -0.4633  0.4444 -0.1087
  127SOL    HW1  380   0.980   0.973   0.256  1.8630 -1.7638 -0.7918
  127SOL    HW2  381   0.908   0.824   0.207 -0.4057 -1.7175  1.5958
  128SOL     OW  382   0.917   0.207   1.392 -0.6491  0.4379  0.0573
  128SOL    HW1  383   0.924   0.299   1.337  1.3291  4.6408 -1.0705
  128SOL    HW2  384   0.873   0.134   1.337  3.2267 -2.5526  1.3452
  129SOL     OW  385   1.854   0.666   1.857  0.2919  0.1554  0.6851
  129SOL    HW1  386   1.863   0.656   1.755 -0.1384  2.2247 -0.7386
  129SOL    HW2  387   1.856   0.772   1.887  1.3776  0.5558  1.6432
  130SOL     OW  388   1.398   2.142   1.026  0.6300  0.1246  0.3705
  130SOL    HW1  389   1.360   2.104   0.934  1.7685  1.3105  0.2112
  130SOL    HW2  390   1.474   2.217   1.015  4.7633 -0.2384  0.1565
  131SOL     OW  391   2.999   1.412   1.367  0.4420 -0.1481 -0.1673
  131SOL    HW1  392   2.947   1.346   1.425 -2.2366  0.6818  0.1627
  131SOL    HW2  393   3.093   1.385   1.338  1.8228 -1.1775  1.9033
  132SOL     OW  394   2.036   2.427   0.472  0.3816 -0.1485 -0.0595
  132SOL    HW1  395   1.936   2.455   0.467 -1.3542  4.9679 -1.0139
  132SOL    HW2  396   2.056   2.361   0.553 -3.2001 -2.1062 -2.1839
  133SOL     OW  397   1.779   2.352   2.729 -0.4387 -0.0971  0.1076
  133SOL    HW1  398   1.677   2.345   2.710 -2.6457 -0.0374 -1.1471
  133SOL    HW2  399   1.827   2.403   2.650  2.4804 -0.5065 -1.2904
  134SOL     OW  400   2.668   2.305   1.601  0.0342 -0.2611 -0.0721
  134SOL    HW1  401   2.571   2.317   1.638  0.5963 -0.1292  1.1083
  134SOL    HW2  402   2.728   2.390   1.599  3.1462 -1.5933  0.6379
  135SOL     OW  403   0.723   1.458   2.683 -0.0792 -0.1299  0.1021
  135SOL    HW1  404   0.675   1.376   2.718  3.8365 -1.6607  0.9812
  135SOL    HW2  405   0.767   1.441   2.590 -2.0224  0.4367  0.1525
  136SOL     OW  406   1.216   2.034   0.474  0.6928 -0.0263  0.6363
  136SOL    HW1  407   1.150   2.114   0.485  0.0478  1.0134  0.3599
  136SOL    HW2  408   1.170   1.938   0.480  2.2055 -0.5671 -1.8221
  137SOL     OW  409   0.440   1.194   2.236 -0.2177 -0.3490  0.5170
  137SOL    HW1  410   0.333   1.184   2.237  2.6512  1.1178 -1.1800
  137SOL    HW2  411   0.485   1.103   2.228  0.4247  2.0507  3.2917
  138SOL     OW  412   2.498   1.502   0.270  0.0213  0.3858 -0.2472
  138SOL    HW1  413   2.400   1.474   0.264  2.1421  1.6232 -1.9793
  138SOL    HW2  414   2.548   1.444   0.340 -1.3949  0.2267 -2.2082
  139SOL     OW  415   1.903   2.629   1.380  0.2035  0.2595  0.6902
  139SOL    HW1  416   1.799   2.640   1.374 -0.1996  0.8625  3.0107
  139SOL    HW2  417   1.926   2.528   1.371 -1.7943 -3.1742  1.8440
  140SOL     OW  418   2.999   2.969   2.519  0.5000 -0.0920  0.3060
  140SOL    HW1  419   3.060   2.882   2.510  0.7283 -1.3986 -0.0371
  140SOL    HW2  420   3.052   3.060   2.494 -0.1732  0.2626  1.4023
  141SOL     OW  421   1.320   1.702   1.606 -0.3619  0.3049  0.6599
  141SOL    HW1  422   1.235   1.765   1.605  2.1310  4.3733  2.2348
  141SOL    HW2  423   1.316   1.622   1.672 -2.0595 -1.4147 -1.3378
  142SOL     OW  424   1.536   0.604   2.256  0.4126  0.1575  0.1510
  142SOL    HW1  425   1.574   0.594   2.158  0.2152  0.1297 -0.7511
  142SOL    HW2  426   1.433   0.576   2.270  1.9273 -0.5941 -1.0781
  143SOL     OW  427   2.743   0.903   0.499  0.0925  0.0996  0.2669
  143SOL    HW1  428   2.787   0.974   0.440  0.3956 -1.9063  1.8341
  143SOL    HW2  429   2.783   0.911   0.596  2.8348 -0.3539 -2.1844
  144SOL     OW  430   2.880   1.192   1.510 -0.4490 -0.6361  0.3790
  144SOL    HW1  431   2.858   1.196   1.613  0.5026 -0.7646  3.9907
  144SOL    HW2  432   2.899   1.095   1.477  0.4861 -2.8463  1.4439
  145SOL     OW  433   1.040   1.821   0.133  0.0322 -0.2165 -0.1709
  145SOL    HW1  434   1.125   1.832   0.077  0.9010  1.8185  0.6091
  145SOL    HW2  435   0.965   1.769   0.084 -1.5945 -1.6622 -0.3994
  146SOL     OW  436   2.452   0.664   1.504  0.1058  0.1187  0.7708
  146SOL    HW1  437   2.429   0.567   1.459 -3.0412  1.2342  0.8571
  146SOL    HW2  438   2.410   0.749   1.453  3.4290  1.3881 -0.8021
  147SOL     OW  439   1.101   2.552   0.597  0.2070  0.5694  0.1028
  147SOL    HW1  440   1.031   2.589   0.527  0.5222  2.0348  3.8633
  147SOL    HW2  441   1.195   2.516   0.559  1.1304  0.3621 -0.8561
  148SOL     OW  442   1.610   1.456   0.025  0.0218 -0.3492 -0.2966
  148SOL    HW1  443   1.605   1.370  -0.039  2.2549 -1.6764 -1.2680
  148SOL    HW2  444   1.566   1.443   0.119  2.3277 -1.9284  1.1290
  149SOL     OW  445   0.645   1.450   1.961 -0.0949  0.2345 -0.2651
  149SOL    HW1  446   0.546   1.426   1.988 -0.6329 -0.2888  1.1675
  149SOL    HW2  447   0.689   1.372   1.912 -0.1866  0.1125 -0.8156
  150SOL     OW  448   3.048   1.230   0.958 -0.1551 -0.1636  0.3654
  150SOL    HW1  449   3.101   1.219   1.045 -1.3671 -0.2238 -0.8582
  150SOL    HW2  450   3.006   1.140   0.936  2.8038 -1.5727  3.7268
  151SOL     OW  451   0.136   0.697   2.101  0.2673  0.0862  0.4611
  151SOL    HW1  452   0.141   0.754   2.015 -1.0254 -0.2784 -0.2116
  151SOL    HW2  453   0.212   0.625   2.100  0.4916  0.0297  0.0085
  152SOL     OW  454   1.460   1.797   1.183 -0.4560 -0.1921 -0.4589
  152SOL    HW1  455   1.511   1.888   1.205  2.0107  1.2505  2.6195
  152SOL    HW2  456   1.356   1.808   1.173  2.3758 -0.3180 -1.6190
  153SOL     OW  457   0.131   1.568   0.209  0.2254 -0.6531  0.0669
  153SOL    HW1  458   0.099   1.469   0.201 -0.3359 -3.1996  1.1677
  153SOL    HW2  459   0.090   1.613   0.292 -0.0859 -1.5955  1.1989
  154SOL     OW  460   2.364   1.885   2.857 -0.2307  0.5113  0.2556
  154SOL    HW1  461   2.412   1.793   2.847  0.7528 -0.2236 -0.1523
  154SOL    HW2  462   2.413   1.962   2.799 -1.1020  1.8902 -0.7324
  155SOL     OW  463   2.526   1.167   0.399  0.3101 -0.8765 -0.0764
  155SOL    HW1  464   2.590   1.183   0.317  2.6533  2.9427  2.9583
  155SOL    HW2  465   2.425   1.149   0.373 -1.8162  1.2638 -1.1672
  156SOL     OW  466   2.466   0.872   0.784 -0.0517 -0.1158 -0.6176
  156SOL    HW1  467   2.401   0.935   0.834 -0.1873 -1.3387  2.0210
  156SOL    HW2  468   2.516   0.915   0.705 -2.7918 -2.2012 -0.6470
  157SOL     OW  469   1.219   3.000   2.955  0.5793 -0.1562 -0.2408
  157SOL    HW1  470   1.273   2.960   2.878  0.3543 -1.1270  1.4962
  157SOL    HW2  471   1.269   3.086   2.995  3.0659  2.1035  1.4214
  158SOL     OW  472   0.985   1.862   1.893 -0.1679  0.7461 -0.1548
  158SOL    HW1  473   1.015   1.951   1.854 -2.8654  2.6090  0.7063
  158SOL    HW2  474   0.911   1.877   1.964 -1.7999  0.1341 -2.3351
  159SOL     OW  475   0.878   0.436   1.198 -0.0632  0.4924 -0.2421
  159SOL    HW1  476   0.826   0.503   1.257  1.4481  3.3444  1.9682
  159SOL    HW2  477   0.812   0.365   1.148 -1.4682 -1.1001 -0.9612
  160SOL     OW  478   1.353   2.441   1.590  0.0103  0.8013 -0.4436
  160SOL    HW1  479   1.310   2.357   1.630 -1.1131  0.5549 -0.0940
  160SOL    HW2  480   1.451   2.430   1.571  0.5708  1.8237 -1.4785
  161SOL     OW  481   3.096   2.925   0.481 -0.6494 -0.7514 -0.0656
  161SOL    HW1  482   3.058   2.833   0.459  0.0986  0.0283  2.1366
  161SOL    HW2  483   3.060   2.989   0.410  2.2678 -3.1521  1.6062
  162SOL     OW  484   2.605   1.860   0.487  0.0043 -0.2527 -0.0401
  162SOL    HW1  485   2.544   1.823   0.407  3.3991 -2.2485 -0.9768
  162SOL    HW2  486   2.611   1.790   0.564 -4.6558 -2.9006 -1.7391
  163SOL     OW  487   1.948   2.734   0.736  0.8002 -0.6700 -0.0247
  163SOL    HW1  488   1.948   2.759   0.634 -0.8801  0.9671 -0.9250
  163SOL    HW2  489   1.999   2.647   0.756  1.2277 -0.0371  0.8437
  164SOL     OW  490   3.046   0.203   1.253  0.0641 -0.7477  0.0143
  164SOL    HW1  491   3.049   0.253   1.168  0.6105  2.6260  2.1124
  164SOL    HW2  492   3.124   0.230   1.310 -0.4035 -0.5166  1.9972
  165SOL     OW  493   0.993   1.377   0.748  0.8967  0.3498  0.1046
  165SOL    HW1  494   0.951   1.435   0.827 -0.5211 -0.7892  1.0768
  165SOL    HW2  495   1.009   1.425   0.658  2.4267 -0.0614 -1.6446
  166SOL     OW  496   1.587   1.010   1.805 -0.0285 -0.0312  0.4412
  166SOL    HW1  497   1.488   1.015   1.843  0.6447 -1.1022  3.9176
  166SOL    HW2  498   1.630   1.107   1.802  3.8454 -0.0014 -0.8268
  167SOL     OW  499   0.746   1.976   1.477  0.2766 -0.2622  0.1233
  167SOL    HW1  500   0.766   2.033   1.562  0.4040  2.4695  0.9694
  167SOL    HW2  501   0.691   1.893   1.501 -1.6084 -0.8309  0.8278
  168SOL     OW  502   1.626   2.352   0.164  0.0853  0.0451 -0.3982
  168SOL    HW1  503   1.698   2.362   0.086 -1.1028  0.1346 -2.7536
  168SOL    HW2  504   1.675   2.323   0.253 -0.4560  0.7753  1.6583
  169SOL     OW  505   0.177   2.580   2.228 -0.0150 -0.3810  0.1742
  169SOL    HW1  506   0.209   2.518   2.149  1.6967  2.6421  0.9265
  169SOL    HW2  507   0.185   2.528   2.319 -0.8986  0.7083  1.7406
  170SOL     OW  508   1.106   0.228   2.011  0.0589 -0.1625 -0.2550
  170SOL    HW1  509   1.153   0.167   2.087  0.4616  2.4339  0.8709
  170SOL    HW2  510   1.140   0.210   1.912  1.7669 -1.7445 -2.0157
  171SOL     OW  511   0.172   0.808   2.368  0.2474 -0.4664  0.1359
  171SOL    HW1  512   0.091   0.847   2.429  1.3134 -2.2187 -1.2475
  171SOL    HW2  513   0.152   0.794   2.266  0.0699 -0.6964  0.1558
  172SOL     OW  514   0.955   0.968   2.887  0.0956 -0.0179  0.2786
  172SOL    HW1  515   0.907   1.028   2.955 -0.1133  1.0004  0.3309
  172SOL    HW2  516   0.932   0.993   2.791  0.2339 -3.7769  0.9824
  173SOL     OW  517   0.565   2.557   0.126  0.3932 -0.8923 -0.0372
  173SOL    HW1  518   0.544   2.575   0.024 -5.7679  0.5292  1.7102
  173SOL    HW2  519   0.490   2.592   0.187  0.2738 -1.3759 -1.9125
  174SOL     OW  520   1.536   2.788   1.032 -0.3012 -0.1536 -0.3998
  174SOL    HW1  521   1.563   2.859   0.954  1.5273  0.7451 -0.1185
  174SOL    HW2  522   1.515   2.700   0.992 -0.9094 -0.7938  0.7807
  175SOL     OW  523   0.473   3.052   1.723 -0.0380  0.3681 -0.1287
  175SOL    HW1  524   0.558   3.040   1.781  0.6621 -2.2146  1.2718
  175SOL    HW2  525   0.448   3.149   1.696  2.5447  1.8009 -0.1461
  176SOL     OW  526   2.554   0.397   0.011 -0.4864 -0.1973  0.4339
  176SOL    HW1  527   2.603   0.486   0.048 -1.9254 -2.7469  1.4406
  176SOL    HW2  528   2.468   0.369   0.062 -1.1301 -1.8523 -0.5338
  177SOL     OW  529   0.294   0.339   0.921  0.0664 -0.6456  0.0646
  177SOL    HW1  530   0.216   0.275   0.891  1.9643 -1.5999 -2.3667
  177SOL    HW2  531   0.297   0.347   1.025 -0.7538  0.8655  0.8130
  178SOL     OW  532   0.051   2.752   2.561 -0.6223  0.0070  0.4423
  178SOL    HW1  533   0.011   2.657   2.545  1.0762  2.5956 -0.1312
  178SOL    HW2  534   0.132   2.752   2.625  1.2636  0.6525 -0.8409
  179SOL     OW  535   3.020   1.579   1.161 -0.4619 -0.0416  0.1831
  179SOL    HW1  536   3.054   1.520   1.086  0.4580  0.3865  1.0209
  179SOL    HW2  537   3.002   1.529   1.254 -1.3651 -0.7769  3.1405
  180SOL     OW  538   0.190   1.285   1.811 -0.0878  0.4248 -0.0524
  180SOL    HW1  539   0.253   1.227   1.869 -2.3995  2.3866 -1.0574
  180SOL    HW2  540   0.145   1.366   1.866 -0.1813 -0.0884  2.7818
  181SOL     OW  541   0.011   1.890   2.471 -0.5116  0.2707  0.1641
  181SOL    HW1  542   0.056   1.977   2.500  2.1549  2.2069 -0.6225
  181SOL    HW2  543  -0.091   1.895   2.437  0.7846  0.5731 -1.3283
  182SOL     OW  544   2.346   1.225   1.193  0.6345 -0.0339  0.5683
  182SOL    HW1  545   2.284   1.150   1.161 -0.0386  0.0736 -1.7374
  182SOL    HW2  546   2.307   1.312   1.164  1.0266 -3.6554  0.7586
  183SOL     OW  547   1.424   2.252   2.542 -0.8840 -0.0572 -0.1397
  183SOL    HW1  548   1.338   2.197   2.551 -0.0152  3.0058  0.4978
  183SOL    HW2  549   1.500   2.208   2.489  3.3468 -0.4572  0.7868
  184SOL     OW  550   2.031   0.936   0.698 -0.2431  0.2238  0.6765
  184SOL    HW1  551   1.932   0.953   0.655  0.5283  2.2266  0.1540
  184SOL    HW2  552   2.024   0.850   0.764 -0.3837  0.0458  1.7763
  185SOL     OW  553   1.571   2.767   1.947 -0.4773 -0.4358  0.0059
  185SOL    HW1  554   1.502   2.844   1.938  2.7430  0.0325  0.6543
  185SOL    HW2  555   1.630   2.777   2.032  1.8219 -1.6053 -1.7886
  186SOL     OW  556   0.140   2.248   1.660 -0.4422 -0.4669 -0.1283
  186SOL    HW1  557   0.089   2.297   1.742 -1.3291  2.5063  1.3639
  186SOL    HW2  558   0.231   2.202   1.682 -1.7549  0.1998  0.1489
  187SOL     OW  559   1.379   0.678   1.646  0.4505 -0.2215 -0.0638
  187SOL    HW1  560   1.459   0.734   1.607 -0.4495 -1.9039  0.9551
  187SOL    HW2  561   1.414   0.630   1.732 -1.0498  2.3987 -0.4200
  188SOL     OW  562   2.815   2.774   1.451  0.0557 -0.1415 -0.3054
  188SOL    HW1  563   2.777   2.871   1.457 -0.7305  2.0592  1.1822
  188SOL    HW2  564   2.752   2.713   1.395 -1.1901  3.9544 -0.0354
  189SOL     OW  565   0.907   1.180   1.461 -0.3926 -0.1858 -0.6104
  189SOL    HW1  566   0.961   1.224   1.541  1.3528 -0.5569  1.8314
  189SOL    HW2  567   0.847   1.257   1.417 -3.5086  0.3225  1.2792
  190SOL     OW  568   1.453   1.944   1.616  0.2286 -0.0581  0.1549
  190SOL    HW1  569   1.423   1.843   1.634  1.1104 -2.8339 -4.4376
  190SOL    HW2  570   1.486   1.993   1.699  1.0888  0.1300 -2.4598
  191SOL     OW  571   0.919   0.754   1.501 -0.5765  0.1388 -0.5130
  191SOL    HW1  572   0.972   0.717   1.580 -0.1052  0.2189 -0.5475
  191SOL    HW2  573   0.967   0.815   1.433  0.1620 -0.4422  1.6534
  192SOL     OW  574   1.853   2.314   1.089  0.1475  0.2529  0.5172
  192SOL    HW1  575   1.758   2.287   1.054 -3.3675  0.0459  1.5608
  192SOL    HW2  576   1.934   2.282   1.035 -1.5508 -1.8245 -0.6754
  193SOL     OW  577   0.525   0.547   0.423 -0.2171 -0.3776 -0.4471
  193SOL    HW1  578   0.467   0.467   0.445 -0.3009 -0.3122  0.4133
  193SOL    HW2  579   0.582   0.525   0.339 -2.2812 -0.9240  2.2163
  194SOL     OW  580   0.357   0.879   1.294 -0.4298  0.2057  0.0591
  194SOL    HW1  581   0.348   0.781   1.275  0.9954  2.3381  1.0651
  194SOL    HW2  582   0.357   0.935   1.205  0.0207 -0.9155 -0.4610
  195SOL     OW  583   1.023   2.926   0.530 -0.2440 -0.3059  0.6116
  195SOL    HW1  584   1.005   2.833   0.481  2.6513 -2.1563 -1.9613
  195SOL    HW2  585   1.124   2.950   0.516  2.8667 -2.7827  1.0465
  196SOL     OW  586   0.192   1.336   1.365 -0.0539 -0.1047 -0.5263
  196SOL    HW1  587   0.221   1.433   1.384  0.0327  1.0401 -2.8685
  196SOL    HW2  588   0.188   1.277   1.452  1.5858  0.4527  0.8809
  197SOL     OW  589   0.825   2.047   0.234 -0.2309  0.0928 -0.0295
  197SOL    HW1  590   0.830   2.017   0.334  0.6401 -2.2026 -1.1211
  197SOL    HW2  591   0.900   1.999   0.185  0.6032  3.4554 -0.8021
  198SOL     OW  592   0.287   1.271   0.348  0.4955  0.6694  0.6047
  198SOL    HW1  593   0.214   1.292   0.277  0.6767  0.3899  1.0295
  198SOL    HW2  594   0.310   1.356   0.399 -0.9048 -2.9297 -1.4887
  199SOL     OW  595   2.313   0.390   2.550 -0.7800  0.6013  0.6139
  199SOL    HW1  596   2.251   0.345   2.615 -0.4086  0.8374  3.5802
  199SOL    HW2  597   2.415   0.375   2.579  1.8258  1.0901 -1.6991
  200SOL     OW  598   3.084   2.942   0.732 -0.0365 -0.1554 -0.2108
  200SOL    HW1  599   2.986   2.924   0.760 -0.9786  3.1081 -1.5994
  200SOL    HW2  600   3.099   2.955   0.630 -0.4961  0.5858  1.0271
  201SOL     OW  601   1.042   0.702   0.540  0.0660 -0.0669 -0.0962
  201SOL    HW1  602   1.080   0.734   0.631 -2.1884 -2.2540 -0.7319
  201SOL    HW2  603   0.942   0.657   0.560 -3.2593 -1.8599 -2.9182
  202SOL     OW  604   0.394   1.120   1.950 -0.3440  0.3353 -0.3174
  202SOL    HW1  605   0.491   1.085   1.940  0.4168  1.2497 -0.5453
  202SOL    HW2  606   0.405   1.200   2.013  1.1008 -0.8419  1.6919
  203SOL     OW  607   0.598   0.211   1.485 -0.5000  0.0244  0.0711
  203SOL    HW1  608   0.648   0.158   1.413  2.2690  0.9590  1.9321
  203SOL    HW2  609   0.624   0.177   1.577 -2.3615 -1.5177 -0.3309
  204SOL     OW  610   2.097   1.783   2.905 -0.4633  0.4651  0.5662
  204SOL    HW1  611   2.076   1.677   2.914  1.7686 -1.3953 -0.9731
  204SOL    HW2  612   2.190   1.809   2.867  1.2946  2.0714 -2.3097
  205SOL     OW  613   1.860   1.833   3.021 -0.0371 -0.1521  0.0223
  205SOL    HW1  614   1.950   1.812   2.969 -0.0807  0.2336 -0.2223
  205SOL    HW2  615   1.833   1.933   3.027  0.3451 -1.2186  0.6140
  206SOL     OW  616   2.432   2.806   0.342 -0.1553 -0.1608  0.1692
  206SOL    HW1  617   2.473   2.720   0.385 -0.5549 -0.8048  0.3094
  206SOL    HW2  618   2.505   2.882   0.329  2.0686  1.4110  0.4606
  207SOL     OW  619   0.690   1.829   2.947 -0.4491  0.5066 -0.4532
  207SOL    HW1  620   0.771   1.784   2.901  0.8637  0.6835 -0.0804
  207SOL    HW2  621   0.632   1.761   2.997  0.2825 -0.6742 -0.7428
  208SOL     OW  622   1.161   1.587   1.404  0.3610  0.6460  0.0036
  208SOL    HW1  623   1.143   1.654   1.328 -1.5406 -1.3812 -0.5185
  208SOL    HW2  624   1.178   1.634   1.494 -2.5145  2.4454  1.2541
  209SOL     OW  625   0.246   0.932   3.058 -0.2191 -0.3363  0.3547
  209SOL    HW1  626   0.209   0.855   2.999  2.7325  0.6840  0.3968
  209SOL    HW2  627   0.245   0.910   3.160 -1.9130  0.7982 -1.6910
  210SOL     OW  628   1.730   0.484   1.162  0.1800  0.3373  0.0721
  210SOL    HW1  629   1.685   0.578   1.163 -0.8318  2.9216  1.7977
  210SOL    HW2  630   1.837   0.499   1.165  0.4008  0.5208  0.2870
  211SOL     OW  631   2.101   1.059   1.600 -0.5944 -0.0971  0.1348
  211SOL    HW1  632   2.150   0.993   1.667 -2.0078  0.7606  0.2467
  211SOL    HW2  633   2.163   1.099   1.527 -2.7789  1.3364  1.7932
  212SOL     OW  634   0.012   0.970   1.502 -0.0689  0.0244  0.1987
  212SOL    HW1  635   0.096   1.025   1.527  0.2656 -0.2914  1.1048
  212SOL    HW2  636   0.006   0.882   1.557  1.4303 -1.4740 -1.1259
  213SOL     OW  637   2.780   0.168   0.382 -1.0923  0.1609 -0.1677
  213SOL    HW1  638   2.862   0.162   0.317 -3.9707  0.9226  2.5234
  213SOL    HW2  639   2.720   0.087   0.391  1.1916 -1.0541  0.9200
  214SOL     OW  640   2.186   0.301   2.335  0.5090  0.2220 -0.0487
  214SOL    HW1  641   2.225   0.356   2.417 -0.8718  1.4291  1.0448
  214SOL    HW2  642   2.224   0.203   2.345  2.0759  2.4774 -1.9007
  215SOL     OW  643   1.614   2.323   2.084  0.5139  0.3369 -0.0149
  215SOL    HW1  644   1.707   2.355   2.050 -0.8328 -0.2215  1.4565
  215SOL    HW2  645   1.573   2.390   2.155 -1.0337  0.0641 -0.2587
  216SOL     OW  646   2.197   0.627   0.695  0.1804  0.4811  0.1757
  216SOL    HW1  647   2.208   0.532   0.660 -1.0381 -1.6523 -1.9628
  216SOL    HW2  648   2.186   0.695   0.615 -0.3966  1.3428 -2.3098
  217SOL     OW  649   0.755   2.799   2.433  0.2601  0.1700  0.3990
  217SOL    HW1  650   0.743   2.704   2.475 -0.7647 -0.8088 -0.1148
  217SOL    HW2  651   0.742   2.807   2.328  2.4837  0.9988  1.4510
  218SOL     OW  652   1.902   1.426   0.024  0.0605  0.4511 -0.1042
  218SOL    HW1  653   1.803   1.455   0.024 -1.7587  0.0522 -1.8037
  218SOL    HW2  654   1.931   1.372   0.104 -1.4403 -0.3529  1.9377
  219SOL     OW  655   2.437   1.314   2.511  0.2753 -0.1475  0.3584
  219SOL    HW1  656   2.488   1.310   2.419  0.8070 -1.7309  0.8496
  219SOL    HW2  657   2.439   1.220   2.558 -0.5193  0.0885 -1.2392
  220SOL     OW  658   1.468   1.067   1.303 -0.2157 -0.3386  0.1092
  220SOL    HW1  659   1.566   1.059   1.330  0.3522  2.1723 -1.1220
  220SOL    HW2  660   1.457   1.067   1.199  1.4163  1.2572 -1.5573
  221SOL     OW  661   1.284   0.982   2.174 -0.3263 -0.1447  0.1503
  221SOL    HW1  662   1.238   1.054   2.118  0.5021  0.0572  2.4083
  221SOL    HW2  663   1.389   0.985   2.150  0.5850  0.3348 -0.6730
  222SOL     OW  664   1.113   0.071   1.200 -0.0059 -0.0798 -0.1446
  222SOL    HW1  665   1.164   0.098   1.287  0.8436 -1.1968  0.1435
  222SOL    HW2  666   1.121   0.134   1.120 -0.8856  2.4603 -1.0810
  223SOL     OW  667   2.722   0.948   2.163 -0.4976 -0.5513 -0.3738
  223SOL    HW1  668   2.683   1.016   2.229  1.4546  0.5119 -1.5835
  223SOL    HW2  669   2.821   0.920   2.188  0.4252  0.0398  0.9422
  224SOL     OW  670   1.511   1.084   2.726 -0.0500  0.2567  0.3742
  224SOL    HW1  671   1.572   0.998   2.690  1.7134  0.4433 -1.6339
  224SOL    HW2  672   1.486   1.149   2.650 -1.1615  2.1865 -0.4917
  225SOL     OW  673   2.971   2.771   2.885  0.8105 -0.7702 -0.1055
  225SOL    HW1  674   2.887   2.755   2.820  2.0749  2.9875  1.6466
  225SOL    HW2  675   3.062   2.747   2.847 -1.1890 -1.3825 -1.1887
  226SOL     OW  676   2.454   1.622   2.873  0.0565 -0.1544 -0.0374
  226SOL    HW1  677   2.471   1.584   2.782  2.1742  0.1535  4.2266
  226SOL    HW2  678   2.385   1.566   2.931 -0.4643 -1.4001  4.2960
  227SOL     OW  679   0.853   0.148   0.016 -0.2386  0.4200 -1.1675
  227SOL    HW1  680   0.854   0.241  -0.024 -2.6217  0.8882  1.9249
  227SOL    HW2  681   0.796   0.095  -0.048 -2.6734  1.2011  0.9484
  228SOL     OW  682   2.427   0.588   2.864 -0.0130 -0.1731  0.3143
  228SOL    HW1  683   2.418   0.638   2.776  1.7547 -1.8622  4.3840
  228SOL    HW2  684   2.509   0.528   2.863 -0.6721 -0.7690  1.7757
  229SOL     OW  685   0.571   0.485   1.821 -0.0000  0.8135 -0.0360
  229SOL    HW1  686   0.521   0.393   1.818 -1.1157 -2.4937 -1.5456
  229SOL    HW2  687   0.608   0.500   1.724 -1.9306  2.1188 -1.5410
  230SOL     OW  688   1.940   1.152   2.080  0.6184  0.3296 -0.3561
  230SOL    HW1  689   1.987   1.207   2.005  0.0049 -0.6458  0.7872
  230SOL    HW2  690   1.863   1.210   2.115 -1.4304  0.3390 -2.2813
  231SOL     OW  691   0.631   1.022   0.065  0.4134  0.6413 -0.2058
  231SOL    HW1  692   0.726   1.067   0.043  0.2728 -0.6562  0.8008
  231SOL    HW2  693   0.560   1.094   0.077  1.7762  0.2580  0.0273
  232SOL     OW  694   2.426   3.071   2.887  0.3241  0.1726  0.7997
  232SOL    HW1  695   2.479   2.981   2.898  0.9764 -0.2186  2.5827
  232SOL    HW2  696   2.465   3.120   2.806 -1.0450  1.0588  1.2075
  233SOL     OW  697   1.688   1.221   1.127  0.6774 -0.2476  0.1734
  233SOL    HW1  698   1.699   1.196   1.027  1.5285 -0.1081  1.1046
  233SOL    HW2  699   1.736   1.151   1.192  0.6398 -1.6776  1.6376
  234SOL     OW  700   1.565   2.503   1.874  0.2029 -0.4349 -0.1165
  234SOL    HW1  701   1.576   2.592   1.925  0.7013  0.3036 -2.0272
  234SOL    HW2  702   1.538   2.419   1.930  1.1610 -0.6102 -0.9627
  235SOL     OW  703   0.008   3.048   2.812 -0.5328 -0.3528 -0.0505
  235SOL    HW1  704  -0.055   3.027   2.731 -0.5085  1.6971  0.5248
  235SOL    HW2  705  -0.040   3.085   2.894 -3.0024  1.6690 -1.2870
  236SOL     OW  706   2.880   0.744   0.080 -0.3472  0.5432 -0.3623
  236SOL    HW1  707   2.965   0.776   0.133 -1.7137 -0.5794  0.2218
  236SOL    HW2  708   2.900   0.661   0.021 -1.2060 -2.1193  0.1457
  237SOL     OW  709   1.567   1.649   0.958 -0.2517 -0.2956  0.0254
  237SOL    HW1  710   1.674   1.654   0.943  2.5511  0.7658  1.3541
  237SOL    HW2  711   1.529   1.701   1.039 -0.9778 -0.3312 -1.7057
  238SOL     OW  712   1.796   1.256   0.835 -0.1040 -0.4406 -0.6027
  238SOL    HW1  713   1.859   1.309   0.897  0.0835  1.1496  0.2760
  238SOL    HW2  714   1.728   1.310   0.773 -0.5562 -1.6094 -2.0358
  239SOL     OW  715   2.107   0.322   2.712  0.2517 -0.0847  0.8010
  239SOL    HW1  716   2.144   0.264   2.790 -0.8846  2.3517  0.4279
  239SOL    HW2  717   2.018   0.370   2.734 -1.4120 -1.7516  0.4235
  240SOL     OW  718   0.936   0.651   0.272 -0.0299 -0.5320 -0.3339
  240SOL    HW1  719   0.968   0.560   0.227  4.6135 -0.7301  0.5646
  240SOL    HW2  720   0.959   0.659   0.373 -0.0790  1.1395 -0.2856
  241SOL     OW  721   0.609   0.041   0.389  0.3239  0.6910  0.1571
  241SOL    HW1  722   0.636   0.120   0.331  0.4541 -2.9170  0.8791
  241SOL    HW2  723   0.595  -0.047   0.335  0.8768  1.3485  0.6883
  242SOL     OW  724   0.600   2.505   1.153  0.1035 -0.3801 -0.2957
  242SOL    HW1  725   0.582   2.539   1.250 -0.0980 -2.0131  0.0042
  242SOL    HW2  726   0.598   2.571   1.073 -1.5669 -0.6466 -0.7746
  243SOL     OW  727   1.074   0.612   2.508 -0.1956 -0.3613 -0.0384
  243SOL    HW1  728   0.994   0.658   2.454 -1.4165  0.3840 -1.4106
  243SOL    HW2  729   1.049   0.574   2.600  1.6662 -2.8544  0.5271
  244SOL     OW  730   2.847   1.889   2.342 -0.1098 -0.5822 -0.5064
  244SOL    HW1  731   2.853   1.885   2.237  0.3061 -0.9303  2.4574
  244SOL    HW2  732   2.753   1.858   2.385  0.8180 -3.7659  1.9932
  245SOL     OW  733   2.289   0.833   2.151 -0.8563  0.6800 -0.6970
  245SOL    HW1  734   2.369   0.893   2.177  0.0571 -0.5667  0.2238
  245SOL    HW2  735   2.232   0.815   2.240 -4.2854  0.3603  2.2790
  246SOL     OW  736   0.238   2.930   1.725 -0.4690 -0.1658 -0.3809
  246SOL    HW1  737   0.188   2.948   1.630 -0.0682  0.5460 -0.8666
  246SOL    HW2  738   0.332   2.979   1.727 -1.1233 -0.0912  0.0765
  247SOL     OW  739   2.209   0.645   3.018 -0.5144 -0.1098 -0.7109
  247SOL    HW1  740   2.275   0.627   2.944 -1.0747  3.3215  1.5370
  247SOL    HW2  741   2.168   0.740   3.015  1.8458  0.7726  0.7355
  248SOL     OW  742   2.162   1.818   1.600  0.3004  0.0999 -0.1320
  248SOL    HW1  743   2.219   1.760   1.656  0.2787  2.0101  0.2198
  248SOL    HW2  744   2.072   1.836   1.653  1.0988 -0.0594  1.1311
  249SOL     OW  745   1.853   1.950   1.938  0.5368  0.5463  0.4093
  249SOL    HW1  746   1.855   1.898   1.847 -0.3980  0.5427 -0.5233
  249SOL    HW2  747   1.946   1.985   1.968 -0.5445  0.4938 -2.4048
  250SOL     OW  748   1.090   0.681   1.885 -0.2571 -0.0064 -0.3298
  250SOL    HW1  749   1.131   0.618   1.960  0.1412 -0.7122  0.9083
  250SOL    HW2  750   1.086   0.637   1.789  0.1677  2.0950 -0.4619
  251SOL     OW  751   0.047   1.625   2.511 -0.4719  0.1523  0.7507
  251SOL    HW1  752   0.029   1.724   2.486 -0.0204 -2.5486  0.3935
  251SOL    HW2  753  -0.040   1.580   2.548  1.0700  0.0338  0.7112
  252SOL     OW  754   1.608   0.824   1.567  0.4801 -0.4327  0.2953
  252SOL    HW1  755   1.701   0.808   1.527 -2.0759  0.3571  1.0554
  252SOL    HW2  756   1.612   0.881   1.652 -0.5874 -1.8085 -2.8561
  253SOL     OW  757   1.010   1.563   0.543 -0.1372  0.3677  0.4658
  253SOL    HW1  758   1.012   1.509   0.458 -1.3484 -0.9137  1.5914
  253SOL    HW2  759   0.919   1.617   0.556 -0.6414  0.5263  1.3366
  254SOL     OW  760   2.044   2.165   1.631 -0.2960  0.7335  0.3483
  254SOL    HW1  761   2.004   2.098   1.561 -0.9994  2.4913  0.0233
  254SOL    HW2  762   1.969   2.213   1.685 -1.6207 -1.7995 -0.1341
  255SOL     OW  763   0.107   1.122   2.928  0.4275  0.5799  0.5616
  255SOL    HW1  764   0.150   1.206   2.900 -2.3870  0.0046  0.7199
  255SOL    HW2  765   0.172   1.058   2.975 -3.1904  0.3032  0.8372
  256SOL     OW  766   2.818   1.406   1.773  0.8012 -0.2104 -0.4671
  256SOL    HW1  767   2.732   1.465   1.764  2.5840 -0.7718  2.8414
  256SOL    HW2  768   2.795   1.304   1.790  0.2056  0.5647  2.0492
  257SOL     OW  769   0.758   0.145   1.752 -0.0902 -0.0030 -0.0087
  257SOL    HW1  770   0.845   0.193   1.719  1.1703  0.5257 -2.1244
  257SOL    HW2  771   0.769   0.050   1.795 -1.4832 -0.3872 -3.1326
  258SOL     OW  772   3.013   1.240   0.439 -0.2971 -0.0998  0.6224
  258SOL    HW1  773   2.940   1.307   0.404  1.0297  0.0740 -1.7656
  258SOL    HW2  774   3.060   1.261   0.534  0.7876 -0.1833  0.3281
  259SOL     OW  775   0.465   2.931   3.059  0.0019 -0.0931  0.4578
  259SOL    HW1  776   0.381   2.893   3.106 -1.9140  1.3929 -0.8462
  259SOL    HW2  777   0.488   2.882   2.966  0.1771 -1.7995 -3.9126
  260SOL     OW  778   2.761   0.742   2.797 -0.0954 -0.8549 -0.2844
  260SOL    HW1  779   2.662   0.743   2.761 -2.4195 -1.1565  3.2136
  260SOL    HW2  780   2.761   0.743   2.899 -2.8335 -1.2253 -1.6677
  261SOL     OW  781   2.709   1.370   1.263 -0.3576  0.2745  0.4495
  261SOL    HW1  782   2.662   1.294   1.209 -0.6916 -1.2570  0.5622
  261SOL    HW2  783   2.805   1.351   1.303  0.8706 -0.0628  3.5172
  262SOL     OW  784   1.388   2.956   1.977  0.1835  0.1802  0.0877
  262SOL    HW1  785   1.430   3.024   1.905  0.2883  1.4836  0.5566
  262SOL    HW2  786   1.290   2.919   1.964 -0.1313 -0.7087  0.6976
  263SOL     OW  787   0.852   0.685   2.360  0.1207 -0.5385  0.0919
  263SOL    HW1  788   0.780   0.615   2.334  2.5605  0.1388 -1.4989
  263SOL    HW2  789   0.901   0.726   2.275 -3.5760 -0.9486 -2.4964
  264SOL     OW  790   2.202   0.822   0.451  0.2799 -0.3007 -0.2819
  264SOL    HW1  791   2.197   0.760   0.367  0.6119 -2.4179 -0.2380
  264SOL    HW2  792   2.294   0.863   0.471  2.8237 -4.2205 -4.5811
  265SOL     OW  793   0.952   2.450   2.609  0.1507  0.1328  0.6541
  265SOL    HW1  794   0.990   2.494   2.694 -0.8132  1.1987  0.7931
  265SOL    HW2  795   0.935   2.353   2.621 -0.8855  3.8060  2.4596
  266SOL     OW  796   1.305   1.767   3.077  0.5026  0.4124 -0.7057
  266SOL    HW1  797   1.325   1.841   3.150  0.0557 -1.5719 -1.7708
  266SOL    HW2  798   1.391   1.712   3.052 -1.4448 -1.8870 -2.7573
  267SOL     OW  799   1.028   0.027   2.346  0.8124  0.0269  0.2361
  267SOL    HW1  800   1.005  -0.041   2.269  0.8293 -0.6895 -0.4669
  267SOL    HW2  801   0.982   0.119   2.332 -3.0687  0.3692 -0.4185
  268SOL     OW  802   0.611   1.161   1.041  0.3103 -0.4327  0.3981
  268SOL    HW1  803   0.658   1.193   1.133 -1.6989  0.6597  0.1635
  268SOL    HW2  804   0.622   1.223   0.961 -2.0663 -0.8335 -2.1587
  269SOL     OW  805   2.311   2.571   1.608 -0.3695  0.0086 -0.1512
  269SOL    HW1  806   2.347   2.472   1.624 -0.1249  0.4872 -0.5595
  269SOL    HW2  807   2.260   2.613   1.689  0.1257 -1.9411 -0.2080
  270SOL     OW  808   0.174   2.944   1.994 -0.3140  0.4408 -0.6846
  270SOL    HW1  809   0.197   2.912   1.897  0.5676 -0.3836  1.5955
  270SOL    HW2  810   0.106   2.883   2.041  0.7999  1.1901 -0.8832
  271SOL     OW  811   0.414   1.414   1.193  0.2096 -0.4283  0.0271
  271SOL    HW1  812   0.367   1.400   1.099  1.0877  3.8866  1.2631
  271SOL    HW2  813   0.356   1.380   1.273  1.4599 -0.2602  0.5815
  272SOL     OW  814   2.024   2.913   1.938  0.8127  0.3445 -0.2080
  272SOL    HW1  815   1.944   2.861   1.882 -3.2167 -0.6651  0.9797
  272SOL    HW2  816   2.084   2.966   1.878  0.9591 -1.4983  0.4172
  273SOL     OW  817   1.478   1.437   2.737  0.1308  0.6062  0.1318
  273SOL    HW1  818   1.375   1.452   2.749 -1.4202 -0.1244  0.9690
  273SOL    HW2  819   1.523   1.412   2.826  1.8321 -1.1899 -0.1069
  274SOL     OW  820   1.182   0.498   2.058  0.3335  0.3921 -0.1742
  274SOL    HW1  821   1.137   0.408   2.030  1.7983 -0.1747 -1.8430
  274SOL    HW2  822   1.213   0.485   2.156 -0.4394 -1.8831  0.4028
  275SOL     OW  823   0.616   2.101   1.877 -0.0300 -0.0883 -0.2299
  275SOL    HW1  824   0.601   2.182   1.938  0.8629  0.9991  2.4480
  275SOL    HW2  825   0.540   2.032   1.884  0.9240 -0.8551  3.2454
  276SOL     OW  826   2.205   1.024   2.727  0.5153  0.6980  0.0739
  276SOL    HW1  827   2.106   1.037   2.691  0.7084  0.1798  3.1886
  276SOL    HW2  828   2.207   0.962   2.809  0.6922  1.3337  2.3652
  277SOL     OW  829  -0.005   0.815   0.222  0.3354 -0.3691  0.2606
  277SOL    HW1  830   0.085   0.856   0.186  0.6704  0.5680  0.8503
  277SOL    HW2  831   0.010   0.727   0.282  0.5377 -1.3260 -0.1499
  278SOL     OW  832   0.237   0.316   3.008 -0.1130  0.5595 -0.5573
  278SOL    HW1  833   0.304   0.235   2.997  1.9123 -1.0865 -1.8732
  278SOL    HW2  834   0.276   0.410   3.036 -2.7652 -0.4242  0.1024
  279SOL     OW  835   0.183   0.095   0.885  0.6322 -0.4364  0.3305
  279SOL    HW1  836   0.196   0.031   0.967 -0.3612 -2.2148  1.1473
  279SOL    HW2  837   0.195   0.048   0.794  2.2012 -0.1376  1.0699
  280SOL     OW  838   1.600   2.924   2.418 -0.3013  0.6625  0.5503
  280SOL    HW1  839   1.647   2.981   2.494 -0.8275  1.7255  0.4959
  280SOL    HW2  840   1.547   2.979   2.342  3.1658  0.6768 -0.1897
  281SOL     OW  841   0.564   0.944   2.252  0.3607 -0.0130  0.7057
  281SOL    HW1  842   0.564   0.858   2.188  0.1769 -0.6362 -2.2268
  281SOL    HW2  843   0.504   0.932   2.336  0.8678  0.9839 -0.0516
  282SOL     OW  844   1.779   2.504   0.512 -0.0878  0.0078 -0.1880
  282SOL    HW1  845   1.721   2.456   0.442  0.8945  0.6264  0.6890
  282SOL    HW2  846   1.730   2.578   0.559  0.6453 -0.9807 -0.9234
  283SOL     OW  847   1.230   0.929   0.832  0.2994  0.0678 -0.4386
  283SOL    HW1  848   1.226   0.867   0.915 -0.2025  3.8066  0.3406
  283SOL    HW2  849   1.171   1.012   0.840  2.1979 -1.8583  0.9215
  284SOL     OW  850   2.255   2.828   2.540 -0.5016  0.8515  0.4321
  284SOL    HW1  851   2.353   2.851   2.502 -2.1617  2.7643 -2.5905
  284SOL    HW2  852   2.225   2.876   2.623 -0.6020  0.0640 -0.8397
  285SOL     OW  853   1.335   3.033   2.569 -0.0981  0.2458  0.0766
  285SOL    HW1  854   1.352   3.021   2.463 -2.4842 -0.5493 -0.6696
  285SOL    HW2  855   1.236   3.049   2.589  2.6080 -0.7065 -0.3068
  286SOL     OW  856   0.440   0.424   0.717  0.0155  0.2667  0.1186
  286SOL    HW1  857   0.399   0.380   0.802 -2.4093 -0.2731 -1.4396
  286SOL    HW2  858   0.419   0.380   0.625 -0.2121 -0.4452 -2.8343
  287SOL     OW  859   0.095   1.274   2.498  0.0112 -0.4855 -0.3907
  287SOL    HW1  860   0.034   1.195   2.543  0.4550  0.3870  2.7566
  287SOL    HW2  861   0.091   1.365   2.536 -0.9939 -2.2178 -0.3200
  288SOL     OW  862   1.599   2.655   1.622 -0.3912 -0.3388 -0.5060
  288SOL    HW1  863   1.576   2.602   1.712 -0.3705 -0.9767 -0.6125
  288SOL    HW2  864   1.628   2.588   1.554  0.2128  3.0880  3.7993
  289SOL     OW  865   0.630   2.731   0.868  0.1439  0.4234 -0.5737
  289SOL    HW1  866   0.691   2.788   0.804 -2.1521  0.9211  0.2033
  289SOL    HW2  867   0.618   2.773   0.963 -2.8822 -0.0871  0.5453
  290SOL     OW  868   2.809   1.142   1.781 -0.4617  0.5416  0.2939
  290SOL    HW1  869   2.745   1.063   1.763  0.6998  1.4978  1.9379
  290SOL    HW2  870   2.900   1.103   1.823 -0.2621  0.1476 -1.2808
  291SOL     OW  871   2.001   0.011   0.014 -0.0172  0.1296  0.1902
  291SOL    HW1  872   2.007   0.063   0.101  2.1167  0.5721 -3.2523
  291SOL    HW2  873   2.060   0.055  -0.057  2.3875  1.5411  1.4987
  292SOL     OW  874   3.007   1.190   3.082  0.4548  0.2388 -0.5238
  292SOL    HW1  875   2.946   1.254   3.022  1.0455 -1.1123 -2.3499
  292SOL    HW2  876   3.093   1.156   3.027 -1.7364 -0.6269  0.6711
  293SOL     OW  877   0.546   2.127   0.262  0.4731  0.9190  0.5500
  293SOL    HW1  878   0.534   2.218   0.308 -0.1143 -3.3602 -0.6882
  293SOL    HW2  879   0.642   2.095   0.271 -0.1880 -0.0126  0.9923
  294SOL     OW  880   1.836   2.286   1.765  0.3343 -0.2522 -0.1891
  294SOL    HW1  881   1.858   2.332   1.855 -1.6607  3.8246  0.7943
  294SOL    HW2  882   1.767   2.335   1.708  0.4448 -1.9073  1.7901
  295SOL     OW  883   0.970   1.078   0.425 -0.0973 -0.4459  0.4891
  295SOL    HW1  884   1.057   1.044   0.460 -1.1770 -0.2289 -2.4728
  295SOL    HW2  885   0.897   1.072   0.501  3.3834 -0.4016  0.8036
  296SOL     OW  886   1.176   2.127   2.598  0.5159 -0.0490  0.3700
  296SOL    HW1  887   1.079   2.167   2.605  0.7446 -1.2062 -2.5295
  296SOL    HW2  888   1.170   2.043   2.543  1.2674 -0.5710  0.9803
  297SOL     OW  889   1.399   0.632   1.326 -0.1776  0.2202 -0.8091
  297SOL    HW1  890   1.402   0.559   1.402  1.2281 -1.0990  1.3625
  297SOL    HW2  891   1.487   0.682   1.310 -2.0446 -2.8004 -1.0433
  298SOL     OW  892   0.504   1.354   2.988 -0.4381  0.4846  0.3510
  298SOL    HW1  893   0.467   1.280   3.051  1.2260  2.2608 -1.8566
  298SOL    HW2  894   0.564   1.316   2.910  1.9129 -1.5726 -2.4346
  299SOL     OW  895   0.465   0.285   1.212 -0.1327  0.1225  0.0761
  299SOL    HW1  896   0.412   0.371   1.221  1.2380 -2.9698  1.2052
  299SOL    HW2  897   0.514   0.255   1.299  3.0854 -2.8427 -1.1358
  300SOL     OW  898   1.253   1.713   2.679  0.0676 -0.6501 -0.3918
  300SOL    HW1  899   1.234   1.613   2.692  1.6105 -2.4864  1.5920
  300SOL    HW2  900   1.352   1.736   2.699 -2.7809 -1.2833 -0.5412
  301SOL     OW  901   0.386   0.285   0.489 -0.6653 -0.0486 -0.0297
  301SOL    HW1  902   0.286   0.280   0.511  0.1427  0.3529 -1.9312
  301SOL    HW2  903   0.402   0.227   0.406 -0.8512  2.0269  2.0981
  302SOL     OW  904   1.275   2.416   2.368  0.0321  0.4874 -0.0980
  302SOL    HW1  905   1.190   2.451   2.413  2.3930  0.1152 -1.2619
  302SOL    HW2  906   1.343   2.370   2.433  1.9642 -2.1915  0.9688
  303SOL     OW  907   0.950   2.389   0.799 -0.0830  0.1048 -0.0866
  303SOL    HW1  908   0.992   2.444   0.719  2.2254  1.9418 -1.0631
  303SOL    HW2  909   0.995   2.413   0.890 -1.0745 -0.7840 -0.3203
  304SOL     OW  910   0.100   1.952   0.669  0.3961  0.1671  0.2154
  304SOL    HW1  911   0.172   1.961   0.599 -2.7618  2.1811  0.5390
  304SOL    HW2  912   0.006   1.982   0.636  1.6961 -0.2100 -0.4788
  305SOL     OW  913   1.598   0.830   0.652 -0.1731  0.1557  0.5131
  305SOL    HW1  914   1.555   0.826   0.556  3.9530 -0.5838 -0.3729
  305SOL    HW2  915   1.655   0.743   0.657  1.0501 -2.4724  2.0562
  306SOL     OW  916   0.431   1.883   1.888  0.7919 -0.2041  0.6618
  306SOL    HW1  917   0.508   1.816   1.869  1.8119  3.6375 -1.0181
  306SOL    HW2  918   0.420   1.904   1.990 -0.3215 -2.2555 -1.2395
  307SOL     OW  919   3.061   0.880   2.503  0.2952 -0.0881  0.3589
  307SOL    HW1  920   3.072   0.935   2.591  1.1031 -1.2833  1.1225
  307SOL    HW2  921   2.991   0.801   2.515  0.5000 -3.0179 -1.7503
  308SOL     OW  922   1.553   2.671   2.788  0.3826 -0.0390 -0.4299
  308SOL    HW1  923   1.557   2.615   2.696  0.9687  3.9490 -1.5603
  308SOL    HW2  924   1.486   2.634   2.857  1.8314 -0.2464  0.6277
  309SOL     OW  925   1.283   0.206   1.768 -0.5604 -0.0964  0.0691
  309SOL    HW1  926   1.362   0.143   1.802  0.7599  0.3903  0.1838
  309SOL    HW2  927   1.235   0.169   1.686 -2.8992  1.7664  1.2180
  310SOL     OW  928   1.530   2.571   0.691 -0.0814 -0.1181 -0.1914
  310SOL    HW1  929   1.481   2.590   0.780 -2.3673 -2.8377  0.8026
  310SOL    HW2  930   1.552   2.657   0.639 -2.1445 -2.9736  0.9531
  311SOL     OW  931   1.158   0.915   1.687 -0.1988 -0.3230  0.6452
  311SOL    HW1  932   1.135   0.846   1.758 -0.9508  0.1856 -0.5290
  311SOL    HW2  933   1.190   0.875   1.600 -1.0127 -0.6149 -0.2554
  312SOL     OW  934   1.573   0.739   1.143 -0.3886  0.4420  0.1922
  312SOL    HW1  935   1.596   0.839   1.131 -1.1465 -1.7327  0.0133
  312SOL    HW2  936   1.545   0.693   1.054  0.4041  0.4867  4.1536
  313SOL     OW  937   1.579   1.408   0.703  0.3845 -0.1265 -0.2898
  313SOL    HW1  938   1.505   1.467   0.752 -0.6889  2.5096  0.9602
  313SOL    HW2  939   1.549   1.320   0.666 -0.5605 -0.4610  4.1993
  314SOL     OW  940   2.968   0.046   3.033 -0.0054 -0.3861  0.8483
  314SOL    HW1  941   2.991   0.036   3.136  1.8851  0.0217  2.1258
  314SOL    HW2  942   2.872   0.008   3.006 -1.6922 -1.4569 -1.9016
  315SOL     OW  943   1.124   0.231   2.824 -0.3646  0.3792 -0.0388
  315SOL    HW1  944   1.116   0.149   2.760 -1.4432  0.4807  0.7592
  315SOL    HW2  945   1.132   0.201   2.920 -1.0387 -0.9685 -2.2372
  316SOL     OW  946   1.771   2.066   0.952  0.0274  0.2091 -0.0066
  316SOL    HW1  947   1.722   2.051   1.045 -2.7151 -1.3955  2.5176
  316SOL    HW2  948   1.731   2.147   0.904 -0.1005 -2.2999 -0.8968
  317SOL     OW  949   1.195   0.678   2.817  0.0896 -0.1408  0.5437
  317SOL    HW1  950   1.139   0.741   2.876  0.9254 -0.5562 -0.7370
  317SOL    HW2  951   1.138   0.600   2.782 -3.5393 -1.5194 -0.7887
  318SOL     OW  952   1.407   3.020   2.251  0.5595 -0.2291 -0.7874
  318SOL    HW1  953   1.376   3.119   2.254 -1.4141 -1.7297 -0.1774
  318SOL    HW2  954   1.394   2.983   2.155  1.3694 -0.1785  0.4133
  319SOL     OW  955   0.586   2.422   2.925 -0.0971  0.0863 -0.4608
  319SOL    HW1  956   0.553   2.367   3.009 -0.0812 -0.7015 -1.6324
  319SOL    HW2  957   0.676   2.384   2.880 -0.2861  0.2262 -1.5843
  320SOL     OW  958   1.676   2.249   0.405  0.6965 -0.4304  0.3747
  320SOL    HW1  959   1.765   2.195   0.415 -3.0069  1.1217  0.7025
  320SOL    HW2  960   1.597   2.194   0.446 -0.8671 -3.3064  0.0672
  321SOL     OW  961   1.669   2.779   0.574  0.5660  0.2635  0.0633
  321SOL    HW1  962   1.597   2.798   0.496 -2.8873 -1.2724 -2.5161
  321SOL    HW2  963   1.761   2.823   0.553  1.6175  0.4831 -0.4941
  322SOL     OW  964   2.585   1.134   2.330 -0.0087 -0.4135 -0.2192
  322SOL    HW1  965   2.645   1.170   2.407  0.6411 -1.3728 -2.9972
  322SOL    HW2  966   2.530   1.052   2.354  1.0206  1.1839 -0.6846
  323SOL     OW  967   1.190   2.692   0.873 -0.3922  0.4095 -0.2514
  323SOL    HW1  968   1.174   2.655   0.773 -1.5643 -1.1435 -0.4083
  323SOL    HW2  969   1.150   2.789   0.885 -4.3397  1.0023  0.8857
  324SOL     OW  970   0.267   2.440   2.492  0.1087  0.6629  0.2136
  324SOL    HW1  971   0.301   2.369   2.565 -3.1642  0.9577  2.9090
  324SOL    HW2  972   0.232   2.529   2.540 -0.2223  2.3111  1.2092
  325SOL     OW  973   1.266   3.058   0.451 -0.2644 -0.3446 -0.2692
  325SOL    HW1  974   1.313   3.089   0.360  0.7348 -0.8899 -0.0364
  325SOL    HW2  975   1.296   3.115   0.538  0.8436  0.2083  0.9584
  326SOL     OW  976   2.446   0.783   0.009 -0.1252 -0.2148 -0.6547
  326SOL    HW1  977   2.375   0.725  -0.045 -2.8990  0.1482  1.6032
  326SOL    HW2  978   2.517   0.723   0.061  2.7239  1.6456  2.5046
  327SOL     OW  979   2.820   0.306   0.625 -0.3418  0.2183 -0.6143
  327SOL    HW1  980   2.830   0.256   0.531  0.7811 -0.1612 -0.5252
  327SOL    HW2  981   2.858   0.235   0.691  1.7631 -1.6574  1.4986
  328SOL     OW  982   2.593   0.573   0.399  0.0389  0.4374  0.0211
  328SOL    HW1  983   2.541   0.664   0.416 -0.8926  0.9196  0.5679
  328SOL    HW2  984   2.562   0.497   0.460 -2.8495 -1.4489 -0.2607
  329SOL     OW  985   2.949   2.953   2.164 -0.8341 -0.2294 -0.2156
  329SOL    HW1  986   3.029   2.922   2.221 -0.8998 -2.6272 -0.1618
  329SOL    HW2  987   2.939   3.054   2.153  1.6557  0.4628  1.8222
  330SOL     OW  988   0.531   0.218   1.891  0.6629 -0.2060 -0.2536
  330SOL    HW1  989   0.611   0.202   1.831 -2.8900  1.6821 -0.4532
  330SOL    HW2  990   0.511   0.151   1.964  0.7524  0.7174 -3.8869
  331SOL     OW  991   2.993   1.960   1.103  0.4110  0.1905  0.2994
  331SOL    HW1  992   3.012   2.057   1.075 -2.2973 -0.4498 -2.2215
  331SOL    HW2  993   2.928   1.945   1.187 -2.0646  0.2962 -0.9857
  332SOL     OW  994   0.407   1.182   0.078  0.0695  0.7268  0.5202
  332SOL    HW1  995   0.347   1.095   0.052  0.7701 -1.9649 -3.9035
  332SOL    HW2  996   0.389   1.213   0.176 -2.5408  0.3764 -0.6015
  333SOL     OW  997   2.914   1.048   0.250  0.5629 -0.0515 -0.3095
  333SOL    HW1  998   2.964   1.120   0.309  1.9873 -2.9478  0.3096
  333SOL    HW2  999   2.978   0.965   0.225 -0.4491  0.4974 -3.0095
  334SOL     OW 1000   1.722   1.279   1.824 -0.3992  0.1178  0.1937
  334SOL    HW1 1001   1.796   1.282   1.754 -0.5143 -1.1661 -0.6097
  334SOL    HW2 1002   1.747   1.296   1.922 -1.0211  1.0857 -0.0607
  335SOL     OW 1003   2.003   2.710   2.589  0.1232  0.3071 -0.2764
  335SOL    HW1 1004   1.940   2.719   2.671  2.8470 -1.7568 -0.5682
  335SOL    HW2 1005   2.095   2.750   2.611 -2.1162  0.4398 -0.9789
  336SOL     OW 1006   0.239   0.090   2.712  0.1477 -0.1213  0.0326
  336SOL    HW1 1007   0.313   0.069   2.782  2.5170 -0.4202 -0.3695
  336SOL    HW2 1008   0.151   0.050   2.746  0.8217  0.1021 -0.9808
  337SOL     OW 1009   1.016   2.875   2.857 -0.2133 -0.2012  0.2972
  337SOL    HW1 1010   0.927   2.867   2.916 -0.8442 -1.9351  0.4147
  337SOL    HW2 1011   1.095   2.923   2.909  2.8044 -1.1631  1.0706
  338SOL     OW 1012   0.065   1.018   0.659  0.7113 -0.1219  0.5407
  338SOL    HW1 1013  -0.037   0.997   0.675 -1.5792  0.4966 -1.1000
  338SOL    HW2 1014   0.089   1.118   0.648 -0.5031 -0.3166 -1.6576
  339SOL     OW 1015   1.710   1.321   2.092  0.3537 -0.5244  0.3904
  339SOL    HW1 1016   1.617   1.320   2.127  1.3258  2.1869 -2.3622
  339SOL    HW2 1017   1.736   1.419   2.104 -3.1756 -0.0055 -2.8507
  340SOL     OW 1018   2.295   0.789   1.147 -0.2311 -0.4625  0.3624
  340SOL    HW1 1019   2.189   0.796   1.133 -1.8376 -2.2910  1.2116
  340SOL    HW2 1020   2.341   0.713   1.094  1.6248  2.5215  1.5645
  341SOL     OW 1021   1.913   2.094   0.288  0.2624 -0.1584  0.0755
  341SOL    HW1 1022   1.940   2.156   0.210 -1.3455 -0.1315  0.8874
  341SOL    HW2 1023   1.986   2.085   0.358  1.5307 -0.1249 -1.3629
  342SOL     OW 1024   2.198   2.114   2.796 -0.3228  0.2916 -0.3233
  342SOL    HW1 1025   2.216   2.025   2.849 -0.9721 -0.8972  1.5762
  342SOL    HW2 1026   2.098   2.108   2.757 -2.1639  2.8908  3.7495
  343SOL     OW 1027   0.370   0.830   2.769 -0.0091  0.0130  0.7357
  343SOL    HW1 1028   0.418   0.832   2.678 -3.9452 -2.4755  1.5879
  343SOL    HW2 1029   0.432   0.858   2.849  1.1297 -2.2455  2.1936
  344SOL     OW 1030   1.944   1.468   0.434 -0.1877 -0.0023 -0.1188
  344SOL    HW1 1031   1.934   1.375   0.389 -3.0347  0.1283  0.2945
  344SOL    HW2 1032   1.849   1.506   0.451 -0.3972 -0.0074 -0.3341
  345SOL     OW 1033   1.412   2.255   2.909  0.2206  0.1149 -0.5551
  345SOL    HW1 1034   1.317   2.249   2.871  1.2276 -0.8790  0.3111
  345SOL    HW2 1035   1.479   2.183   2.871 -1.3284 -0.2390 -1.4909
  346SOL     OW 1036   2.347   0.890   1.398  0.2823 -0.2849  0.0832
  346SOL    HW1 1037   2.318   0.987   1.412 -0.2100 -0.8143 -2.7338
  346SOL    HW2 1038   2.301   0.851   1.310 -0.6056 -2.5244 -1.1970
  347SOL     OW 1039   0.745   2.727   1.608  0.0872 -0.1054  0.3662
  347SOL    HW1 1040   0.698   2.706   1.702  0.2399 -0.2175 -0.0856
  347SOL    HW2 1041   0.708   2.814   1.568  3.1882  1.9754 -0.8590
  348SOL     OW 1042   0.172   0.709   2.921  0.1126  0.1876  0.0319
  348SOL    HW1 1043   0.069   0.710   2.880 -0.9999  2.2534 -1.1166
  348SOL    HW2 1044   0.240   0.758   2.856  1.0881  1.6541  0.1435
  349SOL     OW 1045   1.867   0.449   2.793  0.4311 -0.6426 -0.7146
  349SOL    HW1 1046   1.853   0.526   2.725  0.6389  1.3099  0.6469
  349SOL    HW2 1047   1.848   0.474   2.895  0.4478 -4.0882  3.5692
  350SOL     OW 1048   1.652   0.428   0.389 -0.2204 -0.2228  0.0151
  350SOL    HW1 1049   1.715   0.438   0.468 -1.0963 -0.9844 -1.4556
  350SOL    HW2 1050   1.634   0.516   0.340  0.5745 -0.3351  0.8540
  351SOL     OW 1051   0.980   0.801   2.125  0.2039  0.1683 -0.6696
  351SOL    HW1 1052   1.042   0.884   2.146 -0.1880  2.4138 -2.3411
  351SOL    HW2 1053   0.988   0.758   2.033  0.3012 -0.8960  1.3905
  352SOL     OW 1054   2.036   1.332   0.650  0.4316  0.6081  0.3137
  352SOL    HW1 1055   2.012   1.391   0.567  2.5361  3.2782 -1.9493
  352SOL    HW2 1056   1.966   1.325   0.722  2.6043 -3.4738  0.2621
  353SOL     OW 1057   2.145   2.786   1.104 -0.4706  0.6874  0.3363
  353SOL    HW1 1058   2.220   2.760   1.167  2.4179  0.8837 -1.3742
  353SOL    HW2 1059   2.069   2.717   1.087 -1.0535  0.1269 -3.4829
  354SOL     OW 1060   0.244   1.364   2.879 -0.5754  0.2157 -0.3689
  354SOL    HW1 1061   0.248   1.443   2.810  1.5111 -0.6795 -0.4267
  354SOL    HW2 1062   0.340   1.347   2.916 -2.1282  2.6369 -2.7459
  355SOL     OW 1063   0.702   1.595   0.584  0.5075  0.0995 -0.5884
  355SOL    HW1 1064   0.692   1.550   0.678 -2.6032 -0.4644  0.3240
  355SOL    HW2 1065   0.728   1.532   0.508  0.3327  0.3619 -1.0146
  356SOL     OW 1066   0.807   0.339   2.042 -0.4821 -0.2271 -0.0910
  356SOL    HW1 1067   0.900   0.317   2.015 -0.2056 -0.5662  0.1388
  356SOL    HW2 1068   0.746   0.351   1.965  2.7192  1.1006  1.8127
  357SOL     OW 1069   1.026   1.326   0.313 -0.0416 -0.2531 -0.4218
  357SOL    HW1 1070   1.126   1.328   0.286 -0.2105 -1.6803  3.7116
  357SOL    HW2 1071   0.996   1.231   0.342  0.5853  1.9582 -2.4847
  358SOL     OW 1072   1.672   1.546   0.483 -0.4996  0.0438 -0.2965
  358SOL    HW1 1073   1.630   1.501   0.572 -0.2165  0.6563  0.4815
  358SOL    HW2 1074   1.602   1.560   0.404  0.4974 -2.2312  0.0986
  359SOL     OW 1075   1.571   2.642   0.213  0.0194 -0.2890 -0.0410
  359SOL    HW1 1076   1.551   2.550   0.162  0.0637 -0.8736  3.0246
  359SOL    HW2 1077   1.492   2.669   0.271 -1.1639 -1.1223  0.7821
  360SOL     OW 1078   0.787   0.584   0.525 -0.0867 -0.1531  0.1073
  360SOL    HW1 1079   0.683   0.581   0.501 -0.6750  0.9587 -0.8959
  360SOL    HW2 1080   0.827   0.487   0.544  1.4464 -3.5760  1.0426
  361SOL     OW 1081   1.247   1.301   0.668  0.3496  0.3126 -0.1731
  361SOL    HW1 1082   1.300   1.356   0.743 -0.0051 -0.8386  1.3725
  361SOL    HW2 1083   1.144   1.313   0.685 -0.8618  0.6615 -1.7113
  362SOL     OW 1084   1.384   1.816   0.824 -0.1579 -0.4572 -0.3268
  362SOL    HW1 1085   1.433   1.753   0.890 -1.0665 -2.1397  0.0912
  362SOL    HW2 1086   1.447   1.875   0.766  0.1861  0.0016 -1.0389
  363SOL     OW 1087   1.226   1.328   2.050  0.3591  0.4101  0.0864
  363SOL    HW1 1088   1.314   1.375   2.079  1.0865  1.2764  0.4646
  363SOL    HW2 1089   1.195   1.383   1.968 -1.2439  0.5382 -0.6741
  364SOL     OW 1090   0.531   2.326   1.980  0.1013 -0.0504  0.1520
  364SOL    HW1 1091   0.429   2.356   1.979 -0.9125 -0.6279  1.8405
  364SOL    HW2 1092   0.588   2.362   1.900 -3.3518  0.0575 -1.3128
  365SOL     OW 1093   0.983   1.969   1.340 -0.3707  0.2445 -0.2500
  365SOL    HW1 1094   0.886   1.980   1.379 -0.5698 -0.9926  1.5412
  365SOL    HW2 1095   0.998   1.993   1.238 -0.0572  2.7879 -1.6841
  366SOL     OW 1096   2.829   1.956   0.389  0.2462 -0.2781 -0.4488
  366SOL    HW1 1097   2.739   1.915   0.430 -4.1169 -0.5513 -0.4520
  366SOL    HW2 1098   2.880   1.883   0.335  0.4622 -2.1232  1.3821
  367SOL     OW 1099   0.882   1.138   3.095 -0.1954  0.5332 -0.6845
  367SOL    HW1 1100   0.915   1.050   3.146  2.0069  0.1638  0.2472
  367SOL    HW2 1101   0.963   1.203   3.086 -0.7495 -1.1397 -1.5111
  368SOL     OW 1102   1.442   0.562   0.670  0.0996 -1.1794 -0.2192
  368SOL    HW1 1103   1.393   0.598   0.584  2.5033  4.5646 -1.5971
  368SOL    HW2 1104   1.544   0.588   0.667  0.8670  2.2201 -3.0896
  369SOL     OW 1105   0.362   1.681   0.099  0.1570  0.0004  0.8579
  369SOL    HW1 1106   0.397   1.747   0.167  1.2037 -2.7818 -0.7121
  369SOL    HW2 1107   0.278   1.632   0.132 -1.3428  0.8861 -1.4104
  370SOL     OW 1108   0.421   2.036   1.019  0.1841 -0.3325  0.5698
  370SOL    HW1 1109   0.448   2.136   1.020 -1.3926 -0.0319  0.4147
  370SOL    HW2 1110   0.319   2.028   1.000 -3.2671 -1.4647  1.5790
  371SOL     OW 1111   2.916   2.210   2.643 -0.5250 -0.0828  0.0808
  371SOL    HW1 1112   2.851   2.149   2.704 -0.9836 -1.0309  4.2659
  371SOL    HW2 1113   3.011   2.218   2.687  1.2781  1.3934 -0.3790
  372SOL     OW 1114   1.043   2.014   1.052 -0.4120 -0.1065  0.1220
  372SOL    HW1 1115   0.970   2.052   0.991  0.9108 -0.3533  0.2143
  372SOL    HW2 1116   1.129   2.069   1.054 -0.1100 -1.3349 -1.2358
  373SOL     OW 1117   1.998   1.961   0.842 -0.5089 -0.1665  0.0548
  373SOL    HW1 1118   2.066   1.953   0.921  0.6084 -0.0657 -2.5519
  373SOL    HW2 1119   1.912   2.001   0.885  0.4223 -1.3013 -1.5836
  374SOL     OW 1120   1.867   0.400   0.572 -0.3196 -0.1411 -0.2794
  374SOL    HW1 1121   1.846   0.314   0.625  0.3598  1.9063  0.8462
  374SOL    HW2 1122   1.962   0.415   0.555  1.1454 -1.9608  0.1793
  375SOL     OW 1123   2.389   2.145   1.078  0.1128  0.2699 -0.5819
  375SOL    HW1 1124   2.438   2.179   0.994  1.6232 -0.2262 -1.3844
  375SOL    HW2 1125   2.455   2.117   1.153  0.1862 -1.2185  0.5180
  376SOL     OW 1126   3.063   0.571   1.491 -0.7880 -0.1445  0.3541
  376SOL    HW1 1127   3.090   0.641   1.563 -2.0294 -0.2812  0.5922
  376SOL    HW2 1128   3.006   0.497   1.532  1.8932  1.7630  0.7709
  377SOL     OW 1129   2.181   2.922   0.281 -0.8779  0.0907  0.0529
  377SOL    HW1 1130   2.178   3.029   0.280  0.4715 -0.1277 -0.4844
  377SOL    HW2 1131   2.273   2.884   0.312 -1.6915 -2.0447 -2.0604
  378SOL     OW 1132   1.801   1.858   2.622 -0.8582  0.3323 -0.2408
  378SOL    HW1 1133   1.847   1.821   2.710  1.1940  0.7932 -1.4425
  378SOL    HW2 1134   1.834   1.813   2.535 -0.1771 -3.8775  1.9475
  379SOL     OW 1135   0.700   0.105   2.883 -0.1101 -0.1882  0.0180
  379SOL    HW1 1136   0.686   0.014   2.827  2.9708 -2.4768 -1.5613
  379SOL    HW2 1137   0.720   0.189   2.826  0.3749  0.2132  2.1159
  380SOL     OW 1138   1.515   1.140   0.619  0.3283 -0.1139  0.0663
  380SOL    HW1 1139   1.420   1.179   0.599 -0.9716  2.1198  1.2304
  380SOL    HW2 1140   1.513   1.039   0.648  2.2682  0.9946  0.2514
  381SOL     OW 1141   1.339   1.181   1.525 -0.2976  0.1785 -0.0286
  381SOL    HW1 1142   1.400   1.160   1.444  0.1605  2.1049  0.2595
  381SOL    HW2 1143   1.344   1.108   1.600 -1.6062 -1.1225  1.5607
  382SOL     OW 1144   1.774   0.862   0.177  0.0460  0.0992 -0.1181
  382SOL    HW1 1145   1.811   0.845   0.082  1.6713  0.9220  0.1396
  382SOL    HW2 1146   1.850   0.876   0.244 -0.4847 -0.6019 -0.4908
  383SOL     OW 1147   2.598   1.029   1.459 -0.3738 -0.0789 -0.2606
  383SOL    HW1 1148   2.513   0.976   1.444  1.5377  1.8381 -0.0568
  383SOL    HW2 1149   2.670   1.020   1.379 -1.0289 -1.9993  1.1676
  384SOL     OW 1150   0.984   2.273   0.120  0.2609 -0.4512 -0.2757
  384SOL    HW1 1151   0.944   2.363   0.144  0.9304 -1.4803  1.2390
  384SOL    HW2 1152   0.987   2.212   0.201  0.9923 -0.4710 -0.4300
  385SOL     OW 1153   3.026   2.057   1.644 -0.3709  0.1178  0.0029
  385SOL    HW1 1154   3.116   2.116   1.634 -1.2335  0.7224  0.4431
  385SOL    HW2 1155   3.053   1.957   1.626 -0.5240 -0.3566  1.9984
  386SOL     OW 1156   0.483   1.085   0.416  0.1899 -0.5853  0.3198
  386SOL    HW1 1157   0.494   0.988   0.451 -1.1232 -0.8153  0.3441
  386SOL    HW2 1158   0.383   1.113   0.392 -2.3913 -0.8631  0.4544
  387SOL     OW 1159   0.967   0.292   1.662  0.1610 -0.2363  0.6912
  387SOL    HW1 1160   1.040   0.367   1.679  1.9477 -0.0446  0.6001
  387SOL    HW2 1161   0.947   0.276   1.562 -0.0753  2.5036  1.3707
  388SOL     OW 1162   1.199   2.688   1.731 -0.0820  0.4941  0.3182
  388SOL    HW1 1163   1.191   2.682   1.626  2.3699 -1.9556 -0.0540
  388SOL    HW2 1164   1.248   2.606   1.771 -0.9121 -1.1704 -0.7409
  389SOL     OW 1165   0.197   2.994   1.114  0.3206  1.0096  0.6271
  389SOL    HW1 1166   0.109   2.999   1.171  1.6820 -0.4192  2.8326
  389SOL    HW2 1167   0.244   2.904   1.102 -1.2609  4.1826 -0.0363
  390SOL     OW 1168   1.014   0.954   1.353  0.0330  0.9310 -0.2388
  390SOL    HW1 1169   1.114   0.926   1.374 -1.0764  0.4918 -0.1339
  390SOL    HW2 1170   0.979   1.030   1.410 -1.2492 -0.4850 -0.8948
  391SOL     OW 1171   2.145   1.085   1.077  0.0288 -0.2188  0.1268
  391SOL    HW1 1172   2.064   1.018   1.095  1.4603  0.9127  2.0293
  391SOL    HW2 1173   2.190   1.074   0.983 -1.6394  2.4989 -1.7918
  392SOL     OW 1174   0.859   2.753   0.004 -0.2582 -0.1404  0.1119
  392SOL    HW1 1175   0.892   2.657  -0.006  0.1018  0.9518 -1.8113
  392SOL    HW2 1176   0.935   2.820   0.046 -0.8871  0.4415  0.7470
  393SOL     OW 1177   0.341   0.528   2.008  0.7283 -0.2362  0.2545
  393SOL    HW1 1178   0.286   0.448   1.962  1.9511  1.0849 -0.8095
  393SOL    HW2 1179   0.420   0.542   1.944  0.6230  0.3153 -2.7434
  394SOL     OW 1180   3.070   1.827   2.813 -0.1351  0.2971 -0.3194
  394SOL    HW1 1181   3.156   1.780   2.852  0.4802 -1.7025  1.1434
  394SOL    HW2 1182   3.087   1.922   2.783 -0.5293 -0.4205  0.1823
  395SOL     OW 1183   1.624   1.946   0.683  0.4586  0.6215 -0.1463
  395SOL    HW1 1184   1.674   1.897   0.607  0.5798  1.4563 -0.5231
  395SOL    HW2 1185   1.681   1.993   0.752 -0.9100 -0.2105  1.1657
  396SOL     OW 1186   2.842   1.873   1.297  0.5549 -0.4091 -0.2230
  396SOL    HW1 1187   2.782   1.793   1.262 -0.8016  2.5356 -4.4315
  396SOL    HW2 1188   2.799   1.924   1.376 -1.1496  2.7047  2.6798
  397SOL     OW 1189   1.042   2.247   0.505 -0.0533 -0.0699 -0.1766
  397SOL    HW1 1190   0.967   2.180   0.542  0.8817 -1.5475  0.8297
  397SOL    HW2 1191   1.037   2.338   0.547 -0.9449  0.2765  1.3070
  398SOL     OW 1192   2.133   3.046   1.012  0.5737 -0.4234 -0.5278
  398SOL    HW1 1193   2.132   2.945   1.039 -2.1343  1.2465 -0.8586
  398SOL    HW2 1194   2.084   3.105   1.083 -0.5077  3.9425  1.2850
  399SOL     OW 1195   3.022   2.520   2.542  0.6480 -0.6381 -0.5040
  399SOL    HW1 1196   2.923   2.519   2.512 -0.5065  0.3892 -4.2117
  399SOL    HW2 1197   3.058   2.430   2.559 -1.7230  2.1625  2.3244
  400SOL     OW 1198   0.776   1.625   1.338 -0.2271 -0.2170  0.1966
  400SOL    HW1 1199   0.746   1.636   1.440 -1.0783  0.7631  1.7630
  400SOL    HW2 1200   0.715   1.668   1.269  3.4108 -0.0416 -0.9887
  401SOL     OW 1201   1.795   0.083   1.364 -0.2756  0.3401 -0.5520
  401SOL    HW1 1202   1.865   0.125   1.430  1.1906  1.5931  0.4131
  401SOL    HW2 1203   1.699   0.115   1.381 -0.9301 -0.3601 -3.3961
  402SOL     OW 1204   1.321   0.141   3.041  0.1355  0.4729  0.5429
  402SOL    HW1 1205   1.421   0.124   3.025  1.0288 -1.0863  0.9959
  402SOL    HW2 1206   1.288   0.241   3.048 -2.0032 -2.5351 -0.1742
  403SOL     OW 1207   2.318   1.783   0.880  0.1985 -0.4350 -0.3450
  403SOL    HW1 1208   2.413   1.774   0.926 -0.8252 -1.0029  1.4697
  403SOL    HW2 1209   2.265   1.848   0.942  0.5463  0.7252  1.7965
  404SOL     OW 1210   0.187   2.507   2.812  0.1611  0.3586 -0.2777
  404SOL    HW1 1211   0.282   2.470   2.813 -1.6203  2.3533  0.7179
  404SOL    HW2 1212   0.170   2.609   2.823 -0.6496  1.4263 -0.4750
  405SOL     OW 1213   0.166   2.403   0.661 -0.0088 -0.0370  0.1710
  405SOL    HW1 1214   0.106   2.365   0.586 -0.0804  4.2610 -0.1629
  405SOL    HW2 1215   0.211   2.497   0.647  3.6851  1.3662  3.3118
  406SOL     OW 1216   0.003   1.486   3.022  0.4471  0.1777  0.2567
  406SOL    HW1 1217   0.067   1.409   3.015 -1.8575  1.8154  3.3344
  406SOL    HW2 1218   0.056   1.577   3.021  4.9702  1.4564 -0.8903
  407SOL     OW 1219   1.577   0.962   0.891  0.3319 -0.3284 -0.4510
  407SOL    HW1 1220   1.581   0.913   0.800 -0.8346 -1.1471 -0.4921
  407SOL    HW2 1221   1.492   1.029   0.906 -3.0557  2.2379  0.8672
  408SOL     OW 1222   1.578   2.322   0.938 -0.4735  0.2141  0.2560
  408SOL    HW1 1223   1.642   2.308   0.854  2.1943  0.3491 -0.9655
  408SOL    HW2 1224   1.546   2.418   0.943 -0.3907 -1.3525  0.4684
  409SOL     OW 1225   0.656   0.844   0.680 -0.6329 -0.0651 -0.2329
  409SOL    HW1 1226   0.592   0.841   0.595 -0.9307 -1.1371 -1.4336
  409SOL    HW2 1227   0.653   0.752   0.722 -2.0687  2.7086 -1.8223
  410SOL     OW 1228   1.258   2.052   1.439  0.1204  0.0507 -0.5429
  410SOL    HW1 1229   1.311   1.986   1.495  2.1131 -1.2781 -2.5842
  410SOL    HW2 1230   1.172   2.015   1.400  3.2364  3.2313  2.2201
  411SOL     OW 1231   2.506   1.856   3.105  0.2908 -0.0080 -0.6074
  411SOL    HW1 1232   2.425   1.884   3.042  0.6458  1.1597 -1.4191
  411SOL    HW2 1233   2.587   1.819   3.051 -0.7039 -0.8858  0.4537
  412SOL     OW 1234   1.463   2.519   2.191  0.0794 -1.0067  0.0889
  412SOL    HW1 1235   1.475   2.621   2.214  0.9118 -0.0918  2.2209
  412SOL    HW2 1236   1.399   2.472   2.258 -0.1829 -2.4961 -0.2719
  413SOL     OW 1237   3.079   0.281   2.963 -0.2142  0.6002  0.1469
  413SOL    HW1 1238   3.041   0.194   3.004  2.7503 -0.8205 -1.2817
  413SOL    HW2 1239   3.180   0.280   2.981  1.2229 -2.2063 -2.2843
  414SOL     OW 1240   1.826   1.481   1.235 -0.0664  0.7271  0.4742
  414SOL    HW1 1241   1.766   1.542   1.284 -0.1003 -0.5419 -2.5397
  414SOL    HW2 1242   1.772   1.411   1.182 -1.4061  0.9196 -2.4444
  415SOL     OW 1243   0.316   2.168   0.734  0.3723 -0.2766 -0.1112
  415SOL    HW1 1244   0.262   2.253   0.702  0.3430  1.9272 -1.0478
  415SOL    HW2 1245   0.298   2.146   0.834  1.3149  0.3452 -2.3721
  416SOL     OW 1246   0.333   1.005   1.035 -0.0414 -0.0929  0.3192
  416SOL    HW1 1247   0.310   0.983   0.936  1.0867 -1.2886 -0.9418
  416SOL    HW2 1248   0.398   1.087   1.053 -0.7830  1.9246  1.9777
  417SOL     OW 1249   2.164   2.287   1.927  0.3272  0.1760 -0.0399
  417SOL    HW1 1250   2.238   2.231   1.974  2.3355  0.4623 -1.3487
  417SOL    HW2 1251   2.100   2.223   1.882  0.5863 -1.2690  1.3278
  418SOL     OW 1252   1.126   0.508   1.336 -0.0955  0.0762  0.3763
  418SOL    HW1 1253   1.060   0.490   1.257 -2.0336  2.2798  0.4740
  418SOL    HW2 1254   1.216   0.527   1.302 -1.2853 -1.1477 -2.1073
  419SOL     OW 1255   0.929   0.407   3.002 -0.1685  0.5704 -0.3184
  419SOL    HW1 1256   0.915   0.391   2.901 -0.5103 -1.1134  1.6312
  419SOL    HW2 1257   0.950   0.507   3.033  0.6896  0.3786  0.6256
  420SOL     OW 1258   0.074   2.259   0.433 -0.5710 -0.2742  0.1643
  420SOL    HW1 1259   0.079   2.229   0.333 -0.8337 -3.1922  0.5662
  420SOL    HW2 1260   0.006   2.202   0.488  1.0910 -0.6400  0.3395
  421SOL     OW 1261   0.371   2.967   0.695  0.5726  0.5910 -0.4165
  421SOL    HW1 1262   0.371   2.933   0.795 -0.0601  2.9014 -0.1042
  421SOL    HW2 1263   0.459   3.026   0.682  1.1709  3.4234  0.4315
  422SOL     OW 1264   1.035   2.519   1.024  0.3774 -0.3245  0.4921
  422SOL    HW1 1265   1.119   2.568   0.982  1.0984 -3.0110 -4.3289
  422SOL    HW2 1266   1.023   2.533   1.127 -0.1777 -0.7595 -1.2816
  423SOL     OW 1267   0.081   0.673   1.256 -0.2025 -0.2674 -0.2080
  423SOL    HW1 1268   0.035   0.664   1.346 -0.7070 -0.2670 -1.0250
  423SOL    HW2 1269   0.073   0.762   1.216  1.7292  0.1987  1.4139
  424SOL     OW 1270   1.019   2.221   2.031 -0.1204 -0.0976 -0.7642
  424SOL    HW1 1271   0.995   2.316   2.002 -1.9190 -0.3770 -0.1964
  424SOL    HW2 1272   0.995   2.194   2.130 -3.7132  0.1395 -0.3377
  425SOL     OW 1273   1.991   1.381   0.976  0.3404 -0.3904 -0.0313
  425SOL    HW1 1274   2.018   1.295   1.026  0.0955 -2.7201  0.2235
  425SOL    HW2 1275   2.063   1.432   0.925 -0.0452  0.3117  1.8015
  426SOL     OW 1276   1.544   1.605   1.377 -0.3583  0.4727 -0.0320
  426SOL    HW1 1277   1.515   1.691   1.328 -1.6515  2.8654 -0.0518
  426SOL    HW2 1278   1.483   1.579   1.459  1.8283 -0.5215  0.3882
  427SOL     OW 1279   1.877   2.373   2.046  0.4764  0.4943 -0.0703
  427SOL    HW1 1280   1.936   2.315   2.103 -0.2643  1.7891  0.8239
  427SOL    HW2 1281   1.906   2.474   2.040 -1.1980 -0.4015  1.0230
  428SOL     OW 1282   0.869   2.980   0.196  0.9278  0.1455  0.1326
  428SOL    HW1 1283   0.870   3.084   0.178 -2.5924  2.1957  0.9543
  428SOL    HW2 1284   0.962   2.936   0.186  2.3277 -0.0502  0.8790
  429SOL     OW 1285   1.332   0.071   0.207  0.2497 -0.5010  0.0894
  429SOL    HW1 1286   1.424   0.111   0.242  2.3689  0.7457 -0.7017
  429SOL    HW2 1287   1.324   0.086   0.104 -0.4713  1.8068  0.0284
  430SOL     OW 1288   2.828   1.406   0.339 -0.3253 -0.0199 -0.5597
  430SOL    HW1 1289   2.860   1.478   0.272  0.9505 -1.3743 -4.3589
  430SOL    HW2 1290   2.834   1.442   0.438  3.1256 -1.0238 -1.6663
  431SOL     OW 1291   2.145   1.575   0.849 -0.4869  0.0765  0.3024
  431SOL    HW1 1292   2.214   1.649   0.866 -2.6134  0.6678  0.2605
  431SOL    HW2 1293   2.085   1.595   0.768  2.8969 -0.3870  0.8271
  432SOL     OW 1294   2.895   2.248   1.212 -0.4470  0.0973  0.5662
  432SOL    HW1 1295   2.819   2.182   1.193 -1.2331 -2.2317  1.4296
  432SOL    HW2 1296   2.914   2.275   1.311 -1.2235 -0.8359  1.8594
  433SOL     OW 1297   1.954   0.400   0.863 -0.2460 -0.1111 -0.2530
  433SOL    HW1 1298   1.871   0.352   0.901  1.9316  0.0823 -0.1306
  433SOL    HW2 1299   2.008   0.452   0.939  1.8281 -1.9018  1.5428
  434SOL     OW 1300   1.523   0.286   0.752 -0.5061  0.5430 -0.6636
  434SOL    HW1 1301   1.468   0.373   0.732 -2.9977 -0.7744 -2.2069
  434SOL    HW2 1302   1.602   0.295   0.827 -0.6218 -1.0790 -1.3348
  435SOL     OW 1303   1.443   1.456   2.150  0.0630 -0.0474 -0.7084
  435SOL    HW1 1304   1.415   1.471   2.252  3.8585  1.3055 -0.3963
  435SOL    HW2 1305   1.479   1.536   2.098  3.8955  2.1030  0.1233
  436SOL     OW 1306   1.675   2.744   2.206  0.0398  0.1098 -0.0493
  436SOL    HW1 1307   1.648   2.800   2.285 -1.0103 -1.1108 -1.6682
  436SOL    HW2 1308   1.700   2.644   2.230  1.9178  0.5677 -3.0071
  437SOL     OW 1309   1.047   2.915   0.930 -0.0733 -0.3772  0.2919
  437SOL    HW1 1310   1.000   2.998   0.883  1.2184  1.8721 -2.1980
  437SOL    HW2 1311   1.021   2.884   1.028  0.9297  0.8183  1.9008
  438SOL     OW 1312   1.031   2.567   1.286 -0.3388  0.0147 -0.5102
  438SOL    HW1 1313   1.085   2.607   1.367  0.2545  0.7969 -3.3804
  438SOL    HW2 1314   1.037   2.462   1.288  0.1582 -1.2495 -0.4765
  439SOL     OW 1315   0.683   1.716   1.065 -0.3361  0.6063  0.2869
  439SOL    HW1 1316   0.712   1.811   1.037  0.8192 -0.8247 -0.5953
  439SOL    HW2 1317   0.579   1.712   1.084  0.0649  0.1870 -0.1615
  440SOL     OW 1318   0.982   2.489   1.971 -0.2005 -0.3997  0.1773
  440SOL    HW1 1319   0.939   2.500   1.880  0.8408  0.1688  0.8962
  440SOL    HW2 1320   1.085   2.523   1.974  1.4171 -0.7676 -1.7867
  441SOL     OW 1321   0.457   2.726   1.372  0.7142 -0.2593  0.4726
  441SOL    HW1 1322   0.502   2.644   1.413  2.7340  1.2766 -1.8357
  441SOL    HW2 1323   0.386   2.702   1.296 -1.4521 -3.1545 -1.7823
  442SOL     OW 1324   2.354   0.649   2.434 -0.0241  0.0044 -0.3320
  442SOL    HW1 1325   2.343   0.546   2.438 -0.9508 -1.1286  0.4888
  442SOL    HW2 1326   2.261   0.690   2.459  0.8539 -0.9852 -1.2759
  443SOL     OW 1327   1.243   2.733   2.164 -0.0190  0.1455 -0.4613
  443SOL    HW1 1328   1.214   2.738   2.264  0.9202 -1.8460  0.5107
  443SOL    HW2 1329   1.265   2.646   2.126  0.1038  1.5298 -1.1720
  444SOL     OW 1330   1.123   1.289   1.602 -0.3151 -0.3595  0.2037
  444SOL    HW1 1331   1.206   1.252   1.555  0.9444 -0.4868  1.1825
  444SOL    HW2 1332   1.141   1.386   1.632 -0.5481  0.3472 -2.5150
  445SOL     OW 1333   0.026   2.390   1.863  0.3606 -0.5488 -0.4644
  445SOL    HW1 1334   0.006   2.467   1.792  2.6185  1.9890  1.0659
  445SOL    HW2 1335  -0.065   2.356   1.905  2.1856  3.3742  0.0024
  446SOL     OW 1336   0.277   1.925   2.339 -0.3142  0.4257 -0.3211
  446SOL    HW1 1337   0.229   2.011   2.375  1.0185 -0.9654  2.7279
  446SOL    HW2 1338   0.208   1.872   2.271 -0.2583  0.4990 -1.1515
  447SOL     OW 1339   1.200   1.717   1.922 -0.4397 -0.0561  0.0680
  447SOL    HW1 1340   1.115   1.772   1.899 -0.0003 -0.6716  0.3067
  447SOL    HW2 1341   1.282   1.780   1.942  2.1203 -1.2865 -3.6707
  448SOL     OW 1342   0.108   1.510   1.987  0.1449  0.2226 -0.4522
  448SOL    HW1 1343   0.118   1.599   1.929 -2.3890  2.4375 -1.9916
  448SOL    HW2 1344   0.115   1.525   2.093  1.2645  1.3672 -1.0538
  449SOL     OW 1345   1.887   2.966   0.857  0.6085 -0.4785  0.1775
  449SOL    HW1 1346   1.962   3.001   0.915  2.0527  1.7088 -2.3667
  449SOL    HW2 1347   1.920   2.883   0.807  0.4473 -0.4314 -0.7267
  450SOL     OW 1348   2.355   1.422   0.722 -0.2057 -0.4164 -0.0338
  450SOL    HW1 1349   2.267   1.452   0.773 -1.2401 -2.0921  1.2051
  450SOL    HW2 1350   2.362   1.473   0.630 -1.7986 -0.2303 -0.4695
  451SOL     OW 1351   1.370   2.983   1.460 -0.3835  0.1829  0.2954
  451SOL    HW1 1352   1.291   3.050   1.481  0.3408  0.3686 -1.0896
  451SOL    HW2 1353   1.387   2.915   1.538  1.0408  0.8610  0.0776
  452SOL     OW 1354   2.703   2.295   2.168  0.2855 -0.2316 -0.1115
  452SOL    HW1 1355   2.616   2.351   2.192 -0.2032  1.1114  0.7511
  452SOL    HW2 1356   2.738   2.234   2.245 -0.8398 -0.9002  2.6160
  453SOL     OW 1357   2.485   2.648   0.006 -0.0707  0.2682 -0.2232
  453SOL    HW1 1358   2.405   2.718   0.012 -1.5699  1.2375 -0.2973
  453SOL    HW2 1359   2.471   2.565  -0.063 -1.0188 -1.3265 -4.2585
  454SOL     OW 1360   1.004   1.162   2.109  0.4588  0.1591 -0.0055
  454SOL    HW1 1361   1.005   1.119   2.015  1.7554  0.5413  0.6478
  454SOL    HW2 1362   1.060   1.250   2.108 -0.9318  0.3983 -1.6798
  455SOL     OW 1363   0.636   2.691   2.931 -0.1994 -0.2125 -0.2836
  455SOL    HW1 1364   0.717   2.713   2.992 -0.2928 -0.2759  1.6674
  455SOL    HW2 1365   0.617   2.591   2.938  1.7423  2.5711 -0.8823
  456SOL     OW 1366   0.464   1.869   0.281 -0.2906 -0.4535  0.4428
  456SOL    HW1 1367   0.554   1.834   0.325 -0.6724  1.6249  0.8186
  456SOL    HW2 1368   0.471   1.970   0.253 -0.5395  0.9287  1.3864
  457SOL     OW 1369   0.277   2.654   0.641 -0.4320 -0.0263 -0.0288
  457SOL    HW1 1370   0.245   2.735   0.585 -0.4798 -1.5601  0.3547
  457SOL    HW2 1371   0.380   2.628   0.628 -2.8836 -1.8655 -0.3089
  458SOL     OW 1372   2.947   3.046   1.219  0.2759 -0.2631 -0.4372
  458SOL    HW1 1373   2.976   3.148   1.226 -0.8120 -1.0820 -2.6442
  458SOL    HW2 1374   2.921   3.012   1.122 -0.0924  1.0057 -1.5039
  459SOL     OW 1375   2.187   2.568   0.776 -0.3506 -0.3509 -0.5022
  459SOL    HW1 1376   2.223   2.656   0.818  0.4010 -0.4976 -1.7381
  459SOL    HW2 1377   2.251   2.525   0.705  2.9416 -1.3131 -0.1156
  460SOL     OW 1378   1.197   2.006   2.850 -0.7357 -0.0148  0.3668
  460SOL    HW1 1379   1.191   2.025   2.749  0.5766  0.8072 -0.6517
  460SOL    HW2 1380   1.234   1.910   2.869  0.3398 -1.5244  0.9575
  461SOL     OW 1381   0.552   2.084   2.674 -0.1338 -0.1564  0.8895
  461SOL    HW1 1382   0.483   2.013   2.639  0.5851 -0.7934  2.3709
  461SOL    HW2 1383   0.581   2.072   2.772 -1.4832 -0.7874 -2.6446
  462SOL     OW 1384   0.967   1.148   1.824 -0.3094 -0.0363 -0.0583
  462SOL    HW1 1385   1.024   1.100   1.754  1.3255 -3.0541  0.0357
  462SOL    HW2 1386   0.900   1.210   1.788  2.2742  1.0989  0.8479
  463SOL     OW 1387   0.464   0.818   0.467  0.3389 -0.5578  0.6132
  463SOL    HW1 1388   0.469   0.716   0.434 -0.9368 -2.2656  0.0138
  463SOL    HW2 1389   0.368   0.840   0.496 -0.1893 -3.5289 -2.4307
  464SOL     OW 1390   0.617   2.280   2.236  0.2509 -0.3502  0.3049
  464SOL    HW1 1391   0.583   2.354   2.301 -3.0013 -1.4773 -1.0927
  464SOL    HW2 1392   0.581   2.291   2.140  0.4386  1.0572 -0.9531
  465SOL     OW 1393   0.303   0.916   0.776 -0.3132 -0.0746 -0.3791
  465SOL    HW1 1394   0.237   0.955   0.709  5.1233  0.8043  1.3018
  465SOL    HW2 1395   0.312   0.810   0.776 -0.4355 -1.8717  1.4317
  466SOL     OW 1396   1.387   1.112   1.046 -0.6148 -0.1640  0.7482
  466SOL    HW1 1397   1.416   1.213   1.066 -0.8250  1.9812 -1.1556
  466SOL    HW2 1398   1.284   1.095   1.050 -0.4579  1.5172  1.7554
  467SOL     OW 1399   0.465   0.365   2.366 -0.3493  0.0557 -0.1696
  467SOL    HW1 1400   0.431   0.463   2.391 -1.1367  1.2721 -1.8063
  467SOL    HW2 1401   0.482   0.311   2.455 -1.0673 -3.2520 -0.7129
  468SOL     OW 1402   0.455   2.280   1.675 -0.2999  0.0605 -0.2290
  468SOL    HW1 1403   0.531   2.345   1.700  0.1192  0.8184 -2.2126
  468SOL    HW2 1404   0.393   2.324   1.604  1.6179 -2.0332  1.3316
  469SOL     OW 1405   1.496   1.398   1.185  1.0498 -0.4960  0.2741
  469SOL    HW1 1406   1.575   1.337   1.186  1.1881  2.4453 -0.5751
  469SOL    HW2 1407   1.518   1.490   1.232 -2.0795  1.3855 -1.2059
  470SOL     OW 1408   3.017   1.676   0.753  0.2537 -0.4827  0.7846
  470SOL    HW1 1409   3.101   1.738   0.758  1.6108  3.2686  1.3632
  470SOL    HW2 1410   2.953   1.693   0.834 -2.4184  0.7061 -0.9750
  471SOL     OW 1411   2.701   1.312   2.121 -0.4555 -0.1742  0.5059
  471SOL    HW1 1412   2.679   1.275   2.216 -1.6526 -0.9070  0.4211
  471SOL    HW2 1413   2.755   1.397   2.119  0.1576 -0.5267  2.9871
  472SOL     OW 1414   1.138   2.474   3.081 -0.1220  0.0388 -0.1156
  472SOL    HW1 1415   1.144   2.478   3.182 -0.1143 -1.6902 -0.8832
  472SOL    HW2 1416   1.117   2.384   3.038 -3.1545  1.0320  0.1289
  473SOL     OW 1417   1.123   1.549   1.017 -0.1564 -0.4971 -0.4688
  473SOL    HW1 1418   1.025   1.530   1.010  0.9244  3.2677  2.2731
  473SOL    HW2 1419   1.168   1.494   1.097  3.7493 -0.1568  1.2836
  474SOL     OW 1420   0.694   1.306   0.545  0.1610  0.1617  0.3797
  474SOL    HW1 1421   0.715   1.289   0.444 -1.6330 -0.1200 -0.2000
  474SOL    HW2 1422   0.731   1.229   0.602  3.0871  0.5149  0.3934
  475SOL     OW 1423   2.845   0.083   0.792 -0.0102 -0.0820  0.1392
  475SOL    HW1 1424   2.933   0.131   0.815  1.5856  1.2236 -1.6031
  475SOL    HW2 1425   2.760   0.125   0.831 -0.6996  0.5727  1.4657
  476SOL     OW 1426   0.955   3.018   1.836 -0.2569 -0.1083  0.0532
  476SOL    HW1 1427   1.027   2.958   1.878 -1.9256  2.8934  4.0875
  476SOL    HW2 1428   0.974   3.043   1.740  2.1732 -0.6756  1.1548
  477SOL     OW 1429   1.462   0.327   2.474  0.3081 -0.1512  0.0621
  477SOL    HW1 1430   1.458   0.348   2.572  0.7148  0.4275 -1.2191
  477SOL    HW2 1431   1.559   0.285   2.458  1.2399 -0.4408 -1.6760
  478SOL     OW 1432   2.211   1.852   0.236  0.4281  0.0740  1.1208
  478SOL    HW1 1433   2.147   1.776   0.250  2.0289 -0.8317  0.9562
  478SOL    HW2 1434   2.310   1.835   0.270  3.2399  0.0177 -2.1475
  479SOL     OW 1435   1.270   1.067   2.922 -0.4351  0.2813 -0.1745
  479SOL    HW1 1436   1.352   1.047   2.857  2.1111 -0.1177 -0.4837
  479SOL    HW2 1437   1.177   1.034   2.902 -1.6915  0.4952  0.9780
  480SOL     OW 1438   2.569   2.344   0.401 -0.0362  0.0912 -0.4977
  480SOL    HW1 1439   2.545   2.247   0.435  0.7049  1.4284  2.2113
  480SOL    HW2 1440   2.493   2.373   0.334  1.0443  0.9929 -2.8241
  481SOL     OW 1441   1.001   1.121   0.873 -0.0018 -0.0675 -0.6859
  481SOL    HW1 1442   0.984   1.216   0.839  1.0277  1.0326 -0.9345
  481SOL    HW2 1443   1.038   1.118   0.969  3.6950 -1.2565 -2.0640
  482SOL     OW 1444   1.553   0.278   2.055  0.2575  0.1786 -0.0786
  482SOL    HW1 1445   1.566   0.380   2.020  1.5471 -0.2578  0.3745
  482SOL    HW2 1446   1.644   0.236   2.077  0.3096  0.6450  3.6187
  483SOL     OW 1447   0.124   2.325   1.288  0.3175 -0.6558 -0.1296
  483SOL    HW1 1448   0.048   2.320   1.360  1.6954 -0.9945 -0.0190
  483SOL    HW2 1449   0.119   2.414   1.233  0.4432 -0.0100  0.6121
  484SOL     OW 1450   1.746   1.059   1.360 -0.0330 -0.3889  0.0989
  484SOL    HW1 1451   1.837   1.014   1.379  1.4712  3.1684  0.4999
  484SOL    HW2 1452   1.711   1.095   1.449  0.2202  0.6700 -0.9134
  485SOL     OW 1453   0.679   1.040   1.815 -0.5285 -0.2804 -0.3126
  485SOL    HW1 1454   0.699   1.019   1.716 -1.2969  0.1171  0.2402
  485SOL    HW2 1455   0.760   1.067   1.879  0.1068  0.6243  0.7260
  486SOL     OW 1456   0.831   1.946   2.452  0.2887  0.5919 -0.1448
  486SOL    HW1 1457   0.875   1.921   2.543 -1.1116  2.1679  1.6328
  486SOL    HW2 1458   0.799   2.043   2.472  0.7991 -0.7425 -0.3113
  487SOL     OW 1459   1.864   1.649   0.941  0.0976 -0.5213 -0.5092
  487SOL    HW1 1460   1.885   1.552   0.953 -0.0328  0.6043  1.1962
  487SOL    HW2 1461   1.908   1.682   0.850  2.2614 -0.7986  2.2656
  488SOL     OW 1462   2.962   0.861   2.247 -0.4369  0.0709  0.2645
  488SOL    HW1 1463   3.005   0.781   2.198  1.7135  0.5407  1.0468
  488SOL    HW2 1464   3.007   0.877   2.339  0.1087  0.9608 -1.0791
  489SOL     OW 1465   2.757   0.225   1.299 -0.4183 -0.3898  0.5875
  489SOL    HW1 1466   2.730   0.197   1.396 -0.4074 -2.8552 -0.7572
  489SOL    HW2 1467   2.856   0.214   1.288  1.3002 -0.0253  0.9570
  490SOL     OW 1468   1.461   2.964   2.815 -0.6711 -0.3654  0.7974
  490SOL    HW1 1469   1.490   2.866   2.817 -2.1928 -1.0921  1.3031
  490SOL    HW2 1470   1.427   2.994   2.720 -0.3270 -0.5727 -1.8914
  491SOL     OW 1471   1.798   1.446   2.619  0.7184  0.1845 -0.2061
  491SOL    HW1 1472   1.742   1.467   2.704  2.1151  0.1476  1.1188
  491SOL    HW2 1473   1.897   1.480   2.626 -0.7769  0.2388 -0.5581
  492SOL     OW 1474   0.516   1.985   0.683  0.2105 -0.2515  0.4250
  492SOL    HW1 1475   0.575   1.983   0.763  1.1424 -1.1889 -1.7932
  492SOL    HW2 1476   0.429   2.043   0.697 -2.1151  0.0839 -0.9100
  493SOL     OW 1477   0.391   1.407   2.032 -0.2422 -0.0917  0.0561
  493SOL    HW1 1478   0.293   1.443   2.026  0.5615 -1.3200  1.5795
  493SOL    HW2 1479   0.413   1.362   2.126  2.5651 -0.0638  2.1167
  494SOL     OW 1480   2.728   2.687   0.146 -0.4332  0.2354  0.0439
  494SOL    HW1 1481   2.710   2.653   0.243  1.3036 -0.5966  2.7292
  494SOL    HW2 1482   2.662   2.641   0.073 -0.9841 -1.2795 -1.2674
  495SOL     OW 1483   2.735   2.699   2.743  0.1454 -0.5400 -0.2407
  495SOL    HW1 1484   2.683   2.612   2.721 -0.2407  0.0896 -3.0290
  495SOL    HW2 1485   2.784   2.731   2.659 -0.2464 -0.8576  2.2825
  496SOL     OW 1486   2.062   2.257   0.702 -0.5676 -0.0685  0.2406
  496SOL    HW1 1487   2.086   2.294   0.797  0.6094  1.6634 -1.2470
  496SOL    HW2 1488   2.136   2.185   0.677  1.1280 -1.1116 -2.1948
  497SOL     OW 1489   0.253   2.973   2.434 -0.0589  0.0806  0.1583
  497SOL    HW1 1490   0.220   3.052   2.495 -0.3022 -0.6049  1.6462
  497SOL    HW2 1491   0.284   3.012   2.343 -1.8886 -0.3718 -1.0875
  498SOL     OW 1492   1.219   1.402   1.216 -0.1423  0.3858 -0.3802
  498SOL    HW1 1493   1.320   1.374   1.207 -1.1495 -0.9001  0.6443
  498SOL    HW2 1494   1.197   1.433   1.312 -1.0249 -0.3132 -1.9204
  499SOL     OW 1495   0.689   1.848   0.426  0.4706  0.1322  0.2905
  499SOL    HW1 1496   0.708   1.770   0.495 -1.1916 -0.6940 -1.4027
  499SOL    HW2 1497   0.661   1.937   0.468 -1.3857  0.3549  0.8461
  500SOL     OW 1498   1.427   2.851   1.691  0.7371  0.8519 -0.1211
  500SOL    HW1 1499   1.373   2.773   1.726  0.2916 -1.9743 -0.5959
  500SOL    HW2 1500   1.516   2.816   1.654 -0.1507 -1.6097  3.4603
  501SOL     OW 1501   0.814   1.128   2.305 -0.2555 -0.2551 -0.4319
  501SOL    HW1 1502   0.738   1.063   2.282  2.2035  0.5363 -0.6755
  501SOL    HW2 1503   0.870   1.149   2.219  1.3626 -0.5049 -3.0071
  502SOL     OW 1504   2.589   0.957   1.735  0.5666 -0.0212 -0.2421
  502SOL    HW1 1505   2.615   0.973   1.637  1.0711 -1.6000  1.7756
  502SOL    HW2 1506   2.551   0.858   1.750 -1.8281 -0.9826  1.4671
  503SOL     OW 1507   1.307   0.095   0.672 -0.4934 -0.0434 -0.1727
  503SOL    HW1 1508   1.268   0.186   0.640  0.0186  0.7478 -1.5061
  503SOL    HW2 1509   1.406   0.093   0.651  0.1485  0.4692  0.0886
  504SOL     OW 1510   3.006   2.326   1.475  0.1085  0.2792  0.3788
  504SOL    HW1 1511   2.937   2.387   1.530 -0.5949  3.6964  0.3112
  504SOL    HW2 1512   3.074   2.289   1.541 -0.5134 -2.0454 -1.7052
  505SOL     OW 1513   2.306   1.158   1.456  0.0830  0.3251  0.4698
  505SOL    HW1 1514   2.311   1.166   1.358  0.9301  1.0291  1.0088
  505SOL    HW2 1515   2.379   1.215   1.503 -2.3035  1.0256  0.0137
  506SOL     OW 1516   1.967   0.154   1.819 -0.3014  0.1920 -0.3991
  506SOL    HW1 1517   2.054   0.112   1.838 -1.6044  0.3450 -1.1487
  506SOL    HW2 1518   1.956   0.242   1.864  0.9437 -0.3709 -2.3048
  507SOL     OW 1519   0.522   0.700   2.140 -0.1355  0.2488 -0.1432
  507SOL    HW1 1520   0.434   0.666   2.101 -5.3990  0.0265  0.6106
  507SOL    HW2 1521   0.578   0.614   2.165 -0.8901 -1.3908  1.3739
  508SOL     OW 1522   0.278   1.643   0.822 -0.5200 -0.0789  0.8892
  508SOL    HW1 1523   0.338   1.695   0.750 -1.8350 -0.3391 -2.3146
  508SOL    HW2 1524   0.294   1.679   0.917  0.0698  0.0548  0.7973
  509SOL     OW 1525   1.215   1.261   2.348 -0.0768 -0.1263  0.0352
  509SOL    HW1 1526   1.213   1.274   2.243 -0.0976 -2.4510 -1.8108
  509SOL    HW2 1527   1.182   1.176   2.375  2.3338  1.5945 -3.0569
  510SOL     OW 1528   1.271   1.996   2.135 -0.2197 -0.3600 -0.3950
  510SOL    HW1 1529   1.255   2.094   2.104 -0.4704  2.0256 -1.8018
  510SOL    HW2 1530   1.186   1.949   2.169  0.2464  0.9619 -0.6877
  511SOL     OW 1531   3.048   2.762   1.318 -0.1538  0.0644 -0.4299
  511SOL    HW1 1532   3.040   2.818   1.234 -0.0194 -0.5003  2.6518
  511SOL    HW2 1533   2.955   2.744   1.366  2.5391  0.1275 -1.4467
  512SOL     OW 1534   2.408   0.434   1.374  0.0442  0.8911 -0.7030
  512SOL    HW1 1535   2.309   0.392   1.369  0.3539 -0.2617  1.9083
  512SOL    HW2 1536   2.464   0.389   1.299 -2.8560  0.1458  2.7436
  513SOL     OW 1537   2.543   2.039   0.851 -0.1198 -0.2356 -0.2131
  513SOL    HW1 1538   2.479   2.109   0.808  0.3368  1.6514 -1.6686
  513SOL    HW2 1539   2.636   2.023   0.804 -1.4142 -0.2742  0.1344
  514SOL     OW 1540   0.608   2.741   0.454 -0.2340  0.2664  0.5229
  514SOL    HW1 1541   0.580   2.776   0.361  0.2666 -2.4398 -0.1689
  514SOL    HW2 1542   0.687   2.794   0.499 -0.2201  0.9572  2.1918
  515SOL     OW 1543   1.980   1.172   2.354 -0.1246 -0.6591 -0.0452
  515SOL    HW1 1544   1.991   1.159   2.246  3.7973 -1.4615 -2.2033
  515SOL    HW2 1545   1.886   1.147   2.395  0.0841  2.0513  5.3301
  516SOL     OW 1546   0.233   0.297   1.876 -0.0135  0.3273  0.6831
  516SOL    HW1 1547   0.307   0.257   1.817 -0.7098 -0.2039 -1.3177
  516SOL    HW2 1548   0.159   0.226   1.904  0.8309  2.6797  0.6311
  517SOL     OW 1549   0.436   0.017   1.171  0.2280  0.1596  0.5687
  517SOL    HW1 1550   0.450   0.118   1.177  1.0337 -0.8948 -0.4799
  517SOL    HW2 1551   0.339  -0.019   1.154  1.4930 -2.0598 -1.4293
  518SOL     OW 1552   2.209   3.077   1.823  1.3453  0.6769 -0.0538
  518SOL    HW1 1553   2.295   3.135   1.835  1.3969 -0.5463  0.1124
  518SOL    HW2 1554   2.213   3.040   1.728  0.4909  2.8246 -0.0876
  519SOL     OW 1555   2.333   2.176   2.557  0.3251  0.4696  0.3778
  519SOL    HW1 1556   2.288   2.148   2.647 -0.6608  1.4666  1.3235
  519SOL    HW2 1557   2.345   2.279   2.551 -0.7341  3.0368  1.2799
  520SOL     OW 1558   1.819   2.777   1.789 -0.2598  0.5614  0.1026
  520SOL    HW1 1559   1.738   2.768   1.851 -0.0411  1.6126 -1.1508
  520SOL    HW2 1560   1.862   2.685   1.772 -1.4115 -1.3421 -1.7663
  521SOL     OW 1561   0.571   3.078   2.087  0.2153  0.2792  0.7923
  521SOL    HW1 1562   0.487   3.047   2.135  1.5241  1.3611  2.6678
  521SOL    HW2 1563   0.654   3.066   2.151 -0.6389  0.4858  2.0667
  522SOL     OW 1564   0.206   1.892   1.469 -0.6500  0.5337 -0.0216
  522SOL    HW1 1565   0.262   1.957   1.530 -1.1544 -0.6336  2.1063
  522SOL    HW2 1566   0.193   1.927   1.373  0.3813 -0.7151 -0.7827
  523SOL     OW 1567   2.249   2.998   1.571 -0.3526  0.4266 -0.1858
  523SOL    HW1 1568   2.324   2.928   1.563  2.3238  0.3540 -1.7438
  523SOL    HW2 1569   2.163   2.964   1.520 -3.0572 -1.3629 -0.3617
  524SOL     OW 1570   0.165   2.792   2.828 -0.5479  0.0422  0.4519
  524SOL    HW1 1571   0.121   2.882   2.799 -2.6537  0.0601 -0.8715
  524SOL    HW2 1572   0.262   2.795   2.860  1.1514  0.5289  1.5787
  525SOL     OW 1573   2.160   2.033   0.430 -0.0058 -0.5142  0.2809
  525SOL    HW1 1574   2.138   1.982   0.515 -0.5144  1.8501  1.3320
  525SOL    HW2 1575   2.165   1.968   0.349 -0.3199  1.4724  0.2919
  526SOL     OW 1576   0.448   1.553   1.647 -0.0476 -0.0418 -0.1127
  526SOL    HW1 1577   0.505   1.603   1.723  0.8002  2.9406  0.3235
  526SOL    HW2 1578   0.480   1.455   1.625 -0.1152 -0.4495 -1.0563
  527SOL     OW 1579   1.040   2.921   1.222  0.3627  0.3862 -0.0241
  527SOL    HW1 1580   1.129   2.869   1.232  0.4624  1.2369 -2.1032
  527SOL    HW2 1581   1.056   3.025   1.208  0.9543 -1.4509 -2.2155
  528SOL     OW 1582   1.351   2.430   0.540 -0.2217  0.3084  0.7048
  528SOL    HW1 1583   1.343   2.340   0.589 -1.9645 -0.1482  0.0107
  528SOL    HW2 1584   1.434   2.489   0.575  1.5504  0.5746  1.5956
  529SOL     OW 1585   1.953   1.732   0.677 -0.6484 -0.4483  0.0111
  529SOL    HW1 1586   1.878   1.721   0.607  0.2303  1.4541 -0.7695
  529SOL    HW2 1587   1.955   1.829   0.727 -1.1013  3.0348 -1.7036
  530SOL     OW 1588   0.324   2.617   0.269 -0.5178  0.6022  0.6040
  530SOL    HW1 1589   0.318   2.700   0.332 -2.3381 -0.6990  1.3745
  530SOL    HW2 1590   0.346   2.525   0.317  3.5545 -3.3972 -0.8414
  531SOL     OW 1591   1.851   0.978   0.941 -0.1384  0.1625 -0.1848
  531SOL    HW1 1592   1.898   1.046   0.877 -0.7939  1.0766 -0.6176
  531SOL    HW2 1593   1.747   0.979   0.935  2.5061  1.3151  0.5316
  532SOL     OW 1594   0.400   1.195   0.708  0.6194  0.1049 -0.2175
  532SOL    HW1 1595   0.414   1.193   0.607 -0.3195 -1.2410 -1.2686
  532SOL    HW2 1596   0.379   1.103   0.753 -1.4436 -2.7167  0.8064
  533SOL     OW 1597   1.740   0.024   2.600  0.1314 -0.0572  0.1583
  533SOL    HW1 1598   1.839  -0.010   2.618 -1.6631 -1.6060 -3.0119
  533SOL    HW2 1599   1.714   0.112   2.654 -0.3299 -3.0920  2.1881
  534SOL     OW 1600   0.382   0.206   1.622 -0.1228  0.5008  0.0432
  534SOL    HW1 1601   0.455   0.206   1.548  2.5751  1.3347 -0.1145
  534SOL    HW2 1602   0.336   0.300   1.623 -2.9692  2.2858 -0.2144
  535SOL     OW 1603   1.949   0.371   0.171  0.4224  0.2013 -0.6680
  535SOL    HW1 1604   1.934   0.443   0.247  0.1646 -0.2628  0.6473
  535SOL    HW2 1605   1.910   0.275   0.199  0.9742  0.5007 -3.7887
  536SOL     OW 1606   1.408   2.550   0.942  0.5107  0.2198 -0.0779
  536SOL    HW1 1607   1.397   2.523   1.044  0.2530  0.6579 -0.3334
  536SOL    HW2 1608   1.318   2.602   0.911 -2.5607 -1.3002 -2.0395
  537SOL     OW 1609   0.812   0.217   2.361 -0.6440  0.5827  0.6781
  537SOL    HW1 1610   0.799   0.259   2.269  0.7066  1.5779  0.4072
  537SOL    HW2 1611   0.775   0.122   2.370 -2.6073  0.4158 -4.1194
  538SOL     OW 1612   1.668   2.360   1.531 -0.4935  0.4972  0.3770
  538SOL    HW1 1613   1.655   2.258   1.528  1.8631  0.7180  0.4376
  538SOL    HW2 1614   1.729   2.399   1.459 -1.7500 -2.7686 -0.0531
  539SOL     OW 1615   0.215   1.603   2.736 -0.0824  0.1175  0.1384
  539SOL    HW1 1616   0.157   1.634   2.656 -0.4070  0.1252 -0.6221
  539SOL    HW2 1617   0.202   1.658   2.825  1.6971  1.7775  0.3636
  540SOL     OW 1618   2.703   1.674   1.917 -0.4259  0.7370 -0.4669
  540SOL    HW1 1619   2.741   1.610   1.990 -0.2521  1.7850  1.8465
  540SOL    HW2 1620   2.655   1.758   1.942  1.3543 -0.3532  0.4724
  541SOL     OW 1621   0.478   2.228   0.009  0.3060 -0.6265  0.2717
  541SOL    HW1 1622   0.492   2.208   0.109  0.0776 -2.1285 -1.6355
  541SOL    HW2 1623   0.381   2.203  -0.032  0.8278 -1.4564  1.4305
  542SOL     OW 1624   2.267   2.578   0.441 -0.2174  0.1717  0.2553
  542SOL    HW1 1625   2.224   2.669   0.420 -1.5953 -1.4969 -1.6795
  542SOL    HW2 1626   2.192   2.512   0.469 -0.0209  3.0698  3.3321
  543SOL     OW 1627   1.073   1.837   1.561  0.4529  0.1051 -0.6239
  543SOL    HW1 1628   1.006   1.870   1.635 -0.4770  1.3594 -0.7722
  543SOL    HW2 1629   1.049   1.874   1.465  1.3857 -1.5878  0.8593
  544SOL     OW 1630   0.996   0.416   0.173 -0.4476  0.6736 -0.5306
  544SOL    HW1 1631   1.036   0.336   0.232 -0.3381  2.6300  3.1935
  544SOL    HW2 1632   0.950   0.388   0.081 -1.4186  1.9845 -1.9875
  545SOL     OW 1633   1.124   1.747   0.795 -0.3922 -0.8596  0.0955
  545SOL    HW1 1634   1.223   1.772   0.792  1.4953  0.3299  3.0565
  545SOL    HW2 1635   1.110   1.660   0.847 -0.1582 -2.6631 -1.0561
  546SOL     OW 1636   2.672   1.490   3.060 -0.2689  0.1013 -0.8559
  546SOL    HW1 1637   2.630   1.570   3.017 -0.0910 -2.3282 -1.2751
  546SOL    HW2 1638   2.607   1.425   3.109 -1.9086 -2.5067 -2.5582
  547SOL     OW 1639   0.599   3.049   2.656 -0.3915 -0.3155  0.1017
  547SOL    HW1 1640   0.695   3.013   2.643  3.3614 -0.9350 -0.0320
  547SOL    HW2 1641   0.535   2.968   2.682 -1.7916 -2.1679 -1.6583
  548SOL     OW 1642   2.104   0.879   2.992 -0.2714 -0.0843 -0.5047
  548SOL    HW1 1643   2.003   0.854   2.974  3.7191  1.6811  0.1070
  548SOL    HW2 1644   2.114   0.974   3.034  0.2768 -0.4502  0.5085
  549SOL     OW 1645   0.692   0.504   0.221 -0.3046  0.0754  0.1189
  549SOL    HW1 1646   0.638   0.545   0.140 -0.2525 -0.5969 -1.0248
  549SOL    HW2 1647   0.769   0.564   0.256  5.0072  1.2042  3.4282
  550SOL     OW 1648   2.543   2.823   2.876  0.9250 -0.5008  0.0576
  550SOL    HW1 1649   2.513   2.757   2.950 -0.7506 -0.0730  0.7181
  550SOL    HW2 1650   2.623   2.786   2.818 -0.7281  4.4121 -0.8578
  551SOL     OW 1651   0.253   0.895   0.216 -0.3507 -0.3858 -0.0611
  551SOL    HW1 1652   0.339   0.837   0.221 -0.7790 -0.7174 -0.9062
  551SOL    HW2 1653   0.193   0.893   0.300  0.8941 -1.1607 -1.1665
  552SOL     OW 1654   0.712   2.961   1.884 -0.4180 -0.6613  0.3202
  552SOL    HW1 1655   0.665   3.010   1.957 -0.4383 -1.4648 -0.4481
  552SOL    HW2 1656   0.815   2.979   1.875  0.5105  2.1358 -1.1815
  553SOL     OW 1657   2.981   2.528   0.351 -0.1063 -0.1646  0.2714
  553SOL    HW1 1658   2.945   2.436   0.352  0.4566  1.8641  0.2588
  553SOL    HW2 1659   2.944   2.589   0.427  0.2876  0.1170  2.2772
  554SOL     OW 1660   2.167   0.373   0.567  0.3672  0.2700 -0.5010
  554SOL    HW1 1661   2.214   0.396   0.477 -0.6140 -0.3504  1.5380
  554SOL    HW2 1662   2.238   0.337   0.633 -1.9765 -2.2801  0.4362
  555SOL     OW 1663   0.381   2.735   2.518  0.4295 -0.5965  0.0409
  555SOL    HW1 1664   0.319   2.811   2.498  0.4949 -0.3859  1.1446
  555SOL    HW2 1665   0.427   2.707   2.428  1.4285  1.4320  1.0416
  556SOL     OW 1666   0.834   2.408   1.497  0.5007  0.0909  0.0629
  556SOL    HW1 1667   0.865   2.497   1.531 -0.2843  1.5601 -1.3060
  556SOL    HW2 1668   0.902   2.352   1.440  2.1365  1.2039  1.5678
  557SOL     OW 1669   0.071   2.079   0.201  0.3073  0.6849  0.2751
  557SOL    HW1 1670   0.033   1.983   0.189  0.6415  1.4627  0.9606
  557SOL    HW2 1671   0.101   2.129   0.116  2.5137  1.6427  2.4054
  558SOL     OW 1672   2.835   2.279   0.312 -0.8816  0.0957  0.3295
  558SOL    HW1 1673   2.733   2.265   0.298 -1.1434  0.3203  1.0070
  558SOL    HW2 1674   2.882   2.188   0.301 -3.1292  0.6803  0.5999
  559SOL     OW 1675   0.376   2.287   1.386 -0.2901 -0.3055  0.1359
  559SOL    HW1 1676   0.288   2.287   1.335  1.8369  2.5777  0.1196
  559SOL    HW2 1677   0.454   2.222   1.358  0.2964 -0.4703 -3.2301
  560SOL     OW 1678   2.092   1.136   3.053  0.1561  0.6723  0.0406
  560SOL    HW1 1679   2.113   1.158   3.154  2.1844 -0.4575  0.7523
  560SOL    HW2 1680   2.145   1.198   2.990 -0.9130  0.2662 -0.9161
  561SOL     OW 1681   3.073   1.854   0.024 -0.4192 -0.1111  0.3925
  561SOL    HW1 1682   3.031   1.809   0.105  0.8426 -0.3081 -1.4018
  561SOL    HW2 1683   3.022   1.940   0.003  0.6642 -1.7992  2.6395
  562SOL     OW 1684   0.979   2.235   2.329 -0.3639 -0.8014  0.2018
  562SOL    HW1 1685   0.887   2.248   2.371  1.7935  3.8836 -0.8835
  562SOL    HW2 1686   1.040   2.324   2.315 -1.4284  0.2795 -0.8338
  563SOL     OW 1687   0.721   2.578   2.619 -0.1595  0.0571  0.1040
  563SOL    HW1 1688   0.805   2.515   2.625  1.3697 -0.3069 -1.3203
  563SOL    HW2 1689   0.686   2.612   2.712  1.4881  1.2715 -0.3940
  564SOL     OW 1690   2.857   1.331   2.901 -0.3553  0.0727  0.1051
  564SOL    HW1 1691   2.770   1.367   2.951 -2.0703  0.3097 -2.1854
  564SOL    HW2 1692   2.914   1.403   2.853 -0.5174 -1.1864 -1.0861
  565SOL     OW 1693   2.533   2.007   2.637  0.0793  0.4838  0.1146
  565SOL    HW1 1694   2.469   2.073   2.594 -0.3663  0.7291 -1.4745
  565SOL    HW2 1695   2.607   2.048   2.696 -1.4907  3.6542  0.0152
  566SOL     OW 1696   2.078   2.831   1.407  0.2635  0.3326  0.8795
  566SOL    HW1 1697   2.021   2.744   1.409  1.4949  1.0160  1.0443
  566SOL    HW2 1698   2.040   2.899   1.336 -1.1046  0.4029 -1.8928
  567SOL     OW 1699   2.415   3.094   2.360  0.0403 -0.0318  0.1114
  567SOL    HW1 1700   2.311   3.069   2.364 -1.3218  1.2081  1.8506
  567SOL    HW2 1701   2.448   3.062   2.270 -3.3972 -2.1461  0.9710
  568SOL     OW 1702   1.508   1.756   0.241  0.1535 -0.2590 -0.2503
  568SOL    HW1 1703   1.439   1.819   0.198  0.6678 -2.4516 -2.3540
  568SOL    HW2 1704   1.605   1.792   0.249 -0.2480 -1.8073 -2.9662
  569SOL     OW 1705   0.287   0.640   0.836  0.6374 -0.6397  0.6004
  569SOL    HW1 1706   0.356   0.575   0.793 -0.0061  2.3899  1.3418
  569SOL    HW2 1707   0.190   0.602   0.858  0.3897 -1.5376 -0.9699
  570SOL     OW 1708   0.607   0.874   2.922 -0.0086 -0.1564  0.0622
  570SOL    HW1 1709   0.646   0.924   2.845  1.3751 -3.7578  2.6582
  570SOL    HW2 1710   0.592   0.935   3.003  0.4035 -1.1923 -1.3963
  571SOL     OW 1711   0.792   3.100   1.014  0.0411 -0.6222  0.1845
  571SOL    HW1 1712   0.877   3.126   0.960  2.7686 -1.4944 -1.3398
  571SOL    HW2 1713   0.746   3.010   0.985  1.5600 -3.0148  0.9820
  572SOL     OW 1714   1.615   2.592   1.322  0.3199  0.3064  0.0820
  572SOL    HW1 1715   1.528   2.540   1.285 -0.9076 -0.5267 -2.4205
  572SOL    HW2 1716   1.608   2.697   1.325  0.5324 -2.1688  3.1589
  573SOL     OW 1717   2.886   0.521   2.010  0.6655 -0.1249 -0.2928
  573SOL    HW1 1718   2.809   0.451   2.006  0.6101  0.0201  0.2364
  573SOL    HW2 1719   2.954   0.507   1.938  0.8903 -3.9465  3.0166
  574SOL     OW 1720   0.166   1.744   1.077  0.0057  0.4046  0.1294
  574SOL    HW1 1721   0.151   1.837   1.042 -0.1653  1.4771  0.9378
  574SOL    HW2 1722   0.081   1.714   1.130 -0.5596 -1.2887  2.3290
  575SOL     OW 1723   0.855   2.156   0.916 -0.5398  0.5140  0.1532
  575SOL    HW1 1724   0.808   2.188   1.005 -2.1690 -0.1691  2.3569
  575SOL    HW2 1725   0.889   2.238   0.857  0.3410 -0.0847 -1.8850
  576SOL     OW 1726   2.891   3.023   1.700 -0.7814 -0.3329 -0.6645
  576SOL    HW1 1727   2.795   3.007   1.664 -0.5181  1.3284 -1.1788
  576SOL    HW2 1728   2.914   3.122   1.693  0.8580 -1.1447  1.3590
  577SOL     OW 1729   2.471   1.231   0.008  0.2312 -0.7834 -0.0200
  577SOL    HW1 1730   2.491   1.160  -0.068  1.8158 -0.7351 -0.1045
  577SOL    HW2 1731   2.560   1.230   0.067  0.8153  1.3070 -0.1881
  578SOL     OW 1732   1.405   2.722   2.428  0.4451 -0.4744  0.2427
  578SOL    HW1 1733   1.311   2.765   2.427  2.5104 -0.0426 -0.6494
  578SOL    HW2 1734   1.485   2.793   2.421 -0.1009  1.1472 -0.7422
  579SOL     OW 1735   0.065   2.500   0.155 -0.2980 -0.0883  0.1711
  579SOL    HW1 1736  -0.000   2.509   0.237 -2.4533 -1.1478 -1.8328
  579SOL    HW2 1737   0.165   2.493   0.181  0.3130  0.5765  2.1190
  580SOL     OW 1738   0.981   2.689   0.387 -0.6044 -0.1049 -0.0190
  580SOL    HW1 1739   1.070   2.698   0.340 -2.6868 -0.9486 -0.4287
  580SOL    HW2 1740   0.907   2.640   0.324 -0.7773 -0.5550 -1.8559
  581SOL     OW 1741   1.238   2.662   1.462  0.0841  0.1225 -0.0718
  581SOL    HW1 1742   1.278   2.571   1.503  0.3510  0.9549  2.9527
  581SOL    HW2 1743   1.311   2.705   1.403 -2.0016  1.9806  2.1871
  582SOL     OW 1744   1.511   0.067   1.849  0.0989 -0.2902 -0.0535
  582SOL    HW1 1745   1.515   0.136   1.927 -1.3458  0.7344  0.6488
  582SOL    HW2 1746   1.599   0.049   1.797  1.1276 -1.7830  1.0163
  583SOL     OW 1747   2.459   3.064   0.558 -0.1532  0.1018  0.0194
  583SOL    HW1 1748   2.523   3.025   0.491 -1.2645  0.4295  0.6595
  583SOL    HW2 1749   2.381   3.006   0.599  2.2852  0.9802 -0.9490
  584SOL     OW 1750   1.553   1.025   2.141 -0.2363  0.8492  0.2586
  584SOL    HW1 1751   1.583   1.116   2.097  0.7020  3.0688  0.7017
  584SOL    HW2 1752   1.620   0.977   2.205 -1.0934  2.2158 -1.0446
  585SOL     OW 1753   2.144   2.671   2.933  0.2142 -0.1938 -0.0572
  585SOL    HW1 1754   2.175   2.587   2.883  1.6206  2.6582  2.0251
  585SOL    HW2 1755   2.041   2.689   2.932 -2.1868 -1.2739 -0.0233
  586SOL     OW 1756   2.825   0.372   1.607  0.0070 -0.2915  0.5598
  586SOL    HW1 1757   2.827   0.466   1.650  0.6785  2.3277  3.1002
  586SOL    HW2 1758   2.731   0.336   1.570 -1.8691  0.4227 -0.8509
  587SOL     OW 1759   2.068   1.562   2.617  0.3159  0.3221  0.0777
  587SOL    HW1 1760   2.097   1.475   2.572  2.8042 -0.0008  1.3693
  587SOL    HW2 1761   2.075   1.552   2.720  1.7834 -3.3230 -0.6747
  588SOL     OW 1762   0.466   2.673   2.255 -0.3974 -0.7237 -0.1537
  588SOL    HW1 1763   0.382   2.663   2.195 -2.2148 -0.3030 -0.2733
  588SOL    HW2 1764   0.502   2.584   2.293  1.0643  0.7590 -0.0472
  589SOL     OW 1765   2.155   1.347   2.483 -0.5761 -0.0150 -0.3799
  589SOL    HW1 1766   2.094   1.271   2.445  0.7357 -0.0846 -0.6910
  589SOL    HW2 1767   2.255   1.325   2.486 -0.9437 -3.5230  1.6262
  590SOL     OW 1768   2.352   1.679   2.041  0.1590 -0.0402 -0.0820
  590SOL    HW1 1769   2.410   1.593   2.039 -1.2090  1.8775  0.7057
  590SOL    HW2 1770   2.348   1.739   2.125 -1.7888  0.1413 -1.9239
  591SOL     OW 1771   1.298   2.408   0.236 -0.5405  1.1316 -0.4295
  591SOL    HW1 1772   1.335   2.342   0.170  0.5237  2.6665 -0.6012
  591SOL    HW2 1773   1.283   2.362   0.329 -1.7715 -0.4485 -0.6435
  592SOL     OW 1774   1.791   2.271   0.746  0.3537 -0.2487 -0.3441
  592SOL    HW1 1775   1.731   2.299   0.665 -1.4127  3.7824 -0.2347
  592SOL    HW2 1776   1.891   2.257   0.719 -1.5417  0.2615 -1.8211
  593SOL     OW 1777   0.695   0.232   0.243 -0.2299 -0.3107  0.0744
  593SOL    HW1 1778   0.746   0.196   0.160 -0.8903 -0.0711  0.5140
  593SOL    HW2 1779   0.694   0.339   0.251  3.9176 -0.8571 -1.9839
  594SOL     OW 1780   1.014   1.857   2.676  0.9411 -0.7126 -0.0877
  594SOL    HW1 1781   1.099   1.793   2.665 -1.5674 -0.1034 -2.6433
  594SOL    HW2 1782   1.032   1.932   2.748  1.4859  0.4390  0.4691
  595SOL     OW 1783   1.528   0.007   1.079 -0.2441  0.0207 -0.3827
  595SOL    HW1 1784   1.611  -0.029   1.026 -0.1349  1.3238  0.7045
  595SOL    HW2 1785   1.441   0.002   1.023  0.5012  0.0030  0.6151
  596SOL     OW 1786   0.026   1.453   2.245  0.3474  0.2171  0.2646
  596SOL    HW1 1787   0.022   1.350   2.261 -0.7863 -1.1491  1.3658
  596SOL    HW2 1788   0.102   1.502   2.300  0.9719  4.0372 -0.5981
  597SOL     OW 1789   1.943   2.547   1.718 -0.5337 -0.0807  0.3286
  597SOL    HW1 1790   1.946   2.519   1.620  0.2696  1.4539  1.5080
  597SOL    HW2 1791   2.042   2.556   1.750  1.3259 -0.0914 -4.1278
  598SOL     OW 1792   2.547   2.955   1.203  0.1272  0.1054  0.5429
  598SOL    HW1 1793   2.611   2.983   1.280  0.1389 -1.0537  1.2647
  598SOL    HW2 1794   2.602   2.945   1.114 -2.3117 -0.9198  0.4825
  599SOL     OW 1795   2.886   0.319   2.502 -0.3891  0.0893  0.0996
  599SOL    HW1 1796   2.975   0.372   2.482 -2.8298  2.0025 -2.1559
  599SOL    HW2 1797   2.803   0.377   2.480  0.4685  1.8609  1.4257
  600SOL     OW 1798   2.806   1.097   2.746 -0.7171  0.7679  0.0069
  600SOL    HW1 1799   2.775   1.004   2.780 -0.2132  0.9674 -1.1684
  600SOL    HW2 1800   2.814   1.168   2.820  1.3863  2.5606 -1.3095
  601SOL     OW 1801   2.991   1.331   1.976  0.7034 -0.1580  0.2489
  601SOL    HW1 1802   2.931   1.354   1.890 -0.1869 -0.1704  1.2764
  601SOL    HW2 1803   3.048   1.412   1.999 -1.7591 -1.0619 -0.3332
  602SOL     OW 1804   1.418   1.738   2.312 -0.3831  0.3612 -0.7106
  602SOL    HW1 1805   1.346   1.665   2.329 -0.6161 -0.8898  0.8154
  602SOL    HW2 1806   1.515   1.708   2.339  0.8295  0.5950  1.8113
  603SOL     OW 1807   0.591   1.229   2.760  0.1945 -0.4156 -0.2641
  603SOL    HW1 1808   0.507   1.203   2.705 -0.8873  0.6190  0.3330
  603SOL    HW2 1809   0.668   1.162   2.755 -1.3076  0.1895  3.6428
  604SOL     OW 1810   2.370   0.993   0.159  0.2132  0.3558  0.1093
  604SOL    HW1 1811   2.423   1.072   0.121 -1.7016 -2.9438  0.2779
  604SOL    HW2 1812   2.394   0.905   0.103  1.3471  0.3335  0.7800
  605SOL     OW 1813   2.540   1.157   1.949 -0.4340 -0.4763 -0.5579
  605SOL    HW1 1814   2.580   1.076   1.903  1.3040 -0.8126  0.1877
  605SOL    HW2 1815   2.606   1.204   2.022  1.7960  1.0060  0.8208
  606SOL     OW 1816   1.532   2.527   2.558  0.4973 -0.8277  0.5089
  606SOL    HW1 1817   1.460   2.593   2.518 -0.3138  0.5111 -1.3072
  606SOL    HW2 1818   1.485   2.439   2.585 -3.8183  2.2036 -0.1743
  607SOL     OW 1819   1.317   1.596   0.345  0.2715  0.0818 -0.1375
  607SOL    HW1 1820   1.265   1.662   0.407  2.5578 -0.6560 -0.1305
  607SOL    HW2 1821   1.397   1.643   0.308 -2.2738 -0.0800 -0.3818
  608SOL     OW 1822   1.420   2.818   0.390  0.3388 -0.0580  0.0779
  608SOL    HW1 1823   1.492   2.856   0.326 -0.5929  0.3461  1.7153
  608SOL    HW2 1824   1.362   2.891   0.435  3.4408 -1.8315  2.2847
  609SOL     OW 1825   1.273   1.336   0.242  0.1909 -0.3289  0.6204
  609SOL    HW1 1826   1.297   1.432   0.269  0.0487  2.3267 -1.0739
  609SOL    HW2 1827   1.263   1.327   0.141  0.8140 -0.9674  3.2908
  610SOL     OW 1828   2.957   1.168   2.248 -0.4663 -0.2067  0.0588
  610SOL    HW1 1829   2.945   1.066   2.249 -1.9402 -0.0279 -1.2690
  610SOL    HW2 1830   2.927   1.210   2.159  0.7068  1.0314  0.5220
  611SOL     OW 1831   2.533   0.279   1.165  0.2881 -0.0365 -0.4875
  611SOL    HW1 1832   2.466   0.200   1.153  0.2345 -0.5838  0.1772
  611SOL    HW2 1833   2.615   0.250   1.226 -0.1008  1.0720  1.3101
  612SOL     OW 1834   0.766   2.265   1.168 -0.0017 -0.2263  0.1951
  612SOL    HW1 1835   0.714   2.227   1.250 -0.1505 -0.8716 -2.4551
  612SOL    HW2 1836   0.728   2.358   1.136 -0.0121  1.3011 -4.9725
  613SOL     OW 1837   0.841   1.404   2.428 -0.5714 -0.2248 -0.7236
  613SOL    HW1 1838   0.823   1.472   2.354  1.6590  0.7326 -0.5281
  613SOL    HW2 1839   0.811   1.310   2.404 -0.8137  0.2623  0.0700
  614SOL     OW 1840   1.561   1.700   1.962 -0.2381  0.9672  0.0376
  614SOL    HW1 1841   1.498   1.784   1.950  0.2794 -0.3222 -1.0098
  614SOL    HW2 1842   1.657   1.719   1.993 -1.6249 -0.7914  0.5082
  615SOL     OW 1843   0.806   1.341   1.703  0.6871 -0.0322  0.4914
  615SOL    HW1 1844   0.721   1.337   1.648  0.0600 -2.1535 -1.4692
  615SOL    HW2 1845   0.877   1.403   1.666 -3.0330  1.5408 -0.2496
  616SOL     OW 1846   1.031   1.595   2.149  0.5212  0.0231 -0.1500
  616SOL    HW1 1847   0.934   1.559   2.163  3.2386  1.1980 -1.7420
  616SOL    HW2 1848   1.052   1.636   2.055  1.0353 -1.3910  0.7663
  617SOL     OW 1849   2.965   1.558   1.601 -0.3877  0.1818 -0.5650
  617SOL    HW1 1850   2.926   1.493   1.673  2.2377 -0.3899 -1.0620
  617SOL    HW2 1851   2.985   1.502   1.509 -2.0660 -1.9017 -2.7272
  618SOL     OW 1852   1.886   1.989   1.459  0.2904  0.3645 -1.1413
  618SOL    HW1 1853   1.908   1.982   1.359 -3.6633  1.7517  0.3891
  618SOL    HW2 1854   1.841   1.903   1.492  1.6568  1.3178 -0.1538
  619SOL     OW 1855   1.762   0.505   2.407 -0.1888  0.3754  0.6680
  619SOL    HW1 1856   1.673   0.545   2.363 -1.1712  0.7124  2.5286
  619SOL    HW2 1857   1.745   0.403   2.418 -0.0794 -0.1114 -0.5730
  620SOL     OW 1858   2.219   2.976   0.666 -0.1798 -0.2603  0.0643
  620SOL    HW1 1859   2.173   3.049   0.718 -1.2570 -0.5665 -0.1790
  620SOL    HW2 1860   2.251   2.894   0.729  1.7132  0.3671 -1.1395
  621SOL     OW 1861   2.129   1.864   1.322 -0.5346 -0.3861 -0.1182
  621SOL    HW1 1862   2.130   1.858   1.424 -1.8349 -2.7283 -0.8864
  621SOL    HW2 1863   2.097   1.776   1.275 -0.5274  2.9165  1.2357
  622SOL     OW 1864   2.246   0.899   1.796  0.0484 -0.5003 -0.3790
  622SOL    HW1 1865   2.347   0.902   1.781  0.5778  0.1549  2.2454
  622SOL    HW2 1866   2.218   0.815   1.848  2.1478 -2.2507 -0.7907
  623SOL     OW 1867   1.366   0.808   2.648  0.1462  0.1817 -0.5180
  623SOL    HW1 1868   1.304   0.747   2.703  0.9947 -2.3064  1.0924
  623SOL    HW2 1869   1.315   0.866   2.577  0.5358  0.1615 -1.6752
  624SOL     OW 1870   0.590   0.638   3.086 -0.1547 -0.2170 -0.6124
  624SOL    HW1 1871   0.610   0.696   2.998  1.5774  2.5232 -0.7532
  624SOL    HW2 1872   0.580   0.703   3.166  0.4824 -0.1365 -2.4151
  625SOL     OW 1873   2.863   1.750   0.958 -0.7921 -0.1892  0.0867
  625SOL    HW1 1874   2.766   1.753   0.999 -1.0863  2.8508  0.6932
  625SOL    HW2 1875   2.935   1.800   1.016 -0.0732 -2.2170 -1.4889
  626SOL     OW 1876   0.611   2.698   1.849  0.2508 -0.5080  0.3010
  626SOL    HW1 1877   0.640   2.789   1.893 -1.7198  0.5701  0.4888
  626SOL    HW2 1878   0.507   2.697   1.826  0.5247 -0.2445 -1.4405
  627SOL     OW 1879   0.728   0.991   1.512  0.2172 -0.0927  0.4026
  627SOL    HW1 1880   0.747   0.897   1.467  0.2065  0.0101 -0.6805
  627SOL    HW2 1881   0.789   1.057   1.460 -0.2778 -1.6591  0.1163
  628SOL     OW 1882   2.394   0.179   0.730  0.4479 -0.0251  0.2023
  628SOL    HW1 1883   2.410   0.084   0.689 -1.1680  0.3111 -0.8731
  628SOL    HW2 1884   2.300   0.185   0.763 -1.3419 -3.4603 -3.7193
  629SOL     OW 1885   1.955   0.902   1.981 -0.5483 -0.2486  0.1180
  629SOL    HW1 1886   2.056   0.877   1.976 -0.4401  1.2913  3.6183
  629SOL    HW2 1887   1.940   1.002   2.005  2.1324  0.6137  0.2714
  630SOL     OW 1888   2.855   2.211   0.852 -0.6387 -0.1458 -0.6867
  630SOL    HW1 1889   2.774   2.277   0.840  0.2897  0.4156 -0.4936
  630SOL    HW2 1890   2.838   2.116   0.815  3.7002  1.8804 -1.2287
  631SOL     OW 1891   2.944   0.137   2.098 -0.3689 -0.3068 -0.1221
  631SOL    HW1 1892   2.977   0.197   2.180  0.6296  1.6945  3.5693
  631SOL    HW2 1893   3.020   0.114   2.032 -0.7323  0.4576  0.1342
  632SOL     OW 1894   2.433   2.512   0.675 -0.4438 -0.0928  0.4361
  632SOL    HW1 1895   2.475   2.585   0.731 -1.6208  1.7324 -0.5762
  632SOL    HW2 1896   2.428   2.542   0.575  1.3317  0.0192 -1.4532
  633SOL     OW 1897   1.467   1.248   2.513  0.8656  0.0426 -0.0011
  633SOL    HW1 1898   1.467   1.330   2.577 -0.3309  0.4907 -0.3910
  633SOL    HW2 1899   1.394   1.258   2.444  0.2552  1.5641  1.0567
  634SOL     OW 1900   0.684   1.948   0.935 -0.4518  0.2781 -0.1878
  634SOL    HW1 1901   0.600   1.983   0.983 -0.7362  0.1377 -0.7934
  634SOL    HW2 1902   0.760   2.021   0.930  0.9881 -0.8276 -0.5123
  635SOL     OW 1903   3.089   2.320   3.059  0.1045  0.0513 -0.2926
  635SOL    HW1 1904   3.028   2.358   2.987  0.3998  0.6635 -0.4360
  635SOL    HW2 1905   3.094   2.382   3.141 -0.7073 -0.0020  2.1776
  636SOL     OW 1906   2.277   2.713   2.095  0.0085 -0.1777 -0.2872
  636SOL    HW1 1907   2.268   2.814   2.084  2.1919  1.3250 -0.2073
  636SOL    HW2 1908   2.252   2.675   2.192 -0.1865  0.2372 -0.2643
  637SOL     OW 1909   2.609   0.722   2.026 -0.3428  0.3837 -0.1162
  637SOL    HW1 1910   2.553   0.726   1.941 -2.4467 -1.4574 -2.3163
  637SOL    HW2 1911   2.648   0.814   2.056 -1.5235  0.9547  0.5052
  638SOL     OW 1912   2.398   1.802   1.241  0.3022  0.2303  0.5509
  638SOL    HW1 1913   2.305   1.845   1.253 -1.0633  1.0736  0.2256
  638SOL    HW2 1914   2.436   1.771   1.335 -2.0331  1.1228  0.8320
  639SOL     OW 1915   1.306   2.180   1.707  0.1273 -0.1057 -0.2370
  639SOL    HW1 1916   1.361   2.126   1.638  3.0916  2.8709 -1.7225
  639SOL    HW2 1917   1.208   2.149   1.723  2.0874 -1.4956  1.3733
  640SOL     OW 1918   0.216   1.155   1.566  0.5009 -0.1090 -0.4344
  640SOL    HW1 1919   0.196   1.192   1.661  0.9895 -0.6415 -1.0442
  640SOL    HW2 1920   0.314   1.122   1.550 -1.7778 -1.2156 -3.5474
  641SOL     OW 1921   2.032   0.147   1.528  0.1904 -0.2771  0.3427
  641SOL    HW1 1922   1.993   0.152   1.627 -0.2326 -1.1886  0.6423
  641SOL    HW2 1923   2.132   0.123   1.530 -0.7511 -3.5321  3.4694
  642SOL     OW 1924   1.946   0.130   0.293  0.0119 -0.3125  0.1870
  642SOL    HW1 1925   2.045   0.141   0.329 -1.2936 -0.8992 -0.0880
  642SOL    HW2 1926   1.878   0.125   0.375  0.6046  1.4700  0.4791
  643SOL     OW 1927   2.895   1.868   2.062 -0.4626 -0.1831  0.4140
  643SOL    HW1 1928   2.833   1.797   2.018 -0.4521 -0.4193 -0.0852
  643SOL    HW2 1929   2.898   1.959   2.006  1.1385  0.2852  2.6744
  644SOL     OW 1930   2.269   2.382   1.213 -0.1809 -0.1274 -0.5936
  644SOL    HW1 1931   2.329   2.306   1.175  0.5800 -1.4980 -0.0127
  644SOL    HW2 1932   2.226   2.369   1.308  0.4607 -2.4786  3.4574
  645SOL     OW 1933   0.643   0.870   1.275  0.1557  0.2140  0.0362
  645SOL    HW1 1934   0.540   0.853   1.299 -0.4969  1.5718  1.0108
  645SOL    HW2 1935   0.671   0.853   1.177 -0.4299 -1.6414 -1.7871
  646SOL     OW 1936   1.415   1.922   1.915  0.7241 -0.1059 -0.5882
  646SOL    HW1 1937   1.495   1.984   1.896  1.2466  0.7299 -0.0732
  646SOL    HW2 1938   1.356   1.962   1.990  1.3213 -0.3267 -2.2930
  647SOL     OW 1939   0.815   1.077   0.656  0.2947  0.0283 -0.6281
  647SOL    HW1 1940   0.870   1.074   0.743 -1.0570  0.4273  0.1732
  647SOL    HW2 1941   0.761   0.991   0.656 -2.2326  0.4090  0.4622
  648SOL     OW 1942   0.116   0.183   0.222  0.1165 -0.0703  0.2445
  648SOL    HW1 1943   0.125   0.126   0.138 -0.0166  1.0790  0.2709
  648SOL    HW2 1944   0.127   0.288   0.204  0.5519  2.4801 -0.4328
  649SOL     OW 1945   3.047   0.225   0.880 -0.0209  0.4070 -0.1354
  649SOL    HW1 1946   3.117   0.154   0.903  0.4853  0.3292  0.4383
  649SOL    HW2 1947   3.076   0.314   0.925  0.0928 -0.9546  3.0500
  650SOL     OW 1948   2.717   0.658   1.428 -0.2974 -0.5427  0.4259
  650SOL    HW1 1949   2.611   0.640   1.436 -2.3342  2.3455  0.1500
  650SOL    HW2 1950   2.729   0.744   1.371  0.2435 -0.4262 -0.7352
  651SOL     OW 1951   0.940   1.566   1.586  0.4046 -0.1900 -0.1607
  651SOL    HW1 1952   0.897   1.656   1.611 -0.8639  2.1924 -0.0259
  651SOL    HW2 1953   0.987   1.579   1.494 -1.9170 -0.8298  0.1401
  652SOL     OW 1954   2.292   2.450   2.518 -0.4191  0.1976  0.6272
  652SOL    HW1 1955   2.225   2.421   2.593 -2.5422 -4.0408 -1.8201
  652SOL    HW2 1956   2.244   2.516   2.449 -0.9715 -2.2653  0.6437
  653SOL     OW 1957   2.688   1.192   0.177 -0.3507 -0.3574 -0.2837
  653SOL    HW1 1958   2.744   1.279   0.183  0.2948  0.6107  1.7380
  653SOL    HW2 1959   2.753   1.117   0.203  1.0652 -0.8996  2.0852
  654SOL     OW 1960   1.298   2.256   1.260  0.0859  0.0542  0.0802
  654SOL    HW1 1961   1.292   2.190   1.342 -1.2826  0.8859  1.3897
  654SOL    HW2 1962   1.329   2.204   1.171  0.7832 -0.8044 -2.9510
  655SOL     OW 1963   0.186   0.959   1.866  0.7070  0.5157 -0.3389
  655SOL    HW1 1964   0.213   0.875   1.808  1.0735  0.4330  0.1360
  655SOL    HW2 1965   0.264   1.027   1.890  1.2152 -0.3018  0.6576
  656SOL     OW 1966   2.550   2.501   2.621 -0.1273  0.4277  0.7206
  656SOL    HW1 1967   2.617   2.501   2.539 -1.7695 -4.4291 -2.6833
  656SOL    HW2 1968   2.449   2.491   2.588  3.2774  0.6247  0.3227
  657SOL     OW 1969   3.031   1.052   1.940  0.7175  0.2428 -0.0380
  657SOL    HW1 1970   3.026   1.154   1.964  0.6201  2.3422 -1.7975
  657SOL    HW2 1971   3.129   1.027   1.906 -0.2431 -2.4981  1.3306
  658SOL     OW 1972   1.724   0.227   2.410  0.0637  0.3286  0.0812
  658SOL    HW1 1973   1.747   0.142   2.469 -0.0214  0.4465  2.0375
  658SOL    HW2 1974   1.733   0.207   2.307  1.0380 -1.4090 -1.9917
  659SOL     OW 1975   1.461   0.650   2.943 -0.0526  0.1678 -0.0883
  659SOL    HW1 1976   1.513   0.739   2.968 -1.3322  2.6756  0.4009
  659SOL    HW2 1977   1.376   0.664   2.882  1.1000 -1.6768 -0.6967
  660SOL     OW 1978   1.396   0.357   1.457  0.1393 -0.2611  0.2710
  660SOL    HW1 1979   1.444   0.390   1.541 -0.6363 -2.0091 -3.9981
  660SOL    HW2 1980   1.443   0.272   1.416 -0.1143 -1.2430 -1.1951
  661SOL     OW 1981   2.503   1.189   0.656  0.4996 -0.0721  0.2592
  661SOL    HW1 1982   2.532   1.187   0.554  0.8469  1.0997  0.7457
  661SOL    HW2 1983   2.454   1.274   0.683 -1.5517  0.6199  2.2685
  662SOL     OW 1984   1.371   0.448   1.840 -0.3041 -0.1424  0.6990
  662SOL    HW1 1985   1.326   0.354   1.819 -2.2205  0.9503 -0.9464
  662SOL    HW2 1986   1.334   0.492   1.928  1.1889  0.0868  1.8332
  663SOL     OW 1987   0.758   1.549   2.199 -0.0097  0.6011 -0.4639
  663SOL    HW1 1988   0.735   1.641   2.232  0.1254 -2.4732 -0.0780
  663SOL    HW2 1989   0.698   1.513   2.126 -3.5794 -4.5780  1.0741
  664SOL     OW 1990   1.639   2.088   1.489 -0.0349  0.3420  0.3477
  664SOL    HW1 1991   1.578   2.019   1.540 -0.7892 -1.2299  3.6541
  664SOL    HW2 1992   1.744   2.073   1.500  1.2414  0.8135 -2.1613
  665SOL     OW 1993   2.268   0.652   1.958 -0.3859 -0.2425  0.6111
  665SOL    HW1 1994   2.244   0.559   1.992  3.0332 -0.5453 -1.3753
  665SOL    HW2 1995   2.270   0.729   2.032 -2.0332  0.4088 -1.0199
  666SOL     OW 1996   0.376   2.348   0.406  0.3256 -0.0366  0.8656
  666SOL    HW1 1997   0.445   2.394   0.467  0.8853 -0.8995 -1.0289
  666SOL    HW2 1998   0.282   2.317   0.450 -0.2338 -0.0557  1.2965
  667SOL     OW 1999   1.981   0.142   1.175  0.0809  0.2415  0.2300
  667SOL    HW1 2000   1.996   0.242   1.167 -0.0798  0.8239 -3.6337
  667SOL    HW2 2001   1.906   0.115   1.244 -2.2067 -2.2515 -0.6676
  668SOL     OW 2002   1.997   0.502   1.189 -0.4875 -0.3202  0.7122
  668SOL    HW1 2003   2.060   0.549   1.121  0.5856 -2.0860  0.0982
  668SOL    HW2 2004   2.051   0.468   1.269 -1.5493  2.2879 -2.0227
  669SOL     OW 2005   3.065   2.215   1.001  0.1391  0.2506 -0.4691
  669SOL    HW1 2006   2.995   2.209   0.927 -1.7140 -0.0234 -1.2480
  669SOL    HW2 2007   3.041   2.260   1.088  0.4254 -0.1590  0.7801
  670SOL     OW 2008   2.851   2.337   1.937  0.0722  0.2488 -0.0072
  670SOL    HW1 2009   2.797   2.316   2.026 -0.7601 -0.3621 -1.2881
  670SOL    HW2 2010   2.866   2.437   1.928  0.7448  1.7998  1.7303
  671SOL     OW 2011   1.769   1.757   1.462 -0.2709 -0.2437 -0.9857
  671SOL    HW1 2012   1.826   1.781   1.379  1.2419 -0.5563  0.8965
  671SOL    HW2 2013   1.724   1.662   1.447 -2.3735 -3.3955 -0.6312
  672SOL     OW 2014   0.381   0.619   2.366 -0.4166  0.0714 -0.5550
  672SOL    HW1 2015   0.447   0.672   2.304  1.1383  1.9613  0.1898
  672SOL    HW2 2016   0.300   0.672   2.394 -0.6389 -0.3509  1.2333
  673SOL     OW 2017   0.131   1.172   1.173  0.7379  0.0610  0.3506
  673SOL    HW1 2018   0.154   1.242   1.245 -0.4283 -0.9554 -2.3893
  673SOL    HW2 2019   0.215   1.151   1.114  0.8830 -0.7056 -0.2636
  674SOL     OW 2020   1.607   2.927   0.229 -0.0497  0.1165 -0.0857
  674SOL    HW1 2021   1.613   3.022   0.180 -2.6264  2.2097 -0.7767
  674SOL    HW2 2022   1.650   2.850   0.178 -1.6276 -2.2370  1.0549
  675SOL     OW 2023   1.676   0.823   2.312 -0.5695  0.4211  0.1574
  675SOL    HW1 2024   1.770   0.793   2.282 -0.8883 -1.3715 -0.5272
  675SOL    HW2 2025   1.594   0.754   2.297 -3.0761 -2.0940 -2.0189
  676SOL     OW 2026   2.480   1.448   2.014 -0.0737  0.3356  0.1354
  676SOL    HW1 2027   2.489   1.428   1.909 -1.0715 -0.2248  0.3345
  676SOL    HW2 2028   2.544   1.389   2.064 -0.4988  2.1515  0.2121
  677SOL     OW 2029   1.959   0.706   0.839  0.4170 -0.3429 -1.0634
  677SOL    HW1 2030   1.991   0.717   0.933 -0.2798 -1.1933 -0.4901
  677SOL    HW2 2031   1.970   0.611   0.807 -1.6354 -0.7154  0.6236
  678SOL     OW 2032   0.037   0.766   1.690  0.8546 -0.5746 -0.3393
  678SOL    HW1 2033   0.139   0.744   1.711 -0.2869 -0.3554 -1.5925
  678SOL    HW2 2034  -0.021   0.787   1.772  1.0718  1.8665 -1.4088
  679SOL     OW 2035   2.601   1.183   1.109 -0.4520 -0.8361  0.2182
  679SOL    HW1 2036   2.502   1.184   1.136  1.2281  2.0067  1.1968
  679SOL    HW2 2037   2.623   1.091   1.064 -0.5308 -1.1084 -0.6138
  680SOL     OW 2038   2.783   0.626   1.718 -0.1137 -0.1048 -0.1651
  680SOL    HW1 2039   2.770   0.645   1.616 -0.8005  0.0787 -0.8684
  680SOL    HW2 2040   2.819   0.711   1.765 -2.0698 -0.4149 -1.2040
  681SOL     OW 2041   3.012   0.179   1.654 -0.8429 -0.5272 -0.1980
  681SOL    HW1 2042   3.094   0.175   1.590 -0.5866  0.2095 -1.3707
  681SOL    HW2 2043   2.933   0.238   1.605  0.4742 -0.2812 -3.2691
  682SOL     OW 2044   0.706   0.030   1.280 -0.3411  0.2015  0.2391
  682SOL    HW1 2045   0.652  -0.044   1.335 -2.0430 -1.9986  0.1374
  682SOL    HW2 2046   0.747  -0.005   1.185  0.4975  1.2581 -2.1401
  683SOL     OW 2047   1.332   0.201   2.201 -0.3457  0.6816 -0.0941
  683SOL    HW1 2048   1.289   0.283   2.245  0.1930 -1.0691  0.6978
  683SOL    HW2 2049   1.417   0.228   2.149  1.0424 -0.6806 -1.3956
  684SOL     OW 2050   1.468   2.122   0.556  0.1217  0.3380  0.0326
  684SOL    HW1 2051   1.528   2.048   0.602 -1.0366 -0.7779  3.3600
  684SOL    HW2 2052   1.381   2.082   0.510 -1.4103  0.8456  0.7315
  685SOL     OW 2053   2.163   2.003   1.957  0.0868  0.4219 -0.2772
  685SOL    HW1 2054   2.230   1.974   1.885  2.2722 -0.2320 -2.7278
  685SOL    HW2 2055   2.191   1.962   2.049 -0.3973 -0.0217 -0.9315
  686SOL     OW 2056   1.512   1.802   2.762  0.3597  0.1299 -0.0870
  686SOL    HW1 2057   1.551   1.783   2.857 -2.5475  3.0595  2.4637
  686SOL    HW2 2058   1.577   1.767   2.692  0.1117 -2.4597  1.7790
  687SOL     OW 2059   1.263   2.492   1.978 -0.5431  0.6177 -0.4448
  687SOL    HW1 2060   1.263   2.391   1.960  4.2249  0.8782 -0.0751
  687SOL    HW2 2061   1.361   2.517   2.016  0.9969 -0.9308  1.0149
  688SOL     OW 2062   2.071   1.585   1.752 -0.0280 -0.5498  0.0112
  688SOL    HW1 2063   2.171   1.596   1.777 -1.8042  0.1037 -0.1690
  688SOL    HW2 2064   2.046   1.563   1.652 -1.8462 -1.2794 -0.1165
  689SOL     OW 2065   2.468   1.069   2.656 -0.0471  0.3974  0.1941
  689SOL    HW1 2066   2.372   1.039   2.673  1.3756 -1.9941 -2.8736
  689SOL    HW2 2067   2.514   1.075   2.750  2.2895  0.2699  1.9937
  690SOL     OW 2068   2.264   2.805   0.050  0.6827 -0.2520  0.3595
  690SOL    HW1 2069   2.209   2.736  -0.009  0.3519 -1.9106  0.0248
  690SOL    HW2 2070   2.223   2.840   0.142  1.0403  2.9165 -1.6509
  691SOL     OW 2071   2.582   0.492   2.153 -0.3671 -0.0948 -1.1693
  691SOL    HW1 2072   2.604   0.419   2.080  1.5052 -1.1347 -4.9627
  691SOL    HW2 2073   2.597   0.589   2.118 -1.9172  0.1855 -1.1451
  692SOL     OW 2074   2.764   1.213   0.711  0.1644 -0.1214 -0.0440
  692SOL    HW1 2075   2.664   1.210   0.691 -0.0840 -1.1256  1.9670
  692SOL    HW2 2076   2.792   1.294   0.776 -0.8177 -1.9059  2.0225
  693SOL     OW 2077   2.780   2.956   0.661 -0.1887 -0.2894 -0.1039
  693SOL    HW1 2078   2.800   3.047   0.706 -0.2304 -1.4153 -2.1089
  693SOL    HW2 2079   2.738   2.972   0.567  0.4464  2.2737 -0.7945
  694SOL     OW 2080   2.393   2.213   0.081  0.5453  0.0937  0.0892
  694SOL    HW1 2081   2.360   2.305   0.125  1.8192  0.9689 -0.6365
  694SOL    HW2 2082   2.319   2.146   0.048  1.0722  0.2725 -0.2045
  695SOL     OW 2083   0.600   2.952   1.493  0.2675  0.1616 -0.0401
  695SOL    HW1 2084   0.538   2.887   1.434 -1.8169 -0.0121 -1.4126
  695SOL    HW2 2085   0.549   3.000   1.572 -0.3567  0.5515  2.1424
  696SOL     OW 2086   2.839   1.943   0.760 -0.0959  0.6128 -0.8556
  696SOL    HW1 2087   2.823   1.855   0.814 -3.3989  0.0244  0.9339
  696SOL    HW2 2088   2.881   1.925   0.670 -1.3416  0.5144 -0.2353
  697SOL     OW 2089   1.638   2.082   1.815  0.0239  0.1098  0.1012
  697SOL    HW1 2090   1.712   2.032   1.860  0.9490  0.0944 -0.3566
  697SOL    HW2 2091   1.676   2.171   1.775  1.3882 -2.1462  0.5495
  698SOL     OW 2092   2.958   0.401   2.765  0.3696 -0.8236 -0.1563
  698SOL    HW1 2093   2.952   0.364   2.671  3.2951  0.2355  0.0932
  698SOL    HW2 2094   3.014   0.336   2.827 -0.0415  0.1691  2.2540
  699SOL     OW 2095   1.566   0.092   2.942  0.1613 -0.4199  0.8144
  699SOL    HW1 2096   1.522   0.003   2.902  2.9088  0.2233 -1.5245
  699SOL    HW2 2097   1.607   0.154   2.869 -0.9479 -0.4084 -2.3773
  700SOL     OW 2098   1.013   2.309   1.310 -0.2223  0.1109  0.0106
  700SOL    HW1 2099   1.116   2.283   1.312  0.6345  0.1757 -0.1956
  700SOL    HW2 2100   0.961   2.243   1.253  0.7369 -1.0717 -1.4176
  701SOL     OW 2101   1.938   2.842   3.074 -0.0605 -0.3776 -0.6421
  701SOL    HW1 2102   1.916   2.795   3.161 -0.7967  1.1701 -1.3028
  701SOL    HW2 2103   1.959   2.942   3.095 -2.5562 -0.8347  1.0215
  702SOL     OW 2104   2.039   1.336   1.925  0.4635 -0.1299 -0.0509
  702SOL    HW1 2105   2.131   1.290   1.921 -2.5639  1.7540  0.6952
  702SOL    HW2 2106   2.013   1.359   1.826  0.2679 -0.7868 -2.2580
  703SOL     OW 2107   1.953   0.889   1.412  0.1027 -0.0111 -0.0875
  703SOL    HW1 2108   1.954   0.792   1.446  1.6128 -0.7758 -0.4416
  703SOL    HW2 2109   1.998   0.953   1.477 -2.0420 -0.7350 -2.2959
  704SOL     OW 2110   0.346   2.036   1.684 -0.2267  0.1616 -0.3809
  704SOL    HW1 2111   0.375   1.986   1.768 -1.7428 -0.1213 -3.0958
  704SOL    HW2 2112   0.401   2.128   1.679 -0.8537  0.8396 -2.1036
  705SOL     OW 2113   2.496   1.391   0.966  0.2994 -0.3593 -0.1856
  705SOL    HW1 2114   2.489   1.394   0.862  0.6885 -0.2450 -0.1665
  705SOL    HW2 2115   2.560   1.320   0.995 -0.8148 -0.6651  0.3918
  706SOL     OW 2116   0.661   1.709   1.831 -0.5784  0.5192 -0.1745
  706SOL    HW1 2117   0.683   1.607   1.855  0.7899 -0.2327  0.5572
  706SOL    HW2 2118   0.709   1.779   1.892  0.3752  0.1822 -0.2143
  707SOL     OW 2119   2.263   1.174   1.873 -0.5929 -0.2079  0.0614
  707SOL    HW1 2120   2.351   1.182   1.918 -0.6196  0.1719 -0.6813
  707SOL    HW2 2121   2.248   1.078   1.833 -0.4144 -1.4587  1.8683
  708SOL     OW 2122   2.980   0.538   3.038 -0.0577 -0.4875  0.0157
  708SOL    HW1 2123   3.041   0.589   2.968 -1.2582 -1.9876 -1.0817
  708SOL    HW2 2124   2.994   0.428   3.016 -0.5867 -2.7023 -4.6532
  709SOL     OW 2125   1.780   1.851   0.208 -0.1027  0.4263  0.2602
  709SOL    HW1 2126   1.839   1.933   0.218 -2.5644 -0.0540  1.4312
  709SOL    HW2 2127   1.778   1.815   0.109  0.4034 -1.4195  0.1397
  710SOL     OW 2128   1.701   1.622   2.412 -0.4040 -0.1497 -0.0869
  710SOL    HW1 2129   1.739   1.602   2.323 -0.8921  1.1274  1.8383
  710SOL    HW2 2130   1.741   1.552   2.475  1.5407  1.5138 -0.5162
  711SOL     OW 2131   2.696   2.970   0.971  0.1053 -0.2809 -0.3471
  711SOL    HW1 2132   2.669   3.060   0.929  0.8318 -1.6863 -0.8437
  711SOL    HW2 2133   2.798   2.944   0.950  0.3734  1.2824 -1.8987
  712SOL     OW 2134   1.355   2.242   1.984  0.4368  0.0536  0.1932
  712SOL    HW1 2135   1.449   2.268   2.016  0.3574 -2.5431 -0.2727
  712SOL    HW2 2136   1.348   2.231   1.882 -1.3814  0.0822  2.6113
  713SOL     OW 2137   2.939   1.454   2.586 -0.1594  0.3668  0.0132
  713SOL    HW1 2138   2.870   1.382   2.552  0.6605  2.0467 -1.8977
  713SOL    HW2 2139   2.904   1.494   2.679 -1.8328  1.6908 -1.4452
  714SOL     OW 2140   2.675   0.513   2.426 -0.2265 -0.7031 -0.5673
  714SOL    HW1 2141   2.615   0.476   2.499 -0.5171  0.6831 -0.8165
  714SOL    HW2 2142   2.637   0.506   2.331 -0.2405 -0.0557 -1.6152
  715SOL     OW 2143   1.595   2.042   1.206  0.0521  0.1745  0.0015
  715SOL    HW1 2144   1.524   2.065   1.135 -0.7694 -0.5491 -1.0094
  715SOL    HW2 2145   1.593   2.104   1.288 -1.4555 -1.9198 -0.5026
  716SOL     OW 2146   1.189   0.156   1.477 -0.1182  0.8363  0.6144
  716SOL    HW1 2147   1.088   0.177   1.481 -0.8539 -1.8732 -0.2684
  716SOL    HW2 2148   1.254   0.238   1.471  0.0979  0.8827  0.5053
  717SOL     OW 2149   1.108   0.568   1.610 -0.0019  0.4870  0.4394
  717SOL    HW1 2150   1.205   0.594   1.640 -1.2052 -0.5865 -0.1120
  717SOL    HW2 2151   1.093   0.535   1.514  0.3177  0.1183  2.6513
  718SOL     OW 2152   0.719   0.925   0.945  0.3256  0.1230 -0.4892
  718SOL    HW1 2153   0.682   0.898   0.852 -1.4569  2.9923  1.1483
  718SOL    HW2 2154   0.676   1.015   0.977 -2.0045 -0.5720 -2.2510
  719SOL     OW 2155   0.682   1.796   2.286 -0.1233  0.2540 -0.6302
  719SOL    HW1 2156   0.752   1.843   2.351  2.5998 -1.5994 -2.9397
  719SOL    HW2 2157   0.587   1.771   2.327 -2.5190 -0.8278 -0.8671
  720SOL     OW 2158   2.181   1.159   0.254 -0.4043 -0.0801  0.0332
  720SOL    HW1 2159   2.242   1.088   0.206  0.7130  1.3722 -0.1588
  720SOL    HW2 2160   2.183   1.147   0.355 -1.0425 -0.9445 -2.4756
  721SOL     OW 2161   2.281   2.998   2.115  0.3760 -0.0637 -0.7804
  721SOL    HW1 2162   2.245   3.026   2.021 -3.4254 -0.5686 -0.4518
  721SOL    HW2 2163   2.218   3.023   2.198 -1.7656 -0.3931 -0.7626
  722SOL     OW 2164   2.364   1.617   0.546 -0.6203  0.1457  1.3145
  722SOL    HW1 2165   2.389   1.603   0.446  0.1042  1.0024  0.6165
  722SOL    HW2 2166   2.289   1.694   0.562 -0.3577  3.4329  1.5339
  723SOL     OW 2167   2.519   2.719   1.988  0.4886 -0.5293  0.5453
  723SOL    HW1 2168   2.576   2.782   2.047 -0.8032 -0.3188  1.9226
  723SOL    HW2 2169   2.418   2.723   2.021 -0.8977 -0.9701 -1.1135
  724SOL     OW 2170   0.535   2.463   2.427  0.0951  0.2466 -0.3206
  724SOL    HW1 2171   0.439   2.429   2.450 -4.2026  0.5713  0.8930
  724SOL    HW2 2172   0.595   2.487   2.508  1.6407 -1.0418  1.6724
  725SOL     OW 2173   2.430   2.800   1.512  0.2128 -0.4921  0.3231
  725SOL    HW1 2174   2.422   2.792   1.408 -0.0986 -2.0048 -1.4185
  725SOL    HW2 2175   2.397   2.709   1.558 -2.6649  2.1483 -0.3034
  726SOL     OW 2176   2.436   2.242   0.694 -0.8071  0.2317 -0.4633
  726SOL    HW1 2177   2.402   2.336   0.682  1.3403 -3.1853  0.5719
  726SOL    HW2 2178   2.459   2.189   0.603 -0.1108 -1.4572 -1.3207
  727SOL     OW 2179   0.139   3.074   0.041  0.1168 -0.5727 -0.1042
  727SOL    HW1 2180   0.186   2.984   0.056  0.5220  0.0272  1.8082
  727SOL    HW2 2181   0.104   3.080  -0.054  0.6104  0.0616  2.5869
  728SOL     OW 2182   2.864   0.683   0.970  0.4521  0.1849 -0.1662
  728SOL    HW1 2183   2.770   0.654   0.933 -3.9863 -1.3629  2.2269
  728SOL    HW2 2184   2.877   0.645   1.068 -1.9879  0.9745  1.6179
  729SOL     OW 2185   3.010   2.491   0.757 -0.3793  0.7341 -0.2306
  729SOL    HW1 2186   2.961   2.419   0.825 -4.0688 -1.4440  0.8583
  729SOL    HW2 2187   3.113   2.468   0.748 -1.1857 -2.1491  1.7840
  730SOL     OW 2188   2.633   0.661   0.836 -0.3342 -0.3192 -0.0777
  730SOL    HW1 2189   2.552   0.711   0.794 -0.0805 -0.7492  1.0274
  730SOL    HW2 2190   2.698   0.657   0.761 -0.2681  1.9924  1.6516
  731SOL     OW 2191   0.137   2.172   2.434  0.1347 -0.0734 -0.1463
  731SOL    HW1 2192   0.148   2.189   2.535 -2.1468  1.7033  0.9793
  731SOL    HW2 2193   0.121   2.253   2.375  2.0282 -2.4170 -0.4053
  732SOL     OW 2194   1.135   2.849   1.943 -0.5011 -0.1346 -0.2200
  732SOL    HW1 2195   1.161   2.814   2.039  1.6213 -0.7918  0.5224
  732SOL    HW2 2196   1.148   2.774   1.864 -0.3414 -1.7403 -1.9966
  733SOL     OW 2197   3.038   0.558   2.240  0.1029 -0.2168 -0.1089
  733SOL    HW1 2198   3.126   0.586   2.197  1.3744  1.2293 -1.7577
  733SOL    HW2 2199   2.956   0.553   2.167 -0.8376  0.1001 -2.1586
  734SOL     OW 2200   1.420   0.354   2.760 -0.1697  0.3337 -0.0904
  734SOL    HW1 2201   1.443   0.453   2.795 -1.2338  1.3465  0.2348
  734SOL    HW2 2202   1.326   0.325   2.786 -0.8273  0.3458 -0.3956
  735SOL     OW 2203   2.883   2.635   2.240  0.0673 -0.0467 -0.1721
  735SOL    HW1 2204   2.855   2.610   2.141 -0.8980  2.1650 -2.8515
  735SOL    HW2 2205   2.983   2.651   2.250  0.4073  0.2772  3.2796
  736SOL     OW 2206   0.750   0.300   2.670 -0.0455  0.1744 -0.3288
  736SOL    HW1 2207   0.653   0.294   2.656  0.9192 -0.1271  1.2364
  736SOL    HW2 2208   0.801   0.264   2.589 -1.6404  2.3980 -0.3259
  737SOL     OW 2209   2.679   0.398   2.878 -0.1456 -0.7269 -0.6320
  737SOL    HW1 2210   2.644   0.393   2.977  0.4292 -0.2307 -0.4421
  737SOL    HW2 2211   2.780   0.415   2.866 -0.1395  2.4553  1.9893
  738SOL     OW 2212   1.620   1.264   2.914 -0.7122 -0.2989  0.2586
  738SOL    HW1 2213   1.723   1.252   2.908 -1.8302  2.0629 -1.9438
  738SOL    HW2 2214   1.571   1.205   2.849  0.0160 -0.0195  1.3269
  739SOL     OW 2215   1.733   0.609   0.689 -0.4237  0.0177  0.0927
  739SOL    HW1 2216   1.777   0.651   0.777  0.7789  0.2996 -0.3032
  739SOL    HW2 2217   1.790   0.527   0.652 -0.8108 -1.4102 -0.6286
  740SOL     OW 2218   2.007   1.921   2.252  0.1269 -0.3306  0.7213
  740SOL    HW1 2219   2.040   1.864   2.337  0.8586  0.7042  3.4768
  740SOL    HW2 2220   1.960   1.865   2.182  0.4916  2.7703  1.6507
  741SOL     OW 2221   2.535   0.062   2.627  0.0461  0.3925  0.3214
  741SOL    HW1 2222   2.640   0.058   2.619 -1.2426  2.0015  1.7560
  741SOL    HW2 2223   2.481   0.015   2.553 -2.1405 -1.2467  1.2452
  742SOL     OW 2224   2.237   1.456   0.241 -0.0405  0.3738 -0.4518
  742SOL    HW1 2225   2.154   1.521   0.249 -1.2715  0.0143 -2.5006
  742SOL    HW2 2226   2.223   1.356   0.254  0.4350  1.1840 -0.5676
  743SOL     OW 2227   1.831   0.672   2.622 -0.5511 -0.2452 -0.6646
  743SOL    HW1 2228   1.810   0.616   2.540  1.3630  0.5170  0.7663
  743SOL    HW2 2229   1.750   0.742   2.637 -0.9783  1.2501 -0.2906
  744SOL     OW 2230   2.638   2.090   0.091  0.5966  0.2550 -0.8684
  744SOL    HW1 2231   2.558   2.140   0.126 -0.5222  2.3536  1.9347
  744SOL    HW2 2232   2.623   1.994   0.066  3.3282  1.7923  0.5324
  745SOL     OW 2233   2.172   2.639   2.332 -0.1692 -0.0231  0.0512
  745SOL    HW1 2234   2.079   2.604   2.292 -1.0665  2.8491 -0.9937
  745SOL    HW2 2235   2.161   2.685   2.425 -2.6422 -1.2151  0.3869
  746SOL     OW 2236   3.067   2.645   1.726 -0.0844 -0.3692 -0.2036
  746SOL    HW1 2237   3.145   2.672   1.668 -2.0938  0.8052  1.6770
  746SOL    HW2 2238   3.034   2.726   1.781 -1.2474 -2.0773 -0.6692
  747SOL     OW 2239  -0.000   1.788   1.623  0.0318  0.0878 -0.0055
  747SOL    HW1 2240  -0.042   1.694   1.618  2.0106  3.4232  0.4348
  747SOL    HW2 2241   0.056   1.815   1.537  1.3690  1.1091 -1.0995
  748SOL     OW 2242   1.847   2.737   2.823  0.2377 -0.1759 -0.2005
  748SOL    HW1 2243   1.868   2.798   2.904  0.2034  1.8966  1.8535
  748SOL    HW2 2244   1.748   2.708   2.839 -2.0582  2.7294  3.2921
  749SOL     OW 2245   1.299   3.059   0.949  0.7750 -0.2279 -0.3343
  749SOL    HW1 2246   1.282   2.982   1.012  1.7902  4.0476  1.2271
  749SOL    HW2 2247   1.238   3.060   0.864 -0.4160  1.1594 -1.2388
  750SOL     OW 2248   2.378   0.200   1.853  0.4044  0.3282 -0.0519
  750SOL    HW1 2249   2.366   0.253   1.763  3.1179  0.0315  1.1684
  750SOL    HW2 2250   2.370   0.260   1.935 -0.4758 -1.5444  0.1556
  751SOL     OW 2251   0.915   2.187   2.726  0.4125  0.6776 -0.7284
  751SOL    HW1 2252   0.970   2.208   2.813  1.4468  0.3621 -0.3835
  751SOL    HW2 2253   0.827   2.140   2.743 -0.0403  0.6875  0.2355
  752SOL     OW 2254   1.260   0.865   1.401 -0.4053  0.1199  0.6456
  752SOL    HW1 2255   1.343   0.932   1.398  0.8141  1.6984  0.5361
  752SOL    HW2 2256   1.298   0.764   1.397 -1.0399 -2.7888  0.8275
  753SOL     OW 2257   0.937   2.579   1.715  0.1889  0.0471  0.0584
  753SOL    HW1 2258   1.031   2.627   1.715  0.9091 -0.2488 -2.3831
  753SOL    HW2 2259   0.863   2.626   1.662  0.5479 -0.4524  1.5276
  754SOL     OW 2260   1.126   1.265   3.093  0.6862  0.7021  0.3704
  754SOL    HW1 2261   1.183   1.221   3.024  2.6282  0.4958  2.1652
  754SOL    HW2 2262   1.114   1.366   3.082 -1.8037  0.5874  0.7175
  755SOL     OW 2263   1.960   0.450   2.225  0.4888 -0.0410 -0.6575
  755SOL    HW1 2264   2.043   0.410   2.272  1.9263 -0.1346  1.3370
  755SOL    HW2 2265   1.876   0.464   2.280 -1.0531 -0.1079 -2.8033
  756SOL     OW 2266   2.554   1.009   2.966  0.1940 -0.3488  0.2580
  756SOL    HW1 2267   2.655   0.992   2.982  1.5793 -1.0305 -0.3493
  756SOL    HW2 2268   2.494   0.926   3.005 -1.7019 -3.1184 -1.7026
  757SOL     OW 2269   3.064   0.443   1.779 -0.2131  0.1083  0.2298
  757SOL    HW1 2270   3.166   0.432   1.781 -2.7667  1.5728  3.1330
  757SOL    HW2 2271   3.023   0.351   1.752  0.9991 -0.2559 -3.8029
  758SOL     OW 2272   2.393   0.083   1.422  0.0143 -0.1740 -0.2314
  758SOL    HW1 2273   2.331   0.045   1.490  0.2477  1.1774 -0.6447
  758SOL    HW2 2274   2.372   0.085   1.321  0.9640 -1.1107  1.4310
  759SOL     OW 2275   1.718   0.086   0.072 -0.2186 -0.4350 -0.3011
  759SOL    HW1 2276   1.674   0.092  -0.023 -1.4430  2.0949 -0.4941
  759SOL    HW2 2277   1.809   0.039   0.076 -2.3560 -1.0388 -0.2836
  760SOL     OW 2278   2.733   2.094   2.823  0.0137  0.3983 -0.2723
  760SOL    HW1 2279   2.731   2.006   2.879  1.5183  0.7567  0.9156
  760SOL    HW2 2280   2.726   2.178   2.879 -0.7900  1.1425 -1.7199
  761SOL     OW 2281   1.896   1.786   1.716  0.3427  0.0301  0.3028
  761SOL    HW1 2282   1.945   1.701   1.759  0.6336 -3.2169  0.9131
  761SOL    HW2 2283   1.837   1.760   1.632 -0.6223  1.0959 -0.7871
  762SOL     OW 2284   0.461   2.316   0.963  0.1367  0.2727  0.2066
  762SOL    HW1 2285   0.505   2.352   0.875 -0.6873 -1.1001 -0.7653
  762SOL    HW2 2286   0.486   2.365   1.048 -1.8757 -3.2714  0.9700
  763SOL     OW 2287   2.080   1.518   2.925 -0.0011 -0.2948  0.3121
  763SOL    HW1 2288   2.173   1.505   2.973 -2.6000 -1.4105  0.5408
  763SOL    HW2 2289   2.004   1.470   2.979  2.3715 -0.8852 -0.6464
  764SOL     OW 2290   0.613   0.599   0.849  0.1485 -0.4178  0.2638
  764SOL    HW1 2291   0.573   0.520   0.797  0.0744  1.2931 -2.1409
  764SOL    HW2 2292   0.703   0.582   0.898  1.7436  1.4862  0.7993
  765SOL     OW 2293   0.707   0.244   0.797 -0.1117 -0.4175  0.0405
  765SOL    HW1 2294   0.752   0.309   0.736  1.3370 -0.8166  1.9374
  765SOL    HW2 2295   0.701   0.280   0.896  0.5866  1.6700  1.9230
  766SOL     OW 2296   2.921   2.086   0.000  0.3147  0.1955 -0.1638
  766SOL    HW1 2297   2.836   2.099   0.056 -1.9740 -0.4586 -0.6617
  766SOL    HW2 2298   2.963   2.181  -0.024 -1.9422  1.8184 -2.2287
  767SOL     OW 2299   2.808   1.564   0.595  0.3571 -0.1136 -0.1148
  767SOL    HW1 2300   2.721   1.588   0.651 -2.8457  0.8811 -2.1492
  767SOL    HW2 2301   2.890   1.579   0.652  0.8877  0.5976 -2.9189
  768SOL     OW 2302   1.101   0.203   0.353  0.5303  0.2388  1.0029
  768SOL    HW1 2303   1.021   0.159   0.400 -0.4233 -1.2255  2.1115
  768SOL    HW2 2304   1.172   0.133   0.327 -0.4141  4.1523 -1.4828
  769SOL     OW 2305   1.016   1.904   2.232  0.8114  0.2117  0.0718
  769SOL    HW1 2306   0.953   1.935   2.310  2.3633 -3.2975  1.0004
  769SOL    HW2 2307   1.015   1.799   2.237  0.1832 -1.2272 -2.1733
  770SOL     OW 2308   0.168   1.159   2.249 -0.1706  0.9876 -0.3212
  770SOL    HW1 2309   0.139   1.183   2.348  0.3058  0.6230 -0.7261
  770SOL    HW2 2310   0.094   1.113   2.199 -0.7187 -0.7053  1.6199
  771SOL     OW 2311   2.996   2.846   1.904 -0.4424  0.3658  0.3856
  771SOL    HW1 2312   2.962   2.899   1.818 -0.2664  0.0359 -1.7435
  771SOL    HW2 2313   2.961   2.885   1.998  1.0666  1.9438 -0.1462
  772SOL     OW 2314   2.198   0.169   2.934 -0.6405 -0.3574  0.0578
  772SOL    HW1 2315   2.296   0.150   2.937 -0.0757 -1.9708 -0.3270
  772SOL    HW2 2316   2.177   0.247   2.997  1.7552 -2.4841 -0.3362
  773SOL     OW 2317   0.708   2.201   2.489 -0.7801  0.2824 -0.0040
  773SOL    HW1 2318   0.663   2.196   2.396 -0.4771 -1.6241 -0.4143
  773SOL    HW2 2319   0.646   2.178   2.564 -0.2747  0.9635 -0.2701
  774SOL     OW 2320   2.001   0.022   2.639  0.0028 -0.1697  0.2432
  774SOL    HW1 2321   2.004   0.120   2.667 -1.9785  2.9689  0.4103
  774SOL    HW2 2322   2.067  -0.033   2.699 -0.3616  4.0870  1.8220
  775SOL     OW 2323   2.521   2.833   2.426  0.0788 -0.8424  0.2767
  775SOL    HW1 2324   2.534   2.934   2.420 -4.5685 -0.9389  0.4828
  775SOL    HW2 2325   2.591   2.792   2.488  2.2228  2.6834 -1.6441
  776SOL     OW 2326   0.057   1.303   0.202  0.8321  0.2903  0.0430
  776SOL    HW1 2327   0.008   1.252   0.122  2.4682  0.3954 -3.1781
  776SOL    HW2 2328   0.037   1.262   0.292  3.5726 -2.1467  1.0648
  777SOL     OW 2329   0.275   2.853   0.425 -0.5493 -0.4853  0.7720
  777SOL    HW1 2330   0.172   2.861   0.419  2.1969  1.1512  0.3491
  777SOL    HW2 2331   0.315   2.900   0.508  1.3333  0.4209 -0.5363
  778SOL     OW 2332   1.313   1.951   0.180  0.7305  0.1721  0.1742
  778SOL    HW1 2333   1.242   1.949   0.255 -1.1989 -1.6105  1.6323
  778SOL    HW2 2334   1.341   2.048   0.149 -3.8320  1.2187 -0.3980
  779SOL     OW 2335   0.197   0.850   0.488  0.1136  0.0612  0.1308
  779SOL    HW1 2336   0.163   0.753   0.476 -0.1177  0.7771  0.5538
  779SOL    HW2 2337   0.132   0.914   0.541  1.0957  1.8438  0.7533
  780SOL     OW 2338   0.090   0.266   2.242 -0.0327  0.5667  1.0192
  780SOL    HW1 2339   0.070   0.348   2.305  0.0409  1.1216 -1.3347
  780SOL    HW2 2340   0.186   0.264   2.197  0.5280  0.7274  0.6451
  781SOL     OW 2341   0.630   1.760   1.550  0.1728 -0.2318 -0.2036
  781SOL    HW1 2342   0.640   1.762   1.656 -1.0034  1.7666  2.2234
  781SOL    HW2 2343   0.532   1.737   1.532 -1.7928 -0.5644 -0.2650
  782SOL     OW 2344   2.607   0.185   0.914 -0.7724 -0.0893  0.6668
  782SOL    HW1 2345   2.522   0.189   0.855 -3.1052  0.1173  0.2768
  782SOL    HW2 2346   2.599   0.247   0.995  2.5226 -1.2977 -0.4593
  783SOL     OW 2347   2.861   0.712   2.546  0.5680  0.2065 -0.3405
  783SOL    HW1 2348   2.801   0.717   2.631 -1.9001 -0.7384  2.5191
  783SOL    HW2 2349   2.829   0.645   2.471 -1.2843  1.4784 -2.7599
  784SOL     OW 2350   1.398   2.195   0.082 -0.2142  0.0868 -0.2853
  784SOL    HW1 2351   1.483   2.239   0.117 -1.4417 -2.3860  0.0377
  784SOL    HW2 2352   1.391   2.203  -0.020  1.5556  0.2824  0.4978
  785SOL     OW 2353   2.149   0.390   3.087  0.4902 -0.3841 -0.7568
  785SOL    HW1 2354   2.080   0.386   3.170 -0.9123  2.5010  0.3219
  785SOL    HW2 2355   2.169   0.485   3.058  0.3692 -0.9524  1.3372
  786SOL     OW 2356   2.012   2.198   2.235 -0.5690 -0.0926  0.1107
  786SOL    HW1 2357   1.994   2.101   2.251  0.4447  1.5759 -1.1283
  786SOL    HW2 2358   2.103   2.221   2.190 -0.4136  0.6444 -0.8424
  787SOL     OW 2359   1.438   0.627   0.933 -0.2673 -0.2307 -0.5257
  787SOL    HW1 2360   1.360   0.688   0.963 -0.1922 -3.8332  0.1447
  787SOL    HW2 2361   1.435   0.600   0.833 -0.3468 -0.7806  0.0504
  788SOL     OW 2362   1.245   0.387   3.064 -0.2134  0.3095 -0.3018
  788SOL    HW1 2363   1.145   0.394   3.041 -2.4819 -0.5963 -1.0535
  788SOL    HW2 2364   1.268   0.471   3.112  0.5477 -0.5065 -0.5806
  789SOL     OW 2365   2.588   0.021   1.802  0.1194 -0.7101  0.0038
  789SOL    HW1 2366   2.516   0.078   1.861 -3.1873  2.2854  0.1933
  789SOL    HW2 2367   2.566  -0.077   1.791 -0.0073 -0.1765 -0.8790
  790SOL     OW 2368   2.570   2.715   0.821  0.2660  0.0062  0.7671
  790SOL    HW1 2369   2.634   2.792   0.835  1.8497 -1.2115 -0.2103
  790SOL    HW2 2370   2.576   2.640   0.888  1.4082  3.2739 -1.6109
  791SOL     OW 2371   1.917   1.241   0.267  0.0609  0.1188  0.3360
  791SOL    HW1 2372   1.825   1.200   0.295 -2.9118  0.5188  0.6507
  791SOL    HW2 2373   1.995   1.175   0.271  0.8229  1.3873 -0.9961
  792SOL     OW 2374   0.434   1.987   2.134  0.1814 -0.3793 -0.5510
  792SOL    HW1 2375   0.496   2.042   2.195 -1.9655  3.0243  1.0675
  792SOL    HW2 2376   0.346   1.960   2.183  2.3352  1.8143  1.0937
  793SOL     OW 2377   2.076   1.586   2.094 -0.4049 -0.2355 -0.4909
  793SOL    HW1 2378   2.177   1.616   2.084  2.6394  0.7793 -0.7900
  793SOL    HW2 2379   2.060   1.497   2.046 -0.0149 -0.8960  0.4452
  794SOL     OW 2380   0.438   1.359   2.470  0.5754 -0.3757  0.5303
  794SOL    HW1 2381   0.457   1.319   2.374 -2.0263 -2.3698  0.6731
  794SOL    HW2 2382   0.421   1.463   2.466  0.1820  0.2927  0.3155
  795SOL     OW 2383   2.413   2.316   1.707  0.6830  0.5396  0.7389
  795SOL    HW1 2384   2.426   2.334   1.808  1.2897 -0.1283 -1.2336
  795SOL    HW2 2385   2.341   2.241   1.684  1.0925 -0.5386  0.4109
  796SOL     OW 2386   3.098   1.096   2.676  0.5916  0.1726  0.1981
  796SOL    HW1 2387   3.000   1.113   2.711 -1.0493  1.1900  1.3106
  796SOL    HW2 2388   3.160   1.097   2.761  2.5915 -1.8720  1.0093
  797SOL     OW 2389   0.748   0.615   1.339 -0.1703 -0.0361  0.2329
  797SOL    HW1 2390   0.833   0.640   1.398  2.1199  0.6152 -1.2333
  797SOL    HW2 2391   0.695   0.700   1.307 -1.0349  1.0620 -1.3513
  798SOL     OW 2392   1.336   0.423   1.111 -0.0995  0.0508 -0.7123
  798SOL    HW1 2393   1.387   0.423   1.201  2.0405  0.5478  1.7890
  798SOL    HW2 2394   1.385   0.487   1.045 -2.6291 -0.0310  0.2409
  799SOL     OW 2395   1.947   2.617   1.060  0.0644  0.0169 -0.1643
  799SOL    HW1 2396   1.928   2.518   1.090 -0.5872 -0.4132 -1.6426
  799SOL    HW2 2397   1.865   2.644   1.008  2.3781  0.9450  2.6780
  800SOL     OW 2398   2.953   0.793   1.886 -0.5465  0.7878 -0.8656
  800SOL    HW1 2399   2.968   0.887   1.927 -0.4529 -1.7284  1.2871
  800SOL    HW2 2400   2.931   0.722   1.958 -3.9559  2.2423 -0.4791
  801SOL     OW 2401   1.982   2.199   0.029  0.6200  0.1601  0.2842
  801SOL    HW1 2402   1.915   2.197  -0.045  0.9421 -2.6933 -1.6513
  801SOL    HW2 2403   2.066   2.137   0.017 -0.7659  0.8961 -0.0494
  802SOL     OW 2404   0.607   0.817   2.589  0.3731  0.0993 -0.0718
  802SOL    HW1 2405   0.626   0.722   2.558  2.1542  1.6786 -1.6559
  802SOL    HW2 2406   0.533   0.865   2.531 -2.2828  0.0051 -0.8347
  803SOL     OW 2407   0.969   0.085   0.823  0.4295  0.3838  0.4968
  803SOL    HW1 2408   1.050   0.144   0.854 -0.0018 -0.5095  3.5016
  803SOL    HW2 2409   0.898   0.131   0.763 -0.6993  1.9893  0.3177
  804SOL     OW 2410   0.315   3.075   2.177  0.0677 -0.7840  0.5081
  804SOL    HW1 2411   0.334   3.175   2.159 -0.1595  0.1312  1.6797
  804SOL    HW2 2412   0.249   3.033   2.110 -1.2821  1.0644 -1.0030
  805SOL     OW 2413   2.341   0.409   0.375 -0.0689 -0.4299 -0.6418
  805SOL    HW1 2414   2.434   0.404   0.426  1.7119  1.9022  1.1647
  805SOL    HW2 2415   2.339   0.346   0.287  0.4392 -0.2949 -1.5843
  806SOL     OW 2416   0.690   2.439   1.789  1.0160  0.0590  0.1555
  806SOL    HW1 2417   0.633   2.524   1.816  0.3865  1.6356  1.6095
  806SOL    HW2 2418   0.759   2.465   1.718  1.3101  3.0237  0.8728
  807SOL     OW 2419   2.514   0.827   0.402 -0.1000  0.4587  0.6573
  807SOL    HW1 2420   2.609   0.847   0.435 -3.2366  1.2825 -1.7621
  807SOL    HW2 2421   2.478   0.879   0.318  1.1480 -1.8679 -1.2296
  808SOL     OW 2422   0.634   2.104   2.931 -0.1164 -0.5667  0.0755
  808SOL    HW1 2423   0.578   2.144   3.013 -0.0711 -1.1169  0.3040
  808SOL    HW2 2424   0.669   2.006   2.949 -1.8668  0.2250  0.4325
  809SOL     OW 2425   2.588   1.976   1.888 -0.1127  0.3525 -0.0584
  809SOL    HW1 2426   2.687   1.991   1.882 -0.8819  1.9023 -3.1382
  809SOL    HW2 2427   2.547   1.992   1.793  0.7185 -1.8052 -1.2278
  810SOL     OW 2428   2.199   1.103   0.539  0.4545 -0.2352 -0.4071
  810SOL    HW1 2429   2.140   1.016   0.548  1.0345  1.2114  0.1476
  810SOL    HW2 2430   2.162   1.182   0.600  1.5555 -2.2097 -0.5495
  811SOL     OW 2431   1.374   2.511   1.211  0.3825 -0.0184 -0.3824
  811SOL    HW1 2432   1.329   2.419   1.244 -1.7997 -2.4793  0.4020
  811SOL    HW2 2433   1.330   2.599   1.246  1.7016 -0.3888  1.0694
  812SOL     OW 2434   1.419   0.739   1.970  0.0152 -0.3771  0.2045
  812SOL    HW1 2435   1.449   0.796   2.052 -1.0626  0.4254  1.7179
  812SOL    HW2 2436   1.359   0.783   1.901  0.5351  0.1498  0.3413
  813SOL     OW 2437   1.661   2.069   2.488  0.4347 -0.4120 -0.3591
  813SOL    HW1 2438   1.713   1.993   2.534 -2.1927  0.3194 -2.7221
  813SOL    HW2 2439   1.602   2.036   2.406 -0.2374  0.7384 -0.8882
  814SOL     OW 2440   2.932   1.574   2.827 -0.1996 -0.3817  0.6142
  814SOL    HW1 2441   2.980   1.542   2.918  0.4329  1.5338  1.1303
  814SOL    HW2 2442   2.965   1.672   2.798  1.1095  1.0093 -2.5328
  815SOL     OW 2443   2.191   2.942   2.777 -0.1738  0.3902 -0.4932
  815SOL    HW1 2444   2.166   2.852   2.825 -1.0320 -1.1307  0.0067
  815SOL    HW2 2445   2.277   2.992   2.817 -1.1829 -0.9591 -1.4063
  816SOL     OW 2446   1.602   0.330   1.662  0.1935  0.3323  0.4784
  816SOL    HW1 2447   1.610   0.229   1.678 -3.1456  1.8008 -2.3999
  816SOL    HW2 2448   1.568   0.374   1.752 -3.0134 -0.6240  1.2016
  817SOL     OW 2449   0.369   1.155   2.631  0.4300  0.2345  0.1743
  817SOL    HW1 2450   0.263   1.158   2.640  1.0552  0.2311 -1.4788
  817SOL    HW2 2451   0.410   1.230   2.565  1.4555  2.0625  1.5331
  818SOL     OW 2452   1.960   0.929   0.395  0.2568 -1.2098  0.5120
  818SOL    HW1 2453   2.051   0.888   0.421  3.2359  0.1899 -0.4548
  818SOL    HW2 2454   1.905   0.962   0.478  2.5464  1.5283 -1.5832
  819SOL     OW 2455   2.754   2.947   3.018  0.1760 -0.0847  0.6222
  819SOL    HW1 2456   2.831   2.882   3.002  2.2874  3.9368 -0.1884
  819SOL    HW2 2457   2.671   2.917   2.968  1.4082  0.7748 -2.0300
  820SOL     OW 2458   1.212   1.051   0.568 -0.2431 -0.2810 -0.3618
  820SOL    HW1 2459   1.210   1.148   0.607 -1.1016  2.2518 -0.7543
  820SOL    HW2 2460   1.238   0.978   0.643 -0.3850 -0.4986  0.6119
  821SOL     OW 2461   0.026   1.293   0.685  0.4945  0.3129  0.3621
  821SOL    HW1 2462  -0.021   1.288   0.772 -0.3759  0.5660 -2.5056
  821SOL    HW2 2463   0.067   1.383   0.654 -0.3265 -0.9902 -3.7748
  822SOL     OW 2464   2.600   1.778   2.452  0.3213 -0.1158  0.2475
  822SOL    HW1 2465   2.578   1.858   2.518 -0.7277  1.3481 -0.4827
  822SOL    HW2 2466   2.527   1.774   2.375 -0.3676 -0.6976  0.8951
  823SOL     OW 2467   2.011   0.805   1.117 -0.0413  0.1832  0.4848
  823SOL    HW1 2468   1.967   0.795   1.213 -1.3066  0.7867  1.5817
  823SOL    HW2 2469   1.953   0.861   1.059  1.0718 -1.8625 -0.2342
  824SOL     OW 2470   0.186   1.997   2.819 -0.4283  0.1732 -0.5234
  824SOL    HW1 2471   0.191   1.911   2.880 -1.7422  2.3053  0.5575
  824SOL    HW2 2472   0.254   1.980   2.740 -0.5293  0.3850 -1.7957
  825SOL     OW 2473   1.289   1.039   0.296  0.2689  0.0681 -0.2458
  825SOL    HW1 2474   1.263   1.136   0.287 -3.1005 -1.6610  0.6920
  825SOL    HW2 2475   1.285   1.008   0.399  0.5886 -0.9445  2.0479
  826SOL     OW 2476   1.950   0.648   1.548  0.2261 -0.0151 -0.0629
  826SOL    HW1 2477   2.031   0.596   1.589 -0.1894  0.8068 -1.0508
  826SOL    HW2 2478   1.876   0.581   1.519  0.1225  1.7597  1.2430
  827SOL     OW 2479   0.746   1.207   0.287 -0.1111 -0.7373 -0.2723
  827SOL    HW1 2480   0.814   1.174   0.218 -0.4106  1.5197  1.3322
  827SOL    HW2 2481   0.667   1.143   0.296  2.8134  1.3319 -1.1384
  828SOL     OW 2482   2.628   0.150   1.541  0.0049 -0.8509 -0.4605
  828SOL    HW1 2483   2.546   0.116   1.491 -0.0360  3.0498 -1.7541
  828SOL    HW2 2484   2.614   0.126   1.642 -0.3940 -0.0368 -1.6172
  829SOL     OW 2485   2.891   2.442   2.919  0.2549 -0.1473 -0.5183
  829SOL    HW1 2486   2.807   2.384   2.937  0.4255 -0.8654 -1.6850
  829SOL    HW2 2487   2.875   2.543   2.899  1.3678  1.7095 -0.7958
  830SOL     OW 2488   2.807   0.975   3.046 -0.0091  0.3177  0.0314
  830SOL    HW1 2489   2.849   1.057   3.095  0.3857 -0.8166  0.2241
  830SOL    HW2 2490   2.820   0.893   3.110 -0.6999  0.2680 -0.9496
  831SOL     OW 2491   0.100   0.609   0.392  0.6872 -0.6189  0.5163
  831SOL    HW1 2492   0.068   0.550   0.474  3.6296 -1.0653  0.5182
  831SOL    HW2 2493   0.098   0.548   0.306  0.6564 -0.2830 -0.9167
  832SOL     OW 2494   1.831   0.795   3.012  0.2897  0.1130 -0.0917
  832SOL    HW1 2495   1.736   0.828   2.985 -0.7501 -0.8594 -0.6843
  832SOL    HW2 2496   1.836   0.698   3.045 -1.2428  1.5134 -1.3115
  833SOL     OW 2497   2.470   2.102   0.443 -0.3147 -0.7034  0.3212
  833SOL    HW1 2498   2.373   2.071   0.416 -1.9495 -0.8953 -1.3093
  833SOL    HW2 2499   2.531   2.020   0.459  2.6451  2.8217 -1.3206
  834SOL     OW 2500   0.107   0.207   0.493 -0.0930 -0.5215  0.3440
  834SOL    HW1 2501   0.110   0.119   0.549  2.8605 -0.0625 -1.8134
  834SOL    HW2 2502   0.110   0.197   0.389  1.4272  0.2317 -2.4000
  835SOL     OW 2503   2.346   1.505   1.165  0.3631 -0.3015 -0.0373
  835SOL    HW1 2504   2.346   1.610   1.181  0.4860 -0.3714  0.1403
  835SOL    HW2 2505   2.398   1.463   1.084  1.3908 -1.5049 -2.2392
  836SOL     OW 2506   1.617   0.856   2.607  0.4293 -0.0489 -0.3958
  836SOL    HW1 2507   1.513   0.852   2.630 -0.0818 -1.1675 -2.3897
  836SOL    HW2 2508   1.631   0.843   2.503  1.9656  1.2066  0.0040
  837SOL     OW 2509   1.596   0.125   0.565  0.0488  0.0650 -0.3817
  837SOL    HW1 2510   1.574   0.199   0.633 -0.1081  0.2156 -1.6721
  837SOL    HW2 2511   1.598   0.158   0.466 -0.3237 -1.3174 -0.6296
  838SOL     OW 2512   1.215   1.473   2.785 -0.4333 -0.0336  0.9214
  838SOL    HW1 2513   1.189   1.512   2.878 -2.2054  1.7754 -0.8160
  838SOL    HW2 2514   1.146   1.410   2.735 -0.0986  0.7179  0.1283
  839SOL     OW 2515   1.687   0.257   0.972 -0.4290 -0.4234  0.2273
  839SOL    HW1 2516   1.688   0.331   1.046  1.5353  0.9430  1.0708
  839SOL    HW2 2517   1.652   0.168   1.011 -0.9235 -0.5695 -1.8610
  840SOL     OW 2518   2.524   2.856   1.757 -0.3181  0.1645 -0.3231
  840SOL    HW1 2519   2.488   2.832   1.660 -0.6338  2.5616  2.3669
  840SOL    HW2 2520   2.502   2.785   1.832  1.2061  0.3360 -0.4345
  841SOL     OW 2521   1.580   0.908   2.961  0.0883  0.3281  0.1947
  841SOL    HW1 2522   1.597   0.967   3.043 -0.9528 -0.1658 -1.3908
  841SOL    HW2 2523   1.579   0.962   2.875  2.1935  0.0846  2.9470
  842SOL     OW 2524   0.826   1.521   0.947  0.8986 -0.1862  0.6696
  842SOL    HW1 2525   0.787   1.593   1.014  0.7366  3.2134 -0.7234
  842SOL    HW2 2526   0.757   1.479   0.883 -2.4243  0.6027 -0.1339
  843SOL     OW 2527   0.141   0.133   1.486  0.7163 -0.2574  0.1010
  843SOL    HW1 2528   0.212   0.170   1.551  1.1271  0.6908 -2.7426
  843SOL    HW2 2529   0.129   0.028   1.480 -0.3757 -0.2445 -0.5623
  844SOL     OW 2530   0.775   2.498   0.303 -0.3451 -0.2533 -0.2370
  844SOL    HW1 2531   0.727   2.471   0.388 -1.9747  1.4068 -3.1423
  844SOL    HW2 2532   0.714   2.524   0.224  0.6851 -1.7438  0.8596
  845SOL     OW 2533   1.632   2.846   1.369 -0.1197 -0.2580 -0.1411
  845SOL    HW1 2534   1.714   2.865   1.431  1.5185  0.9340 -0.3689
  845SOL    HW2 2535   1.548   2.905   1.381  0.4250  0.7850 -2.1606
  846SOL     OW 2536   1.628   2.978   0.836  0.6495 -0.3451  0.1478
  846SOL    HW1 2537   1.602   3.035   0.752  4.2244  3.1722 -0.4953
  846SOL    HW2 2538   1.730   2.961   0.845 -0.2806  3.1165  0.4852
  847SOL     OW 2539   2.021   1.640   0.245 -0.3733  0.2473 -0.1811
  847SOL    HW1 2540   1.986   1.588   0.326  1.1153  0.7956  2.4284
  847SOL    HW2 2541   1.950   1.705   0.199 -1.9020 -0.2827 -4.3410
  848SOL     OW 2542   2.509   0.796   2.657  0.0699  0.2349  0.1607
  848SOL    HW1 2543   2.503   0.899   2.641  0.5458  1.5460  0.8791
  848SOL    HW2 2544   2.503   0.737   2.577  3.3640 -0.5145  3.9263
  849SOL     OW 2545   2.500   0.856   2.334 -0.1032  0.7336  0.4075
  849SOL    HW1 2546   2.572   0.834   2.260 -0.2523 -0.3219  0.9186
  849SOL    HW2 2547   2.462   0.770   2.378 -2.6750  1.1690 -1.0232
  850SOL     OW 2548   1.510   0.106   1.337 -0.2113 -0.2670  0.2511
  850SOL    HW1 2549   1.539   0.065   1.245  0.4549 -2.2155 -2.3967
  850SOL    HW2 2550   1.477   0.036   1.407 -0.6801  1.8386  2.8454
  851SOL     OW 2551   0.468   1.722   0.637 -0.2896 -0.7890  0.3432
  851SOL    HW1 2552   0.468   1.829   0.641 -0.6964 -1.5513  0.7646
  851SOL    HW2 2553   0.565   1.683   0.636 -0.0601  0.2723 -1.9661
  852SOL     OW 2554   0.787   2.156   1.680 -0.3348 -0.5130 -0.2676
  852SOL    HW1 2555   0.773   2.261   1.658  1.6917  1.3807 -2.0752
  852SOL    HW2 2556   0.720   2.132   1.754 -0.6752  1.2931  0.6973
  853SOL     OW 2557   2.484   1.572   2.619 -0.3419  0.1608 -0.2888
  853SOL    HW1 2558   2.458   1.477   2.587  1.8050 -1.6821 -0.5324
  853SOL    HW2 2559   2.507   1.643   2.545  1.2066  0.0117  2.3785
  854SOL     OW 2560   2.523   1.344   1.757  0.0168  0.1794  0.3557
  854SOL    HW1 2561   2.543   1.311   1.662  1.4414  0.7040  0.5457
  854SOL    HW2 2562   2.521   1.267   1.829 -1.5906  1.4958  0.3100
  855SOL     OW 2563   2.108   2.347   0.977  0.1728  0.2074  0.4380
  855SOL    HW1 2564   2.112   2.435   0.924  1.6592 -0.3640  1.0471
  855SOL    HW2 2565   2.154   2.351   1.069 -1.5249  1.1750 -1.9847
  856SOL     OW 2566   1.339   1.480   0.864  0.1591 -0.0769  0.2218
  856SOL    HW1 2567   1.418   1.532   0.906 -1.3718 -0.8139  2.0158
  856SOL    HW2 2568   1.251   1.493   0.927 -2.3408 -0.4703  2.0506
  857SOL     OW 2569   2.963   2.650   1.037  0.0105 -0.4901  0.1444
  857SOL    HW1 2570   2.894   2.578   1.062  1.6453 -0.3685  1.5419
  857SOL    HW2 2571   3.043   2.616   0.973 -0.7872  0.8110 -1.7963
  858SOL     OW 2572   2.298   2.070   1.717  0.2995  0.5288 -0.0331
  858SOL    HW1 2573   2.201   2.096   1.687 -1.5945  1.0658 -1.6310
  858SOL    HW2 2574   2.352   1.998   1.663  2.0401  2.7399  0.1728
  859SOL     OW 2575   2.436   0.553   1.026 -0.4452 -0.0019  0.2063
  859SOL    HW1 2576   2.500   0.585   0.944  0.9077  0.1408 -1.3570
  859SOL    HW2 2577   2.472   0.471   1.082 -1.4000  0.3568  0.0667
  860SOL     OW 2578   1.936   2.831   0.462  0.0865 -0.2943  0.5077
  860SOL    HW1 2579   1.887   2.785   0.383  2.6597  2.7265  1.0768
  860SOL    HW2 2580   2.000   2.894   0.420 -1.1561  2.2697  0.1238
  861SOL     OW 2581   1.069   2.547   2.829 -0.2889 -0.1130 -0.7136
  861SOL    HW1 2582   1.113   2.632   2.782  0.3321  0.2648 -1.0528
  861SOL    HW2 2583   1.109   2.526   2.926  0.5895  2.7383  0.6350
  862SOL     OW 2584   2.842   2.518   1.590  0.1149 -0.3474 -0.0755
  862SOL    HW1 2585   2.918   2.579   1.626 -1.5503  0.7242  1.3308
  862SOL    HW2 2586   2.782   2.580   1.539 -1.3258 -2.7337  1.5756
  863SOL     OW 2587   1.839   2.687   0.178 -0.0892  0.0049  0.3551
  863SOL    HW1 2588   1.910   2.608   0.181  1.5714 -0.7619 -1.9362
  863SOL    HW2 2589   1.742   2.658   0.185  1.4027 -0.9636 -0.1530
  864SOL     OW 2590   1.877   1.160   2.871 -0.1147 -0.5850  0.0841
  864SOL    HW1 2591   1.890   1.114   2.778  4.0090 -1.5737  0.0034
  864SOL    HW2 2592   1.959   1.137   2.936  2.8691  3.2325  1.6512
  865SOL     OW 2593   2.209   1.831   0.616  0.2259 -0.1381  0.2433
  865SOL    HW1 2594   2.274   1.832   0.699  2.3456 -1.8802  1.4154
  865SOL    HW2 2595   2.110   1.805   0.641 -1.3899  1.6971  0.6085
  866SOL     OW 2596   2.947   2.929   0.968 -0.3896  0.6853  0.1634
  866SOL    HW1 2597   3.035   2.959   0.933 -1.3350 -0.8766  0.6828
  866SOL    HW2 2598   2.953   2.826   0.999 -1.3848 -0.1459  1.2745
  867SOL     OW 2599   0.335   1.393   0.936 -0.4405  0.1949  0.2620
  867SOL    HW1 2600   0.340   1.312   0.871 -1.6362  0.8520  2.9531
  867SOL    HW2 2601   0.332   1.485   0.887  0.3248  0.7503 -3.4158
  868SOL     OW 2602   0.743   1.878   2.023  0.6244  0.4214  0.1475
  868SOL    HW1 2603   0.711   1.857   2.121 -2.4989  0.1483  0.5364
  868SOL    HW2 2604   0.708   1.972   1.990  1.5633 -0.0260  0.3874
  869SOL     OW 2605   2.533   1.939   1.592 -0.0551 -0.3674  0.0081
  869SOL    HW1 2606   2.627   1.973   1.560  0.7133  1.6558  0.2324
  869SOL    HW2 2607   2.527   1.835   1.591 -1.7925  0.5080 -1.1893
  870SOL     OW 2608   2.308   2.658   1.281  0.1175 -0.3732  0.1127
  870SOL    HW1 2609   2.308   2.564   1.240 -0.6263  0.0247  2.9389
  870SOL    HW2 2610   2.246   2.664   1.360 -1.4325 -0.8824  1.7954
  871SOL     OW 2611   2.977   2.113   0.575  0.3187 -0.2636  0.5872
  871SOL    HW1 2612   2.924   2.193   0.611 -0.4471 -1.2982 -1.6220
  871SOL    HW2 2613   2.928   2.046   0.513 -1.6636 -2.3100  1.7647
  872SOL     OW 2614   2.122   0.475   1.669  0.1787  0.0047  0.3440
  872SOL    HW1 2615   2.077   0.462   1.760  0.8772  0.6737 -2.0207
  872SOL    HW2 2616   2.222   0.450   1.673 -0.9172  0.8105  3.7948
  873SOL     OW 2617   1.735   2.065   3.036  0.0932 -0.4745 -0.5873
  873SOL    HW1 2618   1.716   2.153   3.091  2.6445  0.8737 -0.3905
  873SOL    HW2 2619   1.682   2.064   2.944 -3.6050  1.4295 -0.7168
  874SOL     OW 2620   0.655   2.479   0.805 -0.3979  0.5705 -0.2186
  874SOL    HW1 2621   0.639   2.576   0.831 -0.1368 -0.3362 -1.0999
  874SOL    HW2 2622   0.756   2.449   0.815  1.8336 -1.9552  0.1142
  875SOL     OW 2623   2.267   1.506   1.440  0.4134 -0.6593 -0.2305
  875SOL    HW1 2624   2.342   1.564   1.478  2.8051 -1.1535  2.8045
  875SOL    HW2 2625   2.289   1.471   1.347 -0.6942  0.1014  1.0913
  876SOL     OW 2626   0.087   2.244   2.721  0.1515 -0.3105 -0.5673
  876SOL    HW1 2627   0.141   2.157   2.762  0.4924 -2.5573 -1.4935
  876SOL    HW2 2628   0.098   2.327   2.785  1.0651 -0.3024 -1.9944
  877SOL     OW 2629   2.884   2.697   0.548 -0.3452 -0.1123 -0.1078
  877SOL    HW1 2630   2.838   2.789   0.575  2.5600 -0.4096 -1.4979
  877SOL    HW2 2631   2.913   2.642   0.629 -1.0537 -1.0164 -0.3217
  878SOL     OW 2632   2.809   1.567   2.184  0.4286  0.7354  0.0735
  878SOL    HW1 2633   2.913   1.555   2.195  0.1265  2.1600  0.0607
  878SOL    HW2 2634   2.769   1.595   2.275 -1.2165  1.7586 -1.3679
  879SOL     OW 2635   2.370   0.043   1.150  0.0379 -0.4189 -0.1509
  879SOL    HW1 2636   2.429  -0.034   1.185 -2.4646 -2.4141 -0.6654
  879SOL    HW2 2637   2.291   0.006   1.095  0.1459 -0.4777  0.2932
  880SOL     OW 2638   0.670   0.483   2.243  0.1979  0.0966  0.0034
  880SOL    HW1 2639   0.597   0.420   2.280 -2.9074  0.1740 -2.1369
  880SOL    HW2 2640   0.722   0.446   2.162  0.3459 -1.0657 -0.3909
  881SOL     OW 2641   0.888   0.069   0.486 -0.5559  0.4699  0.2859
  881SOL    HW1 2642   0.950  -0.013   0.508 -1.4029  0.1567  0.6316
  881SOL    HW2 2643   0.782   0.055   0.467 -1.0806  0.9780  0.0574
  882SOL     OW 2644   2.721   1.698   1.655 -0.0577 -0.6907 -0.6517
  882SOL    HW1 2645   2.816   1.663   1.629  0.8237  3.0782 -0.7973
  882SOL    HW2 2646   2.715   1.704   1.761 -1.5265 -1.5654  2.6545
  883SOL     OW 2647   0.872   0.615   0.973 -0.2929 -0.3613 -0.0914
  883SOL    HW1 2648   0.917   0.700   1.004  0.4018 -0.2083 -1.4709
  883SOL    HW2 2649   0.891   0.531   1.028 -0.8456  0.8505 -0.7917
  884SOL     OW 2650   1.178   1.779   1.147  0.3042  0.3453 -0.2692
  884SOL    HW1 2651   1.149   1.694   1.095 -2.6100 -0.9965  1.3077
  884SOL    HW2 2652   1.149   1.871   1.106  0.9710 -2.7563  1.2747
  885SOL     OW 2653   2.348   1.811   2.295  0.0271 -0.1039 -0.0538
  885SOL    HW1 2654   2.269   1.779   2.356 -2.1140 -0.0081 -0.9769
  885SOL    HW2 2655   2.343   1.908   2.270 -1.6532  1.6086  2.0276
  886SOL     OW 2656   2.586   0.427   1.814 -0.0422  0.6471  0.0223
  886SOL    HW1 2657   2.636   0.389   1.897  0.8663 -0.0716 -0.7668
  886SOL    HW2 2658   2.633   0.514   1.783 -0.5030  0.8247  3.3592
  887SOL     OW 2659   0.111   2.022   1.255  0.4063  0.0113 -0.0756
  887SOL    HW1 2660   0.046   1.977   1.188  0.9896 -1.2077 -0.7318
  887SOL    HW2 2661   0.110   2.123   1.256 -0.3024  0.7173 -4.1185
  888SOL     OW 2662   0.563   1.331   1.565 -0.8314  0.4680 -0.0315
  888SOL    HW1 2663   0.604   1.335   1.469  0.3336  0.2254  1.5736
  888SOL    HW2 2664   0.532   1.232   1.588 -0.0138  1.8367  0.3835
  889SOL     OW 2665   0.819   2.539   2.174  0.4534  0.6415  0.5629
  889SOL    HW1 2666   0.752   2.458   2.195  0.7124 -1.6357  0.4243
  889SOL    HW2 2667   0.892   2.525   2.097 -1.6054  0.8417 -0.0009
  890SOL     OW 2668   2.390   2.456   0.202 -0.5471  0.2854  0.3387
  890SOL    HW1 2669   2.429   2.538   0.151 -1.9701  0.2339 -1.1569
  890SOL    HW2 2670   2.338   2.482   0.285  0.2165  0.6872  0.0641
  891SOL     OW 2671   2.610   1.655   0.767  0.1392 -0.5982  0.3296
  891SOL    HW1 2672   2.608   1.679   0.868  1.5616 -0.9581 -0.6687
  891SOL    HW2 2673   2.528   1.593   0.747 -1.5369 -0.2227 -2.8693
  892SOL     OW 2674   0.370   0.243   2.149 -0.3929  0.1585  0.0114
  892SOL    HW1 2675   0.387   0.277   2.050  1.8683 -1.6157 -0.2348
  892SOL    HW2 2676   0.416   0.299   2.226 -4.0417  4.6124 -0.6600
  893SOL     OW 2677   1.675   0.251   2.736  0.3766 -0.2106 -0.3651
  893SOL    HW1 2678   1.747   0.322   2.757  0.6929 -0.0747  2.1957
  893SOL    HW2 2679   1.580   0.294   2.727  0.3079 -1.4678  1.8679
  894SOL     OW 2680   2.194   2.002   0.012  0.1219  0.4558  0.1395
  894SOL    HW1 2681   2.165   1.923  -0.056  0.5883  0.9409 -1.7094
  894SOL    HW2 2682   2.195   1.964   0.106 -0.2463  0.2908 -1.6308
  895SOL     OW 2683   2.849   1.428   0.899  0.2418  0.4329 -0.5716
  895SOL    HW1 2684   2.914   1.351   0.926 -2.3227 -3.1401 -1.2308
  895SOL    HW2 2685   2.842   1.505   0.962  0.7720 -3.0783 -1.0656
  896SOL     OW 2686   1.814   1.850   1.213  0.0200  0.3287  0.0409
  896SOL    HW1 2687   1.818   1.785   1.133 -2.0567  0.9544 -0.5948
  896SOL    HW2 2688   1.737   1.917   1.211 -0.8645  0.7541  0.7321
  897SOL     OW 2689   0.291   0.571   0.020 -0.8588 -0.5950 -0.6064
  897SOL    HW1 2690   0.236   0.624  -0.050  2.5094  0.1831 -1.3524
  897SOL    HW2 2691   0.388   0.600   0.037 -0.1510 -0.1090 -2.5518
  898SOL     OW 2692   0.575   2.871   1.105  0.1690 -0.5599 -0.0259
  898SOL    HW1 2693   0.538   2.968   1.121 -0.1824  1.2461  0.3607
  898SOL    HW2 2694   0.651   2.842   1.173 -0.0496 -1.2541 -0.2191
  899SOL     OW 2695   2.769   0.891   1.283 -0.3743 -0.0183  0.1575
  899SOL    HW1 2696   2.718   0.877   1.192  1.4758 -1.0009 -1.0604
  899SOL    HW2 2697   2.873   0.892   1.265  0.1830  2.2586 -1.4645
  900SOL     OW 2698   1.037   2.580   2.369 -0.5766 -0.1170  0.0933
  900SOL    HW1 2699   0.985   2.560   2.278 -1.8691 -1.6447 -1.3792
  900SOL    HW2 2700   1.014   2.520   2.448  2.3472  0.8041 -0.4014
  901SOL     OW 2701   1.899   2.352   1.359 -0.2806 -0.1043  0.6324
  901SOL    HW1 2702   1.867   2.335   1.260 -1.6380 -0.8595 -0.5842
  901SOL    HW2 2703   1.998   2.328   1.379  2.7805  0.8454  0.0098
  902SOL     OW 2704   2.521   1.662   1.448 -0.2369  0.2804 -0.3736
  902SOL    HW1 2705   2.584   1.659   1.528 -1.2073 -1.2467 -1.1952
  902SOL    HW2 2706   2.562   1.612   1.368 -2.4959  0.3480  2.1301
  903SOL     OW 2707   0.256   2.480   1.973  0.0175 -0.0483 -0.5576
  903SOL    HW1 2708   0.161   2.435   1.954 -1.6371  3.0041 -0.5464
  903SOL    HW2 2709   0.280   2.538   1.894 -2.7092 -2.0565 -0.8284
  904SOL     OW 2710   2.073   0.743   2.469  0.1118 -0.9577 -0.3001
  904SOL    HW1 2711   2.020   0.704   2.549 -0.4015  0.7027 -2.0583
  904SOL    HW2 2712   2.012   0.751   2.384 -0.5437  0.4773 -2.6043
  905SOL     OW 2713   2.818   0.064   2.568  0.3342  0.1332 -0.0675
  905SOL    HW1 2714   2.899   0.011   2.535  0.1972 -1.9254  2.7855
  905SOL    HW2 2715   2.829   0.165   2.545  0.8789 -1.5294  1.4660
  906SOL     OW 2716   0.145   1.763   1.870 -0.1701  0.4024 -0.2631
  906SOL    HW1 2717   0.084   1.750   1.787  0.2832  3.1611 -1.2048
  906SOL    HW2 2718   0.220   1.829   1.858 -1.8517 -1.2441 -1.4401
  907SOL     OW 2719   0.133   2.417   0.993 -0.1685  0.3932  0.0021
  907SOL    HW1 2720   0.233   2.388   1.016 -0.1730 -2.2967 -0.1247
  907SOL    HW2 2721   0.074   2.330   0.976 -1.1483  1.5686  1.8906
  908SOL     OW 2722   2.689   2.947   0.377 -0.6353 -0.2456  0.3841
  908SOL    HW1 2723   2.651   2.989   0.289  0.7772 -0.1460  1.4315
  908SOL    HW2 2724   2.770   2.887   0.350  1.9032 -0.6675 -1.5573
  909SOL     OW 2725   0.763   1.035   2.680  0.2032 -0.0733  0.5553
  909SOL    HW1 2726   0.700   0.956   2.647 -0.3075 -0.6805  2.4210
  909SOL    HW2 2727   0.835   1.062   2.606  1.1297 -0.1184 -0.8359
  910SOL     OW 2728   1.742   1.836   2.141  0.5205 -0.3524 -0.2213
  910SOL    HW1 2729   1.763   1.895   2.054 -2.4749  0.7811 -0.3560
  910SOL    HW2 2730   1.674   1.888   2.206 -0.1349  1.8587  1.7357
  911SOL     OW 2731   1.859   2.928   1.556  0.6859 -0.0490  0.5133
  911SOL    HW1 2732   1.915   2.891   1.481 -0.2242 -0.1622  0.6970
  911SOL    HW2 2733   1.837   2.860   1.632  0.2701  0.2023  0.7358
  912SOL     OW 2734   2.899   0.986   0.735 -0.1378  0.4936  0.4283
  912SOL    HW1 2735   2.915   0.977   0.835  0.3038 -3.3050 -0.5402
  912SOL    HW2 2736   2.847   1.075   0.719 -0.0861 -0.4154  2.0643
  913SOL     OW 2737   2.549   1.291   1.489 -0.3685 -0.2103  0.6069
  913SOL    HW1 2738   2.571   1.188   1.491  1.1548  1.5052  1.1082
  913SOL    HW2 2739   2.599   1.333   1.413 -3.0074 -0.1980  0.7576
  914SOL     OW 2740   2.901   0.562   1.225 -0.7415 -0.0279  0.3265
  914SOL    HW1 2741   2.956   0.471   1.222  0.1722 -1.1308 -1.4838
  914SOL    HW2 2742   2.863   0.599   1.315 -0.2862  0.3322 -0.2497
  915SOL     OW 2743   1.233   0.771   1.074 -0.1828  0.0803 -0.0721
  915SOL    HW1 2744   1.290   0.794   1.152 -0.9597  0.9312 -3.9593
  915SOL    HW2 2745   1.131   0.770   1.094  1.6140  1.0601  3.0755
  916SOL     OW 2746   0.590   0.016   0.677 -0.0693 -0.3074 -0.0974
  916SOL    HW1 2747   0.617   0.097   0.733 -1.3532 -0.6229 -1.6833
  916SOL    HW2 2748   0.587   0.042   0.576  2.2839 -1.1734 -0.3583
  917SOL     OW 2749   2.842   2.619   1.956 -0.3288 -0.0940  0.2822
  917SOL    HW1 2750   2.745   2.637   1.933 -1.7758 -2.3782 -1.5073
  917SOL    HW2 2751   2.914   2.676   1.911 -0.1577 -0.5834  2.1452
  918SOL     OW 2752   1.046   2.216   2.963  0.2752  0.4638  0.2777
  918SOL    HW1 2753   1.006   2.241   3.059  0.6698 -0.3281  2.3198
  918SOL    HW2 2754   1.062   2.114   2.943  0.8033 -0.5496 -0.8915
  919SOL     OW 2755   0.862   1.665   2.812  0.2636 -0.4880  0.1907
  919SOL    HW1 2756   0.929   1.715   2.749  0.6525 -1.7052  1.9832
  919SOL    HW2 2757   0.813   1.591   2.762 -0.2269  2.4672  1.2387
  920SOL     OW 2758   1.240   1.871   2.459 -0.1434  0.3904  0.7013
  920SOL    HW1 2759   1.306   1.839   2.380  1.6405  2.0518  0.5493
  920SOL    HW2 2760   1.227   1.799   2.533 -2.0471 -0.2321  0.0728
  921SOL     OW 2761   1.071   0.019   2.615  0.7049  0.1098  0.0622
  921SOL    HW1 2762   1.077   0.052   2.518  0.6234  0.9134  1.4764
  921SOL    HW2 2763   0.976  -0.021   2.640  3.2258 -0.1499  0.2155
  922SOL     OW 2764   2.173   2.408   2.796  0.6340  0.3588  0.1837
  922SOL    HW1 2765   2.186   2.306   2.801 -1.5379  1.2628  0.9272
  922SOL    HW2 2766   2.101   2.431   2.732  0.8065 -0.5016  2.2568
  923SOL     OW 2767   1.218   2.666   0.259  0.5975 -0.3410 -0.3791
  923SOL    HW1 2768   1.285   2.723   0.314  1.7774 -0.4072 -1.2731
  923SOL    HW2 2769   1.246   2.567   0.253  0.6819 -0.2330 -0.6178
  924SOL     OW 2770   2.906   1.519   0.106 -0.1017  0.0613 -0.6769
  924SOL    HW1 2771   2.827   1.529   0.044  0.5458 -2.4962 -0.6906
  924SOL    HW2 2772   2.985   1.476   0.051 -0.4718 -1.7900 -0.0685
  925SOL     OW 2773   0.045   2.959   1.518  0.1984  0.6919 -0.2017
  925SOL    HW1 2774  -0.033   3.022   1.536  1.7144 -1.3266  1.0441
  925SOL    HW2 2775   0.019   2.898   1.437 -0.7017  2.1057 -1.7886
  926SOL     OW 2776   1.330   2.824   1.231  0.2618 -0.2622  0.5549
  926SOL    HW1 2777   1.397   2.817   1.154  1.1707  0.7825  0.2316
  926SOL    HW2 2778   1.353   2.895   1.303  0.8346 -0.1297  0.7142
  927SOL     OW 2779   0.351   2.667   1.755 -0.4329  0.0341  0.2845
  927SOL    HW1 2780   0.330   2.603   1.677  1.5550 -0.0700  2.3503
  927SOL    HW2 2781   0.298   2.756   1.748 -1.5325  1.1756  0.5474
  928SOL     OW 2782   1.544   2.060   2.240 -0.0553 -0.2981 -0.4665
  928SOL    HW1 2783   1.542   2.149   2.185  2.1928 -1.1766 -0.7491
  928SOL    HW2 2784   1.456   1.997   2.225 -2.0498 -3.4959 -1.5996
  929SOL     OW 2785   2.453   2.469   2.904 -0.6184  0.3266 -0.2132
  929SOL    HW1 2786   2.363   2.427   2.890  2.1018 -0.5727 -2.2462
  929SOL    HW2 2787   2.505   2.490   2.814  0.1460  1.1005 -0.0114
  930SOL     OW 2788   2.176   1.958   1.040 -0.1834 -0.1717  0.0905
  930SOL    HW1 2789   2.125   1.927   1.123 -0.8965  1.4642 -1.4564
  930SOL    HW2 2790   2.241   2.040   1.062  0.0273  0.5526  0.8373
  931SOL     OW 2791   0.565   1.709   2.715  0.1198  0.2337 -0.0623
  931SOL    HW1 2792   0.617   1.724   2.803 -0.7777 -4.7104  0.6933
  931SOL    HW2 2793   0.600   1.619   2.682 -0.0098  0.3123  5.2965
  932SOL     OW 2794   0.427   0.087   2.968 -0.6394 -0.1078  0.0927
  932SOL    HW1 2795   0.520   0.136   2.949  2.9123  2.2717  0.8610
  932SOL    HW2 2796   0.449  -0.010   3.003 -1.0837  1.2664 -2.7517
  933SOL     OW 2797   1.043   0.773   3.041  0.2820 -0.4163 -0.4048
  933SOL    HW1 2798   1.030   0.792   3.141 -1.4572  0.1386 -0.6868
  933SOL    HW2 2799   1.005   0.851   2.983  0.0492  1.1149 -1.2003
  934SOL     OW 2800   0.842   2.925   2.658  0.8655  0.2900 -0.3539
  934SOL    HW1 2801   0.818   2.881   2.567 -3.4411 -1.7477  1.6402
  934SOL    HW2 2802   0.918   2.885   2.714 -1.7074  2.7769  0.7246
  935SOL     OW 2803   0.021   0.557   0.842 -0.1134  0.0925 -0.3178
  935SOL    HW1 2804   0.019   0.529   0.739 -2.9592 -0.9327 -0.0047
  935SOL    HW2 2805  -0.068   0.593   0.873  3.1114  0.2802 -1.4005
  936SOL     OW 2806   1.089   2.874   0.086 -0.1216  0.3246 -0.2318
  936SOL    HW1 2807   1.143   2.913   0.012 -2.3082  1.7491  3.7483
  936SOL    HW2 2808   1.135   2.793   0.132 -0.8706  0.1691  0.8889
  937SOL     OW 2809   1.954   2.620   2.097  0.4521 -0.4231 -0.0824
  937SOL    HW1 2810   1.920   2.660   2.189 -3.2234  1.8093  1.6545
  937SOL    HW2 2811   2.010   2.692   2.042 -3.4082  2.6654  1.1296
  938SOL     OW 2812   2.773   2.051   1.522  0.0336 -0.2889 -0.8094
  938SOL    HW1 2813   2.740   2.152   1.533  1.6051  2.7827  3.5891
  938SOL    HW2 2814   2.870   2.040   1.554 -0.2520 -0.8867 -0.1048
  939SOL     OW 2815   2.794   1.211   2.484  0.6894 -0.1189  0.1021
  939SOL    HW1 2816   2.846   1.190   2.397 -0.1964  3.7381  0.7588
  939SOL    HW2 2817   2.803   1.139   2.554 -1.6221 -0.5947 -2.2167
  940SOL     OW 2818   1.010   0.474   2.740 -0.5327 -0.1530 -0.0240
  940SOL    HW1 2819   1.062   0.381   2.747  3.3361  1.7457  0.6939
  940SOL    HW2 2820   0.909   0.453   2.722 -0.6353  2.0655  1.0368
  941SOL     OW 2821   0.068   2.825   2.279  0.4801  0.2450 -0.0514
  941SOL    HW1 2822   0.110   2.737   2.279  1.8029  0.3335  0.1395
  941SOL    HW2 2823   0.121   2.884   2.346 -0.6616 -0.2990  0.0552
  942SOL     OW 2824   0.058   0.095   2.463  0.0109  0.6909 -0.2022
  942SOL    HW1 2825   0.117   0.131   2.541 -1.3306  1.5122 -0.3370
  942SOL    HW2 2826   0.085   0.141   2.369 -1.8665  0.1814 -0.0493
  943SOL     OW 2827   2.113   1.709   2.397 -0.4244 -0.5356 -0.1149
  943SOL    HW1 2828   2.083   1.640   2.320 -0.5396  0.5903 -1.9884
  943SOL    HW2 2829   2.102   1.674   2.494  1.4189 -1.3374 -3.3864
  944SOL     OW 2830   2.165   2.365   1.465 -0.4093  0.0787  0.3749
  944SOL    HW1 2831   2.208   2.433   1.531 -1.1038  2.9564 -1.2374
  944SOL    HW2 2832   2.141   2.271   1.509 -2.2717 -1.8817 -1.1714
  945SOL     OW 2833   0.721   1.491   0.295  0.0265  0.2342  0.4412
  945SOL    HW1 2834   0.682   1.555   0.222  2.6195  0.5297  0.4670
  945SOL    HW2 2835   0.745   1.392   0.261 -1.1543 -1.0761  3.4466
  946SOL     OW 2836   0.388   0.928   2.472 -0.2250  0.0728  0.1032
  946SOL    HW1 2837   0.306   0.884   2.432  1.3448  0.8127  0.1261
  946SOL    HW2 2838   0.366   1.014   2.531  1.4087 -2.8643  4.1989
  947SOL     OW 2839   1.557   0.462   0.038 -0.2380 -0.2464  0.5220
  947SOL    HW1 2840   1.498   0.529  -0.018 -1.7021  2.4402  1.8094
  947SOL    HW2 2841   1.519   0.369   0.031  2.4049  4.0982  0.3364
  948SOL     OW 2842   1.960   3.060   2.155  0.1100 -0.0557  0.6371
  948SOL    HW1 2843   1.973   3.030   2.056 -0.6687 -0.5163 -2.3608
  948SOL    HW2 2844   1.928   2.990   2.221  0.8800  3.5785  1.7575
  949SOL     OW 2845   0.572   2.487   0.538  0.4331 -0.0836  0.2687
  949SOL    HW1 2846   0.591   2.581   0.496  1.2365  1.5120 -2.5515
  949SOL    HW2 2847   0.616   2.463   0.632  0.5005 -2.0370  2.8028
  950SOL     OW 2848   0.201   2.161   3.047 -0.1409 -0.8789  0.2955
  950SOL    HW1 2849   0.112   2.218   3.063  0.0786  1.8147  0.1929
  950SOL    HW2 2850   0.194   2.097   2.966 -0.3165 -0.7050  1.7495
  951SOL     OW 2851   1.203   2.764   2.723 -0.2034  0.6901 -0.4455
  951SOL    HW1 2852   1.226   2.827   2.646 -2.6868  1.6200 -3.0632
  951SOL    HW2 2853   1.124   2.802   2.779  1.0790 -1.4897  0.9170
  952SOL     OW 2854   0.035   1.692   0.455  0.3797 -0.3418  0.0715
  952SOL    HW1 2855   0.085   1.786   0.470  0.8879 -0.4845  2.8617
  952SOL    HW2 2856   0.048   1.618   0.524  3.7664  0.0305  1.1441
  953SOL     OW 2857   2.472   1.767   0.269 -0.2617  0.0209 -0.2964
  953SOL    HW1 2858   2.478   1.664   0.257 -0.4171  2.4861  1.5750
  953SOL    HW2 2859   2.473   1.813   0.179  0.6177  0.0214 -1.2593
  954SOL     OW 2860   2.176   0.542   0.949 -0.0284 -0.1158 -0.1094
  954SOL    HW1 2861   2.173   0.582   0.851 -0.6814  1.6259  1.6407
  954SOL    HW2 2862   2.275   0.536   0.983 -0.8017 -0.5992 -0.2856
  955SOL     OW 2863   0.189   2.636   1.289 -0.4028  0.1797 -0.0268
  955SOL    HW1 2864   0.099   2.683   1.306 -1.1104  0.9654  1.5379
  955SOL    HW2 2865   0.231   2.655   1.191  0.9286  3.8213  1.3784
  956SOL     OW 2866   2.741   2.455   2.442  0.1609  0.5797 -0.2812
  956SOL    HW1 2867   2.751   2.351   2.438 -1.6614 -3.0960 -0.9167
  956SOL    HW2 2868   2.764   2.506   2.357  2.0539  2.3047  3.5076
  957SOL     OW 2869   1.583   2.066   2.789 -0.1593 -0.1284 -0.0233
  957SOL    HW1 2870   1.541   1.973   2.777 -0.7033  1.3225  2.2639
  957SOL    HW2 2871   1.597   2.120   2.701  1.0176  0.4531  0.6382
  958SOL     OW 2872   2.657   2.289   2.986  1.1849 -0.4168 -0.1188
  958SOL    HW1 2873   2.575   2.354   2.984 -0.6243 -1.6283  0.5522
  958SOL    HW2 2874   2.639   2.211   3.053 -0.1425 -2.3986  1.6203
  959SOL     OW 2875   0.256   2.803   0.072 -0.4797  0.3010 -0.7651
  959SOL    HW1 2876   0.159   2.773   0.053  0.4942  0.8441  0.5906
  959SOL    HW2 2877   0.302   2.749   0.147  1.2818  0.8046  0.0382
  960SOL     OW 2878   1.968   0.428   1.928 -0.4943 -0.5219 -0.7513
  960SOL    HW1 2879   1.916   0.511   1.892 -1.6674 -1.2462  1.3312
  960SOL    HW2 2880   1.962   0.431   2.030 -0.6752 -1.3777  1.0455
  961SOL     OW 2881   2.582   1.809   1.028  0.1442  0.1777  0.6064
  961SOL    HW1 2882   2.569   1.903   0.995 -1.7793 -1.6940  0.4760
  961SOL    HW2 2883   2.533   1.785   1.115 -0.2564 -1.6540 -2.3463
  962SOL     OW 2884   1.287   0.886   0.065 -0.6374 -0.0092 -0.4926
  962SOL    HW1 2885   1.264   0.909  -0.033  0.5243  0.7199  1.3023
  962SOL    HW2 2886   1.298   0.966   0.132 -0.8072  0.9069 -1.2386
  963SOL     OW 2887   2.217   2.545   1.870 -0.3378 -0.3121  0.2593
  963SOL    HW1 2888   2.198   2.440   1.879  2.5140 -1.8202  2.9711
  963SOL    HW2 2889   2.242   2.583   1.962  1.9178  1.5221  2.6772
  964SOL     OW 2890   2.374   0.372   1.648  0.0836  0.2126  0.3945
  964SOL    HW1 2891   2.460   0.398   1.703  1.8101  3.1300 -0.9660
  964SOL    HW2 2892   2.379   0.394   1.545  0.2362 -1.3556 -1.3924
  965SOL     OW 2893   2.618   3.061   0.139 -0.7323 -0.1896  0.4434
  965SOL    HW1 2894   2.681   3.019   0.069 -0.7562  3.0522 -0.2601
  965SOL    HW2 2895   2.515   3.076   0.113  1.7275  0.5288  1.8022
  966SOL     OW 2896   2.493   2.484   2.207 -0.7150 -0.0488 -0.0527
  966SOL    HW1 2897   2.443   2.520   2.288 -0.4917 -0.6234 -1.0194
  966SOL    HW2 2898   2.472   2.544   2.124  1.2046  2.1162  2.1824
  967SOL     OW 2899   2.811   2.770   2.496  0.2436 -0.5572 -0.5750
  967SOL    HW1 2900   2.820   2.733   2.399 -0.5994 -0.6858 -0.5718
  967SOL    HW2 2901   2.880   2.846   2.521 -1.6456 -1.7969 -0.8694
  968SOL     OW 2902   1.951   1.022   2.615 -0.2114  0.5977 -0.2269
  968SOL    HW1 2903   1.879   1.093   2.589 -0.0660  6.2471  0.1552
  968SOL    HW2 2904   1.966   0.944   2.542  1.4323 -1.0507 -0.9799
  969SOL     OW 2905   2.769   2.461   1.085 -0.5223  0.3110  0.9536
  969SOL    HW1 2906   2.698   2.421   1.022 -0.4134 -0.0111 -0.8465
  969SOL    HW2 2907   2.837   2.391   1.122 -0.3457  1.0572 -0.0267
  970SOL     OW 2908   1.048   2.121   1.791  0.3281 -0.4158  0.5749
  970SOL    HW1 2909   0.962   2.137   1.739  0.9986  0.3017  3.2409
  970SOL    HW2 2910   1.049   2.147   1.893  0.9805 -0.0629 -0.3271
  971SOL     OW 2911   2.849   2.059   1.861 -0.2309 -0.0345 -0.5393
  971SOL    HW1 2912   2.814   2.155   1.883  0.3252 -0.2295  2.4684
  971SOL    HW2 2913   2.906   2.051   1.775 -1.6605 -2.8558  2.7452
  972SOL     OW 2914   1.969   2.445   0.179 -0.2401 -0.7741 -0.4062
  972SOL    HW1 2915   1.966   2.349   0.134 -1.5481 -1.2328 -3.5065
  972SOL    HW2 2916   2.016   2.437   0.269 -2.1959 -1.5405 -0.1585
  973SOL     OW 2917   1.302   1.066   1.873  0.2170  0.1400 -0.1006
  973SOL    HW1 2918   1.255   1.022   1.794  1.0440 -1.3766  0.2033
  973SOL    HW2 2919   1.274   1.163   1.897  0.3577 -0.1632 -1.7504
  974SOL     OW 2920   1.636   0.556   1.983  0.2367  0.0924 -0.2265
  974SOL    HW1 2921   1.723   0.580   1.937 -0.9110  0.8098 -0.3508
  974SOL    HW2 2922   1.563   0.606   1.938  0.6004 -1.7751 -0.7545
  975SOL     OW 2923   2.341   3.077   0.041  0.0311 -0.5216 -0.6743
  975SOL    HW1 2924   2.296   2.984   0.047  0.8179 -3.4155 -0.5154
  975SOL    HW2 2925   2.372   3.097  -0.056 -0.0234  0.5893 -0.3920
  976SOL     OW 2926   1.916   2.840   2.319  0.1516 -0.2888 -0.2709
  976SOL    HW1 2927   1.823   2.826   2.283  1.4843  2.2505  1.9771
  976SOL    HW2 2928   1.927   2.822   2.422 -0.6869  0.5869  0.3709
  977SOL     OW 2929   0.457   0.705   1.061  0.2210  0.4163 -0.7791
  977SOL    HW1 2930   0.371   0.714   1.003  2.7107 -0.8906 -1.5753
  977SOL    HW2 2931   0.530   0.667   1.002 -1.5041 -0.1638  1.4055
   3.10000   3.10000   3.10000
