1000 SPC/Fw water molecules t=   1.40000 step= 1400
 2931
    1SOL     OW    1   2.489   0.303   2.658 -0.7135  0.1518  0.1344
    1SOL    HW1    2   2.486   0.198   2.638 -2.1208 -2.6347 -0.9756
    1SOL    HW2    3   2.554   0.327   2.729 -0.9931  0.3326 -0.8977
    2SOL     OW    4   2.747   2.988   1.381  0.1787  0.0465 -0.2355
    2SOL    HW1    5   2.825   3.010   1.323 -3.1778  2.9056  2.3103
    2SOL    HW2    6   2.723   3.068   1.445 -1.0900 -2.1479  1.2374
    3SOL     OW    7   2.645   2.569   0.412 -0.1159 -0.3167 -0.6349
    3SOL    HW1    8   2.588   2.481   0.417 -1.5936 -1.2729 -0.6284
    3SOL    HW2    9   2.679   2.601   0.507  1.6175  0.4370 -1.1562
    4SOL     OW   10   1.236   1.507   2.417 -0.0184  0.2762 -0.2528
    4SOL    HW1   11   1.192   1.504   2.322  1.3308  0.1202  1.5451
    4SOL    HW2   12   1.284   1.419   2.438 -1.3440  1.8640  1.7009
    5SOL     OW   13   1.177   1.555   2.898  0.3516 -0.0970  0.1359
    5SOL    HW1   14   1.218   1.645   2.919  0.2778  0.2456 -0.7267
    5SOL    HW2   15   1.074   1.564   2.875 -0.0255  1.2376 -1.3704
    6SOL     OW   16   0.268   1.821   3.009  0.1728 -0.4716  0.1447
    6SOL    HW1   17   0.171   1.801   3.028  0.8444 -3.2461 -1.4642
    6SOL    HW2   18   0.314   1.811   3.099 -2.9328 -0.5231 -2.2156
    7SOL     OW   19   2.477   0.898   1.053 -0.8088 -0.3249  0.0533
    7SOL    HW1   20   2.400   0.853   1.108 -0.4730 -1.4573 -0.2661
    7SOL    HW2   21   2.506   0.847   0.967 -1.2517  2.0563  0.2108
    8SOL     OW   22   0.351   0.678   1.515 -0.9250  0.5469  0.2908
    8SOL    HW1   23   0.422   0.607   1.489  0.0232 -0.0816  0.2376
    8SOL    HW2   24   0.355   0.759   1.445 -0.3925  3.3079  0.8596
    9SOL     OW   25   1.154   0.842   2.411  0.1355 -0.2311 -0.4870
    9SOL    HW1   26   1.206   0.859   2.325 -0.8047  0.4661 -0.0751
    9SOL    HW2   27   1.106   0.749   2.411 -0.3570 -1.6512 -0.7490
   10SOL     OW   28   0.686   1.371   1.308  0.0704 -0.1519  0.0488
   10SOL    HW1   29   0.598   1.368   1.252  2.7415 -0.6412 -0.3161
   10SOL    HW2   30   0.724   1.473   1.317  1.9452  2.7996 -0.2574
   11SOL     OW   31   2.303   2.828   0.827  0.1844 -0.0426  0.2411
   11SOL    HW1   32   2.248   2.845   0.917 -1.8325 -2.2511  1.0598
   11SOL    HW2   33   2.375   2.760   0.843 -2.5452  3.2986 -1.3100
   12SOL     OW   34   1.512   0.876   0.431  0.4980  0.0617 -0.0424
   12SOL    HW1   35   1.422   0.912   0.392  1.1772 -0.7826 -1.7242
   12SOL    HW2   36   1.560   0.803   0.375  2.6952  1.1711  0.3679
   13SOL     OW   37   2.431   0.715   1.773  0.1931 -0.5720  0.6494
   13SOL    HW1   38   2.360   0.647   1.809 -3.4290 -3.0815 -0.2926
   13SOL    HW2   39   2.466   0.683   1.679  2.5581  1.8018 -1.3126
   14SOL     OW   40   1.950   0.017   0.618  0.1975 -0.4376  0.2416
   14SOL    HW1   41   1.855   0.053   0.601 -0.4682  0.4940  1.3292
   14SOL    HW2   42   1.960  -0.050   0.698  0.5503  0.4671  0.4735
   15SOL     OW   43   1.892   2.089   2.656 -0.4864 -0.8657  0.6167
   15SOL    HW1   44   1.824   2.162   2.686 -0.9457 -1.3286  2.9102
   15SOL    HW2   45   1.844   2.005   2.614 -1.4854  2.0299 -2.6120
   16SOL     OW   46   1.600   1.724   2.993  0.1647  0.6212  0.0159
   16SOL    HW1   47   1.589   1.620   3.007 -0.3500  0.8007  2.9257
   16SOL    HW2   48   1.671   1.760   3.058  0.2493 -3.0013 -0.4444
   17SOL     OW   49   0.094   0.415   0.172 -0.1064 -0.0556  0.6102
   17SOL    HW1   50   0.177   0.449   0.115 -1.7486  0.2421 -1.1334
   17SOL    HW2   51   0.009   0.398   0.111  0.0255 -2.9635 -1.5633
   18SOL     OW   52   0.900   2.980   2.158 -0.9644 -0.2351  0.2781
   18SOL    HW1   53   0.872   2.890   2.204  3.0095 -0.7031  0.1740
   18SOL    HW2   54   0.967   2.961   2.075  0.3028 -2.8204 -2.7110
   19SOL     OW   55   0.549   0.845   1.892 -0.0521  0.0749 -0.2616
   19SOL    HW1   56   0.595   0.818   1.983  0.9106 -0.9533  0.5904
   19SOL    HW2   57   0.583   0.935   1.853  1.5141 -0.8573 -0.1837
   20SOL     OW   58   0.243   2.829   0.857  0.4310 -0.0250 -0.1050
   20SOL    HW1   59   0.142   2.850   0.827 -0.4471  0.8097  1.7536
   20SOL    HW2   60   0.291   2.769   0.791 -0.4816  2.5766 -1.4152
   21SOL     OW   61   2.774   0.261   1.962 -0.3499  0.2626  0.2481
   21SOL    HW1   62   2.701   0.200   1.921  1.6691  0.7819 -0.5911
   21SOL    HW2   63   2.865   0.209   1.984  2.8329  1.7047 -1.8899
   22SOL     OW   64   2.364   0.195   0.114 -0.0090 -0.2835  0.1343
   22SOL    HW1   65   2.363   0.103   0.060 -2.2217  2.1841 -1.2699
   22SOL    HW2   66   2.325   0.280   0.059  0.2083  0.7220 -3.0245
   23SOL     OW   67   2.832   0.566   0.674  0.3633  0.1109  0.3156
   23SOL    HW1   68   2.831   0.484   0.612  1.4279  0.4913  1.3219
   23SOL    HW2   69   2.818   0.657   0.627 -1.8751 -2.1446 -3.2105
   24SOL     OW   70   0.217   1.863   0.441 -0.2968 -0.3311  0.0333
   24SOL    HW1   71   0.173   1.919   0.364 -2.2993 -4.0963  2.1558
   24SOL    HW2   72   0.321   1.882   0.449  0.6087  0.1592 -0.0642
   25SOL     OW   73   2.228   0.636   0.216  0.6267 -0.1168 -0.1518
   25SOL    HW1   74   2.230   0.649   0.111  0.2328  0.6948 -0.4197
   25SOL    HW2   75   2.236   0.539   0.251  1.0158 -0.5856 -0.4831
   26SOL     OW   76   2.440   2.129   2.124  0.1741 -0.0060  0.6203
   26SOL    HW1   77   2.525   2.190   2.136 -0.6367  2.1083 -0.3724
   26SOL    HW2   78   2.450   2.061   2.045  0.4487 -0.7291  0.8446
   27SOL     OW   79   0.608   2.963   0.223 -0.1503 -0.2415 -0.8648
   27SOL    HW1   80   0.699   2.974   0.176 -1.5896  0.5977 -0.6444
   27SOL    HW2   81   0.531   2.909   0.172  0.0738 -1.4923 -2.2457
   28SOL     OW   82   1.604   0.105   0.344  0.7134  0.1283 -0.0123
   28SOL    HW1   83   1.636   0.077   0.249  2.9645 -0.5656 -1.3470
   28SOL    HW2   84   1.625   0.202   0.367 -0.8016 -1.0040 -0.0987
   29SOL     OW   85   1.958   0.575   0.270 -0.0051  0.3483  0.1079
   29SOL    HW1   86   1.931   0.616   0.362 -0.6047 -0.1066  0.0775
   29SOL    HW2   87   2.040   0.616   0.220  1.2629  1.3278  1.2085
   30SOL     OW   88   0.182   2.068   0.879  0.8128 -0.3556  0.1907
   30SOL    HW1   89   0.158   1.999   0.807  1.5281 -1.9047 -0.0472
   30SOL    HW2   90   0.092   2.113   0.905 -1.1539 -4.5319 -0.6919
   31SOL     OW   91   2.166   0.076   2.412 -0.3455  0.0372 -0.2672
   31SOL    HW1   92   2.138   0.061   2.510  1.0880 -1.2090  0.5166
   31SOL    HW2   93   2.093   0.044   2.348  0.4513 -1.9040  2.8045
   32SOL     OW   94   2.960   3.091   0.272  0.4398 -0.6617  0.1300
   32SOL    HW1   95   2.961   2.988   0.248 -0.9354 -0.1848  0.0861
   32SOL    HW2   96   3.002   3.103   0.363 -2.2280  0.1651  0.1121
   33SOL     OW   97   0.866   0.225   0.637 -0.3190 -0.8950  0.3079
   33SOL    HW1   98   0.844   0.164   0.555 -0.4701 -0.1650  0.9167
   33SOL    HW2   99   0.959   0.271   0.629  2.6934  0.3711  2.0403
   34SOL     OW  100   0.303   2.725   1.112  0.4105 -0.0298  0.0373
   34SOL    HW1  101   0.255   2.781   1.036  0.7057 -1.7367 -2.3543
   34SOL    HW2  102   0.407   2.738   1.112  1.1922  1.9557 -2.2795
   35SOL     OW  103   0.002   0.111   1.868 -0.3797 -0.4497 -0.4284
   35SOL    HW1  104   0.065   0.030   1.878 -2.0402  1.6182  2.5504
   35SOL    HW2  105  -0.041   0.123   1.775 -1.0283  1.9325  0.6855
   36SOL     OW  106   1.810   1.178   1.527  0.0355 -0.4655 -0.0289
   36SOL    HW1  107   1.888   1.115   1.562 -0.0056  0.1242 -1.8272
   36SOL    HW2  108   1.859   1.251   1.475  0.5658 -1.2610  0.5358
   37SOL     OW  109   1.155   0.178   0.975 -0.4739 -0.2795 -0.0828
   37SOL    HW1  110   1.185   0.281   0.980  0.6050  1.4933  0.7654
   37SOL    HW2  111   1.215   0.115   0.921  0.4905 -1.5196  0.6689
   38SOL     OW  112   1.150   2.888   2.411  0.1511 -0.0898  0.6453
   38SOL    HW1  113   1.047   2.875   2.428  1.6598  1.4120  0.8710
   38SOL    HW2  114   1.183   2.980   2.384 -0.8847  1.2864 -0.5526
   39SOL     OW  115   2.430   1.373   3.039  0.7424  0.4180  0.1460
   39SOL    HW1  116   2.493   1.290   3.054 -1.3863  1.3653  0.8807
   39SOL    HW2  117   2.354   1.380   3.112  0.1047 -0.8745  0.6294
   40SOL     OW  118   2.016   2.486   2.602  0.2172  0.1323 -0.4004
   40SOL    HW1  119   1.961   2.575   2.598 -0.5727  1.9426  0.8840
   40SOL    HW2  120   2.003   2.415   2.526 -1.4151  1.3595  1.7028
   41SOL     OW  121   3.011   0.646   2.799 -0.7288  0.0186  0.2496
   41SOL    HW1  122   2.939   0.713   2.840  1.9158 -0.0452  0.7632
   41SOL    HW2  123   2.970   0.549   2.783 -0.0882 -1.5804  1.3245
   42SOL     OW  124   1.748   1.767   0.548 -0.3067 -0.2159  0.5070
   42SOL    HW1  125   1.696   1.675   0.553  1.1345  0.9494  1.7098
   42SOL    HW2  126   1.788   1.774   0.454  0.2525 -2.1622 -0.3298
   43SOL     OW  127   0.501   1.665   1.263 -0.0346 -0.5901 -0.1397
   43SOL    HW1  128   0.478   1.586   1.200 -1.5435 -0.4136  1.6442
   43SOL    HW2  129   0.426   1.691   1.323  2.8953 -2.7685  0.0983
   44SOL     OW  130   1.668   2.424   2.998  0.1270 -0.3155 -0.0211
   44SOL    HW1  131   1.580   2.469   2.960 -0.4435 -0.0011 -2.1202
   44SOL    HW2  132   1.757   2.446   2.944 -0.1348  1.7094 -3.1879
   45SOL     OW  133   0.360   1.913   2.552 -0.1958  0.1448 -0.5099
   45SOL    HW1  134   0.313   1.863   2.468 -0.3596 -2.9963 -1.0235
   45SOL    HW2  135   0.420   1.847   2.604 -1.5448 -1.3499 -0.4541
   46SOL     OW  136   1.298   0.660   0.223 -0.1123  0.0928  0.9489
   46SOL    HW1  137   1.263   0.732   0.156  1.1505  0.2445  0.4777
   46SOL    HW2  138   1.249   0.572   0.215  0.9995  2.6174 -0.2287
   47SOL     OW  139   0.187   2.466   1.569 -0.0004  0.0324 -0.4146
   47SOL    HW1  140   0.165   2.370   1.604 -1.1885 -2.6074  0.5460
   47SOL    HW2  141   0.190   2.471   1.464 -0.3987 -2.4935 -1.4792
   48SOL     OW  142   2.657   0.604   0.145  0.3880  0.3051 -0.0897
   48SOL    HW1  143   2.630   0.627   0.245 -1.7284  0.1248  1.3859
   48SOL    HW2  144   2.756   0.642   0.122 -0.5886  1.6851 -1.9689
   49SOL     OW  145   0.305   0.768   1.757  0.8837  0.2579  0.5515
   49SOL    HW1  146   0.399   0.786   1.801  0.1331  1.8818  1.7944
   49SOL    HW2  147   0.320   0.715   1.670 -1.2382  0.7773  0.5483
   50SOL     OW  148   1.729   1.125   0.290 -0.0817 -0.3253  0.4017
   50SOL    HW1  149   1.749   1.030   0.252 -0.2119  1.0787  0.1229
   50SOL    HW2  150   1.673   1.120   0.378  0.9124 -1.2228 -1.1057
   51SOL     OW  151   3.033   1.765   0.239  0.0503 -0.3287 -0.1272
   51SOL    HW1  152   2.968   1.696   0.193 -3.1803 -0.1767  2.6240
   51SOL    HW2  153   3.094   1.716   0.310 -0.8122 -1.1178 -2.0087
   52SOL     OW  154   0.794   2.133   0.656 -0.3427  0.0523  0.1161
   52SOL    HW1  155   0.701   2.109   0.623 -0.6350 -0.8847 -0.7024
   52SOL    HW2  156   0.849   2.051   0.699 -1.0914 -0.1504  2.0421
   53SOL     OW  157   0.178   0.428   1.576  0.3713 -0.1702 -0.6779
   53SOL    HW1  158   0.236   0.509   1.547  0.1724 -0.5199  0.2604
   53SOL    HW2  159   0.090   0.432   1.528  2.2214  0.4353 -1.1432
   54SOL     OW  160   1.798   0.486   3.077  0.4185 -0.2382  0.4778
   54SOL    HW1  161   1.858   0.435   3.145  1.3351  1.0370 -0.8827
   54SOL    HW2  162   1.700   0.492   3.112 -2.8422 -0.5144 -1.2293
   55SOL     OW  163   0.766   2.901   0.705 -0.4886  0.1102  0.3298
   55SOL    HW1  164   0.720   2.993   0.719 -0.4702  2.1727  1.0056
   55SOL    HW2  165   0.858   2.905   0.653  2.5615 -1.2796  1.2763
   56SOL     OW  166   0.581   1.623   3.074  0.5997  0.0563 -0.7163
   56SOL    HW1  167   0.516   1.683   3.130 -0.2346  1.9793 -0.4367
   56SOL    HW2  168   0.534   1.529   3.056  0.2994 -0.9851  1.1246
   57SOL     OW  169   1.777   2.497   2.415 -0.0234 -0.1134  0.0910
   57SOL    HW1  170   1.841   2.413   2.430 -1.1779  0.6999 -0.5605
   57SOL    HW2  171   1.679   2.478   2.432  1.4552  0.5845 -0.6618
   58SOL     OW  172   0.666   0.266   1.126  0.6608 -0.4590 -0.1529
   58SOL    HW1  173   0.570   0.278   1.163 -0.8990 -0.3088 -2.1891
   58SOL    HW2  174   0.712   0.176   1.141 -1.7028 -0.4101  0.6154
   59SOL     OW  175   0.438   2.413   2.729  0.0940 -0.1297 -0.0305
   59SOL    HW1  176   0.432   2.315   2.695 -0.0300  3.0888  3.1752
   59SOL    HW2  177   0.541   2.435   2.741  2.3072 -0.9849 -1.9461
   60SOL     OW  178   2.298   2.124   2.344 -0.0485 -0.2613  0.2262
   60SOL    HW1  179   2.349   2.142   2.250 -1.4621  0.1544 -1.5928
   60SOL    HW2  180   2.345   2.171   2.427  2.7801  1.3368 -0.4268
   61SOL     OW  181   1.229   0.646   0.498  0.1523  0.0313  0.8873
   61SOL    HW1  182   1.137   0.687   0.525 -1.8408  0.2691 -0.2835
   61SOL    HW2  183   1.257   0.647   0.392 -1.2339  1.5297 -2.0209
   62SOL     OW  184   2.711   1.720   2.775  0.0475 -0.6903 -0.0794
   62SOL    HW1  185   2.660   1.699   2.685  1.3702  1.8553 -2.3441
   62SOL    HW2  186   2.800   1.669   2.778 -2.1650  0.5164 -0.9021
   63SOL     OW  187   0.556   0.913   0.198 -0.1048  0.2828  0.1907
   63SOL    HW1  188   0.621   0.962   0.133  1.5101 -1.6424  1.0537
   63SOL    HW2  189   0.600   0.883   0.286 -0.5651  0.9914 -0.6181
   64SOL     OW  190   3.037   0.578   2.352  0.0635  0.1885 -0.2479
   64SOL    HW1  191   2.949   0.597   2.409 -0.6347  2.9992  0.3105
   64SOL    HW2  192   3.068   0.651   2.282 -1.8468  0.1454 -0.4854
   65SOL     OW  193   0.208   1.448   0.702 -0.2313 -0.0310  0.4609
   65SOL    HW1  194   0.230   1.511   0.779  2.2019  0.6245 -2.4796
   65SOL    HW2  195   0.267   1.462   0.617  1.8050  1.6383 -0.1837
   66SOL     OW  196   2.526   0.401   0.518 -0.0923 -0.0330 -0.2138
   66SOL    HW1  197   2.615   0.346   0.512 -0.6542 -0.9428 -1.9754
   66SOL    HW2  198   2.466   0.358   0.588 -0.5967 -1.5699  0.6101
   67SOL     OW  199   0.643   2.476   1.439  0.1834  0.0744  0.0560
   67SOL    HW1  200   0.717   2.414   1.471 -0.5759  0.8522 -1.6772
   67SOL    HW2  201   0.552   2.421   1.434 -1.3207 -0.8808  1.6032
   68SOL     OW  202   0.995   1.041   2.494 -0.3837 -0.5777 -0.0270
   68SOL    HW1  203   1.066   0.963   2.477  1.0304  0.3177 -3.7210
   68SOL    HW2  204   0.977   1.088   2.402  2.4449 -1.1789  0.3134
   69SOL     OW  205   0.789   2.752   2.228  0.5441  0.6173  0.4263
   69SOL    HW1  206   0.827   2.658   2.204  1.4337  0.7684 -1.3158
   69SOL    HW2  207   0.688   2.757   2.258 -0.7137  0.5037 -0.5296
   70SOL     OW  208   0.445   0.107   2.505  0.0952 -0.1060 -0.3462
   70SOL    HW1  209   0.352   0.100   2.557 -1.7520  0.8739  1.1124
   70SOL    HW2  210   0.518   0.035   2.522 -1.5370 -2.6375 -2.3126
   71SOL     OW  211   1.102   1.762   0.311 -0.4814 -0.8713  0.2376
   71SOL    HW1  212   1.068   1.680   0.374 -1.8025 -1.6451 -0.3438
   71SOL    HW2  213   1.029   1.793   0.248  0.6800  0.3105 -0.0797
   72SOL     OW  214   1.825   0.185   2.171  0.2874  0.0379 -0.2192
   72SOL    HW1  215   1.860   0.282   2.174  0.8037  4.0681  0.2083
   72SOL    HW2  216   1.898   0.117   2.137 -1.7492 -0.5770 -0.7955
   73SOL     OW  217   2.791   2.163   2.399 -0.0172  0.3567  0.7549
   73SOL    HW1  218   2.767   2.060   2.405 -1.0047 -0.1532  1.0069
   73SOL    HW2  219   2.856   2.197   2.475  0.8161 -0.0349  2.3887
   74SOL     OW  220   2.693   2.872   2.186  0.8886  0.2077 -0.5939
   74SOL    HW1  221   2.679   2.858   2.290 -1.0131 -0.2083  1.9789
   74SOL    HW2  222   2.773   2.929   2.153 -0.3353 -1.3930  1.3566
   75SOL     OW  223   0.951   0.877   1.082 -0.0988  0.7571  0.7791
   75SOL    HW1  224   0.853   0.900   1.058  2.6477  0.5393  0.1827
   75SOL    HW2  225   0.966   0.909   1.180 -0.1281 -4.1797  1.3118
   76SOL     OW  226   1.855   1.264   2.462  0.1290  0.3123  0.7634
   76SOL    HW1  227   1.755   1.245   2.441 -1.4690  2.9754 -0.3924
   76SOL    HW2  228   1.874   1.349   2.517 -2.3062  0.8555  1.5007
   77SOL     OW  229   2.907   0.927   1.045 -0.1775 -0.3660  0.4422
   77SOL    HW1  230   2.890   0.826   1.021 -2.4488 -0.2306 -0.2834
   77SOL    HW2  231   2.985   0.935   1.114 -2.3376  1.1783 -1.4323
   78SOL     OW  232   2.024   1.366   1.381 -0.0122 -0.5048 -0.4255
   78SOL    HW1  233   2.124   1.382   1.363 -1.1255 -1.0374 -0.2100
   78SOL    HW2  234   1.959   1.396   1.308  2.8168 -1.5834 -2.5809
   79SOL     OW  235   0.675   1.411   0.803  0.2586 -0.0798  0.4303
   79SOL    HW1  236   0.576   1.392   0.827 -0.5088  0.9832 -2.3401
   79SOL    HW2  237   0.705   1.336   0.740  2.3841 -3.6898  0.2803
   80SOL     OW  238   0.620   0.508   1.511 -0.6459  0.4223  0.3822
   80SOL    HW1  239   0.689   0.560   1.453  1.7531  2.1152  2.4415
   80SOL    HW2  240   0.648   0.408   1.519 -0.0900 -1.6726 -1.5679
   81SOL     OW  241   0.991   1.312   2.619 -0.3581 -0.2877  0.3101
   81SOL    HW1  242   0.999   1.217   2.577 -2.2680 -1.4090 -0.8722
   81SOL    HW2  243   0.949   1.378   2.555 -0.5386  1.3928 -0.2701
   82SOL     OW  244   1.013   2.847   1.539  0.1013  0.3053 -0.3717
   82SOL    HW1  245   0.959   2.777   1.487 -2.5216  1.8191 -1.4025
   82SOL    HW2  246   1.052   2.911   1.468 -0.0082  1.2309 -0.6612
   83SOL     OW  247   2.544   2.380   0.877  0.4087 -0.0735 -0.1986
   83SOL    HW1  248   2.479   2.340   0.801 -4.6287 -1.0443 -0.6370
   83SOL    HW2  249   2.544   2.482   0.877 -2.0288  0.4829  1.1698
   84SOL     OW  250   0.749   0.016   2.343  0.3197 -0.0214 -0.3331
   84SOL    HW1  251   0.706  -0.046   2.414  0.1388 -1.4897  0.6848
   84SOL    HW2  252   0.782  -0.034   2.256  0.1994  2.0778 -0.9575
   85SOL     OW  253   0.276   1.629   1.417 -0.3351  0.0105 -0.5177
   85SOL    HW1  254   0.228   1.720   1.424 -2.1393  0.8075  1.5703
   85SOL    HW2  255   0.307   1.594   1.515  0.5635  3.2617  3.2152
   86SOL     OW  256   0.415   1.052   1.551 -0.5193 -0.5484  0.0469
   86SOL    HW1  257   0.356   1.009   1.481 -0.3287 -1.5018  2.1160
   86SOL    HW2  258   0.510   1.010   1.548 -2.0822  1.9592  1.5262
   87SOL     OW  259   1.633   0.679   0.273 -0.3363  0.2728 -0.1750
   87SOL    HW1  260   1.710   0.746   0.263  1.0995  0.1313  3.4822
   87SOL    HW2  261   1.624   0.608   0.206 -1.5942  2.7116  2.8836
   88SOL     OW  262   1.601   1.377   0.286  0.2401  0.7419  0.2565
   88SOL    HW1  263   1.655   1.290   0.271  1.4839  1.2169 -0.6123
   88SOL    HW2  264   1.498   1.361   0.271 -1.4045  0.1470  2.0768
   89SOL     OW  265   0.002   0.304   0.629  0.4880 -0.1243 -0.3716
   89SOL    HW1  266   0.079   0.243   0.603 -1.5941  3.3848 -1.1924
   89SOL    HW2  267  -0.088   0.269   0.587  1.0708 -1.9231 -1.1227
   90SOL     OW  268   0.784   1.579   0.165 -0.5812  0.0129  0.5904
   90SOL    HW1  269   0.841   1.494   0.169 -0.9138 -0.3493  1.0937
   90SOL    HW2  270   0.724   1.579   0.077  0.7240 -0.2264 -2.5829
   91SOL     OW  271   1.212   1.457   1.767 -0.6438 -0.1715 -0.3054
   91SOL    HW1  272   1.206   1.542   1.829  1.6125  1.7397  0.8443
   91SOL    HW2  273   1.309   1.411   1.773  1.2009 -0.0409 -0.6187
   92SOL     OW  274   0.009   0.964   1.221 -0.1065  0.7790 -0.3603
   92SOL    HW1  275   0.074   1.039   1.190  0.0535 -1.2707 -0.1942
   92SOL    HW2  276   0.010   0.965   1.325 -0.6193  0.6769 -1.5039
   93SOL     OW  277   3.070   2.704   0.050 -0.3227 -0.3724  0.1184
   93SOL    HW1  278   3.067   2.702  -0.053 -2.4112 -1.4002  1.9018
   93SOL    HW2  279   3.075   2.608   0.086 -0.0667  2.3486  0.2508
   94SOL     OW  280   1.485   1.409   1.741  0.1760  0.3311  0.0034
   94SOL    HW1  281   1.566   1.348   1.769 -0.2483 -3.4934 -1.0577
   94SOL    HW2  282   1.501   1.508   1.760  1.0627 -0.7354 -0.1496
   95SOL     OW  283   1.390   2.495   2.957 -0.2986  0.0859  0.0877
   95SOL    HW1  284   1.303   2.509   3.014  0.2190  0.0182 -3.2378
   95SOL    HW2  285   1.403   2.395   2.922 -0.2243 -2.2895 -0.5839
   96SOL     OW  286   0.566   2.099   1.281  0.0875  0.0852 -0.8295
   96SOL    HW1  287   0.493   2.070   1.210 -1.7355 -2.1376 -0.1357
   96SOL    HW2  288   0.609   2.019   1.331  0.6176 -0.6024  1.4984
   97SOL     OW  289   0.302   1.633   2.432 -0.2344  0.4485  0.1054
   97SOL    HW1  290   0.274   1.704   2.360 -0.0432  1.6570 -1.1622
   97SOL    HW2  291   0.240   1.640   2.515  1.3125 -0.6668 -1.1953
   98SOL     OW  292   2.195   1.621   1.224  0.4231  0.3348  0.4378
   98SOL    HW1  293   2.097   1.617   1.193 -0.0579 -1.8083  1.3158
   98SOL    HW2  294   2.253   1.572   1.152  0.7875  0.4618  2.3214
   99SOL     OW  295   2.561   2.140   1.313  0.3467  0.5414  0.1821
   99SOL    HW1  296   2.632   2.165   1.381 -0.7030  0.0195  0.3351
   99SOL    HW2  297   2.525   2.042   1.334 -2.7775 -0.4408  0.7864
  100SOL     OW  298   2.307   0.411   2.102  0.0365 -0.0727 -0.0245
  100SOL    HW1  299   2.252   0.378   2.183  0.3179  0.4203  0.5778
  100SOL    HW2  300   2.409   0.416   2.118  2.2875  1.3868 -1.2075
  101SOL     OW  301   0.386   1.534   0.524  0.1984  0.0197  0.0069
  101SOL    HW1  302   0.390   1.623   0.571  0.6184 -1.5735  1.3049
  101SOL    HW2  303   0.455   1.525   0.450 -3.7583  2.4472  1.5620
  102SOL     OW  304   2.304   1.074   0.841  0.5334  0.5892  0.4705
  102SOL    HW1  305   2.246   0.987   0.812 -1.2958 -0.6569  1.0971
  102SOL    HW2  306   2.397   1.075   0.797  0.4313 -0.9685  3.4450
  103SOL     OW  307   2.239   0.070   0.329  0.3512 -0.1252 -0.1474
  103SOL    HW1  308   2.290   0.122   0.254 -1.0317  1.6349  0.8548
  103SOL    HW2  309   2.304   0.025   0.397 -0.9770  0.0440  1.7514
  104SOL     OW  310   0.051   1.855   2.096 -0.1267 -0.6056  0.1612
  104SOL    HW1  311   0.101   1.815   2.012 -0.6537 -3.0240 -0.0458
  104SOL    HW2  312  -0.054   1.864   2.072 -0.5096 -2.0593 -0.0556
  105SOL     OW  313   1.318   2.095   0.773  0.7602  0.0177  0.1256
  105SOL    HW1  314   1.291   2.138   0.684  0.9138  1.5170 -0.5471
  105SOL    HW2  315   1.328   1.991   0.774  2.0289 -1.4211 -0.7116
  106SOL     OW  316   2.095   0.404   1.407  0.5305 -0.1626  0.6178
  106SOL    HW1  317   2.040   0.324   1.379  2.0054  0.7215  2.8605
  106SOL    HW2  318   2.094   0.414   1.509 -1.0745 -1.6382 -0.2749
  107SOL     OW  319   1.975   2.949   1.205 -0.3098  0.4991  0.2844
  107SOL    HW1  320   1.922   3.032   1.235 -1.2390  0.0590  0.6493
  107SOL    HW2  321   1.917   2.873   1.160  1.0265 -1.5395 -0.5047
  108SOL     OW  322   0.864   2.822   1.171 -0.8325  0.0275  0.1015
  108SOL    HW1  323   0.896   2.722   1.175 -1.2431 -0.0342  0.1846
  108SOL    HW2  324   0.933   2.885   1.221  1.1012  0.6357 -3.3075
  109SOL     OW  325   2.143   0.168   0.741 -0.3077  0.3779 -0.9348
  109SOL    HW1  326   2.062   0.125   0.690  1.5118 -0.9148 -2.3697
  109SOL    HW2  327   2.169   0.116   0.830  0.4920 -0.4165 -1.2473
  110SOL     OW  328   0.461   2.786   2.781 -0.0225 -0.1722 -0.1254
  110SOL    HW1  329   0.433   2.771   2.682  0.3361 -0.8737  0.6770
  110SOL    HW2  330   0.536   2.725   2.816  3.0877 -3.0942  0.1458
  111SOL     OW  331   1.280   0.494   2.320  0.2757 -0.0371 -0.3724
  111SOL    HW1  332   1.183   0.519   2.341 -1.3679  1.7199 -1.9716
  111SOL    HW2  333   1.320   0.437   2.398 -1.2483  0.5121  0.8110
  112SOL     OW  334   1.776   0.399   1.515  0.0158 -0.4469  0.0425
  112SOL    HW1  335   1.758   0.400   1.413  1.7882  0.3026  1.8904
  112SOL    HW2  336   1.687   0.392   1.575 -3.8949 -0.4321 -0.0985
  113SOL     OW  337   2.400   1.678   1.718 -0.4093  0.0077  0.0168
  113SOL    HW1  338   2.424   1.579   1.727  0.0231 -0.2351 -1.8416
  113SOL    HW2  339   2.410   1.730   1.804  1.5826 -0.8225  0.5803
  114SOL     OW  340   0.288   0.473   1.195  0.3360 -0.1472 -0.2860
  114SOL    HW1  341   0.352   0.523   1.128 -0.0577 -1.5416  3.2790
  114SOL    HW2  342   0.211   0.537   1.228  0.2045  0.9485 -0.2452
  115SOL     OW  343   2.757   1.541   1.238 -1.2856  0.3134 -0.3249
  115SOL    HW1  344   2.742   1.442   1.268 -0.5474 -0.1444  0.4381
  115SOL    HW2  345   2.841   1.551   1.175  1.5258  2.1271 -2.6138
  116SOL     OW  346   1.899   0.946   0.691 -0.6643  0.1467  0.7689
  116SOL    HW1  347   1.802   0.900   0.696  1.0402 -3.2140 -0.2724
  116SOL    HW2  348   1.909   1.053   0.689 -0.0366 -0.5295 -0.5921
  117SOL     OW  349   1.129   0.372   0.561 -0.2715  0.0316  0.2023
  117SOL    HW1  350   1.170   0.468   0.570  1.5693 -2.2420 -0.4102
  117SOL    HW2  351   1.095   0.345   0.467 -0.6395 -1.2377 -3.5685
  118SOL     OW  352   1.098   1.205   1.107  0.0286  0.1637 -0.5549
  118SOL    HW1  353   1.005   1.165   1.129  0.0662  0.9727 -1.1873
  118SOL    HW2  354   1.132   1.288   1.156  0.6981  0.4121 -1.2565
  119SOL     OW  355   1.869   1.577   2.197 -0.2213 -0.7151  0.2312
  119SOL    HW1  356   1.830   1.661   2.146 -0.5820  0.2226 -2.1942
  119SOL    HW2  357   1.968   1.564   2.175 -0.2332  0.4340  0.2707
  120SOL     OW  358   2.895   2.794   0.246 -0.3242  0.0435  0.0495
  120SOL    HW1  359   2.977   2.764   0.186  1.1700 -0.6750 -0.0233
  120SOL    HW2  360   2.813   2.739   0.213 -1.7488 -1.7965  0.5910
  121SOL     OW  361   1.879   0.744   2.181  0.8400  0.1175  0.8855
  121SOL    HW1  362   1.917   0.774   2.090  1.6351 -1.5213 -0.2661
  121SOL    HW2  363   1.896   0.644   2.201  3.4989  0.9017 -0.0590
  122SOL     OW  364   2.581   2.511   1.349 -0.1391  0.0926  0.1125
  122SOL    HW1  365   2.611   2.482   1.253 -4.8735  3.5872  0.7644
  122SOL    HW2  366   2.608   2.441   1.418  1.1031 -0.5743 -3.4118
  123SOL     OW  367   1.729   0.142   1.729  0.3977  0.3336  0.2035
  123SOL    HW1  368   1.733   0.045   1.695 -1.5347 -2.8191  1.2422
  123SOL    HW2  369   1.818   0.187   1.735  1.7475 -0.3373 -3.3146
  124SOL     OW  370   3.060   0.476   1.092  0.2961  0.0345 -0.6768
  124SOL    HW1  371   2.965   0.508   1.119 -0.9025 -0.2617 -1.1011
  124SOL    HW2  372   3.082   0.511   0.995  1.8690 -0.1379 -1.3632
  125SOL     OW  373   0.894   1.906   0.776 -0.4525 -0.2896  0.1329
  125SOL    HW1  374   0.979   1.849   0.772  0.0291  0.3028  0.9506
  125SOL    HW2  375   0.835   1.887   0.864 -0.7578  1.2724  2.6164
  126SOL     OW  376   1.965   2.284   2.443 -0.1293  0.3064 -0.6416
  126SOL    HW1  377   1.994   2.239   2.352  1.5935 -0.6145  0.6441
  126SOL    HW2  378   1.965   2.218   2.527 -0.8502  0.7750 -1.1650
  127SOL     OW  379   0.892   0.973   0.210 -0.1005 -0.0815 -0.2836
  127SOL    HW1  380   0.939   1.019   0.290 -1.8929  2.0575 -1.0814
  127SOL    HW2  381   0.923   0.874   0.199 -0.2711  2.3311  1.3211
  128SOL     OW  382   0.945   0.274   1.419  0.1658  0.5181  0.3966
  128SOL    HW1  383   0.895   0.349   1.361 -3.1098  0.8098 -1.8081
  128SOL    HW2  384   0.884   0.186   1.408 -2.0830 -2.9299 -0.8379
  129SOL     OW  385   1.865   0.677   1.838  0.1350  0.5899 -0.1048
  129SOL    HW1  386   1.894   0.681   1.739 -1.7054  2.3507  1.1274
  129SOL    HW2  387   1.889   0.762   1.885 -5.3745 -0.5158 -3.0502
  130SOL     OW  388   1.404   2.244   1.009 -0.6522  0.3511  0.0264
  130SOL    HW1  389   1.371   2.206   0.917 -0.9236 -0.8802 -1.1869
  130SOL    HW2  390   1.466   2.330   1.001 -0.6342 -0.3335  0.0751
  131SOL     OW  391   3.054   1.433   1.365  0.4393  1.1040  0.2255
  131SOL    HW1  392   2.975   1.363   1.357 -2.9501 -0.7068  0.9628
  131SOL    HW2  393   3.150   1.392   1.350  0.8252 -3.6320  0.3854
  132SOL     OW  394   2.029   2.367   0.522 -0.3374 -0.0156 -0.2154
  132SOL    HW1  395   1.938   2.421   0.515  0.3812  0.0457 -0.0013
  132SOL    HW2  396   2.029   2.304   0.602 -0.3221  0.2901 -1.8395
  133SOL     OW  397   1.795   2.362   2.718  0.0457  0.5285 -0.3402
  133SOL    HW1  398   1.734   2.429   2.664 -3.3264  1.4694 -0.4871
  133SOL    HW2  399   1.893   2.370   2.691  0.8550 -0.4711  2.8635
  134SOL     OW  400   2.700   2.385   1.603  0.2286  0.3528 -0.0231
  134SOL    HW1  401   2.646   2.363   1.687  0.7935  0.4654 -1.3248
  134SOL    HW2  402   2.781   2.443   1.629  1.3343 -2.4044  1.3483
  135SOL     OW  403   0.706   1.425   2.697  0.5890 -0.0116  0.1164
  135SOL    HW1  404   0.708   1.322   2.697 -0.6529  3.0195  2.4349
  135SOL    HW2  405   0.709   1.462   2.605  0.3613  0.0923  1.9607
  136SOL     OW  406   1.187   2.020   0.413 -0.3728  0.3917 -0.4791
  136SOL    HW1  407   1.123   2.105   0.425 -4.0894  0.2981 -2.4743
  136SOL    HW2  408   1.138   1.931   0.424  0.4202  0.8177  2.2100
  137SOL     OW  409   0.409   1.233   2.232 -0.1359  0.1833  0.2942
  137SOL    HW1  410   0.311   1.236   2.258  2.4403  0.2514  0.2484
  137SOL    HW2  411   0.458   1.139   2.242  0.2529  1.0055 -0.1127
  138SOL     OW  412   2.446   1.535   0.296  0.1310 -0.4798 -0.3953
  138SOL    HW1  413   2.352   1.508   0.260 -1.8142 -0.5877 -1.3553
  138SOL    HW2  414   2.506   1.459   0.332  0.0032 -0.0178  1.6495
  139SOL     OW  415   1.875   2.638   1.534  0.4179 -0.2496  0.5110
  139SOL    HW1  416   1.783   2.675   1.497  0.7989 -1.4413  2.2052
  139SOL    HW2  417   1.909   2.560   1.473 -0.5710  2.0511 -2.2209
  140SOL     OW  418   3.009   2.977   2.621  0.3952 -0.2507  0.2830
  140SOL    HW1  419   3.066   2.894   2.588  0.4090  1.0400  1.6266
  140SOL    HW2  420   3.046   3.069   2.591 -2.1334 -1.2195  2.0610
  141SOL     OW  421   1.322   1.618   1.564 -0.3989 -0.0477 -0.3345
  141SOL    HW1  422   1.241   1.687   1.571 -1.3796 -2.3251  1.0410
  141SOL    HW2  423   1.304   1.531   1.620  1.6439 -0.6378  0.7790
  142SOL     OW  424   1.522   0.623   2.242 -0.5456  0.1529  0.0427
  142SOL    HW1  425   1.521   0.656   2.143  0.0149  0.0990 -0.5832
  142SOL    HW2  426   1.429   0.617   2.282 -0.8399  1.6594  0.9093
  143SOL     OW  427   2.786   0.805   0.543 -0.3659 -0.9973  0.3301
  143SOL    HW1  428   2.840   0.853   0.467 -0.3891  0.0058 -0.5930
  143SOL    HW2  429   2.802   0.847   0.634 -3.1332 -0.2721 -3.3965
  144SOL     OW  430   2.911   1.183   1.457  0.2889 -0.0777 -0.6547
  144SOL    HW1  431   2.859   1.171   1.548  2.5196  1.3674  1.1131
  144SOL    HW2  432   2.997   1.123   1.460  1.1230 -0.9163  0.6311
  145SOL     OW  433   0.911   1.845   0.106 -0.6430  0.5242 -0.2469
  145SOL    HW1  434   0.986   1.847   0.035 -1.8879  1.0347 -2.6367
  145SOL    HW2  435   0.851   1.764   0.095  1.5151  1.2486  0.2699
  146SOL     OW  436   2.462   0.665   1.495  0.0072 -0.2822  0.2827
  146SOL    HW1  437   2.416   0.586   1.448 -1.5974  1.2685 -1.2426
  146SOL    HW2  438   2.411   0.753   1.472  1.5504 -0.2105 -0.3589
  147SOL     OW  439   1.110   2.522   0.584  0.6017 -0.1093  0.8279
  147SOL    HW1  440   1.076   2.575   0.501  1.3582 -0.1679 -0.4416
  147SOL    HW2  441   1.201   2.473   0.563 -0.9854 -1.1243  0.0565
  148SOL     OW  442   1.580   1.463   3.088  0.2529  0.1798 -0.4323
  148SOL    HW1  443   1.577   1.370   3.045 -0.9161 -0.0567 -1.9500
  148SOL    HW2  444   1.581   1.464   3.190  0.1623 -0.1186  0.1444
  149SOL     OW  445   0.692   1.510   1.969 -0.3225  0.2895 -0.1208
  149SOL    HW1  446   0.600   1.478   2.010 -2.8032 -0.8522 -2.5500
  149SOL    HW2  447   0.713   1.454   1.882  1.5353 -1.3520 -1.9627
  150SOL     OW  448   3.026   1.194   0.976 -0.1301 -0.8584  0.2598
  150SOL    HW1  449   3.109   1.201   1.032 -1.6522  1.9659  2.4324
  150SOL    HW2  450   2.968   1.116   0.999  1.8165  0.2076 -1.1852
  151SOL     OW  451   0.295   0.805   2.042  0.2988 -0.4248  0.0097
  151SOL    HW1  452   0.273   0.896   1.996  0.1973 -0.0526  0.3342
  151SOL    HW2  453   0.312   0.730   1.975 -0.4511  0.1439  2.5967
  152SOL     OW  454   1.424   1.832   1.137 -0.4495  0.5617 -0.6246
  152SOL    HW1  455   1.470   1.923   1.133 -0.0828 -2.5799  2.1677
  152SOL    HW2  456   1.324   1.841   1.118 -1.1012  2.2359 -0.3587
  153SOL     OW  457   0.169   1.513   0.217 -0.5456 -0.3017 -0.0563
  153SOL    HW1  458   0.122   1.415   0.228 -3.2142 -1.8132 -0.2457
  153SOL    HW2  459   0.149   1.572   0.304  0.3546 -0.1278  1.3166
  154SOL     OW  460   2.274   1.855   2.773 -0.1823  0.1717 -0.3565
  154SOL    HW1  461   2.297   1.755   2.790  0.0982 -1.1038  0.1673
  154SOL    HW2  462   2.350   1.900   2.723  0.1260 -2.6471  1.2466
  155SOL     OW  463   2.438   1.247   0.339 -0.2512 -0.0674 -0.3595
  155SOL    HW1  464   2.539   1.229   0.312  2.7036  2.2756  2.1176
  155SOL    HW2  465   2.377   1.165   0.345  1.2800  1.2901  0.5591
  156SOL     OW  466   2.460   0.818   0.724 -0.5303  0.1979 -0.5143
  156SOL    HW1  467   2.358   0.811   0.726  0.1593  0.5573 -0.7587
  156SOL    HW2  468   2.507   0.831   0.632  2.3427  1.0181 -0.4353
  157SOL     OW  469   1.219   2.955   3.016 -0.4265  0.3968  0.1617
  157SOL    HW1  470   1.287   2.892   2.969  1.4237  1.1415 -0.7781
  157SOL    HW2  471   1.255   3.051   3.017 -0.1100 -3.6618 -0.2373
  158SOL     OW  472   1.056   1.855   1.827  0.6971 -0.5217 -0.0133
  158SOL    HW1  473   1.068   1.956   1.808  1.9751  1.1701 -0.2374
  158SOL    HW2  474   0.978   1.833   1.893  1.6248 -1.2540  0.6053
  159SOL     OW  475   0.855   0.443   1.221 -0.3557 -0.0940  0.2095
  159SOL    HW1  476   0.813   0.533   1.264 -0.4588  3.4054  1.8020
  159SOL    HW2  477   0.788   0.402   1.152  0.0290  3.0963 -0.5877
  160SOL     OW  478   1.408   2.430   1.505  0.8512  0.4670 -0.5328
  160SOL    HW1  479   1.359   2.357   1.559  3.2763 -2.0435  1.5089
  160SOL    HW2  480   1.505   2.391   1.477  1.6759 -1.6079 -0.9464
  161SOL     OW  481   3.043   2.659   0.465 -0.0561 -0.7772 -0.3965
  161SOL    HW1  482   3.025   2.558   0.457 -1.3282 -0.7276  0.1093
  161SOL    HW2  483   2.976   2.730   0.426 -3.7136  0.3592  0.3598
  162SOL     OW  484   2.584   1.832   0.454  0.0762  0.2963 -0.1420
  162SOL    HW1  485   2.550   1.811   0.360  2.1043  2.5229 -0.8710
  162SOL    HW2  486   2.543   1.778   0.531  1.8710  3.0018  0.6410
  163SOL     OW  487   1.948   2.684   0.745  0.0994  0.6678 -0.1511
  163SOL    HW1  488   1.923   2.687   0.646  0.6544  1.4567  1.9153
  163SOL    HW2  489   2.029   2.624   0.771  0.3251  0.7640 -0.4363
  164SOL     OW  490   3.034   0.215   1.212 -0.0363 -0.5594 -0.1246
  164SOL    HW1  491   3.045   0.310   1.173 -2.6390  0.3529 -2.4065
  164SOL    HW2  492   3.097   0.200   1.289 -0.0117 -1.4448 -0.1593
  165SOL     OW  493   1.109   1.410   0.674  0.1301 -0.1918 -0.3899
  165SOL    HW1  494   1.074   1.449   0.763 -1.9848 -0.9776  0.4738
  165SOL    HW2  495   1.041   1.434   0.598 -0.9933 -0.5584  1.6692
  166SOL     OW  496   1.532   1.019   1.777 -0.6561 -0.2214  0.1159
  166SOL    HW1  497   1.446   1.048   1.823 -0.1484  0.7239  0.0172
  166SOL    HW2  498   1.604   1.089   1.797 -2.8762 -0.5186  2.8684
  167SOL     OW  499   0.772   1.953   1.460 -0.4055  0.2073 -0.0754
  167SOL    HW1  500   0.780   2.022   1.541 -2.4337  1.3134  0.1197
  167SOL    HW2  501   0.732   1.862   1.495 -0.2170 -2.5616  1.7469
  168SOL     OW  502   1.565   2.343   0.158 -0.2243 -0.1684  0.0560
  168SOL    HW1  503   1.624   2.343   0.071 -3.0351  0.2984 -1.0427
  168SOL    HW2  504   1.605   2.290   0.239  0.7926  0.6063  0.2625
  169SOL     OW  505   0.077   2.579   2.200 -0.1188 -0.3184 -0.4414
  169SOL    HW1  506   0.128   2.516   2.139 -0.0269 -1.8081  2.2124
  169SOL    HW2  507   0.108   2.562   2.298 -0.4753 -0.5818 -2.6843
  170SOL     OW  508   1.149   0.210   2.047  0.1438 -0.2457 -0.1941
  170SOL    HW1  509   1.232   0.259   2.068 -0.9859  1.0037 -1.5550
  170SOL    HW2  510   1.147   0.183   1.946 -1.0344 -1.3055  0.4538
  171SOL     OW  511   0.216   0.856   2.372 -0.0871 -0.1191 -0.5210
  171SOL    HW1  512   0.125   0.888   2.410 -2.7330  0.9894 -0.0431
  171SOL    HW2  513   0.200   0.827   2.274 -1.9018  1.1409  0.6236
  172SOL     OW  514   0.960   1.031   2.890  0.9209  0.2906 -0.6056
  172SOL    HW1  515   0.910   1.118   2.925 -2.0109  0.6410 -1.3113
  172SOL    HW2  516   0.923   0.998   2.796 -0.1581 -3.6010  0.2928
  173SOL     OW  517   0.494   2.461   0.113 -0.1699  0.2415 -0.9352
  173SOL    HW1  518   0.510   2.364   0.072 -1.5190  0.6042  0.7641
  173SOL    HW2  519   0.414   2.468   0.184 -0.4570 -2.9784 -0.5434
  174SOL     OW  520   1.524   2.860   1.085  0.6239  0.0436  0.2044
  174SOL    HW1  521   1.595   2.909   1.030 -1.8340  0.6300 -1.4584
  174SOL    HW2  522   1.474   2.785   1.023  0.2588 -0.9581 -2.1519
  175SOL     OW  523   0.424   3.069   1.705  0.0414 -0.1773  0.7686
  175SOL    HW1  524   0.512   3.055   1.762  3.1649  2.4482 -1.7457
  175SOL    HW2  525   0.407   3.166   1.668 -1.3145  1.3910  2.5291
  176SOL     OW  526   2.623   0.365   0.015  0.4549  0.2470 -0.4412
  176SOL    HW1  527   2.630   0.449   0.075 -0.6314  1.0999  0.9419
  176SOL    HW2  528   2.648   0.284   0.076 -1.3713  0.4684  0.4328
  177SOL     OW  529   0.339   0.313   0.994  0.5032  0.4531 -0.1923
  177SOL    HW1  530   0.323   0.212   1.002 -1.1126  0.5265 -0.1872
  177SOL    HW2  531   0.296   0.370   1.071 -1.1565 -3.0190  0.7162
  178SOL     OW  532   0.022   2.739   2.553 -0.0752  0.0983 -0.1084
  178SOL    HW1  533  -0.015   2.644   2.562  0.2784 -1.0200 -0.2800
  178SOL    HW2  534   0.083   2.765   2.634 -0.1899 -1.4698  1.8666
  179SOL     OW  535   3.006   1.528   1.106 -0.2681 -0.3516  0.0461
  179SOL    HW1  536   3.030   1.625   1.076 -0.9241 -0.1114  0.1179
  179SOL    HW2  537   3.043   1.503   1.196 -1.6508  2.3822  1.2233
  180SOL     OW  538   0.192   1.379   1.776  0.0396 -0.2138  0.4587
  180SOL    HW1  539   0.267   1.319   1.808 -3.2138 -2.1780  1.2930
  180SOL    HW2  540   0.151   1.435   1.852  1.3460 -1.5959 -2.8312
  181SOL     OW  541   2.969   1.938   2.542  0.3859 -0.4082  0.2058
  181SOL    HW1  542   3.024   2.024   2.499 -0.0765  1.4867  1.3124
  181SOL    HW2  543   2.901   1.907   2.470 -0.5250  0.1759  1.4623
  182SOL     OW  544   2.339   1.276   1.262 -0.4900 -0.1063 -0.3371
  182SOL    HW1  545   2.279   1.228   1.196  0.1936  1.2996  1.0799
  182SOL    HW2  546   2.382   1.360   1.226  0.7926  2.6062  0.8138
  183SOL     OW  547   1.380   2.309   2.451  0.3005  0.2322 -0.1905
  183SOL    HW1  548   1.332   2.299   2.541 -0.1109  2.6651  1.3799
  183SOL    HW2  549   1.427   2.219   2.424 -0.8521 -1.5751  1.1239
  184SOL     OW  550   2.161   0.854   0.755 -0.3474 -1.1490  0.1801
  184SOL    HW1  551   2.064   0.894   0.779  0.8618  2.3743  0.3072
  184SOL    HW2  552   2.154   0.765   0.697  0.2113  0.1524  0.2006
  185SOL     OW  553   1.528   2.738   2.044  0.1189 -0.6050  0.5672
  185SOL    HW1  554   1.443   2.795   2.061 -0.9635 -0.7039 -0.2808
  185SOL    HW2  555   1.603   2.755   2.113 -0.1099  1.9868 -0.0185
  186SOL     OW  556   0.058   2.209   1.641 -0.0274  0.2709  0.1055
  186SOL    HW1  557   0.026   2.244   1.740 -1.1822  0.3888  0.1982
  186SOL    HW2  558   0.144   2.147   1.652  0.0069 -1.2230  1.6791
  187SOL     OW  559   1.355   0.628   1.668  0.0432  0.1721  0.5963
  187SOL    HW1  560   1.453   0.665   1.661 -2.9997 -2.3721 -0.8223
  187SOL    HW2  561   1.348   0.548   1.732  1.0053  1.3212 -0.6024
  188SOL     OW  562   2.764   2.707   1.413 -0.5494 -0.3347  0.1529
  188SOL    HW1  563   2.769   2.813   1.412  0.5573 -1.0452 -0.3672
  188SOL    HW2  564   2.671   2.664   1.410 -0.5008 -0.6802  2.0546
  189SOL     OW  565   0.897   1.205   1.393  0.3819  0.2987 -0.4359
  189SOL    HW1  566   0.969   1.243   1.458 -0.9711 -0.6830 -1.1651
  189SOL    HW2  567   0.827   1.274   1.362 -0.5211  1.7901  4.4020
  190SOL     OW  568   1.466   1.886   1.553 -0.4270  0.5009 -0.2434
  190SOL    HW1  569   1.451   1.786   1.534  3.2682  1.9128  0.6641
  190SOL    HW2  570   1.488   1.902   1.652 -0.1764 -0.8827 -1.5344
  191SOL     OW  571   0.924   0.810   1.518 -0.3963  0.0993 -0.1723
  191SOL    HW1  572   0.993   0.750   1.562  0.2078 -1.4008 -2.7079
  191SOL    HW2  573   0.973   0.890   1.472 -2.4137  0.4823 -1.8337
  192SOL     OW  574   1.852   2.471   1.108 -0.4561  0.2904 -0.1274
  192SOL    HW1  575   1.756   2.452   1.081  0.7503  0.4185 -1.6132
  192SOL    HW2  576   1.913   2.407   1.052  0.9120 -2.3999 -0.5701
  193SOL     OW  577   0.533   0.554   0.445  0.3807  0.4700  0.9807
  193SOL    HW1  578   0.490   0.458   0.452  1.1792  1.2077  2.6129
  193SOL    HW2  579   0.563   0.574   0.347  0.7690  1.5779 -2.4016
  194SOL     OW  580   0.338   0.914   1.328  0.7945 -0.1347  0.3960
  194SOL    HW1  581   0.266   0.851   1.280 -0.5538  0.0762 -2.7920
  194SOL    HW2  582   0.404   0.946   1.259 -0.8522  1.9612  0.9817
  195SOL     OW  583   0.970   2.900   0.539  0.1751  0.0261 -0.3087
  195SOL    HW1  584   0.944   2.812   0.488  1.2553 -1.2656 -0.4719
  195SOL    HW2  585   1.065   2.946   0.517  0.9790  2.0826  0.0701
  196SOL     OW  586   0.264   1.370   1.342  0.4261  0.2816 -0.2512
  196SOL    HW1  587   0.273   1.469   1.366 -1.8837  0.6326  0.0762
  196SOL    HW2  588   0.245   1.313   1.425  1.3255  2.2115 -0.1176
  197SOL     OW  589   0.828   2.014   0.336  0.2949  0.0237 -0.2373
  197SOL    HW1  590   0.807   1.968   0.425  1.6730  0.2546  1.5772
  197SOL    HW2  591   0.862   1.954   0.257 -0.7004 -1.4840 -1.9829
  198SOL     OW  592   0.288   1.245   0.349  0.3274  0.3238 -0.0934
  198SOL    HW1  593   0.189   1.218   0.329 -1.8876 -1.1777 -0.5888
  198SOL    HW2  594   0.307   1.334   0.401 -0.6374  1.9692  1.9936
  199SOL     OW  595   2.255   0.465   2.575 -0.5584 -0.1395 -0.4081
  199SOL    HW1  596   2.179   0.439   2.645 -0.4106  1.5434  1.1244
  199SOL    HW2  597   2.346   0.427   2.603 -3.3372 -2.7786  1.1914
  200SOL     OW  598   3.093   2.976   0.816 -0.1545  0.3198  0.1082
  200SOL    HW1  599   3.111   3.080   0.831  0.9781  0.4988  1.6569
  200SOL    HW2  600   3.006   2.965   0.754 -2.3068  0.4131 -0.5736
  201SOL     OW  601   0.930   0.733   0.507 -0.0812 -0.2588 -0.4110
  201SOL    HW1  602   0.893   0.817   0.560 -1.7359  2.5013  1.5694
  201SOL    HW2  603   0.880   0.639   0.530 -1.8292  0.5206 -0.8783
  202SOL     OW  604   0.435   1.245   1.844 -0.0668  0.3707 -0.7425
  202SOL    HW1  605   0.516   1.193   1.809  0.4391  1.8949  0.3782
  202SOL    HW2  606   0.463   1.308   1.921  3.4898 -1.2581 -1.8451
  203SOL     OW  607   0.621   0.220   1.560  0.2867 -0.2387 -0.0819
  203SOL    HW1  608   0.630   0.184   1.462  0.7821  1.1558 -2.2607
  203SOL    HW2  609   0.692   0.182   1.627  2.1767 -1.0613  1.7534
  204SOL     OW  610   2.099   1.794   2.980 -0.6463 -0.4178 -0.2225
  204SOL    HW1  611   2.102   1.689   2.991 -0.7626 -1.1702 -0.1119
  204SOL    HW2  612   2.167   1.828   2.899  1.2110 -2.1123 -0.8989
  205SOL     OW  613   1.841   1.885   0.010  0.1583  0.0190  0.1135
  205SOL    HW1  614   1.938   1.872  -0.029  2.4112 -0.5170 -0.3377
  205SOL    HW2  615   1.778   1.938  -0.055 -3.4357 -1.4047 -0.8075
  206SOL     OW  616   2.410   2.782   0.359  0.0543  0.0821 -0.7104
  206SOL    HW1  617   2.379   2.685   0.358  0.2072 -0.0505 -0.4107
  206SOL    HW2  618   2.488   2.798   0.300 -0.8937 -3.9665  1.0372
  207SOL     OW  619   0.706   1.741   2.883 -0.1427 -0.0422 -0.1677
  207SOL    HW1  620   0.788   1.688   2.845 -1.6034  0.8553  1.4436
  207SOL    HW2  621   0.652   1.688   2.959  0.5599  1.3535 -0.2008
  208SOL     OW  622   1.072   1.667   1.242 -0.8718 -0.5208 -0.2145
  208SOL    HW1  623   1.087   1.762   1.276 -0.4990 -1.2352  0.0417
  208SOL    HW2  624   0.978   1.633   1.263 -0.3498  0.5675 -0.3533
  209SOL     OW  625   0.210   0.991   3.086  0.6116 -0.0526  0.0933
  209SOL    HW1  626   0.211   0.917   3.012 -1.8465 -0.2181 -0.5901
  209SOL    HW2  627   0.204   0.956   3.183  0.5823  0.4289 -1.7050
  210SOL     OW  628   1.715   0.483   1.234  0.1778 -0.2338  0.2148
  210SOL    HW1  629   1.663   0.569   1.195  1.3649  1.6992 -1.0275
  210SOL    HW2  630   1.816   0.493   1.236 -0.9109  0.7567 -0.9785
  211SOL     OW  631   2.045   1.032   1.560  0.1780 -0.0350  0.2179
  211SOL    HW1  632   2.068   0.969   1.633  2.7823 -0.8087 -1.6243
  211SOL    HW2  633   2.134   1.085   1.540 -1.0863 -0.0947 -1.2348
  212SOL     OW  634   0.038   0.962   1.487 -0.0880  0.0999 -0.5105
  212SOL    HW1  635   0.099   1.035   1.535 -2.7327  0.8552  0.3613
  212SOL    HW2  636   0.032   0.872   1.541  0.1822 -0.2494 -2.3219
  213SOL     OW  637   2.747   0.215   0.255 -0.0596 -0.4414 -0.0665
  213SOL    HW1  638   2.827   0.229   0.193  2.6336 -1.4295 -2.0631
  213SOL    HW2  639   2.703   0.120   0.231 -1.4384 -1.7065 -2.9696
  214SOL     OW  640   2.154   0.358   2.347  0.0808 -0.0613  0.3030
  214SOL    HW1  641   2.188   0.416   2.426 -0.0961 -1.5468 -1.4058
  214SOL    HW2  642   2.177   0.260   2.357  0.6624 -0.4877  1.2311
  215SOL     OW  643   1.649   2.277   2.096 -0.4737 -0.0642 -0.1300
  215SOL    HW1  644   1.749   2.303   2.094  0.5455 -0.5977 -0.0127
  215SOL    HW2  645   1.583   2.355   2.124  0.5270 -0.9528  2.1539
  216SOL     OW  646   2.159   0.614   0.602 -0.2453 -0.0646 -0.1696
  216SOL    HW1  647   2.142   0.514   0.558  0.2178 -3.3179  1.5507
  216SOL    HW2  648   2.200   0.685   0.533  0.3217  2.0794 -2.5901
  217SOL     OW  649   0.924   2.839   2.539  0.6886  0.2611  0.3443
  217SOL    HW1  650   1.004   2.782   2.570 -1.5752 -0.3587 -0.7559
  217SOL    HW2  651   0.844   2.782   2.519  0.4283 -0.8013  1.4812
  218SOL     OW  652   1.878   1.466   0.042  0.0681  0.3107 -0.8969
  218SOL    HW1  653   1.777   1.463   0.018 -0.0685 -1.5897  1.3814
  218SOL    HW2  654   1.909   1.380   0.099  1.1319 -0.3379  0.3937
  219SOL     OW  655   2.479   1.276   2.531 -0.2363 -0.0894 -0.1563
  219SOL    HW1  656   2.517   1.233   2.447 -0.7630  0.0119 -0.3949
  219SOL    HW2  657   2.492   1.219   2.614 -2.6139 -2.8113 -0.9732
  220SOL     OW  658   1.431   1.016   1.406  0.2184  0.0611 -0.3076
  220SOL    HW1  659   1.533   0.988   1.419  0.3799 -3.6115 -0.9733
  220SOL    HW2  660   1.416   1.043   1.306 -0.6115 -1.4462 -0.0464
  221SOL     OW  661   1.356   0.949   2.209  0.3119  0.2076  0.5256
  221SOL    HW1  662   1.323   0.951   2.108  0.1315 -1.7272 -3.6519
  221SOL    HW2  663   1.458   0.973   2.225 -1.3805 -1.6742  2.5920
  222SOL     OW  664   1.093   0.121   1.239  0.5578 -0.9875  0.0118
  222SOL    HW1  665   1.024   0.181   1.286 -1.8422  0.3111 -0.8923
  222SOL    HW2  666   1.111   0.156   1.141 -0.8674 -1.9684 -0.8722
  223SOL     OW  667   2.709   0.906   2.087  0.2634 -0.0573 -0.0171
  223SOL    HW1  668   2.654   0.984   2.125 -0.5126  1.9789 -1.2950
  223SOL    HW2  669   2.805   0.901   2.125 -0.0279  0.8524 -1.2542
  224SOL     OW  670   1.516   1.049   2.724  0.7232 -0.0268 -0.0740
  224SOL    HW1  671   1.566   0.973   2.687  0.0873  1.4168  1.1239
  224SOL    HW2  672   1.540   1.133   2.665  4.8414 -0.7030  2.3001
  225SOL     OW  673   2.971   2.685   2.849 -0.1789  0.3881 -0.3825
  225SOL    HW1  674   2.888   2.658   2.793 -3.0390  0.7805 -2.7325
  225SOL    HW2  675   2.989   2.788   2.844  1.0581  1.9701 -0.0192
  226SOL     OW  676   2.366   1.593   2.791 -0.6269 -1.0162  0.7926
  226SOL    HW1  677   2.430   1.586   2.711  1.5344 -4.1465 -0.6232
  226SOL    HW2  678   2.370   1.513   2.851  2.3918  0.8868  0.5447
  227SOL     OW  679   0.858   0.251   3.081 -0.1738  0.2928  0.1399
  227SOL    HW1  680   0.897   0.346   3.054  1.4908  0.4772  0.7041
  227SOL    HW2  681   0.824   0.195   2.998 -1.3238  2.2486 -0.6264
  228SOL     OW  682   2.413   0.596   2.817 -0.3419  0.1295  0.1649
  228SOL    HW1  683   2.427   0.686   2.774  1.8179 -0.6140  1.7804
  228SOL    HW2  684   2.496   0.537   2.840 -1.8365  1.8217  0.4333
  229SOL     OW  685   0.531   0.474   1.797 -0.8112  0.1766  0.6491
  229SOL    HW1  686   0.576   0.390   1.836 -1.5640  2.8464 -0.3588
  229SOL    HW2  687   0.568   0.508   1.708 -2.3460 -0.6980 -2.3579
  230SOL     OW  688   1.872   1.214   2.045 -0.1605  0.3602 -0.3858
  230SOL    HW1  689   1.939   1.278   1.995  0.6585  0.8225  0.0325
  230SOL    HW2  690   1.792   1.265   2.087  1.1489 -1.1077  2.0900
  231SOL     OW  691   0.663   1.074   3.092 -0.0735  0.3407  0.1659
  231SOL    HW1  692   0.755   1.114   3.095 -1.9831 -0.4204 -0.6501
  231SOL    HW2  693   0.579   1.137   3.128 -4.1105  0.9468  0.5773
  232SOL     OW  694   2.442   3.012   2.827 -0.6920  0.3397  0.5231
  232SOL    HW1  695   2.511   2.933   2.834 -1.9999 -0.3414 -0.9115
  232SOL    HW2  696   2.447   3.064   2.733  0.8117 -1.6013 -0.6508
  233SOL     OW  697   1.757   1.253   1.206 -0.1662 -0.3611 -0.4242
  233SOL    HW1  698   1.814   1.232   1.124  0.1577  1.3999  0.0041
  233SOL    HW2  699   1.732   1.173   1.261 -0.4039 -1.2336 -1.8080
  234SOL     OW  700   1.639   2.563   1.832  0.5673  0.5581 -0.4050
  234SOL    HW1  701   1.599   2.620   1.908  0.5095  2.4955 -0.4690
  234SOL    HW2  702   1.597   2.471   1.815  3.4530  3.4765  0.4282
  235SOL     OW  703   0.016   2.956   2.871 -0.3021 -0.4417 -0.3492
  235SOL    HW1  704  -0.030   2.978   2.781 -1.8205 -1.3182  1.6403
  235SOL    HW2  705  -0.037   3.000   2.956 -0.3096  1.1816  0.6720
  236SOL     OW  706   2.926   0.660   0.109  0.9493 -0.4398 -0.1230
  236SOL    HW1  707   2.992   0.716   0.164 -0.1810  1.1766 -0.8619
  236SOL    HW2  708   2.968   0.572   0.066  0.6244 -2.7896 -1.2157
  237SOL     OW  709   1.465   1.645   0.947  0.1754 -0.4389 -0.4107
  237SOL    HW1  710   1.569   1.624   0.951 -1.3738 -1.6509 -2.5367
  237SOL    HW2  711   1.436   1.710   1.022  1.5615  0.2591  0.8704
  238SOL     OW  712   1.884   1.222   0.750  0.0173 -0.4711 -0.2491
  238SOL    HW1  713   1.903   1.237   0.854  1.6931  0.5798  3.2117
  238SOL    HW2  714   1.795   1.266   0.726  1.4903 -1.8367 -2.6528
  239SOL     OW  715   2.046   0.279   2.757 -0.0455 -0.4946 -0.5355
  239SOL    HW1  716   2.076   0.231   2.840  1.9328 -1.8170 -0.7676
  239SOL    HW2  717   1.959   0.335   2.776  2.4177  0.2539  1.5092
  240SOL     OW  718   0.924   0.696   0.231  0.1146  0.1782  0.5187
  240SOL    HW1  719   0.983   0.619   0.190 -0.2883 -1.2613 -2.7715
  240SOL    HW2  720   0.938   0.701   0.339 -1.9695 -0.2560  3.3955
  241SOL     OW  721   0.587   0.085   0.391  0.0847  0.4005 -0.2073
  241SOL    HW1  722   0.632   0.164   0.345  0.7183 -0.4330 -1.7325
  241SOL    HW2  723   0.585   0.003   0.328  1.1137  1.5847  2.6992
  242SOL     OW  724   0.621   2.557   1.194  0.0692 -0.3409  0.2197
  242SOL    HW1  725   0.639   2.532   1.295 -0.4035  2.3123  0.9662
  242SOL    HW2  726   0.593   2.654   1.184  1.8580  0.3711  1.8267
  243SOL     OW  727   1.029   0.555   2.400 -0.3906  0.5962  0.1224
  243SOL    HW1  728   0.939   0.582   2.346  1.7810 -0.4035 -3.9402
  243SOL    HW2  729   1.008   0.516   2.494  0.4964  0.1908 -1.5265
  244SOL     OW  730   2.757   1.893   2.369 -0.3347  0.0143 -0.0677
  244SOL    HW1  731   2.799   1.878   2.278 -0.3517  2.3239  0.1064
  244SOL    HW2  732   2.683   1.824   2.393  0.8088 -0.7864 -1.5407
  245SOL     OW  733   2.173   0.929   2.175 -0.1323  0.0459 -0.1064
  245SOL    HW1  734   2.257   0.905   2.236  1.6880  1.5965 -1.5264
  245SOL    HW2  735   2.112   1.010   2.208  1.0994 -0.4958  0.2110
  246SOL     OW  736   0.225   2.867   1.743 -0.0977 -0.2712  0.1652
  246SOL    HW1  737   0.140   2.886   1.692  2.0163 -0.3955  1.7778
  246SOL    HW2  738   0.303   2.937   1.736  1.8808 -1.2384  0.0671
  247SOL     OW  739   2.235   0.631   3.037 -0.1108  0.0662  0.2727
  247SOL    HW1  740   2.303   0.599   2.965  0.8271 -1.4398  1.2022
  247SOL    HW2  741   2.175   0.711   3.013  1.4509 -2.5687  0.9775
  248SOL     OW  742   2.195   1.847   1.584 -0.2530  0.5148  0.5190
  248SOL    HW1  743   2.276   1.790   1.628  2.2700 -1.6503 -0.4121
  248SOL    HW2  744   2.101   1.818   1.608  2.6910  0.3638 -1.2490
  249SOL     OW  745   1.952   1.871   1.832 -0.0116 -0.2192 -0.6327
  249SOL    HW1  746   1.951   1.819   1.740 -0.1428 -1.6263 -0.1994
  249SOL    HW2  747   2.046   1.902   1.868  0.2290  2.7268  0.1188
  250SOL     OW  748   1.115   0.729   1.882  0.4377  0.2161 -0.4104
  250SOL    HW1  749   1.136   0.656   1.955 -1.2976 -0.5062 -1.0091
  250SOL    HW2  750   1.090   0.683   1.796  0.4476  0.5128  0.5923
  251SOL     OW  751   3.016   1.622   2.564  0.4951  0.0189  0.5642
  251SOL    HW1  752   3.008   1.723   2.584  0.1056  1.6448 -1.9218
  251SOL    HW2  753   2.924   1.581   2.529 -0.2636  1.1866 -1.3657
  252SOL     OW  754   1.600   0.762   1.706 -0.1663  0.3352 -0.6459
  252SOL    HW1  755   1.686   0.734   1.659  0.1453  1.0958 -0.4297
  252SOL    HW2  756   1.584   0.864   1.721  2.2674  0.5778  1.4595
  253SOL     OW  757   0.986   1.574   0.479 -0.1143 -0.0049  0.6133
  253SOL    HW1  758   0.976   1.481   0.429  1.3188 -1.6891  2.0153
  253SOL    HW2  759   0.903   1.612   0.524  1.8739  0.0732  0.7643
  254SOL     OW  760   2.030   2.210   1.658 -0.1006 -0.0094 -0.1401
  254SOL    HW1  761   1.989   2.120   1.633 -0.6241  0.5314 -0.9275
  254SOL    HW2  762   1.966   2.276   1.710 -1.1600  0.8022  1.0250
  255SOL     OW  763   0.142   1.190   2.902 -0.2271 -0.0964 -0.3230
  255SOL    HW1  764   0.205   1.276   2.891  1.2147 -0.5929  2.0466
  255SOL    HW2  765   0.177   1.118   2.960 -2.5507  1.7625 -0.9436
  256SOL     OW  766   2.839   1.377   1.864 -0.0922 -0.3838 -0.2493
  256SOL    HW1  767   2.752   1.428   1.853 -1.9770 -1.6432  1.2732
  256SOL    HW2  768   2.829   1.283   1.822 -0.8118  1.5881  2.0188
  257SOL     OW  769   0.800   0.133   1.765  0.1218  0.2197  0.4304
  257SOL    HW1  770   0.851   0.210   1.716  0.5968  0.0911  0.1492
  257SOL    HW2  771   0.851   0.049   1.767 -0.2956  1.1223  2.9326
  258SOL     OW  772   2.973   1.217   0.490 -0.0222 -0.3430  0.2225
  258SOL    HW1  773   2.905   1.214   0.571  0.7509 -0.5232  0.0525
  258SOL    HW2  774   3.062   1.245   0.531 -2.1374  0.8441 -0.9256
  259SOL     OW  775   0.386   2.917   3.039 -0.1319  0.5314 -0.2600
  259SOL    HW1  776   0.338   2.844   3.101 -0.2707 -1.3349  1.4147
  259SOL    HW2  777   0.404   2.878   2.943  1.4836  2.7133  1.0104
  260SOL     OW  778   2.747   0.741   2.785  0.7053  0.2069 -0.5221
  260SOL    HW1  779   2.657   0.778   2.757  1.7744 -2.4364 -1.0066
  260SOL    HW2  780   2.731   0.649   2.827  0.6982  0.4769 -3.1375
  261SOL     OW  781   2.696   1.268   1.288  0.4498  0.5828  0.4285
  261SOL    HW1  782   2.653   1.209   1.209  1.5604  2.3087 -1.3077
  261SOL    HW2  783   2.775   1.213   1.329 -0.1837 -0.2361  1.9047
  262SOL     OW  784   1.372   2.973   1.951  0.0430 -0.0682  0.9297
  262SOL    HW1  785   1.416   3.068   1.953 -0.6398  1.3779 -1.7657
  262SOL    HW2  786   1.268   2.983   1.937  1.1442 -0.7405  1.7389
  263SOL     OW  787   0.831   0.684   2.281 -0.5142  0.2055 -0.3105
  263SOL    HW1  788   0.798   0.605   2.220 -2.6010 -1.5876 -0.3532
  263SOL    HW2  789   0.854   0.770   2.230  1.1810 -0.2018  3.8605
  264SOL     OW  790   2.262   0.781   0.451  0.3177 -0.0546  0.0701
  264SOL    HW1  791   2.267   0.739   0.353  0.2736 -1.6852  0.0948
  264SOL    HW2  792   2.341   0.848   0.477  1.2814 -0.7851  3.9775
  265SOL     OW  793   0.950   2.415   2.612  0.1715 -0.3666 -0.1243
  265SOL    HW1  794   0.994   2.496   2.666 -1.3163  0.2372 -0.9257
  265SOL    HW2  795   0.923   2.338   2.673  0.0296 -2.1297  1.7502
  266SOL     OW  796   1.332   1.766   3.058 -0.2414 -0.2272 -0.0466
  266SOL    HW1  797   1.313   1.816   3.146 -0.5443  1.4173 -0.5323
  266SOL    HW2  798   1.434   1.755   3.034  1.0015  2.0775  3.0033
  267SOL     OW  799   1.095   0.059   2.282  0.5541 -0.5010 -0.7847
  267SOL    HW1  800   1.021  -0.008   2.250 -0.1360  0.1847  1.6561
  267SOL    HW2  801   1.126   0.131   2.209  1.7453 -1.3278  1.9070
  268SOL     OW  802   0.795   1.259   1.033  0.8373 -0.4095 -0.0972
  268SOL    HW1  803   0.774   1.265   1.132  1.5267  0.8321  0.6736
  268SOL    HW2  804   0.795   1.350   0.978  0.0197 -3.2155  0.4356
  269SOL     OW  805   2.366   2.506   1.600  0.3013 -0.3062  1.1146
  269SOL    HW1  806   2.451   2.460   1.627  0.2408  2.4755  0.0975
  269SOL    HW2  807   2.312   2.523   1.684 -0.6785  2.8952 -2.5215
  270SOL     OW  808   0.135   2.956   1.980  0.1873  0.1406  0.7328
  270SOL    HW1  809   0.155   2.903   1.894 -1.0900  1.1408  1.6342
  270SOL    HW2  810   0.074   2.909   2.051 -1.2361  0.6012  1.0210
  271SOL     OW  811   0.475   1.415   1.141  0.8037  0.2938 -0.1366
  271SOL    HW1  812   0.464   1.389   1.044  3.7856  2.5652 -0.9723
  271SOL    HW2  813   0.384   1.405   1.190 -0.6273 -0.3020 -2.4580
  272SOL     OW  814   1.978   3.010   1.964 -0.5520  0.7168  0.2538
  272SOL    HW1  815   1.885   2.974   1.959  0.1009 -1.2811 -2.6974
  272SOL    HW2  816   2.022   3.000   1.870 -1.1858  1.7632 -1.5457
  273SOL     OW  817   1.485   1.487   2.729  0.1994 -0.3483 -0.1671
  273SOL    HW1  818   1.393   1.438   2.713 -0.7092  0.2346 -0.6398
  273SOL    HW2  819   1.532   1.447   2.813 -1.7344 -1.5461  3.0773
  274SOL     OW  820   1.169   0.505   2.063 -0.0680 -0.1021 -0.2403
  274SOL    HW1  821   1.089   0.442   2.070  1.7859  1.3690  0.8744
  274SOL    HW2  822   1.234   0.501   2.146 -0.0446 -1.8032 -1.8482
  275SOL     OW  823   0.639   2.139   1.905 -0.3123 -0.1408 -0.0072
  275SOL    HW1  824   0.594   2.227   1.936 -0.7245 -3.1837  0.0623
  275SOL    HW2  825   0.579   2.057   1.930 -0.9800  0.3839  0.1877
  276SOL     OW  826   2.173   1.067   2.806 -0.1985 -1.0270  0.0431
  276SOL    HW1  827   2.089   1.103   2.760 -1.1306  0.0805  2.0559
  276SOL    HW2  828   2.174   0.963   2.811  0.9060  0.4281  2.1548
  277SOL     OW  829   3.089   0.809   0.271 -1.1716 -0.4695  0.1079
  277SOL    HW1  830   3.184   0.845   0.248 -2.1838  1.8061  0.7276
  277SOL    HW2  831   3.092   0.737   0.345 -0.0247  0.4856 -0.3600
  278SOL     OW  832   0.227   0.236   2.955  0.1766 -0.2433  0.2422
  278SOL    HW1  833   0.310   0.173   2.949  0.3325  1.9162 -1.0042
  278SOL    HW2  834   0.258   0.332   2.974 -0.4397  1.9772  3.0313
  279SOL     OW  835   0.276   0.056   0.934 -0.0991  0.1959 -0.0321
  279SOL    HW1  836   0.273  -0.045   0.944  0.8005  2.8655  1.1008
  279SOL    HW2  837   0.356   0.090   0.876  0.9575 -0.9132 -1.6991
  280SOL     OW  838   1.609   2.963   2.405  0.3340 -0.9882  0.4250
  280SOL    HW1  839   1.670   3.021   2.472 -0.8070 -0.2266 -2.5158
  280SOL    HW2  840   1.561   3.030   2.340  0.3154  1.4090  0.2297
  281SOL     OW  841   0.567   0.963   2.279 -0.0442 -0.3289 -0.5021
  281SOL    HW1  842   0.529   0.891   2.216 -1.9008  0.0868  2.0753
  281SOL    HW2  843   0.542   0.947   2.377  1.5213  0.7708  0.5732
  282SOL     OW  844   1.786   2.478   0.520  0.3725 -0.3545  0.1532
  282SOL    HW1  845   1.748   2.402   0.461  1.6040  0.3859 -1.8384
  282SOL    HW2  846   1.730   2.569   0.519 -0.6831 -0.9844  2.4684
  283SOL     OW  847   1.144   0.944   0.762 -0.5998 -0.1025  0.1623
  283SOL    HW1  848   1.178   0.875   0.831 -0.6947  0.0443 -1.6776
  283SOL    HW2  849   1.119   1.037   0.804 -1.8374 -0.0200 -2.1528
  284SOL     OW  850   2.239   2.830   2.499  0.1449  0.1537 -0.2593
  284SOL    HW1  851   2.329   2.790   2.493 -1.7611  2.1829  1.1381
  284SOL    HW2  852   2.234   2.885   2.589  1.4468  0.8875 -0.1175
  285SOL     OW  853   1.388   0.017   2.568 -0.0502  0.4277  0.3513
  285SOL    HW1  854   1.429   0.029   2.477 -3.0962  0.3882 -0.3209
  285SOL    HW2  855   1.285   0.033   2.558 -0.8380 -0.5854  0.3073
  286SOL     OW  856   0.448   0.433   0.777  0.7008 -0.5860 -0.5608
  286SOL    HW1  857   0.418   0.387   0.869 -0.9971  3.9697  2.4967
  286SOL    HW2  858   0.439   0.369   0.695  0.8246  1.3290 -0.0987
  287SOL     OW  859   0.070   1.306   2.619  0.2834  0.2588  1.4801
  287SOL    HW1  860   0.067   1.208   2.653 -1.8545  0.7743 -0.5160
  287SOL    HW2  861   0.119   1.367   2.693 -0.3991 -1.3502  1.5012
  288SOL     OW  862   1.571   2.736   1.629 -0.7163  0.0168  0.4606
  288SOL    HW1  863   1.610   2.665   1.688 -2.8326  1.1130 -1.1283
  288SOL    HW2  864   1.583   2.705   1.530 -0.7238 -0.0492 -1.5862
  289SOL     OW  865   0.594   2.716   0.862  0.4550  0.1440 -0.1786
  289SOL    HW1  866   0.626   2.796   0.810  0.4379 -0.3203 -0.9153
  289SOL    HW2  867   0.585   2.745   0.963  0.8799 -1.2186  0.2332
  290SOL     OW  868   2.801   1.132   1.739 -0.2082  0.0901  0.0304
  290SOL    HW1  869   2.722   1.061   1.727  0.3530 -1.4703  0.9067
  290SOL    HW2  870   2.894   1.100   1.770 -2.3266  0.4323 -0.8613
  291SOL     OW  871   1.957   3.086   0.041 -0.2469  0.5281  0.0810
  291SOL    HW1  872   1.970   3.132   0.132 -1.5583 -0.2779  2.0613
  291SOL    HW2  873   2.016   3.120  -0.037 -0.2666 -4.0163  0.2744
  292SOL     OW  874   3.026   1.226   3.094 -0.2130 -0.4889 -0.3804
  292SOL    HW1  875   2.970   1.275   3.025  0.0491  0.2361  1.6213
  292SOL    HW2  876   3.106   1.185   3.052  0.6019  0.4902 -3.3479
  293SOL     OW  877   0.595   2.124   0.278 -0.0513 -0.5315  0.0802
  293SOL    HW1  878   0.554   2.182   0.355  0.5822  1.4830  1.5798
  293SOL    HW2  879   0.688   2.080   0.299 -1.0816 -0.4641 -1.0391
  294SOL     OW  880   1.836   2.335   1.818  0.6119  0.3443  0.9726
  294SOL    HW1  881   1.870   2.342   1.920  1.4355 -0.7846 -1.9196
  294SOL    HW2  882   1.802   2.428   1.784  1.2990  0.4534  0.8562
  295SOL     OW  883   0.984   1.070   0.456 -0.1804  0.5886  0.4525
  295SOL    HW1  884   1.088   1.073   0.471  2.9514 -2.8973 -0.2157
  295SOL    HW2  885   0.927   1.040   0.537 -0.2739  3.5570 -0.4776
  296SOL     OW  886   1.182   2.129   2.748 -0.4721  0.0382 -0.0705
  296SOL    HW1  887   1.094   2.172   2.728 -0.6036 -1.1594  0.3108
  296SOL    HW2  888   1.229   2.090   2.665 -3.0955  0.6786 -3.2048
  297SOL     OW  889   1.353   0.568   1.290  0.0934 -0.3833 -0.0151
  297SOL    HW1  890   1.394   0.496   1.350 -2.3696  1.0546 -1.3463
  297SOL    HW2  891   1.422   0.600   1.224 -0.5116  0.7795  0.6695
  298SOL     OW  892   0.526   1.362   2.986 -0.1159 -0.8893 -0.4000
  298SOL    HW1  893   0.475   1.298   3.052 -1.3085  0.6290 -0.4724
  298SOL    HW2  894   0.599   1.313   2.927  2.7901  0.9817  2.4430
  299SOL     OW  895   0.417   0.261   1.316 -0.1497 -0.6436  0.2085
  299SOL    HW1  896   0.388   0.341   1.257 -1.0642 -2.1192 -0.5687
  299SOL    HW2  897   0.361   0.251   1.401  1.3378  2.3620 -2.0949
  300SOL     OW  898   1.269   1.728   2.575 -0.0883 -0.0647 -0.2794
  300SOL    HW1  899   1.248   1.640   2.515  2.8403 -0.2111 -0.3701
  300SOL    HW2  900   1.356   1.718   2.633 -1.1249  1.1308  3.3765
  301SOL     OW  901   0.415   0.286   0.516 -0.5892  0.7706  0.4038
  301SOL    HW1  902   0.343   0.215   0.540 -1.6095 -0.7505 -0.6668
  301SOL    HW2  903   0.488   0.249   0.456  1.9797  2.6210 -2.7082
  302SOL     OW  904   1.264   2.466   2.272  0.1688  0.1462 -0.6569
  302SOL    HW1  905   1.182   2.512   2.315 -1.2154 -1.5613  1.4801
  302SOL    HW2  906   1.311   2.399   2.339  2.4698  4.4201 -0.1087
  303SOL     OW  907   0.939   2.405   0.797 -0.2617 -0.6972 -0.3742
  303SOL    HW1  908   0.981   2.431   0.705  0.8796  0.5199  2.0264
  303SOL    HW2  909   0.972   2.460   0.879  2.6549  0.9270 -1.6060
  304SOL     OW  910   0.083   1.900   0.680  0.1252 -0.3585  0.1140
  304SOL    HW1  911   0.159   1.916   0.612  2.4158  1.8515 -2.4708
  304SOL    HW2  912  -0.003   1.950   0.653  0.4264 -4.9654 -0.3602
  305SOL     OW  913   1.585   0.871   0.681 -0.3785  0.7192 -0.0096
  305SOL    HW1  914   1.531   0.874   0.593 -0.0733 -4.3572 -2.3140
  305SOL    HW2  915   1.622   0.771   0.689  0.1671 -0.7597 -4.2850
  306SOL     OW  916   0.423   1.935   1.910 -0.1149 -0.1711  0.2972
  306SOL    HW1  917   0.492   1.860   1.881  3.4123 -1.1456  1.4691
  306SOL    HW2  918   0.419   1.954   2.013 -0.1720  2.4552  1.7239
  307SOL     OW  919   3.057   0.889   2.477  0.6468 -0.0441 -0.1719
  307SOL    HW1  920   3.068   0.952   2.559  0.1628 -0.0391 -0.4645
  307SOL    HW2  921   3.022   0.794   2.500  0.7475  0.8612 -1.1529
  308SOL     OW  922   1.548   2.688   2.813 -0.7887  0.0183 -0.7122
  308SOL    HW1  923   1.572   2.641   2.727 -1.8773 -0.0840 -2.2428
  308SOL    HW2  924   1.465   2.643   2.859  0.2017 -0.8560 -1.1332
  309SOL     OW  925   1.236   0.159   1.793 -0.1605  0.0363 -0.2145
  309SOL    HW1  926   1.337   0.135   1.801 -1.3994 -1.7784  0.0314
  309SOL    HW2  927   1.208   0.166   1.691  0.0564 -3.4744 -0.2622
  310SOL     OW  928   1.491   2.592   0.678 -0.5597  0.0083  0.0806
  310SOL    HW1  929   1.446   2.636   0.767  0.2267  2.0415  0.9263
  310SOL    HW2  930   1.564   2.652   0.640  0.5168  2.0923 -2.2964
  311SOL     OW  931   1.157   0.989   1.761 -0.0896  0.1039  0.6575
  311SOL    HW1  932   1.106   0.907   1.802  0.4626 -2.4529  1.0195
  311SOL    HW2  933   1.201   0.967   1.666 -0.1924 -0.0510 -0.9355
  312SOL     OW  934   1.542   0.668   1.101 -0.2043  0.1327 -0.2530
  312SOL    HW1  935   1.554   0.769   1.103  1.3533  1.3674 -3.2323
  312SOL    HW2  936   1.507   0.626   1.013 -1.7479 -1.0335 -0.5513
  313SOL     OW  937   1.640   1.328   0.738  0.2787 -0.4048  0.2594
  313SOL    HW1  938   1.605   1.322   0.835  0.2066  2.2121 -2.4555
  313SOL    HW2  939   1.605   1.250   0.672 -0.6196 -1.4474 -0.4196
  314SOL     OW  940   2.976   3.094   3.079 -0.0562  0.1501 -0.4147
  314SOL    HW1  941   3.003   3.131   3.173  0.3526  1.3975  3.0619
  314SOL    HW2  942   2.874   3.068   3.083 -1.3085 -0.0345 -0.9669
  315SOL     OW  943   1.160   0.239   2.753 -0.1991 -0.4687 -0.3178
  315SOL    HW1  944   1.158   0.165   2.682  1.8926 -0.0336  1.7619
  315SOL    HW2  945   1.173   0.200   2.848 -3.2598 -0.8379  1.6414
  316SOL     OW  946   1.715   2.091   0.899 -0.6603 -0.0098  0.1533
  316SOL    HW1  947   1.637   2.075   0.963  2.5064 -2.3387  0.1618
  316SOL    HW2  948   1.726   2.193   0.877 -1.6581  1.8588 -1.4105
  317SOL     OW  949   1.147   0.644   2.769  0.4379  0.3474 -0.0967
  317SOL    HW1  950   1.094   0.696   2.841  0.2686  1.7959  2.0998
  317SOL    HW2  951   1.092   0.564   2.723  0.3874  1.4493 -1.3457
  318SOL     OW  952   1.420  -0.001   2.243 -0.6713 -0.2470  0.1735
  318SOL    HW1  953   1.405   0.104   2.226 -0.4334  1.1561 -1.6431
  318SOL    HW2  954   1.382  -0.065   2.168  3.1608 -2.4377 -1.2354
  319SOL     OW  955   0.669   2.350   2.928 -0.0769  0.1935  0.1193
  319SOL    HW1  956   0.607   2.284   2.977  1.3796  0.3110  0.3373
  319SOL    HW2  957   0.722   2.298   2.858 -0.1018  0.6435  1.6418
  320SOL     OW  958   1.678   2.249   0.398  0.7360  0.1596 -0.4221
  320SOL    HW1  959   1.761   2.188   0.407  4.8344 -2.6832  1.2419
  320SOL    HW2  960   1.591   2.212   0.438 -0.8550  0.3022 -0.6308
  321SOL     OW  961   1.686   2.778   0.549 -0.1774  0.2638 -0.6184
  321SOL    HW1  962   1.600   2.795   0.499  3.9504  2.4665  0.4538
  321SOL    HW2  963   1.770   2.816   0.502 -0.0558  0.8179 -0.4137
  322SOL     OW  964   2.603   1.129   2.305 -0.1258  0.0224  0.1485
  322SOL    HW1  965   2.689   1.154   2.353  1.5165 -0.9535 -3.9722
  322SOL    HW2  966   2.559   1.035   2.325  0.0608 -0.3217  1.1381
  323SOL     OW  967   1.171   2.686   0.808  0.4912  0.1391  0.0609
  323SOL    HW1  968   1.140   2.634   0.724 -0.7353  5.3420  0.8123
  323SOL    HW2  969   1.132   2.787   0.808  2.4721  0.1466 -0.7602
  324SOL     OW  970   0.209   2.538   2.433  0.2419 -0.4696 -0.4542
  324SOL    HW1  971   0.134   2.494   2.492  0.1442  1.5582  2.0036
  324SOL    HW2  972   0.246   2.620   2.479  1.8279 -0.1725 -0.6479
  325SOL     OW  973   1.209   3.022   0.459  0.0051 -0.1107 -0.1994
  325SOL    HW1  974   1.187   3.051   0.364 -1.8859  0.1224 -0.0996
  325SOL    HW2  975   1.268   3.087   0.511  0.0584 -2.5476  1.2152
  326SOL     OW  976   2.476   0.767   3.083  0.2511 -0.2064 -0.2886
  326SOL    HW1  977   2.384   0.734   3.060  3.2654 -0.8095  0.8046
  326SOL    HW2  978   2.530   0.688   3.131 -0.4016 -1.2828 -0.2678
  327SOL     OW  979   2.801   0.285   0.511  0.2683  0.0764 -0.4472
  327SOL    HW1  980   2.795   0.244   0.421 -1.4075 -1.6772  0.1327
  327SOL    HW2  981   2.787   0.220   0.588  0.5627 -0.7540 -0.9920
  328SOL     OW  982   2.583   0.648   0.419 -0.5659  0.3604  0.0432
  328SOL    HW1  983   2.666   0.691   0.462  1.8417 -0.9343 -3.2118
  328SOL    HW2  984   2.573   0.547   0.443 -3.0123  2.1578  4.0937
  329SOL     OW  985   2.931   3.005   2.102  0.2692  0.2262  0.4455
  329SOL    HW1  986   3.015   2.962   2.146 -0.6041 -0.1180  2.6975
  329SOL    HW2  987   2.945   3.110   2.089  0.2163  1.7990 -1.7427
  330SOL     OW  988   0.593   0.222   1.920 -0.1473  0.2382 -0.3157
  330SOL    HW1  989   0.647   0.170   1.852 -0.7682  1.6831 -0.0022
  330SOL    HW2  990   0.560   0.162   1.995 -1.0508  0.5396  0.7837
  331SOL     OW  991   3.026   1.889   1.113 -0.2177 -0.2131 -0.1883
  331SOL    HW1  992   2.997   1.946   1.029 -0.4634  1.2293 -1.3500
  331SOL    HW2  993   2.944   1.878   1.177 -0.7989 -2.0741  1.4445
  332SOL     OW  994   0.424   1.172   0.061  0.1967 -0.0009 -0.0926
  332SOL    HW1  995   0.340   1.125   0.023  2.5009  1.3799  0.4152
  332SOL    HW2  996   0.433   1.171   0.166 -2.1527 -0.6067 -1.3477
  333SOL     OW  997   2.897   0.976   0.381  0.0642  0.6080 -0.5333
  333SOL    HW1  998   2.926   1.071   0.408 -2.7111 -2.3199 -2.9866
  333SOL    HW2  999   2.969   0.911   0.355 -1.6916 -1.1673 -1.9607
  334SOL     OW 1000   1.693   1.230   1.793  0.4798 -0.6247 -0.8218
  334SOL    HW1 1001   1.746   1.213   1.701  1.6211  0.0687 -0.6580
  334SOL    HW2 1002   1.750   1.237   1.881  2.6302  0.6222 -1.3772
  335SOL     OW 1003   1.949   2.749   2.625 -0.2589  0.6228 -0.3228
  335SOL    HW1 1004   1.894   2.790   2.700 -1.0834 -0.5799 -0.7179
  335SOL    HW2 1005   2.047   2.779   2.626  0.4713  0.5846  3.3652
  336SOL     OW 1006   0.266   0.004   2.725  0.3910 -0.0978  0.1766
  336SOL    HW1 1007   0.351   0.014   2.786  0.7552 -0.7430 -0.5650
  336SOL    HW2 1008   0.188  -0.042   2.777 -0.4835 -2.3615  2.3727
  337SOL     OW 1009   0.917   2.905   2.968  0.2238 -0.4418  0.0649
  337SOL    HW1 1010   0.888   2.813   2.977 -0.1608  3.1527 -1.2030
  337SOL    HW2 1011   1.017   2.919   2.995 -1.7459 -1.0567 -1.8597
  338SOL     OW 1012   0.023   0.956   0.660 -0.2296 -0.1633  0.1737
  338SOL    HW1 1013  -0.071   0.913   0.671  0.6527  1.2740 -2.8232
  338SOL    HW2 1014   0.017   1.058   0.682 -0.7904  0.8058 -0.6393
  339SOL     OW 1015   1.650   1.352   2.162 -0.2758 -0.0409 -0.1920
  339SOL    HW1 1016   1.592   1.406   2.096  0.1989  2.0665 -2.7457
  339SOL    HW2 1017   1.671   1.420   2.235 -2.8180 -0.6259  3.4378
  340SOL     OW 1018   2.239   0.799   1.168  0.5167  0.2893 -0.1141
  340SOL    HW1 1019   2.150   0.846   1.175  1.1774 -0.2033 -1.0664
  340SOL    HW2 1020   2.232   0.709   1.114 -0.3566  1.3131 -2.8075
  341SOL     OW 1021   1.893   2.071   0.353 -0.2088 -0.6541  0.1723
  341SOL    HW1 1022   1.924   2.106   0.263  1.8709 -1.9136  1.2546
  341SOL    HW2 1023   1.975   2.059   0.417 -0.8649  0.2496  1.7318
  342SOL     OW 1024   2.156   2.092   2.739 -0.0360 -0.2524 -0.4552
  342SOL    HW1 1025   2.189   1.995   2.748 -4.0585  0.1531  0.5873
  342SOL    HW2 1026   2.056   2.096   2.713 -1.2966  1.8349  1.3497
  343SOL     OW 1027   0.414   0.778   2.747 -0.1167  0.0418 -0.0606
  343SOL    HW1 1028   0.402   0.840   2.662  0.7193  1.6113  0.1922
  343SOL    HW2 1029   0.508   0.789   2.787 -1.6637 -1.2935 -2.0625
  344SOL     OW 1030   1.912   1.489   0.411  0.4142 -0.3081  0.3170
  344SOL    HW1 1031   1.913   1.398   0.361 -0.2301 -1.4945 -0.0666
  344SOL    HW2 1032   1.818   1.530   0.423  1.5652  2.1689 -0.0534
  345SOL     OW 1033   1.400   2.239   2.867  0.2843 -0.1036 -0.2616
  345SOL    HW1 1034   1.311   2.200   2.826  0.9213  0.4437  1.3187
  345SOL    HW2 1035   1.476   2.174   2.849 -0.5769  0.1353  3.2189
  346SOL     OW 1036   2.350   0.902   1.401 -0.4041  0.0076 -0.0469
  346SOL    HW1 1037   2.285   0.977   1.438  1.5345  0.7767 -0.9822
  346SOL    HW2 1038   2.320   0.861   1.310  1.2261  1.7832  0.6711
  347SOL     OW 1039   0.698   2.733   1.646 -0.1880  0.2640  0.5848
  347SOL    HW1 1040   0.655   2.749   1.736  0.7433  0.9481  0.5047
  347SOL    HW2 1041   0.628   2.742   1.567  0.2881  1.1838  0.8038
  348SOL     OW 1042   0.167   0.798   2.878  0.0684 -0.1338  0.1300
  348SOL    HW1 1043   0.094   0.752   2.823  1.2974  1.8748  2.9262
  348SOL    HW2 1044   0.261   0.778   2.836 -1.3594  0.5362 -0.5200
  349SOL     OW 1045   1.852   0.453   2.810  0.0084 -0.2312  0.3491
  349SOL    HW1 1046   1.839   0.520   2.730 -0.0475  1.4226 -1.8076
  349SOL    HW2 1047   1.830   0.499   2.901  1.0052  0.5247 -0.1667
  350SOL     OW 1048   1.704   0.358   0.361  0.1171 -0.1536 -0.0898
  350SOL    HW1 1049   1.763   0.375   0.443 -0.9541 -1.4816  2.1320
  350SOL    HW2 1050   1.661   0.445   0.324  0.0493  2.1112  0.2389
  351SOL     OW 1051   0.927   0.825   2.057 -0.7313 -0.0843  0.2677
  351SOL    HW1 1052   0.925   0.929   2.063  0.0816 -1.9006 -1.6168
  351SOL    HW2 1053   1.002   0.793   1.985  0.8555 -4.2344 -0.5619
  352SOL     OW 1054   2.059   1.349   0.588 -0.5617 -0.1898  0.5664
  352SOL    HW1 1055   2.025   1.422   0.520 -1.1549 -1.2892  0.4408
  352SOL    HW2 1056   1.972   1.299   0.623 -2.8558  0.2606 -0.2695
  353SOL     OW 1057   2.187   2.813   1.086 -0.2755 -0.1112  0.4673
  353SOL    HW1 1058   2.252   2.759   1.144  2.9578 -0.2648  1.1351
  353SOL    HW2 1059   2.101   2.837   1.140 -0.8305 -0.0726  3.3720
  354SOL     OW 1060   0.270   1.436   2.865 -0.6009 -0.0376 -0.0654
  354SOL    HW1 1061   0.262   1.518   2.804 -1.7007 -1.7601 -0.3282
  354SOL    HW2 1062   0.365   1.414   2.891 -2.1104  0.1887  0.3328
  355SOL     OW 1063   0.747   1.587   0.600 -0.1655 -0.5545 -0.5966
  355SOL    HW1 1064   0.739   1.536   0.691 -2.1119  0.3918 -1.8367
  355SOL    HW2 1065   0.684   1.539   0.530 -1.4628  1.8085 -0.8110
  356SOL     OW 1066   0.878   0.283   2.028  0.5205 -0.1507  0.1453
  356SOL    HW1 1067   0.972   0.235   2.050  0.5663  0.6908  3.0925
  356SOL    HW2 1068   0.829   0.239   1.947  1.2566 -0.9226 -2.4786
  357SOL     OW 1069   1.006   1.330   0.360  0.0792 -0.4645 -0.7101
  357SOL    HW1 1070   1.075   1.319   0.287 -2.6942 -1.7392 -0.5780
  357SOL    HW2 1071   0.965   1.241   0.382  1.6298 -0.6462  0.6814
  358SOL     OW 1072   1.635   1.531   0.523  0.4032 -0.3452 -0.0279
  358SOL    HW1 1073   1.636   1.461   0.596  0.2179  1.6470  1.6092
  358SOL    HW2 1074   1.617   1.506   0.427  0.1705  0.8839  1.2691
  359SOL     OW 1075   1.621   2.589   0.313 -0.1750  0.2027  0.2451
  359SOL    HW1 1076   1.604   2.502   0.264  1.5049 -1.0397  1.5049
  359SOL    HW2 1077   1.537   2.636   0.344 -0.2832 -0.1818  0.6050
  360SOL     OW 1078   0.792   0.514   0.581  0.0084 -0.3582 -0.0051
  360SOL    HW1 1079   0.699   0.529   0.541 -1.6776 -2.4026  2.6377
  360SOL    HW2 1080   0.807   0.408   0.591 -0.1221  0.5367 -1.0290
  361SOL     OW 1081   1.341   1.280   0.621  0.6088  0.6675 -0.3070
  361SOL    HW1 1082   1.388   1.294   0.712 -2.3656 -3.4100  2.0694
  361SOL    HW2 1083   1.260   1.347   0.614  3.3589 -0.0642  0.4057
  362SOL     OW 1084   1.376   1.773   0.715  0.1729  0.5367 -0.0852
  362SOL    HW1 1085   1.445   1.744   0.786 -0.4439  0.8709 -0.0687
  362SOL    HW2 1086   1.414   1.820   0.633 -0.5986  1.1531  0.1404
  363SOL     OW 1087   1.257   1.310   2.072  0.3874 -0.3785  0.1249
  363SOL    HW1 1088   1.345   1.371   2.063  1.5627  1.1769  1.1325
  363SOL    HW2 1089   1.172   1.371   2.083 -1.7664 -0.1393 -0.1529
  364SOL     OW 1090   0.550   2.349   2.051  0.2700 -0.2849  0.4267
  364SOL    HW1 1091   0.457   2.379   2.087  0.6582 -0.7806  0.8951
  364SOL    HW2 1092   0.570   2.399   1.960  1.3911  0.6153  0.3082
  365SOL     OW 1093   1.021   1.984   1.344 -0.5541 -0.8402  0.6914
  365SOL    HW1 1094   0.929   1.962   1.384 -1.1711 -0.3036 -0.1380
  365SOL    HW2 1095   1.022   2.025   1.249 -0.5073  0.4071  3.1456
  366SOL     OW 1096   2.851   1.965   0.327 -0.3461  0.3902 -0.5501
  366SOL    HW1 1097   2.754   1.930   0.322  1.4196  2.7704  2.9668
  366SOL    HW2 1098   2.918   1.890   0.300 -0.7103 -0.0199 -1.6511
  367SOL     OW 1099   0.904   1.192   0.036 -0.5038  0.0655  0.4168
  367SOL    HW1 1100   0.918   1.132   0.121 -0.8706  1.8869 -0.7897
  367SOL    HW2 1101   0.986   1.241  -0.007 -0.4589 -0.3531 -0.9335
  368SOL     OW 1102   1.482   0.566   0.563  0.1353  0.7810 -0.1004
  368SOL    HW1 1103   1.391   0.593   0.528  0.5097 -1.2059  1.8478
  368SOL    HW2 1104   1.559   0.629   0.535  0.7227 -3.3025 -0.6724
  369SOL     OW 1105   0.402   1.719   0.156 -0.0204 -0.1529 -0.5106
  369SOL    HW1 1106   0.441   1.763   0.242  1.9963 -1.4755  1.3801
  369SOL    HW2 1107   0.346   1.638   0.180 -1.8242  1.4219  1.4980
  370SOL     OW 1108   0.380   2.132   1.046 -0.2273  0.8498  0.4760
  370SOL    HW1 1109   0.417   2.228   1.028  1.4656  0.8460  1.7430
  370SOL    HW2 1110   0.304   2.093   0.978 -0.5803  1.5600 -1.6514
  371SOL     OW 1111   2.880   2.237   2.658  0.2009  0.5359  0.0457
  371SOL    HW1 1112   2.825   2.171   2.713  0.9674  0.4046 -2.0686
  371SOL    HW2 1113   2.945   2.297   2.716  1.2212 -2.3297  1.6287
  372SOL     OW 1114   1.076   2.113   1.114  0.5624  0.5189  0.6454
  372SOL    HW1 1115   1.016   2.146   1.034  0.8432  2.2977  0.5388
  372SOL    HW2 1116   1.152   2.178   1.142 -0.2680  1.3875  1.6975
  373SOL     OW 1117   1.915   1.926   0.985 -0.1706  0.4030 -0.2524
  373SOL    HW1 1118   1.989   1.978   1.039 -1.4477  2.7444  0.8394
  373SOL    HW2 1119   1.834   1.996   0.980 -3.2932  0.9906  2.7211
  374SOL     OW 1120   1.863   0.418   0.574  0.4212  0.2634  0.0023
  374SOL    HW1 1121   1.832   0.362   0.655 -1.8869 -0.7728  0.8827
  374SOL    HW2 1122   1.968   0.405   0.551  0.2795  1.2603 -2.8072
  375SOL     OW 1123   2.404   2.194   1.109  0.2937 -0.1579  0.0870
  375SOL    HW1 1124   2.465   2.216   1.029  0.3668  2.9463  0.9624
  375SOL    HW2 1125   2.464   2.169   1.193  1.9804 -2.1107  1.0601
  376SOL     OW 1126   3.072   0.571   1.409  0.5413  0.7291  0.3499
  376SOL    HW1 1127   3.055   0.648   1.474  2.8170 -1.7625 -0.3243
  376SOL    HW2 1128   2.983   0.552   1.357 -2.4530  2.2677 -0.5606
  377SOL     OW 1129   2.164   2.894   0.294  0.2074 -0.8728 -0.1015
  377SOL    HW1 1130   2.144   2.994   0.286 -4.1378 -2.6079  0.7873
  377SOL    HW2 1131   2.247   2.874   0.353  0.8464  0.6183  0.0453
  378SOL     OW 1132   1.772   1.867   2.491  0.9279  0.5418 -0.9528
  378SOL    HW1 1133   1.846   1.865   2.420 -0.1136  1.7357  1.0179
  378SOL    HW2 1134   1.729   1.774   2.509  0.1205  2.6346  0.3270
  379SOL     OW 1135   0.745   0.159   2.814  0.0867  0.5681  0.0289
  379SOL    HW1 1136   0.782   0.093   2.746 -0.5220  1.2708 -0.5297
  379SOL    HW2 1137   0.717   0.245   2.758  0.4468  0.7420 -0.4956
  380SOL     OW 1138   1.572   1.141   0.537  0.0167  0.1879  0.3327
  380SOL    HW1 1139   1.481   1.191   0.545  0.8307  2.1044  0.5625
  380SOL    HW2 1140   1.564   1.036   0.547  0.4043 -3.0369 -3.4097
  381SOL     OW 1141   1.352   1.239   1.599 -0.4983  0.3138  0.1112
  381SOL    HW1 1142   1.412   1.156   1.580  0.6553 -0.5633  1.1139
  381SOL    HW2 1143   1.404   1.318   1.637 -0.7269 -2.4512 -0.2926
  382SOL     OW 1144   1.822   0.883   0.232 -0.1296 -0.6626 -0.0699
  382SOL    HW1 1145   1.848   0.853   0.136 -2.7998 -1.7044 -1.0776
  382SOL    HW2 1146   1.892   0.856   0.305  0.3402  0.7777  0.1180
  383SOL     OW 1147   2.592   0.996   1.491  0.1497  0.1411 -0.1127
  383SOL    HW1 1148   2.492   0.979   1.466 -3.0704 -0.0258 -0.8133
  383SOL    HW2 1149   2.648   1.010   1.409 -0.8541  0.8007  0.5541
  384SOL     OW 1150   0.847   2.237   0.153 -0.4841  0.1489  0.0561
  384SOL    HW1 1151   0.827   2.320   0.211 -1.7559  1.0168  0.2591
  384SOL    HW2 1152   0.862   2.153   0.212  0.8434  1.8149  0.2606
  385SOL     OW 1153   2.952   2.012   1.668 -0.0454  0.7762  0.2726
  385SOL    HW1 1154   3.028   2.077   1.637 -1.5420 -3.2847 -1.3771
  385SOL    HW2 1155   2.979   1.910   1.659  1.4272  0.5242  0.7969
  386SOL     OW 1156   0.478   1.061   0.469  0.4203 -0.0866 -0.1171
  386SOL    HW1 1157   0.465   0.966   0.503  1.0471 -0.7836 -0.0943
  386SOL    HW2 1158   0.388   1.107   0.438  0.9747 -3.5659  0.9379
  387SOL     OW 1159   0.909   0.361   1.672  0.2841 -0.5152  0.6959
  387SOL    HW1 1160   0.921   0.458   1.699 -4.2364 -2.5269  0.4368
  387SOL    HW2 1161   0.950   0.346   1.576  1.3350  0.0297  0.4649
  388SOL     OW 1162   1.190   2.729   1.739  0.0917 -0.0935  0.1337
  388SOL    HW1 1163   1.215   2.761   1.645 -0.5389 -0.6512  2.5375
  388SOL    HW2 1164   1.242   2.644   1.766  0.4720  1.7430 -0.2443
  389SOL     OW 1165   0.129   2.963   1.321  0.4525 -0.2205  0.8622
  389SOL    HW1 1166   0.031   2.963   1.286  0.0656 -1.5554  3.1566
  389SOL    HW2 1167   0.158   2.863   1.346  2.4972 -1.2989  2.5471
  390SOL     OW 1168   1.061   0.968   1.325  0.1316 -0.1119  0.5848
  390SOL    HW1 1169   1.129   0.930   1.391 -1.8187 -0.6610  1.6216
  390SOL    HW2 1170   1.027   1.064   1.358 -2.1718 -0.2727  0.5021
  391SOL     OW 1171   2.176   1.117   1.084  0.0917  0.1586  0.2449
  391SOL    HW1 1172   2.119   1.054   1.134 -0.8310  1.7776 -1.2637
  391SOL    HW2 1173   2.205   1.078   0.991  0.2107  1.3529  0.2247
  392SOL     OW 1174   0.911   2.637   3.041  0.3828  0.0581  0.1153
  392SOL    HW1 1175   0.985   2.564   3.020 -0.0579 -0.9902 -0.1114
  392SOL    HW2 1176   0.878   2.639   3.136 -1.2305  1.6829  2.2800
  393SOL     OW 1177   0.333   0.533   1.977  0.0283  0.4735 -0.1514
  393SOL    HW1 1178   0.263   0.460   1.973 -0.7111  1.6502 -2.8485
  393SOL    HW2 1179   0.420   0.519   1.914  0.3994  0.9058 -0.9987
  394SOL     OW 1180   3.002   1.939   2.805  0.2651 -0.1168  0.6841
  394SOL    HW1 1181   3.088   1.982   2.837 -0.3857 -1.4747 -0.9470
  394SOL    HW2 1182   2.991   1.936   2.698 -0.3140  0.1809 -0.8210
  395SOL     OW 1183   1.600   1.964   0.656  0.1449 -0.5355 -0.2707
  395SOL    HW1 1184   1.665   1.889   0.619  0.6068 -1.0608 -0.4621
  395SOL    HW2 1185   1.628   2.005   0.748  0.3017  0.9548  0.6579
  396SOL     OW 1186   2.815   1.805   1.293 -0.0071 -0.5432  0.5282
  396SOL    HW1 1187   2.809   1.717   1.241 -1.9739 -1.1016 -1.8355
  396SOL    HW2 1188   2.727   1.826   1.346 -0.6063 -2.0207 -0.6241
  397SOL     OW 1189   1.026   2.235   0.501 -0.1135 -0.1221  0.2449
  397SOL    HW1 1190   0.959   2.206   0.574 -0.3222  0.6845 -1.9855
  397SOL    HW2 1191   1.028   2.341   0.488  2.2585  0.1907  0.8813
  398SOL     OW 1192   2.151   0.002   1.012 -0.3267  0.0791  0.3864
  398SOL    HW1 1193   2.140  -0.068   1.086  0.0486 -0.3654 -0.3221
  398SOL    HW2 1194   2.092   0.088   1.028 -0.2571  0.1045  0.0635
  399SOL     OW 1195   3.094   2.441   2.564 -0.6271  0.3951  0.0330
  399SOL    HW1 1196   2.993   2.431   2.562  1.3389  0.3369  0.8349
  399SOL    HW2 1197   3.135   2.424   2.662  1.2728 -1.0676  0.0397
  400SOL     OW 1198   0.796   1.638   1.380 -0.6954 -0.1325  0.0651
  400SOL    HW1 1199   0.728   1.640   1.454  1.1667  1.3619  1.1771
  400SOL    HW2 1200   0.796   1.728   1.325 -1.6936  0.4179 -1.0570
  401SOL     OW 1201   1.865   0.106   1.255  0.3432  0.0074 -0.1891
  401SOL    HW1 1202   1.913   0.112   1.351  1.6247  0.5433  0.8776
  401SOL    HW2 1203   1.760   0.115   1.267 -2.6813 -0.6236 -2.8221
  402SOL     OW 1204   1.299   0.127   3.071  0.0173 -0.2876 -0.5439
  402SOL    HW1 1205   1.388   0.138   3.021  0.6072  2.5597 -0.7983
  402SOL    HW2 1206   1.251   0.217   3.072 -1.2953  0.5026 -1.6662
  403SOL     OW 1207   2.280   1.789   0.932  0.4238  0.2546 -0.3786
  403SOL    HW1 1208   2.375   1.782   0.961  0.1711 -1.1656  0.0830
  403SOL    HW2 1209   2.241   1.881   0.959 -0.4770 -1.2927  1.9529
  404SOL     OW 1210   0.193   2.491   2.828  0.1855  0.1495  0.4552
  404SOL    HW1 1211   0.293   2.456   2.833  3.4527  0.4151  0.1338
  404SOL    HW2 1212   0.192   2.593   2.807  1.4636  0.9917 -1.5118
  405SOL     OW 1213   0.101   2.480   0.693 -0.0452 -0.3308 -0.0275
  405SOL    HW1 1214   0.085   2.411   0.615 -2.1809  1.5188 -0.2631
  405SOL    HW2 1215   0.199   2.517   0.698 -4.2889  3.1740  1.9846
  406SOL     OW 1216   0.066   1.527   3.056 -0.2935  0.1841  0.4145
  406SOL    HW1 1217   0.143   1.507   2.987  0.3301 -1.4017 -1.4142
  406SOL    HW2 1218   0.096   1.524   3.155 -2.0071 -0.2262 -2.0925
  407SOL     OW 1219   1.547   0.961   0.998 -0.1421  0.4959 -0.3100
  407SOL    HW1 1220   1.498   0.926   0.910 -1.3151 -1.2897  0.6218
  407SOL    HW2 1221   1.483   1.015   1.054  1.5399 -3.3318 -1.5502
  408SOL     OW 1222   1.618   2.453   0.963  0.0880 -0.0191 -0.1247
  408SOL    HW1 1223   1.678   2.422   0.881  1.3885 -0.0694  0.4816
  408SOL    HW2 1224   1.543   2.521   0.936 -0.3715  0.2208 -2.4743
  409SOL     OW 1225   0.639   0.803   0.760  0.2434 -0.7603  0.0204
  409SOL    HW1 1226   0.557   0.783   0.701 -1.7092 -2.6149  2.7057
  409SOL    HW2 1227   0.671   0.722   0.811 -0.9473 -2.5668 -0.5125
  410SOL     OW 1228   1.308   2.045   1.388  0.1767  0.9734  0.2953
  410SOL    HW1 1229   1.372   1.980   1.441 -2.5938  0.2836 -1.3224
  410SOL    HW2 1230   1.216   1.994   1.359 -4.2397  0.4523 -3.0569
  411SOL     OW 1231   2.647   1.865   3.014  0.0847 -1.0648 -0.0695
  411SOL    HW1 1232   2.589   1.921   2.952  0.8573  0.9233  0.0499
  411SOL    HW2 1233   2.721   1.813   2.963  0.9559 -0.1325 -0.8751
  412SOL     OW 1234   1.506   2.487   2.166  0.9638  0.2770 -0.6225
  412SOL    HW1 1235   1.515   2.584   2.132 -0.4541  1.6954  1.1751
  412SOL    HW2 1236   1.415   2.475   2.220  0.4543  2.1781 -0.3699
  413SOL     OW 1237   3.034   0.219   2.935  0.5546 -0.2818  0.4270
  413SOL    HW1 1238   3.006   0.134   2.990  1.8212 -1.0544  1.3486
  413SOL    HW2 1239   3.137   0.242   2.930  0.4895  1.8888  1.1464
  414SOL     OW 1240   1.889   1.557   1.193 -0.1566 -0.2407 -0.4096
  414SOL    HW1 1241   1.828   1.643   1.184  0.0207  2.3123  0.7736
  414SOL    HW2 1242   1.870   1.484   1.128  1.0739  0.7492  0.9309
  415SOL     OW 1243   0.362   2.258   0.750  0.3384  1.0695  0.4953
  415SOL    HW1 1244   0.374   2.315   0.835 -0.6314 -2.6396 -1.2745
  415SOL    HW2 1245   0.280   2.200   0.751  1.7094  1.9616  1.1418
  416SOL     OW 1246   0.367   1.055   1.051 -0.0739 -0.7644  0.0448
  416SOL    HW1 1247   0.321   0.993   0.984  1.6407  1.6089 -0.2266
  416SOL    HW2 1248   0.457   1.085   1.020 -1.4360 -2.7814  1.7203
  417SOL     OW 1249   2.245   2.317   1.989  0.4039  0.3977 -0.4976
  417SOL    HW1 1250   2.314   2.266   2.047  1.9726 -1.4967  0.3586
  417SOL    HW2 1251   2.186   2.251   1.932 -1.9391  0.9150 -1.3622
  418SOL     OW 1252   1.071   0.601   1.343  0.4217  0.2264 -0.0449
  418SOL    HW1 1253   1.013   0.540   1.285 -3.4597  1.5136  2.5872
  418SOL    HW2 1254   1.171   0.597   1.308 -1.0803  3.1628 -1.3831
  419SOL     OW 1255   0.976   0.508   2.957 -0.3438 -0.2928 -0.3992
  419SOL    HW1 1256   0.958   0.485   2.858 -1.3672 -3.5842 -0.8669
  419SOL    HW2 1257   0.979   0.605   2.989 -1.5210  2.7622 -1.2570
  420SOL     OW 1258   0.089   2.258   0.524 -0.2207 -0.0889  0.2289
  420SOL    HW1 1259   0.143   2.229   0.440 -0.6541  1.5825 -0.8306
  420SOL    HW2 1260   0.022   2.184   0.553  0.3352 -0.5974  2.2522
  421SOL     OW 1261   0.327   2.978   0.636  0.5618 -0.2126 -0.4489
  421SOL    HW1 1262   0.303   2.926   0.720  0.8875  0.7122  0.9704
  421SOL    HW2 1263   0.421   3.020   0.640 -1.6885  1.8948 -1.2724
  422SOL     OW 1264   1.022   2.580   1.033 -0.2805  0.3387 -0.1218
  422SOL    HW1 1265   1.093   2.639   0.989 -2.2073  0.8573  0.1148
  422SOL    HW2 1266   1.025   2.578   1.139  1.3826  1.3131  2.2866
  423SOL     OW 1267   0.143   0.721   1.254  0.0577  0.2263 -0.5376
  423SOL    HW1 1268   0.096   0.666   1.329  2.6783 -0.8977  0.6994
  423SOL    HW2 1269   0.089   0.812   1.235  1.5471  3.3582 -1.6696
  424SOL     OW 1270   1.065   2.209   2.045  1.0651 -0.3770  0.1739
  424SOL    HW1 1271   1.063   2.313   2.026  0.6508  0.8858 -2.0879
  424SOL    HW2 1272   1.056   2.193   2.149 -0.6085  0.7718  0.8835
  425SOL     OW 1273   1.986   1.300   1.000 -0.2023  0.1681 -0.0897
  425SOL    HW1 1274   2.048   1.227   1.040  0.3831  2.0754 -0.5415
  425SOL    HW2 1275   2.039   1.387   0.983  1.9102  0.9288  2.1682
  426SOL     OW 1276   1.522   1.599   1.378 -0.4401 -0.4136  0.0505
  426SOL    HW1 1277   1.486   1.647   1.289  0.5753 -0.2574 -0.7221
  426SOL    HW2 1278   1.447   1.588   1.446 -1.5012  0.6006 -0.7730
  427SOL     OW 1279   1.937   2.329   2.054 -0.6035 -0.2747 -0.7785
  427SOL    HW1 1280   1.983   2.253   2.115 -1.9652 -1.4135  1.0709
  427SOL    HW2 1281   1.951   2.424   2.090 -0.2600  1.9839  1.3787
  428SOL     OW 1282   0.877   3.046   0.154 -1.0971  0.2901 -0.2112
  428SOL    HW1 1283   0.891   3.099   0.071  0.2021 -1.5255  1.5455
  428SOL    HW2 1284   0.948   2.972   0.166 -3.2401 -0.1486 -0.4619
  429SOL     OW 1285   1.323   0.090   0.256  0.0028  0.5285  0.0230
  429SOL    HW1 1286   1.413   0.099   0.305 -1.1148 -0.8313 -1.0602
  429SOL    HW2 1287   1.331   0.079   0.154 -2.6854 -1.9089  1.9111
  430SOL     OW 1288   2.846   1.414   0.305  0.5601 -0.1606  0.1047
  430SOL    HW1 1289   2.849   1.470   0.214  0.1234  0.3016 -2.0102
  430SOL    HW2 1290   2.885   1.468   0.380  1.6564  1.2190 -2.3294
  431SOL     OW 1291   2.101   1.526   0.918 -0.1087 -0.2802  0.6290
  431SOL    HW1 1292   2.168   1.602   0.934 -0.9396 -1.7036  0.8902
  431SOL    HW2 1293   2.025   1.549   0.855 -1.8805 -0.4739  1.7197
  432SOL     OW 1294   2.924   2.251   1.153  0.4567  0.0030 -0.4608
  432SOL    HW1 1295   2.836   2.202   1.176  0.4720 -1.8259  1.1891
  432SOL    HW2 1296   2.983   2.277   1.235  1.1786 -0.1108  2.3400
  433SOL     OW 1297   1.827   0.302   0.804  0.6368 -0.7493 -0.5612
  433SOL    HW1 1298   1.722   0.296   0.823 -3.3235 -0.1569  1.6428
  433SOL    HW2 1299   1.890   0.241   0.853 -1.5208 -0.1622 -0.0988
  434SOL     OW 1300   1.548   0.306   0.698  0.3662  0.3956 -0.1713
  434SOL    HW1 1301   1.540   0.399   0.649 -1.1444  1.2558  2.0173
  434SOL    HW2 1302   1.548   0.329   0.798 -0.0736 -0.5938 -0.1404
  435SOL     OW 1303   1.440   1.503   2.067  0.5107 -0.2326 -0.9361
  435SOL    HW1 1304   1.441   1.549   2.162  0.1302  2.9578 -0.0470
  435SOL    HW2 1305   1.483   1.562   1.988 -0.3052  1.7941 -2.7458
  436SOL     OW 1306   1.697   2.736   2.286  0.1313 -0.0447 -0.1885
  436SOL    HW1 1307   1.656   2.823   2.331 -1.0383  2.3029  1.4451
  436SOL    HW2 1308   1.714   2.659   2.355 -0.8335  0.7919 -0.8896
  437SOL     OW 1309   1.109   2.918   0.929 -0.0119  0.0488 -0.4287
  437SOL    HW1 1310   1.036   2.989   0.923 -0.4417 -1.4845  0.7389
  437SOL    HW2 1311   1.091   2.855   1.009 -0.4896 -0.3355 -0.1689
  438SOL     OW 1312   0.978   2.608   1.324 -0.1281  0.3025  0.0233
  438SOL    HW1 1313   1.067   2.642   1.358 -0.8699 -0.2215 -1.9361
  438SOL    HW2 1314   0.968   2.502   1.340  2.3867 -2.5961  0.2847
  439SOL     OW 1315   0.713   1.774   1.123  0.8905  0.3643  0.4577
  439SOL    HW1 1316   0.681   1.859   1.073  0.2031  0.4148 -0.4641
  439SOL    HW2 1317   0.637   1.726   1.173  0.7861  0.7778  0.2042
  440SOL     OW 1318   1.035   2.531   1.945  0.1315 -0.1682 -0.3498
  440SOL    HW1 1319   1.011   2.572   1.848  0.8585 -0.1183 -1.0648
  440SOL    HW2 1320   1.139   2.530   1.954 -1.4493 -0.9267  3.0730
  441SOL     OW 1321   0.529   2.734   1.423 -0.0554  0.5214  0.1539
  441SOL    HW1 1322   0.586   2.642   1.422  3.0743 -1.6068 -0.3723
  441SOL    HW2 1323   0.439   2.722   1.377  2.5038 -0.2900  2.2142
  442SOL     OW 1324   2.249   0.739   2.488 -0.1309 -0.0662 -0.1601
  442SOL    HW1 1325   2.260   0.635   2.509 -0.5304 -0.5977 -0.2814
  442SOL    HW2 1326   2.150   0.771   2.486  0.2669  1.3077 -0.9638
  443SOL     OW 1327   1.196   2.720   2.195 -0.4012  0.7688  0.4497
  443SOL    HW1 1328   1.174   2.769   2.280  0.6947 -0.1279  3.5390
  443SOL    HW2 1329   1.232   2.622   2.212 -3.4078 -1.3916  1.6645
  444SOL     OW 1330   1.080   1.278   1.567 -0.2516  0.4720 -0.4275
  444SOL    HW1 1331   1.174   1.233   1.586 -0.5761  2.4645  1.9363
  444SOL    HW2 1332   1.071   1.375   1.603 -0.3400 -0.1964  2.1190
  445SOL     OW 1333   0.015   2.299   1.914 -0.0663 -0.1625  0.5333
  445SOL    HW1 1334   0.012   2.396   1.880  0.7278 -1.2393 -0.0024
  445SOL    HW2 1335  -0.069   2.279   1.968 -1.0491 -1.3117 -0.6765
  446SOL     OW 1336   0.188   1.891   2.324 -0.3280 -0.3876  0.6424
  446SOL    HW1 1337   0.121   1.959   2.367 -0.9087 -0.2022 -2.6070
  446SOL    HW2 1338   0.153   1.857   2.230 -1.4057  2.3396  0.1531
  447SOL     OW 1339   1.235   1.685   1.930  0.7224  0.1670 -0.0072
  447SOL    HW1 1340   1.166   1.759   1.905  0.4574  0.8024 -0.1357
  447SOL    HW2 1341   1.316   1.727   1.975 -1.7298  0.3457  2.7124
  448SOL     OW 1342   0.178   1.563   2.040  0.0545  0.3750 -0.1755
  448SOL    HW1 1343   0.192   1.644   1.969  1.2508 -1.4649 -0.0992
  448SOL    HW2 1344   0.123   1.597   2.120 -0.0812 -2.6914 -1.0432
  449SOL     OW 1345   2.010   2.940   0.815  0.1670 -0.0539 -0.5879
  449SOL    HW1 1346   2.066   2.970   0.895  3.1863 -0.8283  0.0206
  449SOL    HW2 1347   2.016   2.842   0.784  3.5325  0.2171 -0.0044
  450SOL     OW 1348   2.319   1.351   0.775 -0.1819  0.4330 -0.1216
  450SOL    HW1 1349   2.299   1.263   0.827 -0.6049  1.0434  3.3637
  450SOL    HW2 1350   2.230   1.406   0.751 -3.4248  0.2750 -1.5950
  451SOL     OW 1351   1.402   0.029   1.456  0.4714  0.7463  0.4812
  451SOL    HW1 1352   1.323   0.094   1.460  0.8662 -0.2195 -1.2873
  451SOL    HW2 1353   1.420  -0.017   1.546 -0.5941  0.1284  1.3704
  452SOL     OW 1354   2.654   2.295   2.217  0.0214 -0.5065  0.2124
  452SOL    HW1 1355   2.594   2.376   2.245 -0.6001  1.6607 -0.7846
  452SOL    HW2 1356   2.700   2.242   2.296 -0.3469 -0.6334  1.7173
  453SOL     OW 1357   2.432   2.653   3.079  0.1193 -1.0208  0.2291
  453SOL    HW1 1358   2.352   2.723   3.094 -1.6300 -0.0794 -1.0906
  453SOL    HW2 1359   2.422   2.600   2.985  0.4371  1.6756 -2.0095
  454SOL     OW 1360   0.995   1.096   2.100 -0.4256  0.3034  0.3687
  454SOL    HW1 1361   0.989   1.139   2.009 -1.4134  1.3518  1.0436
  454SOL    HW2 1362   1.089   1.108   2.140  0.4388  1.0683  1.0732
  455SOL     OW 1363   0.674   2.623   2.887  0.2900  0.4416 -0.1184
  455SOL    HW1 1364   0.740   2.674   2.944 -0.3496  0.3599 -3.2096
  455SOL    HW2 1365   0.669   2.522   2.913  1.8389  1.1866  0.6841
  456SOL     OW 1366   0.496   1.872   0.386  0.2251 -0.3021 -0.2007
  456SOL    HW1 1367   0.548   1.880   0.469 -0.8355 -0.0940 -0.6343
  456SOL    HW2 1368   0.540   1.932   0.315  0.8436 -2.9314  0.5727
  457SOL     OW 1369   0.376   2.607   0.718  0.1038  0.1329 -0.1325
  457SOL    HW1 1370   0.393   2.623   0.615  0.7033 -2.6053 -0.4977
  457SOL    HW2 1371   0.455   2.622   0.780  0.9395 -1.9845  1.2774
  458SOL     OW 1372   2.988   3.057   1.243  0.0166  0.1112  0.4967
  458SOL    HW1 1373   3.005   3.157   1.228  2.3941 -0.2005  0.4693
  458SOL    HW2 1374   2.972   2.995   1.159 -3.3845 -2.5976  3.0079
  459SOL     OW 1375   2.164   2.545   0.874 -0.3765  0.4888  0.3758
  459SOL    HW1 1376   2.142   2.623   0.939  0.3815  0.2533  1.5267
  459SOL    HW2 1377   2.259   2.551   0.831 -2.0576 -0.2338  2.6082
  460SOL     OW 1378   1.144   1.950   2.948  0.0637  0.0042  0.8086
  460SOL    HW1 1379   1.164   2.027   2.876 -1.1949  0.4368  0.4038
  460SOL    HW2 1380   1.227   1.890   2.975 -1.9263 -1.0037  0.0368
  461SOL     OW 1381   0.488   2.149   2.682  0.3745  0.1060 -0.3658
  461SOL    HW1 1382   0.433   2.079   2.625 -0.0469 -0.9652  3.6379
  461SOL    HW2 1383   0.529   2.097   2.765 -1.0084  0.1134  0.8648
  462SOL     OW 1384   0.933   1.176   1.836  0.1756  0.4159 -0.0046
  462SOL    HW1 1385   1.023   1.144   1.806 -2.8709  2.2546 -1.5190
  462SOL    HW2 1386   0.897   1.263   1.788 -1.0690  1.5094 -2.3211
  463SOL     OW 1387   0.451   0.791   0.543 -0.0703  0.0684  0.1029
  463SOL    HW1 1388   0.490   0.698   0.510 -0.7755  1.9904  1.5557
  463SOL    HW2 1389   0.349   0.797   0.565  0.0907  1.8833  1.3385
  464SOL     OW 1390   0.600   2.234   2.303  0.1307  0.0856  0.5754
  464SOL    HW1 1391   0.575   2.322   2.354  1.2142  0.3006  2.9264
  464SOL    HW2 1392   0.624   2.253   2.200 -1.5897  2.2522 -1.6223
  465SOL     OW 1393   0.277   0.917   0.842 -0.3676  0.2289  0.1555
  465SOL    HW1 1394   0.194   0.943   0.782 -1.5209  0.4213 -1.7988
  465SOL    HW2 1395   0.290   0.813   0.834 -0.1551  1.1778 -0.5843
  466SOL     OW 1396   1.373   1.107   1.136  0.4128  0.0379 -0.1856
  466SOL    HW1 1397   1.408   1.200   1.156 -1.1524 -0.8961 -0.4736
  466SOL    HW2 1398   1.270   1.100   1.163 -0.5417 -1.4135 -1.3736
  467SOL     OW 1399   0.509   0.325   2.349 -0.0941  0.5516  0.5240
  467SOL    HW1 1400   0.518   0.413   2.402  0.5800 -0.8199  3.7835
  467SOL    HW2 1401   0.495   0.245   2.415  0.6740 -0.5858  0.6178
  468SOL     OW 1402   0.424   2.320   1.669 -0.4341 -0.0730  0.1061
  468SOL    HW1 1403   0.487   2.392   1.708  0.7398 -0.3375 -0.7107
  468SOL    HW2 1404   0.406   2.327   1.567 -0.1176 -1.6705 -1.9064
  469SOL     OW 1405   1.489   1.336   1.281 -0.4802 -0.0334 -0.3932
  469SOL    HW1 1406   1.591   1.306   1.271  3.1012  2.4282 -0.7802
  469SOL    HW2 1407   1.481   1.434   1.311  1.3161 -0.3089 -2.3234
  470SOL     OW 1408   3.010   1.689   0.737  0.5803  0.3345 -0.1154
  470SOL    HW1 1409   3.081   1.764   0.727 -3.0208  1.0535  1.0189
  470SOL    HW2 1410   2.936   1.726   0.801 -1.4871  2.5745 -2.5506
  471SOL     OW 1411   2.629   1.362   2.160 -0.3862 -0.6308  0.6182
  471SOL    HW1 1412   2.610   1.274   2.212  0.1260  0.5131  0.1498
  471SOL    HW2 1413   2.730   1.395   2.162  0.6585  1.2797 -2.2416
  472SOL     OW 1414   1.114   2.454   3.053 -0.1794 -0.3792 -0.0889
  472SOL    HW1 1415   1.113   2.464   3.156  1.5983 -0.0074  0.8923
  472SOL    HW2 1416   1.070   2.364   3.020  1.1979 -2.8049 -2.4843
  473SOL     OW 1417   1.046   1.493   0.924  0.9304 -0.0862  0.0245
  473SOL    HW1 1418   0.957   1.525   0.971 -1.4833  2.3933 -0.2137
  473SOL    HW2 1419   1.110   1.446   0.989 -2.6553  1.6711 -0.8277
  474SOL     OW 1420   0.787   1.225   0.602  0.3988  0.0419 -0.2190
  474SOL    HW1 1421   0.743   1.226   0.508  1.3709 -0.8242 -0.3628
  474SOL    HW2 1422   0.821   1.129   0.625  2.1928 -0.5690  0.2195
  475SOL     OW 1423   2.811   0.143   0.784 -0.4798 -0.1131  0.7117
  475SOL    HW1 1424   2.898   0.171   0.834  2.0187  1.0452 -0.0626
  475SOL    HW2 1425   2.724   0.136   0.842 -1.0108 -1.8152  1.8402
  476SOL     OW 1426   0.918   2.998   1.779 -0.0496  0.1948 -0.6795
  476SOL    HW1 1427   0.943   2.957   1.869  1.8870 -0.8709 -0.0612
  476SOL    HW2 1428   0.936   2.934   1.700  1.2575  0.0333 -0.8147
  477SOL     OW 1429   1.420   0.332   2.483  0.0202 -0.1001 -0.2689
  477SOL    HW1 1430   1.421   0.346   2.586  0.8156 -0.2065  1.0509
  477SOL    HW2 1431   1.497   0.275   2.445 -0.6849 -0.5860  1.8641
  478SOL     OW 1432   2.258   1.827   0.243  0.0442  0.3837  0.2981
  478SOL    HW1 1433   2.183   1.758   0.225 -0.5982 -2.8256 -0.1721
  478SOL    HW2 1434   2.352   1.795   0.217 -1.7126  0.1332 -0.3764
  479SOL     OW 1435   1.239   1.056   2.880 -0.7127 -0.5292 -0.7399
  479SOL    HW1 1436   1.298   1.064   2.798 -0.7746  0.6412  1.8205
  479SOL    HW2 1437   1.145   1.025   2.844 -0.8530 -0.3760  0.7277
  480SOL     OW 1438   2.530   2.303   0.376  0.2088  0.2236 -0.2770
  480SOL    HW1 1439   2.491   2.209   0.371 -0.4028  0.2506 -4.0040
  480SOL    HW2 1440   2.502   2.358   0.289 -1.2692  0.7740 -0.2178
  481SOL     OW 1441   1.055   1.184   0.835  0.3335 -0.2519  0.1351
  481SOL    HW1 1442   1.069   1.254   0.762  0.5236 -0.3737  1.6492
  481SOL    HW2 1443   1.052   1.218   0.930 -0.2651  1.0778 -0.6187
  482SOL     OW 1444   1.590   0.331   2.032 -0.1752  0.3850  0.2033
  482SOL    HW1 1445   1.599   0.429   2.009 -1.4609 -1.4315  1.2816
  482SOL    HW2 1446   1.685   0.292   2.061  2.4407  1.3355  3.9055
  483SOL     OW 1447   0.196   2.387   1.276 -0.3502 -0.0226  0.1704
  483SOL    HW1 1448   0.101   2.378   1.314  0.5690 -2.0167 -1.4260
  483SOL    HW2 1449   0.201   2.415   1.178  1.3867  1.7051 -0.0303
  484SOL     OW 1450   1.702   0.982   1.397  0.3486  0.2216  0.4522
  484SOL    HW1 1451   1.778   0.913   1.383  1.5264 -0.5916 -0.9504
  484SOL    HW2 1452   1.733   1.060   1.461 -0.0295  3.1173 -0.9956
  485SOL     OW 1453   0.663   1.087   1.796  0.3947  0.0143 -0.2111
  485SOL    HW1 1454   0.682   1.041   1.701  0.2944 -0.6896 -4.0769
  485SOL    HW2 1455   0.753   1.104   1.837  0.9760 -1.4923 -1.8046
  486SOL     OW 1456   0.949   1.949   2.484 -0.3295  0.4260  0.0291
  486SOL    HW1 1457   0.990   1.906   2.570 -3.2262 -1.2851 -0.8782
  486SOL    HW2 1458   0.857   1.992   2.492 -0.9030 -0.8801  0.3198
  487SOL     OW 1459   1.717   1.545   0.899 -1.0064 -0.0947 -0.0652
  487SOL    HW1 1460   1.707   1.473   0.819 -1.3413 -2.2123 -0.0057
  487SOL    HW2 1461   1.791   1.616   0.876  1.1768  0.8150 -1.7867
  488SOL     OW 1462   2.951   0.913   2.210  0.0763  0.5719 -0.5964
  488SOL    HW1 1463   3.021   0.866   2.149 -0.9703  0.9895 -0.6986
  488SOL    HW2 1464   2.989   0.918   2.309  2.2055  0.5318  1.3221
  489SOL     OW 1465   2.786   0.252   1.295 -0.2081  0.2630  0.0613
  489SOL    HW1 1466   2.751   0.197   1.371  0.6417  0.4555 -0.3328
  489SOL    HW2 1467   2.882   0.223   1.259  1.8259 -0.6894  1.3579
  490SOL     OW 1468   1.437   2.949   2.804 -0.4455  0.5166 -0.0065
  490SOL    HW1 1469   1.490   2.857   2.821 -1.1950 -2.4718  1.6419
  490SOL    HW2 1470   1.443   2.990   2.706 -0.1903  2.3773  0.4182
  491SOL     OW 1471   1.788   1.489   2.674  0.2507  0.1857 -0.0115
  491SOL    HW1 1472   1.727   1.473   2.754 -0.1445 -1.0000 -1.8618
  491SOL    HW2 1473   1.888   1.496   2.691  1.2496  2.5488  0.6008
  492SOL     OW 1474   0.537   2.051   0.701  0.5504  0.2497  0.7721
  492SOL    HW1 1475   0.590   2.028   0.788  0.7685  2.3651  1.7367
  492SOL    HW2 1476   0.478   2.133   0.719  0.9264 -1.9551  0.7047
  493SOL     OW 1477   0.435   1.422   2.047 -0.2504  0.7852  0.5063
  493SOL    HW1 1478   0.355   1.488   2.059 -1.1248  0.9165 -0.4114
  493SOL    HW2 1479   0.435   1.338   2.111  0.6354  0.7772 -1.9133
  494SOL     OW 1480   2.647   2.697   0.159  0.5099  0.0853 -0.0808
  494SOL    HW1 1481   2.646   2.631   0.242  0.3890  0.2944 -0.5645
  494SOL    HW2 1482   2.575   2.678   0.089  2.4669 -0.8280 -0.5650
  495SOL     OW 1483   2.724   2.645   2.696 -0.1663 -0.3784  0.4770
  495SOL    HW1 1484   2.647   2.578   2.688  0.7395  1.0983  0.5840
  495SOL    HW2 1485   2.773   2.661   2.603  1.0492 -2.4302  0.2010
  496SOL     OW 1486   2.023   2.169   0.710 -0.1005 -0.0685  0.4266
  496SOL    HW1 1487   2.029   2.213   0.809  0.2099  1.0620  0.1359
  496SOL    HW2 1488   2.094   2.099   0.692 -1.7009  0.7735 -0.5488
  497SOL     OW 1489   0.198   2.970   2.400 -0.0207  0.4052 -0.0371
  497SOL    HW1 1490   0.162   3.030   2.474  0.9660 -0.4887  1.0446
  497SOL    HW2 1491   0.234   3.020   2.315  0.7398  2.8267  0.1561
  498SOL     OW 1492   1.217   1.447   1.156  0.2966 -0.1332 -0.8188
  498SOL    HW1 1493   1.298   1.430   1.210 -1.7230 -0.4853  0.6421
  498SOL    HW2 1494   1.167   1.530   1.196 -0.5284 -0.8733  2.1909
  499SOL     OW 1495   0.751   1.861   0.545  0.5177  0.1318  0.0986
  499SOL    HW1 1496   0.736   1.761   0.560  3.1724  0.4454  1.8775
  499SOL    HW2 1497   0.802   1.896   0.630  0.7437 -1.0823 -0.8637
  500SOL     OW 1498   1.449   2.970   1.693 -0.2463 -0.3009  0.5835
  500SOL    HW1 1499   1.419   2.969   1.795 -0.4730 -0.5943  0.6108
  500SOL    HW2 1500   1.487   2.880   1.660  1.3752  1.1396 -1.0606
  501SOL     OW 1501   0.798   1.117   2.293 -0.5456  0.1299  0.0049
  501SOL    HW1 1502   0.739   1.029   2.302 -0.8257 -1.5051 -0.2243
  501SOL    HW2 1503   0.858   1.117   2.206 -1.6056 -2.1181 -0.2063
  502SOL     OW 1504   2.583   0.944   1.755 -0.6789  0.1722  0.1710
  502SOL    HW1 1505   2.596   0.939   1.653  0.5457  0.0889 -0.0063
  502SOL    HW2 1506   2.547   0.855   1.791  2.1662  1.6638 -2.3495
  503SOL     OW 1507   1.301   0.122   0.609  0.1984  0.5746 -0.2412
  503SOL    HW1 1508   1.242   0.193   0.557 -0.2349 -0.5369 -4.2563
  503SOL    HW2 1509   1.401   0.157   0.635  1.8013  0.7748  2.1507
  504SOL     OW 1510   3.032   2.314   1.410 -0.0010  0.2350 -0.4096
  504SOL    HW1 1511   3.000   2.393   1.460 -0.7633 -2.9475 -2.2759
  504SOL    HW2 1512   3.057   2.232   1.472 -1.4796  0.8693  3.5574
  505SOL     OW 1513   2.264   1.169   1.507  0.2621 -0.1321 -0.5227
  505SOL    HW1 1514   2.273   1.216   1.410  1.1482 -1.3733 -0.9285
  505SOL    HW2 1515   2.327   1.211   1.574  0.3647  1.0171  0.6575
  506SOL     OW 1516   1.995   0.214   1.751 -0.3802 -0.2321 -0.2107
  506SOL    HW1 1517   2.026   0.123   1.796 -0.1418  1.0490  0.4456
  506SOL    HW2 1518   1.978   0.294   1.812 -0.8728 -0.0474  2.2308
  507SOL     OW 1519   0.537   0.670   2.165 -0.3789 -0.0468  0.0400
  507SOL    HW1 1520   0.450   0.678   2.102 -0.4830 -0.0130 -0.6601
  507SOL    HW2 1521   0.606   0.595   2.148  4.2030 -0.7769  0.6955
  508SOL     OW 1522   0.255   1.611   0.910  0.2332 -0.3839 -0.0230
  508SOL    HW1 1523   0.349   1.646   0.883 -2.0330  0.9850 -2.3497
  508SOL    HW2 1524   0.207   1.664   0.989  1.0015  0.3019  1.1781
  509SOL     OW 1525   1.348   1.248   2.420  0.0235 -0.6819  1.3479
  509SOL    HW1 1526   1.283   1.191   2.463 -0.8660  2.6652 -0.1352
  509SOL    HW2 1527   1.396   1.206   2.336  0.9509  1.9206 -1.6622
  510SOL     OW 1528   1.281   2.010   2.065  0.1658 -0.2691 -0.0887
  510SOL    HW1 1529   1.217   2.081   2.029  1.6558 -2.0304  1.1746
  510SOL    HW2 1530   1.234   1.935   2.125 -3.0154 -0.5641  1.2653
  511SOL     OW 1531   3.052   2.662   1.322 -0.3164 -0.3692 -0.2091
  511SOL    HW1 1532   2.993   2.641   1.237 -1.4021 -2.4828 -1.1733
  511SOL    HW2 1533   3.004   2.628   1.404  1.7761  1.0397 -0.5287
  512SOL     OW 1534   2.372   0.427   1.392  0.4957  0.2242  0.2166
  512SOL    HW1 1535   2.274   0.438   1.416  1.5560  0.5363 -2.4913
  512SOL    HW2 1536   2.388   0.383   1.298  1.6730  2.4452 -0.7657
  513SOL     OW 1537   2.473   2.020   0.862 -0.0834 -0.1068 -0.4510
  513SOL    HW1 1538   2.410   2.085   0.807 -1.0607  0.9262 -0.0900
  513SOL    HW2 1539   2.546   1.974   0.806 -0.6216 -1.9848  1.5908
  514SOL     OW 1540   0.607   2.807   0.453  0.3805 -0.1111 -0.8734
  514SOL    HW1 1541   0.595   2.867   0.372 -0.1379 -0.5044 -0.9321
  514SOL    HW2 1542   0.647   2.863   0.528  1.9683  1.7432 -1.8441
  515SOL     OW 1543   2.030   1.136   2.259  0.1580  0.1906  0.4318
  515SOL    HW1 1544   1.983   1.181   2.173  2.0875 -0.6273 -0.2005
  515SOL    HW2 1545   1.975   1.176   2.342  2.0935 -1.2088  1.2186
  516SOL     OW 1546   0.283   0.270   1.954  0.3876 -0.1374  0.0911
  516SOL    HW1 1547   0.378   0.276   1.912 -1.2483  0.2166 -0.3999
  516SOL    HW2 1548   0.213   0.234   1.889 -1.2962  0.2088 -0.9661
  517SOL     OW 1549   0.368   3.036   1.192 -0.6280 -0.2571  0.4024
  517SOL    HW1 1550   0.406   3.117   1.245 -1.8973  1.5554  2.6078
  517SOL    HW2 1551   0.285   3.006   1.242 -1.1335 -1.8348  3.0773
  518SOL     OW 1552   2.161   3.079   1.749 -0.9297 -0.3174  0.0402
  518SOL    HW1 1553   2.228   3.150   1.770  0.2563  0.3827  1.1970
  518SOL    HW2 1554   2.196   3.013   1.672  1.2851 -0.7076 -0.6495
  519SOL     OW 1555   2.396   2.222   2.578  0.5121 -0.0211 -0.1984
  519SOL    HW1 1556   2.310   2.215   2.638 -0.3574 -1.2197  0.6157
  519SOL    HW2 1557   2.439   2.319   2.582  1.2924  0.5226 -1.7892
  520SOL     OW 1558   1.747   2.870   1.865  0.0150  0.1815 -0.2352
  520SOL    HW1 1559   1.649   2.843   1.886  1.6711 -0.6807  0.2623
  520SOL    HW2 1560   1.809   2.786   1.839  0.6383  0.6656 -0.7187
  521SOL     OW 1561   0.567   3.088   2.126  0.2995  0.4200 -0.2446
  521SOL    HW1 1562   0.477   3.066   2.167  1.9796  0.0119  0.3604
  521SOL    HW2 1563   0.630   3.112   2.202  0.3040  1.7529 -1.8909
  522SOL     OW 1564   0.202   1.903   1.463 -0.1227  0.1040  0.7899
  522SOL    HW1 1565   0.256   1.955   1.536  1.7431  1.8600 -0.5941
  522SOL    HW2 1566   0.165   1.975   1.394  0.0789  1.0983 -2.1866
  523SOL     OW 1567   2.252   2.907   1.559 -0.3087 -0.0113  0.2228
  523SOL    HW1 1568   2.326   2.832   1.555  0.5190  0.6181  1.4469
  523SOL    HW2 1569   2.160   2.879   1.524  2.2835  0.8811  0.4669
  524SOL     OW 1570   0.184   2.756   2.763 -0.1845 -0.1900 -0.0706
  524SOL    HW1 1571   0.139   2.823   2.830 -1.4007 -1.2258  0.7101
  524SOL    HW2 1572   0.284   2.778   2.768  0.8288 -0.4808  2.3557
  525SOL     OW 1573   2.161   1.952   0.484  0.1274 -0.1549 -0.5540
  525SOL    HW1 1574   2.150   1.877   0.556  0.6211 -1.7275  1.1760
  525SOL    HW2 1575   2.162   1.907   0.390 -1.1964  1.6560 -2.0935
  526SOL     OW 1576   0.415   1.512   1.624  0.3954  0.1811 -0.3100
  526SOL    HW1 1577   0.399   1.487   1.720  1.5122  0.0188 -1.4030
  526SOL    HW2 1578   0.481   1.440   1.584  1.7536 -0.2852 -0.6713
  527SOL     OW 1579   1.085   2.963   1.274  0.0524 -0.3102  0.6073
  527SOL    HW1 1580   1.185   2.931   1.260  0.9156  1.4044 -0.8768
  527SOL    HW2 1581   1.074   3.064   1.258 -0.9254 -0.0680  3.1969
  528SOL     OW 1582   1.349   2.408   0.507 -0.2647  0.2863 -0.3166
  528SOL    HW1 1583   1.402   2.320   0.487 -0.3642  0.5366 -1.0850
  528SOL    HW2 1584   1.404   2.476   0.566 -0.6206 -2.6998  1.9475
  529SOL     OW 1585   1.913   1.710   0.809 -0.4765 -0.6112  0.3385
  529SOL    HW1 1586   1.844   1.733   0.729 -1.1869  0.3525 -0.4467
  529SOL    HW2 1587   1.924   1.788   0.879  0.6495 -3.4661 -0.2690
  530SOL     OW 1588   0.283   2.484   0.335 -0.0718 -0.0425  0.6447
  530SOL    HW1 1589   0.265   2.565   0.394 -0.9581 -0.1156 -1.0012
  530SOL    HW2 1590   0.331   2.406   0.388  0.7018 -0.6292  0.8715
  531SOL     OW 1591   1.801   1.021   0.995  0.1417  0.0866 -0.0660
  531SOL    HW1 1592   1.834   0.991   0.902  0.0555 -0.1935  1.2075
  531SOL    HW2 1593   1.696   1.017   1.004 -2.5884  0.1745  0.2935
  532SOL     OW 1594   0.505   1.067   0.801 -0.2654  0.0124  0.1648
  532SOL    HW1 1595   0.555   1.036   0.715 -1.0429 -2.1235 -0.6595
  532SOL    HW2 1596   0.418   1.014   0.821  2.6199 -1.3677  1.4727
  533SOL     OW 1597   1.765   0.012   2.572 -0.0818  0.0387 -0.4056
  533SOL    HW1 1598   1.868   0.011   2.577  1.0774  2.2308  0.0788
  533SOL    HW2 1599   1.724   0.057   2.654  0.7303 -1.2161  0.7302
  534SOL     OW 1600   0.354   0.202   1.607  0.5278  0.3890 -0.8882
  534SOL    HW1 1601   0.451   0.237   1.578  2.0144  0.2637  0.9753
  534SOL    HW2 1602   0.293   0.284   1.640  1.8516  1.2361  0.0493
  535SOL     OW 1603   1.957   0.334   0.142 -0.5951  0.2409  0.3811
  535SOL    HW1 1604   1.944   0.414   0.204 -0.5403 -1.7564 -2.5928
  535SOL    HW2 1605   1.947   0.248   0.195  2.1963  1.4505  1.0183
  536SOL     OW 1606   1.397   2.648   0.952 -0.1126  0.4435 -0.0887
  536SOL    HW1 1607   1.370   2.617   1.046 -0.8447 -1.7066  1.7252
  536SOL    HW2 1608   1.313   2.669   0.889 -1.7989  0.8541  1.9450
  537SOL     OW 1609   0.807   0.299   2.403 -0.1897 -0.3046  0.1359
  537SOL    HW1 1610   0.809   0.358   2.319 -0.3787  1.3099  1.0155
  537SOL    HW2 1611   0.777   0.200   2.389 -2.1608 -1.2394 -0.6218
  538SOL     OW 1612   1.674   2.309   1.451 -0.1748 -0.4224 -0.7763
  538SOL    HW1 1613   1.653   2.207   1.447 -0.2133 -0.9906  0.6427
  538SOL    HW2 1614   1.773   2.331   1.418  1.3178  0.6692 -2.0717
  539SOL     OW 1615   0.161   1.642   2.675  0.0949 -0.2647 -0.2102
  539SOL    HW1 1616   0.063   1.625   2.635 -0.8651  1.2313  0.5822
  539SOL    HW2 1617   0.160   1.731   2.729 -0.9701  1.6838 -1.2547
  540SOL     OW 1618   2.661   1.765   1.922  0.3561  0.1498  0.1666
  540SOL    HW1 1619   2.615   1.676   1.952  0.3950 -1.9789  0.5092
  540SOL    HW2 1620   2.595   1.844   1.906  0.0187  4.8157 -1.6228
  541SOL     OW 1621   0.534   2.187   0.010  0.4127 -0.1894 -0.0515
  541SOL    HW1 1622   0.567   2.141   0.099  0.6449 -0.2406 -0.0352
  541SOL    HW2 1623   0.432   2.198   0.001  2.5373  0.9464 -1.4698
  542SOL     OW 1624   2.204   2.572   0.413 -0.7892  0.1532 -0.3135
  542SOL    HW1 1625   2.151   2.658   0.408  1.5102  1.1235  0.9000
  542SOL    HW2 1626   2.144   2.493   0.445 -1.6907 -0.0203  0.8158
  543SOL     OW 1627   1.115   1.811   1.560 -0.3147  0.1664  0.4033
  543SOL    HW1 1628   1.103   1.860   1.649  1.5025  2.2252 -2.2850
  543SOL    HW2 1629   1.086   1.870   1.475 -3.3066 -1.3518 -2.4309
  544SOL     OW 1630   1.105   0.472   0.179 -0.1123  0.5655 -0.1497
  544SOL    HW1 1631   1.086   0.386   0.232  0.3441  0.4253  0.9035
  544SOL    HW2 1632   1.114   0.445   0.082  1.1643 -2.8550  2.0819
  545SOL     OW 1633   1.125   1.766   0.784 -0.0311  0.2379 -0.5412
  545SOL    HW1 1634   1.224   1.770   0.742  2.0423 -1.5077 -1.3579
  545SOL    HW2 1635   1.114   1.673   0.832 -0.5139 -2.3709 -0.6283
  546SOL     OW 1636   2.642   1.532   3.019  0.4671  0.2387 -0.2194
  546SOL    HW1 1637   2.629   1.625   2.969 -2.1471  3.3664 -0.8835
  546SOL    HW2 1638   2.556   1.474   3.022 -0.7993 -0.9035 -2.0024
  547SOL     OW 1639   0.619   3.010   2.599 -0.5427  0.2811 -0.4582
  547SOL    HW1 1640   0.704   3.027   2.661 -0.0991 -2.0993  0.1951
  547SOL    HW2 1641   0.565   2.930   2.630  2.3266  2.5547 -0.2344
  548SOL     OW 1642   2.088   0.857   2.977 -0.2602 -0.3152 -0.0157
  548SOL    HW1 1643   1.997   0.828   3.008  1.9247 -0.5810  0.8931
  548SOL    HW2 1644   2.107   0.953   3.014 -0.8120 -0.9679 -1.7320
  549SOL     OW 1645   0.659   0.594   0.195 -0.2395  0.0988  0.5229
  549SOL    HW1 1646   0.604   0.625   0.111  0.3501  3.7442 -2.0643
  549SOL    HW2 1647   0.761   0.636   0.194 -0.6251  0.9163 -1.8368
  550SOL     OW 1648   2.615   2.792   2.912 -0.1020  0.2949 -0.0358
  550SOL    HW1 1649   2.543   2.741   2.972  0.1657 -1.1988  0.6898
  550SOL    HW2 1650   2.658   2.724   2.849  0.5007 -2.0514  0.7486
  551SOL     OW 1651   0.276   0.893   0.274 -0.0267  0.8505  0.2606
  551SOL    HW1 1652   0.374   0.922   0.267 -2.1372  0.0685 -1.7981
  551SOL    HW2 1653   0.252   0.869   0.370 -0.6813  0.0319 -0.1574
  552SOL     OW 1654   0.632   2.997   1.856  0.4360  0.4123 -0.6793
  552SOL    HW1 1655   0.615   3.039   1.951 -2.3030  1.0773  2.3468
  552SOL    HW2 1656   0.730   3.007   1.822  1.1383 -0.3411 -1.0585
  553SOL     OW 1657   2.893   2.437   0.361 -0.1937 -0.1274  0.3130
  553SOL    HW1 1658   2.854   2.339   0.368 -1.0308 -4.8014 -2.4243
  553SOL    HW2 1659   2.836   2.503   0.410  1.0604  0.1754 -0.5966
  554SOL     OW 1660   2.117   0.334   0.517 -0.3522 -0.5925 -0.0699
  554SOL    HW1 1661   2.164   0.297   0.432  1.4153 -0.3593 -0.6340
  554SOL    HW2 1662   2.124   0.274   0.602  1.8843 -0.2860 -2.5343
  555SOL     OW 1663   0.370   2.785   2.515  0.4277  0.2289  0.4792
  555SOL    HW1 1664   0.286   2.850   2.504 -1.2316  2.1946  0.5498
  555SOL    HW2 1665   0.434   2.781   2.436 -1.0731  1.9421  0.8680
  556SOL     OW 1666   0.863   2.345   1.557  0.3711  0.1282  0.2959
  556SOL    HW1 1667   0.895   2.434   1.606 -0.0506  0.4298  2.7501
  556SOL    HW2 1668   0.920   2.316   1.475  0.4940  1.8524  0.8123
  557SOL     OW 1669   0.144   2.014   0.240 -0.0433  0.4007 -0.1925
  557SOL    HW1 1670   0.063   1.984   0.183 -1.6771 -2.7515 -0.2271
  557SOL    HW2 1671   0.231   2.016   0.185  1.0382  0.2681 -3.1269
  558SOL     OW 1672   2.763   2.209   0.433 -0.2189  0.1249  0.1846
  558SOL    HW1 1673   2.667   2.241   0.413 -0.9197 -0.4026  1.1917
  558SOL    HW2 1674   2.782   2.125   0.376 -0.2526 -0.6893 -2.3248
  559SOL     OW 1675   0.432   2.326   1.384 -0.3268 -0.0829 -0.6446
  559SOL    HW1 1676   0.345   2.348   1.337 -0.2447  1.2615  0.9363
  559SOL    HW2 1677   0.465   2.229   1.365 -0.6578  0.1961 -2.6811
  560SOL     OW 1678   2.115   1.125   3.085  0.1798 -0.1265 -0.0260
  560SOL    HW1 1679   2.143   1.135   3.186 -3.3087  0.4138 -1.0964
  560SOL    HW2 1680   2.189   1.152   3.016  0.2252  1.2043 -1.3117
  561SOL     OW 1681   0.008   1.856   0.012  0.4203 -0.1348 -0.3945
  561SOL    HW1 1682  -0.024   1.808   0.097  0.1827  2.5220 -0.0839
  561SOL    HW2 1683  -0.033   1.948   0.001 -1.1936 -2.4244  0.0905
  562SOL     OW 1684   1.024   2.172   2.317  0.4444  0.0729  0.0438
  562SOL    HW1 1685   1.019   2.276   2.352  0.0486  1.3689  3.2557
  562SOL    HW2 1686   0.994   2.101   2.389  0.3556  0.2881  3.9470
  563SOL     OW 1687   0.695   2.527   2.627  0.0329 -0.2950 -0.0821
  563SOL    HW1 1688   0.793   2.493   2.624  1.2621  1.7821 -1.3165
  563SOL    HW2 1689   0.685   2.588   2.708  1.2567  1.6075 -1.3603
  564SOL     OW 1690   2.863   1.391   2.920  0.3092  0.1005  0.4530
  564SOL    HW1 1691   2.770   1.413   2.959  1.6918  2.1180 -0.2005
  564SOL    HW2 1692   2.913   1.479   2.887  0.4422  1.5040 -1.0719
  565SOL     OW 1693   2.480   1.980   2.657 -0.1585 -0.8085  0.1209
  565SOL    HW1 1694   2.456   2.068   2.599 -3.6255  1.9995  0.1619
  565SOL    HW2 1695   2.563   1.995   2.722  1.9070 -2.5668  0.3210
  566SOL     OW 1696   1.991   2.868   1.473  0.2223  0.2255 -0.1623
  566SOL    HW1 1697   1.946   2.776   1.495 -0.9644 -1.7783  1.3050
  566SOL    HW2 1698   1.997   2.881   1.369  0.7418 -0.4903 -1.1177
  567SOL     OW 1699   2.431   3.085   2.342  0.5482  0.2328 -0.7360
  567SOL    HW1 1700   2.333   3.115   2.355  0.9417  1.6277 -0.5257
  567SOL    HW2 1701   2.467   3.090   2.242  1.6327  0.6506 -1.8853
  568SOL     OW 1702   1.536   1.809   0.261 -0.3165 -0.0658  0.3338
  568SOL    HW1 1703   1.459   1.879   0.249 -0.1705  0.1120  0.9853
  568SOL    HW2 1704   1.627   1.852   0.279 -0.5165 -0.4136  0.8524
  569SOL     OW 1705   0.256   0.634   0.785 -1.1335 -0.4493  0.0839
  569SOL    HW1 1706   0.318   0.554   0.766  2.4783 -1.0170  2.2106
  569SOL    HW2 1707   0.161   0.611   0.811  0.8288  0.8945 -1.3973
  570SOL     OW 1708   0.650   0.866   2.898 -0.0818  0.2604 -0.7751
  570SOL    HW1 1709   0.727   0.896   2.830  2.5268  0.0596 -2.2838
  570SOL    HW2 1710   0.656   0.921   2.985  0.5763 -0.8305 -0.9892
  571SOL     OW 1711   0.806   0.013   1.118  0.1939  0.7350  0.8379
  571SOL    HW1 1712   0.865   0.048   1.036 -0.7649 -0.1417  0.2858
  571SOL    HW2 1713   0.830  -0.089   1.139  2.5864  1.0904 -1.2555
  572SOL     OW 1714   1.616   2.662   1.377 -0.2450 -0.2456  0.0124
  572SOL    HW1 1715   1.565   2.585   1.338 -1.6033  4.2051  2.5049
  572SOL    HW2 1716   1.613   2.744   1.316 -0.4840 -0.3404 -0.4291
  573SOL     OW 1717   2.988   0.491   2.019  0.4900  0.3104  0.5838
  573SOL    HW1 1718   2.904   0.445   2.052  0.7804 -1.1471 -0.4804
  573SOL    HW2 1719   3.038   0.436   1.939  2.8107 -0.7074 -2.0661
  574SOL     OW 1720   0.163   1.765   1.123  0.1090  0.0430  0.5129
  574SOL    HW1 1721   0.223   1.798   1.202  0.2083  1.9021 -0.3289
  574SOL    HW2 1722   0.065   1.803   1.126 -0.0071 -1.4598 -0.8402
  575SOL     OW 1723   0.846   2.175   0.956 -0.0949 -0.4337 -0.3237
  575SOL    HW1 1724   0.793   2.230   1.033  1.4628  2.6949 -0.5765
  575SOL    HW2 1725   0.874   2.235   0.879  0.4662  0.1781  0.5149
  576SOL     OW 1726   2.880   2.982   1.678  0.7816  0.0425  0.3273
  576SOL    HW1 1727   2.780   2.952   1.683  2.0461  1.7926 -0.6218
  576SOL    HW2 1728   2.893   3.086   1.653 -1.0945  1.0083  1.4960
  577SOL     OW 1729   2.630   1.218   0.008  0.6164  0.9107  0.1522
  577SOL    HW1 1730   2.646   1.135  -0.052 -0.7884 -1.5084  4.2195
  577SOL    HW2 1731   2.683   1.216   0.099  1.0931 -1.7720 -1.0723
  578SOL     OW 1732   1.393   2.796   2.475  0.0947  0.8480  0.2253
  578SOL    HW1 1733   1.292   2.824   2.464 -1.2351  1.4511 -3.3047
  578SOL    HW2 1734   1.457   2.873   2.453 -0.4765 -0.1858  1.4130
  579SOL     OW 1735   0.002   2.479   0.169 -0.1317  0.2020 -0.3569
  579SOL    HW1 1736  -0.088   2.448   0.211 -1.9708  3.6170  0.6118
  579SOL    HW2 1737   0.082   2.470   0.238 -0.3588 -2.1830  0.1654
  580SOL     OW 1738   0.986   2.647   0.377 -0.0151  0.3268 -0.2364
  580SOL    HW1 1739   1.074   2.681   0.334  2.1355  2.5668  1.8889
  580SOL    HW2 1740   0.921   2.618   0.307  3.6122  0.4561  0.5401
  581SOL     OW 1741   1.241   2.648   1.439  0.4532  0.3097  0.2062
  581SOL    HW1 1742   1.311   2.577   1.468  0.6650 -0.2925 -1.2316
  581SOL    HW2 1743   1.295   2.732   1.404  3.1233 -0.0303 -0.9876
  582SOL     OW 1744   1.501   0.112   1.891 -0.2052 -0.1623  0.4315
  582SOL    HW1 1745   1.529   0.188   1.958  2.4326  1.9109 -0.4114
  582SOL    HW2 1746   1.586   0.097   1.828  1.4851 -3.2724  1.1658
  583SOL     OW 1747   2.432   3.064   0.529  0.2173 -0.1553 -0.1191
  583SOL    HW1 1748   2.524   3.012   0.533  0.6115 -0.3290 -0.7260
  583SOL    HW2 1749   2.355   2.996   0.539 -1.9672  1.1459  0.7805
  584SOL     OW 1750   1.588   1.104   2.272  0.7017  0.5601 -0.0945
  584SOL    HW1 1751   1.635   1.172   2.215 -4.8896  0.3549  0.3088
  584SOL    HW2 1752   1.634   1.015   2.292 -0.3955  0.8002  3.4265
  585SOL     OW 1753   2.099   2.664   2.887 -0.2622  0.4776  0.3346
  585SOL    HW1 1754   2.124   2.568   2.863 -0.2328 -1.4565 -0.1157
  585SOL    HW2 1755   1.996   2.673   2.892  1.7428 -0.9385 -2.0627
  586SOL     OW 1756   2.896   0.391   1.545  0.4526  0.2953 -0.2588
  586SOL    HW1 1757   2.894   0.481   1.600 -0.4262 -1.2756 -1.3451
  586SOL    HW2 1758   2.829   0.380   1.467 -1.8322  1.6275 -2.1155
  587SOL     OW 1759   2.067   1.481   2.649  0.0714 -0.4455  0.1679
  587SOL    HW1 1760   2.093   1.395   2.597 -0.7325  0.5167 -0.5154
  587SOL    HW2 1761   2.117   1.496   2.736  1.0809 -0.3140 -0.9550
  588SOL     OW 1762   0.514   2.717   2.272  0.4502  0.1504  0.4471
  588SOL    HW1 1763   0.448   2.723   2.194  2.4129 -2.3336  0.5569
  588SOL    HW2 1764   0.497   2.630   2.331 -1.3549 -3.8232  1.6388
  589SOL     OW 1765   2.198   1.282   2.482  0.2957 -0.1685  0.4055
  589SOL    HW1 1766   2.172   1.236   2.392 -0.6519  1.5108 -1.5187
  589SOL    HW2 1767   2.300   1.274   2.506 -2.3154  0.2675  0.5312
  590SOL     OW 1768   2.343   1.775   2.053  0.7466  0.0285  0.5943
  590SOL    HW1 1769   2.403   1.697   2.043 -1.9287  2.1974  0.1389
  590SOL    HW2 1770   2.329   1.805   2.149 -1.8524  2.4219 -2.1138
  591SOL     OW 1771   1.230   2.432   0.219 -0.1212 -0.0535  0.2425
  591SOL    HW1 1772   1.230   2.339   0.165  0.3031 -3.0411 -2.5864
  591SOL    HW2 1773   1.259   2.424   0.314 -1.0506 -1.9243 -1.7267
  592SOL     OW 1774   1.797   2.335   0.763  0.1237 -0.0819  0.7375
  592SOL    HW1 1775   1.811   2.413   0.700 -0.5605 -0.3892  2.6850
  592SOL    HW2 1776   1.858   2.252   0.737  0.5269 -2.8453 -1.5677
  593SOL     OW 1777   0.712   0.264   0.224  0.2459 -0.0495 -0.2852
  593SOL    HW1 1778   0.753   0.245   0.131  0.9625 -2.1409  1.7934
  593SOL    HW2 1779   0.698   0.363   0.246 -0.3994 -0.2908  3.0006
  594SOL     OW 1780   1.058   1.836   2.710  0.2708 -0.1263  0.3523
  594SOL    HW1 1781   1.142   1.795   2.662 -0.9693  1.6019  0.8711
  594SOL    HW2 1782   1.063   1.864   2.814 -0.6576  2.0902 -1.7456
  595SOL     OW 1783   1.575   0.092   0.991 -0.1384  0.5524  0.1680
  595SOL    HW1 1784   1.639   0.017   0.954  1.3222 -0.0767 -0.3706
  595SOL    HW2 1785   1.480   0.082   0.944 -0.6211 -1.6730 -1.5903
  596SOL     OW 1786   0.037   1.547   2.299  0.3386 -0.3882  0.2671
  596SOL    HW1 1787   0.100   1.459   2.301  1.1967 -0.6623 -0.3075
  596SOL    HW2 1788   0.026   1.596   2.390  0.0541  0.4640 -2.8355
  597SOL     OW 1789   1.922   2.680   1.800  0.5084 -0.1530 -0.0172
  597SOL    HW1 1790   1.913   2.650   1.701 -0.9267 -2.2258 -1.1242
  597SOL    HW2 1791   2.015   2.665   1.837  1.5362  1.2324  0.9761
  598SOL     OW 1792   2.548   2.895   1.220 -0.1329 -0.2775  0.2052
  598SOL    HW1 1793   2.633   2.914   1.280 -2.1824 -0.3059 -1.0992
  598SOL    HW2 1794   2.574   2.882   1.120  2.2964  0.5111  0.9955
  599SOL     OW 1795   2.856   0.306   2.472 -0.1998 -0.3951  0.3746
  599SOL    HW1 1796   2.898   0.250   2.398 -1.0972 -2.4561 -0.1840
  599SOL    HW2 1797   2.822   0.398   2.443 -2.0207  0.3227 -0.4787
  600SOL     OW 1798   2.828   1.182   2.752  0.0972  0.5828  0.6994
  600SOL    HW1 1799   2.728   1.167   2.749 -0.6342  3.3835  0.0694
  600SOL    HW2 1800   2.854   1.257   2.821 -2.0943  2.1784 -2.2982
  601SOL     OW 1801   3.081   1.341   2.008 -0.3802  0.3366  0.0323
  601SOL    HW1 1802   2.989   1.381   1.996  0.6779 -1.7322 -2.0519
  601SOL    HW2 1803   3.153   1.415   2.033  0.3859  2.4879  1.4675
  602SOL     OW 1804   1.449   1.617   2.310  0.5190 -0.8437  0.3989
  602SOL    HW1 1805   1.361   1.592   2.361  0.3970  1.9489 -0.1411
  602SOL    HW2 1806   1.528   1.638   2.374 -2.6774  0.8720  1.0641
  603SOL     OW 1807   0.676   1.169   2.742 -0.5764 -0.4561 -0.6335
  603SOL    HW1 1808   0.576   1.144   2.758 -0.4147 -2.2956  0.9417
  603SOL    HW2 1809   0.719   1.092   2.687 -1.3817 -3.3281 -1.1154
  604SOL     OW 1810   2.444   1.004   0.149  0.4144 -0.3568 -0.1513
  604SOL    HW1 1811   2.531   1.063   0.150  2.2470 -0.4835 -3.1055
  604SOL    HW2 1812   2.449   0.923   0.085 -1.5183 -0.0577  0.2285
  605SOL     OW 1813   2.496   1.189   1.980  0.0709 -0.1325 -0.1699
  605SOL    HW1 1814   2.556   1.107   1.951  2.2967  1.3253 -0.5141
  605SOL    HW2 1815   2.546   1.256   2.040 -1.2392 -1.8818 -0.9184
  606SOL     OW 1816   1.491   2.550   2.558 -0.2724  0.0301  0.2983
  606SOL    HW1 1817   1.439   2.632   2.512  0.0127 -1.4377 -2.3419
  606SOL    HW2 1818   1.464   2.458   2.519  0.3779 -0.3566 -0.4223
  607SOL     OW 1819   1.365   1.595   0.307 -0.0533  0.5209 -0.2303
  607SOL    HW1 1820   1.282   1.645   0.328 -0.3309  0.0202 -0.9556
  607SOL    HW2 1821   1.448   1.658   0.295  1.6616  2.8713 -0.1122
  608SOL     OW 1822   1.443   2.843   0.400 -0.1870  0.5031 -0.2011
  608SOL    HW1 1823   1.494   2.874   0.313  1.3851  1.2846 -0.8084
  608SOL    HW2 1824   1.359   2.901   0.417 -0.6871 -0.4889  1.2805
  609SOL     OW 1825   1.307   1.344   0.192  0.6663 -0.0450 -0.2548
  609SOL    HW1 1826   1.313   1.443   0.221 -0.0131 -1.9697  0.4024
  609SOL    HW2 1827   1.266   1.334   0.102 -1.1016 -0.4548  0.1426
  610SOL     OW 1828   3.013   1.188   2.257  0.0282  0.0269  0.5499
  610SOL    HW1 1829   3.012   1.090   2.225 -0.4652 -0.9899 -0.0063
  610SOL    HW2 1830   2.992   1.255   2.182  1.3409  0.6872  1.6056
  611SOL     OW 1831   2.513   0.271   1.174 -0.5051  0.1373 -0.0935
  611SOL    HW1 1832   2.447   0.191   1.191 -0.3726  1.4430 -0.1164
  611SOL    HW2 1833   2.601   0.260   1.227 -1.8480 -4.1671 -3.0045
  612SOL     OW 1834   0.742   2.301   1.186  0.2448  0.0217 -0.0582
  612SOL    HW1 1835   0.667   2.239   1.220 -1.6651  0.8257 -0.1372
  612SOL    HW2 1836   0.706   2.399   1.183  0.3348 -2.9316  1.2304
  613SOL     OW 1837   0.866   1.385   2.380 -0.0205  0.2794 -0.2139
  613SOL    HW1 1838   0.840   1.440   2.299 -0.5341  0.1697 -0.5705
  613SOL    HW2 1839   0.833   1.290   2.370 -2.2580  1.0919 -1.7688
  614SOL     OW 1840   1.551   1.651   1.833 -0.4137 -0.5463 -0.3429
  614SOL    HW1 1841   1.546   1.754   1.823  0.1039  0.4547 -1.7148
  614SOL    HW2 1842   1.652   1.629   1.846  0.2512  0.0582 -0.1254
  615SOL     OW 1843   0.750   1.380   1.717  0.1499  0.4616 -0.2112
  615SOL    HW1 1844   0.680   1.349   1.644  1.8798  0.4407  1.4770
  615SOL    HW2 1845   0.803   1.464   1.686  1.3350  1.8934  0.4050
  616SOL     OW 1846   1.107   1.559   2.169 -0.3956 -0.2818 -0.4530
  616SOL    HW1 1847   1.007   1.539   2.163  0.6498  0.0981  1.9591
  616SOL    HW2 1848   1.153   1.589   2.081 -0.7930 -0.2379 -0.2672
  617SOL     OW 1849   2.976   1.518   1.619  0.7006 -0.6660 -0.3176
  617SOL    HW1 1850   2.996   1.435   1.680 -1.3182 -1.1115  1.1564
  617SOL    HW2 1851   3.007   1.510   1.521 -1.3211 -0.0223  0.7041
  618SOL     OW 1852   1.930   1.944   1.437 -0.1144 -0.3163  0.0445
  618SOL    HW1 1853   2.020   1.953   1.384  1.1450 -1.0203 -1.3572
  618SOL    HW2 1854   1.922   1.851   1.485 -0.3402 -2.0552  1.0682
  619SOL     OW 1855   1.679   0.463   2.366 -0.4053  0.1581 -0.0915
  619SOL    HW1 1856   1.610   0.521   2.316  0.8693 -3.6505  2.1245
  619SOL    HW2 1857   1.675   0.361   2.352  0.0317  0.3286 -0.3515
  620SOL     OW 1858   2.183   2.931   0.590  0.1504  0.2766 -0.5327
  620SOL    HW1 1859   2.101   2.997   0.613 -0.4242 -0.1715  1.2329
  620SOL    HW2 1860   2.221   2.888   0.675 -1.8024 -2.4579 -0.8677
  621SOL     OW 1861   2.212   1.888   1.317  0.6697 -0.1370  0.8409
  621SOL    HW1 1862   2.209   1.899   1.420 -2.2798  1.8620  0.2022
  621SOL    HW2 1863   2.188   1.792   1.291  2.8120  2.7413  1.6829
  622SOL     OW 1864   2.169   0.854   1.744  0.4946  0.2619  0.8957
  622SOL    HW1 1865   2.262   0.816   1.728 -0.6131  2.5784 -1.0794
  622SOL    HW2 1866   2.113   0.803   1.815 -1.6689  0.7266  0.2290
  623SOL     OW 1867   1.353   0.768   2.604 -0.0972  0.3609 -0.5470
  623SOL    HW1 1868   1.294   0.691   2.653 -2.5664  0.1591 -0.2730
  623SOL    HW2 1869   1.288   0.829   2.549 -1.4251 -0.3365  0.6089
  624SOL     OW 1870   0.498   0.722   3.086  0.2439  0.1152 -0.6250
  624SOL    HW1 1871   0.554   0.767   3.017 -1.8737 -0.4243 -0.8310
  624SOL    HW2 1872   0.487   0.776   3.174  0.6880  0.4442  3.4093
  625SOL     OW 1873   2.791   1.734   0.899 -0.3350 -0.4703  0.0126
  625SOL    HW1 1874   2.706   1.773   0.946 -0.6986 -0.6916  0.6299
  625SOL    HW2 1875   2.800   1.631   0.911  0.5236 -2.1493 -1.8520
  626SOL     OW 1876   0.537   2.739   1.850 -0.0658 -0.0244  0.2408
  626SOL    HW1 1877   0.570   2.837   1.861 -0.3922  0.5627 -0.9783
  626SOL    HW2 1878   0.437   2.728   1.830  0.7225 -0.6944  2.1192
  627SOL     OW 1879   0.700   1.022   1.519  0.5513  0.5490 -0.0175
  627SOL    HW1 1880   0.706   0.921   1.534 -2.5526 -0.1022  3.6834
  627SOL    HW2 1881   0.785   1.067   1.474  1.7013 -0.1323  1.4142
  628SOL     OW 1882   2.418   0.211   0.696  0.3084  0.0763  0.2844
  628SOL    HW1 1883   2.440   0.126   0.644 -2.6473  2.3201  0.4380
  628SOL    HW2 1884   2.317   0.232   0.694 -1.3697  0.6441 -0.7538
  629SOL     OW 1885   1.973   0.910   1.976  0.2290  0.3551 -0.5576
  629SOL    HW1 1886   2.049   0.934   2.044  1.9832 -1.4258  0.6719
  629SOL    HW2 1887   1.924   0.990   1.938 -3.4211 -2.7812  1.9848
  630SOL     OW 1888   2.775   2.158   0.782 -0.9673  0.0622 -0.0829
  630SOL    HW1 1889   2.706   2.217   0.827  1.8276 -2.2647 -0.9848
  630SOL    HW2 1890   2.742   2.073   0.734 -1.6236 -0.1211  0.8844
  631SOL     OW 1891   2.988   0.174   2.107 -0.0398  1.2186  0.0297
  631SOL    HW1 1892   3.038   0.211   2.190  1.8169 -0.4837 -1.6640
  631SOL    HW2 1893   3.049   0.182   2.018  3.1234  1.5608 -0.1194
  632SOL     OW 1894   2.375   2.513   0.644 -0.4985 -0.6397  0.2644
  632SOL    HW1 1895   2.425   2.599   0.672  1.1857  0.1415  2.4205
  632SOL    HW2 1896   2.333   2.513   0.550 -0.8293 -2.1997  1.5901
  633SOL     OW 1897   1.584   1.273   2.552  0.2658  0.0313  0.5298
  633SOL    HW1 1898   1.582   1.357   2.614 -1.2751  0.2055  1.6854
  633SOL    HW2 1899   1.500   1.266   2.490  1.1137 -0.4755 -2.9316
  634SOL     OW 1900   0.630   1.999   0.973  0.2389  0.5899  0.3248
  634SOL    HW1 1901   0.542   2.057   0.972 -2.8010  0.7415  0.4974
  634SOL    HW2 1902   0.715   2.058   0.968 -0.3613  0.5644  0.7027
  635SOL     OW 1903   0.035   2.312   3.059  0.7279  0.0329 -0.0287
  635SOL    HW1 1904   0.012   2.357   2.965 -1.1551 -1.3312 -1.2196
  635SOL    HW2 1905   0.001   2.370   3.138  2.0227 -2.5494  1.0216
  636SOL     OW 1906   2.291   2.796   2.015  0.0863  0.1414 -0.7496
  636SOL    HW1 1907   2.296   2.906   2.016 -1.7744  0.4237 -1.2410
  636SOL    HW2 1908   2.226   2.757   2.088 -0.2434 -0.1867  0.7492
  637SOL     OW 1909   2.545   0.694   2.034 -0.4125  0.0678 -0.1855
  637SOL    HW1 1910   2.500   0.674   1.941  1.1165  0.1102 -0.6022
  637SOL    HW2 1911   2.607   0.779   2.037 -0.9955  0.3197 -0.7303
  638SOL     OW 1912   2.484   1.870   1.320  0.1388  0.1160  0.1655
  638SOL    HW1 1913   2.382   1.875   1.298  2.1291  1.4011  0.1798
  638SOL    HW2 1914   2.514   1.783   1.357  0.2394  3.0629 -1.2205
  639SOL     OW 1915   1.267   2.209   1.616  0.6725 -0.2704 -0.8751
  639SOL    HW1 1916   1.306   2.151   1.542 -0.4948 -0.0438 -0.4699
  639SOL    HW2 1917   1.182   2.174   1.654  1.9829 -1.8712  0.2142
  640SOL     OW 1918   0.184   1.191   1.571 -0.0774  0.2513  0.3420
  640SOL    HW1 1919   0.178   1.268   1.644 -0.9453 -0.2286 -0.1991
  640SOL    HW2 1920   0.255   1.122   1.600 -1.5621 -1.3045 -0.8741
  641SOL     OW 1921   1.985   0.110   1.478 -0.8823  0.6427 -1.0424
  641SOL    HW1 1922   1.976   0.156   1.568  0.1973  0.3808  0.7235
  641SOL    HW2 1923   1.970   0.009   1.489  1.4069  1.6199 -2.3301
  642SOL     OW 1924   1.953   0.136   0.326  0.2613  0.0961  0.1830
  642SOL    HW1 1925   2.036   0.111   0.381 -0.1559 -0.9847 -1.4383
  642SOL    HW2 1926   1.870   0.127   0.379  1.9637 -0.5781 -1.6738
  643SOL     OW 1927   2.866   1.889   2.060 -0.0554 -0.6238  0.1036
  643SOL    HW1 1928   2.788   1.827   2.031  2.0418  1.2001 -2.1881
  643SOL    HW2 1929   2.851   1.986   2.029 -1.0348 -2.4664  1.0565
  644SOL     OW 1930   2.175   2.323   1.192  0.0974 -0.1343  0.2079
  644SOL    HW1 1931   2.268   2.288   1.168  0.1861 -0.4461 -3.2591
  644SOL    HW2 1932   2.160   2.321   1.294 -1.0477 -0.3605  0.0889
  645SOL     OW 1933   0.605   0.779   1.161 -0.4873 -0.1599  0.0370
  645SOL    HW1 1934   0.533   0.728   1.110  2.5736  0.8600 -2.6729
  645SOL    HW2 1935   0.650   0.848   1.099 -3.1966 -0.0757  0.5150
  646SOL     OW 1936   1.518   1.943   1.803 -0.1935  0.0099 -0.0739
  646SOL    HW1 1937   1.605   2.002   1.800  0.2527  0.8069  0.3808
  646SOL    HW2 1938   1.456   1.970   1.877  0.6025 -0.6643 -0.5644
  647SOL     OW 1939   0.868   0.964   0.683  0.6169 -0.0039 -0.2683
  647SOL    HW1 1940   0.960   0.965   0.731  1.4721 -2.3275 -0.5439
  647SOL    HW2 1941   0.794   0.898   0.716  0.4084  0.8828 -0.1357
  648SOL     OW 1942   0.149   0.168   0.290  0.5120  0.4664  0.2449
  648SOL    HW1 1943   0.190   0.100   0.217 -0.3278 -3.7644 -3.6208
  648SOL    HW2 1944   0.147   0.265   0.251  0.5940  0.0522 -1.1489
  649SOL     OW 1945   3.081   0.157   0.932  0.1274 -0.1728 -0.0435
  649SOL    HW1 1946   3.184   0.150   0.935  0.9251 -1.7756 -0.2199
  649SOL    HW2 1947   3.051   0.212   1.014  2.1105 -1.9435  1.8831
  650SOL     OW 1948   2.703   0.713   1.392 -0.1397  0.1725 -0.0527
  650SOL    HW1 1949   2.615   0.681   1.440  2.9137 -4.5182 -0.9049
  650SOL    HW2 1950   2.689   0.804   1.335 -0.4943  2.6649  0.1209
  651SOL     OW 1951   0.889   1.594   1.625 -0.2592 -0.2689 -0.0316
  651SOL    HW1 1952   0.973   1.640   1.660 -0.5026 -1.0679  1.0011
  651SOL    HW2 1953   0.888   1.613   1.521 -0.2721  2.4789 -1.8537
  652SOL     OW 1954   2.237   2.479   2.433 -0.7695  0.1051 -0.2721
  652SOL    HW1 1955   2.177   2.481   2.519  2.2471  2.2674 -1.2852
  652SOL    HW2 1956   2.207   2.547   2.364  1.3693  0.5700 -1.6589
  653SOL     OW 1957   2.724   1.163   0.265 -0.2577 -0.1034  0.5516
  653SOL    HW1 1958   2.776   1.250   0.288 -1.4230  2.4038  0.3771
  653SOL    HW2 1959   2.778   1.075   0.293 -0.7943 -1.7446  0.2690
  654SOL     OW 1960   1.274   2.276   1.254  0.3471 -0.1391 -0.3645
  654SOL    HW1 1961   1.290   2.198   1.325  1.4300 -1.2230  2.0615
  654SOL    HW2 1962   1.326   2.251   1.165 -0.9137 -2.5364 -0.2552
  655SOL     OW 1963   0.211   1.014   1.840  0.0481 -0.2103  0.1452
  655SOL    HW1 1964   0.247   0.918   1.820 -1.0312 -0.5178 -1.9733
  655SOL    HW2 1965   0.290   1.084   1.857 -1.5107  3.2811 -0.2768
  656SOL     OW 1966   2.515   2.477   2.601 -0.3295  0.0513  0.2035
  656SOL    HW1 1967   2.601   2.463   2.539 -2.4652  0.7731  0.2433
  656SOL    HW2 1968   2.444   2.523   2.547  1.2256  1.9190  2.1667
  657SOL     OW 1969   3.043   1.096   1.898 -0.1266  0.0052 -0.3595
  657SOL    HW1 1970   3.047   1.186   1.954 -0.6061 -1.2293  1.8978
  657SOL    HW2 1971   3.140   1.069   1.871 -1.1079  1.6841 -0.1134
  658SOL     OW 1972   1.632   0.165   2.379  0.1798 -0.1530  0.1876
  658SOL    HW1 1973   1.660   0.108   2.463 -1.5794 -0.1695  0.9681
  658SOL    HW2 1974   1.690   0.153   2.287 -0.8488 -0.0942 -1.4820
  659SOL     OW 1975   1.389   0.616   2.903 -0.4795 -0.4061 -0.2994
  659SOL    HW1 1976   1.453   0.698   2.921  0.9695 -2.6486 -1.2369
  659SOL    HW2 1977   1.309   0.655   2.849 -0.7545  1.4232  1.7441
  660SOL     OW 1978   1.469   0.351   1.399 -0.0567 -0.1217 -0.1009
  660SOL    HW1 1979   1.510   0.354   1.494 -1.1483  0.1608  2.0125
  660SOL    HW2 1980   1.527   0.288   1.340 -0.1099  2.9421  1.4670
  661SOL     OW 1981   2.518   1.182   0.664 -0.8566  0.0633  0.3507
  661SOL    HW1 1982   2.518   1.138   0.571  0.9435  1.1880  0.9666
  661SOL    HW2 1983   2.460   1.273   0.667 -0.6895  0.2119 -0.5107
  662SOL     OW 1984   1.319   0.412   1.827 -0.2110  0.2567  0.2695
  662SOL    HW1 1985   1.285   0.314   1.805 -0.0700  0.9345 -0.1828
  662SOL    HW2 1986   1.283   0.453   1.918  1.8345 -1.2614  0.9734
  663SOL     OW 1987   0.838   1.585   2.187  0.5701  0.6174  0.4306
  663SOL    HW1 1988   0.799   1.673   2.225 -0.5292  0.6694  0.8454
  663SOL    HW2 1989   0.783   1.547   2.101 -0.5158  2.9142 -1.1905
  664SOL     OW 1990   1.664   2.023   1.381 -0.1935 -0.1082 -0.5390
  664SOL    HW1 1991   1.611   1.943   1.419  2.4790 -1.1732 -0.4832
  664SOL    HW2 1992   1.767   2.015   1.406  0.7028  0.6874 -1.2309
  665SOL     OW 1993   2.192   0.685   1.984  0.4935 -0.2490 -0.8141
  665SOL    HW1 1994   2.188   0.597   2.037 -3.2642 -0.8870 -0.7208
  665SOL    HW2 1995   2.164   0.764   2.040  0.6771  0.2829 -0.3971
  666SOL     OW 1996   0.477   2.320   0.478  0.5342 -0.9146  0.0398
  666SOL    HW1 1997   0.551   2.395   0.483  1.0942  1.1203 -0.9136
  666SOL    HW2 1998   0.439   2.313   0.569 -0.6954  2.5461 -1.7377
  667SOL     OW 1999   1.975   0.200   1.021  0.6327  0.0118 -0.2292
  667SOL    HW1 2000   1.991   0.302   1.048 -0.1399  1.2758  2.0504
  667SOL    HW2 2001   1.934   0.150   1.103  2.6172  0.6939  2.0529
  668SOL     OW 2002   1.991   0.550   1.187 -0.1277  0.1940 -0.6349
  668SOL    HW1 2003   2.067   0.537   1.114  0.4159  3.0814 -0.7730
  668SOL    HW2 2004   2.029   0.535   1.280 -0.9591 -0.5927  0.5924
  669SOL     OW 2005   3.011   2.148   0.892 -0.6095 -0.4100 -0.2952
  669SOL    HW1 2006   2.947   2.149   0.813 -0.5104 -1.4459  1.0555
  669SOL    HW2 2007   2.974   2.167   0.987 -1.2258 -0.8562 -0.2089
  670SOL     OW 2008   2.857   2.349   2.012 -0.4043  0.8214 -0.0606
  670SOL    HW1 2009   2.790   2.327   2.087  2.6748  0.2484  0.2149
  670SOL    HW2 2010   2.849   2.451   1.978 -0.8401  3.3180  2.1907
  671SOL     OW 2011   1.753   1.728   1.452  0.2211 -0.6414  0.5469
  671SOL    HW1 2012   1.786   1.782   1.366  0.0903 -1.2380 -0.0202
  671SOL    HW2 2013   1.680   1.658   1.431  2.0082  1.7846 -1.1697
  672SOL     OW 2014   0.460   0.618   2.459 -0.1140  0.1876  0.0822
  672SOL    HW1 2015   0.485   0.641   2.359 -0.9893  0.4443 -1.4761
  672SOL    HW2 2016   0.369   0.663   2.492 -2.3508  1.8299 -0.0482
  673SOL     OW 2017   0.147   1.197   1.159  0.1156  0.1095  0.2823
  673SOL    HW1 2018   0.165   1.285   1.216  1.8009 -0.6667  2.4062
  673SOL    HW2 2019   0.237   1.153   1.125 -1.8640  0.5241 -0.6039
  674SOL     OW 2020   1.546   2.898   0.145 -0.1823 -0.0561  0.3973
  674SOL    HW1 2021   1.591   2.984   0.124 -1.6432 -2.0810 -1.9732
  674SOL    HW2 2022   1.573   2.826   0.075 -0.4936  1.5726 -0.6895
  675SOL     OW 2023   1.662   0.853   2.300 -0.0382  0.4211  0.8871
  675SOL    HW1 2024   1.752   0.838   2.247  1.9996 -2.6890 -1.7007
  675SOL    HW2 2025   1.594   0.777   2.290  0.2126 -2.0848 -0.3482
  676SOL     OW 2026   2.498   1.542   1.994 -0.0859 -0.2186 -0.2981
  676SOL    HW1 2027   2.454   1.483   1.924  0.1680  1.0103  1.6580
  676SOL    HW2 2028   2.548   1.481   2.060  1.4827 -1.9766  0.3961
  677SOL     OW 2029   1.823   0.612   0.974 -0.0806 -0.3771  0.6875
  677SOL    HW1 2030   1.883   0.624   1.055 -1.1165  0.1682  0.9005
  677SOL    HW2 2031   1.818   0.514   0.945 -2.1293  0.1719 -0.0046
  678SOL     OW 2032   0.050   0.751   1.666  0.1403 -0.0890  0.0725
  678SOL    HW1 2033   0.145   0.758   1.700 -0.3118 -1.6312 -0.1744
  678SOL    HW2 2034  -0.014   0.786   1.739  1.3481  0.4803  1.4231
  679SOL     OW 2035   2.516   1.173   1.098 -0.7292  0.3315 -0.4466
  679SOL    HW1 2036   2.448   1.210   1.163 -1.3852  0.2109 -3.0379
  679SOL    HW2 2037   2.498   1.075   1.069 -0.1046  1.4729  1.2153
  680SOL     OW 2038   2.819   0.655   1.641  0.2439 -0.3243  0.3180
  680SOL    HW1 2039   2.779   0.690   1.551 -0.7033  1.9487  0.0226
  680SOL    HW2 2040   2.855   0.728   1.703 -0.6553  1.3216 -0.0413
  681SOL     OW 2041   2.991   0.131   1.607  0.1109  0.7433  0.0145
  681SOL    HW1 2042   3.072   0.104   1.547 -0.6425 -0.1829 -0.6982
  681SOL    HW2 2043   2.952   0.223   1.584  1.1238 -1.5876 -0.5062
  682SOL     OW 2044   0.793   0.036   1.398 -0.2444 -0.2102 -0.1037
  682SOL    HW1 2045   0.711  -0.023   1.433 -0.5449 -1.8178 -1.1218
  682SOL    HW2 2046   0.785   0.047   1.296  2.7045 -2.1988 -0.4654
  683SOL     OW 2047   1.376   0.260   2.190  0.7471  0.0118 -0.1622
  683SOL    HW1 2048   1.346   0.348   2.233 -0.8033 -0.2291 -0.8825
  683SOL    HW2 2049   1.472   0.266   2.150 -0.9103 -3.0957 -0.9786
  684SOL     OW 2050   1.448   2.125   0.500  0.1015 -0.4971  0.2129
  684SOL    HW1 2051   1.503   2.054   0.557  0.0000 -0.7378  0.9809
  684SOL    HW2 2052   1.364   2.080   0.456 -0.2047 -0.0405  0.0730
  685SOL     OW 2053   2.193   1.988   1.933  0.4229 -0.4852 -0.3221
  685SOL    HW1 2054   2.259   2.047   1.874  0.4365 -0.2378 -1.5610
  685SOL    HW2 2055   2.236   1.920   1.997 -1.8603 -2.2890  3.2960
  686SOL     OW 2056   1.533   1.731   2.670 -0.0087  0.4076  0.1241
  686SOL    HW1 2057   1.512   1.631   2.696  0.6863 -0.1966  0.4970
  686SOL    HW2 2058   1.631   1.764   2.693  0.7805 -2.7430  1.9510
  687SOL     OW 2059   1.318   2.520   1.895 -0.0081  0.4196  0.0284
  687SOL    HW1 2060   1.350   2.422   1.873  0.7444 -0.8468 -0.8783
  687SOL    HW2 2061   1.392   2.567   1.944  1.1132 -4.6805 -0.0648
  688SOL     OW 2062   2.072   1.445   1.648 -0.0202 -0.0282 -0.8703
  688SOL    HW1 2063   2.146   1.492   1.592  0.1793  1.0474 -1.6493
  688SOL    HW2 2064   2.006   1.404   1.584 -0.6953  4.3373 -0.6618
  689SOL     OW 2065   2.472   1.115   2.758  0.6008  0.0886 -0.2280
  689SOL    HW1 2066   2.370   1.112   2.783 -2.0353 -0.2211  2.4521
  689SOL    HW2 2067   2.532   1.067   2.832 -2.1027 -0.0341  1.2714
  690SOL     OW 2068   2.201   2.783   0.062 -0.3495  0.5468 -0.8219
  690SOL    HW1 2069   2.124   2.771  -0.009  1.1407  1.2996 -1.9386
  690SOL    HW2 2070   2.155   2.825   0.150 -1.9680  2.2214 -0.3742
  691SOL     OW 2071   2.611   0.417   2.125 -0.1080  0.2433 -0.2795
  691SOL    HW1 2072   2.683   0.356   2.081 -1.0947 -0.7658  0.9287
  691SOL    HW2 2073   2.579   0.494   2.065  3.3820  2.4900 -0.8588
  692SOL     OW 2074   2.788   1.206   0.714  0.4823  0.0588  0.0955
  692SOL    HW1 2075   2.683   1.211   0.703 -1.4303  0.8313 -1.0172
  692SOL    HW2 2076   2.821   1.283   0.774 -0.0805  0.0463 -0.8974
  693SOL     OW 2077   2.874   3.010   0.646 -0.1459 -0.4431 -1.0108
  693SOL    HW1 2078   2.854   3.094   0.697 -0.2764  0.5288 -1.5455
  693SOL    HW2 2079   2.795   2.994   0.580 -1.1487 -0.0853 -1.3487
  694SOL     OW 2080   2.408   2.228   0.050 -0.1709 -0.1279  0.3387
  694SOL    HW1 2081   2.383   2.320   0.077  1.1422 -2.9767 -1.5128
  694SOL    HW2 2082   2.323   2.176   0.027 -1.4465  0.3956 -1.4766
  695SOL     OW 2083   0.569   3.010   1.485 -0.6195  0.2172 -0.3451
  695SOL    HW1 2084   0.561   2.912   1.446 -1.1316 -0.3611 -0.6656
  695SOL    HW2 2085   0.498   3.021   1.565 -1.3076 -1.0134  2.4715
  696SOL     OW 2086   2.682   1.917   0.707  0.0969 -0.2380 -0.1489
  696SOL    HW1 2087   2.722   1.834   0.757  0.2824  3.5194  0.5890
  696SOL    HW2 2088   2.699   1.907   0.605  0.9814 -3.0791  0.1806
  697SOL     OW 2089   1.752   2.082   1.792  0.1273  0.5880 -0.9133
  697SOL    HW1 2090   1.819   2.000   1.788  1.9685 -0.4507  1.8628
  697SOL    HW2 2091   1.791   2.176   1.805  0.1439  1.7081 -0.0651
  698SOL     OW 2092   2.879   0.403   2.738 -0.0646  0.8754  0.2753
  698SOL    HW1 2093   2.875   0.336   2.656 -1.6383 -2.6214 -1.9759
  698SOL    HW2 2094   2.945   0.370   2.810 -2.7681  0.4834  0.5568
  699SOL     OW 2095   1.537   0.081   2.944  0.6317  0.2337  0.2711
  699SOL    HW1 2096   1.484   0.000   2.900  1.5106 -2.5645  0.5273
  699SOL    HW2 2097   1.599   0.143   2.882  3.9556 -1.3117  0.9630
  700SOL     OW 2098   0.975   2.340   1.314  0.3117  0.5341  0.0786
  700SOL    HW1 2099   1.070   2.307   1.287  1.7515 -0.5635  0.8830
  700SOL    HW2 2100   0.897   2.330   1.238 -0.5966  0.2259 -0.4006
  701SOL     OW 2101   1.901   2.810   0.026 -0.2474 -0.0114 -0.0643
  701SOL    HW1 2102   1.880   2.746   0.108  0.2273 -2.8579  0.2109
  701SOL    HW2 2103   1.914   2.910   0.043  0.5422 -0.5165  1.4662
  702SOL     OW 2104   2.103   1.342   1.926  0.1431  0.3552  0.2950
  702SOL    HW1 2105   2.165   1.261   1.920  0.9484 -1.2747 -0.2780
  702SOL    HW2 2106   2.092   1.382   1.830  1.2380  0.3968  1.5814
  703SOL     OW 2107   1.920   0.817   1.410  0.4272  0.2651 -0.1475
  703SOL    HW1 2108   1.922   0.730   1.470  0.0182  0.2751  0.5251
  703SOL    HW2 2109   1.984   0.886   1.442  0.4531 -0.4757 -1.7920
  704SOL     OW 2110   0.306   2.057   1.661  0.2635 -0.7426  0.1135
  704SOL    HW1 2111   0.325   1.991   1.740  2.2417 -1.2191  0.6544
  704SOL    HW2 2112   0.369   2.134   1.666 -1.3915 -3.6582  1.4667
  705SOL     OW 2113   2.540   1.395   0.915  0.4177  0.2304 -0.4851
  705SOL    HW1 2114   2.452   1.391   0.860 -0.9129  1.3656 -0.5102
  705SOL    HW2 2115   2.570   1.297   0.942 -1.1401 -1.6151  1.8652
  706SOL     OW 2116   0.638   1.773   1.842  0.3809 -0.4084  0.4729
  706SOL    HW1 2117   0.652   1.683   1.884 -2.2392  0.3655 -0.0081
  706SOL    HW2 2118   0.703   1.846   1.877 -0.0842  2.3153  0.2772
  707SOL     OW 2119   2.270   1.124   1.845 -0.1904  0.2103 -0.5072
  707SOL    HW1 2120   2.359   1.141   1.904  2.0805  2.3604 -0.4726
  707SOL    HW2 2121   2.261   1.025   1.829  0.0011  1.0823 -0.0806
  708SOL     OW 2122   3.047   0.460   3.056  0.2691 -0.2107 -0.7998
  708SOL    HW1 2123   3.074   0.524   2.975  0.0499  1.2480 -2.4352
  708SOL    HW2 2124   3.022   0.360   3.037  1.1841  0.3151  2.5290
  709SOL     OW 2125   1.816   1.814   0.282  0.3875 -0.4782  0.2734
  709SOL    HW1 2126   1.841   1.915   0.300 -3.0761  2.1288 -1.1533
  709SOL    HW2 2127   1.822   1.793   0.185  0.9132  1.0840  2.3569
  710SOL     OW 2128   1.693   1.567   2.430 -0.2369 -0.0480  0.2590
  710SOL    HW1 2129   1.773   1.582   2.364  3.4996 -1.6451 -3.2341
  710SOL    HW2 2130   1.720   1.519   2.519 -0.6456  0.7177  3.5147
  711SOL     OW 2131   2.638   2.904   0.961  0.2601  0.1227 -0.0371
  711SOL    HW1 2132   2.579   2.980   0.922 -3.0099 -1.7752 -2.9037
  711SOL    HW2 2133   2.736   2.927   0.954 -0.3961 -1.0562 -5.2396
  712SOL     OW 2134   1.494   2.318   1.782  0.2552  0.4671 -0.5621
  712SOL    HW1 2135   1.572   2.251   1.797 -2.7104 -0.6697 -1.9550
  712SOL    HW2 2136   1.415   2.276   1.731 -0.2715 -0.0789 -0.3842
  713SOL     OW 2137   2.785   1.497   2.486  0.2914 -0.2249 -0.3983
  713SOL    HW1 2138   2.805   1.393   2.483  0.1613 -1.0641 -1.6713
  713SOL    HW2 2139   2.685   1.527   2.503  1.2649 -1.7355  0.0483
  714SOL     OW 2140   2.650   0.471   2.406 -0.5339  0.4833  0.5518
  714SOL    HW1 2141   2.600   0.401   2.468 -2.3352 -0.6073  0.5207
  714SOL    HW2 2142   2.626   0.461   2.303 -1.3559 -1.0925 -0.7915
  715SOL     OW 2143   1.562   2.075   1.123  0.1342  0.4180 -0.5136
  715SOL    HW1 2144   1.494   2.153   1.104 -1.7571  0.7122 -0.0313
  715SOL    HW2 2145   1.604   2.084   1.219  0.3284  1.7845  4.0063
  716SOL     OW 2146   1.211   0.231   1.525 -0.0818 -0.0898  0.1893
  716SOL    HW1 2147   1.119   0.225   1.473 -0.1621 -0.5746 -1.7499
  716SOL    HW2 2148   1.286   0.276   1.470 -0.5394  0.4256  0.2247
  717SOL     OW 2149   1.083   0.596   1.615  0.0661 -0.7940  0.1774
  717SOL    HW1 2150   1.180   0.596   1.649 -1.9699 -1.0969  0.5836
  717SOL    HW2 2151   1.073   0.575   1.513 -3.5371 -1.0625  1.4744
  718SOL     OW 2152   0.712   0.988   1.014 -0.4034  0.5317 -0.2556
  718SOL    HW1 2153   0.652   0.975   0.930 -1.3823 -0.3164  1.7410
  718SOL    HW2 2154   0.765   1.079   1.015  0.2433 -0.9082  2.2261
  719SOL     OW 2155   0.768   1.834   2.268  0.4158 -0.0499  0.2266
  719SOL    HW1 2156   0.835   1.865   2.340  0.5451  2.9310 -0.9376
  719SOL    HW2 2157   0.673   1.849   2.290  2.0710 -1.0459 -4.5367
  720SOL     OW 2158   2.205   1.111   0.256  0.1041 -0.0824  0.5347
  720SOL    HW1 2159   2.284   1.058   0.218  0.2043  3.5840  2.5190
  720SOL    HW2 2160   2.170   1.075   0.346 -1.5789 -0.4691 -1.5029
  721SOL     OW 2161   2.323   0.011   2.072  0.4912 -0.1090 -0.2497
  721SOL    HW1 2162   2.350   0.077   1.996 -0.1842  1.5395  1.7318
  721SOL    HW2 2163   2.221   0.015   2.085  0.4599  2.6626  1.9105
  722SOL     OW 2164   2.390   1.624   0.589 -0.4341  0.2666  0.5881
  722SOL    HW1 2165   2.374   1.574   0.499 -1.7476 -1.3907  0.3799
  722SOL    HW2 2166   2.301   1.659   0.626  0.9459 -1.6941  0.0024
  723SOL     OW 2167   2.567   2.770   1.951  0.2097  0.2438 -0.0814
  723SOL    HW1 2168   2.604   2.798   2.042  1.7618  1.9606  0.7503
  723SOL    HW2 2169   2.463   2.761   1.948  1.4021  2.6420  2.6430
  724SOL     OW 2170   0.507   2.465   2.442 -0.5790 -0.2446  0.0708
  724SOL    HW1 2171   0.417   2.446   2.494  1.8237  0.7339  0.1818
  724SOL    HW2 2172   0.591   2.479   2.508 -1.3511 -1.2889 -0.5580
  725SOL     OW 2173   2.481   2.749   1.519  0.0659 -0.2858 -0.9790
  725SOL    HW1 2174   2.462   2.738   1.417 -0.8410 -2.2675  0.5990
  725SOL    HW2 2175   2.442   2.664   1.564 -2.5339 -0.6139 -1.5962
  726SOL     OW 2176   2.356   2.232   0.676  0.5247 -0.1121  0.1286
  726SOL    HW1 2177   2.360   2.330   0.647 -1.5506  2.5070 -2.1597
  726SOL    HW2 2178   2.360   2.166   0.596 -1.2907  0.5578  2.3420
  727SOL     OW 2179   0.236   3.094   0.100  0.5155 -0.5174  0.0208
  727SOL    HW1 2180   0.323   3.045   0.072 -0.1176 -1.6253  1.9530
  727SOL    HW2 2181   0.160   3.079   0.029 -0.7955  1.2547 -1.9124
  728SOL     OW 2182   2.832   0.675   0.999 -0.3246  0.4330  0.3671
  728SOL    HW1 2183   2.803   0.664   0.899  0.3583  1.7469  0.0283
  728SOL    HW2 2184   2.793   0.608   1.074 -1.0008 -0.6022  4.6031
  729SOL     OW 2185   2.894   2.443   0.686  0.0052 -0.2110  0.1319
  729SOL    HW1 2186   2.875   2.344   0.687  1.8637  2.0514 -4.6465
  729SOL    HW2 2187   2.992   2.472   0.712 -0.9259  3.7688 -0.0795
  730SOL     OW 2188   2.564   0.585   0.802 -0.3531 -0.3930 -0.2620
  730SOL    HW1 2189   2.530   0.681   0.773 -1.6511  0.7829 -1.7642
  730SOL    HW2 2190   2.658   0.561   0.757  3.9009 -0.2769 -2.2189
  731SOL     OW 2191   0.022   2.139   2.430 -0.9616 -0.3239  0.5627
  731SOL    HW1 2192   0.072   2.172   2.518  1.6372  1.5834  0.1223
  731SOL    HW2 2193   0.031   2.206   2.347  0.9154  2.5316 -3.5913
  732SOL     OW 2194   1.076   2.882   1.977  0.1534 -0.1871  0.6292
  732SOL    HW1 2195   1.114   2.820   2.052  1.8856 -2.1317  0.9050
  732SOL    HW2 2196   1.101   2.832   1.888  0.2659  1.2029  1.5890
  733SOL     OW 2197   0.016   0.725   2.074  0.0063  0.1046 -0.7083
  733SOL    HW1 2198   0.124   0.719   2.073  1.7894  3.0551  0.1000
  733SOL    HW2 2199  -0.030   0.635   2.054 -0.5990  1.2887 -1.4747
  734SOL     OW 2200   1.433   0.360   2.770  0.2184 -0.4377 -0.2585
  734SOL    HW1 2201   1.430   0.449   2.817  0.8579 -1.7586 -0.3495
  734SOL    HW2 2202   1.338   0.316   2.753 -1.5563  0.1988  0.6664
  735SOL     OW 2203   2.882   2.625   2.255 -0.2624 -0.2072  0.1108
  735SOL    HW1 2204   2.814   2.627   2.177  0.3129 -0.2703 -1.1922
  735SOL    HW2 2205   2.981   2.620   2.217 -1.4103  2.0458  0.0535
  736SOL     OW 2206   0.748   0.453   2.625 -0.0805 -0.3688  0.7257
  736SOL    HW1 2207   0.715   0.556   2.610 -0.0551  2.4272 -1.9951
  736SOL    HW2 2208   0.738   0.394   2.539  0.9211 -5.3806 -0.1983
  737SOL     OW 2209   2.645   0.472   2.873  0.7618 -0.2156  0.6152
  737SOL    HW1 2210   2.628   0.431   2.966  1.1382  1.4611 -0.3844
  737SOL    HW2 2211   2.731   0.437   2.824 -1.5206  1.0040 -1.0176
  738SOL     OW 2212   1.587   1.230   2.951  0.3891 -0.1674  0.3900
  738SOL    HW1 2213   1.692   1.219   2.962  2.5573  3.0379  1.5935
  738SOL    HW2 2214   1.545   1.171   2.875 -1.1176 -2.0799 -2.6027
  739SOL     OW 2215   1.738   0.649   0.678  0.6078  0.2124  0.5601
  739SOL    HW1 2216   1.759   0.642   0.778  1.0090 -0.2978 -0.0571
  739SOL    HW2 2217   1.768   0.561   0.626  0.1811 -0.5256 -1.2110
  740SOL     OW 2218   1.955   1.880   2.273 -0.2662  0.4132 -0.8751
  740SOL    HW1 2219   2.007   1.807   2.323 -1.4050  2.4795 -1.1378
  740SOL    HW2 2220   1.877   1.845   2.211 -2.8804  0.8203  0.6679
  741SOL     OW 2221   2.507   0.044   2.603 -0.3240  0.1813  0.7004
  741SOL    HW1 2222   2.610   0.044   2.604 -0.5188 -1.1232  0.4237
  741SOL    HW2 2223   2.476   0.027   2.503 -0.3874  0.2204 -0.7789
  742SOL     OW 2224   2.252   1.372   0.147  0.1914 -0.3451 -0.3212
  742SOL    HW1 2225   2.168   1.426   0.180 -2.4795 -1.2258 -1.8758
  742SOL    HW2 2226   2.288   1.307   0.223 -0.0812 -0.8441  2.2089
  743SOL     OW 2227   1.797   0.605   2.573 -0.4132 -0.5882  0.0626
  743SOL    HW1 2228   1.760   0.535   2.503 -2.2292 -0.8095 -0.7938
  743SOL    HW2 2229   1.728   0.678   2.598 -0.3291 -1.6871 -0.8488
  744SOL     OW 2230   2.684   2.121   0.065 -0.5431  0.0344 -0.0812
  744SOL    HW1 2231   2.586   2.149   0.075 -1.6680 -1.3924  0.3071
  744SOL    HW2 2232   2.689   2.025   0.044 -1.5909 -0.9318  0.1627
  745SOL     OW 2233   2.142   2.679   2.227 -0.5599 -0.1995  0.1173
  745SOL    HW1 2234   2.055   2.660   2.176  0.1189  0.8647  0.0238
  745SOL    HW2 2235   2.129   2.736   2.312  4.2105 -0.0965 -1.8954
  746SOL     OW 2236   3.097   2.565   1.819 -0.2766 -0.0030 -0.0221
  746SOL    HW1 2237   3.198   2.586   1.808  0.3115 -0.1577  1.1547
  746SOL    HW2 2238   3.044   2.645   1.851 -1.7920 -3.5458  1.4312
  747SOL     OW 2239   0.011   1.769   1.629 -0.1076  0.2456  0.0750
  747SOL    HW1 2240  -0.036   1.675   1.632 -1.9038 -1.6270  0.8826
  747SOL    HW2 2241   0.054   1.798   1.539  1.5134  0.1328  1.7969
  748SOL     OW 2242   1.820   2.758   2.866  0.0316 -0.5430  0.8149
  748SOL    HW1 2243   1.828   2.795   2.962 -2.3163  0.4495 -0.1601
  748SOL    HW2 2244   1.719   2.744   2.839 -1.3818  0.6824  3.2051
  749SOL     OW 2245   1.332   3.086   0.867 -0.1942  0.2474 -0.2137
  749SOL    HW1 2246   1.273   3.011   0.903 -1.1326  1.2422 -2.2126
  749SOL    HW2 2247   1.313   3.105   0.771  0.6328 -0.0477  2.3560
  750SOL     OW 2248   2.305   0.220   1.886 -0.0063  0.5870 -0.2415
  750SOL    HW1 2249   2.301   0.283   1.806 -1.7293  3.2155 -0.7937
  750SOL    HW2 2250   2.336   0.269   1.976 -1.8736  2.9556  0.3143
  751SOL     OW 2251   0.849   2.210   2.776 -0.5465 -0.0603  1.1197
  751SOL    HW1 2252   0.888   2.177   2.866 -1.4362  0.7350  2.4051
  751SOL    HW2 2253   0.791   2.139   2.726 -1.3460  0.0028  1.0111
  752SOL     OW 2254   1.240   0.867   1.525 -0.7642  0.2685  0.1354
  752SOL    HW1 2255   1.320   0.917   1.475  1.4011 -0.2354  0.5122
  752SOL    HW2 2256   1.267   0.772   1.560 -0.5186  0.8715 -1.5750
  753SOL     OW 2257   0.942   2.602   1.700  0.0024 -0.2375  0.5425
  753SOL    HW1 2258   1.013   2.663   1.664  1.0132 -1.8851  0.4959
  753SOL    HW2 2259   0.844   2.640   1.689 -2.4991  0.6427  1.6221
  754SOL     OW 2260   1.221   1.320   3.030 -0.2573 -0.4554 -0.2309
  754SOL    HW1 2261   1.266   1.238   2.976 -0.5454 -3.1650  0.5736
  754SOL    HW2 2262   1.225   1.407   2.975  1.4516 -0.9788 -0.6271
  755SOL     OW 2263   1.918   0.455   2.225  0.5018 -0.0074 -0.2646
  755SOL    HW1 2264   1.997   0.431   2.287 -1.3463  0.0075  1.7553
  755SOL    HW2 2265   1.830   0.470   2.280 -1.8295  0.3551  1.0519
  756SOL     OW 2266   2.613   0.975   2.967 -0.6379  0.2204 -0.0037
  756SOL    HW1 2267   2.720   0.959   2.986  1.8257  0.7642 -0.1766
  756SOL    HW2 2268   2.554   0.902   3.009  2.0820  2.1536  0.7243
  757SOL     OW 2269   0.019   0.445   1.790  0.8558  0.1257 -0.1988
  757SOL    HW1 2270   0.005   0.548   1.788  0.0809  1.9866 -1.5819
  757SOL    HW2 2271   0.085   0.421   1.714  0.1085  0.2957  1.2377
  758SOL     OW 2272   2.385   0.036   1.465 -0.2826 -0.8828  0.2463
  758SOL    HW1 2273   2.329  -0.044   1.498  1.2145 -0.8711  2.3320
  758SOL    HW2 2274   2.369   0.048   1.367  0.3223 -1.7447 -1.1641
  759SOL     OW 2275   1.676   0.026   0.077 -0.3644 -0.4926 -0.3506
  759SOL    HW1 2276   1.621   0.052  -0.010  1.7016  3.2881  2.1931
  759SOL    HW2 2277   1.779   0.012   0.053  0.6990 -1.0713 -2.4370
  760SOL     OW 2278   2.719   2.039   2.783  0.0478  0.2389 -1.0998
  760SOL    HW1 2279   2.773   1.956   2.755 -0.0402  0.7312  0.4301
  760SOL    HW2 2280   2.763   2.102   2.855  1.0671 -2.3352  3.0134
  761SOL     OW 2281   1.952   1.699   1.623  0.2730 -1.0139 -0.1155
  761SOL    HW1 2282   2.010   1.610   1.635  0.4626  0.3165 -1.1447
  761SOL    HW2 2283   1.867   1.683   1.562  0.0002 -1.5536  1.0244
  762SOL     OW 2284   0.503   2.422   0.988  0.0390  0.1812 -0.6783
  762SOL    HW1 2285   0.549   2.447   0.900  0.9447  0.4639  2.0491
  762SOL    HW2 2286   0.533   2.475   1.073  0.1571 -2.3305 -2.6445
  763SOL     OW 2287   2.116   1.521   2.987  0.1545  0.2778 -0.1527
  763SOL    HW1 2288   2.206   1.477   2.997  0.6700 -0.1822  0.4415
  763SOL    HW2 2289   2.042   1.462   3.027 -1.1877 -1.2455  0.1204
  764SOL     OW 2290   0.692   0.559   0.895  0.1751 -0.3784  0.1165
  764SOL    HW1 2291   0.657   0.497   0.821  0.6097 -1.9014  0.0981
  764SOL    HW2 2292   0.794   0.564   0.912 -0.8352  1.9034  0.0906
  765SOL     OW 2293   0.661   0.241   0.815 -0.5208  0.2882 -0.1563
  765SOL    HW1 2294   0.743   0.243   0.754 -1.8581  0.3165 -1.2207
  765SOL    HW2 2295   0.683   0.267   0.910 -2.1009  1.0369 -2.4144
  766SOL     OW 2296   2.965   2.103   0.006 -0.1306  0.4463  0.4181
  766SOL    HW1 2297   2.862   2.121   0.019 -1.7545 -1.0530 -3.1336
  766SOL    HW2 2298   3.017   2.179  -0.035 -1.5075 -2.0100 -0.0747
  767SOL     OW 2299   2.882   1.559   0.539 -0.7519 -0.5191 -0.2938
  767SOL    HW1 2300   2.796   1.523   0.581 -0.0489 -1.5055 -1.7354
  767SOL    HW2 2301   2.944   1.612   0.607  0.2128 -1.5483  1.1110
  768SOL     OW 2302   1.083   0.236   0.326  0.3864  0.1990 -0.3516
  768SOL    HW1 2303   1.002   0.171   0.355  2.0595  0.5927  1.5987
  768SOL    HW2 2304   1.172   0.183   0.310  1.7244 -1.5258  0.0024
  769SOL     OW 2305   1.164   1.835   2.228  0.8031 -0.4083 -0.0223
  769SOL    HW1 2306   1.094   1.878   2.294 -1.0572  0.1532 -0.4734
  769SOL    HW2 2307   1.170   1.733   2.218 -0.4459  4.6356  1.3341
  770SOL     OW 2308   0.142   1.271   2.351  0.8633 -0.5766  0.6898
  770SOL    HW1 2309   0.134   1.263   2.454 -0.5477  1.7805  1.5823
  770SOL    HW2 2310   0.054   1.233   2.301 -2.3732 -0.4789  1.4146
  771SOL     OW 2311   2.957   2.811   1.880 -0.0481 -0.1583 -0.0069
  771SOL    HW1 2312   2.956   2.861   1.787  2.0809 -3.2722 -1.0285
  771SOL    HW2 2313   2.959   2.874   1.957 -1.8113  1.6979 -0.2583
  772SOL     OW 2314   2.161   0.114   2.957 -0.4718 -0.1982 -0.0666
  772SOL    HW1 2315   2.242   0.086   2.895 -1.7063  0.6221  0.1605
  772SOL    HW2 2316   2.178   0.212   2.984 -2.4259 -0.3886 -1.1602
  773SOL     OW 2317   0.702   2.063   2.492 -0.0397  0.0598 -0.6796
  773SOL    HW1 2318   0.677   2.109   2.403 -1.5293  0.5268  0.4418
  773SOL    HW2 2319   0.634   2.088   2.568  0.2860 -0.4926  0.6430
  774SOL     OW 2320   2.044   0.034   2.653 -0.1925  0.0870  0.1537
  774SOL    HW1 2321   2.036   0.132   2.696 -1.0857  0.2619 -1.3223
  774SOL    HW2 2322   2.069  -0.044   2.716  1.1419 -4.1980 -2.8397
  775SOL     OW 2323   2.537   2.847   2.446 -0.2511 -0.2281 -0.5738
  775SOL    HW1 2324   2.506   2.938   2.411 -3.4312 -1.4584 -0.3860
  775SOL    HW2 2325   2.630   2.850   2.492  0.2641  0.9610  2.4678
  776SOL     OW 2326   0.016   1.275   0.254 -0.1961  0.7292 -0.2357
  776SOL    HW1 2327  -0.034   1.256   0.165 -0.6386  0.4465  0.2083
  776SOL    HW2 2328  -0.060   1.274   0.331 -3.3354 -1.1178  0.1410
  777SOL     OW 2329   0.225   2.719   0.490 -0.0582 -0.2138 -0.2921
  777SOL    HW1 2330   0.130   2.684   0.505 -1.0005 -1.2431  2.5996
  777SOL    HW2 2331   0.233   2.820   0.503 -1.2232 -0.3001  0.2426
  778SOL     OW 2332   1.337   1.981   0.187 -0.0250 -0.4789 -0.1088
  778SOL    HW1 2333   1.271   2.005   0.264  0.6709  0.2299 -1.1612
  778SOL    HW2 2334   1.350   2.058   0.120  2.4843 -1.6649 -0.3542
  779SOL     OW 2335   0.180   0.775   0.515  0.4572 -0.3075  0.0205
  779SOL    HW1 2336   0.147   0.679   0.494 -1.2060 -0.7098  1.2153
  779SOL    HW2 2337   0.113   0.830   0.579  1.4148  0.6428  1.6302
  780SOL     OW 2338   0.016   0.277   2.332 -0.4730  0.4415  0.3015
  780SOL    HW1 2339  -0.017   0.377   2.339 -1.3211  0.5025  0.2289
  780SOL    HW2 2340   0.115   0.278   2.297 -1.4493  0.0436  1.5866
  781SOL     OW 2341   0.599   1.740   1.557 -0.4227  0.3008 -0.2912
  781SOL    HW1 2342   0.638   1.765   1.651  1.1221  1.8018  1.1368
  781SOL    HW2 2343   0.513   1.678   1.576 -0.1685 -2.5070 -0.1124
  782SOL     OW 2344   2.586   0.150   0.927  0.5554  0.0022  0.0220
  782SOL    HW1 2345   2.516   0.166   0.853  0.0954 -0.0641  1.1796
  782SOL    HW2 2346   2.567   0.194   1.019 -1.5138 -1.3097  2.6771
  783SOL     OW 2347   2.824   0.656   2.502  0.4702  0.2425  0.0331
  783SOL    HW1 2348   2.828   0.666   2.609  2.2579  0.8887  0.5839
  783SOL    HW2 2349   2.731   0.609   2.475 -2.2206 -0.0198  1.1839
  784SOL     OW 2350   1.321   2.214   0.049 -0.6131 -0.1524 -0.1270
  784SOL    HW1 2351   1.411   2.251   0.083  2.6665 -0.1511 -0.0533
  784SOL    HW2 2352   1.304   2.250  -0.046 -1.3116 -1.7120  0.0848
  785SOL     OW 2353   2.187   0.355   3.080  0.3584 -0.2053  0.4181
  785SOL    HW1 2354   2.096   0.337   3.131  2.8417 -2.3600 -3.1240
  785SOL    HW2 2355   2.211   0.455   3.059 -0.3704 -0.3364  0.4242
  786SOL     OW 2356   2.041   2.147   2.216 -0.5619  0.1056  0.3699
  786SOL    HW1 2357   2.000   2.047   2.223 -1.5960 -1.7244  2.0622
  786SOL    HW2 2358   2.136   2.144   2.261  1.8768  2.5761 -1.7305
  787SOL     OW 2359   1.401   0.588   0.859 -0.1098  0.2819 -0.5398
  787SOL    HW1 2360   1.338   0.668   0.868 -1.5534 -0.8695 -0.6038
  787SOL    HW2 2361   1.443   0.573   0.766 -0.0138  1.6511  1.0191
  788SOL     OW 2362   1.221   0.390   3.022  0.2059 -0.0938  0.1686
  788SOL    HW1 2363   1.134   0.410   2.972 -0.1637 -2.7283 -0.2256
  788SOL    HW2 2364   1.302   0.451   2.989  3.5722 -0.1644 -1.1566
  789SOL     OW 2365   2.586   0.110   1.810  0.2827  0.1395  0.5021
  789SOL    HW1 2366   2.489   0.136   1.829  4.6851 -2.1621 -0.4047
  789SOL    HW2 2367   2.589   0.009   1.771  1.3141 -0.9795  1.0830
  790SOL     OW 2368   2.580   2.655   0.854  0.3290  0.0637  0.3174
  790SOL    HW1 2369   2.646   2.667   0.769  0.2456  1.0095  1.5332
  790SOL    HW2 2370   2.631   2.689   0.944  0.7083  0.4422  3.8635
  791SOL     OW 2371   1.973   1.255   0.223 -0.0507  0.2351 -0.0802
  791SOL    HW1 2372   1.903   1.175   0.237  1.9599 -2.2267  2.6200
  791SOL    HW2 2373   2.070   1.225   0.246  1.3767 -0.4993  1.0182
  792SOL     OW 2374   0.416   1.982   2.169 -0.0199 -0.1463  0.0197
  792SOL    HW1 2375   0.475   2.064   2.190 -0.2305 -1.7955 -0.4735
  792SOL    HW2 2376   0.357   1.952   2.247  0.1749 -1.8990 -1.1246
  793SOL     OW 2377   2.122   1.556   2.121  0.1526  0.0540  0.1812
  793SOL    HW1 2378   2.188   1.628   2.093 -3.5738 -4.2974  1.7016
  793SOL    HW2 2379   2.138   1.464   2.076  0.9627 -0.4066  1.7798
  794SOL     OW 2380   0.426   1.381   2.470 -0.3502  0.0351 -0.5921
  794SOL    HW1 2381   0.444   1.328   2.382 -1.6613  1.4615  1.8189
  794SOL    HW2 2382   0.393   1.480   2.450  1.3451 -0.7741 -0.6988
  795SOL     OW 2383   2.513   2.326   1.802  0.0120 -0.2215 -0.0908
  795SOL    HW1 2384   2.565   2.294   1.886  2.0004 -1.0781  1.1722
  795SOL    HW2 2385   2.426   2.278   1.789  1.4362 -1.4564  0.9333
  796SOL     OW 2386   3.078   1.046   2.704  0.2144  0.0361 -0.2803
  796SOL    HW1 2387   2.973   1.052   2.700  1.8692  0.5254  3.4760
  796SOL    HW2 2388   3.123   1.066   2.797 -1.8238 -1.2640  0.0471
  797SOL     OW 2389   0.769   0.666   1.332 -0.0999 -0.2963 -0.0492
  797SOL    HW1 2390   0.832   0.739   1.372  2.7012 -1.9944 -0.6269
  797SOL    HW2 2391   0.707   0.709   1.257 -1.7012 -1.4851 -0.8118
  798SOL     OW 2392   1.245   0.445   1.035 -0.7262  0.4002 -0.5498
  798SOL    HW1 2393   1.278   0.431   1.131 -0.8180  0.4756 -3.5922
  798SOL    HW2 2394   1.301   0.505   0.975 -0.8111  0.4586  0.3385
  799SOL     OW 2395   1.866   2.752   1.023 -1.1056  0.0093  0.1096
  799SOL    HW1 2396   1.827   2.686   1.087  0.1689 -0.0414  0.6732
  799SOL    HW2 2397   1.868   2.717   0.926  0.6990  0.7265 -2.7931
  800SOL     OW 2398   2.979   0.808   1.866  0.3896  0.0486 -0.1847
  800SOL    HW1 2399   2.956   0.903   1.899 -1.1801 -1.7338  1.3500
  800SOL    HW2 2400   3.016   0.755   1.946 -1.1439 -1.4296 -2.1627
  801SOL     OW 2401   1.973   2.129   0.100 -0.4797  0.3153  0.9694
  801SOL    HW1 2402   1.886   2.082   0.063 -1.6536  2.5130  3.9298
  801SOL    HW2 2403   2.061   2.096   0.058 -0.7391 -2.3033  1.5713
  802SOL     OW 2404   0.693   0.709   2.540  0.2735  0.2863 -0.0725
  802SOL    HW1 2405   0.740   0.705   2.448 -1.0378 -0.3730  0.5199
  802SOL    HW2 2406   0.592   0.682   2.535  2.6707 -3.2510  4.7375
  803SOL     OW 2407   0.933   0.070   0.855 -0.4406 -0.4001 -0.2746
  803SOL    HW1 2408   1.021   0.112   0.886  2.0563 -1.3685 -2.7821
  803SOL    HW2 2409   0.892   0.124   0.776  1.7105 -0.1840 -1.8171
  804SOL     OW 2410   0.273   0.003   2.168 -0.4738  0.5498 -0.2744
  804SOL    HW1 2411   0.266   0.107   2.170 -0.2412 -0.5057  2.2306
  804SOL    HW2 2412   0.219  -0.037   2.089 -0.3398  0.0753  1.4596
  805SOL     OW 2413   2.348   0.393   0.313  0.3785 -0.2358  0.6860
  805SOL    HW1 2414   2.411   0.411   0.392 -1.0528  2.0127 -1.7907
  805SOL    HW2 2415   2.384   0.320   0.254  1.0378 -0.0107  0.8272
  806SOL     OW 2416   0.625   2.484   1.833  0.1972  0.3075  0.1352
  806SOL    HW1 2417   0.619   2.585   1.856 -1.8316 -0.7600  0.2615
  806SOL    HW2 2418   0.685   2.464   1.751 -0.5761  0.8715  1.0732
  807SOL     OW 2419   2.509   0.935   0.437  0.6539  0.0758 -0.4433
  807SOL    HW1 2420   2.594   0.879   0.460  1.3541  0.0599  4.0698
  807SOL    HW2 2421   2.500   0.947   0.340  1.7044  1.3485  1.1650
  808SOL     OW 2422   0.598   2.012   2.881 -0.6032  0.2806  0.1160
  808SOL    HW1 2423   0.567   2.062   2.966  2.3971 -1.1635  0.2365
  808SOL    HW2 2424   0.640   1.919   2.895  2.1885  2.3490 -0.3212
  809SOL     OW 2425   2.542   2.000   1.880 -0.1493  0.0278 -0.6249
  809SOL    HW1 2426   2.642   2.026   1.874  3.1314 -0.1612 -0.3978
  809SOL    HW2 2427   2.484   2.034   1.805 -0.4863  1.1924  1.3735
  810SOL     OW 2428   2.135   1.094   0.529  0.0999 -0.3737  0.0155
  810SOL    HW1 2429   2.140   1.035   0.610 -0.3353 -0.0135 -0.7528
  810SOL    HW2 2430   2.131   1.195   0.547  1.1404  1.9938 -1.3515
  811SOL     OW 2431   1.337   2.563   1.202 -0.4832 -0.1828 -0.5088
  811SOL    HW1 2432   1.337   2.460   1.214 -2.8862 -1.0959  1.9684
  811SOL    HW2 2433   1.296   2.608   1.286 -0.5736 -0.7743  1.3021
  812SOL     OW 2434   1.379   0.771   1.926 -0.5775 -0.1398 -0.3627
  812SOL    HW1 2435   1.311   0.757   1.852 -1.9471  0.7118 -1.1015
  812SOL    HW2 2436   1.421   0.866   1.941  1.2593  1.1731  0.0445
  813SOL     OW 2437   1.589   2.050   2.418  0.0477 -0.1941 -0.2368
  813SOL    HW1 2438   1.664   1.981   2.434 -0.3583 -1.3433 -1.0133
  813SOL    HW2 2439   1.545   2.043   2.323 -2.2154  0.0288  1.1149
  814SOL     OW 2440   2.956   1.668   2.896  0.0977  1.3775  0.1263
  814SOL    HW1 2441   3.030   1.625   2.950 -1.3545  2.1613 -1.1596
  814SOL    HW2 2442   2.962   1.773   2.893  0.6429 -0.5917 -2.8562
  815SOL     OW 2443   2.183   2.900   2.752 -0.0243 -0.0694  0.2693
  815SOL    HW1 2444   2.142   2.823   2.808 -0.4836  1.5059 -2.2221
  815SOL    HW2 2445   2.279   2.921   2.779 -1.1794 -0.3254  0.3769
  816SOL     OW 2446   1.553   0.369   1.668 -0.5157  0.2862 -0.5311
  816SOL    HW1 2447   1.612   0.294   1.708  2.4405  1.3461  1.2429
  816SOL    HW2 2448   1.477   0.397   1.730 -0.8543  0.6127 -2.8793
  817SOL     OW 2449   0.406   1.176   2.654  0.8098 -0.3456  0.0582
  817SOL    HW1 2450   0.306   1.177   2.685 -0.8466  0.5108 -0.0652
  817SOL    HW2 2451   0.418   1.251   2.579 -2.2204 -0.6310 -1.5241
  818SOL     OW 2452   1.970   0.819   0.444 -0.0052  0.0258 -0.0061
  818SOL    HW1 2453   2.072   0.831   0.457 -0.9474 -0.2523  1.0116
  818SOL    HW2 2454   1.917   0.831   0.530  0.1267 -0.3368  0.8598
  819SOL     OW 2455   2.731   2.987   3.088  0.6761 -0.5103  0.1166
  819SOL    HW1 2456   2.743   2.895   3.130 -2.4212  0.6778 -1.7895
  819SOL    HW2 2457   2.690   2.983   2.994 -0.3253 -1.2082  0.9696
  820SOL     OW 2458   1.252   1.047   0.522  0.3789  0.2458  0.3168
  820SOL    HW1 2459   1.278   1.145   0.562  1.2456 -0.0940 -2.0742
  820SOL    HW2 2460   1.210   0.988   0.596 -0.6948  0.6065 -1.3728
  821SOL     OW 2461   0.044   1.223   0.724  0.2596 -0.5317  0.0652
  821SOL    HW1 2462  -0.014   1.233   0.808 -1.4025 -2.2955  2.0973
  821SOL    HW2 2463   0.120   1.294   0.727  0.4604 -3.6799 -0.4830
  822SOL     OW 2464   2.516   1.791   2.450 -0.2069  0.1415 -0.4387
  822SOL    HW1 2465   2.504   1.840   2.540  0.3855 -0.1823 -0.7259
  822SOL    HW2 2466   2.446   1.821   2.382  0.3461  0.2540  0.6285
  823SOL     OW 2467   1.989   0.923   1.177  0.3646  0.2534  0.7499
  823SOL    HW1 2468   1.953   0.873   1.258 -2.3491  3.9975 -2.3084
  823SOL    HW2 2469   1.911   0.967   1.122 -0.4411  0.2481 -1.0075
  824SOL     OW 2470   0.223   1.968   2.780 -0.2456 -0.3611  0.3247
  824SOL    HW1 2471   0.259   1.914   2.863  5.2828 -1.6888 -1.4809
  824SOL    HW2 2472   0.272   1.942   2.689  1.6003 -2.2812  1.2237
  825SOL     OW 2473   1.330   1.078   0.260  0.0135  0.3452  0.0715
  825SOL    HW1 2474   1.326   1.176   0.219 -0.2137  2.9485 -0.7003
  825SOL    HW2 2475   1.311   1.072   0.363 -1.6078  0.5644 -2.8487
  826SOL     OW 2476   1.926   0.612   1.570 -0.0116 -0.5603  0.2916
  826SOL    HW1 2477   2.012   0.582   1.619  0.4578  0.0446 -0.3731
  826SOL    HW2 2478   1.860   0.536   1.553 -0.4885 -0.3139 -0.0560
  827SOL     OW 2479   0.698   1.183   0.346  0.0036 -0.6812  0.7980
  827SOL    HW1 2480   0.742   1.113   0.283  1.7318 -2.7084  1.7456
  827SOL    HW2 2481   0.613   1.140   0.395 -0.1614 -1.4705  2.7516
  828SOL     OW 2482   2.671   0.122   1.520  0.0246  0.0553  0.1110
  828SOL    HW1 2483   2.567   0.104   1.504 -0.9088  0.8546  0.7621
  828SOL    HW2 2484   2.687   0.169   1.608  0.0641 -0.4140  0.5342
  829SOL     OW 2485   2.961   2.405   2.863 -0.2008 -0.3697  0.3310
  829SOL    HW1 2486   2.862   2.392   2.896 -1.4205  0.6480  3.4821
  829SOL    HW2 2487   2.982   2.507   2.851  0.0494 -0.0917 -1.2238
  830SOL     OW 2488   2.888   0.927   3.043  0.3899 -0.2962  0.1427
  830SOL    HW1 2489   2.948   1.014   3.029  0.4125 -0.3886  0.0617
  830SOL    HW2 2490   2.929   0.852   3.104 -1.4170 -1.3708  0.4450
  831SOL     OW 2491   0.013   0.554   0.406  0.1148  0.4936 -0.2983
  831SOL    HW1 2492  -0.016   0.497   0.487  2.4251 -1.9186 -1.2631
  831SOL    HW2 2493   0.048   0.500   0.323 -0.0113  1.5128  0.2965
  832SOL     OW 2494   1.830   0.778   3.081 -0.6061  0.0013  0.1551
  832SOL    HW1 2495   1.757   0.836   3.036  1.6242 -0.6503  1.9321
  832SOL    HW2 2496   1.825   0.685   3.043 -0.1053  1.1772  0.9768
  833SOL     OW 2497   2.409   2.054   0.452 -0.5352  0.6684  0.4562
  833SOL    HW1 2498   2.312   2.015   0.447  2.2353  0.2840  0.8707
  833SOL    HW2 2499   2.479   1.975   0.445 -0.1088 -1.3792 -0.0900
  834SOL     OW 2500   0.201   0.134   0.558  0.3972 -0.1489  0.6216
  834SOL    HW1 2501   0.215   0.034   0.580 -0.3766  2.1528  0.8859
  834SOL    HW2 2502   0.183   0.152   0.453  1.3481  0.3803 -0.3220
  835SOL     OW 2503   2.481   1.532   1.161  0.1426 -0.1577 -0.4624
  835SOL    HW1 2504   2.564   1.544   1.217  0.3233  0.4007  1.2026
  835SOL    HW2 2505   2.503   1.479   1.076 -2.9818  0.3155  1.4237
  836SOL     OW 2506   1.622   0.829   2.594 -0.3720  0.0887  0.0770
  836SOL    HW1 2507   1.524   0.800   2.605  0.9192  1.0896  0.6286
  836SOL    HW2 2508   1.645   0.865   2.500 -2.2506  0.5410  0.2031
  837SOL     OW 2509   1.680   0.079   0.607  0.7240  0.3127 -0.2327
  837SOL    HW1 2510   1.623   0.152   0.658  1.7247  0.9237  0.7280
  837SOL    HW2 2511   1.653   0.067   0.509  0.8809  0.2788  2.0259
  838SOL     OW 2512   1.247   1.369   2.699  0.6218  0.4399  0.2584
  838SOL    HW1 2513   1.240   1.439   2.776 -1.1443  1.9985 -0.6239
  838SOL    HW2 2514   1.154   1.358   2.652  3.3860 -1.1501 -2.1780
  839SOL     OW 2515   1.580   0.348   0.968 -0.6648 -0.5182  0.1493
  839SOL    HW1 2516   1.615   0.395   1.056  0.2319 -0.8421 -0.7860
  839SOL    HW2 2517   1.562   0.245   0.974 -0.6158 -0.3483 -3.1298
  840SOL     OW 2518   2.604   2.938   1.735 -0.5384  0.2451 -0.2665
  840SOL    HW1 2519   2.538   2.891   1.671 -1.9839  2.7434 -0.4510
  840SOL    HW2 2520   2.635   2.881   1.817 -1.4266 -1.7402 -0.2112
  841SOL     OW 2521   1.540   0.851   2.949 -0.2740 -0.0358 -0.6083
  841SOL    HW1 2522   1.517   0.878   3.046  2.9880 -2.6640 -0.4153
  841SOL    HW2 2523   1.541   0.938   2.887 -0.9164  3.4927  2.9715
  842SOL     OW 2524   0.800   1.560   0.992  0.0130  0.0860  0.1532
  842SOL    HW1 2525   0.753   1.642   1.043 -1.7240 -0.3296 -0.5574
  842SOL    HW2 2526   0.744   1.521   0.913  0.5359  1.2411 -2.9642
  843SOL     OW 2527   0.125   0.107   1.425  0.1310 -0.4354 -0.1818
  843SOL    HW1 2528   0.215   0.125   1.476  1.7871  0.9436  0.9037
  843SOL    HW2 2529   0.117   0.012   1.390 -0.8598 -2.0290  2.1246
  844SOL     OW 2530   0.776   2.502   0.246  0.0692  0.4963 -0.3116
  844SOL    HW1 2531   0.754   2.525   0.348 -0.7288  2.9656  1.6886
  844SOL    HW2 2532   0.688   2.470   0.199 -0.1528 -2.4247 -0.6367
  845SOL     OW 2533   1.688   2.955   1.322 -0.2173  0.2281 -0.6029
  845SOL    HW1 2534   1.676   3.023   1.400 -0.4622  0.3994 -1.9868
  845SOL    HW2 2535   1.629   2.980   1.243 -0.1696 -0.9621 -1.7097
  846SOL     OW 2536   1.718   2.954   0.905 -0.0222 -0.1246 -0.1782
  846SOL    HW1 2537   1.755   2.952   0.810  0.6938  0.1954  1.5511
  846SOL    HW2 2538   1.777   2.890   0.965 -0.1069 -0.4617  0.8004
  847SOL     OW 2539   2.081   1.616   0.209 -0.4813 -0.0080 -0.0568
  847SOL    HW1 2540   2.019   1.613   0.293 -0.4407 -0.7977 -0.5128
  847SOL    HW2 2541   2.031   1.601   0.124 -1.4355 -0.7946  1.0864
  848SOL     OW 2542   2.464   0.831   2.659  0.0922  0.9965 -0.0711
  848SOL    HW1 2543   2.443   0.929   2.671 -0.7231 -0.4797 -0.6033
  848SOL    HW2 2544   2.408   0.789   2.582 -2.9868 -0.0355 -2.0906
  849SOL     OW 2545   2.420   0.855   2.317 -0.2548  0.4961 -0.2316
  849SOL    HW1 2546   2.443   0.796   2.239 -0.1474 -0.1542 -0.1492
  849SOL    HW2 2547   2.359   0.807   2.389  0.0191  2.8100  0.1047
  850SOL     OW 2548   1.603   0.147   1.272  0.5334  0.6718 -0.3151
  850SOL    HW1 2549   1.589   0.131   1.168 -2.1052 -4.2746  2.2866
  850SOL    HW2 2550   1.529   0.102   1.329 -0.2995  2.4701 -0.8275
  851SOL     OW 2551   0.468   1.768   0.686  0.1860  0.2467 -0.0284
  851SOL    HW1 2552   0.464   1.871   0.700 -1.4494  1.3196 -1.4313
  851SOL    HW2 2553   0.563   1.726   0.671  0.8100  0.1763  0.9050
  852SOL     OW 2554   0.781   2.122   1.669 -0.5927  0.2183  0.4324
  852SOL    HW1 2555   0.803   2.213   1.629 -1.9679 -1.9168 -1.3340
  852SOL    HW2 2556   0.721   2.119   1.758 -1.1921  1.3518  4.7171
  853SOL     OW 2557   2.535   1.556   2.580 -0.4020 -0.3391 -0.0900
  853SOL    HW1 2558   2.521   1.456   2.551 -1.4451 -0.1614  0.5731
  853SOL    HW2 2559   2.494   1.623   2.517  0.2694  1.9549  0.4518
  854SOL     OW 2560   2.401   1.400   1.771 -0.5920 -0.5789  0.0062
  854SOL    HW1 2561   2.458   1.360   1.692 -1.8485  1.1706 -0.9441
  854SOL    HW2 2562   2.339   1.332   1.813 -2.2516  1.6989 -1.8649
  855SOL     OW 2563   2.034   2.321   0.962  0.1109 -0.6202 -0.1495
  855SOL    HW1 2564   2.073   2.411   0.932 -1.0116 -1.1411 -1.1747
  855SOL    HW2 2565   2.072   2.304   1.053 -0.7670  1.2051  1.2992
  856SOL     OW 2566   1.416   1.355   0.900  0.3570 -0.4017 -0.4994
  856SOL    HW1 2567   1.439   1.462   0.895  1.2042  0.4666 -1.4576
  856SOL    HW2 2568   1.339   1.331   0.965  1.7396  0.0244 -2.7327
  857SOL     OW 2569   2.994   2.578   1.067  0.0188 -1.4380 -0.2589
  857SOL    HW1 2570   2.905   2.526   1.049 -0.0671 -0.2795 -0.8354
  857SOL    HW2 2571   3.079   2.526   1.076 -0.2398  0.5029  1.7156
  858SOL     OW 2572   2.290   2.171   1.739 -0.5844  0.0930  1.3348
  858SOL    HW1 2573   2.187   2.192   1.715  0.4923  1.8667  0.4494
  858SOL    HW2 2574   2.327   2.119   1.657 -1.4246  1.2110 -0.0004
  859SOL     OW 2575   2.458   0.501   1.030  0.1808  0.2078 -0.3773
  859SOL    HW1 2576   2.506   0.543   0.951 -0.6347 -4.1151  2.4587
  859SOL    HW2 2577   2.499   0.408   1.052 -0.4165 -0.6275 -1.0345
  860SOL     OW 2578   1.964   2.763   0.469  0.0907 -0.4197 -0.3188
  860SOL    HW1 2579   1.938   2.718   0.383  2.2123 -2.6433 -0.2116
  860SOL    HW2 2580   2.047   2.824   0.455 -2.1688  0.0125  1.8394
  861SOL     OW 2581   1.104   2.603   2.768  0.2120 -0.1653  0.3429
  861SOL    HW1 2582   1.110   2.704   2.767  0.3881 -0.2196  0.6151
  861SOL    HW2 2583   1.166   2.557   2.833 -2.9399 -2.4098 -0.4505
  862SOL     OW 2584   2.930   2.543   1.558  0.3281  0.2675 -0.3786
  862SOL    HW1 2585   2.965   2.585   1.645 -2.9038 -0.2937  2.4004
  862SOL    HW2 2586   2.854   2.600   1.507 -3.6572  1.7192 -4.1524
  863SOL     OW 2587   1.880   2.619   0.223  0.9951 -0.1779  0.4491
  863SOL    HW1 2588   1.947   2.543   0.209 -0.6108  1.2252  2.3533
  863SOL    HW2 2589   1.788   2.583   0.248 -1.0224  2.6188  2.0271
  864SOL     OW 2590   1.860   1.192   2.948 -0.1224 -0.0527  0.3713
  864SOL    HW1 2591   1.893   1.192   2.848 -0.9692  0.5437 -0.9048
  864SOL    HW2 2592   1.926   1.162   3.021 -2.2303  1.5626 -0.9037
  865SOL     OW 2593   2.180   1.770   0.678 -0.5472 -0.5902  0.0052
  865SOL    HW1 2594   2.212   1.774   0.781 -0.6041 -1.2869 -0.7315
  865SOL    HW2 2595   2.080   1.735   0.665 -0.2124  0.4126 -3.1204
  866SOL     OW 2596   2.937   2.874   1.021 -0.8172 -0.5358  0.0427
  866SOL    HW1 2597   2.998   2.917   0.945  0.1853  2.2833 -1.2349
  866SOL    HW2 2598   2.954   2.772   1.035  1.4934  2.0434 -0.6128
  867SOL     OW 2599   0.418   1.333   0.871 -0.2564 -0.1562  0.1994
  867SOL    HW1 2600   0.442   1.243   0.826  1.2524  0.2431 -2.3832
  867SOL    HW2 2601   0.326   1.370   0.837  1.0938  1.3596  1.2572
  868SOL     OW 2602   0.824   1.918   2.015 -0.1388 -0.0872 -0.5392
  868SOL    HW1 2603   0.813   1.880   2.116  0.0415  0.2413 -0.6118
  868SOL    HW2 2604   0.789   2.013   2.008  1.9306 -2.8449 -0.9515
  869SOL     OW 2605   2.489   2.002   1.593  0.3813  0.0465  0.5067
  869SOL    HW1 2606   2.582   2.042   1.579 -0.2651  1.2514  0.0292
  869SOL    HW2 2607   2.482   1.904   1.566 -0.9685  0.5292  0.5739
  870SOL     OW 2608   2.290   2.567   1.235  1.0286 -0.4336 -0.1460
  870SOL    HW1 2609   2.248   2.475   1.206 -1.4765 -2.4341  0.1138
  870SOL    HW2 2610   2.394   2.562   1.248 -0.3923 -0.3423  1.4935
  871SOL     OW 2611   2.988   2.072   0.570 -0.2865 -0.1272  0.1652
  871SOL    HW1 2612   2.932   2.155   0.587  1.1130  2.1202 -1.9245
  871SOL    HW2 2613   2.951   2.028   0.481  3.5609 -1.8739 -0.0979
  872SOL     OW 2614   2.145   0.505   1.702 -0.0392  0.2322  0.1203
  872SOL    HW1 2615   2.117   0.490   1.803  2.1410  0.3420  1.7589
  872SOL    HW2 2616   2.247   0.486   1.684 -1.3306 -0.7311 -1.9048
  873SOL     OW 2617   1.734   2.104   2.959 -0.1553  0.5239 -0.3456
  873SOL    HW1 2618   1.738   2.202   2.984  0.5667  0.1524 -0.1756
  873SOL    HW2 2619   1.666   2.082   2.886  1.0606 -0.9554 -0.8920
  874SOL     OW 2620   0.673   2.481   0.768  0.4637  0.1715  0.1113
  874SOL    HW1 2621   0.656   2.573   0.820 -1.3756  1.4614  4.4912
  874SOL    HW2 2622   0.774   2.451   0.776 -0.5876  0.8535  1.2655
  875SOL     OW 2623   2.274   1.558   1.484  0.0719 -0.3865  0.6084
  875SOL    HW1 2624   2.353   1.598   1.535 -0.4766 -2.2986 -2.9894
  875SOL    HW2 2625   2.272   1.577   1.384  1.5133  2.5367  0.6880
  876SOL     OW 2626   0.149   2.213   2.687 -0.1568 -0.7312 -0.2126
  876SOL    HW1 2627   0.177   2.124   2.729 -2.6188  1.0091 -0.4701
  876SOL    HW2 2628   0.166   2.301   2.739  1.5377  1.1810 -0.5893
  877SOL     OW 2629   2.775   2.677   0.654  0.5462  0.3894 -0.4127
  877SOL    HW1 2630   2.830   2.756   0.678  1.3105 -2.7184  0.0932
  877SOL    HW2 2631   2.831   2.588   0.670  0.8281 -0.3727 -1.3277
  878SOL     OW 2632   2.885   1.443   2.204  0.3210  0.1527 -0.5804
  878SOL    HW1 2633   2.985   1.476   2.215  0.6298  3.6539 -3.6540
  878SOL    HW2 2634   2.819   1.498   2.267 -3.1931  2.2887 -1.9906
  879SOL     OW 2635   2.385   0.020   1.186 -0.1373 -0.0677  0.1676
  879SOL    HW1 2636   2.447  -0.062   1.205  1.1145  0.5078 -0.4039
  879SOL    HW2 2637   2.307   0.010   1.120 -0.4752  0.6357  0.2026
  880SOL     OW 2638   0.720   0.459   2.181  0.1902  0.3392 -0.7334
  880SOL    HW1 2639   0.639   0.401   2.208 -2.4905 -1.5781  1.6216
  880SOL    HW2 2640   0.773   0.416   2.101 -1.8353 -1.7305 -3.8010
  881SOL     OW 2641   0.911   0.041   0.413  0.1498 -0.0432 -0.1621
  881SOL    HW1 2642   0.938  -0.051   0.463  1.0992 -2.9717  1.4684
  881SOL    HW2 2643   0.881   0.018   0.318 -0.5936 -0.3639  0.9529
  882SOL     OW 2644   2.729   1.622   1.672  0.0179  0.5348  0.7739
  882SOL    HW1 2645   2.822   1.574   1.657  1.8009 -0.2396 -1.6179
  882SOL    HW2 2646   2.728   1.685   1.752  0.7627  0.0586 -2.4418
  883SOL     OW 2647   0.974   0.578   0.967  0.2822 -0.2148 -0.3053
  883SOL    HW1 2648   0.960   0.679   1.002  1.0237 -0.0758  0.9387
  883SOL    HW2 2649   1.050   0.524   1.011 -0.9504 -1.8110  1.7681
  884SOL     OW 2650   1.179   1.882   1.038  0.2473  1.0213 -0.2492
  884SOL    HW1 2651   1.154   1.855   0.941  1.3781  0.2173  0.1216
  884SOL    HW2 2652   1.140   1.975   1.059  0.3632  2.9573  0.9836
  885SOL     OW 2653   2.274   1.857   2.310 -0.3324 -0.1144  0.1451
  885SOL    HW1 2654   2.206   1.800   2.369 -0.2357 -0.9324 -2.3651
  885SOL    HW2 2655   2.279   1.960   2.344  0.0793  1.8500  1.7030
  886SOL     OW 2656   2.671   0.462   1.789  0.2008  0.0499  0.2425
  886SOL    HW1 2657   2.729   0.393   1.840  1.1050 -3.5614 -0.4509
  886SOL    HW2 2658   2.723   0.537   1.742 -1.5352  0.2500  0.4177
  887SOL     OW 2659   0.092   2.059   1.256 -0.2468  0.4784  0.4627
  887SOL    HW1 2660   0.017   2.005   1.213  0.8107 -1.7014  2.0743
  887SOL    HW2 2661   0.148   2.117   1.186 -0.2308 -0.4282 -0.4607
  888SOL     OW 2662   0.548   1.293   1.547  0.1471 -0.5940 -0.5310
  888SOL    HW1 2663   0.577   1.300   1.445  0.3148  0.7084 -3.1188
  888SOL    HW2 2664   0.497   1.211   1.574  2.5327 -1.6246 -1.5288
  889SOL     OW 2665   0.853   2.481   2.125  0.0901  0.1884 -0.5868
  889SOL    HW1 2666   0.765   2.441   2.086  0.6231  3.1259  0.4171
  889SOL    HW2 2667   0.923   2.500   2.042  0.8868  0.5883  0.0879
  890SOL     OW 2668   2.368   2.475   0.189  0.3487 -0.0761 -0.0772
  890SOL    HW1 2669   2.370   2.537   0.104  1.4881  0.6175  0.6429
  890SOL    HW2 2670   2.285   2.490   0.254 -0.7248 -1.1770 -1.4918
  891SOL     OW 2671   2.647   1.521   0.628  0.5035 -0.2196 -0.2922
  891SOL    HW1 2672   2.659   1.454   0.711 -0.5754 -0.8287  3.4047
  891SOL    HW2 2673   2.545   1.554   0.619  0.3391  3.5684 -2.5487
  892SOL     OW 2674   0.258   0.281   2.233  0.0825  0.2067  0.2971
  892SOL    HW1 2675   0.269   0.312   2.136 -0.7040  0.4478  1.0592
  892SOL    HW2 2676   0.342   0.305   2.294 -0.0918  1.3337 -1.3845
  893SOL     OW 2677   1.687   0.221   2.761 -0.1582  0.3423 -0.1699
  893SOL    HW1 2678   1.763   0.285   2.798  1.2325 -0.1544 -0.6600
  893SOL    HW2 2679   1.596   0.275   2.756  0.1280  1.0453 -0.3066
  894SOL     OW 2680   2.227   2.022   0.049  0.4733 -0.0972 -0.2900
  894SOL    HW1 2681   2.183   1.970  -0.026 -1.4987  0.6827  3.2162
  894SOL    HW2 2682   2.246   1.965   0.138  0.9532  0.1793  0.2354
  895SOL     OW 2683   2.901   1.433   0.848  0.3223  0.3373 -0.2782
  895SOL    HW1 2684   2.915   1.436   0.951  2.5297 -1.0201 -2.1384
  895SOL    HW2 2685   2.965   1.502   0.799 -0.3596  2.2761 -2.8050
  896SOL     OW 2686   1.717   1.774   1.158 -0.3028  0.1726 -0.1023
  896SOL    HW1 2687   1.800   1.810   1.106  1.3727 -0.4149 -0.4208
  896SOL    HW2 2688   1.635   1.835   1.155 -0.6779 -1.5908  0.1816
  897SOL     OW 2689   0.268   0.548   3.060 -0.1890 -0.1597  0.2137
  897SOL    HW1 2690   0.198   0.604   3.010 -2.2160  0.0779 -1.2330
  897SOL    HW2 2691   0.357   0.598   3.074  2.7640 -0.2281  2.4340
  898SOL     OW 2692   0.572   2.836   1.123  0.0234  0.1089 -0.2157
  898SOL    HW1 2693   0.505   2.913   1.152  1.6877  0.4398  1.5887
  898SOL    HW2 2694   0.670   2.854   1.156 -0.9428 -1.1832  0.3580
  899SOL     OW 2695   2.706   0.960   1.246 -0.2842 -0.2939 -0.3742
  899SOL    HW1 2696   2.619   0.949   1.193 -1.6738 -0.6917  1.1399
  899SOL    HW2 2697   2.793   0.980   1.193  0.1272  1.2531  2.8220
  900SOL     OW 2698   1.004   2.540   2.342  0.4007 -0.2562 -0.2950
  900SOL    HW1 2699   0.948   2.532   2.252 -2.1643  0.3594 -0.3023
  900SOL    HW2 2700   0.962   2.495   2.422  1.6472 -3.3346  1.6230
  901SOL     OW 2701   1.923   2.436   1.367 -0.8488  0.7582  1.0413
  901SOL    HW1 2702   1.904   2.454   1.264  0.7334  0.8900 -3.1990
  901SOL    HW2 2703   2.026   2.414   1.385  1.9325  0.0586 -0.7146
  902SOL     OW 2704   2.582   1.629   1.438 -0.0680 -0.3841 -0.0032
  902SOL    HW1 2705   2.604   1.640   1.538  0.0890 -2.4935 -1.5327
  902SOL    HW2 2706   2.668   1.614   1.381  2.8378  0.5631 -0.1479
  903SOL     OW 2707   0.247   2.438   2.025 -0.0276 -0.3801 -0.0410
  903SOL    HW1 2708   0.204   2.351   1.990  1.5866  0.8084  1.4319
  903SOL    HW2 2709   0.264   2.516   1.957  0.4897  1.3499 -0.4545
  904SOL     OW 2710   1.990   0.769   2.455 -0.0261  0.7051  0.4827
  904SOL    HW1 2711   1.916   0.718   2.503  2.7952 -1.0235  2.6876
  904SOL    HW2 2712   1.975   0.775   2.352 -0.6782  1.4305  1.4488
  905SOL     OW 2713   2.772   0.040   2.591 -0.5841 -0.3407 -0.0091
  905SOL    HW1 2714   2.858  -0.023   2.594  0.8255  0.5695 -0.2800
  905SOL    HW2 2715   2.792   0.136   2.557  0.4287 -1.3529  0.8284
  906SOL     OW 2716   0.206   1.794   1.880  0.0967  0.1516  0.2509
  906SOL    HW1 2717   0.157   1.799   1.789  0.2759 -2.6560  0.6889
  906SOL    HW2 2718   0.294   1.852   1.881  1.2804  0.6348 -0.7779
  907SOL     OW 2719   0.163   2.509   1.021 -0.2476  0.1022  0.1315
  907SOL    HW1 2720   0.224   2.587   1.052 -0.9936  1.5191 -0.1081
  907SOL    HW2 2721   0.142   2.494   0.920 -3.0436 -1.6186  0.9923
  908SOL     OW 2722   2.690   2.962   0.451  0.1366 -0.3741 -0.3209
  908SOL    HW1 2723   2.696   3.039   0.379 -1.1068  1.9525  1.2398
  908SOL    HW2 2724   2.685   2.864   0.412 -2.5570 -0.2946  2.1484
  909SOL     OW 2725   0.830   0.910   2.678  0.2549  0.1336  0.0233
  909SOL    HW1 2726   0.768   0.838   2.633 -3.3983  1.1943  0.7896
  909SOL    HW2 2727   0.891   0.954   2.606  1.1135 -0.2366 -0.3518
  910SOL     OW 2728   1.763   1.806   2.081  0.1911 -0.3752 -0.1240
  910SOL    HW1 2729   1.802   1.842   1.992 -1.5363 -2.3403  0.1122
  910SOL    HW2 2730   1.690   1.869   2.121  1.6397 -0.1341  0.0402
  911SOL     OW 2731   1.779   2.997   1.615 -0.2849  0.7797  0.4906
  911SOL    HW1 2732   1.843   2.938   1.559 -1.6498 -1.0388 -0.0467
  911SOL    HW2 2733   1.764   2.944   1.702 -1.3436 -0.5666  0.2971
  912SOL     OW 2734   2.862   0.950   0.763 -0.1108  0.0706  0.3735
  912SOL    HW1 2735   2.874   0.926   0.866  0.5454  0.7014  1.6139
  912SOL    HW2 2736   2.838   1.051   0.753 -0.1837  0.5206  1.4907
  913SOL     OW 2737   2.539   1.293   1.571 -0.4168 -0.0098 -0.0988
  913SOL    HW1 2738   2.562   1.195   1.585 -2.5032  1.7292  0.1262
  913SOL    HW2 2739   2.564   1.331   1.475  1.8723  1.2977 -1.9708
  914SOL     OW 2740   2.809   0.524   1.223  0.1965 -0.0610 -0.2252
  914SOL    HW1 2741   2.738   0.450   1.222 -0.1309 -0.2518 -0.0336
  914SOL    HW2 2742   2.777   0.593   1.298 -0.1058  2.3342  0.5569
  915SOL     OW 2743   1.221   0.803   1.010  0.1339 -0.5708  0.3266
  915SOL    HW1 2744   1.299   0.805   1.079  2.1940  1.8026 -1.1671
  915SOL    HW2 2745   1.132   0.831   1.050  1.7098 -2.3188 -0.3812
  916SOL     OW 2746   0.564   0.035   0.668 -0.3871 -0.0114 -0.0001
  916SOL    HW1 2747   0.562   0.129   0.712 -1.0628  1.1660 -0.4959
  916SOL    HW2 2748   0.555   0.049   0.564 -4.8011 -0.9986 -0.3731
  917SOL     OW 2749   2.795   2.625   1.968 -0.6297 -0.0201 -0.2660
  917SOL    HW1 2750   2.699   2.669   1.943 -1.3881 -0.8789  0.4092
  917SOL    HW2 2751   2.877   2.685   1.942 -0.2344  1.6616 -2.4479
  918SOL     OW 2752   0.984   2.192   3.014 -0.2476 -0.6694 -0.7538
  918SOL    HW1 2753   0.933   2.216   3.099 -2.0428 -0.6769 -2.4806
  918SOL    HW2 2754   1.045   2.109   3.028  1.1534 -0.6605 -0.9237
  919SOL     OW 2755   0.924   1.582   2.782  0.1233  0.0020 -0.4675
  919SOL    HW1 2756   0.975   1.633   2.707  1.5761  0.4027 -1.0186
  919SOL    HW2 2757   0.852   1.511   2.749 -0.9261 -1.5659 -1.6046
  920SOL     OW 2758   1.248   2.022   2.488 -0.1107  0.2343  0.0084
  920SOL    HW1 2759   1.212   2.049   2.400 -1.1820  1.7652  1.9224
  920SOL    HW2 2760   1.266   1.923   2.501  0.4742  0.1669 -0.9000
  921SOL     OW 2761   1.119   0.032   2.569 -0.1109 -0.3205  0.1135
  921SOL    HW1 2762   1.109   0.064   2.468 -2.1414 -0.3555 -2.2242
  921SOL    HW2 2763   1.026   0.015   2.604  1.2909  1.8091  0.2758
  922SOL     OW 2764   2.171   2.383   2.801  0.6005 -0.1297 -0.2643
  922SOL    HW1 2765   2.191   2.281   2.799  1.6164 -1.6088  0.6823
  922SOL    HW2 2766   2.117   2.423   2.718 -0.0295 -0.0926 -1.9622
  923SOL     OW 2767   1.224   2.705   0.259  0.0358 -0.3280  0.7028
  923SOL    HW1 2768   1.312   2.748   0.292 -0.7147 -1.7041 -0.4980
  923SOL    HW2 2769   1.229   2.605   0.227 -2.1199 -2.5021  0.9876
  924SOL     OW 2770   2.924   1.562   0.087  0.4270  0.0831  0.1979
  924SOL    HW1 2771   2.831   1.550   0.037 -1.4471  0.2190 -0.8046
  924SOL    HW2 2772   3.002   1.594   0.030  1.2073 -0.3498 -0.1422
  925SOL     OW 2773   0.011   2.890   1.588  0.2633 -0.6769 -0.3069
  925SOL    HW1 2774  -0.081   2.921   1.630  0.9343  1.6765  0.6133
  925SOL    HW2 2775   0.015   2.916   1.489  1.3083  1.0136  2.2865
  926SOL     OW 2776   1.348   2.886   1.307  0.0288  0.2639 -0.1864
  926SOL    HW1 2777   1.424   2.885   1.235  0.1993 -0.2129  0.3352
  926SOL    HW2 2778   1.364   2.959   1.380 -2.7179  0.8939  1.5790
  927SOL     OW 2779   0.268   2.614   1.809 -0.0664 -0.9957  0.1962
  927SOL    HW1 2780   0.294   2.566   1.722  1.4171  0.0061 -0.6494
  927SOL    HW2 2781   0.253   2.717   1.788  1.6701 -1.4308 -0.0332
  928SOL     OW 2782   1.562   2.023   2.128 -0.2699  0.0936 -0.0197
  928SOL    HW1 2783   1.590   2.125   2.115 -2.2690  1.1356 -0.0680
  928SOL    HW2 2784   1.454   2.016   2.126  0.4406  1.8457  2.0892
  929SOL     OW 2785   2.418   2.487   2.851  0.6189  0.4799  0.2327
  929SOL    HW1 2786   2.322   2.437   2.843 -2.4848 -3.6550 -1.7486
  929SOL    HW2 2787   2.481   2.479   2.770  0.0055 -0.2733  1.4902
  930SOL     OW 2788   2.182   2.013   1.074  0.3016  0.0252  0.2342
  930SOL    HW1 2789   2.190   1.961   1.164 -0.2698 -1.9339  0.1577
  930SOL    HW2 2790   2.240   2.100   1.061 -0.6738  0.3731 -4.0604
  931SOL     OW 2791   0.545   1.697   2.649  0.1148 -0.0554 -0.2278
  931SOL    HW1 2792   0.597   1.687   2.735  0.2474 -2.4861 -2.2840
  931SOL    HW2 2793   0.549   1.611   2.596 -0.4056  0.1178  0.3996
  932SOL     OW 2794   0.447   0.056   2.900  0.0259  0.2475 -0.2328
  932SOL    HW1 2795   0.543   0.099   2.900 -2.0205 -0.6683  1.6231
  932SOL    HW2 2796   0.432  -0.026   2.962 -0.1850  1.4161  2.6176
  933SOL     OW 2797   1.056   0.780   2.983 -0.1577  0.6702 -0.0376
  933SOL    HW1 2798   1.124   0.769   3.060 -0.6943  0.0540  0.5435
  933SOL    HW2 2799   1.032   0.880   2.971 -2.3986  0.0796  0.9902
  934SOL     OW 2800   0.883   3.040   2.723  0.5862 -0.2143  0.1435
  934SOL    HW1 2801   0.898   2.955   2.663  2.6259  1.0202 -0.5810
  934SOL    HW2 2802   0.902   3.008   2.823 -2.5081 -1.9113  1.7928
  935SOL     OW 2803   3.077   0.516   0.793  0.1209  0.0350  0.5167
  935SOL    HW1 2804   3.105   0.436   0.736  1.8733  3.6221  2.0058
  935SOL    HW2 2805   2.977   0.547   0.777 -1.6853  1.0989  1.2561
  936SOL     OW 2806   1.100   2.905   0.149  0.1282 -0.2068  0.0544
  936SOL    HW1 2807   1.151   2.939   0.068  0.7611  0.5066 -1.4749
  936SOL    HW2 2808   1.149   2.826   0.198  1.4166  0.4260 -2.2605
  937SOL     OW 2809   1.895   2.621   2.102  0.1140 -0.0814  0.0379
  937SOL    HW1 2810   1.817   2.623   2.175  0.0787  0.0504 -2.1713
  937SOL    HW2 2811   1.858   2.665   2.015 -1.5115  0.5901  0.0544
  938SOL     OW 2812   2.733   2.119   1.538  0.0628  0.7480 -1.1601
  938SOL    HW1 2813   2.739   2.224   1.529 -0.1941  1.8252 -1.8157
  938SOL    HW2 2814   2.822   2.074   1.580  1.4817 -1.4630  2.3183
  939SOL     OW 2815   2.809   1.213   2.457 -0.4445 -1.2780 -0.1201
  939SOL    HW1 2816   2.885   1.201   2.388 -0.3898 -1.2318 -0.6234
  939SOL    HW2 2817   2.837   1.206   2.556  0.4172 -3.2788 -0.2136
  940SOL     OW 2818   1.018   0.438   2.655  1.1406 -0.0113 -0.0739
  940SOL    HW1 2819   1.061   0.350   2.690 -2.4336 -2.1270  2.4900
  940SOL    HW2 2820   0.918   0.415   2.644 -1.0420 -2.3343 -0.9248
  941SOL     OW 2821   0.029   2.835   2.225 -0.6995 -0.3109 -0.0537
  941SOL    HW1 2822   0.063   2.735   2.201 -0.6470 -2.8448 -3.1657
  941SOL    HW2 2823   0.078   2.869   2.304  0.8815  0.3186  0.6841
  942SOL     OW 2824   0.031   0.094   2.549  0.0667 -1.0050 -0.2827
  942SOL    HW1 2825   0.110   0.113   2.614 -1.9227 -1.0209 -0.2642
  942SOL    HW2 2826   0.022   0.163   2.470 -3.2079  0.8860  1.2788
  943SOL     OW 2827   2.113   1.684   2.441  0.1204 -0.4693 -0.1938
  943SOL    HW1 2828   2.112   1.598   2.382 -1.0695 -2.0437  2.8066
  943SOL    HW2 2829   2.096   1.643   2.538 -0.4195 -0.2165  3.1050
  944SOL     OW 2830   2.169   2.330   1.462  0.0664  0.2086  0.0718
  944SOL    HW1 2831   2.241   2.401   1.489 -0.6209  1.4300  0.5615
  944SOL    HW2 2832   2.131   2.286   1.544  2.5612 -0.0558 -0.2922
  945SOL     OW 2833   0.631   1.478   0.359  0.5077 -0.3586  0.0868
  945SOL    HW1 2834   0.678   1.536   0.288 -1.5517 -0.5649 -0.5884
  945SOL    HW2 2835   0.646   1.378   0.354  0.7646  0.8428  2.7641
  946SOL     OW 2836   0.435   0.935   2.532 -0.0415  0.3272  0.5479
  946SOL    HW1 2837   0.349   0.906   2.475 -1.3616  5.1054 -1.7849
  946SOL    HW2 2838   0.419   1.028   2.569 -1.6648 -1.3890 -0.4250
  947SOL     OW 2839   1.527   0.574   0.033 -0.5837 -0.3398  0.5363
  947SOL    HW1 2840   1.480   0.576  -0.060 -0.1386  1.4216  2.5780
  947SOL    HW2 2841   1.470   0.616   0.109 -0.7460  1.0208  3.7220
  948SOL     OW 2842   2.037   3.082   2.204 -0.8295 -0.1762  0.1611
  948SOL    HW1 2843   2.027   3.052   2.102 -0.3088  1.4970  0.0623
  948SOL    HW2 2844   2.000   3.011   2.271  0.7809 -0.6232  2.3265
  949SOL     OW 2845   0.684   2.541   0.494 -0.6305 -0.0026  0.1342
  949SOL    HW1 2846   0.660   2.638   0.462  0.7172 -0.6692 -1.9102
  949SOL    HW2 2847   0.660   2.534   0.594  2.1937 -0.4372  0.9301
  950SOL     OW 2848   0.271   2.172   3.072  0.5331  0.3739  0.4911
  950SOL    HW1 2849   0.182   2.230   3.072 -0.8050 -1.2666  0.3116
  950SOL    HW2 2850   0.270   2.115   2.985 -1.5352  0.0344 -0.1797
  951SOL     OW 2851   1.171   2.864   2.719 -0.1786  0.5097 -0.2402
  951SOL    HW1 2852   1.167   2.940   2.652  0.5599 -1.2729  2.5221
  951SOL    HW2 2853   1.264   2.859   2.768 -1.2962 -0.5942  2.1836
  952SOL     OW 2854   0.087   1.628   0.442 -0.3706 -0.0572  0.3171
  952SOL    HW1 2855   0.136   1.714   0.455  0.8414 -0.0571 -0.2859
  952SOL    HW2 2856   0.058   1.591   0.536 -0.2640 -3.2419  0.1182
  953SOL     OW 2857   2.534   1.787   0.205  0.5140  0.0542  0.3952
  953SOL    HW1 2858   2.528   1.688   0.214  1.1177  0.4150 -0.4726
  953SOL    HW2 2859   2.576   1.822   0.116  3.2395 -0.9323  2.1227
  954SOL     OW 2860   2.187   0.541   0.980 -0.3611  0.1617 -0.0813
  954SOL    HW1 2861   2.182   0.531   0.881  1.7888  0.7868  1.3262
  954SOL    HW2 2862   2.286   0.522   1.011 -1.7075  3.1153  1.2831
  955SOL     OW 2863   0.229   2.696   1.367 -0.8644  0.3219  0.3049
  955SOL    HW1 2864   0.128   2.679   1.394 -2.2790  1.3935  0.0483
  955SOL    HW2 2865   0.242   2.688   1.265  0.3185 -1.6000  1.9990
  956SOL     OW 2866   2.767   2.470   2.451  0.2698 -0.0870  0.1601
  956SOL    HW1 2867   2.798   2.378   2.409 -0.3923  3.3218 -0.9446
  956SOL    HW2 2868   2.818   2.551   2.405  1.2210  3.1257 -1.1839
  957SOL     OW 2869   1.571   2.000   2.735  0.4377  0.4392 -0.1333
  957SOL    HW1 2870   1.537   1.899   2.744  0.4814 -3.4187  0.0641
  957SOL    HW2 2871   1.582   2.022   2.636  1.2818  0.0344 -1.5794
  958SOL     OW 2872   2.718   2.330   2.964 -0.4363 -0.0566  0.2045
  958SOL    HW1 2873   2.621   2.352   2.936 -2.1368  0.6331 -0.9970
  958SOL    HW2 2874   2.734   2.275   3.049  2.2145  0.8943  0.7010
  959SOL     OW 2875   0.259   2.741   0.126  0.5312  0.2164 -0.1221
  959SOL    HW1 2876   0.162   2.754   0.092 -1.2433 -3.5600 -0.4958
  959SOL    HW2 2877   0.272   2.658   0.189  0.7552  0.1201 -1.4451
  960SOL     OW 2878   1.981   0.446   1.950 -0.1277  0.2313  0.0943
  960SOL    HW1 2879   1.932   0.526   1.912  1.1166 -1.8711 -1.3546
  960SOL    HW2 2880   1.975   0.436   2.056  0.6074 -0.1550  1.1423
  961SOL     OW 2881   2.572   1.841   1.028  0.0096  0.1817  0.0010
  961SOL    HW1 2882   2.525   1.918   0.975  0.8359  1.3351  3.2919
  961SOL    HW2 2883   2.555   1.842   1.129  0.5722  0.7959  0.2079
  962SOL     OW 2884   1.293   0.897   0.049  0.3967 -0.0310  0.1148
  962SOL    HW1 2885   1.261   0.950  -0.034  0.6840 -0.3865 -2.3829
  962SOL    HW2 2886   1.301   0.961   0.130  0.4180  2.5558 -2.2476
  963SOL     OW 2887   2.214   2.552   1.857  0.2233  0.3125  0.2615
  963SOL    HW1 2888   2.218   2.457   1.902 -0.8906 -1.2821 -2.5282
  963SOL    HW2 2889   2.269   2.625   1.914  2.7039 -1.2947 -0.3767
  964SOL     OW 2890   2.419   0.414   1.691  0.1986 -0.4470 -0.2225
  964SOL    HW1 2891   2.516   0.417   1.734 -0.9086 -3.3643  3.2289
  964SOL    HW2 2892   2.418   0.407   1.587 -2.0911 -0.5901  2.1395
  965SOL     OW 2893   2.603   3.083   0.193  0.0396  0.5085  0.3553
  965SOL    HW1 2894   2.648   3.044   0.105 -2.1337 -1.4065 -0.3498
  965SOL    HW2 2895   2.506   3.073   0.177  0.3923  1.8057 -1.2521
  966SOL     OW 2896   2.468   2.476   2.298  0.2562  0.4468 -0.4573
  966SOL    HW1 2897   2.387   2.447   2.360 -2.4389 -0.7364 -0.1431
  966SOL    HW2 2898   2.445   2.560   2.245  0.1063  1.5183  0.7143
  967SOL     OW 2899   2.823   2.790   2.473 -0.0835  0.2105  0.5192
  967SOL    HW1 2900   2.864   2.740   2.389 -0.5663  2.5305  0.6122
  967SOL    HW2 2901   2.897   2.843   2.521  0.6657  1.1605  0.2318
  968SOL     OW 2902   1.916   1.066   2.661  0.1832 -0.0155 -0.2226
  968SOL    HW1 2903   1.935   1.130   2.587  1.4226 -3.2098  3.0410
  968SOL    HW2 2904   1.859   0.989   2.634  0.4287  0.7592  0.1467
  969SOL     OW 2905   2.739   2.449   1.085  0.4056 -0.3588  0.0310
  969SOL    HW1 2906   2.673   2.416   1.009  1.0970 -0.4053  0.1732
  969SOL    HW2 2907   2.820   2.386   1.088  1.4015  2.4396  0.0201
  970SOL     OW 2908   1.053   2.128   1.771 -0.0623 -0.1052 -0.2972
  970SOL    HW1 2909   0.964   2.126   1.720 -1.5755 -1.5500  1.1047
  970SOL    HW2 2910   1.042   2.166   1.867  1.5632 -0.9543 -1.1097
  971SOL     OW 2911   2.804   2.107   1.883 -0.5654 -0.4402 -0.1128
  971SOL    HW1 2912   2.833   2.200   1.917  0.6547 -1.4572 -0.0239
  971SOL    HW2 2913   2.859   2.082   1.799  0.9122  1.4522  0.8731
  972SOL     OW 2914   2.046   2.378   0.215  0.3356  0.9636  0.3736
  972SOL    HW1 2915   2.006   2.303   0.152  0.4682 -0.9217 -0.2178
  972SOL    HW2 2916   2.047   2.352   0.318 -0.1227 -1.8135  1.0020
  973SOL     OW 2917   1.324   1.073   1.948 -0.3335  0.2981 -0.0308
  973SOL    HW1 2918   1.257   1.044   1.870 -1.8322 -3.7705 -0.2889
  973SOL    HW2 2919   1.295   1.160   1.997 -0.0251  2.2505  0.5722
  974SOL     OW 2920   1.599   0.608   1.952  0.3880  0.1667 -0.6434
  974SOL    HW1 2921   1.690   0.642   1.907 -0.6525  2.2763 -3.2064
  974SOL    HW2 2922   1.515   0.665   1.923 -0.7583 -0.5939  0.0325
  975SOL     OW 2923   2.372   3.033   0.041  0.2264  0.0665 -0.2183
  975SOL    HW1 2924   2.305   2.957   0.071 -0.7945  0.0974 -0.5070
  975SOL    HW2 2925   2.431   3.009  -0.038  1.3739  0.5489 -1.1481
  976SOL     OW 2926   1.937   2.887   2.355  0.1843 -0.4121 -0.0443
  976SOL    HW1 2927   1.861   2.839   2.311  1.1087 -0.8377 -1.3725
  976SOL    HW2 2928   1.951   2.851   2.452 -2.7785  2.8326 -1.7314
  977SOL     OW 2929   0.442   0.623   0.997 -0.4862 -0.3414  0.6521
  977SOL    HW1 2930   0.379   0.626   0.917  2.6414  1.4761  0.9695
  977SOL    HW2 2931   0.536   0.574   0.976  1.5452 -2.3218 -1.3915
   3.10000   3.10000   3.10000
