1000 SPC/Fw water molecules t=   1.85000 step= 1850
 2931
    1SOL     OW    1   2.509   0.327   2.667 -0.3419 -0.5755  0.7289
    1SOL    HW1    2   2.524   0.222   2.673  2.1289  0.2148 -1.8902
    1SOL    HW2    3   2.534   0.381   2.748  0.3089 -1.2474 -0.9134
    2SOL     OW    4   2.745   2.849   1.344  0.7176 -0.6598 -0.8845
    2SOL    HW1    5   2.824   2.862   1.282  3.3431 -1.4488 -1.5077
    2SOL    HW2    6   2.745   2.921   1.417  2.8184 -0.5200  0.7915
    3SOL     OW    7   2.735   2.448   0.432 -0.2848  0.2735  0.9350
    3SOL    HW1    8   2.648   2.390   0.427  0.5738  1.0410 -0.5476
    3SOL    HW2    9   2.739   2.501   0.522  3.7239 -0.4171  1.1582
    4SOL     OW   10   1.248   1.556   2.446 -0.6027  0.6992  0.4048
    4SOL    HW1   11   1.173   1.542   2.375  0.8602  2.9463 -0.8425
    4SOL    HW2   12   1.245   1.501   2.532  1.8052 -2.2447 -1.1812
    5SOL     OW   13   1.148   1.589   2.923  0.2902  0.1766 -0.5559
    5SOL    HW1   14   1.201   1.678   2.951 -1.3107 -0.4508  1.7430
    5SOL    HW2   15   1.060   1.612   2.868  0.7865  0.3804  2.7334
    6SOL     OW   16   0.175   1.841   0.038  0.4034 -0.0890 -0.3833
    6SOL    HW1   17   0.113   1.893   0.105 -1.5991  0.2087  1.5978
    6SOL    HW2   18   0.209   1.750   0.072 -3.7443 -2.5966  2.5780
    7SOL     OW   19   2.533   0.888   1.037  0.1603 -1.0526 -0.7588
    7SOL    HW1   20   2.440   0.863   1.076  0.2292  0.7433  0.0662
    7SOL    HW2   21   2.524   0.882   0.935  0.2205 -2.1239 -1.2026
    8SOL     OW   22   0.434   0.725   1.511  0.4796  0.6229  0.2071
    8SOL    HW1   23   0.531   0.691   1.526 -0.6352 -0.4576  0.7695
    8SOL    HW2   24   0.420   0.749   1.409 -0.3351  0.2925  0.0362
    9SOL     OW   25   1.085   0.905   2.350  0.5484 -0.3142 -0.4562
    9SOL    HW1   26   1.149   0.938   2.275 -2.8882  0.7226  2.4606
    9SOL    HW2   27   1.077   0.799   2.355 -3.3444 -0.9913  2.8514
   10SOL     OW   28   0.622   1.469   1.274 -0.9256  0.8101 -0.3129
   10SOL    HW1   29   0.544   1.452   1.212  0.8666 -0.4505 -0.5041
   10SOL    HW2   30   0.625   1.569   1.310 -1.3041  2.4635  0.3626
   11SOL     OW   31   2.324   2.826   0.938  0.5579 -0.2133  0.0328
   11SOL    HW1   32   2.260   2.805   1.024  0.6260  0.9537  2.1317
   11SOL    HW2   33   2.417   2.858   0.966 -2.0298  0.2855 -0.3510
   12SOL     OW   34   1.470   0.836   0.488 -0.4316  0.0232  0.4502
   12SOL    HW1   35   1.373   0.809   0.508 -0.1345 -3.1312 -2.9278
   12SOL    HW2   36   1.498   0.788   0.403 -0.5828 -1.5122 -0.3940
   13SOL     OW   37   2.437   0.749   1.811  0.0005 -0.1993  0.3480
   13SOL    HW1   38   2.375   0.686   1.871 -2.0515 -1.2506  1.1682
   13SOL    HW2   39   2.465   0.710   1.723  1.6567 -0.1249  2.0410
   14SOL     OW   40   1.937   3.046   0.619 -0.2181 -0.1568  0.8041
   14SOL    HW1   41   1.859   3.105   0.597 -0.3139 -0.6559  0.4003
   14SOL    HW2   42   1.953   3.034   0.722 -0.2164 -3.1113  2.0450
   15SOL     OW   43   1.909   2.125   2.671  0.1068 -0.5139 -0.1971
   15SOL    HW1   44   1.836   2.125   2.739 -2.3543  2.6374 -1.1592
   15SOL    HW2   45   1.902   2.046   2.604 -1.3945 -1.1582 -1.5648
   16SOL     OW   46   1.549   1.767   3.012 -0.1466 -0.3884 -0.6565
   16SOL    HW1   47   1.536   1.688   3.080  0.7034  0.2618  0.8198
   16SOL    HW2   48   1.638   1.826   3.019  2.9228 -0.5648 -2.4468
   17SOL     OW   49   0.084   0.466   0.184 -0.5400  0.0420  0.6048
   17SOL    HW1   50   0.176   0.438   0.141 -1.3995 -2.8440  0.0205
   17SOL    HW2   51   0.007   0.486   0.110 -0.9726 -1.2710 -2.8126
   18SOL     OW   52   0.866   2.839   2.196 -0.5292 -0.6153  0.7932
   18SOL    HW1   53   0.817   2.760   2.239 -1.1849  1.2128  0.3783
   18SOL    HW2   54   0.916   2.807   2.111 -2.1211 -0.1233  1.7653
   19SOL     OW   55   0.511   0.947   1.929 -0.3327 -0.7097  0.1773
   19SOL    HW1   56   0.538   0.885   2.009  0.8682 -1.8487  1.8527
   19SOL    HW2   57   0.590   1.001   1.887 -0.1437  2.7151  1.3948
   20SOL     OW   58   0.242   2.778   0.719 -0.3834 -0.0011  0.2113
   20SOL    HW1   59   0.136   2.781   0.718  0.8750 -0.6414 -0.0576
   20SOL    HW2   60   0.280   2.693   0.684 -2.0909  0.4264  0.1460
   21SOL     OW   61   2.788   0.280   1.992  0.7276 -0.1649 -0.4073
   21SOL    HW1   62   2.753   0.188   1.954 -0.0856 -1.7029 -0.0602
   21SOL    HW2   63   2.869   0.266   2.059  0.6863 -1.4463  1.0368
   22SOL     OW   64   2.415   0.190   0.110  0.3181  0.3907 -0.4819
   22SOL    HW1   65   2.436   0.092   0.071 -0.7321  1.7498  0.6209
   22SOL    HW2   66   2.333   0.245   0.063  0.1852  1.9163 -2.2681
   23SOL     OW   67   2.818   0.496   0.667 -0.0105 -0.6340  0.0888
   23SOL    HW1   68   2.910   0.452   0.639  1.8760  1.1184 -2.7082
   23SOL    HW2   69   2.817   0.601   0.645 -1.0904  2.1766 -0.5292
   24SOL     OW   70   0.286   1.926   0.452 -0.5771  0.2718  0.4422
   24SOL    HW1   71   0.278   1.999   0.382 -0.5582 -0.3946  1.3866
   24SOL    HW2   72   0.380   1.876   0.452 -0.4490  1.1133 -0.2843
   25SOL     OW   73   2.284   0.601   0.249 -0.4148 -0.1298  0.0408
   25SOL    HW1   74   2.272   0.588   0.145 -0.8581 -2.3127  0.0941
   25SOL    HW2   75   2.345   0.527   0.290 -0.5820 -0.2802  2.3921
   26SOL     OW   76   2.452   2.152   2.125  0.5061  0.1667  1.0970
   26SOL    HW1   77   2.523   2.221   2.158  1.7265 -0.0112  1.3133
   26SOL    HW2   78   2.481   2.096   2.039  1.2937 -0.0373 -0.3507
   27SOL     OW   79   0.643   3.005   0.139 -0.1218 -0.1626  0.4387
   27SOL    HW1   80   0.717   3.071   0.134  2.5020 -0.5431  0.5205
   27SOL    HW2   81   0.576   3.004   0.061 -1.1275 -0.1250  1.8016
   28SOL     OW   82   1.558   0.181   0.328 -0.5011  0.2111 -0.1995
   28SOL    HW1   83   1.597   0.122   0.254  0.1767  2.3943 -2.4431
   28SOL    HW2   84   1.632   0.250   0.358 -0.8181 -0.4992 -2.7314
   29SOL     OW   85   2.029   0.557   0.313  0.3568  0.0150 -0.1003
   29SOL    HW1   86   1.998   0.617   0.392 -1.5146 -0.7655 -1.8140
   29SOL    HW2   87   2.132   0.569   0.282  0.9775  0.5132 -1.8064
   30SOL     OW   88   0.201   2.140   0.887  0.8539  0.3003 -0.1752
   30SOL    HW1   89   0.196   2.047   0.837  1.8621 -1.0520 -2.2289
   30SOL    HW2   90   0.109   2.185   0.900 -0.6269 -0.2658  2.9821
   31SOL     OW   91   2.096   0.104   2.386  0.2272  0.3292 -0.5418
   31SOL    HW1   92   2.054   0.070   2.474 -0.1968  0.8547 -0.4697
   31SOL    HW2   93   2.055   0.069   2.299  1.1096 -1.8999  1.6639
   32SOL     OW   94   3.073   3.064   0.239  0.0920 -0.3121 -0.3604
   32SOL    HW1   95   3.036   2.970   0.269 -1.6313 -0.8083  0.2658
   32SOL    HW2   96   3.177   3.069   0.249  2.5055 -0.4167 -0.5234
   33SOL     OW   97   0.852   0.294   0.633 -0.1623  0.0199  0.2481
   33SOL    HW1   98   0.840   0.223   0.557 -0.3479 -0.9988 -0.4070
   33SOL    HW2   99   0.943   0.347   0.625  3.2152  2.8352  0.1578
   34SOL     OW  100   0.329   2.659   1.032  0.3612 -0.1060 -0.5064
   34SOL    HW1  101   0.275   2.678   0.948 -0.7674 -0.1227  2.2085
   34SOL    HW2  102   0.415   2.712   1.031  0.3227  0.2855 -0.3393
   35SOL     OW  103   0.095   0.214   1.881  0.2277  0.3777 -0.1501
   35SOL    HW1  104   0.132   0.136   1.935 -1.3862  1.2002 -1.6316
   35SOL    HW2  105   0.070   0.194   1.781  1.2379 -1.0875 -0.0813
   36SOL     OW  106   1.882   1.211   1.481 -0.1133  0.0438 -0.5592
   36SOL    HW1  107   1.968   1.165   1.522 -0.7926 -0.4562 -1.0504
   36SOL    HW2  108   1.904   1.302   1.439  1.2070  0.7823 -1.6052
   37SOL     OW  109   1.161   0.261   1.015  0.2333 -0.5180 -0.0404
   37SOL    HW1  110   1.188   0.363   1.007  0.2133  2.7333  0.8043
   37SOL    HW2  111   1.233   0.201   0.975 -0.7391 -0.8711 -0.0596
   38SOL     OW  112   1.126   2.792   2.442 -0.5315 -0.1573 -0.1430
   38SOL    HW1  113   1.056   2.749   2.508 -1.8212  0.0010 -0.6917
   38SOL    HW2  114   1.083   2.876   2.400 -1.1917  1.5222  0.4372
   39SOL     OW  115   2.461   1.400   2.988  0.1654  0.4747  0.1454
   39SOL    HW1  116   2.538   1.342   3.031  0.6985  1.5722 -0.0915
   39SOL    HW2  117   2.372   1.383   3.039 -1.2078 -1.6817 -0.2931
   40SOL     OW  118   2.054   2.498   2.519 -0.1791 -0.5873  0.8187
   40SOL    HW1  119   2.009   2.593   2.514 -4.2404  0.3649 -2.1964
   40SOL    HW2  120   1.992   2.419   2.493  1.9252  1.3731 -1.9695
   41SOL     OW  121   3.022   0.704   2.813 -0.1228 -0.0167 -0.1541
   41SOL    HW1  122   3.018   0.792   2.868 -0.5620 -1.0559 -2.2733
   41SOL    HW2  123   2.923   0.668   2.799 -1.3438  1.5598 -1.7945
   42SOL     OW  124   1.706   1.774   0.488  0.2618 -0.0189  0.0610
   42SOL    HW1  125   1.695   1.673   0.503  1.5537  0.3825  1.1459
   42SOL    HW2  126   1.719   1.798   0.389 -1.7371  0.5896 -0.9649
   43SOL     OW  127   0.462   1.718   1.119 -0.6883  1.1838  0.1879
   43SOL    HW1  128   0.460   1.618   1.084  0.5431 -0.5267 -1.0420
   43SOL    HW2  129   0.384   1.722   1.187 -1.3362 -0.2424  0.9984
   44SOL     OW  130   1.693   2.356   2.942  0.5074  0.1145  0.3433
   44SOL    HW1  131   1.616   2.412   2.977 -0.5058  0.0204 -1.0611
   44SOL    HW2  132   1.727   2.394   2.850 -0.9333 -2.9514 -1.4891
   45SOL     OW  133   0.359   1.935   2.634  0.3176  0.8900 -0.5602
   45SOL    HW1  134   0.304   1.928   2.545  0.5960 -0.5817  0.8266
   45SOL    HW2  135   0.411   1.842   2.649 -0.3167 -0.0782 -0.1347
   46SOL     OW  136   1.330   0.713   0.241 -0.0207 -0.2233  0.3071
   46SOL    HW1  137   1.312   0.815   0.212 -1.7072  3.3386  1.6234
   46SOL    HW2  138   1.276   0.647   0.181 -2.3836 -1.8409  0.5301
   47SOL     OW  139   0.140   2.361   1.591  0.2158 -0.6528 -0.1405
   47SOL    HW1  140   0.113   2.287   1.655 -1.4542  1.6601 -0.3710
   47SOL    HW2  141   0.140   2.340   1.489 -1.1740  0.8982 -0.0510
   48SOL     OW  142   2.635   0.725   0.135  0.1697 -0.7788 -0.3340
   48SOL    HW1  143   2.626   0.678   0.226  1.6864  1.7922  0.2916
   48SOL    HW2  144   2.733   0.741   0.107 -1.7936  0.4135  0.4548
   49SOL     OW  145   0.320   0.839   1.730 -0.0839 -0.2729 -0.5406
   49SOL    HW1  146   0.406   0.865   1.787  0.3827  2.5237  1.4183
   49SOL    HW2  147   0.347   0.819   1.631  2.8146 -1.5490  1.0331
   50SOL     OW  148   1.688   1.098   0.319 -0.1478  0.3982  0.1980
   50SOL    HW1  149   1.732   1.003   0.297 -0.9031  0.1159 -0.4506
   50SOL    HW2  150   1.660   1.105   0.420 -0.7616 -4.0714 -1.2704
   51SOL     OW  151   2.980   1.758   0.303 -0.8315 -0.3363 -0.0444
   51SOL    HW1  152   2.958   1.692   0.223 -0.1592 -1.8899 -0.9088
   51SOL    HW2  153   3.062   1.723   0.357  0.4141  0.9315 -0.0776
   52SOL     OW  154   0.787   2.167   0.577  0.4741  0.2672 -0.2127
   52SOL    HW1  155   0.686   2.156   0.549  0.1717  1.9221 -0.6048
   52SOL    HW2  156   0.829   2.089   0.630 -1.3052  0.0887 -0.8168
   53SOL     OW  157   0.287   0.464   1.463 -0.2208  0.1837  0.7261
   53SOL    HW1  158   0.325   0.559   1.489  2.5371  0.3387 -0.4639
   53SOL    HW2  159   0.290   0.447   1.360 -1.2849  1.5879 -0.8177
   54SOL     OW  160   1.731   0.421   0.006  0.6433  0.2128 -0.0575
   54SOL    HW1  161   1.813   0.379   0.055  0.0556  0.8576 -0.4845
   54SOL    HW2  162   1.641   0.418   0.061 -0.0968  0.3409 -0.8735
   55SOL     OW  163   0.789   2.924   0.632 -0.4084 -0.8874  0.4787
   55SOL    HW1  164   0.718   3.000   0.641  1.5961  1.0768  1.2852
   55SOL    HW2  165   0.883   2.949   0.596  0.5725 -1.9472  1.1310
   56SOL     OW  166   0.530   1.570   3.018 -0.2661  0.7320  0.2229
   56SOL    HW1  167   0.454   1.595   3.078  2.5266 -0.5265 -0.5422
   56SOL    HW2  168   0.514   1.479   2.965  3.3546  1.1048 -0.1167
   57SOL     OW  169   1.705   2.464   2.355 -0.3900  0.2711  0.0062
   57SOL    HW1  170   1.780   2.390   2.360  0.4502  0.8737  2.3138
   57SOL    HW2  171   1.661   2.471   2.448  2.6324  2.0836  1.2382
   58SOL     OW  172   0.630   0.193   1.074  0.2734 -0.2527 -0.3723
   58SOL    HW1  173   0.548   0.207   1.139  1.7401 -0.6894 -2.0023
   58SOL    HW2  174   0.652   0.093   1.071 -0.1015  0.0216 -2.6955
   59SOL     OW  175   0.463   2.379   2.565 -0.2898 -0.3927  0.6135
   59SOL    HW1  176   0.493   2.287   2.597  2.8039  1.3561 -3.2758
   59SOL    HW2  177   0.533   2.457   2.588  0.2515  1.6665  1.9863
   60SOL     OW  178   2.314   2.058   2.323  0.2480  0.7112  0.8248
   60SOL    HW1  179   2.378   2.093   2.242 -0.6905  1.0543 -1.4702
   60SOL    HW2  180   2.316   2.120   2.407 -1.1558 -1.0389  1.3932
   61SOL     OW  181   1.210   0.638   0.489 -0.2403 -0.0522  0.0624
   61SOL    HW1  182   1.112   0.658   0.514  0.7198  0.3014 -1.0610
   61SOL    HW2  183   1.229   0.672   0.389  0.7708  0.5219  0.5496
   62SOL     OW  184   2.807   1.677   2.695  0.1570  0.0600 -0.2506
   62SOL    HW1  185   2.729   1.618   2.738 -2.1340  1.6463  0.7786
   62SOL    HW2  186   2.885   1.694   2.761 -0.2210  2.2382  0.1504
   63SOL     OW  187   0.551   0.842   0.178 -0.1435 -0.6018  0.8901
   63SOL    HW1  188   0.617   0.900   0.123  1.7625 -1.0683 -0.2323
   63SOL    HW2  189   0.580   0.836   0.275 -1.0491 -0.4397  0.1119
   64SOL     OW  190   3.015   0.555   2.380  0.2880  0.6606 -0.0429
   64SOL    HW1  191   2.961   0.595   2.466 -1.5571  0.2273  1.3497
   64SOL    HW2  192   3.029   0.624   2.301  0.1762  1.5609  1.5432
   65SOL     OW  193   0.177   1.431   0.633 -0.6736  0.5233 -0.0652
   65SOL    HW1  194   0.174   1.488   0.716  0.4630 -0.7570 -0.6621
   65SOL    HW2  195   0.242   1.461   0.558  1.0578  0.1913 -0.3178
   66SOL     OW  196   2.589   0.318   0.507  0.2024  0.0021  0.1623
   66SOL    HW1  197   2.692   0.313   0.507  1.5140 -1.5484 -0.7904
   66SOL    HW2  198   2.546   0.243   0.564 -0.4787 -4.1829  2.9185
   67SOL     OW  199   0.574   2.506   1.519 -0.1325  0.3764  0.0679
   67SOL    HW1  200   0.669   2.479   1.538 -1.6617 -0.2181 -0.0764
   67SOL    HW2  201   0.516   2.419   1.500 -1.2043 -1.0539  3.1939
   68SOL     OW  202   0.918   1.026   2.502 -0.2969 -0.2748  0.4087
   68SOL    HW1  203   0.993   0.966   2.451  1.2245 -3.0802  2.1426
   68SOL    HW2  204   0.867   1.084   2.433  1.8319 -0.1836 -0.9999
   69SOL     OW  205   0.760   2.603   2.343 -0.5149  0.4372 -0.6971
   69SOL    HW1  206   0.817   2.546   2.278 -1.4136  1.3075  0.7766
   69SOL    HW2  207   0.660   2.566   2.342 -0.3483 -1.8475 -1.7738
   70SOL     OW  208   0.525   0.165   2.573  0.6045  0.4998 -0.4248
   70SOL    HW1  209   0.438   0.147   2.625  1.9208 -0.1011 -0.1905
   70SOL    HW2  210   0.585   0.080   2.569 -1.4907 -0.5351  0.4967
   71SOL     OW  211   1.072   1.748   0.303  0.2743 -0.1583  0.4469
   71SOL    HW1  212   1.008   1.781   0.380 -0.8156  1.5421  1.0424
   71SOL    HW2  213   1.032   1.778   0.213  0.9036 -0.2039 -0.7919
   72SOL     OW  214   1.858   0.237   2.153  0.0841 -0.7639 -0.1946
   72SOL    HW1  215   1.897   0.312   2.096  0.2208 -0.5223  2.9286
   72SOL    HW2  216   1.894   0.146   2.135 -1.1395  1.0202  0.8794
   73SOL     OW  217   2.751   2.197   2.471  0.0189  0.2343 -0.4370
   73SOL    HW1  218   2.748   2.094   2.439  0.9571 -1.0636 -0.6326
   73SOL    HW2  219   2.797   2.190   2.566  4.0646 -1.8652 -1.1749
   74SOL     OW  220   2.675   2.967   2.149 -0.2890  0.0548 -0.4189
   74SOL    HW1  221   2.595   2.941   2.212 -3.8955  1.3411  1.6295
   74SOL    HW2  222   2.749   3.023   2.196  0.0290 -0.0270  1.5091
   75SOL     OW  223   0.930   0.789   1.169  0.0183  0.6080  0.1488
   75SOL    HW1  224   0.827   0.804   1.154  1.3102 -1.8800 -2.9393
   75SOL    HW2  225   0.979   0.859   1.228  1.5837  0.4062 -1.0444
   76SOL     OW  226   1.845   1.265   2.618  0.1380  0.0968 -0.2609
   76SOL    HW1  227   1.763   1.233   2.670  2.0128  0.5032 -2.8130
   76SOL    HW2  228   1.853   1.367   2.634 -3.8910 -0.8493 -1.8828
   77SOL     OW  229   2.937   0.901   1.030  0.5395 -0.1190  0.0852
   77SOL    HW1  230   2.891   0.812   1.058 -0.5745  0.0214 -0.5063
   77SOL    HW2  231   3.034   0.910   1.069  0.1568 -2.0154 -0.3824
   78SOL     OW  232   1.952   1.447   1.330  0.2771  0.2770 -0.5753
   78SOL    HW1  233   2.043   1.429   1.285 -1.1025  2.7099 -0.1548
   78SOL    HW2  234   1.873   1.463   1.260 -2.0809  0.4063 -1.2206
   79SOL     OW  235   0.657   1.475   0.839 -0.9148  0.3925  0.1317
   79SOL    HW1  236   0.563   1.432   0.833  3.4886 -0.5543 -1.7320
   79SOL    HW2  237   0.732   1.406   0.818  0.9578  3.1681  2.5619
   80SOL     OW  238   0.691   0.479   1.587  0.3024 -0.2185 -0.8254
   80SOL    HW1  239   0.682   0.524   1.494 -1.1312  2.4591  1.2128
   80SOL    HW2  240   0.674   0.379   1.584  0.0394 -1.9595  1.6370
   81SOL     OW  241   1.055   1.298   2.485 -0.2962 -0.1542 -0.3767
   81SOL    HW1  242   0.968   1.249   2.480 -0.2131  0.7583 -2.4612
   81SOL    HW2  243   1.124   1.267   2.417  0.8260 -0.3499  0.6957
   82SOL     OW  244   0.942   2.938   1.623 -0.1729  0.0513  0.4965
   82SOL    HW1  245   0.961   2.852   1.562  1.8191 -0.9797  0.4232
   82SOL    HW2  246   0.998   3.017   1.590  1.0917 -3.3304  0.6769
   83SOL     OW  247   2.620   2.343   0.911  0.1313  0.2035 -0.0203
   83SOL    HW1  248   2.530   2.302   0.867 -1.1790 -1.1961 -0.7617
   83SOL    HW2  249   2.622   2.445   0.910  0.0532  0.2359 -0.9121
   84SOL     OW  250   0.749   3.074   2.327 -0.0680 -0.1699 -0.3356
   84SOL    HW1  251   0.735   3.081   2.431  0.5932  0.7981  1.7689
   84SOL    HW2  252   0.773   2.976   2.293 -1.3247  1.5044 -0.1419
   85SOL     OW  253   0.295   1.690   1.349 -0.6516  0.0283 -0.3681
   85SOL    HW1  254   0.225   1.746   1.396 -1.9514 -1.1753  2.5688
   85SOL    HW2  255   0.355   1.645   1.419  0.1232  0.4455 -1.8976
   86SOL     OW  256   0.472   1.059   1.402  0.1450  0.0964 -0.1596
   86SOL    HW1  257   0.448   1.004   1.319  0.0527  0.4820 -1.0437
   86SOL    HW2  258   0.559   1.017   1.453 -0.1814  1.5557  2.8326
   87SOL     OW  259   1.627   0.651   0.353 -0.5673  0.3673  0.3359
   87SOL    HW1  260   1.691   0.732   0.359 -0.0258  0.5964  3.6979
   87SOL    HW2  261   1.612   0.620   0.258 -0.4143  0.2506 -0.9624
   88SOL     OW  262   1.549   1.326   0.252 -0.3507  0.3446  0.5873
   88SOL    HW1  263   1.607   1.247   0.274  1.6755 -0.8742 -0.9095
   88SOL    HW2  264   1.447   1.296   0.245 -3.5477 -0.6069  1.4262
   89SOL     OW  265   3.081   0.362   0.683 -0.6298 -0.6594 -0.5908
   89SOL    HW1  266   3.181   0.336   0.668  0.6353  0.6604 -1.3628
   89SOL    HW2  267   3.022   0.283   0.652 -0.5162 -0.1337  1.1391
   90SOL     OW  268   0.750   1.559   0.115  0.1410  0.3291  0.0952
   90SOL    HW1  269   0.851   1.537   0.125  1.3379  1.0270 -0.6248
   90SOL    HW2  270   0.707   1.536   0.023 -0.5036  1.5295 -0.1519
   91SOL     OW  271   1.292   1.518   1.691 -0.6887  0.3028 -0.2560
   91SOL    HW1  272   1.266   1.570   1.779 -0.0793  1.1351 -2.4286
   91SOL    HW2  273   1.385   1.465   1.696 -1.2870  1.8974  0.2090
   92SOL     OW  274   0.066   0.980   1.174  0.2661 -0.2506 -0.4088
   92SOL    HW1  275   0.104   1.059   1.123 -2.8946 -2.2906  0.2833
   92SOL    HW2  276   0.093   0.982   1.274 -0.6421  0.0263 -3.8851
   93SOL     OW  277   3.037   2.651   0.057 -0.0429  0.1926 -0.0542
   93SOL    HW1  278   3.029   2.666  -0.048 -2.1023  0.6858  0.1969
   93SOL    HW2  279   3.122   2.591   0.087  1.8204  1.6628  0.1920
   94SOL     OW  280   1.536   1.383   1.651  0.5405  0.8007 -0.5728
   94SOL    HW1  281   1.591   1.307   1.701 -0.0412  0.1631 -1.6022
   94SOL    HW2  282   1.591   1.461   1.611 -0.0960  1.5119 -0.0654
   95SOL     OW  283   1.377   2.476   2.938  0.3998  0.2884  0.0043
   95SOL    HW1  284   1.282   2.493   2.969  3.1210 -0.1099  0.1223
   95SOL    HW2  285   1.383   2.381   2.893 -1.4007 -1.4326  0.1023
   96SOL     OW  286   0.584   2.164   1.267  0.6041  0.0814 -0.0904
   96SOL    HW1  287   0.545   2.134   1.174 -0.1341  0.9039  0.1173
   96SOL    HW2  288   0.614   2.084   1.325 -0.4285 -0.6141  1.1036
   97SOL     OW  289   0.263   1.601   2.397  0.3297  0.3947  0.3837
   97SOL    HW1  290   0.300   1.698   2.373  0.9247 -1.6370 -0.2644
   97SOL    HW2  291   0.253   1.598   2.502  0.6675  3.8391  0.0139
   98SOL     OW  292   2.246   1.680   1.203  0.8996  0.1010  0.7222
   98SOL    HW1  293   2.205   1.588   1.178 -1.6889 -1.1173 -1.8573
   98SOL    HW2  294   2.342   1.701   1.161  0.3843  0.4047 -1.5812
   99SOL     OW  295   2.638   2.074   1.279  0.2476  0.4401 -1.0499
   99SOL    HW1  296   2.672   2.152   1.336 -1.4985 -2.7131 -2.2841
   99SOL    HW2  297   2.599   1.997   1.341  0.1507  1.1559  0.0731
  100SOL     OW  298   2.333   0.373   2.111  0.0690  0.6065 -0.0293
  100SOL    HW1  299   2.306   0.371   2.211  0.9702  0.1522  0.4807
  100SOL    HW2  300   2.436   0.397   2.097  3.0811 -0.4087 -1.7526
  101SOL     OW  301   0.332   1.517   0.411 -0.3497 -0.1315 -0.7336
  101SOL    HW1  302   0.369   1.595   0.464 -1.3557  0.0566  1.1069
  101SOL    HW2  303   0.391   1.499   0.331 -1.1571 -1.5071 -0.8786
  102SOL     OW  304   2.287   1.051   0.886  0.3253 -0.3419 -0.0693
  102SOL    HW1  305   2.267   0.946   0.884  0.5958 -1.5793  0.3968
  102SOL    HW2  306   2.362   1.081   0.828 -0.9486  0.2046  2.9466
  103SOL     OW  307   2.261   0.059   0.376 -0.1151 -0.2040 -0.0308
  103SOL    HW1  308   2.328   0.138   0.342  0.5400 -1.3336 -0.9992
  103SOL    HW2  309   2.318  -0.021   0.413  0.8090 -0.7600 -2.5414
  104SOL     OW  310   3.090   1.812   2.191  1.3443  0.1319 -0.5729
  104SOL    HW1  311   3.141   1.826   2.103 -0.1525 -1.8896  0.4968
  104SOL    HW2  312   2.983   1.824   2.187 -2.1485  0.2303  0.0521
  105SOL     OW  313   1.285   2.091   0.784 -0.2537 -0.1603  0.2184
  105SOL    HW1  314   1.252   2.158   0.711 -1.5745  1.4291 -0.0068
  105SOL    HW2  315   1.283   1.989   0.758 -0.1113 -0.4062  0.9463
  106SOL     OW  316   2.133   0.414   1.439  0.1848 -0.2025  0.0665
  106SOL    HW1  317   2.040   0.378   1.415  1.4261  2.6788  1.2192
  106SOL    HW2  318   2.157   0.378   1.534 -0.5995 -0.6186 -0.8921
  107SOL     OW  319   1.918   2.915   1.163  0.3337 -0.2505  0.1864
  107SOL    HW1  320   1.859   2.991   1.195 -1.9442 -1.9705  1.1782
  107SOL    HW2  321   1.868   2.828   1.131 -1.2665 -0.3341  0.6219
  108SOL     OW  322   0.879   2.778   1.080  0.6551 -0.3872 -0.2281
  108SOL    HW1  323   0.915   2.702   1.023  0.1906 -0.4820 -0.4511
  108SOL    HW2  324   0.950   2.824   1.139 -0.5139  1.6963 -2.0604
  109SOL     OW  325   2.191   0.137   0.740  0.1829 -0.6898  0.1580
  109SOL    HW1  326   2.122   0.077   0.695 -0.1590 -0.8450 -0.0461
  109SOL    HW2  327   2.168   0.164   0.839  0.4351 -0.3596  0.6016
  110SOL     OW  328   0.504   2.831   2.738  0.0588  0.3402  0.1104
  110SOL    HW1  329   0.511   2.819   2.633  0.8707  1.3680 -1.0151
  110SOL    HW2  330   0.555   2.761   2.792  2.3340  0.7292  1.0083
  111SOL     OW  331   1.330   0.622   2.345 -0.4438  0.2644  0.6420
  111SOL    HW1  332   1.229   0.630   2.363 -0.0410 -1.7700  2.2425
  111SOL    HW2  333   1.375   0.531   2.378  2.1248  0.3564  2.8151
  112SOL     OW  334   1.749   0.535   1.531  0.4994  0.2361 -0.0526
  112SOL    HW1  335   1.744   0.586   1.443 -0.2987  1.5213  1.1094
  112SOL    HW2  336   1.649   0.498   1.557 -1.9898 -2.2337 -1.5686
  113SOL     OW  337   2.258   1.688   1.793  0.2704 -0.2740 -0.2577
  113SOL    HW1  338   2.317   1.617   1.752 -1.3741  1.3806  0.1571
  113SOL    HW2  339   2.281   1.710   1.893  0.7808  1.8050 -0.0717
  114SOL     OW  340   0.288   0.417   1.160  0.4082  0.5080  0.2407
  114SOL    HW1  341   0.193   0.434   1.129  1.5022  1.0928 -0.2126
  114SOL    HW2  342   0.366   0.451   1.094  0.1194  0.6927  0.9051
  115SOL     OW  343   2.682   1.532   1.260  0.3599  0.3313  0.3795
  115SOL    HW1  344   2.684   1.435   1.299  2.6642  0.4531  0.0195
  115SOL    HW2  345   2.774   1.557   1.213  2.3527  0.7980 -0.9812
  116SOL     OW  346   1.897   0.926   0.664 -0.3243  0.2753 -0.5830
  116SOL    HW1  347   1.800   0.884   0.663 -0.5457 -3.0918 -2.7494
  116SOL    HW2  348   1.900   1.021   0.716  0.3309  1.9510  0.0009
  117SOL     OW  349   1.126   0.367   0.568 -0.3425  0.4819 -0.6210
  117SOL    HW1  350   1.141   0.467   0.567 -2.0647 -2.0325  2.6141
  117SOL    HW2  351   1.110   0.332   0.472 -2.3055 -1.4820 -0.0225
  118SOL     OW  352   1.143   1.235   1.091  0.1016  0.3517  0.6409
  118SOL    HW1  353   1.072   1.209   1.161  1.2790 -0.6231 -0.2880
  118SOL    HW2  354   1.200   1.321   1.116  2.2218  3.3489  2.2949
  119SOL     OW  355   1.884   1.609   2.191  0.0631 -0.1535  0.8780
  119SOL    HW1  356   1.836   1.686   2.136 -0.5746 -0.7828  2.4080
  119SOL    HW2  357   1.979   1.582   2.159  1.2613 -1.3228  0.4627
  120SOL     OW  358   2.961   2.814   0.287  0.4263 -0.0409  0.3705
  120SOL    HW1  359   2.961   2.740   0.213  1.9309  0.6098 -1.4529
  120SOL    HW2  360   2.877   2.815   0.345 -1.3817 -0.4737  2.5377
  121SOL     OW  361   1.998   0.796   2.328  0.8050  0.1856 -0.3303
  121SOL    HW1  362   2.042   0.881   2.280 -1.0895  2.1137 -1.4034
  121SOL    HW2  363   2.034   0.706   2.291 -0.9221  1.8587 -0.6102
  122SOL     OW  364   2.605   2.483   1.377 -0.5101 -0.2674  0.4964
  122SOL    HW1  365   2.654   2.440   1.299 -0.3624  2.1369 -0.0412
  122SOL    HW2  366   2.615   2.427   1.466  0.1945 -2.2392  2.1054
  123SOL     OW  367   1.636   0.199   1.639 -0.0773  0.1788  0.1680
  123SOL    HW1  368   1.672   0.111   1.595 -0.0464 -0.4776 -2.3849
  123SOL    HW2  369   1.709   0.249   1.695  2.0419  0.8708 -2.1509
  124SOL     OW  370   3.039   0.396   1.145 -0.3134 -0.1258 -0.0257
  124SOL    HW1  371   2.959   0.440   1.197  0.3756 -0.3606  2.2314
  124SOL    HW2  372   3.073   0.449   1.067 -0.8533 -0.8311 -1.9471
  125SOL     OW  373   0.902   1.959   0.742  0.5126 -0.7953 -0.3864
  125SOL    HW1  374   0.987   1.915   0.780  0.5238 -1.9952 -1.3597
  125SOL    HW2  375   0.825   1.991   0.812  0.8456 -1.9173 -0.9568
  126SOL     OW  376   1.903   2.300   2.411  0.3354 -0.1419 -0.0735
  126SOL    HW1  377   1.966   2.258   2.341  2.3948 -2.1537  1.0343
  126SOL    HW2  378   1.894   2.240   2.495 -0.0743 -1.2270 -0.2113
  127SOL     OW  379   0.927   0.951   0.173  0.5222 -0.4168  0.0535
  127SOL    HW1  380   0.922   1.005   0.263 -0.9460 -0.6834  2.1826
  127SOL    HW2  381   0.937   0.849   0.193  0.9430  0.4842  0.0378
  128SOL     OW  382   0.905   0.181   1.378 -0.3443 -0.0079  0.3147
  128SOL    HW1  383   0.865   0.266   1.329 -1.4170 -2.1288 -0.2453
  128SOL    HW2  384   0.838   0.099   1.364 -0.8396  2.3967 -0.0987
  129SOL     OW  385   1.892   0.699   1.876  0.0514 -0.3517 -0.1128
  129SOL    HW1  386   1.884   0.687   1.771 -0.4085 -0.6388  1.4150
  129SOL    HW2  387   1.912   0.796   1.902  0.6912  0.9483 -1.3725
  130SOL     OW  388   1.388   2.172   1.018  0.0706  0.7319  0.3336
  130SOL    HW1  389   1.346   2.137   0.930  1.0827 -0.9615 -0.3825
  130SOL    HW2  390   1.448   2.257   1.003  0.8186 -0.0486 -2.0603
  131SOL     OW  391   3.046   1.386   1.437  0.4352 -0.1155 -0.3383
  131SOL    HW1  392   3.004   1.284   1.430  0.3414  1.1568  1.0720
  131SOL    HW2  393   3.147   1.395   1.421 -1.2406 -1.3300 -3.1127
  132SOL     OW  394   2.064   2.437   0.554 -0.0729  0.0254  0.1448
  132SOL    HW1  395   1.963   2.467   0.544 -2.0720 -0.9422  1.9160
  132SOL    HW2  396   2.074   2.359   0.617  0.2984  1.5893 -2.9629
  133SOL     OW  397   1.756   2.490   2.706 -0.6362  0.0935  0.0945
  133SOL    HW1  398   1.657   2.478   2.668  0.1451  0.9958  2.7416
  133SOL    HW2  399   1.768   2.583   2.746  3.0014 -0.8169 -1.7614
  134SOL     OW  400   2.603   2.403   1.648 -0.4661 -0.3947  0.0215
  134SOL    HW1  401   2.533   2.385   1.722 -0.5801 -0.2419  1.8500
  134SOL    HW2  402   2.641   2.498   1.656  0.3845  0.4646  1.0752
  135SOL     OW  403   0.808   1.332   2.682 -0.3496 -0.5592 -0.2316
  135SOL    HW1  404   0.730   1.288   2.734  0.0053 -0.5363  0.5554
  135SOL    HW2  405   0.787   1.349   2.579 -0.5657  1.1232 -4.2444
  136SOL     OW  406   1.208   2.002   0.426 -0.3364  0.0787 -0.0809
  136SOL    HW1  407   1.144   2.076   0.458  0.6424 -0.9894 -0.0934
  136SOL    HW2  408   1.162   1.919   0.391  0.5512  1.1046 -0.3661
  137SOL     OW  409   0.463   1.164   2.276 -0.3687 -0.5394 -0.2855
  137SOL    HW1  410   0.359   1.153   2.276  0.6386 -1.9306 -1.3985
  137SOL    HW2  411   0.512   1.079   2.320  0.7289 -0.3237  1.3165
  138SOL     OW  412   2.423   1.485   0.276  0.0077  0.0404  0.3097
  138SOL    HW1  413   2.349   1.455   0.207  1.5094 -1.1279 -2.2843
  138SOL    HW2  414   2.501   1.425   0.287  0.5545  2.6412 -1.2949
  139SOL     OW  415   1.906   2.644   1.565  0.4538 -0.1350  0.3008
  139SOL    HW1  416   1.813   2.671   1.529  2.4551 -0.4052  1.8829
  139SOL    HW2  417   1.955   2.580   1.500 -3.2068 -1.9522 -0.4632
  140SOL     OW  418   3.037   2.996   2.636  0.7955  0.7730  0.4348
  140SOL    HW1  419   3.055   2.898   2.628  0.6468  3.3321 -0.3441
  140SOL    HW2  420   3.085   3.052   2.569 -3.5402 -0.5973 -2.9504
  141SOL     OW  421   1.276   1.641   1.423 -0.5058  0.0783  0.0475
  141SOL    HW1  422   1.187   1.676   1.389  1.2951 -1.1938  1.6443
  141SOL    HW2  423   1.260   1.583   1.508  2.7742 -0.0818  0.6611
  142SOL     OW  424   1.586   0.643   2.245  0.0038 -0.2121 -0.1723
  142SOL    HW1  425   1.579   0.659   2.140  1.5243 -1.7977 -1.3672
  142SOL    HW2  426   1.492   0.634   2.291 -0.5195  1.7765  1.0108
  143SOL     OW  427   2.805   0.784   0.563  0.3634  0.3496  0.2439
  143SOL    HW1  428   2.841   0.837   0.478  2.3434 -0.8982 -2.9214
  143SOL    HW2  429   2.817   0.840   0.648 -0.0536  1.4542 -1.7324
  144SOL     OW  430   2.918   1.114   1.427  0.2218 -0.5778 -0.2661
  144SOL    HW1  431   2.870   1.104   1.518  0.2680  2.5928 -2.4282
  144SOL    HW2  432   3.007   1.060   1.423  1.5344  0.6035  0.3788
  145SOL     OW  433   0.951   1.806   0.052  0.1943  0.7853 -0.4426
  145SOL    HW1  434   0.974   1.855  -0.037  2.2414 -0.7551  1.2310
  145SOL    HW2  435   0.906   1.716   0.036  1.1361  1.1427 -0.6785
  146SOL     OW  436   2.494   0.636   1.529 -0.2264 -0.0758  0.2303
  146SOL    HW1  437   2.486   0.545   1.483 -1.5523 -2.4068  1.3719
  146SOL    HW2  438   2.407   0.696   1.517 -0.4576 -3.5843 -0.4846
  147SOL     OW  439   1.104   2.519   0.546 -0.8012  0.1123 -0.0946
  147SOL    HW1  440   1.037   2.557   0.476 -0.6447 -1.5580  0.5614
  147SOL    HW2  441   1.192   2.494   0.500 -0.5532 -1.8892 -0.0010
  148SOL     OW  442   1.577   1.405   3.094 -0.0792  0.0114  0.3612
  148SOL    HW1  443   1.614   1.311   3.064 -1.3494 -0.4032 -1.4825
  148SOL    HW2  444   1.565   1.410   3.196 -0.4205  1.2110  1.6069
  149SOL     OW  445   0.707   1.484   1.998 -0.1273 -0.5726  0.1294
  149SOL    HW1  446   0.631   1.456   2.063 -0.7586  1.1099 -0.4532
  149SOL    HW2  447   0.693   1.446   1.898  0.0672 -1.7800 -0.9819
  150SOL     OW  448   2.959   1.210   1.020 -0.4173 -0.0281 -0.1373
  150SOL    HW1  449   3.058   1.201   1.052 -0.5054  0.6587  1.2331
  150SOL    HW2  450   2.918   1.126   0.982 -0.1189  4.3181  2.6220
  151SOL     OW  451   0.161   0.828   2.099 -0.0722  0.0885  0.2683
  151SOL    HW1  452   0.174   0.927   2.069 -2.2920  0.5639  0.6847
  151SOL    HW2  453   0.223   0.761   2.051 -0.5813 -2.0351  1.1924
  152SOL     OW  454   1.444   1.881   1.110  0.0790  0.1544  0.2500
  152SOL    HW1  455   1.495   1.965   1.077 -2.2349  1.4972 -0.4827
  152SOL    HW2  456   1.337   1.895   1.108 -2.2958 -0.0681 -1.8798
  153SOL     OW  457   0.054   1.506   0.264  0.1287  0.2097 -0.0534
  153SOL    HW1  458  -0.015   1.434   0.296 -1.1875 -0.9562  1.6555
  153SOL    HW2  459   0.118   1.526   0.341  0.0818  0.4270 -0.3342
  154SOL     OW  460   2.263   1.861   2.783  0.0505  0.5246 -0.2162
  154SOL    HW1  461   2.294   1.759   2.797 -0.3448 -0.4231  1.9275
  154SOL    HW2  462   2.327   1.914   2.721 -0.8025  0.0286  1.7016
  155SOL     OW  463   2.623   1.314   0.365  0.3364  0.6339 -0.2603
  155SOL    HW1  464   2.666   1.391   0.422  0.5859  1.8176 -1.6514
  155SOL    HW2  465   2.694   1.274   0.304 -0.1592  2.0102 -2.5394
  156SOL     OW  466   2.497   0.812   0.777  0.6864  0.1717  0.1513
  156SOL    HW1  467   2.393   0.803   0.789 -0.3205  0.9040  2.6355
  156SOL    HW2  468   2.525   0.845   0.677  2.6390 -0.5065 -1.9891
  157SOL     OW  469   1.222   3.087   3.019 -0.3404  0.0834  0.0553
  157SOL    HW1  470   1.292   3.052   2.948  3.5468  0.7968 -0.2378
  157SOL    HW2  471   1.260   3.168   3.066  0.9132  0.9530 -1.1841
  158SOL     OW  472   1.082   1.882   1.864 -0.5601 -0.9136  0.0598
  158SOL    HW1  473   1.099   1.978   1.830 -1.5022  0.9276 -3.1605
  158SOL    HW2  474   1.005   1.873   1.929  1.9390 -0.2248 -1.4854
  159SOL     OW  475   0.803   0.385   1.229  0.0171 -0.4640 -0.7569
  159SOL    HW1  476   0.749   0.462   1.281 -2.9743 -2.5055  0.0890
  159SOL    HW2  477   0.754   0.343   1.149  0.8031  3.1281 -0.3234
  160SOL     OW  478   1.375   2.469   1.428 -0.1403  0.2198  0.5203
  160SOL    HW1  479   1.341   2.395   1.493 -0.7095 -1.0845 -0.1898
  160SOL    HW2  480   1.472   2.448   1.397  0.8414  0.5149 -0.3887
  161SOL     OW  481   0.063   2.649   0.411 -0.1807  0.3838 -0.3186
  161SOL    HW1  482   0.007   2.562   0.436  1.1240  0.4526 -0.8476
  161SOL    HW2  483   0.001   2.733   0.385 -0.3240  0.8795 -2.2021
  162SOL     OW  484   2.527   1.938   0.451  0.0978 -0.3132  0.5219
  162SOL    HW1  485   2.596   1.933   0.376  0.0396  0.1624  2.1332
  162SOL    HW2  486   2.487   1.849   0.473  3.7852  0.8621 -2.2616
  163SOL     OW  487   1.935   2.711   0.805 -0.8198 -0.5497  0.3638
  163SOL    HW1  488   1.920   2.720   0.701  0.8484 -2.3078 -1.7551
  163SOL    HW2  489   2.021   2.660   0.835  0.8855 -1.7368  1.2956
  164SOL     OW  490   3.042   0.152   1.243 -0.1259  0.2496  0.0317
  164SOL    HW1  491   3.065   0.243   1.205  3.7248 -1.2826  1.2106
  164SOL    HW2  492   3.103   0.121   1.322  0.5958  1.2031 -0.1421
  165SOL     OW  493   1.110   1.409   0.659 -0.0822 -0.1623  0.0069
  165SOL    HW1  494   1.117   1.473   0.744  1.6105  1.4235  0.3391
  165SOL    HW2  495   1.042   1.434   0.585 -0.7443 -0.5113  2.2547
  166SOL     OW  496   1.557   0.955   1.821  0.0032 -1.4455  0.0653
  166SOL    HW1  497   1.464   1.000   1.852 -1.3034  0.6503  0.3322
  166SOL    HW2  498   1.623   1.030   1.794  0.8309 -0.3953  0.1895
  167SOL     OW  499   0.673   2.025   1.516  0.1193  0.0087  0.0398
  167SOL    HW1  500   0.717   2.093   1.577  0.5446  0.2312 -1.1515
  167SOL    HW2  501   0.603   1.963   1.563  1.6202 -1.8164 -1.2405
  168SOL     OW  502   1.654   2.301   0.128  0.6732  0.3339  0.0605
  168SOL    HW1  503   1.720   2.299   0.050  0.2119  0.5431 -0.4617
  168SOL    HW2  504   1.695   2.268   0.221  1.2403 -2.3195  2.9885
  169SOL     OW  505   3.050   2.599   2.163 -0.3275 -0.2101 -0.5075
  169SOL    HW1  506   3.051   2.554   2.070  0.3438 -3.9064 -0.9691
  169SOL    HW2  507   3.108   2.553   2.233  0.7659  1.2499 -1.4853
  170SOL     OW  508   1.181   0.142   2.101 -0.2729  0.2280  0.1292
  170SOL    HW1  509   1.272   0.166   2.141 -1.8890 -1.0521  0.7499
  170SOL    HW2  510   1.178   0.134   1.995  0.4283 -0.8104  0.0461
  171SOL     OW  511   0.198   0.863   2.445 -0.4246  0.2263 -0.4295
  171SOL    HW1  512   0.105   0.843   2.491 -0.2222 -0.5702  1.1605
  171SOL    HW2  513   0.202   0.929   2.369  1.1016  1.0590  0.8241
  172SOL     OW  514   0.982   0.979   2.774  0.6932  0.5861  0.0645
  172SOL    HW1  515   0.947   1.026   2.861  1.5248  2.1983 -0.8506
  172SOL    HW2  516   0.949   1.015   2.685  1.9521  1.0463  2.3991
  173SOL     OW  517   0.368   2.555   3.044  0.0723 -0.5584  0.1146
  173SOL    HW1  518   0.366   2.488   2.966 -2.3191  3.2596 -1.3034
  173SOL    HW2  519   0.385   2.513   3.137  0.9577  0.7927 -2.0596
  174SOL     OW  520   1.462   2.850   1.000 -0.3718 -0.2163 -0.6055
  174SOL    HW1  521   1.522   2.917   0.944  2.3449  0.5281 -0.4145
  174SOL    HW2  522   1.440   2.762   0.949 -0.3960 -0.4128 -0.2812
  175SOL     OW  523   0.468   3.067   1.719 -0.6361  0.4205 -0.4733
  175SOL    HW1  524   0.522   3.061   1.806 -1.1289  1.0675  0.3286
  175SOL    HW2  525   0.437   3.163   1.702  1.6832  2.0580 -0.2743
  176SOL     OW  526   2.526   0.491   0.030 -0.2407  0.1167  0.7237
  176SOL    HW1  527   2.549   0.578   0.086  1.5080  0.6389  2.3109
  176SOL    HW2  528   2.553   0.406   0.085 -0.8024 -0.1930  3.6739
  177SOL     OW  529   0.371   0.151   0.803 -0.6178 -0.9471  0.1683
  177SOL    HW1  530   0.332   0.056   0.832  1.7524  0.7929  0.5806
  177SOL    HW2  531   0.469   0.159   0.831 -3.9319  0.9180  0.8635
  178SOL     OW  532   0.039   2.717   2.647 -0.2145 -0.2627 -0.0424
  178SOL    HW1  533   0.015   2.618   2.650 -2.4199  1.5825  0.2961
  178SOL    HW2  534   0.126   2.742   2.704  1.9672  0.7414 -0.7026
  179SOL     OW  535   2.967   1.611   1.239 -0.1345 -0.4121 -0.1087
  179SOL    HW1  536   3.039   1.633   1.166  1.6806  0.7220  1.5733
  179SOL    HW2  537   2.992   1.519   1.284  0.5770 -1.5316  1.2863
  180SOL     OW  538   0.273   1.407   1.753  0.1041 -0.5024 -0.1474
  180SOL    HW1  539   0.343   1.353   1.808  0.1588  0.2265  1.9126
  180SOL    HW2  540   0.186   1.437   1.804  2.6323 -0.4444 -0.6177
  181SOL     OW  541   3.000   1.749   2.494 -0.0945  0.3189 -0.0034
  181SOL    HW1  542   3.048   1.789   2.411 -2.6715 -1.6597 -1.0866
  181SOL    HW2  543   2.895   1.751   2.485 -1.7278  1.2278 -2.3859
  182SOL     OW  544   2.192   1.414   1.169  0.4443 -0.5417  0.1848
  182SOL    HW1  545   2.183   1.338   1.237 -0.6466  1.4505  0.0391
  182SOL    HW2  546   2.223   1.384   1.072  1.3168 -2.7315 -1.3715
  183SOL     OW  547   1.421   2.229   2.444 -0.6237 -0.3378  0.0363
  183SOL    HW1  548   1.357   2.152   2.462  0.0101  0.0441  1.3002
  183SOL    HW2  549   1.513   2.192   2.415  0.0656 -1.6362 -2.6268
  184SOL     OW  550   2.220   0.781   0.815  0.2293 -0.1992  0.4594
  184SOL    HW1  551   2.127   0.793   0.780  1.8562  2.3231  1.9290
  184SOL    HW2  552   2.263   0.690   0.795 -0.8362  2.7175  1.0664
  185SOL     OW  553   1.576   2.729   2.008 -0.0361  0.2250  0.2964
  185SOL    HW1  554   1.503   2.802   2.016  1.3520  0.7372  1.6142
  185SOL    HW2  555   1.611   2.707   2.103 -0.5625  0.1530 -0.7505
  186SOL     OW  556   0.028   2.153   1.794 -0.0414 -0.1076  0.6131
  186SOL    HW1  557   0.012   2.240   1.848 -2.3889 -1.6683  0.0625
  186SOL    HW2  558   0.121   2.108   1.798 -1.8174 -2.7176 -2.4764
  187SOL     OW  559   1.322   0.669   1.649  0.1215  0.3173  0.0007
  187SOL    HW1  560   1.415   0.703   1.617  1.6087 -0.9503  2.4737
  187SOL    HW2  561   1.338   0.613   1.738 -1.4134  0.1380  3.3489
  188SOL     OW  562   2.695   2.671   1.576 -0.0572  0.2819  0.0308
  188SOL    HW1  563   2.684   2.771   1.551  1.3459 -1.1389 -0.2897
  188SOL    HW2  564   2.649   2.606   1.505 -0.6280 -1.1551 -3.1255
  189SOL     OW  565   0.855   1.192   1.392  0.4095 -0.5660  0.2605
  189SOL    HW1  566   0.924   1.233   1.459  0.5550 -0.4818  0.2838
  189SOL    HW2  567   0.858   1.241   1.301 -1.7317 -1.4910 -0.3072
  190SOL     OW  568   1.438   1.845   1.514 -0.3083 -0.5511  0.0290
  190SOL    HW1  569   1.388   1.761   1.467 -2.0663 -1.2243 -1.7399
  190SOL    HW2  570   1.423   1.858   1.617  0.0024 -0.1930 -0.3028
  191SOL     OW  571   0.877   0.768   1.506  0.0688 -0.4640 -0.3821
  191SOL    HW1  572   0.934   0.698   1.561  0.2236 -1.5771  4.2817
  191SOL    HW2  573   0.930   0.831   1.442 -1.4883  2.1909  1.4261
  192SOL     OW  574   1.836   2.441   1.123  0.4521 -0.1106  0.0855
  192SOL    HW1  575   1.743   2.392   1.101 -3.1524 -0.8419 -0.7238
  192SOL    HW2  576   1.906   2.396   1.055 -0.2859  1.1527 -1.1197
  193SOL     OW  577   0.495   0.498   0.385 -0.0005  0.1365  0.0424
  193SOL    HW1  578   0.417   0.425   0.378 -3.4462 -0.4123  1.5737
  193SOL    HW2  579   0.533   0.534   0.295 -0.0271  0.5416 -1.5892
  194SOL     OW  580   0.410   0.778   1.231 -0.0706 -0.7373 -0.8271
  194SOL    HW1  581   0.304   0.768   1.241  1.8272  0.9379  1.6937
  194SOL    HW2  582   0.446   0.720   1.154 -0.7378 -1.5812 -0.6116
  195SOL     OW  583   1.043   2.901   0.516 -0.5365  0.0991  0.0855
  195SOL    HW1  584   1.014   2.809   0.474  1.0966 -0.8590 -1.7359
  195SOL    HW2  585   1.123   2.945   0.465 -0.4131  1.1721 -0.3660
  196SOL     OW  586   0.217   1.365   1.337 -0.2694 -0.3812  0.6002
  196SOL    HW1  587   0.272   1.448   1.361  0.2740 -1.9555  2.6650
  196SOL    HW2  588   0.226   1.290   1.408 -0.9181 -0.0810 -0.6698
  197SOL     OW  589   0.773   1.971   0.237  0.0438  0.4298 -0.0101
  197SOL    HW1  590   0.817   1.968   0.330 -0.9642 -1.5964  1.0860
  197SOL    HW2  591   0.841   1.958   0.156  0.2719  0.4976 -0.5379
  198SOL     OW  592   0.286   1.217   0.322  0.1885 -0.1808 -0.5206
  198SOL    HW1  593   0.187   1.204   0.288 -1.2669  2.5816 -2.2678
  198SOL    HW2  594   0.304   1.312   0.363  3.3655  1.0956 -1.2156
  199SOL     OW  595   2.256   0.404   2.643  0.6432 -0.0636  0.0539
  199SOL    HW1  596   2.189   0.392   2.721 -0.3928  0.1506  0.9930
  199SOL    HW2  597   2.349   0.364   2.663  3.2810  0.2656  2.3115
  200SOL     OW  598   3.080   2.884   0.781 -0.1132  0.2484 -0.7392
  200SOL    HW1  599   3.127   2.974   0.788 -1.5707 -0.6092  1.3099
  200SOL    HW2  600   2.987   2.894   0.736 -0.8095  0.1082 -2.3120
  201SOL     OW  601   0.936   0.668   0.522  0.5362 -0.5185 -0.4259
  201SOL    HW1  602   0.916   0.764   0.560 -0.5696  1.3466 -0.2192
  201SOL    HW2  603   0.845   0.609   0.521 -0.5804  1.8665  2.0784
  202SOL     OW  604   0.460   1.262   1.906 -0.1167  0.5630  0.1260
  202SOL    HW1  605   0.532   1.214   1.848  1.3912  1.5239 -0.5042
  202SOL    HW2  606   0.495   1.302   1.994 -0.2724  2.7334 -0.9787
  203SOL     OW  607   0.645   0.166   1.558 -0.5892  0.2335  0.3538
  203SOL    HW1  608   0.683   0.104   1.484  0.4601 -0.2881  0.3951
  203SOL    HW2  609   0.692   0.153   1.650  1.4979 -0.3586  1.6668
  204SOL     OW  610   2.076   1.853   2.980 -0.1828 -0.0690  0.1187
  204SOL    HW1  611   2.045   1.755   2.979 -1.2344  1.6835  0.7005
  204SOL    HW2  612   2.121   1.873   2.893  0.0457 -0.2854  2.7630
  205SOL     OW  613   1.810   1.883   3.014 -0.1461  0.2901 -0.3704
  205SOL    HW1  614   1.912   1.853   3.013  1.0012  0.6368 -1.6307
  205SOL    HW2  615   1.787   1.960   2.944 -0.1279  1.0857  1.3921
  206SOL     OW  616   2.355   2.727   0.303  0.5604  0.2876  0.0141
  206SOL    HW1  617   2.325   2.684   0.394 -1.2642  0.7919  1.1196
  206SOL    HW2  618   2.432   2.671   0.264  0.5906 -0.8605 -2.4074
  207SOL     OW  619   0.714   1.722   2.907  0.1571 -0.1243 -0.0790
  207SOL    HW1  620   0.803   1.669   2.890  0.6652  0.3963 -0.6521
  207SOL    HW2  621   0.641   1.669   2.963 -3.9681 -0.4310 -1.3931
  208SOL     OW  622   1.023   1.570   1.221  0.5162  0.2923  0.1207
  208SOL    HW1  623   0.948   1.620   1.172 -2.2504  1.2305  0.1725
  208SOL    HW2  624   0.992   1.548   1.317 -1.1221 -1.3218 -1.3013
  209SOL     OW  625   0.228   1.021   3.064  0.3324  0.1870  0.2366
  209SOL    HW1  626   0.282   0.966   2.992 -2.9418 -1.0943 -0.3460
  209SOL    HW2  627   0.201   0.951   3.130  0.4406 -1.0806 -2.4303
  210SOL     OW  628   1.727   0.617   1.264  0.0976  0.3884 -0.2902
  210SOL    HW1  629   1.636   0.655   1.234  1.8559  1.5969 -1.3551
  210SOL    HW2  630   1.807   0.663   1.221  1.8355 -0.4573 -1.1998
  211SOL     OW  631   2.119   1.125   1.566 -0.1998  0.8069  0.0595
  211SOL    HW1  632   2.149   1.073   1.648  2.3115  0.7891  0.5563
  211SOL    HW2  633   2.183   1.198   1.535 -0.8943 -2.1062  3.4616
  212SOL     OW  634   0.094   0.984   1.439  0.0846 -0.3616 -0.5508
  212SOL    HW1  635   0.164   1.053   1.469 -2.4739 -0.4589  0.0277
  212SOL    HW2  636   0.079   0.906   1.505 -1.8233 -0.6005 -0.7685
  213SOL     OW  637   2.821   0.046   0.331  0.4311  0.3582 -0.0594
  213SOL    HW1  638   2.918   0.042   0.282  2.8753  2.1361 -0.5252
  213SOL    HW2  639   2.751   0.023   0.257 -0.8334  0.3897 -0.9813
  214SOL     OW  640   2.212   0.353   2.366 -0.1084  0.1757 -0.0517
  214SOL    HW1  641   2.239   0.384   2.461  3.9435 -0.0732 -2.2331
  214SOL    HW2  642   2.166   0.262   2.372 -1.7949 -0.9320 -1.1615
  215SOL     OW  643   1.694   2.288   2.073 -0.0616 -0.5280 -0.0748
  215SOL    HW1  644   1.791   2.333   2.087 -0.4663  2.0388 -0.7586
  215SOL    HW2  645   1.615   2.353   2.104  0.6966 -1.1108  0.8324
  216SOL     OW  646   2.302   0.526   0.762 -0.1072 -0.0398 -0.1231
  216SOL    HW1  647   2.275   0.475   0.680 -0.7364  1.6041  4.0779
  216SOL    HW2  648   2.379   0.482   0.818  0.4430 -0.2748  0.8259
  217SOL     OW  649   0.917   2.705   2.584 -0.0654 -0.4115  0.2165
  217SOL    HW1  650   0.937   2.651   2.668 -2.0852  1.7307  1.6323
  217SOL    HW2  651   0.832   2.667   2.528 -2.6733 -2.9278 -3.2463
  218SOL     OW  652   1.863   1.424   0.026 -0.2800 -0.3697 -0.1035
  218SOL    HW1  653   1.761   1.427   0.033 -1.6877 -1.6667 -1.3321
  218SOL    HW2  654   1.904   1.329   0.024 -0.8822 -1.3565  0.9757
  219SOL     OW  655   2.417   1.258   2.510  0.0504 -0.3188 -0.0637
  219SOL    HW1  656   2.456   1.182   2.452  1.2649 -0.5354  1.7343
  219SOL    HW2  657   2.392   1.225   2.605 -1.3688 -2.4047  0.5408
  220SOL     OW  658   1.455   1.046   1.377 -0.1498  0.5374  0.2753
  220SOL    HW1  659   1.547   1.004   1.384 -2.6037  0.6435  0.3901
  220SOL    HW2  660   1.430   1.063   1.278  1.6056  1.8015  1.2845
  221SOL     OW  661   1.303   0.957   2.160 -0.1340  0.3074 -0.0525
  221SOL    HW1  662   1.294   0.986   2.060  0.2583  1.7659 -3.4745
  221SOL    HW2  663   1.397   0.983   2.199 -1.0821 -0.6468 -0.4788
  222SOL     OW  664   1.159   0.051   1.203  0.2413  0.2192 -0.2817
  222SOL    HW1  665   1.189   0.100   1.288 -0.7395 -0.5920  0.5676
  222SOL    HW2  666   1.143   0.115   1.123  0.7891 -0.9193 -0.9718
  223SOL     OW  667   2.718   0.973   2.118  0.3371 -0.0513  0.3671
  223SOL    HW1  668   2.659   1.039   2.170  0.6955  0.0491  1.0611
  223SOL    HW2  669   2.816   0.976   2.143  0.2162 -1.0569 -0.3046
  224SOL     OW  670   1.493   0.986   2.841 -0.0274  0.3363 -0.8403
  224SOL    HW1  671   1.518   0.919   2.764  3.2869 -4.2854 -0.5858
  224SOL    HW2  672   1.506   1.086   2.816 -2.3981 -0.9023  0.1634
  225SOL     OW  673   2.953   2.685   2.885  0.2823  0.0530 -0.2155
  225SOL    HW1  674   2.864   2.691   2.825  0.2136 -0.8322 -5.1245
  225SOL    HW2  675   3.034   2.694   2.825 -0.2666 -0.5391  1.2552
  226SOL     OW  676   2.416   1.641   2.799 -0.4729  0.0676  0.5215
  226SOL    HW1  677   2.448   1.607   2.707  1.5239  1.2414 -0.5858
  226SOL    HW2  678   2.438   1.573   2.875 -0.9754 -0.0315  3.2314
  227SOL     OW  679   0.933   0.280   3.006 -0.0642  0.2076 -0.2567
  227SOL    HW1  680   0.913   0.381   3.000 -1.2459  1.1931  2.4033
  227SOL    HW2  681   0.889   0.239   2.923 -0.7850  1.5982 -1.0444
  228SOL     OW  682   2.434   0.658   2.905 -0.3403  0.3185 -0.0453
  228SOL    HW1  683   2.466   0.717   2.826  0.2480  0.3320  3.6164
  228SOL    HW2  684   2.507   0.589   2.940 -0.3931  1.0281 -1.7174
  229SOL     OW  685   0.699   0.660   1.820  1.0858  0.5605  0.1147
  229SOL    HW1  686   0.773   0.646   1.885 -1.2308  1.4934 -1.4680
  229SOL    HW2  687   0.713   0.603   1.731 -0.7304  0.8230 -2.5350
  230SOL     OW  688   1.878   1.231   1.916  0.2553 -0.2081 -0.1872
  230SOL    HW1  689   1.960   1.280   1.869  1.3291 -1.4384  0.4345
  230SOL    HW2  690   1.844   1.278   2.002 -3.0015  0.1551  1.3094
  231SOL     OW  691   0.681   1.043   0.009  0.2481  0.1544  0.3393
  231SOL    HW1  692   0.764   1.089  -0.025 -0.4201 -1.6186 -3.3997
  231SOL    HW2  693   0.602   1.105   0.040  1.6113 -1.4803 -0.8027
  232SOL     OW  694   2.413   2.956   2.788 -0.0151  0.3247 -0.6301
  232SOL    HW1  695   2.479   2.881   2.824  0.5764 -0.7701 -2.7416
  232SOL    HW2  696   2.466   3.038   2.744 -0.3352  1.5827  0.8785
  233SOL     OW  697   1.795   1.122   1.172 -0.2869  0.1025  0.5277
  233SOL    HW1  698   1.852   1.199   1.132 -2.1434  1.1270 -0.1100
  233SOL    HW2  699   1.853   1.037   1.181 -0.1930  0.7245  0.6969
  234SOL     OW  700   1.652   2.529   1.829 -0.5100 -0.6519  0.3135
  234SOL    HW1  701   1.632   2.591   1.910  0.8539 -0.8850  0.9136
  234SOL    HW2  702   1.586   2.456   1.819  1.0809  2.1641 -3.3850
  235SOL     OW  703   0.067   3.004   2.872  0.0245  0.3239  0.5997
  235SOL    HW1  704   0.013   2.980   2.787 -2.0048  0.1675  2.0498
  235SOL    HW2  705   0.015   3.054   2.948  1.9258  3.1030  0.1318
  236SOL     OW  706   2.911   0.740   0.063 -0.3493  0.5913  0.1790
  236SOL    HW1  707   2.985   0.759   0.138 -0.7097  0.1079 -0.3322
  236SOL    HW2  708   2.938   0.651   0.010 -0.3882  0.2404 -0.6821
  237SOL     OW  709   1.538   1.696   0.919 -0.0228 -0.2002  0.0770
  237SOL    HW1  710   1.578   1.602   0.948  0.8461  1.1118 -1.5719
  237SOL    HW2  711   1.511   1.751   0.998 -1.5971 -0.0990  0.2681
  238SOL     OW  712   1.923   1.194   0.733  0.0041  0.0353 -0.3412
  238SOL    HW1  713   1.937   1.220   0.832  0.4533 -1.5416  0.2962
  238SOL    HW2  714   1.831   1.228   0.698  3.1499  0.1920  1.3271
  239SOL     OW  715   2.045   0.327   2.833 -0.0953  0.3811  0.0284
  239SOL    HW1  716   2.081   0.295   2.923  3.8045  0.7478  2.4468
  239SOL    HW2  717   1.944   0.355   2.835  0.3587  0.3216  0.1829
  240SOL     OW  718   0.936   0.683   0.245 -0.8625  0.0249 -0.7022
  240SOL    HW1  719   1.012   0.632   0.191 -0.2312 -1.4303 -0.2069
  240SOL    HW2  720   0.946   0.657   0.347 -1.7661 -1.1136 -0.5647
  241SOL     OW  721   0.548   0.153   0.305 -0.5298  0.1810 -0.1140
  241SOL    HW1  722   0.600   0.217   0.240  1.2413  0.8728  0.9732
  241SOL    HW2  723   0.543   0.057   0.269  1.0751  2.7672  0.4763
  242SOL     OW  724   0.610   2.597   1.254 -0.2464  0.0951  0.7837
  242SOL    HW1  725   0.591   2.592   1.353  2.3552  1.2661 -1.0507
  242SOL    HW2  726   0.670   2.674   1.232  0.9390  1.3628  0.9578
  243SOL     OW  727   1.052   0.596   2.393  0.0187 -0.1992 -0.2359
  243SOL    HW1  728   0.960   0.612   2.342 -2.4368 -0.1418  0.1819
  243SOL    HW2  729   1.041   0.550   2.485  0.4003 -0.2604  2.1225
  244SOL     OW  730   2.772   1.943   2.402  0.6418 -0.0866  0.3635
  244SOL    HW1  731   2.795   1.925   2.301  1.0702 -1.6429  0.6781
  244SOL    HW2  732   2.694   1.877   2.435 -0.7966 -1.5949  1.9995
  245SOL     OW  733   2.101   1.023   2.227  0.0689 -0.1624  0.4175
  245SOL    HW1  734   2.200   1.012   2.249 -0.7154 -0.0528  0.5549
  245SOL    HW2  735   2.046   1.087   2.293 -0.5245 -0.5221 -1.5733
  246SOL     OW  736   0.266   2.907   1.818 -0.4732  0.5721  0.1855
  246SOL    HW1  737   0.179   2.907   1.760  1.2478 -0.6430 -3.3571
  246SOL    HW2  738   0.346   2.944   1.756  0.6574  0.1850  1.2140
  247SOL     OW  739   2.232   0.587   3.072 -0.8668 -0.0521  0.0340
  247SOL    HW1  740   2.314   0.597   3.008 -0.3203 -0.1092  1.1807
  247SOL    HW2  741   2.155   0.649   3.044  1.7189 -0.5945  3.2793
  248SOL     OW  742   2.152   1.888   1.626  0.0727  0.3273 -0.1326
  248SOL    HW1  743   2.205   1.818   1.690  0.0903 -3.5484 -0.7688
  248SOL    HW2  744   2.050   1.874   1.634  2.3285  1.9534  1.2948
  249SOL     OW  745   1.895   1.897   1.877 -0.5932 -0.5675  0.1478
  249SOL    HW1  746   1.882   1.853   1.782 -0.7674  0.0336 -1.3523
  249SOL    HW2  747   1.994   1.896   1.911 -1.9075 -0.1223  0.6462
  250SOL     OW  748   1.030   0.693   1.848  0.6019  0.1281  0.3392
  250SOL    HW1  749   1.109   0.675   1.908 -2.0361  1.6842 -0.9873
  250SOL    HW2  750   1.023   0.628   1.770 -0.6702  2.3334  0.8235
  251SOL     OW  751   3.056   1.500   2.613 -0.0538 -0.4022 -0.1265
  251SOL    HW1  752   3.036   1.593   2.568  0.9147  0.6566 -3.7809
  251SOL    HW2  753   2.990   1.423   2.585 -0.2142 -2.4466  1.6443
  252SOL     OW  754   1.548   0.802   1.589  0.0851 -0.8650 -0.2901
  252SOL    HW1  755   1.587   0.850   1.504 -1.3304  2.4250  0.3525
  252SOL    HW2  756   1.568   0.860   1.672 -0.1800 -0.2909 -0.6816
  253SOL     OW  757   0.939   1.473   0.446  0.2463 -0.0837 -0.2567
  253SOL    HW1  758   0.967   1.470   0.348  0.2935 -0.0779 -0.3173
  253SOL    HW2  759   0.868   1.539   0.461  1.5521 -0.7666 -1.8918
  254SOL     OW  760   2.014   2.186   1.652 -0.0919  0.5873  0.1220
  254SOL    HW1  761   1.945   2.132   1.601  1.2345  2.2947 -1.0674
  254SOL    HW2  762   1.971   2.248   1.724 -0.0124 -0.1040  2.8436
  255SOL     OW  763   0.071   1.206   2.958 -0.3257  0.6256 -0.1229
  255SOL    HW1  764   0.135   1.288   2.922  1.5599  0.4513 -0.5951
  255SOL    HW2  765   0.128   1.127   2.995  0.6990 -0.3021  1.7503
  256SOL     OW  766   2.758   1.427   1.788  0.3693 -0.3483  0.5664
  256SOL    HW1  767   2.662   1.463   1.809 -0.2106  2.3769  2.6114
  256SOL    HW2  768   2.760   1.326   1.782 -1.8038  4.2369 -0.4033
  257SOL     OW  769   0.814   0.208   1.858  0.0610 -0.7619  0.2288
  257SOL    HW1  770   0.870   0.260   1.781  0.8691  1.8508 -2.1851
  257SOL    HW2  771   0.849   0.117   1.868 -0.7622  0.0860  1.4669
  258SOL     OW  772   2.959   1.190   0.525  0.0811 -0.2895 -0.1941
  258SOL    HW1  773   2.865   1.210   0.568 -2.1127  1.1039 -1.2881
  258SOL    HW2  774   3.038   1.212   0.580  0.1169  0.0720  0.1044
  259SOL     OW  775   0.450   2.941   3.028 -0.2725  0.3364  0.0613
  259SOL    HW1  776   0.378   2.880   3.069 -1.2062 -0.5280 -0.7906
  259SOL    HW2  777   0.483   2.903   2.938 -2.5010  0.6859  2.9363
  260SOL     OW  778   2.716   0.718   2.786  0.0758 -0.7931 -0.0241
  260SOL    HW1  779   2.642   0.757   2.721 -3.8461 -3.0927 -0.3548
  260SOL    HW2  780   2.690   0.620   2.814 -0.7666 -0.7191  1.3672
  261SOL     OW  781   2.670   1.275   1.299 -0.0984 -0.0623  0.2541
  261SOL    HW1  782   2.592   1.241   1.237 -1.6417 -0.7545  0.8303
  261SOL    HW2  783   2.762   1.232   1.282  2.2056  0.7913 -0.2595
  262SOL     OW  784   1.407   2.945   2.019  0.4376 -0.1064 -0.6374
  262SOL    HW1  785   1.416   3.045   2.002  0.3358  0.4580  1.2004
  262SOL    HW2  786   1.310   2.908   2.010  2.5665 -0.9387 -0.9278
  263SOL     OW  787   0.799   0.663   2.296 -0.0934  0.6689 -0.9253
  263SOL    HW1  788   0.731   0.592   2.259  0.1619 -1.3233 -2.9492
  263SOL    HW2  789   0.824   0.728   2.227  0.2292 -0.2388  0.7207
  264SOL     OW  790   2.267   0.806   0.434 -0.1186  0.4440  0.5232
  264SOL    HW1  791   2.274   0.747   0.347  2.7267 -0.8382  1.7440
  264SOL    HW2  792   2.362   0.839   0.462  0.6509 -0.2713 -0.2122
  265SOL     OW  793   0.863   2.330   2.634 -0.1623 -0.6209  0.3772
  265SOL    HW1  794   0.872   2.297   2.733  2.2799 -1.0663 -1.6994
  265SOL    HW2  795   0.834   2.254   2.566 -2.8334 -1.2211 -3.5163
  266SOL     OW  796   1.270   1.807   3.036 -0.0384  0.0647  0.0704
  266SOL    HW1  797   1.259   1.841   3.131 -0.9908  0.6454  0.8702
  266SOL    HW2  798   1.367   1.802   3.008 -1.1763 -0.2409 -0.0616
  267SOL     OW  799   1.046   3.051   2.301  0.5950 -0.2867 -0.8401
  267SOL    HW1  800   0.958   3.012   2.269  1.1750 -3.3676  2.2933
  267SOL    HW2  801   1.108   3.087   2.237 -2.0246 -1.9137  1.2223
  268SOL     OW  802   0.840   1.312   1.146 -0.4777 -0.3660  0.4684
  268SOL    HW1  803   0.777   1.380   1.190  0.5268  0.3527  0.6237
  268SOL    HW2  804   0.876   1.344   1.056 -1.0363 -1.5735  3.0780
  269SOL     OW  805   2.330   2.533   1.593 -0.0683 -0.3007  0.3677
  269SOL    HW1  806   2.415   2.480   1.580  2.3570  0.4529 -0.1904
  269SOL    HW2  807   2.310   2.547   1.692 -1.9544  0.5987  2.2241
  270SOL     OW  808   0.129   3.047   2.024 -0.4079  0.0860 -0.4745
  270SOL    HW1  809   0.177   3.010   1.942 -0.6245 -1.9834  1.1456
  270SOL    HW2  810   0.095   2.968   2.088 -0.1984 -1.4698 -0.5682
  271SOL     OW  811   0.402   1.428   1.103 -0.3762 -0.5425  0.0707
  271SOL    HW1  812   0.398   1.403   1.002 -4.2486 -0.3221  0.4903
  271SOL    HW2  813   0.321   1.384   1.153  1.3880  0.9093  1.3663
  272SOL     OW  814   1.869   0.031   1.898 -0.2969 -0.1012 -0.3200
  272SOL    HW1  815   1.829  -0.048   1.843  0.1525  0.2453 -0.3929
  272SOL    HW2  816   1.859   0.118   1.842  1.1787 -0.8014 -0.8315
  273SOL     OW  817   1.434   1.444   2.867  0.0138 -0.0333 -0.8671
  273SOL    HW1  818   1.331   1.450   2.880 -0.1237 -0.3880  0.3457
  273SOL    HW2  819   1.491   1.444   2.955 -1.5776 -1.7258 -1.3175
  274SOL     OW  820   1.187   0.594   2.072 -0.0465 -0.4039  0.2530
  274SOL    HW1  821   1.126   0.514   2.092 -0.0247 -2.9545  1.5272
  274SOL    HW2  822   1.230   0.628   2.162 -1.1328  0.0462  2.1123
  275SOL     OW  823   0.636   2.106   1.971 -0.1614  0.2163  0.3084
  275SOL    HW1  824   0.570   2.028   1.983 -1.4408 -1.3078 -0.4506
  275SOL    HW2  825   0.596   2.196   1.943  2.0252 -0.2740 -0.6755
  276SOL     OW  826   2.257   0.946   2.860  0.4908 -0.1111  0.5456
  276SOL    HW1  827   2.166   0.973   2.815  0.6413  0.6142 -0.4520
  276SOL    HW2  828   2.266   0.846   2.883  2.0131 -1.6278 -1.9622
  277SOL     OW  829   3.094   0.775   0.251 -0.5074 -0.3695 -0.1585
  277SOL    HW1  830   3.193   0.783   0.219 -0.8029  0.2357 -0.6380
  277SOL    HW2  831   3.083   0.708   0.330 -1.6552  1.7677  2.0947
  278SOL     OW  832   0.300   0.234   0.013  0.7259 -0.5218  0.1926
  278SOL    HW1  833   0.375   0.186  -0.042  0.5481  0.5954 -0.0205
  278SOL    HW2  834   0.314   0.338   0.013 -0.1574  1.2210  1.0685
  279SOL     OW  835   0.265   2.990   0.929 -0.2934 -0.2021  0.1437
  279SOL    HW1  836   0.354   2.998   0.977  0.9357 -1.6088  1.1307
  279SOL    HW2  837   0.266   2.902   0.871 -1.3736 -0.1923 -0.2657
  280SOL     OW  838   1.576   2.888   2.437  0.6416  0.1145 -0.1070
  280SOL    HW1  839   1.636   2.956   2.494 -0.8163 -2.7729  2.4757
  280SOL    HW2  840   1.527   2.941   2.361 -1.8057  2.2115 -0.4047
  281SOL     OW  841   0.563   0.927   2.376  0.3537  0.2612 -0.4066
  281SOL    HW1  842   0.527   0.854   2.315 -0.3546 -3.6467  1.8341
  281SOL    HW2  843   0.552   0.890   2.471  1.8767  0.8340 -0.5043
  282SOL     OW  844   1.791   2.468   0.542 -0.0020 -0.4088 -0.2911
  282SOL    HW1  845   1.761   2.383   0.491  0.1934 -2.0242 -0.1686
  282SOL    HW2  846   1.728   2.553   0.527 -2.6701  0.6454 -2.1095
  283SOL     OW  847   1.181   0.943   0.798 -0.0764 -0.2387 -0.5909
  283SOL    HW1  848   1.193   0.875   0.876  0.1426 -1.6445 -0.8697
  283SOL    HW2  849   1.119   1.020   0.826 -1.0298 -1.7787  0.4973
  284SOL     OW  850   2.267   2.828   2.453 -0.2649  0.0884 -0.1600
  284SOL    HW1  851   2.361   2.870   2.448  1.4234 -0.6429 -0.3175
  284SOL    HW2  852   2.223   2.840   2.547  0.6697  1.9741  1.3457
  285SOL     OW  853   1.314   3.072   2.584  0.5951 -0.2801 -0.5028
  285SOL    HW1  854   1.372   3.057   2.494  0.7169 -0.7654 -3.5262
  285SOL    HW2  855   1.216   3.100   2.565 -0.3954  2.5739 -0.9120
  286SOL     OW  856   0.256   0.351   0.655 -0.3039  0.0998 -0.3137
  286SOL    HW1  857   0.297   0.270   0.714  2.3352 -2.2341 -2.3374
  286SOL    HW2  858   0.272   0.327   0.558 -0.9310 -1.0497  2.3934
  287SOL     OW  859   0.097   1.258   2.528  0.0797 -0.4174 -0.2247
  287SOL    HW1  860   0.044   1.194   2.598  0.8632 -3.3516  1.1956
  287SOL    HW2  861   0.068   1.356   2.538  2.7120  0.0385 -1.1256
  288SOL     OW  862   1.509   2.674   1.656 -0.1189 -0.6354 -0.1486
  288SOL    HW1  863   1.553   2.611   1.724  1.0880  2.2086 -2.0744
  288SOL    HW2  864   1.576   2.704   1.581  0.4472  4.2187 -0.7528
  289SOL     OW  865   0.636   2.771   0.800 -0.1737 -0.0713 -0.5342
  289SOL    HW1  866   0.681   2.830   0.727  2.0425  0.7360 -2.4016
  289SOL    HW2  867   0.618   2.814   0.896  0.7845 -0.8122  0.8230
  290SOL     OW  868   2.837   1.107   1.689 -0.1239 -0.1040  0.0517
  290SOL    HW1  869   2.761   1.048   1.735 -0.8187 -0.7448  2.0825
  290SOL    HW2  870   2.926   1.094   1.735  0.7226  0.0935 -3.3863
  291SOL     OW  871   1.922   0.003   0.072  0.0884  0.2159  0.0488
  291SOL    HW1  872   1.932   0.026   0.170  0.7462  0.2679 -2.2063
  291SOL    HW2  873   2.005   0.031   0.015  0.3200  1.0474  3.6100
  292SOL     OW  874   2.985   1.293   0.025 -0.0324 -0.0133  0.3430
  292SOL    HW1  875   2.898   1.301  -0.023  2.5674 -1.2385  1.0347
  292SOL    HW2  876   3.065   1.277  -0.042 -2.3820 -0.4124 -1.6072
  293SOL     OW  877   0.529   2.062   0.273 -0.2677 -0.2279 -0.4686
  293SOL    HW1  878   0.540   2.128   0.348  0.5313  1.0801 -2.2771
  293SOL    HW2  879   0.621   2.028   0.244 -1.8234  1.5927 -1.1239
  294SOL     OW  880   1.862   2.350   1.822  0.2804  0.2080 -0.0077
  294SOL    HW1  881   1.891   2.358   1.924 -1.8078 -0.1717  0.8412
  294SOL    HW2  882   1.791   2.423   1.797 -0.5575 -0.2930 -2.4514
  295SOL     OW  883   0.964   1.016   0.446  0.1316 -0.1488  0.7406
  295SOL    HW1  884   1.053   1.056   0.470 -2.0337  0.2856  2.1142
  295SOL    HW2  885   0.914   0.979   0.526  0.2843  0.7708 -1.4731
  296SOL     OW  886   1.154   2.124   2.738  0.1147 -0.1550 -0.3784
  296SOL    HW1  887   1.085   2.203   2.747 -2.2756  1.5520 -4.4069
  296SOL    HW2  888   1.175   2.108   2.639  1.8534 -1.4414 -0.1589
  297SOL     OW  889   1.296   0.584   1.240  0.5504  0.4801 -0.2565
  297SOL    HW1  890   1.317   0.523   1.324  1.5526  0.3295  2.8157
  297SOL    HW2  891   1.376   0.599   1.177  0.8358 -0.5380 -1.4733
  298SOL     OW  892   0.470   1.310   2.963 -0.0815  0.8343  0.1841
  298SOL    HW1  893   0.448   1.259   3.050  3.0795  1.6019 -0.9984
  298SOL    HW2  894   0.496   1.251   2.880  0.8428 -0.2051 -1.9701
  299SOL     OW  895   0.401   0.174   1.247  0.3967  0.1953  0.1000
  299SOL    HW1  896   0.343   0.259   1.223 -1.0603  3.2066  0.5295
  299SOL    HW2  897   0.394   0.149   1.344 -0.2466  0.4183  0.4728
  300SOL     OW  898   1.322   1.795   2.577 -1.3314 -0.9634  0.0457
  300SOL    HW1  899   1.283   1.711   2.524  1.0244 -0.0048 -2.9557
  300SOL    HW2  900   1.395   1.774   2.647  1.7903  0.3506 -1.1229
  301SOL     OW  901   0.305   0.273   0.389 -0.0860  0.0898 -0.0109
  301SOL    HW1  902   0.218   0.231   0.344 -1.1471 -1.8377  1.2762
  301SOL    HW2  903   0.389   0.206   0.381  2.0016  0.0167  0.1491
  302SOL     OW  904   1.240   2.391   2.297  0.1953  0.3426  0.0956
  302SOL    HW1  905   1.140   2.371   2.324 -0.0183 -1.0245 -3.0620
  302SOL    HW2  906   1.309   2.332   2.352  0.5310 -0.3553  2.2072
  303SOL     OW  907   0.858   2.457   0.758  0.0387  0.0010 -0.6463
  303SOL    HW1  908   0.870   2.501   0.665  1.4207 -1.4262  0.5517
  303SOL    HW2  909   0.906   2.515   0.830  0.2737 -1.1211  0.5073
  304SOL     OW  910   0.142   1.926   0.713  0.0370 -0.2807 -0.3998
  304SOL    HW1  911   0.186   1.924   0.617 -0.4827 -4.3255 -2.6993
  304SOL    HW2  912   0.042   1.933   0.701  2.1432  0.5276  0.2779
  305SOL     OW  913   1.654   0.787   0.695  0.0576 -0.4644 -0.3097
  305SOL    HW1  914   1.601   0.813   0.611 -0.1268  0.3169 -0.2650
  305SOL    HW2  915   1.689   0.689   0.697 -1.3152 -0.1118 -1.6619
  306SOL     OW  916   0.416   1.913   1.971  0.4931  0.0783  0.4817
  306SOL    HW1  917   0.488   1.850   1.924  1.7906  2.8519 -2.1440
  306SOL    HW2  918   0.427   1.916   2.076  1.3503 -0.3781  3.3224
  307SOL     OW  919   3.043   0.900   2.588 -0.6064  0.1366  0.3793
  307SOL    HW1  920   3.055   0.988   2.649 -0.1651  1.0938  2.0686
  307SOL    HW2  921   3.023   0.817   2.647  0.8445 -1.4177  1.0807
  308SOL     OW  922   1.475   2.691   2.811  0.0994  0.1602 -0.0002
  308SOL    HW1  923   1.443   2.683   2.713 -0.8597  1.3917  0.2113
  308SOL    HW2  924   1.432   2.617   2.875  0.9418  0.4811 -1.4082
  309SOL     OW  925   1.154   0.187   1.828 -0.4933  0.5062  0.1102
  309SOL    HW1  926   1.236   0.150   1.776 -0.3264  0.7051 -1.1516
  309SOL    HW2  927   1.072   0.202   1.765 -0.4025 -0.3170 -0.8628
  310SOL     OW  928   1.434   2.565   0.652 -0.6700  0.5905  0.1236
  310SOL    HW1  929   1.430   2.573   0.758 -0.2896 -0.5065 -0.2087
  310SOL    HW2  930   1.496   2.633   0.607 -0.3889  2.4495  2.2958
  311SOL     OW  931   1.119   0.929   1.746  0.1212  0.1378 -0.5129
  311SOL    HW1  932   1.081   0.834   1.767 -1.0590  0.8064  0.0362
  311SOL    HW2  933   1.173   0.930   1.656  0.0791  0.0081 -1.8446
  312SOL     OW  934   1.482   0.630   1.020 -0.0472 -0.1013 -0.1988
  312SOL    HW1  935   1.510   0.728   1.005 -2.7565  1.7346 -0.9418
  312SOL    HW2  936   1.442   0.593   0.935 -0.6215 -0.6808  0.7340
  313SOL     OW  937   1.659   1.294   0.719 -0.1001 -0.0670 -0.1779
  313SOL    HW1  938   1.571   1.318   0.771 -0.5147  2.5211 -0.1699
  313SOL    HW2  939   1.642   1.204   0.665 -0.4211  1.1524 -1.8083
  314SOL     OW  940   3.012   0.013   3.081  0.2041  0.3859 -0.2690
  314SOL    HW1  941   3.034  -0.022   3.181  0.0581  1.9195  1.0356
  314SOL    HW2  942   2.926  -0.028   3.043  0.1902  0.6421  0.3853
  315SOL     OW  943   1.191   0.214   2.802 -0.5855  0.4358 -0.3627
  315SOL    HW1  944   1.137   0.167   2.732 -0.8772 -0.4070  0.6681
  315SOL    HW2  945   1.170   0.174   2.896 -0.5876 -1.0029  0.6676
  316SOL     OW  946   1.751   2.056   0.859  0.0008  0.0308 -0.4639
  316SOL    HW1  947   1.728   2.038   0.959 -0.7502 -1.2668 -0.7883
  316SOL    HW2  948   1.769   2.160   0.835 -1.1350  2.0244  2.0731
  317SOL     OW  949   1.176   0.711   2.725  0.1876  0.2082 -0.0006
  317SOL    HW1  950   1.130   0.754   2.808 -0.1388 -1.9063  1.6651
  317SOL    HW2  951   1.117   0.632   2.688  1.6191 -1.4465 -1.7849
  318SOL     OW  952   1.408   3.060   2.315  0.1410 -0.3483 -0.5555
  318SOL    HW1  953   1.429   3.162   2.304  0.7303 -0.4240  2.1976
  318SOL    HW2  954   1.405   3.002   2.230  0.7538  2.6450  0.5586
  319SOL     OW  955   0.612   2.386   3.036  0.0488  0.2119  0.1271
  319SOL    HW1  956   0.575   2.293   3.065 -0.2072  0.6788  0.0065
  319SOL    HW2  957   0.684   2.371   2.958  1.2497  0.2935 -0.1118
  320SOL     OW  958   1.699   2.247   0.409  0.0503 -0.0574  0.1622
  320SOL    HW1  959   1.761   2.162   0.399  0.0538 -0.9200  0.0117
  320SOL    HW2  960   1.597   2.227   0.433 -0.1452 -0.0351  0.5634
  321SOL     OW  961   1.609   2.703   0.510  0.0640 -0.2018  0.1320
  321SOL    HW1  962   1.558   2.745   0.434 -0.2750  2.5358  0.5872
  321SOL    HW2  963   1.690   2.762   0.542 -0.9042  0.7400  1.2501
  322SOL     OW  964   2.544   1.073   2.331 -0.0795  0.5149  0.1520
  322SOL    HW1  965   2.610   1.033   2.399 -1.8191 -2.2805  1.7829
  322SOL    HW2  966   2.459   1.010   2.322 -1.0857  0.5341  0.7589
  323SOL     OW  967   1.158   2.706   0.752  0.7712  0.0195 -0.1374
  323SOL    HW1  968   1.153   2.665   0.658  3.2353 -0.3159  1.3175
  323SOL    HW2  969   1.165   2.808   0.762 -2.2636 -3.9487  1.5617
  324SOL     OW  970   0.068   2.535   2.414 -0.2211 -0.6376  0.0015
  324SOL    HW1  971   0.039   2.481   2.497  2.1652 -1.5571 -0.3634
  324SOL    HW2  972   0.059   2.637   2.437  2.2902 -0.3138 -0.2934
  325SOL     OW  973   1.290   3.025   0.418 -0.1466  0.0412 -0.5255
  325SOL    HW1  974   1.291   3.090   0.335 -1.3535 -2.2472 -0.2054
  325SOL    HW2  975   1.315   3.067   0.510 -0.8226  0.8798 -1.7368
  326SOL     OW  976   2.445   0.893   0.016  0.4504 -0.4205 -0.1172
  326SOL    HW1  977   2.349   0.877   0.049  1.3002 -0.6969  2.1179
  326SOL    HW2  978   2.506   0.810   0.045  0.0324  0.0253  0.7446
  327SOL     OW  979   2.834   0.183   0.561  0.1381  0.0001 -0.1145
  327SOL    HW1  980   2.820   0.123   0.478  2.1638  0.5268 -0.6176
  327SOL    HW2  981   2.863   0.126   0.642 -0.7428  0.1881  0.0964
  328SOL     OW  982   2.651   0.600   0.386  0.0824 -0.1324  0.5105
  328SOL    HW1  983   2.727   0.658   0.426  0.3180 -2.0780  0.1413
  328SOL    HW2  984   2.631   0.516   0.444  1.0777 -0.1625  1.1482
  329SOL     OW  985   2.929   3.055   2.251 -0.1424  0.4787 -0.1893
  329SOL    HW1  986   3.013   2.994   2.256 -0.0835 -0.6118  2.0266
  329SOL    HW2  987   2.949   3.154   2.218  0.0610  0.1642 -0.8798
  330SOL     OW  988   0.546   0.327   1.987  0.8168  0.8023  0.7519
  330SOL    HW1  989   0.614   0.341   1.908 -1.2050 -0.0737 -2.1139
  330SOL    HW2  990   0.580   0.248   2.048  1.0249 -1.8874  1.2279
  331SOL     OW  991   0.014   1.932   1.119 -0.4642  0.2573  0.4999
  331SOL    HW1  992  -0.003   2.006   1.045  0.8500 -0.8944 -2.4753
  331SOL    HW2  993  -0.069   1.895   1.172 -0.8933 -0.3941 -0.4131
  332SOL     OW  994   0.437   1.151   0.085  0.2129 -0.2768  0.9809
  332SOL    HW1  995   0.373   1.087   0.030 -1.8026  0.5186  0.0298
  332SOL    HW2  996   0.391   1.182   0.170  0.2495 -0.0649  0.1056
  333SOL     OW  997   2.918   0.953   0.368 -0.5773  0.4898  0.0216
  333SOL    HW1  998   2.926   1.020   0.441 -2.1017 -1.5013  0.0844
  333SOL    HW2  999   3.006   0.916   0.336  4.1006  2.1370 -0.0222
  334SOL     OW 1000   1.714   1.159   1.710 -0.1826  0.4573  0.6233
  334SOL    HW1 1001   1.761   1.173   1.620 -1.5911  1.6808  2.7967
  334SOL    HW2 1002   1.778   1.188   1.784  1.4320 -1.1279 -1.1357
  335SOL     OW 1003   1.940   2.753   2.600  0.3983  0.0888  0.3043
  335SOL    HW1 1004   1.885   2.742   2.685 -1.6431 -1.3067  0.8338
  335SOL    HW2 1005   2.033   2.794   2.617 -0.5544 -0.9780 -0.0636
  336SOL     OW 1006   0.282   0.110   2.735 -0.1650 -0.0011  0.3554
  336SOL    HW1 1007   0.357   0.115   2.801 -1.4802  0.1477 -0.2333
  336SOL    HW2 1008   0.217   0.036   2.769 -1.1033 -0.2649 -0.1094
  337SOL     OW 1009   0.781   2.837   3.049 -0.3947 -0.6820 -0.1542
  337SOL    HW1 1010   0.823   2.753   3.084  1.3313 -0.6675  2.8663
  337SOL    HW2 1011   0.784   2.918   3.115  3.2049 -3.8779  0.0438
  338SOL     OW 1012   0.066   0.944   0.708  0.4879 -0.0881  0.4824
  338SOL    HW1 1013  -0.026   0.901   0.728  2.7355 -1.7766 -0.2041
  338SOL    HW2 1014   0.068   1.049   0.715  0.8590 -0.1498 -1.6373
  339SOL     OW 1015   1.769   1.360   2.143  0.0883  0.4379  0.2778
  339SOL    HW1 1016   1.666   1.379   2.146 -1.4218  2.3908 -1.3665
  339SOL    HW2 1017   1.827   1.449   2.153  0.9977  2.0470 -0.2027
  340SOL     OW 1018   2.262   0.770   1.100  0.6671  0.1678  0.3095
  340SOL    HW1 1019   2.165   0.799   1.118 -2.2545 -1.9926 -0.2645
  340SOL    HW2 1020   2.262   0.675   1.063  0.0375  2.3380  2.6320
  341SOL     OW 1021   1.874   2.062   0.310  0.2805  0.1769 -0.6424
  341SOL    HW1 1022   1.918   2.105   0.225  0.1466  2.1334 -2.5112
  341SOL    HW2 1023   1.944   2.042   0.386  1.9544  1.8783  0.1865
  342SOL     OW 1024   2.158   2.143   2.766 -0.5329 -0.4917 -0.0539
  342SOL    HW1 1025   2.199   2.056   2.802 -2.9018  0.1760 -1.0299
  342SOL    HW2 1026   2.055   2.135   2.736 -0.6521  0.9842 -0.0285
  343SOL     OW 1027   0.357   0.846   2.880  0.0703 -0.5903 -0.0698
  343SOL    HW1 1028   0.335   0.903   2.794 -1.8009  0.1350  2.4374
  343SOL    HW2 1029   0.450   0.803   2.878  1.5392  0.3533  2.9041
  344SOL     OW 1030   1.940   1.422   0.347 -0.0307  0.0829  0.3423
  344SOL    HW1 1031   1.924   1.326   0.304 -0.5389 -1.2276  1.0255
  344SOL    HW2 1032   1.852   1.457   0.385 -0.4430  0.3560 -0.4929
  345SOL     OW 1033   1.408   2.189   2.857  0.0068 -0.0657  0.0357
  345SOL    HW1 1034   1.310   2.188   2.821 -1.0556  1.0258 -1.2780
  345SOL    HW2 1035   1.469   2.112   2.831  1.9852 -1.9618  0.3328
  346SOL     OW 1036   2.289   0.818   1.390 -0.1509  0.2944  0.4212
  346SOL    HW1 1037   2.188   0.842   1.414 -0.5931  1.1674  0.8133
  346SOL    HW2 1038   2.296   0.783   1.290  0.1532 -2.3580  1.3818
  347SOL     OW 1039   0.712   2.792   1.707  0.0744 -0.2651  0.0970
  347SOL    HW1 1040   0.799   2.849   1.685  2.5566  3.2509 -3.9291
  347SOL    HW2 1041   0.647   2.794   1.624 -1.6917  0.6932  0.5929
  348SOL     OW 1042   0.188   0.613   2.833 -0.1954  0.2930 -0.2154
  348SOL    HW1 1043   0.087   0.633   2.835  0.2836  0.5842  1.4972
  348SOL    HW2 1044   0.250   0.698   2.829  0.3068  1.2698 -0.1501
  349SOL     OW 1045   1.778   0.420   2.827  0.5589 -0.1646  0.1304
  349SOL    HW1 1046   1.793   0.510   2.773 -0.0755  0.0541  0.2071
  349SOL    HW2 1047   1.750   0.441   2.924  1.0722  1.1042 -1.2976
  350SOL     OW 1048   1.746   0.372   0.385  0.3259 -0.1696  0.1876
  350SOL    HW1 1049   1.824   0.341   0.443 -0.7342  3.0992  1.6645
  350SOL    HW2 1050   1.724   0.469   0.372  2.0618 -3.1519  0.5892
  351SOL     OW 1051   0.857   0.791   2.075  0.8350 -0.0585 -0.5681
  351SOL    HW1 1052   0.878   0.892   2.076  0.7848  2.3139  2.0235
  351SOL    HW2 1053   0.924   0.732   2.019 -0.4637  0.5181 -0.8537
  352SOL     OW 1054   2.079   1.414   0.587 -0.0368  0.9889 -0.3327
  352SOL    HW1 1055   2.008   1.436   0.514  0.1791  0.7870 -2.4857
  352SOL    HW2 1056   2.046   1.367   0.676 -0.0991  2.3929  3.5627
  353SOL     OW 1057   2.181   2.695   1.140  0.1871 -0.0960  0.8280
  353SOL    HW1 1058   2.245   2.643   1.200  0.1190  2.2948  0.7288
  353SOL    HW2 1059   2.097   2.734   1.183 -1.2199  1.1678 -3.3106
  354SOL     OW 1060   0.221   1.422   2.885 -0.6478 -0.4026 -0.1194
  354SOL    HW1 1061   0.216   1.497   2.812  1.4659  1.8758  1.2117
  354SOL    HW2 1062   0.314   1.385   2.911 -2.9660 -1.8717 -0.4144
  355SOL     OW 1063   0.724   1.605   0.605  0.4132 -0.2808 -0.4306
  355SOL    HW1 1064   0.706   1.594   0.707  0.1440 -0.5341 -1.1353
  355SOL    HW2 1065   0.702   1.527   0.545 -0.7253  0.2302 -1.0478
  356SOL     OW 1066   0.992   0.354   2.097  0.0623  0.1550  0.0198
  356SOL    HW1 1067   1.061   0.277   2.090  1.1102  0.6568  0.9567
  356SOL    HW2 1068   0.924   0.345   2.020 -0.7284  0.0580 -1.4513
  357SOL     OW 1069   1.033   1.484   0.134 -0.0482  0.9798  0.2499
  357SOL    HW1 1070   1.055   1.397   0.081  1.6089  0.3904  1.2073
  357SOL    HW2 1071   1.111   1.542   0.164  0.4941  1.7745 -0.5088
  358SOL     OW 1072   1.697   1.495   0.455 -0.0646  0.2592  0.2143
  358SOL    HW1 1073   1.661   1.464   0.549 -0.8507 -0.7173  0.5359
  358SOL    HW2 1074   1.631   1.478   0.376  1.0367 -0.3679 -0.7209
  359SOL     OW 1075   1.626   2.567   0.195 -0.1980  0.1783 -0.1779
  359SOL    HW1 1076   1.592   2.476   0.159 -0.4501 -0.3398  0.0924
  359SOL    HW2 1077   1.553   2.623   0.239 -0.2799 -1.2687  0.5700
  360SOL     OW 1078   0.727   0.509   0.558 -0.1276  0.0395 -0.1982
  360SOL    HW1 1079   0.643   0.495   0.500 -4.5387  1.1550 -1.2295
  360SOL    HW2 1080   0.765   0.419   0.593  1.2302  0.2173  2.1152
  361SOL     OW 1081   1.364   1.297   0.600 -0.3392 -0.3120 -0.6824
  361SOL    HW1 1082   1.394   1.353   0.682 -1.8309  2.0439 -3.0458
  361SOL    HW2 1083   1.266   1.321   0.574  2.3032 -1.0858  0.4123
  362SOL     OW 1084   1.406   1.833   0.725  0.3550  0.5142  0.0588
  362SOL    HW1 1085   1.458   1.777   0.797  0.5336  0.5533  2.1152
  362SOL    HW2 1086   1.466   1.904   0.678 -1.9166  3.6800 -0.7614
  363SOL     OW 1087   1.256   1.332   1.920 -0.0217 -0.5568 -0.4612
  363SOL    HW1 1088   1.301   1.371   2.006  1.1025 -1.6932  2.0291
  363SOL    HW2 1089   1.218   1.407   1.859 -3.1306  0.9110  2.3560
  364SOL     OW 1090   0.553   2.389   1.979 -0.0487  0.2695  0.5082
  364SOL    HW1 1091   0.449   2.389   1.980  0.7168  0.6719 -1.3851
  364SOL    HW2 1092   0.587   2.485   1.977 -1.0170  0.7996  0.5120
  365SOL     OW 1093   0.927   1.949   1.419 -0.4935  0.2523  0.0279
  365SOL    HW1 1094   0.828   1.942   1.457 -1.2642  0.2488  1.4915
  365SOL    HW2 1095   0.922   1.967   1.316 -1.1647 -0.8195 -0.0229
  366SOL     OW 1096   2.731   1.876   0.252 -0.6847  0.1266 -0.1602
  366SOL    HW1 1097   2.656   1.803   0.246 -0.4461 -1.5104 -0.0520
  366SOL    HW2 1098   2.832   1.842   0.259  2.1570 -0.0996  1.4488
  367SOL     OW 1099   0.937   1.084   3.038 -0.7916  0.0962  0.1325
  367SOL    HW1 1100   0.923   1.035   3.129  1.4218 -1.0891 -0.6057
  367SOL    HW2 1101   1.014   1.153   3.048  1.9823 -0.5372  2.4521
  368SOL     OW 1102   1.464   0.482   0.490  0.8696 -1.0226  0.5033
  368SOL    HW1 1103   1.364   0.487   0.465 -0.4562 -0.1640 -2.1448
  368SOL    HW2 1104   1.510   0.540   0.418 -1.0534 -0.0063  1.9194
  369SOL     OW 1105   0.325   1.634   0.150 -0.2974 -0.3520  0.0255
  369SOL    HW1 1106   0.369   1.683   0.232 -1.4758  0.7517 -0.0262
  369SOL    HW2 1107   0.241   1.583   0.174 -2.5198 -0.3927 -0.6711
  370SOL     OW 1108   0.444   2.135   1.028 -0.5398 -0.2978 -0.3307
  370SOL    HW1 1109   0.452   2.234   1.017 -0.3205 -1.3248 -0.1435
  370SOL    HW2 1110   0.348   2.104   1.004 -0.2311  0.0682  0.7355
  371SOL     OW 1111   2.909   2.157   2.684 -0.4057  0.0141 -0.2927
  371SOL    HW1 1112   2.985   2.088   2.654  1.2850 -2.2130 -1.2006
  371SOL    HW2 1113   2.930   2.202   2.778 -1.1303 -0.7259  0.7896
  372SOL     OW 1114   0.973   2.075   1.164  0.1741  1.0104 -0.6649
  372SOL    HW1 1115   0.910   2.115   1.095  1.2007 -0.3809 -2.2240
  372SOL    HW2 1116   1.061   2.136   1.174  1.9015  0.5719 -1.6428
  373SOL     OW 1117   1.901   1.873   1.027 -0.1546 -0.5571 -0.1247
  373SOL    HW1 1118   1.986   1.881   1.082  0.7178 -2.9635  0.1871
  373SOL    HW2 1119   1.880   1.952   0.960 -1.4882 -0.3598 -0.8790
  374SOL     OW 1120   1.934   0.287   0.556  0.4457 -0.7550 -0.6587
  374SOL    HW1 1121   1.898   0.255   0.648  1.1508 -0.8087  2.0099
  374SOL    HW2 1122   2.031   0.323   0.568 -2.3777 -0.0121  1.1334
  375SOL     OW 1123   2.426   2.149   1.106  0.1337 -0.7882 -0.4731
  375SOL    HW1 1124   2.455   2.193   1.020 -0.6019 -3.6605  0.2653
  375SOL    HW2 1125   2.507   2.118   1.164 -2.1046  0.5931 -0.3209
  376SOL     OW 1126   3.064   0.613   1.443  0.2029 -0.5552  0.4753
  376SOL    HW1 1127   3.111   0.649   1.528  1.7058  3.0073  0.8851
  376SOL    HW2 1128   3.033   0.512   1.443 -0.9134 -1.8341 -1.5992
  377SOL     OW 1129   2.266   2.939   0.170  0.1251 -0.0644 -0.1172
  377SOL    HW1 1130   2.205   3.001   0.224  1.8076  0.1778  0.3044
  377SOL    HW2 1131   2.315   2.869   0.230 -1.0517 -0.3480  1.1085
  378SOL     OW 1132   1.905   1.907   2.506 -0.0402 -0.2168 -0.4646
  378SOL    HW1 1133   2.001   1.867   2.504  1.4247 -1.3693 -0.4425
  378SOL    HW2 1134   1.832   1.841   2.469 -1.6905 -0.7297 -0.3231
  379SOL     OW 1135   0.780   0.155   2.766  0.2523  0.1146 -0.4537
  379SOL    HW1 1136   0.830   0.065   2.744  1.5190  0.4353  1.3349
  379SOL    HW2 1137   0.759   0.224   2.688  1.6118 -0.1613  2.1466
  380SOL     OW 1138   1.554   1.092   0.552 -0.0957  0.3185  0.5521
  380SOL    HW1 1139   1.472   1.151   0.565  0.9364 -0.5104 -1.9783
  380SOL    HW2 1140   1.521   0.994   0.527 -1.1681 -1.2878  0.4207
  381SOL     OW 1141   1.264   1.287   1.439  0.1434 -0.1754 -0.1903
  381SOL    HW1 1142   1.330   1.218   1.397 -1.5992 -2.7464  1.6742
  381SOL    HW2 1143   1.311   1.333   1.516 -0.5603  1.1921 -3.0456
  382SOL     OW 1144   1.802   0.863   0.281  0.1966 -0.4637 -0.4125
  382SOL    HW1 1145   1.819   0.816   0.189  0.4362 -0.5952  0.9502
  382SOL    HW2 1146   1.870   0.831   0.350 -3.6807  0.3069 -0.5221
  383SOL     OW 1147   2.500   0.996   1.481  0.0112 -0.5007 -0.4080
  383SOL    HW1 1148   2.408   0.968   1.440 -1.5134 -0.0937 -0.0254
  383SOL    HW2 1149   2.576   0.996   1.416 -2.7982 -1.1976  1.0168
  384SOL     OW 1150   0.968   2.287   0.230  0.1132 -0.4147  0.6428
  384SOL    HW1 1151   0.874   2.334   0.215 -1.7520  1.8682 -0.7477
  384SOL    HW2 1152   0.982   2.270   0.331 -1.9953 -0.3200  1.4705
  385SOL     OW 1153   2.911   2.038   1.624 -0.2629  0.2752 -0.1359
  385SOL    HW1 1154   2.997   2.057   1.673 -1.0546 -0.9521 -3.6180
  385SOL    HW2 1155   2.875   1.943   1.649  0.4997 -1.0828 -1.2311
  386SOL     OW 1156   0.481   1.053   0.490  0.1475 -0.3504 -0.2292
  386SOL    HW1 1157   0.465   0.950   0.490  0.5601 -2.6820  0.6118
  386SOL    HW2 1158   0.395   1.094   0.460  2.5265 -1.2258 -2.7269
  387SOL     OW 1159   0.951   0.270   1.637  0.0682 -0.2613 -0.0222
  387SOL    HW1 1160   0.947   0.375   1.638  0.4115  1.6482  0.3807
  387SOL    HW2 1161   0.919   0.222   1.551  0.4096 -0.5948 -0.2404
  388SOL     OW 1162   1.228   2.726   1.779  0.2026  0.6224  0.9846
  388SOL    HW1 1163   1.237   2.764   1.685  1.4760 -0.9052 -0.2856
  388SOL    HW2 1164   1.293   2.646   1.802 -0.2556 -1.1021  1.7816
  389SOL     OW 1165   0.144   2.919   1.339 -0.2595  0.1877  0.2956
  389SOL    HW1 1166   0.053   2.930   1.289 -2.6574  0.4653  0.4471
  389SOL    HW2 1167   0.184   2.824   1.317 -0.3730 -1.2673 -0.3954
  390SOL     OW 1168   1.036   0.963   1.356  0.0914  0.0090 -0.1530
  390SOL    HW1 1169   1.132   0.967   1.406  2.0128 -0.7824 -0.6346
  390SOL    HW2 1170   0.974   1.041   1.390 -0.4430 -0.6191  0.8388
  391SOL     OW 1171   2.141   1.140   1.125 -0.0607 -0.5045  0.2538
  391SOL    HW1 1172   2.120   1.051   1.173 -1.1479 -1.2355  0.5138
  391SOL    HW2 1173   2.206   1.120   1.046  0.2354  1.6090 -1.4323
  392SOL     OW 1174   0.908   2.597   0.057  0.3228 -0.0196 -0.4250
  392SOL    HW1 1175   0.985   2.536   0.021 -1.6000  0.1367  0.5863
  392SOL    HW2 1176   0.852   2.552   0.132 -0.4300 -0.8037  0.4734
  393SOL     OW 1177   0.317   0.676   1.965  0.8545  0.1058 -0.1771
  393SOL    HW1 1178   0.313   0.572   1.973 -1.3379 -1.6843 -2.6305
  393SOL    HW2 1179   0.339   0.709   1.871 -0.6232 -0.2164  0.4574
  394SOL     OW 1180   3.074   1.930   2.689  0.2818 -0.0323  0.2800
  394SOL    HW1 1181   3.161   1.905   2.738  0.1102  1.3668  1.5278
  394SOL    HW2 1182   3.052   1.852   2.616  2.1738 -2.0664 -2.0533
  395SOL     OW 1183   1.615   1.989   0.623  0.3564 -0.7551  0.0458
  395SOL    HW1 1184   1.653   1.899   0.589 -0.4844  0.7358 -1.2406
  395SOL    HW2 1185   1.657   2.021   0.711  0.5825  0.2863  1.4063
  396SOL     OW 1186   2.904   1.876   1.301  0.0134  0.9728  0.3147
  396SOL    HW1 1187   2.921   1.771   1.296 -0.3240 -0.5446 -0.6435
  396SOL    HW2 1188   2.886   1.907   1.394  1.6745 -0.3381  1.3707
  397SOL     OW 1189   1.044   2.212   0.496  0.2116  0.1862 -0.6855
  397SOL    HW1 1190   0.948   2.205   0.532  0.7757  1.2460  0.7004
  397SOL    HW2 1191   1.091   2.302   0.523 -0.7760  1.5128  0.4224
  398SOL     OW 1192   2.180   3.039   1.165  0.8405  0.1828  0.4012
  398SOL    HW1 1193   2.103   2.973   1.171  0.8606  1.2518 -2.2860
  398SOL    HW2 1194   2.153   3.139   1.149 -1.3221  0.3308  0.7952
  399SOL     OW 1195   3.051   2.447   2.642  0.5319 -0.3098 -0.3260
  399SOL    HW1 1196   2.952   2.451   2.679 -1.9607 -3.6723 -1.4405
  399SOL    HW2 1197   3.110   2.377   2.687 -1.4563  1.2087 -0.3329
  400SOL     OW 1198   0.660   1.719   1.344  0.0640  0.5147  0.0528
  400SOL    HW1 1199   0.630   1.771   1.428 -0.1737  1.3478  1.1946
  400SOL    HW2 1200   0.592   1.731   1.270  1.4608 -0.3473 -0.3579
  401SOL     OW 1201   1.847   0.302   1.149 -0.2573  0.3683  0.2458
  401SOL    HW1 1202   1.870   0.286   1.252  0.3499  0.3456 -0.7884
  401SOL    HW2 1203   1.756   0.346   1.127 -1.6689 -1.4576 -3.3014
  402SOL     OW 1204   1.349   0.254   3.087 -0.1439 -0.1993  0.0805
  402SOL    HW1 1205   1.424   0.202   3.038  0.3022 -0.2377  2.1787
  402SOL    HW2 1206   1.317   0.339   3.040 -1.4556 -0.3444 -0.3313
  403SOL     OW 1207   2.231   1.890   0.816 -0.4715 -0.2276 -0.2826
  403SOL    HW1 1208   2.330   1.917   0.828 -2.2750  2.4503 -0.2554
  403SOL    HW2 1209   2.188   1.905   0.909  3.0486  1.1009 -2.2958
  404SOL     OW 1210   0.280   2.482   2.756  0.4338 -0.1470 -0.2327
  404SOL    HW1 1211   0.344   2.464   2.675  1.0581 -0.1538 -1.4713
  404SOL    HW2 1212   0.274   2.580   2.783 -0.5133 -0.2613  2.0509
  405SOL     OW 1213   0.144   2.384   0.724  0.2164  0.2349 -0.6432
  405SOL    HW1 1214   0.143   2.310   0.655 -0.4771  3.1520  2.1093
  405SOL    HW2 1215   0.231   2.431   0.712 -1.5427 -0.3702 -2.7930
  406SOL     OW 1216   0.051   1.543   3.066  0.0480  0.1042 -0.7162
  406SOL    HW1 1217   0.111   1.474   3.017 -0.1503  1.7922  0.1288
  406SOL    HW2 1218   0.048   1.516   3.166  1.4855  1.9854 -0.7522
  407SOL     OW 1219   1.603   0.881   0.959  0.6825 -0.3694  0.1004
  407SOL    HW1 1220   1.602   0.859   0.854 -1.2900  1.3006 -1.7630
  407SOL    HW2 1221   1.571   0.977   0.978  0.8931  0.0391  0.0819
  408SOL     OW 1222   1.571   2.370   0.970 -0.1726 -0.0490  0.5600
  408SOL    HW1 1223   1.660   2.363   0.914 -0.1648 -1.1465 -1.8857
  408SOL    HW2 1224   1.509   2.443   0.935 -0.4839  1.5388  0.5691
  409SOL     OW 1225   0.615   0.839   0.712 -0.0431 -0.2334 -0.6579
  409SOL    HW1 1226   0.573   0.827   0.617  0.0890  0.4950 -3.5057
  409SOL    HW2 1227   0.644   0.754   0.758 -2.5152  0.1552  2.1067
  410SOL     OW 1228   1.213   2.028   1.422 -0.9366  0.1324  0.3850
  410SOL    HW1 1229   1.292   1.966   1.448  3.3813  1.0226  3.3907
  410SOL    HW2 1230   1.118   1.989   1.437 -0.1039  0.4668  1.2685
  411SOL     OW 1231   2.522   1.835   3.007  0.2415 -0.6384  0.0015
  411SOL    HW1 1232   2.555   1.929   3.038  0.4832  1.3397 -0.3862
  411SOL    HW2 1233   2.444   1.848   2.939 -0.4377  0.4093  1.6296
  412SOL     OW 1234   1.499   2.454   2.153  0.0691 -0.0194  0.1613
  412SOL    HW1 1235   1.565   2.475   2.227 -0.1218 -2.0853  0.0696
  412SOL    HW2 1236   1.402   2.443   2.188 -0.3971 -1.6803 -0.8431
  413SOL     OW 1237   0.028   0.264   3.035 -0.0338 -0.4684  0.0305
  413SOL    HW1 1238  -0.009   0.165   3.033  0.4071 -0.6904 -0.4151
  413SOL    HW2 1239   0.131   0.268   3.068  1.0371 -0.0274  0.1331
  414SOL     OW 1240   1.746   1.512   1.134 -0.5158  0.1503  0.1169
  414SOL    HW1 1241   1.716   1.604   1.174 -3.0124  1.8405 -1.3952
  414SOL    HW2 1242   1.745   1.509   1.032 -0.3247  0.8303  0.0161
  415SOL     OW 1243   0.352   2.152   0.661  0.3141  0.2926 -0.0035
  415SOL    HW1 1244   0.315   2.178   0.753  0.7347  0.6756 -3.1142
  415SOL    HW2 1245   0.264   2.147   0.606  0.1975  0.3330  0.3819
  416SOL     OW 1246   0.363   1.100   1.078  0.0781  0.0702  0.0670
  416SOL    HW1 1247   0.329   1.025   1.017  0.7512  1.0622  0.7599
  416SOL    HW2 1248   0.464   1.096   1.093 -1.5762  0.1668  0.9180
  417SOL     OW 1249   2.368   2.433   2.117 -0.3745  0.4639  0.3579
  417SOL    HW1 1250   2.367   2.329   2.095  0.7129  0.9322 -1.3838
  417SOL    HW2 1251   2.317   2.451   2.207  0.2580 -0.8519 -1.3257
  418SOL     OW 1252   1.041   0.528   1.325  0.1627  0.3414 -0.3143
  418SOL    HW1 1253   0.984   0.462   1.268 -1.2450  0.0122  2.0605
  418SOL    HW2 1254   1.127   0.564   1.280 -1.6130 -1.3856  1.4610
  419SOL     OW 1255   0.883   0.542   2.971 -0.2767  0.1016 -0.2662
  419SOL    HW1 1256   0.808   0.528   2.904 -1.2958 -0.4962 -0.3478
  419SOL    HW2 1257   0.907   0.644   2.974  3.0304  1.1725  0.7190
  420SOL     OW 1258   0.130   2.187   0.505  0.1979 -0.2394  0.1307
  420SOL    HW1 1259   0.180   2.191   0.417 -3.0647 -1.9283  1.7773
  420SOL    HW2 1260   0.067   2.107   0.505 -0.9837  5.6113  1.9091
  421SOL     OW 1261   0.309   2.969   0.533  0.1579 -0.3055  0.0843
  421SOL    HW1 1262   0.275   2.906   0.607 -0.9572  0.3992 -0.9883
  421SOL    HW2 1263   0.381   3.037   0.564 -0.7499  1.9002  0.6853
  422SOL     OW 1264   1.029   2.560   0.955 -0.3975  0.1138 -0.3521
  422SOL    HW1 1265   1.074   2.596   0.870 -1.0630  1.0989  1.1221
  422SOL    HW2 1266   1.091   2.534   1.038 -2.0610 -1.3455  0.6357
  423SOL     OW 1267   0.133   0.733   1.263 -0.1763 -0.3850  0.0037
  423SOL    HW1 1268   0.062   0.675   1.309 -1.5142  1.8204 -1.0663
  423SOL    HW2 1269   0.085   0.821   1.229  2.4326 -1.5999 -2.8341
  424SOL     OW 1270   1.138   2.217   2.051 -0.5311 -0.0567 -0.2893
  424SOL    HW1 1271   1.133   2.320   2.059 -1.2728 -0.9063  2.0899
  424SOL    HW2 1272   1.086   2.170   2.129  0.5804  1.3899  1.6853
  425SOL     OW 1273   1.941   1.307   0.987 -0.3858 -0.1728 -0.0187
  425SOL    HW1 1274   2.028   1.290   1.038 -1.4895 -1.1273 -1.1743
  425SOL    HW2 1275   1.927   1.410   0.977 -2.6136 -0.3227 -0.9161
  426SOL     OW 1276   1.442   1.592   1.206  0.6052  0.3483  0.2902
  426SOL    HW1 1277   1.463   1.686   1.168  0.7653 -0.2788  2.6243
  426SOL    HW2 1278   1.397   1.592   1.298  2.0929  1.0906  1.4365
  427SOL     OW 1279   1.949   2.391   2.097 -0.2709 -0.0288 -0.2305
  427SOL    HW1 1280   2.011   2.327   2.154 -0.1710  1.3361 -0.1294
  427SOL    HW2 1281   1.970   2.492   2.117 -1.1006  4.2992  0.4386
  428SOL     OW 1282   0.883   0.054   0.086 -0.5651  0.4918 -0.4579
  428SOL    HW1 1283   0.913   0.130   0.022  0.9703  0.9337 -2.0240
  428SOL    HW2 1284   0.966  -0.006   0.104 -2.0346  0.5930 -0.9330
  429SOL     OW 1285   1.295   0.168   0.248  0.0323 -0.0866  0.0117
  429SOL    HW1 1286   1.385   0.172   0.299  2.2143 -0.0987  1.4219
  429SOL    HW2 1287   1.309   0.187   0.148 -2.8121 -1.8941  0.1682
  430SOL     OW 1288   2.889   1.384   0.280 -0.4463 -0.1299  0.1886
  430SOL    HW1 1289   2.910   1.421   0.180  0.2976 -2.2210 -5.9992
  430SOL    HW2 1290   2.840   1.454   0.336 -0.9019  1.6104  2.0397
  431SOL     OW 1291   2.062   1.574   0.903 -0.3507 -0.1550  0.0804
  431SOL    HW1 1292   2.071   1.624   0.992  1.7802 -0.1165  0.1257
  431SOL    HW2 1293   2.020   1.634   0.827  2.6542  0.9712 -1.3272
  432SOL     OW 1294   2.910   2.153   1.219  0.2487 -0.1414  0.0739
  432SOL    HW1 1295   2.895   2.053   1.242  0.3157  0.0251 -0.3809
  432SOL    HW2 1296   2.934   2.216   1.299 -1.3732  1.1860  1.8140
  433SOL     OW 1297   1.842   0.259   0.820  0.2023  0.5877  0.8131
  433SOL    HW1 1298   1.790   0.334   0.874 -0.4185  1.4564 -1.9271
  433SOL    HW2 1299   1.921   0.221   0.868 -0.3122 -3.8099  0.8039
  434SOL     OW 1300   1.545   0.299   0.660  0.2518  0.2794 -0.3908
  434SOL    HW1 1301   1.523   0.355   0.577 -0.6650 -1.1114  0.7796
  434SOL    HW2 1302   1.584   0.346   0.738 -2.4380 -1.8780  2.3756
  435SOL     OW 1303   1.482   1.407   2.118 -0.3710  0.0400  0.2095
  435SOL    HW1 1304   1.497   1.458   2.203  0.5631 -0.6823 -1.8597
  435SOL    HW2 1305   1.497   1.469   2.036  1.6951 -0.8912 -1.4735
  436SOL     OW 1306   1.721   2.733   2.274 -0.1425 -0.2543 -0.0192
  436SOL    HW1 1307   1.667   2.797   2.335 -1.0869  0.2476  0.7396
  436SOL    HW2 1308   1.718   2.633   2.306 -0.1939  1.6852 -1.0567
  437SOL     OW 1309   1.121   2.967   0.914  0.2392  0.2379 -0.2825
  437SOL    HW1 1310   1.039   3.025   0.897 -0.2238 -0.0673 -0.3495
  437SOL    HW2 1311   1.132   2.926   1.010 -2.6740 -2.1555  1.9681
  438SOL     OW 1312   1.023   2.706   1.511  0.3122  0.1581  0.0606
  438SOL    HW1 1313   1.114   2.746   1.481 -1.2854 -1.6616  0.5109
  438SOL    HW2 1314   1.006   2.624   1.446  0.6165  1.6551  2.0100
  439SOL     OW 1315   0.699   1.863   1.082  0.4244 -0.4160  0.7351
  439SOL    HW1 1316   0.706   1.931   1.007  2.5074  0.1074  2.8384
  439SOL    HW2 1317   0.603   1.826   1.095 -0.9474  0.5526 -0.9129
  440SOL     OW 1318   1.054   2.493   1.977  0.3097 -0.4486  0.0181
  440SOL    HW1 1319   1.009   2.527   1.887  1.9884  1.9437  1.8189
  440SOL    HW2 1320   1.158   2.493   1.963  0.8089  0.9324  1.8911
  441SOL     OW 1321   0.370   2.692   1.493 -0.3111 -0.0828 -0.7147
  441SOL    HW1 1322   0.427   2.607   1.517 -0.9780 -2.2782  3.7162
  441SOL    HW2 1323   0.292   2.670   1.426 -0.1650  0.4995 -1.2154
  442SOL     OW 1324   2.258   0.656   2.545 -0.7194 -0.0031 -0.5687
  442SOL    HW1 1325   2.272   0.558   2.575 -1.2124  2.6179  0.8900
  442SOL    HW2 1326   2.165   0.693   2.578 -0.5263 -1.7485  0.3073
  443SOL     OW 1327   1.204   2.662   2.237  0.1616 -0.2781  0.3189
  443SOL    HW1 1328   1.158   2.719   2.316  0.7470  1.6854  1.9427
  443SOL    HW2 1329   1.241   2.570   2.271 -3.0453 -1.4666  0.7502
  444SOL     OW 1330   1.012   1.348   1.546  0.4311 -0.7778  0.0470
  444SOL    HW1 1331   1.108   1.332   1.512  0.6827 -1.2764 -0.3490
  444SOL    HW2 1332   0.980   1.448   1.554  0.1394  0.2702 -1.0814
  445SOL     OW 1333   3.082   2.384   1.988  0.1492  0.1918 -0.0415
  445SOL    HW1 1334   3.095   2.457   1.911  0.1011  1.1406 -2.4055
  445SOL    HW2 1335   2.981   2.377   2.019 -1.2055  0.7408 -2.0827
  446SOL     OW 1336   0.212   1.902   2.360  0.0925  0.2088  0.6328
  446SOL    HW1 1337   0.178   1.988   2.412  3.5058  2.0345  0.4593
  446SOL    HW2 1338   0.140   1.858   2.296 -1.9827 -1.5015 -0.0704
  447SOL     OW 1339   1.222   1.633   1.940  0.3402 -0.0773 -0.3351
  447SOL    HW1 1340   1.163   1.704   1.890 -1.8722  0.2272  0.0080
  447SOL    HW2 1341   1.321   1.656   1.961  0.2677  0.7480 -0.6766
  448SOL     OW 1342   0.123   1.559   1.917 -0.1166  0.2270 -0.0167
  448SOL    HW1 1343   0.107   1.663   1.915  2.1282  2.1861 -0.0909
  448SOL    HW2 1344   0.172   1.524   1.997  0.4965 -0.8353  0.2963
  449SOL     OW 1345   2.013   2.985   0.866  0.2498 -0.0796  0.0995
  449SOL    HW1 1346   2.064   3.033   0.945 -0.3594 -1.9197  2.6880
  449SOL    HW2 1347   1.995   2.888   0.892 -0.9658  1.5652 -1.2677
  450SOL     OW 1348   2.274   1.347   0.926 -0.1717 -0.4606  0.1396
  450SOL    HW1 1349   2.250   1.258   0.875  0.3622  1.3180 -0.1682
  450SOL    HW2 1350   2.204   1.423   0.897  2.8323 -0.1195  3.6211
  451SOL     OW 1351   1.410   0.037   1.441 -0.1304  0.4210 -0.2167
  451SOL    HW1 1352   1.338   0.113   1.456  0.9119  0.7845  0.0623
  451SOL    HW2 1353   1.410  -0.035   1.516 -0.7932  1.1621  0.0179
  452SOL     OW 1354   2.650   2.349   2.245 -0.6829 -0.1766  0.2164
  452SOL    HW1 1355   2.624   2.444   2.282  0.6651 -2.3569 -0.8962
  452SOL    HW2 1356   2.683   2.287   2.317 -1.3681  0.2552  0.7243
  453SOL     OW 1357   2.434   2.589   3.045  0.0800  0.5746 -0.3925
  453SOL    HW1 1358   2.356   2.658   3.041 -0.4313  1.4371  2.9856
  453SOL    HW2 1359   2.420   2.506   2.976 -0.1540 -1.3795 -0.4603
  454SOL     OW 1360   0.969   1.074   2.039 -0.0355 -0.4176 -0.3724
  454SOL    HW1 1361   0.963   1.109   1.939  2.4863  0.5811 -3.0055
  454SOL    HW2 1362   1.055   1.116   2.079  0.2737  0.3039 -2.1436
  455SOL     OW 1363   0.633   2.641   2.907  0.0173 -0.9432 -0.0284
  455SOL    HW1 1364   0.685   2.713   2.957 -0.4882 -0.6383  0.8589
  455SOL    HW2 1365   0.604   2.560   2.969  0.5286 -0.3099  0.1945
  456SOL     OW 1366   0.523   1.776   0.338 -0.3915  0.1036 -0.0675
  456SOL    HW1 1367   0.616   1.728   0.355  3.2390 -1.3397 -0.1730
  456SOL    HW2 1368   0.525   1.862   0.285  0.3637 -2.0512 -1.7622
  457SOL     OW 1369   0.360   2.559   0.627  0.2261  0.2991 -0.6426
  457SOL    HW1 1370   0.383   2.616   0.543  0.0277 -0.7193 -1.1922
  457SOL    HW2 1371   0.444   2.536   0.684  0.4822 -0.8242  1.2146
  458SOL     OW 1372   2.992   2.977   1.224  0.0340 -0.1281 -0.2087
  458SOL    HW1 1373   2.989   3.080   1.217 -2.3255  0.9734 -1.2391
  458SOL    HW2 1374   2.954   2.932   1.136  1.5352 -1.5143 -2.0501
  459SOL     OW 1375   2.155   2.581   0.881  0.0344  0.5166 -0.7348
  459SOL    HW1 1376   2.190   2.628   0.967 -0.2761  2.5741 -1.1339
  459SOL    HW2 1377   2.230   2.553   0.821 -1.2163 -2.0992 -2.3720
  460SOL     OW 1378   1.065   1.917   2.916 -0.4020 -0.1288 -0.3113
  460SOL    HW1 1379   1.088   2.005   2.864 -0.6891 -0.9728  0.2164
  460SOL    HW2 1380   1.152   1.882   2.964  1.6877  1.9997  2.5932
  461SOL     OW 1381   0.559   2.109   2.676 -0.3985  0.0282  0.1649
  461SOL    HW1 1382   0.472   2.053   2.673 -0.2541 -1.6525 -0.7334
  461SOL    HW2 1383   0.614   2.092   2.763 -0.9609 -1.2829 -0.3936
  462SOL     OW 1384   0.971   1.167   1.784  0.1945 -0.3494 -0.2593
  462SOL    HW1 1385   1.012   1.075   1.754 -2.8256 -1.2876 -1.2213
  462SOL    HW2 1386   1.018   1.254   1.735  1.8874 -0.3349  0.4322
  463SOL     OW 1387   0.449   0.752   0.491  0.0069 -0.3600 -0.7778
  463SOL    HW1 1388   0.497   0.662   0.474  0.6239  1.0298  1.3540
  463SOL    HW2 1389   0.347   0.744   0.477 -0.2641 -3.0750 -1.1825
  464SOL     OW 1390   0.501   2.260   2.231 -0.0911 -0.1186  0.0993
  464SOL    HW1 1391   0.424   2.327   2.251  1.5203  0.8443 -0.2920
  464SOL    HW2 1392   0.554   2.291   2.148 -0.1290 -0.9037  0.7496
  465SOL     OW 1393   0.298   0.905   0.879 -0.5298 -0.4763 -0.4925
  465SOL    HW1 1394   0.231   0.911   0.801 -0.7851  0.2622  1.0394
  465SOL    HW2 1395   0.343   0.814   0.875  1.6858 -0.4677 -0.7091
  466SOL     OW 1396   1.395   1.086   1.118 -0.2988  0.2217  0.6499
  466SOL    HW1 1397   1.459   1.166   1.096  1.1471  0.0831 -0.1590
  466SOL    HW2 1398   1.292   1.109   1.127 -0.7076  1.4437  1.0311
  467SOL     OW 1399   0.466   0.383   2.440 -0.1132  0.4017 -0.3670
  467SOL    HW1 1400   0.400   0.436   2.499  0.8808  2.3541 -0.3115
  467SOL    HW2 1401   0.490   0.291   2.491  0.6833 -2.0653  0.9502
  468SOL     OW 1402   0.494   2.224   1.728  0.0284  0.3915 -0.0966
  468SOL    HW1 1403   0.500   2.305   1.791 -0.4585  1.6236 -0.8591
  468SOL    HW2 1404   0.482   2.246   1.628 -1.2140  0.1444 -0.0307
  469SOL     OW 1405   1.590   1.273   1.105  0.5588  0.4808  0.1061
  469SOL    HW1 1406   1.667   1.203   1.130  0.9310  1.6345  0.2771
  469SOL    HW2 1407   1.627   1.367   1.123 -2.5013  0.3929 -1.2072
  470SOL     OW 1408   3.005   1.618   0.746 -0.1486 -0.4711 -0.0640
  470SOL    HW1 1409   3.097   1.656   0.774 -0.2028  1.3522  3.7049
  470SOL    HW2 1410   2.925   1.688   0.762 -4.6097 -1.8713  1.2530
  471SOL     OW 1411   2.615   1.293   2.183 -0.7340 -0.3724  0.1852
  471SOL    HW1 1412   2.595   1.220   2.248  1.8207  1.9603 -1.2764
  471SOL    HW2 1413   2.665   1.370   2.228 -1.3738 -0.8613  0.4096
  472SOL     OW 1414   1.143   2.457   3.089  0.3307 -0.2815 -0.2465
  472SOL    HW1 1415   1.182   2.449   3.187  0.5580 -1.1668 -0.7659
  472SOL    HW2 1416   1.122   2.360   3.056  1.2808 -1.5046 -2.0874
  473SOL     OW 1417   1.042   1.549   0.877  0.3849 -0.4683 -0.0782
  473SOL    HW1 1418   0.954   1.560   0.935 -2.6387 -1.9770 -0.2091
  473SOL    HW2 1419   1.125   1.527   0.934 -0.0264 -0.8710 -0.3721
  474SOL     OW 1420   0.798   1.247   0.777 -0.2666  0.1836 -0.1218
  474SOL    HW1 1421   0.778   1.230   0.675 -0.7746  1.2443  0.5662
  474SOL    HW2 1422   0.898   1.221   0.807 -0.5955 -1.2349 -1.2751
  475SOL     OW 1423   2.895   0.051   0.805 -0.0997 -0.4316  0.0173
  475SOL    HW1 1424   2.977   0.056   0.865  1.3952 -2.7943  2.7565
  475SOL    HW2 1425   2.804   0.068   0.851 -0.0485 -0.4385  1.9645
  476SOL     OW 1426   0.935   3.064   1.915  0.6167  0.1981  1.0558
  476SOL    HW1 1427   1.003   3.082   1.992  0.9424  0.7262  0.3018
  476SOL    HW2 1428   0.970   3.005   1.836  0.6974  0.8720  0.2294
  477SOL     OW 1429   1.484   0.414   2.439  0.2897  0.3372  0.0308
  477SOL    HW1 1430   1.433   0.402   2.529 -0.3157  0.2352  1.2033
  477SOL    HW2 1431   1.580   0.379   2.438  0.0413  0.5677  0.0189
  478SOL     OW 1432   2.196   1.814   0.245 -0.1954  0.5244  0.0856
  478SOL    HW1 1433   2.137   1.727   0.220 -0.3257 -1.7955  0.3077
  478SOL    HW2 1434   2.298   1.795   0.245 -0.0266  3.0906  0.6288
  479SOL     OW 1435   1.182   1.130   2.848  0.2178  0.3765 -0.3556
  479SOL    HW1 1436   1.243   1.161   2.773 -1.2276 -1.2983 -1.7280
  479SOL    HW2 1437   1.113   1.063   2.811  4.1253  0.8083  2.5097
  480SOL     OW 1438   2.489   2.337   0.381  0.2387 -0.2765  0.5887
  480SOL    HW1 1439   2.432   2.292   0.451  2.3149  0.4619 -0.1291
  480SOL    HW2 1440   2.436   2.379   0.299 -1.3667 -0.6985  0.4819
  481SOL     OW 1441   1.051   1.189   0.837 -0.3681  0.1151 -0.1990
  481SOL    HW1 1442   1.081   1.253   0.761  0.4851 -0.8670 -1.6809
  481SOL    HW2 1443   1.093   1.217   0.929 -2.4084 -1.7116  1.2298
  482SOL     OW 1444   1.618   0.272   1.993 -0.4198  0.1203 -0.1231
  482SOL    HW1 1445   1.613   0.372   1.967 -1.1815 -1.5858 -0.1265
  482SOL    HW2 1446   1.700   0.251   2.058 -1.4635  1.5599 -1.5041
  483SOL     OW 1447   0.127   2.353   1.318 -0.2809  1.0847  0.2511
  483SOL    HW1 1448   0.022   2.344   1.333 -0.9644 -2.0827 -0.5031
  483SOL    HW2 1449   0.157   2.367   1.219 -2.1934 -3.7638 -2.2549
  484SOL     OW 1450   1.705   0.936   1.399 -0.2182 -0.0469 -0.1565
  484SOL    HW1 1451   1.787   0.920   1.459 -0.9427  2.0617  0.1261
  484SOL    HW2 1452   1.728   1.017   1.340  0.7788 -2.2754 -0.0895
  485SOL     OW 1453   0.680   1.137   1.786 -0.0658  0.2432  0.2956
  485SOL    HW1 1454   0.681   1.068   1.706 -1.8604  0.2985  1.0698
  485SOL    HW2 1455   0.766   1.191   1.786 -1.4390  1.5385 -0.2332
  486SOL     OW 1456   0.894   1.911   2.438 -0.3751 -0.2273  0.7091
  486SOL    HW1 1457   0.957   1.862   2.506 -0.7745  1.1225 -0.1899
  486SOL    HW2 1458   0.846   1.995   2.486 -0.2848 -0.0552  0.0479
  487SOL     OW 1459   1.752   1.518   0.852  0.5002  0.6325 -0.3202
  487SOL    HW1 1460   1.730   1.426   0.801  1.8121  1.3268 -1.7720
  487SOL    HW2 1461   1.780   1.594   0.781  0.3327 -0.0953 -0.6377
  488SOL     OW 1462   2.983   0.943   2.244 -0.0342 -0.1066 -0.8178
  488SOL    HW1 1463   2.987   0.850   2.206  3.6896 -0.2964  1.7469
  488SOL    HW2 1464   3.033   0.955   2.337 -1.6378  0.2685 -0.4989
  489SOL     OW 1465   2.771   0.201   1.335 -0.4241  0.1761  0.5748
  489SOL    HW1 1466   2.767   0.146   1.420 -1.2117  0.4433  2.7528
  489SOL    HW2 1467   2.862   0.197   1.283 -0.0186  0.1859 -0.4546
  490SOL     OW 1468   1.404   2.996   2.836  0.0223  0.8822  0.4075
  490SOL    HW1 1469   1.430   2.894   2.849 -2.1047  0.0775 -2.1753
  490SOL    HW2 1470   1.378   3.021   2.734 -0.3599 -2.0745 -1.6950
  491SOL     OW 1471   1.907   1.556   2.675 -0.0853 -0.2636  0.3270
  491SOL    HW1 1472   1.872   1.577   2.768 -2.0586  1.2433  1.5949
  491SOL    HW2 1473   1.993   1.611   2.659  2.4568  0.4776  0.9029
  492SOL     OW 1474   0.494   1.913   0.726  0.6152  0.3734  0.5523
  492SOL    HW1 1475   0.574   1.922   0.786 -1.4123  1.4962 -1.7912
  492SOL    HW2 1476   0.440   2.005   0.718 -0.5357  0.6215  0.2961
  493SOL     OW 1477   0.482   1.402   2.163  0.6333  0.3298 -0.2204
  493SOL    HW1 1478   0.380   1.412   2.147  0.6104  0.6896 -3.5523
  493SOL    HW2 1479   0.505   1.318   2.222 -1.4766 -0.9375 -1.9236
  494SOL     OW 1480   2.595   2.609   0.170 -0.6995 -0.6905 -0.0757
  494SOL    HW1 1481   2.684   2.556   0.160  0.9590 -0.0343  1.3495
  494SOL    HW2 1482   2.532   2.598   0.090  3.3751 -0.2500  0.1503
  495SOL     OW 1483   2.741   2.678   2.690 -0.2184 -0.2521  0.0962
  495SOL    HW1 1484   2.710   2.592   2.643  0.7153 -0.4390 -1.0806
  495SOL    HW2 1485   2.760   2.754   2.614  0.7192  0.3060  0.3581
  496SOL     OW 1486   2.039   2.211   0.708  0.2222  0.3975  0.0936
  496SOL    HW1 1487   2.059   2.227   0.804  2.1274  0.8660 -2.2633
  496SOL    HW2 1488   2.065   2.114   0.683  3.7262 -3.5224 -0.7956
  497SOL     OW 1489   0.249   2.961   2.405  0.1394 -0.0439 -0.2322
  497SOL    HW1 1490   0.180   3.016   2.457  2.3415  2.4907 -1.0604
  497SOL    HW2 1491   0.290   3.012   2.323 -2.3690  1.9977  0.3647
  498SOL     OW 1492   1.243   1.486   1.064 -0.2757 -0.6632  0.0023
  498SOL    HW1 1493   1.338   1.499   1.100  1.5498 -0.3652  2.4376
  498SOL    HW2 1494   1.169   1.538   1.117  1.7427  0.6705 -1.0216
  499SOL     OW 1495   0.876   1.845   0.478  0.2370  0.3398  0.2698
  499SOL    HW1 1496   0.829   1.755   0.512  1.2129 -3.9435  0.5590
  499SOL    HW2 1497   0.896   1.908   0.558 -0.6692 -1.6523  3.3063
  500SOL     OW 1498   1.450   2.957   1.658 -0.3469  0.1521  0.1024
  500SOL    HW1 1499   1.498   3.002   1.741  1.4340 -1.4107  0.5295
  500SOL    HW2 1500   1.449   2.857   1.670  0.8874 -0.2382 -0.0309
  501SOL     OW 1501   0.790   1.119   2.285 -0.0623 -0.0949  0.3963
  501SOL    HW1 1502   0.708   1.056   2.288  1.2773 -0.1541  0.6321
  501SOL    HW2 1503   0.853   1.102   2.208  0.8893 -0.7152 -1.9323
  502SOL     OW 1504   2.600   0.961   1.744 -0.6146 -0.5209  0.2548
  502SOL    HW1 1505   2.574   0.975   1.642  2.1058  0.8968 -1.4557
  502SOL    HW2 1506   2.549   0.876   1.781  0.1596  0.1848  0.9233
  503SOL     OW 1507   1.310   0.155   0.637 -0.0047 -0.2277 -0.1243
  503SOL    HW1 1508   1.246   0.236   0.624  1.0316  0.3321 -1.7495
  503SOL    HW2 1509   1.407   0.190   0.648  0.1262  0.6033  0.9430
  504SOL     OW 1510   2.969   2.320   1.449  0.1224 -0.1137  0.0056
  504SOL    HW1 1511   2.979   2.417   1.487 -0.0402  0.8773  1.6055
  504SOL    HW2 1512   2.868   2.285   1.472 -0.0323 -0.4070 -1.9844
  505SOL     OW 1513   2.303   1.288   1.474 -0.5961  0.7551  0.5347
  505SOL    HW1 1514   2.320   1.391   1.460  1.2415  0.1473 -0.7334
  505SOL    HW2 1515   2.391   1.235   1.450  1.2640 -2.0059 -0.6761
  506SOL     OW 1516   1.871   0.276   1.778 -0.1688  0.5614 -0.6769
  506SOL    HW1 1517   1.956   0.246   1.731  1.6408  1.1989 -0.6764
  506SOL    HW2 1518   1.890   0.351   1.852  1.0774  0.7399  1.4520
  507SOL     OW 1519   0.476   0.751   2.165  0.3782  0.2067 -0.2511
  507SOL    HW1 1520   0.390   0.752   2.106 -1.3678 -1.6707  1.3413
  507SOL    HW2 1521   0.522   0.657   2.165 -0.9956  0.7304  0.5591
  508SOL     OW 1522   0.192   1.618   0.852  0.1835 -0.5860  0.1967
  508SOL    HW1 1523   0.275   1.674   0.837 -1.4968 -1.5248  0.3770
  508SOL    HW2 1524   0.150   1.619   0.948 -1.1824 -1.3982  0.4427
  509SOL     OW 1525   1.336   1.198   2.586 -0.2391 -0.2411 -0.1934
  509SOL    HW1 1526   1.259   1.265   2.582 -1.4509  2.6359  0.1020
  509SOL    HW2 1527   1.316   1.099   2.567 -1.0592  2.1944  2.0930
  510SOL     OW 1528   1.340   2.012   2.039  0.7938  0.8168 -0.0633
  510SOL    HW1 1529   1.283   2.094   2.029  1.2706 -0.8070 -0.9731
  510SOL    HW2 1530   1.296   1.945   2.109 -1.4983 -2.4104  1.0825
  511SOL     OW 1531   3.047   2.635   1.299 -0.2385  0.2808 -0.3376
  511SOL    HW1 1532   2.982   2.607   1.221 -0.6134 -0.3571 -0.3346
  511SOL    HW2 1533   3.017   2.607   1.394  0.1044 -1.7472  1.4799
  512SOL     OW 1534   2.412   0.379   1.439 -0.0721 -0.3164 -0.3878
  512SOL    HW1 1535   2.313   0.405   1.409 -2.0827  0.1204  0.1430
  512SOL    HW2 1536   2.426   0.282   1.410 -3.0589  0.5603  2.2852
  513SOL     OW 1537   2.502   1.989   0.830  0.3322  0.5570  0.6176
  513SOL    HW1 1538   2.446   2.077   0.839 -3.5422 -2.1018 -2.6286
  513SOL    HW2 1539   2.551   1.985   0.738  1.4529 -1.5224  1.7275
  514SOL     OW 1540   0.688   2.800   0.408  0.0631  0.0404 -0.7405
  514SOL    HW1 1541   0.643   2.873   0.348  0.1705  2.7696 -0.5021
  514SOL    HW2 1542   0.716   2.839   0.504  0.2474  0.1403  1.5412
  515SOL     OW 1543   1.940   1.221   2.333  0.1973  0.2073 -0.3234
  515SOL    HW1 1544   1.865   1.248   2.264 -2.8221 -1.8734  1.2769
  515SOL    HW2 1545   1.906   1.231   2.427 -3.2036 -1.1122 -4.0253
  516SOL     OW 1546   0.296   0.405   1.987  0.2368  0.5493  0.3755
  516SOL    HW1 1547   0.391   0.375   1.967 -2.7440  1.2500  1.7590
  516SOL    HW2 1548   0.228   0.366   1.918  0.0237 -0.6489  1.0107
  517SOL     OW 1549   0.380   3.004   1.196 -0.4264 -0.8396  0.1358
  517SOL    HW1 1550   0.403   3.108   1.189 -0.3429 -1.7395 -1.2975
  517SOL    HW2 1551   0.288   2.994   1.246 -2.6884  2.4157  0.5110
  518SOL     OW 1552   2.117   0.180   1.646 -0.4872 -0.2512  0.8139
  518SOL    HW1 1553   2.186   0.205   1.720  0.2877  0.4310  1.5017
  518SOL    HW2 1554   2.157   0.105   1.585  0.6003  1.7400  1.8202
  519SOL     OW 1555   2.341   2.173   2.569  0.0951  0.2888  0.6279
  519SOL    HW1 1556   2.266   2.163   2.641  1.0699 -1.0937 -0.4854
  519SOL    HW2 1557   2.391   2.265   2.579  3.2456  0.8261 -2.0181
  520SOL     OW 1558   1.761   2.883   1.831  0.0631  0.1723 -0.1599
  520SOL    HW1 1559   1.685   2.830   1.878 -1.7637  2.2479  1.1181
  520SOL    HW2 1560   1.844   2.820   1.827  0.0190  0.6550 -0.1280
  521SOL     OW 1561   0.596   0.103   2.158  0.6479 -0.5149  0.5905
  521SOL    HW1 1562   0.510   0.053   2.183  0.8848 -2.4520 -1.1516
  521SOL    HW2 1563   0.673   0.079   2.224 -0.1290  2.0346  2.4156
  522SOL     OW 1564   0.212   1.915   1.532 -0.2454 -0.3895  0.0239
  522SOL    HW1 1565   0.265   1.956   1.613  0.1026  1.7828 -0.8679
  522SOL    HW2 1566   0.224   1.971   1.445  1.0254 -1.9775 -1.7043
  523SOL     OW 1567   2.256   3.037   1.603  0.3883  0.1595  0.2996
  523SOL    HW1 1568   2.292   2.961   1.538 -0.8509 -2.0401  0.8805
  523SOL    HW2 1569   2.175   3.007   1.657 -0.4843  0.0117 -0.8142
  524SOL     OW 1570   0.236   2.791   2.788 -0.4290 -0.4583 -0.0851
  524SOL    HW1 1571   0.190   2.861   2.854 -0.3792  1.1732  3.0769
  524SOL    HW2 1572   0.334   2.825   2.773  3.0987  2.0897  0.0480
  525SOL     OW 1573   2.117   1.963   0.471 -0.4174 -0.7519  0.1237
  525SOL    HW1 1574   2.102   1.877   0.527 -0.9262 -2.2255  2.8254
  525SOL    HW2 1575   2.153   1.943   0.377 -2.2969 -0.0285  0.9635
  526SOL     OW 1576   0.408   1.546   1.539 -0.7269 -0.1711 -0.0517
  526SOL    HW1 1577   0.346   1.534   1.626 -0.0377 -3.1311  1.9262
  526SOL    HW2 1578   0.474   1.464   1.529  0.9349 -0.4921  0.6905
  527SOL     OW 1579   1.134   2.884   1.198 -0.1835 -0.5587 -0.0453
  527SOL    HW1 1580   1.210   2.832   1.249  2.0311  4.1030 -1.3067
  527SOL    HW2 1581   1.147   2.986   1.207 -2.7256  0.2815 -0.1859
  528SOL     OW 1582   1.339   2.379   0.474 -0.1643  0.1680  0.2241
  528SOL    HW1 1583   1.389   2.289   0.503  0.6019 -1.4338 -0.4047
  528SOL    HW2 1584   1.366   2.456   0.544  1.0030 -0.3282 -0.0650
  529SOL     OW 1585   1.874   1.724   0.722  0.1439  0.1138 -0.6830
  529SOL    HW1 1586   1.855   1.739   0.619  0.7130  0.8100 -1.7922
  529SOL    HW2 1587   1.867   1.806   0.782 -0.1309 -0.2244  0.4458
  530SOL     OW 1588   0.361   2.442   0.219 -0.0241  0.2864 -0.7057
  530SOL    HW1 1589   0.324   2.525   0.275 -2.7411  2.2717  0.6481
  530SOL    HW2 1590   0.428   2.378   0.276 -1.4241  1.1519  0.6931
  531SOL     OW 1591   1.878   0.813   0.941 -0.2579  0.4048 -0.4373
  531SOL    HW1 1592   1.907   0.849   0.855 -0.4487 -0.8276  3.4000
  531SOL    HW2 1593   1.783   0.846   0.964  0.5125 -1.5236 -0.1066
  532SOL     OW 1594   0.445   1.114   0.746 -0.1348  0.5904 -0.2537
  532SOL    HW1 1595   0.486   1.085   0.656  1.7764  2.2044  1.6340
  532SOL    HW2 1596   0.420   1.041   0.811  2.9121  3.8867  1.6560
  533SOL     OW 1597   1.711   0.004   2.572 -0.5635  0.5617  0.3840
  533SOL    HW1 1598   1.810   0.001   2.606  0.4678 -1.0630 -2.1804
  533SOL    HW2 1599   1.654   0.078   2.621  2.4901  0.4068 -0.6213
  534SOL     OW 1600   0.377   0.196   1.536 -0.1939  0.3500 -0.6859
  534SOL    HW1 1601   0.479   0.182   1.548 -1.7641  0.1875 -1.6061
  534SOL    HW2 1602   0.349   0.294   1.538 -2.8410 -1.7859 -0.3164
  535SOL     OW 1603   1.962   0.332   0.170  0.1993  0.2338 -0.2188
  535SOL    HW1 1604   1.955   0.426   0.210  0.9797 -1.0458  0.0459
  535SOL    HW2 1605   1.977   0.249   0.235 -0.0165 -1.0332  0.9007
  536SOL     OW 1606   1.367   2.593   0.916  0.2349  0.1812  0.2810
  536SOL    HW1 1607   1.326   2.561   1.010 -2.4692 -0.0429  0.1009
  536SOL    HW2 1608   1.296   2.650   0.858 -1.7209  2.2384  1.6317
  537SOL     OW 1609   0.879   0.267   2.336  0.5836 -0.2014 -0.6232
  537SOL    HW1 1610   0.944   0.305   2.270 -2.4213 -2.5290  2.1170
  537SOL    HW2 1611   0.855   0.169   2.311  1.1779  2.4949 -1.8645
  538SOL     OW 1612   1.651   2.400   1.412 -0.2941 -0.1849 -0.0058
  538SOL    HW1 1613   1.663   2.301   1.434  0.2756  1.2678 -0.6438
  538SOL    HW2 1614   1.737   2.454   1.413 -2.0161 -0.7421  0.4880
  539SOL     OW 1615   0.195   1.591   2.675 -0.0551 -0.6559  0.4742
  539SOL    HW1 1616   0.097   1.569   2.651  1.5425 -0.9101 -0.3671
  539SOL    HW2 1617   0.202   1.674   2.739 -2.6575  1.6114  1.1565
  540SOL     OW 1618   2.650   1.749   1.932 -0.2993  0.1293  0.5078
  540SOL    HW1 1619   2.630   1.652   1.956  0.9939  0.9899 -0.7380
  540SOL    HW2 1620   2.577   1.825   1.945 -1.9016 -0.2178 -4.0621
  541SOL     OW 1621   0.497   2.149   0.002 -0.2404 -0.1581 -0.0087
  541SOL    HW1 1622   0.508   2.120   0.101  0.1117  0.6426 -0.1992
  541SOL    HW2 1623   0.399   2.152  -0.033  1.4591  1.1425 -0.5964
  542SOL     OW 1624   2.265   2.609   0.540 -0.2713 -0.5541 -0.0496
  542SOL    HW1 1625   2.252   2.700   0.588  0.4198 -0.6411 -1.1636
  542SOL    HW2 1626   2.182   2.547   0.553 -0.3141  1.9684  3.7223
  543SOL     OW 1627   1.078   1.786   1.587 -0.1029 -0.4228  0.4594
  543SOL    HW1 1628   1.117   1.805   1.676 -1.3373  2.7907 -1.1742
  543SOL    HW2 1629   1.036   1.870   1.541 -0.2697 -0.0242 -1.2138
  544SOL     OW 1630   1.138   0.551   0.122 -0.3772 -0.1548 -0.2151
  544SOL    HW1 1631   1.120   0.464   0.180  1.2576 -2.1213 -0.2010
  544SOL    HW2 1632   1.167   0.524   0.028 -0.4468  2.2469  0.6091
  545SOL     OW 1633   1.131   1.803   0.813 -0.0605 -0.3223  0.0393
  545SOL    HW1 1634   1.224   1.780   0.779 -1.5038 -2.7523 -1.3455
  545SOL    HW2 1635   1.076   1.716   0.841 -2.5001  1.3194  0.4029
  546SOL     OW 1636   2.665   1.595   2.991 -0.2507 -0.0150  0.2931
  546SOL    HW1 1637   2.621   1.689   2.971  0.9774 -2.9768 -0.2396
  546SOL    HW2 1638   2.593   1.518   2.978 -1.2331 -0.6882  0.8795
  547SOL     OW 1639   0.651   3.018   2.571 -0.0010 -1.1203 -0.1078
  547SOL    HW1 1640   0.713   2.965   2.638  0.8693 -2.0230  1.6984
  547SOL    HW2 1641   0.596   2.953   2.520 -1.8003  0.5312  3.6867
  548SOL     OW 1642   2.032   0.777   3.028  0.0127  0.3242  0.3624
  548SOL    HW1 1643   1.938   0.759   3.074 -0.3079 -0.1656 -1.9095
  548SOL    HW2 1644   2.079   0.863   3.061  0.5750 -0.3297 -0.3484
  549SOL     OW 1645   0.685   0.570   0.180  0.2509  0.1002  0.2150
  549SOL    HW1 1646   0.643   0.590   0.086 -2.4870 -1.1657 -2.6954
  549SOL    HW2 1647   0.773   0.621   0.197 -1.2271  0.0918 -0.4247
  550SOL     OW 1648   2.582   2.767   2.884 -0.1415  0.1450  0.2686
  550SOL    HW1 1649   2.542   2.699   2.950  0.3707  1.1855 -0.3159
  550SOL    HW2 1650   2.633   2.723   2.802  2.4630  1.4687  0.5782
  551SOL     OW 1651   0.255   0.867   0.198  0.3505  0.0256  0.0097
  551SOL    HW1 1652   0.359   0.874   0.193 -1.7750 -0.0200  0.8680
  551SOL    HW2 1653   0.208   0.926   0.274 -1.6004 -0.9681  1.4864
  552SOL     OW 1654   0.621   3.043   1.944  0.0305 -0.2224 -0.4767
  552SOL    HW1 1655   0.615   3.126   2.011  0.4566  0.6493  0.0866
  552SOL    HW2 1656   0.716   3.018   1.919 -1.5856 -1.4731 -1.4141
  553SOL     OW 1657   3.008   2.426   0.373  0.4353 -0.1726  0.2436
  553SOL    HW1 1658   3.008   2.327   0.414 -0.3243  1.3690  1.3525
  553SOL    HW2 1659   2.915   2.458   0.342  0.1780 -0.1042 -0.3903
  554SOL     OW 1660   2.219   0.359   0.551  0.3138  0.1383  0.3025
  554SOL    HW1 1661   2.274   0.377   0.462  1.6328 -4.1821 -1.4311
  554SOL    HW2 1662   2.232   0.263   0.583 -0.7769  1.5883  2.9279
  555SOL     OW 1663   0.485   2.833   2.472  0.6675 -0.3851 -0.0042
  555SOL    HW1 1664   0.390   2.874   2.444 -3.4920  1.2381 -0.0113
  555SOL    HW2 1665   0.503   2.754   2.409  1.0037  1.9174 -0.6396
  556SOL     OW 1666   0.840   2.394   1.598  0.3505 -0.7643 -0.2034
  556SOL    HW1 1667   0.876   2.472   1.665  2.2286 -0.0441  1.7116
  556SOL    HW2 1668   0.897   2.390   1.512 -0.6470  0.5419 -1.9850
  557SOL     OW 1669   0.204   2.103   0.259 -0.5978  0.7428 -0.2387
  557SOL    HW1 1670   0.123   2.047   0.220  0.3153  1.9746 -0.7856
  557SOL    HW2 1671   0.247   2.147   0.175 -2.0904  1.4102 -2.6663
  558SOL     OW 1672   2.845   2.180   0.400  0.2851 -0.2233  0.1499
  558SOL    HW1 1673   2.819   2.270   0.440  2.2899  3.0622  3.4440
  558SOL    HW2 1674   2.800   2.160   0.308 -0.9328 -2.2048 -2.7478
  559SOL     OW 1675   0.414   2.275   1.460  0.5295 -0.7310  0.1128
  559SOL    HW1 1676   0.323   2.318   1.447 -0.7061  0.2772 -0.6362
  559SOL    HW2 1677   0.466   2.249   1.371 -0.6123  1.8062 -0.5293
  560SOL     OW 1678   2.136   1.024   0.015  0.8133  0.3257  0.1276
  560SOL    HW1 1679   2.182   1.075   0.089 -0.7136 -0.8127 -3.2684
  560SOL    HW2 1680   2.191   1.018  -0.072 -2.3672 -0.9984 -0.2735
  561SOL     OW 1681   3.080   1.971   0.186 -0.7241  0.0840  0.1719
  561SOL    HW1 1682   3.049   1.895   0.249 -2.1307  2.1315  2.2073
  561SOL    HW2 1683   3.030   1.970   0.095  1.7478  1.7356 -2.6543
  562SOL     OW 1684   1.015   2.093   2.258 -0.0782  0.1000  0.1344
  562SOL    HW1 1685   0.993   2.173   2.325  0.4673  0.4720  0.7054
  562SOL    HW2 1686   0.955   2.014   2.281  0.1106 -1.2310  0.7045
  563SOL     OW 1687   0.661   2.537   2.645 -0.0740  0.2079  0.1473
  563SOL    HW1 1688   0.731   2.463   2.647  1.4535  1.5556 -1.4359
  563SOL    HW2 1689   0.645   2.581   2.738 -0.2700  1.2516  0.8932
  564SOL     OW 1690   2.857   1.428   2.834  0.2922 -0.2049  0.0928
  564SOL    HW1 1691   2.808   1.473   2.914 -2.6177  2.0927  0.0083
  564SOL    HW2 1692   2.936   1.490   2.800  0.6232 -0.7981 -0.2391
  565SOL     OW 1693   2.491   1.951   2.669 -0.2096 -0.1178  0.0556
  565SOL    HW1 1694   2.450   2.029   2.614 -2.4800  1.3694  1.3336
  565SOL    HW2 1695   2.576   1.974   2.724  0.2407  1.2424  1.9745
  566SOL     OW 1696   1.939   2.900   1.463  0.8288  0.0945  0.0799
  566SOL    HW1 1697   1.942   2.800   1.487  0.7841  1.0673 -2.4960
  566SOL    HW2 1698   1.925   2.908   1.362  3.2372  1.6891  1.4171
  567SOL     OW 1699   2.357   0.029   2.306  0.4147 -0.0007  0.1597
  567SOL    HW1 1700   2.260   0.055   2.340 -0.8130 -0.0152 -0.7308
  567SOL    HW2 1701   2.369   0.035   2.204 -2.4992 -0.6869  0.9860
  568SOL     OW 1702   1.475   1.772   0.213 -0.2587 -0.1022 -0.0460
  568SOL    HW1 1703   1.419   1.859   0.198 -1.4576  1.8236  0.9627
  568SOL    HW2 1704   1.577   1.791   0.226  3.1414  0.6825 -1.8350
  569SOL     OW 1705   0.271   0.537   0.847  0.3866 -0.1737  0.3902
  569SOL    HW1 1706   0.274   0.467   0.766 -1.3984 -2.1250 -0.8739
  569SOL    HW2 1707   0.174   0.536   0.883  0.4571  1.7055 -1.9290
  570SOL     OW 1708   0.665   0.863   2.899 -0.0480 -0.2529  0.0074
  570SOL    HW1 1709   0.682   0.882   2.794 -2.4652  0.5485 -1.6465
  570SOL    HW2 1710   0.707   0.935   2.959  1.7541 -2.1698 -0.9794
  571SOL     OW 1711   0.798   3.046   1.076 -0.3147 -0.3064 -0.0092
  571SOL    HW1 1712   0.865   3.110   1.028  2.1075 -1.1381  1.0206
  571SOL    HW2 1713   0.827   2.948   1.058 -0.0169 -1.6260  0.7415
  572SOL     OW 1714   1.675   2.740   1.437 -0.1093  0.3392 -0.2178
  572SOL    HW1 1715   1.629   2.683   1.363 -1.4390 -2.0860 -0.3662
  572SOL    HW2 1716   1.656   2.842   1.433  0.0957 -1.3296 -0.0148
  573SOL     OW 1717   3.022   0.452   1.929 -0.0859  0.0320  0.2230
  573SOL    HW1 1718   2.963   0.376   1.950  1.7336  0.5757 -0.5183
  573SOL    HW2 1719   3.109   0.419   1.882  1.8754  0.3659  2.2175
  574SOL     OW 1720   0.118   1.667   1.118  0.4633  0.5013  0.1369
  574SOL    HW1 1721   0.178   1.634   1.194 -2.2279 -2.4035  0.6942
  574SOL    HW2 1722   0.093   1.769   1.127  0.2506  1.8741  1.4452
  575SOL     OW 1723   0.829   2.278   0.982  0.1080 -0.0126 -0.4894
  575SOL    HW1 1724   0.835   2.312   1.081  1.2172  0.8483 -1.1128
  575SOL    HW2 1725   0.819   2.356   0.911  1.2852  3.4845 -1.6189
  576SOL     OW 1726   2.944   3.014   1.678  0.0147  0.3786 -0.3184
  576SOL    HW1 1727   2.854   2.983   1.647  1.0159  1.6892  1.5594
  576SOL    HW2 1728   2.972   3.112   1.648  2.4958  2.8744 -4.8077
  577SOL     OW 1729   2.668   1.218   3.072 -0.2292 -0.5139  0.1614
  577SOL    HW1 1730   2.678   1.132   3.010  2.0442  0.0304 -0.3259
  577SOL    HW2 1731   2.720   1.196   3.158 -2.4349  1.6675 -1.0475
  578SOL     OW 1732   1.377   2.720   2.545 -0.0801 -0.2694  0.4713
  578SOL    HW1 1733   1.285   2.755   2.510 -0.1753  2.1138 -2.0899
  578SOL    HW2 1734   1.454   2.780   2.509  0.2682 -2.0818  1.7023
  579SOL     OW 1735   0.084   2.420   0.140 -0.0981  0.2171 -0.8959
  579SOL    HW1 1736   0.032   2.409   0.224 -0.2961 -0.0011 -1.6979
  579SOL    HW2 1737   0.187   2.417   0.159  0.8320  3.0028  0.1582
  580SOL     OW 1738   0.962   2.697   0.366  0.4940  0.2783 -0.7163
  580SOL    HW1 1739   1.036   2.702   0.289 -0.0501 -0.6739 -1.3107
  580SOL    HW2 1740   0.875   2.751   0.347  0.6413 -1.0684 -0.9295
  581SOL     OW 1741   1.294   2.741   1.442 -0.6187 -0.9662 -0.2007
  581SOL    HW1 1742   1.331   2.646   1.467 -0.5962 -3.5238 -1.0113
  581SOL    HW2 1743   1.365   2.796   1.382  1.3668  1.6908  1.0065
  582SOL     OW 1744   1.487   0.085   1.857 -0.6957 -0.0358 -0.1355
  582SOL    HW1 1745   1.535   0.152   1.922  0.7106  2.2368  0.9483
  582SOL    HW2 1746   1.530   0.095   1.762 -1.9248  1.2424 -1.0473
  583SOL     OW 1747   2.437   2.994   0.481  0.6253  0.1806 -0.3371
  583SOL    HW1 1748   2.514   2.939   0.440  0.4634  1.4279  2.5278
  583SOL    HW2 1749   2.389   2.936   0.552  0.3357 -1.1281 -1.1510
  584SOL     OW 1750   1.532   1.075   2.259 -0.4558 -0.4416  0.1397
  584SOL    HW1 1751   1.549   1.174   2.268 -1.5028  0.1947 -0.0140
  584SOL    HW2 1752   1.607   1.006   2.276 -1.2203 -1.5150  2.5404
  585SOL     OW 1753   2.025   2.676   2.913 -0.0142  0.3103 -0.0959
  585SOL    HW1 1754   2.057   2.580   2.889 -0.9150 -1.4646  0.6405
  585SOL    HW2 1755   1.923   2.676   2.918 -2.5148 -1.9515 -0.9520
  586SOL     OW 1756   2.921   0.395   1.564 -0.0325  0.5316  0.1043
  586SOL    HW1 1757   2.914   0.481   1.619  0.2143 -2.5484  0.1076
  586SOL    HW2 1758   2.836   0.332   1.587 -2.4539 -3.8298  0.2866
  587SOL     OW 1759   2.195   1.482   2.778  0.2032  0.0268 -0.0413
  587SOL    HW1 1760   2.157   1.435   2.694 -0.3837 -0.9645 -2.8577
  587SOL    HW2 1761   2.287   1.525   2.759  2.0844 -2.4107 -0.2096
  588SOL     OW 1762   0.449   2.645   2.292 -0.2610  0.0319 -0.1431
  588SOL    HW1 1763   0.432   2.705   2.211 -0.6223 -2.7391  2.6837
  588SOL    HW2 1764   0.382   2.564   2.292 -1.6076 -2.4684 -1.3292
  589SOL     OW 1765   2.169   1.387   2.508  0.1493 -0.2264 -0.1513
  589SOL    HW1 1766   2.093   1.327   2.464 -0.7812 -3.4490  0.0111
  589SOL    HW2 1767   2.264   1.348   2.501  0.1932  1.0760 -1.5433
  590SOL     OW 1768   2.339   1.676   2.061 -0.1302 -0.2096 -0.2224
  590SOL    HW1 1769   2.419   1.612   2.042 -0.6278  0.9558 -0.5885
  590SOL    HW2 1770   2.351   1.709   2.159  1.1804  0.4469 -0.1849
  591SOL     OW 1771   1.303   2.426   0.208 -0.5940 -0.5669 -0.0178
  591SOL    HW1 1772   1.356   2.349   0.154 -0.0160 -0.4465 -0.4217
  591SOL    HW2 1773   1.321   2.421   0.307  0.0127  0.3753 -0.6511
  592SOL     OW 1774   1.797   2.366   0.822  0.4455 -0.0774 -0.4657
  592SOL    HW1 1775   1.777   2.428   0.743  0.3701  0.9430 -1.5542
  592SOL    HW2 1776   1.892   2.343   0.841 -0.9912 -0.9473  1.5662
  593SOL     OW 1777   0.759   0.304   0.173  0.3193 -0.2386 -0.1940
  593SOL    HW1 1778   0.805   0.266   0.090 -0.9335 -0.9806 -1.4224
  593SOL    HW2 1779   0.722   0.403   0.162 -1.6691 -0.6918  0.0636
  594SOL     OW 1780   1.032   1.820   2.654 -0.4288  0.6342 -0.3197
  594SOL    HW1 1781   1.126   1.824   2.622 -2.4053 -0.3234  1.8853
  594SOL    HW2 1782   1.020   1.864   2.746 -0.7709 -2.2331 -2.5393
  595SOL     OW 1783   1.562   0.145   1.008  0.0924 -0.6320 -0.0183
  595SOL    HW1 1784   1.627   0.067   0.988  2.5831  1.8988 -2.2610
  595SOL    HW2 1785   1.466   0.133   0.976  1.0688  0.3597  1.5837
  596SOL     OW 1786   0.193   1.446   2.167  0.4789  0.1883 -0.5918
  596SOL    HW1 1787   0.099   1.396   2.163 -0.4479  2.6323 -1.0258
  596SOL    HW2 1788   0.210   1.495   2.259 -0.3701  1.3594  3.1287
  597SOL     OW 1789   1.988   2.686   1.832 -0.3097  0.1671 -0.2366
  597SOL    HW1 1790   1.952   2.659   1.735 -2.2108 -0.9667  2.1231
  597SOL    HW2 1791   2.086   2.662   1.842 -1.8501 -0.3832 -2.2515
  598SOL     OW 1792   2.485   2.773   1.249  0.2754  0.1485 -0.4863
  598SOL    HW1 1793   2.579   2.789   1.289  1.3173 -0.9562 -2.4324
  598SOL    HW2 1794   2.463   2.672   1.234 -0.0193  0.3599 -1.6443
  599SOL     OW 1795   2.886   0.291   2.529 -0.2004  0.5518  0.0421
  599SOL    HW1 1796   2.973   0.286   2.466  2.3591  0.0795 -1.4591
  599SOL    HW2 1797   2.813   0.368   2.508 -1.1336  0.7488  0.8956
  600SOL     OW 1798   2.752   1.201   2.757  0.0504  0.2930 -0.1108
  600SOL    HW1 1799   2.667   1.178   2.809 -2.7954  1.3279 -2.8027
  600SOL    HW2 1800   2.782   1.300   2.782  3.0103 -1.1779  0.4365
  601SOL     OW 1801   3.006   1.368   1.890  0.0617 -0.1849 -0.4310
  601SOL    HW1 1802   2.909   1.396   1.871  0.8231  1.0059  1.5054
  601SOL    HW2 1803   3.072   1.449   1.899 -0.8379  0.2298 -0.0167
  602SOL     OW 1804   1.503   1.564   2.342  0.0303  0.6994  0.4467
  602SOL    HW1 1805   1.399   1.556   2.367 -2.6565  2.7484  0.7498
  602SOL    HW2 1806   1.557   1.613   2.414 -1.4135 -3.4028  3.1541
  603SOL     OW 1807   0.572   1.171   2.735  0.2628 -0.1960  0.0292
  603SOL    HW1 1808   0.492   1.221   2.686 -4.2573 -1.2452  1.9365
  603SOL    HW2 1809   0.561   1.069   2.716  0.6169 -0.1557  0.9934
  604SOL     OW 1810   2.525   1.031   0.256 -0.1300 -1.1048  0.2023
  604SOL    HW1 1811   2.615   1.079   0.232  0.5806  2.0713  2.1544
  604SOL    HW2 1812   2.479   0.983   0.175 -2.8512 -1.1183 -1.0376
  605SOL     OW 1813   2.599   1.210   1.912 -0.0045  0.2735  0.3542
  605SOL    HW1 1814   2.630   1.116   1.882 -1.2728 -0.5543  1.7085
  605SOL    HW2 1815   2.616   1.222   2.012 -0.9561  0.2097  0.1761
  606SOL     OW 1816   1.518   2.454   2.595 -0.1178  0.1413 -0.1133
  606SOL    HW1 1817   1.463   2.542   2.569 -0.3290  0.3455 -0.9710
  606SOL    HW2 1818   1.472   2.365   2.574  0.9461 -1.7786  1.3348
  607SOL     OW 1819   1.280   1.580   0.296 -0.5642 -0.3058 -0.3918
  607SOL    HW1 1820   1.216   1.652   0.329  1.2756  0.5920  1.1878
  607SOL    HW2 1821   1.370   1.631   0.283  0.3838 -0.0981 -0.4094
  608SOL     OW 1822   1.439   2.819   0.317 -0.4625  0.4809  0.0225
  608SOL    HW1 1823   1.495   2.852   0.236 -0.3843  1.0980 -0.6970
  608SOL    HW2 1824   1.388   2.894   0.369  0.2329 -0.2769  0.4608
  609SOL     OW 1825   1.294   1.285   0.182 -0.3225  0.2506 -0.2142
  609SOL    HW1 1826   1.279   1.372   0.238  0.6602 -2.9064  1.4610
  609SOL    HW2 1827   1.265   1.303   0.087  1.0985  2.2222 -0.3080
  610SOL     OW 1828   3.085   1.247   2.148  0.1285 -0.3269 -0.4459
  610SOL    HW1 1829   3.043   1.166   2.201  0.5351 -0.8184  1.7062
  610SOL    HW2 1830   3.026   1.280   2.066  2.6559  2.4668  0.4913
  611SOL     OW 1831   2.541   0.207   1.165  0.1932  0.1418 -0.1314
  611SOL    HW1 1832   2.503   0.112   1.175 -0.2304  0.0973  0.6808
  611SOL    HW2 1833   2.623   0.226   1.221 -0.5055  0.6577  0.2144
  612SOL     OW 1834   0.751   2.381   1.232  0.4385 -0.2145  0.3027
  612SOL    HW1 1835   0.689   2.295   1.240 -4.2550  2.2531  1.3475
  612SOL    HW2 1836   0.693   2.469   1.236  0.1177 -0.4949 -0.8190
  613SOL     OW 1837   0.771   1.367   2.383 -0.1240 -0.0001  0.1958
  613SOL    HW1 1838   0.802   1.443   2.316 -0.0358  0.9585  1.1972
  613SOL    HW2 1839   0.784   1.269   2.346  0.1036 -0.4666  1.7409
  614SOL     OW 1840   1.510   1.671   1.949  0.0267 -0.1276  0.2804
  614SOL    HW1 1841   1.477   1.758   1.893  2.8040  3.0660 -3.0934
  614SOL    HW2 1842   1.599   1.692   1.998 -1.1313  1.1635 -0.1005
  615SOL     OW 1843   0.703   1.464   1.720 -0.0760 -0.2399 -0.1696
  615SOL    HW1 1844   0.646   1.401   1.660  1.9698 -0.4607 -0.4293
  615SOL    HW2 1845   0.793   1.491   1.669  4.0062  0.6453 -1.1342
  616SOL     OW 1846   1.124   1.614   2.204 -0.5681  0.1529  0.3849
  616SOL    HW1 1847   1.023   1.618   2.215  1.0210 -0.0015 -2.0438
  616SOL    HW2 1848   1.160   1.595   2.106  3.0305  2.7086  1.1513
  617SOL     OW 1849   2.897   1.580   1.591 -0.0352  0.0058 -0.6666
  617SOL    HW1 1850   2.838   1.524   1.654  0.6413  0.3570  1.8141
  617SOL    HW2 1851   2.967   1.524   1.540 -1.0698  0.4473 -0.6758
  618SOL     OW 1852   1.885   1.990   1.494 -0.1421 -0.5689  0.2776
  618SOL    HW1 1853   1.962   2.011   1.432 -1.3478 -0.4317  2.6551
  618SOL    HW2 1854   1.867   1.887   1.507  0.2591 -3.3113  0.2585
  619SOL     OW 1855   1.790   0.532   2.397  0.0447  0.8219  0.1322
  619SOL    HW1 1856   1.719   0.586   2.344 -1.0615  0.4168 -0.7272
  619SOL    HW2 1857   1.764   0.433   2.408 -2.2420 -1.0920  0.1806
  620SOL     OW 1858   2.238   2.897   0.649 -0.2739 -0.9270 -0.0891
  620SOL    HW1 1859   2.141   2.932   0.664 -0.6597 -0.8853 -1.0311
  620SOL    HW2 1860   2.292   2.894   0.739  2.3653  1.7633  1.8000
  621SOL     OW 1861   2.131   1.871   1.359 -0.0863  0.7176  0.2255
  621SOL    HW1 1862   2.151   1.880   1.459 -0.1153  1.9636 -2.8980
  621SOL    HW2 1863   2.168   1.787   1.310 -1.1637  3.6948  2.1100
  622SOL     OW 1864   2.252   0.953   1.803 -0.6036  0.0065 -0.9716
  622SOL    HW1 1865   2.347   0.907   1.813  1.3482 -1.6465 -3.0939
  622SOL    HW2 1866   2.171   0.915   1.864  0.1921 -0.6868  0.1565
  623SOL     OW 1867   1.267   0.916   2.578  0.1116 -0.6016 -0.5272
  623SOL    HW1 1868   1.244   0.840   2.645 -2.9350  1.6391  0.9251
  623SOL    HW2 1869   1.230   0.892   2.487  0.2008  1.9359 -2.0763
  624SOL     OW 1870   0.561   0.676   3.064  0.3002 -0.9884 -0.1945
  624SOL    HW1 1871   0.614   0.731   2.989  3.4681  0.3868 -4.0463
  624SOL    HW2 1872   0.545   0.736   3.151 -1.4533  0.3012  3.6337
  625SOL     OW 1873   2.810   1.785   0.826  0.0599  0.3090  0.1027
  625SOL    HW1 1874   2.797   1.835   0.916 -1.1518 -0.3658 -2.2125
  625SOL    HW2 1875   2.725   1.736   0.789  0.0673  2.0370 -0.1293
  626SOL     OW 1876   0.420   2.835   2.053  0.6716  0.2620 -0.2492
  626SOL    HW1 1877   0.467   2.929   2.046  0.9916 -0.8147 -0.8978
  626SOL    HW2 1878   0.379   2.802   1.962 -0.2092  2.0283 -0.2867
  627SOL     OW 1879   0.694   1.007   1.535 -0.3517 -0.5737  0.1873
  627SOL    HW1 1880   0.750   0.913   1.538  4.0488 -3.7163 -0.1540
  627SOL    HW2 1881   0.744   1.077   1.477 -0.7330 -0.4375  1.4133
  628SOL     OW 1882   2.463   0.110   0.652 -0.0024  0.1079 -0.0042
  628SOL    HW1 1883   2.443   0.040   0.579  0.3912  1.8633  0.6800
  628SOL    HW2 1884   2.379   0.125   0.712  1.6651  0.6945  4.1963
  629SOL     OW 1885   2.001   0.956   1.949  0.2949 -0.0966  0.1867
  629SOL    HW1 1886   2.035   0.987   2.042  0.7500 -1.5268 -0.1687
  629SOL    HW2 1887   1.936   1.019   1.907 -0.5382  0.5307  2.7009
  630SOL     OW 1888   2.854   2.230   0.762 -0.2028  0.1721  0.4295
  630SOL    HW1 1889   2.768   2.256   0.804  1.0715 -0.8075  0.6053
  630SOL    HW2 1890   2.842   2.159   0.685 -0.2721 -1.7029 -3.2286
  631SOL     OW 1891   3.038   0.201   2.144  0.3877  0.3774  0.0278
  631SOL    HW1 1892   3.085   0.239   2.226 -1.0010 -0.2039 -1.3772
  631SOL    HW2 1893   3.100   0.190   2.062 -0.4573  0.7227  2.0055
  632SOL     OW 1894   2.414   2.504   0.743 -0.0343 -0.2633 -0.4528
  632SOL    HW1 1895   2.507   2.545   0.772  1.1954  1.0927 -3.1711
  632SOL    HW2 1896   2.389   2.540   0.652  0.9344 -1.0967  2.1561
  633SOL     OW 1897   1.556   1.248   2.725 -0.7758  0.0727  0.7931
  633SOL    HW1 1898   1.528   1.329   2.786  1.2526  0.9517 -0.2256
  633SOL    HW2 1899   1.481   1.215   2.658 -1.1738 -1.0763  1.9147
  634SOL     OW 1900   0.688   2.063   0.886  0.1448  0.2228 -0.8503
  634SOL    HW1 1901   0.592   2.077   0.934  0.2867  0.1552 -0.1757
  634SOL    HW2 1902   0.748   2.144   0.900 -2.1862 -1.0245 -0.5381
  635SOL     OW 1903   0.014   2.246   3.043 -0.6494  0.6191 -0.0320
  635SOL    HW1 1904  -0.050   2.286   2.975  2.9543  1.5742 -0.4017
  635SOL    HW2 1905   0.027   2.309   3.121 -2.6649 -0.5720  1.4187
  636SOL     OW 1906   2.351   2.841   1.985  0.0573  0.2516 -0.6951
  636SOL    HW1 1907   2.296   2.924   1.961  1.4340 -1.6851  0.8590
  636SOL    HW2 1908   2.314   2.803   2.074  0.8530 -2.2508 -0.7396
  637SOL     OW 1909   2.560   0.742   2.118  0.0173 -0.1381 -0.0796
  637SOL    HW1 1910   2.537   0.722   2.019 -3.2558  1.2969 -0.4665
  637SOL    HW2 1911   2.640   0.812   2.121 -0.9177  0.2717  1.2121
  638SOL     OW 1912   2.421   1.933   1.389 -0.1064 -0.3489 -0.1908
  638SOL    HW1 1913   2.322   1.967   1.403 -0.4666  2.0809 -0.0632
  638SOL    HW2 1914   2.426   1.841   1.352 -0.5147  0.0125 -1.6319
  639SOL     OW 1915   1.283   2.229   1.572 -0.0434  0.1331  0.2056
  639SOL    HW1 1916   1.263   2.155   1.501  0.7674 -0.3931  1.6489
  639SOL    HW2 1917   1.224   2.218   1.655 -0.6888  1.6329  0.5927
  640SOL     OW 1918   0.249   1.171   1.539 -0.0431  0.3490 -0.3880
  640SOL    HW1 1919   0.235   1.235   1.620  1.3639 -1.4174 -0.3948
  640SOL    HW2 1920   0.346   1.146   1.518  0.2392 -0.5112 -1.6433
  641SOL     OW 1921   1.875   0.287   1.418  0.1820  0.4022  0.3221
  641SOL    HW1 1922   1.818   0.359   1.475 -0.7221 -0.9201  0.0862
  641SOL    HW2 1923   1.899   0.206   1.470 -1.4032  2.1718 -0.0589
  642SOL     OW 1924   1.988   0.123   0.350 -0.3605  0.0262  0.0206
  642SOL    HW1 1925   2.087   0.089   0.356 -1.5936 -0.3519 -2.3797
  642SOL    HW2 1926   1.957   0.174   0.435 -1.2984  0.5182  2.1957
  643SOL     OW 1927   2.837   1.878   2.124  0.3700  0.3433 -0.4844
  643SOL    HW1 1928   2.787   1.805   2.072  0.6733  0.2075 -2.2705
  643SOL    HW2 1929   2.848   1.959   2.058 -0.2841  1.3356 -1.8314
  644SOL     OW 1930   2.226   2.310   1.198  0.1894  0.6497 -0.8354
  644SOL    HW1 1931   2.307   2.255   1.163  1.6015  1.6159 -0.9976
  644SOL    HW2 1932   2.222   2.297   1.304 -2.7126 -2.2698  1.8635
  645SOL     OW 1933   0.670   0.854   1.095  0.3273  0.3788  0.1658
  645SOL    HW1 1934   0.602   0.790   1.053 -2.0162  4.5727  0.6140
  645SOL    HW2 1935   0.660   0.952   1.070  0.8319 -1.6317  0.7796
  646SOL     OW 1936   1.443   1.898   1.805 -0.2425 -0.0373 -0.4700
  646SOL    HW1 1937   1.525   1.965   1.783  1.8993  3.4762  0.3710
  646SOL    HW2 1938   1.393   1.943   1.886 -0.2798  1.1016  1.0189
  647SOL     OW 1939   0.877   0.888   0.672 -0.0952 -0.1523 -0.5296
  647SOL    HW1 1940   0.933   0.926   0.753  1.0481  0.1805  2.6060
  647SOL    HW2 1941   0.775   0.883   0.701 -0.4160  3.7084  0.3448
  648SOL     OW 1942   0.027   0.220   0.324  0.0226  0.4751  0.0814
  648SOL    HW1 1943  -0.010   0.132   0.273 -2.4179 -0.4159 -0.9416
  648SOL    HW2 1944   0.029   0.302   0.262  1.3099 -1.0354  1.2866
  649SOL     OW 1945   0.026   0.048   0.976  0.8187  0.3068  0.9588
  649SOL    HW1 1946   0.116  -0.002   0.968  2.0126 -0.2947 -0.5096
  649SOL    HW2 1947   0.000   0.078   1.069 -0.0975  1.1047 -0.8883
  650SOL     OW 1948   2.737   0.719   1.456  0.2671  0.0661 -0.2464
  650SOL    HW1 1949   2.655   0.677   1.500  1.2822  1.0190 -0.1972
  650SOL    HW2 1950   2.726   0.809   1.410 -0.9512 -0.6801 -0.0390
  651SOL     OW 1951   0.882   1.598   1.472  0.0803 -0.2240 -0.2829
  651SOL    HW1 1952   0.931   1.681   1.512  3.7837  2.4179 -1.1581
  651SOL    HW2 1953   0.783   1.623   1.441  0.4186 -1.5114  0.7251
  652SOL     OW 1954   2.264   2.513   2.356  0.0354 -0.4231 -0.0367
  652SOL    HW1 1955   2.195   2.482   2.423  1.0340  1.8705 -1.2812
  652SOL    HW2 1956   2.253   2.609   2.316 -1.1031  2.2997 -1.4726
  653SOL     OW 1957   2.796   1.135   0.199  0.5797 -0.6152  0.3021
  653SOL    HW1 1958   2.836   1.220   0.237  1.5332  0.4592  0.5723
  653SOL    HW2 1959   2.846   1.047   0.227 -0.8407 -0.9100 -2.8550
  654SOL     OW 1960   1.204   2.221   1.213  0.2646 -0.0291 -0.6316
  654SOL    HW1 1961   1.212   2.162   1.298  2.9850 -1.5018 -1.4170
  654SOL    HW2 1962   1.273   2.187   1.143  0.1343 -1.5395 -0.2684
  655SOL     OW 1963   0.219   1.046   1.915 -0.3161 -0.1484  0.0584
  655SOL    HW1 1964   0.272   0.995   1.851 -1.0251  1.9306  0.5693
  655SOL    HW2 1965   0.273   1.126   1.952 -1.9972 -0.9797 -2.4717
  656SOL     OW 1966   2.461   2.409   2.575 -0.8370  0.2137 -0.6205
  656SOL    HW1 1967   2.568   2.417   2.560  1.1113 -1.4553 -3.0348
  656SOL    HW2 1968   2.414   2.480   2.513 -3.0837  2.7438  0.0564
  657SOL     OW 1969   3.055   1.098   1.877  0.3902  0.1324  0.0398
  657SOL    HW1 1970   3.039   1.202   1.874  2.1789  0.9120  1.9054
  657SOL    HW2 1971   3.154   1.075   1.901 -0.7396 -1.1035 -1.7570
  658SOL     OW 1972   1.713   0.253   2.384  0.1638 -0.2677  0.2694
  658SOL    HW1 1973   1.724   0.170   2.443  3.3044 -4.4764  1.1033
  658SOL    HW2 1974   1.785   0.250   2.305  0.0447 -1.6951  0.4403
  659SOL     OW 1975   1.411   0.622   2.820  0.5412 -0.3310 -0.0253
  659SOL    HW1 1976   1.488   0.686   2.796 -1.7437  1.8246 -1.4483
  659SOL    HW2 1977   1.320   0.664   2.785 -0.4995 -0.1361 -1.1650
  660SOL     OW 1978   1.365   0.395   1.443  0.1012 -0.2269  0.5248
  660SOL    HW1 1979   1.404   0.422   1.539  1.7407 -1.9283  1.8699
  660SOL    HW2 1980   1.434   0.358   1.381 -1.9157 -1.8245  0.2257
  661SOL     OW 1981   2.436   1.126   0.656 -0.2144  0.3306 -0.4865
  661SOL    HW1 1982   2.488   1.064   0.589  0.8628 -0.7872  0.9972
  661SOL    HW2 1983   2.363   1.184   0.605  0.2241  1.8256 -2.1317
  662SOL     OW 1984   1.285   0.437   1.848  0.1934 -0.5214  0.1946
  662SOL    HW1 1985   1.227   0.355   1.841  1.3585  2.5886  0.7846
  662SOL    HW2 1986   1.245   0.487   1.929 -2.6460 -3.7897 -1.3422
  663SOL     OW 1987   0.830   1.573   2.198 -0.5418  0.8404  0.4897
  663SOL    HW1 1988   0.770   1.645   2.233 -0.9900 -2.7566  0.7285
  663SOL    HW2 1989   0.801   1.546   2.104  0.0991 -0.9032 -1.3001
  664SOL     OW 1990   1.627   2.072   1.400 -0.7383  0.4330  0.3278
  664SOL    HW1 1991   1.550   2.010   1.439 -1.2552 -1.3099  1.9223
  664SOL    HW2 1992   1.721   2.048   1.436 -0.9222 -0.0066 -1.2329
  665SOL     OW 1993   2.272   0.603   1.981 -0.4735 -0.2874 -0.2135
  665SOL    HW1 1994   2.284   0.511   2.034  0.1289 -1.5852 -0.2875
  665SOL    HW2 1995   2.174   0.640   2.002 -1.7973 -0.1251  2.1472
  666SOL     OW 1996   0.515   2.272   0.468  0.2035 -1.0401  0.0528
  666SOL    HW1 1997   0.544   2.374   0.476  4.3809  0.1933 -0.3355
  666SOL    HW2 1998   0.442   2.246   0.534  0.1889 -0.2730 -1.8758
  667SOL     OW 1999   2.088   0.227   0.988  0.0218  0.2428 -0.4596
  667SOL    HW1 2000   2.131   0.315   1.014 -2.4065 -2.0179 -0.2935
  667SOL    HW2 2001   1.993   0.225   1.031 -2.1800  0.7386 -0.6713
  668SOL     OW 2002   2.074   0.626   1.280  0.1411 -0.2063 -0.5567
  668SOL    HW1 2003   2.115   0.577   1.201  0.0528  1.2727  0.1201
  668SOL    HW2 2004   2.081   0.569   1.367  2.2101 -3.0331 -0.4224
  669SOL     OW 2005   3.040   2.218   0.972 -0.3061  1.1864  0.3074
  669SOL    HW1 2006   2.984   2.237   0.883 -3.1177  0.5886 -2.1578
  669SOL    HW2 2007   2.984   2.184   1.052 -1.8432 -0.9361 -1.2130
  670SOL     OW 2008   2.808   2.362   2.015  0.5662  0.3993  0.0141
  670SOL    HW1 2009   2.762   2.369   2.107  1.3014 -1.4970  0.0590
  670SOL    HW2 2010   2.785   2.443   1.951 -1.0447  2.5197 -0.2504
  671SOL     OW 2011   1.686   1.761   1.448 -0.0405  0.4645 -0.3564
  671SOL    HW1 2012   1.681   1.756   1.347 -0.4775  1.1278  3.8839
  671SOL    HW2 2013   1.595   1.799   1.480 -1.3656 -0.2300 -2.1408
  672SOL     OW 2014   0.397   0.680   2.438  0.2240 -0.5874 -0.2223
  672SOL    HW1 2015   0.398   0.669   2.338  2.3905  1.4148 -1.2051
  672SOL    HW2 2016   0.305   0.716   2.467  0.3601 -0.1775 -0.8809
  673SOL     OW 2017   0.125   1.255   1.087 -0.1284  0.1268  0.4931
  673SOL    HW1 2018   0.122   1.300   1.179 -0.6217  2.1222  0.5051
  673SOL    HW2 2019   0.214   1.199   1.074  0.8094 -1.7057  1.5872
  674SOL     OW 2020   1.600   2.943   0.151 -0.0138  0.6817 -0.1706
  674SOL    HW1 2021   1.620   3.047   0.146  0.6618  2.5522  1.0964
  674SOL    HW2 2022   1.670   2.888   0.095 -1.6371  0.3191  0.6304
  675SOL     OW 2023   1.721   0.876   2.344 -0.7124  0.1432  0.3508
  675SOL    HW1 2024   1.825   0.860   2.349 -1.9714  0.7392  2.3487
  675SOL    HW2 2025   1.675   0.785   2.335  1.7893 -1.1266  1.6650
  676SOL     OW 2026   2.544   1.496   2.002  0.0141 -0.7975 -0.8250
  676SOL    HW1 2027   2.497   1.480   1.913 -0.2145 -0.6964 -0.6691
  676SOL    HW2 2028   2.545   1.411   2.064  1.8997 -0.7383  1.6335
  677SOL     OW 2029   1.947   0.548   0.936 -0.1499 -0.5364  0.4953
  677SOL    HW1 2030   1.929   0.656   0.935  0.5326  0.2604 -2.4321
  677SOL    HW2 2031   1.885   0.493   0.996  2.4003 -1.2634 -0.8665
  678SOL     OW 2032   0.073   0.741   1.680 -0.2212 -0.3744  0.7207
  678SOL    HW1 2033   0.164   0.787   1.695 -0.2450  1.5504 -0.6201
  678SOL    HW2 2034   0.001   0.777   1.746 -1.0691  2.2447 -0.1937
  679SOL     OW 2035   2.467   1.163   1.149  0.8113  0.0486  0.2152
  679SOL    HW1 2036   2.366   1.186   1.138 -0.8153 -1.1030  0.0717
  679SOL    HW2 2037   2.503   1.087   1.084 -0.0545 -0.0771  0.3382
  680SOL     OW 2038   2.855   0.639   1.690  0.0505 -0.6621 -0.0670
  680SOL    HW1 2039   2.820   0.698   1.605 -2.3475 -0.1543  0.0768
  680SOL    HW2 2040   2.925   0.687   1.752 -1.3856  1.8675  0.7216
  681SOL     OW 2041   3.057   0.163   1.630 -0.0584  0.3744 -0.3836
  681SOL    HW1 2042   3.125   0.123   1.561  2.4778 -0.7099  0.4850
  681SOL    HW2 2043   3.019   0.253   1.602  2.0237 -0.1605  0.1039
  682SOL     OW 2044   0.723   3.076   1.353  0.0283 -0.6233  0.3895
  682SOL    HW1 2045   0.668   2.992   1.390 -0.0334  0.5755  0.7545
  682SOL    HW2 2046   0.764   3.055   1.257  1.4821  2.8232 -1.3336
  683SOL     OW 2047   1.422   0.212   2.229 -0.0904 -0.0626 -0.2179
  683SOL    HW1 2048   1.429   0.261   2.319 -0.1435 -0.1442 -0.1467
  683SOL    HW2 2049   1.481   0.260   2.153  1.8485  0.2253 -1.1799
  684SOL     OW 2050   1.460   2.142   0.492  0.1024  0.2179 -0.0823
  684SOL    HW1 2051   1.534   2.080   0.535  1.2697  0.2941 -3.0221
  684SOL    HW2 2052   1.382   2.084   0.456 -0.5828  1.7416 -0.3274
  685SOL     OW 2053   2.127   1.920   2.013  0.1052  0.3978  0.5573
  685SOL    HW1 2054   2.190   1.990   1.971  0.1818 -0.9928  0.7460
  685SOL    HW2 2055   2.171   1.830   2.031 -0.3144  0.5942 -0.4851
  686SOL     OW 2056   1.509   1.709   2.743 -0.5573 -0.3445 -0.2880
  686SOL    HW1 2057   1.480   1.620   2.778 -0.7146  0.0320 -0.8747
  686SOL    HW2 2058   1.585   1.750   2.796 -2.6496 -1.0359 -2.6264
  687SOL     OW 2059   1.324   2.497   1.916 -0.2665 -0.1252  0.2928
  687SOL    HW1 2060   1.351   2.399   1.888  0.0284 -2.3066  0.1164
  687SOL    HW2 2061   1.384   2.547   1.980 -1.0213  2.1511 -1.1225
  688SOL     OW 2062   2.036   1.521   1.578  0.2199 -0.7223  0.2702
  688SOL    HW1 2063   2.135   1.545   1.564 -0.5872  0.3308 -3.0967
  688SOL    HW2 2064   1.990   1.506   1.488 -0.0992  1.8774 -0.9540
  689SOL     OW 2065   2.475   1.076   2.746 -0.5765  0.1170  0.1735
  689SOL    HW1 2066   2.389   1.041   2.793 -0.9434  1.4447  2.3693
  689SOL    HW2 2067   2.552   1.045   2.808 -2.9070 -0.0090 -0.4925
  690SOL     OW 2068   2.247   2.791   3.021 -0.1940  0.1093  0.3632
  690SOL    HW1 2069   2.161   2.742   3.000  0.7352  1.4953 -2.0999
  690SOL    HW2 2070   2.244   2.857   3.104  2.9813  0.1187 -1.1054
  691SOL     OW 2071   2.600   0.449   2.129 -0.4408  0.0716  0.0505
  691SOL    HW1 2072   2.679   0.410   2.072  0.4217 -0.0381  0.0197
  691SOL    HW2 2073   2.592   0.553   2.120  0.2662  1.0345 -0.4868
  692SOL     OW 2074   2.726   1.222   0.659  0.0013 -0.4205  0.4782
  692SOL    HW1 2075   2.624   1.206   0.678 -1.9604 -0.1930 -2.1901
  692SOL    HW2 2076   2.757   1.311   0.700 -0.5239 -4.1197  0.2142
  693SOL     OW 2077   2.818   2.938   0.639  0.5337 -0.7882  0.1845
  693SOL    HW1 2078   2.834   3.022   0.698 -1.8431 -2.4082  0.5706
  693SOL    HW2 2079   2.779   2.964   0.543 -0.2698  2.0209  0.4701
  694SOL     OW 2080   2.407   2.177   0.056  0.2373  0.8513 -0.2656
  694SOL    HW1 2081   2.395   2.264   0.108  0.4292 -1.6643  1.1038
  694SOL    HW2 2082   2.320   2.109   0.056 -1.4270 -2.4464  5.4883
  695SOL     OW 2083   0.543   2.910   1.481  0.1817  0.7369  0.4607
  695SOL    HW1 2084   0.470   2.837   1.467  1.3469  0.2363  1.2625
  695SOL    HW2 2085   0.514   2.979   1.557  0.0289  1.6966 -0.9608
  696SOL     OW 2086   2.728   1.990   0.660 -0.0631  0.1939  0.1389
  696SOL    HW1 2087   2.774   1.905   0.698  0.3333 -0.9731 -2.8187
  696SOL    HW2 2088   2.667   1.965   0.577 -2.6701  1.4820  0.0015
  697SOL     OW 2089   1.693   2.050   1.751  0.2370  0.2588  0.5038
  697SOL    HW1 2090   1.769   2.018   1.815 -0.8721  0.8325 -1.0330
  697SOL    HW2 2091   1.724   2.051   1.654  0.8125 -0.0841  0.6791
  698SOL     OW 2092   2.943   0.339   2.793  0.1869  0.1201 -0.1352
  698SOL    HW1 2093   2.941   0.324   2.689 -1.5027 -0.5889 -1.3114
  698SOL    HW2 2094   3.014   0.297   2.847 -1.8147  1.7387  1.4206
  699SOL     OW 2095   1.542   0.118   2.922  0.1244 -0.4274 -0.1517
  699SOL    HW1 2096   1.504   0.020   2.906  0.8316  0.6760  1.5252
  699SOL    HW2 2097   1.601   0.156   2.845 -1.5256 -0.9901 -2.0304
  700SOL     OW 2098   0.996   2.439   1.352 -0.5792  0.3323 -0.1777
  700SOL    HW1 2099   1.074   2.382   1.312 -0.5831 -0.5145 -2.9321
  700SOL    HW2 2100   0.904   2.427   1.306  2.0321  2.2375  0.2250
  701SOL     OW 2101   1.820   2.860   3.094  0.1964 -0.3446 -0.6994
  701SOL    HW1 2102   1.856   2.803   3.175  0.4811 -0.4118 -0.2412
  701SOL    HW2 2103   1.866   2.952   3.088 -0.0404 -0.4257 -0.6070
  702SOL     OW 2104   2.100   1.353   1.805  0.2929  0.4174 -0.5707
  702SOL    HW1 2105   2.190   1.298   1.795  1.8902 -0.6858  1.3034
  702SOL    HW2 2106   2.080   1.421   1.732 -1.5986 -2.1642  0.9711
  703SOL     OW 2107   1.967   0.908   1.470  0.2911 -0.2022 -0.3791
  703SOL    HW1 2108   1.970   0.813   1.520 -1.4635 -0.3585 -0.3048
  703SOL    HW2 2109   1.990   0.991   1.526  0.3376 -0.5286 -1.4636
  704SOL     OW 2110   0.277   2.059   1.781  0.4035 -0.4513 -0.5648
  704SOL    HW1 2111   0.321   2.009   1.864 -0.8118  1.4256  2.2994
  704SOL    HW2 2112   0.346   2.124   1.745 -2.6015  2.0973 -3.7459
  705SOL     OW 2113   2.549   1.418   0.871 -0.1252  0.0275  0.0799
  705SOL    HW1 2114   2.452   1.393   0.898  0.3108 -1.7215  1.0059
  705SOL    HW2 2115   2.623   1.399   0.942 -2.6836 -0.4673  1.6054
  706SOL     OW 2116   0.624   1.768   1.870 -0.2706  0.0399 -0.6027
  706SOL    HW1 2117   0.653   1.674   1.897 -3.0560  1.3597 -0.2315
  706SOL    HW2 2118   0.696   1.840   1.898 -2.0803  2.1349 -1.2284
  707SOL     OW 2119   2.349   1.211   1.789  0.1253 -0.3752 -1.1990
  707SOL    HW1 2120   2.441   1.204   1.830 -0.7470  0.0452 -2.1029
  707SOL    HW2 2121   2.295   1.127   1.804  0.6186  2.1478  0.3446
  708SOL     OW 2122   3.038   0.515   3.057 -0.3239  0.2810  0.4734
  708SOL    HW1 2123   3.044   0.573   2.966 -0.6232 -0.4098  2.2510
  708SOL    HW2 2124   3.066   0.411   3.039  0.4119 -0.7944  2.4765
  709SOL     OW 2125   1.764   1.829   0.220  0.0919 -0.0486  0.4377
  709SOL    HW1 2126   1.795   1.929   0.244 -0.2590  0.6153 -0.1918
  709SOL    HW2 2127   1.753   1.819   0.120 -0.6129  0.2091 -0.7756
  710SOL     OW 2128   1.757   1.679   2.451 -0.1910  0.4655 -0.3091
  710SOL    HW1 2129   1.787   1.643   2.361 -0.1751 -4.3062  2.2066
  710SOL    HW2 2130   1.781   1.606   2.519 -3.7298 -0.2397 -2.8021
  711SOL     OW 2131   2.617   2.925   0.972  0.0034 -0.2131  0.0527
  711SOL    HW1 2132   2.615   3.021   0.929  1.7274 -0.8194  3.1938
  711SOL    HW2 2133   2.703   2.903   1.021 -2.6155 -2.1473  1.3671
  712SOL     OW 2134   1.509   2.309   1.748  0.2714  0.4096  0.5428
  712SOL    HW1 2135   1.577   2.243   1.780  0.2653  1.3326 -1.9181
  712SOL    HW2 2136   1.470   2.287   1.655  1.0535 -0.8147  0.1069
  713SOL     OW 2137   2.842   1.313   2.518 -0.2019 -0.2032 -0.0595
  713SOL    HW1 2138   2.823   1.248   2.436 -1.5762 -0.4748  1.2332
  713SOL    HW2 2139   2.795   1.285   2.604  1.8205  2.4900 -0.4577
  714SOL     OW 2140   2.670   0.432   2.455 -0.3028 -0.2442 -0.2795
  714SOL    HW1 2141   2.601   0.413   2.532 -0.5020 -0.7277 -0.2625
  714SOL    HW2 2142   2.626   0.448   2.362 -0.3086  1.1641  0.0519
  715SOL     OW 2143   1.655   2.068   1.113 -0.6521  0.3827 -0.0154
  715SOL    HW1 2144   1.571   2.126   1.100  0.5578 -0.0697  0.4880
  715SOL    HW2 2145   1.655   2.037   1.215  0.2636 -1.4153  0.0978
  716SOL     OW 2146   1.185   0.198   1.451  0.1919 -0.6881  0.2409
  716SOL    HW1 2147   1.077   0.202   1.451 -1.5253 -2.1085  2.4302
  716SOL    HW2 2148   1.232   0.292   1.434 -0.3959  0.0678 -2.9181
  717SOL     OW 2149   1.045   0.540   1.602  0.2647 -0.7267  0.0845
  717SOL    HW1 2150   1.141   0.572   1.601 -0.2578 -1.0022 -1.9011
  717SOL    HW2 2151   1.019   0.518   1.504 -2.4777 -2.0340  2.2352
  718SOL     OW 2152   0.651   1.112   1.011 -0.3204  0.3309  0.4531
  718SOL    HW1 2153   0.687   1.119   0.913  0.6384 -1.4030 -1.5090
  718SOL    HW2 2154   0.698   1.180   1.072 -0.6921  2.0564  0.4402
  719SOL     OW 2155   0.692   1.805   2.257  0.8959 -0.4420  0.1219
  719SOL    HW1 2156   0.741   1.832   2.344 -0.9117  0.1130 -0.6106
  719SOL    HW2 2157   0.602   1.846   2.250 -1.7971 -0.9078  2.8463
  720SOL     OW 2158   2.272   1.167   0.213 -0.1207  0.1747  0.1847
  720SOL    HW1 2159   2.374   1.145   0.216  0.0568 -0.2993 -2.8609
  720SOL    HW2 2160   2.234   1.172   0.311 -1.6982  1.0630 -0.7487
  721SOL     OW 2161   2.244   3.095   2.013  0.5405 -0.2970  0.1992
  721SOL    HW1 2162   2.264   3.178   1.951 -0.8983 -0.8592 -0.1869
  721SOL    HW2 2163   2.146   3.091   2.051  0.0681 -1.3657 -0.3150
  722SOL     OW 2164   2.420   1.688   0.490  0.5429  0.8205  0.2914
  722SOL    HW1 2165   2.433   1.615   0.417 -0.8382  0.0242 -0.1125
  722SOL    HW2 2166   2.323   1.710   0.514  1.7262  3.1594  0.4596
  723SOL     OW 2167   2.617   2.866   1.901 -0.4554  0.4194  0.1081
  723SOL    HW1 2168   2.665   2.907   1.986  0.3398  2.9645  0.7717
  723SOL    HW2 2169   2.520   2.827   1.918  2.9584 -1.7803  0.9093
  724SOL     OW 2170   0.307   2.406   2.344  0.0631 -0.0133 -0.7479
  724SOL    HW1 2171   0.226   2.463   2.369  1.9987 -0.0197 -0.5524
  724SOL    HW2 2172   0.370   2.399   2.431 -0.9543  0.9915  0.7701
  725SOL     OW 2173   2.313   2.791   1.465  0.4997  0.0941 -0.2177
  725SOL    HW1 2174   2.369   2.798   1.384 -2.2250 -0.2358  2.8047
  725SOL    HW2 2175   2.322   2.698   1.503  0.2135  2.4660 -1.7700
  726SOL     OW 2176   2.395   2.236   0.791 -0.3925  0.0179 -0.2829
  726SOL    HW1 2177   2.379   2.340   0.783 -1.3948  1.6416 -0.5826
  726SOL    HW2 2178   2.380   2.191   0.696  2.8228  2.3527 -1.4280
  727SOL     OW 2179   0.238   3.099   0.150 -0.4104  0.0968 -0.1044
  727SOL    HW1 2180   0.274   3.020   0.090  0.6234  1.5263 -2.6344
  727SOL    HW2 2181   0.251   3.191   0.100  0.2009  3.1497  2.7202
  728SOL     OW 2182   2.819   0.664   1.076 -0.4999  0.3194 -0.1745
  728SOL    HW1 2183   2.736   0.643   1.021  0.2900  1.0971 -0.4607
  728SOL    HW2 2184   2.821   0.616   1.170 -0.0798  3.0408  1.0270
  729SOL     OW 2185   2.977   2.467   0.718  0.2980  0.0133 -0.4262
  729SOL    HW1 2186   2.920   2.389   0.738  2.6715  0.6884  1.5849
  729SOL    HW2 2187   3.078   2.447   0.724 -0.9903  1.0610 -1.7577
  730SOL     OW 2188   2.625   0.574   0.843  0.1229  0.5369 -0.3982
  730SOL    HW1 2189   2.576   0.663   0.824  0.6827 -0.8073  0.4244
  730SOL    HW2 2190   2.689   0.531   0.770 -2.8745 -0.0840  1.3091
  731SOL     OW 2191   0.140   2.121   2.478  0.6564  0.0583  0.4181
  731SOL    HW1 2192   0.156   2.149   2.575 -0.9800 -0.8121 -0.0442
  731SOL    HW2 2193   0.126   2.203   2.408  3.0072 -0.7916 -0.4931
  732SOL     OW 2194   1.148   2.844   2.025 -0.4133 -0.0537 -0.0764
  732SOL    HW1 2195   1.154   2.767   2.096  2.8831 -2.3594 -1.1722
  732SOL    HW2 2196   1.154   2.809   1.925 -1.2322  1.1633 -2.0998
  733SOL     OW 2197   3.026   0.686   2.132 -0.5505 -0.3125  0.2969
  733SOL    HW1 2198   3.121   0.730   2.113  1.3130  1.0586  1.4575
  733SOL    HW2 2199   3.019   0.598   2.077  0.4078 -0.1532 -1.2854
  734SOL     OW 2200   1.376   0.372   2.686 -0.0314  0.0224  0.0246
  734SOL    HW1 2201   1.393   0.459   2.738  0.4638 -0.5986 -4.3389
  734SOL    HW2 2202   1.308   0.304   2.728 -1.5079 -1.7765  1.8173
  735SOL     OW 2203   2.803   2.633   2.287 -0.0514  0.3205 -0.2419
  735SOL    HW1 2204   2.720   2.640   2.225  0.1184 -2.1773 -1.3468
  735SOL    HW2 2205   2.889   2.624   2.236 -1.5825  0.5573  0.4685
  736SOL     OW 2206   0.807   0.378   2.585  0.1287 -0.0024 -0.0167
  736SOL    HW1 2207   0.736   0.451   2.602  0.6042 -0.0097 -0.6294
  736SOL    HW2 2208   0.809   0.340   2.491 -1.1747  0.9979 -1.1503
  737SOL     OW 2209   2.675   0.461   2.877 -0.2596 -0.3916  0.2030
  737SOL    HW1 2210   2.645   0.441   2.973 -0.1115  2.4882  2.0588
  737SOL    HW2 2211   2.760   0.408   2.856 -0.6090 -2.5770 -1.0507
  738SOL     OW 2212   1.670   1.139   3.059  0.4437 -0.3557  0.8212
  738SOL    HW1 2213   1.767   1.151   3.031 -1.8220 -0.5167  0.0658
  738SOL    HW2 2214   1.635   1.042   3.064  1.7946  0.6315  3.1707
  739SOL     OW 2215   1.804   0.531   0.692  0.6067 -0.0605  0.4328
  739SOL    HW1 2216   1.854   0.505   0.781 -1.4960  0.2136 -0.9537
  739SOL    HW2 2217   1.808   0.460   0.617  0.0614  0.4951 -1.4070
  740SOL     OW 2218   1.898   2.041   2.134 -0.1717  0.1693  0.0042
  740SOL    HW1 2219   1.943   1.966   2.079 -0.9776 -0.2715 -1.1032
  740SOL    HW2 2220   1.796   2.057   2.109  0.0626  0.1353  0.8209
  741SOL     OW 2221   2.515   0.044   2.605  0.4404 -0.7115  0.4479
  741SOL    HW1 2222   2.614   0.037   2.574 -0.9401 -3.3106  0.8286
  741SOL    HW2 2223   2.451   0.041   2.521 -0.3540 -4.8063 -0.7875
  742SOL     OW 2224   2.264   1.393   0.082  0.3944  0.2365  0.5655
  742SOL    HW1 2225   2.195   1.466   0.113 -0.5191  1.0709  0.0998
  742SOL    HW2 2226   2.228   1.295   0.112 -0.4572 -2.3819  1.6839
  743SOL     OW 2227   1.751   0.649   2.645  0.2945 -0.0617  0.0649
  743SOL    HW1 2228   1.770   0.591   2.560  0.2974 -0.2542  0.9709
  743SOL    HW2 2229   1.680   0.719   2.618  0.1581  1.0189 -1.4479
  744SOL     OW 2230   2.679   2.084   0.090  0.1219  0.0461  0.7811
  744SOL    HW1 2231   2.579   2.098   0.113  1.2200  0.9498  1.4893
  744SOL    HW2 2232   2.733   2.013   0.136  0.3418  2.0843  1.7624
  745SOL     OW 2233   2.197   2.740   2.200  0.2788  0.7267  0.2388
  745SOL    HW1 2234   2.095   2.723   2.180  0.5989 -0.6608  0.3124
  745SOL    HW2 2235   2.217   2.783   2.287 -0.0416 -0.3984 -2.7148
  746SOL     OW 2236   3.076   2.603   1.813  0.0698 -0.2194 -0.2769
  746SOL    HW1 2237   3.178   2.616   1.795  2.2592 -0.4622 -1.0593
  746SOL    HW2 2238   3.030   2.686   1.857 -1.2366  1.1525 -0.6486
  747SOL     OW 2239   0.027   1.788   1.675  0.0038 -0.1876 -0.0850
  747SOL    HW1 2240  -0.035   1.713   1.635 -0.7187 -0.6389  1.3548
  747SOL    HW2 2241   0.104   1.819   1.611  0.6579  0.5314 -0.5884
  748SOL     OW 2242   1.746   2.728   2.862  0.4391 -0.6425 -0.3224
  748SOL    HW1 2243   1.764   2.782   2.947  1.5216 -0.8223  2.5800
  748SOL    HW2 2244   1.645   2.718   2.833  0.2713  1.5741 -2.6427
  749SOL     OW 2245   1.311   0.064   0.896  0.6147  0.1311 -0.1475
  749SOL    HW1 2246   1.251  -0.020   0.906  2.2371  1.5323 -1.3069
  749SOL    HW2 2247   1.318   0.095   0.796 -0.1890  0.5303 -0.4771
  750SOL     OW 2248   2.268   0.244   1.876  0.3297 -0.0853  0.0901
  750SOL    HW1 2249   2.347   0.285   1.821  1.0566 -0.7481  1.3023
  750SOL    HW2 2250   2.263   0.278   1.976 -0.8395  0.9864 -2.9934
  751SOL     OW 2251   0.855   2.260   2.908  0.2143  0.2175  0.1668
  751SOL    HW1 2252   0.928   2.261   2.982 -0.4563 -0.0845  2.3788
  751SOL    HW2 2253   0.810   2.163   2.900  0.8007 -1.6312 -0.9676
  752SOL     OW 2254   1.260   0.911   1.509 -0.3871 -0.7359 -0.2489
  752SOL    HW1 2255   1.351   0.951   1.483 -1.1919 -1.0913  0.4823
  752SOL    HW2 2256   1.272   0.815   1.544  0.9471 -1.3121 -2.1573
  753SOL     OW 2257   0.909   2.614   1.758 -0.6220 -0.0812 -0.4496
  753SOL    HW1 2258   0.973   2.643   1.682  1.2453 -0.7129  1.9691
  753SOL    HW2 2259   0.828   2.680   1.762 -1.8771 -0.6455 -2.3882
  754SOL     OW 2260   1.133   1.328   3.041 -0.1402 -0.0238  0.3176
  754SOL    HW1 2261   1.166   1.251   2.973  0.5287 -0.0770  0.4982
  754SOL    HW2 2262   1.134   1.421   2.999  0.7081 -0.1659  0.9929
  755SOL     OW 2263   2.020   0.522   2.249  0.3932 -0.2110  0.6155
  755SOL    HW1 2264   2.101   0.477   2.292 -0.9035  1.0484  0.2987
  755SOL    HW2 2265   1.938   0.524   2.315 -0.8996 -0.1977  0.7016
  756SOL     OW 2266   2.638   0.963   2.921  0.1994  0.2192  0.0999
  756SOL    HW1 2267   2.682   0.872   2.904 -0.1139 -0.5418 -2.1117
  756SOL    HW2 2268   2.552   0.953   2.976 -0.8966  0.7255  0.9654
  757SOL     OW 2269   0.165   0.465   1.715  0.3228 -0.6220 -0.2622
  757SOL    HW1 2270   0.125   0.559   1.743 -1.4941 -0.3228 -0.6967
  757SOL    HW2 2271   0.174   0.456   1.615 -0.0922 -0.4799  2.9713
  758SOL     OW 2272   2.500   0.068   1.506 -0.5671 -0.1033 -0.3201
  758SOL    HW1 2273   2.427   0.015   1.557  0.8944 -0.2670 -2.5360
  758SOL    HW2 2274   2.500   0.038   1.406 -0.7568 -0.9335 -0.6237
  759SOL     OW 2275   1.664   0.090   0.087 -0.1663  0.4169  0.0701
  759SOL    HW1 2276   1.607   0.119   0.006 -1.1647 -3.4427  1.9531
  759SOL    HW2 2277   1.763   0.067   0.068 -0.3383  0.4679  2.3083
  760SOL     OW 2278   2.732   1.950   2.758  0.1103  0.3534 -0.4648
  760SOL    HW1 2279   2.743   1.851   2.778 -0.5290 -1.1624  1.6959
  760SOL    HW2 2280   2.812   1.998   2.708 -0.5851  3.0774  0.8099
  761SOL     OW 2281   1.893   1.733   1.630 -0.4006 -0.0449  0.6508
  761SOL    HW1 2282   1.966   1.657   1.625 -1.7512  1.4754 -1.6115
  761SOL    HW2 2283   1.805   1.706   1.578 -0.7312 -1.2020  0.1088
  762SOL     OW 2284   0.514   2.393   0.986 -0.0924  0.1417 -0.0072
  762SOL    HW1 2285   0.557   2.441   0.900  0.6939  2.7776 -1.7667
  762SOL    HW2 2286   0.532   2.438   1.075  0.4702 -1.9319 -0.7713
  763SOL     OW 2287   2.005   1.583   2.966 -0.1783 -0.1241 -0.0764
  763SOL    HW1 2288   2.074   1.531   2.904  0.3490  2.9799 -0.8003
  763SOL    HW2 2289   1.940   1.518   3.021 -2.9215  0.6163 -2.7895
  764SOL     OW 2290   0.687   0.589   0.839 -0.0396 -0.0023 -0.1573
  764SOL    HW1 2291   0.695   0.553   0.742  1.0299  0.0916 -0.5682
  764SOL    HW2 2292   0.780   0.577   0.884 -0.5113 -0.0808 -0.6663
  765SOL     OW 2293   0.633   0.232   0.801 -0.0081  0.0385  0.1842
  765SOL    HW1 2294   0.721   0.267   0.760 -0.4918 -0.3461  0.5622
  765SOL    HW2 2295   0.637   0.243   0.908 -0.3325  0.6393  0.1049
  766SOL     OW 2296   3.025   1.966   3.004 -0.4456 -0.2287 -1.1828
  766SOL    HW1 2297   2.952   1.970   2.927 -0.1403 -1.1031 -1.3586
  766SOL    HW2 2298   3.098   2.038   2.994  1.7139 -1.0119 -1.2207
  767SOL     OW 2299   2.747   1.569   0.483 -0.8348 -0.1710 -0.0352
  767SOL    HW1 2300   2.692   1.596   0.567  0.0362  0.7944  2.0670
  767SOL    HW2 2301   2.849   1.598   0.489  0.2338 -0.3107 -1.1733
  768SOL     OW 2302   1.057   0.296   0.276  0.2197  0.0389  0.3698
  768SOL    HW1 2303   0.970   0.268   0.232 -1.0183 -0.2423  0.2828
  768SOL    HW2 2304   1.138   0.228   0.259  3.1799 -0.8217 -1.7596
  769SOL     OW 2305   1.322   1.815   2.250  0.8317 -0.8554 -0.1246
  769SOL    HW1 2306   1.413   1.773   2.286 -0.0174 -0.9027  0.5119
  769SOL    HW2 2307   1.246   1.749   2.244  0.9420 -2.1635  0.8092
  770SOL     OW 2308   0.190   1.122   2.300  0.1516  0.8512 -0.3148
  770SOL    HW1 2309   0.154   1.149   2.391  0.3706  1.4974  0.9051
  770SOL    HW2 2310   0.140   1.166   2.221  3.1156  0.5023  0.8873
  771SOL     OW 2311   2.962   2.838   1.902 -0.1660  0.0527 -0.4568
  771SOL    HW1 2312   2.949   2.906   1.822  1.8486 -0.3294  0.7480
  771SOL    HW2 2313   2.960   2.879   2.001  1.0309  0.1295  2.8427
  772SOL     OW 2314   2.134   0.070   3.006  0.2677 -0.0236  0.0868
  772SOL    HW1 2315   2.219   0.010   3.000  1.3784  2.9494 -0.7968
  772SOL    HW2 2316   2.158   0.163   3.053  1.4327  0.0497  1.0400
  773SOL     OW 2317   0.735   2.140   2.479  0.3509 -0.2330 -0.2094
  773SOL    HW1 2318   0.683   2.138   2.389  1.7850  1.2437  0.1853
  773SOL    HW2 2319   0.662   2.135   2.559 -3.6620  0.5712 -1.8153
  774SOL     OW 2320   1.967   0.015   2.669 -0.4167 -0.0869 -0.1185
  774SOL    HW1 2321   1.977   0.100   2.732  3.3954 -0.6882  0.6291
  774SOL    HW2 2322   2.036  -0.054   2.693 -0.6313 -1.3892  0.5044
  775SOL     OW 2323   2.504   2.913   2.343 -0.4860  0.0974 -0.4245
  775SOL    HW1 2324   2.446   2.998   2.335  1.8833  1.4996 -2.0807
  775SOL    HW2 2325   2.576   2.911   2.416  1.2903 -0.2475 -1.2546
  776SOL     OW 2326   0.007   1.148   0.254  0.2565  0.1710 -0.1204
  776SOL    HW1 2327  -0.034   1.185   0.167  2.4830 -0.0561 -1.4390
  776SOL    HW2 2328  -0.057   1.149   0.336 -1.1248  0.2057  1.1064
  777SOL     OW 2329   0.322   2.711   0.406 -0.2024  0.3664 -0.1005
  777SOL    HW1 2330   0.219   2.696   0.423 -1.0545 -1.4390  2.4016
  777SOL    HW2 2331   0.340   2.810   0.429  0.8262 -0.4734 -0.2854
  778SOL     OW 2332   1.325   1.989   0.172 -0.5448  0.3714  0.0300
  778SOL    HW1 2333   1.285   2.008   0.268  0.4756 -0.3147  1.6309
  778SOL    HW2 2334   1.362   2.074   0.119 -1.2997 -0.6195 -1.1578
  779SOL     OW 2335   0.167   0.802   0.496  0.5122 -0.1173 -0.0572
  779SOL    HW1 2336   0.120   0.711   0.480 -0.2119  1.1737  0.6258
  779SOL    HW2 2337   0.127   0.864   0.569  3.3156 -1.5812 -1.4976
  780SOL     OW 2338   0.042   0.311   2.357  0.7562 -0.6179  0.2522
  780SOL    HW1 2339   0.000   0.409   2.367 -1.5810  2.7950 -3.6487
  780SOL    HW2 2340   0.143   0.311   2.335  0.3585  1.4155 -0.3437
  781SOL     OW 2341   0.556   1.786   1.605  0.0039 -0.0650 -0.1211
  781SOL    HW1 2342   0.597   1.792   1.703  2.2966  0.7358  2.1436
  781SOL    HW2 2343   0.485   1.709   1.599 -1.2777  1.5571 -0.0788
  782SOL     OW 2344   2.626   0.075   0.895 -0.8983  0.1573  0.0098
  782SOL    HW1 2345   2.573   0.109   0.811  0.8029  1.3431  0.9591
  782SOL    HW2 2346   2.604   0.134   0.974 -0.8333  0.3659 -3.0156
  783SOL     OW 2347   2.831   0.635   2.555  0.6441  0.2798  0.3708
  783SOL    HW1 2348   2.785   0.677   2.639  0.8517 -1.5395 -0.1446
  783SOL    HW2 2349   2.778   0.559   2.504  0.4281 -3.2152  1.0845
  784SOL     OW 2350   1.423   2.217   0.021 -0.0401  0.1651 -0.4066
  784SOL    HW1 2351   1.505   2.250   0.074  1.8692  0.2673  1.0109
  784SOL    HW2 2352   1.445   2.182  -0.075  1.9402  1.2732  1.4898
  785SOL     OW 2353   2.185   0.321   0.019 -0.0735  0.2427 -0.1880
  785SOL    HW1 2354   2.097   0.318   0.071  2.5853 -0.3321 -1.6070
  785SOL    HW2 2355   2.225   0.414  -0.003  0.7617 -2.5649  0.3069
  786SOL     OW 2356   2.089   2.197   2.246  0.6534  0.0101  0.3955
  786SOL    HW1 2357   2.033   2.129   2.186  1.5368  0.7272 -0.2896
  786SOL    HW2 2358   2.185   2.156   2.264 -1.0933  1.6663  0.5339
  787SOL     OW 2359   1.356   0.634   0.722 -0.2585 -0.0722 -0.2778
  787SOL    HW1 2360   1.308   0.709   0.671 -1.3168 -0.0711 -1.5590
  787SOL    HW2 2361   1.391   0.567   0.662 -0.7622  2.5298 -2.4245
  788SOL     OW 2362   1.230   0.483   2.980 -0.1123  0.1896  0.5022
  788SOL    HW1 2363   1.131   0.498   2.974 -1.1371 -1.0266 -0.5245
  788SOL    HW2 2364   1.284   0.566   2.941  0.3113  2.2599 -0.9438
  789SOL     OW 2365   2.634   0.080   1.892  0.0190  0.6478  0.4937
  789SOL    HW1 2366   2.539   0.112   1.903 -2.1035 -1.3002  1.7507
  789SOL    HW2 2367   2.645  -0.018   1.935  0.6853  0.8609  0.1315
  790SOL     OW 2368   2.643   2.663   0.843  0.5343 -0.5180  0.2860
  790SOL    HW1 2369   2.693   2.668   0.754 -2.1022 -0.1171  0.6689
  790SOL    HW2 2370   2.659   2.753   0.897 -1.8650 -1.3501 -1.3049
  791SOL     OW 2371   1.930   1.175   0.214 -0.2369 -0.0204  0.2824
  791SOL    HW1 2372   1.841   1.155   0.261  2.1513  2.2169 -1.1456
  791SOL    HW2 2373   1.985   1.089   0.201 -0.7883 -2.5749 -1.1457
  792SOL     OW 2374   0.449   1.968   2.254 -0.3314  0.2938  0.0886
  792SOL    HW1 2375   0.443   2.072   2.269  0.5578  0.6678  0.9051
  792SOL    HW2 2376   0.357   1.921   2.273  1.2553  1.5106  0.1998
  793SOL     OW 2377   2.096   1.537   2.024  0.1753  0.6283 -0.4214
  793SOL    HW1 2378   2.182   1.587   2.019  1.3293 -0.5051  0.1087
  793SOL    HW2 2379   2.069   1.465   1.951 -1.1597 -0.8180 -1.2780
  794SOL     OW 2380   0.573   1.542   2.476  0.1492 -0.1686  0.2206
  794SOL    HW1 2381   0.652   1.481   2.455 -0.6771  0.7929  0.6987
  794SOL    HW2 2382   0.504   1.535   2.399  2.8406 -1.0475 -1.5458
  795SOL     OW 2383   2.429   2.352   1.854 -0.3229  0.5134 -0.0725
  795SOL    HW1 2384   2.423   2.396   1.948 -1.3121 -0.0321 -2.1696
  795SOL    HW2 2385   2.360   2.277   1.845 -3.9426  1.4811  0.3372
  796SOL     OW 2386   3.047   1.144   2.720  0.6001  0.5467  0.0478
  796SOL    HW1 2387   2.944   1.153   2.723  0.5183  0.3487 -0.1841
  796SOL    HW2 2388   3.093   1.168   2.811 -1.2059  0.4971 -0.7216
  797SOL     OW 2389   0.691   0.601   1.338  0.4475  0.2225  0.4070
  797SOL    HW1 2390   0.777   0.641   1.377  0.7497  2.2742 -0.6587
  797SOL    HW2 2391   0.633   0.662   1.277 -0.3745  2.4831 -1.8218
  798SOL     OW 2392   1.217   0.522   0.924  0.0601  0.3731  1.0251
  798SOL    HW1 2393   1.240   0.585   0.998 -0.5837 -0.4187 -0.2054
  798SOL    HW2 2394   1.244   0.553   0.830 -2.4091 -1.6198 -1.1871
  799SOL     OW 2395   1.789   2.712   1.044 -0.3369 -0.0998  0.3020
  799SOL    HW1 2396   1.784   2.623   1.093 -1.4351  1.7953  0.7534
  799SOL    HW2 2397   1.831   2.714   0.950  5.0631 -1.5097  2.3224
  800SOL     OW 2398   2.988   0.837   1.857 -0.2892 -0.0885 -0.2304
  800SOL    HW1 2399   3.012   0.938   1.871  2.6364  1.6821 -1.2398
  800SOL    HW2 2400   2.951   0.793   1.942 -1.2202 -1.0514  2.0099
  801SOL     OW 2401   1.984   2.237   0.111  0.7020  0.2414  0.2218
  801SOL    HW1 2402   1.972   2.301   0.033  2.0332  0.0300  0.2027
  801SOL    HW2 2403   2.053   2.162   0.086 -0.4772 -0.3070 -0.7398
  802SOL     OW 2404   0.677   0.652   2.538  0.5805 -0.7519 -0.1281
  802SOL    HW1 2405   0.733   0.662   2.450  0.9849 -0.7951 -0.8910
  802SOL    HW2 2406   0.575   0.642   2.513 -0.7865 -2.4287 -0.8953
  803SOL     OW 2407   0.955   0.111   0.890 -0.0574 -0.0616 -0.0495
  803SOL    HW1 2408   1.020   0.180   0.926 -1.6086 -2.6695  0.7183
  803SOL    HW2 2409   0.919   0.137   0.799 -0.1264 -1.3454  2.7624
  804SOL     OW 2410   0.331   0.026   2.182  0.4664  0.0030  0.4405
  804SOL    HW1 2411   0.328   0.127   2.202  0.5141  0.1673  2.7255
  804SOL    HW2 2412   0.252  -0.004   2.123 -0.3509 -1.0862 -0.5620
  805SOL     OW 2413   2.397   0.351   0.334 -0.2301 -0.2875 -0.4689
  805SOL    HW1 2414   2.475   0.333   0.407  1.6245 -0.1575  0.3978
  805SOL    HW2 2415   2.400   0.279   0.256  0.0714 -2.8715 -0.8488
  806SOL     OW 2416   0.633   2.663   1.965  0.3444 -0.1674  0.3968
  806SOL    HW1 2417   0.572   2.727   2.022 -1.1639  0.8635  2.1490
  806SOL    HW2 2418   0.657   2.705   1.873  3.3307  1.9526  3.2818
  807SOL     OW 2419   2.543   0.910   0.509  0.7729  0.1947  0.0502
  807SOL    HW1 2420   2.634   0.861   0.526 -1.9656 -1.0202  1.1277
  807SOL    HW2 2421   2.531   0.950   0.415  1.4162 -0.3620 -0.4273
  808SOL     OW 2422   0.701   2.022   2.913 -0.2130 -0.3134 -0.3983
  808SOL    HW1 2423   0.626   2.043   2.980 -0.3292  1.3443 -4.6597
  808SOL    HW2 2424   0.721   1.921   2.911  1.2327  1.8886  1.0567
  809SOL     OW 2425   2.556   2.006   1.907 -0.4612  0.1917  0.3260
  809SOL    HW1 2426   2.659   2.029   1.910  1.4149  0.9128 -0.6160
  809SOL    HW2 2427   2.517   1.989   1.813  2.8961  1.1879 -1.1494
  810SOL     OW 2428   2.191   1.183   0.480  0.3940  0.3932  0.1540
  810SOL    HW1 2429   2.158   1.092   0.520 -3.3399 -1.7468 -2.0354
  810SOL    HW2 2430   2.149   1.273   0.519  0.4191  2.1255  0.7327
  811SOL     OW 2431   1.246   2.517   1.152 -0.0942  0.1459  0.2336
  811SOL    HW1 2432   1.241   2.410   1.171 -2.9324 -1.9398  2.5411
  811SOL    HW2 2433   1.259   2.574   1.245  3.2400  2.0931  2.5572
  812SOL     OW 2434   1.454   0.759   1.995  0.3946  0.0425  0.0207
  812SOL    HW1 2435   1.352   0.758   2.025 -2.8243 -0.2935  1.1313
  812SOL    HW2 2436   1.494   0.851   1.961 -0.1022  1.6176  0.0874
  813SOL     OW 2437   1.626   2.051   2.398 -0.6354  0.1209 -0.1577
  813SOL    HW1 2438   1.728   2.071   2.409 -1.2986  1.1246 -0.2203
  813SOL    HW2 2439   1.603   2.036   2.295  1.1107  0.3433  1.2427
  814SOL     OW 2440   2.990   1.706   2.902 -0.5574 -0.1045 -0.1355
  814SOL    HW1 2441   3.067   1.652   2.944  0.8107  0.0065  0.6810
  814SOL    HW2 2442   2.976   1.801   2.945 -1.5544 -0.8064  0.6813
  815SOL     OW 2443   2.167   2.871   2.718 -0.3205  0.4724  0.4187
  815SOL    HW1 2444   2.131   2.798   2.777  0.1584 -0.0520 -1.6048
  815SOL    HW2 2445   2.253   2.913   2.759  0.4070 -0.7240  1.0078
  816SOL     OW 2446   1.484   0.411   1.671  0.4199  0.4370 -0.1343
  816SOL    HW1 2447   1.551   0.332   1.677 -0.8430  0.5606 -0.3771
  816SOL    HW2 2448   1.416   0.423   1.752  1.1496  0.3218  2.2826
  817SOL     OW 2449   0.366   1.255   2.552 -0.0537 -0.0429 -0.0061
  817SOL    HW1 2450   0.264   1.267   2.553  3.3473  1.5073 -1.6129
  817SOL    HW2 2451   0.407   1.327   2.493  0.3352 -1.9679 -0.3697
  818SOL     OW 2452   2.001   0.781   0.453 -0.1406 -0.3366  0.3863
  818SOL    HW1 2453   2.101   0.778   0.431 -3.4359  1.2578 -0.6881
  818SOL    HW2 2454   1.982   0.834   0.540  0.2306 -2.1626  0.6015
  819SOL     OW 2455   2.798   2.900   3.010  0.7509 -0.0185  0.3710
  819SOL    HW1 2456   2.875   2.839   2.974  1.8362 -2.4526 -0.6185
  819SOL    HW2 2457   2.702   2.853   2.978 -0.4506 -4.6311 -0.5532
  820SOL     OW 2458   1.208   1.091   0.566 -0.3728 -0.0963 -0.0765
  820SOL    HW1 2459   1.261   1.173   0.588 -2.9813 -3.6070  0.4936
  820SOL    HW2 2460   1.192   1.039   0.653  3.5462  1.2558 -3.1583
  821SOL     OW 2461   0.018   1.231   0.750  0.5554 -0.3889  0.2505
  821SOL    HW1 2462  -0.001   1.255   0.850 -1.1841  0.5266  2.1862
  821SOL    HW2 2463   0.074   1.306   0.705 -1.2346  0.8722  4.3080
  822SOL     OW 2464   2.568   1.773   2.454  0.0547 -0.1002 -0.2625
  822SOL    HW1 2465   2.552   1.819   2.544  0.0241  1.8181 -1.1045
  822SOL    HW2 2466   2.483   1.767   2.393  1.3853 -1.4531 -0.4560
  823SOL     OW 2467   1.997   0.909   1.198  0.3891 -0.6190  0.5489
  823SOL    HW1 2468   1.965   0.905   1.293  0.7038  1.0630 -2.5579
  823SOL    HW2 2469   1.971   0.829   1.141  0.2044 -0.4869  0.0204
  824SOL     OW 2470   0.207   1.819   2.850  0.3571 -0.5998  0.1526
  824SOL    HW1 2471   0.206   1.836   2.955 -2.5146  0.0628  1.4422
  824SOL    HW2 2472   0.284   1.871   2.803 -1.3034  1.9325  0.6019
  825SOL     OW 2473   1.264   1.031   0.281 -0.3983  0.1111 -0.0341
  825SOL    HW1 2474   1.295   1.122   0.248  1.5260 -0.9633 -1.0606
  825SOL    HW2 2475   1.247   1.033   0.385  1.1712 -2.1134 -0.1206
  826SOL     OW 2476   1.975   0.665   1.600  0.2724  0.0959  0.5335
  826SOL    HW1 2477   2.061   0.613   1.618  0.0828  0.9620 -2.3924
  826SOL    HW2 2478   1.887   0.614   1.580 -0.6565  3.2685 -2.1495
  827SOL     OW 2479   0.733   1.208   0.516 -0.0316  0.1546 -0.2114
  827SOL    HW1 2480   0.812   1.154   0.477 -0.6106 -1.1290  2.6376
  827SOL    HW2 2481   0.640   1.166   0.499  1.6658  2.0351  0.4172
  828SOL     OW 2482   2.722   0.168   1.632  0.5711 -0.4356  0.5510
  828SOL    HW1 2483   2.623   0.174   1.597  1.0427 -0.6837 -1.0630
  828SOL    HW2 2484   2.726   0.132   1.729 -0.6166  0.4318  3.0157
  829SOL     OW 2485   2.899   2.367   2.879  0.5299  0.0185 -0.0053
  829SOL    HW1 2486   2.802   2.340   2.900  0.3940  1.9854  3.0306
  829SOL    HW2 2487   2.930   2.453   2.928  0.1443  0.4620 -2.1993
  830SOL     OW 2488   2.974   0.934   2.961  0.6009  0.1689 -0.3072
  830SOL    HW1 2489   2.973   1.036   2.981 -0.1554  0.6945  2.3786
  830SOL    HW2 2490   2.949   0.872   3.040  1.4830  0.3334  0.1476
  831SOL     OW 2491   0.003   0.585   0.453 -0.7516 -0.0878 -0.4101
  831SOL    HW1 2492   0.001   0.545   0.548  0.6566 -1.6192 -1.0014
  831SOL    HW2 2493   0.030   0.510   0.385  1.9093  0.3698 -0.4107
  832SOL     OW 2494   1.792   0.723   0.036  0.2780 -0.1944  0.4171
  832SOL    HW1 2495   1.705   0.780   0.010  2.0122 -0.3327 -0.6379
  832SOL    HW2 2496   1.780   0.618   0.034  2.5037 -2.4596 -2.8936
  833SOL     OW 2497   2.361   2.122   0.545  0.2164  0.3487 -0.6024
  833SOL    HW1 2498   2.266   2.099   0.510  0.9947 -2.8411 -2.1217
  833SOL    HW2 2499   2.437   2.055   0.509  0.7249 -1.0136 -1.9284
  834SOL     OW 2500   0.073   0.072   0.576 -0.2632 -0.0550  0.2094
  834SOL    HW1 2501   0.160   0.029   0.547 -0.2459  1.5846 -2.0981
  834SOL    HW2 2502   0.028   0.129   0.498 -2.9300  1.6875 -1.2231
  835SOL     OW 2503   2.495   1.697   1.106  0.1092  0.4181 -0.5358
  835SOL    HW1 2504   2.553   1.622   1.158  0.6753 -0.3347  1.8352
  835SOL    HW2 2505   2.550   1.777   1.074  3.4097 -2.3319  0.5635
  836SOL     OW 2506   1.550   0.861   2.606  0.5706  0.3546 -0.5619
  836SOL    HW1 2507   1.447   0.864   2.587 -0.3739  0.2471  1.2923
  836SOL    HW2 2508   1.611   0.897   2.526 -2.5194  1.3732  0.9002
  837SOL     OW 2509   1.679   0.068   0.576 -0.2602 -0.4170  0.7593
  837SOL    HW1 2510   1.628   0.153   0.618  0.8225  1.2058  2.8225
  837SOL    HW2 2511   1.632   0.034   0.490 -2.7220 -2.0235  1.6074
  838SOL     OW 2512   1.179   1.437   2.694  0.9723 -0.8616 -0.5208
  838SOL    HW1 2513   1.147   1.483   2.781 -0.3255  0.2244 -0.4304
  838SOL    HW2 2514   1.099   1.402   2.638 -2.1215  3.3131  1.6757
  839SOL     OW 2515   1.665   0.398   0.954  0.1429  0.0316  0.0604
  839SOL    HW1 2516   1.604   0.469   0.998  0.1716 -1.0147  2.1337
  839SOL    HW2 2517   1.631   0.303   0.980 -3.3941 -2.6338  1.9358
  840SOL     OW 2518   2.663   2.956   1.637 -0.2630  0.0644 -0.0436
  840SOL    HW1 2519   2.616   3.049   1.637 -0.4724  0.2109  2.9474
  840SOL    HW2 2520   2.633   2.896   1.720  0.8656  0.4811  0.3850
  841SOL     OW 2521   1.542   0.837   3.075 -0.3986  0.0091 -0.1971
  841SOL    HW1 2522   1.455   0.835   3.126 -2.6925  0.4158  1.2832
  841SOL    HW2 2523   1.543   0.884   2.984  1.2530  1.6138 -1.0199
  842SOL     OW 2524   0.807   1.620   1.016 -0.3035  0.1518  0.3750
  842SOL    HW1 2525   0.778   1.719   1.042 -1.0795  0.3178 -0.6382
  842SOL    HW2 2526   0.744   1.574   0.951 -1.2531 -1.5750  0.1944
  843SOL     OW 2527   0.129   0.093   1.440 -0.9414  0.3297  0.4146
  843SOL    HW1 2528   0.223   0.123   1.475 -2.1158 -1.1091  0.6659
  843SOL    HW2 2529   0.127  -0.010   1.415  0.2006 -1.2931 -2.0663
  844SOL     OW 2530   0.711   2.441   0.210  0.3046 -0.0744  0.0479
  844SOL    HW1 2531   0.665   2.495   0.286  1.2023  1.1850 -0.4634
  844SOL    HW2 2532   0.653   2.443   0.125  2.3535  2.4753 -0.8394
  845SOL     OW 2533   1.749   0.003   1.288 -0.6662  0.4002  0.5408
  845SOL    HW1 2534   1.729  -0.007   1.388 -0.0541  0.1770  0.8200
  845SOL    HW2 2535   1.720   0.099   1.247  0.6726  2.6030  0.0366
  846SOL     OW 2536   1.690   3.007   0.891  0.3755 -0.1486 -0.1046
  846SOL    HW1 2537   1.700   3.009   0.788 -0.0670 -2.7499  1.0430
  846SOL    HW2 2538   1.756   2.949   0.936 -0.8373  3.3488 -1.4028
  847SOL     OW 2539   2.073   1.585   0.181 -0.1984 -0.5780  1.1061
  847SOL    HW1 2540   2.030   1.522   0.251  0.5692  0.3318 -1.7719
  847SOL    HW2 2541   2.027   1.572   0.086 -0.3132 -1.7255 -1.9899
  848SOL     OW 2542   2.483   0.798   2.646 -0.0104  0.2108  0.1491
  848SOL    HW1 2543   2.454   0.896   2.664  0.5912  2.5390  1.5254
  848SOL    HW2 2544   2.411   0.748   2.587  0.3884 -4.4731  0.6741
  849SOL     OW 2545   2.365   0.837   2.283 -0.5892 -0.3220  0.1898
  849SOL    HW1 2546   2.425   0.813   2.199  0.6517 -0.6397 -2.3970
  849SOL    HW2 2547   2.342   0.758   2.340  2.1132  1.7953 -0.8254
  850SOL     OW 2548   1.502   0.251   1.258  0.1615 -0.0144  0.2658
  850SOL    HW1 2549   1.496   0.220   1.157 -0.4603 -0.4677 -0.5607
  850SOL    HW2 2550   1.489   0.170   1.321  1.1894 -1.7875 -1.7296
  851SOL     OW 2551   0.446   1.671   0.616 -0.3251  0.1131  0.7323
  851SOL    HW1 2552   0.465   1.766   0.652  1.8440  1.8055 -1.9042
  851SOL    HW2 2553   0.531   1.614   0.629  1.5231 -0.7060 -0.9821
  852SOL     OW 2554   0.850   2.179   1.790  0.3529 -0.0642 -0.1691
  852SOL    HW1 2555   0.817   2.241   1.722 -0.7733 -3.1754  0.5178
  852SOL    HW2 2556   0.778   2.147   1.860 -1.6319  0.4990  2.9161
  853SOL     OW 2557   2.530   1.502   2.596 -0.3325 -0.0422  0.1487
  853SOL    HW1 2558   2.507   1.408   2.551 -1.1461 -2.0776 -1.9612
  853SOL    HW2 2559   2.577   1.567   2.531  4.2266  0.3253 -1.8064
  854SOL     OW 2560   2.446   1.466   1.741 -0.5770  0.5238  0.1758
  854SOL    HW1 2561   2.516   1.425   1.674  2.1710  3.1850 -0.5302
  854SOL    HW2 2562   2.383   1.387   1.773 -2.2309 -0.8686 -0.0286
  855SOL     OW 2563   2.040   2.337   0.957  0.1096  0.3041  0.0092
  855SOL    HW1 2564   2.076   2.426   0.920  0.4534  0.2542  0.0678
  855SOL    HW2 2565   2.091   2.297   1.036  0.8280 -0.2821  2.4103
  856SOL     OW 2566   1.416   1.453   0.831 -0.0594  0.0639 -0.0498
  856SOL    HW1 2567   1.442   1.553   0.818 -1.5819  0.2389  2.3427
  856SOL    HW2 2568   1.349   1.429   0.903  0.9273 -2.5373 -0.7461
  857SOL     OW 2569   2.921   2.514   1.063 -0.1254  0.2505  0.0480
  857SOL    HW1 2570   2.848   2.447   1.096  2.4893 -2.4033 -0.4352
  857SOL    HW2 2571   2.989   2.476   0.991 -0.7907  2.1220 -2.4610
  858SOL     OW 2572   2.287   2.130   1.777  0.5913 -0.5181 -0.0928
  858SOL    HW1 2573   2.192   2.146   1.729 -1.6410  2.1560  1.0560
  858SOL    HW2 2574   2.353   2.073   1.721  2.3493 -0.4885  0.4377
  859SOL     OW 2575   2.442   0.420   1.032  0.4628  0.3637  0.4911
  859SOL    HW1 2576   2.514   0.475   0.990 -1.2184 -0.8194 -1.7291
  859SOL    HW2 2577   2.485   0.329   1.065 -2.0243 -1.5731  0.7885
  860SOL     OW 2578   1.859   2.780   0.534  0.1499  0.0855 -0.1838
  860SOL    HW1 2579   1.928   2.745   0.462  0.7579 -1.9171 -0.1039
  860SOL    HW2 2580   1.877   2.882   0.548  0.6791 -0.4766  1.5688
  861SOL     OW 2581   0.986   2.580   2.805  0.0390  0.3537  0.2467
  861SOL    HW1 2582   1.035   2.674   2.813  0.4712  1.3573  1.2744
  861SOL    HW2 2583   0.958   2.530   2.892 -0.6761 -0.5079  1.9062
  862SOL     OW 2584   2.965   2.566   1.547 -0.0754 -1.1445  0.6729
  862SOL    HW1 2585   3.017   2.574   1.637  0.0190  2.6988  1.3318
  862SOL    HW2 2586   2.873   2.619   1.546 -1.8016 -1.7853 -1.1054
  863SOL     OW 2587   1.890   2.654   0.221  0.8863  0.5583 -0.4407
  863SOL    HW1 2588   1.951   2.574   0.247 -1.4908  1.1773 -0.7387
  863SOL    HW2 2589   1.786   2.632   0.199  0.4274 -1.1357 -3.7941
  864SOL     OW 2590   1.918   1.109   2.992 -0.1058 -0.2689  0.3845
  864SOL    HW1 2591   1.923   1.084   2.890 -0.7067 -0.6990 -1.8376
  864SOL    HW2 2592   1.998   1.081   3.053  1.2448  0.7094 -1.7463
  865SOL     OW 2593   2.171   1.695   0.594  0.3719 -0.1086  0.4344
  865SOL    HW1 2594   2.157   1.740   0.688 -0.2627  2.0531  0.3684
  865SOL    HW2 2595   2.124   1.603   0.591  2.1672  0.9300 -2.4407
  866SOL     OW 2596   2.918   2.819   1.027  0.4896 -0.5094  0.1087
  866SOL    HW1 2597   2.980   2.827   0.945  1.6409 -0.8810  1.0712
  866SOL    HW2 2598   2.912   2.722   1.058  2.0499  2.1257 -1.6786
  867SOL     OW 2599   0.417   1.368   0.830 -0.4936 -0.0879 -0.0325
  867SOL    HW1 2600   0.442   1.263   0.815  1.1948 -1.5415 -0.0143
  867SOL    HW2 2601   0.343   1.399   0.766  0.8953 -1.3357  1.5474
  868SOL     OW 2602   0.842   1.892   2.012 -0.0005  0.5227  0.1626
  868SOL    HW1 2603   0.832   1.833   2.095  0.7339  0.1142  1.7743
  868SOL    HW2 2604   0.812   1.983   2.035  1.3895 -0.6942 -0.8846
  869SOL     OW 2605   2.541   1.962   1.636 -0.1329 -0.5547 -0.6429
  869SOL    HW1 2606   2.621   1.894   1.638 -2.8814 -2.7199 -1.0067
  869SOL    HW2 2607   2.498   1.950   1.544  2.3485 -0.3770  1.5597
  870SOL     OW 2608   2.375   2.530   1.241 -0.8276 -0.4181  0.4753
  870SOL    HW1 2609   2.315   2.448   1.222  0.7459 -1.8295 -0.8307
  870SOL    HW2 2610   2.440   2.512   1.316 -2.8511 -2.6156 -2.1438
  871SOL     OW 2611   3.010   1.994   0.530 -0.8529 -0.1720 -0.1500
  871SOL    HW1 2612   2.950   2.071   0.490  0.9004  2.1684  0.5080
  871SOL    HW2 2613   2.974   1.902   0.501  0.6514  2.1433 -0.5941
  872SOL     OW 2614   2.193   0.518   1.703 -0.0674  0.3374  0.3763
  872SOL    HW1 2615   2.177   0.523   1.800  3.3910  1.1024 -0.2489
  872SOL    HW2 2616   2.291   0.495   1.687  1.4871 -1.2612 -0.9522
  873SOL     OW 2617   1.696   2.082   2.867 -0.6000  0.4669  0.1491
  873SOL    HW1 2618   1.698   2.186   2.887 -0.0626  2.9868  2.6766
  873SOL    HW2 2619   1.622   2.054   2.796 -2.0326 -2.9307 -1.6230
  874SOL     OW 2620   0.603   2.520   0.753 -0.3658 -0.5755  0.2600
  874SOL    HW1 2621   0.614   2.627   0.759  0.0022  1.9164 -0.5680
  874SOL    HW2 2622   0.685   2.459   0.762 -2.5622 -1.7156 -1.8745
  875SOL     OW 2623   2.338   1.552   1.447 -0.0391 -0.0397 -0.1417
  875SOL    HW1 2624   2.413   1.600   1.499 -0.5845 -1.4967 -1.1892
  875SOL    HW2 2625   2.330   1.595   1.354  1.2140  1.0680 -2.0930
  876SOL     OW 2626   0.142   2.236   2.744  0.6716  0.5196 -0.0092
  876SOL    HW1 2627   0.192   2.170   2.809 -0.8827 -0.4336 -0.0905
  876SOL    HW2 2628   0.191   2.334   2.748 -1.0146  0.1770  0.1693
  877SOL     OW 2629   2.801   2.668   0.610  0.4930 -0.0817 -0.1213
  877SOL    HW1 2630   2.790   2.772   0.593 -1.4850  0.8664  1.6942
  877SOL    HW2 2631   2.901   2.630   0.631  3.2478  0.3194  0.5806
  878SOL     OW 2632   2.750   1.511   2.306  0.0610 -0.3864  0.9976
  878SOL    HW1 2633   2.736   1.615   2.303 -0.7423  1.6215 -0.8902
  878SOL    HW2 2634   2.777   1.469   2.399 -1.1165 -1.2137  2.9414
  879SOL     OW 2635   2.434   3.046   1.268  0.0625 -0.0443 -0.1979
  879SOL    HW1 2636   2.466   2.949   1.264 -0.8807 -1.1929 -0.3198
  879SOL    HW2 2637   2.337   3.047   1.232  0.9729 -1.6468  2.2549
  880SOL     OW 2638   0.583   0.500   2.230  0.1574 -0.3947 -0.1630
  880SOL    HW1 2639   0.525   0.455   2.311  0.7582  1.9234  1.9056
  880SOL    HW2 2640   0.578   0.443   2.143 -0.0770  0.5966 -2.3455
  881SOL     OW 2641   0.859   0.080   0.464  0.4677 -0.0344  0.1932
  881SOL    HW1 2642   0.928   0.004   0.467 -0.9379 -0.2081 -0.1378
  881SOL    HW2 2643   0.817   0.092   0.371  0.6236  0.6991 -0.8432
  882SOL     OW 2644   2.754   1.785   1.675 -0.3031  0.3824 -0.0944
  882SOL    HW1 2645   2.826   1.712   1.642 -0.0049 -1.3964 -1.9138
  882SOL    HW2 2646   2.715   1.775   1.768  0.9035  0.9464 -1.0228
  883SOL     OW 2647   0.933   0.593   0.975  0.2388 -0.3063 -0.4176
  883SOL    HW1 2648   0.947   0.638   1.069 -1.5524 -2.4941  0.4425
  883SOL    HW2 2649   1.021   0.548   0.944  1.1017 -2.4632  2.7848
  884SOL     OW 2650   1.171   1.918   1.065 -0.5928  0.4511  0.0728
  884SOL    HW1 2651   1.137   1.885   0.970 -0.2870 -0.6398 -1.2255
  884SOL    HW2 2652   1.099   1.977   1.111  0.5377  0.3594 -0.0450
  885SOL     OW 2653   2.323   1.795   2.313 -0.5488 -0.1296 -0.2708
  885SOL    HW1 2654   2.235   1.764   2.349  2.2528  2.4893  0.8305
  885SOL    HW2 2655   2.331   1.898   2.303  3.0966 -1.3416 -0.4299
  886SOL     OW 2656   2.689   0.456   1.809 -0.0770  0.3578 -0.0977
  886SOL    HW1 2657   2.735   0.387   1.880 -1.3123 -1.9143  0.1688
  886SOL    HW2 2658   2.756   0.527   1.770 -1.0826 -1.0644  1.9955
  887SOL     OW 2659   0.196   2.065   1.309  0.3094 -0.6017 -0.1820
  887SOL    HW1 2660   0.156   2.031   1.219 -0.4916  0.1891 -1.2492
  887SOL    HW2 2661   0.178   2.166   1.329 -0.3700 -0.7027 -2.4032
  888SOL     OW 2662   0.586   1.295   1.498 -0.0993  0.2445 -0.4004
  888SOL    HW1 2663   0.645   1.321   1.416  1.3796  2.2648  2.0110
  888SOL    HW2 2664   0.548   1.198   1.496 -2.6159 -2.1008 -0.8550
  889SOL     OW 2665   0.835   2.401   2.131 -0.2095 -0.1678  0.0491
  889SOL    HW1 2666   0.746   2.414   2.079 -1.9014 -1.3180 -0.6736
  889SOL    HW2 2667   0.918   2.440   2.075  2.5019 -0.7548  1.3858
  890SOL     OW 2668   2.332   2.429   0.166 -0.4891 -0.2210  1.0846
  890SOL    HW1 2669   2.384   2.489   0.097 -0.0417 -1.2511 -1.1496
  890SOL    HW2 2670   2.251   2.473   0.211  0.1881  0.4294 -2.0754
  891SOL     OW 2671   2.581   1.654   0.714  0.1024  0.5875 -0.0678
  891SOL    HW1 2672   2.562   1.567   0.769  2.4207  2.1533  0.3974
  891SOL    HW2 2673   2.512   1.675   0.640  1.4258 -0.7086 -0.4677
  892SOL     OW 2674   0.311   0.292   2.237  0.4356  0.1881  0.0623
  892SOL    HW1 2675   0.311   0.328   2.142 -1.7726 -2.7525  0.1051
  892SOL    HW2 2676   0.373   0.335   2.308 -1.3749 -3.1219  1.2250
  893SOL     OW 2677   1.621   0.241   2.679  0.3873 -0.3910 -0.1197
  893SOL    HW1 2678   1.676   0.315   2.721 -1.2433  0.7343 -2.3866
  893SOL    HW2 2679   1.518   0.264   2.673 -0.9158  3.5387  0.1654
  894SOL     OW 2680   2.173   2.023   0.069 -0.4188  0.8389 -0.5454
  894SOL    HW1 2681   2.133   1.970  -0.007  0.3487  1.8075 -0.3336
  894SOL    HW2 2682   2.175   1.967   0.154 -1.9018  4.1263  0.0807
  895SOL     OW 2683   2.844   1.409   0.824 -0.4834 -0.3401  0.2560
  895SOL    HW1 2684   2.889   1.364   0.909  1.4174 -1.0141 -0.5439
  895SOL    HW2 2685   2.892   1.496   0.796  0.4445  1.9461  0.1176
  896SOL     OW 2686   1.693   1.801   1.186  0.2604  0.1966 -0.3768
  896SOL    HW1 2687   1.773   1.829   1.124  1.0560  0.7571 -1.2263
  896SOL    HW2 2688   1.599   1.824   1.151 -0.2653 -3.2921  0.2898
  897SOL     OW 2689   0.331   0.516   3.047 -0.1072 -0.1592  0.1398
  897SOL    HW1 2690   0.270   0.542   2.969  1.0418 -1.9998  0.6023
  897SOL    HW2 2691   0.412   0.581   3.061  0.2257  1.8284  0.3320
  898SOL     OW 2692   0.551   2.920   1.015  0.8306  0.3245 -0.8414
  898SOL    HW1 2693   0.486   2.934   1.096  0.8192 -1.3545 -0.9170
  898SOL    HW2 2694   0.639   2.966   1.035 -1.6750  2.5056  0.7753
  899SOL     OW 2695   2.720   0.924   1.282  0.0808  0.1561  0.0155
  899SOL    HW1 2696   2.710   0.894   1.179 -2.0647  0.1878 -1.6787
  899SOL    HW2 2697   2.808   0.972   1.310 -0.6143 -2.9360  1.8747
  900SOL     OW 2698   0.986   2.330   2.374  0.3244  0.6986  0.2211
  900SOL    HW1 2699   0.928   2.365   2.294  3.2869  0.9912  0.2846
  900SOL    HW2 2700   0.951   2.358   2.468  0.6321 -1.8982  1.7293
  901SOL     OW 2701   2.008   2.481   1.354  0.4220 -0.3197 -0.2119
  901SOL    HW1 2702   1.950   2.457   1.271 -1.8188  0.6275 -0.2333
  901SOL    HW2 2703   2.066   2.403   1.394  0.7165  2.4321 -1.6949
  902SOL     OW 2704   2.573   1.697   1.487 -0.1339 -0.0743 -0.0051
  902SOL    HW1 2705   2.650   1.727   1.550 -4.2594 -0.3313  0.1279
  902SOL    HW2 2706   2.613   1.634   1.415  0.6444  1.7751  1.2918
  903SOL     OW 2707   0.283   2.431   2.005 -0.2769  0.3481  0.0165
  903SOL    HW1 2708   0.195   2.411   2.054  1.3248  1.0383 -1.5404
  903SOL    HW2 2709   0.269   2.491   1.916  1.6205  1.6247 -2.0415
  904SOL     OW 2710   2.017   0.766   2.599 -0.1003 -0.2453 -0.2424
  904SOL    HW1 2711   1.944   0.722   2.654 -2.9867  1.2493  2.9253
  904SOL    HW2 2712   1.994   0.785   2.502  0.0723 -1.3769  1.9697
  905SOL     OW 2713   2.788   0.029   2.531 -0.0510  0.3334  0.0067
  905SOL    HW1 2714   2.858  -0.013   2.593  2.6433 -0.3133  1.9934
  905SOL    HW2 2715   2.803   0.129   2.511 -1.7568  0.6037 -0.3341
  906SOL     OW 2716   0.125   1.838   1.944 -0.3928  0.6616 -0.2134
  906SOL    HW1 2717   0.097   1.835   1.844 -2.6040 -0.5439  0.1044
  906SOL    HW2 2718   0.229   1.865   1.954  1.6313 -1.5163  1.2629
  907SOL     OW 2719   0.189   2.388   1.053 -0.2706 -0.2582  0.1715
  907SOL    HW1 2720   0.273   2.449   1.038  2.1642 -0.4395  0.4095
  907SOL    HW2 2721   0.177   2.325   0.972 -0.1174  0.1312  1.1987
  908SOL     OW 2722   2.701   2.837   0.384  0.0731 -0.5438 -0.2598
  908SOL    HW1 2723   2.696   2.876   0.288  1.1634 -0.2933  1.6713
  908SOL    HW2 2724   2.667   2.738   0.385  0.0801 -0.3430 -2.7074
  909SOL     OW 2725   0.696   0.899   2.632 -0.1457  0.1444  0.4618
  909SOL    HW1 2726   0.695   0.799   2.596 -1.9480  2.1557  2.3240
  909SOL    HW2 2727   0.753   0.967   2.580 -1.6037 -0.8011 -3.1860
  910SOL     OW 2728   1.736   1.796   2.073 -0.1783  0.3630  0.4573
  910SOL    HW1 2729   1.809   1.828   2.005  1.4610  0.9065  0.5305
  910SOL    HW2 2730   1.680   1.876   2.112  1.2494  2.6640  0.7365
  911SOL     OW 2731   1.746   3.046   1.584  0.1233  0.2043  0.0276
  911SOL    HW1 2732   1.817   2.990   1.534  2.4423 -0.7747 -0.7846
  911SOL    HW2 2733   1.729   3.006   1.681 -2.7702  0.1975  2.1377
  912SOL     OW 2734   2.858   0.949   0.774  0.3497  0.3176  0.2004
  912SOL    HW1 2735   2.882   0.927   0.874 -0.6629  0.4885  1.4117
  912SOL    HW2 2736   2.802   1.036   0.762 -1.7109 -1.5082  0.8578
  913SOL     OW 2737   2.572   1.283   1.555  0.1255  0.0481 -0.6908
  913SOL    HW1 2738   2.557   1.182   1.561  1.0507  0.9075 -2.7139
  913SOL    HW2 2739   2.622   1.301   1.463  1.0588 -1.4139 -2.1375
  914SOL     OW 2740   2.811   0.481   1.299 -0.6331 -0.2167  0.1607
  914SOL    HW1 2741   2.807   0.389   1.349  1.6904 -0.2644  1.7491
  914SOL    HW2 2742   2.818   0.568   1.362 -3.9423 -1.6209  1.5118
  915SOL     OW 2743   1.189   0.815   1.041 -0.6157 -0.1342  0.0388
  915SOL    HW1 2744   1.261   0.832   1.119  0.0065  0.0302  0.2305
  915SOL    HW2 2745   1.091   0.811   1.072  1.3724  0.0702  0.3724
  916SOL     OW 2746   0.598   0.032   0.594  0.2419 -0.1301 -0.4213
  916SOL    HW1 2747   0.589   0.096   0.674  0.4987  0.0298  0.5483
  916SOL    HW2 2748   0.621   0.087   0.509  2.8348  0.7072 -0.2202
  917SOL     OW 2749   2.731   2.592   1.881 -0.1148  0.6251  0.0602
  917SOL    HW1 2750   2.682   2.666   1.926  2.0699 -3.5838 -2.5608
  917SOL    HW2 2751   2.808   2.622   1.816  0.2908 -1.8969 -2.7516
  918SOL     OW 2752   1.069   2.181   3.090  0.7636  0.3777 -0.3271
  918SOL    HW1 2753   1.040   2.223   3.183  0.4552  0.7076  2.2429
  918SOL    HW2 2754   1.079   2.078   3.085  0.1624  0.1262 -1.3928
  919SOL     OW 2755   0.898   1.570   2.773 -0.1711  0.4083  0.3283
  919SOL    HW1 2756   0.909   1.626   2.690 -1.4185 -0.9522  1.1433
  919SOL    HW2 2757   0.864   1.474   2.749 -1.0009  1.7369 -1.5127
  920SOL     OW 2758   1.220   2.045   2.465 -0.1354 -0.7803 -0.1206
  920SOL    HW1 2759   1.186   2.057   2.368  1.1475 -1.1578 -0.7957
  920SOL    HW2 2760   1.271   1.955   2.491 -1.7942 -0.1417  0.1596
  921SOL     OW 2761   1.040   0.087   2.557 -0.2891  0.0394 -0.2649
  921SOL    HW1 2762   1.039   0.040   2.460 -0.9314  0.6579  0.1716
  921SOL    HW2 2763   1.035   0.190   2.547 -0.8513  2.6682  0.5737
  922SOL     OW 2764   2.107   2.428   2.781  0.9719  0.2796  0.3517
  922SOL    HW1 2765   2.110   2.322   2.783 -1.7109 -1.0087 -2.1516
  922SOL    HW2 2766   2.080   2.465   2.691  0.6482  0.9974 -0.2984
  923SOL     OW 2767   1.194   2.728   0.223  0.3141  0.3696  0.3719
  923SOL    HW1 2768   1.290   2.761   0.251 -0.4334  1.9979 -1.0253
  923SOL    HW2 2769   1.197   2.647   0.154  0.5764 -2.8895  0.8329
  924SOL     OW 2770   2.884   1.581   0.072  0.7746  0.3716 -0.1872
  924SOL    HW1 2771   2.798   1.614   0.025  1.7226  1.9854  0.7025
  924SOL    HW2 2772   2.960   1.574   0.003  1.0524 -1.8818 -0.8758
  925SOL     OW 2773   0.080   2.894   1.617 -0.2633  0.0949  0.5258
  925SOL    HW1 2774   0.000   2.945   1.650  0.1410 -1.7020  0.3038
  925SOL    HW2 2775   0.083   2.879   1.514  2.3073  0.8275 -1.1939
  926SOL     OW 2776   1.414   2.907   1.269 -0.1196  0.2310 -0.4220
  926SOL    HW1 2777   1.432   2.894   1.168  2.6852  1.2690  0.9889
  926SOL    HW2 2778   1.409   3.003   1.304 -0.2301  1.9334 -1.7179
  927SOL     OW 2779   0.236   2.570   1.759 -0.0523  0.7651 -0.1417
  927SOL    HW1 2780   0.218   2.493   1.688 -3.3658  1.7806 -0.6774
  927SOL    HW2 2781   0.296   2.643   1.716  0.0082 -1.0198  0.4801
  928SOL     OW 2782   1.602   2.039   2.123  0.5850  0.1361  0.5185
  928SOL    HW1 2783   1.634   2.136   2.104 -2.7666  1.7158  1.3755
  928SOL    HW2 2784   1.499   2.027   2.099 -1.4718  1.5518 -0.8572
  929SOL     OW 2785   2.383   2.425   2.841  0.3153 -0.1102  0.6681
  929SOL    HW1 2786   2.278   2.415   2.837 -0.3496 -0.2120  1.1836
  929SOL    HW2 2787   2.425   2.415   2.746 -1.7633  1.0299  0.8115
  930SOL     OW 2788   2.198   1.979   1.107 -0.5192  0.2124 -0.4124
  930SOL    HW1 2789   2.177   1.945   1.204  1.8305  0.0230  0.4258
  930SOL    HW2 2790   2.269   2.056   1.097  0.3312  1.9724  0.5204
  931SOL     OW 2791   0.566   1.755   2.679 -0.1835  0.0409  0.0075
  931SOL    HW1 2792   0.631   1.740   2.760 -0.3144 -1.6553  1.5078
  931SOL    HW2 2793   0.598   1.689   2.599 -1.5105  1.0509 -2.5585
  932SOL     OW 2794   0.502   0.105   2.921  0.1386  0.0590  0.6975
  932SOL    HW1 2795   0.596   0.133   2.882  0.3452  1.7171 -0.0993
  932SOL    HW2 2796   0.502   0.006   2.948 -0.5082 -0.3164  1.8002
  933SOL     OW 2797   1.078   0.786   2.970 -0.3614 -0.2386  0.3759
  933SOL    HW1 2798   1.147   0.815   3.041  1.4274 -2.1373 -2.5233
  933SOL    HW2 2799   1.017   0.863   2.943 -0.0678 -2.5107  2.1987
  934SOL     OW 2800   0.872   2.973   2.791  0.3171  0.0434  0.2931
  934SOL    HW1 2801   0.957   2.942   2.751 -1.4114  2.6086  3.8446
  934SOL    HW2 2802   0.842   2.943   2.886 -1.8020  2.1016  1.2271
  935SOL     OW 2803   3.056   0.525   0.926 -0.3325 -0.1838 -0.3317
  935SOL    HW1 2804   3.046   0.456   0.855 -0.4843  0.9147 -0.7585
  935SOL    HW2 2805   2.973   0.586   0.925 -1.7242  0.9999 -0.3080
  936SOL     OW 2806   1.124   2.999   0.165  0.5334  0.1604  0.2461
  936SOL    HW1 2807   1.166   3.026   0.075  0.6868 -0.5733 -0.7569
  936SOL    HW2 2808   1.158   2.902   0.191  0.7303  0.0307 -1.0569
  937SOL     OW 2809   1.942   2.695   2.102 -0.0069  0.4942 -0.1535
  937SOL    HW1 2810   1.845   2.718   2.143 -0.3752  0.8136 -0.6268
  937SOL    HW2 2811   1.948   2.691   1.997 -1.8369  1.6653 -0.1781
  938SOL     OW 2812   2.730   2.206   1.523  0.0283  0.7574  0.4509
  938SOL    HW1 2813   2.662   2.231   1.597 -2.7325 -0.8648 -2.6463
  938SOL    HW2 2814   2.800   2.136   1.557 -0.9623 -1.4546  0.9114
  939SOL     OW 2815   2.740   0.980   2.515  0.8166 -0.4006  0.0829
  939SOL    HW1 2816   2.816   0.912   2.520 -2.7073  0.5859  0.0878
  939SOL    HW2 2817   2.724   1.034   2.604 -2.2215 -1.1578  2.0751
  940SOL     OW 2818   1.055   0.456   2.660 -0.4708 -0.3579  0.1884
  940SOL    HW1 2819   1.107   0.385   2.717 -1.2127 -0.8544 -4.2535
  940SOL    HW2 2820   0.948   0.436   2.654  0.7831 -2.2215  1.5393
  941SOL     OW 2821   0.066   2.855   2.216  0.2374 -0.0981 -0.1202
  941SOL    HW1 2822   0.026   2.760   2.195  0.1544 -0.1533 -1.6359
  941SOL    HW2 2823   0.154   2.858   2.273 -0.0998  3.0719 -2.1118
  942SOL     OW 2824   0.102   0.086   2.518  0.0929 -0.0635  0.0325
  942SOL    HW1 2825   0.171   0.121   2.584 -0.7186 -1.6514 -3.0130
  942SOL    HW2 2826   0.068   0.151   2.443  1.0416 -0.2246 -0.3283
  943SOL     OW 2827   2.109   1.661   2.459  0.0283  0.2308 -0.6843
  943SOL    HW1 2828   2.132   1.564   2.485  0.9420  1.3158  0.1421
  943SOL    HW2 2829   2.038   1.655   2.386  2.6188  4.5208  0.3808
  944SOL     OW 2830   2.185   2.297   1.480 -0.4006 -0.6238 -0.5678
  944SOL    HW1 2831   2.236   2.378   1.534  1.4551  1.3118  0.1887
  944SOL    HW2 2832   2.123   2.245   1.544 -0.2353  0.1661 -0.3122
  945SOL     OW 2833   0.649   1.445   0.358  0.1590 -0.3545 -0.3481
  945SOL    HW1 2834   0.690   1.468   0.264  2.6594 -2.9583  0.1467
  945SOL    HW2 2835   0.689   1.359   0.394 -0.0012 -0.5928  0.2983
  946SOL     OW 2836   0.319   0.996   2.643  0.0881 -0.1677  0.3180
  946SOL    HW1 2837   0.267   0.934   2.573  1.0000 -0.7062  2.2666
  946SOL    HW2 2838   0.350   1.084   2.599 -0.1773  0.1539  1.6408
  947SOL     OW 2839   1.527   0.414   0.171  0.3637 -0.4121  0.6079
  947SOL    HW1 2840   1.539   0.350   0.248  0.3194 -1.5035 -1.9226
  947SOL    HW2 2841   1.453   0.382   0.101  0.0442  0.6691 -0.3510
  948SOL     OW 2842   2.007   3.095   2.132  0.2251 -0.2966 -0.2966
  948SOL    HW1 2843   1.954   3.095   2.038  1.0484  2.2055 -2.4247
  948SOL    HW2 2844   1.998   3.007   2.184  0.7506 -1.3406 -0.4002
  949SOL     OW 2845   0.612   2.542   0.455  0.8559  0.3395 -0.0124
  949SOL    HW1 2846   0.603   2.646   0.439  0.7334  0.8922 -0.7386
  949SOL    HW2 2847   0.669   2.510   0.536  1.5260 -0.1182  0.8604
  950SOL     OW 2848   0.244   2.106   3.011 -1.0662  0.3986  0.1489
  950SOL    HW1 2849   0.160   2.164   3.031 -0.6618  0.2867 -1.7743
  950SOL    HW2 2850   0.240   2.013   3.053  0.8240  1.4405 -0.1454
  951SOL     OW 2851   1.173   2.812   2.789 -0.3442  0.0925  0.4883
  951SOL    HW1 2852   1.224   2.863   2.710  3.2494 -2.0504 -1.2191
  951SOL    HW2 2853   1.182   2.859   2.881  0.5981  2.0516 -2.2277
  952SOL     OW 2854   0.104   1.711   0.468  0.1630 -0.4600  0.5541
  952SOL    HW1 2855   0.171   1.799   0.459 -0.2430  1.4518 -1.1511
  952SOL    HW2 2856   0.116   1.642   0.541 -0.1025  0.2536  1.1441
  953SOL     OW 2857   2.483   1.729   0.177 -0.2372 -0.2858 -0.7354
  953SOL    HW1 2858   2.475   1.631   0.214 -3.5413 -2.7392  0.9606
  953SOL    HW2 2859   2.495   1.747   0.075  1.2043  1.8102 -0.6654
  954SOL     OW 2860   2.194   0.469   1.061  0.1834  0.0679  0.0992
  954SOL    HW1 2861   2.165   0.502   0.969  0.1794  1.1294 -1.5624
  954SOL    HW2 2862   2.299   0.447   1.063 -0.9769  0.9398  1.4534
  955SOL     OW 2863   0.207   2.654   1.290  0.4948  0.2651  0.2242
  955SOL    HW1 2864   0.100   2.641   1.289 -1.9999 -1.6717  1.2259
  955SOL    HW2 2865   0.253   2.633   1.198 -0.2452  0.8376  0.9016
  956SOL     OW 2866   2.732   2.468   2.494  0.3882 -0.3715 -0.1386
  956SOL    HW1 2867   2.745   2.366   2.474  0.7580  0.6944 -0.4784
  956SOL    HW2 2868   2.764   2.533   2.421 -2.8072  1.2195 -0.4622
  957SOL     OW 2869   1.552   2.004   2.656  0.5625 -0.0117  0.0094
  957SOL    HW1 2870   1.545   1.902   2.650  2.5865  2.9341  2.8196
  957SOL    HW2 2871   1.581   2.041   2.567 -1.4396  0.3695  2.2870
  958SOL     OW 2872   2.659   2.303   3.005 -0.3773 -0.3970 -0.0556
  958SOL    HW1 2873   2.572   2.354   2.976 -1.9724  0.2934 -0.2732
  958SOL    HW2 2874   2.650   2.221   3.065  0.2471 -1.1475 -2.3601
  959SOL     OW 2875   0.234   2.803   0.028  0.3090 -0.1320 -0.0371
  959SOL    HW1 2876   0.160   2.789   0.102  0.1213 -1.5964  0.1510
  959SOL    HW2 2877   0.272   2.712  -0.011  0.0404  0.2824  0.4651
  960SOL     OW 2878   1.953   0.442   1.975 -0.1948  0.0930  0.9668
  960SOL    HW1 2879   1.944   0.536   1.942  0.1962 -0.9384  2.1371
  960SOL    HW2 2880   1.986   0.435   2.072 -0.6888 -0.6809  0.9026
  961SOL     OW 2881   2.670   1.926   1.029  0.3023  1.3644  0.2396
  961SOL    HW1 2882   2.601   1.956   0.957  1.6740  1.4583 -0.7797
  961SOL    HW2 2883   2.663   1.988   1.112 -0.7511 -0.4621 -0.7973
  962SOL     OW 2884   1.283   0.943   0.028 -0.1366  0.5540 -0.0682
  962SOL    HW1 2885   1.285   1.013  -0.051 -0.5146  1.7283 -2.5983
  962SOL    HW2 2886   1.275   0.980   0.127  0.9791 -0.1357  0.8583
  963SOL     OW 2887   2.230   2.590   1.904 -0.5387 -0.2678  0.7312
  963SOL    HW1 2888   2.235   2.527   1.986 -2.2639 -0.2552 -0.7009
  963SOL    HW2 2889   2.294   2.670   1.906 -0.7483 -3.5605 -0.6216
  964SOL     OW 2890   2.441   0.392   1.712 -0.7864  0.0152  1.0498
  964SOL    HW1 2891   2.523   0.435   1.765  1.5283 -1.0583 -1.2403
  964SOL    HW2 2892   2.459   0.375   1.611 -1.4726 -2.2800  2.3112
  965SOL     OW 2893   2.690   2.997   0.132  0.0050 -0.2775  0.5400
  965SOL    HW1 2894   2.734   2.987   0.041  1.1325  0.3267  4.3721
  965SOL    HW2 2895   2.590   2.977   0.118 -1.5902 -0.4816  1.1870
  966SOL     OW 2896   2.540   2.641   2.175  0.0724  0.0084  0.7431
  966SOL    HW1 2897   2.481   2.560   2.147 -0.6140  2.0643  0.8991
  966SOL    HW2 2898   2.487   2.715   2.224 -1.6870  2.0307 -2.6238
  967SOL     OW 2899   2.749   2.858   2.475 -0.6679 -0.1615  0.0217
  967SOL    HW1 2900   2.783   2.806   2.393 -0.3839  0.6040  0.8482
  967SOL    HW2 2901   2.772   2.959   2.466  1.2236  1.3257 -0.4129
  968SOL     OW 2902   2.005   1.042   2.721 -0.5019  0.6929  0.1321
  968SOL    HW1 2903   1.935   1.103   2.682 -1.9264 -2.3761 -0.3427
  968SOL    HW2 2904   2.010   0.950   2.676 -1.9206 -0.4155 -1.4026
  969SOL     OW 2905   2.715   2.347   1.167  0.5831  0.2829  0.7518
  969SOL    HW1 2906   2.672   2.336   1.072 -2.8094  2.4684  0.1835
  969SOL    HW2 2907   2.775   2.264   1.189 -0.3496 -1.3758 -2.9013
  970SOL     OW 2908   1.120   2.132   1.788  0.2529 -0.7998 -0.2190
  970SOL    HW1 2909   1.017   2.143   1.772 -1.4154 -0.0413  1.9522
  970SOL    HW2 2910   1.147   2.166   1.881 -0.0479  2.7976  0.9641
  971SOL     OW 2911   2.823   2.097   1.941  0.0957 -0.2864  0.1680
  971SOL    HW1 2912   2.806   2.196   1.964 -0.5132  0.9625 -0.4920
  971SOL    HW2 2913   2.894   2.100   1.866 -0.5310 -0.6149 -2.1365
  972SOL     OW 2914   2.053   2.452   0.259  0.5199 -0.2217 -0.0922
  972SOL    HW1 2915   2.029   2.369   0.198  0.9655 -1.7041 -0.6093
  972SOL    HW2 2916   2.056   2.437   0.359 -0.9529  1.1033 -1.2807
  973SOL     OW 2917   1.320   1.069   1.888 -0.0726  0.1185 -0.1997
  973SOL    HW1 2918   1.236   1.021   1.838 -1.3097 -1.6935 -2.4666
  973SOL    HW2 2919   1.305   1.172   1.899 -2.2096 -1.7096 -1.0517
  974SOL     OW 2920   1.661   0.552   1.915 -0.3633  0.3941  0.7302
  974SOL    HW1 2921   1.742   0.618   1.908  0.2468 -0.6696  0.2055
  974SOL    HW2 2922   1.584   0.613   1.937  0.9809 -0.0661 -0.2387
  975SOL     OW 2923   2.438   3.043   3.049  0.3275 -0.1549 -0.0365
  975SOL    HW1 2924   2.393   2.979   3.119  0.5054  1.1237 -0.4724
  975SOL    HW2 2925   2.452   3.006   2.954  2.3514  0.8522 -2.2431
  976SOL     OW 2926   1.944   2.898   2.326  0.4548  0.3297  0.7588
  976SOL    HW1 2927   1.882   2.832   2.274  1.0428  0.1473 -0.2398
  976SOL    HW2 2928   1.946   2.872   2.428 -0.8226 -0.6898 -3.5715
  977SOL     OW 2929   0.484   0.621   1.022 -0.2086 -0.6700 -0.7525
  977SOL    HW1 2930   0.407   0.590   0.966  3.0373  1.5288  0.8708
  977SOL    HW2 2931   0.582   0.600   0.987  0.9435 -1.4071 -0.2441
   3.10000   3.10000   3.10000
