1000 SPC/Fw water molecules t=   0.59000 step= 590
 2931
    1SOL     OW    1   2.485   0.374   2.612  0.1452  0.2595 -0.0864
    1SOL    HW1    2   2.517   0.276   2.585 -0.7181 -0.3301 -0.6679
    1SOL    HW2    3   2.523   0.403   2.705 -1.5419  1.8805  1.2311
    2SOL     OW    4   2.697   3.044   1.415 -0.0439  0.4859 -0.7605
    2SOL    HW1    5   2.751   3.095   1.343  0.5199 -0.3145  0.5748
    2SOL    HW2    6   2.639   3.110   1.476  0.0846  1.1909  1.4191
    3SOL     OW    7   2.744   2.584   0.393 -0.1988  0.0323 -0.3200
    3SOL    HW1    8   2.711   2.492   0.420 -0.3978  1.9947 -2.5025
    3SOL    HW2    9   2.808   2.627   0.463  0.3032 -2.0429  0.2194
    4SOL     OW   10   1.296   1.453   2.360 -0.4147 -0.1973  0.1359
    4SOL    HW1   11   1.204   1.511   2.358 -1.0077  0.5421  1.3011
    4SOL    HW2   12   1.284   1.353   2.398  0.7134  0.5391 -2.4554
    5SOL     OW   13   1.192   1.498   3.068  0.1001 -0.0493  0.4080
    5SOL    HW1   14   1.244   1.575   3.113  0.4360 -1.3456 -1.0475
    5SOL    HW2   15   1.089   1.503   3.086 -2.5203  2.5495 -1.1797
    6SOL     OW   16   0.082   1.833   2.927  0.3586  0.0771  0.1346
    6SOL    HW1   17   0.020   1.888   2.989  3.2548  2.5198 -0.9618
    6SOL    HW2   18   0.162   1.802   2.989 -2.6547 -0.9021  2.5309
    7SOL     OW   19   2.551   0.906   1.155 -1.4474 -0.2180 -0.0050
    7SOL    HW1   20   2.473   0.846   1.171  3.1058 -0.3981 -2.5810
    7SOL    HW2   21   2.577   0.923   1.056 -2.1296  1.5330  0.8984
    8SOL     OW   22   0.450   0.594   1.530 -0.1357 -0.0723  0.2465
    8SOL    HW1   23   0.547   0.580   1.563 -1.2502 -0.6689 -0.3743
    8SOL    HW2   24   0.433   0.562   1.435 -0.1975 -1.5849  1.1982
    9SOL     OW   25   1.160   0.927   2.300 -0.1371 -0.2861  0.2452
    9SOL    HW1   26   1.238   0.976   2.254 -1.5108  0.4195 -0.3861
    9SOL    HW2   27   1.120   0.854   2.238  1.0336  1.5247  0.8488
   10SOL     OW   28   0.678   1.344   1.267 -0.2330 -0.4292  0.1108
   10SOL    HW1   29   0.593   1.377   1.224  2.7401  2.4434  1.7006
   10SOL    HW2   30   0.733   1.429   1.295  0.4459  2.1840  0.4240
   11SOL     OW   31   2.370   2.718   0.952  0.0188  0.4827  0.1288
   11SOL    HW1   32   2.377   2.739   1.056 -1.5694  2.0069  0.3585
   11SOL    HW2   33   2.462   2.711   0.907 -1.4007  0.4489 -3.3223
   12SOL     OW   34   1.471   0.909   0.329 -0.0515 -0.9242 -0.3929
   12SOL    HW1   35   1.387   0.968   0.308  0.2501 -1.8341  0.9848
   12SOL    HW2   36   1.488   0.824   0.269 -1.0514 -1.7297  1.2020
   13SOL     OW   37   2.514   0.666   1.796 -0.6118 -0.6041 -0.1968
   13SOL    HW1   38   2.432   0.673   1.861 -1.1421 -1.6686 -1.6632
   13SOL    HW2   39   2.478   0.656   1.697 -2.2162 -0.8520 -1.1436
   14SOL     OW   40   1.964   0.073   0.747 -0.5195  0.2275  0.2201
   14SOL    HW1   41   1.913   0.096   0.663  0.4937 -2.2176 -0.5213
   14SOL    HW2   42   1.915  -0.003   0.798  1.4165  1.2139  0.2417
   15SOL     OW   43   1.941   1.997   2.787 -0.2634 -0.1249 -0.2550
   15SOL    HW1   44   1.900   2.090   2.808  1.4961 -3.3234  0.5634
   15SOL    HW2   45   1.880   1.939   2.722 -1.6747 -1.4274  0.4788
   16SOL     OW   46   1.616   1.712   3.010  0.3679 -0.0260 -0.1873
   16SOL    HW1   47   1.651   1.612   3.010  0.2660  0.5937  1.3469
   16SOL    HW2   48   1.676   1.779   3.066 -2.8591  2.2755  0.6506
   17SOL     OW   49   0.099   0.513   0.151 -0.1105  0.1446 -0.1460
   17SOL    HW1   50   0.182   0.533   0.089  0.4719 -0.9320 -0.3182
   17SOL    HW2   51   0.013   0.500   0.099  1.9870  3.9340 -0.0113
   18SOL     OW   52   0.985   2.959   2.122 -0.6057  0.8257  0.1134
   18SOL    HW1   53   0.913   2.884   2.148 -1.7635 -1.5944  0.4952
   18SOL    HW2   54   1.030   2.940   2.033  0.1684  2.2862  1.1098
   19SOL     OW   55   0.520   0.826   1.906 -0.8475  0.0548 -0.0154
   19SOL    HW1   56   0.504   0.812   2.007  0.9241  0.3772  1.5190
   19SOL    HW2   57   0.621   0.799   1.872  1.6721  0.2324 -0.4614
   20SOL     OW   58   0.194   2.795   0.815  0.1875 -0.2926  0.3807
   20SOL    HW1   59   0.139   2.853   0.751  1.3577  0.8922 -0.7764
   20SOL    HW2   60   0.287   2.778   0.773  1.8231  1.5147  0.1721
   21SOL     OW   61   2.776   0.192   2.061  0.1050 -0.0518 -0.1570
   21SOL    HW1   62   2.698   0.129   2.024  2.3298 -3.3744  0.5853
   21SOL    HW2   63   2.850   0.141   2.115  0.0741  0.6356 -0.2629
   22SOL     OW   64   2.355   0.227   0.091  0.2328 -0.3325  0.3194
   22SOL    HW1   65   2.349   0.119   0.079  0.2145  0.1839 -0.8051
   22SOL    HW2   66   2.264   0.270   0.099  0.2558 -1.9313 -1.1803
   23SOL     OW   67   2.732   0.639   0.619 -0.0994  0.0122 -0.0358
   23SOL    HW1   68   2.756   0.546   0.583  1.0954  2.6729  0.9508
   23SOL    HW2   69   2.728   0.711   0.551 -0.2454 -1.3799  0.4242
   24SOL     OW   70   0.137   1.922   0.372  0.5400  0.1859  0.1505
   24SOL    HW1   71   0.093   1.944   0.283  2.5700  0.8522 -0.9390
   24SOL    HW2   72   0.238   1.912   0.364 -2.0037 -0.5037 -3.8675
   25SOL     OW   73   2.214   0.505   0.251 -0.2442 -0.4297  0.9089
   25SOL    HW1   74   2.245   0.581   0.309  0.9145 -0.1910 -3.2403
   25SOL    HW2   75   2.234   0.529   0.151  1.4866 -0.0129  2.3405
   26SOL     OW   76   2.546   2.116   2.073 -0.6330 -0.4002 -0.2528
   26SOL    HW1   77   2.602   2.159   2.153 -0.5196 -0.4447  0.5684
   26SOL    HW2   78   2.596   2.045   2.022 -2.7612  1.7147  1.5643
   27SOL     OW   79   0.602   2.933   0.167 -0.1887  0.2367  0.0769
   27SOL    HW1   80   0.708   2.937   0.174  0.6029 -2.7394  3.1931
   27SOL    HW2   81   0.563   2.947   0.070  3.0787 -0.4619 -0.8651
   28SOL     OW   82   1.535   0.181   0.300 -0.3399 -0.0840 -0.0595
   28SOL    HW1   83   1.578   0.184   0.205 -0.9084 -0.2287 -2.5396
   28SOL    HW2   84   1.512   0.276   0.332  1.8794 -0.0379 -1.6384
   29SOL     OW   85   1.976   0.516   0.367  0.0972  0.9952  0.7167
   29SOL    HW1   86   1.953   0.616   0.400  0.2033 -0.4496 -1.0401
   29SOL    HW2   87   2.063   0.508   0.308  0.5150  1.1701 -2.2286
   30SOL     OW   88   0.230   2.046   0.894 -0.0609 -0.0301 -0.5520
   30SOL    HW1   89   0.227   2.064   0.792  1.9228 -0.1048 -3.0435
   30SOL    HW2   90   0.135   2.068   0.929  1.0897 -0.2259  1.0013
   31SOL     OW   91   2.097   3.086   2.305 -0.2869 -0.5942 -0.0210
   31SOL    HW1   92   2.068   3.074   2.407  0.5678  2.0328 -0.6023
   31SOL    HW2   93   2.007   3.093   2.250 -0.2529  3.4626  0.1743
   32SOL     OW   94   2.956   0.201   0.243  0.0196 -0.1666  0.2166
   32SOL    HW1   95   2.909   0.125   0.291 -2.8805 -1.1983 -0.2272
   32SOL    HW2   96   3.055   0.217   0.272  0.5794  1.0814  2.0415
   33SOL     OW   97   0.924   0.346   0.583  0.3064 -0.4128  0.5980
   33SOL    HW1   98   0.930   0.251   0.539  0.3797  3.2160 -0.4438
   33SOL    HW2   99   1.020   0.396   0.600  1.5631  2.1910  0.7408
   34SOL     OW  100   0.366   2.837   1.089  0.0004 -0.7165  0.6884
   34SOL    HW1  101   0.312   2.757   1.051 -0.2600 -0.7282  0.8495
   34SOL    HW2  102   0.465   2.841   1.056 -1.1354  2.1280 -0.0853
   35SOL     OW  103   0.022   0.215   1.859 -0.1324 -0.0019 -0.2212
   35SOL    HW1  104   0.074   0.128   1.884 -1.0571  0.3425 -1.1539
   35SOL    HW2  105  -0.045   0.195   1.782  1.4928  0.5471  0.6060
   36SOL     OW  106   1.942   1.081   1.845  0.2644 -0.2913  0.2039
   36SOL    HW1  107   1.989   1.078   1.746  4.1119  2.5582 -2.5115
   36SOL    HW2  108   1.985   1.157   1.904 -0.5670 -1.6812  0.2268
   37SOL     OW  109   1.201   0.162   0.919  0.3483  0.0580 -0.6442
   37SOL    HW1  110   1.237   0.200   1.006 -1.1062  0.7724  1.1453
   37SOL    HW2  111   1.254   0.081   0.887  1.6355  1.0513  0.4192
   38SOL     OW  112   1.114   2.766   2.426  0.3059  0.4526 -0.3720
   38SOL    HW1  113   1.056   2.682   2.421 -3.5080 -0.4502 -0.3340
   38SOL    HW2  114   1.059   2.853   2.408 -0.0017 -0.5014  2.2764
   39SOL     OW  115   2.319   1.389   3.009  0.4845  0.2461  0.0131
   39SOL    HW1  116   2.406   1.337   3.013  0.9811  2.0515  3.0706
   39SOL    HW2  117   2.290   1.426   3.099  1.0867  1.6767 -3.1017
   40SOL     OW  118   2.116   2.517   2.528 -0.5669 -0.1227  0.5047
   40SOL    HW1  119   2.067   2.598   2.568  1.1199  0.7859  5.1910
   40SOL    HW2  120   2.053   2.452   2.486  2.4835 -0.6465  0.9496
   41SOL     OW  121   2.947   0.687   2.743 -0.4912  0.0804  0.1021
   41SOL    HW1  122   2.865   0.737   2.719  1.6895 -1.6289  1.8603
   41SOL    HW2  123   2.935   0.587   2.727  2.2710  1.3860  0.5547
   42SOL     OW  124   1.771   1.756   0.552  0.2238  0.3919 -0.8343
   42SOL    HW1  125   1.725   1.670   0.514 -1.6692  2.6858 -1.0662
   42SOL    HW2  126   1.808   1.811   0.469 -0.2454  1.3752 -1.4523
   43SOL     OW  127   0.486   1.719   1.084  0.4254  0.0138 -0.7263
   43SOL    HW1  128   0.459   1.621   1.104  1.0301 -0.0634 -1.3290
   43SOL    HW2  129   0.404   1.786   1.068  1.0041  4.0999  3.0023
   44SOL     OW  130   1.821   2.477   3.053  0.1567 -0.1712  0.1293
   44SOL    HW1  131   1.791   2.565   2.995 -1.5962  1.1166 -2.0685
   44SOL    HW2  132   1.907   2.498   3.113  3.2624  1.8835  1.4804
   45SOL     OW  133   0.309   1.910   2.612  0.3898 -0.1124  0.4832
   45SOL    HW1  134   0.286   1.933   2.517 -0.2613 -1.3507  1.2650
   45SOL    HW2  135   0.392   1.854   2.619 -0.5946 -0.4376 -2.1064
   46SOL     OW  136   1.211   0.644   0.150  0.5434  0.0849 -0.2702
   46SOL    HW1  137   1.247   0.735   0.118  0.7346  0.1870  1.2322
   46SOL    HW2  138   1.120   0.645   0.197 -0.2509 -1.3772  0.8183
   47SOL     OW  139   0.195   2.455   1.643  0.3809 -0.3011 -0.2218
   47SOL    HW1  140   0.277   2.385   1.654  0.8812 -2.0698 -0.0044
   47SOL    HW2  141   0.166   2.472   1.549  2.2036  3.2994  3.8634
   48SOL     OW  142   2.622   0.608   0.139  0.4239  0.5882 -0.0557
   48SOL    HW1  143   2.587   0.618   0.238 -2.7075 -4.5978 -1.3885
   48SOL    HW2  144   2.717   0.660   0.130  3.6372  1.7364 -0.1666
   49SOL     OW  145   0.354   0.770   1.706 -0.1854  0.0680  0.3060
   49SOL    HW1  146   0.421   0.787   1.787 -0.4175 -3.4210 -0.5322
   49SOL    HW2  147   0.380   0.686   1.650 -0.4138  1.5079  1.3496
   50SOL     OW  148   1.657   1.123   0.313 -0.0186  0.1205  0.0922
   50SOL    HW1  149   1.621   1.028   0.296  0.2189 -0.8899  1.1441
   50SOL    HW2  150   1.615   1.164   0.405 -2.0685  1.1617  3.5500
   51SOL     OW  151   2.912   1.861   0.347 -0.1540 -0.8251  0.5794
   51SOL    HW1  152   2.860   1.811   0.273  1.1310  0.5465  0.4929
   51SOL    HW2  153   2.973   1.796   0.398 -3.3388 -2.3733  2.1965
   52SOL     OW  154   0.816   1.933   0.468 -0.7982  1.2159  0.0445
   52SOL    HW1  155   0.749   1.995   0.518 -1.3211 -0.2391 -1.0061
   52SOL    HW2  156   0.837   1.846   0.524  0.1202 -0.7187  2.0115
   53SOL     OW  157   0.007   0.386   1.563  0.7315  0.3057  0.1527
   53SOL    HW1  158   0.036   0.415   1.659  3.1170  0.8634  1.0775
   53SOL    HW2  159  -0.046   0.460   1.512  1.6237  4.4262 -3.5239
   54SOL     OW  160   1.771   0.466   3.079 -0.5093  0.4318  0.3704
   54SOL    HW1  161   1.808   0.426   3.174  1.7962  1.5073  0.9335
   54SOL    HW2  162   1.668   0.461   3.068  0.0635 -0.8904 -1.0429
   55SOL     OW  163   0.749   2.893   0.660  0.0572 -0.6019  0.8106
   55SOL    HW1  164   0.689   2.968   0.692  2.0356  1.0132  0.4228
   55SOL    HW2  165   0.838   2.933   0.623 -0.0500  3.7657 -0.8335
   56SOL     OW  166   0.439   1.567   3.052 -0.0827 -0.0822  0.1886
   56SOL    HW1  167   0.349   1.614   3.066 -5.0142 -2.3226  0.2509
   56SOL    HW2  168   0.433   1.474   3.013  3.6551  3.3952  0.7838
   57SOL     OW  169   1.818   2.504   2.670  0.0223  0.0305 -0.3977
   57SOL    HW1  170   1.833   2.480   2.570 -1.0975  0.9681 -3.2946
   57SOL    HW2  171   1.718   2.529   2.681  1.6615  1.6682 -0.9526
   58SOL     OW  172   0.650   0.372   1.048 -0.2811 -0.2242 -0.3736
   58SOL    HW1  173   0.567   0.431   1.035  3.7703  0.5530 -0.8049
   58SOL    HW2  174   0.623   0.276   1.076  1.0274 -1.9039 -0.6433
   59SOL     OW  175   0.401   2.387   2.766 -0.0692  0.6237  0.5053
   59SOL    HW1  176   0.412   2.299   2.716 -0.4676 -0.4525  0.2995
   59SOL    HW2  177   0.480   2.416   2.826 -0.7070 -0.2637 -0.8357
   60SOL     OW  178   2.315   2.060   2.217 -0.1392 -0.5934 -0.1357
   60SOL    HW1  179   2.395   2.104   2.158  0.4596 -0.9902 -0.3217
   60SOL    HW2  180   2.318   2.069   2.322 -0.0991 -1.1530 -1.4057
   61SOL     OW  181   1.299   0.579   0.533  0.1085  0.4058 -0.5165
   61SOL    HW1  182   1.211   0.634   0.551  1.2954 -2.3958 -0.1666
   61SOL    HW2  183   1.304   0.528   0.442  1.6081  0.0899  1.1015
   62SOL     OW  184   2.678   1.790   2.929  0.1297  0.5335 -0.3646
   62SOL    HW1  185   2.672   1.694   2.971  2.9070  0.9547 -2.4283
   62SOL    HW2  186   2.765   1.808   2.883  1.2744  1.7230  1.1588
   63SOL     OW  187   0.589   0.929   0.163  0.3635 -0.1942  0.2549
   63SOL    HW1  188   0.566   1.030   0.143  0.0663  0.7979  1.5018
   63SOL    HW2  189   0.678   0.930   0.222  3.5713  3.0078 -2.7664
   64SOL     OW  190   0.086   0.575   2.544  0.5138 -0.4546 -0.2840
   64SOL    HW1  191   0.072   0.608   2.644  1.7559  2.5568  2.5607
   64SOL    HW2  192   0.092   0.646   2.472  1.7366  0.0907  0.0261
   65SOL     OW  193   0.207   1.485   0.555  0.6122  0.1801  0.4642
   65SOL    HW1  194   0.244   1.539   0.636 -2.3576 -0.5933 -2.5551
   65SOL    HW2  195   0.281   1.435   0.500 -1.1851 -0.6308 -0.2452
   66SOL     OW  196   2.527   0.430   0.599  0.2565 -0.2873 -0.5966
   66SOL    HW1  197   2.431   0.460   0.635  0.1133 -0.2994  0.1849
   66SOL    HW2  198   2.538   0.327   0.592 -0.4346 -1.6649  0.9488
   67SOL     OW  199   0.558   2.524   1.384  0.2705  0.1620 -0.2534
   67SOL    HW1  200   0.615   2.529   1.469 -0.0987  1.5475  0.6440
   67SOL    HW2  201   0.488   2.446   1.373 -0.5929  0.2404  0.2280
   68SOL     OW  202   1.015   1.103   2.452 -0.1417  0.1339 -0.4800
   68SOL    HW1  203   1.075   1.033   2.405 -0.6516 -1.3345  2.1500
   68SOL    HW2  204   0.927   1.119   2.400 -2.2949  3.1339  2.2484
   69SOL     OW  205   0.792   2.766   2.196  0.2765  0.0097  0.5402
   69SOL    HW1  206   0.820   2.668   2.187  0.9156  4.5965  0.8990
   69SOL    HW2  207   0.687   2.775   2.203 -0.3683  0.8522  0.0165
   70SOL     OW  208   0.619   0.285   2.711 -0.6111  0.3790  0.0330
   70SOL    HW1  209   0.599   0.354   2.784 -1.0787 -1.9516 -0.8389
   70SOL    HW2  210   0.594   0.187   2.744  1.6860  2.8015  2.7486
   71SOL     OW  211   1.054   1.767   0.333  0.0075 -0.7779 -0.0050
   71SOL    HW1  212   0.982   1.698   0.358 -0.9156  1.5363  1.4333
   71SOL    HW2  213   1.061   1.793   0.230  0.1480  1.0717  2.1688
   72SOL     OW  214   1.770   0.165   2.036  0.3102  0.5984  0.3974
   72SOL    HW1  215   1.833   0.181   1.953 -1.1968 -1.8778 -0.4901
   72SOL    HW2  216   1.812   0.094   2.102  3.0048 -3.6696 -0.0275
   73SOL     OW  217   2.790   2.163   2.472  0.3481 -0.1822 -0.3031
   73SOL    HW1  218   2.769   2.062   2.437  1.2337  1.7138 -1.0094
   73SOL    HW2  219   2.806   2.174   2.571 -0.4244 -0.2717 -3.1305
   74SOL     OW  220   2.724   2.926   2.028 -0.1081 -0.5770  0.1083
   74SOL    HW1  221   2.689   2.939   2.123  0.6083  1.4255  2.3347
   74SOL    HW2  222   2.824   2.955   2.015  3.4230 -0.7104 -0.6180
   75SOL     OW  223   0.948   0.765   1.047 -0.7171 -0.3019  0.0720
   75SOL    HW1  224   0.855   0.788   1.022  0.3984  1.3082  3.4291
   75SOL    HW2  225   0.979   0.817   1.131  3.0683 -0.5916  0.7281
   76SOL     OW  226   1.699   1.264   2.541 -0.5224  0.1206 -0.3159
   76SOL    HW1  227   1.606   1.232   2.567  2.4627  1.0989  0.7776
   76SOL    HW2  228   1.710   1.365   2.569  1.0246  2.4825 -2.8997
   77SOL     OW  229   2.935   0.946   0.965  0.1746 -0.1036 -0.3327
   77SOL    HW1  230   2.897   0.850   0.931  0.0944 -1.6554  0.1453
   77SOL    HW2  231   2.952   0.957   1.069  2.1984 -2.3451  0.2848
   78SOL     OW  232   2.057   1.390   1.536  0.0445  0.2689  0.1392
   78SOL    HW1  233   2.143   1.443   1.512 -0.5365 -2.9308 -2.1136
   78SOL    HW2  234   1.998   1.360   1.457 -0.9231 -2.3913  3.2335
   79SOL     OW  235   0.644   1.317   0.876  0.3879  0.5308  0.5691
   79SOL    HW1  236   0.550   1.364   0.883 -1.1988  1.9196 -1.0455
   79SOL    HW2  237   0.677   1.309   0.774 -1.2377 -3.4817 -0.1149
   80SOL     OW  238   0.676   0.472   1.618 -0.0543 -0.0810  0.2535
   80SOL    HW1  239   0.710   0.521   1.534 -1.5886 -3.4396 -2.1024
   80SOL    HW2  240   0.699   0.373   1.616  0.0725  0.1732  0.5046
   81SOL     OW  241   1.052   1.389   2.598 -0.1561  0.1091 -0.0939
   81SOL    HW1  242   1.050   1.282   2.597 -1.0946  1.9469  1.6353
   81SOL    HW2  243   0.970   1.431   2.546 -0.2971 -1.0278 -2.1161
   82SOL     OW  244   0.935   2.946   1.511 -0.5141 -0.1927 -0.0850
   82SOL    HW1  245   0.938   2.985   1.415  2.1158  0.2431  1.4461
   82SOL    HW2  246   0.860   2.873   1.518 -0.9824  0.5744  1.1569
   83SOL     OW  247   2.694   2.486   0.848 -0.2838  0.2956 -0.3105
   83SOL    HW1  248   2.633   2.418   0.811  1.6441  0.8301  0.3359
   83SOL    HW2  249   2.678   2.585   0.815 -0.6504  1.5397  1.0557
   84SOL     OW  250   0.699   3.083   2.316  0.0063 -0.4918 -0.1779
   84SOL    HW1  251   0.629   3.030   2.378 -1.3613  2.9557 -0.1445
   84SOL    HW2  252   0.781   3.032   2.281 -1.8840 -2.5784 -0.4667
   85SOL     OW  253   0.359   1.615   1.538 -0.0858 -0.1344 -0.1326
   85SOL    HW1  254   0.289   1.699   1.531 -1.1401  1.6786 -0.7487
   85SOL    HW2  255   0.367   1.590   1.643 -2.8447  2.0339  1.4464
   86SOL     OW  256   0.368   0.963   1.511  0.1095  0.0675  0.1992
   86SOL    HW1  257   0.357   0.929   1.414  1.2337  0.2091  0.8595
   86SOL    HW2  258   0.374   0.888   1.580  0.5799  2.1509 -0.6851
   87SOL     OW  259   1.556   0.661   0.182  0.1649  0.0824 -0.4284
   87SOL    HW1  260   1.643   0.707   0.188 -2.0570  0.4829  0.6855
   87SOL    HW2  261   1.535   0.611   0.093 -0.3532 -1.0828 -0.1111
   88SOL     OW  262   1.577   1.402   0.244  0.3808  0.5220 -0.0513
   88SOL    HW1  263   1.595   1.300   0.255 -2.4223  0.8150 -0.9270
   88SOL    HW2  264   1.478   1.428   0.247  3.1167 -2.5788 -0.4182
   89SOL     OW  265   0.034   0.414   0.594 -0.0445  0.2520 -0.1452
   89SOL    HW1  266   0.104   0.343   0.577 -1.0773 -0.5681 -0.0582
   89SOL    HW2  267  -0.064   0.382   0.576  0.6224  1.6977  0.8927
   90SOL     OW  268   0.913   1.565   3.090  0.1442  0.6943  0.2041
   90SOL    HW1  269   0.827   1.547   3.148 -1.5077 -0.4779  1.6050
   90SOL    HW2  270   0.889   1.593   2.993 -0.0917 -1.8837 -0.1370
   91SOL     OW  271   1.267   1.419   1.804 -0.4995 -0.1170 -0.4884
   91SOL    HW1  272   1.222   1.506   1.834  0.1266 -0.0527  1.1097
   91SOL    HW2  273   1.349   1.430   1.741  2.5698  0.1599  0.3310
   92SOL     OW  274   3.070   0.991   1.207  0.3584 -0.4367  0.1747
   92SOL    HW1  275   3.143   1.056   1.172  2.1123 -1.5545  1.0825
   92SOL    HW2  276   3.098   0.973   1.310  0.9300 -2.2066  1.0492
   93SOL     OW  277   3.081   2.743   0.022  0.1980 -0.1393 -0.1439
   93SOL    HW1  278   3.014   2.749  -0.058 -0.7235  4.3737  1.0412
   93SOL    HW2  279   3.118   2.648   0.038  1.3887  0.7566  1.4571
   94SOL     OW  280   1.545   1.479   1.719 -0.1821  0.0982  1.2205
   94SOL    HW1  281   1.595   1.387   1.710  1.8885 -1.1817 -2.5824
   94SOL    HW2  282   1.585   1.546   1.787 -1.6403  0.6446  0.2884
   95SOL     OW  283   1.365   2.519   3.017  0.9415 -0.2544  0.2813
   95SOL    HW1  284   1.292   2.509   3.092  0.8047 -1.2243  1.8816
   95SOL    HW2  285   1.373   2.426   2.964 -1.3097  1.0060 -1.3141
   96SOL     OW  286   0.525   2.035   1.306 -0.0281  0.5468  0.4475
   96SOL    HW1  287   0.501   2.032   1.206  0.2001 -2.4367  0.9455
   96SOL    HW2  288   0.585   1.957   1.341 -0.1303 -2.2492 -1.1489
   97SOL     OW  289   0.403   1.610   2.448  0.3994  0.4807 -0.0333
   97SOL    HW1  290   0.313   1.596   2.501 -0.6882  1.7895 -0.1684
   97SOL    HW2  291   0.467   1.676   2.494  3.0485 -1.0843  0.1964
   98SOL     OW  292   1.955   1.582   1.247 -0.1149 -0.1242 -0.2928
   98SOL    HW1  293   1.938   1.526   1.329  0.5446 -1.3235  0.6087
   98SOL    HW2  294   1.975   1.521   1.161  1.5135  0.0694 -1.9394
   99SOL     OW  295   2.487   2.121   1.370 -0.4072  0.2162 -0.1250
   99SOL    HW1  296   2.463   2.176   1.454  2.2188  2.0368 -0.9212
   99SOL    HW2  297   2.466   2.019   1.372 -0.5588  0.0703 -0.0951
  100SOL     OW  298   2.295   0.381   2.080  0.1248 -0.4112  0.0023
  100SOL    HW1  299   2.231   0.346   2.153  2.0131  1.1485 -1.4095
  100SOL    HW2  300   2.370   0.440   2.121 -4.0626  0.0340 -1.3771
  101SOL     OW  301   0.369   1.496   0.254 -0.2751  0.0171  0.2752
  101SOL    HW1  302   0.414   1.509   0.348 -0.9680  0.3376 -0.7367
  101SOL    HW2  303   0.414   1.555   0.181  0.9380  0.2766  2.1319
  102SOL     OW  304   2.310   1.009   0.836 -0.3684 -0.3264  0.0819
  102SOL    HW1  305   2.216   0.970   0.838 -0.6292  2.8581  0.4435
  102SOL    HW2  306   2.316   1.079   0.755  0.8045  0.7893 -0.1483
  103SOL     OW  307   2.288   0.005   0.411  0.1591  0.1608 -0.3115
  103SOL    HW1  308   2.319   0.105   0.387  0.5899  1.3246  3.4513
  103SOL    HW2  309   2.360  -0.052   0.457  0.4559  1.4508  2.7643
  104SOL     OW  310   0.077   1.730   2.204 -0.1157 -0.2796 -0.5751
  104SOL    HW1  311   0.118   1.700   2.119 -0.1456  1.7848  3.3969
  104SOL    HW2  312  -0.025   1.750   2.186  0.0272 -2.3269  1.8899
  105SOL     OW  313   1.274   2.096   0.793  0.4490  0.7357 -0.3981
  105SOL    HW1  314   1.199   2.125   0.725 -1.9934 -1.2428  0.3693
  105SOL    HW2  315   1.300   1.995   0.781  0.7866 -0.5759  1.4382
  106SOL     OW  316   2.148   0.553   1.387  0.2805 -0.0425  0.3904
  106SOL    HW1  317   2.079   0.476   1.411  0.8199 -0.0597 -1.4846
  106SOL    HW2  318   2.144   0.634   1.452 -1.4815 -0.9715  1.7406
  107SOL     OW  319   1.760   3.001   1.114  0.0690 -0.4677  0.7231
  107SOL    HW1  320   1.821   3.069   1.160  0.0834 -0.0973  0.5372
  107SOL    HW2  321   1.700   2.952   1.183  0.7831  0.9404 -1.3732
  108SOL     OW  322   0.818   2.764   1.206  0.1880  0.0964 -0.4929
  108SOL    HW1  323   0.779   2.772   1.303  0.6056  1.4972 -1.9578
  108SOL    HW2  324   0.921   2.750   1.207 -0.2413 -0.2849  0.2106
  109SOL     OW  325   2.247   0.143   0.774  0.1698 -0.6549 -0.2173
  109SOL    HW1  326   2.148   0.123   0.742  1.9961  1.5587 -1.4729
  109SOL    HW2  327   2.251   0.148   0.879  0.9785 -1.6296 -0.7285
  110SOL     OW  328   0.449   2.841   2.736 -0.0725  0.8324  0.0437
  110SOL    HW1  329   0.447   2.864   2.636  1.5189 -0.6566 -0.2106
  110SOL    HW2  330   0.535   2.794   2.763 -1.3817 -0.5762  2.2291
  111SOL     OW  331   1.321   0.514   2.278 -0.2800 -0.2738 -0.1792
  111SOL    HW1  332   1.245   0.559   2.330  0.7375  1.4576 -2.3330
  111SOL    HW2  333   1.365   0.432   2.329  1.1241  0.1813  0.1487
  112SOL     OW  334   1.749   0.492   1.475  0.0499  0.0756  0.3205
  112SOL    HW1  335   1.755   0.469   1.373  1.1265 -0.6898  1.1801
  112SOL    HW2  336   1.705   0.414   1.534 -0.7262 -2.9575  0.3556
  113SOL     OW  337   2.260   1.636   1.770 -0.0237  0.2507  0.5164
  113SOL    HW1  338   2.291   1.536   1.755  1.4545 -0.2406 -0.5955
  113SOL    HW2  339   2.309   1.685   1.846 -2.4488  1.6380  0.9596
  114SOL     OW  340   0.372   0.522   1.248  0.6655 -0.1723 -0.3039
  114SOL    HW1  341   0.432   0.581   1.188  2.4340 -2.7296 -2.7914
  114SOL    HW2  342   0.311   0.461   1.194 -1.6766 -1.1027 -0.8802
  115SOL     OW  343   2.758   1.651   1.262  0.5512  0.0263  0.5039
  115SOL    HW1  344   2.751   1.553   1.294  1.8844  1.6329 -1.1934
  115SOL    HW2  345   2.775   1.661   1.159  1.2447  1.2304 -0.1385
  116SOL     OW  346   1.824   1.019   0.713  0.4668  0.7191 -0.1794
  116SOL    HW1  347   1.723   0.986   0.693  1.0336 -0.8298  0.1011
  116SOL    HW2  348   1.834   1.115   0.752 -1.3913 -0.0914  1.8022
  117SOL     OW  349   1.165   0.406   0.677  0.0683 -0.5111  0.3699
  117SOL    HW1  350   1.159   0.414   0.777 -0.9717 -1.5908 -0.6411
  117SOL    HW2  351   1.230   0.482   0.639  1.1915  0.6624  0.6038
  118SOL     OW  352   1.093   1.150   1.071 -0.0250  0.0812 -0.1665
  118SOL    HW1  353   1.054   1.066   1.116  1.0262  5.6579 -1.0027
  118SOL    HW2  354   1.144   1.212   1.139  1.1263 -0.8545  2.3498
  119SOL     OW  355   1.843   1.624   2.104 -0.7148  0.1960 -0.3647
  119SOL    HW1  356   1.819   1.723   2.118  3.2421 -0.9101 -1.7474
  119SOL    HW2  357   1.941   1.605   2.117  2.4732 -0.2042 -0.2780
  120SOL     OW  358   2.950   2.849   0.230 -0.3622  0.1234 -0.2006
  120SOL    HW1  359   3.012   2.805   0.152 -0.0849  1.5764 -1.2964
  120SOL    HW2  360   2.870   2.789   0.243  0.4275 -1.9348 -2.4225
  121SOL     OW  361   2.018   0.769   2.278  0.3141  0.0050  0.1796
  121SOL    HW1  362   2.003   0.834   2.194 -1.5257  0.2001 -2.4986
  121SOL    HW2  363   2.041   0.670   2.256  0.1160  1.6920  1.6917
  122SOL     OW  364   2.596   2.685   1.241 -0.3338  0.4251  0.1689
  122SOL    HW1  365   2.642   2.599   1.218 -2.5529  3.0555 -1.5515
  122SOL    HW2  366   2.596   2.754   1.162 -1.7803  3.1318 -1.4118
  123SOL     OW  367   1.732   0.062   1.675 -0.1849  0.2107  0.0789
  123SOL    HW1  368   1.757  -0.025   1.624 -1.5101 -2.1969 -0.7702
  123SOL    HW2  369   1.807   0.096   1.734 -0.1392 -0.9449 -2.6380
  124SOL     OW  370   0.123   0.414   1.105  0.3496 -0.0249  0.3539
  124SOL    HW1  371   0.095   0.481   1.181 -1.1075 -0.2137 -0.5359
  124SOL    HW2  372   0.073   0.445   1.022  1.0663 -0.7212 -3.3373
  125SOL     OW  373   0.848   1.774   0.676  0.1367  0.8491 -0.0016
  125SOL    HW1  374   0.953   1.756   0.680  0.5328  2.4776 -0.2726
  125SOL    HW2  375   0.795   1.729   0.753 -1.3548  1.2221  2.4387
  126SOL     OW  376   1.912   2.339   2.441 -0.0190 -0.8265  0.3813
  126SOL    HW1  377   1.958   2.306   2.354 -1.8392  0.8265 -1.8668
  126SOL    HW2  378   1.849   2.267   2.482 -0.5352 -1.1537  0.1942
  127SOL     OW  379   0.835   0.904   0.321  0.5968 -0.0973 -0.0309
  127SOL    HW1  380   0.871   0.957   0.402 -1.9360 -3.9984  3.5898
  127SOL    HW2  381   0.876   0.811   0.306 -3.6962 -1.4396  0.5782
  128SOL     OW  382   0.966   0.194   1.374  0.2207  0.4939 -0.0149
  128SOL    HW1  383   0.966   0.283   1.313  0.6758 -0.5103 -0.2137
  128SOL    HW2  384   0.873   0.147   1.371  1.8471  3.1721  0.4483
  129SOL     OW  385   1.818   0.690   1.885 -0.1094  0.0622  0.5033
  129SOL    HW1  386   1.859   0.698   1.792  3.9892  1.6570 -1.5404
  129SOL    HW2  387   1.847   0.769   1.946  0.6601 -0.6554 -2.0432
  130SOL     OW  388   1.356   2.236   1.019  0.4772  0.2391 -0.5403
  130SOL    HW1  389   1.305   2.211   0.932  0.2351  1.1591  1.7180
  130SOL    HW2  390   1.427   2.312   1.004  0.8235 -0.2538  0.7294
  131SOL     OW  391   3.085   1.455   1.388 -0.1848 -0.2333 -0.2867
  131SOL    HW1  392   3.018   1.375   1.404 -4.3488  0.8063  1.0117
  131SOL    HW2  393   3.186   1.428   1.373 -0.3945 -1.1137 -1.2519
  132SOL     OW  394   2.007   2.441   0.521 -0.1509  0.2797  0.5738
  132SOL    HW1  395   1.909   2.419   0.495 -0.9102 -0.3230 -2.4835
  132SOL    HW2  396   2.039   2.373   0.587  0.8865  1.8167 -1.1229
  133SOL     OW  397   1.855   2.272   2.781 -0.2255 -0.4250 -0.7883
  133SOL    HW1  398   1.829   2.307   2.875 -1.1914 -1.3499 -0.5935
  133SOL    HW2  399   1.870   2.355   2.714 -2.3759  0.6099 -1.3252
  134SOL     OW  400   2.678   2.330   1.626 -0.7995 -0.4399  0.4182
  134SOL    HW1  401   2.617   2.323   1.710 -0.6726 -0.2234 -1.0112
  134SOL    HW2  402   2.745   2.411   1.630  3.1982 -2.9710  0.1968
  135SOL     OW  403   0.708   1.528   2.661  0.1084  0.2667 -0.0932
  135SOL    HW1  404   0.671   1.446   2.705 -0.9647 -1.1767  1.4894
  135SOL    HW2  405   0.764   1.520   2.574  0.1030 -0.6675  1.3801
  136SOL     OW  406   1.200   1.970   0.451  0.4091 -0.7326 -0.0732
  136SOL    HW1  407   1.126   2.011   0.514 -1.4957  0.2720  0.8635
  136SOL    HW2  408   1.155   1.890   0.396  1.1145 -1.0997  0.9109
  137SOL     OW  409   0.380   1.142   2.131  0.3212 -0.1848  0.3197
  137SOL    HW1  410   0.294   1.145   2.191  3.1475  0.2000  0.3753
  137SOL    HW2  411   0.445   1.064   2.160  1.9564  1.1619  0.0712
  138SOL     OW  412   2.441   1.485   0.261  0.8968  0.1817  0.2737
  138SOL    HW1  413   2.356   1.476   0.200  2.2984 -1.2018 -2.0241
  138SOL    HW2  414   2.439   1.407   0.330 -0.2837  1.0111  2.9432
  139SOL     OW  415   1.818   2.656   1.288 -0.1895 -0.2546  0.2407
  139SOL    HW1  416   1.726   2.659   1.232  1.5871  2.8205  0.2656
  139SOL    HW2  417   1.847   2.554   1.310 -0.4042 -1.3888  0.3746
  140SOL     OW  418   2.997   2.928   2.616 -0.6449 -0.7977 -0.3645
  140SOL    HW1  419   3.074   2.864   2.592 -3.3974 -0.7033  0.5219
  140SOL    HW2  420   3.031   2.997   2.687  1.2644 -0.4798 -1.8356
  141SOL     OW  421   1.269   1.706   1.601  0.2437 -0.2444  0.0052
  141SOL    HW1  422   1.171   1.745   1.621 -2.2346 -0.3533 -0.8356
  141SOL    HW2  423   1.336   1.715   1.680 -0.6069  0.6842  1.3795
  142SOL     OW  424   1.553   0.619   2.182 -0.6123  0.1583  0.2307
  142SOL    HW1  425   1.550   0.619   2.077 -0.8236  1.6721 -0.8174
  142SOL    HW2  426   1.465   0.588   2.217  1.5281 -2.6544 -0.2803
  143SOL     OW  427   2.734   0.882   0.499 -0.0270  0.6662 -0.0504
  143SOL    HW1  428   2.782   0.930   0.419 -1.8425  0.0072 -1.6369
  143SOL    HW2  429   2.793   0.901   0.586  1.3386 -0.9492 -2.5813
  144SOL     OW  430   2.936   1.222   1.452 -0.0274 -0.9632  0.2537
  144SOL    HW1  431   2.909   1.177   1.541  3.2551 -1.9507  0.5663
  144SOL    HW2  432   2.969   1.154   1.382 -1.7566 -1.7919 -0.9117
  145SOL     OW  433   1.006   1.859   0.084 -0.0650  0.1573  0.0217
  145SOL    HW1  434   1.067   1.922   0.028  0.6291  0.7390  0.0090
  145SOL    HW2  435   0.968   1.780   0.030 -1.7038  0.8522  1.6449
  146SOL     OW  436   2.452   0.664   1.541 -0.0526  0.7155  0.4754
  146SOL    HW1  437   2.438   0.589   1.466  0.5408 -1.2878 -0.6269
  146SOL    HW2  438   2.393   0.744   1.513  2.4232  0.3115  2.4175
  147SOL     OW  439   1.105   2.457   0.604 -0.4331  0.1919  0.4613
  147SOL    HW1  440   1.052   2.496   0.530  1.3975  1.1917  3.7638
  147SOL    HW2  441   1.184   2.403   0.568 -0.8749 -0.5294  0.7746
  148SOL     OW  442   1.645   1.449   3.075  0.0705  0.0763  0.2792
  148SOL    HW1  443   1.661   1.360   3.018  0.1262  2.9272 -1.9115
  148SOL    HW2  444   1.602   1.426   3.166  0.6016 -1.1068 -0.2670
  149SOL     OW  445   0.716   1.447   1.937 -0.1641 -0.0912  0.1755
  149SOL    HW1  446   0.624   1.412   1.980 -1.5268 -0.8144  1.6935
  149SOL    HW2  447   0.771   1.371   1.892  1.3436 -1.5640  1.5218
  150SOL     OW  448   3.039   1.255   0.965  0.2402  0.1922  0.2567
  150SOL    HW1  449   3.113   1.234   1.032 -1.3508  0.8736  1.2565
  150SOL    HW2  450   2.991   1.167   0.935  1.1441 -0.3674  2.7441
  151SOL     OW  451   0.204   0.775   2.089  0.6919  0.0282 -0.4755
  151SOL    HW1  452   0.171   0.829   2.008 -1.6980 -2.8380  0.2450
  151SOL    HW2  453   0.267   0.707   2.052 -1.6164  0.5551 -1.6492
  152SOL     OW  454   1.373   1.790   1.296  0.3766  0.7210  0.1883
  152SOL    HW1  455   1.354   1.875   1.350 -1.1543  1.4872  2.3264
  152SOL    HW2  456   1.290   1.761   1.240 -0.3423  0.2437  1.2942
  153SOL     OW  457   0.006   1.546   0.176 -1.3985 -0.7093  0.5114
  153SOL    HW1  458   0.025   1.445   0.169 -1.8022 -0.0267 -0.6620
  153SOL    HW2  459   0.013   1.585   0.273 -0.4067  0.2511 -1.2784
  154SOL     OW  460   2.339   1.853   2.801 -0.2436  0.0050 -0.7002
  154SOL    HW1  461   2.322   1.754   2.830 -0.2535 -1.6038 -0.1608
  154SOL    HW2  462   2.424   1.864   2.742 -0.1884 -0.7968 -2.5423
  155SOL     OW  463   2.428   1.232   0.413 -0.5709  0.0032  0.8771
  155SOL    HW1  464   2.519   1.202   0.377 -0.5657 -0.6078  3.3014
  155SOL    HW2  465   2.350   1.189   0.363  3.6895  0.8654  0.9955
  156SOL     OW  466   2.569   0.956   0.889 -0.0240  0.2602 -0.3646
  156SOL    HW1  467   2.468   0.979   0.865  1.2094 -0.2401 -2.1643
  156SOL    HW2  468   2.633   1.032   0.851 -0.2475  2.0240 -1.8980
  157SOL     OW  469   1.254   3.001   3.032  0.4792  0.2375  0.4253
  157SOL    HW1  470   1.286   2.969   2.941 -0.3551 -0.7592  2.1523
  157SOL    HW2  471   1.247   3.102   3.054  2.2794  0.0683  0.9114
  158SOL     OW  472   1.005   1.843   2.006  0.0046 -0.4667 -0.0325
  158SOL    HW1  473   1.012   1.941   1.973  0.0536  1.4018  0.0033
  158SOL    HW2  474   0.935   1.842   2.088  0.9137  0.5561  0.3669
  159SOL     OW  475   0.862   0.448   1.252  0.0488  0.0688 -0.5611
  159SOL    HW1  476   0.807   0.511   1.316 -0.9275  1.0869  0.8986
  159SOL    HW2  477   0.800   0.386   1.195  1.7465 -1.6174  0.8395
  160SOL     OW  478   1.452   2.410   1.677  0.1259 -0.3675 -0.3780
  160SOL    HW1  479   1.408   2.499   1.645 -0.9080 -0.4302 -1.2306
  160SOL    HW2  480   1.533   2.376   1.622 -0.3978 -2.8298  0.2910
  161SOL     OW  481   0.120   2.896   0.324 -0.5880 -0.0394 -0.0433
  161SOL    HW1  482   0.028   2.872   0.338  2.7903  1.8438  1.9816
  161SOL    HW2  483   0.135   2.966   0.250  1.2610 -1.2508 -0.4413
  162SOL     OW  484   2.558   1.926   0.438 -0.4226  0.0715  0.1543
  162SOL    HW1  485   2.552   1.880   0.341 -1.6030  1.5252 -0.9544
  162SOL    HW2  486   2.524   1.864   0.511 -0.3525  4.4823  4.5170
  163SOL     OW  487   1.943   2.720   0.782 -0.5462  0.2848  0.1560
  163SOL    HW1  488   1.914   2.730   0.684  1.1436  1.0894 -0.3808
  163SOL    HW2  489   2.020   2.653   0.790  0.9888 -0.3281  0.9087
  164SOL     OW  490   3.030   0.202   1.183 -0.6580 -0.7786 -0.4185
  164SOL    HW1  491   3.095   0.268   1.138  1.2921  0.9404  1.1745
  164SOL    HW2  492   3.087   0.129   1.228  0.3038 -1.2479  0.0448
  165SOL     OW  493   0.932   1.422   0.660 -0.6541  0.2036  0.1603
  165SOL    HW1  494   0.916   1.486   0.743 -0.1636 -2.0642  0.4092
  165SOL    HW2  495   0.899   1.466   0.574  1.3229 -0.6481  0.9270
  166SOL     OW  496   1.475   1.086   1.743  0.0630  0.0283 -0.1750
  166SOL    HW1  497   1.396   1.093   1.811 -2.8588 -2.3014  2.5269
  166SOL    HW2  498   1.561   1.131   1.779  0.4459  0.1992  1.7411
  167SOL     OW  499   0.768   1.904   1.485 -0.2916  0.2472 -0.0416
  167SOL    HW1  500   0.757   1.970   1.568 -0.7421  0.4522 -1.8861
  167SOL    HW2  501   0.731   1.809   1.503 -2.4845  0.0203  0.3137
  168SOL     OW  502   1.634   2.403   0.136 -0.7184  0.1923  0.4861
  168SOL    HW1  503   1.700   2.395   0.055 -2.7131 -3.6712  0.4995
  168SOL    HW2  504   1.657   2.332   0.209  1.1324 -1.6239 -1.4970
  169SOL     OW  505   0.205   2.578   2.233 -0.3736 -0.7349 -0.1066
  169SOL    HW1  506   0.206   2.504   2.160  2.9614 -0.5935 -1.4589
  169SOL    HW2  507   0.227   2.534   2.328 -3.9885 -1.5055  3.2716
  170SOL     OW  508   1.232   0.277   1.966 -0.1206 -1.0141  0.5141
  170SOL    HW1  509   1.300   0.243   2.037 -1.1171 -1.6610 -0.0386
  170SOL    HW2  510   1.199   0.197   1.905  0.2380 -1.0478 -2.1517
  171SOL     OW  511   0.219   0.835   2.372  0.0273  0.0108 -0.0396
  171SOL    HW1  512   0.131   0.871   2.415  1.0964  1.3653 -0.3445
  171SOL    HW2  513   0.212   0.834   2.270  1.1394  0.4871  2.2470
  172SOL     OW  514   0.899   1.098   2.933 -0.6438 -0.6585 -0.3206
  172SOL    HW1  515   0.994   1.122   2.970  1.9318 -2.4978 -0.6747
  172SOL    HW2  516   0.899   1.090   2.827 -2.8629  0.3251 -2.1086
  173SOL     OW  517   0.656   2.686   0.065 -0.1898 -0.2824 -0.2371
  173SOL    HW1  518   0.644   2.768   0.135 -1.3274  2.3967  4.1371
  173SOL    HW2  519   0.566   2.638   0.044 -0.5864 -0.5044 -0.3474
  174SOL     OW  520   1.400   2.856   1.066  0.1414 -0.4648  0.3035
  174SOL    HW1  521   1.365   2.953   1.032 -0.0294  1.7420 -0.1914
  174SOL    HW2  522   1.373   2.781   1.000 -1.0073  0.9809 -1.3224
  175SOL     OW  523   0.414   0.054   1.658  0.2882 -0.2031  0.6525
  175SOL    HW1  524   0.469   0.091   1.739  0.1710  0.7599  1.0419
  175SOL    HW2  525   0.347   0.124   1.623 -1.2480  0.2753 -0.5287
  176SOL     OW  526   2.564   0.383   3.062  0.4086 -0.0659 -0.0437
  176SOL    HW1  527   2.602   0.462   3.119  0.0296  0.0969 -3.4377
  176SOL    HW2  528   2.504   0.307   3.104 -2.3830 -2.6962 -1.0494
  177SOL     OW  529   0.345   0.290   0.960 -0.0854  0.4253  0.0776
  177SOL    HW1  530   0.414   0.215   0.988 -0.7390 -1.9587  1.9140
  177SOL    HW2  531   0.263   0.308   1.027 -2.1908 -0.2130  3.2165
  178SOL     OW  532   0.037   2.679   2.627  0.4920 -0.4243  0.3219
  178SOL    HW1  533  -0.055   2.639   2.649  1.1226 -0.0384 -2.3551
  178SOL    HW2  534   0.092   2.684   2.714  0.9260 -0.6254  1.4561
  179SOL     OW  535   0.018   1.699   1.188 -0.1154  0.1245  0.2894
  179SOL    HW1  536  -0.065   1.768   1.189  1.4886 -0.4882 -0.5780
  179SOL    HW2  537   0.011   1.619   1.259 -2.2104 -3.4556  0.2558
  180SOL     OW  538   0.222   1.200   1.858  0.3414 -0.6439  0.3300
  180SOL    HW1  539   0.324   1.211   1.862  2.9048 -0.5440 -0.0588
  180SOL    HW2  540   0.172   1.248   1.940  1.8127  1.1991  0.5735
  181SOL     OW  541   3.023   1.840   2.519  0.3509  0.0122 -0.0183
  181SOL    HW1  542   3.093   1.911   2.509 -0.0506 -4.4506  0.2389
  181SOL    HW2  543   2.932   1.846   2.470 -3.3911 -3.1651  0.2904
  182SOL     OW  544   2.271   1.291   1.163 -0.1925 -0.0407  0.0790
  182SOL    HW1  545   2.192   1.238   1.127  0.1169  2.7382 -0.1472
  182SOL    HW2  546   2.290   1.379   1.110 -0.2292 -1.3103 -0.4853
  183SOL     OW  547   1.488   2.239   2.522 -0.4450 -0.4494  0.6946
  183SOL    HW1  548   1.403   2.187   2.542  1.8748  3.3241  0.6794
  183SOL    HW2  549   1.576   2.192   2.536  0.0050 -0.4019  0.2176
  184SOL     OW  550   2.063   0.922   0.794  0.2830 -0.4652 -0.6350
  184SOL    HW1  551   1.971   0.966   0.775  0.9424 -0.9803  1.7898
  184SOL    HW2  552   2.047   0.832   0.847  0.1010 -1.6340 -1.4701
  185SOL     OW  553   1.566   2.733   2.083  0.2263  0.1742  0.0507
  185SOL    HW1  554   1.534   2.818   2.032  3.7541 -0.0736  0.2194
  185SOL    HW2  555   1.524   2.710   2.174 -1.8082  0.3334  1.0659
  186SOL     OW  556   0.069   2.175   1.695 -0.4455  0.1640 -0.1718
  186SOL    HW1  557   0.104   2.261   1.649 -1.8876  2.1467 -2.0158
  186SOL    HW2  558   0.143   2.100   1.702 -3.4571 -1.3362  0.5032
  187SOL     OW  559   1.390   0.713   1.660  0.1697  0.5637 -0.3344
  187SOL    HW1  560   1.434   0.719   1.564 -0.1033 -1.3925 -1.3113
  187SOL    HW2  561   1.431   0.770   1.734  0.0653 -1.7785  1.1486
  188SOL     OW  562   2.789   2.800   1.460 -0.2088 -1.0399  0.0707
  188SOL    HW1  563   2.784   2.903   1.441  0.4355 -0.6061 -0.9665
  188SOL    HW2  564   2.734   2.747   1.392  1.5307  0.3232 -0.9176
  189SOL     OW  565   0.844   1.071   1.362 -0.3745  0.6605 -0.2558
  189SOL    HW1  566   0.906   1.140   1.409 -1.4730 -0.1010  0.3412
  189SOL    HW2  567   0.800   1.123   1.283 -0.9884 -0.1141 -1.9488
  190SOL     OW  568   1.538   1.886   1.587  0.0709  0.1950  0.3479
  190SOL    HW1  569   1.437   1.858   1.578 -0.7824 -0.9902  2.4429
  190SOL    HW2  570   1.571   1.877   1.687 -0.6843  2.7535 -0.8476
  191SOL     OW  571   0.962   0.753   1.537  0.1296  0.0388 -0.1615
  191SOL    HW1  572   0.989   0.652   1.540 -0.0540  0.0924  0.8531
  191SOL    HW2  573   1.038   0.820   1.566 -0.1454  0.7466 -1.8370
  192SOL     OW  574   1.852   2.230   1.122  0.2230 -0.3649 -0.3987
  192SOL    HW1  575   1.787   2.206   1.049  1.2718  2.0006 -0.6589
  192SOL    HW2  576   1.914   2.312   1.098 -2.0179 -0.3728  0.9969
  193SOL     OW  577   0.517   0.611   0.399  0.2584 -0.0650  0.3675
  193SOL    HW1  578   0.493   0.535   0.462 -0.5051 -2.6488 -1.9609
  193SOL    HW2  579   0.554   0.572   0.308 -2.3336  0.5343 -0.6943
  194SOL     OW  580   0.295   0.824   1.260  0.3744 -0.0365  0.1238
  194SOL    HW1  581   0.234   0.739   1.247  1.0945  0.0747  0.2477
  194SOL    HW2  582   0.273   0.898   1.195  0.6333 -0.0011  0.3225
  195SOL     OW  583   1.000   2.912   0.478  0.2662 -0.0717  1.0473
  195SOL    HW1  584   0.992   2.808   0.447 -2.2208 -2.7495 -0.8539
  195SOL    HW2  585   1.102   2.948   0.475  0.2068  1.3534  1.5440
  196SOL     OW  586   0.259   1.393   1.388 -0.3289 -0.3832 -0.3297
  196SOL    HW1  587   0.284   1.483   1.432 -1.7542 -1.8477 -0.0123
  196SOL    HW2  588   0.257   1.316   1.455  0.4604 -0.0391 -2.5587
  197SOL     OW  589   0.852   2.035   0.210 -1.4516 -0.1481 -0.0341
  197SOL    HW1  590   0.853   2.019   0.313 -0.7087 -0.0261 -1.6481
  197SOL    HW2  591   0.922   1.974   0.161 -1.5875 -0.8445  1.7563
  198SOL     OW  592   0.280   1.238   0.263  0.4202  0.4336 -0.7034
  198SOL    HW1  593   0.181   1.233   0.224 -3.6843 -0.9783  1.3828
  198SOL    HW2  594   0.321   1.335   0.258 -1.1933 -2.3835  1.5097
  199SOL     OW  595   2.210   0.357   2.533 -0.0539 -0.5408 -0.0587
  199SOL    HW1  596   2.160   0.314   2.609 -1.2694  1.2384  1.8141
  199SOL    HW2  597   2.310   0.388   2.564  0.3395 -1.2667 -0.5509
  200SOL     OW  598   0.038   2.968   0.674  0.4167  0.3806  0.6525
  200SOL    HW1  599  -0.059   2.952   0.650  1.4710 -0.4646  0.2753
  200SOL    HW2  600   0.046   3.033   0.751  1.4409  0.5587 -1.3985
  201SOL     OW  601   1.097   0.733   0.649  0.4260  0.2134 -0.0305
  201SOL    HW1  602   1.103   0.816   0.714  0.5432  0.7982  1.3779
  201SOL    HW2  603   1.004   0.701   0.612 -1.3317  2.0660 -2.2955
  202SOL     OW  604   0.486   1.225   1.832 -0.2966 -0.4855  0.3139
  202SOL    HW1  605   0.502   1.226   1.728 -0.4935  0.5693 -1.7732
  202SOL    HW2  606   0.546   1.165   1.891 -1.7375  1.5692 -0.3126
  203SOL     OW  607   0.731   0.184   1.573 -0.2820 -0.0839 -0.0173
  203SOL    HW1  608   0.728   0.131   1.482  0.3703 -0.6503  0.3257
  203SOL    HW2  609   0.770   0.139   1.655 -0.6019  3.2492 -0.3555
  204SOL     OW  610   2.082   1.863   2.993 -1.0944 -0.4097 -0.9828
  204SOL    HW1  611   2.084   1.760   2.984  0.5100  1.9934  1.9615
  204SOL    HW2  612   2.067   1.903   2.903  1.3400 -0.1889  3.1807
  205SOL     OW  613   1.820   1.894   0.029 -0.3081  0.0768 -0.4779
  205SOL    HW1  614   1.916   1.873  -0.011  1.5145  0.2827 -0.9619
  205SOL    HW2  615   1.798   1.993   0.012 -0.2038 -1.3238  1.9720
  206SOL     OW  616   2.516   2.781   0.316 -0.1708  0.2571  0.0484
  206SOL    HW1  617   2.576   2.702   0.317  0.5322  0.8112 -2.1091
  206SOL    HW2  618   2.549   2.851   0.246  1.9029  1.7794 -0.3545
  207SOL     OW  619   0.545   1.780   2.919 -0.0393 -0.3660  0.3140
  207SOL    HW1  620   0.645   1.759   2.910 -0.1810  0.5854  0.3545
  207SOL    HW2  621   0.495   1.700   2.957 -2.1291 -0.5628 -1.0669
  208SOL     OW  622   1.129   1.544   1.401  0.9313  0.0953  0.0426
  208SOL    HW1  623   1.119   1.613   1.325  0.1695 -2.2002 -1.4755
  208SOL    HW2  624   1.175   1.579   1.481  1.0237  0.9106 -2.6319
  209SOL     OW  625   0.271   0.951   2.995 -0.1317  0.0567  0.1100
  209SOL    HW1  626   0.333   0.897   2.930 -0.8552  1.2799 -1.1425
  209SOL    HW2  627   0.249   0.898   3.080  0.3210  0.8549  0.3659
  210SOL     OW  628   1.759   0.465   1.205  0.5215 -0.4250 -0.1613
  210SOL    HW1  629   1.698   0.532   1.150  0.8238  2.2014  0.1006
  210SOL    HW2  630   1.858   0.477   1.177 -0.7548 -2.2865  1.8529
  211SOL     OW  631   2.099   1.056   1.621  0.4445 -0.0882  0.1059
  211SOL    HW1  632   2.167   0.978   1.643  2.3500 -3.4116 -2.5036
  211SOL    HW2  633   2.147   1.135   1.576  0.5922 -0.6261  2.8014
  212SOL     OW  634   0.046   1.000   1.465  0.1959  0.2758  0.1974
  212SOL    HW1  635   0.107   1.080   1.493  2.8809 -0.4611  0.2488
  212SOL    HW2  636   0.047   0.917   1.524 -0.4232 -0.1568  0.8542
  213SOL     OW  637   2.760   0.389   0.264 -0.3037  0.2784  0.6703
  213SOL    HW1  638   2.837   0.326   0.222  3.5930 -2.4784 -1.0602
  213SOL    HW2  639   2.708   0.434   0.185 -0.5798  1.1729  1.2833
  214SOL     OW  640   2.145   0.250   2.281 -0.5639  0.7314  0.2111
  214SOL    HW1  641   2.176   0.283   2.377  2.6826 -1.5506  0.4700
  214SOL    HW2  642   2.120   0.149   2.285  0.9950  0.4503  1.3032
  215SOL     OW  643   1.643   2.312   2.031  0.5619  0.9992  0.4062
  215SOL    HW1  644   1.740   2.339   2.042 -1.2878  2.4950  0.8265
  215SOL    HW2  645   1.591   2.363   2.107 -0.1858  2.4323  2.0701
  216SOL     OW  646   2.222   0.556   0.716  0.0032  0.1362 -0.1851
  216SOL    HW1  647   2.214   0.462   0.679 -1.3264  2.1596 -0.3647
  216SOL    HW2  648   2.185   0.625   0.645  1.7099  1.9390 -1.0274
  217SOL     OW  649   0.724   2.763   2.487 -0.0251 -0.2157 -0.0060
  217SOL    HW1  650   0.707   2.690   2.561 -0.5890 -1.8915 -0.1840
  217SOL    HW2  651   0.758   2.734   2.393 -0.1378  0.2100 -0.5337
  218SOL     OW  652   1.919   1.435   0.062  0.0785  0.3277  0.1617
  218SOL    HW1  653   1.824   1.449   0.018  1.5001 -1.6931  1.9129
  218SOL    HW2  654   1.924   1.362   0.134  2.2748  2.7107 -0.7695
  219SOL     OW  655   2.334   1.283   2.589 -0.3948 -0.3117  0.5100
  219SOL    HW1  656   2.357   1.220   2.508 -0.1472 -2.2408 -1.0566
  219SOL    HW2  657   2.335   1.232   2.676 -0.5390  0.3122 -0.9353
  220SOL     OW  658   1.549   0.990   1.233 -0.0640  0.3696  0.1012
  220SOL    HW1  659   1.621   1.036   1.292  0.3467 -2.7649  2.3744
  220SOL    HW2  660   1.491   1.054   1.173 -2.1556 -1.6165  0.1466
  221SOL     OW  661   1.354   1.063   2.197 -0.0214 -0.0629 -0.4670
  221SOL    HW1  662   1.308   1.106   2.112 -1.2552 -0.2725  2.2538
  221SOL    HW2  663   1.455   1.038   2.182  0.2422 -1.0648 -1.0720
  222SOL     OW  664   1.228   0.027   1.181 -0.2160  0.2706 -0.5956
  222SOL    HW1  665   1.278   0.004   1.269  0.8252  1.4554 -0.5743
  222SOL    HW2  666   1.222   0.128   1.167 -1.2967 -1.1156 -0.6651
  223SOL     OW  667   2.825   0.861   2.057 -0.4704 -0.0640  0.4758
  223SOL    HW1  668   2.859   0.886   2.153 -1.3437  1.6185  2.0237
  223SOL    HW2  669   2.861   0.923   1.979 -0.6921  1.0288 -1.7178
  224SOL     OW  670   1.502   0.971   2.736  0.5115  0.7166 -0.3332
  224SOL    HW1  671   1.551   0.923   2.662 -0.8880  0.4279  2.1844
  224SOL    HW2  672   1.474   1.070   2.724 -0.7507 -0.1635  1.9201
  225SOL     OW  673   2.962   2.781   2.887  0.0258 -0.0155 -0.5384
  225SOL    HW1  674   2.951   2.700   2.823 -1.1390 -1.0737  0.4657
  225SOL    HW2  675   3.015   2.858   2.853 -0.8476  0.7719 -0.0358
  226SOL     OW  676   2.415   1.578   2.829  0.1263 -0.1750 -0.4723
  226SOL    HW1  677   2.472   1.558   2.745 -1.1232 -0.9648 -0.7736
  226SOL    HW2  678   2.362   1.495   2.868  0.8946 -2.6656  3.1014
  227SOL     OW  679   0.861   0.144   3.046 -1.1356 -0.0399 -0.2038
  227SOL    HW1  680   0.887   0.053   3.076  0.9941  3.5321  0.5584
  227SOL    HW2  681   0.843   0.153   2.947 -0.5942 -1.9558  2.2637
  228SOL     OW  682   2.388   0.627   2.843  0.3519  0.1654  0.0116
  228SOL    HW1  683   2.348   0.659   2.755 -0.1577 -2.5197  1.9968
  228SOL    HW2  684   2.476   0.573   2.834  0.0561 -3.1026  1.5275
  229SOL     OW  685   0.580   0.518   1.896  0.3925 -0.5475 -0.2838
  229SOL    HW1  686   0.607   0.504   1.799  4.8447  2.1674  3.4467
  229SOL    HW2  687   0.661   0.570   1.931 -3.4927  0.1550  1.1017
  230SOL     OW  688   1.921   1.193   2.164  0.1263 -0.1961 -0.1024
  230SOL    HW1  689   1.976   1.228   2.087 -2.3971  0.9229  2.0112
  230SOL    HW2  690   1.825   1.217   2.153  0.8147  1.5878 -2.9716
  231SOL     OW  691   0.660   0.992   2.962  0.1630  0.1684 -0.6611
  231SOL    HW1  692   0.752   1.043   2.949  1.2614 -2.8860 -0.5346
  231SOL    HW2  693   0.611   1.005   3.051  1.5380 -0.8075 -2.7112
  232SOL     OW  694   2.441   0.028   2.751 -0.1652  0.1465  0.4768
  232SOL    HW1  695   2.509  -0.027   2.807  1.2364 -2.8273  0.4899
  232SOL    HW2  696   2.479   0.092   2.679 -0.6193  0.3146  1.3420
  233SOL     OW  697   1.701   1.303   1.121  0.0337  0.1815  0.5334
  233SOL    HW1  698   1.748   1.347   1.041  0.7602 -0.2491  2.6437
  233SOL    HW2  699   1.716   1.202   1.120 -0.4706 -2.6351  1.7627
  234SOL     OW  700   1.607   2.580   1.842 -0.3380  0.2540  0.6464
  234SOL    HW1  701   1.599   2.621   1.937 -1.0024  0.8089 -1.2551
  234SOL    HW2  702   1.539   2.499   1.834  1.4234 -1.0973  0.4043
  235SOL     OW  703   0.020   3.016   2.897 -0.0106 -0.1606 -0.3932
  235SOL    HW1  704   0.114   3.065   2.887  2.6934 -3.7288 -1.1524
  235SOL    HW2  705  -0.038   3.052   2.977 -0.3137 -0.3276  0.1827
  236SOL     OW  706   2.881   0.705   0.140 -0.1411  0.6654 -0.3127
  236SOL    HW1  707   2.958   0.768   0.159 -1.4886 -3.0425  0.4743
  236SOL    HW2  708   2.900   0.630   0.073 -3.6775  1.5374  1.1322
  237SOL     OW  709   1.440   1.673   1.048 -0.0242  0.7369  0.3616
  237SOL    HW1  710   1.542   1.650   1.022  2.3959 -1.4325 -0.9654
  237SOL    HW2  711   1.432   1.730   1.132 -1.8634  3.0961 -2.5508
  238SOL     OW  712   1.782   1.281   0.824  0.2674 -0.2282  0.1514
  238SOL    HW1  713   1.881   1.297   0.788  2.3030  0.6793 -2.1451
  238SOL    HW2  714   1.703   1.334   0.780  0.2900 -2.0440 -2.1199
  239SOL     OW  715   2.037   0.255   2.721 -0.7038 -0.3395 -0.3260
  239SOL    HW1  716   2.110   0.226   2.789  0.4576 -1.2093  0.2186
  239SOL    HW2  717   1.956   0.306   2.762 -2.2422  1.1767  1.0860
  240SOL     OW  718   0.985   0.657   0.296  0.2534 -0.6732  0.7419
  240SOL    HW1  719   0.958   0.561   0.262 -1.9784  2.8603  2.0789
  240SOL    HW2  720   0.954   0.657   0.395  0.5220 -2.1184  0.7957
  241SOL     OW  721   0.588   0.107   0.320  0.3381 -0.1474 -0.1019
  241SOL    HW1  722   0.624   0.163   0.240  1.3221  3.2556 -3.1794
  241SOL    HW2  723   0.574   0.008   0.293  0.9734  1.0088  3.1245
  242SOL     OW  724   0.681   2.477   1.124  0.5247 -0.3522 -0.3640
  242SOL    HW1  725   0.649   2.519   1.217 -0.0460 -0.3516 -0.6994
  242SOL    HW2  726   0.772   2.513   1.097 -1.9374 -0.5844  2.0478
  243SOL     OW  727   1.109   0.620   2.439  0.1221 -0.3699  0.2107
  243SOL    HW1  728   1.042   0.695   2.415  0.1482  1.0141  1.2296
  243SOL    HW2  729   1.067   0.537   2.474  2.3293  2.0504  0.3698
  244SOL     OW  730   2.786   1.848   2.366 -0.5329 -0.0102 -0.8556
  244SOL    HW1  731   2.825   1.824   2.275 -1.9255 -0.8766  0.0526
  244SOL    HW2  732   2.708   1.780   2.393 -2.4319 -0.7221 -0.8340
  245SOL     OW  733   2.494   0.681   2.178 -0.4721  0.0594  0.0242
  245SOL    HW1  734   2.519   0.767   2.233 -1.7657  0.0066 -2.5696
  245SOL    HW2  735   2.531   0.594   2.214 -2.4744 -2.0734 -0.1262
  246SOL     OW  736   0.244   2.936   1.688 -0.5980 -0.2906 -0.4959
  246SOL    HW1  737   0.211   2.910   1.593 -1.2567  0.0722 -0.1899
  246SOL    HW2  738   0.326   3.002   1.686 -0.4384 -2.6007 -1.5207
  247SOL     OW  739   2.183   0.553   3.053 -0.8696  0.3613  0.1974
  247SOL    HW1  740   2.255   0.525   2.977 -0.0009 -2.2228  0.4743
  247SOL    HW2  741   2.134   0.641   3.034 -2.3192 -3.8221 -1.3867
  248SOL     OW  742   2.132   1.802   1.582 -0.1801 -0.3407 -0.0213
  248SOL    HW1  743   2.177   1.742   1.654 -2.0354 -1.0907 -0.4027
  248SOL    HW2  744   2.028   1.802   1.598  0.9436 -0.7472  0.8464
  249SOL     OW  745   1.952   1.931   1.929  0.1164 -0.7056 -0.0867
  249SOL    HW1  746   1.936   1.894   1.830 -1.2334 -0.7987 -0.1854
  249SOL    HW2  747   2.042   1.981   1.944 -1.9418 -0.5826 -1.8662
  250SOL     OW  748   1.120   0.742   1.871  0.2355  0.4480  0.5058
  250SOL    HW1  749   1.145   0.666   1.939  1.4769 -1.7454 -0.2366
  250SOL    HW2  750   1.160   0.722   1.778  1.8800 -1.5523 -0.2170
  251SOL     OW  751   3.040   1.563   2.545  0.0550  0.2276 -0.1099
  251SOL    HW1  752   3.036   1.659   2.509  1.0309 -2.8452 -0.4813
  251SOL    HW2  753   2.949   1.513   2.548  1.4039  0.8503 -0.9375
  252SOL     OW  754   1.544   0.890   1.514  0.3003  0.3645  0.4375
  252SOL    HW1  755   1.570   0.914   1.414  1.2245  0.0367  1.8008
  252SOL    HW2  756   1.522   0.966   1.576  1.3170 -3.3395  0.4111
  253SOL     OW  757   0.892   1.542   0.392 -0.1739 -0.6558  0.0100
  253SOL    HW1  758   0.957   1.466   0.382 -1.8866  3.2088  0.5203
  253SOL    HW2  759   0.793   1.528   0.351 -1.9562  0.7434 -1.3417
  254SOL     OW  760   2.071   2.131   1.567 -0.5001 -0.7547 -0.4780
  254SOL    HW1  761   2.017   2.091   1.488  1.4072  0.2373 -3.0616
  254SOL    HW2  762   2.021   2.141   1.656  0.9813 -1.4889 -1.5127
  255SOL     OW  763   0.093   1.169   2.929 -0.3207  0.1401 -0.0978
  255SOL    HW1  764   0.146   1.259   2.903  0.7426  1.0181 -0.6741
  255SOL    HW2  765   0.154   1.088   2.950 -0.2978 -0.0479  1.7274
  256SOL     OW  766   2.809   1.355   1.824  0.1572  0.1349  0.0164
  256SOL    HW1  767   2.754   1.421   1.880 -0.9006 -1.2814 -1.6970
  256SOL    HW2  768   2.764   1.263   1.822  1.6586 -0.5350 -0.4994
  257SOL     OW  769   0.885   0.126   1.811 -0.4078 -0.3192 -0.1886
  257SOL    HW1  770   0.935   0.204   1.775 -2.5218  0.5988 -1.6363
  257SOL    HW2  771   0.917   0.033   1.779 -0.1147  1.3442 -1.4029
  258SOL     OW  772   2.948   1.288   0.414 -0.3352  0.2731 -0.2188
  258SOL    HW1  773   2.920   1.383   0.394  0.2540  1.1875 -1.2383
  258SOL    HW2  774   2.959   1.276   0.519 -1.3649  3.4997  1.3682
  259SOL     OW  775   0.486   2.931   3.009  0.5688  0.0117  0.2546
  259SOL    HW1  776   0.423   2.875   3.067  2.6219 -1.7496 -2.0566
  259SOL    HW2  777   0.534   2.870   2.935 -0.1310  1.4791 -1.6038
  260SOL     OW  778   2.727   0.831   2.711  0.4639 -0.5733 -0.4024
  260SOL    HW1  779   2.632   0.821   2.669  1.1816 -0.6002 -0.3139
  260SOL    HW2  780   2.715   0.836   2.814 -1.1678  1.7411 -2.0988
  261SOL     OW  781   2.726   1.378   1.349 -0.1077  0.0649  0.5597
  261SOL    HW1  782   2.673   1.322   1.281 -1.2702  0.8803 -0.6211
  261SOL    HW2  783   2.812   1.325   1.381  3.0057  0.2923  1.9277
  262SOL     OW  784   1.446   2.951   1.992  0.0221  0.1786 -0.1505
  262SOL    HW1  785   1.438   3.036   1.933 -1.5075  1.5524  0.5249
  262SOL    HW2  786   1.356   2.900   2.001  0.9642  1.4813 -0.7145
  263SOL     OW  787   0.882   0.731   2.363  0.1544 -0.1667 -0.4477
  263SOL    HW1  788   0.829   0.649   2.332  1.1823  1.3765  3.2220
  263SOL    HW2  789   0.908   0.787   2.281 -0.1930 -0.9028  1.0874
  264SOL     OW  790   2.229   0.764   0.357 -0.0607  0.8582 -0.4708
  264SOL    HW1  791   2.133   0.763   0.402 -2.7092  0.5610 -2.7532
  264SOL    HW2  792   2.293   0.829   0.413  4.3698  0.3794 -2.3304
  265SOL     OW  793   0.914   2.279   2.621  0.2476 -0.3647 -0.3423
  265SOL    HW1  794   0.970   2.322   2.703  0.3712  1.5289  1.4568
  265SOL    HW2  795   0.872   2.189   2.649 -1.1090  1.8100 -1.0116
  266SOL     OW  796   1.330   1.757   0.008  0.3750  0.1550 -0.4642
  266SOL    HW1  797   1.338   1.844   0.067 -0.4031 -1.3182 -1.1832
  266SOL    HW2  798   1.426   1.726  -0.026 -0.8495 -1.5182 -1.6044
  267SOL     OW  799   1.017   3.068   2.374 -0.1947  0.0424 -0.1781
  267SOL    HW1  800   1.031   3.038   2.275 -3.5741  1.6530  0.3300
  267SOL    HW2  801   1.000   3.169   2.386 -1.8511  0.0606  1.5124
  268SOL     OW  802   0.641   1.136   1.070 -0.3659 -0.2332  0.0611
  268SOL    HW1  803   0.640   1.194   1.157 -1.3267  1.4730 -0.1243
  268SOL    HW2  804   0.660   1.195   0.990 -0.5715  0.5073  0.1364
  269SOL     OW  805   2.455   2.454   1.552  0.2994 -0.0404 -0.1950
  269SOL    HW1  806   2.554   2.418   1.566 -0.4467  0.3705  2.1175
  269SOL    HW2  807   2.409   2.481   1.641  1.6237 -2.0326 -0.2082
  270SOL     OW  808   0.132   3.076   1.889 -0.1292  0.5805 -0.1647
  270SOL    HW1  809   0.184   3.029   1.811  2.1368  2.1567  0.6235
  270SOL    HW2  810   0.068   3.010   1.936 -0.4083 -0.5777 -0.3660
  271SOL     OW  811   0.452   1.437   1.144 -0.5715 -0.1372  0.3047
  271SOL    HW1  812   0.407   1.412   1.051 -3.3725 -0.7657  0.2427
  271SOL    HW2  813   0.379   1.440   1.224 -1.7167 -0.8774  0.6855
  272SOL     OW  814   1.966   2.868   1.927 -0.4134 -0.7987 -0.5312
  272SOL    HW1  815   1.917   2.816   1.845 -1.7041 -1.0709 -0.5931
  272SOL    HW2  816   2.030   2.940   1.891  1.0165 -0.8113  4.1159
  273SOL     OW  817   1.379   1.444   2.845  0.3081  0.3214 -0.0990
  273SOL    HW1  818   1.298   1.487   2.798 -2.2705  0.3948  1.3542
  273SOL    HW2  819   1.378   1.452   2.947  1.0325 -1.9123  2.3240
  274SOL     OW  820   1.177   0.531   2.034  0.3212  0.0606 -0.5058
  274SOL    HW1  821   1.181   0.436   2.001  0.2205  2.4101  2.2621
  274SOL    HW2  822   1.239   0.548   2.120  0.9135 -0.7236 -0.6429
  275SOL     OW  823   0.618   2.082   1.912  0.5316  0.1602 -0.6505
  275SOL    HW1  824   0.573   2.175   1.935 -2.0601  0.2618  0.1676
  275SOL    HW2  825   0.552   1.995   1.908  0.2283  0.1743  2.1330
  276SOL     OW  826   2.175   0.910   2.815 -0.4913  0.3617  0.9482
  276SOL    HW1  827   2.120   0.880   2.728  0.3156 -0.9655 -2.5251
  276SOL    HW2  828   2.140   0.860   2.897  1.6454  0.9925  0.7044
  277SOL     OW  829   3.063   0.880   0.230  0.0857  0.0872  0.2757
  277SOL    HW1  830   3.160   0.920   0.223  1.9439  0.2366  0.9693
  277SOL    HW2  831   3.049   0.810   0.307  0.5041 -0.1318  0.7236
  278SOL     OW  832   0.235   0.285   3.028  0.1859  0.1512  0.6463
  278SOL    HW1  833   0.317   0.220   3.058 -0.9579  1.0300  1.3326
  278SOL    HW2  834   0.263   0.383   3.038 -3.1109 -1.9214  0.7226
  279SOL     OW  835   0.113   0.066   0.882 -0.2519  0.0668 -0.4954
  279SOL    HW1  836   0.114   0.030   0.979  0.3168 -0.3942 -1.2668
  279SOL    HW2  837   0.208   0.073   0.841 -0.8630 -2.9407  0.9443
  280SOL     OW  838   1.625   2.881   2.569 -0.2868 -0.0537 -0.0471
  280SOL    HW1  839   1.714   2.932   2.565 -1.2992 -3.9675 -1.4257
  280SOL    HW2  840   1.549   2.944   2.541  1.5595  0.6514  0.5195
  281SOL     OW  841   0.564   0.971   2.290 -0.0651  0.1131 -0.2909
  281SOL    HW1  842   0.582   0.876   2.253  0.4112 -0.5177 -1.4432
  281SOL    HW2  843   0.506   0.969   2.375 -1.0024 -0.6733  1.1701
  282SOL     OW  844   1.715   2.385   0.511  0.9706  0.1287 -0.0041
  282SOL    HW1  845   1.659   2.331   0.441  1.9251  1.1488  0.1092
  282SOL    HW2  846   1.702   2.488   0.482  0.0151  0.1125 -0.0695
  283SOL     OW  847   1.155   0.940   0.826 -0.6368 -0.2348  0.0580
  283SOL    HW1  848   1.194   0.870   0.894  0.4634  1.8490 -0.8794
  283SOL    HW2  849   1.085   1.001   0.867  0.5676 -3.6398 -0.0207
  284SOL     OW  850   2.352   2.779   2.308 -0.2563 -0.4670  0.2451
  284SOL    HW1  851   2.413   2.834   2.238 -0.4298  0.6336 -0.4704
  284SOL    HW2  852   2.325   2.836   2.385 -0.1341  0.7161 -2.8960
  285SOL     OW  853   1.393   3.021   2.517 -0.1974  1.1076 -0.0812
  285SOL    HW1  854   1.390   3.018   2.408 -0.0886  0.4820  0.9466
  285SOL    HW2  855   1.307   3.051   2.562 -0.6615 -0.3527  0.5577
  286SOL     OW  856   0.443   0.422   0.730  0.1910  0.2917  0.1447
  286SOL    HW1  857   0.406   0.372   0.817 -0.7384 -1.1967  1.6794
  286SOL    HW2  858   0.462   0.358   0.647  0.4943 -2.7935  0.6164
  287SOL     OW  859   0.150   1.305   2.544 -0.0148  0.6093 -0.0368
  287SOL    HW1  860   0.100   1.239   2.613 -0.4521 -1.0990  0.7425
  287SOL    HW2  861   0.088   1.377   2.510  1.5036 -1.3922 -1.7647
  288SOL     OW  862   1.538   2.646   1.571  0.1533  0.1781 -0.1579
  288SOL    HW1  863   1.608   2.614   1.637 -2.3373  1.2741  1.7945
  288SOL    HW2  864   1.569   2.646   1.468  0.1725 -1.9659  1.8373
  289SOL     OW  865   0.664   2.695   0.809 -0.7117  0.1216 -0.0593
  289SOL    HW1  866   0.707   2.769   0.753  0.7934  0.1021  0.4577
  289SOL    HW2  867   0.665   2.715   0.914  1.5346  0.0847  0.3158
  290SOL     OW  868   2.835   1.083   1.658 -0.3506 -0.2400  1.1330
  290SOL    HW1  869   2.781   0.995   1.642  1.3533  1.3973 -2.4513
  290SOL    HW2  870   2.899   1.077   1.741  0.6055 -0.8143  0.3272
  291SOL     OW  871   1.944   0.064   0.057 -0.1224  0.2407 -0.0078
  291SOL    HW1  872   1.970   0.047   0.158 -2.2704  2.0717 -1.1465
  291SOL    HW2  873   1.999   0.134   0.004  0.0653  0.6868  1.8627
  292SOL     OW  874   2.965   1.200   3.067 -0.1463  0.8040  0.8235
  292SOL    HW1  875   2.892   1.256   3.021 -1.2708 -1.7130 -0.8785
  292SOL    HW2  876   3.052   1.201   3.012  0.9983  3.8353 -2.2554
  293SOL     OW  877   0.579   2.107   0.157  0.1045 -0.4749  0.2751
  293SOL    HW1  878   0.544   2.151   0.246  0.8123 -0.9066 -3.1264
  293SOL    HW2  879   0.684   2.098   0.153  1.6112 -3.4787 -0.4135
  294SOL     OW  880   1.708   2.227   1.764  0.5360 -0.4742 -0.1719
  294SOL    HW1  881   1.687   2.273   1.853  0.0266  0.7036 -0.7133
  294SOL    HW2  882   1.707   2.287   1.682 -1.3032  0.3348  3.6879
  295SOL     OW  883   1.036   1.010   0.487  0.7759  0.0723  0.5039
  295SOL    HW1  884   1.113   0.997   0.551 -0.7714 -0.6575  0.5412
  295SOL    HW2  885   0.945   1.026   0.548 -1.1245 -1.5870  2.3198
  296SOL     OW  886   1.284   2.075   2.503  0.0281 -0.1274 -0.1380
  296SOL    HW1  887   1.280   2.112   2.402 -0.9348  1.7978 -4.3424
  296SOL    HW2  888   1.280   1.971   2.506 -2.4183  0.3683 -0.2846
  297SOL     OW  889   1.465   0.595   1.399 -0.1656 -0.1199  0.2809
  297SOL    HW1  890   1.429   0.497   1.403 -0.2424 -0.1324 -1.3157
  297SOL    HW2  891   1.570   0.606   1.403 -0.9656 -0.4276 -0.7399
  298SOL     OW  892   0.504   1.304   2.939  0.0566  1.1315  0.4858
  298SOL    HW1  893   0.512   1.231   3.010 -0.4699  2.2482 -0.4435
  298SOL    HW2  894   0.563   1.299   2.852  2.3819 -0.8823  0.8593
  299SOL     OW  895   0.478   0.276   1.389  0.2841  0.6855 -1.0963
  299SOL    HW1  896   0.491   0.365   1.347 -0.3274  1.7013 -0.4568
  299SOL    HW2  897   0.542   0.251   1.467 -1.3583 -2.8260  2.3897
  300SOL     OW  898   1.193   1.806   2.878  0.1403 -0.2677 -0.5150
  300SOL    HW1  899   1.144   1.719   2.837 -2.9237 -0.7508  1.3509
  300SOL    HW2  900   1.235   1.780   2.972 -0.3008 -0.2517 -2.8226
  301SOL     OW  901   0.474   0.273   0.507  0.6527  0.2627  0.4729
  301SOL    HW1  902   0.372   0.265   0.485 -1.1456 -2.1342  0.2457
  301SOL    HW2  903   0.523   0.213   0.435 -2.1808 -1.8068 -1.0276
  302SOL     OW  904   1.205   2.374   2.256 -0.5104  0.6251  0.6310
  302SOL    HW1  905   1.118   2.412   2.301  2.4667 -1.0103 -1.2043
  302SOL    HW2  906   1.207   2.270   2.256 -0.1553 -2.3382 -1.5321
  303SOL     OW  907   0.964   2.327   0.799  0.5604  0.2762  0.0270
  303SOL    HW1  908   1.021   2.376   0.729  0.7319 -0.0350  0.0645
  303SOL    HW2  909   0.954   2.381   0.885  1.0089 -2.7473  0.2850
  304SOL     OW  910   0.164   2.052   0.635 -0.2296 -0.0516 -0.0859
  304SOL    HW1  911   0.165   1.993   0.548  1.2498 -2.9512 -0.2928
  304SOL    HW2  912   0.076   2.113   0.644 -0.5561  0.0664  1.9564
  305SOL     OW  913   1.583   0.906   0.595  0.0972  0.1439  0.0558
  305SOL    HW1  914   1.525   0.888   0.512  2.8793  3.0004  1.6946
  305SOL    HW2  915   1.652   0.827   0.608  0.8606  0.7758  0.1090
  306SOL     OW  916   0.460   1.838   1.886 -0.0465 -0.4284  0.5684
  306SOL    HW1  917   0.545   1.780   1.880 -0.7554  1.5064 -0.0012
  306SOL    HW2  918   0.423   1.827   1.983  2.8770 -1.1605 -1.8734
  307SOL     OW  919   3.090   0.857   2.576 -0.8800  0.4295 -0.3548
  307SOL    HW1  920   3.116   0.956   2.584  0.1384  0.2929 -4.3190
  307SOL    HW2  921   3.034   0.819   2.655 -0.1076 -1.4817 -1.6559
  308SOL     OW  922   1.526   2.705   2.848 -0.3065  0.4299  0.4730
  308SOL    HW1  923   1.520   2.634   2.765  1.6854  0.0785 -3.0223
  308SOL    HW2  924   1.510   2.659   2.938 -0.7076 -1.7027 -0.2414
  309SOL     OW  925   1.212   0.067   1.785  0.0065  0.1854  0.0060
  309SOL    HW1  926   1.315   0.072   1.810  2.6011 -0.0275  1.8653
  309SOL    HW2  927   1.195   0.069   1.682 -1.3288  0.6718 -0.6427
  310SOL     OW  928   1.513   2.542   0.680 -0.2886 -0.0562 -0.1235
  310SOL    HW1  929   1.488   2.599   0.766 -3.0601 -1.4073  0.7961
  310SOL    HW2  930   1.576   2.592   0.611  0.8380  1.8425  0.7090
  311SOL     OW  931   1.202   0.902   1.598  0.2482  0.7693 -0.0989
  311SOL    HW1  932   1.282   0.835   1.624 -0.4473 -1.1689  1.0744
  311SOL    HW2  933   1.226   0.965   1.522 -0.9621 -2.2096  0.7431
  312SOL     OW  934   1.646   0.672   1.002 -0.7478 -0.3113 -0.4527
  312SOL    HW1  935   1.613   0.759   0.950 -0.4594 -0.0455 -3.0679
  312SOL    HW2  936   1.588   0.588   0.979 -1.3398 -1.2906  0.7459
  313SOL     OW  937   1.556   1.414   0.677  0.5323 -0.2390  0.3765
  313SOL    HW1  938   1.489   1.421   0.756 -0.1867 -0.1052  0.1439
  313SOL    HW2  939   1.532   1.338   0.610  2.7799  2.4384  1.0395
  314SOL     OW  940   2.997   0.031   0.045  0.2453  0.2857 -0.9288
  314SOL    HW1  941   2.988   0.113   0.111 -0.3662  2.2039  0.9833
  314SOL    HW2  942   2.931  -0.043   0.067 -1.6220  1.9257 -0.1477
  315SOL     OW  943   1.213   0.206   2.812  0.0215  0.0323  0.0077
  315SOL    HW1  944   1.207   0.115   2.754 -2.6443 -2.3349  0.6982
  315SOL    HW2  945   1.252   0.186   2.903  2.2144  1.1862 -1.9111
  316SOL     OW  946   1.695   2.096   0.927  0.5811 -0.3296  0.1804
  316SOL    HW1  947   1.630   2.090   1.009  0.2922  0.1325  0.2456
  316SOL    HW2  948   1.688   2.183   0.876  2.1982 -1.4415 -1.5851
  317SOL     OW  949   1.106   0.712   2.857 -0.1712 -0.0208 -0.0159
  317SOL    HW1  950   1.043   0.750   2.929  2.3540 -0.0467  1.9779
  317SOL    HW2  951   1.093   0.609   2.834  2.2745 -3.6084  1.4905
  318SOL     OW  952   1.344   3.027   2.256 -0.4474  0.6682 -0.3708
  318SOL    HW1  953   1.322   3.125   2.265  0.4099 -2.0149 -0.2145
  318SOL    HW2  954   1.395   3.006   2.173 -4.0652  1.5521  3.1178
  319SOL     OW  955   0.640   2.438   2.928 -0.0048  0.6979  0.1509
  319SOL    HW1  956   0.583   2.383   2.992  1.1531  0.2050 -1.5365
  319SOL    HW2  957   0.732   2.396   2.908  0.1819 -0.5126 -0.1582
  320SOL     OW  958   1.648   2.167   0.308  0.8035  0.1316  0.1291
  320SOL    HW1  959   1.738   2.116   0.315 -2.5878  2.3241 -2.0830
  320SOL    HW2  960   1.569   2.117   0.353  0.6714 -2.2490 -1.6228
  321SOL     OW  961   1.676   2.662   0.481  0.0587  0.1484  0.0457
  321SOL    HW1  962   1.590   2.715   0.455 -2.1999 -1.2300  1.4427
  321SOL    HW2  963   1.766   2.716   0.478  1.9488 -0.2105 -3.1150
  322SOL     OW  964   2.541   1.135   2.301 -0.6574  0.1267  0.1960
  322SOL    HW1  965   2.632   1.158   2.351  1.5265 -0.5284 -2.5746
  322SOL    HW2  966   2.512   1.034   2.313 -0.7765 -0.7026  0.2894
  323SOL     OW  967   1.035   2.646   0.824  0.6784 -0.0518  0.3451
  323SOL    HW1  968   1.051   2.634   0.726  0.2400 -0.5786  0.1620
  323SOL    HW2  969   1.068   2.740   0.859  4.4777 -1.3945  1.0303
  324SOL     OW  970   0.242   2.515   2.511 -0.1647  0.8712 -0.1233
  324SOL    HW1  971   0.192   2.447   2.572  3.4737 -1.9391  1.6083
  324SOL    HW2  972   0.194   2.604   2.520 -0.2052  0.3710  2.0074
  325SOL     OW  973   1.262   3.030   0.449 -0.3125  0.1667  0.2587
  325SOL    HW1  974   1.293   3.081   0.362  0.7496 -0.8172 -0.0804
  325SOL    HW2  975   1.268   3.097   0.530 -0.5844  0.5316  0.6344
  326SOL     OW  976   2.450   0.762   3.093 -0.5285  0.4694  0.0231
  326SOL    HW1  977   2.434   0.720   3.000  1.9297 -0.5274  0.7239
  326SOL    HW2  978   2.509   0.699   3.153 -0.4657 -0.1528  0.8920
  327SOL     OW  979   2.860   0.336   0.528 -0.2464 -0.4562  0.4376
  327SOL    HW1  980   2.818   0.344   0.432 -2.1597  2.0679  2.4011
  327SOL    HW2  981   2.798   0.303   0.599  0.2115  0.6628  1.0206
  328SOL     OW  982   2.508   0.629   0.396 -0.4686 -0.4652  0.2224
  328SOL    HW1  983   2.490   0.734   0.413  4.7135  1.6627  0.1205
  328SOL    HW2  984   2.549   0.573   0.476  4.5038 -1.2977 -0.1117
  329SOL     OW  985   2.985   2.999   2.150  0.1314  0.4030 -0.4163
  329SOL    HW1  986   3.001   2.930   2.225 -1.3411  1.4547  1.1637
  329SOL    HW2  987   3.025   3.092   2.171 -1.9584  1.1111 -1.5793
  330SOL     OW  988   0.566   0.159   1.863  0.0064 -0.6196 -0.5088
  330SOL    HW1  989   0.658   0.200   1.845  0.6938 -0.6161 -1.2308
  330SOL    HW2  990   0.565   0.109   1.953  3.6548 -0.3130 -0.4491
  331SOL     OW  991   2.967   1.939   1.114  0.2199  0.1618  0.2586
  331SOL    HW1  992   3.028   2.014   1.074  0.2370  0.1295 -1.9416
  331SOL    HW2  993   2.909   1.972   1.192 -0.4308 -1.5560  0.2001
  332SOL     OW  994   0.435   1.134   0.067  0.1810 -0.0479 -0.3300
  332SOL    HW1  995   0.369   1.077   0.012 -0.1616  0.7668 -0.0137
  332SOL    HW2  996   0.387   1.182   0.145  1.4298  5.1010 -2.7200
  333SOL     OW  997   2.861   1.061   0.310  0.0624 -0.1063  0.0432
  333SOL    HW1  998   2.906   1.139   0.358  0.1278 -1.6362 -2.1798
  333SOL    HW2  999   2.929   0.992   0.268 -0.9510 -1.2765  0.6269
  334SOL     OW 1000   1.690   1.200   1.854 -0.0524  0.8576 -0.4489
  334SOL    HW1 1001   1.776   1.147   1.832  0.1945 -0.3185 -0.7603
  334SOL    HW2 1002   1.699   1.273   1.926 -1.2598  0.1548 -2.6017
  335SOL     OW 1003   1.978   2.733   2.618 -0.3437  0.0418  0.0577
  335SOL    HW1 1004   1.898   2.683   2.669 -2.1051 -0.8621  0.1971
  335SOL    HW2 1005   2.033   2.799   2.681 -0.5178  2.1131  2.2628
  336SOL     OW 1006   0.243   0.079   2.847 -0.1623  0.1155  0.3307
  336SOL    HW1 1007   0.337   0.062   2.802  0.5371  0.8824 -1.2805
  336SOL    HW2 1008   0.239   0.169   2.906  0.1249 -1.3668  1.2455
  337SOL     OW 1009   0.922   2.809   2.806 -0.1542 -0.2892 -0.0288
  337SOL    HW1 1010   0.919   2.760   2.899  0.4690 -0.1339 -1.5432
  337SOL    HW2 1011   1.010   2.786   2.757 -2.8064  2.4537 -0.8417
  338SOL     OW 1012   0.045   1.035   0.684 -0.8007  0.2057 -0.0992
  338SOL    HW1 1013  -0.053   1.000   0.687 -3.4113  0.1121  0.8639
  338SOL    HW2 1014   0.054   1.141   0.688  2.5431  3.5595 -0.2899
  339SOL     OW 1015   1.707   1.360   2.091 -0.0627 -0.0982  0.2123
  339SOL    HW1 1016   1.606   1.374   2.108 -1.6975  2.4965 -0.2007
  339SOL    HW2 1017   1.760   1.451   2.090 -0.2097  1.1748  1.9739
  340SOL     OW 1018   2.359   0.720   1.209  0.1675 -0.1502 -0.7006
  340SOL    HW1 1019   2.256   0.733   1.187 -2.0085  2.2619  0.1810
  340SOL    HW2 1020   2.407   0.641   1.159  1.0271 -0.0627  1.0196
  341SOL     OW 1021   1.936   2.133   0.351 -0.1721 -1.1185 -0.6454
  341SOL    HW1 1022   1.952   2.185   0.263 -1.6921  0.3159 -0.6161
  341SOL    HW2 1023   2.025   2.112   0.404  2.3118 -1.0291  1.6627
  342SOL     OW 1024   2.196   2.090   2.746  0.0915  0.0558 -0.1547
  342SOL    HW1 1025   2.246   2.001   2.766 -1.4035 -1.7425 -0.0911
  342SOL    HW2 1026   2.093   2.076   2.757  1.4645  1.3293 -1.8291
  343SOL     OW 1027   0.378   0.792   2.750  0.1231  0.6033  0.0448
  343SOL    HW1 1028   0.368   0.862   2.669 -0.9279 -0.7479 -1.4178
  343SOL    HW2 1029   0.478   0.777   2.776  2.6006 -2.6742  2.6568
  344SOL     OW 1030   1.951   1.392   0.456  0.1406 -0.1534 -0.0872
  344SOL    HW1 1031   1.954   1.324   0.375  0.7740  2.5533 -0.6654
  344SOL    HW2 1032   1.853   1.428   0.474 -0.4555 -1.4838 -2.7010
  345SOL     OW 1033   1.363   2.265   2.892  0.2147  0.3874  0.0547
  345SOL    HW1 1034   1.285   2.209   2.857 -0.0888 -0.8929 -0.8414
  345SOL    HW2 1035   1.451   2.251   2.841  0.3482  0.1605 -0.8538
  346SOL     OW 1036   2.323   0.899   1.426  0.4344  0.0874 -0.0760
  346SOL    HW1 1037   2.294   0.995   1.407  1.4899 -1.1769 -0.2908
  346SOL    HW2 1038   2.330   0.838   1.343 -0.5821  0.9504 -2.2206
  347SOL     OW 1039   0.713   2.775   1.469 -0.0222 -0.3410 -0.2802
  347SOL    HW1 1040   0.692   2.728   1.563 -1.2946  1.1836  0.8193
  347SOL    HW2 1041   0.663   2.866   1.462  0.8025  1.0142  1.2170
  348SOL     OW 1042   0.153   0.676   2.817  0.2709 -0.2144  0.0763
  348SOL    HW1 1043   0.097   0.764   2.830 -1.7154  1.6053 -2.3498
  348SOL    HW2 1044   0.240   0.690   2.767  2.1925  2.2993 -0.0250
  349SOL     OW 1045   1.802   0.412   2.814  0.0277  0.2060 -0.2724
  349SOL    HW1 1046   1.781   0.502   2.767 -0.2263 -1.6667  1.1779
  349SOL    HW2 1047   1.798   0.431   2.919 -0.4894 -1.0310  0.7496
  350SOL     OW 1048   1.545   0.445   0.362 -0.4954  0.1375  0.2625
  350SOL    HW1 1049   1.606   0.454   0.443 -0.5481  0.7613 -1.9956
  350SOL    HW2 1050   1.542   0.524   0.295 -1.5744  2.9086  3.4808
  351SOL     OW 1051   0.949   0.848   2.097 -0.0932 -0.1984  0.0536
  351SOL    HW1 1052   0.946   0.951   2.099  0.8122  1.3839  2.0788
  351SOL    HW2 1053   0.992   0.802   2.015 -0.6432 -3.2831  2.4046
  352SOL     OW 1054   2.027   1.289   0.682 -0.0193 -0.2095  0.1096
  352SOL    HW1 1055   2.003   1.342   0.596 -0.7217 -0.2817  0.8529
  352SOL    HW2 1056   2.105   1.326   0.735 -4.2489 -1.1711 -1.8469
  353SOL     OW 1057   2.159   2.916   1.085  0.8592  0.1577 -0.2675
  353SOL    HW1 1058   2.251   2.862   1.094  2.8619  0.7893  0.3845
  353SOL    HW2 1059   2.082   2.850   1.050  2.1054 -2.0887 -0.1991
  354SOL     OW 1060   0.245   1.402   2.890  0.1760 -0.2574 -0.3100
  354SOL    HW1 1061   0.229   1.475   2.819 -1.7197  0.8253 -2.2982
  354SOL    HW2 1062   0.329   1.344   2.881 -2.0196  0.5684 -0.6904
  355SOL     OW 1063   0.499   1.531   0.491 -0.5680  0.2896 -0.4953
  355SOL    HW1 1064   0.468   1.622   0.529  0.8320 -0.0599 -0.0515
  355SOL    HW2 1065   0.596   1.516   0.521 -1.7922  0.0469  0.8167
  356SOL     OW 1066   0.949   0.280   2.085 -0.4839 -0.0360 -0.3720
  356SOL    HW1 1067   1.038   0.322   2.059  0.3565 -2.1010 -2.5249
  356SOL    HW2 1068   0.910   0.229   2.006  3.7299 -0.0128  1.7728
  357SOL     OW 1069   1.013   1.288   0.391 -0.4244  0.0157  0.0337
  357SOL    HW1 1070   0.979   1.196   0.363 -1.2250 -1.2182  1.5715
  357SOL    HW2 1071   1.042   1.281   0.489 -1.0803  0.2249  0.4726
  358SOL     OW 1072   1.698   1.513   0.466  0.3374 -0.3938 -0.5325
  358SOL    HW1 1073   1.641   1.481   0.548  0.0058  0.3313 -1.0250
  358SOL    HW2 1074   1.660   1.484   0.372 -2.0634  1.8516  0.4084
  359SOL     OW 1075   1.591   2.747   0.060 -0.3199  0.5996 -0.2408
  359SOL    HW1 1076   1.508   2.690   0.092  0.0143 -2.2574  3.0804
  359SOL    HW2 1077   1.577   2.845   0.059 -0.2034 -2.2983  0.6503
  360SOL     OW 1078   0.880   0.612   0.534 -0.1831  0.3578 -0.3516
  360SOL    HW1 1079   0.795   0.634   0.587  0.5036 -0.9575  0.6496
  360SOL    HW2 1080   0.900   0.509   0.533  3.3466 -0.6198  2.3839
  361SOL     OW 1081   1.193   1.388   0.698 -0.1749 -0.5377 -0.2623
  361SOL    HW1 1082   1.221   1.417   0.794  2.1959  0.6691  1.0356
  361SOL    HW2 1083   1.091   1.406   0.669  0.7960 -2.8818  1.3185
  362SOL     OW 1084   1.341   1.781   0.783 -0.2874  0.4732  0.2501
  362SOL    HW1 1085   1.368   1.739   0.872 -0.6418  3.9279  0.1190
  362SOL    HW2 1086   1.423   1.818   0.729  1.4498  0.8195 -1.1529
  363SOL     OW 1087   1.198   1.267   2.030  0.2315  0.2845 -0.6705
  363SOL    HW1 1088   1.229   1.316   2.115 -1.7597 -3.7069  1.8036
  363SOL    HW2 1089   1.238   1.311   1.943  1.0920  1.5858  0.6756
  364SOL     OW 1090   0.522   2.348   1.922 -0.1635  0.1092 -0.0777
  364SOL    HW1 1091   0.426   2.384   1.943 -0.3273 -1.1966  1.2840
  364SOL    HW2 1092   0.558   2.387   1.836 -4.8625 -2.2265 -1.2447
  365SOL     OW 1093   1.024   1.871   1.392 -0.0115 -0.4692 -0.0388
  365SOL    HW1 1094   0.932   1.913   1.410  1.3665  0.9436 -0.4299
  365SOL    HW2 1095   1.021   1.793   1.326 -1.3088 -1.3725 -1.1847
  366SOL     OW 1096   2.812   2.069   0.494 -0.2010  0.1001 -0.1878
  366SOL    HW1 1097   2.708   2.065   0.473 -3.0361  1.6037 -0.8520
  366SOL    HW2 1098   2.862   1.995   0.440 -3.0361  1.6840  0.0442
  367SOL     OW 1099   0.858   1.145   0.171  0.9973 -0.3056 -0.1507
  367SOL    HW1 1100   0.889   1.054   0.210 -0.4721 -1.1991 -1.3048
  367SOL    HW2 1101   0.910   1.167   0.086 -1.4987  1.5808 -0.2954
  368SOL     OW 1102   1.488   0.580   0.708 -0.5108 -0.3179 -0.3625
  368SOL    HW1 1103   1.431   0.599   0.622 -0.4592 -1.9182 -0.1597
  368SOL    HW2 1104   1.579   0.623   0.716 -1.1494 -1.8714  1.0292
  369SOL     OW 1105   0.234   1.710   0.065  0.7125  0.9476  0.0732
  369SOL    HW1 1106   0.287   1.766   0.137  0.7439 -1.2000 -0.4750
  369SOL    HW2 1107   0.141   1.677   0.099 -1.3306  2.7917  0.9327
  370SOL     OW 1108   0.453   2.100   1.046  0.4714 -0.1334 -0.0915
  370SOL    HW1 1109   0.478   2.199   1.032  0.7705 -2.2898  0.4979
  370SOL    HW2 1110   0.359   2.076   1.005 -2.3927 -1.0548  2.9082
  371SOL     OW 1111   2.886   2.224   2.719 -0.4724 -0.4446 -0.5809
  371SOL    HW1 1112   2.863   2.194   2.821  0.0571 -1.2276  1.0960
  371SOL    HW2 1113   2.982   2.261   2.715 -1.8645  0.5489  1.8348
  372SOL     OW 1114   1.072   1.952   1.043  0.3241  0.2635  0.9883
  372SOL    HW1 1115   1.006   2.026   1.071  0.6505 -0.9657  0.4982
  372SOL    HW2 1116   1.142   1.976   0.975 -2.0743  0.2278  3.3913
  373SOL     OW 1117   1.959   1.998   0.906 -0.0274  0.5553  0.0535
  373SOL    HW1 1118   2.025   1.998   0.989 -1.8896 -0.6843  2.4877
  373SOL    HW2 1119   1.868   2.048   0.927 -0.7170 -0.5329  0.4112
  374SOL     OW 1120   1.776   0.462   0.570 -0.0257  0.0204  0.1584
  374SOL    HW1 1121   1.786   0.396   0.659 -1.3763 -0.4447  4.8884
  374SOL    HW2 1122   1.859   0.459   0.513 -1.2597 -0.0761 -3.2563
  375SOL     OW 1123   2.361   2.176   1.104  0.4101  0.7643 -0.1205
  375SOL    HW1 1124   2.448   2.169   1.045 -2.0077 -0.4984 -0.5656
  375SOL    HW2 1125   2.382   2.146   1.204 -1.6565  0.2142  1.1560
  376SOL     OW 1126   2.998   0.607   1.418 -0.0013 -0.2006  0.3688
  376SOL    HW1 1127   3.061   0.663   1.479 -1.1873 -0.6984  0.2181
  376SOL    HW2 1128   2.904   0.593   1.457  0.2218 -2.2176 -2.5789
  377SOL     OW 1129   2.229   2.823   0.343 -0.2045 -0.3804 -0.2636
  377SOL    HW1 1130   2.221   2.926   0.366 -2.4069  0.3820  2.8541
  377SOL    HW2 1131   2.328   2.796   0.347 -0.1248 -0.8645 -2.6656
  378SOL     OW 1132   1.760   1.836   2.689  1.0359 -0.3746  0.0900
  378SOL    HW1 1133   1.657   1.841   2.700 -2.3174 -1.7644 -2.4094
  378SOL    HW2 1134   1.799   1.740   2.684  0.9855 -2.3220  0.4771
  379SOL     OW 1135   0.879   0.127   2.728  0.0553 -0.0219 -0.2413
  379SOL    HW1 1136   0.857   0.036   2.683  2.1324 -1.4021 -0.0316
  379SOL    HW2 1137   0.808   0.202   2.712  1.7037 -3.1598 -1.9855
  380SOL     OW 1138   1.504   1.197   0.523  0.3047  0.0330 -0.6295
  380SOL    HW1 1139   1.405   1.209   0.532 -1.3982  0.4200  1.2943
  380SOL    HW2 1140   1.533   1.111   0.576  0.8087 -1.0133  2.0233
  381SOL     OW 1141   1.316   1.183   1.523  0.5699 -0.7417 -0.0364
  381SOL    HW1 1142   1.377   1.239   1.457  0.5394  0.7653 -0.4108
  381SOL    HW2 1143   1.366   1.161   1.610 -0.5970 -0.1345  0.3938
  382SOL     OW 1144   1.781   0.807   0.230  0.7471  0.1632 -0.6495
  382SOL    HW1 1145   1.812   0.785   0.133  0.6449  0.1901 -0.5530
  382SOL    HW2 1146   1.857   0.792   0.296  0.0773  2.0917 -1.9153
  383SOL     OW 1147   2.573   0.961   1.504  0.0852  0.4112 -0.2997
  383SOL    HW1 1148   2.479   0.935   1.480  2.2989 -1.1022 -1.3939
  383SOL    HW2 1149   2.645   0.920   1.441  2.0903  0.9810 -1.4564
  384SOL     OW 1150   0.906   2.268   0.089  0.0749 -0.4623  0.4028
  384SOL    HW1 1151   0.863   2.348   0.147  0.5774  0.2412  3.0390
  384SOL    HW2 1152   0.881   2.180   0.134  2.3350 -0.1080 -2.7135
  385SOL     OW 1153   2.998   1.978   1.803 -0.3390 -0.0110  0.1930
  385SOL    HW1 1154   3.027   2.055   1.741 -0.0011 -0.3666 -1.9400
  385SOL    HW2 1155   3.026   1.886   1.767  1.3518  2.5402 -2.8678
  386SOL     OW 1156   0.434   1.149   0.464  0.2801 -0.5309  0.0964
  386SOL    HW1 1157   0.488   1.063   0.451  0.8329 -1.1247  1.7930
  386SOL    HW2 1158   0.366   1.164   0.380  0.7824  0.1520 -1.1196
  387SOL     OW 1159   1.003   0.351   1.670  0.0139  0.7127  0.3669
  387SOL    HW1 1160   1.074   0.428   1.674 -0.4216  1.1450  3.4071
  387SOL    HW2 1161   0.992   0.315   1.574  1.4399 -1.6540 -3.1650
  388SOL     OW 1162   1.225   2.641   1.789  0.1160 -0.4640 -0.2611
  388SOL    HW1 1163   1.227   2.622   1.685 -0.3480  1.0060  2.9913
  388SOL    HW2 1164   1.269   2.560   1.838  0.9564  0.1088 -0.1681
  389SOL     OW 1165   0.212   3.093   1.135 -0.7599 -0.0319  0.4221
  389SOL    HW1 1166   0.178   3.103   1.235  0.8688  0.2743 -0.3075
  389SOL    HW2 1167   0.269   3.010   1.118 -1.6179  1.0077  0.4994
  390SOL     OW 1168   1.055   0.940   1.225  0.3520 -0.2831 -0.0423
  390SOL    HW1 1169   1.132   0.884   1.269 -1.0632 -2.0746 -2.8783
  390SOL    HW2 1170   0.995   0.988   1.294 -1.1833  0.4706 -0.8517
  391SOL     OW 1171   2.052   1.154   1.035 -0.6551  0.6323 -0.3291
  391SOL    HW1 1172   1.983   1.088   1.088  0.0607  0.9813  2.2435
  391SOL    HW2 1173   2.086   1.100   0.955  1.8132  0.8592 -0.8065
  392SOL     OW 1174   0.939   2.660   3.051  0.5988 -0.5557 -0.3442
  392SOL    HW1 1175   0.848   2.666   3.104 -0.7900 -0.3637  0.1854
  392SOL    HW2 1176   1.022   2.693   3.110 -0.2749  1.1215  0.4477
  393SOL     OW 1177   0.394   0.497   2.096  0.0231 -0.4061 -0.0950
  393SOL    HW1 1178   0.302   0.457   2.068  0.0410 -0.2649  1.0763
  393SOL    HW2 1179   0.464   0.489   2.021  0.9087 -0.5276  4.0068
  394SOL     OW 1180   2.919   1.829   2.796 -0.1844 -0.4078  0.0728
  394SOL    HW1 1181   3.012   1.816   2.844  1.3018 -1.1192 -1.0691
  394SOL    HW2 1182   2.927   1.846   2.695  0.8661  0.9628  1.3412
  395SOL     OW 1183   1.575   1.917   0.712 -0.1767 -0.3845 -0.2615
  395SOL    HW1 1184   1.653   1.867   0.668  0.7436 -0.3141 -0.2651
  395SOL    HW2 1185   1.611   1.975   0.787  1.1628  0.7347  0.3450
  396SOL     OW 1186   2.746   2.053   1.332  0.1860 -0.2644  0.0638
  396SOL    HW1 1187   2.779   1.995   1.415  2.0143 -1.1629  0.3560
  396SOL    HW2 1188   2.650   2.088   1.342  1.0130  0.8876  1.6124
  397SOL     OW 1189   1.024   2.114   0.623 -0.1206  0.1406  0.1232
  397SOL    HW1 1190   0.937   2.056   0.596 -3.4011  0.5473  2.4614
  397SOL    HW2 1191   0.999   2.187   0.687 -0.0458 -0.7067 -1.6474
  398SOL     OW 1192   2.207   0.095   1.053  0.3609 -0.6343 -0.6550
  398SOL    HW1 1193   2.210  -0.005   1.060  0.1604  0.7791 -0.8248
  398SOL    HW2 1194   2.107   0.130   1.069 -1.8768  0.0905 -0.9545
  399SOL     OW 1195   2.901   2.566   2.738 -0.7247  0.5310  0.2369
  399SOL    HW1 1196   2.868   2.526   2.647 -1.7994  0.4620 -2.0007
  399SOL    HW2 1197   2.868   2.504   2.820  0.5686  0.6996 -1.4100
  400SOL     OW 1198   0.806   1.589   1.276 -0.4024  0.2551 -0.3933
  400SOL    HW1 1199   0.776   1.620   1.372 -0.2560 -0.8819  0.7346
  400SOL    HW2 1200   0.809   1.669   1.213  1.1014 -1.4659 -0.4244
  401SOL     OW 1201   1.802   0.130   1.266 -0.0800  0.2661  0.2843
  401SOL    HW1 1202   1.860   0.171   1.341  1.3611  0.5613  1.9573
  401SOL    HW2 1203   1.700   0.137   1.289  0.8111 -0.7045 -4.0783
  402SOL     OW 1204   1.334   0.164   3.055  0.5502 -0.5616  0.0264
  402SOL    HW1 1205   1.428   0.157   3.011  1.9580 -0.2758  3.9998
  402SOL    HW2 1206   1.319   0.255   3.113 -0.0582  0.0730 -0.7620
  403SOL     OW 1207   2.317   1.838   0.928 -0.0404  0.3691 -0.0166
  403SOL    HW1 1208   2.419   1.849   0.947 -1.0023  0.3798 -1.3526
  403SOL    HW2 1209   2.257   1.905   0.976 -2.2141 -0.8119  1.6287
  404SOL     OW 1210   0.172   2.495   2.864  0.1540 -0.1148 -0.2958
  404SOL    HW1 1211   0.258   2.461   2.824 -1.7475  1.8580 -1.4425
  404SOL    HW2 1212   0.176   2.593   2.894  1.9053  1.2919 -0.7629
  405SOL     OW 1213   0.238   2.541   0.540  0.1528 -0.5257  0.1922
  405SOL    HW1 1214   0.167   2.572   0.475  0.1664  1.0841  1.9781
  405SOL    HW2 1215   0.282   2.624   0.581 -0.7340  0.5247 -1.1531
  406SOL     OW 1216   0.012   1.526   2.992  0.1219 -0.3247  0.3437
  406SOL    HW1 1217   0.088   1.484   2.938 -2.2382  0.3960  2.8235
  406SOL    HW2 1218   0.041   1.539   3.094  0.8130  0.3248  0.8914
  407SOL     OW 1219   1.516   0.911   0.917  0.4551  0.2180 -0.4021
  407SOL    HW1 1220   1.476   0.894   0.824 -3.4222  1.2683  2.2775
  407SOL    HW2 1221   1.468   0.988   0.963  0.4733  1.6079  1.1292
  408SOL     OW 1222   1.562   2.418   0.974 -0.0613 -0.0336  0.2252
  408SOL    HW1 1223   1.643   2.399   0.903  0.7414  0.1215 -1.1160
  408SOL    HW2 1224   1.584   2.488   1.042  2.7787 -4.7140 -1.3974
  409SOL     OW 1225   0.634   0.833   0.718 -0.9596  0.8830  0.2432
  409SOL    HW1 1226   0.564   0.849   0.637 -1.1989 -0.5165 -0.9850
  409SOL    HW2 1227   0.650   0.731   0.732 -1.6563  0.7449  1.7003
  410SOL     OW 1228   1.272   2.007   1.449  0.1266 -0.6502 -0.5931
  410SOL    HW1 1229   1.261   2.033   1.543 -0.9622 -0.7069 -3.7914
  410SOL    HW2 1230   1.190   1.956   1.407  0.8142  0.9775  3.0722
  411SOL     OW 1231   2.397   1.798   3.105  0.3855 -0.2171 -0.0405
  411SOL    HW1 1232   2.320   1.805   3.040 -0.1447 -1.4054  1.1986
  411SOL    HW2 1233   2.484   1.828   3.059  1.2192 -1.0155 -0.4788
  412SOL     OW 1234   1.512   2.461   2.217  0.0370  1.0377  0.6541
  412SOL    HW1 1235   1.555   2.522   2.286  0.7617  1.3645 -2.2795
  412SOL    HW2 1236   1.450   2.395   2.257  2.0497 -2.3164  0.4717
  413SOL     OW 1237   3.061   0.262   2.979  0.3626  0.3532  0.2743
  413SOL    HW1 1238   3.040   0.176   3.031  0.5776  0.6108 -4.1992
  413SOL    HW2 1239   3.163   0.287   2.980 -0.0415  2.6558 -3.0904
  414SOL     OW 1240   1.747   1.384   1.388  0.2805  0.2508 -0.0311
  414SOL    HW1 1241   1.675   1.442   1.432 -1.9911 -1.4257  1.2903
  414SOL    HW2 1242   1.733   1.370   1.285  0.0798  0.1579 -0.1927
  415SOL     OW 1243   0.356   2.267   0.614  0.1248  0.0846  0.0670
  415SOL    HW1 1244   0.310   2.356   0.599  0.3026  0.2669 -2.0478
  415SOL    HW2 1245   0.295   2.192   0.636  3.3313  0.8924 -1.9507
  416SOL     OW 1246   0.375   1.060   1.050  0.5602  0.3748 -0.5404
  416SOL    HW1 1247   0.357   1.020   0.958  0.1125  0.2618  0.2218
  416SOL    HW2 1248   0.469   1.105   1.056 -0.0193  1.7451  2.2750
  417SOL     OW 1249   2.120   2.370   1.903  0.1125  0.3083 -0.1355
  417SOL    HW1 1250   2.154   2.287   1.957  0.8341 -4.6016 -2.3255
  417SOL    HW2 1251   2.022   2.387   1.931 -2.8925 -1.7043 -0.7821
  418SOL     OW 1252   1.126   0.519   1.310 -0.2229 -0.1798  0.1145
  418SOL    HW1 1253   1.028   0.522   1.269 -3.7277 -1.0365 -3.4375
  418SOL    HW2 1254   1.194   0.462   1.256 -0.5782  0.7781  0.3676
  419SOL     OW 1255   1.014   0.378   3.048  0.3206  0.0762  0.1494
  419SOL    HW1 1256   1.051   0.427   2.963 -0.5205  1.6005  1.3341
  419SOL    HW2 1257   0.977   0.281   3.040  2.0031 -0.6897  2.1890
  420SOL     OW 1258   0.231   2.255   0.327 -0.3937  0.0232 -0.2348
  420SOL    HW1 1259   0.180   2.203   0.255  1.1236 -0.9302  0.7225
  420SOL    HW2 1260   0.166   2.289   0.402  1.7651 -0.9684  0.7117
  421SOL     OW 1261   0.354   3.084   0.685 -0.1814  0.2856  0.3400
  421SOL    HW1 1262   0.332   2.990   0.639 -1.2713 -1.6453  0.4440
  421SOL    HW2 1263   0.454   3.108   0.665  1.8976 -3.1382 -3.1796
  422SOL     OW 1264   0.933   2.506   1.041  0.4821  0.2632  0.0445
  422SOL    HW1 1265   0.959   2.539   0.942  0.5761  0.3815 -0.6256
  422SOL    HW2 1266   0.974   2.557   1.122  0.3517  0.0956 -1.8918
  423SOL     OW 1267   0.050   0.675   1.208 -0.1642 -0.4480 -0.0886
  423SOL    HW1 1268  -0.020   0.634   1.276 -2.0228 -0.3699 -1.2477
  423SOL    HW2 1269   0.017   0.755   1.160 -0.3942 -2.6322  1.3877
  424SOL     OW 1270   0.980   2.186   2.068  0.0173  0.5672 -0.6978
  424SOL    HW1 1271   0.982   2.289   2.060 -0.7510  0.9756 -0.3109
  424SOL    HW2 1272   0.978   2.153   2.166 -2.3016 -0.4458  1.4334
  425SOL     OW 1273   1.986   1.430   1.028 -0.5047  0.0200  0.1656
  425SOL    HW1 1274   2.009   1.330   1.030  0.7125  0.1913 -0.5967
  425SOL    HW2 1275   2.057   1.478   0.967  1.8682 -0.3175 -2.6099
  426SOL     OW 1276   1.514   1.562   1.446 -0.4649 -0.0539  0.2861
  426SOL    HW1 1277   1.463   1.647   1.417  0.9447  2.6068 -2.6185
  426SOL    HW2 1278   1.519   1.545   1.550  2.7112  5.2785  1.9185
  427SOL     OW 1279   1.891   2.406   2.102 -0.2842  0.0101  0.1211
  427SOL    HW1 1280   1.959   2.365   2.167 -0.7317 -0.0015 -0.2243
  427SOL    HW2 1281   1.895   2.508   2.101  0.4364 -3.2596 -2.9934
  428SOL     OW 1282   0.864   2.995   0.150 -0.2089 -0.2742  0.1053
  428SOL    HW1 1283   0.918   3.078   0.181 -0.4016 -0.4607  0.7750
  428SOL    HW2 1284   0.925   2.917   0.124  2.6978 -2.4116 -2.0911
  429SOL     OW 1285   1.297   0.100   0.215 -0.8284 -0.0913 -0.4745
  429SOL    HW1 1286   1.370   0.157   0.268 -0.2143  0.3595  1.3708
  429SOL    HW2 1287   1.317   0.099   0.115 -1.9635  0.0028  1.7890
  430SOL     OW 1288   2.821   1.536   0.350  0.4203 -0.0399 -0.3150
  430SOL    HW1 1289   2.861   1.608   0.284 -0.3631  2.1590 -1.3210
  430SOL    HW2 1290   2.807   1.573   0.445 -0.5542 -1.3206 -2.1746
  431SOL     OW 1291   2.133   1.630   0.889  0.2144 -0.1058 -0.5187
  431SOL    HW1 1292   2.192   1.707   0.930  1.0167  0.5359 -0.6498
  431SOL    HW2 1293   2.058   1.671   0.829 -0.8903 -0.2142  0.3034
  432SOL     OW 1294   2.932   2.241   1.245  0.0646 -0.5571  0.0388
  432SOL    HW1 1295   2.849   2.172   1.270 -3.0471 -0.8310  2.6382
  432SOL    HW2 1296   2.987   2.276   1.332 -1.1047 -0.1349  0.0093
  433SOL     OW 1297   1.866   0.348   0.810  0.6552 -0.0004 -0.6520
  433SOL    HW1 1298   1.800   0.358   0.889 -0.8697 -1.3911  1.1157
  433SOL    HW2 1299   1.900   0.250   0.808 -0.3613  0.1519 -0.3410
  434SOL     OW 1300   1.544   0.306   0.730  0.5210  0.1111 -0.1261
  434SOL    HW1 1301   1.499   0.390   0.698 -1.9231  1.8412  0.2785
  434SOL    HW2 1302   1.572   0.311   0.833 -0.7872 -1.2112 -0.9794
  435SOL     OW 1303   1.435   1.408   2.136  0.2854 -0.9017  0.5063
  435SOL    HW1 1304   1.386   1.429   2.225  1.0173 -0.1540 -0.4268
  435SOL    HW2 1305   1.448   1.484   2.072  2.0941 -0.1680 -0.9243
  436SOL     OW 1306   1.613   2.621   2.413 -0.6291 -0.3309 -0.3547
  436SOL    HW1 1307   1.642   2.717   2.431  1.6010 -1.7695 -0.5691
  436SOL    HW2 1308   1.584   2.573   2.500 -1.2159  2.1772 -1.8406
  437SOL     OW 1309   1.085   2.896   0.910 -0.1821  0.3672 -0.5215
  437SOL    HW1 1310   1.026   2.980   0.892 -0.7215 -1.4361 -1.4390
  437SOL    HW2 1311   1.102   2.865   1.012 -4.2271  0.0621  1.4878
  438SOL     OW 1312   1.083   2.589   1.270 -0.6120  0.5989  0.3081
  438SOL    HW1 1313   1.123   2.638   1.348 -2.1873 -1.6265 -3.1620
  438SOL    HW2 1314   1.023   2.514   1.308  0.8361  1.5106 -2.5268
  439SOL     OW 1315   0.730   1.774   1.017 -0.4363 -0.4012  0.2413
  439SOL    HW1 1316   0.730   1.867   0.968  1.8345 -0.8871  0.7557
  439SOL    HW2 1317   0.630   1.741   1.039 -0.0364 -1.2453  1.8176
  440SOL     OW 1318   1.050   2.453   2.034 -0.1321  0.4289 -0.6289
  440SOL    HW1 1319   1.032   2.538   1.978  0.6072 -0.3635 -0.9031
  440SOL    HW2 1320   1.141   2.452   2.080 -0.1204  0.9291  0.8233
  441SOL     OW 1321   0.397   2.769   1.412  0.3689  0.4220 -0.5432
  441SOL    HW1 1322   0.462   2.689   1.438 -3.1258 -0.1895 -4.6181
  441SOL    HW2 1323   0.347   2.750   1.324 -0.7383 -0.5636 -0.3069
  442SOL     OW 1324   2.245   0.684   2.603  0.0439  0.2564 -0.1149
  442SOL    HW1 1325   2.248   0.587   2.574  1.2336  1.3042 -0.4273
  442SOL    HW2 1326   2.157   0.734   2.579 -0.4924  0.2699 -0.0320
  443SOL     OW 1327   1.246   2.671   2.197 -0.5613 -0.1802  0.0526
  443SOL    HW1 1328   1.268   2.577   2.228  0.8884 -0.7305  2.0451
  443SOL    HW2 1329   1.224   2.736   2.272  3.3170  0.5208 -3.0196
  444SOL     OW 1330   1.034   1.225   1.497 -0.0321  0.4245  0.2671
  444SOL    HW1 1331   1.135   1.240   1.465  3.6201 -1.0297  1.0281
  444SOL    HW2 1332   1.026   1.214   1.604 -0.3945 -2.6031 -0.0153
  445SOL     OW 1333   0.025   2.367   1.945 -0.6592  0.7655 -0.1049
  445SOL    HW1 1334   0.043   2.287   1.877 -0.4699  1.2843 -3.4551
  445SOL    HW2 1335  -0.040   2.340   2.019 -0.7879  1.9199 -1.1857
  446SOL     OW 1336   0.181   1.939   2.366  0.4425  0.0482 -0.0468
  446SOL    HW1 1337   0.132   2.031   2.367 -1.1665  1.6991  0.0372
  446SOL    HW2 1338   0.126   1.865   2.305 -1.0027 -0.9492  0.2026
  447SOL     OW 1339   1.226   1.673   1.925 -0.1255 -0.4624 -0.4051
  447SOL    HW1 1340   1.136   1.720   1.947 -0.2644  2.1462 -1.1006
  447SOL    HW2 1341   1.303   1.722   1.974 -0.9149  1.8092  0.6207
  448SOL     OW 1342   0.158   1.429   2.021 -0.4130  0.1084 -0.0761
  448SOL    HW1 1343   0.145   1.506   1.946  0.6290  3.1518 -1.9249
  448SOL    HW2 1344   0.098   1.445   2.106  0.8140  2.5983 -0.5503
  449SOL     OW 1345   1.832   2.964   0.851 -0.5722  0.8436 -0.1936
  449SOL    HW1 1346   1.814   2.976   0.953 -2.0483  1.4760  0.7842
  449SOL    HW2 1347   1.899   2.884   0.832 -1.1606  1.9133  1.6287
  450SOL     OW 1348   2.269   1.482   0.708  0.1988 -0.2157  1.0022
  450SOL    HW1 1349   2.227   1.546   0.785 -2.4854  0.3642  0.8145
  450SOL    HW2 1350   2.288   1.525   0.616  0.6976  0.9625  1.4496
  451SOL     OW 1351   1.386   3.064   1.491 -0.2291 -0.1008 -0.2160
  451SOL    HW1 1352   1.307   3.124   1.500  1.9405 -1.8769 -2.2200
  451SOL    HW2 1353   1.399   3.016   1.587  0.6754 -2.0241  2.8011
  452SOL     OW 1354   2.656   2.276   2.265  0.1767  0.2374 -0.0773
  452SOL    HW1 1355   2.580   2.342   2.293  0.5940 -0.8917  0.5300
  452SOL    HW2 1356   2.702   2.235   2.349  1.9673  0.4051  0.4458
  453SOL     OW 1357   2.450   2.664   0.023 -0.8799 -0.1816 -0.2347
  453SOL    HW1 1358   2.386   2.743   0.015  4.0278  0.2152 -0.1851
  453SOL    HW2 1359   2.447   2.593  -0.059  1.1077  0.4897 -2.8380
  454SOL     OW 1360   0.966   1.126   2.040  0.4370 -0.1545  0.6417
  454SOL    HW1 1361   0.961   1.100   1.938 -0.2872 -2.4808 -0.2945
  454SOL    HW2 1362   1.036   1.203   2.051 -0.5935  2.6308 -2.2156
  455SOL     OW 1363   0.662   2.686   2.803  0.2314  0.0198 -0.5875
  455SOL    HW1 1364   0.764   2.717   2.805  0.3121 -1.3201  1.1004
  455SOL    HW2 1365   0.648   2.603   2.871  1.7422  2.0560 -2.0100
  456SOL     OW 1366   0.366   1.880   0.228 -0.4282 -0.0994 -0.1725
  456SOL    HW1 1367   0.469   1.885   0.233  0.0242 -1.6531 -0.4326
  456SOL    HW2 1368   0.323   1.970   0.211 -2.4429 -0.3039 -0.7251
  457SOL     OW 1369   0.391   2.786   0.600  0.4066 -0.3827 -0.5644
  457SOL    HW1 1370   0.372   2.825   0.506 -2.1343 -0.2909  3.1011
  457SOL    HW2 1371   0.492   2.788   0.629 -1.1532  0.8144 -3.4387
  458SOL     OW 1372   2.811   0.041   1.191  0.2694  0.1229 -0.3836
  458SOL    HW1 1373   2.888   0.110   1.169 -1.5645  1.1870 -3.4145
  458SOL    HW2 1374   2.822  -0.055   1.147  1.0683 -1.4751 -1.3277
  459SOL     OW 1375   2.199   2.537   0.820 -0.5062  0.2083 -0.1070
  459SOL    HW1 1376   2.234   2.604   0.893  0.8519  0.5230  2.2967
  459SOL    HW2 1377   2.272   2.525   0.745  2.2407 -0.3294 -1.2403
  460SOL     OW 1378   1.212   2.072   2.780 -0.3751  0.4970  0.1679
  460SOL    HW1 1379   1.219   2.077   2.677 -0.8279 -0.3020 -1.8146
  460SOL    HW2 1380   1.228   1.974   2.812 -2.8347 -1.1361 -0.8641
  461SOL     OW 1381   0.489   2.109   2.708  0.7426  0.8009 -0.4199
  461SOL    HW1 1382   0.437   2.028   2.667 -0.2482  0.3752 -1.6951
  461SOL    HW2 1383   0.503   2.089   2.808 -2.7080 -0.1700  1.0499
  462SOL     OW 1384   0.987   1.076   1.736  0.6439  0.3475 -0.2860
  462SOL    HW1 1385   1.047   1.023   1.669  0.4475  0.6042 -0.2895
  462SOL    HW2 1386   0.901   1.115   1.689  0.6601  1.1034  1.1028
  463SOL     OW 1387   0.479   0.865   0.496  0.1653  0.0127 -0.0673
  463SOL    HW1 1388   0.496   0.770   0.445  0.5347  1.4866 -0.9909
  463SOL    HW2 1389   0.377   0.890   0.501 -0.5644 -0.9290  4.1480
  464SOL     OW 1390   0.612   2.334   2.204 -0.4635 -0.0314  0.2404
  464SOL    HW1 1391   0.566   2.400   2.272 -4.5795 -1.1640  1.6903
  464SOL    HW2 1392   0.572   2.342   2.108 -1.8252 -1.2822 -2.8700
  465SOL     OW 1393   0.286   0.917   0.845  0.1670  0.2505  0.1135
  465SOL    HW1 1394   0.199   0.921   0.784 -1.8002  0.6706 -0.3136
  465SOL    HW2 1395   0.321   0.815   0.854  1.2692 -2.6512  0.6430
  466SOL     OW 1396   1.402   1.158   1.055  0.2891 -0.0845  0.1722
  466SOL    HW1 1397   1.438   1.224   0.982  1.9608  0.3930  0.5223
  466SOL    HW2 1398   1.298   1.143   1.042 -0.9496  0.5813  1.2113
  467SOL     OW 1399   0.613   0.417   2.460 -0.1488  0.0222  0.0775
  467SOL    HW1 1400   0.548   0.500   2.449 -0.4400 -1.5090  0.0834
  467SOL    HW2 1401   0.608   0.367   2.555  0.1699 -1.8619  0.9706
  468SOL     OW 1402   0.386   2.266   1.612  0.3638  0.0532 -0.1387
  468SOL    HW1 1403   0.476   2.276   1.664  1.6998  0.2923  1.4643
  468SOL    HW2 1404   0.396   2.257   1.508 -0.6302 -0.3334 -0.9330
  469SOL     OW 1405   1.473   1.298   1.341  0.0957  0.2158 -0.5154
  469SOL    HW1 1406   1.510   1.263   1.254  2.7866 -1.9273 -2.2864
  469SOL    HW2 1407   1.491   1.400   1.365  0.8711  0.5690  0.2682
  470SOL     OW 1408   3.015   1.851   0.720  0.1280  0.3439  0.1132
  470SOL    HW1 1409   3.056   1.914   0.650  0.1381  0.6827  0.5596
  470SOL    HW2 1410   3.063   1.757   0.728 -1.2335  2.8487 -0.9586
  471SOL     OW 1411   2.593   1.362   2.147 -0.0511 -0.1374 -0.2490
  471SOL    HW1 1412   2.556   1.298   2.223 -1.5707 -1.3193  0.2850
  471SOL    HW2 1413   2.662   1.432   2.178  0.1007 -0.9790  1.0173
  472SOL     OW 1414   1.167   2.377   0.062  0.0458  0.0260 -0.8159
  472SOL    HW1 1415   1.237   2.348   0.130  0.8039 -1.4393 -1.0842
  472SOL    HW2 1416   1.075   2.328   0.067 -2.0783  2.2288  1.2794
  473SOL     OW 1417   1.074   1.483   1.036 -0.1426 -0.5518  0.3403
  473SOL    HW1 1418   0.991   1.516   0.982 -0.8423  0.2683 -2.1572
  473SOL    HW2 1419   1.052   1.415   1.114 -0.6806  0.6996  0.0179
  474SOL     OW 1420   0.652   1.288   0.594  0.3500  0.0918  0.1751
  474SOL    HW1 1421   0.565   1.251   0.552 -1.4212  2.4873 -1.9608
  474SOL    HW2 1422   0.723   1.214   0.612  0.4814  0.2255  1.4300
  475SOL     OW 1423   2.824   0.020   0.813  0.1115 -0.4256  0.1226
  475SOL    HW1 1424   2.892   0.095   0.835 -0.2835  2.0105  0.2207
  475SOL    HW2 1425   2.732   0.054   0.847  0.3308  1.1287  2.8653
  476SOL     OW 1426   1.029   2.975   1.763  0.5873  0.0264 -0.3420
  476SOL    HW1 1427   1.090   3.056   1.789 -0.5056 -0.3202 -0.4089
  476SOL    HW2 1428   1.015   2.966   1.657  1.3738 -0.3535 -2.4031
  477SOL     OW 1429   1.445   0.317   2.417  0.2346  0.1317  0.7134
  477SOL    HW1 1430   1.420   0.340   2.516  1.6549 -1.3756  2.7832
  477SOL    HW2 1431   1.540   0.274   2.408 -1.0075 -1.0933 -0.1042
  478SOL     OW 1432   2.231   1.848   0.224 -0.1762 -0.3597 -0.5596
  478SOL    HW1 1433   2.171   1.771   0.255  0.6394  4.4640  0.4377
  478SOL    HW2 1434   2.286   1.820   0.138 -0.6178 -0.4552 -4.3125
  479SOL     OW 1435   1.265   0.949   2.875 -0.3096 -0.1685 -0.3614
  479SOL    HW1 1436   1.353   0.938   2.823 -0.1905 -0.0707  0.5096
  479SOL    HW2 1437   1.198   0.871   2.863  1.2130  0.2429  1.8003
  480SOL     OW 1438   2.609   2.327   0.394  0.7112  0.2458  0.2755
  480SOL    HW1 1439   2.562   2.267   0.464 -0.5438  0.0415 -1.1986
  480SOL    HW2 1440   2.540   2.375   0.335  2.8087 -1.2428  0.2763
  481SOL     OW 1441   0.968   1.163   0.831 -0.8231 -0.3041  0.1627
  481SOL    HW1 1442   0.945   1.250   0.777  0.1673 -1.4546 -1.0886
  481SOL    HW2 1443   1.016   1.177   0.920 -0.5566  1.2334  1.4966
  482SOL     OW 1444   1.561   0.317   1.987 -0.1690  0.0634 -0.2966
  482SOL    HW1 1445   1.576   0.414   1.946 -0.2296 -0.1023  2.5464
  482SOL    HW2 1446   1.646   0.261   2.004  1.7932  0.4472  2.5213
  483SOL     OW 1447   0.135   2.311   1.239  0.0120 -0.3320 -0.4724
  483SOL    HW1 1448   0.069   2.375   1.293 -3.2560 -0.4755 -2.1928
  483SOL    HW2 1449   0.140   2.347   1.140 -2.9621  0.2476 -1.2987
  484SOL     OW 1450   1.767   1.109   1.328 -0.0563  0.7278  0.0873
  484SOL    HW1 1451   1.802   1.038   1.398  1.0523  0.1728  2.5372
  484SOL    HW2 1452   1.751   1.201   1.370  1.2909 -0.9731  0.9682
  485SOL     OW 1453   0.762   0.777   1.784  0.0431  0.4051 -0.4597
  485SOL    HW1 1454   0.728   0.851   1.718 -0.4532  0.9770  0.5046
  485SOL    HW2 1455   0.864   0.749   1.765  1.2823  0.6254  0.8563
  486SOL     OW 1456   0.841   1.883   2.452 -0.4453  0.1743  0.1373
  486SOL    HW1 1457   0.893   1.871   2.540  2.0508  1.2136  1.8136
  486SOL    HW2 1458   0.841   1.984   2.422  0.0970  0.0184  1.2668
  487SOL     OW 1459   1.759   1.581   0.943  0.2849  0.1324 -0.3885
  487SOL    HW1 1460   1.835   1.528   0.984 -0.1583  1.3280 -0.4678
  487SOL    HW2 1461   1.792   1.659   0.879  0.8444  1.7174 -0.8831
  488SOL     OW 1462   2.953   0.883   2.308 -0.1434  0.6226 -0.3371
  488SOL    HW1 1463   2.949   0.781   2.278 -1.0916  0.8535  0.1244
  488SOL    HW2 1464   2.955   0.889   2.412  0.4324 -0.4685 -0.4377
  489SOL     OW 1465   2.803   0.373   1.288  0.6829  0.0163 -0.4093
  489SOL    HW1 1466   2.774   0.340   1.383  2.5450  1.1193  1.2049
  489SOL    HW2 1467   2.882   0.314   1.253  0.6338 -0.8034 -1.7382
  490SOL     OW 1468   1.402   2.934   2.808  0.0990 -0.4084  0.5850
  490SOL    HW1 1469   1.445   2.843   2.823  4.8917  2.3229 -1.4733
  490SOL    HW2 1470   1.438   2.980   2.723 -1.6895  0.1712  0.2655
  491SOL     OW 1471   1.706   1.521   2.653 -0.3692  0.3765 -0.2063
  491SOL    HW1 1472   1.652   1.525   2.735 -0.6271  0.4839 -1.7355
  491SOL    HW2 1473   1.804   1.514   2.672  0.9638 -0.4350  1.5667
  492SOL     OW 1474   0.579   2.070   0.624  0.1228  0.2055 -0.5958
  492SOL    HW1 1475   0.601   2.047   0.719 -0.0626  1.7673 -1.6233
  492SOL    HW2 1476   0.523   2.162   0.611 -0.0732  1.7142 -3.2387
  493SOL     OW 1477   0.469   1.388   2.081 -0.6260  0.2973  0.3085
  493SOL    HW1 1478   0.389   1.439   2.045 -0.1247 -0.7587  1.9128
  493SOL    HW2 1479   0.441   1.291   2.111  1.9405 -1.7870  1.2473
  494SOL     OW 1480   2.721   2.567   0.087 -0.0242  0.8355  0.5609
  494SOL    HW1 1481   2.719   2.560   0.191 -0.1288  0.9746  0.7428
  494SOL    HW2 1482   2.623   2.586   0.049 -0.3797 -0.1741  0.0063
  495SOL     OW 1483   2.557   2.743   2.603 -0.0086 -0.2449  0.1853
  495SOL    HW1 1484   2.551   2.641   2.613 -1.7668 -0.0502  1.0208
  495SOL    HW2 1485   2.631   2.781   2.548 -1.5493 -0.9022  3.1076
  496SOL     OW 1486   2.021   2.284   0.811 -0.0959 -0.0347 -0.4405
  496SOL    HW1 1487   2.062   2.357   0.877 -0.1737 -1.6476 -0.3825
  496SOL    HW2 1488   2.027   2.193   0.853  1.3040  0.2190 -0.3413
  497SOL     OW 1489   0.158   3.009   2.361  0.5396 -0.1891  0.0096
  497SOL    HW1 1490   0.156   3.084   2.436  2.8058 -0.4423 -0.0673
  497SOL    HW2 1491   0.216   3.037   2.283  0.7567 -2.0215  1.8430
  498SOL     OW 1492   1.199   1.316   1.267  0.1574  0.2786  0.1778
  498SOL    HW1 1493   1.297   1.292   1.291 -2.9973 -2.4871  0.2677
  498SOL    HW2 1494   1.163   1.398   1.316 -0.1997 -1.0770 -0.0789
  499SOL     OW 1495   0.639   1.818   0.264  0.3713  0.4392  0.3118
  499SOL    HW1 1496   0.636   1.744   0.182 -1.4467 -1.6379  0.0545
  499SOL    HW2 1497   0.732   1.833   0.307 -0.7372 -1.4359  0.2152
  500SOL     OW 1498   1.392   2.874   1.691 -0.3053 -0.0796  0.2647
  500SOL    HW1 1499   1.375   2.870   1.788 -2.7922  1.4577 -0.5129
  500SOL    HW2 1500   1.426   2.786   1.645  3.2548  0.3108 -2.2874
  501SOL     OW 1501   0.776   1.168   2.290 -0.1838 -0.0949  1.0828
  501SOL    HW1 1502   0.687   1.119   2.279  0.8607  0.1094  0.9745
  501SOL    HW2 1503   0.821   1.197   2.196  3.5945  0.5257 -4.2586
  502SOL     OW 1504   2.553   0.943   1.781 -0.4973  0.4558  0.0090
  502SOL    HW1 1505   2.574   0.968   1.683 -0.2372 -0.2437 -0.0464
  502SOL    HW2 1506   2.566   0.841   1.794 -1.8283  1.0404 -0.7900
  503SOL     OW 1507   1.295   0.168   0.586  0.0795  0.3046 -0.0156
  503SOL    HW1 1508   1.222   0.224   0.637  1.9865 -1.2907  0.6594
  503SOL    HW2 1509   1.391   0.204   0.608 -1.6239  0.5294  0.1351
  504SOL     OW 1510   3.010   2.332   1.472 -0.2432  0.0926  0.1941
  504SOL    HW1 1511   2.963   2.406   1.525 -0.8775 -1.7163  0.9079
  504SOL    HW2 1512   3.087   2.286   1.528  0.7264 -1.5753  0.3850
  505SOL     OW 1513   2.282   1.185   1.413 -0.1260 -0.0288  0.1400
  505SOL    HW1 1514   2.266   1.245   1.330  0.5091  0.7863 -1.0688
  505SOL    HW2 1515   2.372   1.223   1.451 -1.7981  1.1383 -0.6099
  506SOL     OW 1516   1.928   0.205   1.813  0.1099  0.3369  0.4249
  506SOL    HW1 1517   2.009   0.145   1.806 -3.1746 -0.8318  0.5594
  506SOL    HW2 1518   1.953   0.304   1.801 -1.0733 -0.3735 -1.4353
  507SOL     OW 1519   0.565   0.698   2.172  0.8392  0.0233 -0.3745
  507SOL    HW1 1520   0.500   0.646   2.118 -2.1384  1.3065  0.5802
  507SOL    HW2 1521   0.650   0.642   2.192  0.4773 -0.7221 -4.5648
  508SOL     OW 1522   0.316   1.647   0.778 -0.2120 -0.4815 -0.5841
  508SOL    HW1 1523   0.392   1.711   0.745 -2.5524 -0.6198  1.0530
  508SOL    HW2 1524   0.274   1.685   0.868 -0.2898 -2.0620 -1.6294
  509SOL     OW 1525   1.289   1.194   2.439 -0.2585  0.1417  0.0550
  509SOL    HW1 1526   1.350   1.144   2.365  2.2330 -1.1064 -1.1641
  509SOL    HW2 1527   1.189   1.178   2.436  2.5343  0.1797 -0.8716
  510SOL     OW 1528   1.270   2.111   2.233 -0.3654  0.5573  0.4500
  510SOL    HW1 1529   1.297   2.118   2.132  4.0426  0.1229 -1.3267
  510SOL    HW2 1530   1.204   2.035   2.240  3.3672 -1.0537 -1.4083
  511SOL     OW 1531   3.002   2.697   1.262 -0.4481  0.0900 -0.6196
  511SOL    HW1 1532   3.003   2.692   1.164 -1.4399 -2.6923  2.8486
  511SOL    HW2 1533   2.912   2.730   1.299  1.5997 -0.9880  1.8339
  512SOL     OW 1534   2.409   0.453   1.377  0.3389 -0.7120 -0.1380
  512SOL    HW1 1535   2.316   0.495   1.370  1.0648  1.2987  0.9893
  512SOL    HW2 1536   2.446   0.394   1.303  1.2259  0.6613  1.8487
  513SOL     OW 1537   2.576   2.161   0.946  0.8247 -0.6092  0.0407
  513SOL    HW1 1538   2.523   2.228   0.884 -1.2326  0.2744 -0.9802
  513SOL    HW2 1539   2.667   2.138   0.909  0.4012  0.5507 -2.0042
  514SOL     OW 1540   0.678   2.773   0.409  0.1754 -0.1645  0.1760
  514SOL    HW1 1541   0.633   2.862   0.390 -1.8296 -1.1047  2.0898
  514SOL    HW2 1542   0.739   2.777   0.495  3.0447  0.6774  0.6174
  515SOL     OW 1543   1.908   1.353   2.371 -0.1407 -0.2284  0.6385
  515SOL    HW1 1544   1.915   1.296   2.285 -2.7414 -0.6457 -1.2105
  515SOL    HW2 1545   1.834   1.319   2.430  0.1283  0.1739 -1.6573
  516SOL     OW 1546   0.289   0.314   1.891 -0.0987  0.0001 -0.0506
  516SOL    HW1 1547   0.379   0.269   1.893  0.3513  0.4438 -1.6240
  516SOL    HW2 1548   0.215   0.263   1.832  0.3358  0.3859 -1.8846
  517SOL     OW 1549   0.477   0.115   1.121  0.2094  0.0535  0.5177
  517SOL    HW1 1550   0.496   0.149   1.216  2.6315 -2.2059 -4.2403
  517SOL    HW2 1551   0.401   0.047   1.115  2.1099  0.9266 -0.6764
  518SOL     OW 1552   2.130   3.097   1.790  0.6517  0.1790 -0.2130
  518SOL    HW1 1553   2.203   3.171   1.806 -0.3015  0.5373  1.2059
  518SOL    HW2 1554   2.146   3.028   1.719 -3.4954 -1.4931  3.6499
  519SOL     OW 1555   2.303   2.107   2.487 -0.1201 -0.6567 -0.3726
  519SOL    HW1 1556   2.255   2.099   2.575  0.7202  1.1926 -4.1838
  519SOL    HW2 1557   2.305   2.208   2.464 -1.2958 -1.9191  2.1275
  520SOL     OW 1558   1.823   2.703   1.736 -0.1102 -0.0319  0.4060
  520SOL    HW1 1559   1.751   2.646   1.773  2.8953  1.1345  2.9364
  520SOL    HW2 1560   1.905   2.655   1.690  2.7227 -0.3037 -1.6597
  521SOL     OW 1561   0.550   0.005   2.073 -0.1863 -0.1467 -0.5000
  521SOL    HW1 1562   0.456  -0.015   2.113  1.6587 -0.8004 -0.6981
  521SOL    HW2 1563   0.621   0.008   2.151 -0.3411  1.9286  2.0440
  522SOL     OW 1564   0.198   1.837   1.538 -0.3543 -0.2392  0.5741
  522SOL    HW1 1565   0.249   1.898   1.605  1.1162 -0.9806  0.2869
  522SOL    HW2 1566   0.164   1.881   1.450 -0.0833  0.6677 -1.1254
  523SOL     OW 1567   2.184   2.923   1.553 -0.0584  0.3684  0.9384
  523SOL    HW1 1568   2.251   2.846   1.531  0.8561 -0.3392  0.6698
  523SOL    HW2 1569   2.123   2.935   1.466 -0.6415  1.8622  1.5003
  524SOL     OW 1570   0.187   2.788   2.854 -0.3453  0.1034  0.3835
  524SOL    HW1 1571   0.125   2.870   2.871  2.7793 -0.9022  0.9558
  524SOL    HW2 1572   0.277   2.812   2.809  2.0283 -0.0535 -0.2504
  525SOL     OW 1573   2.181   2.041   0.426  0.3908 -0.4005  0.1213
  525SOL    HW1 1574   2.203   1.991   0.514  1.6615 -1.8846  2.4871
  525SOL    HW2 1575   2.193   1.977   0.347  3.3556  0.6877  3.2568
  526SOL     OW 1576   0.441   1.537   1.825  0.6345 -0.7278 -0.6807
  526SOL    HW1 1577   0.537   1.574   1.818  0.6779  2.1003  0.8839
  526SOL    HW2 1578   0.432   1.437   1.840 -3.9740  2.9662 -0.4476
  527SOL     OW 1579   1.102   2.883   1.206  0.0373 -0.5192 -0.4432
  527SOL    HW1 1580   1.167   2.824   1.268  3.0033 -0.1825  1.1941
  527SOL    HW2 1581   1.131   2.983   1.187 -2.0201 -0.5523 -1.6247
  528SOL     OW 1582   1.371   2.351   0.532  0.4966  0.0813  0.6994
  528SOL    HW1 1583   1.399   2.256   0.538 -0.8582  0.1346  0.7484
  528SOL    HW2 1584   1.427   2.419   0.592  2.2707  0.6336 -0.5052
  529SOL     OW 1585   1.916   1.758   0.778  0.0903  0.2065  0.2546
  529SOL    HW1 1586   1.858   1.763   0.695  1.4589 -0.5698  1.8803
  529SOL    HW2 1587   1.929   1.852   0.823  0.7977 -0.6568 -1.2968
  530SOL     OW 1588   0.412   2.542   0.173 -0.3235 -0.3285  0.6697
  530SOL    HW1 1589   0.433   2.525   0.275 -1.6496  0.8430 -0.4289
  530SOL    HW2 1590   0.428   2.453   0.117 -2.2075 -2.1407 -0.7968
  531SOL     OW 1591   1.827   0.961   1.116  0.2082 -0.0918  0.0374
  531SOL    HW1 1592   1.737   0.933   1.073  0.8405 -1.7754  0.5062
  531SOL    HW2 1593   1.818   1.004   1.208  0.4626 -2.4998 -2.2160
  532SOL     OW 1594   0.286   1.178   0.728  0.3569  0.3812  0.5685
  532SOL    HW1 1595   0.341   1.164   0.643  1.6668 -1.1919  3.4126
  532SOL    HW2 1596   0.245   1.091   0.767  2.6561 -0.7664  0.6960
  533SOL     OW 1597   1.797   0.010   2.586 -0.0307 -0.1452  0.4687
  533SOL    HW1 1598   1.898   0.002   2.615  0.4007  1.2895 -0.7554
  533SOL    HW2 1599   1.744   0.068   2.651  4.5267  0.1204  0.4144
  534SOL     OW 1600   0.214   0.212   1.498 -0.3118  0.0319 -0.5088
  534SOL    HW1 1601   0.294   0.253   1.454 -0.8450 -0.1283 -1.5295
  534SOL    HW2 1602   0.140   0.283   1.519 -1.8489 -1.3933  2.0098
  535SOL     OW 1603   1.848   0.331   0.207 -0.0157  0.1077 -0.7349
  535SOL    HW1 1604   1.868   0.385   0.295  0.1208 -1.0752  1.8397
  535SOL    HW2 1605   1.761   0.271   0.214 -4.0806 -1.2374 -0.4484
  536SOL     OW 1606   1.342   2.598   0.931  0.5755 -0.0842  0.0668
  536SOL    HW1 1607   1.403   2.514   0.929  1.3228  1.3135  0.4547
  536SOL    HW2 1608   1.245   2.580   0.895 -0.5803 -3.1728 -2.7413
  537SOL     OW 1609   0.888   0.221   2.354 -0.0863  0.0551  0.2250
  537SOL    HW1 1610   0.924   0.231   2.260 -2.2814  1.5464  1.2743
  537SOL    HW2 1611   0.790   0.194   2.352  0.3392  2.3424 -1.1101
  538SOL     OW 1612   1.649   2.354   1.491 -0.2227  0.2450 -0.1777
  538SOL    HW1 1613   1.642   2.259   1.444 -3.3913 -0.0385  1.3782
  538SOL    HW2 1614   1.736   2.401   1.459  0.9967  0.4395  3.2775
  539SOL     OW 1615   0.167   1.583   2.673  0.1521 -0.2272 -0.3670
  539SOL    HW1 1616   0.084   1.566   2.617  0.0996  0.0152  0.3735
  539SOL    HW2 1617   0.163   1.679   2.695 -0.1661  1.3855  0.8897
  540SOL     OW 1618   2.720   1.673   1.989  0.5760 -0.4728 -0.0480
  540SOL    HW1 1619   2.644   1.607   1.948 -0.7346 -0.3227 -2.3562
  540SOL    HW2 1620   2.680   1.772   1.997  1.0520  1.0101  4.2138
  541SOL     OW 1621   0.455   2.333   0.006  0.1380 -0.6574  0.5226
  541SOL    HW1 1622   0.478   2.278   0.085 -1.7856  2.1478  2.5670
  541SOL    HW2 1623   0.376   2.297  -0.051  2.7620 -0.1339 -1.6053
  542SOL     OW 1624   2.255   2.575   0.450  0.0558  0.3307 -0.8552
  542SOL    HW1 1625   2.219   2.660   0.406 -0.7296  0.4403  2.4861
  542SOL    HW2 1626   2.173   2.520   0.490 -0.2682 -0.3469  2.8327
  543SOL     OW 1627   0.997   1.772   1.723  0.2708 -0.6679  0.2283
  543SOL    HW1 1628   0.990   1.802   1.821  1.7594 -0.6397 -1.0800
  543SOL    HW2 1629   0.947   1.839   1.658  1.7404  1.2123 -0.7667
  544SOL     OW 1630   0.901   0.394   0.209  0.4861 -0.3507 -0.6240
  544SOL    HW1 1631   0.918   0.308   0.267  1.9956 -1.1081 -0.1022
  544SOL    HW2 1632   0.908   0.377   0.106  1.8285 -0.5341 -1.3895
  545SOL     OW 1633   1.103   1.717   0.630 -0.3774 -0.3974  0.6327
  545SOL    HW1 1634   1.191   1.735   0.679 -1.5779  2.1142  0.7334
  545SOL    HW2 1635   1.112   1.715   0.528 -0.0113  2.0832  1.1288
  546SOL     OW 1636   2.641   1.539   3.059 -0.4588  0.1674 -0.8422
  546SOL    HW1 1637   2.565   1.542   2.989  2.3674  1.1808 -0.2066
  546SOL    HW2 1638   2.612   1.527   3.159 -4.1201 -0.8583  2.1553
  547SOL     OW 1639   0.545   0.026   2.771 -0.0106 -0.1567 -0.0350
  547SOL    HW1 1640   0.621   0.007   2.705  0.5963  1.4559  0.7972
  547SOL    HW2 1641   0.504  -0.050   2.834 -1.1930 -0.9218 -3.2025
  548SOL     OW 1642   2.041   0.830   3.028 -0.5388 -0.3026  0.1783
  548SOL    HW1 1643   1.943   0.802   3.031  1.9146 -0.9793 -0.9012
  548SOL    HW2 1644   2.054   0.933   3.052 -0.3263  0.5445 -0.5698
  549SOL     OW 1645   0.655   0.508   0.197  0.3081  0.9278  0.1763
  549SOL    HW1 1646   0.655   0.576   0.119 -0.2067  2.1601  3.5179
  549SOL    HW2 1647   0.744   0.464   0.215 -2.2170 -0.2524  1.5008
  550SOL     OW 1648   2.541   2.860   2.872 -0.4548  0.3651  0.2617
  550SOL    HW1 1649   2.528   2.786   2.943 -1.3153 -2.4143  0.2967
  550SOL    HW2 1650   2.548   2.831   2.770  0.7435 -1.6427 -1.5957
  551SOL     OW 1651   0.275   0.913   0.234  0.1558 -0.0225  0.3541
  551SOL    HW1 1652   0.378   0.912   0.234  1.4392 -2.4371 -0.7355
  551SOL    HW2 1653   0.235   0.923   0.327  0.6716  1.4219 -1.4378
  552SOL     OW 1654   0.772   2.870   1.851 -0.4509  1.0707  0.5941
  552SOL    HW1 1655   0.738   2.893   1.940 -1.0049 -1.2311 -2.1414
  552SOL    HW2 1656   0.868   2.903   1.826  0.6026  1.9512  1.1739
  553SOL     OW 1657   3.101   2.525   0.362  0.5749 -0.0230  0.1813
  553SOL    HW1 1658   3.052   2.438   0.355  3.1977  0.0797  0.9059
  553SOL    HW2 1659   3.052   2.595   0.417  3.4695  1.7063 -0.6847
  554SOL     OW 1660   2.239   0.326   0.565 -0.4609  0.4531  0.6148
  554SOL    HW1 1661   2.304   0.316   0.482 -0.2404 -0.0880 -2.7684
  554SOL    HW2 1662   2.253   0.254   0.639  0.1338  1.8690  0.1790
  555SOL     OW 1663   0.426   2.884   2.466 -0.2113  0.0845  0.6356
  555SOL    HW1 1664   0.338   2.938   2.449 -1.3461 -0.9839  0.7647
  555SOL    HW2 1665   0.455   2.827   2.381  3.6726 -0.3778  2.6873
  556SOL     OW 1666   0.905   2.377   1.662  0.0487  0.1333 -0.9255
  556SOL    HW1 1667   0.923   2.459   1.724  0.0204  0.4411 -1.4212
  556SOL    HW2 1668   0.976   2.368   1.586 -0.2395 -0.9094  0.4210
  557SOL     OW 1669   0.109   2.097   0.132 -0.6333 -0.0783 -0.0512
  557SOL    HW1 1670   0.022   2.046   0.109  1.4877 -0.2244  0.1316
  557SOL    HW2 1671   0.139   2.164   0.060  2.1579  2.1027  2.1451
  558SOL     OW 1672   2.940   2.278   0.357 -0.3990  0.0219  0.2454
  558SOL    HW1 1673   2.874   2.201   0.378 -0.1148  0.5510 -0.1677
  558SOL    HW2 1674   2.954   2.305   0.256 -0.0355  2.0377 -0.1833
  559SOL     OW 1675   0.395   2.267   1.328 -0.2703  0.5160  0.3675
  559SOL    HW1 1676   0.311   2.295   1.281  0.6334 -0.7275  1.3045
  559SOL    HW2 1677   0.426   2.167   1.308  0.7745 -0.3643  1.9247
  560SOL     OW 1678   2.095   1.099   3.063  0.0172 -0.1637 -0.1983
  560SOL    HW1 1679   2.056   1.191   3.091  1.3057 -1.4378 -0.4665
  560SOL    HW2 1680   2.197   1.097   3.053  0.3217  1.5352 -0.9429
  561SOL     OW 1681   3.006   1.940   3.096 -0.6390  0.2198  0.1443
  561SOL    HW1 1682   2.950   1.859   3.135  1.7134 -0.1297  1.6693
  561SOL    HW2 1683   2.949   2.014   3.057  4.1746 -0.3158  0.2000
  562SOL     OW 1684   0.921   2.133   2.385 -0.0356  0.4316  0.2467
  562SOL    HW1 1685   0.820   2.143   2.386  1.4157  0.6459  0.0646
  562SOL    HW2 1686   0.972   2.169   2.475  2.1948 -2.1175  3.6218
  563SOL     OW 1687   0.684   2.445   2.593 -0.0318  0.1919  0.1929
  563SOL    HW1 1688   0.748   2.366   2.599 -0.6251  0.2835  1.1114
  563SOL    HW2 1689   0.633   2.470   2.678 -1.1246  0.0472 -5.5629
  564SOL     OW 1690   2.762   1.300   2.903  0.7685 -0.0362  0.6681
  564SOL    HW1 1691   2.679   1.312   2.968  0.0372 -0.0970  0.3894
  564SOL    HW2 1692   2.793   1.393   2.870 -3.1712  0.0299  0.5028
  565SOL     OW 1693   2.537   1.993   2.569  0.2458  0.4160  0.1934
  565SOL    HW1 1694   2.455   2.035   2.523  1.2570  0.5836 -0.3566
  565SOL    HW2 1695   2.557   2.032   2.662 -2.1529  1.3082 -0.9045
  566SOL     OW 1696   2.010   2.871   1.321  0.0531 -0.2401  0.1790
  566SOL    HW1 1697   1.943   2.795   1.295 -0.4910 -2.2968  0.9824
  566SOL    HW2 1698   2.068   2.903   1.237  0.5589  1.6067 -2.5509
  567SOL     OW 1699   2.446   0.130   2.226  0.4742 -0.0547  0.7744
  567SOL    HW1 1700   2.390   0.062   2.174 -2.7657  0.0880  2.8559
  567SOL    HW2 1701   2.431   0.232   2.199  1.2853  1.1265 -0.1994
  568SOL     OW 1702   1.549   1.816   0.277 -0.0605  0.0193 -0.5989
  568SOL    HW1 1703   1.496   1.893   0.234 -1.0697 -0.3173 -0.2724
  568SOL    HW2 1704   1.642   1.808   0.236  0.1396 -0.7549 -4.6804
  569SOL     OW 1705   0.306   0.645   0.826 -0.2004 -0.5595  0.5259
  569SOL    HW1 1706   0.364   0.590   0.761 -1.8849  4.6279 -0.2876
  569SOL    HW2 1707   0.224   0.599   0.868  2.1679  1.0281 -0.7538
  570SOL     OW 1708   0.649   0.741   2.839  0.8261  0.1024  0.1812
  570SOL    HW1 1709   0.690   0.750   2.745 -2.6462  0.0575  1.7510
  570SOL    HW2 1710   0.644   0.831   2.889  3.1283 -1.7595  1.9938
  571SOL     OW 1711   0.861   3.061   1.105 -0.5082  0.1655  0.2500
  571SOL    HW1 1712   0.893   3.126   1.032 -0.3786 -0.4488  0.1413
  571SOL    HW2 1713   0.899   2.964   1.092  0.8310 -0.8918  0.3381
  572SOL     OW 1714   1.571   2.642   1.136 -0.0193  0.0403 -0.1189
  572SOL    HW1 1715   1.497   2.576   1.179 -0.5761 -0.6029  0.3065
  572SOL    HW2 1716   1.531   2.739   1.116  1.4441  2.0225  1.3034
  573SOL     OW 1717   2.926   0.418   2.054 -0.0378 -0.3549  0.1841
  573SOL    HW1 1718   2.870   0.330   2.055  0.2240 -3.1166 -1.0538
  573SOL    HW2 1719   2.871   0.495   2.003 -0.9041 -1.1788 -0.5909
  574SOL     OW 1720   0.212   1.776   0.995  0.2894 -0.1182  0.0423
  574SOL    HW1 1721   0.219   1.877   0.974  1.8730 -1.0697 -1.7806
  574SOL    HW2 1722   0.122   1.741   1.041 -1.5796 -1.3586 -3.2962
  575SOL     OW 1723   0.806   2.163   0.965  0.4699 -0.1602  0.1456
  575SOL    HW1 1724   0.816   2.194   1.066  1.5492 -0.4300  2.0211
  575SOL    HW2 1725   0.858   2.219   0.895 -0.7300  1.1516 -0.4769
  576SOL     OW 1726   2.935   2.927   1.702 -0.2236  0.2081 -0.4698
  576SOL    HW1 1727   2.885   2.872   1.635  1.0168  0.9914 -1.3327
  576SOL    HW2 1728   2.942   3.026   1.685  2.8374 -0.0490  0.8098
  577SOL     OW 1729   2.545   1.241   3.087 -0.0445 -0.4687  0.3364
  577SOL    HW1 1730   2.561   1.149   3.045  0.3458 -1.2297 -0.0007
  577SOL    HW2 1731   2.590   1.260   3.176 -3.3956  0.8467 -0.7547
  578SOL     OW 1732   1.314   2.690   2.581  0.7465 -0.6382  0.7689
  578SOL    HW1 1733   1.244   2.707   2.499 -1.0725 -3.7287 -1.3412
  578SOL    HW2 1734   1.373   2.773   2.607 -1.6262  1.5479 -1.0521
  579SOL     OW 1735   0.119   2.512   0.106  0.0987 -0.1427  0.1851
  579SOL    HW1 1736   0.089   2.540   0.202 -1.5803 -0.6445 -0.1196
  579SOL    HW2 1737   0.214   2.476   0.108  1.0564  0.6554  1.3936
  580SOL     OW 1738   1.004   2.604   0.382 -0.1787 -0.3235 -0.1940
  580SOL    HW1 1739   1.093   2.618   0.333  1.6599 -1.0018  0.2511
  580SOL    HW2 1740   0.931   2.570   0.313 -0.6719 -2.1791 -0.1221
  581SOL     OW 1741   1.232   2.618   1.513 -0.3072 -0.5708 -0.2644
  581SOL    HW1 1742   1.257   2.539   1.453 -2.0021 -1.2833  0.5635
  581SOL    HW2 1743   1.288   2.701   1.484  0.0014 -0.6983  3.5390
  582SOL     OW 1744   1.491   0.092   1.826 -0.0035  0.2168 -0.7963
  582SOL    HW1 1745   1.503   0.173   1.891  1.0744  0.5716  0.5527
  582SOL    HW2 1746   1.572   0.064   1.767 -1.9410 -1.2685  1.1248
  583SOL     OW 1747   2.504   2.974   0.533  0.3322  0.2482 -0.2748
  583SOL    HW1 1748   2.530   2.912   0.456  0.5126 -1.0479 -0.1733
  583SOL    HW2 1749   2.453   2.937   0.623 -0.1190  0.4171 -0.4815
  584SOL     OW 1750   1.617   1.023   2.086  0.0398 -0.3263  0.1226
  584SOL    HW1 1751   1.651   1.072   2.004  2.3534 -0.7991 -0.0017
  584SOL    HW2 1752   1.683   0.952   2.124  0.1002  0.4513  2.3557
  585SOL     OW 1753   2.090   2.650   2.911  0.1443  0.6883  0.7226
  585SOL    HW1 1754   2.125   2.551   2.891 -1.3230  0.3675  0.7451
  585SOL    HW2 1755   1.985   2.662   2.918 -3.7986  1.4297 -0.5310
  586SOL     OW 1756   2.733   0.237   1.518 -0.2399 -0.5756  0.0632
  586SOL    HW1 1757   2.780   0.302   1.586 -1.2553 -0.0185  4.5906
  586SOL    HW2 1758   2.648   0.197   1.552  0.1405 -0.3219 -0.2496
  587SOL     OW 1759   1.970   1.607   2.739 -0.0061 -0.5667  0.0207
  587SOL    HW1 1760   2.025   1.578   2.659  0.1841 -0.0239  1.0631
  587SOL    HW2 1761   2.015   1.578   2.830  1.5134  1.4770  2.4545
  588SOL     OW 1762   0.461   2.735   2.234 -0.3569 -0.1845  0.5702
  588SOL    HW1 1763   0.371   2.700   2.205  0.2592  1.1748 -1.9202
  588SOL    HW2 1764   0.502   2.674   2.307  0.4960 -1.6815  0.6634
  589SOL     OW 1765   2.105   1.441   2.542 -0.0752  0.0626 -0.4036
  589SOL    HW1 1766   2.048   1.389   2.470 -0.6009  0.7452 -0.2816
  589SOL    HW2 1767   2.190   1.389   2.572  0.6116 -1.9549  3.0063
  590SOL     OW 1768   2.364   1.670   2.028 -0.3023  0.0209 -0.0524
  590SOL    HW1 1769   2.445   1.614   1.992  0.0808 -0.5356 -0.7068
  590SOL    HW2 1770   2.376   1.698   2.128 -1.2602 -0.5782  1.4030
  591SOL     OW 1771   1.381   2.417   0.268  0.6704 -0.1403 -0.6777
  591SOL    HW1 1772   1.477   2.429   0.229  2.0877  0.7197 -0.4035
  591SOL    HW2 1773   1.375   2.379   0.366  0.2084 -1.6391 -0.0992
  592SOL     OW 1774   1.772   2.371   0.799  0.4668 -0.1036  0.2062
  592SOL    HW1 1775   1.730   2.393   0.710 -0.5700  0.5305  2.1349
  592SOL    HW2 1776   1.878   2.354   0.797  0.8439  0.4175 -0.8253
  593SOL     OW 1777   0.649   0.268   0.082  0.8465  0.6273  0.5364
  593SOL    HW1 1778   0.738   0.237   0.039  1.3074  1.3154 -1.5222
  593SOL    HW2 1779   0.644   0.369   0.129  1.1234  1.1479  4.2468
  594SOL     OW 1780   0.971   1.886   2.698  0.5810 -0.6065  0.6458
  594SOL    HW1 1781   1.059   1.867   2.745  1.0396 -0.1258 -0.8569
  594SOL    HW2 1782   0.912   1.955   2.752  0.8669 -0.8312  1.2010
  595SOL     OW 1783   1.527   0.059   1.015 -0.7244  0.7167  0.0751
  595SOL    HW1 1784   1.596  -0.018   1.019 -0.8593  1.7119  0.4312
  595SOL    HW2 1785   1.463   0.045   0.939  1.0020 -2.2439  0.3449
  596SOL     OW 1786   3.075   1.470   2.210 -0.0624  0.7733  0.3819
  596SOL    HW1 1787   2.977   1.456   2.225  1.1846 -0.0167 -2.2881
  596SOL    HW2 1788   3.120   1.535   2.281  2.7426  2.2758  0.4389
  597SOL     OW 1789   2.058   2.617   1.643  0.4521 -0.3789  0.0221
  597SOL    HW1 1790   2.067   2.563   1.553 -1.8802  2.1103  2.5729
  597SOL    HW2 1791   2.134   2.589   1.709  1.3110 -1.2592 -1.3775
  598SOL     OW 1792   2.464   2.935   1.358  0.2067  0.1327 -0.8637
  598SOL    HW1 1793   2.562   2.948   1.392 -1.3783 -1.5040 -2.0701
  598SOL    HW2 1794   2.457   2.848   1.298  0.7634  1.1347 -0.9523
  599SOL     OW 1795   2.936   0.398   2.458  0.1847  0.4352  0.5644
  599SOL    HW1 1796   2.960   0.494   2.427 -0.5289 -0.9370 -1.0731
  599SOL    HW2 1797   2.840   0.371   2.428 -0.5686 -1.5073 -1.6103
  600SOL     OW 1798   2.826   1.123   2.703 -0.0260 -0.5650  0.4574
  600SOL    HW1 1799   2.790   1.024   2.713 -3.2405 -0.1305 -0.9991
  600SOL    HW2 1800   2.785   1.195   2.775  1.1654  1.9521  1.9442
  601SOL     OW 1801   3.022   1.263   1.975 -1.2590  0.1634 -0.3923
  601SOL    HW1 1802   2.941   1.314   1.936  1.6527  0.5575 -2.9795
  601SOL    HW2 1803   3.100   1.330   1.981  0.0590  2.4409  0.2866
  602SOL     OW 1804   1.440   1.702   2.373  0.3182 -0.5062 -0.3005
  602SOL    HW1 1805   1.401   1.606   2.367 -1.8291  0.0442  1.8144
  602SOL    HW2 1806   1.539   1.699   2.379 -3.1548 -1.1139  1.5263
  603SOL     OW 1807   0.639   1.245   2.683  0.0846 -0.7736  0.6358
  603SOL    HW1 1808   0.549   1.237   2.630 -0.2379  2.2557 -1.0058
  603SOL    HW2 1809   0.709   1.168   2.666 -0.8760  0.4156 -0.5739
  604SOL     OW 1810   2.406   0.994   0.148  0.2622  0.5677 -0.4361
  604SOL    HW1 1811   2.466   1.071   0.118  1.3777 -4.6192  1.7215
  604SOL    HW2 1812   2.416   0.903   0.099 -2.0047  1.1438 -1.9805
  605SOL     OW 1813   2.643   1.153   1.944 -0.2976 -0.1035 -0.3343
  605SOL    HW1 1814   2.602   1.072   1.903 -1.1410  1.0616  0.4109
  605SOL    HW2 1815   2.607   1.184   2.036  0.4718  1.0602  1.5880
  606SOL     OW 1816   1.519   2.504   2.657  0.0584 -0.1658 -0.1929
  606SOL    HW1 1817   1.434   2.564   2.646 -3.3724  0.1570  1.8965
  606SOL    HW2 1818   1.507   2.411   2.612  2.7333  1.4042  0.3016
  607SOL     OW 1819   1.382   1.602   0.397 -0.0618  0.2230  0.0292
  607SOL    HW1 1820   1.402   1.587   0.499 -0.8333 -0.3260  0.2707
  607SOL    HW2 1821   1.414   1.690   0.358  0.3686  0.8338  2.4023
  608SOL     OW 1822   1.442   2.823   0.405  0.4011 -0.1845 -0.4269
  608SOL    HW1 1823   1.512   2.881   0.351 -0.3512  1.5287 -2.6205
  608SOL    HW2 1824   1.378   2.882   0.463 -0.3557 -1.9250  0.9751
  609SOL     OW 1825   1.262   1.397   0.269  0.0751  0.5949 -0.1856
  609SOL    HW1 1826   1.294   1.476   0.328  0.2436 -0.4448  1.9009
  609SOL    HW2 1827   1.171   1.411   0.225  3.4903  1.3142  1.4410
  610SOL     OW 1828   3.016   1.133   2.229  0.5616  0.1547 -0.7072
  610SOL    HW1 1829   2.978   1.036   2.227 -1.3481  1.1099 -1.1724
  610SOL    HW2 1830   3.035   1.173   2.138  2.7089 -2.0487 -0.8441
  611SOL     OW 1831   2.564   0.310   1.170  0.7631 -0.4490  0.1018
  611SOL    HW1 1832   2.520   0.223   1.210 -1.0739 -0.7127 -1.2184
  611SOL    HW2 1833   2.658   0.328   1.210 -0.0333  1.2055  0.0588
  612SOL     OW 1834   0.806   2.234   1.240 -0.7507  0.2754 -0.1494
  612SOL    HW1 1835   0.736   2.165   1.276 -0.3860 -1.5171 -1.4327
  612SOL    HW2 1836   0.759   2.316   1.193  0.7300  1.2005 -0.9092
  613SOL     OW 1837   0.837   1.412   2.426 -0.1863 -0.2294  0.1501
  613SOL    HW1 1838   0.863   1.416   2.328 -2.4656  2.1874 -0.3269
  613SOL    HW2 1839   0.755   1.351   2.439 -0.2819 -1.3791 -0.1313
  614SOL     OW 1840   1.640   1.644   1.921 -0.4426  0.4057  0.4351
  614SOL    HW1 1841   1.563   1.703   1.960 -2.0338 -0.6532 -1.9622
  614SOL    HW2 1842   1.714   1.619   1.990 -1.5528  1.5467  1.8697
  615SOL     OW 1843   0.791   1.270   1.684 -0.1107  0.1857 -0.3469
  615SOL    HW1 1844   0.701   1.286   1.621 -1.1452  0.3310 -2.6796
  615SOL    HW2 1845   0.870   1.340   1.667  0.9207  1.7967  0.6774
  616SOL     OW 1846   1.073   1.610   2.305 -0.0970 -0.1868  0.5390
  616SOL    HW1 1847   0.985   1.598   2.242 -2.7554 -0.5878  0.9651
  616SOL    HW2 1848   1.113   1.709   2.305 -1.5052 -0.0629 -0.1600
  617SOL     OW 1849   2.912   1.537   1.614 -0.2608  0.0434  0.1674
  617SOL    HW1 1850   2.898   1.471   1.689 -1.7012  0.5149 -1.7464
  617SOL    HW2 1851   2.949   1.487   1.528 -1.0998 -3.0557 -0.0872
  618SOL     OW 1852   1.941   2.065   1.311  0.7570 -0.5677  0.5265
  618SOL    HW1 1853   1.902   2.117   1.230 -0.1523 -1.0333 -0.7028
  618SOL    HW2 1854   1.954   1.965   1.302  1.3840  1.9700 -1.8987
  619SOL     OW 1855   1.747   0.475   2.371  0.2778 -0.2954  0.3588
  619SOL    HW1 1856   1.673   0.522   2.313  0.2424  0.1143 -0.0581
  619SOL    HW2 1857   1.743   0.370   2.381  0.3085 -0.1482 -3.0804
  620SOL     OW 1858   2.332   2.957   0.752  0.0472  0.2494 -0.0765
  620SOL    HW1 1859   2.295   3.050   0.764  0.3459  0.2992 -0.8597
  620SOL    HW2 1860   2.337   2.900   0.844  0.5902  1.1715  3.3862
  621SOL     OW 1861   2.101   1.816   1.326  0.4829  0.0531 -0.7205
  621SOL    HW1 1862   2.104   1.817   1.429  2.6070 -1.3168  0.1132
  621SOL    HW2 1863   2.056   1.730   1.286 -0.2759  2.4273 -0.4162
  622SOL     OW 1864   2.293   0.912   1.792  0.4996 -0.0802 -0.6077
  622SOL    HW1 1865   2.393   0.926   1.767 -3.1923  1.3494 -1.4706
  622SOL    HW2 1866   2.276   0.846   1.872 -1.2280 -2.0419 -0.0773
  623SOL     OW 1867   1.337   0.791   2.482  0.0837 -0.0296  1.2329
  623SOL    HW1 1868   1.252   0.734   2.482 -1.3894 -1.0017  0.9472
  623SOL    HW2 1869   1.329   0.895   2.476 -1.0361  2.5461  2.2447
  624SOL     OW 1870   0.561   0.677   3.082 -0.4187  0.5003 -0.2064
  624SOL    HW1 1871   0.619   0.680   2.995 -0.1986 -2.4350 -2.0876
  624SOL    HW2 1872   0.551   0.764   3.133 -1.0898  1.4264 -0.8364
  625SOL     OW 1873   2.774   1.722   0.998  0.4566 -0.1040 -0.0219
  625SOL    HW1 1874   2.684   1.776   0.997 -0.3363  1.5255  0.6594
  625SOL    HW2 1875   2.856   1.781   0.992 -0.9322 -0.2127  1.8585
  626SOL     OW 1876   0.617   2.703   1.704 -0.3833  0.0689 -0.3239
  626SOL    HW1 1877   0.674   2.765   1.767 -0.7710 -0.0600  3.1200
  626SOL    HW2 1878   0.513   2.714   1.717 -0.0899  2.4735  0.3365
  627SOL     OW 1879   0.692   0.953   1.558 -0.0380 -0.1259 -0.3545
  627SOL    HW1 1880   0.622   0.898   1.505 -2.8059 -2.1938 -0.1520
  627SOL    HW2 1881   0.764   1.001   1.501 -1.4635  1.3597  2.7320
  628SOL     OW 1882   2.495   0.131   0.658 -0.1175 -0.4791  0.2120
  628SOL    HW1 1883   2.510   0.053   0.584  0.7044 -0.1599 -0.3819
  628SOL    HW2 1884   2.404   0.128   0.706  1.6264 -0.0590  0.8440
  629SOL     OW 1885   1.943   0.928   2.085  0.3451 -0.1857 -0.2646
  629SOL    HW1 1886   1.974   0.957   1.987  2.4919 -2.0460 -1.3842
  629SOL    HW2 1887   1.948   1.009   2.148  2.3837  0.7771 -0.7703
  630SOL     OW 1888   2.925   2.324   0.821  0.7817 -0.4103  0.2705
  630SOL    HW1 1889   2.851   2.394   0.820  0.6208 -1.9550  0.9084
  630SOL    HW2 1890   2.892   2.229   0.793 -1.7118 -0.0471 -0.1265
  631SOL     OW 1891   3.078   0.144   2.177 -0.4037  0.3780 -0.5337
  631SOL    HW1 1892   3.102   0.189   2.271  2.0571 -1.0444  2.7432
  631SOL    HW2 1893   3.084   0.203   2.094  0.5490 -0.3578  0.2948
  632SOL     OW 1894   2.459   2.587   0.641 -0.3534  0.7933 -0.3708
  632SOL    HW1 1895   2.523   2.663   0.658 -1.2620 -0.8463  0.0572
  632SOL    HW2 1896   2.398   2.601   0.560  2.9321 -0.6675  2.0418
  633SOL     OW 1897   1.450   1.231   2.669 -0.1091 -0.1599 -0.4535
  633SOL    HW1 1898   1.426   1.311   2.729 -2.2506  0.6236 -1.1800
  633SOL    HW2 1899   1.384   1.203   2.591 -1.6195 -0.6719  0.6810
  634SOL     OW 1900   0.638   1.982   0.874  0.1840 -0.0213  0.0598
  634SOL    HW1 1901   0.555   2.021   0.928  1.0166  1.5042 -0.2032
  634SOL    HW2 1902   0.723   2.038   0.906  0.2619 -1.3526  1.2406
  635SOL     OW 1903   3.002   2.341   0.059  0.1865 -0.4168  0.0884
  635SOL    HW1 1904   2.942   2.393  -0.010  0.5076  0.1457 -1.3813
  635SOL    HW2 1905   3.087   2.401   0.086  1.3788  1.2129  0.6102
  636SOL     OW 1906   2.330   2.740   1.953 -0.3174  0.0216 -0.2918
  636SOL    HW1 1907   2.337   2.835   1.988  0.8986 -0.1927 -2.5302
  636SOL    HW2 1908   2.274   2.677   2.018  2.3371  1.1497  0.7863
  637SOL     OW 1909   2.743   0.625   1.962 -0.2956  0.1739  0.0190
  637SOL    HW1 1910   2.677   0.632   1.878 -1.6088  0.1252 -3.6096
  637SOL    HW2 1911   2.757   0.721   2.007  2.1485 -1.6126 -1.5099
  638SOL     OW 1912   2.420   1.835   1.308 -0.1242 -0.6346 -0.1293
  638SOL    HW1 1913   2.322   1.863   1.322  0.0204  1.7743  1.2068
  638SOL    HW2 1914   2.452   1.763   1.371 -2.0005  2.7188  2.9262
  639SOL     OW 1915   1.299   2.159   1.699 -0.2534 -0.8724 -0.0379
  639SOL    HW1 1916   1.344   2.241   1.661 -0.2239 -2.6820 -1.6052
  639SOL    HW2 1917   1.206   2.175   1.740  0.1527 -0.1160 -2.2617
  640SOL     OW 1918   0.219   1.199   1.584  0.0004 -0.1598 -0.6593
  640SOL    HW1 1919   0.223   1.213   1.686  0.1276  1.4187 -2.4271
  640SOL    HW2 1920   0.290   1.127   1.566 -0.7562  0.2214 -0.4763
  641SOL     OW 1921   2.011   0.316   1.458 -0.7324 -0.3057  0.4342
  641SOL    HW1 1922   1.960   0.350   1.542 -0.9838 -0.3777  3.6976
  641SOL    HW2 1923   2.097   0.265   1.483  0.1403  0.1761 -1.3683
  642SOL     OW 1924   2.015   0.041   0.327 -0.1121 -0.4780 -0.1606
  642SOL    HW1 1925   2.115   0.038   0.354  0.5370  1.5638 -3.2413
  642SOL    HW2 1926   1.959   0.099   0.389 -1.0379 -1.8231  0.4155
  643SOL     OW 1927   2.924   1.790   2.123  0.1802  0.4090  0.0270
  643SOL    HW1 1928   2.860   1.756   2.047  0.6095 -1.4903 -0.4703
  643SOL    HW2 1929   2.952   1.887   2.100 -0.2747 -0.7758 -0.7576
  644SOL     OW 1930   2.263   2.399   1.200 -0.3401 -0.1934 -0.3285
  644SOL    HW1 1931   2.317   2.320   1.164 -1.6929 -0.0654  1.7627
  644SOL    HW2 1932   2.247   2.392   1.302  0.7189  2.2575 -0.9884
  645SOL     OW 1933   0.570   0.868   1.282  0.1783  0.5710 -0.1936
  645SOL    HW1 1934   0.467   0.846   1.275  1.3119 -4.9427  1.1118
  645SOL    HW2 1935   0.618   0.921   1.210 -0.1991 -0.7295 -0.0846
  646SOL     OW 1936   1.466   1.820   2.041  0.1342 -0.6615 -0.1178
  646SOL    HW1 1937   1.546   1.877   2.006 -1.4565  1.3061  1.3581
  646SOL    HW2 1938   1.454   1.819   2.145 -1.0877  0.8155 -0.0406
  647SOL     OW 1939   0.824   1.025   0.640 -0.9723 -0.0171  0.7098
  647SOL    HW1 1940   0.875   1.068   0.717 -0.7626 -1.0109  1.8484
  647SOL    HW2 1941   0.760   0.947   0.668 -2.4964 -2.1697  1.2104
  648SOL     OW 1942   0.151   0.228   0.233  0.3721 -0.0068  0.2276
  648SOL    HW1 1943   0.213   0.168   0.178  1.3399  2.1135  1.1977
  648SOL    HW2 1944   0.153   0.327   0.198 -0.2591  3.0443  0.6151
  649SOL     OW 1945   3.002   0.247   0.860 -0.2237  0.2859  0.3349
  649SOL    HW1 1946   3.079   0.179   0.885  0.0826 -1.3186 -1.3568
  649SOL    HW2 1947   3.035   0.347   0.865  2.5123 -1.2719  0.7340
  650SOL     OW 1948   2.734   0.636   1.505  0.3730  0.2433 -0.5102
  650SOL    HW1 1949   2.642   0.652   1.544  1.4114  1.4311 -1.3600
  650SOL    HW2 1950   2.761   0.711   1.435 -0.4822  0.4676  0.5597
  651SOL     OW 1951   0.927   1.514   1.617  0.2370 -0.2858 -0.5174
  651SOL    HW1 1952   0.947   1.610   1.656 -1.0478  2.1546 -0.7300
  651SOL    HW2 1953   0.994   1.498   1.536  0.1056  1.7576 -0.8535
  652SOL     OW 1954   2.316   2.400   2.435 -0.1257 -0.0700 -0.4155
  652SOL    HW1 1955   2.234   2.449   2.478 -0.9508  0.0573 -0.1470
  652SOL    HW2 1956   2.337   2.441   2.345 -1.2513 -1.2064 -1.6423
  653SOL     OW 1957   2.682   1.261   0.234 -0.5039 -0.2608 -0.3913
  653SOL    HW1 1958   2.694   1.360   0.260 -1.9494 -1.9416 -0.4767
  653SOL    HW2 1959   2.754   1.199   0.274 -2.1750 -1.4455 -3.2865
  654SOL     OW 1960   1.275   2.230   1.292  0.1653 -0.0739  0.4382
  654SOL    HW1 1961   1.274   2.142   1.351 -0.4198 -0.6977  0.6663
  654SOL    HW2 1962   1.289   2.202   1.194 -1.5076  0.7035  1.6265
  655SOL     OW 1963   0.198   0.925   1.867 -0.1476  0.2772  0.0129
  655SOL    HW1 1964   0.261   0.875   1.798 -0.3431 -0.4487 -1.0500
  655SOL    HW2 1965   0.215   1.028   1.867  0.0318 -1.3089  1.1025
  656SOL     OW 1966   2.556   2.470   2.615  0.1078 -0.5894 -0.0615
  656SOL    HW1 1967   2.654   2.442   2.595  0.2207 -2.2659  1.8028
  656SOL    HW2 1968   2.483   2.427   2.549 -0.9604 -2.4391  0.4707
  657SOL     OW 1969   3.000   0.999   1.877  0.0024 -0.6085  0.4979
  657SOL    HW1 1970   3.004   1.101   1.903  1.4517  0.2120 -2.7826
  657SOL    HW2 1971   3.087   0.951   1.863 -1.4784  0.8673 -0.6043
  658SOL     OW 1972   1.721   0.208   2.369 -0.1261 -0.3238  0.1748
  658SOL    HW1 1973   1.732   0.128   2.438 -0.2670 -1.9083 -0.3047
  658SOL    HW2 1974   1.732   0.177   2.275  1.0233  1.6242  1.7350
  659SOL     OW 1975   1.400   0.606   2.834  0.2523 -0.2084  0.6764
  659SOL    HW1 1976   1.463   0.683   2.798  0.6887  2.2607 -1.3018
  659SOL    HW2 1977   1.312   0.647   2.873  2.5140  0.4820 -0.2610
  660SOL     OW 1978   1.383   0.345   1.426 -0.4271 -0.1046  0.0629
  660SOL    HW1 1979   1.376   0.372   1.529 -2.6486 -2.2328  2.1771
  660SOL    HW2 1980   1.466   0.280   1.393  2.0101  0.4832 -1.3278
  661SOL     OW 1981   2.369   1.230   0.669 -0.6742 -0.4307 -0.6294
  661SOL    HW1 1982   2.393   1.237   0.574 -2.0286  1.7705  2.4492
  661SOL    HW2 1983   2.317   1.316   0.696  0.9443  1.3698 -0.4061
  662SOL     OW 1984   1.387   0.406   1.748 -0.1970 -0.2894  0.1031
  662SOL    HW1 1985   1.311   0.354   1.800 -0.9505  1.9319 -0.1486
  662SOL    HW2 1986   1.382   0.509   1.762  1.4347  0.8389 -3.2235
  663SOL     OW 1987   0.863   1.575   2.138  0.2762  1.0355  1.0184
  663SOL    HW1 1988   0.823   1.667   2.156  2.6605 -0.9980  0.7605
  663SOL    HW2 1989   0.811   1.534   2.058 -0.4767  0.0408 -2.2878
  664SOL     OW 1990   1.652   2.072   1.397  0.0426 -0.4172 -0.0365
  664SOL    HW1 1991   1.596   2.021   1.464  1.5003  1.2195  1.1534
  664SOL    HW2 1992   1.740   2.021   1.368  0.2721 -1.1442 -1.1522
  665SOL     OW 1993   2.308   0.691   1.975  0.0680  0.2118  0.5092
  665SOL    HW1 1994   2.248   0.612   1.995  0.7699  1.6218  0.7459
  665SOL    HW2 1995   2.392   0.698   2.043  1.9223  2.8987  0.7625
  666SOL     OW 1996   0.510   2.275   0.353 -0.1751  0.9681 -0.2289
  666SOL    HW1 1997   0.553   2.339   0.423 -1.5058  0.5150  2.3085
  666SOL    HW2 1998   0.403   2.274   0.354 -0.3446  2.1524  0.3460
  667SOL     OW 1999   1.969   0.217   1.055  0.4865 -0.0785  0.5694
  667SOL    HW1 2000   2.003   0.317   1.048  0.9209 -0.9845 -0.5330
  667SOL    HW2 2001   1.898   0.208   1.128  0.3046  0.6166 -1.3606
  668SOL     OW 2002   2.011   0.492   1.134  0.1634 -0.5634  0.0280
  668SOL    HW1 2003   2.088   0.492   1.061 -0.4233 -1.1765  1.5303
  668SOL    HW2 2004   2.055   0.524   1.219 -1.0761  0.2435 -2.6978
  669SOL     OW 2005   3.073   2.176   1.013  0.0856 -0.3059  0.1994
  669SOL    HW1 2006   3.045   2.236   0.937 -1.0478 -0.8731  1.2039
  669SOL    HW2 2007   3.024   2.199   1.102  2.2498 -2.0397 -2.1750
  670SOL     OW 2008   2.891   2.319   2.105  0.5848 -0.3881 -0.5202
  670SOL    HW1 2009   2.808   2.297   2.156  1.4898  0.0684 -2.3730
  670SOL    HW2 2010   2.884   2.415   2.067 -1.6104  2.5509 -0.0426
  671SOL     OW 2011   1.792   1.812   1.471 -0.2905  0.1638 -0.3674
  671SOL    HW1 2012   1.789   1.796   1.368  1.0791  0.2233 -0.1318
  671SOL    HW2 2013   1.696   1.825   1.505  0.7702  0.9139  1.0235
  672SOL     OW 2014   0.458   0.645   2.415 -0.4150 -0.3131 -0.4725
  672SOL    HW1 2015   0.507   0.652   2.321  0.7402 -1.3064 -2.3182
  672SOL    HW2 2016   0.366   0.686   2.413  1.4427  0.8767 -3.2600
  673SOL     OW 2017   0.158   1.162   1.145  0.0385 -0.3054  0.2267
  673SOL    HW1 2018   0.193   1.227   1.216  2.2443  0.3247 -0.3354
  673SOL    HW2 2019   0.236   1.116   1.092 -1.7927  0.6781 -1.6233
  674SOL     OW 2020   1.637   2.991   0.317  0.5672 -0.3750  0.2193
  674SOL    HW1 2021   1.580   3.075   0.293 -2.2991  1.2394 -2.0006
  674SOL    HW2 2022   1.735   2.993   0.277  0.8654 -0.3371  0.2590
  675SOL     OW 2023   1.731   0.816   2.263  0.5718 -0.3219 -0.6946
  675SOL    HW1 2024   1.827   0.804   2.228  0.3715  0.1935  0.5480
  675SOL    HW2 2025   1.660   0.739   2.237 -0.7119 -0.3235 -0.0502
  676SOL     OW 2026   2.533   1.489   1.924 -0.2574 -0.3779  0.0448
  676SOL    HW1 2027   2.489   1.438   1.840  1.6727 -3.1457  1.8788
  676SOL    HW2 2028   2.540   1.437   2.012 -1.5464  0.4122  1.3744
  677SOL     OW 2029   1.924   0.717   0.921  0.2216  0.4567  0.1453
  677SOL    HW1 2030   1.840   0.744   0.978 -0.6904 -0.9839 -0.8212
  677SOL    HW2 2031   1.939   0.614   0.939 -0.5924  2.0949  1.5482
  678SOL     OW 2032   0.062   0.749   1.592  0.1084  0.1420  0.3039
  678SOL    HW1 2033   0.160   0.714   1.597 -2.1436 -3.7418  1.3039
  678SOL    HW2 2034   0.016   0.746   1.683 -1.8053  1.2912  0.3954
  679SOL     OW 2035   2.560   1.180   1.216 -0.7552  0.0882  0.0275
  679SOL    HW1 2036   2.466   1.204   1.183 -1.3643 -0.9575 -1.2343
  679SOL    HW2 2037   2.576   1.075   1.206 -0.3745 -2.6189 -1.9142
  680SOL     OW 2038   2.834   0.439   1.668  0.4977  0.3033  0.4436
  680SOL    HW1 2039   2.782   0.519   1.621 -0.2344  0.6597  1.8536
  680SOL    HW2 2040   2.933   0.454   1.692 -3.2075  0.9361  0.2429
  681SOL     OW 2041   2.958   0.090   1.595  0.1058  0.5222  0.0073
  681SOL    HW1 2042   3.017   0.097   1.510 -2.3918  0.6922  0.9838
  681SOL    HW2 2043   2.859   0.131   1.580  1.7325  2.8122  1.6234
  682SOL     OW 2044   0.732   0.045   1.341 -0.0746 -0.5903 -0.5902
  682SOL    HW1 2045   0.647  -0.007   1.369  0.0500  1.4129 -0.8477
  682SOL    HW2 2046   0.771   0.019   1.244  1.7527 -0.1970  0.5001
  683SOL     OW 2047   1.397   0.202   2.179 -0.0445  0.1032 -0.2169
  683SOL    HW1 2048   1.396   0.258   2.271 -2.6700  1.2826 -1.3747
  683SOL    HW2 2049   1.468   0.244   2.113 -0.9753 -2.3431  0.1882
  684SOL     OW 2050   1.449   2.065   0.492 -0.6809 -0.6786 -0.7728
  684SOL    HW1 2051   1.505   2.005   0.560 -0.2693  1.3366  0.1685
  684SOL    HW2 2052   1.361   2.018   0.471  0.1517  2.8786 -0.9053
  685SOL     OW 2053   2.202   2.092   1.969  0.3615  0.5022 -0.0167
  685SOL    HW1 2054   2.251   2.107   1.883  1.3069  0.7809  1.6316
  685SOL    HW2 2055   2.260   2.075   2.054 -3.0728  0.4549 -1.3501
  686SOL     OW 2056   1.516   1.845   2.802 -0.4121 -0.1468 -0.0117
  686SOL    HW1 2057   1.541   1.789   2.884 -2.3940 -0.2014  0.8463
  686SOL    HW2 2058   1.438   1.801   2.752  0.8407  2.1931 -0.4646
  687SOL     OW 2059   1.343   2.447   1.981  0.2375 -0.1849 -0.3059
  687SOL    HW1 2060   1.341   2.345   1.965 -0.8870  1.7017  0.0002
  687SOL    HW2 2061   1.393   2.476   2.069 -0.1558 -1.9530  2.0776
  688SOL     OW 2062   2.000   1.546   1.757  0.2770 -0.3540 -0.3655
  688SOL    HW1 2063   2.086   1.603   1.768 -1.8940 -0.4773 -2.5111
  688SOL    HW2 2064   2.021   1.465   1.689  0.5516 -1.6190  1.5613
  689SOL     OW 2065   2.379   1.086   2.763  0.0249 -0.0784 -0.0718
  689SOL    HW1 2066   2.286   1.038   2.756 -1.6846  2.0386 -0.4587
  689SOL    HW2 2067   2.423   1.094   2.858 -1.3750 -1.5346  1.4735
  690SOL     OW 2068   2.216   2.804   0.033  0.0881 -0.1747  0.6701
  690SOL    HW1 2069   2.161   2.751  -0.040 -0.7831 -2.7201  1.6590
  690SOL    HW2 2070   2.156   2.844   0.116  0.5696  2.0461  0.0263
  691SOL     OW 2071   2.599   0.415   2.136  0.1307 -0.0656 -0.6623
  691SOL    HW1 2072   2.657   0.328   2.115  2.6720 -1.4185 -1.8924
  691SOL    HW2 2073   2.601   0.485   2.055  0.9046  0.6969  0.3018
  692SOL     OW 2074   2.672   1.216   0.752  0.4185 -0.2033  0.0581
  692SOL    HW1 2075   2.575   1.205   0.727  2.0134  1.7857 -3.6057
  692SOL    HW2 2076   2.692   1.315   0.773  0.9696  0.4576 -3.5211
  693SOL     OW 2077   2.828   2.950   0.603 -0.5879  0.2801  0.5782
  693SOL    HW1 2078   2.827   3.023   0.679  0.5505 -0.7061  3.3873
  693SOL    HW2 2079   2.810   2.996   0.513 -1.0862 -1.6635  1.2719
  694SOL     OW 2080   2.394   2.246   0.088 -0.2867  0.1289  0.2525
  694SOL    HW1 2081   2.384   2.315   0.166 -3.5575  4.4732 -3.4178
  694SOL    HW2 2082   2.305   2.191   0.069 -2.1555 -2.9693 -0.9305
  695SOL     OW 2083   0.534   2.985   1.474  0.6703  0.9004  0.7977
  695SOL    HW1 2084   0.486   2.893   1.452  0.8882  0.5811  0.4327
  695SOL    HW2 2085   0.474   3.055   1.522  0.5533 -0.3098  2.2331
  696SOL     OW 2086   2.840   2.065   0.765 -0.6486  0.1122 -0.0439
  696SOL    HW1 2087   2.894   1.979   0.792 -0.6666 -0.1601  1.9495
  696SOL    HW2 2088   2.833   2.077   0.662  0.7812  2.5001 -1.0837
  697SOL     OW 2089   1.643   1.949   1.845 -0.7494  0.9682 -0.2822
  697SOL    HW1 2090   1.734   1.899   1.850  1.1896  1.8815 -1.0952
  697SOL    HW2 2091   1.659   2.042   1.794  0.5149  0.6237 -2.1336
  698SOL     OW 2092   2.899   0.399   2.738  0.1496 -0.0902 -0.0881
  698SOL    HW1 2093   2.909   0.380   2.639  1.3089 -2.3712  0.1485
  698SOL    HW2 2094   2.957   0.335   2.794 -0.6635 -2.7947  2.2838
  699SOL     OW 2095   1.540   0.049   2.931 -0.4971  0.4823 -0.0571
  699SOL    HW1 2096   1.486  -0.033   2.897  0.7645  0.6644  0.2157
  699SOL    HW2 2097   1.582   0.112   2.860 -0.7520  0.7570 -2.0475
  700SOL     OW 2098   1.029   2.336   1.389 -0.3902  0.4673 -0.0468
  700SOL    HW1 2099   1.128   2.310   1.373 -2.5401  1.8059 -0.8406
  700SOL    HW2 2100   0.959   2.269   1.355 -2.1305  1.1896 -2.2730
  701SOL     OW 2101   1.932   2.901   3.078 -0.3473 -0.1683 -1.0232
  701SOL    HW1 2102   1.918   2.837   3.158  3.4894 -0.9325  1.4344
  701SOL    HW2 2103   1.928   3.001   3.110 -2.7543  1.4233 -0.1347
  702SOL     OW 2104   2.077   1.325   1.957  0.3074  0.2959  0.3384
  702SOL    HW1 2105   2.153   1.282   1.900 -0.2660 -1.6328 -1.4383
  702SOL    HW2 2106   2.025   1.398   1.901  1.5242  2.3703 -2.4175
  703SOL     OW 2107   1.924   0.922   1.453 -0.4276  0.0888 -0.4464
  703SOL    HW1 2108   1.897   0.834   1.502 -0.4513 -1.4963  0.4136
  703SOL    HW2 2109   2.000   0.967   1.506  0.0052  0.8261  0.7547
  704SOL     OW 2110   0.285   2.025   1.742  0.2993  0.1290 -0.1809
  704SOL    HW1 2111   0.335   1.958   1.798  0.5528 -1.4383 -0.9688
  704SOL    HW2 2112   0.329   2.119   1.732  0.4061 -1.2494 -0.6370
  705SOL     OW 2113   2.553   1.553   0.880 -0.1127 -0.3273 -0.3869
  705SOL    HW1 2114   2.488   1.484   0.839 -0.6871  2.1155 -0.8772
  705SOL    HW2 2115   2.650   1.514   0.897  1.4765 -1.6653  2.1340
  706SOL     OW 2116   0.692   1.710   1.891 -0.5710  0.0780 -0.0734
  706SOL    HW1 2117   0.712   1.614   1.914 -2.0224  0.6153  1.7682
  706SOL    HW2 2118   0.751   1.778   1.945  0.1176  1.5828  1.0993
  707SOL     OW 2119   2.311   1.171   1.873 -0.1678  0.2719 -0.5283
  707SOL    HW1 2120   2.354   1.186   1.964 -0.6000 -0.5727 -1.0444
  707SOL    HW2 2121   2.318   1.072   1.841  1.5986 -0.9526  0.6924
  708SOL     OW 2122   2.969   0.523   3.040  0.6349 -0.2322 -0.1463
  708SOL    HW1 2123   2.988   0.584   2.960  0.4838  0.2863 -0.1954
  708SOL    HW2 2124   2.995   0.425   3.021  1.4033 -3.4193  2.0163
  709SOL     OW 2125   1.829   1.875   0.307 -0.0632  0.2429  0.0834
  709SOL    HW1 2126   1.862   1.967   0.333 -2.8188 -2.0499  0.6978
  709SOL    HW2 2127   1.843   1.855   0.208 -0.2270  2.2293  0.9598
  710SOL     OW 2128   1.696   1.618   2.379 -0.6962  0.2618 -0.3060
  710SOL    HW1 2129   1.788   1.616   2.335 -0.8922 -1.9840  1.1793
  710SOL    HW2 2130   1.699   1.587   2.480  3.3380 -2.5231  0.9733
  711SOL     OW 2131   2.569   2.931   1.097  0.4729  0.3771  0.4862
  711SOL    HW1 2132   2.535   3.027   1.082 -0.4312  1.1488  0.6525
  711SOL    HW2 2133   2.670   2.928   1.089  1.3595 -1.1296  0.8610
  712SOL     OW 2134   1.399   2.167   1.971 -0.4184  0.6173 -0.0735
  712SOL    HW1 2135   1.500   2.200   1.971 -0.0122  1.3614 -0.4660
  712SOL    HW2 2136   1.374   2.111   1.883 -2.5721  0.7604  0.9247
  713SOL     OW 2137   2.785   1.477   2.496  0.0947  0.6269  0.3407
  713SOL    HW1 2138   2.790   1.377   2.473 -1.8774 -1.5061  1.3480
  713SOL    HW2 2139   2.693   1.499   2.542 -0.8864 -0.6670 -0.3638
  714SOL     OW 2140   2.654   0.447   2.416  0.4976  0.2817  0.2150
  714SOL    HW1 2141   2.579   0.437   2.492 -0.1403  1.1021  0.3884
  714SOL    HW2 2142   2.621   0.412   2.320 -1.9685 -0.4971  2.8110
  715SOL     OW 2143   1.536   2.056   1.144  0.4773 -0.8981 -0.5543
  715SOL    HW1 2144   1.447   2.110   1.127 -1.6726  0.2779 -2.0101
  715SOL    HW2 2145   1.563   2.047   1.242 -0.5588  0.8204 -2.6066
  716SOL     OW 2146   1.176   0.121   1.513  0.0891  0.3835  0.4210
  716SOL    HW1 2147   1.092   0.129   1.452  4.2479 -1.4075  2.5476
  716SOL    HW2 2148   1.226   0.206   1.511 -0.1223 -2.0702 -0.6781
  717SOL     OW 2149   1.173   0.552   1.581  0.3993  0.0282 -0.9687
  717SOL    HW1 2150   1.266   0.597   1.601  1.0926 -0.4696  2.3694
  717SOL    HW2 2151   1.171   0.539   1.479  1.6904  3.3192 -1.0931
  718SOL     OW 2152   0.674   0.867   0.986  0.4920 -0.6593  0.1697
  718SOL    HW1 2153   0.662   0.871   0.886  1.7234 -0.0923  1.1517
  718SOL    HW2 2154   0.654   0.962   1.026  0.0330 -0.9640  1.0573
  719SOL     OW 2155   0.684   1.702   2.303  0.7847 -0.5095 -0.0704
  719SOL    HW1 2156   0.744   1.755   2.372  0.3955 -1.1354 -2.1664
  719SOL    HW2 2157   0.650   1.604   2.335 -2.1511 -3.7855 -0.6335
  720SOL     OW 2158   2.191   1.120   0.268 -0.4428 -0.6694 -0.0935
  720SOL    HW1 2159   2.256   1.053   0.223 -0.8847 -0.1753 -0.1899
  720SOL    HW2 2160   2.136   1.075   0.343  2.5113  0.3562 -1.8912
  721SOL     OW 2161   2.260   3.025   2.067  0.5801 -0.0728 -0.2563
  721SOL    HW1 2162   2.202   3.055   1.985  1.0419 -1.9127  0.3673
  721SOL    HW2 2163   2.214   3.041   2.162  1.8079 -0.4814  2.3090
  722SOL     OW 2164   2.294   1.598   0.462 -0.3541  0.1502  0.4046
  722SOL    HW1 2165   2.368   1.568   0.392  2.1393 -1.8426  0.8229
  722SOL    HW2 2166   2.201   1.618   0.416 -3.0624 -0.3969 -0.0934
  723SOL     OW 2167   2.642   2.675   1.882 -0.2077 -0.0821 -0.0888
  723SOL    HW1 2168   2.693   2.751   1.934  0.8132  1.3708 -0.5866
  723SOL    HW2 2169   2.550   2.649   1.928  0.2140  1.2208  0.8128
  724SOL     OW 2170   0.502   2.515   2.404  0.0363  0.0921  0.3195
  724SOL    HW1 2171   0.412   2.527   2.457 -1.8169  2.8624 -0.4084
  724SOL    HW2 2172   0.570   2.461   2.463  0.1629  1.7245  0.4668
  725SOL     OW 2173   2.364   2.718   1.490 -0.4607  0.4212 -0.1349
  725SOL    HW1 2174   2.427   2.798   1.457  0.3648  0.8544 -0.4069
  725SOL    HW2 2175   2.418   2.632   1.532 -0.2057 -0.6491 -0.5718
  726SOL     OW 2176   2.500   2.314   0.733  0.6620 -0.4356  0.3212
  726SOL    HW1 2177   2.484   2.405   0.692 -1.0421  0.7095 -0.6894
  726SOL    HW2 2178   2.474   2.236   0.662 -3.1810  1.0131  1.1965
  727SOL     OW 2179   0.180   3.060   0.102  0.1816 -0.3865 -0.7661
  727SOL    HW1 2180   0.250   3.049   0.026  1.5877 -0.5323 -1.4657
  727SOL    HW2 2181   0.081   3.047   0.071  1.3066 -0.7444  1.2677
  728SOL     OW 2182   2.878   0.688   0.901 -0.2385 -0.0092  0.5047
  728SOL    HW1 2183   2.787   0.691   0.850 -1.1241 -1.0642  0.5689
  728SOL    HW2 2184   2.853   0.659   0.999  0.1905 -2.8230 -0.5959
  729SOL     OW 2185   0.023   2.544   0.713 -0.4045 -0.1037 -0.1739
  729SOL    HW1 2186  -0.009   2.460   0.769 -0.9446 -4.3759  1.1379
  729SOL    HW2 2187   0.108   2.530   0.658 -0.8115 -1.1305 -0.0259
  730SOL     OW 2188   2.575   0.696   0.829  0.6615  0.1974  0.4733
  730SOL    HW1 2189   2.570   0.797   0.853  0.3624 -0.3091  0.5879
  730SOL    HW2 2190   2.617   0.675   0.738  1.5304  1.8233 -1.2955
  731SOL     OW 2191   0.026   2.174   2.432  0.0884 -0.6524 -0.4127
  731SOL    HW1 2192   0.041   2.243   2.508  0.0873 -0.9624  0.5717
  731SOL    HW2 2193  -0.051   2.208   2.372 -0.8592  1.7129  1.0560
  732SOL     OW 2194   1.192   2.838   1.984  0.3823  0.6280 -0.2241
  732SOL    HW1 2195   1.214   2.768   2.061 -0.3848 -1.0190  0.8569
  732SOL    HW2 2196   1.192   2.798   1.886  1.6255 -1.8035 -0.6331
  733SOL     OW 2197   3.029   0.629   2.229 -0.4299 -0.1490  0.2524
  733SOL    HW1 2198   3.103   0.682   2.186 -2.6479 -0.5401 -2.0140
  733SOL    HW2 2199   3.000   0.540   2.175 -1.1689 -1.2559 -0.6141
  734SOL     OW 2200   1.416   0.371   2.680 -0.1726  0.1997  0.3115
  734SOL    HW1 2201   1.426   0.455   2.739 -3.3255 -1.1543  0.8904
  734SOL    HW2 2202   1.333   0.321   2.707 -0.6465  0.4907 -2.2233
  735SOL     OW 2203   2.888   2.611   2.291  0.0003  0.1252  0.0596
  735SOL    HW1 2204   2.866   2.609   2.191  0.1889  3.1059 -3.5951
  735SOL    HW2 2205   2.979   2.652   2.314  1.0432 -0.8309  3.8901
  736SOL     OW 2206   0.931   0.428   2.550 -0.4501 -0.6607 -0.0059
  736SOL    HW1 2207   0.852   0.490   2.568  1.4391 -3.8559  3.9766
  736SOL    HW2 2208   0.919   0.369   2.468  0.9279 -1.4544  1.3626
  737SOL     OW 2209   2.626   0.468   2.828  0.2733 -0.7317 -0.1263
  737SOL    HW1 2210   2.606   0.446   2.927  1.3979  2.3422 -2.3920
  737SOL    HW2 2211   2.717   0.431   2.792  0.5844 -1.5657 -2.4816
  738SOL     OW 2212   1.716   1.255   2.902 -0.2207 -0.5608 -0.2758
  738SOL    HW1 2213   1.820   1.244   2.879 -0.6065  3.7185  0.2358
  738SOL    HW2 2214   1.657   1.221   2.824 -0.7653  0.1576  0.3711
  739SOL     OW 2215   1.760   0.708   0.678  0.0131  0.3550 -0.0498
  739SOL    HW1 2216   1.818   0.724   0.759  1.5659  2.2375 -2.3094
  739SOL    HW2 2217   1.762   0.611   0.640  0.5012 -1.1494  0.0419
  740SOL     OW 2218   1.947   1.903   2.375  0.3091 -0.0735 -0.1900
  740SOL    HW1 2219   2.020   1.831   2.389  1.1598 -2.1625 -3.5959
  740SOL    HW2 2220   1.893   1.884   2.293  2.5076 -0.8017  3.9362
  741SOL     OW 2221   2.580   0.126   2.527  0.3047  0.2973  0.0138
  741SOL    HW1 2222   2.680   0.102   2.521 -1.7479  1.8210 -0.8147
  741SOL    HW2 2223   2.534   0.106   2.438  0.0476  1.8490 -1.6421
  742SOL     OW 2224   2.206   1.375   0.162 -0.2507  0.1271 -0.0018
  742SOL    HW1 2225   2.126   1.437   0.173 -0.9202  3.4002  0.2203
  742SOL    HW2 2226   2.204   1.279   0.205  0.2025 -1.4738  2.8559
  743SOL     OW 2227   1.750   0.613   2.631  0.4593 -0.5662 -0.3693
  743SOL    HW1 2228   1.773   0.570   2.543 -3.9901  2.8526  3.2750
  743SOL    HW2 2229   1.686   0.696   2.608 -2.1442 -0.8024 -1.4224
  744SOL     OW 2230   2.703   2.006   0.063 -0.3984 -0.1887  0.2595
  744SOL    HW1 2231   2.634   2.069   0.091  0.9445 -0.9713 -1.1915
  744SOL    HW2 2232   2.708   1.916   0.114  2.4005  2.9534  1.3115
  745SOL     OW 2233   2.177   2.650   2.138  0.1537 -0.2550  0.0874
  745SOL    HW1 2234   2.078   2.674   2.141  0.1761 -0.6720  1.3435
  745SOL    HW2 2235   2.223   2.694   2.220 -2.6775  2.3380  0.6029
  746SOL     OW 2236   0.006   2.648   1.725 -0.3133  0.1207  0.2917
  746SOL    HW1 2237   0.075   2.572   1.739 -1.4453  1.8253 -2.5196
  746SOL    HW2 2238   0.017   2.720   1.795  0.4695  1.2499 -3.6651
  747SOL     OW 2239   3.075   1.749   1.673 -0.6092  0.0799  0.3854
  747SOL    HW1 2240   3.023   1.667   1.634  1.7303  0.3536  2.5107
  747SOL    HW2 2241   3.156   1.782   1.609  1.6699  4.0050  0.1800
  748SOL     OW 2242   1.814   2.715   2.912  0.0062  0.2628  0.3381
  748SOL    HW1 2243   1.846   2.794   2.968  1.3812  0.7684 -0.3741
  748SOL    HW2 2244   1.713   2.726   2.880  1.8056  0.7471 -1.7108
  749SOL     OW 2245   1.329   3.016   0.853 -0.2195 -0.6620 -0.0949
  749SOL    HW1 2246   1.242   2.963   0.860  3.6346  3.0082  0.8453
  749SOL    HW2 2247   1.405   2.960   0.800  0.5002 -4.8372 -0.6456
  750SOL     OW 2248   2.303   0.202   1.861  0.0305  0.2192 -0.3327
  750SOL    HW1 2249   2.324   0.259   1.780  1.0892 -0.0791  0.6063
  750SOL    HW2 2250   2.305   0.262   1.946 -0.7366  1.9653  1.2916
  751SOL     OW 2251   0.787   2.035   2.839  0.8642 -0.2891  0.5405
  751SOL    HW1 2252   0.858   2.063   2.911 -1.3553  1.1497  0.8560
  751SOL    HW2 2253   0.691   2.030   2.884  1.2097 -2.3956 -1.7415
  752SOL     OW 2254   1.311   0.847   1.268 -0.4590 -0.3589 -0.2015
  752SOL    HW1 2255   1.391   0.914   1.258  0.0074  1.6371 -0.2604
  752SOL    HW2 2256   1.338   0.758   1.317  0.5073  0.1525 -0.3040
  753SOL     OW 2257   0.936   2.641   1.814 -0.0138 -0.0298 -0.1356
  753SOL    HW1 2258   1.035   2.664   1.783  0.6763  2.8608 -0.6574
  753SOL    HW2 2259   0.878   2.724   1.831  0.2320 -1.6656 -2.0831
  754SOL     OW 2260   1.145   1.185   3.028  0.6521 -0.4877 -0.2550
  754SOL    HW1 2261   1.217   1.125   2.996 -1.8908  0.7845  1.7430
  754SOL    HW2 2262   1.179   1.279   3.050  0.2097 -0.5495 -1.4666
  755SOL     OW 2263   2.008   0.499   2.252  0.2218 -0.1205  0.0889
  755SOL    HW1 2264   2.046   0.404   2.260  2.2239 -0.4609  0.9522
  755SOL    HW2 2265   1.908   0.500   2.274  2.4305  0.2617 -4.9092
  756SOL     OW 2266   2.587   1.000   2.963 -0.0666 -0.1179  0.1073
  756SOL    HW1 2267   2.691   1.009   2.977  1.0758 -0.3697 -2.7258
  756SOL    HW2 2268   2.557   0.905   3.003  0.0917  0.3185  1.0206
  757SOL     OW 2269   0.095   0.473   2.017 -0.2546 -0.6928 -0.3410
  757SOL    HW1 2270   0.141   0.408   1.951 -2.6352 -0.1717  2.2851
  757SOL    HW2 2271   0.002   0.452   2.043 -0.5253  1.1027  0.5082
  758SOL     OW 2272   2.234   0.101   1.476  0.7835  0.3856 -0.5214
  758SOL    HW1 2273   2.228   0.006   1.513 -0.4342  0.7419 -2.1257
  758SOL    HW2 2274   2.289   0.112   1.389  2.5759  0.4992 -0.0941
  759SOL     OW 2275   1.680   0.132   0.073  0.0626  0.0483 -0.1581
  759SOL    HW1 2276   1.614   0.111  -0.003  0.7825 -1.7417 -0.3559
  759SOL    HW2 2277   1.779   0.101   0.049 -1.6086 -1.0937 -1.0438
  760SOL     OW 2278   2.591   2.041   2.841  0.9731 -0.6484  0.1064
  760SOL    HW1 2279   2.609   1.953   2.899  1.4746 -0.3236  0.9058
  760SOL    HW2 2280   2.624   2.127   2.888  0.3738 -0.8155  1.0855
  761SOL     OW 2281   1.857   1.783   1.726 -0.7076  0.0607 -0.3758
  761SOL    HW1 2282   1.888   1.684   1.751  1.4399 -2.1849  0.5074
  761SOL    HW2 2283   1.831   1.786   1.622  1.1135  0.5097 -1.8981
  762SOL     OW 2284   0.494   2.367   0.965  0.3146  0.0265  0.3855
  762SOL    HW1 2285   0.540   2.378   0.871  2.2242  0.6237 -0.0438
  762SOL    HW2 2286   0.553   2.409   1.035 -2.2336 -2.3573  0.8764
  763SOL     OW 2287   2.092   1.582   3.008 -0.5862  0.8125 -0.2315
  763SOL    HW1 2288   2.170   1.522   2.978  1.2135 -1.3804  1.1076
  763SOL    HW2 2289   2.010   1.526   3.047  0.1643 -2.3183 -0.9429
  764SOL     OW 2290   0.685   0.575   0.744  0.2256 -0.6090  0.0030
  764SOL    HW1 2291   0.602   0.516   0.728 -0.6702  0.3418  1.2454
  764SOL    HW2 2292   0.763   0.529   0.804  0.3289 -1.0051  3.7927
  765SOL     OW 2293   0.772   0.250   0.786 -0.3867 -0.2954 -0.5502
  765SOL    HW1 2294   0.832   0.288   0.714 -1.3488 -1.5422  4.3996
  765SOL    HW2 2295   0.741   0.329   0.849  0.3227  2.8941  1.1878
  766SOL     OW 2296   2.859   2.155   2.989  0.2162 -0.5512  0.1382
  766SOL    HW1 2297   2.783   2.114   3.047 -1.9228  1.3237  1.7127
  766SOL    HW2 2298   2.895   2.249   3.020 -0.4679  0.1244  0.9201
  767SOL     OW 2299   2.781   1.678   0.578  0.0927  0.2572  0.3444
  767SOL    HW1 2300   2.676   1.680   0.605 -2.4738 -0.5935  3.7251
  767SOL    HW2 2301   2.836   1.741   0.642 -0.3787  0.3079 -0.4392
  768SOL     OW 2302   1.030   0.083   0.231  0.0375 -0.7651 -0.5299
  768SOL    HW1 2303   0.991   0.080   0.326  1.0303  1.0960 -0.3586
  768SOL    HW2 2304   1.138   0.083   0.232 -0.6504  0.3372  3.0723
  769SOL     OW 2305   1.103   1.879   2.337  0.2876 -0.2168 -0.2439
  769SOL    HW1 2306   1.000   1.896   2.354  0.6041  1.2294  3.2015
  769SOL    HW2 2307   1.150   1.858   2.426  1.4479 -2.0358 -1.2899
  770SOL     OW 2308   0.168   1.161   2.299 -0.2367  0.5710  0.1340
  770SOL    HW1 2309   0.183   1.234   2.373 -2.0341  2.3556 -0.2151
  770SOL    HW2 2310   0.067   1.147   2.286  1.3241  1.1312 -2.3833
  771SOL     OW 2311   3.063   2.839   1.933 -0.3329 -0.4721 -0.1798
  771SOL    HW1 2312   2.993   2.877   1.864 -3.2309  1.8531 -0.8304
  771SOL    HW2 2313   3.053   2.889   2.023  1.0211 -0.6159  0.5101
  772SOL     OW 2314   2.237   0.169   2.871 -0.0190 -0.5198  1.0614
  772SOL    HW1 2315   2.310   0.110   2.828  0.1958 -2.3491 -0.2988
  772SOL    HW2 2316   2.264   0.221   2.956  2.2430 -1.2279 -0.4605
  773SOL     OW 2317   0.654   2.108   2.391  0.4215 -0.4331  0.3822
  773SOL    HW1 2318   0.636   2.173   2.314 -0.4736  3.1446  2.3586
  773SOL    HW2 2319   0.610   2.133   2.476 -1.3367 -0.2766 -0.8965
  774SOL     OW 2320   2.082   3.071   2.596 -0.6072  0.4443  0.5327
  774SOL    HW1 2321   2.093   3.169   2.625 -0.2225  1.7953 -0.9269
  774SOL    HW2 2322   2.127   3.004   2.662 -4.1441  2.4819 -1.8596
  775SOL     OW 2323   2.564   2.975   2.272  0.1619 -0.3844  0.8327
  775SOL    HW1 2324   2.546   3.072   2.256  1.1345 -1.0833  2.1146
  775SOL    HW2 2325   2.619   2.958   2.358  0.1348  0.1690  1.0206
  776SOL     OW 2326   0.021   1.234   0.196 -0.2254  0.1529 -0.0247
  776SOL    HW1 2327  -0.027   1.213   0.103 -1.2219  0.4497 -1.2720
  776SOL    HW2 2328  -0.046   1.221   0.273  1.8546  1.0994  0.1222
  777SOL     OW 2329   0.388   2.890   0.358 -0.5112 -0.2587 -0.4124
  777SOL    HW1 2330   0.282   2.882   0.345 -0.2506 -0.7913 -1.3706
  777SOL    HW2 2331   0.440   2.888   0.266 -2.3862 -0.1806 -2.7426
  778SOL     OW 2332   1.342   1.976   0.164  0.2985  0.0817  0.0735
  778SOL    HW1 2333   1.292   2.000   0.249 -0.0361 -1.1873  1.0447
  778SOL    HW2 2334   1.384   2.055   0.111 -1.1274 -2.7217  0.5664
  779SOL     OW 2335   0.187   0.903   0.490  0.5496 -0.0771  0.3676
  779SOL    HW1 2336   0.164   0.805   0.476 -1.4276 -0.6440  0.5712
  779SOL    HW2 2337   0.121   0.955   0.554 -0.6807 -2.0684 -1.9045
  780SOL     OW 2338   0.101   0.310   2.423 -0.3321 -0.1360  0.0403
  780SOL    HW1 2339   0.068   0.403   2.459 -2.3609 -1.0975 -2.2907
  780SOL    HW2 2340   0.188   0.320   2.371 -1.0172  0.4318 -0.1634
  781SOL     OW 2341   0.655   1.643   1.532 -0.3272 -0.1396  0.1779
  781SOL    HW1 2342   0.693   1.588   1.612  0.0176 -1.3297  1.0065
  781SOL    HW2 2343   0.553   1.656   1.536  0.3071 -0.1432 -0.4161
  782SOL     OW 2344   2.610   0.138   0.913 -0.0303 -0.3530  0.2015
  782SOL    HW1 2345   2.567   0.155   0.818 -3.6954  0.3673 -0.0000
  782SOL    HW2 2346   2.589   0.209   0.986 -2.0698  0.2386 -3.9789
  783SOL     OW 2347   2.788   0.675   2.456  0.0784  0.0725  0.6713
  783SOL    HW1 2348   2.769   0.710   2.546 -0.6490  0.9628 -0.7001
  783SOL    HW2 2349   2.732   0.599   2.428  1.9538  0.3488  1.2165
  784SOL     OW 2350   1.481   2.176   0.025 -0.1315  0.3949 -0.5788
  784SOL    HW1 2351   1.516   2.255   0.080  1.4820  1.8073  1.9209
  784SOL    HW2 2352   1.444   2.207  -0.069  2.0847  2.0735  1.1001
  785SOL     OW 2353   2.077   0.322   0.056  0.4888 -0.0077  0.2548
  785SOL    HW1 2354   2.003   0.331   0.129  2.4597  2.7325  1.9122
  785SOL    HW2 2355   2.105   0.407   0.014 -1.1003 -1.3216 -0.7766
  786SOL     OW 2356   2.073   2.187   2.271 -0.2751 -0.1872  0.8968
  786SOL    HW1 2357   2.029   2.109   2.317  2.9082  1.7755  0.2564
  786SOL    HW2 2358   2.156   2.168   2.214  1.2563  2.0882 -2.0084
  787SOL     OW 2359   1.345   0.485   0.913 -0.0527 -0.6874  0.0391
  787SOL    HW1 2360   1.306   0.571   0.960  0.9514 -2.1722  2.1513
  787SOL    HW2 2361   1.412   0.507   0.838  2.7425 -0.2561 -1.8599
  788SOL     OW 2362   1.281   0.392   0.086  0.7667  0.3868  0.3827
  788SOL    HW1 2363   1.186   0.357   0.070 -3.1043  3.4459 -0.0324
  788SOL    HW2 2364   1.278   0.492   0.111  0.2329  2.6905 -1.8410
  789SOL     OW 2365   2.566   0.072   1.943  0.3180 -0.7303  0.4042
  789SOL    HW1 2366   2.467   0.081   1.908 -2.4275  3.4524 -2.0300
  789SOL    HW2 2367   2.602  -0.020   1.950  1.2558  2.3869  0.5048
  790SOL     OW 2368   2.608   2.806   0.789 -0.2499  0.1769  0.0593
  790SOL    HW1 2369   2.641   2.864   0.711  1.8120 -0.6216  3.1638
  790SOL    HW2 2370   2.622   2.856   0.883  1.2977 -0.4994  0.0460
  791SOL     OW 2371   1.899   1.201   0.215  0.2935 -0.0105 -0.7913
  791SOL    HW1 2372   1.795   1.172   0.231 -2.7792 -1.8057 -0.2593
  791SOL    HW2 2373   1.967   1.123   0.218 -2.5588 -0.8208 -1.8335
  792SOL     OW 2374   0.438   1.779   2.142  0.1228  0.3237  0.1479
  792SOL    HW1 2375   0.513   1.713   2.164  0.3975  1.4196  1.0216
  792SOL    HW2 2376   0.365   1.780   2.214  2.1996 -0.7622  0.8028
  793SOL     OW 2377   2.104   1.555   2.141 -0.2947 -0.4241  0.3168
  793SOL    HW1 2378   2.196   1.602   2.130 -0.8728 -0.2514 -1.1726
  793SOL    HW2 2379   2.102   1.460   2.106 -0.2998  0.3890  0.3322
  794SOL     OW 2380   0.538   1.390   2.344 -0.5009 -0.2488  0.1522
  794SOL    HW1 2381   0.525   1.361   2.247 -0.5773 -1.1595  1.2961
  794SOL    HW2 2382   0.478   1.467   2.372 -0.0720 -0.2187 -1.0874
  795SOL     OW 2383   2.518   2.266   1.838  0.1449 -0.0862  0.2428
  795SOL    HW1 2384   2.524   2.242   1.937 -1.9869 -0.6424  0.0138
  795SOL    HW2 2385   2.428   2.240   1.800  1.6826  0.1324  0.2556
  796SOL     OW 2386   3.089   1.119   2.677  0.2339 -0.0630 -0.1560
  796SOL    HW1 2387   2.988   1.143   2.673 -0.6174  1.0046  1.0997
  796SOL    HW2 2388   3.122   1.135   2.776 -1.1554  0.6012  2.0786
  797SOL     OW 2389   0.745   0.674   1.409 -0.3760 -0.2717 -0.0412
  797SOL    HW1 2390   0.813   0.733   1.461  0.6431 -0.7387 -0.7007
  797SOL    HW2 2391   0.692   0.729   1.341  0.4755 -1.8161 -2.3402
  798SOL     OW 2392   1.273   0.329   1.136 -0.4191 -0.3155  0.2963
  798SOL    HW1 2393   1.329   0.360   1.216  1.9840  0.7696  3.3491
  798SOL    HW2 2394   1.303   0.374   1.051 -0.0293 -2.0663  0.8156
  799SOL     OW 2395   1.963   2.717   1.060 -0.4957  0.2419 -0.1365
  799SOL    HW1 2396   1.888   2.686   1.126  0.0934 -0.5996 -0.5526
  799SOL    HW2 2397   1.932   2.714   0.964  2.2992 -0.6314  3.1472
  800SOL     OW 2398   3.052   0.635   1.822  0.2623  0.4708 -0.1144
  800SOL    HW1 2399   2.971   0.676   1.866  0.1381  1.1279 -2.5066
  800SOL    HW2 2400   3.118   0.586   1.882 -1.3606  0.7557  0.0721
  801SOL     OW 2401   1.967   2.245   0.069 -0.3937 -0.2578  0.0738
  801SOL    HW1 2402   1.880   2.207   0.029 -0.2738 -2.9547  1.7460
  801SOL    HW2 2403   2.048   2.180   0.046  1.9319  1.6568 -0.2838
  802SOL     OW 2404   0.723   0.830   2.561 -0.2395 -0.0225  0.3001
  802SOL    HW1 2405   0.791   0.785   2.502  0.0155  1.2502  0.9394
  802SOL    HW2 2406   0.632   0.856   2.510 -0.1349 -0.9609 -1.7582
  803SOL     OW 2407   0.961   0.068   0.874 -0.1916 -0.4566 -0.2711
  803SOL    HW1 2408   1.053   0.111   0.892  1.3634  0.7023  1.0722
  803SOL    HW2 2409   0.891   0.133   0.843 -1.6939 -3.8265 -0.8300
  804SOL     OW 2410   0.281   0.027   2.138  0.1677  0.1192 -0.4258
  804SOL    HW1 2411   0.291   0.121   2.185 -0.9862 -1.0637  4.0494
  804SOL    HW2 2412   0.218   0.035   2.051 -2.3240 -0.0656  0.2445
  805SOL     OW 2413   2.409   0.263   0.367  0.0655  0.1157 -0.3393
  805SOL    HW1 2414   2.436   0.357   0.405 -2.1295 -0.6213 -1.7943
  805SOL    HW2 2415   2.397   0.263   0.264 -1.8284 -2.6694  2.0857
  806SOL     OW 2416   0.646   2.412   1.677 -0.0800 -0.4845  0.1123
  806SOL    HW1 2417   0.636   2.517   1.685  0.2488  0.1462  0.0428
  806SOL    HW2 2418   0.746   2.384   1.674 -0.3761  1.1260  3.4329
  807SOL     OW 2419   2.466   0.904   0.428  0.7706  0.0449  0.0857
  807SOL    HW1 2420   2.568   0.909   0.440 -1.4091 -1.6826 -0.4403
  807SOL    HW2 2421   2.437   0.939   0.334 -1.6687  0.6148 -0.0475
  808SOL     OW 2422   0.553   2.044   2.996  0.5901  0.2638 -0.4294
  808SOL    HW1 2423   0.545   2.080   3.094 -1.2343 -0.3983  0.3600
  808SOL    HW2 2424   0.526   1.946   2.990  0.0678 -1.5493 -2.4221
  809SOL     OW 2425   2.700   1.934   1.948  0.2892 -0.3752 -0.1244
  809SOL    HW1 2426   2.795   1.978   1.968  3.0447 -1.4044  0.9182
  809SOL    HW2 2427   2.678   1.939   1.847  0.1551 -0.0708 -1.2476
  810SOL     OW 2428   2.109   1.037   0.517 -0.1279 -0.4146  0.2758
  810SOL    HW1 2429   2.171   0.989   0.582 -2.7239  0.6949 -0.8174
  810SOL    HW2 2430   2.048   1.101   0.568  1.3588 -0.9457  1.6406
  811SOL     OW 2431   1.365   2.483   1.281  0.1800  0.2053 -0.3912
  811SOL    HW1 2432   1.382   2.385   1.301 -0.2956  0.9516  0.0157
  811SOL    HW2 2433   1.264   2.501   1.255  0.7491 -0.0091  0.8209
  812SOL     OW 2434   1.449   0.853   1.942 -0.4866 -0.1594 -0.4893
  812SOL    HW1 2435   1.515   0.919   1.992 -0.2881 -0.4467  1.4096
  812SOL    HW2 2436   1.353   0.888   1.908 -2.1689  0.6659 -1.3641
  813SOL     OW 2437   1.753   2.108   2.462  0.5123 -0.9020 -0.2479
  813SOL    HW1 2438   1.815   2.029   2.492  0.5223  0.9236  2.6947
  813SOL    HW2 2439   1.701   2.096   2.372 -0.4313  2.7461 -0.8133
  814SOL     OW 2440   2.878   1.565   2.828  0.5281 -0.0823  0.0316
  814SOL    HW1 2441   2.963   1.531   2.871 -0.8827 -1.0986 -1.1006
  814SOL    HW2 2442   2.876   1.666   2.818  0.9063 -0.1230  0.7203
  815SOL     OW 2443   2.179   2.891   2.773  0.1589  0.1043  0.5559
  815SOL    HW1 2444   2.144   2.816   2.827 -0.8171 -0.5219 -1.2908
  815SOL    HW2 2445   2.281   2.896   2.766 -1.5888  2.9791  0.0239
  816SOL     OW 2446   1.636   0.336   1.665 -0.1752  0.3144  0.2949
  816SOL    HW1 2447   1.660   0.237   1.669  0.5058  0.3895  0.1649
  816SOL    HW2 2448   1.544   0.360   1.718  0.6915 -0.0783 -0.3395
  817SOL     OW 2449   0.416   1.235   2.527 -0.0232  0.1809 -0.5193
  817SOL    HW1 2450   0.322   1.279   2.538 -1.1698  0.8925 -1.7131
  817SOL    HW2 2451   0.464   1.282   2.451  1.6672 -1.6101  2.1370
  818SOL     OW 2452   1.979   0.788   0.465 -0.3665  0.1820  0.5130
  818SOL    HW1 2453   2.009   0.886   0.470 -0.5315  0.6049 -0.4445
  818SOL    HW2 2454   1.923   0.764   0.549 -0.4392 -1.3986 -2.1470
  819SOL     OW 2455   2.775   2.922   3.024 -0.2335  0.1001 -0.6083
  819SOL    HW1 2456   2.855   2.869   2.987 -1.6562  2.7566  0.5593
  819SOL    HW2 2457   2.702   2.934   2.951 -0.1090  0.2534  0.1989
  820SOL     OW 2458   1.265   1.122   0.654 -0.2003  0.2428  0.1744
  820SOL    HW1 2459   1.238   1.215   0.683 -1.0224 -0.8748  0.1994
  820SOL    HW2 2460   1.258   1.040   0.723  0.2019  0.5873 -3.4062
  821SOL     OW 2461   3.089   1.303   0.677 -0.2645  0.2985 -0.0684
  821SOL    HW1 2462   3.071   1.340   0.766  1.6856  1.2177 -1.1123
  821SOL    HW2 2463   3.171   1.355   0.638  0.1459 -0.6270 -0.3171
  822SOL     OW 2464   2.536   1.742   2.432 -0.1875  0.0831 -0.0564
  822SOL    HW1 2465   2.553   1.831   2.485  0.2124 -2.1190  0.3518
  822SOL    HW2 2466   2.451   1.752   2.378 -1.6523  2.0235  3.1141
  823SOL     OW 2467   2.102   0.793   1.209  0.5774  0.6777 -0.1757
  823SOL    HW1 2468   2.051   0.836   1.289  1.4595  2.4359 -0.5922
  823SOL    HW2 2469   2.047   0.771   1.128  2.0451  1.6794  1.4444
  824SOL     OW 2470   0.155   2.072   2.781  0.7463  0.2539 -0.3176
  824SOL    HW1 2471   0.105   2.014   2.853  3.3664 -0.1436 -1.0970
  824SOL    HW2 2472   0.214   2.009   2.726 -2.6677 -2.1559  0.7645
  825SOL     OW 2473   1.250   1.104   0.310  0.2487  0.2106 -0.2710
  825SOL    HW1 2474   1.220   1.199   0.314  2.8068 -2.2979  1.7791
  825SOL    HW2 2475   1.217   1.046   0.387 -2.2959 -0.3629 -1.4933
  826SOL     OW 2476   1.917   0.678   1.610 -0.5555  0.5148 -0.0440
  826SOL    HW1 2477   2.004   0.622   1.631 -0.2886 -0.5883  0.1364
  826SOL    HW2 2478   1.850   0.624   1.547 -0.3685 -1.3926 -0.5184
  827SOL     OW 2479   0.702   1.373   0.288 -0.1322 -0.0215  0.4945
  827SOL    HW1 2480   0.756   1.289   0.256 -0.5894  1.2050  0.0124
  827SOL    HW2 2481   0.644   1.368   0.370 -2.6597 -0.7126 -2.7854
  828SOL     OW 2482   2.514   0.085   1.587 -0.3288 -0.6981  0.1984
  828SOL    HW1 2483   2.412   0.109   1.577 -0.0721  1.4446 -1.4524
  828SOL    HW2 2484   2.520  -0.000   1.649 -0.0284 -0.2359 -2.6050
  829SOL     OW 2485   2.829   2.443   2.965 -0.1204 -0.4641 -0.2102
  829SOL    HW1 2486   2.747   2.379   2.953 -1.3913  2.6627 -0.9991
  829SOL    HW2 2487   2.812   2.510   3.044  1.4044  0.6150 -0.0726
  830SOL     OW 2488   2.864   0.949   2.990 -0.0378 -0.0948  0.0291
  830SOL    HW1 2489   2.881   1.048   3.020 -0.7818 -0.9861 -2.5177
  830SOL    HW2 2490   2.901   0.876   3.056  1.2067  1.6016 -1.6234
  831SOL     OW 2491   0.113   0.654   0.399  0.2797 -0.2587  0.7316
  831SOL    HW1 2492   0.071   0.583   0.461  2.0278 -0.2562 -0.5085
  831SOL    HW2 2493   0.132   0.606   0.307 -1.5623 -3.3653  1.7457
  832SOL     OW 2494   1.795   0.734   3.069 -0.2885 -0.2710 -0.0417
  832SOL    HW1 2495   1.705   0.746   3.021 -0.2976 -0.3924 -0.8623
  832SOL    HW2 2496   1.824   0.636   3.072 -1.4194  1.2940 -0.0173
  833SOL     OW 2497   2.444   2.161   0.513 -0.0499 -0.5228 -0.3328
  833SOL    HW1 2498   2.347   2.177   0.473 -1.8700  1.9448  2.5413
  833SOL    HW2 2499   2.490   2.073   0.482 -2.1691 -1.4846  0.7472
  834SOL     OW 2500   0.193   0.208   0.500  0.0198  0.2879  0.4257
  834SOL    HW1 2501   0.167   0.117   0.554 -1.5605 -1.6302  1.0400
  834SOL    HW2 2502   0.179   0.204   0.396  0.4937 -1.1998 -3.0446
  835SOL     OW 2503   2.385   1.577   1.137  0.1138 -0.0219  0.4810
  835SOL    HW1 2504   2.376   1.678   1.168  0.1401  1.5414 -1.5123
  835SOL    HW2 2505   2.468   1.555   1.078  3.6677  0.5530 -0.9554
  836SOL     OW 2506   1.608   0.828   2.527 -0.0918  0.1089 -0.0645
  836SOL    HW1 2507   1.510   0.792   2.509  0.3422 -2.0017 -1.3154
  836SOL    HW2 2508   1.663   0.841   2.438  1.1386 -2.8015  0.4681
  837SOL     OW 2509   1.724   0.174   0.585  0.1604 -0.1944  0.9821
  837SOL    HW1 2510   1.656   0.226   0.646 -1.3178 -1.2084  0.9978
  837SOL    HW2 2511   1.673   0.104   0.523  0.4374  2.3232 -1.5899
  838SOL     OW 2512   1.143   1.561   2.784  0.5152 -0.1012  0.1871
  838SOL    HW1 2513   1.131   1.524   2.880 -1.7787  1.3847  0.7730
  838SOL    HW2 2514   1.123   1.491   2.710 -2.0508  3.1735 -0.2151
  839SOL     OW 2515   1.627   0.310   1.004  0.3347  0.4565  0.8400
  839SOL    HW1 2516   1.667   0.344   1.095 -0.9351  0.6474  0.2848
  839SOL    HW2 2517   1.616   0.206   1.004  1.1531  1.3825  0.1436
  840SOL     OW 2518   2.466   2.946   1.746  0.2419  0.3913  0.6183
  840SOL    HW1 2519   2.364   2.936   1.771  0.6736  1.4129 -2.5559
  840SOL    HW2 2520   2.522   2.860   1.737  1.3725 -1.6499 -1.0220
  841SOL     OW 2521   1.547   0.829   2.980 -0.1398 -0.1370 -0.2639
  841SOL    HW1 2522   1.501   0.857   3.075  0.5688  2.0469  0.0380
  841SOL    HW2 2523   1.543   0.900   2.906 -1.7736  0.6403  1.0210
  842SOL     OW 2524   0.843   1.566   0.918 -0.5702  0.1277  0.3499
  842SOL    HW1 2525   0.813   1.661   0.953 -0.2178  0.9282 -2.0740
  842SOL    HW2 2526   0.776   1.492   0.936 -0.9582  1.0783 -0.0418
  843SOL     OW 2527   0.058   0.030   1.375  0.2407  0.3215  0.1587
  843SOL    HW1 2528   0.108   0.104   1.426 -1.3222  1.4806 -1.2115
  843SOL    HW2 2529   0.075  -0.071   1.398 -0.7330 -2.3661  2.6914
  844SOL     OW 2530   0.810   2.474   0.239  0.1724  0.4834  0.0174
  844SOL    HW1 2531   0.755   2.453   0.326  0.4718 -0.2053 -1.5227
  844SOL    HW2 2532   0.759   2.545   0.185  3.2472 -0.7915 -0.2517
  845SOL     OW 2533   1.641   2.898   1.337 -0.0013 -0.0388  0.6000
  845SOL    HW1 2534   1.736   2.871   1.366 -1.8910  3.1994  2.2118
  845SOL    HW2 2535   1.588   2.947   1.411 -1.8431  1.4653  0.3260
  846SOL     OW 2536   1.555   2.904   0.738 -0.2925 -0.2021 -0.3902
  846SOL    HW1 2537   1.546   2.882   0.640 -0.3655 -0.4605 -0.8688
  846SOL    HW2 2538   1.650   2.928   0.771  0.7154  0.0402 -1.0245
  847SOL     OW 2539   2.031   1.663   0.366  0.1566 -0.2280 -0.1339
  847SOL    HW1 2540   2.021   1.581   0.420  3.1577  2.5928 -0.5780
  847SOL    HW2 2541   1.947   1.725   0.383 -2.8898  1.7758 -1.4765
  848SOL     OW 2542   2.450   0.854   2.605  0.0392  0.3117  0.0271
  848SOL    HW1 2543   2.439   0.941   2.659 -1.0166  0.9421 -0.3297
  848SOL    HW2 2544   2.363   0.798   2.616  0.4326  0.5026  2.7611
  849SOL     OW 2545   2.569   0.862   2.363  0.5130  0.1190 -0.4284
  849SOL    HW1 2546   2.662   0.818   2.346  1.4783 -0.9374 -2.6386
  849SOL    HW2 2547   2.534   0.855   2.458  0.0224  1.5980 -0.4565
  850SOL     OW 2548   1.529   0.148   1.298  0.5788  0.8134 -0.7241
  850SOL    HW1 2549   1.509   0.124   1.197  0.3094 -1.6644 -0.9992
  850SOL    HW2 2550   1.501   0.062   1.350 -1.2275 -0.5852 -2.7417
  851SOL     OW 2551   0.469   1.799   0.546  0.3072 -0.9945 -0.4908
  851SOL    HW1 2552   0.491   1.881   0.608  0.9216 -2.0181 -0.0778
  851SOL    HW2 2553   0.496   1.818   0.448 -1.2845  1.9786  0.8274
  852SOL     OW 2554   0.814   2.107   1.691  0.2103  0.0898 -0.7559
  852SOL    HW1 2555   0.842   2.206   1.671 -3.4040  0.9909  1.2304
  852SOL    HW2 2556   0.754   2.097   1.774  0.0144  1.8600 -0.6952
  853SOL     OW 2557   2.537   1.501   2.587  0.4483  0.5644  0.3189
  853SOL    HW1 2558   2.482   1.420   2.566  2.9045 -0.8085  1.8689
  853SOL    HW2 2559   2.513   1.593   2.546  1.6036 -1.0754  2.7414
  854SOL     OW 2560   2.385   1.380   1.736  0.0397  0.1208 -0.0028
  854SOL    HW1 2561   2.421   1.374   1.642 -2.3650  0.8263 -0.7175
  854SOL    HW2 2562   2.377   1.285   1.781  0.7615  0.4097 -1.2055
  855SOL     OW 2563   2.032   2.433   1.057 -0.3369 -0.7851 -0.6866
  855SOL    HW1 2564   2.027   2.531   1.018 -3.1689 -1.2388  0.8123
  855SOL    HW2 2565   2.107   2.420   1.134  0.6467 -0.1601  0.5775
  856SOL     OW 2566   1.320   1.436   0.940 -0.3754  0.1801  0.3335
  856SOL    HW1 2567   1.377   1.513   0.981 -2.5396  0.5475  0.4772
  856SOL    HW2 2568   1.224   1.436   0.987  0.6314 -1.6387 -0.4422
  857SOL     OW 2569   3.023   2.702   0.948 -0.2670 -0.2508  0.0664
  857SOL    HW1 2570   2.988   2.615   0.909  1.1293  2.9166 -0.4072
  857SOL    HW2 2571   3.115   2.738   0.905  1.8891  3.0123  0.0166
  858SOL     OW 2572   2.332   2.096   1.707  0.3983 -0.1217 -0.2653
  858SOL    HW1 2573   2.261   2.094   1.635 -1.4011 -0.1267  1.4171
  858SOL    HW2 2574   2.407   2.024   1.695 -1.3366 -0.2998  2.2788
  859SOL     OW 2575   2.475   0.535   1.048  0.4320 -0.3004  0.0623
  859SOL    HW1 2576   2.508   0.574   0.957 -0.0228  0.1425 -0.8717
  859SOL    HW2 2577   2.524   0.442   1.076 -2.5216 -2.5626 -0.4956
  860SOL     OW 2578   1.933   2.798   0.434  1.0287 -0.0130 -0.6234
  860SOL    HW1 2579   1.898   2.783   0.337  1.1783  0.7938  4.4743
  860SOL    HW2 2580   2.032   2.791   0.439  0.0252 -1.1770  0.0153
  861SOL     OW 2581   1.007   2.387   2.879 -0.1378 -0.1543 -0.1193
  861SOL    HW1 2582   1.051   2.470   2.837 -1.7731  0.1569  1.6222
  861SOL    HW2 2583   1.026   2.376   2.978  1.2453  1.0654 -1.7469
  862SOL     OW 2584   2.867   2.561   1.627  0.0601  0.1968  0.1948
  862SOL    HW1 2585   2.964   2.579   1.660  0.4775  3.1316  1.3750
  862SOL    HW2 2586   2.807   2.644   1.607 -1.2771 -0.4824  0.3486
  863SOL     OW 2587   1.838   2.707   0.187  0.5069  0.0865  0.2314
  863SOL    HW1 2588   1.880   2.612   0.192 -2.1955 -1.7533  1.2160
  863SOL    HW2 2589   1.745   2.713   0.144  0.1843  0.5745  0.2661
  864SOL     OW 2590   1.990   1.224   2.822 -0.7395 -0.3797 -0.0986
  864SOL    HW1 2591   1.985   1.172   2.729  3.8870  0.6520  0.0753
  864SOL    HW2 2592   2.038   1.165   2.890  0.2177  2.4671 -3.0843
  865SOL     OW 2593   2.194   1.895   0.685 -0.1480  0.6085 -1.1460
  865SOL    HW1 2594   2.251   1.871   0.769 -0.3349 -2.1508 -1.1045
  865SOL    HW2 2595   2.091   1.894   0.706 -0.3195 -1.8612 -0.4068
  866SOL     OW 2596   2.849   2.915   1.005 -0.0130  0.1103 -0.2722
  866SOL    HW1 2597   2.841   2.983   0.926  0.0254 -0.3554 -0.1758
  866SOL    HW2 2598   2.929   2.843   0.992 -1.8448  1.3732 -0.1543
  867SOL     OW 2599   0.373   1.398   0.892  0.5106 -0.4726 -0.8154
  867SOL    HW1 2600   0.326   1.326   0.836  3.3514  4.9034 -1.3541
  867SOL    HW2 2601   0.364   1.495   0.850  1.1299  1.3220 -1.7138
  868SOL     OW 2602   0.752   1.916   2.124  0.1485 -0.1882 -0.3788
  868SOL    HW1 2603   0.688   1.871   2.189 -0.5375  0.7267 -0.0327
  868SOL    HW2 2604   0.709   1.999   2.082  1.9320 -2.8334  1.6628
  869SOL     OW 2605   2.551   1.926   1.672  0.2757 -0.0415 -0.0868
  869SOL    HW1 2606   2.619   2.006   1.652 -0.2577  3.3702  1.6502
  869SOL    HW2 2607   2.591   1.835   1.650 -2.6421  1.1433  0.4524
  870SOL     OW 2608   2.315   2.691   1.197 -0.5234  0.2114 -1.1141
  870SOL    HW1 2609   2.312   2.584   1.179  0.2529 -0.4441  1.6115
  870SOL    HW2 2610   2.331   2.707   1.299  2.4962 -1.7589  0.8216
  871SOL     OW 2611   0.009   2.275   0.559 -0.1634 -0.4245 -0.1849
  871SOL    HW1 2612  -0.025   2.333   0.637 -2.0906 -1.7119  1.1332
  871SOL    HW2 2613  -0.062   2.276   0.477 -1.3437  1.3545 -0.7571
  872SOL     OW 2614   2.110   0.491   1.682 -0.4122  0.6441  0.6271
  872SOL    HW1 2615   2.082   0.471   1.779  0.4151 -0.7879 -1.4724
  872SOL    HW2 2616   2.210   0.470   1.662 -1.0400 -1.5766 -1.1755
  873SOL     OW 2617   1.742   2.133   3.065  0.5449 -0.2511  0.7302
  873SOL    HW1 2618   1.668   2.149   3.137  1.2278  0.7319 -0.4373
  873SOL    HW2 2619   1.708   2.115   2.967  1.5968  0.4144  0.3838
  874SOL     OW 2620   0.685   2.426   0.769 -0.3187  0.7593 -0.3103
  874SOL    HW1 2621   0.706   2.526   0.783 -0.5776 -1.1216  0.3530
  874SOL    HW2 2622   0.764   2.375   0.719  0.1572 -1.2454  1.1411
  875SOL     OW 2623   2.294   1.540   1.434  0.1801 -0.2355 -0.1724
  875SOL    HW1 2624   2.379   1.588   1.475  1.6134 -0.5949  0.0691
  875SOL    HW2 2625   2.300   1.535   1.327  1.8023 -2.5982  2.3757
  876SOL     OW 2626   0.051   2.299   2.681  0.1099  0.3247 -0.1574
  876SOL    HW1 2627   0.088   2.208   2.722 -0.0537  2.9064 -1.0883
  876SOL    HW2 2628   0.060   2.384   2.743  1.9659  1.4523  3.1842
  877SOL     OW 2629   2.968   2.711   0.527  0.0765 -0.4155 -1.0594
  877SOL    HW1 2630   2.923   2.793   0.568  2.1579 -2.4892 -1.5945
  877SOL    HW2 2631   3.012   2.651   0.602  1.4508  0.6209 -1.8049
  878SOL     OW 2632   2.789   1.528   2.235 -0.2645  0.4061 -0.3349
  878SOL    HW1 2633   2.847   1.606   2.194  0.7075  0.9115 -0.3032
  878SOL    HW2 2634   2.800   1.517   2.337 -3.5598  1.8133  0.5809
  879SOL     OW 2635   2.419   0.091   1.264  0.3050  0.1600  0.1485
  879SOL    HW1 2636   2.435  -0.003   1.301  0.5073  1.4739  0.4692
  879SOL    HW2 2637   2.346   0.096   1.191  2.1752 -0.7575 -0.1600
  880SOL     OW 2638   0.770   0.495   2.233  0.1813 -0.0891 -0.7409
  880SOL    HW1 2639   0.710   0.442   2.295  1.7144 -0.2011 -0.8419
  880SOL    HW2 2640   0.846   0.437   2.197 -0.3513  0.0995  0.9975
  881SOL     OW 2641   0.894   0.103   0.458  0.6338 -0.3739  0.0664
  881SOL    HW1 2642   0.948   0.013   0.477  0.9828 -0.2047 -0.8629
  881SOL    HW2 2643   0.791   0.096   0.453 -1.5423  1.0127  1.2646
  882SOL     OW 2644   2.716   1.714   1.696  0.2065  0.0252 -0.4255
  882SOL    HW1 2645   2.789   1.650   1.655  1.2854  1.9869  1.7464
  882SOL    HW2 2646   2.710   1.699   1.799 -1.2500 -0.1526  2.5078
  883SOL     OW 2647   0.878   0.479   0.929  0.0660  0.3406  0.0324
  883SOL    HW1 2648   0.919   0.565   0.971 -1.1821  1.0196  2.1621
  883SOL    HW2 2649   0.800   0.440   0.992  0.3487  0.9467  1.0158
  884SOL     OW 2650   1.114   1.715   1.178  0.0291  0.5628 -0.0438
  884SOL    HW1 2651   1.115   1.625   1.124  0.0654 -2.4450 -2.9799
  884SOL    HW2 2652   1.083   1.789   1.114 -0.8010 -2.0211  2.8664
  885SOL     OW 2653   2.318   1.783   2.284  0.0619  0.2156  0.3282
  885SOL    HW1 2654   2.239   1.759   2.349  2.7457 -0.0203  0.6105
  885SOL    HW2 2655   2.309   1.887   2.270  0.1083 -0.8779 -0.3580
  886SOL     OW 2656   2.593   0.378   1.816 -0.3295  0.1275  0.2496
  886SOL    HW1 2657   2.608   0.304   1.884  0.4809  0.5899  1.5992
  886SOL    HW2 2658   2.686   0.395   1.764 -1.7581  0.1718 -1.5509
  887SOL     OW 2659   0.119   1.999   1.309 -0.2394 -0.6413  0.4195
  887SOL    HW1 2660   0.029   1.962   1.268  1.1982  0.2522 -2.4792
  887SOL    HW2 2661   0.147   2.093   1.273  0.4797 -0.8446  1.9168
  888SOL     OW 2662   0.588   1.229   1.513 -0.6854  0.0041  0.4525
  888SOL    HW1 2663   0.603   1.258   1.413 -2.3891  1.8947 -1.3747
  888SOL    HW2 2664   0.594   1.125   1.530 -0.9748  2.0108  0.6271
  889SOL     OW 2665   0.824   2.501   2.189 -0.0294 -0.1278 -1.5175
  889SOL    HW1 2666   0.752   2.422   2.195 -1.0269 -1.0964  1.2073
  889SOL    HW2 2667   0.900   2.485   2.116 -0.2277  0.0583 -0.0226
  890SOL     OW 2668   2.413   2.485   0.242 -0.3524  0.1324 -0.5262
  890SOL    HW1 2669   2.415   2.559   0.169  2.3687  0.7862  2.5603
  890SOL    HW2 2670   2.352   2.522   0.319  0.6577 -1.3226  1.4512
  891SOL     OW 2671   2.511   1.696   0.614 -0.2681 -0.1183 -0.5925
  891SOL    HW1 2672   2.506   1.678   0.714  1.4791  2.4156 -0.1513
  891SOL    HW2 2673   2.414   1.690   0.580 -0.4348 -0.0439  2.5228
  892SOL     OW 2674   0.381   0.275   2.329 -0.2969  0.1075  0.2843
  892SOL    HW1 2675   0.424   0.371   2.313  1.3308  0.0046  1.5714
  892SOL    HW2 2676   0.442   0.213   2.384  0.3417 -3.5773 -2.3270
  893SOL     OW 2677   1.646   0.206   2.719 -0.5092  0.2087  0.0236
  893SOL    HW1 2678   1.723   0.271   2.746 -1.6793  0.4847  0.5318
  893SOL    HW2 2679   1.562   0.249   2.677  3.3410 -0.4459 -0.5073
  894SOL     OW 2680   2.180   2.072   0.050  0.4398  0.3508  0.3622
  894SOL    HW1 2681   2.140   2.025  -0.035 -0.6889 -0.7975 -0.6637
  894SOL    HW2 2682   2.231   2.002   0.111  2.4452 -2.4384 -0.2385
  895SOL     OW 2683   2.814   1.473   0.895  0.6273  0.6134  0.3359
  895SOL    HW1 2684   2.885   1.407   0.942  0.0127 -2.1362  0.4369
  895SOL    HW2 2685   2.826   1.570   0.924  0.0281 -1.7911  1.0669
  896SOL     OW 2686   1.800   1.825   1.198 -0.8432 -0.4456 -0.3336
  896SOL    HW1 2687   1.848   1.740   1.162 -0.2163  0.9817 -2.1230
  896SOL    HW2 2688   1.743   1.872   1.129  0.2668 -0.0483  1.0031
  897SOL     OW 2689   0.275   0.565   3.047  0.1943 -0.4337 -0.3260
  897SOL    HW1 2690   0.233   0.604   2.960  1.7045  0.3937 -0.5147
  897SOL    HW2 2691   0.376   0.604   3.057  0.9830  0.3224  3.2171
  898SOL     OW 2692   0.637   2.884   1.041 -0.4687  0.0538 -0.0523
  898SOL    HW1 2693   0.645   2.989   1.044 -0.8536 -0.3412 -0.0022
  898SOL    HW2 2694   0.711   2.841   1.107 -0.4325  0.6853  0.5437
  899SOL     OW 2695   2.807   0.843   1.362  0.8762 -0.1429  0.0718
  899SOL    HW1 2696   2.815   0.809   1.265  0.2403  4.4560  1.7682
  899SOL    HW2 2697   2.898   0.876   1.400 -1.2364 -0.2096 -0.8869
  900SOL     OW 2698   0.980   2.506   2.423  0.9800  0.0821  0.4134
  900SOL    HW1 2699   0.921   2.530   2.339 -2.0728 -0.1500  0.7133
  900SOL    HW2 2700   0.929   2.434   2.477  3.5093  3.3847 -2.1589
  901SOL     OW 2701   1.888   2.399   1.357  0.3204 -0.1960  0.0016
  901SOL    HW1 2702   1.871   2.341   1.276 -0.1636  0.1219  3.6013
  901SOL    HW2 2703   1.979   2.385   1.402  0.1983 -1.3080 -0.8546
  902SOL     OW 2704   2.544   1.648   1.492  0.2735 -0.2078 -0.5760
  902SOL    HW1 2705   2.597   1.646   1.583  1.6315  0.8291  0.0079
  902SOL    HW2 2706   2.609   1.635   1.412 -1.1309 -2.2010 -0.7141
  903SOL     OW 2707   0.283   2.457   1.961 -0.8641 -0.5689 -0.1676
  903SOL    HW1 2708   0.185   2.423   1.945 -0.6368  0.0468  1.5535
  903SOL    HW2 2709   0.304   2.557   1.951  0.4452 -2.4963  2.0380
  904SOL     OW 2710   1.974   0.784   2.575 -0.1392  0.0206  0.5228
  904SOL    HW1 2711   1.905   0.717   2.607  2.6838 -0.1868 -2.3725
  904SOL    HW2 2712   1.966   0.804   2.472 -1.3270 -1.0826 -0.3876
  905SOL     OW 2713   2.910   0.104   2.505 -0.6585  0.0829  0.4946
  905SOL    HW1 2714   2.957   0.015   2.486  0.0685 -0.1076  2.6534
  905SOL    HW2 2715   2.960   0.194   2.502 -2.5039 -1.1295  0.9124
  906SOL     OW 2716   0.128   1.660   1.891  0.1623 -0.3111  0.7925
  906SOL    HW1 2717   0.067   1.682   1.816 -0.6100  0.7204  3.0508
  906SOL    HW2 2718   0.218   1.701   1.889 -0.2140 -0.0633  0.4494
  907SOL     OW 2719   0.214   2.421   0.973 -0.0378  0.1455  0.2200
  907SOL    HW1 2720   0.317   2.407   0.950  0.4318  2.3446 -0.5992
  907SOL    HW2 2721   0.167   2.481   0.904 -0.5179 -0.2625  1.0975
  908SOL     OW 2722   2.808   3.045   0.335 -0.0074 -0.7478  0.6126
  908SOL    HW1 2723   2.739   3.054   0.262  3.8049 -0.2603  2.5983
  908SOL    HW2 2724   2.884   2.980   0.309 -1.8385  0.0976 -0.3606
  909SOL     OW 2725   0.841   1.058   2.670  0.1680  0.1169 -0.1847
  909SOL    HW1 2726   0.796   0.974   2.631 -0.1115 -0.8892  0.1799
  909SOL    HW2 2727   0.911   1.101   2.603  2.6438  1.6055 -0.1650
  910SOL     OW 2728   1.791   1.884   2.159  0.4421 -0.2162  0.3797
  910SOL    HW1 2729   1.833   1.907   2.064 -0.5234 -0.9156 -0.0584
  910SOL    HW2 2730   1.716   1.954   2.185 -1.5711 -0.2811 -1.4074
  911SOL     OW 2731   1.841   2.920   1.568 -0.2232 -0.2583 -0.0834
  911SOL    HW1 2732   1.923   2.900   1.511 -0.8460  1.8727  2.7227
  911SOL    HW2 2733   1.811   2.836   1.624  2.7515 -2.5088  0.7659
  912SOL     OW 2734   2.854   1.007   0.709 -0.3130 -0.0962 -0.3377
  912SOL    HW1 2735   2.900   0.998   0.800  0.5764  1.1935 -1.2175
  912SOL    HW2 2736   2.806   1.100   0.703  1.1064  1.7582 -1.1521
  913SOL     OW 2737   2.513   1.260   1.515  0.1716  0.4681  0.2682
  913SOL    HW1 2738   2.563   1.169   1.525  0.1782  2.0751 -1.3042
  913SOL    HW2 2739   2.574   1.317   1.456 -0.7820  2.1796  0.0597
  914SOL     OW 2740   2.782   0.631   1.154  0.0707 -0.3778 -0.0737
  914SOL    HW1 2741   2.808   0.540   1.205  3.1823 -2.9647  1.6561
  914SOL    HW2 2742   2.688   0.668   1.175  0.8665  3.1026 -1.8041
  915SOL     OW 2743   1.233   0.718   1.014 -0.1384  0.0806  0.3227
  915SOL    HW1 2744   1.258   0.752   1.105  0.1717 -1.2279 -1.0030
  915SOL    HW2 2745   1.130   0.719   1.013 -2.3456  2.1810  2.8235
  916SOL     OW 2746   0.623   0.050   0.643 -0.0516 -0.0125  0.6744
  916SOL    HW1 2747   0.674   0.113   0.706  3.1699  0.0075 -3.1308
  916SOL    HW2 2748   0.577   0.096   0.561 -3.3298 -2.5735 -3.3530
  917SOL     OW 2749   2.886   2.565   2.006 -0.4292  0.0156  0.4594
  917SOL    HW1 2750   2.811   2.584   1.936 -0.6964  2.2665  0.4409
  917SOL    HW2 2751   2.984   2.584   1.971 -0.9772 -2.2021 -1.2620
  918SOL     OW 2752   1.023   2.101   2.990 -0.7339  0.6417 -0.5040
  918SOL    HW1 2753   0.991   2.177   3.050  0.6048 -2.6954  1.9444
  918SOL    HW2 2754   1.087   2.127   2.911 -1.3133 -0.0617 -1.4301
  919SOL     OW 2755   0.812   1.683   2.855  0.1834 -0.3055  0.6559
  919SOL    HW1 2756   0.862   1.771   2.839 -2.9080  0.2053 -0.6809
  919SOL    HW2 2757   0.786   1.638   2.765  0.2936  0.8555  1.1692
  920SOL     OW 2758   1.256   1.791   2.563 -0.2594  0.5662  0.4350
  920SOL    HW1 2759   1.320   1.749   2.487 -0.4356  1.3486 -0.7374
  920SOL    HW2 2760   1.223   1.709   2.623 -3.1600  0.5861  0.3945
  921SOL     OW 2761   1.112   3.098   2.638 -0.2947 -0.0870 -0.6222
  921SOL    HW1 2762   1.068   3.051   2.558 -2.3760  0.0744 -1.4590
  921SOL    HW2 2763   1.041   3.162   2.683  0.7793 -1.2713 -0.9400
  922SOL     OW 2764   2.210   2.370   2.787  0.5255  0.5322 -0.2536
  922SOL    HW1 2765   2.192   2.268   2.779  1.7857  1.3777  0.2546
  922SOL    HW2 2766   2.182   2.403   2.697  1.7284 -2.2328 -1.2141
  923SOL     OW 2767   1.257   2.666   0.263  0.3222 -0.2018  0.1902
  923SOL    HW1 2768   1.324   2.716   0.319 -1.1547 -0.7293 -2.1631
  923SOL    HW2 2769   1.283   2.567   0.257 -0.8019 -0.0165  3.3811
  924SOL     OW 2770   2.892   1.707   0.095 -0.2523 -0.4055 -0.3026
  924SOL    HW1 2771   2.812   1.661   0.048 -0.8052  1.5047 -1.7109
  924SOL    HW2 2772   2.975   1.651   0.083 -2.0526  0.3907  0.4705
  925SOL     OW 2773   0.053   2.858   1.464  0.3506  0.3708 -0.0716
  925SOL    HW1 2774   0.010   2.844   1.559 -1.5237  1.1303 -1.5327
  925SOL    HW2 2775   0.004   2.808   1.390  1.1388  1.8119  2.9028
  926SOL     OW 2776   1.333   2.830   1.356  0.5963  0.2940 -0.1108
  926SOL    HW1 2777   1.362   2.811   1.259  1.8552  1.7525  1.4183
  926SOL    HW2 2778   1.377   2.905   1.411  2.1548 -1.7265  0.4960
  927SOL     OW 2779   0.347   2.677   1.755 -0.3704  0.8577 -0.1712
  927SOL    HW1 2780   0.295   2.597   1.718 -0.4173  2.2688  1.8431
  927SOL    HW2 2781   0.297   2.765   1.741 -0.3243 -0.0126  0.5608
  928SOL     OW 2782   1.627   2.093   2.228 -0.2580 -0.2108  0.2180
  928SOL    HW1 2783   1.667   2.155   2.156  0.9697 -1.7696  3.0382
  928SOL    HW2 2784   1.520   2.094   2.226 -1.1005 -0.7051  0.6711
  929SOL     OW 2785   2.428   2.515   2.888  0.5525 -0.0541  0.0833
  929SOL    HW1 2786   2.330   2.476   2.874  1.2414 -0.3057 -1.4178
  929SOL    HW2 2787   2.475   2.515   2.794 -1.4558  2.2414 -1.6135
  930SOL     OW 2788   2.157   1.974   1.101 -0.4153 -0.2354 -0.0613
  930SOL    HW1 2789   2.129   1.960   1.196 -2.7936  0.9889  0.2570
  930SOL    HW2 2790   2.229   2.050   1.087 -0.1385  2.7828  0.4589
  931SOL     OW 2791   0.550   1.739   2.641 -0.2319 -0.5083  0.0047
  931SOL    HW1 2792   0.544   1.778   2.736 -3.1897  2.0482  0.5984
  931SOL    HW2 2793   0.615   1.660   2.633  0.1625 -0.3160 -0.6228
  932SOL     OW 2794   0.439   0.121   3.072 -0.0144 -0.0959 -0.1690
  932SOL    HW1 2795   0.523   0.177   3.105  3.2680  0.6933 -1.4232
  932SOL    HW2 2796   0.474   0.032   3.029  0.4650  1.7512  0.7630
  933SOL     OW 2797   0.919   0.825   3.030  0.0208 -0.1130  0.4123
  933SOL    HW1 2798   0.836   0.789   3.074  0.8262 -1.4080 -0.4264
  933SOL    HW2 2799   0.913   0.925   2.997 -0.2861  1.9800 -0.2036
  934SOL     OW 2800   0.784   2.999   2.652  0.5287 -0.0319  0.3091
  934SOL    HW1 2801   0.750   2.936   2.575  0.3391 -1.0879 -0.2259
  934SOL    HW2 2802   0.824   2.941   2.721  0.0833  0.8543 -2.1200
  935SOL     OW 2803   0.019   0.494   0.875 -0.0222 -0.1546 -0.1392
  935SOL    HW1 2804   0.038   0.489   0.770  1.5541  0.7717  2.3518
  935SOL    HW2 2805  -0.065   0.552   0.889 -1.0773 -0.6737 -2.4520
  936SOL     OW 2806   1.100   2.816   0.101 -0.2734  0.0164  0.2285
  936SOL    HW1 2807   1.145   2.885   0.038  1.8954  1.8289 -0.2531
  936SOL    HW2 2808   1.170   2.769   0.161 -0.3631  2.4145 -0.7298
  937SOL     OW 2809   1.853   2.683   2.088 -1.0146 -0.0190 -0.5426
  937SOL    HW1 2810   1.752   2.703   2.073 -0.2770  2.2261 -1.8799
  937SOL    HW2 2811   1.913   2.749   2.030 -0.4344  0.7050 -0.7609
  938SOL     OW 2812   2.784   2.075   1.632 -0.2053 -0.2989  0.3068
  938SOL    HW1 2813   2.765   2.179   1.626 -0.2456 -0.2771  2.0938
  938SOL    HW2 2814   2.865   2.044   1.693 -1.1475 -1.5243 -0.7514
  939SOL     OW 2815   2.809   1.201   2.410  0.4235 -0.5109 -0.2861
  939SOL    HW1 2816   2.897   1.186   2.362  0.7864 -0.9791  1.9197
  939SOL    HW2 2817   2.804   1.192   2.512 -1.2933 -2.2192  1.0660
  940SOL     OW 2818   1.082   0.448   2.789 -0.2697  0.1416  0.2559
  940SOL    HW1 2819   1.137   0.360   2.789  1.1417 -0.1857  2.1172
  940SOL    HW2 2820   1.037   0.449   2.693  1.1301 -2.2337 -0.2223
  941SOL     OW 2821   0.031   2.775   2.290 -0.1780  0.4164  0.3279
  941SOL    HW1 2822   0.106   2.710   2.252  2.4269 -0.6767 -1.8109
  941SOL    HW2 2823   0.067   2.861   2.330  0.0293 -0.3724 -2.1357
  942SOL     OW 2824   0.140   0.090   2.578 -0.0150 -0.1172 -0.1495
  942SOL    HW1 2825   0.116   0.104   2.681 -0.1311 -0.9402  0.4136
  942SOL    HW2 2826   0.138   0.184   2.527 -0.1838  1.6065  0.5456
  943SOL     OW 2827   2.102   1.675   2.404  0.0963  0.8474  0.3427
  943SOL    HW1 2828   2.081   1.644   2.305  0.8225 -1.6899 -1.3018
  943SOL    HW2 2829   2.115   1.594   2.471 -1.6028 -2.3669 -1.8899
  944SOL     OW 2830   2.172   2.375   1.468 -0.5810  0.0128  0.0488
  944SOL    HW1 2831   2.265   2.404   1.509 -0.7421 -0.7651 -0.3679
  944SOL    HW2 2832   2.142   2.298   1.528  1.2919  1.8281  0.5907
  945SOL     OW 2833   0.664   1.577   0.106 -0.0808 -0.4247  0.6566
  945SOL    HW1 2834   0.576   1.584   0.055  0.7600 -0.4669  0.2021
  945SOL    HW2 2835   0.673   1.487   0.160  0.7667 -0.9813  1.4846
  946SOL     OW 2836   0.424   0.957   2.523  0.3220  0.3664 -0.7356
  946SOL    HW1 2837   0.338   0.919   2.477  1.6199  1.9805  0.6469
  946SOL    HW2 2838   0.424   1.063   2.530  0.7371  0.4844  6.3919
  947SOL     OW 2839   1.492   0.504   3.053  0.3335 -0.3199 -0.2140
  947SOL    HW1 2840   1.457   0.557   2.965 -1.1163  3.8845 -1.9098
  947SOL    HW2 2841   1.418   0.437   3.088 -0.4065 -0.1752 -0.7305
  948SOL     OW 2842   1.876   3.007   2.166 -0.1294 -0.3469 -0.1924
  948SOL    HW1 2843   1.907   2.960   2.076 -0.4111  0.2040 -2.5854
  948SOL    HW2 2844   1.846   2.939   2.235 -0.2781  0.3983 -4.1444
  949SOL     OW 2845   0.648   2.491   0.463  0.2369  0.0105 -0.3452
  949SOL    HW1 2846   0.640   2.587   0.418 -1.5295  0.3329 -0.1035
  949SOL    HW2 2847   0.634   2.484   0.567 -0.4791  1.3556  1.2419
  950SOL     OW 2848   0.196   2.245   3.002  0.3307 -0.7600  0.6414
  950SOL    HW1 2849   0.166   2.330   2.950  3.3310  0.6856 -0.9260
  950SOL    HW2 2850   0.196   2.162   2.946 -0.9176 -0.0339  0.3845
  951SOL     OW 2851   1.175   2.629   2.807 -0.1290  0.4589 -0.0143
  951SOL    HW1 2852   1.226   2.672   2.884 -1.2762 -1.7549  1.5858
  951SOL    HW2 2853   1.236   2.617   2.721  2.7588 -2.3551 -1.1515
  952SOL     OW 2854   0.028   1.671   0.428 -0.0009  0.4042 -0.6345
  952SOL    HW1 2855   0.095   1.758   0.420  0.9462  1.2046  0.0975
  952SOL    HW2 2856   0.068   1.590   0.483 -0.5801 -1.4325  4.9417
  953SOL     OW 2857   2.565   1.765   0.218 -0.0287 -0.0666  0.2200
  953SOL    HW1 2858   2.554   1.682   0.276  0.8246  2.5635  0.7484
  953SOL    HW2 2859   2.486   1.766   0.147 -1.2837  0.1411 -1.5569
  954SOL     OW 2860   2.213   0.573   0.969 -0.1736 -0.5016 -0.4687
  954SOL    HW1 2861   2.201   0.580   0.869  0.7136 -1.0288  3.0608
  954SOL    HW2 2862   2.313   0.566   0.996 -1.6570  1.3003 -1.3238
  955SOL     OW 2863   0.124   2.560   1.377  0.1646 -0.0268 -0.2847
  955SOL    HW1 2864   0.059   2.607   1.317 -0.4854 -0.6136  1.2432
  955SOL    HW2 2865   0.177   2.626   1.441  2.5506 -0.7724 -0.7774
  956SOL     OW 2866   2.808   2.445   2.492  0.0758 -0.0584  0.3083
  956SOL    HW1 2867   2.797   2.343   2.498  0.3805 -0.0570  0.3016
  956SOL    HW2 2868   2.847   2.482   2.406 -1.6178  0.6008  1.8005
  957SOL     OW 2869   1.626   2.119   2.823  0.3607  0.3668 -0.8150
  957SOL    HW1 2870   1.594   2.020   2.799  1.4074 -0.6225 -2.1949
  957SOL    HW2 2871   1.696   2.155   2.758  1.5280  2.6970  3.6945
  958SOL     OW 2872   2.585   2.281   2.992 -0.2673 -0.1268 -0.3942
  958SOL    HW1 2873   2.544   2.363   2.941 -1.6169  0.6282 -0.2538
  958SOL    HW2 2874   2.524   2.258   3.072  0.9607  3.6676 -0.6612
  959SOL     OW 2875   0.318   2.784   0.045 -0.4029  0.2161 -0.5843
  959SOL    HW1 2876   0.218   2.787   0.019 -2.0184 -0.1502  0.5750
  959SOL    HW2 2877   0.339   2.702   0.108 -1.2387  2.3227  0.2490
  960SOL     OW 2878   2.003   0.470   1.944 -0.5013  0.6287 -0.0080
  960SOL    HW1 2879   1.937   0.546   1.926 -1.3996 -0.9088  0.0781
  960SOL    HW2 2880   2.015   0.446   2.047 -1.4641 -0.3672  0.5870
  961SOL     OW 2881   2.551   1.890   1.068 -0.0908 -0.6452 -0.1007
  961SOL    HW1 2882   2.546   1.978   1.016  0.0949  0.4629  1.0888
  961SOL    HW2 2883   2.539   1.899   1.173  0.1000  0.2127  0.0057
  962SOL     OW 2884   1.305   0.911   0.078 -0.1021 -0.0440 -0.5192
  962SOL    HW1 2885   1.273   0.930  -0.024 -1.2077  0.4279 -0.4414
  962SOL    HW2 2886   1.261   0.972   0.150 -1.2535 -0.3043 -0.2559
  963SOL     OW 2887   2.302   2.528   1.772 -0.3853  0.0925 -0.3187
  963SOL    HW1 2888   2.245   2.457   1.819  0.7952 -1.7175  0.3256
  963SOL    HW2 2889   2.299   2.621   1.819 -0.1081  3.4889 -0.0557
  964SOL     OW 2890   2.379   0.402   1.652  0.3953  0.0315 -0.6428
  964SOL    HW1 2891   2.464   0.410   1.709  1.9668  2.7070 -0.2859
  964SOL    HW2 2892   2.399   0.394   1.553 -1.0816  1.2857  0.9839
  965SOL     OW 2893   2.615   2.975   0.135 -0.2239 -0.2764  0.7912
  965SOL    HW1 2894   2.680   2.935   0.065  0.0072  0.5879  1.2678
  965SOL    HW2 2895   2.546   3.034   0.089 -0.4996  0.4206  2.5018
  966SOL     OW 2896   2.549   2.562   2.308  0.4598  0.4619  0.7310
  966SOL    HW1 2897   2.645   2.564   2.342 -0.8115 -3.3618  0.6032
  966SOL    HW2 2898   2.490   2.642   2.331 -0.3116  0.0393  2.6255
  967SOL     OW 2899   2.790   2.820   2.458  0.6675  0.8560 -0.2893
  967SOL    HW1 2900   2.807   2.732   2.407 -2.0285 -1.4079  0.9087
  967SOL    HW2 2901   2.873   2.851   2.508 -0.8408 -1.3671  1.0465
  968SOL     OW 2902   1.933   1.069   2.607  0.1632  0.6157  0.4841
  968SOL    HW1 2903   1.858   1.103   2.547  0.2493 -2.4105 -1.9786
  968SOL    HW2 2904   1.953   0.964   2.599  1.4462 -2.2839 -1.4523
  969SOL     OW 2905   2.759   2.459   1.124  0.1409  0.1290  0.2906
  969SOL    HW1 2906   2.749   2.464   1.021 -0.1427  1.3378  0.2749
  969SOL    HW2 2907   2.782   2.363   1.157  0.5057  0.5173 -0.4773
  970SOL     OW 2908   1.047   2.125   1.818 -0.3683  0.1608 -0.0240
  970SOL    HW1 2909   0.960   2.105   1.766  0.1213 -0.5118 -2.4474
  970SOL    HW2 2910   1.033   2.149   1.919  1.1654 -2.1210 -0.1246
  971SOL     OW 2911   2.935   2.058   2.055  0.9253  0.1526 -0.2068
  971SOL    HW1 2912   2.930   2.156   2.078  0.9073 -0.1751  0.1344
  971SOL    HW2 2913   2.968   2.034   1.964 -1.7750 -0.3072 -0.4762
  972SOL     OW 2914   1.992   2.478   0.221  0.2591  0.1028  0.2447
  972SOL    HW1 2915   2.005   2.381   0.178  0.3416 -3.5975  0.3578
  972SOL    HW2 2916   2.001   2.471   0.323 -0.5117  1.5018 -0.9481
  973SOL     OW 2917   1.248   1.021   1.893 -0.1462  0.5086  0.5222
  973SOL    HW1 2918   1.174   0.949   1.881 -2.5126  0.3230 -2.1540
  973SOL    HW2 2919   1.207   1.114   1.910  0.5793  0.1205  1.3061
  974SOL     OW 2920   1.569   0.603   1.901  0.0376 -0.4642  0.3623
  974SOL    HW1 2921   1.674   0.616   1.891 -2.0944 -0.9862  0.8751
  974SOL    HW2 2922   1.522   0.697   1.909  3.6065 -0.7092  1.6155
  975SOL     OW 2923   2.371   3.055   0.014 -0.1970  0.1479 -0.5781
  975SOL    HW1 2924   2.339   2.965   0.058  2.5036 -2.0987 -1.4594
  975SOL    HW2 2925   2.362   3.061  -0.088  1.2130  0.8731 -0.6107
  976SOL     OW 2926   1.885   2.807   2.348  0.1963  0.0852 -0.1776
  976SOL    HW1 2927   1.873   2.732   2.282  1.8299  5.0476 -2.0724
  976SOL    HW2 2928   1.930   2.784   2.441  0.6352  0.3494  0.6310
  977SOL     OW 2929   0.502   0.656   1.020 -0.4611  0.7019  0.7410
  977SOL    HW1 2930   0.425   0.671   0.953  2.5122  2.1506  2.0389
  977SOL    HW2 2931   0.580   0.722   1.002 -4.0887 -0.9622  3.8062
   3.10000   3.10000   3.10000
