1000 SPC/Fw water molecules t=   1.20000 step= 1200
 2931
    1SOL     OW    1   2.548   0.352   2.592 -0.2958  0.1685  0.3098
    1SOL    HW1    2   2.561   0.251   2.569 -0.7530 -1.6225 -1.2781
    1SOL    HW2    3   2.585   0.370   2.690 -1.1916 -0.3297 -0.1172
    2SOL     OW    4   2.766   2.993   1.381 -0.1209 -0.7179 -0.0305
    2SOL    HW1    5   2.837   3.016   1.307  3.5940 -0.3887  2.5224
    2SOL    HW2    6   2.713   3.077   1.415 -1.2360  0.8039 -0.4051
    3SOL     OW    7   2.631   2.612   0.426  0.3042 -0.1992 -0.0272
    3SOL    HW1    8   2.632   2.511   0.409 -1.5604  1.3958  1.8735
    3SOL    HW2    9   2.709   2.640   0.492  0.0092  0.7196  0.0184
    4SOL     OW   10   1.245   1.533   2.370  0.6235 -0.0450  0.2762
    4SOL    HW1   11   1.167   1.576   2.310 -2.5617  1.6357 -1.0628
    4SOL    HW2   12   1.264   1.434   2.350  0.5968  0.3500 -1.6526
    5SOL     OW   13   1.154   1.576   3.020  0.8486  0.1495 -0.4549
    5SOL    HW1   14   1.202   1.663   3.050 -0.5122 -0.0973  0.1330
    5SOL    HW2   15   1.052   1.591   3.005 -0.5592  0.2763 -4.8924
    6SOL     OW   16   0.216   1.791   3.016  0.5147  0.9731  0.0289
    6SOL    HW1   17   0.124   1.810   3.066  0.0556  2.7911  0.4478
    6SOL    HW2   18   0.286   1.739   3.084  0.4565 -0.1788  1.9102
    7SOL     OW   19   2.532   0.858   1.055 -0.3656 -0.5541  0.1803
    7SOL    HW1   20   2.443   0.835   1.102  0.2458  0.3177 -1.0616
    7SOL    HW2   21   2.559   0.794   0.977  0.6357 -1.8874  2.2664
    8SOL     OW   22   0.443   0.601   1.461  0.2566 -0.2541 -0.5356
    8SOL    HW1   23   0.534   0.555   1.489 -2.0655  1.5862  0.5935
    8SOL    HW2   24   0.413   0.581   1.365  0.5015 -0.9569 -0.2669
    9SOL     OW   25   1.183   0.874   2.415 -0.6017 -1.1018 -0.3369
    9SOL    HW1   26   1.210   0.915   2.320  0.3577  1.6966 -1.0696
    9SOL    HW2   27   1.143   0.778   2.410 -0.4032 -3.4063  0.6555
   10SOL     OW   28   0.670   1.366   1.312 -0.6369 -0.2191 -0.4435
   10SOL    HW1   29   0.572   1.361   1.278  1.2424  0.2688  2.4859
   10SOL    HW2   30   0.711   1.458   1.306  1.5527 -0.4949  1.8281
   11SOL     OW   31   2.305   2.802   0.846 -0.0561 -0.2624 -0.7307
   11SOL    HW1   32   2.263   2.809   0.938 -1.1751  0.6689  1.5688
   11SOL    HW2   33   2.405   2.777   0.858 -0.3282 -0.0103  0.3251
   12SOL     OW   34   1.458   0.834   0.416  0.1742 -0.5328  0.4412
   12SOL    HW1   35   1.407   0.894   0.346 -3.5382 -1.6822 -0.0020
   12SOL    HW2   36   1.500   0.747   0.374  0.9384  0.3954 -0.9766
   13SOL     OW   37   2.439   0.743   1.763 -0.5489  0.0137 -0.2798
   13SOL    HW1   38   2.377   0.696   1.829  3.0484  1.7221 -0.3004
   13SOL    HW2   39   2.448   0.706   1.665 -2.4372  4.2354 -2.3783
   14SOL     OW   40   1.863   0.072   0.696  0.3332 -0.3983  0.0842
   14SOL    HW1   41   1.774   0.090   0.643  0.0594 -0.7336  0.6785
   14SOL    HW2   42   1.873  -0.023   0.737  1.1979 -1.4262 -3.0719
   15SOL     OW   43   1.870   2.100   2.719  0.3975 -0.1105 -0.7258
   15SOL    HW1   44   1.828   2.194   2.724  1.4042  0.1561  1.3184
   15SOL    HW2   45   1.798   2.032   2.690 -3.0000  0.3412  1.3775
   16SOL     OW   46   1.581   1.687   3.004 -0.1280  0.3750  0.0085
   16SOL    HW1   47   1.581   1.589   3.031  1.0248 -2.1493 -3.6655
   16SOL    HW2   48   1.673   1.729   3.003  0.1247 -1.4186 -1.1191
   17SOL     OW   49   0.075   0.467   0.151  0.5155  0.2059  0.0667
   17SOL    HW1   50   0.155   0.514   0.111  0.0394 -2.7367 -1.4916
   17SOL    HW2   51  -0.006   0.477   0.093  2.5699  0.8294  2.6105
   18SOL     OW   52   0.940   2.965   2.156  0.1450  0.1376  0.4189
   18SOL    HW1   53   0.845   2.925   2.145  1.7308 -1.0043  1.0082
   18SOL    HW2   54   0.989   2.964   2.070 -2.2867 -0.8156 -1.1699
   19SOL     OW   55   0.481   0.840   1.886 -0.0809  0.2502  0.3610
   19SOL    HW1   56   0.505   0.775   1.958 -2.3338 -1.7060 -1.0235
   19SOL    HW2   57   0.541   0.926   1.874 -0.5941  0.0921  2.3928
   20SOL     OW   58   0.196   2.820   0.864  0.1675  0.1643  0.0353
   20SOL    HW1   59   0.139   2.879   0.806 -0.8541 -0.2404  0.8188
   20SOL    HW2   60   0.227   2.739   0.810 -1.6556  0.6476  0.2633
   21SOL     OW   61   2.732   0.254   1.972  0.8666  0.2581 -0.5113
   21SOL    HW1   62   2.714   0.182   1.898  0.4705 -0.7405  1.2987
   21SOL    HW2   63   2.799   0.214   2.040  1.6068 -0.6627  1.4687
   22SOL     OW   64   2.322   0.198   0.144 -0.1194  0.1771  0.6962
   22SOL    HW1   65   2.319   0.100   0.110  2.5490  1.8603 -0.2362
   22SOL    HW2   66   2.273   0.261   0.083  3.2799 -2.1815 -0.5790
   23SOL     OW   67   2.796   0.589   0.674  0.5535 -0.1321  0.3052
   23SOL    HW1   68   2.821   0.507   0.621  0.6041  2.0713  0.9663
   23SOL    HW2   69   2.770   0.671   0.618 -1.0890 -2.5160  0.4200
   24SOL     OW   70   0.221   1.921   0.442  0.2107 -0.0266 -0.0068
   24SOL    HW1   71   0.199   1.983   0.361 -0.6412  1.9230  2.7410
   24SOL    HW2   72   0.312   1.882   0.441 -1.2512  2.1069  1.6127
   25SOL     OW   73   2.224   0.636   0.201 -0.4775 -0.5723 -0.0108
   25SOL    HW1   74   2.233   0.654   0.098 -0.8917  0.0467 -0.7943
   25SOL    HW2   75   2.277   0.557   0.237 -0.6742  1.7307  0.1877
   26SOL     OW   76   2.455   2.172   2.034  1.1358 -0.7507  0.2581
   26SOL    HW1   77   2.519   2.243   2.069 -0.9379  0.7069 -1.0577
   26SOL    HW2   78   2.493   2.103   1.969 -0.7134  1.6754 -1.2059
   27SOL     OW   79   0.645   2.914   0.275  0.7152  0.1277  0.2951
   27SOL    HW1   80   0.744   2.951   0.260 -0.4485 -0.3086 -0.5463
   27SOL    HW2   81   0.597   2.876   0.193  0.2387 -1.6854  2.3764
   28SOL     OW   82   1.584   0.165   0.283 -0.2167 -0.2187  0.4786
   28SOL    HW1   83   1.645   0.126   0.209 -2.6009 -1.4007 -1.0101
   28SOL    HW2   84   1.602   0.268   0.309  2.0593 -0.8228  0.1621
   29SOL     OW   85   1.970   0.564   0.298  0.0686 -0.2426 -0.7052
   29SOL    HW1   86   1.938   0.652   0.339  4.2171 -2.1614 -0.4226
   29SOL    HW2   87   2.073   0.575   0.282 -1.4077 -0.6032  3.6106
   30SOL     OW   88   0.200   2.083   0.913  0.6492  0.1573 -0.0848
   30SOL    HW1   89   0.159   2.025   0.836 -1.1019 -0.1774  1.1051
   30SOL    HW2   90   0.124   2.129   0.966 -1.3112 -0.4331 -1.0581
   31SOL     OW   91   2.117   0.087   2.392  0.0932  0.2569 -0.3516
   31SOL    HW1   92   2.088   0.073   2.492 -1.6117  2.8811  0.4023
   31SOL    HW2   93   2.054   0.035   2.323 -1.5242  0.4444 -0.7778
   32SOL     OW   94   2.981   0.030   0.231 -0.3976  0.2637  0.4611
   32SOL    HW1   95   2.978  -0.070   0.240 -1.1720 -1.3315 -0.2844
   32SOL    HW2   96   3.072   0.068   0.258 -3.2692  0.5741 -1.8747
   33SOL     OW   97   0.889   0.322   0.630 -0.2674 -0.3106 -0.0308
   33SOL    HW1   98   0.887   0.220   0.599  0.2492 -0.5925  0.5084
   33SOL    HW2   99   0.986   0.355   0.640 -3.0841  0.8501 -1.2584
   34SOL     OW  100   0.342   2.714   1.090 -0.0758 -0.0559  0.3321
   34SOL    HW1  101   0.271   2.769   1.037 -0.1405  1.4537  0.4228
   34SOL    HW2  102   0.433   2.759   1.082  0.8670 -1.0195  2.2014
   35SOL     OW  103   0.043   0.127   1.883 -0.7819  0.2486 -0.1930
   35SOL    HW1  104   0.069   0.027   1.907 -0.4062 -0.4774  0.9889
   35SOL    HW2  105   0.016   0.134   1.784  1.1283  2.3978 -1.1555
   36SOL     OW  106   1.863   1.247   1.594 -0.9608 -0.1421 -0.7504
   36SOL    HW1  107   1.936   1.171   1.588  0.6915 -2.5434 -1.0582
   36SOL    HW2  108   1.907   1.331   1.552  2.3325 -0.5915  1.2335
   37SOL     OW  109   1.187   0.247   0.951  0.4974  0.0496 -0.3275
   37SOL    HW1  110   1.228   0.321   1.014 -0.6223 -1.2128 -1.0867
   37SOL    HW2  111   1.255   0.207   0.886 -3.0314 -0.5115  1.1923
   38SOL     OW  112   1.153   2.813   2.387 -0.0808  0.3806 -0.1448
   38SOL    HW1  113   1.087   2.736   2.365 -2.6600  2.7337 -3.0870
   38SOL    HW2  114   1.101   2.902   2.389  1.5590 -3.2501  1.2244
   39SOL     OW  115   2.327   1.402   3.047 -0.5429 -0.4150 -0.4681
   39SOL    HW1  116   2.390   1.321   3.056 -1.7840 -2.0778 -0.5826
   39SOL    HW2  117   2.293   1.432   3.137 -0.2774 -0.1841 -0.0248
   40SOL     OW  118   1.993   2.462   2.642 -0.7327  0.2166  0.1269
   40SOL    HW1  119   1.956   2.554   2.612 -0.4693  0.7938 -1.5916
   40SOL    HW2  120   1.973   2.390   2.568  0.2131  1.5956 -1.2446
   41SOL     OW  121   3.008   0.649   2.801 -0.0041 -0.2217  0.2643
   41SOL    HW1  122   2.923   0.709   2.803  0.4359 -0.4630  1.2906
   41SOL    HW2  123   2.994   0.555   2.763  3.2203  3.0677 -1.1230
   42SOL     OW  124   1.732   1.795   0.486 -0.3114  0.1213 -0.1443
   42SOL    HW1  125   1.668   1.710   0.511 -3.1474 -1.1901 -0.4323
   42SOL    HW2  126   1.738   1.812   0.384  0.7047 -0.5484  1.3977
   43SOL     OW  127   0.429   1.689   1.174  0.2617  0.2569  0.1503
   43SOL    HW1  128   0.441   1.586   1.185  0.1115 -2.9904 -0.6587
   43SOL    HW2  129   0.342   1.720   1.220  2.2258 -2.7316  1.5585
   44SOL     OW  130   1.694   2.339   2.996 -0.0419  0.2572  0.4609
   44SOL    HW1  131   1.608   2.391   2.991  0.5280 -1.1242 -0.8796
   44SOL    HW2  132   1.722   2.313   2.902 -0.1541 -2.5435  0.0510
   45SOL     OW  133   0.346   1.875   2.594 -0.2240  0.3020 -0.2417
   45SOL    HW1  134   0.328   1.856   2.495  0.6792 -0.7112 -0.9670
   45SOL    HW2  135   0.417   1.806   2.631  1.4907  0.5603 -1.4906
   46SOL     OW  136   1.276   0.624   0.147 -0.3938  0.4059 -0.0268
   46SOL    HW1  137   1.282   0.714   0.098 -1.2704 -0.1028 -2.6710
   46SOL    HW2  138   1.187   0.571   0.130  0.6983 -0.8140 -0.0037
   47SOL     OW  139   0.213   2.510   1.583 -0.2164 -0.0445  0.7576
   47SOL    HW1  140   0.203   2.407   1.583 -1.7327  0.7778 -1.3532
   47SOL    HW2  141   0.209   2.539   1.481 -0.9105  0.3809 -2.0036
   48SOL     OW  142   2.618   0.628   0.139  0.0152 -0.3681  0.2506
   48SOL    HW1  143   2.612   0.611   0.238  0.2924  1.3413 -1.0725
   48SOL    HW2  144   2.714   0.658   0.112 -1.2167  0.5286 -0.3840
   49SOL     OW  145   0.324   0.741   1.650 -0.3933  0.0951 -0.5176
   49SOL    HW1  146   0.395   0.758   1.724 -0.3870  1.7278  0.6400
   49SOL    HW2  147   0.375   0.699   1.570 -2.3606 -0.5195  0.6181
   50SOL     OW  148   1.687   1.099   0.335  0.2321 -0.0095 -0.5631
   50SOL    HW1  149   1.702   1.014   0.284  3.6055 -1.1729  2.1643
   50SOL    HW2  150   1.628   1.090   0.416 -0.6991 -0.3389 -0.2651
   51SOL     OW  151   2.984   1.730   0.265 -0.2510  0.1004 -0.1942
   51SOL    HW1  152   2.940   1.649   0.225  2.5398  1.1680 -0.8031
   51SOL    HW2  153   3.070   1.706   0.318  0.8823 -1.5258  0.1728
   52SOL     OW  154   0.804   2.135   0.619 -0.0873  0.2522  0.2822
   52SOL    HW1  155   0.733   2.187   0.670  2.6184 -1.6380  0.3706
   52SOL    HW2  156   0.855   2.068   0.680  3.0214  0.1531  0.9351
   53SOL     OW  157   0.184   0.471   1.589 -0.5307  0.1784 -0.1649
   53SOL    HW1  158   0.250   0.548   1.601  2.3824 -0.1561  0.4160
   53SOL    HW2  159   0.101   0.496   1.532 -1.4235 -0.6851  0.0565
   54SOL     OW  160   1.798   0.500   3.028 -0.5425 -0.0634  0.3976
   54SOL    HW1  161   1.857   0.448   3.095  0.8397  1.2828 -2.4505
   54SOL    HW2  162   1.701   0.495   3.052  2.3715  2.0180  0.5566
   55SOL     OW  163   0.760   2.876   0.665  0.2002 -0.4806  0.5688
   55SOL    HW1  164   0.710   2.970   0.678 -2.0546 -2.3300  1.5452
   55SOL    HW2  165   0.862   2.872   0.646  0.1362 -0.5618  1.1289
   56SOL     OW  166   0.597   1.599   0.022 -0.1259 -0.6398  0.1172
   56SOL    HW1  167   0.529   1.653   0.078 -0.0854 -0.6787  0.2774
   56SOL    HW2  168   0.543   1.522  -0.024 -1.0197  1.2751  0.1368
   57SOL     OW  169   1.714   2.525   2.355  0.2208  0.2453  0.2218
   57SOL    HW1  170   1.777   2.443   2.351  1.7251 -4.8773  1.2105
   57SOL    HW2  171   1.657   2.525   2.439  2.1968  1.2651 -0.3970
   58SOL     OW  172   0.684   0.280   1.075 -0.2642 -0.3854  0.5980
   58SOL    HW1  173   0.592   0.291   1.125 -0.8991 -1.1505  0.8431
   58SOL    HW2  174   0.716   0.179   1.056  2.0245 -1.3304  2.5297
   59SOL     OW  175   0.381   2.342   2.721 -0.2778  0.6869  0.1351
   59SOL    HW1  176   0.404   2.251   2.672 -0.0201  0.0594 -2.5276
   59SOL    HW2  177   0.452   2.355   2.793 -2.2119  0.2006  0.8396
   60SOL     OW  178   2.320   2.099   2.312 -0.1286  0.1679  0.1784
   60SOL    HW1  179   2.380   2.151   2.249 -0.8509  1.2994 -0.2885
   60SOL    HW2  180   2.294   2.146   2.395  2.5689 -1.2180  0.1250
   61SOL     OW  181   1.263   0.592   0.414 -0.1434  0.0523  0.1286
   61SOL    HW1  182   1.184   0.635   0.460  4.4856  0.8497 -2.3389
   61SOL    HW2  183   1.267   0.624   0.317 -0.4561  0.1780  0.4511
   62SOL     OW  184   2.733   1.745   2.898  0.3322 -0.1203 -0.5156
   62SOL    HW1  185   2.724   1.733   2.798 -0.3239 -1.5795 -0.0988
   62SOL    HW2  186   2.829   1.711   2.924  0.4402 -0.0729 -0.1914
   63SOL     OW  187   0.554   0.827   0.196  0.4830  0.5654 -0.0236
   63SOL    HW1  188   0.587   0.920   0.162  2.0172 -0.2575  0.8701
   63SOL    HW2  189   0.578   0.811   0.297  1.0826  1.7318 -1.1005
   64SOL     OW  190   3.096   0.499   2.471 -0.6408  0.9252  0.1754
   64SOL    HW1  191   3.059   0.538   2.558 -1.3593  1.1425 -0.9028
   64SOL    HW2  192   3.079   0.546   2.380 -0.0138  1.6815 -2.4996
   65SOL     OW  193   0.206   1.505   0.647  0.3783 -0.1567  0.5935
   65SOL    HW1  194   0.201   1.576   0.728  0.1835  0.0863 -0.9682
   65SOL    HW2  195   0.299   1.480   0.607  2.7558  0.2894 -0.0521
   66SOL     OW  196   2.525   0.379   0.558 -0.5616 -0.0080 -0.2494
   66SOL    HW1  197   2.628   0.350   0.570  0.5802 -0.4018  2.2312
   66SOL    HW2  198   2.466   0.319   0.618  1.8442  2.2282  0.5931
   67SOL     OW  199   0.608   2.461   1.411  0.4277 -0.2278  0.2371
   67SOL    HW1  200   0.702   2.422   1.440  0.2704 -0.2792 -0.7902
   67SOL    HW2  201   0.532   2.393   1.430  0.9980  0.4950  3.6982
   68SOL     OW  202   0.968   1.035   2.519  0.0746  0.0548 -0.1168
   68SOL    HW1  203   1.052   0.994   2.484 -0.3033  1.9305 -2.6921
   68SOL    HW2  204   0.902   1.059   2.448 -0.9832 -1.4264  0.6403
   69SOL     OW  205   0.702   2.788   2.189  0.3375 -0.5441  0.5019
   69SOL    HW1  206   0.740   2.694   2.171 -0.0518 -1.4761  0.9371
   69SOL    HW2  207   0.596   2.791   2.209 -3.5026  0.8285  2.5190
   70SOL     OW  208   0.470   0.149   2.573 -0.4248 -0.7275  0.0437
   70SOL    HW1  209   0.377   0.142   2.622 -1.2972  0.8282  0.4920
   70SOL    HW2  210   0.535   0.069   2.598 -2.4759  0.2681 -0.8915
   71SOL     OW  211   1.105   1.811   0.380  0.0069 -0.2322 -0.3848
   71SOL    HW1  212   1.058   1.725   0.419  0.3329 -3.3405 -0.3436
   71SOL    HW2  213   1.081   1.820   0.281  0.4177  2.2473  2.8926
   72SOL     OW  214   1.826   0.194   2.168  0.7349 -0.2433  0.2393
   72SOL    HW1  215   1.880   0.277   2.171 -3.8557 -1.8834 -1.7784
   72SOL    HW2  216   1.873   0.103   2.141 -1.0204 -2.7299  1.4911
   73SOL     OW  217   2.808   2.185   2.368 -0.0527 -0.4908 -0.5317
   73SOL    HW1  218   2.825   2.091   2.323 -1.8183 -0.4029 -0.7718
   73SOL    HW2  219   2.851   2.194   2.459 -0.6523 -3.0194 -1.5469
   74SOL     OW  220   2.631   2.858   2.194 -0.5994  0.1747 -0.0860
   74SOL    HW1  221   2.609   2.827   2.287  3.5075 -2.4784 -1.1454
   74SOL    HW2  222   2.717   2.921   2.186  0.5162 -1.5669  0.3734
   75SOL     OW  223   0.972   0.847   1.064  0.8531 -0.3563 -0.2446
   75SOL    HW1  224   0.882   0.890   1.023 -2.2877  2.5084  2.8311
   75SOL    HW2  225   0.990   0.893   1.155  0.7735  1.4446  0.2107
   76SOL     OW  226   1.778   1.218   2.477  0.1718  0.3063 -0.0192
   76SOL    HW1  227   1.679   1.207   2.465  3.0215  1.2733 -3.2238
   76SOL    HW2  228   1.803   1.318   2.483 -1.4120 -1.1391 -1.9085
   77SOL     OW  229   2.945   0.939   1.023  0.1817 -0.1009 -0.0606
   77SOL    HW1  230   2.929   0.837   1.001  0.5175 -1.8449  1.3882
   77SOL    HW2  231   3.025   0.949   1.091  0.2098  1.1196 -0.3221
   78SOL     OW  232   1.989   1.470   1.464 -0.0976 -0.6640 -0.8850
   78SOL    HW1  233   2.079   1.509   1.429 -0.9975  0.8823 -2.0991
   78SOL    HW2  234   1.906   1.493   1.403  0.5701  0.4426 -1.0873
   79SOL     OW  235   0.636   1.429   0.791 -0.0242  0.3266 -0.2705
   79SOL    HW1  236   0.540   1.409   0.829 -0.4652 -2.8646 -0.8330
   79SOL    HW2  237   0.662   1.350   0.733 -2.2294 -0.2671  2.0450
   80SOL     OW  238   0.656   0.458   1.540 -0.2386  0.2188  0.2030
   80SOL    HW1  239   0.717   0.522   1.482 -0.2955  0.6217  1.1380
   80SOL    HW2  240   0.661   0.360   1.505 -0.0235  0.2613 -1.8562
   81SOL     OW  241   1.020   1.282   2.608 -0.4028  0.1025 -0.2728
   81SOL    HW1  242   1.001   1.183   2.574 -1.0041 -1.1640  0.4192
   81SOL    HW2  243   0.956   1.347   2.556 -2.1975 -2.0854 -0.0141
   82SOL     OW  244   0.913   2.991   1.502 -0.5143 -0.4978 -0.6518
   82SOL    HW1  245   0.809   2.981   1.490  0.4374 -0.0465 -3.3113
   82SOL    HW2  246   0.972   2.966   1.418  1.9726 -1.8333  1.2531
   83SOL     OW  247   2.597   2.376   0.856 -0.7341 -0.3203  0.1804
   83SOL    HW1  248   2.588   2.433   0.939  2.5092 -0.0375 -0.0765
   83SOL    HW2  249   2.513   2.382   0.786 -0.5641  2.4551  0.1199
   84SOL     OW  250   0.724   3.084   2.388  0.5449 -0.0325  0.3704
   84SOL    HW1  251   0.637   3.083   2.440  1.2189 -0.0962  0.3830
   84SOL    HW2  252   0.795   3.006   2.410  2.9651 -0.4461  0.4275
   85SOL     OW  253   0.264   1.638   1.452 -0.3760  0.2564  0.2696
   85SOL    HW1  254   0.217   1.728   1.454  1.0189 -2.9285  2.9956
   85SOL    HW2  255   0.315   1.616   1.536  0.8251  1.0147 -0.6442
   86SOL     OW  256   0.470   1.092   1.469 -0.1588  0.3246  0.2611
   86SOL    HW1  257   0.419   1.025   1.405 -1.7965 -0.4443 -0.1787
   86SOL    HW2  258   0.568   1.054   1.487  1.3003 -2.9805 -0.8303
   87SOL     OW  259   1.661   0.664   0.276  0.2538  0.0535  0.0942
   87SOL    HW1  260   1.695   0.760   0.252  0.9419  0.9048  2.1959
   87SOL    HW2  261   1.665   0.594   0.193 -1.1797 -1.0292 -0.0571
   88SOL     OW  262   1.593   1.358   0.269 -0.3244 -0.3482 -0.2331
   88SOL    HW1  263   1.622   1.258   0.275  2.1409  1.8396  2.4415
   88SOL    HW2  264   1.493   1.369   0.243  1.8969 -1.9393 -0.2539
   89SOL     OW  265   3.094   0.392   0.599  0.0577 -0.0853  0.4934
   89SOL    HW1  266   3.163   0.313   0.578  0.2353 -1.4565 -0.6109
   89SOL    HW2  267   2.997   0.373   0.562 -2.9268 -1.1173 -1.7495
   90SOL     OW  268   0.859   1.574   0.073 -0.5701 -0.3596  0.1107
   90SOL    HW1  269   0.868   1.471   0.085 -0.9963  1.6029  1.9947
   90SOL    HW2  270   0.765   1.593   0.034 -1.4635 -1.2103  1.7698
   91SOL     OW  271   1.221   1.454   1.783 -0.0677  0.0479  0.0763
   91SOL    HW1  272   1.191   1.533   1.839  1.2129 -1.4113 -1.3776
   91SOL    HW2  273   1.323   1.441   1.797  1.3336  2.0786  0.6317
   92SOL     OW  274   0.002   0.953   1.257  0.2774  0.0089  0.3834
   92SOL    HW1  275   0.062   1.027   1.211  1.4172 -1.5539 -3.2409
   92SOL    HW2  276  -0.001   0.970   1.360 -0.5026  0.7398  1.3507
   93SOL     OW  277   3.049   2.722   0.042 -0.2587 -0.0073  0.0986
   93SOL    HW1  278   3.021   2.704  -0.058  0.7048 -0.5681 -2.3458
   93SOL    HW2  279   3.071   2.632   0.088 -2.3605 -1.7847  0.4325
   94SOL     OW  280   1.491   1.464   1.804 -0.5091 -0.3008 -0.5035
   94SOL    HW1  281   1.550   1.380   1.814 -0.5175 -1.1118 -1.8058
   94SOL    HW2  282   1.537   1.541   1.859 -0.8037 -0.1888 -1.1499
   95SOL     OW  283   1.483   2.507   2.963 -0.2417 -0.1513 -0.1789
   95SOL    HW1  284   1.432   2.565   3.033 -0.4216  1.0801 -0.0683
   95SOL    HW2  285   1.428   2.433   2.924  0.8279  0.8904  1.0139
   96SOL     OW  286   0.557   2.101   1.303 -0.0672  0.1630  0.3052
   96SOL    HW1  287   0.505   2.057   1.223 -2.3561  0.6857  0.8748
   96SOL    HW2  288   0.608   2.033   1.363 -0.6903  1.9570  0.0728
   97SOL     OW  289   0.313   1.614   2.453  0.1132 -0.5893  0.1517
   97SOL    HW1  290   0.243   1.666   2.398  1.6716 -1.0169 -0.9379
   97SOL    HW2  291   0.280   1.603   2.554  0.2146 -0.5717  1.6632
   98SOL     OW  292   2.100   1.592   1.211  0.2896 -0.1699  0.4096
   98SOL    HW1  293   1.998   1.571   1.226  1.4132  2.0641  0.6283
   98SOL    HW2  294   2.145   1.530   1.140  1.3825  0.6412  0.5851
   99SOL     OW  295   2.556   2.069   1.287  0.4432  0.0114 -0.0223
   99SOL    HW1  296   2.616   2.096   1.368 -2.6049 -1.4407 -0.4275
   99SOL    HW2  297   2.518   1.974   1.299  0.3462  0.6829 -1.0860
  100SOL     OW  298   2.290   0.406   2.069 -0.2416  0.0009 -0.1067
  100SOL    HW1  299   2.256   0.394   2.169  0.8708 -1.9360 -1.1665
  100SOL    HW2  300   2.394   0.421   2.061 -2.0277 -1.8038 -1.1479
  101SOL     OW  301   0.450   1.507   0.454 -0.2805 -0.0722 -0.2694
  101SOL    HW1  302   0.429   1.599   0.492  1.8594  0.0059 -0.0149
  101SOL    HW2  303   0.545   1.504   0.405  0.7568 -0.9856 -2.2586
  102SOL     OW  304   2.278   1.086   0.833  0.6050  0.4423 -0.0703
  102SOL    HW1  305   2.205   1.030   0.790 -0.6924 -3.0743 -0.2124
  102SOL    HW2  306   2.354   1.115   0.771  1.3557 -0.5991  2.0907
  103SOL     OW  307   2.221   0.118   0.385 -0.0139  0.1911  0.1726
  103SOL    HW1  308   2.269   0.168   0.307 -2.3870  0.2800  0.4568
  103SOL    HW2  309   2.294   0.077   0.447  3.1931 -0.9530 -1.3842
  104SOL     OW  310   0.062   1.879   2.117 -0.3776  0.6454 -0.1712
  104SOL    HW1  311   0.111   1.870   2.029 -1.3790  0.4575  0.7774
  104SOL    HW2  312  -0.042   1.882   2.100 -2.6891  1.4105 -2.3902
  105SOL     OW  313   1.273   2.120   0.806 -0.3514  0.0965  0.3104
  105SOL    HW1  314   1.298   2.209   0.755 -0.9002 -0.3081 -1.2847
  105SOL    HW2  315   1.245   2.048   0.736  1.9165 -0.8909 -0.9397
  106SOL     OW  316   2.126   0.347   1.429 -0.3950 -0.0335  0.7309
  106SOL    HW1  317   2.081   0.252   1.439 -2.8650 -1.1468 -1.2049
  106SOL    HW2  318   2.106   0.405   1.513 -0.8060  0.8626  2.7731
  107SOL     OW  319   1.915   2.941   1.228  0.0467  0.1202 -0.6324
  107SOL    HW1  320   1.864   3.026   1.253  3.2781 -1.8193  1.6058
  107SOL    HW2  321   1.854   2.864   1.204 -0.3260  1.8063  1.1911
  108SOL     OW  322   0.830   2.806   1.244  0.5804 -0.0049 -0.3846
  108SOL    HW1  323   0.890   2.726   1.269  1.0933 -0.8526 -2.4180
  108SOL    HW2  324   0.890   2.889   1.228  0.9704  2.3335  0.9479
  109SOL     OW  325   2.122   0.138   0.748  0.4692  0.1925  0.1028
  109SOL    HW1  326   2.026   0.120   0.711  1.4319  0.2934 -0.5264
  109SOL    HW2  327   2.125   0.114   0.848  0.3172 -1.3332 -1.0287
  110SOL     OW  328   0.452   2.797   2.771 -0.5488 -0.0804  0.2720
  110SOL    HW1  329   0.421   2.779   2.670 -1.0250  0.6494  0.2519
  110SOL    HW2  330   0.502   2.721   2.815 -1.8689  1.1191  0.2815
  111SOL     OW  331   1.261   0.462   2.329  0.1199 -0.0779 -0.5141
  111SOL    HW1  332   1.185   0.506   2.379  1.2760  0.6315 -1.9038
  111SOL    HW2  333   1.329   0.409   2.395 -0.2997  0.8979  0.0997
  112SOL     OW  334   1.769   0.470   1.494  0.1661 -0.0568 -0.1426
  112SOL    HW1  335   1.714   0.453   1.410 -0.3743 -0.2683  2.2299
  112SOL    HW2  336   1.714   0.448   1.574 -0.0042 -2.2042 -1.0195
  113SOL     OW  337   2.355   1.630   1.728 -0.9359  0.4698 -0.3812
  113SOL    HW1  338   2.417   1.543   1.726  1.2436  0.2090 -1.2895
  113SOL    HW2  339   2.368   1.690   1.816 -1.6090  0.7456  1.2634
  114SOL     OW  340   0.333   0.560   1.212 -0.0869  0.1719  0.2622
  114SOL    HW1  341   0.395   0.624   1.152 -0.6221  1.0558 -1.7193
  114SOL    HW2  342   0.238   0.587   1.218 -0.6332 -0.8405 -3.2299
  115SOL     OW  343   2.766   1.608   1.287  0.3117 -0.8769  0.7499
  115SOL    HW1  344   2.723   1.511   1.286  3.1624  1.7159  0.2979
  115SOL    HW2  345   2.864   1.599   1.258  0.4256  1.8292 -1.0176
  116SOL     OW  346   1.824   1.033   0.630  0.4097 -0.5733 -0.0036
  116SOL    HW1  347   1.741   0.968   0.628 -1.5017 -4.0225 -0.0704
  116SOL    HW2  348   1.808   1.128   0.676  0.5738  2.7094  2.4337
  117SOL     OW  349   1.143   0.351   0.581  0.4569 -0.3036 -0.1825
  117SOL    HW1  350   1.207   0.434   0.602  1.2910  2.6408  0.2915
  117SOL    HW2  351   1.143   0.324   0.484 -0.8047  0.4231  1.7075
  118SOL     OW  352   1.065   1.190   1.127 -0.2092  0.2782 -0.5513
  118SOL    HW1  353   1.040   1.103   1.185  0.6657  0.0875 -1.0278
  118SOL    HW2  354   1.105   1.271   1.184  1.7149  0.1688  0.6779
  119SOL     OW  355   1.829   1.581   2.183  0.3108  0.4362  0.5147
  119SOL    HW1  356   1.787   1.675   2.162 -0.1426 -0.6178 -3.5279
  119SOL    HW2  357   1.928   1.579   2.150 -2.0348 -1.6487 -1.7943
  120SOL     OW  358   2.896   2.844   0.227  0.0225 -0.2259 -0.2988
  120SOL    HW1  359   2.965   2.794   0.167 -3.3168  0.0493 -0.8434
  120SOL    HW2  360   2.808   2.792   0.221  0.1846  1.5227 -2.1815
  121SOL     OW  361   1.896   0.710   2.211 -0.5500 -0.0930 -0.4282
  121SOL    HW1  362   1.911   0.799   2.162 -0.8703 -0.6198 -0.6457
  121SOL    HW2  363   1.912   0.630   2.148 -1.1279  1.3046 -0.5256
  122SOL     OW  364   2.648   2.562   1.328 -0.2839 -0.6242  0.1361
  122SOL    HW1  365   2.659   2.563   1.228 -0.2030  3.2966  0.3629
  122SOL    HW2  366   2.646   2.465   1.363 -0.1567  1.6104 -0.7630
  123SOL     OW  367   1.724   0.070   1.699 -0.0349  0.8782  0.3173
  123SOL    HW1  368   1.754  -0.006   1.632 -1.7078 -0.5074 -1.6546
  123SOL    HW2  369   1.799   0.095   1.770 -1.1541 -0.4127 -2.7328
  124SOL     OW  370   0.011   0.435   1.078 -0.2645 -0.0298 -0.0148
  124SOL    HW1  371  -0.010   0.504   1.152 -1.4653 -1.9374 -2.3054
  124SOL    HW2  372   0.011   0.486   0.986 -0.6389  1.8319 -0.0429
  125SOL     OW  373   0.909   1.924   0.750  0.0846  0.4665  0.0601
  125SOL    HW1  374   0.979   1.848   0.759 -1.2084  2.3987  1.1677
  125SOL    HW2  375   0.826   1.905   0.806 -0.6348  0.6246  1.7564
  126SOL     OW  376   1.857   2.281   2.406  1.0559  0.1796 -0.1252
  126SOL    HW1  377   1.908   2.256   2.321 -2.7494 -1.9039 -0.7967
  126SOL    HW2  378   1.790   2.212   2.446 -0.7576  0.0717 -0.8804
  127SOL     OW  379   0.917   0.952   0.189 -0.2423 -0.2393  0.4561
  127SOL    HW1  380   0.956   0.990   0.277 -0.1691  1.4897  0.1149
  127SOL    HW2  381   0.925   0.847   0.184  0.6343 -2.7407 -0.0358
  128SOL     OW  382   0.924   0.279   1.421  0.5121 -0.0281  0.1272
  128SOL    HW1  383   0.918   0.328   1.331 -0.9658 -2.1331 -0.9714
  128SOL    HW2  384   0.896   0.185   1.413 -0.5608 -0.4989 -0.7967
  129SOL     OW  385   1.857   0.678   1.854 -0.1953  0.3896 -0.1931
  129SOL    HW1  386   1.871   0.675   1.749  0.6534 -0.9006 -4.1399
  129SOL    HW2  387   1.874   0.774   1.895 -0.8034  2.1945 -0.9405
  130SOL     OW  388   1.430   2.163   1.020  0.2901  0.3814 -0.3091
  130SOL    HW1  389   1.373   2.127   0.944  0.7498  2.3184  0.7229
  130SOL    HW2  390   1.507   2.220   0.986  2.2300  0.3312  1.8956
  131SOL     OW  391   3.022   1.339   1.378 -0.3281  0.2278 -0.3763
  131SOL    HW1  392   2.995   1.260   1.436  1.6642  1.8408 -1.9155
  131SOL    HW2  393   3.124   1.344   1.376 -1.7768 -2.2193 -0.0382
  132SOL     OW  394   2.030   2.413   0.459  0.2714 -0.5453 -0.0347
  132SOL    HW1  395   1.939   2.459   0.489 -2.4296  0.7924 -0.1129
  132SOL    HW2  396   2.049   2.328   0.510  0.9317  2.8890  1.1425
  133SOL     OW  397   1.745   2.357   2.715 -0.2888  0.4755 -0.1510
  133SOL    HW1  398   1.674   2.417   2.674  1.3586  2.0648 -0.8239
  133SOL    HW2  399   1.836   2.400   2.732  1.7113 -2.4314  2.3599
  134SOL     OW  400   2.674   2.288   1.601 -0.0745  0.4888  0.1907
  134SOL    HW1  401   2.592   2.319   1.658 -0.2666  0.6177  0.1622
  134SOL    HW2  402   2.748   2.363   1.612 -2.2771  2.6664 -0.6239
  135SOL     OW  403   0.723   1.476   2.661  0.0228 -0.1212 -0.5623
  135SOL    HW1  404   0.716   1.397   2.729 -1.5101  1.0720  2.1814
  135SOL    HW2  405   0.717   1.439   2.564  0.5586  1.4565  1.0206
  136SOL     OW  406   1.233   2.031   0.493  0.5595  0.1020  0.1626
  136SOL    HW1  407   1.165   2.109   0.485 -4.1003 -1.8342 -0.3200
  136SOL    HW2  408   1.193   1.942   0.456  1.7859 -0.3668  2.0273
  137SOL     OW  409   0.432   1.201   2.247  0.2145  0.4678 -0.0187
  137SOL    HW1  410   0.327   1.194   2.233  1.4798 -0.2466  2.5146
  137SOL    HW2  411   0.487   1.115   2.222 -1.9096 -4.3266 -0.7046
  138SOL     OW  412   2.506   1.496   0.272 -0.1021 -0.2104  0.2765
  138SOL    HW1  413   2.420   1.435   0.263  1.1734 -0.5024 -1.3575
  138SOL    HW2  414   2.591   1.452   0.317  0.0491 -0.5521 -2.0367
  139SOL     OW  415   1.904   2.616   1.485 -0.6449  0.0967  0.0486
  139SOL    HW1  416   1.807   2.646   1.487  0.3755  0.3854  1.7117
  139SOL    HW2  417   1.908   2.523   1.445 -1.1221  0.0209  1.0984
  140SOL     OW  418   3.015   2.982   2.547 -0.3868 -0.3928  0.2659
  140SOL    HW1  419   3.065   2.888   2.545  1.0974 -3.9776 -0.2924
  140SOL    HW2  420   3.071   3.059   2.504  0.6663  0.8082 -1.0386
  141SOL     OW  421   1.315   1.701   1.640  0.1375 -0.3484 -0.7316
  141SOL    HW1  422   1.228   1.753   1.618 -1.1895 -0.9697  0.2609
  141SOL    HW2  423   1.297   1.605   1.670 -0.1356 -0.6145 -0.7518
  142SOL     OW  424   1.535   0.582   2.252 -0.4872  0.0023  0.4442
  142SOL    HW1  425   1.580   0.563   2.158  0.3471  0.9625 -0.9471
  142SOL    HW2  426   1.444   0.532   2.256  0.3642 -0.1461  1.5058
  143SOL     OW  427   2.783   0.902   0.500  0.4900 -0.0710 -0.2052
  143SOL    HW1  428   2.832   0.926   0.410  1.2992 -0.7644 -2.3138
  143SOL    HW2  429   2.843   0.930   0.586 -2.4032  0.3667  1.5849
  144SOL     OW  430   2.894   1.145   1.515 -0.5121 -0.2506  0.2113
  144SOL    HW1  431   2.871   1.173   1.612 -1.1191  1.6150  1.1830
  144SOL    HW2  432   2.965   1.073   1.517  1.1216  1.6286  1.4767
  145SOL     OW  433   1.011   1.803   0.114 -0.0545  0.2898  0.0173
  145SOL    HW1  434   0.994   1.853   0.028 -3.5161  1.0855  0.9834
  145SOL    HW2  435   0.968   1.708   0.112 -1.6147 -0.1134 -0.4052
  146SOL     OW  436   2.445   0.660   1.493  0.1728  0.0232 -0.2923
  146SOL    HW1  437   2.414   0.582   1.427 -1.3250 -0.4320 -2.0945
  146SOL    HW2  438   2.397   0.750   1.465 -0.1808  3.1948 -0.5673
  147SOL     OW  439   1.077   2.557   0.588 -0.5469 -0.7667 -0.3140
  147SOL    HW1  440   1.053   2.615   0.505 -0.3770 -0.2192 -0.6721
  147SOL    HW2  441   1.179   2.525   0.583  2.8622 -0.4778 -1.0266
  148SOL     OW  442   1.623   1.436   0.009 -0.0665 -0.3716 -0.1343
  148SOL    HW1  443   1.628   1.353  -0.056 -0.3657 -1.0683 -0.0198
  148SOL    HW2  444   1.635   1.410   0.109  0.7967  1.2923  0.5255
  149SOL     OW  445   0.633   1.462   1.935 -0.2745 -0.0712  0.5371
  149SOL    HW1  446   0.542   1.424   1.966  0.4044  1.9354  2.6989
  149SOL    HW2  447   0.682   1.414   1.858 -2.8466 -2.3626  2.8716
  150SOL     OW  448   3.014   1.230   0.993 -0.1150 -0.1004  0.1954
  150SOL    HW1  449   3.099   1.222   1.054  0.9498  0.8591 -0.4619
  150SOL    HW2  450   2.951   1.146   0.994 -4.3980  0.8792 -1.4912
  151SOL     OW  451   0.184   0.731   2.083  0.3420  0.9152 -0.4884
  151SOL    HW1  452   0.200   0.815   2.029 -1.9223  1.7565  0.8574
  151SOL    HW2  453   0.258   0.660   2.064  0.3156  2.4220 -1.0759
  152SOL     OW  454   1.464   1.791   1.165 -0.2447  0.4761  0.1988
  152SOL    HW1  455   1.522   1.879   1.189  2.4034  1.8608 -1.6255
  152SOL    HW2  456   1.369   1.813   1.133  0.5887  2.7423  1.2094
  153SOL     OW  457   0.169   1.533   0.229  0.1316 -0.8051  0.2671
  153SOL    HW1  458   0.130   1.439   0.222  1.0535 -0.9849  0.2516
  153SOL    HW2  459   0.133   1.588   0.308  1.2521 -1.6174 -1.8052
  154SOL     OW  460   2.362   1.906   2.830 -0.1500 -0.2066 -0.2177
  154SOL    HW1  461   2.359   1.805   2.852 -3.0242 -2.8339  0.1546
  154SOL    HW2  462   2.432   1.929   2.755  0.0550 -3.3418  0.0670
  155SOL     OW  463   2.524   1.170   0.409  0.0062  1.4485  0.1271
  155SOL    HW1  464   2.597   1.162   0.338  2.0030  0.3100  0.9900
  155SOL    HW2  465   2.437   1.110   0.393 -0.6937 -0.2813 -1.1951
  156SOL     OW  466   2.474   0.833   0.738  0.3723 -0.3794  0.0738
  156SOL    HW1  467   2.377   0.874   0.745 -0.6335  0.0702  1.1426
  156SOL    HW2  468   2.546   0.900   0.708 -1.9489  1.4282 -0.6363
  157SOL     OW  469   1.236   3.007   2.983  0.4447  0.1255 -0.4397
  157SOL    HW1  470   1.325   2.978   2.951 -1.1131  1.5115  0.4488
  157SOL    HW2  471   1.240   3.103   3.027  1.2188  0.4110  1.9759
  158SOL     OW  472   0.973   1.865   1.845 -0.5020  0.3975 -0.6335
  158SOL    HW1  473   1.001   1.958   1.809  1.8581  0.1158 -0.0111
  158SOL    HW2  474   0.901   1.870   1.920  1.2196 -1.1955  0.5265
  159SOL     OW  475   0.868   0.440   1.204 -0.4549 -0.6198  0.3070
  159SOL    HW1  476   0.815   0.519   1.232  0.1708  1.5155  0.4788
  159SOL    HW2  477   0.807   0.378   1.144 -3.7935  1.4452  0.9328
  160SOL     OW  478   1.361   2.452   1.562 -0.3705  0.3335 -0.4624
  160SOL    HW1  479   1.324   2.386   1.630  2.5005  0.4494 -0.7074
  160SOL    HW2  480   1.460   2.436   1.552  0.3145 -1.4372  0.6139
  161SOL     OW  481   3.066   2.816   0.455 -0.6386 -1.3636 -0.1588
  161SOL    HW1  482   3.038   2.809   0.557 -1.2382  1.7987 -1.2249
  161SOL    HW2  483   2.990   2.803   0.384  2.0511  1.0785  1.5209
  162SOL     OW  484   2.573   1.829   0.479 -0.3377 -0.0410 -0.3344
  162SOL    HW1  485   2.536   1.785   0.391 -1.9905  1.7739 -2.5056
  162SOL    HW2  486   2.642   1.770   0.529  0.8570 -0.6728  2.2760
  163SOL     OW  487   1.966   2.700   0.724 -0.0237 -0.3579  0.0999
  163SOL    HW1  488   1.934   2.731   0.628 -1.0741 -3.2114 -1.1756
  163SOL    HW2  489   2.034   2.625   0.724 -0.4089 -0.2190 -0.4199
  164SOL     OW  490   3.079   0.238   1.276  0.4428  1.0709 -0.1765
  164SOL    HW1  491   3.121   0.306   1.216 -2.3445 -0.2975 -0.4030
  164SOL    HW2  492   3.137   0.200   1.352 -1.7427 -0.1295 -2.2453
  165SOL     OW  493   1.042   1.404   0.731  0.7456 -0.3137 -0.3281
  165SOL    HW1  494   1.063   1.439   0.826 -1.9398  1.2961 -1.6187
  165SOL    HW2  495   1.004   1.481   0.673  2.2965  2.5499 -1.3986
  166SOL     OW  496   1.592   1.008   1.794 -0.2097 -0.0021 -0.0615
  166SOL    HW1  497   1.492   1.017   1.816 -1.3582  2.4413 -0.2697
  166SOL    HW2  498   1.639   1.100   1.779 -1.3733  2.4465 -1.7286
  167SOL     OW  499   0.744   1.967   1.449  0.2248 -0.3128 -0.0082
  167SOL    HW1  500   0.764   2.030   1.527 -0.1752 -1.1357 -2.7457
  167SOL    HW2  501   0.704   1.880   1.482  2.9208  1.9725  1.3206
  168SOL     OW  502   1.607   2.338   0.190 -0.1048 -0.1210  0.0566
  168SOL    HW1  503   1.665   2.363   0.109 -0.4065  0.2684  1.3775
  168SOL    HW2  504   1.652   2.306   0.278  0.2049  0.3959 -0.4111
  169SOL     OW  505   0.174   2.563   2.243 -0.6003  0.0572 -0.0797
  169SOL    HW1  506   0.182   2.515   2.154 -0.2521  1.6018  1.2114
  169SOL    HW2  507   0.199   2.511   2.332  1.0662 -2.3341 -1.0605
  170SOL     OW  508   1.101   0.252   2.013 -0.2610 -0.1518  0.3694
  170SOL    HW1  509   1.178   0.213   2.072  0.3692  0.9188  0.1821
  170SOL    HW2  510   1.128   0.242   1.910  0.6727  2.1888 -4.0411
  171SOL     OW  511   0.190   0.804   2.376  0.5999  0.2263  0.5466
  171SOL    HW1  512   0.103   0.828   2.430  0.6264  1.4065 -0.5567
  171SOL    HW2  513   0.170   0.799   2.270  1.5480  1.0494 -3.0348
  172SOL     OW  514   0.997   0.986   2.900 -0.2289 -0.0815  0.4676
  172SOL    HW1  515   0.952   1.039   2.977 -0.4644 -1.0332 -0.3341
  172SOL    HW2  516   0.930   0.954   2.831  1.5204  3.9968  0.6537
  173SOL     OW  517   0.537   2.498   0.116 -0.5049 -0.8036 -0.0767
  173SOL    HW1  518   0.521   2.401   0.096  0.5132 -0.6811  1.5235
  173SOL    HW2  519   0.447   2.538   0.133  0.1811  0.4188  2.0452
  174SOL     OW  520   1.502   2.824   1.037 -0.5493  0.6236  0.3119
  174SOL    HW1  521   1.577   2.873   0.983 -0.1014 -3.0154  3.2640
  174SOL    HW2  522   1.478   2.734   0.997  2.0851 -1.8864  0.0184
  175SOL     OW  523   0.464   3.037   1.702 -0.0442 -0.4154 -0.3509
  175SOL    HW1  524   0.529   3.004   1.774 -1.2065  2.0584 -0.4503
  175SOL    HW2  525   0.429   3.130   1.724 -0.1669 -1.2005 -2.0706
  176SOL     OW  526   2.553   0.379   0.008  0.4280  0.0411 -0.4626
  176SOL    HW1  527   2.562   0.470   0.062  1.2773 -0.3700 -0.8658
  176SOL    HW2  528   2.492   0.310   0.060 -0.5414 -1.8997  1.7631
  177SOL     OW  529   0.297   0.293   0.939  0.1235 -0.3051 -0.0639
  177SOL    HW1  530   0.308   0.191   0.926 -3.7347 -0.5439  0.4271
  177SOL    HW2  531   0.262   0.328   1.030  2.1925 -1.4359  1.5352
  178SOL     OW  532   0.024   2.727   2.608 -0.5685 -0.1223 -0.0655
  178SOL    HW1  533   0.002   2.632   2.570  0.7023  1.1712  1.3963
  178SOL    HW2  534   0.110   2.727   2.671  0.1623 -0.6639  0.3154
  179SOL     OW  535   3.030   1.562   1.152  0.1372 -0.3114 -0.0232
  179SOL    HW1  536   3.087   1.535   1.073  1.0749  0.3190 -0.0481
  179SOL    HW2  537   3.075   1.533   1.242  0.3528  0.0777 -1.0686
  180SOL     OW  538   0.204   1.302   1.800  0.4541  0.0886  0.1753
  180SOL    HW1  539   0.293   1.263   1.833  1.5175 -0.9770 -1.0859
  180SOL    HW2  540   0.171   1.380   1.865 -1.1708  2.6676  0.7109
  181SOL     OW  541   3.045   1.922   2.512 -0.5876 -0.0376  0.5915
  181SOL    HW1  542   3.110   1.999   2.481  0.0565  3.4608  0.6035
  181SOL    HW2  543   2.971   1.915   2.440 -0.9705  2.0244  2.6969
  182SOL     OW  544   2.338   1.224   1.230  0.0334  0.5451  0.1172
  182SOL    HW1  545   2.246   1.198   1.178  0.7693 -1.5289 -0.2344
  182SOL    HW2  546   2.377   1.315   1.207  1.5051 -2.0084  2.4851
  183SOL     OW  547   1.423   2.243   2.538  0.1979 -0.3018 -0.0336
  183SOL    HW1  548   1.339   2.196   2.573  2.0273 -0.1193 -1.5636
  183SOL    HW2  549   1.491   2.171   2.498  0.3238 -3.5094  0.0190
  184SOL     OW  550   2.065   0.936   0.727  0.8158 -0.4281 -0.0587
  184SOL    HW1  551   1.988   0.993   0.690 -0.9163  0.6120 -2.4691
  184SOL    HW2  552   2.047   0.836   0.742 -1.4602 -0.3697  0.8206
  185SOL     OW  553   1.571   2.735   1.972 -0.1284  0.0217  0.5865
  185SOL    HW1  554   1.492   2.803   1.967  0.7052  0.4555 -0.8534
  185SOL    HW2  555   1.621   2.738   2.066 -0.6737  0.2318  1.4082
  186SOL     OW  556   0.095   2.212   1.630 -0.3665 -0.0507 -0.1527
  186SOL    HW1  557   0.100   2.264   1.723  0.2029  1.5855  1.9137
  186SOL    HW2  558   0.171   2.145   1.629 -0.2489  1.2178  0.0387
  187SOL     OW  559   1.396   0.632   1.655  0.0746 -0.2485 -0.4294
  187SOL    HW1  560   1.481   0.700   1.660  1.5664  1.2948  3.7448
  187SOL    HW2  561   1.398   0.547   1.717  0.3685  0.2453  1.1519
  188SOL     OW  562   2.846   2.753   1.479 -0.0821 -0.5792 -0.1047
  188SOL    HW1  563   2.825   2.857   1.471  0.3169  3.2016  1.2081
  188SOL    HW2  564   2.771   2.694   1.443  0.7946 -0.9992  1.3061
  189SOL     OW  565   0.865   1.210   1.426 -0.3386 -0.7252  0.0562
  189SOL    HW1  566   0.945   1.260   1.469  1.2306  0.4949 -0.8800
  189SOL    HW2  567   0.781   1.264   1.394  2.6079  0.3952 -3.5347
  190SOL     OW  568   1.480   1.911   1.587  0.6212  0.0374 -0.2649
  190SOL    HW1  569   1.452   1.815   1.558 -0.7417 -1.8305  0.7020
  190SOL    HW2  570   1.464   1.922   1.686 -2.3184 -1.7069  0.1814
  191SOL     OW  571   0.931   0.769   1.496  0.4514  0.1507 -0.0524
  191SOL    HW1  572   0.987   0.696   1.544 -1.5601 -0.5010 -0.4159
  191SOL    HW2  573   0.984   0.814   1.423 -2.2402  1.5847  0.8177
  192SOL     OW  574   1.840   2.367   1.116  0.2278  0.7671  0.1153
  192SOL    HW1  575   1.747   2.357   1.067  1.1820 -0.1518 -0.9068
  192SOL    HW2  576   1.913   2.346   1.049 -0.6827 -1.2486 -0.1332
  193SOL     OW  577   0.520   0.506   0.402  0.5924  0.3671 -0.5325
  193SOL    HW1  578   0.455   0.425   0.429  0.0006 -1.1477  0.5133
  193SOL    HW2  579   0.577   0.490   0.319 -3.1203  2.4709  0.8996
  194SOL     OW  580   0.333   0.910   1.315 -0.5491 -0.1211 -0.6497
  194SOL    HW1  581   0.264   0.837   1.337 -0.6701  0.3339  0.1317
  194SOL    HW2  582   0.343   0.924   1.210 -0.9286 -1.1601 -0.1880
  195SOL     OW  583   1.006   2.902   0.530 -0.5550 -0.2432 -0.6918
  195SOL    HW1  584   0.961   2.823   0.480 -0.0557 -0.9458 -1.0456
  195SOL    HW2  585   1.104   2.930   0.507  1.7999  1.7546  3.0447
  196SOL     OW  586   0.201   1.361   1.353  0.3125 -0.1544 -0.4044
  196SOL    HW1  587   0.213   1.452   1.399 -2.2598 -0.6909  0.0225
  196SOL    HW2  588   0.204   1.281   1.422  0.5877  0.5962  0.7523
  197SOL     OW  589   0.813   2.027   0.250  0.2537 -0.1956  0.3016
  197SOL    HW1  590   0.836   2.031   0.352 -3.7990  1.6323 -1.0885
  197SOL    HW2  591   0.813   1.933   0.206 -0.3290 -0.6344  0.2167
  198SOL     OW  592   0.345   1.260   0.347  0.1128  0.0929 -0.3795
  198SOL    HW1  593   0.241   1.252   0.322 -0.6591 -0.7029  2.1057
  198SOL    HW2  594   0.381   1.356   0.370  0.2602 -1.8972 -1.4933
  199SOL     OW  595   2.294   0.447   2.591  0.1980  0.1089  0.1645
  199SOL    HW1  596   2.228   0.395   2.644  1.6638 -0.7123  1.2152
  199SOL    HW2  597   2.391   0.418   2.604 -1.8347 -0.4450 -2.0368
  200SOL     OW  598   3.086   2.982   0.732 -0.0058  0.8060  0.0648
  200SOL    HW1  599   3.120   3.066   0.781  1.5636 -0.5136 -3.0783
  200SOL    HW2  600   2.994   3.000   0.691  2.3963  0.4353  1.4781
  201SOL     OW  601   1.004   0.691   0.522 -0.3821  0.1288 -0.3280
  201SOL    HW1  602   1.032   0.754   0.594  0.5316 -1.2009 -1.2792
  201SOL    HW2  603   0.905   0.651   0.523 -2.7967  1.7407  1.4574
  202SOL     OW  604   0.421   1.172   1.896 -0.0634  0.8073 -0.5832
  202SOL    HW1  605   0.511   1.126   1.861 -0.9265  2.3092 -1.2518
  202SOL    HW2  606   0.426   1.243   1.974 -0.2009  1.0400 -0.1355
  203SOL     OW  607   0.604   0.178   1.508 -0.3966 -0.2490  0.0794
  203SOL    HW1  608   0.638   0.139   1.418 -4.7114 -1.2217  0.6722
  203SOL    HW2  609   0.663   0.152   1.591 -3.8360 -1.4825  0.3751
  204SOL     OW  610   2.118   1.812   2.942  0.3108 -0.0855  0.4212
  204SOL    HW1  611   2.096   1.715   2.920  1.4978  0.9228  3.3778
  204SOL    HW2  612   2.187   1.837   2.873  0.6288 -0.8887 -1.9031
  205SOL     OW  613   1.837   1.837   3.034 -0.1773  0.6250 -0.3737
  205SOL    HW1  614   1.940   1.836   3.022 -1.2669 -1.0126  0.9083
  205SOL    HW2  615   1.797   1.932   3.018 -0.6401  0.3392 -0.7493
  206SOL     OW  616   2.411   2.814   0.365 -0.1924  0.1136  0.4446
  206SOL    HW1  617   2.469   2.741   0.408  0.5425 -1.2996  0.1722
  206SOL    HW2  618   2.471   2.879   0.309  1.5346 -0.3109 -2.5848
  207SOL     OW  619   0.686   1.789   2.951  0.1940  0.0424 -0.0388
  207SOL    HW1  620   0.748   1.719   2.906 -0.3883 -0.9943  0.9104
  207SOL    HW2  621   0.641   1.753   3.034 -3.1315  0.6352 -1.4727
  208SOL     OW  622   1.168   1.650   1.344  0.0512  0.1505  0.0442
  208SOL    HW1  623   1.176   1.724   1.272 -0.8348 -0.4444  0.7292
  208SOL    HW2  624   1.151   1.688   1.438  1.1451  1.1783  0.9156
  209SOL     OW  625   0.257   0.963   3.084 -0.0019  0.5469  0.1325
  209SOL    HW1  626   0.241   0.885   3.015 -0.5906 -0.6652 -1.6577
  209SOL    HW2  627   0.279   0.927   3.183  1.1020 -0.9266  0.1768
  210SOL     OW  628   1.701   0.496   1.199  0.2409 -0.4257  0.5030
  210SOL    HW1  629   1.645   0.582   1.179 -1.8864  1.4634  1.4355
  210SOL    HW2  630   1.802   0.500   1.205 -1.7370  0.9871  1.4924
  211SOL     OW  631   2.080   1.002   1.591 -0.8858 -0.1451 -0.1553
  211SOL    HW1  632   2.124   0.943   1.669  2.4846  1.1009 -1.6671
  211SOL    HW2  633   2.151   1.073   1.552 -0.0560  1.3984 -1.6925
  212SOL     OW  634   0.005   0.983   1.520  0.7430 -0.5193  0.3275
  212SOL    HW1  635   0.073   1.055   1.547  1.2738 -1.7208 -0.2725
  212SOL    HW2  636   0.009   0.898   1.580 -2.8810  0.3646  1.6151
  213SOL     OW  637   2.707   0.156   0.365 -0.1165 -0.0145 -0.5170
  213SOL    HW1  638   2.776   0.102   0.312 -2.5211  2.6002  2.0837
  213SOL    HW2  639   2.608   0.133   0.328 -0.6935 -0.7623 -2.0050
  214SOL     OW  640   2.194   0.333   2.338 -0.0412  0.8022  0.0882
  214SOL    HW1  641   2.221   0.367   2.435  2.0053  0.6403  0.8050
  214SOL    HW2  642   2.152   0.237   2.335 -3.5744  3.1315  2.7863
  215SOL     OW  643   1.628   2.269   2.098  0.0675 -0.4957  0.2168
  215SOL    HW1  644   1.716   2.312   2.062  0.7085 -0.1738  0.4079
  215SOL    HW2  645   1.563   2.343   2.139 -0.6295 -0.1777  1.6414
  216SOL     OW  646   2.233   0.624   0.686  0.1763 -0.4330  0.7004
  216SOL    HW1  647   2.225   0.530   0.647 -0.3764 -2.3719  0.5899
  216SOL    HW2  648   2.266   0.698   0.626 -1.7175 -0.2778  1.6375
  217SOL     OW  649   0.788   2.808   2.449  0.4029  0.8558  0.1895
  217SOL    HW1  650   0.727   2.741   2.503  0.0445 -1.5553  1.7710
  217SOL    HW2  651   0.782   2.786   2.349  0.9909 -0.2963  1.2559
  218SOL     OW  652   1.910   1.458   0.048  0.1684  0.4643 -0.0488
  218SOL    HW1  653   1.812   1.478   0.028  2.0379  1.1801  2.7892
  218SOL    HW2  654   1.915   1.399   0.130  0.9735  0.2614 -1.1442
  219SOL     OW  655   2.445   1.296   2.502 -0.1208 -0.1732  0.0053
  219SOL    HW1  656   2.503   1.244   2.429 -1.6874 -1.8795 -1.6841
  219SOL    HW2  657   2.460   1.254   2.597 -0.6054  1.4933  1.8209
  220SOL     OW  658   1.450   1.014   1.327  0.0321 -0.6153 -0.1060
  220SOL    HW1  659   1.548   0.989   1.333 -0.9644  2.4086  1.1552
  220SOL    HW2  660   1.420   1.045   1.234 -0.9388 -1.1787  0.7889
  221SOL     OW  661   1.287   0.995   2.177  0.2104 -0.0808 -0.0620
  221SOL    HW1  662   1.220   1.052   2.126 -2.3927  0.2412  3.0403
  221SOL    HW2  663   1.386   1.036   2.188  1.4290  1.8642  0.1985
  222SOL     OW  664   1.134   0.105   1.204 -0.1464  0.0479  0.1396
  222SOL    HW1  665   1.048   0.151   1.230  1.0031  1.5106 -2.6139
  222SOL    HW2  666   1.158   0.134   1.107 -0.4924 -1.6178 -1.2259
  223SOL     OW  667   2.707   0.943   2.142  0.1633  0.1931  0.1322
  223SOL    HW1  668   2.676   1.024   2.198 -2.5448 -0.3099 -0.0109
  223SOL    HW2  669   2.794   0.899   2.184 -0.2980 -1.3281  1.3077
  224SOL     OW  670   1.486   1.077   2.722 -0.5232  0.0459  0.0591
  224SOL    HW1  671   1.535   0.990   2.686 -1.2863  1.9321 -1.1523
  224SOL    HW2  672   1.476   1.140   2.640  1.7368  5.7121 -1.5770
  225SOL     OW  673   2.971   2.713   2.896 -0.2467  0.2523  0.1398
  225SOL    HW1  674   2.880   2.696   2.843  0.6972  0.5678  1.9702
  225SOL    HW2  675   3.044   2.753   2.831  0.6648 -0.2693 -1.6409
  226SOL     OW  676   2.408   1.635   2.874 -1.0936  0.2769 -0.6314
  226SOL    HW1  677   2.461   1.593   2.800 -2.3090 -0.1830  2.3160
  226SOL    HW2  678   2.366   1.560   2.936 -0.1023 -0.3723 -1.4981
  227SOL     OW  679   0.832   0.196   3.069  0.2867  0.3262 -0.6293
  227SOL    HW1  680   0.876   0.284   3.040 -1.2647 -1.8477 -1.0266
  227SOL    HW2  681   0.771   0.155   2.997 -0.9341  3.3821  2.3099
  228SOL     OW  682   2.455   0.575   2.857  0.0572  0.5775 -0.6233
  228SOL    HW1  683   2.460   0.651   2.787  0.5424 -2.2532  2.0400
  228SOL    HW2  684   2.532   0.499   2.854 -0.8980 -0.7558 -0.6980
  229SOL     OW  685   0.575   0.468   1.809  0.1390 -1.0181 -0.1832
  229SOL    HW1  686   0.570   0.373   1.858  1.5814 -0.6782  1.3242
  229SOL    HW2  687   0.598   0.473   1.709 -0.0550 -0.9570  1.0030
  230SOL     OW  688   1.921   1.170   2.050 -0.2149  0.5057 -0.4693
  230SOL    HW1  689   1.978   1.232   1.992 -0.2587 -2.8415 -2.8719
  230SOL    HW2  690   1.830   1.213   2.079 -0.3809  1.0335 -2.6948
  231SOL     OW  691   0.617   1.048   0.022 -0.0645  0.2631  0.0193
  231SOL    HW1  692   0.706   1.104   0.009 -1.7503  0.1808 -2.7525
  231SOL    HW2  693   0.535   1.103   0.053 -1.6228  1.8703  1.2602
  232SOL     OW  694   2.433   3.063   2.867 -0.6195 -0.5497 -0.0632
  232SOL    HW1  695   2.507   2.991   2.878  1.4560  2.5253 -0.1416
  232SOL    HW2  696   2.452   3.130   2.793 -1.9256 -2.3424 -0.1462
  233SOL     OW  697   1.781   1.224   1.151  0.3174  0.9206  0.6746
  233SOL    HW1  698   1.802   1.148   1.084 -0.9717 -0.9378  0.5212
  233SOL    HW2  699   1.777   1.189   1.251 -0.6962  0.6107  1.6350
  234SOL     OW  700   1.592   2.477   1.838  0.2316  0.1165  0.0778
  234SOL    HW1  701   1.601   2.553   1.910 -1.1679  0.5910  3.0687
  234SOL    HW2  702   1.541   2.394   1.876 -1.2498  1.3985 -0.5540
  235SOL     OW  703   0.009   3.039   2.809  0.4133 -0.0415  0.0110
  235SOL    HW1  704  -0.042   3.025   2.722  1.9459  0.2019  2.9603
  235SOL    HW2  705  -0.055   3.038   2.889  1.9609 -0.0619  1.6783
  236SOL     OW  706   2.879   0.743   0.052  0.1602 -0.0713  0.3084
  236SOL    HW1  707   2.933   0.740   0.137 -0.6799 -0.4506 -2.3194
  236SOL    HW2  708   2.895   0.660  -0.005  0.5828 -0.9157 -2.0330
  237SOL     OW  709   1.549   1.630   0.963 -0.4249 -0.0307 -0.1646
  237SOL    HW1  710   1.655   1.617   0.969  1.0135  1.7483 -1.4528
  237SOL    HW2  711   1.515   1.688   1.039 -2.5408 -2.4108  0.8377
  238SOL     OW  712   1.852   1.269   0.777  0.8867  0.8289 -0.2054
  238SOL    HW1  713   1.898   1.271   0.871  0.3560  1.5508  1.6184
  238SOL    HW2  714   1.770   1.334   0.784  3.2169 -0.8884 -0.6520
  239SOL     OW  715   2.108   0.290   2.738 -0.2902 -0.0720  0.0554
  239SOL    HW1  716   2.119   0.220   2.815  1.7355  2.5592 -1.4837
  239SOL    HW2  717   2.023   0.351   2.752 -1.3886 -0.0006 -2.6095
  240SOL     OW  718   0.934   0.681   0.242  0.1677 -0.4775 -0.2681
  240SOL    HW1  719   0.968   0.595   0.203 -0.3603  1.1807 -1.0894
  240SOL    HW2  720   0.977   0.698   0.331 -1.2208  0.2297 -1.3248
  241SOL     OW  721   0.604   0.058   0.394  0.0793  0.6431  0.2628
  241SOL    HW1  722   0.639   0.131   0.326 -2.4180  1.5396 -0.7702
  241SOL    HW2  723   0.581  -0.035   0.344 -2.3918  0.3543  1.3887
  242SOL     OW  724   0.593   2.491   1.139 -0.1445  0.5917 -0.5336
  242SOL    HW1  725   0.620   2.487   1.241  2.3295  1.4296  0.2308
  242SOL    HW2  726   0.617   2.584   1.100  1.0475  0.7995  0.2329
  243SOL     OW  727   1.063   0.610   2.489 -0.1480  0.1788  0.1028
  243SOL    HW1  728   0.988   0.614   2.417  0.0427  1.2856 -0.1553
  243SOL    HW2  729   1.023   0.558   2.569 -1.8976  0.7825 -0.6623
  244SOL     OW  730   2.821   1.862   2.355 -0.4091  0.0991  0.0659
  244SOL    HW1  731   2.846   1.840   2.255  0.4981 -1.4856 -1.3757
  244SOL    HW2  732   2.714   1.853   2.371 -4.2759  0.4367 -0.3444
  245SOL     OW  733   2.204   0.888   2.143  0.0558  0.4612  0.5561
  245SOL    HW1  734   2.295   0.863   2.182  2.8093 -2.1471 -2.3390
  245SOL    HW2  735   2.146   0.964   2.192  0.6913  1.4960  3.1975
  246SOL     OW  736   0.229   2.918   1.692 -0.3473 -0.0129 -0.1010
  246SOL    HW1  737   0.179   2.911   1.597 -0.5429  0.1354 -1.9989
  246SOL    HW2  738   0.328   2.957   1.690  2.0714  2.4007  0.8391
  247SOL     OW  739   2.204   0.645   2.988  0.2927  0.0803 -0.6425
  247SOL    HW1  740   2.268   0.597   2.921  0.6957 -0.2803  1.1613
  247SOL    HW2  741   2.143   0.722   2.946 -1.6339  1.2820  1.9771
  248SOL     OW  742   2.181   1.831   1.575 -0.2029  0.0674 -0.0000
  248SOL    HW1  743   2.256   1.768   1.608  1.2300 -1.7209 -2.4665
  248SOL    HW2  744   2.104   1.849   1.642  1.4334 -0.0689 -2.2900
  249SOL     OW  745   1.896   1.953   1.921  0.3146 -0.9657  0.0923
  249SOL    HW1  746   1.897   1.886   1.841 -1.7387  1.7988 -2.2179
  249SOL    HW2  747   1.989   1.992   1.937 -2.0420 -1.1918  0.2898
  250SOL     OW  748   1.084   0.678   1.882  0.0585 -0.0249  0.4535
  250SOL    HW1  749   1.131   0.605   1.943  2.6259 -2.0512  0.3968
  250SOL    HW2  750   1.072   0.642   1.783 -0.7368  0.0065 -0.1670
  251SOL     OW  751   3.094   1.665   2.535 -0.1952  0.5270 -0.5198
  251SOL    HW1  752   3.060   1.763   2.532 -3.0607 -1.3627  1.0923
  251SOL    HW2  753   3.017   1.591   2.542 -1.3405  0.1913  1.0438
  252SOL     OW  754   1.611   0.791   1.648  0.0903 -0.7620  0.7534
  252SOL    HW1  755   1.705   0.798   1.600 -0.9709 -0.5526  2.1131
  252SOL    HW2  756   1.598   0.864   1.724  0.4183  1.0087 -0.3753
  253SOL     OW  757   0.997   1.575   0.497  0.0502  0.0557 -1.1438
  253SOL    HW1  758   0.976   1.484   0.453 -0.5685 -1.7354 -1.2760
  253SOL    HW2  759   0.917   1.620   0.545  2.9799 -0.3634 -1.1384
  254SOL     OW  760   2.042   2.173   1.635  0.1378  0.1868  0.4250
  254SOL    HW1  761   1.989   2.121   1.559 -0.4497 -0.7924  1.5353
  254SOL    HW2  762   1.980   2.222   1.702  2.4808  1.5072  1.5344
  255SOL     OW  763   0.138   1.158   2.924 -0.0944  0.1976  0.0801
  255SOL    HW1  764   0.189   1.247   2.907  2.0900  0.1895  1.3533
  255SOL    HW2  765   0.198   1.087   2.977  0.8536  2.7044 -1.4724
  256SOL     OW  766   2.876   1.426   1.794  0.1027  0.1069  0.3358
  256SOL    HW1  767   2.807   1.499   1.773  1.5561  0.5304  0.4504
  256SOL    HW2  768   2.825   1.333   1.815 -0.7460 -2.8615 -0.9664
  257SOL     OW  769   0.776   0.145   1.710  0.1795  0.4349  0.4589
  257SOL    HW1  770   0.837   0.233   1.713  1.9987  2.2241 -1.1077
  257SOL    HW2  771   0.835   0.062   1.736 -1.0538  2.1754  0.2470
  258SOL     OW  772   3.011   1.219   0.443  0.0143  0.2469  0.7249
  258SOL    HW1  773   2.923   1.265   0.413 -0.9989  0.5591 -0.2921
  258SOL    HW2  774   3.038   1.259   0.537 -1.1510 -0.9852  0.6504
  259SOL     OW  775   0.456   2.911   3.055 -0.2786 -0.1825  0.2045
  259SOL    HW1  776   0.390   2.856   3.104  0.4250  0.0631  0.5098
  259SOL    HW2  777   0.480   2.866   2.962 -0.7925  0.3336 -1.1576
  260SOL     OW  778   2.744   0.684   2.803 -0.1706 -0.6430 -0.0894
  260SOL    HW1  779   2.647   0.719   2.784 -0.2504  3.5712 -1.7497
  260SOL    HW2  780   2.751   0.584   2.815  0.6034 -1.3348 -0.5884
  261SOL     OW  781   2.688   1.347   1.305  0.7369 -0.3215  0.2487
  261SOL    HW1  782   2.650   1.267   1.248  0.6105 -1.2828 -1.6797
  261SOL    HW2  783   2.770   1.311   1.359 -1.0119 -0.9982  1.0870
  262SOL     OW  784   1.394   2.957   1.944  0.0775 -0.1516 -0.3474
  262SOL    HW1  785   1.421   3.050   1.905  0.6761 -1.0514 -0.6981
  262SOL    HW2  786   1.298   2.939   1.904  0.0419 -1.0329 -2.4599
  263SOL     OW  787   0.875   0.671   2.303  0.2412  0.2635 -1.0322
  263SOL    HW1  788   0.812   0.605   2.258 -1.2656 -1.2687  1.4835
  263SOL    HW2  789   0.920   0.737   2.234  2.2263  1.9043 -0.6006
  264SOL     OW  790   2.224   0.802   0.447  0.3150 -0.1312 -0.8500
  264SOL    HW1  791   2.211   0.741   0.367 -2.2881  1.2287 -0.3730
  264SOL    HW2  792   2.309   0.856   0.439 -2.3243  1.5967 -0.4866
  265SOL     OW  793   0.930   2.465   2.645 -0.0686  0.0781  0.8474
  265SOL    HW1  794   0.995   2.524   2.707  0.2529  0.1526 -1.8485
  265SOL    HW2  795   0.947   2.365   2.654 -3.1496  4.3376  2.3379
  266SOL     OW  796   1.332   1.821   3.017 -0.5050  0.6916 -0.0821
  266SOL    HW1  797   1.306   1.892   3.089  2.3336 -0.2639  0.9611
  266SOL    HW2  798   1.423   1.771   3.036  0.3714  0.4682  0.0971
  267SOL     OW  799   1.021   0.034   2.350 -0.4297  0.3692 -0.4864
  267SOL    HW1  800   1.002  -0.017   2.264  1.8314 -0.2591  0.5105
  267SOL    HW2  801   1.023   0.136   2.342  0.2199  1.9727  0.5159
  268SOL     OW  802   0.608   1.159   1.056  0.8971  0.1972  0.3387
  268SOL    HW1  803   0.640   1.149   1.153 -1.6207  1.4117 -1.1143
  268SOL    HW2  804   0.621   1.256   1.016  2.9288  4.3830 -0.2542
  269SOL     OW  805   2.294   2.537   1.618  0.5564 -0.3017  0.2518
  269SOL    HW1  806   2.385   2.487   1.637  0.7122  0.0494 -1.3314
  269SOL    HW2  807   2.241   2.531   1.707  0.3370 -0.6428 -1.2098
  270SOL     OW  808   0.156   2.961   1.962  0.0872 -0.1978 -0.0749
  270SOL    HW1  809   0.184   2.935   1.863 -0.8317  0.2061 -0.6498
  270SOL    HW2  810   0.096   2.891   2.010  3.0403 -1.7978  1.1216
  271SOL     OW  811   0.412   1.382   1.190  0.4369 -0.1669 -0.3138
  271SOL    HW1  812   0.384   1.356   1.091 -2.2219 -0.7153  0.4746
  271SOL    HW2  813   0.328   1.380   1.255 -1.5175  0.8628  0.9992
  272SOL     OW  814   2.031   2.940   1.934  0.1055  0.1315  0.3967
  272SOL    HW1  815   1.937   2.901   1.904 -0.7558  4.7297 -0.1290
  272SOL    HW2  816   2.087   2.966   1.855 -2.4450  1.3154 -3.8331
  273SOL     OW  817   1.491   1.462   2.742  0.0908  0.0309  0.0024
  273SOL    HW1  818   1.388   1.446   2.744  0.1917  0.4538 -0.3999
  273SOL    HW2  819   1.538   1.408   2.813 -1.9169 -0.5656  0.0232
  274SOL     OW  820   1.186   0.504   2.070 -0.3606  0.3003  0.0728
  274SOL    HW1  821   1.137   0.416   2.046 -0.3482  1.1514 -1.1103
  274SOL    HW2  822   1.233   0.509   2.162  1.7444 -0.8920 -1.5515
  275SOL     OW  823   0.624   2.116   1.880  0.2166  0.6935  0.0220
  275SOL    HW1  824   0.628   2.215   1.903 -0.3683  1.0544 -1.6692
  275SOL    HW2  825   0.532   2.081   1.899  1.4162  1.5660 -1.3946
  276SOL     OW  826   2.221   1.076   2.769  0.0371  0.8437 -0.2420
  276SOL    HW1  827   2.150   1.107   2.702  1.5205 -0.0108 -0.4379
  276SOL    HW2  828   2.182   1.005   2.838 -0.1505  0.0815  2.5033
  277SOL     OW  829   3.076   0.764   0.246  0.0926 -0.4616  0.0980
  277SOL    HW1  830   3.166   0.813   0.222  2.7825 -0.8378 -0.9479
  277SOL    HW2  831   3.094   0.682   0.310 -0.8887 -2.8020 -0.0268
  278SOL     OW  832   0.220   0.300   2.934 -0.4350  0.1236 -0.5339
  278SOL    HW1  833   0.298   0.235   2.966  2.1106 -0.3984  0.9864
  278SOL    HW2  834   0.232   0.390   2.981 -3.6864 -1.5197  0.0869
  279SOL     OW  835   0.236   0.024   0.889  0.1451 -0.1211  0.0670
  279SOL    HW1  836   0.225  -0.057   0.956 -1.7896 -1.0134 -0.7969
  279SOL    HW2  837   0.283  -0.005   0.803 -1.1123 -0.4578 -0.8704
  280SOL     OW  838   1.600   2.936   2.403 -0.0503  0.3823 -0.9359
  280SOL    HW1  839   1.675   2.976   2.465  2.6660 -1.4622  2.4714
  280SOL    HW2  840   1.549   3.013   2.357  1.1983  1.0520 -0.6334
  281SOL     OW  841   0.593   0.964   2.288 -0.0174  0.2774 -0.5352
  281SOL    HW1  842   0.603   0.869   2.241  0.1114 -2.6993  0.9691
  281SOL    HW2  843   0.530   0.960   2.369  2.2892  1.1209  1.5124
  282SOL     OW  844   1.784   2.491   0.498  0.0270 -0.0923 -0.1367
  282SOL    HW1  845   1.755   2.403   0.449  2.5589  2.8397 -1.1201
  282SOL    HW2  846   1.712   2.536   0.555 -0.2199 -3.0196  0.4305
  283SOL     OW  847   1.225   0.937   0.800  0.0501 -0.1492 -0.1997
  283SOL    HW1  848   1.262   0.886   0.884  0.1603 -1.1444 -0.0196
  283SOL    HW2  849   1.162   1.017   0.828 -0.9868  0.8175 -3.6232
  284SOL     OW  850   2.232   2.844   2.505  0.1534 -0.3104 -0.5710
  284SOL    HW1  851   2.333   2.818   2.488 -0.9247 -0.2537  1.7970
  284SOL    HW2  852   2.226   2.906   2.589 -0.1480  0.3108  3.1779
  285SOL     OW  853   1.361   3.038   2.588  0.1764  0.4117 -0.1172
  285SOL    HW1  854   1.399   3.056   2.490  1.2831 -0.1971  0.8943
  285SOL    HW2  855   1.277   3.098   2.606 -2.8699  0.4310  0.1517
  286SOL     OW  856   0.443   0.434   0.745 -0.2280 -0.1558  0.5948
  286SOL    HW1  857   0.389   0.395   0.820  1.5232  1.5158 -0.2589
  286SOL    HW2  858   0.428   0.378   0.659  0.7270 -0.5848  0.7709
  287SOL     OW  859   0.076   1.256   2.500 -0.1925 -0.2030  0.3622
  287SOL    HW1  860   0.052   1.200   2.583 -3.4722  1.7692 -2.4598
  287SOL    HW2  861   0.125   1.339   2.530  0.3164  1.7117  0.0223
  288SOL     OW  862   1.584   2.674   1.603  0.4057  0.4965 -0.1716
  288SOL    HW1  863   1.621   2.593   1.670 -1.6059 -1.0205 -0.8445
  288SOL    HW2  864   1.580   2.642   1.505 -1.9799  1.7412 -0.3676
  289SOL     OW  865   0.599   2.744   0.852 -0.1706 -0.4104 -0.3060
  289SOL    HW1  866   0.676   2.773   0.789 -2.5070  2.1017  1.2778
  289SOL    HW2  867   0.611   2.787   0.948 -0.2970  0.6578  1.0592
  290SOL     OW  868   2.826   1.138   1.810  0.8061  0.3706  0.0739
  290SOL    HW1  869   2.761   1.061   1.782 -0.5176 -0.8162 -1.8182
  290SOL    HW2  870   2.916   1.108   1.860  1.7070 -0.2805 -1.3413
  291SOL     OW  871   1.975  -0.000   0.034 -0.0632 -0.4695  0.2273
  291SOL    HW1  872   1.970   0.029   0.133 -0.8543 -5.0210  1.7723
  291SOL    HW2  873   2.037   0.060  -0.028  0.2426  1.0496 -2.2369
  292SOL     OW  874   3.018   1.220   3.071  0.1925  0.1966  0.1756
  292SOL    HW1  875   2.944   1.270   3.009 -2.8539  3.3994 -0.5147
  292SOL    HW2  876   3.113   1.217   3.024  0.7286 -1.1706 -2.1479
  293SOL     OW  877   0.545   2.180   0.282 -0.5157 -0.0093 -0.1394
  293SOL    HW1  878   0.514   2.245   0.356  1.3028 -1.2785 -3.3958
  293SOL    HW2  879   0.649   2.154   0.285  0.2376  0.4448  0.6183
  294SOL     OW  880   1.817   2.298   1.778  0.0021  0.1934  0.0935
  294SOL    HW1  881   1.843   2.345   1.868  3.1366  1.4605 -1.4964
  294SOL    HW2  882   1.745   2.353   1.735  2.1338 -2.0260  0.5154
  295SOL     OW  883   0.976   1.053   0.427 -0.2077  0.3497  0.7385
  295SOL    HW1  884   1.072   1.059   0.469  1.0372 -1.1684  0.7639
  295SOL    HW2  885   0.897   1.045   0.502  1.7850  0.9314 -0.1164
  296SOL     OW  886   1.202   2.127   2.656  0.6666 -0.0398  0.4568
  296SOL    HW1  887   1.104   2.167   2.667  3.0038 -1.4674 -0.3590
  296SOL    HW2  888   1.218   2.054   2.582 -0.1265  0.0594  0.9899
  297SOL     OW  889   1.345   0.610   1.304 -0.1442 -0.3858  0.2126
  297SOL    HW1  890   1.375   0.544   1.383 -1.1930 -0.8357  1.5356
  297SOL    HW2  891   1.419   0.676   1.282 -0.1536 -1.9475 -1.1608
  298SOL     OW  892   0.494   1.377   2.998  0.5209  0.0150  1.0162
  298SOL    HW1  893   0.458   1.316   3.069  0.8016  0.3935 -1.3924
  298SOL    HW2  894   0.568   1.327   2.941  2.9662  0.2375 -2.3034
  299SOL     OW  895   0.460   0.291   1.264  0.1214  0.0698  0.4414
  299SOL    HW1  896   0.403   0.374   1.268  0.5329 -0.9533  2.1501
  299SOL    HW2  897   0.507   0.263   1.355 -0.0832  1.0295  1.0437
  300SOL     OW  898   1.272   1.693   2.627  0.0704  0.4814 -0.6878
  300SOL    HW1  899   1.274   1.589   2.612 -0.5680 -1.1536 -0.6189
  300SOL    HW2  900   1.355   1.727   2.673 -2.5578 -0.1188 -2.0433
  301SOL     OW  901   0.366   0.280   0.484  0.2363 -0.9640  0.2730
  301SOL    HW1  902   0.275   0.247   0.528  0.8195  1.5959  1.7994
  301SOL    HW2  903   0.410   0.211   0.418 -0.5106  1.4434 -1.0996
  302SOL     OW  904   1.246   2.426   2.357 -0.1201  0.2202 -0.4106
  302SOL    HW1  905   1.165   2.485   2.355  1.1558 -1.7961 -0.1625
  302SOL    HW2  906   1.226   2.331   2.397 -0.6819 -1.0410 -1.3666
  303SOL     OW  907   0.916   2.427   0.787  0.1517  0.1103  0.2654
  303SOL    HW1  908   0.964   2.461   0.698  0.2148  2.0225 -1.2796
  303SOL    HW2  909   0.963   2.451   0.873 -0.0726  1.5503 -0.1989
  304SOL     OW  910   0.087   1.939   0.695 -0.0254 -0.2388 -0.1542
  304SOL    HW1  911   0.151   1.924   0.616 -0.0551 -1.3783  1.3729
  304SOL    HW2  912   0.013   2.013   0.672 -1.4581 -1.6910  2.4718
  305SOL     OW  913   1.588   0.858   0.677 -0.1189  0.6106 -0.2841
  305SOL    HW1  914   1.528   0.854   0.595  3.2172 -0.5665  2.4989
  305SOL    HW2  915   1.647   0.775   0.700 -0.3348 -0.0683 -0.4251
  306SOL     OW  916   0.409   1.888   1.864 -0.0656  0.3279  0.2153
  306SOL    HW1  917   0.494   1.833   1.830 -0.4689  0.0443  0.2745
  306SOL    HW2  918   0.409   1.899   1.970  0.0171  0.0735 -1.1695
  307SOL     OW  919   3.056   0.889   2.522 -0.8997  0.1096  0.0105
  307SOL    HW1  920   3.079   0.956   2.596 -0.4862 -1.9252  1.2643
  307SOL    HW2  921   3.000   0.809   2.558  0.1564 -2.0616  0.1450
  308SOL     OW  922   1.607   2.683   2.792  0.3206 -0.4637 -0.6188
  308SOL    HW1  923   1.583   2.655   2.696 -1.7288 -1.9144  1.9856
  308SOL    HW2  924   1.569   2.617   2.866 -3.8356  0.6975  0.7520
  309SOL     OW  925   1.253   0.180   1.774 -0.1561  0.0307  0.1873
  309SOL    HW1  926   1.338   0.138   1.817 -1.2565  0.4132  0.2309
  309SOL    HW2  927   1.236   0.151   1.679  2.5661 -1.2982 -0.4388
  310SOL     OW  928   1.546   2.563   0.683  0.0293 -0.3264 -0.4713
  310SOL    HW1  929   1.493   2.575   0.774 -1.2418  2.2068  0.9550
  310SOL    HW2  930   1.591   2.649   0.658 -3.0305 -2.7802  1.2741
  311SOL     OW  931   1.125   0.924   1.740 -0.2998  0.2037  0.1726
  311SOL    HW1  932   1.108   0.833   1.783  0.7387  2.1019 -1.1809
  311SOL    HW2  933   1.182   0.922   1.655 -2.1667  0.9559 -0.3686
  312SOL     OW  934   1.559   0.730   1.113 -0.3368 -0.4013 -0.6693
  312SOL    HW1  935   1.558   0.826   1.064  0.4839 -2.3744 -2.1128
  312SOL    HW2  936   1.531   0.652   1.046 -1.6295 -0.1987  0.0327
  313SOL     OW  937   1.611   1.395   0.711  0.4669  0.0119  0.0878
  313SOL    HW1  938   1.521   1.430   0.749  0.0911 -3.0163 -1.6485
  313SOL    HW2  939   1.598   1.307   0.665  4.5383  1.0763 -2.6895
  314SOL     OW  940   2.974   0.005   3.038  0.2972 -0.7374  0.2525
  314SOL    HW1  941   2.981   0.031   3.138 -0.9014 -0.9438  0.4683
  314SOL    HW2  942   2.883  -0.049   3.033 -1.5193 -0.6658  0.9616
  315SOL     OW  943   1.131   0.248   2.796  0.5962  0.2927 -0.0351
  315SOL    HW1  944   1.119   0.180   2.716  2.8694  0.4411 -0.0989
  315SOL    HW2  945   1.110   0.208   2.887  0.6716  1.5900  0.0863
  316SOL     OW  946   1.721   2.070   0.919 -0.5739  0.4195 -0.1767
  316SOL    HW1  947   1.689   2.062   1.021 -2.6583  0.8878  0.0447
  316SOL    HW2  948   1.730   2.163   0.880  0.9633 -0.7619  0.1975
  317SOL     OW  949   1.210   0.635   2.820 -0.1612 -0.0121 -0.4028
  317SOL    HW1  950   1.154   0.684   2.887  3.2905 -3.4530 -0.8715
  317SOL    HW2  951   1.153   0.586   2.746 -0.4233  0.0982 -3.7292
  318SOL     OW  952   1.431   3.075   2.241 -0.0829  0.4835  0.0216
  318SOL    HW1  953   1.388   3.171   2.232  3.5465  1.7787  0.6926
  318SOL    HW2  954   1.441   3.024   2.150  0.5351  0.9499 -0.3694
  319SOL     OW  955   0.585   2.360   2.924  0.1991 -0.6471  0.2503
  319SOL    HW1  956   0.538   2.324   3.014 -2.2709  0.2492  2.7164
  319SOL    HW2  957   0.689   2.330   2.924  0.8635 -2.1937  1.9451
  320SOL     OW  958   1.715   2.241   0.402  0.4368 -0.1600 -0.0909
  320SOL    HW1  959   1.800   2.188   0.374 -1.8358  1.1590 -1.2467
  320SOL    HW2  960   1.644   2.187   0.464 -3.3127 -1.1107  0.3691
  321SOL     OW  961   1.675   2.760   0.553 -0.0149 -0.3671  0.1348
  321SOL    HW1  962   1.587   2.787   0.499 -0.4361  2.0689 -0.5222
  321SOL    HW2  963   1.763   2.775   0.507  0.7054 -2.6533 -1.9042
  322SOL     OW  964   2.608   1.113   2.351  0.2844  0.0209  0.3063
  322SOL    HW1  965   2.699   1.126   2.405 -2.0168  0.3422  0.7758
  322SOL    HW2  966   2.553   1.025   2.375  1.0101 -1.5815  0.6380
  323SOL     OW  967   1.161   2.686   0.854 -0.2540  0.0699 -0.0655
  323SOL    HW1  968   1.115   2.660   0.767  0.0085  1.9710 -0.2393
  323SOL    HW2  969   1.118   2.771   0.891 -0.3923  3.1075  1.1944
  324SOL     OW  970   0.273   2.498   2.495  0.0591  0.0872 -0.7334
  324SOL    HW1  971   0.252   2.450   2.586 -1.1346 -1.6858  0.9208
  324SOL    HW2  972   0.316   2.593   2.512  0.9962  1.0184 -0.4979
  325SOL     OW  973   1.254   2.989   0.470  0.4356 -0.1332  0.8216
  325SOL    HW1  974   1.259   3.023   0.373 -0.8009  0.5081 -0.2051
  325SOL    HW2  975   1.260   3.068   0.538 -0.6925  0.7313  2.1536
  326SOL     OW  976   2.446   0.778   0.004 -0.0195  0.2849  0.0743
  326SOL    HW1  977   2.384   0.728  -0.061 -1.0639 -0.4248 -0.0470
  326SOL    HW2  978   2.519   0.716   0.040  0.9803 -3.9757 -0.4753
  327SOL     OW  979   2.821   0.323   0.567 -0.0532 -0.0526 -0.4140
  327SOL    HW1  980   2.776   0.298   0.476  0.6444 -0.5165  2.8067
  327SOL    HW2  981   2.835   0.248   0.640  1.3529 -0.8883 -0.9729
  328SOL     OW  982   2.600   0.626   0.412 -0.0284  0.6067  0.1087
  328SOL    HW1  983   2.614   0.725   0.434  0.3164 -0.0495 -0.4170
  328SOL    HW2  984   2.566   0.569   0.492  3.0634 -0.9440  1.8293
  329SOL     OW  985   2.922   2.951   2.160  0.1554  0.1695 -0.0813
  329SOL    HW1  986   3.006   2.911   2.205 -0.9074  1.3478 -0.9823
  329SOL    HW2  987   2.937   3.046   2.129  0.0556 -1.1862 -2.2106
  330SOL     OW  988   0.574   0.198   1.920  0.3281 -0.3221  0.1473
  330SOL    HW1  989   0.658   0.165   1.865 -0.8615  3.6614  0.5114
  330SOL    HW2  990   0.559   0.135   2.001  1.5088  1.5144 -1.8423
  331SOL     OW  991   3.010   1.943   1.096 -0.0653 -0.0037 -0.0751
  331SOL    HW1  992   2.952   1.918   1.015 -0.1999  0.7490 -0.8567
  331SOL    HW2  993   2.953   1.921   1.182  1.5551 -0.0412 -0.6599
  332SOL     OW  994   0.406   1.205   0.086  0.1660  0.1377 -0.4407
  332SOL    HW1  995   0.349   1.138   0.025  1.1241  0.0424 -1.7067
  332SOL    HW2  996   0.375   1.223   0.184 -2.8693 -0.4564  0.3339
  333SOL     OW  997   2.931   0.998   0.280 -0.7531 -0.6416  0.4172
  333SOL    HW1  998   3.002   1.072   0.312 -0.5075  3.2493  1.9019
  333SOL    HW2  999   2.976   0.907   0.249  0.3737 -2.6564  2.7911
  334SOL     OW 1000   1.698   1.265   1.794  0.0652  0.0376  0.2034
  334SOL    HW1 1001   1.769   1.278   1.722 -0.1769 -1.9561  1.4881
  334SOL    HW2 1002   1.736   1.272   1.888 -0.5437 -1.2143 -2.9602
  335SOL     OW 1003   1.971   2.730   2.573  0.1200 -0.2162 -0.0640
  335SOL    HW1 1004   1.925   2.726   2.670  2.2619  0.7887  1.8438
  335SOL    HW2 1005   2.044   2.808   2.562  1.6268 -1.3402 -1.7248
  336SOL     OW 1006   0.240   0.062   2.729  0.1060 -0.2233 -0.2749
  336SOL    HW1 1007   0.310   0.064   2.807 -0.8760 -1.0658 -0.1194
  336SOL    HW2 1008   0.147   0.034   2.760  2.4566 -3.4438  0.4409
  337SOL     OW 1009   0.976   2.898   2.904 -0.3871  0.6432 -0.4063
  337SOL    HW1 1010   0.938   2.814   2.952 -0.4672  2.3107  1.3924
  337SOL    HW2 1011   1.065   2.932   2.944  2.9041  1.6424  2.0470
  338SOL     OW 1012   0.080   0.991   0.684  0.0732 -0.3373  0.3168
  338SOL    HW1 1013  -0.015   0.960   0.714 -0.5056 -0.4167 -1.0432
  338SOL    HW2 1014   0.075   1.093   0.673  1.2541 -1.5969  0.0974
  339SOL     OW 1015   1.696   1.315   2.128 -0.0487  0.7779  0.1651
  339SOL    HW1 1016   1.600   1.359   2.130  0.1257 -1.6407 -0.1603
  339SOL    HW2 1017   1.777   1.380   2.152  2.0950 -3.5297  1.6186
  340SOL     OW 1018   2.291   0.744   1.164  0.1971  0.1196  0.2004
  340SOL    HW1 1019   2.195   0.764   1.123  0.2168 -0.5315 -2.6537
  340SOL    HW2 1020   2.335   0.659   1.125  0.2045 -2.0000  1.2350
  341SOL     OW 1021   1.932   2.100   0.304  0.2670  0.6365  0.1491
  341SOL    HW1 1022   1.953   2.142   0.209  2.1393 -1.3364  1.7960
  341SOL    HW2 1023   2.019   2.075   0.358 -0.5949 -1.1851  1.6416
  342SOL     OW 1024   2.161   2.145   2.791 -0.3927 -0.0320 -0.2225
  342SOL    HW1 1025   2.229   2.068   2.819  0.5335 -0.9799  1.0300
  342SOL    HW2 1026   2.073   2.111   2.747 -1.0696 -1.6037  0.9911
  343SOL     OW 1027   0.398   0.810   2.788  0.0487 -0.3951 -0.0189
  343SOL    HW1 1028   0.392   0.832   2.689 -0.2483  0.9152  0.2342
  343SOL    HW2 1029   0.493   0.836   2.830  1.7301  0.8547 -2.1881
  344SOL     OW 1030   1.911   1.492   0.445  0.2986 -0.0032 -0.1655
  344SOL    HW1 1031   1.899   1.408   0.386  1.4137  0.9611 -0.4065
  344SOL    HW2 1032   1.822   1.539   0.476  0.9576  0.8055  1.5284
  345SOL     OW 1033   1.384   2.256   2.870 -0.3071  0.0191 -0.5147
  345SOL    HW1 1034   1.293   2.265   2.822 -1.7471 -0.8922  1.3637
  345SOL    HW2 1035   1.439   2.184   2.817  0.7593  0.9281  0.7227
  346SOL     OW 1036   2.341   0.897   1.383 -0.4283  0.1964 -0.1313
  346SOL    HW1 1037   2.297   0.986   1.397  0.6018 -0.0741  0.6642
  346SOL    HW2 1038   2.320   0.844   1.294 -0.2882  0.9188 -0.4756
  347SOL     OW 1039   0.750   2.739   1.620 -0.3661 -0.0251  0.5579
  347SOL    HW1 1040   0.681   2.721   1.695 -0.9017  0.6497 -2.5582
  347SOL    HW2 1041   0.721   2.809   1.550  0.1045  1.4240 -0.8180
  348SOL     OW 1042   0.147   0.736   2.926  0.0136  0.5024  0.0129
  348SOL    HW1 1043   0.066   0.713   2.862 -1.6449  2.0464 -0.1699
  348SOL    HW2 1044   0.232   0.762   2.873  3.6888 -0.4956 -1.9770
  349SOL     OW 1045   1.863   0.437   2.771 -0.1099 -0.4771 -0.0724
  349SOL    HW1 1046   1.877   0.514   2.707  1.4603 -0.5999  0.4545
  349SOL    HW2 1047   1.855   0.479   2.867  1.1332  0.7305 -0.4852
  350SOL     OW 1048   1.648   0.404   0.393  0.0825 -0.0846 -0.1644
  350SOL    HW1 1049   1.742   0.405   0.440 -2.8535  0.3302  0.5357
  350SOL    HW2 1050   1.615   0.502   0.372 -0.1164  0.8179  1.3782
  351SOL     OW 1051   0.969   0.831   2.105 -0.2393  0.5090  0.0922
  351SOL    HW1 1052   1.030   0.915   2.092  0.7290 -1.8990 -1.3332
  351SOL    HW2 1053   0.990   0.765   2.029 -1.8995 -0.8574  0.6945
  352SOL     OW 1054   2.074   1.334   0.637 -0.2377 -0.3331 -0.4195
  352SOL    HW1 1055   2.029   1.384   0.555 -1.7847  3.3437 -0.6828
  352SOL    HW2 1056   1.997   1.290   0.689 -4.1029 -0.1558 -4.3670
  353SOL     OW 1057   2.193   2.799   1.086  0.2294 -0.1930 -0.0007
  353SOL    HW1 1058   2.248   2.749   1.158 -0.8536 -0.3455 -0.7116
  353SOL    HW2 1059   2.096   2.757   1.091  1.7468 -1.3995  3.7927
  354SOL     OW 1060   0.272   1.391   2.847  0.5587  0.0986 -0.3311
  354SOL    HW1 1061   0.254   1.485   2.797 -1.3954  2.2354 -0.9795
  354SOL    HW2 1062   0.368   1.384   2.893  0.5816 -1.9684 -0.5274
  355SOL     OW 1063   0.720   1.604   0.590  0.1152 -0.0136  0.7097
  355SOL    HW1 1064   0.710   1.516   0.645  0.6143 -0.6803 -0.5730
  355SOL    HW2 1065   0.710   1.579   0.490 -1.3296 -1.3065  0.5829
  356SOL     OW 1066   0.822   0.318   2.045  0.9434 -0.0793 -0.1229
  356SOL    HW1 1067   0.908   0.264   2.056  0.1073  3.5976 -1.1882
  356SOL    HW2 1068   0.820   0.364   1.958 -2.4327 -2.8383  3.4051
  357SOL     OW 1069   0.965   1.322   0.350  0.1163  0.0117  0.8656
  357SOL    HW1 1070   1.057   1.342   0.303  0.9644  1.2898 -0.1345
  357SOL    HW2 1071   0.960   1.220   0.380 -2.6020 -0.2223 -0.9891
  358SOL     OW 1072   1.636   1.545   0.481 -0.2357 -0.0787  0.4222
  358SOL    HW1 1073   1.600   1.485   0.562 -0.7703 -2.1605  3.2042
  358SOL    HW2 1074   1.608   1.508   0.385 -1.7269  0.1722 -1.2675
  359SOL     OW 1075   1.591   2.615   0.232  0.3162 -0.0464  0.1550
  359SOL    HW1 1076   1.580   2.510   0.231  1.0877  1.0633 -0.0909
  359SOL    HW2 1077   1.529   2.665   0.301 -0.8902  2.9522  1.5278
  360SOL     OW 1078   0.755   0.564   0.540 -0.3634 -0.0112  0.2182
  360SOL    HW1 1079   0.674   0.554   0.480  2.1535 -1.9018 -1.7872
  360SOL    HW2 1080   0.796   0.472   0.560  2.1904 -3.1273  0.4828
  361SOL     OW 1081   1.295   1.292   0.668  0.1331 -0.0604  0.0734
  361SOL    HW1 1082   1.351   1.336   0.743  0.1620 -0.6602 -0.5733
  361SOL    HW2 1083   1.202   1.337   0.655 -0.1696  2.2681 -0.8800
  362SOL     OW 1084   1.378   1.768   0.778 -0.2919 -0.2846 -0.5519
  362SOL    HW1 1085   1.442   1.710   0.835 -1.5834 -0.3123  1.8431
  362SOL    HW2 1086   1.429   1.839   0.724  1.8796 -1.9437 -0.1283
  363SOL     OW 1087   1.253   1.344   2.064  0.3039 -0.2119  0.4193
  363SOL    HW1 1088   1.351   1.375   2.058 -1.9818 -0.5158  3.0764
  363SOL    HW2 1089   1.184   1.418   2.071  1.2089 -1.4189  1.5886
  364SOL     OW 1090   0.521   2.361   1.989  0.3177  0.1120 -0.0916
  364SOL    HW1 1091   0.429   2.413   1.986  0.5019 -0.5331 -2.1355
  364SOL    HW2 1092   0.590   2.398   1.922  2.8744 -0.2241  2.9724
  365SOL     OW 1093   1.016   1.966   1.325  0.4360 -0.1719  0.0609
  365SOL    HW1 1094   0.920   1.987   1.355 -0.0402 -0.3016 -0.6087
  365SOL    HW2 1095   1.044   2.022   1.240  1.9161  1.7221  0.5843
  366SOL     OW 1096   2.848   1.951   0.386  0.0738 -0.5385 -0.6272
  366SOL    HW1 1097   2.758   1.982   0.342 -1.4238  0.0869  0.4241
  366SOL    HW2 1098   2.900   1.887   0.332 -0.6462  1.7923 -0.9469
  367SOL     OW 1099   0.930   1.156   0.007  0.8966  0.9132 -0.2544
  367SOL    HW1 1100   0.917   1.081   0.081 -0.4620 -1.0995  1.3810
  367SOL    HW2 1101   1.010   1.220   0.021 -0.1714  2.5234  1.8314
  368SOL     OW 1102   1.438   0.557   0.630 -0.6516  0.0742 -0.0451
  368SOL    HW1 1103   1.373   0.559   0.552 -2.6851 -1.5502 -0.6130
  368SOL    HW2 1104   1.532   0.593   0.612  1.7902  2.0412  0.4180
  369SOL     OW 1105   0.371   1.702   0.145 -0.0553  0.8738  0.4061
  369SOL    HW1 1106   0.399   1.764   0.223 -0.6443  0.3749 -0.8910
  369SOL    HW2 1107   0.287   1.645   0.171  0.2219  3.6585  1.4693
  370SOL     OW 1108   0.432   2.062   1.070 -0.4597  0.2386 -0.5790
  370SOL    HW1 1109   0.427   2.161   1.043 -0.4810 -1.2475  2.9342
  370SOL    HW2 1110   0.343   2.007   1.069 -0.9872 -1.6260  2.2915
  371SOL     OW 1111   2.915   2.220   2.624 -0.3085 -0.0864 -0.4081
  371SOL    HW1 1112   2.850   2.171   2.686  0.4347 -1.7824 -0.2099
  371SOL    HW2 1113   2.997   2.264   2.667 -0.7060  2.5093  1.4302
  372SOL     OW 1114   1.021   2.027   1.039 -0.2075  0.0891 -0.6407
  372SOL    HW1 1115   0.952   2.095   1.005  0.9779  0.3234  0.7000
  372SOL    HW2 1116   1.101   2.022   0.973 -0.0722  1.9481  1.0137
  373SOL     OW 1117   1.966   1.945   0.873  0.0607 -0.4870  0.7189
  373SOL    HW1 1118   2.052   1.963   0.926 -1.8678  2.5956  2.5483
  373SOL    HW2 1119   1.885   1.998   0.907  2.5386  2.2354  0.7617
  374SOL     OW 1120   1.861   0.384   0.559  0.0915  0.0673  0.1764
  374SOL    HW1 1121   1.853   0.371   0.659 -0.4370 -1.5537 -5.1558
  374SOL    HW2 1122   1.959   0.397   0.534  0.6724 -0.2850 -0.3548
  375SOL     OW 1123   2.419   2.147   1.082  0.0519  0.0035  0.0385
  375SOL    HW1 1124   2.458   2.120   0.990 -1.0753 -1.6387  0.9773
  375SOL    HW2 1125   2.479   2.119   1.161 -0.6310  0.7161 -0.6137
  376SOL     OW 1126   3.021   0.533   1.481 -0.2394 -0.4002 -0.5174
  376SOL    HW1 1127   3.037   0.628   1.530  1.5953 -0.0059  1.2608
  376SOL    HW2 1128   2.930   0.495   1.507  2.7687 -2.3109  1.0897
  377SOL     OW 1129   2.153   2.902   0.303  0.0851 -0.0313  0.3487
  377SOL    HW1 1130   2.152   3.005   0.322  0.5838 -0.6022 -0.4301
  377SOL    HW2 1131   2.251   2.868   0.283  0.9111 -0.6354 -3.5751
  378SOL     OW 1132   1.745   1.832   2.565 -0.2764 -0.1123 -0.6176
  378SOL    HW1 1133   1.820   1.782   2.612  0.3837  1.3482 -2.5198
  378SOL    HW2 1134   1.702   1.763   2.499 -3.4899 -0.0490 -0.4299
  379SOL     OW 1135   0.686   0.137   2.850  0.1287  1.0508 -0.1372
  379SOL    HW1 1136   0.685   0.040   2.808  1.0624  1.0272  0.5667
  379SOL    HW2 1137   0.723   0.205   2.780 -0.5478  1.7842 -1.6318
  380SOL     OW 1138   1.513   1.147   0.616  0.1231 -0.4224 -0.2484
  380SOL    HW1 1139   1.423   1.203   0.615 -2.8500 -0.6867 -0.1992
  380SOL    HW2 1140   1.495   1.049   0.642  0.8141 -0.1553 -0.8633
  381SOL     OW 1141   1.344   1.173   1.557 -0.3214  0.3990  0.7882
  381SOL    HW1 1142   1.387   1.135   1.473 -0.3376  1.5222  0.7206
  381SOL    HW2 1143   1.392   1.257   1.598  1.4286  0.6264 -0.5544
  382SOL     OW 1144   1.794   0.895   0.183  0.1867  0.3256 -0.3353
  382SOL    HW1 1145   1.822   0.843   0.096  0.2561 -0.3952  1.5005
  382SOL    HW2 1146   1.862   0.886   0.263 -2.7719  2.1806  1.6370
  383SOL     OW 1147   2.588   1.009   1.474  0.1254  0.0564 -0.0167
  383SOL    HW1 1148   2.497   0.960   1.452 -0.9451 -0.7270  0.5088
  383SOL    HW2 1149   2.667   0.977   1.406 -0.5382  1.7868 -1.9268
  384SOL     OW 1150   0.967   2.229   0.158 -0.3965 -0.2734  0.0407
  384SOL    HW1 1151   0.967   2.304   0.226 -0.0747 -1.3998 -1.9967
  384SOL    HW2 1152   0.916   2.145   0.191  0.0308  0.2942 -0.3072
  385SOL     OW 1153   2.973   2.029   1.641 -0.4692 -0.3780  0.0073
  385SOL    HW1 1154   3.046   2.103   1.646 -0.1683 -1.3860  0.1376
  385SOL    HW2 1155   3.000   1.931   1.647  1.8974 -1.0068  1.7036
  386SOL     OW 1156   0.517   1.063   0.437  0.4781 -0.6854  0.3942
  386SOL    HW1 1157   0.485   0.970   0.456  0.6497 -1.4121 -0.9292
  386SOL    HW2 1158   0.438   1.128   0.406 -1.8817  1.4554  2.6985
  387SOL     OW 1159   0.958   0.348   1.674 -0.3191  1.2879  0.1205
  387SOL    HW1 1160   1.046   0.401   1.695 -0.7326  1.2462 -0.2933
  387SOL    HW2 1161   0.944   0.342   1.574 -1.4999  0.0079  0.9139
  388SOL     OW 1162   1.217   2.701   1.751 -0.0279  0.3881  0.1547
  388SOL    HW1 1163   1.258   2.696   1.657  0.2789  0.5072 -0.9030
  388SOL    HW2 1164   1.255   2.631   1.815 -0.3042  0.5888  1.9021
  389SOL     OW 1165   0.162   3.032   1.173 -0.3324  0.0448  0.7660
  389SOL    HW1 1166   0.117   3.125   1.198  0.0695 -0.9249 -1.1768
  389SOL    HW2 1167   0.112   2.959   1.225  0.9262  1.7006  2.2864
  390SOL     OW 1168   1.034   0.994   1.324  0.2204 -0.2895  0.4840
  390SOL    HW1 1169   1.130   0.974   1.363 -0.4636  0.0852 -1.5172
  390SOL    HW2 1170   0.992   1.077   1.370  0.4700  1.5997 -2.5854
  391SOL     OW 1171   2.154   1.108   1.067 -0.4212  0.0434  0.3470
  391SOL    HW1 1172   2.118   1.012   1.087  1.8923  1.7781  1.1267
  391SOL    HW2 1173   2.211   1.107   0.978  0.2036  0.5376 -2.9306
  392SOL     OW 1174   0.843   2.706  -0.000 -0.1796 -0.4025  0.0812
  392SOL    HW1 1175   0.934   2.651   0.006  2.0160 -4.1974 -0.0072
  392SOL    HW2 1176   0.827   2.773   0.080  1.1119 -1.3886  0.0701
  393SOL     OW 1177   0.360   0.548   1.993 -0.2602 -0.1440 -0.5202
  393SOL    HW1 1178   0.297   0.467   1.967  3.0788  1.0541  0.6110
  393SOL    HW2 1179   0.445   0.561   1.933  1.4243  1.5552 -0.3997
  394SOL     OW 1180   2.999   1.856   2.763 -0.9533  0.6275 -0.7123
  394SOL    HW1 1181   3.055   1.915   2.825 -0.1330 -2.8409  0.1449
  394SOL    HW2 1182   2.983   1.898   2.672  0.9216  4.4523 -0.1210
  395SOL     OW 1183   1.642   1.979   0.675 -0.4853  0.3572 -0.2696
  395SOL    HW1 1184   1.677   1.903   0.614  1.0849  2.4212 -0.5090
  395SOL    HW2 1185   1.688   1.986   0.766 -2.0906  0.7412 -0.8398
  396SOL     OW 1186   2.839   1.878   1.281 -0.1787 -0.4795 -0.4101
  396SOL    HW1 1187   2.806   1.784   1.291  2.3950  2.0686 -1.9087
  396SOL    HW2 1188   2.805   1.937   1.356 -4.0297 -1.7053  0.9732
  397SOL     OW 1189   1.042   2.218   0.499 -0.1700 -0.0069 -0.0343
  397SOL    HW1 1190   0.956   2.187   0.547  2.3633 -0.2317 -0.9315
  397SOL    HW2 1191   1.041   2.319   0.487 -1.4979  1.7687  0.6670
  398SOL     OW 1192   2.132   3.096   1.010  0.4558 -0.1290  0.0765
  398SOL    HW1 1193   2.144   3.009   1.062  0.1439  3.2528 -1.0342
  398SOL    HW2 1194   2.093   3.175   1.067  0.4708  1.8685  0.9291
  399SOL     OW 1195   3.044   2.471   2.512  0.0337 -0.0497 -0.1633
  399SOL    HW1 1196   2.943   2.466   2.538  1.9343  0.5880 -0.6132
  399SOL    HW2 1197   3.082   2.382   2.490 -0.8864 -0.1904 -0.1401
  400SOL     OW 1198   0.761   1.611   1.329  0.0289  0.3620  0.0766
  400SOL    HW1 1199   0.753   1.686   1.403  0.2743  0.5713 -2.3341
  400SOL    HW2 1200   0.799   1.648   1.242  2.9982 -0.0888 -0.1247
  401SOL     OW 1201   1.806   0.086   1.316  0.7918 -0.1774 -0.3695
  401SOL    HW1 1202   1.873   0.089   1.396 -0.7766 -0.2399  0.5448
  401SOL    HW2 1203   1.710   0.101   1.343  1.9367 -1.7976 -1.9954
  402SOL     OW 1204   1.324   0.171   3.066 -0.1858  0.0134  0.1494
  402SOL    HW1 1205   1.412   0.138   3.016  2.8787  2.6984 -0.6079
  402SOL    HW2 1206   1.300   0.269   3.038  0.2192 -2.1046 -0.4800
  403SOL     OW 1207   2.306   1.760   0.910 -0.6978 -0.6234  0.2389
  403SOL    HW1 1208   2.409   1.771   0.905 -1.6259 -0.6704 -0.2368
  403SOL    HW2 1209   2.255   1.828   0.974 -4.1806  0.5473  0.6725
  404SOL     OW 1210   0.179   2.522   2.783  0.1095 -0.4188  0.0310
  404SOL    HW1 1211   0.274   2.489   2.774 -1.6083  1.2555  0.3178
  404SOL    HW2 1212   0.173   2.606   2.845  0.2725 -1.0598 -1.2496
  405SOL     OW 1213   0.141   2.383   0.690 -0.3192  0.4916  1.1992
  405SOL    HW1 1214   0.129   2.376   0.590 -1.3847 -0.4125  2.6427
  405SOL    HW2 1215   0.203   2.465   0.715  1.8843  1.4069 -0.9815
  406SOL     OW 1216   0.057   1.524   3.028  0.4840  0.1940  0.2884
  406SOL    HW1 1217   0.144   1.506   2.983  0.1717 -1.2311 -1.8137
  406SOL    HW2 1218   0.064   1.598   3.105  1.1324 -1.2813  2.9884
  407SOL     OW 1219   1.554   0.959   0.949 -0.6300  0.2785  1.3394
  407SOL    HW1 1220   1.558   0.929   0.853 -0.6361 -2.3695  0.5803
  407SOL    HW2 1221   1.480   1.035   0.957 -1.9164  0.4142 -0.3973
  408SOL     OW 1222   1.623   2.365   0.952  0.0064  0.6944  0.4419
  408SOL    HW1 1223   1.674   2.351   0.861 -2.2624 -1.0591 -0.1440
  408SOL    HW2 1224   1.542   2.421   0.942  0.5794  0.5325  2.0816
  409SOL     OW 1225   0.633   0.856   0.728 -0.0769  0.5333  0.4675
  409SOL    HW1 1226   0.547   0.861   0.663  0.0410  0.5937 -0.6439
  409SOL    HW2 1227   0.655   0.758   0.760 -0.4790  1.9474 -0.9367
  410SOL     OW 1228   1.309   2.051   1.422  0.1641  0.2552 -0.2093
  410SOL    HW1 1229   1.381   2.002   1.486  1.4426  1.0665 -1.3824
  410SOL    HW2 1230   1.226   1.998   1.413  4.4012  1.1105  2.1259
  411SOL     OW 1231   2.568   1.889   3.059  0.7122  0.2022 -0.7178
  411SOL    HW1 1232   2.472   1.886   3.014  0.4793  0.7293 -0.0929
  411SOL    HW2 1233   2.637   1.833   3.002 -0.4587  0.4891 -1.9750
  412SOL     OW 1234   1.465   2.494   2.175 -0.2263 -0.3619 -0.3371
  412SOL    HW1 1235   1.469   2.594   2.196  0.9553 -0.7997  0.3521
  412SOL    HW2 1236   1.389   2.449   2.225 -2.1622  0.7580 -0.9630
  413SOL     OW 1237   3.063   0.270   2.978 -0.4302  0.3329 -0.4956
  413SOL    HW1 1238   3.026   0.179   3.005 -0.0255  1.9946 -0.2007
  413SOL    HW2 1239   3.166   0.282   2.964 -0.7537  1.8877  0.3810
  414SOL     OW 1240   1.847   1.529   1.223 -0.1578 -0.1876 -0.6551
  414SOL    HW1 1241   1.831   1.596   1.152 -1.1006 -0.1632  0.0401
  414SOL    HW2 1242   1.823   1.430   1.195  2.2109 -1.1176  1.4835
  415SOL     OW 1243   0.356   2.192   0.698  0.3496  0.0126 -0.4191
  415SOL    HW1 1244   0.270   2.256   0.692 -0.8572  3.1982  2.4271
  415SOL    HW2 1245   0.366   2.156   0.793  1.4941  3.2466 -0.4404
  416SOL     OW 1246   0.380   1.018   1.050  0.0946 -0.2139  0.6544
  416SOL    HW1 1247   0.354   0.977   0.958 -1.8250  1.4698 -3.0622
  416SOL    HW2 1248   0.461   1.082   1.041  0.1201  1.1177  0.1374
  417SOL     OW 1249   2.237   2.311   1.980  0.0046  0.9665  0.5162
  417SOL    HW1 1250   2.323   2.250   1.991 -0.8788  1.4013 -1.7405
  417SOL    HW2 1251   2.148   2.266   1.956 -2.7395  3.4636  0.7808
  418SOL     OW 1252   1.096   0.516   1.364 -0.2902  0.0781 -0.7662
  418SOL    HW1 1253   1.028   0.481   1.296  2.2496  0.6320  1.7045
  418SOL    HW2 1254   1.184   0.548   1.322  0.4363  0.3001  1.0820
  419SOL     OW 1255   0.916   0.454   3.002 -0.1304  0.0705  0.3107
  419SOL    HW1 1256   0.917   0.511   2.913 -2.2422 -0.5377 -1.2480
  419SOL    HW2 1257   0.874   0.512   3.083  0.8010  2.9713 -0.5188
  420SOL     OW 1258   0.086   2.269   0.454  0.2710 -0.2296 -0.3958
  420SOL    HW1 1259   0.116   2.224   0.362 -0.6404  0.6685 -2.8822
  420SOL    HW2 1260   0.021   2.210   0.508  0.7912  0.7813  0.3262
  421SOL     OW 1261   0.350   3.012   0.672  0.2882  0.3872 -0.1438
  421SOL    HW1 1262   0.380   2.934   0.733 -1.7670  0.2004  0.4959
  421SOL    HW2 1263   0.430   3.075   0.641  2.8301  0.6404 -2.2485
  422SOL     OW 1264   1.067   2.487   1.014 -0.2928 -0.2594  0.1043
  422SOL    HW1 1265   1.116   2.564   0.962  2.7712  2.4388  1.6916
  422SOL    HW2 1266   1.064   2.511   1.114  2.1179 -0.0277  1.1897
  423SOL     OW 1267   0.075   0.669   1.303 -0.0453 -0.0633  0.6873
  423SOL    HW1 1268   0.015   0.597   1.348  2.7824  1.7556 -2.2014
  423SOL    HW2 1269   0.028   0.758   1.294  0.1102 -1.3763 -1.9132
  424SOL     OW 1270   0.982   2.201   2.048 -0.1010  0.0385  0.0448
  424SOL    HW1 1271   0.970   2.299   2.027 -1.4486 -1.0772 -1.4845
  424SOL    HW2 1272   1.005   2.192   2.148  0.3682  1.0107 -1.1816
  425SOL     OW 1273   2.014   1.320   0.983  0.3461 -0.2906 -0.3604
  425SOL    HW1 1274   2.076   1.238   1.009  1.9435  0.7825  0.3307
  425SOL    HW2 1275   2.065   1.397   0.942 -0.4293 -1.8484  1.8392
  426SOL     OW 1276   1.486   1.607   1.380 -0.4344 -0.6461  0.5758
  426SOL    HW1 1277   1.460   1.690   1.324 -0.1031  2.5258 -0.6047
  426SOL    HW2 1278   1.438   1.602   1.467 -0.8884  1.4185 -2.5323
  427SOL     OW 1279   1.894   2.364   2.033 -0.0186 -0.0051 -0.0012
  427SOL    HW1 1280   1.935   2.286   2.089 -0.3036 -0.2972  0.4198
  427SOL    HW2 1281   1.939   2.454   2.059 -0.3373 -2.5068 -1.1941
  428SOL     OW 1282   0.871   3.028   0.194 -0.2585  0.4233 -0.4485
  428SOL    HW1 1283   0.856   3.127   0.167  1.1126  1.7419 -1.4430
  428SOL    HW2 1284   0.962   2.991   0.161  2.4305  0.8105 -0.3747
  429SOL     OW 1285   1.315   0.058   0.261 -0.4003  0.0278  0.0544
  429SOL    HW1 1286   1.409   0.084   0.300  1.4425 -0.8706  0.6328
  429SOL    HW2 1287   1.310   0.061   0.158 -1.4704 -1.3763 -0.6984
  430SOL     OW 1288   2.777   1.430   0.320 -0.4895  0.5108  0.0638
  430SOL    HW1 1289   2.798   1.478   0.229 -0.6134  1.7002 -1.1936
  430SOL    HW2 1290   2.805   1.484   0.404 -0.1992  0.3739 -3.0033
  431SOL     OW 1291   2.112   1.565   0.871 -0.5128  0.4411  0.1381
  431SOL    HW1 1292   2.203   1.619   0.882  0.1711 -0.3627  2.0889
  431SOL    HW2 1293   2.057   1.597   0.790  0.0835 -4.2857  0.5199
  432SOL     OW 1294   2.839   2.240   1.266 -0.4935  0.0801 -0.6034
  432SOL    HW1 1295   2.827   2.137   1.265  2.4286 -0.3517  1.7631
  432SOL    HW2 1296   2.906   2.266   1.339 -3.0128  1.2137 -1.1560
  433SOL     OW 1297   1.892   0.373   0.833 -0.9843 -0.2742  0.3122
  433SOL    HW1 1298   1.803   0.333   0.871 -1.4711 -1.2126  0.3800
  433SOL    HW2 1299   1.977   0.353   0.896  0.0542 -0.3778 -0.8809
  434SOL     OW 1300   1.497   0.248   0.751  0.4356 -0.8202  0.4164
  434SOL    HW1 1301   1.499   0.337   0.695 -0.9531  3.9866  0.5939
  434SOL    HW2 1302   1.543   0.267   0.845  0.5623  0.0433 -0.3222
  435SOL     OW 1303   1.487   1.480   2.123 -0.3305  0.1938  0.5939
  435SOL    HW1 1304   1.479   1.511   2.218 -0.4428 -1.8670 -3.0698
  435SOL    HW2 1305   1.513   1.567   2.073  0.2021  0.6846  1.3891
  436SOL     OW 1306   1.691   2.750   2.225  0.2308 -0.1877 -0.0894
  436SOL    HW1 1307   1.641   2.822   2.280  1.6898 -0.5813  2.8210
  436SOL    HW2 1308   1.697   2.662   2.284  1.8818  1.2224  0.7149
  437SOL     OW 1309   1.063   2.930   0.932  0.9939 -0.3298  0.0076
  437SOL    HW1 1310   1.016   3.003   0.870 -0.4372  1.0742 -0.1509
  437SOL    HW2 1311   1.032   2.949   1.030 -0.2177  1.1243  0.0322
  438SOL     OW 1312   1.001   2.589   1.298 -0.0794 -0.3795  0.1844
  438SOL    HW1 1313   1.072   2.629   1.364 -4.2361  1.1729 -0.1732
  438SOL    HW2 1314   0.985   2.486   1.309 -0.5660 -1.3900  2.4885
  439SOL     OW 1315   0.687   1.747   1.089 -0.0952  0.1630 -0.1933
  439SOL    HW1 1316   0.704   1.828   1.026 -2.4300  1.2050  0.4100
  439SOL    HW2 1317   0.589   1.744   1.129  0.4322  0.2685  0.9763
  440SOL     OW 1318   1.004   2.503   1.989  0.3824  0.1270  0.0109
  440SOL    HW1 1319   0.963   2.522   1.898 -0.2864 -1.0017 -0.0913
  440SOL    HW2 1320   1.107   2.486   1.973  0.4408  2.1059  1.1453
  441SOL     OW 1321   0.497   2.730   1.420  0.0851 -0.0778  0.3279
  441SOL    HW1 1322   0.555   2.650   1.427 -0.8809 -1.6412 -0.7986
  441SOL    HW2 1323   0.414   2.710   1.359 -1.5912  1.1911  2.4965
  442SOL     OW 1324   2.326   0.679   2.451 -0.7092  0.2711  0.8620
  442SOL    HW1 1325   2.342   0.590   2.505 -0.3163 -0.8461  0.4148
  442SOL    HW2 1326   2.225   0.706   2.442  1.2631  1.0464  2.0987
  443SOL     OW 1327   1.259   2.709   2.146  0.4642 -0.3502 -0.2537
  443SOL    HW1 1328   1.293   2.787   2.202 -1.5202 -5.0931 -0.0062
  443SOL    HW2 1329   1.199   2.651   2.203 -0.3619  0.3572  1.1959
  444SOL     OW 1330   1.087   1.282   1.606  0.0054 -0.1762 -0.1401
  444SOL    HW1 1331   1.175   1.240   1.576 -1.7829  0.0989 -1.9983
  444SOL    HW2 1332   1.095   1.358   1.675  1.2891 -4.5663  0.6067
  445SOL     OW 1333   0.019   2.379   1.846  0.4187 -0.7396  0.2021
  445SOL    HW1 1334   0.002   2.473   1.797  0.2546  1.2108 -2.4932
  445SOL    HW2 1335  -0.062   2.351   1.907  0.5342  1.0448  0.8194
  446SOL     OW 1336   0.254   1.911   2.312  0.3632 -0.4800 -0.5375
  446SOL    HW1 1337   0.207   1.989   2.362 -1.7747  0.9005 -0.7789
  446SOL    HW2 1338   0.209   1.871   2.226 -1.3426 -0.0885 -0.9542
  447SOL     OW 1339   1.181   1.692   1.922  0.1006 -0.7374  0.6118
  447SOL    HW1 1340   1.099   1.753   1.896  0.5280  0.5523 -1.2745
  447SOL    HW2 1341   1.267   1.752   1.929  0.4815 -0.8612 -4.2528
  448SOL     OW 1342   0.140   1.535   1.988  0.0752 -0.0563  0.8321
  448SOL    HW1 1343   0.173   1.613   1.924  0.0833  3.2700 -0.5149
  448SOL    HW2 1344   0.111   1.582   2.075  2.4936 -0.8622  2.6337
  449SOL     OW 1345   1.943   2.954   0.839 -0.0039  0.1155 -0.2563
  449SOL    HW1 1346   2.013   2.993   0.902 -2.3475  0.1239 -1.6538
  449SOL    HW2 1347   1.959   2.856   0.810  1.4129  2.1796  3.0574
  450SOL     OW 1348   2.331   1.376   0.739  0.3504 -0.4668 -0.0067
  450SOL    HW1 1349   2.236   1.340   0.710  0.2162  2.1266  0.4523
  450SOL    HW2 1350   2.349   1.470   0.699  1.0224  1.6671  2.6990
  451SOL     OW 1351   1.323   3.044   1.460 -0.5013  0.4619 -0.1225
  451SOL    HW1 1352   1.271   3.133   1.487 -0.6833 -0.1736  1.8830
  451SOL    HW2 1353   1.364   2.993   1.543  0.0466 -0.8003 -0.1493
  452SOL     OW 1354   2.671   2.296   2.156 -0.4940 -0.4681  0.0804
  452SOL    HW1 1355   2.597   2.364   2.180  2.4815  2.2926 -0.6143
  452SOL    HW2 1356   2.697   2.235   2.235  0.6521  0.5323  2.0581
  453SOL     OW 1357   2.487   2.655   3.097 -0.2293  0.4587  0.4537
  453SOL    HW1 1358   2.396   2.694   3.111 -0.7656  1.1181 -0.4315
  453SOL    HW2 1359   2.484   2.579   3.029  0.0109  0.6975 -0.6674
  454SOL     OW 1360   1.026   1.142   2.077  0.1385 -0.4050 -0.1724
  454SOL    HW1 1361   0.989   1.129   1.979 -1.3355 -1.9638  0.5989
  454SOL    HW2 1362   1.095   1.222   2.084 -1.4205  0.4001  1.6135
  455SOL     OW 1363   0.639   2.638   2.892 -0.2240 -0.9529 -0.6353
  455SOL    HW1 1364   0.713   2.677   2.959  0.0384  0.8478 -1.0162
  455SOL    HW2 1365   0.595   2.550   2.924  2.9622 -1.0312 -1.0881
  456SOL     OW 1366   0.482   1.894   0.320  0.4038  0.7211  0.3341
  456SOL    HW1 1367   0.576   1.876   0.366  0.5071  0.0553  0.2039
  456SOL    HW2 1368   0.475   1.998   0.295  0.5731  1.6918 -0.9096
  457SOL     OW 1369   0.301   2.620   0.674  0.9169 -0.5899  0.7926
  457SOL    HW1 1370   0.282   2.674   0.583 -0.7120  1.2964 -2.0725
  457SOL    HW2 1371   0.403   2.608   0.693  0.0429 -0.1393 -1.3576
  458SOL     OW 1372   2.974   3.077   1.213  0.0390  1.0356 -0.1457
  458SOL    HW1 1373   2.983   3.180   1.210 -2.1013  0.8427  0.9788
  458SOL    HW2 1374   2.974   3.029   1.119 -1.6794 -3.3563 -1.3329
  459SOL     OW 1375   2.201   2.560   0.792  0.5655  0.6125  0.4366
  459SOL    HW1 1376   2.240   2.640   0.839  0.5631  0.2599 -2.3847
  459SOL    HW2 1377   2.267   2.532   0.718 -0.2948 -2.2004  0.6456
  460SOL     OW 1378   1.162   1.971   2.892 -0.0633 -0.6618  0.3556
  460SOL    HW1 1379   1.195   2.025   2.813 -0.3192  0.0270  0.5794
  460SOL    HW2 1380   1.228   1.899   2.924 -0.8091 -0.2797  0.5061
  461SOL     OW 1381   0.529   2.082   2.664 -0.3667  0.2794 -0.1457
  461SOL    HW1 1382   0.458   2.003   2.650  0.1728 -1.3329 -2.2110
  461SOL    HW2 1383   0.565   2.083   2.761  0.7727  1.6054 -0.9251
  462SOL     OW 1384   0.927   1.082   1.826 -0.6119 -0.5196 -0.3838
  462SOL    HW1 1385   0.999   1.011   1.798 -1.5812  1.0352 -0.8032
  462SOL    HW2 1386   0.921   1.150   1.756 -0.4473 -3.5030 -1.5820
  463SOL     OW 1387   0.459   0.768   0.495  0.1653  0.1417  0.2202
  463SOL    HW1 1388   0.471   0.666   0.463  1.9988 -1.4548 -1.0115
  463SOL    HW2 1389   0.366   0.798   0.522 -1.2993  2.4066 -0.9063
  464SOL     OW 1390   0.592   2.273   2.239 -0.2998 -0.1323  0.2347
  464SOL    HW1 1391   0.562   2.345   2.304  2.0711 -4.0954  1.8446
  464SOL    HW2 1392   0.575   2.296   2.138 -1.1422  1.2323  0.0437
  465SOL     OW 1393   0.318   0.923   0.804  0.0563 -0.0341  0.2700
  465SOL    HW1 1394   0.233   0.976   0.782  0.0329 -2.6974 -0.1102
  465SOL    HW2 1395   0.296   0.816   0.797 -0.1192 -1.6894  0.5553
  466SOL     OW 1396   1.336   1.140   1.074  0.2269  0.3053  0.3658
  466SOL    HW1 1397   1.372   1.224   1.124 -0.4254  0.3083  1.5283
  466SOL    HW2 1398   1.237   1.155   1.051 -0.9538 -0.6330 -4.1109
  467SOL     OW 1399   0.482   0.328   2.361  0.8228 -0.5116 -0.5475
  467SOL    HW1 1400   0.416   0.405   2.363  0.2063 -3.0863  0.4558
  467SOL    HW2 1401   0.478   0.268   2.445 -1.0347  0.0136 -0.5577
  468SOL     OW 1402   0.464   2.294   1.671  0.1038  0.1237  0.0274
  468SOL    HW1 1403   0.542   2.364   1.688  2.4350 -0.7654  1.1689
  468SOL    HW2 1404   0.423   2.292   1.574  0.0787  2.3018  0.9720
  469SOL     OW 1405   1.516   1.364   1.212  0.2939 -0.4007  0.1746
  469SOL    HW1 1406   1.593   1.299   1.201 -0.2360 -0.7070  2.4220
  469SOL    HW2 1407   1.542   1.457   1.251  0.8088 -3.6273  1.5822
  470SOL     OW 1408   3.035   1.669   0.794 -0.2729 -0.2671  0.2128
  470SOL    HW1 1409   3.119   1.731   0.794 -1.4228  2.2378  2.5735
  470SOL    HW2 1410   2.949   1.717   0.815 -1.3659 -0.7220 -1.4578
  471SOL     OW 1411   2.651   1.318   2.144 -0.0793  0.0344  0.4071
  471SOL    HW1 1412   2.626   1.264   2.229 -0.3313  0.9762 -0.6008
  471SOL    HW2 1413   2.721   1.391   2.159  1.8476 -0.0360 -1.6091
  472SOL     OW 1414   1.138   2.496   3.069  0.1300  0.3462 -0.0689
  472SOL    HW1 1415   1.183   2.485   3.161 -3.6055  3.1494 -1.0651
  472SOL    HW2 1416   1.120   2.406   3.027  1.0953  2.1444  0.9374
  473SOL     OW 1417   1.113   1.516   1.005 -0.3337 -0.2480  0.0564
  473SOL    HW1 1418   1.016   1.508   1.020  2.2915 -4.7924  0.7969
  473SOL    HW2 1419   1.165   1.469   1.088  0.8390 -1.2622 -0.0292
  474SOL     OW 1420   0.700   1.273   0.580  0.1594 -0.2800  0.5233
  474SOL    HW1 1421   0.719   1.289   0.478 -1.5867 -0.5317  1.4278
  474SOL    HW2 1422   0.743   1.185   0.613 -1.4597 -0.2142 -1.2228
  475SOL     OW 1423   2.838   0.107   0.784  0.2843  0.3736 -0.4095
  475SOL    HW1 1424   2.918   0.157   0.825 -0.4903 -1.4498 -2.1507
  475SOL    HW2 1425   2.756   0.110   0.845  2.2393  0.4322 -3.0207
  476SOL     OW 1426   0.899   3.016   1.762 -0.6714 -1.1484 -0.1162
  476SOL    HW1 1427   0.973   2.986   1.828 -0.1825 -1.3101 -2.2436
  476SOL    HW2 1428   0.927   2.995   1.662  0.1592  0.9680  0.3509
  477SOL     OW 1429   1.436   0.347   2.483 -0.1842  0.0670  0.3130
  477SOL    HW1 1430   1.422   0.364   2.582 -0.7525 -0.2395 -0.9203
  477SOL    HW2 1431   1.531   0.320   2.450 -1.8973  1.4646  2.8546
  478SOL     OW 1432   2.211   1.859   0.256  0.2884  0.0650  0.2506
  478SOL    HW1 1433   2.137   1.797   0.226  0.5100  0.5474  1.5237
  478SOL    HW2 1434   2.298   1.806   0.285 -1.7551  0.3021  0.6537
  479SOL     OW 1435   1.237   1.084   2.929  0.7332  0.3830  0.4257
  479SOL    HW1 1436   1.293   1.061   2.841 -0.2199  0.8639  1.4259
  479SOL    HW2 1437   1.143   1.036   2.911  0.6312 -0.5956 -2.1447
  480SOL     OW 1438   2.514   2.314   0.367 -0.3462 -0.6346  0.5809
  480SOL    HW1 1439   2.482   2.217   0.367  0.4551  0.0410 -3.8019
  480SOL    HW2 1440   2.464   2.379   0.303 -0.7701 -1.8218 -1.2181
  481SOL     OW 1441   1.036   1.139   0.816  0.0137  0.3185  0.3557
  481SOL    HW1 1442   1.034   1.215   0.746 -0.0019  0.0738 -0.1007
  481SOL    HW2 1443   1.034   1.180   0.911 -1.0306  2.8111 -1.7293
  482SOL     OW 1444   1.580   0.280   2.035  0.1077  0.3719 -0.1676
  482SOL    HW1 1445   1.584   0.383   2.008 -0.3288 -1.0536  1.6027
  482SOL    HW2 1446   1.660   0.254   2.097  2.6710 -1.4034 -0.0273
  483SOL     OW 1447   0.137   2.318   1.251  0.5849  0.3690 -0.8096
  483SOL    HW1 1448   0.074   2.319   1.335  0.8205  0.0949 -0.7936
  483SOL    HW2 1449   0.126   2.408   1.195 -0.5572  1.2610 -0.1235
  484SOL     OW 1450   1.750   1.066   1.387  0.3216 -0.0715  0.7860
  484SOL    HW1 1451   1.830   0.999   1.386 -1.4439  0.0879 -2.2463
  484SOL    HW2 1452   1.735   1.118   1.475  1.0696 -0.0655 -0.3896
  485SOL     OW 1453   0.649   1.054   1.835  0.1324  0.2010  0.5560
  485SOL    HW1 1454   0.635   1.027   1.735  0.2889  0.1009 -1.5988
  485SOL    HW2 1455   0.755   1.070   1.845 -1.0088  0.9133 -0.2574
  486SOL     OW 1456   0.870   1.930   2.453  0.0515 -0.5124  0.2098
  486SOL    HW1 1457   0.934   1.868   2.516  1.5965 -1.1045 -0.2699
  486SOL    HW2 1458   0.817   2.011   2.496 -0.5713 -1.7192 -1.1401
  487SOL     OW 1459   1.816   1.605   0.930  0.3635 -0.2347 -0.3869
  487SOL    HW1 1460   1.883   1.528   0.947 -0.0603 -2.4913 -2.5206
  487SOL    HW2 1461   1.832   1.653   0.841  0.0343 -2.0687  2.4871
  488SOL     OW 1462   2.944   0.863   2.266 -0.0525 -0.3693  0.1326
  488SOL    HW1 1463   2.984   0.774   2.226 -1.1053 -0.1580 -1.1351
  488SOL    HW2 1464   2.982   0.887   2.358 -0.8548 -0.8023 -0.1454
  489SOL     OW 1465   2.767   0.242   1.302 -0.0508  0.3453 -0.1847
  489SOL    HW1 1466   2.733   0.202   1.394  2.3185  3.7311 -1.9040
  489SOL    HW2 1467   2.863   0.218   1.277  1.4111  1.5156  0.7468
  490SOL     OW 1468   1.458   2.927   2.804 -0.2125 -0.3547 -0.0384
  490SOL    HW1 1469   1.512   2.842   2.802  2.3213  1.6352  1.3831
  490SOL    HW2 1470   1.434   2.967   2.709  0.1054  0.9140  0.2662
  491SOL     OW 1471   1.831   1.461   2.588 -0.1395  0.1262 -0.0702
  491SOL    HW1 1472   1.788   1.413   2.672 -0.1903  0.0847  2.6218
  491SOL    HW2 1473   1.925   1.506   2.607  0.0166  0.0820 -2.4451
  492SOL     OW 1474   0.527   1.972   0.650 -0.1608  0.1934 -0.6007
  492SOL    HW1 1475   0.565   1.987   0.742 -2.5857  0.8750  0.0285
  492SOL    HW2 1476   0.446   2.038   0.636 -0.1501  0.9973  2.1662
  493SOL     OW 1477   0.390   1.405   2.067  0.3170 -0.1886 -0.2870
  493SOL    HW1 1478   0.296   1.445   2.067 -0.0940  0.7868 -1.2136
  493SOL    HW2 1479   0.418   1.358   2.160  1.2096  0.5546  3.1545
  494SOL     OW 1480   2.658   2.720   0.188 -0.8943  0.6222  0.1601
  494SOL    HW1 1481   2.647   2.655   0.270 -0.2815 -2.5541  1.2548
  494SOL    HW2 1482   2.589   2.706   0.112 -2.0556  0.6971  1.0708
  495SOL     OW 1483   2.792   2.659   2.690  0.3995  0.1956 -0.5612
  495SOL    HW1 1484   2.722   2.584   2.667  0.4384 -1.2175  0.0391
  495SOL    HW2 1485   2.823   2.715   2.608  1.8449 -1.5490 -0.5114
  496SOL     OW 1486   2.052   2.234   0.709 -0.2294 -0.0929 -0.0853
  496SOL    HW1 1487   2.078   2.274   0.801 -1.7356 -1.6157  2.0996
  496SOL    HW2 1488   2.087   2.136   0.686 -1.3069 -0.3539 -0.4181
  497SOL     OW 1489   0.248   2.972   2.472 -0.4112  0.7290  0.1982
  497SOL    HW1 1490   0.233   3.037   2.553 -0.0927 -0.1248 -0.4371
  497SOL    HW2 1491   0.277   3.016   2.381 -0.4546  1.1766  0.9239
  498SOL     OW 1492   1.239   1.410   1.221 -0.1506  0.0644  0.0431
  498SOL    HW1 1493   1.345   1.401   1.229 -0.4444  2.3064 -0.3577
  498SOL    HW2 1494   1.201   1.490   1.276  0.1950  0.9906  0.2985
  499SOL     OW 1495   0.707   1.866   0.467  0.2460 -0.1659  0.4435
  499SOL    HW1 1496   0.749   1.791   0.527  0.9499  0.6562 -0.4449
  499SOL    HW2 1497   0.688   1.951   0.526 -0.3932  0.2552  3.4583
  500SOL     OW 1498   1.461   2.899   1.659  0.0573  0.6161 -0.4701
  500SOL    HW1 1499   1.485   2.931   1.754 -0.5172  2.7835  0.3585
  500SOL    HW2 1500   1.507   2.812   1.624 -0.7694  2.2302 -1.9914
  501SOL     OW 1501   0.840   1.117   2.297  0.5955 -0.3455  0.2219
  501SOL    HW1 1502   0.764   1.049   2.292  2.0088  2.9716  1.3573
  501SOL    HW2 1503   0.902   1.124   2.212  0.7761 -1.0007  0.0483
  502SOL     OW 1504   2.628   0.943   1.731 -0.1166  0.0496  0.5329
  502SOL    HW1 1505   2.613   0.973   1.635 -0.1702 -0.3341  0.7311
  502SOL    HW2 1506   2.586   0.847   1.750  2.4532 -1.9131 -0.8358
  503SOL     OW 1507   1.264   0.130   0.659 -0.4453 -0.2554 -0.0638
  503SOL    HW1 1508   1.206   0.215   0.643 -1.2859 -2.7865 -1.2664
  503SOL    HW2 1509   1.365   0.139   0.672  0.0008 -1.5257  1.7170
  504SOL     OW 1510   3.041   2.347   1.449  0.3526  0.2934 -0.0417
  504SOL    HW1 1511   2.992   2.430   1.491  0.9549 -2.0535  0.3695
  504SOL    HW2 1512   3.083   2.282   1.512 -0.5777  0.2642 -0.1179
  505SOL     OW 1513   2.270   1.170   1.495  0.0237  0.4830  0.3475
  505SOL    HW1 1514   2.313   1.206   1.408 -0.9711 -0.8036  0.3896
  505SOL    HW2 1515   2.282   1.235   1.572  0.0802 -2.3246 -3.8605
  506SOL     OW 1516   1.994   0.155   1.806  0.0554 -0.1907  0.1366
  506SOL    HW1 1517   2.073   0.094   1.837  0.7669  1.1951 -2.1575
  506SOL    HW2 1518   1.990   0.247   1.851 -0.3339 -3.0159 -2.2414
  507SOL     OW 1519   0.547   0.712   2.150  0.6164  0.1996  0.0878
  507SOL    HW1 1520   0.461   0.680   2.104 -0.3388  0.2646 -0.3070
  507SOL    HW2 1521   0.626   0.651   2.155 -1.8842  3.7572  1.9133
  508SOL     OW 1522   0.226   1.663   0.876 -0.1078 -0.0093 -0.2144
  508SOL    HW1 1523   0.315   1.707   0.843  2.5159 -1.1900  3.3005
  508SOL    HW2 1524   0.185   1.700   0.960 -1.2460  1.0684 -2.0573
  509SOL     OW 1525   1.281   1.251   2.321  1.1872  0.0643 -0.6547
  509SOL    HW1 1526   1.288   1.279   2.220 -1.3776  1.2925  2.7314
  509SOL    HW2 1527   1.263   1.154   2.332 -0.5702 -0.8765  3.8752
  510SOL     OW 1528   1.286   2.017   2.084  0.0232  0.1934 -0.0544
  510SOL    HW1 1529   1.272   2.113   2.046 -1.6917 -0.0053 -1.3683
  510SOL    HW2 1530   1.202   1.975   2.118  1.0127 -0.7450 -0.9847
  511SOL     OW 1531   3.066   2.772   1.295  0.2779 -0.7490 -0.5262
  511SOL    HW1 1532   3.029   2.763   1.198 -0.2683 -0.9674 -0.6975
  511SOL    HW2 1533   2.995   2.732   1.365  3.2898 -3.3533 -0.3948
  512SOL     OW 1534   2.370   0.450   1.354 -0.1780 -0.3429  0.4206
  512SOL    HW1 1535   2.264   0.433   1.364 -1.8344 -3.0153  1.4305
  512SOL    HW2 1536   2.420   0.387   1.288 -0.5081 -0.0131 -0.7209
  513SOL     OW 1537   2.523   2.057   0.840 -0.3524  0.4187  0.0303
  513SOL    HW1 1538   2.459   2.123   0.786 -4.1845  1.4592  2.1736
  513SOL    HW2 1539   2.586   2.011   0.773 -1.1578  2.8611  1.5918
  514SOL     OW 1540   0.586   2.766   0.512 -0.8956 -0.0226  0.2370
  514SOL    HW1 1541   0.599   2.822   0.426  1.5816 -1.0187  0.1368
  514SOL    HW2 1542   0.656   2.801   0.584  1.4640 -0.9866 -0.9434
  515SOL     OW 1543   2.027   1.118   2.315  0.7257 -0.5828 -0.3370
  515SOL    HW1 1544   2.009   1.149   2.215 -1.3724  2.7371 -3.9412
  515SOL    HW2 1545   1.941   1.147   2.366 -2.5292  1.7397  1.8521
  516SOL     OW 1546   0.231   0.335   1.906  1.1012  0.0892  0.3633
  516SOL    HW1 1547   0.303   0.277   1.852  3.2854 -2.2464 -0.6262
  516SOL    HW2 1548   0.138   0.284   1.910  0.7645  0.0637  1.0346
  517SOL     OW 1549   0.463   3.084   1.171 -0.2090 -0.1819 -0.0082
  517SOL    HW1 1550   0.469   3.187   1.178 -0.9829  1.2032 -1.4967
  517SOL    HW2 1551   0.359   3.057   1.162 -1.2315  1.8591 -0.3433
  518SOL     OW 1552   2.245   0.014   1.822  0.0984  0.4488  0.0672
  518SOL    HW1 1553   2.305   0.099   1.837 -0.3323 -3.4270 -1.1955
  518SOL    HW2 1554   2.271  -0.040   1.738 -1.5765  1.5944 -0.6587
  519SOL     OW 1555   2.361   2.228   2.581 -0.0301  0.3294  0.1730
  519SOL    HW1 1556   2.287   2.200   2.644  1.8490 -0.4505 -0.7497
  519SOL    HW2 1557   2.361   2.325   2.549  2.5105  0.7342  1.5794
  520SOL     OW 1558   1.809   2.805   1.849 -0.3933  0.3168  0.7735
  520SOL    HW1 1559   1.715   2.782   1.881  2.7589 -0.7018  1.9365
  520SOL    HW2 1560   1.854   2.727   1.801 -0.9182 -0.4390  1.6488
  521SOL     OW 1561   0.583   0.019   2.135 -0.3508  0.2556 -0.2100
  521SOL    HW1 1562   0.489  -0.009   2.170 -0.6760  0.1296  0.4667
  521SOL    HW2 1563   0.656   0.017   2.213  1.7205  0.6957 -2.3192
  522SOL     OW 1564   0.205   1.892   1.448  0.2079  0.2541 -0.4802
  522SOL    HW1 1565   0.265   1.952   1.509 -1.0806  1.8523 -1.4960
  522SOL    HW2 1566   0.180   1.941   1.361  1.0712 -0.0134 -0.4613
  523SOL     OW 1567   2.255   2.996   1.558  0.3861 -0.6485 -0.2237
  523SOL    HW1 1568   2.338   2.939   1.547  0.7450 -1.6340  0.0412
  523SOL    HW2 1569   2.175   2.957   1.508  1.4167  1.8166 -1.9313
  524SOL     OW 1570   0.180   2.822   2.838  0.4045 -0.0080 -0.2488
  524SOL    HW1 1571   0.122   2.905   2.817  2.0273  0.4716 -0.2244
  524SOL    HW2 1572   0.278   2.857   2.839 -0.0182  2.5560 -1.5136
  525SOL     OW 1573   2.160   2.027   0.471 -0.1371 -0.2397 -0.4115
  525SOL    HW1 1574   2.170   1.988   0.566 -1.0247 -1.1436 -0.8989
  525SOL    HW2 1575   2.155   1.949   0.402 -1.2353 -1.1460  3.1382
  526SOL     OW 1576   0.417   1.557   1.668 -0.3514 -0.1313  0.1399
  526SOL    HW1 1577   0.454   1.570   1.765  0.3660 -3.1195 -0.0000
  526SOL    HW2 1578   0.461   1.471   1.629  0.5296 -1.6615 -0.3276
  527SOL     OW 1579   1.089   2.942   1.230  0.7192  0.7998 -0.0612
  527SOL    HW1 1580   1.166   2.878   1.259 -0.0231 -1.4709  0.7337
  527SOL    HW2 1581   1.119   3.044   1.232  0.2513  0.0549  1.5029
  528SOL     OW 1582   1.328   2.414   0.547  0.1202 -0.1485 -0.4438
  528SOL    HW1 1583   1.366   2.320   0.543  3.6786 -0.3258  1.3845
  528SOL    HW2 1584   1.401   2.481   0.582 -1.0030  2.4176  1.5808
  529SOL     OW 1585   1.948   1.723   0.682  0.0781  0.0059  0.8104
  529SOL    HW1 1586   1.877   1.730   0.612  0.2755 -1.5427 -1.7280
  529SOL    HW2 1587   1.947   1.806   0.745 -0.3938 -0.5726  2.8645
  530SOL     OW 1588   0.300   2.601   0.294 -0.2260 -0.1988 -0.3256
  530SOL    HW1 1589   0.292   2.687   0.346  1.1874 -1.3812 -0.5771
  530SOL    HW2 1590   0.339   2.527   0.357 -0.6423 -1.2190  2.5981
  531SOL     OW 1591   1.821   0.999   0.990 -0.5615  0.0574 -0.0380
  531SOL    HW1 1592   1.871   0.952   0.908 -1.2350  0.1866 -0.7810
  531SOL    HW2 1593   1.717   0.991   0.980  0.4707  1.0885  2.5294
  532SOL     OW 1594   0.439   1.160   0.733  0.1999 -0.0736  0.6019
  532SOL    HW1 1595   0.491   1.164   0.649  1.4602 -0.4099  1.7417
  532SOL    HW2 1596   0.423   1.061   0.758  1.6209  0.2488  0.2109
  533SOL     OW 1597   1.748   0.021   2.604  0.2785 -0.2254  0.3219
  533SOL    HW1 1598   1.849  -0.004   2.617  2.3055  3.0237  1.7013
  533SOL    HW2 1599   1.714   0.087   2.681  0.4528  2.1684  0.1046
  534SOL     OW 1600   0.359   0.215   1.641 -0.2685  0.5219 -0.3747
  534SOL    HW1 1601   0.449   0.215   1.595 -1.9400  2.5440  2.1012
  534SOL    HW2 1602   0.303   0.297   1.624 -0.4026 -1.5652 -1.1869
  535SOL     OW 1603   1.978   0.346   0.142  0.3229 -0.3499 -0.3122
  535SOL    HW1 1604   1.959   0.440   0.191 -3.6465  2.1212  0.1427
  535SOL    HW2 1605   1.965   0.264   0.205  0.4348 -0.1017  2.8149
  536SOL     OW 1606   1.396   2.575   0.924  0.0722  0.2788 -0.0552
  536SOL    HW1 1607   1.398   2.567   1.026 -0.1683  2.0878 -1.3500
  536SOL    HW2 1608   1.302   2.605   0.886 -0.4170 -0.7205 -0.5941
  537SOL     OW 1609   0.796   0.243   2.402  0.1566 -0.0021 -0.1610
  537SOL    HW1 1610   0.746   0.318   2.353  2.2932  1.5426  0.9345
  537SOL    HW2 1611   0.791   0.150   2.358  2.6865  0.2574 -0.3148
  538SOL     OW 1612   1.647   2.374   1.562 -0.0698 -0.1630 -0.3489
  538SOL    HW1 1613   1.589   2.295   1.535  0.5659  2.1634  0.2565
  538SOL    HW2 1614   1.730   2.378   1.501 -0.3532  2.7761  2.1471
  539SOL     OW 1615   0.204   1.628   2.728 -0.1111  0.5148 -0.2426
  539SOL    HW1 1616   0.113   1.659   2.691 -2.8553  0.4575  1.3050
  539SOL    HW2 1617   0.240   1.699   2.792 -1.0452  1.9028 -1.1308
  540SOL     OW 1618   2.665   1.730   1.911 -0.6057  0.2457  0.0278
  540SOL    HW1 1619   2.618   1.683   1.988  0.7712 -0.0255 -3.3279
  540SOL    HW2 1620   2.627   1.822   1.899  0.1960 -3.6958 -1.3384
  541SOL     OW 1621   0.476   2.200   0.021  0.1876  0.1357  0.0301
  541SOL    HW1 1622   0.489   2.196   0.125  3.0061 -0.6125  1.4602
  541SOL    HW2 1623   0.381   2.164  -0.006 -0.0714  0.3437 -1.2779
  542SOL     OW 1624   2.242   2.588   0.439 -0.6475 -0.1168 -0.1746
  542SOL    HW1 1625   2.218   2.683   0.399  0.6611  0.1893 -0.8622
  542SOL    HW2 1626   2.158   2.527   0.459  0.4666 -2.2410 -0.1077
  543SOL     OW 1627   1.083   1.857   1.565  0.2328 -0.0997  0.2092
  543SOL    HW1 1628   1.084   1.926   1.646 -0.6150  0.8393  0.9039
  543SOL    HW2 1629   1.031   1.892   1.484 -1.0072 -1.4439  0.4038
  544SOL     OW 1630   1.043   0.435   0.200  0.8458  0.7568  0.7971
  544SOL    HW1 1631   1.046   0.360   0.272 -0.5519 -1.4533  1.8115
  544SOL    HW2 1632   1.029   0.394   0.105  0.5323 -2.1619 -1.7895
  545SOL     OW 1633   1.107   1.730   0.814  0.3330  0.2389  0.3458
  545SOL    HW1 1634   1.206   1.752   0.799  0.4207 -0.5222 -2.0403
  545SOL    HW2 1635   1.090   1.645   0.866  0.7989  2.8988 -0.5579
  546SOL     OW 1636   2.606   1.471   3.024 -0.0594  0.3641  0.0971
  546SOL    HW1 1637   2.579   1.559   2.982  0.2603 -0.4140  1.9246
  546SOL    HW2 1638   2.530   1.438   3.088 -0.2051  2.0657 -1.0668
  547SOL     OW 1639   0.617   3.021   2.664  0.0046 -0.3719 -0.4443
  547SOL    HW1 1640   0.718   3.012   2.664  1.7492 -1.6676  0.4484
  547SOL    HW2 1641   0.567   2.941   2.699  0.7231  0.4083 -2.8660
  548SOL     OW 1642   2.078   0.925   2.946 -0.3843 -0.1898  0.2442
  548SOL    HW1 1643   1.987   0.876   2.971  0.4842  0.0416 -0.0404
  548SOL    HW2 1644   2.073   1.029   2.973 -0.3690  3.0931  0.1920
  549SOL     OW 1645   0.696   0.523   0.193 -0.0178 -0.4818 -0.2353
  549SOL    HW1 1646   0.647   0.564   0.116  2.5572  0.3444  0.5077
  549SOL    HW2 1647   0.753   0.595   0.241 -0.6173  2.8945  2.5772
  550SOL     OW 1648   2.598   2.837   2.896  0.3949  0.1636 -0.5385
  550SOL    HW1 1649   2.551   2.766   2.956 -1.4070 -3.1000 -1.0102
  550SOL    HW2 1650   2.628   2.795   2.807 -1.4947 -1.9480  0.6958
  551SOL     OW 1651   0.273   0.861   0.233  0.0406 -0.2013  0.4553
  551SOL    HW1 1652   0.376   0.840   0.224  0.6789 -1.0973 -0.6956
  551SOL    HW2 1653   0.243   0.840   0.331 -1.4923 -1.8405 -0.2014
  552SOL     OW 1654   0.637   2.963   1.919 -0.0776  0.6536  0.3484
  552SOL    HW1 1655   0.626   3.019   2.002 -1.1253 -0.2331 -1.7408
  552SOL    HW2 1656   0.717   2.993   1.860 -1.5566 -1.9872  1.5152
  553SOL     OW 1657   2.950   2.504   0.366 -0.1626 -0.2435 -0.0183
  553SOL    HW1 1658   2.902   2.417   0.347  2.1337  1.5692 -0.9757
  553SOL    HW2 1659   2.959   2.527   0.468 -0.9759  1.9417 -1.4324
  554SOL     OW 1660   2.142   0.390   0.562 -0.0603 -0.0430 -0.3200
  554SOL    HW1 1661   2.190   0.364   0.476  0.0561 -1.2406  2.4577
  554SOL    HW2 1662   2.139   0.318   0.639  0.9636 -0.2077 -1.5855
  555SOL     OW 1663   0.380   2.747   2.487  0.3000  0.3836 -0.7635
  555SOL    HW1 1664   0.332   2.837   2.476  1.8304 -0.0387 -2.0469
  555SOL    HW2 1665   0.432   2.716   2.404 -0.9704  0.8118  3.1639
  556SOL     OW 1666   0.845   2.386   1.527  0.6528 -0.1699  0.2228
  556SOL    HW1 1667   0.880   2.478   1.559 -1.4394  2.7023  1.3607
  556SOL    HW2 1668   0.902   2.351   1.449 -0.4707  0.1569  1.9320
  557SOL     OW 1669   0.138   2.095   0.238  0.6189 -0.2517  0.5526
  557SOL    HW1 1670   0.037   2.086   0.213  0.9272 -1.7580 -1.9523
  557SOL    HW2 1671   0.193   2.109   0.149 -0.2798  0.9052 -0.6812
  558SOL     OW 1672   2.801   2.275   0.360 -0.4243 -0.5241  0.5026
  558SOL    HW1 1673   2.695   2.291   0.369 -0.6387  1.1943 -1.6982
  558SOL    HW2 1674   2.831   2.176   0.352 -0.7992  0.2922  1.9765
  559SOL     OW 1675   0.378   2.274   1.404  0.2138 -0.1275 -0.0833
  559SOL    HW1 1676   0.284   2.276   1.360  2.0916  0.2484 -0.8003
  559SOL    HW2 1677   0.438   2.202   1.354  1.0225  1.4819  0.5484
  560SOL     OW 1678   2.121   1.196   3.073 -0.0182  0.2196 -0.3190
  560SOL    HW1 1679   2.141   1.168   3.172 -0.6088 -0.8252  0.9247
  560SOL    HW2 1680   2.193   1.245   3.023  0.4558 -1.8791 -0.7066
  561SOL     OW 1681   3.085   1.849   0.013  0.3166 -0.2546 -0.2587
  561SOL    HW1 1682   3.055   1.816   0.109  1.6436  1.0731 -0.1857
  561SOL    HW2 1683   3.029   1.931  -0.025 -0.4053 -1.9142  0.6360
  562SOL     OW 1684   0.953   2.222   2.333 -0.0213 -0.5466  0.1892
  562SOL    HW1 1685   0.859   2.239   2.365 -1.1340  1.7704  0.9931
  562SOL    HW2 1686   0.970   2.123   2.360 -1.2389  1.3526 -2.7328
  563SOL     OW 1687   0.688   2.583   2.626 -0.3306  0.0279  0.0464
  563SOL    HW1 1688   0.782   2.534   2.626  1.3842 -0.4592  0.4475
  563SOL    HW2 1689   0.667   2.619   2.721  0.3040 -1.9268  0.8832
  564SOL     OW 1690   2.829   1.336   2.900 -0.2730 -0.1765 -0.2831
  564SOL    HW1 1691   2.743   1.362   2.956  1.9304 -2.2043  2.6033
  564SOL    HW2 1692   2.873   1.425   2.871 -1.5163  1.8383  0.7586
  565SOL     OW 1693   2.529   2.000   2.640  0.1465  0.4990  0.1393
  565SOL    HW1 1694   2.480   2.082   2.606 -0.2906 -1.3869 -2.2416
  565SOL    HW2 1695   2.608   2.022   2.701 -1.9570 -0.8461 -1.2571
  566SOL     OW 1696   2.076   2.822   1.410  0.0619  0.1291 -0.0263
  566SOL    HW1 1697   2.033   2.731   1.426  2.6106  1.4129  2.7514
  566SOL    HW2 1698   2.041   2.867   1.320 -3.0570  0.0761  1.1073
  567SOL     OW 1699   2.428   3.052   2.404 -0.0442  0.0954  0.2451
  567SOL    HW1 1700   2.332   3.096   2.410  1.0227 -1.3128  1.2722
  567SOL    HW2 1701   2.482   3.070   2.317 -0.2281 -1.9410 -1.5751
  568SOL     OW 1702   1.538   1.739   0.207 -0.0451  0.0781 -0.0859
  568SOL    HW1 1703   1.496   1.835   0.205  0.7916 -0.3362 -0.1640
  568SOL    HW2 1704   1.640   1.748   0.188 -1.2907 -1.5872  2.0922
  569SOL     OW 1705   0.270   0.648   0.837 -0.2271  0.6952 -0.5526
  569SOL    HW1 1706   0.328   0.580   0.785  1.0973  0.5276 -0.0343
  569SOL    HW2 1707   0.177   0.600   0.866 -0.9034  0.1962  5.5643
  570SOL     OW 1708   0.645   0.857   2.936  0.3839 -0.5125 -0.1092
  570SOL    HW1 1709   0.700   0.892   2.857  2.1948  0.2926  2.2947
  570SOL    HW2 1710   0.628   0.932   3.009  0.6744 -2.1571 -0.9196
  571SOL     OW 1711   0.791   3.075   1.060 -0.2376  0.1314  0.2128
  571SOL    HW1 1712   0.858   3.094   0.986  1.2292 -0.0169 -0.3148
  571SOL    HW2 1713   0.722   3.011   1.027  0.3039  1.6565 -0.0315
  572SOL     OW 1714   1.641   2.607   1.345  0.1625  1.1032  0.3553
  572SOL    HW1 1715   1.599   2.560   1.258 -0.7053 -0.4778 -1.2137
  572SOL    HW2 1716   1.650   2.709   1.332  0.9945  1.7169 -0.1948
  573SOL     OW 1717   2.890   0.486   2.005 -0.4727 -0.5405  0.1464
  573SOL    HW1 1718   2.837   0.400   2.026  2.7386  1.5051  2.1406
  573SOL    HW2 1719   2.960   0.469   1.930  0.0695 -1.7001 -0.0902
  574SOL     OW 1720   0.145   1.783   1.093  0.2007  0.2670  0.6661
  574SOL    HW1 1721   0.209   1.859   1.099  0.5181 -0.8426  1.4883
  574SOL    HW2 1722   0.046   1.806   1.096  1.3576 -0.2300 -0.0808
  575SOL     OW 1723   0.828   2.190   0.923 -0.0421  0.0116 -0.0921
  575SOL    HW1 1724   0.802   2.238   1.010 -0.7739  1.3589  2.1592
  575SOL    HW2 1725   0.873   2.253   0.857 -0.2894  1.7844  2.3809
  576SOL     OW 1726   2.856   3.007   1.680 -0.5401  0.0593 -0.2283
  576SOL    HW1 1727   2.764   2.979   1.643  2.1099  0.6464 -1.1718
  576SOL    HW2 1728   2.902   3.091   1.641 -0.4173 -0.8990  0.4858
  577SOL     OW 1729   2.520   1.200   3.097  0.2652 -0.5036 -0.1576
  577SOL    HW1 1730   2.534   1.136   3.016  4.6252 -0.7465  0.4193
  577SOL    HW2 1731   2.594   1.201   3.171  0.1608  1.1873 -0.9149
  578SOL     OW 1732   1.465   2.697   2.451 -0.1091 -0.6811  0.5765
  578SOL    HW1 1733   1.366   2.708   2.469 -0.5661  1.5976  0.2577
  578SOL    HW2 1734   1.513   2.791   2.441  3.5074 -0.7567  0.2860
  579SOL     OW 1735   0.055   2.486   0.185 -0.3815 -0.2052  0.3771
  579SOL    HW1 1736  -0.013   2.469   0.262  2.7625 -0.6281  1.4865
  579SOL    HW2 1737   0.140   2.535   0.221  1.2357 -0.0501  0.0171
  580SOL     OW 1738   0.961   2.668   0.384  0.0233 -0.1256 -0.2648
  580SOL    HW1 1739   1.027   2.673   0.307  3.0781 -0.7309 -0.8319
  580SOL    HW2 1740   0.877   2.605   0.360 -0.5302  1.1614  0.1654
  581SOL     OW 1741   1.222   2.666   1.453 -0.1740 -0.3475  0.1145
  581SOL    HW1 1742   1.269   2.579   1.492  2.1298  0.4404 -1.5439
  581SOL    HW2 1743   1.283   2.733   1.406  1.1951 -1.9629 -0.2658
  582SOL     OW 1744   1.493   0.104   1.858 -0.6104  0.1084 -0.0736
  582SOL    HW1 1745   1.534   0.165   1.933  0.6508 -0.1630  0.6761
  582SOL    HW2 1746   1.572   0.083   1.793  1.2744  2.2050 -0.0540
  583SOL     OW 1747   2.436   3.081   0.514 -0.6344  0.4061 -0.4641
  583SOL    HW1 1748   2.511   3.031   0.459  0.7526  2.0032 -0.0241
  583SOL    HW2 1749   2.369   3.008   0.551  1.1801  2.9927 -1.3275
  584SOL     OW 1750   1.535   1.098   2.194  0.0195  0.0574  0.8728
  584SOL    HW1 1751   1.612   1.168   2.169 -1.4532  3.5675  2.0149
  584SOL    HW2 1752   1.581   1.009   2.206  0.3819  2.2147 -1.2453
  585SOL     OW 1753   2.144   2.693   2.925 -0.1677  0.2873 -0.4560
  585SOL    HW1 1754   2.164   2.595   2.904 -1.9530  0.9300  0.2110
  585SOL    HW2 1755   2.042   2.709   2.950 -1.9168  0.2302  1.0352
  586SOL     OW 1756   2.823   0.346   1.630  0.1222 -0.5306 -0.0473
  586SOL    HW1 1757   2.788   0.434   1.668 -1.5555  1.3955  0.0074
  586SOL    HW2 1758   2.741   0.291   1.612  1.3593  1.7064  0.8229
  587SOL     OW 1759   2.092   1.531   2.663 -0.0014 -0.3497  0.2681
  587SOL    HW1 1760   2.132   1.460   2.597 -0.4463 -0.0865 -1.9988
  587SOL    HW2 1761   2.100   1.515   2.768 -1.3297 -0.1527  0.4466
  588SOL     OW 1762   0.457   2.668   2.226  0.4602  0.6267 -0.2025
  588SOL    HW1 1763   0.352   2.661   2.208 -0.8840 -1.3881  1.3248
  588SOL    HW2 1764   0.492   2.581   2.258 -0.6889  1.7703 -0.3968
  589SOL     OW 1765   2.150   1.336   2.469  0.7243 -0.4140  0.0262
  589SOL    HW1 1766   2.113   1.270   2.402 -1.4418  2.3854  0.4071
  589SOL    HW2 1767   2.250   1.317   2.492  1.5548  0.2189 -1.1150
  590SOL     OW 1768   2.328   1.724   2.041 -0.2490  0.8392  0.1550
  590SOL    HW1 1769   2.397   1.642   2.037 -1.2193  1.3598 -0.2563
  590SOL    HW2 1770   2.351   1.780   2.128 -4.1211  1.5613 -1.1455
  591SOL     OW 1771   1.258   2.424   0.209  0.2377  0.2291  0.5067
  591SOL    HW1 1772   1.315   2.355   0.156 -1.8068 -2.3093  0.9549
  591SOL    HW2 1773   1.263   2.411   0.313 -3.1834 -0.3620 -1.8949
  592SOL     OW 1774   1.761   2.306   0.726  0.2223  0.4589 -0.2446
  592SOL    HW1 1775   1.726   2.341   0.633  0.8008  1.0699 -0.9074
  592SOL    HW2 1776   1.861   2.288   0.725 -0.3411 -2.2740  0.2081
  593SOL     OW 1777   0.701   0.238   0.222  0.0961  0.5155  0.0451
  593SOL    HW1 1778   0.753   0.221   0.131 -0.2140 -3.6783 -1.1153
  593SOL    HW2 1779   0.684   0.338   0.231 -1.0803  0.8860  1.1333
  594SOL     OW 1780   1.013   1.825   2.690 -0.0041 -0.0981 -0.1488
  594SOL    HW1 1781   1.075   1.745   2.661  1.4745 -0.2663  1.3672
  594SOL    HW2 1782   1.053   1.890   2.765  1.0620  1.7285  2.7010
  595SOL     OW 1783   1.549   0.042   1.063 -0.0101  0.0390 -0.8759
  595SOL    HW1 1784   1.624  -0.011   1.013 -1.3297  1.2016 -0.2762
  595SOL    HW2 1785   1.457   0.027   1.016  1.4606  0.9387 -3.5048
  596SOL     OW 1786   0.047   1.538   2.267  0.0046  0.8899 -0.2572
  596SOL    HW1 1787   0.074   1.440   2.279  0.7039 -0.9407  2.6286
  596SOL    HW2 1788   0.026   1.588   2.356  1.8318  2.8622  1.4243
  597SOL     OW 1789   1.931   2.601   1.745  0.4664  0.4078  1.1056
  597SOL    HW1 1790   1.927   2.589   1.641 -0.5464  1.1613 -0.6471
  597SOL    HW2 1791   2.027   2.587   1.789  0.0465 -0.1132  5.3381
  598SOL     OW 1792   2.544   2.917   1.216 -0.5202 -0.1313 -0.1171
  598SOL    HW1 1793   2.621   2.935   1.284  1.2895 -1.5873 -0.8414
  598SOL    HW2 1794   2.575   2.907   1.119 -0.0898 -0.4864  1.1987
  599SOL     OW 1795   2.881   0.313   2.477  0.2526 -0.2882 -0.2146
  599SOL    HW1 1796   2.978   0.351   2.459  2.7984 -2.3099  2.2385
  599SOL    HW2 1797   2.804   0.377   2.443 -0.8025 -1.5690 -4.3162
  600SOL     OW 1798   2.813   1.097   2.730  0.5614 -0.4550 -0.2497
  600SOL    HW1 1799   2.776   1.023   2.790 -0.3669  1.7071  0.4167
  600SOL    HW2 1800   2.811   1.190   2.776  1.6476 -0.2473  2.5687
  601SOL     OW 1801   3.045   1.321   2.010  0.2568  0.1848  0.0265
  601SOL    HW1 1802   2.990   1.344   1.921  3.2487  1.1277 -0.3745
  601SOL    HW2 1803   3.112   1.395   2.031  2.0374 -0.9775  1.1091
  602SOL     OW 1804   1.444   1.714   2.283  0.2739 -0.9816 -0.0639
  602SOL    HW1 1805   1.369   1.654   2.312 -2.2695 -0.1940 -0.8179
  602SOL    HW2 1806   1.507   1.742   2.358 -0.7326 -1.3555 -0.0884
  603SOL     OW 1807   0.613   1.212   2.804  0.1160  0.0737  0.3595
  603SOL    HW1 1808   0.524   1.197   2.751  1.3963 -1.8833 -0.5823
  603SOL    HW2 1809   0.674   1.133   2.783 -2.0710 -0.0308 -1.1674
  604SOL     OW 1810   2.397   0.997   0.168 -0.0978 -0.1381  0.1843
  604SOL    HW1 1811   2.443   1.080   0.124  0.4012  0.4104  1.5837
  604SOL    HW2 1812   2.422   0.902   0.121  1.7617 -0.3141 -1.3029
  605SOL     OW 1813   2.510   1.133   1.914  0.2124  0.4182 -0.3489
  605SOL    HW1 1814   2.556   1.056   1.867  0.3777 -2.5083  0.6077
  605SOL    HW2 1815   2.568   1.170   1.991 -0.2479  0.7139 -0.9841
  606SOL     OW 1816   1.556   2.485   2.579 -0.4618 -0.0296  0.4715
  606SOL    HW1 1817   1.491   2.564   2.547  0.5860  2.3618 -2.4093
  606SOL    HW2 1818   1.524   2.388   2.561 -0.6602  0.1023  2.2960
  607SOL     OW 1819   1.336   1.589   0.312  0.2533  0.4227 -0.2605
  607SOL    HW1 1820   1.278   1.650   0.375  1.1727 -2.2613 -1.0068
  607SOL    HW2 1821   1.411   1.642   0.259 -1.1241  1.2817 -1.2529
  608SOL     OW 1822   1.455   2.820   0.402  0.3863  0.3455  0.1717
  608SOL    HW1 1823   1.520   2.881   0.346  0.2659 -2.1637 -0.0936
  608SOL    HW2 1824   1.385   2.877   0.454  2.2396  0.2217 -0.9440
  609SOL     OW 1825   1.270   1.310   0.272 -0.3110 -0.3157 -0.2503
  609SOL    HW1 1826   1.289   1.399   0.329  0.4701 -0.1641  1.1599
  609SOL    HW2 1827   1.280   1.325   0.171  2.3550 -2.3505  3.6903
  610SOL     OW 1828   2.948   1.144   2.215  0.1796 -0.0725 -0.2421
  610SOL    HW1 1829   2.946   1.050   2.173  2.0641  0.6567 -0.3787
  610SOL    HW2 1830   2.948   1.224   2.147 -2.3787  0.9531  0.4986
  611SOL     OW 1831   2.512   0.294   1.171  0.0840 -0.2381  0.1222
  611SOL    HW1 1832   2.469   0.208   1.132  0.7146 -0.0616 -1.5090
  611SOL    HW2 1833   2.612   0.287   1.205 -0.8055 -1.1333  1.6146
  612SOL     OW 1834   0.753   2.254   1.190  0.3344 -0.1517  0.2016
  612SOL    HW1 1835   0.703   2.178   1.232 -0.9674  2.9710  1.3164
  612SOL    HW2 1836   0.696   2.343   1.196 -2.5826  1.7708  0.7218
  613SOL     OW 1837   0.795   1.367   2.392 -0.3082  0.0401 -0.0058
  613SOL    HW1 1838   0.794   1.431   2.311  0.8041 -1.9702 -0.3248
  613SOL    HW2 1839   0.828   1.272   2.364  0.6188  0.9377 -1.0805
  614SOL     OW 1840   1.565   1.706   1.969  0.1765  0.6206 -0.6536
  614SOL    HW1 1841   1.508   1.786   1.929  1.7522  1.0565  1.2052
  614SOL    HW2 1842   1.653   1.744   2.009  0.3591 -0.0550  1.3823
  615SOL     OW 1843   0.781   1.355   1.741 -0.0508 -0.1030 -0.4286
  615SOL    HW1 1844   0.720   1.297   1.680 -1.8548  0.7087  0.8481
  615SOL    HW2 1845   0.827   1.428   1.689 -3.3339 -1.3857  3.2792
  616SOL     OW 1846   1.075   1.624   2.167 -0.2015 -0.4347  0.5337
  616SOL    HW1 1847   0.972   1.606   2.167  0.7470 -2.4045  0.4725
  616SOL    HW2 1848   1.110   1.633   2.067  2.9956  0.3050 -1.0365
  617SOL     OW 1849   2.961   1.567   1.542  0.0435 -0.6461 -0.0957
  617SOL    HW1 1850   2.944   1.505   1.624 -1.0012 -1.7872  1.7294
  617SOL    HW2 1851   2.989   1.517   1.451  0.9081 -0.6667 -1.2967
  618SOL     OW 1852   1.918   2.040   1.417  0.0099 -0.5218 -0.4133
  618SOL    HW1 1853   1.994   2.025   1.349 -0.5647  0.2134  1.8794
  618SOL    HW2 1854   1.868   1.950   1.435  1.1955 -0.1442 -1.1088
  619SOL     OW 1855   1.755   0.501   2.400  0.6560 -0.0015 -0.2169
  619SOL    HW1 1856   1.674   0.550   2.351 -0.1140 -1.9578  1.1292
  619SOL    HW2 1857   1.742   0.402   2.429  0.2648  0.6131  0.2524
  620SOL     OW 1858   2.194   2.976   0.611 -0.3580 -0.5019 -0.3326
  620SOL    HW1 1859   2.136   3.056   0.642 -1.5097  1.1346  3.1044
  620SOL    HW2 1860   2.215   2.908   0.686  0.3973  0.4755 -1.7210
  621SOL     OW 1861   2.126   1.855   1.302 -0.3334 -0.4520 -0.3318
  621SOL    HW1 1862   2.161   1.844   1.401 -0.0643  0.6305  1.4998
  621SOL    HW2 1863   2.102   1.760   1.258 -1.0341  2.4102 -0.8293
  622SOL     OW 1864   2.197   0.864   1.792 -0.8968 -0.2546  0.1211
  622SOL    HW1 1865   2.289   0.862   1.746 -0.9089  1.2579 -1.8861
  622SOL    HW2 1866   2.174   0.774   1.836 -2.1324 -0.6280  0.5717
  623SOL     OW 1867   1.379   0.794   2.632  0.2987 -0.4726  0.0776
  623SOL    HW1 1868   1.328   0.743   2.703 -1.1782 -1.4141  0.0761
  623SOL    HW2 1869   1.312   0.828   2.562 -0.8115  0.0953  1.3957
  624SOL     OW 1870   0.535   0.647   0.013 -0.5923  0.4170  0.2201
  624SOL    HW1 1871   0.563   0.693  -0.081 -1.0587  0.1723 -2.0218
  624SOL    HW2 1872   0.536   0.714   0.095 -0.0486  0.3452  2.6035
  625SOL     OW 1873   2.815   1.748   0.952  0.0349 -0.1173  0.2829
  625SOL    HW1 1874   2.712   1.763   0.972  0.3277  2.0126  0.2176
  625SOL    HW2 1875   2.853   1.669   1.008 -2.0780 -2.6406 -2.4904
  626SOL     OW 1876   0.580   2.676   1.852 -0.1419  0.2380 -0.1966
  626SOL    HW1 1877   0.601   2.765   1.903 -0.7705  1.6630 -0.3710
  626SOL    HW2 1878   0.477   2.661   1.834 -0.8448 -0.4818 -2.1255
  627SOL     OW 1879   0.722   0.984   1.548  0.4511  0.1248 -0.0512
  627SOL    HW1 1880   0.784   0.900   1.569 -1.2798 -0.6019 -1.6507
  627SOL    HW2 1881   0.742   1.034   1.458 -0.6447  1.2010 -0.5367
  628SOL     OW 1882   2.392   0.168   0.721  0.1076 -0.1284 -0.6920
  628SOL    HW1 1883   2.416   0.116   0.633  0.4616  2.5617  0.0286
  628SOL    HW2 1884   2.293   0.160   0.748 -2.3300  2.3019 -0.6554
  629SOL     OW 1885   1.968   0.903   2.004 -0.3140  0.0215 -0.4270
  629SOL    HW1 1886   2.061   0.885   2.041 -0.9616 -3.6678  0.5074
  629SOL    HW2 1887   1.950   1.004   1.990 -0.6168  1.2174 -2.3217
  630SOL     OW 1888   2.835   2.212   0.771 -0.0520  0.2125 -0.4466
  630SOL    HW1 1889   2.745   2.270   0.790 -2.1307 -1.9820 -0.4607
  630SOL    HW2 1890   2.814   2.114   0.745  0.1875  0.2661  0.6895
  631SOL     OW 1891   2.944   0.141   2.114 -0.3801 -0.1331 -0.4506
  631SOL    HW1 1892   2.968   0.194   2.203  2.8744 -1.5282  0.7155
  631SOL    HW2 1893   3.012   0.160   2.043 -0.6601  0.5852 -1.1611
  632SOL     OW 1894   2.431   2.514   0.651 -0.0342 -0.1800 -0.5623
  632SOL    HW1 1895   2.461   2.609   0.673  3.2855 -1.2720  1.7619
  632SOL    HW2 1896   2.379   2.507   0.560  1.1255  0.7679 -1.1564
  633SOL     OW 1897   1.478   1.281   2.527  0.0074  0.0330  0.2371
  633SOL    HW1 1898   1.466   1.362   2.592  1.3599 -0.7686 -0.5394
  633SOL    HW2 1899   1.406   1.271   2.454  2.4347 -1.9758  0.3428
  634SOL     OW 1900   0.658   1.978   0.915  0.2939  0.0090  0.0074
  634SOL    HW1 1901   0.571   2.007   0.963  1.3340  0.1885 -0.6894
  634SOL    HW2 1902   0.732   2.052   0.924 -1.3674 -0.1898  0.9681
  635SOL     OW 1903   3.098   2.326   3.055  0.2662  0.2366 -0.1160
  635SOL    HW1 1904   3.049   2.348   2.970  1.8122  0.2776  0.4993
  635SOL    HW2 1905   3.107   2.408   3.116 -1.3183 -0.9158 -0.2068
  636SOL     OW 1906   2.290   2.718   2.073 -0.3656 -0.0632  0.0086
  636SOL    HW1 1907   2.293   2.820   2.084  3.0476  0.3203 -0.0279
  636SOL    HW2 1908   2.244   2.677   2.155 -1.7113  3.7005 -3.4652
  637SOL     OW 1909   2.585   0.700   2.035  0.2018 -0.3023  0.5991
  637SOL    HW1 1910   2.550   0.716   1.940  0.0776  1.0748  0.4807
  637SOL    HW2 1911   2.631   0.782   2.075 -0.4476 -2.3800 -1.1161
  638SOL     OW 1912   2.402   1.843   1.270  0.8560  0.6705 -0.1649
  638SOL    HW1 1913   2.296   1.841   1.272 -2.7803  0.6700  0.6735
  638SOL    HW2 1914   2.451   1.769   1.329  1.8059  0.1170 -0.8003
  639SOL     OW 1915   1.319   2.222   1.688 -0.1571  0.1751 -0.3862
  639SOL    HW1 1916   1.354   2.168   1.603 -1.0840 -2.2552 -1.2240
  639SOL    HW2 1917   1.219   2.197   1.709 -0.7284 -1.0499 -1.4815
  640SOL     OW 1918   0.192   1.192   1.559 -0.3837 -0.0316 -0.0083
  640SOL    HW1 1919   0.187   1.255   1.645  1.2818 -0.0980  1.9407
  640SOL    HW2 1920   0.273   1.128   1.571  0.7362  2.2199 -1.3021
  641SOL     OW 1921   2.049   0.097   1.521  0.1445 -0.1618 -0.5869
  641SOL    HW1 1922   2.028   0.138   1.615 -0.8096  1.2817 -2.2247
  641SOL    HW2 1923   2.125   0.027   1.523  0.1686 -3.4945  0.1802
  642SOL     OW 1924   1.957   0.116   0.284  0.1670 -0.0659 -0.2341
  642SOL    HW1 1925   2.049   0.139   0.336  3.5381 -0.2261 -0.3599
  642SOL    HW2 1926   1.881   0.077   0.349 -1.4256  1.1347  1.2549
  643SOL     OW 1927   2.889   1.876   2.067  0.3059  0.5711 -0.0213
  643SOL    HW1 1928   2.838   1.791   2.035 -0.9085 -0.1648 -2.2784
  643SOL    HW2 1929   2.859   1.966   2.024 -1.8494  0.9106  0.2872
  644SOL     OW 1930   2.259   2.347   1.198 -0.1751 -0.4388 -0.3238
  644SOL    HW1 1931   2.324   2.274   1.170 -2.4309  2.3908  0.8998
  644SOL    HW2 1932   2.217   2.314   1.287  0.9588 -0.1964 -0.8347
  645SOL     OW 1933   0.636   0.871   1.206  0.0521  0.1282 -0.6408
  645SOL    HW1 1934   0.534   0.886   1.203  0.2766  0.3060 -1.7347
  645SOL    HW2 1935   0.679   0.891   1.113  0.3221 -0.2982 -3.3961
  646SOL     OW 1936   1.433   1.926   1.871  0.1886 -0.4562 -0.5220
  646SOL    HW1 1937   1.519   1.989   1.863  1.2989  0.2685  0.0078
  646SOL    HW2 1938   1.364   1.957   1.944  3.0971 -1.6406 -0.1715
  647SOL     OW 1939   0.816   1.025   0.647  0.7330 -0.7617 -0.1447
  647SOL    HW1 1940   0.889   1.045   0.717 -2.5469  0.1099 -1.1509
  647SOL    HW2 1941   0.744   0.952   0.672 -1.2061  1.9855  1.5369
  648SOL     OW 1942   0.141   0.181   0.241 -0.0430  0.0191  0.2862
  648SOL    HW1 1943   0.149   0.106   0.173 -1.2444  0.9671 -0.9221
  648SOL    HW2 1944   0.125   0.273   0.194  2.2521 -0.5043  1.7513
  649SOL     OW 1945   3.057   0.228   0.898  0.1325 -0.8455  0.2605
  649SOL    HW1 1946   3.152   0.187   0.902  1.5220  1.8884 -0.8807
  649SOL    HW2 1947   3.048   0.317   0.952 -4.1279 -2.4796  1.2008
  650SOL     OW 1948   2.721   0.676   1.431 -0.1927  0.5602  0.0470
  650SOL    HW1 1949   2.619   0.687   1.454 -0.6099  0.5530 -0.7901
  650SOL    HW2 1950   2.759   0.739   1.362  2.2421  0.2495 -0.3063
  651SOL     OW 1951   0.951   1.563   1.611  0.2043  0.2198  0.1255
  651SOL    HW1 1952   0.956   1.665   1.648 -0.1705  1.1316  2.3595
  651SOL    HW2 1953   0.991   1.543   1.519 -1.0207  0.3800  1.3181
  652SOL     OW 1954   2.266   2.496   2.510  0.2932  0.2169 -0.2519
  652SOL    HW1 1955   2.196   2.496   2.590 -1.4116  1.3555  2.7679
  652SOL    HW2 1956   2.220   2.526   2.422  1.6694  1.3913 -0.3338
  653SOL     OW 1957   2.722   1.190   0.175  0.4606 -0.3526  0.4798
  653SOL    HW1 1958   2.747   1.279   0.216 -1.0354 -1.4353 -0.3272
  653SOL    HW2 1959   2.795   1.116   0.166  1.3127 -1.7801 -1.7950
  654SOL     OW 1960   1.263   2.262   1.232 -0.6805 -0.0938  0.0776
  654SOL    HW1 1961   1.293   2.205   1.310  1.1888 -0.7665 -0.8599
  654SOL    HW2 1962   1.317   2.240   1.146  0.2197 -1.2136 -1.0699
  655SOL     OW 1963   0.218   0.945   1.856  0.4629 -0.4620 -0.1012
  655SOL    HW1 1964   0.271   0.904   1.779 -1.5916 -0.0437  0.1667
  655SOL    HW2 1965   0.285   1.006   1.908  0.2475 -0.7348  1.9281
  656SOL     OW 1966   2.539   2.505   2.607 -0.0093 -0.0411 -0.9419
  656SOL    HW1 1967   2.617   2.472   2.544  2.7815 -2.6670 -3.4178
  656SOL    HW2 1968   2.471   2.559   2.554 -1.3947  0.9139  1.9597
  657SOL     OW 1969   3.061   1.045   1.913  0.0869 -0.3124 -0.3982
  657SOL    HW1 1970   3.083   1.135   1.960  2.8735  1.5871  0.7148
  657SOL    HW2 1971   3.146   1.000   1.877 -0.1345  0.8482 -1.5619
  658SOL     OW 1972   1.713   0.225   2.426 -0.5368 -0.0268 -0.3357
  658SOL    HW1 1973   1.701   0.147   2.494  1.5090 -0.6733  1.4298
  658SOL    HW2 1974   1.764   0.202   2.338 -0.4262  0.9184 -2.7694
  659SOL     OW 1975   1.456   0.644   2.940  0.1012 -0.0751 -0.5274
  659SOL    HW1 1976   1.498   0.741   2.948  0.4959  1.2608  2.1189
  659SOL    HW2 1977   1.366   0.652   2.888  0.4647  0.7784 -1.0480
  660SOL     OW 1978   1.437   0.331   1.452  0.2280  0.4424  0.0798
  660SOL    HW1 1979   1.503   0.373   1.518 -1.9939  1.1064 -0.8330
  660SOL    HW2 1980   1.467   0.231   1.423  2.6613 -1.3261 -0.8740
  661SOL     OW 1981   2.491   1.152   0.675 -0.0736 -0.3021 -0.5343
  661SOL    HW1 1982   2.519   1.160   0.576  0.9496 -0.9379  2.1496
  661SOL    HW2 1983   2.453   1.238   0.712  1.2680 -0.0294 -0.9991
  662SOL     OW 1984   1.363   0.429   1.836 -0.5238 -0.4861 -0.1524
  662SOL    HW1 1985   1.319   0.335   1.825  1.0069 -2.7580  0.4542
  662SOL    HW2 1986   1.348   0.476   1.928 -2.0106  1.2345  0.9880
  663SOL     OW 1987   0.798   1.571   2.150  0.5210  0.5382 -0.1814
  663SOL    HW1 1988   0.725   1.623   2.194  2.0203 -3.3806 -1.8653
  663SOL    HW2 1989   0.760   1.518   2.067 -0.5010  1.0283 -0.5183
  664SOL     OW 1990   1.634   2.111   1.462  0.0236 -0.2090 -0.3245
  664SOL    HW1 1991   1.587   2.032   1.510 -0.9088 -1.1678  0.6901
  664SOL    HW2 1992   1.734   2.109   1.481 -0.8370 -1.2876 -0.5209
  665SOL     OW 1993   2.238   0.667   1.953 -0.3148  0.3479  0.3103
  665SOL    HW1 1994   2.226   0.571   1.996 -1.4670  0.1146  1.8929
  665SOL    HW2 1995   2.231   0.742   2.027  0.0956 -0.2094  1.0211
  666SOL     OW 1996   0.401   2.356   0.438 -0.0013  0.2350  0.0707
  666SOL    HW1 1997   0.483   2.398   0.487  2.3251 -0.6811 -0.0816
  666SOL    HW2 1998   0.353   2.283   0.500  0.4329  1.8411  1.6037
  667SOL     OW 1999   1.999   0.206   1.134 -0.2871  0.1811 -0.3289
  667SOL    HW1 2000   1.984   0.306   1.149 -3.4488  1.6711 -2.8228
  667SOL    HW2 2001   1.937   0.154   1.197 -0.3671  3.6844  1.9285
  668SOL     OW 2002   1.998   0.458   1.174  0.1427  0.1894 -0.2323
  668SOL    HW1 2003   2.065   0.490   1.095 -0.4252  0.8113 -3.0097
  668SOL    HW2 2004   2.033   0.475   1.270 -0.7139  0.3791 -1.7847
  669SOL     OW 2005   3.018   2.269   0.994 -0.3160  0.4558 -0.2124
  669SOL    HW1 2006   2.940   2.252   0.929  0.8086 -1.0962  3.2556
  669SOL    HW2 2007   2.986   2.240   1.086 -1.3893  0.4063 -3.2847
  670SOL     OW 2008   2.869   2.349   1.968 -0.0107  0.2009  0.6394
  670SOL    HW1 2009   2.786   2.329   2.027  0.1872  1.2390 -2.4256
  670SOL    HW2 2010   2.880   2.450   1.954  1.4630  0.9217 -0.4949
  671SOL     OW 2011   1.790   1.747   1.453  0.4603  0.8029  0.1684
  671SOL    HW1 2012   1.824   1.742   1.359  1.3183 -0.9299  1.9482
  671SOL    HW2 2013   1.692   1.714   1.467 -0.6028 -0.0614 -1.7859
  672SOL     OW 2014   0.379   0.598   2.379  0.4192 -0.1137  0.2805
  672SOL    HW1 2015   0.454   0.641   2.324 -1.9858 -1.7243  0.9125
  672SOL    HW2 2016   0.307   0.666   2.400  0.7600  0.1457 -1.2937
  673SOL     OW 2017   0.150   1.174   1.126 -0.1254  0.3102 -0.1544
  673SOL    HW1 2018   0.171   1.222   1.214 -0.6314 -0.4588 -0.3653
  673SOL    HW2 2019   0.236   1.167   1.063  1.1745  0.8569  0.6893
  674SOL     OW 2020   1.594   2.928   0.202 -0.3741 -0.2119 -0.1980
  674SOL    HW1 2021   1.653   3.006   0.165  1.4037 -1.6556 -2.2479
  674SOL    HW2 2022   1.610   2.840   0.154  2.0120 -3.3790 -0.4879
  675SOL     OW 2023   1.672   0.871   2.283  0.1079 -0.1081 -0.4340
  675SOL    HW1 2024   1.754   0.815   2.266 -1.0574  0.4756 -0.4850
  675SOL    HW2 2025   1.596   0.800   2.284  2.1234 -0.6712 -2.6920
  676SOL     OW 2026   2.481   1.515   2.038 -0.0468  1.1279 -0.2360
  676SOL    HW1 2027   2.496   1.478   1.937  1.0494  1.7206  0.1190
  676SOL    HW2 2028   2.522   1.453   2.109 -0.2122 -0.8569 -0.6379
  677SOL     OW 2029   1.920   0.668   0.843 -0.4663 -0.4037  0.8810
  677SOL    HW1 2030   1.950   0.690   0.937  0.2976  1.2013 -0.5408
  677SOL    HW2 2031   1.938   0.572   0.814 -1.5598  0.8479 -1.0316
  678SOL     OW 2032   0.047   0.739   1.661  0.1057  0.2698 -0.3457
  678SOL    HW1 2033   0.154   0.743   1.657 -0.2841 -0.4204  0.4613
  678SOL    HW2 2034   0.011   0.763   1.756  0.1231  1.1390  2.2652
  679SOL     OW 2035   2.594   1.160   1.136 -0.5546  0.0958  0.2107
  679SOL    HW1 2036   2.505   1.155   1.188  0.3434 -1.9758 -0.7260
  679SOL    HW2 2037   2.610   1.079   1.071 -2.4792  0.1645  0.6306
  680SOL     OW 2038   2.803   0.636   1.704  0.6364  0.0666 -0.1434
  680SOL    HW1 2039   2.752   0.659   1.616  1.3968  1.1674 -0.2431
  680SOL    HW2 2040   2.852   0.715   1.749 -0.8793 -0.8920 -0.6641
  681SOL     OW 2041   2.990   0.123   1.607 -0.1377 -0.1904 -0.1153
  681SOL    HW1 2042   3.079   0.135   1.552  3.4261  1.1094 -2.2207
  681SOL    HW2 2043   2.930   0.209   1.624 -1.5313 -0.3188  1.1704
  682SOL     OW 2044   0.771   0.042   1.314  1.0907  0.5777  0.7239
  682SOL    HW1 2045   0.730  -0.043   1.359 -1.8781 -1.5788 -0.0308
  682SOL    HW2 2046   0.777   0.024   1.211  1.1345  2.7207 -0.7878
  683SOL     OW 2047   1.339   0.216   2.169  0.1824  0.3781 -0.1793
  683SOL    HW1 2048   1.342   0.292   2.237  1.6113 -1.8720 -0.2045
  683SOL    HW2 2049   1.413   0.221   2.096 -0.6956  1.0135 -1.8713
  684SOL     OW 2050   1.477   2.173   0.579 -0.0087  0.0414  0.1348
  684SOL    HW1 2051   1.536   2.101   0.625 -0.9415 -0.6667  1.0522
  684SOL    HW2 2052   1.405   2.128   0.523  0.8727 -0.0752 -1.1009
  685SOL     OW 2053   2.181   2.001   1.918  0.8603 -0.3350 -0.3609
  685SOL    HW1 2054   2.260   2.055   1.876  0.9775  2.1082 -1.7634
  685SOL    HW2 2055   2.202   1.914   1.965  0.1554  1.3749 -1.5661
  686SOL     OW 2056   1.512   1.776   2.762  0.1048 -0.5302 -0.2164
  686SOL    HW1 2057   1.527   1.742   2.859 -1.8615  0.2063 -1.8464
  686SOL    HW2 2058   1.555   1.722   2.686  1.2734  0.5416  2.1452
  687SOL     OW 2059   1.275   2.495   1.935  0.0653  0.0831 -0.2209
  687SOL    HW1 2060   1.314   2.401   1.957 -2.1125 -4.9066 -0.7367
  687SOL    HW2 2061   1.308   2.571   2.002  1.4953  1.2079  0.0386
  688SOL     OW 2062   2.103   1.548   1.729  0.8937  0.3586  0.5426
  688SOL    HW1 2063   2.205   1.562   1.720  1.5328  0.7343 -1.0848
  688SOL    HW2 2064   2.062   1.527   1.634  0.4182 -2.0784 -0.8152
  689SOL     OW 2065   2.483   1.087   2.718 -0.1362 -0.0138  0.1719
  689SOL    HW1 2066   2.384   1.098   2.725  2.9700  2.6317  5.0647
  689SOL    HW2 2067   2.525   1.040   2.802 -1.0188  1.9051  0.2799
  690SOL     OW 2068   2.253   2.795   0.062 -0.1091 -0.2853  0.2541
  690SOL    HW1 2069   2.198   2.754  -0.020 -1.5070 -0.8055  1.0165
  690SOL    HW2 2070   2.180   2.820   0.132  0.9267 -0.4839  0.4746
  691SOL     OW 2071   2.562   0.448   2.115  0.2967 -0.3739  0.2430
  691SOL    HW1 2072   2.627   0.380   2.067  1.5499 -2.0778  1.0216
  691SOL    HW2 2073   2.580   0.547   2.098  0.1423 -1.5475  0.8253
  692SOL     OW 2074   2.778   1.214   0.712 -0.0403 -0.1243 -0.1442
  692SOL    HW1 2075   2.677   1.191   0.715 -0.8683 -2.0895 -0.4888
  692SOL    HW2 2076   2.809   1.273   0.795 -0.1202 -0.6569 -0.7652
  693SOL     OW 2077   2.792   2.950   0.653  0.5481  0.9590  0.8157
  693SOL    HW1 2078   2.783   3.036   0.710  0.3065 -0.6132  1.3056
  693SOL    HW2 2079   2.740   2.956   0.559 -1.0653  1.0346 -0.8935
  694SOL     OW 2080   2.434   2.225   0.088  0.2073  0.2089 -0.0350
  694SOL    HW1 2081   2.382   2.308   0.127 -0.1392 -0.4602  1.1002
  694SOL    HW2 2082   2.370   2.147   0.059 -2.2582 -0.1154 -1.4758
  695SOL     OW 2083   0.627   2.971   1.476  0.6876  0.3990  0.2075
  695SOL    HW1 2084   0.581   2.887   1.440  1.5003 -0.2926  1.4106
  695SOL    HW2 2085   0.560   3.020   1.535 -0.6540  0.6994 -0.8000
  696SOL     OW 2086   2.742   1.923   0.742 -0.6922 -0.3443 -0.3682
  696SOL    HW1 2087   2.783   1.864   0.819  1.5794 -0.7453 -0.4765
  696SOL    HW2 2088   2.759   1.884   0.651 -3.2325 -2.7973  0.9351
  697SOL     OW 2089   1.666   2.073   1.856  0.3188  0.3059  0.4362
  697SOL    HW1 2090   1.739   2.002   1.874 -0.1560 -2.4373 -1.9756
  697SOL    HW2 2091   1.706   2.166   1.842 -3.0345 -2.3187 -0.1680
  698SOL     OW 2092   2.959   0.387   2.740 -0.2314 -0.6032  0.1686
  698SOL    HW1 2093   2.933   0.347   2.649  0.5578 -0.7832 -0.0602
  698SOL    HW2 2094   3.024   0.327   2.796 -2.5233  1.1522 -1.2047
  699SOL     OW 2095   1.552   0.037   2.932 -0.3515 -0.3396  0.2934
  699SOL    HW1 2096   1.519  -0.043   2.879 -1.2377 -0.8091  3.9464
  699SOL    HW2 2097   1.583   0.116   2.875 -0.9565  1.9626  0.2880
  700SOL     OW 2098   1.000   2.324   1.306 -0.3712  0.5784 -0.2597
  700SOL    HW1 2099   1.093   2.308   1.263 -1.3780  1.7047  1.2542
  700SOL    HW2 2100   0.919   2.283   1.256 -2.1197 -0.1569 -0.8357
  701SOL     OW 2101   1.926   2.834   3.066  0.1805 -0.2175  0.3701
  701SOL    HW1 2102   1.911   2.770   3.147 -0.1431  0.6796  0.0141
  701SOL    HW2 2103   1.955   2.933   3.089 -2.8462 -0.1753 -2.7256
  702SOL     OW 2104   2.084   1.331   1.910  0.1660 -0.8266  0.2848
  702SOL    HW1 2105   2.142   1.246   1.893 -1.3027  1.4148 -0.4823
  702SOL    HW2 2106   2.087   1.407   1.831  0.6528  0.8499 -1.7641
  703SOL     OW 2107   1.962   0.876   1.393 -0.3362 -0.1957  0.2265
  703SOL    HW1 2108   1.947   0.780   1.436  0.2247 -1.2140  0.3130
  703SOL    HW2 2109   2.011   0.937   1.463 -0.7352 -0.7364 -0.9390
  704SOL     OW 2110   0.326   2.054   1.671 -0.2793  0.2143 -0.1712
  704SOL    HW1 2111   0.334   1.968   1.725 -0.2716  0.3778  2.1516
  704SOL    HW2 2112   0.364   2.138   1.722  0.7975 -1.2715  1.4902
  705SOL     OW 2113   2.519   1.381   0.943  0.0781  0.2843 -0.4235
  705SOL    HW1 2114   2.445   1.347   0.875  0.6546  1.3559  1.7980
  705SOL    HW2 2115   2.582   1.311   0.983 -1.0000  0.2353  0.8842
  706SOL     OW 2116   0.669   1.734   1.838  0.1639  0.9129  0.0993
  706SOL    HW1 2117   0.693   1.644   1.882 -2.6846 -0.0950 -1.6245
  706SOL    HW2 2118   0.705   1.811   1.895  2.8893  2.2366 -1.2097
  707SOL     OW 2119   2.237   1.116   1.895 -0.4948 -0.8493 -0.0542
  707SOL    HW1 2120   2.336   1.137   1.887 -1.3890  1.1119 -0.2607
  707SOL    HW2 2121   2.212   1.020   1.858  0.5643  1.4243  1.8374
  708SOL     OW 2122   2.965   0.501   3.048 -0.0766 -0.2195 -0.2112
  708SOL    HW1 2123   2.991   0.561   2.966  0.5413  0.1297 -2.1701
  708SOL    HW2 2124   2.998   0.395   3.044  0.9200 -2.9508  0.2652
  709SOL     OW 2125   1.769   1.895   0.216 -0.2608  0.2798  0.8718
  709SOL    HW1 2126   1.830   1.969   0.254  2.2856 -0.2337 -0.6466
  709SOL    HW2 2127   1.787   1.876   0.113  1.0344 -0.4142  1.3435
  710SOL     OW 2128   1.676   1.622   2.425  0.2031 -0.4889 -0.1382
  710SOL    HW1 2129   1.709   1.603   2.329 -2.0864  2.2757  1.1755
  710SOL    HW2 2130   1.724   1.562   2.500  0.3716  0.9551 -1.8941
  711SOL     OW 2131   2.619   2.967   0.957  0.0019 -0.5196  0.3315
  711SOL    HW1 2132   2.579   3.059   0.929 -1.0202 -0.6091 -1.0697
  711SOL    HW2 2133   2.721   2.980   0.981  0.2616 -1.8125  1.2713
  712SOL     OW 2134   1.386   2.259   1.953  0.4226  0.5316 -0.6668
  712SOL    HW1 2135   1.483   2.237   1.986 -0.8856  0.1218 -0.0322
  712SOL    HW2 2136   1.364   2.224   1.858  4.5999  1.3080 -0.6380
  713SOL     OW 2137   2.884   1.487   2.557 -0.8061  0.9570 -0.3049
  713SOL    HW1 2138   2.861   1.399   2.503  1.1658 -0.5946  1.0454
  713SOL    HW2 2139   2.831   1.505   2.646 -1.4208 -1.6769  1.0170
  714SOL     OW 2140   2.664   0.477   2.357 -0.0943  0.0936 -0.4257
  714SOL    HW1 2141   2.588   0.432   2.408  2.2077 -1.1244 -2.6740
  714SOL    HW2 2142   2.647   0.463   2.256  1.6088 -0.8900  1.1324
  715SOL     OW 2143   1.600   2.036   1.205 -0.2851 -0.1024 -0.5133
  715SOL    HW1 2144   1.519   2.097   1.179  0.5635 -0.2603  2.1101
  715SOL    HW2 2145   1.634   2.066   1.296 -0.4728  0.8800 -3.3020
  716SOL     OW 2146   1.196   0.184   1.506  0.2155  0.1702  0.2835
  716SOL    HW1 2147   1.101   0.216   1.486  0.3696  1.7909  0.1490
  716SOL    HW2 2148   1.268   0.246   1.465 -0.4549  0.5932 -0.0462
  717SOL     OW 2149   1.129   0.601   1.624  0.0290  0.1786  0.2973
  717SOL    HW1 2150   1.231   0.628   1.649 -0.0231  1.8278  3.9104
  717SOL    HW2 2151   1.126   0.564   1.526 -2.1209 -0.0369  0.9865
  718SOL     OW 2152   0.745   0.942   0.960 -0.6356  0.6495  0.0522
  718SOL    HW1 2153   0.711   0.894   0.874 -1.9950 -2.6974  0.6992
  718SOL    HW2 2154   0.712   1.041   0.971  0.1916  3.6961  1.4920
  719SOL     OW 2155   0.678   1.815   2.284  0.3247 -0.0828 -0.0010
  719SOL    HW1 2156   0.761   1.830   2.346  2.5086  1.9900  1.3656
  719SOL    HW2 2157   0.587   1.845   2.328 -0.6039  0.1688  3.3470
  720SOL     OW 2158   2.169   1.159   0.234  0.1811 -0.1043 -0.1869
  720SOL    HW1 2159   2.238   1.086   0.198  1.2388  0.7741  0.2564
  720SOL    HW2 2160   2.161   1.149   0.338  0.2485  0.6427  0.2369
  721SOL     OW 2161   2.293   2.989   2.086  0.0453 -0.1122  0.0865
  721SOL    HW1 2162   2.282   3.021   1.987 -1.8583  4.3959  0.0578
  721SOL    HW2 2163   2.202   2.999   2.131  3.1186  0.4448  2.5171
  722SOL     OW 2164   2.377   1.608   0.595  0.0038 -0.2985  0.2049
  722SOL    HW1 2165   2.406   1.579   0.502  1.3714  1.1135 -1.6465
  722SOL    HW2 2166   2.314   1.691   0.591  0.9565  1.5739  0.5458
  723SOL     OW 2167   2.536   2.673   2.018 -0.1739  0.0278  0.0341
  723SOL    HW1 2168   2.580   2.746   2.076 -1.1363  0.6194 -0.8103
  723SOL    HW2 2169   2.431   2.684   2.013  0.5957  0.5749 -0.0066
  724SOL     OW 2170   0.539   2.466   2.423 -0.0106  0.3061  0.2170
  724SOL    HW1 2171   0.444   2.461   2.458 -1.1212 -2.3719  0.0813
  724SOL    HW2 2172   0.603   2.488   2.497 -1.8620  0.7303 -0.1185
  725SOL     OW 2173   2.431   2.777   1.524 -0.0654  0.0253  0.4061
  725SOL    HW1 2174   2.459   2.778   1.421  2.3457 -0.8305 -2.1793
  725SOL    HW2 2175   2.362   2.702   1.544 -1.7231  0.4432 -0.0225
  726SOL     OW 2176   2.382   2.222   0.686 -0.1617  0.1298  0.3544
  726SOL    HW1 2177   2.352   2.318   0.679  0.2620 -0.7090 -1.0920
  726SOL    HW2 2178   2.391   2.177   0.587  0.1031 -0.7288  0.1253
  727SOL     OW 2179   0.159   3.078   0.052 -0.0306  0.0596  0.0106
  727SOL    HW1 2180   0.228   2.999   0.057  0.4718  1.1074 -1.0509
  727SOL    HW2 2181   0.078   3.060  -0.006  3.4393 -0.0936 -1.4030
  728SOL     OW 2182   2.875   0.668   0.976 -0.3640 -0.3244 -0.2788
  728SOL    HW1 2183   2.796   0.658   0.908  0.1192 -1.8313 -3.4742
  728SOL    HW2 2184   2.860   0.630   1.071  1.0622 -0.9805  1.2283
  729SOL     OW 2185   2.963   2.496   0.748  0.0686 -0.6466  0.0611
  729SOL    HW1 2186   2.929   2.401   0.785 -1.2228 -3.7041  0.0806
  729SOL    HW2 2187   3.064   2.503   0.731  2.7094 -1.4087 -0.4209
  730SOL     OW 2188   2.611   0.624   0.860  0.0500 -0.1014  0.0158
  730SOL    HW1 2189   2.536   0.679   0.812  3.0502 -2.6223  1.6354
  730SOL    HW2 2190   2.683   0.591   0.796 -2.9819  1.0519  1.1601
  731SOL     OW 2191   0.131   2.148   2.437 -0.2037 -0.1435 -0.3081
  731SOL    HW1 2192   0.129   2.207   2.522 -0.3928 -0.8093 -1.1889
  731SOL    HW2 2193   0.111   2.202   2.357 -1.0973 -0.9100  3.0800
  732SOL     OW 2194   1.091   2.878   1.921 -0.2747  0.5439 -0.3389
  732SOL    HW1 2195   1.121   2.829   2.006  1.3761 -0.8634 -1.4111
  732SOL    HW2 2196   1.116   2.814   1.841  1.1185  1.0889 -1.4268
  733SOL     OW 2197   3.053   0.608   2.211  0.0612  0.8234 -0.3302
  733SOL    HW1 2198   3.142   0.638   2.178  3.4592 -0.5321  0.2160
  733SOL    HW2 2199   2.990   0.584   2.133  0.1463  2.6772  1.0439
  734SOL     OW 2200   1.418   0.389   2.752  0.2212  0.2773  0.2552
  734SOL    HW1 2201   1.439   0.472   2.811 -0.6829  0.3695 -1.8458
  734SOL    HW2 2202   1.320   0.356   2.768 -2.1157 -0.7224 -1.0910
  735SOL     OW 2203   2.918   2.606   2.234  0.3480 -0.1195  0.1630
  735SOL    HW1 2204   2.877   2.598   2.139  1.4082 -0.1308 -0.4973
  735SOL    HW2 2205   3.009   2.560   2.245  1.5802 -3.3559 -0.7282
  736SOL     OW 2206   0.735   0.325   2.664 -0.7053  0.1618  0.0450
  736SOL    HW1 2207   0.633   0.328   2.671 -0.0790  0.8718 -0.1489
  736SOL    HW2 2208   0.773   0.304   2.568 -0.3609  0.6367  5.5378
  737SOL     OW 2209   2.658   0.379   2.864 -0.2448  0.4422  0.1784
  737SOL    HW1 2210   2.629   0.367   2.963 -0.5556 -0.8838  0.0292
  737SOL    HW2 2211   2.760   0.378   2.858  0.2343 -2.5639 -1.9620
  738SOL     OW 2212   1.615   1.235   2.914 -0.1039 -0.2419 -0.3313
  738SOL    HW1 2213   1.711   1.193   2.921 -2.7574  1.8851  1.3577
  738SOL    HW2 2214   1.553   1.180   2.852 -0.1226  0.5902  1.2689
  739SOL     OW 2215   1.711   0.592   0.663 -0.2377  0.4683 -0.6562
  739SOL    HW1 2216   1.761   0.619   0.750 -2.4999 -2.0292  0.1590
  739SOL    HW2 2217   1.759   0.515   0.612  1.1604  0.4406 -1.9983
  740SOL     OW 2218   1.962   1.924   2.311 -0.8577  0.0326  0.2735
  740SOL    HW1 2219   2.013   1.853   2.373 -1.4273 -2.7928  1.1707
  740SOL    HW2 2220   1.891   1.881   2.253  0.0299 -1.1865 -0.5183
  741SOL     OW 2221   2.527   0.063   2.616 -0.1891  0.2037 -0.0900
  741SOL    HW1 2222   2.631   0.066   2.609 -1.2946  0.8888 -2.7204
  741SOL    HW2 2223   2.491   0.007   2.533 -0.8459 -0.2539 -2.5636
  742SOL     OW 2224   2.216   1.444   0.191  0.1222 -0.6420 -0.2609
  742SOL    HW1 2225   2.152   1.527   0.192  0.3286 -2.2905  1.4245
  742SOL    HW2 2226   2.164   1.361   0.224  0.4586 -0.1986 -0.9044
  743SOL     OW 2227   1.851   0.658   2.611  0.0228  0.1406 -0.4235
  743SOL    HW1 2228   1.824   0.592   2.538 -0.5848  1.3104 -1.1502
  743SOL    HW2 2229   1.784   0.739   2.625 -0.9326 -1.0186 -0.0942
  744SOL     OW 2230   2.685   2.103   0.072  0.5007  0.3478  0.1966
  744SOL    HW1 2231   2.595   2.149   0.102 -0.8554 -0.7220 -2.1619
  744SOL    HW2 2232   2.651   2.022   0.019 -1.8498  3.8621  3.2283
  745SOL     OW 2233   2.167   2.650   2.298 -0.0469  0.2048 -0.7087
  745SOL    HW1 2234   2.080   2.654   2.240 -0.6699  1.2044 -2.4063
  745SOL    HW2 2235   2.165   2.721   2.376  3.5758  2.2469  1.7807
  746SOL     OW 2236   3.071   2.628   1.726  0.2901  0.1790  0.1299
  746SOL    HW1 2237   3.143   2.660   1.660 -1.4511  0.4878 -0.4138
  746SOL    HW2 2238   3.034   2.703   1.788  0.0682 -1.8298  1.2631
  747SOL     OW 2239   0.002   1.786   1.629  0.2473 -0.4032 -0.0767
  747SOL    HW1 2240  -0.038   1.695   1.606  1.9338  0.8807 -2.1089
  747SOL    HW2 2241   0.050   1.833   1.545  0.3431  3.4686  0.2550
  748SOL     OW 2242   1.864   2.742   2.819  0.0499  0.5569  1.1073
  748SOL    HW1 2243   1.903   2.789   2.904 -0.1522 -0.2524  0.7743
  748SOL    HW2 2244   1.763   2.712   2.812  0.9979 -1.0915  1.4529
  749SOL     OW 2245   1.310   3.075   0.886  0.1311  0.4489 -0.7723
  749SOL    HW1 2246   1.267   2.997   0.935  0.3210 -0.4950 -0.1701
  749SOL    HW2 2247   1.265   3.098   0.793 -3.5617 -2.7832 -0.0165
  750SOL     OW 2248   2.413   0.245   1.895  0.1055  0.1134 -0.2212
  750SOL    HW1 2249   2.414   0.310   1.813 -1.3188 -1.0616 -0.2712
  750SOL    HW2 2250   2.344   0.276   1.969 -3.1267 -0.4261 -0.3447
  751SOL     OW 2251   0.944   2.178   2.710  0.0194 -0.5600  0.5994
  751SOL    HW1 2252   0.967   2.192   2.810 -2.2052  1.2035  0.3305
  751SOL    HW2 2253   0.848   2.141   2.697 -0.9484 -0.4908 -1.0546
  752SOL     OW 2254   1.248   0.879   1.468 -0.7837 -0.1199  0.5735
  752SOL    HW1 2255   1.318   0.932   1.416  1.3270 -0.1437  2.3629
  752SOL    HW2 2256   1.271   0.782   1.498  1.4832 -0.7442  2.1898
  753SOL     OW 2257   0.955   2.579   1.703 -0.0004  0.1115 -0.4847
  753SOL    HW1 2258   1.046   2.632   1.711 -1.2004 -2.5369  0.6166
  753SOL    HW2 2259   0.878   2.644   1.681 -0.6685 -2.1397 -1.2469
  754SOL     OW 2260   1.202   1.320   0.007  0.4369  0.1464 -0.1763
  754SOL    HW1 2261   1.227   1.262  -0.074 -1.5112  1.8908 -1.3475
  754SOL    HW2 2262   1.195   1.420  -0.023  1.3370 -1.8474 -0.0505
  755SOL     OW 2263   1.966   0.428   2.194 -0.5521 -0.2208  0.2444
  755SOL    HW1 2264   2.038   0.379   2.253 -0.9506  1.5770  1.3286
  755SOL    HW2 2265   1.899   0.471   2.258  1.3298 -0.4195  2.2545
  756SOL     OW 2266   2.580   0.975   2.937  0.6522 -0.2406 -0.0717
  756SOL    HW1 2267   2.674   0.992   2.974  3.7995  0.9600 -1.8250
  756SOL    HW2 2268   2.516   0.918   2.998  1.3727  3.1737  3.0497
  757SOL     OW 2269   3.076   0.435   1.804 -0.4691  0.2827 -0.3701
  757SOL    HW1 2270   3.176   0.460   1.803 -3.2579  3.4940  1.4761
  757SOL    HW2 2271   3.044   0.392   1.713  0.5192  0.3431 -0.1803
  758SOL     OW 2272   2.390   0.110   1.409 -0.0228  0.1132  0.0053
  758SOL    HW1 2273   2.321   0.051   1.458  2.0908  1.5531  1.6534
  758SOL    HW2 2274   2.373   0.109   1.305  1.4737  0.1803  4.0238
  759SOL     OW 2275   1.715   0.042   0.071  0.0203 -0.1470 -0.4422
  759SOL    HW1 2276   1.657   0.045  -0.018 -1.9542 -3.5140 -0.1200
  759SOL    HW2 2277   1.813   0.019   0.049 -1.3477  1.2102 -2.4344
  760SOL     OW 2278   2.748   2.073   2.820  0.0972 -0.0509  0.3497
  760SOL    HW1 2279   2.767   1.997   2.886  1.8087  2.3072 -1.0317
  760SOL    HW2 2280   2.729   2.161   2.866  1.2239 -1.4650  1.4399
  761SOL     OW 2281   1.915   1.771   1.701  0.4309 -0.2185 -0.6092
  761SOL    HW1 2282   1.973   1.686   1.719  0.8685 -3.3813  0.0599
  761SOL    HW2 2283   1.868   1.769   1.611  0.3203 -0.2409 -0.9486
  762SOL     OW 2284   0.458   2.308   0.986 -0.1134  0.1780 -0.2772
  762SOL    HW1 2285   0.501   2.341   0.897  1.1601  1.1906  0.8508
  762SOL    HW2 2286   0.476   2.371   1.067  3.3795  2.5632 -0.2462
  763SOL     OW 2287   2.091   1.515   2.938  0.3292  0.1599  0.5897
  763SOL    HW1 2288   2.182   1.462   2.954  1.9737  0.4834 -1.3471
  763SOL    HW2 2289   2.024   1.498   3.019 -0.2475  0.5827  0.9704
  764SOL     OW 2290   0.640   0.612   0.821  0.2447 -0.5738  0.1054
  764SOL    HW1 2291   0.601   0.528   0.778  1.9932 -1.2701  1.1519
  764SOL    HW2 2292   0.738   0.597   0.859 -0.1113 -1.8025  0.4347
  765SOL     OW 2293   0.726   0.236   0.810  0.0685  0.0901  0.3568
  765SOL    HW1 2294   0.777   0.289   0.740 -1.0434 -1.8408 -0.0937
  765SOL    HW2 2295   0.690   0.293   0.890 -0.1441 -1.4091  1.7931
  766SOL     OW 2296   2.953   2.096   3.082  0.6162  0.1813 -0.1331
  766SOL    HW1 2297   2.857   2.104   3.121 -1.2392 -1.7070  0.7197
  766SOL    HW2 2298   3.011   2.184   3.087 -1.1351  0.2434  0.4061
  767SOL     OW 2299   2.845   1.558   0.539  0.1331 -0.2485 -0.0303
  767SOL    HW1 2300   2.787   1.546   0.626  2.7502  2.5032  1.9042
  767SOL    HW2 2301   2.930   1.608   0.555  0.0695  3.6934 -2.2327
  768SOL     OW 2302   1.102   0.197   0.336 -0.3600  0.4604 -0.1709
  768SOL    HW1 2303   1.053   0.142   0.412  1.3048 -0.5354  0.9927
  768SOL    HW2 2304   1.187   0.153   0.302 -3.6588  1.5214  0.3319
  769SOL     OW 2305   1.093   1.886   2.229  0.7598  0.5055  0.0970
  769SOL    HW1 2306   0.995   1.921   2.245  0.6036 -0.2448  2.3466
  769SOL    HW2 2307   1.110   1.778   2.211  2.5233 -1.4285  0.2403
  770SOL     OW 2308   0.146   1.224   2.223 -0.3802  0.7225 -0.0003
  770SOL    HW1 2309   0.145   1.222   2.327  1.5251  0.0915 -1.0752
  770SOL    HW2 2310   0.053   1.199   2.183 -3.5140 -0.0691 -0.4542
  771SOL     OW 2311   2.938   2.842   1.882 -0.2290 -0.4581  0.1848
  771SOL    HW1 2312   2.917   2.905   1.798  0.8390  2.5119 -2.0714
  771SOL    HW2 2313   2.931   2.899   1.969 -0.1968 -1.9198  0.7525
  772SOL     OW 2314   2.180   0.108   2.965  0.1345 -0.1235  0.2531
  772SOL    HW1 2315   2.262   0.060   2.922  0.5185 -2.4140  1.1565
  772SOL    HW2 2316   2.199   0.203   3.007 -1.0295 -3.1620  0.0917
  773SOL     OW 2317   0.724   2.187   2.507  0.2640 -0.6833 -0.1103
  773SOL    HW1 2318   0.679   2.234   2.426  1.8086  0.2156  2.4869
  773SOL    HW2 2319   0.653   2.152   2.575  1.5023  0.3074  0.6644
  774SOL     OW 2320   2.025   0.047   2.659  0.1270 -0.5812  0.4022
  774SOL    HW1 2321   2.054   0.145   2.689 -0.1033  3.4533  1.2756
  774SOL    HW2 2322   2.052  -0.028   2.721 -2.7859 -0.5809 -0.3632
  775SOL     OW 2323   2.534   2.803   2.460  0.0803 -0.0469  0.4990
  775SOL    HW1 2324   2.497   2.897   2.428 -0.4829 -1.4367  0.2712
  775SOL    HW2 2325   2.632   2.806   2.498  0.0539 -1.8477  0.2010
  776SOL     OW 2326   0.059   1.259   0.219  0.2970  0.0341  0.0566
  776SOL    HW1 2327   0.001   1.234   0.138 -0.2446 -0.1503  1.2793
  776SOL    HW2 2328   0.003   1.260   0.303 -2.1809 -1.3344 -0.0458
  777SOL     OW 2329   0.247   2.834   0.474 -0.0578 -0.4021  0.0245
  777SOL    HW1 2330   0.148   2.848   0.506  1.7407 -1.7940  1.8822
  777SOL    HW2 2331   0.313   2.911   0.504 -0.1648  1.3254  0.3736
  778SOL     OW 2332   1.357   1.951   0.163  0.2453  0.1458 -0.6174
  778SOL    HW1 2333   1.282   1.924   0.229 -0.6177 -0.7688  1.4007
  778SOL    HW2 2334   1.349   2.048   0.134  2.4114  0.0423  1.5008
  779SOL     OW 2335   0.186   0.839   0.497 -0.1784 -0.5684 -0.0295
  779SOL    HW1 2336   0.146   0.745   0.484 -0.9129  1.1064  0.7926
  779SOL    HW2 2337   0.133   0.892   0.572 -1.1529 -0.4738 -0.3803
  780SOL     OW 2338   0.052   0.246   2.239 -0.6389 -0.0439  0.2392
  780SOL    HW1 2339   0.052   0.348   2.232 -1.6682  1.4582  2.3998
  780SOL    HW2 2340   0.142   0.210   2.198  1.6996  1.1642 -0.6901
  781SOL     OW 2341   0.651   1.735   1.563  0.3340 -0.1419  0.3744
  781SOL    HW1 2342   0.676   1.725   1.664  1.5569  1.1732 -1.7170
  781SOL    HW2 2343   0.557   1.708   1.530  0.0870 -1.9686 -1.3781
  782SOL     OW 2344   2.581   0.129   0.913 -0.0978  0.4818  0.1572
  782SOL    HW1 2345   2.502   0.144   0.844 -0.4631 -2.1907  0.2682
  782SOL    HW2 2346   2.567   0.180   0.998 -3.6272 -1.5133 -2.1399
  783SOL     OW 2347   2.828   0.670   2.517 -0.3979 -0.5324 -0.2043
  783SOL    HW1 2348   2.783   0.681   2.607 -2.7036 -1.1825 -0.1545
  783SOL    HW2 2349   2.760   0.631   2.453  0.5614  0.7322  0.7589
  784SOL     OW 2350   1.388   2.211   0.054 -0.0858 -0.0353 -0.3158
  784SOL    HW1 2351   1.484   2.235   0.084 -2.2020  1.0049 -1.5584
  784SOL    HW2 2352   1.376   2.211  -0.051 -1.3968  0.0543  0.7252
  785SOL     OW 2353   2.180   0.357   3.059 -0.0921  0.0134  0.3368
  785SOL    HW1 2354   2.094   0.337   3.122 -1.3084 -1.6829  2.4140
  785SOL    HW2 2355   2.194   0.457   3.039  1.7895  0.9064 -0.3534
  786SOL     OW 2356   2.039   2.183   2.201  0.7577 -0.3265 -0.1090
  786SOL    HW1 2357   2.015   2.095   2.247  2.4389  1.5972  1.4876
  786SOL    HW2 2358   2.120   2.170   2.136 -3.5660 -0.8573 -0.7831
  787SOL     OW 2359   1.416   0.619   0.897  0.2367 -0.0872 -0.6014
  787SOL    HW1 2360   1.340   0.688   0.920  1.3052 -0.3583 -0.2002
  787SOL    HW2 2361   1.425   0.600   0.792 -0.9463  0.4623 -1.7047
  788SOL     OW 2362   1.225   0.432   3.045 -0.2150  0.2302 -0.1500
  788SOL    HW1 2363   1.128   0.441   3.006  2.2484 -1.3708 -1.9566
  788SOL    HW2 2364   1.278   0.512   3.073  0.5921 -2.2838 -2.3517
  789SOL     OW 2365   2.594   0.060   1.804 -0.1705  0.7401  0.4631
  789SOL    HW1 2366   2.525   0.113   1.866 -0.0825 -1.0877  2.5768
  789SOL    HW2 2367   2.571  -0.037   1.803 -0.7004 -1.2347 -1.2114
  790SOL     OW 2368   2.582   2.709   0.871 -0.0763 -0.2583  0.3048
  790SOL    HW1 2369   2.582   2.813   0.889 -0.4471 -1.4979 -0.9820
  790SOL    HW2 2370   2.676   2.681   0.856 -4.0460  0.9223 -0.8390
  791SOL     OW 2371   1.909   1.273   0.251  0.0489  0.0310 -0.1912
  791SOL    HW1 2372   1.832   1.223   0.297  0.7393 -0.2977  0.0100
  791SOL    HW2 2373   1.986   1.210   0.227 -2.4837 -0.7111  1.1332
  792SOL     OW 2374   0.461   2.005   2.142 -0.1677 -0.0367  0.2634
  792SOL    HW1 2375   0.505   2.092   2.180 -0.9178  3.7776 -2.8024
  792SOL    HW2 2376   0.398   1.967   2.211  0.5963 -1.1408 -0.2717
  793SOL     OW 2377   2.095   1.562   2.084 -0.1237  0.3347  0.7784
  793SOL    HW1 2378   2.165   1.637   2.056  1.6453 -0.6661 -1.4844
  793SOL    HW2 2379   2.112   1.473   2.043 -0.8991 -0.7430  2.6009
  794SOL     OW 2380   0.470   1.385   2.485 -0.3721  0.2425  0.3031
  794SOL    HW1 2381   0.491   1.320   2.407  0.2442  0.9892 -1.5921
  794SOL    HW2 2382   0.424   1.473   2.456 -0.4032  2.4459 -0.2312
  795SOL     OW 2383   2.476   2.367   1.774  0.3020  0.0869  0.2758
  795SOL    HW1 2384   2.500   2.382   1.873  0.6941 -0.7979  1.0948
  795SOL    HW2 2385   2.394   2.297   1.761 -3.7618  1.8138  1.0979
  796SOL     OW 2386   3.078   1.088   2.707 -0.5149 -0.0026 -0.1187
  796SOL    HW1 2387   2.974   1.077   2.709 -0.5693 -2.8793  1.0898
  796SOL    HW2 2388   3.131   1.102   2.794 -1.0262  0.2224 -1.2813
  797SOL     OW 2389   0.734   0.639   1.332  0.6876  0.5400 -0.0744
  797SOL    HW1 2390   0.798   0.689   1.395 -0.4878  0.0201 -0.9288
  797SOL    HW2 2391   0.673   0.712   1.291 -0.2594  0.3511  0.2297
  798SOL     OW 2392   1.340   0.429   1.095  0.0798  0.2777 -0.2058
  798SOL    HW1 2393   1.360   0.473   1.191  1.2992  1.9317  1.5506
  798SOL    HW2 2394   1.357   0.488   1.013  0.2525 -1.6118  0.9453
  799SOL     OW 2395   1.941   2.637   1.049  0.0566  0.6525 -0.0516
  799SOL    HW1 2396   1.863   2.575   1.087  0.8628  2.4830 -0.8048
  799SOL    HW2 2397   1.971   2.616   0.952  1.0831  3.2185  0.3599
  800SOL     OW 2398   2.908   0.841   1.838  0.0796 -0.1748  0.1636
  800SOL    HW1 2399   2.970   0.914   1.878  0.2369  1.4135 -2.2179
  800SOL    HW2 2400   2.847   0.797   1.910 -1.8176  1.0256 -1.5911
  801SOL     OW 2401   1.990   2.180   0.039 -0.0594 -0.5262  0.2350
  801SOL    HW1 2402   1.917   2.137  -0.021 -3.2085  0.4896 -0.9863
  801SOL    HW2 2403   2.083   2.156   0.007 -2.4363  2.0577  0.6345
  802SOL     OW 2404   0.666   0.799   2.545  0.5871 -0.8903 -0.3702
  802SOL    HW1 2405   0.707   0.722   2.496  1.0578  0.5869 -2.5798
  802SOL    HW2 2406   0.570   0.825   2.515 -0.3267 -0.0635  0.5276
  803SOL     OW 2407   0.960   0.080   0.892 -0.8010 -0.1800  0.5455
  803SOL    HW1 2408   1.053   0.125   0.907 -0.1037 -1.1172 -1.6507
  803SOL    HW2 2409   0.896   0.149   0.845 -0.0082  3.1911  0.6990
  804SOL     OW 2410   0.310   3.059   2.200 -0.0855 -0.2238 -0.2177
  804SOL    HW1 2411   0.320   3.157   2.172 -0.0815 -1.9706 -0.6828
  804SOL    HW2 2412   0.248   3.009   2.134 -1.3782 -0.6003  2.6159
  805SOL     OW 2413   2.340   0.406   0.324 -0.5451  0.2519 -0.8225
  805SOL    HW1 2414   2.422   0.408   0.394  2.4152 -2.0364  2.0691
  805SOL    HW2 2415   2.341   0.322   0.265 -1.8085 -0.0874 -2.1411
  806SOL     OW 2416   0.709   2.436   1.815 -0.5308  0.0306  0.3226
  806SOL    HW1 2417   0.680   2.533   1.836 -2.6822 -0.1786 -1.6130
  806SOL    HW2 2418   0.771   2.425   1.735  1.3028 -1.8925  1.4415
  807SOL     OW 2419   2.515   0.877   0.451  0.6571  0.0452 -0.0529
  807SOL    HW1 2420   2.612   0.896   0.481 -1.0726 -0.8151  2.0395
  807SOL    HW2 2421   2.511   0.884   0.346 -1.5070  1.9791  1.8937
  808SOL     OW 2422   0.666   2.076   2.943  0.2854 -0.7155 -0.2839
  808SOL    HW1 2423   0.604   2.108   3.025 -0.4886  1.8361  2.3561
  808SOL    HW2 2424   0.697   1.976   2.949  0.9626 -1.9427  0.1092
  809SOL     OW 2425   2.575   1.975   1.863 -0.0793  0.3626 -0.0796
  809SOL    HW1 2426   2.664   2.027   1.881  1.6985 -2.1715  2.4029
  809SOL    HW2 2427   2.537   1.978   1.764 -2.2494  1.1207  1.5164
  810SOL     OW 2428   2.198   1.142   0.506 -0.2726  0.1959 -0.2010
  810SOL    HW1 2429   2.192   1.049   0.562 -0.0766 -0.7283  1.0444
  810SOL    HW2 2430   2.147   1.225   0.555 -0.7226  2.2791 -0.2372
  811SOL     OW 2431   1.399   2.521   1.199  0.1680  0.3563 -0.0688
  811SOL    HW1 2432   1.367   2.427   1.228 -0.6107 -0.5575  0.5019
  811SOL    HW2 2433   1.361   2.589   1.263  1.4287 -0.4156  0.9118
  812SOL     OW 2434   1.412   0.732   1.982 -0.0979  0.0797 -0.1753
  812SOL    HW1 2435   1.348   0.768   2.056  0.4790  0.1565 -0.9390
  812SOL    HW2 2436   1.458   0.813   1.938  0.4295  1.9798  2.5944
  813SOL     OW 2437   1.631   2.073   2.460 -0.4682  0.3053 -0.3243
  813SOL    HW1 2438   1.696   2.003   2.499 -0.4750  1.7438 -0.0174
  813SOL    HW2 2439   1.597   2.043   2.363 -2.6293 -2.1880 -0.4430
  814SOL     OW 2440   2.955   1.567   2.861  0.4909  0.0395 -0.0940
  814SOL    HW1 2441   3.040   1.536   2.910  2.0676  2.5802 -0.1144
  814SOL    HW2 2442   2.976   1.638   2.787 -0.7032  2.4887 -2.9082
  815SOL     OW 2443   2.188   2.954   2.808  0.4949 -0.3407 -0.2575
  815SOL    HW1 2444   2.146   2.860   2.842 -3.5395 -2.0154  0.6771
  815SOL    HW2 2445   2.282   2.970   2.851 -0.0386 -2.0827  2.1534
  816SOL     OW 2446   1.584   0.373   1.686  0.2528  0.0554 -0.1421
  816SOL    HW1 2447   1.602   0.272   1.702  0.7317  0.9762 -0.8202
  816SOL    HW2 2448   1.511   0.418   1.751  0.9025 -0.1214  0.2306
  817SOL     OW 2449   0.361   1.176   2.648  0.2078  0.5208  0.2578
  817SOL    HW1 2450   0.297   1.207   2.722 -0.7695  0.1760  0.0315
  817SOL    HW2 2451   0.398   1.261   2.595  2.5776  3.3681  0.6051
  818SOL     OW 2452   1.956   0.840   0.408 -0.2842 -0.4226  0.6986
  818SOL    HW1 2453   2.057   0.829   0.438  0.6063  1.3820  0.1939
  818SOL    HW2 2454   1.903   0.902   0.470  2.9097 -0.1773 -0.4369
  819SOL     OW 2455   2.764   2.946   3.090 -0.0977 -0.1091  1.3332
  819SOL    HW1 2456   2.797   2.896   3.172  0.3434  0.0253 -0.5550
  819SOL    HW2 2457   2.703   2.891   3.029  0.9756 -1.5996  3.1788
  820SOL     OW 2458   1.229   1.047   0.548  0.1677 -0.0105 -0.5546
  820SOL    HW1 2459   1.258   1.141   0.578  1.0093  2.7763  0.6336
  820SOL    HW2 2460   1.229   0.986   0.633 -0.4883  0.8650 -0.3555
  821SOL     OW 2461   0.036   1.268   0.713 -0.0470 -0.1594 -0.0439
  821SOL    HW1 2462  -0.021   1.295   0.794  1.7226  0.9630  0.6702
  821SOL    HW2 2463   0.099   1.353   0.687  0.2086  0.3145  2.9157
  822SOL     OW 2464   2.571   1.816   2.452 -0.5916  0.2095 -0.1580
  822SOL    HW1 2465   2.563   1.889   2.527 -0.0747  1.0932  1.6557
  822SOL    HW2 2466   2.486   1.810   2.391 -0.3408  1.5168 -1.4672
  823SOL     OW 2467   2.017   0.876   1.125  0.7604  0.6037 -0.0592
  823SOL    HW1 2468   1.989   0.845   1.223 -1.5034  1.2605 -1.4067
  823SOL    HW2 2469   1.946   0.931   1.077  1.3586  1.2185 -0.9680
  824SOL     OW 2470   0.198   1.982   2.813  0.4385 -0.6397  0.3678
  824SOL    HW1 2471   0.200   1.914   2.889 -0.2084  0.1757 -1.8981
  824SOL    HW2 2472   0.248   1.962   2.725 -0.2030 -2.7121 -0.3850
  825SOL     OW 2473   1.319   1.035   0.286 -0.1155  0.2890 -0.2754
  825SOL    HW1 2474   1.305   1.130   0.255  4.3641  2.4022 -0.3960
  825SOL    HW2 2475   1.295   1.023   0.388  0.2750  0.5431 -0.2397
  826SOL     OW 2476   1.947   0.647   1.575 -0.6554 -0.3771  0.3506
  826SOL    HW1 2477   2.039   0.611   1.616 -0.3667  0.1654  0.7297
  826SOL    HW2 2478   1.886   0.570   1.537  0.8557 -0.9265  1.0192
  827SOL     OW 2479   0.675   1.221   0.294 -0.7757  0.0104  0.2650
  827SOL    HW1 2480   0.721   1.156   0.226 -2.4002  2.0400 -0.3340
  827SOL    HW2 2481   0.620   1.169   0.369  0.7840 -0.8079 -1.4682
  828SOL     OW 2482   2.639   0.093   1.524  0.1623  0.0892 -0.4797
  828SOL    HW1 2483   2.546   0.101   1.475 -0.1443  0.8722 -0.7144
  828SOL    HW2 2484   2.628   0.092   1.628 -2.0983  0.5631 -2.2379
  829SOL     OW 2485   2.927   2.423   2.853  0.7523 -1.1267 -0.5358
  829SOL    HW1 2486   2.831   2.390   2.875  0.2868  2.5325  0.2074
  829SOL    HW2 2487   2.917   2.519   2.813  1.4812 -0.8851  0.5903
  830SOL     OW 2488   2.824   1.010   3.038  0.0403 -0.0897 -0.2944
  830SOL    HW1 2489   2.890   1.089   3.059  1.3211 -0.9196 -0.4160
  830SOL    HW2 2490   2.853   0.914   3.066 -2.9609  1.8160  2.1727
  831SOL     OW 2491   0.121   0.581   0.420 -0.4407 -0.1018  0.3966
  831SOL    HW1 2492   0.085   0.524   0.499 -1.8119 -0.7775 -0.3922
  831SOL    HW2 2493   0.136   0.528   0.332 -1.8464 -0.7263  0.6559
  832SOL     OW 2494   1.840   0.784   3.013 -0.2276 -0.0862  0.2264
  832SOL    HW1 2495   1.743   0.826   3.003 -0.9557  0.9952 -0.3829
  832SOL    HW2 2496   1.834   0.681   3.008  1.3084  1.0579  0.1893
  833SOL     OW 2497   2.427   2.062   0.452 -0.0047  0.1533 -0.2050
  833SOL    HW1 2498   2.326   2.038   0.439 -0.6878 -0.5548  2.0814
  833SOL    HW2 2499   2.483   1.985   0.481 -1.6586 -1.2110 -0.1529
  834SOL     OW 2500   0.122   0.153   0.505  0.1142 -0.9594  0.1401
  834SOL    HW1 2501   0.127   0.055   0.529  1.5921  0.8849 -0.9319
  834SOL    HW2 2502   0.126   0.164   0.402 -0.8072 -0.2015 -1.3164
  835SOL     OW 2503   2.389   1.509   1.165  0.2973  0.2392 -0.0267
  835SOL    HW1 2504   2.423   1.606   1.177  0.5545 -2.8547 -0.2527
  835SOL    HW2 2505   2.442   1.471   1.081  0.4568 -2.0138  0.1218
  836SOL     OW 2506   1.625   0.885   2.585  0.0105  0.0692  0.1008
  836SOL    HW1 2507   1.534   0.840   2.615 -1.2040 -0.6805  0.6385
  836SOL    HW2 2508   1.641   0.887   2.482 -0.3868 -0.6563 -0.9417
  837SOL     OW 2509   1.622   0.078   0.564  0.1174 -0.7608 -0.0277
  837SOL    HW1 2510   1.582   0.153   0.622  1.9177  0.6549  0.6102
  837SOL    HW2 2511   1.612   0.097   0.462  2.3686  1.4345  1.5670
  838SOL     OW 2512   1.229   1.406   2.784  0.0729 -0.6787  0.0607
  838SOL    HW1 2513   1.192   1.467   2.857  1.8413  0.1760 -0.3147
  838SOL    HW2 2514   1.154   1.343   2.749  1.0562 -1.2154  1.2439
  839SOL     OW 2515   1.658   0.304   0.995 -0.2308  0.9624 -0.1130
  839SOL    HW1 2516   1.668   0.383   1.062 -2.5064  1.6790  1.6384
  839SOL    HW2 2517   1.626   0.215   1.036  0.5180  1.0514 -1.4984
  840SOL     OW 2518   2.527   2.873   1.766  0.2422  0.3740  0.2865
  840SOL    HW1 2519   2.496   2.830   1.672  2.5922 -0.3185 -0.7596
  840SOL    HW2 2520   2.556   2.801   1.838 -0.6238 -0.8848  1.6323
  841SOL     OW 2521   1.583   0.903   2.979 -0.1478 -0.4080  0.2428
  841SOL    HW1 2522   1.523   0.945   3.054  0.2878 -1.0654 -0.5136
  841SOL    HW2 2523   1.587   0.961   2.895  0.9143 -3.3468 -0.9625
  842SOL     OW 2524   0.809   1.515   0.977 -0.4642  0.4598  0.6004
  842SOL    HW1 2525   0.756   1.596   1.011  0.0589 -0.9802  0.3305
  842SOL    HW2 2526   0.752   1.465   0.910  1.0072  1.8145  0.5788
  843SOL     OW 2527   0.132   0.117   1.474 -0.1017 -0.3180  0.0866
  843SOL    HW1 2528   0.223   0.149   1.515 -0.8877  1.2589  2.0664
  843SOL    HW2 2529   0.110   0.017   1.507  1.4262 -0.6455  0.4124
  844SOL     OW 2530   0.772   2.477   0.294 -0.1544  0.0877  0.1004
  844SOL    HW1 2531   0.702   2.463   0.368  1.2997 -2.2941 -1.1805
  844SOL    HW2 2532   0.726   2.475   0.200  3.4593 -0.7314  0.1463
  845SOL     OW 2533   1.668   2.888   1.386  0.4338  0.1948  0.2309
  845SOL    HW1 2534   1.729   2.925   1.466 -0.0950  2.3904  0.0297
  845SOL    HW2 2535   1.631   2.968   1.333 -0.3876 -0.2339 -0.1425
  846SOL     OW 2536   1.681   2.973   0.873  0.5867  0.0498  0.4927
  846SOL    HW1 2537   1.635   2.970   0.778 -2.4095  0.3633  0.2503
  846SOL    HW2 2538   1.783   2.966   0.863  1.1090 -1.7502  1.0598
  847SOL     OW 2539   2.022   1.650   0.223 -0.0977  0.1025 -0.0923
  847SOL    HW1 2540   2.004   1.602   0.312 -0.7150 -0.9955  1.5396
  847SOL    HW2 2541   1.953   1.624   0.150  1.1452 -2.0267  1.4593
  848SOL     OW 2542   2.488   0.782   2.668 -0.6385 -0.3355  0.0299
  848SOL    HW1 2543   2.477   0.887   2.681 -2.3654 -1.2762 -1.1466
  848SOL    HW2 2544   2.449   0.754   2.577 -1.8252  1.1032 -0.1404
  849SOL     OW 2545   2.466   0.873   2.339 -0.2430 -0.0528 -0.6461
  849SOL    HW1 2546   2.533   0.847   2.264 -0.2953  1.6330  0.0238
  849SOL    HW2 2547   2.410   0.792   2.375 -0.3529 -1.9884 -0.2152
  850SOL     OW 2548   1.523   0.094   1.329  0.5312 -0.0711 -0.1256
  850SOL    HW1 2549   1.539   0.086   1.228 -1.2975 -0.7873 -1.6901
  850SOL    HW2 2550   1.441   0.043   1.358  2.6999 -1.4280  0.3090
  851SOL     OW 2551   0.469   1.703   0.672 -0.2325  0.4193  0.6956
  851SOL    HW1 2552   0.500   1.798   0.636 -0.2439 -0.0084  0.1199
  851SOL    HW2 2553   0.550   1.638   0.692  0.8802 -1.5117 -1.0031
  852SOL     OW 2554   0.819   2.160   1.670 -0.0179 -0.2581 -0.3332
  852SOL    HW1 2555   0.832   2.249   1.611 -0.3475 -0.6129  1.8545
  852SOL    HW2 2556   0.739   2.157   1.735  0.1090 -2.1105  1.8848
  853SOL     OW 2557   2.483   1.562   2.627  0.3368  0.2105  0.2351
  853SOL    HW1 2558   2.430   1.483   2.577 -1.1341 -1.7962 -0.5269
  853SOL    HW2 2559   2.507   1.637   2.558 -0.7045 -1.5246  0.8513
  854SOL     OW 2560   2.517   1.395   1.791 -0.1876 -0.0701  0.6306
  854SOL    HW1 2561   2.527   1.374   1.689 -0.6318  0.1083 -0.7393
  854SOL    HW2 2562   2.519   1.307   1.846  0.8514 -0.5603  0.1089
  855SOL     OW 2563   2.091   2.346   0.964 -0.5228 -0.4830  0.4792
  855SOL    HW1 2564   2.133   2.422   0.902 -1.4361 -0.2993 -0.3417
  855SOL    HW2 2565   2.146   2.338   1.052 -1.7194 -3.6037 -1.8536
  856SOL     OW 2566   1.391   1.423   0.886 -0.0292 -1.0092  0.3233
  856SOL    HW1 2567   1.461   1.469   0.943  0.4287  0.2876  0.1063
  856SOL    HW2 2568   1.296   1.470   0.879 -0.4637  0.0149 -0.2354
  857SOL     OW 2569   2.977   2.613   1.051  0.5260 -0.9136  0.7778
  857SOL    HW1 2570   2.893   2.560   1.082 -1.8963 -1.9229  1.7250
  857SOL    HW2 2571   3.062   2.551   1.037  0.0828 -1.1438  0.7054
  858SOL     OW 2572   2.317   2.135   1.694  0.0989  0.8156 -0.0630
  858SOL    HW1 2573   2.215   2.137   1.667 -1.7594 -0.7130 -0.4462
  858SOL    HW2 2574   2.352   2.044   1.665 -0.9921  1.2795  0.6739
  859SOL     OW 2575   2.446   0.529   1.067 -0.2394 -0.3689  0.2269
  859SOL    HW1 2576   2.513   0.582   0.999  0.5594  0.3848 -1.5603
  859SOL    HW2 2577   2.492   0.441   1.095  1.2261 -1.8272  2.5242
  860SOL     OW 2578   1.940   2.818   0.462 -0.1548 -0.2156 -0.7430
  860SOL    HW1 2579   1.928   2.763   0.376 -3.1861 -1.4540  4.3331
  860SOL    HW2 2580   2.020   2.888   0.454  1.6088  1.9997 -0.5572
  861SOL     OW 2581   1.101   2.590   2.800  0.1259  0.0841 -0.4189
  861SOL    HW1 2582   1.138   2.669   2.743 -1.2437  2.1816 -1.6422
  861SOL    HW2 2583   1.164   2.564   2.879  1.6108 -4.3044 -1.1060
  862SOL     OW 2584   2.854   2.500   1.604  0.6059  0.1626  0.3285
  862SOL    HW1 2585   2.925   2.525   1.679 -0.7902 -1.8744 -1.9823
  862SOL    HW2 2586   2.817   2.580   1.552 -0.2647 -1.3925 -0.9367
  863SOL     OW 2587   1.863   2.685   0.193  0.1840  0.2332 -0.0639
  863SOL    HW1 2588   1.897   2.584   0.188  2.9200  2.1087  0.5840
  863SOL    HW2 2589   1.761   2.680   0.198  0.8874 -2.2951 -0.0272
  864SOL     OW 2590   1.859   1.143   2.902  0.3511  0.0363  0.7186
  864SOL    HW1 2591   1.902   1.113   2.813 -1.7167  0.4389 -2.8159
  864SOL    HW2 2592   1.917   1.206   2.963  1.3033  1.0121  0.7894
  865SOL     OW 2593   2.189   1.864   0.685  0.0584 -0.0141  0.4416
  865SOL    HW1 2594   2.251   1.841   0.763  1.0632  0.6877  1.4950
  865SOL    HW2 2595   2.113   1.800   0.672  2.1230 -1.2376 -0.7164
  866SOL     OW 2596   2.960   2.902   0.983 -0.0911 -0.0086 -0.1795
  866SOL    HW1 2597   2.985   2.930   0.890 -0.7353  0.5848  0.7268
  866SOL    HW2 2598   2.956   2.799   0.998  0.5925 -0.1940 -0.8464
  867SOL     OW 2599   0.338   1.360   0.922  0.6652 -0.8937 -0.6189
  867SOL    HW1 2600   0.349   1.288   0.851  0.4347  0.7319  0.8422
  867SOL    HW2 2601   0.288   1.445   0.886  0.4307  0.8906  0.0036
  868SOL     OW 2602   0.764   1.908   2.023  0.1022  0.1446 -0.4063
  868SOL    HW1 2603   0.724   1.866   2.109  0.3192 -1.7041  2.2202
  868SOL    HW2 2604   0.715   1.995   1.995  1.0627 -1.2194  1.3862
  869SOL     OW 2605   2.504   1.919   1.597 -0.0659 -0.3968  0.0283
  869SOL    HW1 2606   2.588   1.960   1.551  0.5167 -0.1369 -1.7363
  869SOL    HW2 2607   2.491   1.819   1.579 -1.0090  0.7301 -2.3240
  870SOL     OW 2608   2.286   2.616   1.272 -0.5994 -0.5777 -0.6071
  870SOL    HW1 2609   2.270   2.527   1.230  0.8167  2.4728  2.5874
  870SOL    HW2 2610   2.241   2.629   1.364  0.4854  2.6361  0.3602
  871SOL     OW 2611   2.986   2.090   0.582 -0.1654  0.3292  0.4095
  871SOL    HW1 2612   2.939   2.171   0.623  3.5954 -0.6784 -0.5496
  871SOL    HW2 2613   2.926   2.041   0.515  0.3255 -0.9046  2.1720
  872SOL     OW 2614   2.133   0.479   1.685  0.1072 -0.2375 -0.0391
  872SOL    HW1 2615   2.075   0.467   1.770 -0.3759  0.7705 -1.1073
  872SOL    HW2 2616   2.234   0.448   1.694  1.1709  2.1849 -2.0482
  873SOL     OW 2617   1.740   2.076   2.993  0.3210 -0.3308 -0.0857
  873SOL    HW1 2618   1.721   2.174   3.019 -0.7718 -0.6045 -0.0114
  873SOL    HW2 2619   1.706   2.052   2.897 -0.1669 -3.0061 -0.7500
  874SOL     OW 2620   0.654   2.461   0.806 -0.5369 -0.0222 -0.1155
  874SOL    HW1 2621   0.612   2.532   0.862 -1.6683 -1.2192 -0.0890
  874SOL    HW2 2622   0.760   2.464   0.808 -0.6277  2.3399  0.8318
  875SOL     OW 2623   2.293   1.467   1.430 -0.3341  0.0177 -0.1040
  875SOL    HW1 2624   2.384   1.472   1.480  1.2170 -1.6804 -0.1643
  875SOL    HW2 2625   2.304   1.476   1.331  0.9304  0.6497  2.1214
  876SOL     OW 2626   0.082   2.244   2.697  0.3454  0.1475  0.4090
  876SOL    HW1 2627   0.101   2.156   2.753 -0.1385 -0.1081  3.2118
  876SOL    HW2 2628   0.078   2.335   2.746 -0.7150  1.5596  1.2142
  877SOL     OW 2629   2.851   2.683   0.583 -0.8381 -0.0273  0.0930
  877SOL    HW1 2630   2.832   2.779   0.624 -0.4190 -1.1863 -0.9848
  877SOL    HW2 2631   2.864   2.610   0.654 -1.5943 -1.3161  2.9807
  878SOL     OW 2632   2.839   1.586   2.192  0.4045 -0.6116  0.1818
  878SOL    HW1 2633   2.921   1.564   2.133 -0.4210  1.6779  0.2924
  878SOL    HW2 2634   2.855   1.630   2.283 -0.4320 -0.1248 -0.1724
  879SOL     OW 2635   2.387   0.045   1.138  0.3209  0.1634  0.0758
  879SOL    HW1 2636   2.424  -0.051   1.165  2.3651  0.0706  1.4471
  879SOL    HW2 2637   2.296   0.046   1.085  1.3497  1.8252 -1.6657
  880SOL     OW 2638   0.671   0.468   2.233 -0.2050 -0.8189 -0.1762
  880SOL    HW1 2639   0.587   0.428   2.279 -0.7375  0.5193 -0.5153
  880SOL    HW2 2640   0.716   0.405   2.163 -1.2235  1.9684  0.6947
  881SOL     OW 2641   0.900   0.073   0.504  0.5619 -0.2145 -0.2789
  881SOL    HW1 2642   0.920  -0.017   0.549  0.2626 -0.4729  1.3232
  881SOL    HW2 2643   0.825   0.055   0.431  2.5605 -0.4610  0.2405
  882SOL     OW 2644   2.714   1.652   1.659 -0.2021 -0.3780  0.8790
  882SOL    HW1 2645   2.807   1.651   1.619 -0.4562 -0.6492 -0.2188
  882SOL    HW2 2646   2.701   1.681   1.761  1.2009  2.3452  1.0865
  883SOL     OW 2647   0.903   0.588   0.952  0.6937 -0.1687 -0.3312
  883SOL    HW1 2648   0.943   0.677   0.987 -0.8777  0.7707 -0.9405
  883SOL    HW2 2649   0.905   0.515   1.023  0.4779  3.9168 -1.3763
  884SOL     OW 2650   1.175   1.796   1.110 -0.2731  0.7068 -1.1260
  884SOL    HW1 2651   1.137   1.703   1.071  0.8930 -1.0163 -1.9499
  884SOL    HW2 2652   1.100   1.868   1.104  2.3282 -1.3968 -3.5147
  885SOL     OW 2653   2.345   1.824   2.305 -0.6633 -0.0990  0.0083
  885SOL    HW1 2654   2.269   1.770   2.350  1.7928  1.2733 -0.1030
  885SOL    HW2 2655   2.333   1.922   2.309  2.6408 -1.2114  0.7550
  886SOL     OW 2656   2.616   0.461   1.806  0.6177 -0.1008 -0.1662
  886SOL    HW1 2657   2.645   0.406   1.890 -1.2271  0.5487  1.5829
  886SOL    HW2 2658   2.675   0.547   1.784 -0.9728  1.7160 -1.8153
  887SOL     OW 2659   0.148   2.032   1.216 -0.1172 -0.1647 -0.3740
  887SOL    HW1 2660   0.057   2.030   1.170  3.6573 -1.3255 -0.9255
  887SOL    HW2 2661   0.185   2.126   1.225 -1.4808  0.1247  1.2362
  888SOL     OW 2662   0.550   1.334   1.570  0.0952  0.8078  0.4084
  888SOL    HW1 2663   0.602   1.378   1.489  0.2794  1.3164  0.4611
  888SOL    HW2 2664   0.491   1.248   1.543  1.8073  0.1528 -0.1865
  889SOL     OW 2665   0.804   2.532   2.174 -0.1313 -0.4786 -0.4256
  889SOL    HW1 2666   0.725   2.465   2.162 -0.8320  0.0129 -1.3011
  889SOL    HW2 2667   0.872   2.505   2.103  1.3685  0.2401  1.4392
  890SOL     OW 2668   2.357   2.488   0.204 -0.1984  0.1615 -0.4350
  890SOL    HW1 2669   2.367   2.563   0.136 -0.7130 -1.1397 -0.0873
  890SOL    HW2 2670   2.305   2.513   0.289  0.5841 -0.4252 -1.0545
  891SOL     OW 2671   2.606   1.592   0.732  0.2010 -0.8237 -0.5135
  891SOL    HW1 2672   2.600   1.548   0.823  3.6632  0.7145 -1.7318
  891SOL    HW2 2673   2.519   1.605   0.674 -1.2002 -3.1792  0.2707
  892SOL     OW 2674   0.319   0.218   2.158 -0.3202 -0.0736  0.0252
  892SOL    HW1 2675   0.324   0.266   2.065  0.3276 -0.0086  0.0827
  892SOL    HW2 2676   0.404   0.236   2.217  0.6207 -1.5231  2.6176
  893SOL     OW 2677   1.652   0.238   2.763 -0.4912  0.0144  0.1496
  893SOL    HW1 2678   1.731   0.300   2.743 -0.5449  0.2096  0.8922
  893SOL    HW2 2679   1.565   0.293   2.759  1.7861  1.1421  0.9976
  894SOL     OW 2680   2.240   1.997   0.035  0.8123 -0.1914 -0.0394
  894SOL    HW1 2681   2.195   1.955  -0.052 -0.5748  3.4318  1.2717
  894SOL    HW2 2682   2.224   1.945   0.124 -2.4600 -1.3843  0.0540
  895SOL     OW 2683   2.869   1.440   0.878  0.2636  0.3836 -0.2764
  895SOL    HW1 2684   2.887   1.377   0.962 -0.9598  2.1628  1.6525
  895SOL    HW2 2685   2.952   1.494   0.854  0.3797 -1.4696 -0.2060
  896SOL     OW 2686   1.807   1.843   1.174 -0.1831 -0.6325 -0.2757
  896SOL    HW1 2687   1.797   1.809   1.078  1.2621 -1.7076  0.2700
  896SOL    HW2 2688   1.748   1.926   1.195  1.1113 -1.2182 -0.1302
  897SOL     OW 2689   0.292   0.538   3.077  0.0686 -0.2202 -0.7880
  897SOL    HW1 2690   0.238   0.598   3.019 -1.1715 -1.2728  4.6316
  897SOL    HW2 2691   0.394   0.556   3.069 -1.0439  0.8393  2.5897
  898SOL     OW 2692   0.592   2.846   1.118  0.1016 -0.6762 -0.3731
  898SOL    HW1 2693   0.544   2.937   1.136 -0.1928  0.4330  0.6977
  898SOL    HW2 2694   0.664   2.832   1.189 -0.2829 -0.6663 -0.6946
  899SOL     OW 2695   2.737   0.878   1.259 -0.4780 -0.1627 -0.7603
  899SOL    HW1 2696   2.661   0.879   1.186 -3.4912  0.9744 -0.5080
  899SOL    HW2 2697   2.827   0.923   1.227  1.6049  2.5516 -0.0704
  900SOL     OW 2698   1.028   2.580   2.375  0.0392  0.6078 -0.1266
  900SOL    HW1 2699   0.953   2.558   2.303  0.1834 -0.1068 -2.1691
  900SOL    HW2 2700   0.999   2.550   2.470 -0.0286  0.9651 -1.8954
  901SOL     OW 2701   1.865   2.368   1.396 -0.4247 -0.4132 -0.3032
  901SOL    HW1 2702   1.856   2.365   1.295  0.7827 -0.0980  1.9018
  901SOL    HW2 2703   1.957   2.332   1.421 -0.7608 -0.1682 -0.8929
  902SOL     OW 2704   2.536   1.650   1.419  0.2830 -0.5158 -0.0448
  902SOL    HW1 2705   2.580   1.647   1.516 -0.1576  2.6986  0.1063
  902SOL    HW2 2706   2.609   1.642   1.346  0.6928  2.7677  2.8026
  903SOL     OW 2707   0.267   2.474   1.978 -0.7476 -0.2609  0.3831
  903SOL    HW1 2708   0.192   2.418   1.925 -0.4021 -2.4096  0.9101
  903SOL    HW2 2709   0.288   2.567   1.938 -0.0892  0.9471  1.0471
  904SOL     OW 2710   2.050   0.690   2.432 -0.4341  0.0602 -0.3591
  904SOL    HW1 2711   1.988   0.687   2.514  1.1315 -1.1222 -0.6806
  904SOL    HW2 2712   1.996   0.689   2.342 -1.7756 -2.7341 -2.3757
  905SOL     OW 2713   2.806   0.068   2.595  0.4092  0.1800  0.3267
  905SOL    HW1 2714   2.862  -0.018   2.582  2.0997  0.9328 -2.4565
  905SOL    HW2 2715   2.839   0.149   2.539 -4.9381 -1.4212 -2.1248
  906SOL     OW 2716   0.166   1.789   1.868  0.3090  0.0507  0.0154
  906SOL    HW1 2717   0.099   1.810   1.791 -1.8371 -1.1802  2.6378
  906SOL    HW2 2718   0.262   1.814   1.846 -0.2069 -0.9425 -0.3379
  907SOL     OW 2719   0.141   2.477   1.009 -0.3396  0.6305  0.3322
  907SOL    HW1 2720   0.246   2.462   1.024  2.0283  0.1840  1.6873
  907SOL    HW2 2721   0.090   2.405   0.950 -1.3605 -1.7600  0.9143
  908SOL     OW 2722   2.671   2.960   0.408  0.2273 -0.4358  0.3245
  908SOL    HW1 2723   2.635   3.005   0.323  2.5970  1.3218  0.9710
  908SOL    HW2 2724   2.744   2.887   0.393  2.2009 -1.5361 -0.2267
  909SOL     OW 2725   0.766   0.975   2.731 -0.1241 -0.4361  0.1500
  909SOL    HW1 2726   0.708   0.924   2.658 -1.4551  0.8811 -0.5588
  909SOL    HW2 2727   0.853   1.013   2.685  0.8404 -0.8039 -1.1577
  910SOL     OW 2728   1.764   1.860   2.137  0.8759 -0.4166 -0.3096
  910SOL    HW1 2729   1.823   1.916   2.070  1.0609  1.3052 -2.1542
  910SOL    HW2 2730   1.677   1.908   2.168 -1.4133  0.2997  0.8822
  911SOL     OW 2731   1.856   2.940   1.589 -0.6537  0.0559  0.0710
  911SOL    HW1 2732   1.949   2.915   1.551 -0.0690 -0.3217  1.3750
  911SOL    HW2 2733   1.825   2.872   1.662  0.2913  2.2316 -0.7711
  912SOL     OW 2734   2.912   0.982   0.746 -0.3425 -0.0995  0.2056
  912SOL    HW1 2735   2.914   0.964   0.848  0.2577  1.3174  0.6756
  912SOL    HW2 2736   2.855   1.066   0.719  0.8091 -0.8090  1.7682
  913SOL     OW 2737   2.559   1.280   1.549  0.4281 -0.5469  0.5593
  913SOL    HW1 2738   2.550   1.174   1.555 -1.0463  1.3829 -0.3919
  913SOL    HW2 2739   2.596   1.310   1.459 -1.8717  0.6555  0.1096
  914SOL     OW 2740   2.825   0.542   1.208 -0.2910 -0.6000 -0.3661
  914SOL    HW1 2741   2.820   0.440   1.244 -5.2888 -0.7823 -1.4030
  914SOL    HW2 2742   2.799   0.598   1.293 -1.1859 -1.6693  1.6180
  915SOL     OW 2743   1.236   0.795   1.035 -0.3206  0.2126 -0.0520
  915SOL    HW1 2744   1.291   0.783   1.121  0.1000  1.0273  0.0798
  915SOL    HW2 2745   1.130   0.795   1.051 -1.0963  0.6858 -3.7036
  916SOL     OW 2746   0.625   0.013   0.673 -0.6518  0.4825 -0.2307
  916SOL    HW1 2747   0.651   0.095   0.732 -0.4092 -1.1242 -0.5041
  916SOL    HW2 2748   0.626   0.035   0.569 -1.5955  2.8969  0.7746
  917SOL     OW 2749   2.826   2.616   1.976  0.4668 -0.2577  0.1417
  917SOL    HW1 2750   2.726   2.641   1.984  1.6521  0.4481 -1.6088
  917SOL    HW2 2751   2.874   2.699   1.941 -1.7829 -3.1038 -3.1614
  918SOL     OW 2752   1.058   2.230   2.980 -0.3122 -0.2274  0.5293
  918SOL    HW1 2753   1.005   2.237   3.071 -1.0056  0.7115 -0.1708
  918SOL    HW2 2754   1.098   2.135   2.975 -1.3481 -0.9517 -0.1620
  919SOL     OW 2755   0.873   1.635   2.837  0.0464 -0.6576 -0.0747
  919SOL    HW1 2756   0.922   1.716   2.787 -1.9477  0.7470  0.2977
  919SOL    HW2 2757   0.834   1.565   2.770 -0.2190  1.2607 -0.9305
  920SOL     OW 2758   1.272   1.909   2.467  0.0506  0.6786  0.0017
  920SOL    HW1 2759   1.208   1.903   2.382  0.1506  0.9653 -0.0537
  920SOL    HW2 2760   1.269   1.822   2.527 -1.6397 -1.3655  0.6420
  921SOL     OW 2761   1.095   0.042   2.604  0.3065  0.1477 -0.2373
  921SOL    HW1 2762   1.070   0.035   2.501 -0.9137 -2.3550 -1.4185
  921SOL    HW2 2763   1.025  -0.017   2.661  0.5567  1.8707  0.9273
  922SOL     OW 2764   2.156   2.415   2.860 -0.3721 -0.1283  1.2216
  922SOL    HW1 2765   2.155   2.310   2.866 -0.3634  2.3347  0.8185
  922SOL    HW2 2766   2.084   2.454   2.794  2.9267  1.3615  0.3030
  923SOL     OW 2767   1.248   2.717   0.257  0.1329 -0.5894  0.3572
  923SOL    HW1 2768   1.335   2.753   0.306  0.3802  0.5907 -2.6968
  923SOL    HW2 2769   1.253   2.620   0.227 -0.6391  0.7309 -1.1728
  924SOL     OW 2770   2.869   1.525   0.070 -0.1460  0.1031  0.1749
  924SOL    HW1 2771   2.784   1.543   0.015 -0.7861 -0.7827  3.2205
  924SOL    HW2 2772   2.958   1.519   0.015 -2.3655  1.4376 -0.0555
  925SOL     OW 2773   0.008   2.961   1.504 -0.3451 -0.1210  0.3926
  925SOL    HW1 2774  -0.083   2.942   1.545 -0.5169 -2.2464 -0.4127
  925SOL    HW2 2775   0.024   2.917   1.409  0.7937 -0.5177 -1.0189
  926SOL     OW 2776   1.352   2.818   1.261  0.4017  0.1914  0.3621
  926SOL    HW1 2777   1.396   2.817   1.168 -1.2585 -0.0697  0.6507
  926SOL    HW2 2778   1.364   2.911   1.305 -3.6778  0.2230 -1.3603
  927SOL     OW 2779   0.313   2.672   1.780 -0.3697 -0.4119 -0.1121
  927SOL    HW1 2780   0.291   2.607   1.705  2.2276  0.4089  0.7213
  927SOL    HW2 2781   0.309   2.770   1.743 -1.5530  0.1258 -2.9526
  928SOL     OW 2782   1.549   2.033   2.187  0.2617  0.2590 -0.0157
  928SOL    HW1 2783   1.587   2.122   2.155 -0.2026  1.7965 -1.8798
  928SOL    HW2 2784   1.446   2.024   2.167 -2.0577  1.0529 -1.1443
  929SOL     OW 2785   2.443   2.465   2.900  0.1973 -0.4870 -0.2112
  929SOL    HW1 2786   2.350   2.446   2.932  2.0701  0.5465  1.3125
  929SOL    HW2 2787   2.448   2.462   2.795 -0.6397 -0.9478  1.1167
  930SOL     OW 2788   2.192   1.968   1.045  0.1031  0.3204 -0.0048
  930SOL    HW1 2789   2.158   1.927   1.135  0.4891 -1.7131  0.3208
  930SOL    HW2 2790   2.276   2.031   1.054  0.5166  1.1225 -1.5087
  931SOL     OW 2791   0.529   1.713   2.697 -0.2378 -0.2322 -0.1662
  931SOL    HW1 2792   0.585   1.752   2.780 -0.6121  5.2446  1.8387
  931SOL    HW2 2793   0.554   1.614   2.673  0.0423 -2.9748 -1.1013
  932SOL     OW 2794   0.432   0.083   2.941  0.4007 -0.9515 -0.1331
  932SOL    HW1 2795   0.528   0.130   2.929  2.6730 -0.7863 -3.1214
  932SOL    HW2 2796   0.425   0.000   2.997  0.7339  1.0909 -0.0764
  933SOL     OW 2797   1.035   0.727   3.031  0.2150 -0.0544  0.2610
  933SOL    HW1 2798   1.098   0.774   3.097  0.6188  0.4558 -0.8701
  933SOL    HW2 2799   0.946   0.776   3.017  0.3721 -1.1015 -0.7532
  934SOL     OW 2800   0.880   2.983   2.667 -0.1185 -0.2400  0.4406
  934SOL    HW1 2801   0.915   2.911   2.596  1.3817 -0.4140  1.6493
  934SOL    HW2 2802   0.908   2.947   2.763  2.8730 -0.7495 -0.6709
  935SOL     OW 2803   3.106   0.558   0.836 -0.6975 -0.0388 -0.3856
  935SOL    HW1 2804   3.081   0.497   0.752  1.5203  0.1842 -0.8910
  935SOL    HW2 2805   3.029   0.613   0.871 -0.2692 -0.5280  2.3777
  936SOL     OW 2806   1.090   2.917   0.110 -0.8677  0.7431  0.6027
  936SOL    HW1 2807   1.131   2.942   0.021 -0.5873 -1.7182  2.0341
  936SOL    HW2 2808   1.162   2.863   0.170  0.7093  2.2132 -0.4208
  937SOL     OW 2809   1.973   2.662   2.103  0.1986  0.1825 -0.3339
  937SOL    HW1 2810   1.872   2.694   2.097 -3.8500  0.0497  0.9207
  937SOL    HW2 2811   2.027   2.721   2.041 -1.3148 -0.6057 -3.0280
  938SOL     OW 2812   2.759   2.053   1.489 -0.9202  0.3299  0.3309
  938SOL    HW1 2813   2.732   2.152   1.504 -0.6832 -0.3872 -2.7303
  938SOL    HW2 2814   2.845   2.027   1.535 -3.1432 -0.3225  0.6042
  939SOL     OW 2815   2.822   1.230   2.471  0.2257 -0.1088 -0.3403
  939SOL    HW1 2816   2.888   1.196   2.398 -1.5784  0.2386  0.3259
  939SOL    HW2 2817   2.819   1.169   2.557  1.3150 -2.4831 -2.0912
  940SOL     OW 2818   0.972   0.449   2.693  0.2200  0.1607 -0.5608
  940SOL    HW1 2819   1.045   0.395   2.738 -2.3484 -1.4053 -0.1187
  940SOL    HW2 2820   0.883   0.402   2.688  2.3235 -0.7279  3.3557
  941SOL     OW 2821   0.073   2.834   2.224 -0.1513 -0.2036 -0.1016
  941SOL    HW1 2822   0.082   2.732   2.214 -0.5502  0.3848 -1.2559
  941SOL    HW2 2823   0.100   2.874   2.315 -2.3383  0.8794 -5.5634
  942SOL     OW 2824   0.062   0.122   2.493  0.0550  0.2168  0.4223
  942SOL    HW1 2825   0.147   0.144   2.551  3.0036  0.2010  0.2884
  942SOL    HW2 2826   0.046   0.183   2.408  1.0241  1.6656 -0.4235
  943SOL     OW 2827   2.117   1.655   2.344  0.4810 -0.2509 -0.4413
  943SOL    HW1 2828   2.125   1.625   2.240  2.2312 -0.5416 -0.9299
  943SOL    HW2 2829   2.102   1.570   2.401 -0.0791 -1.0737 -1.0789
  944SOL     OW 2830   2.151   2.359   1.457  0.0325 -0.4622 -0.6338
  944SOL    HW1 2831   2.186   2.443   1.504  0.4920  0.0408  0.8801
  944SOL    HW2 2832   2.129   2.287   1.529  1.8132  0.0408  1.5711
  945SOL     OW 2833   0.679   1.495   0.307 -0.8986  0.4757 -0.0219
  945SOL    HW1 2834   0.704   1.555   0.224  2.3381 -1.0252 -2.6553
  945SOL    HW2 2835   0.671   1.390   0.287 -3.7397 -0.7858 -0.3356
  946SOL     OW 2836   0.404   0.932   2.500  0.0421 -0.1575  0.2855
  946SOL    HW1 2837   0.316   0.883   2.472 -2.4576  1.8181 -0.1584
  946SOL    HW2 2838   0.387   1.032   2.526 -0.1545 -0.7967 -0.9287
  947SOL     OW 2839   1.555   0.516   0.049 -0.0072  0.7683  0.4214
  947SOL    HW1 2840   1.524   0.580  -0.035 -1.4959  1.0558 -0.6599
  947SOL    HW2 2841   1.487   0.507   0.121  2.9894 -0.6795 -0.5036
  948SOL     OW 2842   1.985   3.048   2.173  0.2657  0.1075  0.1376
  948SOL    HW1 2843   2.017   3.002   2.083 -1.4122  0.3548 -0.7437
  948SOL    HW2 2844   1.959   2.975   2.238  2.7679  1.8587 -0.9353
  949SOL     OW 2845   0.619   2.500   0.521  0.5982  0.3860  0.2738
  949SOL    HW1 2846   0.605   2.601   0.504  2.4454 -0.6576 -0.1187
  949SOL    HW2 2847   0.633   2.497   0.622 -0.2467  1.6004 -2.0950
  950SOL     OW 2848   0.210   2.137   3.064  0.0291  0.1651 -0.1063
  950SOL    HW1 2849   0.125   2.199   3.049 -3.0187 -1.1373 -0.9765
  950SOL    HW2 2850   0.218   2.069   2.986  0.7333  0.6624 -1.8163
  951SOL     OW 2851   1.180   2.795   2.650 -0.5003  0.7300 -0.0072
  951SOL    HW1 2852   1.162   2.802   2.548  2.0950 -0.2114 -0.7868
  951SOL    HW2 2853   1.225   2.878   2.686  3.9483 -2.4159 -1.8799
  952SOL     OW 2854   0.113   1.675   0.458  0.7682 -0.3893  0.2263
  952SOL    HW1 2855   0.161   1.763   0.454 -1.7129 -4.2564 -3.7598
  952SOL    HW2 2856   0.138   1.619   0.537 -1.3759 -1.8549  1.0979
  953SOL     OW 2857   2.504   1.771   0.226  0.0510 -0.3600  0.0655
  953SOL    HW1 2858   2.531   1.673   0.206 -0.5661  2.5616 -0.1089
  953SOL    HW2 2859   2.536   1.841   0.158  1.0563  0.6267 -2.2926
  954SOL     OW 2860   2.176   0.538   0.968 -0.0870 -0.1135 -0.0697
  954SOL    HW1 2861   2.172   0.548   0.865  1.3947 -1.3836  0.6783
  954SOL    HW2 2862   2.273   0.512   1.001  1.5230  0.3101  2.0669
  955SOL     OW 2863   0.210   2.618   1.335  0.6729 -0.1143  0.3156
  955SOL    HW1 2864   0.125   2.677   1.323 -1.4051  1.7633  1.5076
  955SOL    HW2 2865   0.268   2.622   1.250 -0.8293  1.1328  1.0735
  956SOL     OW 2866   2.753   2.459   2.445 -0.3495  0.0421  0.5839
  956SOL    HW1 2867   2.781   2.357   2.433  0.7626 -1.5512 -0.6080
  956SOL    HW2 2868   2.757   2.502   2.357  0.5247 -1.4884  1.9285
  957SOL     OW 2869   1.558   2.050   2.749 -0.6434 -0.2900 -0.5447
  957SOL    HW1 2870   1.516   1.953   2.756 -0.2184 -1.0674 -2.9038
  957SOL    HW2 2871   1.557   2.078   2.647 -0.8877 -1.2288 -1.0542
  958SOL     OW 2872   2.676   2.342   2.973 -0.6374  0.2832 -0.4195
  958SOL    HW1 2873   2.577   2.371   2.958 -0.5321  0.2607 -0.7178
  958SOL    HW2 2874   2.698   2.288   3.060  1.7886  0.5536  0.8137
  959SOL     OW 2875   0.243   2.776   0.069  0.4471 -0.3960  0.5515
  959SOL    HW1 2876   0.149   2.781   0.029  2.6489  0.1763  1.0165
  959SOL    HW2 2877   0.250   2.709   0.150 -1.0450 -0.5704  0.7042
  960SOL     OW 2878   1.954   0.433   1.915  0.4558  0.3162  0.1896
  960SOL    HW1 2879   1.898   0.514   1.881 -0.1183 -2.4896 -2.0453
  960SOL    HW2 2880   1.976   0.434   2.018 -0.3547  0.1198  2.5442
  961SOL     OW 2881   2.532   1.854   1.029 -0.1158  0.2717  0.1449
  961SOL    HW1 2882   2.536   1.930   0.957  0.8693  1.0763  1.5147
  961SOL    HW2 2883   2.519   1.891   1.124 -0.3425  1.7023 -2.0153
  962SOL     OW 2884   1.266   0.904   0.039 -0.3543 -0.0877 -0.1685
  962SOL    HW1 2885   1.250   0.974  -0.037  1.8969 -1.3897 -0.3308
  962SOL    HW2 2886   1.276   0.954   0.132  2.6207  0.1348 -0.1582
  963SOL     OW 2887   2.178   2.557   1.870 -0.3370 -0.1981 -0.1377
  963SOL    HW1 2888   2.198   2.460   1.896 -3.6427  1.1917  0.2793
  963SOL    HW2 2889   2.216   2.626   1.934 -0.8315  0.5896  1.2800
  964SOL     OW 2890   2.394   0.392   1.659 -0.0482  0.0922  0.0871
  964SOL    HW1 2891   2.481   0.426   1.700  2.5046 -2.8504  0.1292
  964SOL    HW2 2892   2.396   0.402   1.557 -1.3934 -1.2641 -0.4993
  965SOL     OW 2893   2.591   3.053   0.170 -0.1918  0.2629 -0.1688
  965SOL    HW1 2894   2.661   3.012   0.099  2.4272 -1.4616 -0.0095
  965SOL    HW2 2895   2.490   3.043   0.131  1.2709  0.4072  0.2986
  966SOL     OW 2896   2.485   2.474   2.205 -0.0866  0.0511  0.0268
  966SOL    HW1 2897   2.399   2.486   2.260  0.5888 -2.0670  2.0592
  966SOL    HW2 2898   2.520   2.563   2.160 -1.9170 -0.7839  0.1254
  967SOL     OW 2899   2.820   2.815   2.459 -0.0523  0.8311 -0.0193
  967SOL    HW1 2900   2.840   2.747   2.379  0.3248  0.3676 -1.4986
  967SOL    HW2 2901   2.901   2.879   2.470 -0.1300 -0.2222  1.3078
  968SOL     OW 2902   1.951   1.065   2.656  0.3231  0.2302  0.7978
  968SOL    HW1 2903   1.880   1.109   2.594 -2.8389  2.4083 -1.0708
  968SOL    HW2 2904   2.004   0.992   2.608 -2.7724 -0.9466 -2.2300
  969SOL     OW 2905   2.769   2.432   1.083  0.3587 -0.2252  0.3017
  969SOL    HW1 2906   2.757   2.398   0.985  0.9386 -0.8452 -0.6420
  969SOL    HW2 2907   2.794   2.355   1.147 -1.0403  2.0451  0.5279
  970SOL     OW 2908   1.064   2.134   1.762 -0.2168  0.2236  0.3673
  970SOL    HW1 2909   0.971   2.153   1.719  1.4090 -0.0653 -0.7300
  970SOL    HW2 2910   1.067   2.176   1.859  1.7624 -0.0438 -1.3678
  971SOL     OW 2911   2.829   2.088   1.877 -0.4675 -0.1600  0.4767
  971SOL    HW1 2912   2.838   2.192   1.899 -1.4932  2.1105 -0.9376
  971SOL    HW2 2913   2.873   2.064   1.785  3.5619  2.3587  0.1223
  972SOL     OW 2914   1.942   2.422   0.189 -0.1163 -0.0148  0.3648
  972SOL    HW1 2915   1.967   2.355   0.115 -0.1541 -0.8073  3.3348
  972SOL    HW2 2916   1.974   2.401   0.282 -1.3267  0.5418 -0.6029
  973SOL     OW 2917   1.342   1.061   1.868  0.3519  0.0365  0.3236
  973SOL    HW1 2918   1.270   1.011   1.812 -0.2017  1.0843  1.9541
  973SOL    HW2 2919   1.309   1.154   1.894  3.2325 -1.2037 -1.2606
  974SOL     OW 2920   1.628   0.555   1.988 -0.2439  0.1372 -0.3575
  974SOL    HW1 2921   1.688   0.570   1.907  0.2803 -1.4149  1.9753
  974SOL    HW2 2922   1.555   0.628   2.001  3.6651  0.2309  0.0356
  975SOL     OW 2923   2.350   3.033   0.026  0.3393 -0.8795 -0.8187
  975SOL    HW1 2924   2.328   2.935   0.058 -1.9325 -2.5524  0.5964
  975SOL    HW2 2925   2.364   3.039  -0.074  0.3857 -0.2948  0.6435
  976SOL     OW 2926   1.911   2.863   2.342 -0.4940  0.4624 -0.2694
  976SOL    HW1 2927   1.826   2.831   2.293 -0.3306  3.4008  1.0052
  976SOL    HW2 2928   1.929   2.795   2.424 -0.4319  1.3079  2.5340
  977SOL     OW 2929   0.464   0.709   1.042 -0.1429 -0.4306 -0.5472
  977SOL    HW1 2930   0.386   0.708   0.968  0.0777 -1.0313  1.0781
  977SOL    HW2 2931   0.558   0.682   1.008  0.9020  3.4185 -1.0904
   3.10000   3.10000   3.10000
