1000 SPC/Fw water molecules t=   0.60000 step= 600
 2931
    1SOL     OW    1   2.485   0.377   2.611 -0.2747  0.2522 -0.1590
    1SOL    HW1    2   2.519   0.280   2.591  0.7322  1.2950  1.4909
    1SOL    HW2    3   2.523   0.408   2.705  1.5011 -0.2104 -0.3742
    2SOL     OW    4   2.698   3.050   1.410  0.0712  0.5886 -0.3188
    2SOL    HW1    5   2.748   3.101   1.334 -0.5995  0.8633 -2.1626
    2SOL    HW2    6   2.650   3.116   1.475  1.8564 -0.4358 -1.3028
    3SOL     OW    7   2.741   2.586   0.389 -0.3173  0.2262 -0.4871
    3SOL    HW1    8   2.705   2.490   0.398 -0.4170 -1.4496 -1.7683
    3SOL    HW2    9   2.817   2.607   0.455  0.8044 -1.9682 -2.0229
    4SOL     OW   10   1.291   1.453   2.361 -0.6212  0.1604  0.1503
    4SOL    HW1   11   1.199   1.497   2.364  2.3573 -2.6694 -0.6300
    4SOL    HW2   12   1.289   1.356   2.389  1.0851  2.3106  0.0345
    5SOL     OW   13   1.190   1.497   3.071 -0.3323  0.0268  0.3627
    5SOL    HW1   14   1.253   1.569   3.106  1.1330 -0.8121 -0.8110
    5SOL    HW2   15   1.088   1.528   3.080  0.0792  1.6510  0.4514
    6SOL     OW   16   0.087   1.835   2.930  0.7095  0.2666  0.2216
    6SOL    HW1   17   0.019   1.898   2.978 -0.9269 -1.2943  1.6498
    6SOL    HW2   18   0.140   1.773   2.990 -4.1683 -1.3260 -0.6308
    7SOL     OW   19   2.540   0.905   1.155 -0.9652  0.0816 -0.2174
    7SOL    HW1   20   2.477   0.824   1.164 -1.4330 -3.9604  1.7594
    7SOL    HW2   21   2.552   0.939   1.058 -1.8907  1.9498  0.4714
    8SOL     OW   22   0.447   0.593   1.532 -0.3473 -0.0866  0.2143
    8SOL    HW1   23   0.537   0.563   1.569 -1.7794 -2.2649  0.5575
    8SOL    HW2   24   0.422   0.557   1.437 -1.4130  0.1118 -1.0645
    9SOL     OW   25   1.157   0.924   2.303 -0.5103 -0.4109  0.3196
    9SOL    HW1   26   1.235   0.983   2.260  1.0910  0.5145  0.3413
    9SOL    HW2   27   1.117   0.858   2.241 -0.1617  0.9648  0.4883
   10SOL     OW   28   0.675   1.343   1.269 -0.1299 -0.2512  0.2910
   10SOL    HW1   29   0.591   1.383   1.221 -2.2376  1.8543 -2.0748
   10SOL    HW2   30   0.755   1.411   1.291  1.4762 -2.5039 -1.4634
   11SOL     OW   31   2.369   2.724   0.947 -0.2638  0.7505 -0.8870
   11SOL    HW1   32   2.381   2.724   1.051  1.5816 -3.7526 -2.3199
   11SOL    HW2   33   2.461   2.725   0.898  1.5227  2.2097  0.8375
   12SOL     OW   34   1.472   0.899   0.327 -0.0345 -1.1616 -0.2519
   12SOL    HW1   35   1.390   0.957   0.306  1.5207  0.3923  0.5539
   12SOL    HW2   36   1.470   0.811   0.276 -0.3495 -0.3800  1.4671
   13SOL     OW   37   2.507   0.661   1.794 -0.5901 -0.3887 -0.1314
   13SOL    HW1   38   2.429   0.653   1.861 -0.0808 -2.2986 -0.7986
   13SOL    HW2   39   2.483   0.648   1.691  0.1729 -0.3334  0.6325
   14SOL     OW   40   1.961   0.076   0.748 -0.1566  0.5554  0.0077
   14SOL    HW1   41   1.908   0.085   0.659 -2.2690 -0.6073 -0.3141
   14SOL    HW2   42   1.922  -0.000   0.805 -0.3136 -0.1813  0.4815
   15SOL     OW   43   1.940   1.996   2.784  0.0011 -0.0488 -0.2486
   15SOL    HW1   44   1.900   2.085   2.805  0.2558  0.2740 -1.4968
   15SOL    HW2   45   1.867   1.927   2.752  0.3761 -0.5532  3.7748
   16SOL     OW   46   1.618   1.713   3.008  0.2173  0.1124  0.1148
   16SOL    HW1   47   1.649   1.620   3.041 -1.9732  1.4813  2.4961
   16SOL    HW2   48   1.666   1.785   3.063 -0.1905 -0.3611 -2.2730
   17SOL     OW   49   0.100   0.515   0.149  0.1201  0.1108 -0.2540
   17SOL    HW1   50   0.183   0.531   0.089 -0.1572 -0.0414  0.5940
   17SOL    HW2   51   0.012   0.536   0.101 -1.5198  3.2201  0.8780
   18SOL     OW   52   0.976   2.967   2.124 -1.1557  0.7643  0.2582
   18SOL    HW1   53   0.920   2.881   2.143  2.5533  1.6256 -1.3226
   18SOL    HW2   54   1.050   2.950   2.051  3.3209 -0.2190  1.9755
   19SOL     OW   55   0.515   0.826   1.907 -0.1661 -0.1011  0.2044
   19SOL    HW1   56   0.515   0.823   2.013  0.2214  1.5352  0.5487
   19SOL    HW2   57   0.609   0.813   1.865 -4.5856  1.9425 -0.9547
   20SOL     OW   58   0.197   2.792   0.817  0.3053 -0.3521  0.3518
   20SOL    HW1   59   0.137   2.860   0.761 -0.8620  1.3460  0.1543
   20SOL    HW2   60   0.298   2.784   0.789  0.7923  0.4399  0.8122
   21SOL     OW   61   2.778   0.190   2.060  0.2848 -0.2952  0.0993
   21SOL    HW1   62   2.710   0.123   2.018  0.3368  1.5952 -0.9641
   21SOL    HW2   63   2.855   0.152   2.114 -0.3796  1.2812 -0.5618
   22SOL     OW   64   2.357   0.222   0.094  0.1495 -0.6370  0.1902
   22SOL    HW1   65   2.364   0.125   0.070  1.8908  3.4621 -0.1242
   22SOL    HW2   66   2.259   0.261   0.088 -1.7370 -0.3246 -1.0966
   23SOL     OW   67   2.731   0.639   0.619 -0.0239 -0.0446  0.0694
   23SOL    HW1   68   2.772   0.553   0.587  1.9897 -0.3158  0.2561
   23SOL    HW2   69   2.731   0.718   0.550  0.8339  3.1904 -1.1727
   24SOL     OW   70   0.143   1.923   0.373  0.5581  0.1963  0.0446
   24SOL    HW1   71   0.084   1.967   0.297 -1.9641  2.9952  2.8470
   24SOL    HW2   72   0.240   1.892   0.350  1.6839 -2.9893 -1.2110
   25SOL     OW   73   2.215   0.503   0.258  0.1384 -0.2979  0.4040
   25SOL    HW1   74   2.250   0.585   0.314  1.1169  2.9468  2.1487
   25SOL    HW2   75   2.229   0.502   0.157 -1.6723 -2.7501  1.4056
   26SOL     OW   76   2.538   2.114   2.073 -0.8269 -0.0552  0.1805
   26SOL    HW1   77   2.594   2.160   2.146 -1.8486  0.5715 -2.2971
   26SOL    HW2   78   2.588   2.038   2.026  0.4160 -2.2261 -0.4616
   27SOL     OW   79   0.600   2.935   0.168 -0.0677  0.2349  0.1448
   27SOL    HW1   80   0.702   2.936   0.194 -1.1835  1.7524  2.1618
   27SOL    HW2   81   0.591   2.945   0.066  0.4450  0.1409  0.5830
   28SOL     OW   82   1.532   0.181   0.298 -0.2109 -0.0678 -0.2424
   28SOL    HW1   83   1.574   0.161   0.202  0.3732 -1.5636  0.6487
   28SOL    HW2   84   1.539   0.281   0.330  3.0911  1.3806 -0.4476
   29SOL     OW   85   1.976   0.526   0.374 -0.1773  1.1338  0.6376
   29SOL    HW1   86   1.963   0.622   0.394  1.2712 -1.7811 -0.0216
   29SOL    HW2   87   2.064   0.510   0.314  0.4463 -1.2571  2.3691
   30SOL     OW   88   0.230   2.045   0.890  0.1401 -0.3119  0.0860
   30SOL    HW1   89   0.228   2.051   0.782 -3.4429 -0.7934 -1.3733
   30SOL    HW2   90   0.144   2.085   0.930 -0.0313  3.7358 -2.7621
   31SOL     OW   91   2.094   3.082   2.305  0.0013 -0.1889 -0.0052
   31SOL    HW1   92   2.085   3.079   2.406  0.0732 -0.6064 -2.0938
   31SOL    HW2   93   2.004   3.090   2.254 -0.9800 -3.4734  3.1209
   32SOL     OW   94   2.956   0.199   0.245  0.1121 -0.1466  0.1911
   32SOL    HW1   95   2.898   0.127   0.302 -1.7359 -0.7129  2.5715
   32SOL    HW2   96   3.046   0.218   0.293 -1.1606 -0.0114  1.2084
   33SOL     OW   97   0.927   0.345   0.588  0.7373 -0.1114  0.4447
   33SOL    HW1   98   0.934   0.266   0.526 -1.2154  1.7450 -0.7371
   33SOL    HW2   99   1.022   0.374   0.623 -3.4289 -4.4739  2.7918
   34SOL     OW  100   0.365   2.831   1.097 -0.2841 -0.5546  0.8325
   34SOL    HW1  101   0.321   2.753   1.047  1.3509  0.2582 -0.7196
   34SOL    HW2  102   0.459   2.852   1.057 -0.0364  0.6390  0.8514
   35SOL     OW  103   0.020   0.215   1.856 -0.2178  0.0753 -0.3889
   35SOL    HW1  104   0.067   0.125   1.878 -1.3160 -0.5212 -0.8961
   35SOL    HW2  105  -0.044   0.210   1.778  0.0673  1.8109  0.0470
   36SOL     OW  106   1.947   1.080   1.844  0.6377  0.0245 -0.1975
   36SOL    HW1  107   2.007   1.077   1.755 -0.2335 -1.7317  2.9495
   36SOL    HW2  108   1.975   1.145   1.915 -1.4451 -1.7791  0.1679
   37SOL     OW  109   1.205   0.163   0.912  0.2923  0.1902 -0.7775
   37SOL    HW1  110   1.227   0.216   1.002  0.3380  2.1954  0.3115
   37SOL    HW2  111   1.272   0.087   0.889  2.6432 -0.2061  0.4718
   38SOL     OW  112   1.114   2.769   2.422 -0.0178  0.4591 -0.4134
   38SOL    HW1  113   1.047   2.682   2.428 -1.2750 -0.8786  0.7872
   38SOL    HW2  114   1.072   2.862   2.428  1.5772  0.4002  1.3084
   39SOL     OW  115   2.326   1.392   3.008  0.8223  0.5195 -0.0605
   39SOL    HW1  116   2.412   1.339   3.036  1.1144 -2.2517  1.1471
   39SOL    HW2  117   2.272   1.427   3.089 -4.3757 -1.4460 -0.1580
   40SOL     OW  118   2.111   2.517   2.535 -0.3815 -0.1232  0.8386
   40SOL    HW1  119   2.063   2.592   2.595 -1.8391  0.9180  1.8315
   40SOL    HW2  120   2.035   2.452   2.503 -4.7824 -0.6980  1.7538
   41SOL     OW  121   2.946   0.687   2.746  0.3830 -0.0124  0.4588
   41SOL    HW1  122   2.853   0.731   2.734 -4.2919 -0.4297  1.1802
   41SOL    HW2  123   2.942   0.586   2.727 -0.9436 -1.3296 -0.7778
   42SOL     OW  124   1.773   1.762   0.543  0.1858  0.8502 -0.8135
   42SOL    HW1  125   1.718   1.679   0.516  0.8083  0.1338 -0.3042
   42SOL    HW2  126   1.789   1.826   0.463 -3.0787 -0.8152 -0.2969
   43SOL     OW  127   0.489   1.720   1.077 -0.0402  0.1802 -0.5300
   43SOL    HW1  128   0.456   1.623   1.097  0.2142 -0.3027 -0.4309
   43SOL    HW2  129   0.413   1.784   1.103  2.0444 -2.7443  1.9110
   44SOL     OW  130   1.824   2.477   3.053  0.1962  0.0842 -0.1124
   44SOL    HW1  131   1.794   2.556   2.993  2.5982 -2.0946  2.2643
   44SOL    HW2  132   1.911   2.500   3.110 -1.2748 -0.4018 -1.2414
   45SOL     OW  133   0.314   1.909   2.616  0.6281 -0.0141  0.3338
   45SOL    HW1  134   0.258   1.919   2.527 -4.7034 -1.5261 -0.4340
   45SOL    HW2  135   0.389   1.835   2.610  0.8469 -3.4452 -0.2375
   46SOL     OW  136   1.217   0.645   0.147  0.5494  0.2826 -0.2911
   46SOL    HW1  137   1.254   0.741   0.133  2.5440  0.7091  0.2935
   46SOL    HW2  138   1.129   0.649   0.207  0.2921 -0.4515  1.8855
   47SOL     OW  139   0.200   2.452   1.644  0.6007 -0.4406  0.0609
   47SOL    HW1  140   0.271   2.377   1.633 -1.8955  1.0766 -1.0638
   47SOL    HW2  141   0.180   2.493   1.552 -0.1920  2.6087 -1.7893
   48SOL     OW  142   2.626   0.614   0.137  0.5050  0.4565 -0.2817
   48SOL    HW1  143   2.578   0.586   0.224  0.6317 -0.8717 -0.2414
   48SOL    HW2  144   2.720   0.659   0.162 -3.4846 -1.4222  4.1817
   49SOL     OW  145   0.352   0.769   1.709 -0.1971 -0.1779  0.3450
   49SOL    HW1  146   0.415   0.777   1.791 -1.7553  1.0649 -0.1499
   49SOL    HW2  147   0.378   0.699   1.638  0.0482  1.7802 -2.1505
   50SOL     OW  148   1.656   1.125   0.316 -0.1664  0.2555  0.3477
   50SOL    HW1  149   1.626   1.025   0.298  0.3705 -1.1208 -0.8844
   50SOL    HW2  150   1.604   1.167   0.400 -0.1815 -0.1646 -2.9849
   51SOL     OW  151   2.911   1.852   0.353 -0.2210 -0.7310  0.6279
   51SOL    HW1  152   2.872   1.820   0.265  2.4320  0.2775 -0.5161
   51SOL    HW2  153   2.947   1.777   0.416 -1.9728 -2.8354  0.9781
   52SOL     OW  154   0.808   1.945   0.470 -0.8952  1.3157  0.2271
   52SOL    HW1  155   0.723   1.994   0.499 -2.4696 -0.3622 -2.9075
   52SOL    HW2  156   0.834   1.867   0.539 -0.3167  2.7641  1.3164
   53SOL     OW  157   0.014   0.391   1.564  0.8762  0.5379  0.2066
   53SOL    HW1  158   0.060   0.427   1.651  1.4247  1.5138 -1.6584
   53SOL    HW2  159  -0.004   0.472   1.493  3.7094  0.3233 -1.3148
   54SOL     OW  160   1.768   0.470   3.082 -0.2545  0.2473  0.4325
   54SOL    HW1  161   1.803   0.428   3.170 -1.7320  0.0775 -2.9328
   54SOL    HW2  162   1.664   0.455   3.077 -0.6251  0.3473  1.0487
   55SOL     OW  163   0.753   2.892   0.667  0.5389  0.0813  0.5198
   55SOL    HW1  164   0.684   2.966   0.700 -1.5970  1.0356  0.7850
   55SOL    HW2  165   0.840   2.921   0.614  0.3131 -2.6632 -0.2688
   56SOL     OW  166   0.437   1.568   3.055 -0.1703  0.0229  0.2370
   56SOL    HW1  167   0.330   1.575   3.077 -1.6947 -2.7473  1.9768
   56SOL    HW2  168   0.463   1.481   3.010  3.6458 -0.8381 -1.1837
   57SOL     OW  169   1.818   2.506   2.662 -0.0306  0.3060 -0.8126
   57SOL    HW1  170   1.836   2.487   2.558 -1.3284  0.4633 -1.0249
   57SOL    HW2  171   1.725   2.540   2.687 -0.1136  0.1075 -1.3589
   58SOL     OW  172   0.651   0.368   1.045  0.2773 -0.3636 -0.2762
   58SOL    HW1  173   0.577   0.435   1.027 -0.4041 -0.4379 -0.6931
   58SOL    HW2  174   0.606   0.273   1.057 -3.5909  1.0389 -2.4184
   59SOL     OW  175   0.400   2.392   2.770  0.1375  0.4612  0.3999
   59SOL    HW1  176   0.412   2.295   2.727 -0.8165 -1.4185  0.3632
   59SOL    HW2  177   0.481   2.417   2.826 -0.6189  1.5091  0.8035
   60SOL     OW  178   2.315   2.054   2.214  0.3704 -0.4603 -0.1821
   60SOL    HW1  179   2.405   2.078   2.172 -2.1229 -4.5423  0.5904
   60SOL    HW2  180   2.315   2.069   2.315 -2.9439 -0.6271 -1.2162
   61SOL     OW  181   1.301   0.583   0.526  0.1137  0.3993 -0.8589
   61SOL    HW1  182   1.215   0.632   0.542  1.6892  0.8666 -0.8398
   61SOL    HW2  183   1.306   0.537   0.435 -0.2851  1.7256 -0.8309
   62SOL     OW  184   2.680   1.795   2.927  0.1598  0.3379 -0.1243
   62SOL    HW1  185   2.691   1.697   2.949  1.1014  0.6226 -2.3096
   62SOL    HW2  186   2.768   1.841   2.885  1.3428  4.2028 -1.1809
   63SOL     OW  187   0.596   0.930   0.166  0.6082 -0.1318  0.1313
   63SOL    HW1  188   0.540   1.017   0.151 -0.6123 -1.7819  1.7225
   63SOL    HW2  189   0.694   0.933   0.198 -0.6872  2.2923 -1.1956
   64SOL     OW  190   0.091   0.571   2.543  0.5363 -0.1528  0.0471
   64SOL    HW1  191   0.095   0.612   2.641  2.0109 -2.9934 -0.3121
   64SOL    HW2  192   0.104   0.645   2.468  0.9112 -0.5611 -3.1354
   65SOL     OW  193   0.209   1.486   0.559  0.1870  0.0331  0.4129
   65SOL    HW1  194   0.251   1.543   0.629  1.0793  0.0998 -0.7718
   65SOL    HW2  195   0.283   1.438   0.510 -0.5194  1.4605  2.0149
   66SOL     OW  196   2.528   0.424   0.593 -0.0131 -0.6710 -0.4956
   66SOL    HW1  197   2.446   0.466   0.636  3.5800  0.9984 -0.9370
   66SOL    HW2  198   2.534   0.320   0.606 -0.0639 -0.2362  1.0813
   67SOL     OW  199   0.559   2.526   1.381 -0.0313 -0.0148 -0.1179
   67SOL    HW1  200   0.612   2.527   1.471  1.2332  0.9807 -0.7959
   67SOL    HW2  201   0.498   2.442   1.377  1.3728  0.4719 -2.3315
   68SOL     OW  202   1.014   1.106   2.449 -0.1676  0.4030 -0.1290
   68SOL    HW1  203   1.044   1.016   2.404 -3.6342 -1.5246 -1.2636
   68SOL    HW2  204   0.923   1.133   2.402 -0.1578  1.2942 -1.3727
   69SOL     OW  205   0.794   2.770   2.202 -0.0303  0.5225  0.6721
   69SOL    HW1  206   0.821   2.674   2.186 -0.8414 -0.6010 -0.9200
   69SOL    HW2  207   0.692   2.777   2.193  2.5688 -0.2465 -1.3951
   70SOL     OW  208   0.613   0.288   2.713 -0.4820  0.2772  0.2687
   70SOL    HW1  209   0.589   0.366   2.773 -1.1343  1.6597 -1.2727
   70SOL    HW2  210   0.597   0.195   2.747 -1.0843  1.7762 -1.2528
   71SOL     OW  211   1.056   1.760   0.336  0.1395 -0.6270  0.0916
   71SOL    HW1  212   0.973   1.699   0.359 -0.1426 -1.7912  1.6867
   71SOL    HW2  213   1.043   1.796   0.243 -0.7112  0.0834  3.0622
   72SOL     OW  214   1.777   0.167   2.042  0.9081  0.0505  0.6608
   72SOL    HW1  215   1.810   0.182   1.945 -2.5077  1.4294  0.0723
   72SOL    HW2  216   1.805   0.073   2.084 -2.2241 -0.7521 -1.8872
   73SOL     OW  217   2.793   2.162   2.466  0.2366 -0.5080 -0.6610
   73SOL    HW1  218   2.781   2.070   2.439  1.0765  4.5279  0.1440
   73SOL    HW2  219   2.818   2.165   2.567  2.3955  1.0406  1.2840
   74SOL     OW  220   2.724   2.921   2.030  0.2077 -0.4600  0.0620
   74SOL    HW1  221   2.686   2.941   2.129 -2.1432 -0.3816  1.5803
   74SOL    HW2  222   2.829   2.937   2.022 -0.6367 -1.9598  1.3544
   75SOL     OW  223   0.942   0.761   1.049 -0.4573 -0.5435  0.1471
   75SOL    HW1  224   0.845   0.803   1.044 -3.9037  2.4746  1.4286
   75SOL    HW2  225   1.003   0.813   1.120  1.8650  0.8813 -0.8543
   76SOL     OW  226   1.696   1.267   2.537 -0.1909  0.3744 -0.5248
   76SOL    HW1  227   1.609   1.238   2.583 -0.8943  0.6836  2.2270
   76SOL    HW2  228   1.708   1.370   2.550 -1.5460 -0.5502 -0.3290
   77SOL     OW  229   2.936   0.944   0.963  0.1719 -0.4353 -0.1284
   77SOL    HW1  230   2.912   0.847   0.935  1.6624  2.6592 -0.8659
   77SOL    HW2  231   2.985   0.949   1.056  3.5768  2.3717 -2.5493
   78SOL     OW  232   2.058   1.392   1.538  0.0874  0.0869  0.1095
   78SOL    HW1  233   2.140   1.419   1.483  0.2275 -1.3931 -1.9977
   78SOL    HW2  234   1.991   1.339   1.484 -1.1690 -1.9558  3.6116
   79SOL     OW  235   0.648   1.324   0.879  0.2230  0.6947  0.0551
   79SOL    HW1  236   0.551   1.366   0.889  0.9579 -0.5497  1.9744
   79SOL    HW2  237   0.661   1.281   0.787 -0.9843 -0.6485  3.2272
   80SOL     OW  238   0.677   0.469   1.619 -0.0645 -0.2006  0.0722
   80SOL    HW1  239   0.705   0.513   1.529  1.1046  0.5952  0.0208
   80SOL    HW2  240   0.701   0.368   1.633  1.1957 -2.0873  1.2481
   81SOL     OW  241   1.049   1.391   2.597 -0.4463 -0.0757 -0.1203
   81SOL    HW1  242   1.053   1.295   2.613  1.7212  4.1641  1.3014
   81SOL    HW2  243   0.983   1.417   2.520  2.4931 -1.3356 -2.1799
   82SOL     OW  244   0.931   2.944   1.511 -0.3260 -0.0855  0.0862
   82SOL    HW1  245   0.950   2.981   1.419 -0.1662 -1.8918  0.1437
   82SOL    HW2  246   0.852   2.878   1.509 -0.0974  0.9109 -3.1268
   83SOL     OW  247   2.694   2.491   0.846  0.0892  0.6167 -0.2082
   83SOL    HW1  248   2.626   2.422   0.805 -2.0827 -2.0986 -1.3270
   83SOL    HW2  249   2.662   2.586   0.825 -0.6796 -0.7619  1.3558
   84SOL     OW  250   0.698   3.079   2.313 -0.3075 -0.5625 -0.1750
   84SOL    HW1  251   0.629   3.047   2.378  1.2878  3.4662 -1.1770
   84SOL    HW2  252   0.763   3.002   2.292 -0.5372 -1.7260  0.7185
   85SOL     OW  253   0.356   1.616   1.539 -0.2781  0.0544  0.1627
   85SOL    HW1  254   0.298   1.696   1.506  1.9721 -2.6561  0.8936
   85SOL    HW2  255   0.355   1.594   1.640 -1.3626  1.6107 -2.8729
   86SOL     OW  256   0.370   0.966   1.512  0.1097  0.3514  0.0716
   86SOL    HW1  257   0.362   0.921   1.420  0.1943 -0.8937  0.6363
   86SOL    HW2  258   0.374   0.897   1.588 -0.3325  0.6741  1.9284
   87SOL     OW  259   1.554   0.661   0.180 -0.3617 -0.1378 -0.2221
   87SOL    HW1  260   1.642   0.720   0.183  2.5443  3.2804  0.0507
   87SOL    HW2  261   1.548   0.612   0.088  1.2331  0.2839 -0.4349
   88SOL     OW  262   1.579   1.404   0.243  0.0490  0.0325 -0.1980
   88SOL    HW1  263   1.600   1.303   0.250  2.9799  0.2295  0.0482
   88SOL    HW2  264   1.483   1.433   0.247 -0.2016  2.8421  0.2453
   89SOL     OW  265   0.033   0.418   0.593 -0.1917  0.4324 -0.0336
   89SOL    HW1  266   0.095   0.336   0.567  0.4610 -1.0367 -1.9524
   89SOL    HW2  267  -0.065   0.396   0.579  0.4153  1.9251  0.2562
   90SOL     OW  268   0.915   1.571   3.092  0.1199  0.5856  0.1465
   90SOL    HW1  269   0.831   1.559   3.156  1.6673  2.0982  0.7698
   90SOL    HW2  270   0.883   1.584   2.994 -0.4616  0.3553 -0.0416
   91SOL     OW  271   1.263   1.418   1.799 -0.1467 -0.0005 -0.4663
   91SOL    HW1  272   1.230   1.508   1.843 -1.0649  0.6919  1.6624
   91SOL    HW2  273   1.360   1.432   1.759  0.5302 -1.8371  1.3029
   92SOL     OW  274   3.074   0.984   1.211  0.1755 -0.9686  0.3379
   92SOL    HW1  275   3.148   1.049   1.170  0.5700  0.4136  1.2881
   92SOL    HW2  276   3.094   0.959   1.309  0.9024  1.4234 -1.7456
   93SOL     OW  277   3.084   2.744   0.024  0.3859  0.2425  0.2359
   93SOL    HW1  278   3.031   2.751  -0.066  3.0714 -1.3126 -1.5657
   93SOL    HW2  279   3.121   2.647   0.023  0.2132 -0.2635 -2.0058
   94SOL     OW  280   1.543   1.479   1.729 -0.1929 -0.0369  0.9764
   94SOL    HW1  281   1.613   1.404   1.705  0.4453  1.8601 -0.0997
   94SOL    HW2  282   1.585   1.541   1.800 -0.1672  0.1581  2.1655
   95SOL     OW  283   1.374   2.516   3.020  0.8477 -0.3515  0.2594
   95SOL    HW1  284   1.307   2.502   3.099  1.8977 -0.8883 -0.2980
   95SOL    HW2  285   1.364   2.444   2.949 -0.3939  3.0376  0.5181
   96SOL     OW  286   0.526   2.037   1.310  0.2416 -0.0486  0.3057
   96SOL    HW1  287   0.494   2.034   1.209 -1.2518  2.3838 -0.8061
   96SOL    HW2  288   0.578   1.954   1.347 -0.5892  1.0147  2.1031
   97SOL     OW  289   0.406   1.615   2.447  0.1982  0.4061 -0.1294
   97SOL    HW1  290   0.318   1.616   2.500  1.3421  1.2438 -1.0187
   97SOL    HW2  291   0.483   1.659   2.505  1.6773 -1.3495  1.6936
   98SOL     OW  292   1.955   1.581   1.244  0.1006  0.0567 -0.4379
   98SOL    HW1  293   1.934   1.520   1.329 -1.3205 -1.4358  0.5347
   98SOL    HW2  294   1.980   1.525   1.159 -0.6312 -0.0320  1.9095
   99SOL     OW  295   2.483   2.123   1.367 -0.5641  0.1707 -0.2493
   99SOL    HW1  296   2.482   2.181   1.453  2.0863  0.9711 -0.5213
   99SOL    HW2  297   2.458   2.026   1.392 -0.4030  0.9086  1.5623
  100SOL     OW  298   2.296   0.376   2.080  0.1127 -0.4619 -0.0631
  100SOL    HW1  299   2.232   0.340   2.150  0.0025 -0.5472  0.4030
  100SOL    HW2  300   2.354   0.452   2.106 -1.6170  0.4498 -1.5443
  101SOL     OW  301   0.367   1.497   0.257 -0.0867  0.0707  0.3674
  101SOL    HW1  302   0.406   1.510   0.351 -0.6875  0.2480 -0.5273
  101SOL    HW2  303   0.409   1.554   0.184 -1.8292 -0.7079  0.1402
  102SOL     OW  304   2.308   1.008   0.835  0.0819  0.1106 -0.0693
  102SOL    HW1  305   2.206   0.979   0.830 -2.1910  0.2960 -3.2102
  102SOL    HW2  306   2.332   1.086   0.773 -0.5429 -0.6974  3.2305
  103SOL     OW  307   2.291   0.008   0.409  0.4303  0.6402 -0.0593
  103SOL    HW1  308   2.315   0.108   0.411 -2.1289 -1.0579 -0.4455
  103SOL    HW2  309   2.354  -0.049   0.473 -0.6157 -2.9723  1.0258
  104SOL     OW  310   0.076   1.729   2.202 -0.0292  0.0672  0.1227
  104SOL    HW1  311   0.122   1.705   2.114  0.2015 -0.0658 -3.5714
  104SOL    HW2  312  -0.024   1.730   2.187  1.4993 -1.3313 -2.3110
  105SOL     OW  313   1.277   2.102   0.788  0.1299  0.5107 -0.4773
  105SOL    HW1  314   1.189   2.109   0.732  0.2151 -1.9567  0.8406
  105SOL    HW2  315   1.312   2.005   0.797  1.0455  1.9284  1.0420
  106SOL     OW  316   2.150   0.552   1.390  0.0764 -0.2323  0.4045
  106SOL    HW1  317   2.094   0.468   1.403  2.5449 -0.3144 -0.3359
  106SOL    HW2  318   2.132   0.623   1.462 -0.6599 -1.3236 -0.0242
  107SOL     OW  319   1.761   2.997   1.119 -0.0019 -0.3910  0.4180
  107SOL    HW1  320   1.815   3.075   1.166 -0.4162  1.3648  0.8688
  107SOL    HW2  321   1.703   2.949   1.186  0.9878 -0.9631  0.7982
  108SOL     OW  322   0.821   2.766   1.202  0.3680  0.2362 -0.4229
  108SOL    HW1  323   0.775   2.772   1.293 -0.6666 -1.5492 -0.9098
  108SOL    HW2  324   0.922   2.751   1.210 -0.4735  0.3182  0.2679
  109SOL     OW  325   2.249   0.135   0.771  0.0859 -0.7907 -0.1210
  109SOL    HW1  326   2.153   0.132   0.740  1.0971  0.4781  0.9998
  109SOL    HW2  327   2.248   0.132   0.874 -0.6351 -1.4025 -1.8411
  110SOL     OW  328   0.449   2.849   2.738  0.0110  0.8257  0.1889
  110SOL    HW1  329   0.451   2.857   2.633 -1.0288  0.0696 -0.8559
  110SOL    HW2  330   0.518   2.774   2.769 -1.0139 -3.4047  0.1318
  111SOL     OW  331   1.318   0.512   2.274 -0.1672 -0.3616 -0.2405
  111SOL    HW1  332   1.249   0.568   2.329 -0.7795  1.5193  0.5301
  111SOL    HW2  333   1.364   0.448   2.342 -0.7576  2.3971  0.1158
  112SOL     OW  334   1.749   0.492   1.478  0.0542  0.0743  0.3500
  112SOL    HW1  335   1.767   0.463   1.380  0.5246 -1.0707  0.8517
  112SOL    HW2  336   1.705   0.420   1.543  0.4412  2.4302  0.7558
  113SOL     OW  337   2.259   1.638   1.773 -0.0873  0.1929  0.3274
  113SOL    HW1  338   2.316   1.552   1.757  1.7048  2.6318 -0.4863
  113SOL    HW2  339   2.287   1.681   1.865 -2.4087 -0.4802  2.9000
  114SOL     OW  340   0.380   0.519   1.243  0.9614 -0.3679 -0.4544
  114SOL    HW1  341   0.441   0.561   1.169  0.4465 -0.5480 -2.1221
  114SOL    HW2  342   0.294   0.467   1.203 -3.2665  0.1908  0.8193
  115SOL     OW  343   2.763   1.651   1.268  0.5303  0.0570  0.5271
  115SOL    HW1  344   2.772   1.551   1.286  2.0280 -0.9398 -0.5044
  115SOL    HW2  345   2.776   1.677   1.168 -0.7430  1.2852  1.6017
  116SOL     OW  346   1.828   1.026   0.712  0.0789  0.8250 -0.0064
  116SOL    HW1  347   1.741   0.980   0.688  4.7291 -0.9401 -1.3398
  116SOL    HW2  348   1.809   1.112   0.768 -0.7635 -0.5668  1.3086
  117SOL     OW  349   1.166   0.401   0.681  0.1026 -0.4770  0.2243
  117SOL    HW1  350   1.157   0.398   0.785  1.3639 -0.4660  2.9553
  117SOL    HW2  351   1.233   0.472   0.647 -1.0080 -2.3847  2.5389
  118SOL     OW  352   1.096   1.155   1.070  0.3431  0.5745  0.1247
  118SOL    HW1  353   1.056   1.074   1.109  0.5648 -0.9786 -1.7874
  118SOL    HW2  354   1.141   1.220   1.141 -0.9624  2.5501 -1.1146
  119SOL     OW  355   1.838   1.625   2.101 -0.4451 -0.1142 -0.3234
  119SOL    HW1  356   1.827   1.727   2.115 -0.6238  2.2877  1.2279
  119SOL    HW2  357   1.943   1.588   2.106  2.0884 -3.0097 -0.9630
  120SOL     OW  358   2.946   2.848   0.226 -0.1235  0.0236 -0.4664
  120SOL    HW1  359   3.012   2.833   0.150 -2.1806  1.3338  1.6450
  120SOL    HW2  360   2.871   2.773   0.234 -0.3665 -3.2989 -1.0265
  121SOL     OW  361   2.021   0.771   2.281  0.2816  0.0894  0.2288
  121SOL    HW1  362   2.001   0.818   2.188  0.9358 -0.7363  1.3627
  121SOL    HW2  363   2.039   0.671   2.272 -0.4718  0.0452  2.6047
  122SOL     OW  364   2.595   2.692   1.242 -0.0990  0.9058  0.1392
  122SOL    HW1  365   2.628   2.604   1.198 -0.4190 -1.9320 -3.0289
  122SOL    HW2  366   2.573   2.768   1.173 -1.5877  0.2625  1.9969
  123SOL     OW  367   1.729   0.062   1.675 -0.4185 -0.0360 -0.0726
  123SOL    HW1  368   1.745  -0.032   1.628 -0.6349 -0.9282  0.3971
  123SOL    HW2  369   1.816   0.102   1.715  2.1236  2.0247 -1.1818
  124SOL     OW  370   0.126   0.412   1.109  0.3948 -0.3532  0.6410
  124SOL    HW1  371   0.093   0.489   1.168 -0.5266  2.2066 -4.3678
  124SOL    HW2  372   0.105   0.433   1.004  1.5977  1.3120 -1.9416
  125SOL     OW  373   0.848   1.782   0.677 -0.1129  0.8187  0.2516
  125SOL    HW1  374   0.951   1.763   0.675 -1.0106 -0.9397 -0.7920
  125SOL    HW2  375   0.805   1.747   0.766  1.9393  1.8951  0.4131
  126SOL     OW  376   1.911   2.332   2.445 -0.1896 -0.6633  0.3782
  126SOL    HW1  377   1.952   2.305   2.353  1.4053 -0.3190  0.8295
  126SOL    HW2  378   1.847   2.254   2.477 -0.3017 -1.2525  0.3019
  127SOL     OW  379   0.840   0.902   0.321  0.4335 -0.3903  0.0278
  127SOL    HW1  380   0.857   0.919   0.421 -1.5522 -0.6462  1.2548
  127SOL    HW2  381   0.850   0.800   0.300 -2.1713 -1.3425 -3.5729
  128SOL     OW  382   0.968   0.200   1.373  0.2592  0.7778 -0.2359
  128SOL    HW1  383   0.976   0.282   1.316 -0.0937 -1.8978  2.2142
  128SOL    HW2  384   0.877   0.159   1.374  0.7473  1.2306 -0.5789
  129SOL     OW  385   1.821   0.691   1.888  0.5801  0.1187  0.3248
  129SOL    HW1  386   1.861   0.694   1.784 -0.4615  0.3566 -2.0635
  129SOL    HW2  387   1.841   0.769   1.949 -1.0905  0.4561  0.0082
  130SOL     OW  388   1.360   2.238   1.017  0.3790  0.2796 -0.1617
  130SOL    HW1  389   1.320   2.210   0.927  2.8599 -0.8071 -0.7066
  130SOL    HW2  390   1.438   2.305   1.001  0.1901 -1.5283 -0.6800
  131SOL     OW  391   3.081   1.453   1.384 -0.4357 -0.3896 -0.3873
  131SOL    HW1  392   3.014   1.375   1.407  1.0408  0.1898 -0.2215
  131SOL    HW2  393   3.174   1.411   1.372 -1.3964  0.6718  0.5479
  132SOL     OW  394   2.005   2.444   0.524 -0.1392  0.3970  0.1425
  132SOL    HW1  395   1.908   2.413   0.496 -0.1459 -1.1787  2.3092
  132SOL    HW2  396   2.042   2.381   0.597 -0.6835 -0.6142  3.0188
  133SOL     OW  397   1.853   2.267   2.775 -0.3116 -0.4239 -0.6093
  133SOL    HW1  398   1.828   2.290   2.873  1.1976 -1.6810  0.3200
  133SOL    HW2  399   1.844   2.351   2.715 -1.6214 -2.5328  1.4441
  134SOL     OW  400   2.673   2.326   1.629 -0.3246 -0.3630  0.3547
  134SOL    HW1  401   2.621   2.316   1.718  1.4126 -0.8904  1.3755
  134SOL    HW2  402   2.760   2.381   1.645 -0.2194 -2.0346  1.9977
  135SOL     OW  403   0.709   1.529   2.660  0.3459 -0.1549 -0.3327
  135SOL    HW1  404   0.671   1.436   2.704 -2.5815 -2.0226  3.0873
  135SOL    HW2  405   0.767   1.502   2.581  1.2022  1.5588 -0.4409
  136SOL     OW  406   1.203   1.962   0.450  0.1980 -0.6896 -0.1028
  136SOL    HW1  407   1.135   2.016   0.511  1.0504 -1.0852 -1.9755
  136SOL    HW2  408   1.163   1.878   0.408 -0.6824  0.6818  2.6594
  137SOL     OW  409   0.385   1.139   2.135  0.7080 -0.3175  0.4495
  137SOL    HW1  410   0.307   1.144   2.200  0.6598 -0.3301  0.3132
  137SOL    HW2  411   0.457   1.074   2.166 -0.4182  1.5241  0.8851
  138SOL     OW  412   2.450   1.487   0.264  0.9146  0.1940  0.4176
  138SOL    HW1  413   2.384   1.457   0.189  2.3654 -3.1439  0.5378
  138SOL    HW2  414   2.451   1.417   0.343  1.2226 -0.2051 -0.4818
  139SOL     OW  415   1.817   2.654   1.290 -0.1410 -0.2720  0.1324
  139SOL    HW1  416   1.729   2.669   1.243  1.1390 -1.1239  2.9048
  139SOL    HW2  417   1.829   2.554   1.313 -2.6874  2.7523 -0.4206
  140SOL     OW  418   2.991   2.921   2.612 -0.5590 -0.6959 -0.4030
  140SOL    HW1  419   3.049   2.840   2.594 -1.1646 -1.3926  1.5287
  140SOL    HW2  420   3.034   2.995   2.669  1.0075 -1.7568 -2.1463
  141SOL     OW  421   1.270   1.706   1.602 -0.0580  0.0951  0.2830
  141SOL    HW1  422   1.169   1.728   1.615  1.1359 -2.8660 -1.6840
  141SOL    HW2  423   1.318   1.706   1.694 -1.5986 -2.7077  0.3584
  142SOL     OW  424   1.549   0.620   2.183 -0.1332  0.1894  0.1985
  142SOL    HW1  425   1.545   0.627   2.079 -1.3582 -0.2869  0.6564
  142SOL    HW2  426   1.466   0.568   2.222 -2.7286 -2.2383  0.5169
  143SOL     OW  427   2.734   0.888   0.496 -0.0186  0.4519 -0.5481
  143SOL    HW1  428   2.763   0.938   0.410  0.0091  1.7787  1.7451
  143SOL    HW2  429   2.792   0.911   0.575 -1.2269  3.4353 -3.0484
  144SOL     OW  430   2.936   1.213   1.452 -0.0004 -0.7902 -0.0697
  144SOL    HW1  431   2.925   1.169   1.548  0.2847 -0.3791  1.6888
  144SOL    HW2  432   2.959   1.145   1.376  0.0046 -0.9270 -0.9281
  145SOL     OW  433   1.006   1.861   0.084  0.0759  0.2164 -0.0074
  145SOL    HW1  434   1.061   1.917   0.016 -1.3809 -1.2746 -1.6181
  145SOL    HW2  435   0.957   1.784   0.036 -0.5311 -0.0766 -0.0069
  146SOL     OW  436   2.453   0.670   1.544  0.2520  0.6111  0.3935
  146SOL    HW1  437   2.442   0.595   1.471 -1.4902  3.1913 -0.1046
  146SOL    HW2  438   2.402   0.754   1.517 -0.7043 -0.0150 -2.9504
  147SOL     OW  439   1.101   2.458   0.610 -0.3406  0.0585  0.7390
  147SOL    HW1  440   1.060   2.517   0.536  0.4732  3.3254 -2.5650
  147SOL    HW2  441   1.184   2.407   0.574  0.7872  1.0568  0.0647
  148SOL     OW  442   1.647   1.450   3.077  0.2761  0.2785  0.1142
  148SOL    HW1  443   1.660   1.380   3.005 -1.0760  0.8030  1.4222
  148SOL    HW2  444   1.615   1.411   3.168  1.7111 -2.8146 -0.6052
  149SOL     OW  445   0.713   1.445   1.940 -0.2753 -0.3004  0.4805
  149SOL    HW1  446   0.626   1.412   1.988  1.0512  0.3922  0.2023
  149SOL    HW2  447   0.771   1.367   1.900 -0.7004  0.0380 -0.2040
  150SOL     OW  448   3.041   1.256   0.968  0.0956  0.0293  0.2815
  150SOL    HW1  449   3.111   1.259   1.045  0.4395  2.5798  1.3286
  150SOL    HW2  450   2.993   1.168   0.956  0.6811  0.7523  2.4375
  151SOL     OW  451   0.210   0.775   2.085  0.5095 -0.1257 -0.0114
  151SOL    HW1  452   0.164   0.832   2.012  1.8137  0.7930 -1.7234
  151SOL    HW2  453   0.259   0.689   2.055 -1.1575 -2.7068 -1.1650
  152SOL     OW  454   1.375   1.798   1.298  0.2138  0.7314  0.0926
  152SOL    HW1  455   1.357   1.876   1.369  0.5836  0.6703  2.1768
  152SOL    HW2  456   1.287   1.758   1.260 -0.3298 -0.5484  2.3401
  153SOL     OW  457   3.093   1.540   0.179 -1.1519 -0.6269  0.3518
  153SOL    HW1  458   3.106   1.437   0.184 -2.1847 -1.2368  1.5340
  153SOL    HW2  459   3.110   1.580   0.272 -0.8121 -0.1123 -0.8191
  154SOL     OW  460   2.336   1.851   2.794 -0.2315 -0.3059 -0.8435
  154SOL    HW1  461   2.331   1.749   2.818  1.0944  0.0747 -1.3624
  154SOL    HW2  462   2.416   1.871   2.730 -1.1032  2.5124 -0.2141
  155SOL     OW  463   2.424   1.234   0.420 -0.2643  0.2310  0.4829
  155SOL    HW1  464   2.520   1.199   0.408 -0.1025 -0.5363  2.3746
  155SOL    HW2  465   2.355   1.187   0.365 -0.2375 -0.6745 -0.0423
  156SOL     OW  466   2.570   0.961   0.884  0.1529  0.6477 -0.5461
  156SOL    HW1  467   2.469   0.966   0.859  0.7805 -0.4927  0.1114
  156SOL    HW2  468   2.631   1.034   0.843 -2.1044 -1.0322 -0.0478
  157SOL     OW  469   1.256   3.002   3.039  0.2539  0.2113  0.5681
  157SOL    HW1  470   1.295   2.966   2.950  1.0191 -4.3695  0.2707
  157SOL    HW2  471   1.283   3.102   3.044  2.7817 -0.0099  1.3876
  158SOL     OW  472   1.004   1.841   2.005 -0.0677 -0.1491 -0.1727
  158SOL    HW1  473   1.027   1.938   1.972  1.2835 -0.9237  0.9781
  158SOL    HW2  474   0.946   1.838   2.087  2.1464  0.5726 -2.4349
  159SOL     OW  475   0.863   0.449   1.248  0.0500  0.0413 -0.3969
  159SOL    HW1  476   0.808   0.519   1.305  0.3468  0.3505 -2.2698
  159SOL    HW2  477   0.802   0.383   1.200 -0.8832  1.5163  0.8399
  160SOL     OW  478   1.451   2.404   1.674 -0.1249 -0.6088 -0.5471
  160SOL    HW1  479   1.421   2.493   1.631  0.7886 -0.6106  1.2480
  160SOL    HW2  480   1.523   2.365   1.609 -0.5592 -2.0941 -0.7583
  161SOL     OW  481   0.118   2.896   0.324  0.0855 -0.0504  0.0129
  161SOL    HW1  482   0.015   2.889   0.343 -5.9135  1.4243  0.4572
  161SOL    HW2  483   0.135   2.956   0.242 -0.2082 -0.6789 -1.0706
  162SOL     OW  484   2.554   1.931   0.440 -0.4974  0.6246  0.1029
  162SOL    HW1  485   2.538   1.868   0.359 -0.5034 -1.5392  4.2590
  162SOL    HW2  486   2.530   1.872   0.525  1.0839 -2.5071  0.8697
  163SOL     OW  487   1.939   2.721   0.783 -0.3112  0.1509  0.1292
  163SOL    HW1  488   1.920   2.743   0.684  0.7054  0.9486 -0.2461
  163SOL    HW2  489   2.024   2.657   0.795  0.9936 -0.1397 -0.5051
  164SOL     OW  490   3.027   0.195   1.179 -0.4547 -0.4936 -0.5228
  164SOL    HW1  491   3.091   0.275   1.151  1.1816  0.0350  1.5481
  164SOL    HW2  492   3.070   0.119   1.240 -0.2415 -0.8589  2.1849
  165SOL     OW  493   0.926   1.422   0.663 -0.5793 -0.0066  0.5392
  165SOL    HW1  494   0.904   1.480   0.742 -1.9868 -0.5223 -2.3711
  165SOL    HW2  495   0.906   1.475   0.576  0.3270  1.9794  0.2999
  166SOL     OW  496   1.474   1.087   1.742 -0.2718  0.0261 -0.2425
  166SOL    HW1  497   1.395   1.053   1.806  0.7825 -3.4502 -1.2566
  166SOL    HW2  498   1.556   1.132   1.794 -0.1602  0.8862  1.9962
  167SOL     OW  499   0.764   1.906   1.485 -0.4934  0.1927 -0.0652
  167SOL    HW1  500   0.756   1.981   1.552  0.7256  0.3712 -2.0105
  167SOL    HW2  501   0.710   1.819   1.509 -1.4075  1.1595  1.0522
  168SOL     OW  502   1.627   2.401   0.142 -0.7033 -0.4462  0.6430
  168SOL    HW1  503   1.674   2.411   0.051 -1.6923  3.8938  1.0467
  168SOL    HW2  504   1.657   2.326   0.209  0.4958 -0.3530 -0.1545
  169SOL     OW  505   0.203   2.569   2.233 -0.2529 -0.6571 -0.0615
  169SOL    HW1  506   0.234   2.499   2.161  2.6521 -2.3143  1.9037
  169SOL    HW2  507   0.184   2.528   2.328 -2.8622 -1.6742 -2.4361
  170SOL     OW  508   1.229   0.266   1.970 -0.4551 -1.0148  0.2676
  170SOL    HW1  509   1.287   0.228   2.047 -1.5469 -1.7209  1.0652
  170SOL    HW2  510   1.210   0.195   1.894  1.8538 -0.4455  0.5914
  171SOL     OW  511   0.220   0.835   2.373  0.1613  0.0370  0.2545
  171SOL    HW1  512   0.135   0.877   2.411  0.1111 -0.2603 -1.5601
  171SOL    HW2  513   0.221   0.831   2.270 -0.1267 -0.5189 -1.2228
  172SOL     OW  514   0.895   1.091   2.930 -0.2509 -0.7419 -0.1932
  172SOL    HW1  515   0.999   1.111   2.947  0.4573  0.2732 -3.0702
  172SOL    HW2  516   0.870   1.095   2.827 -1.6183  0.4811  0.5701
  173SOL     OW  517   0.654   2.684   0.065 -0.1751 -0.2175  0.1598
  173SOL    HW1  518   0.635   2.760   0.139  0.0883 -2.0508 -1.8303
  173SOL    HW2  519   0.569   2.629   0.043  1.0113 -1.5002 -0.2285
  174SOL     OW  520   1.400   2.852   1.069  0.0658 -0.2106  0.4201
  174SOL    HW1  521   1.379   2.948   1.039  1.7437 -3.4625  0.7666
  174SOL    HW2  522   1.372   2.777   1.001 -0.0053 -1.4182  0.5515
  175SOL     OW  523   0.416   0.053   1.664  0.0325 -0.2824  0.5313
  175SOL    HW1  524   0.474   0.097   1.741  0.5381  1.2635 -0.1694
  175SOL    HW2  525   0.344   0.119   1.621 -0.0703  0.4940  0.1106
  176SOL     OW  526   2.567   0.380   3.061  0.1071 -0.2302  0.4350
  176SOL    HW1  527   2.582   0.459   3.122 -0.4634  0.5673 -1.5865
  176SOL    HW2  528   2.496   0.322   3.115  0.0911  0.2566 -1.6433
  177SOL     OW  529   0.344   0.294   0.963 -0.3205  0.2818  0.5399
  177SOL    HW1  530   0.398   0.212   1.002  0.0555  0.6546 -0.3073
  177SOL    HW2  531   0.257   0.317   1.021  0.1719  2.7842 -3.6660
  178SOL     OW  532   0.043   2.676   2.630  0.6871 -0.2268  0.1553
  178SOL    HW1  533  -0.048   2.629   2.639  0.9121 -2.0999  1.6677
  178SOL    HW2  534   0.092   2.684   2.722 -1.7174  0.0297  1.3657
  179SOL     OW  535   0.017   1.698   1.192 -0.4390 -0.1988  0.4066
  179SOL    HW1  536  -0.055   1.765   1.183  3.3985 -1.2378 -0.6250
  179SOL    HW2  537  -0.013   1.612   1.245 -0.6409  1.4254 -2.1239
  180SOL     OW  538   0.226   1.195   1.862  0.2119 -0.3654  0.6966
  180SOL    HW1  539   0.336   1.196   1.852  2.1749 -1.8279 -1.6493
  180SOL    HW2  540   0.193   1.260   1.933  2.5362  0.1283 -2.9134
  181SOL     OW  541   3.024   1.836   2.521 -0.0999 -0.3385  0.0266
  181SOL    HW1  542   3.086   1.906   2.485  1.5042  0.4048 -2.2755
  181SOL    HW2  543   2.934   1.853   2.465 -0.4017 -0.3674  0.0853
  182SOL     OW  544   2.269   1.292   1.163 -0.2146  0.0974 -0.1236
  182SOL    HW1  545   2.186   1.247   1.122 -0.6916  0.4572 -1.1960
  182SOL    HW2  546   2.300   1.379   1.120  0.9749 -0.2162  2.4198
  183SOL     OW  547   1.488   2.239   2.530  0.1344  0.2208  0.9228
  183SOL    HW1  548   1.405   2.183   2.541 -1.9756 -0.7591 -1.6404
  183SOL    HW2  549   1.571   2.174   2.531  1.5049 -1.3443 -1.5504
  184SOL     OW  550   2.065   0.916   0.789  0.1661 -0.6991 -0.3753
  184SOL    HW1  551   1.976   0.966   0.769  0.1557 -0.2169 -1.7391
  184SOL    HW2  552   2.052   0.823   0.831 -0.3905  0.6877 -1.5377
  185SOL     OW  553   1.571   2.733   2.083  0.4178  0.1509  0.1374
  185SOL    HW1  554   1.553   2.828   2.045  2.3079  1.0367 -0.2308
  185SOL    HW2  555   1.506   2.718   2.165 -0.4943 -1.9685 -1.1363
  186SOL     OW  556   0.061   2.179   1.692 -0.8877  0.3988 -0.2904
  186SOL    HW1  557   0.114   2.260   1.650  1.9510 -0.5274  1.4293
  186SOL    HW2  558   0.132   2.105   1.705 -0.5906  1.7986  0.7745
  187SOL     OW  559   1.389   0.716   1.657 -0.0040  0.2565 -0.2194
  187SOL    HW1  560   1.450   0.718   1.573 -0.2697 -0.4451  0.6330
  187SOL    HW2  561   1.450   0.755   1.733  0.9049 -1.4336  1.9485
  188SOL     OW  562   2.788   2.790   1.460 -0.0196 -0.9075 -0.1208
  188SOL    HW1  563   2.775   2.893   1.447 -2.3035 -1.5772  0.8843
  188SOL    HW2  564   2.734   2.732   1.393 -1.6307 -2.1898  0.3528
  189SOL     OW  565   0.841   1.079   1.358 -0.2632  0.5275 -0.2419
  189SOL    HW1  566   0.898   1.147   1.412 -0.9833  3.0509 -1.8202
  189SOL    HW2  567   0.792   1.122   1.277  0.4814  2.3039  0.5144
  190SOL     OW  568   1.538   1.887   1.591  0.0090  0.0917  0.3945
  190SOL    HW1  569   1.439   1.856   1.586  1.7770  0.4103  0.4965
  190SOL    HW2  570   1.572   1.913   1.684 -0.9700  3.1113 -0.7170
  191SOL     OW  571   0.964   0.754   1.536  0.4623  0.0990 -0.0266
  191SOL    HW1  572   0.999   0.659   1.552  0.2432  1.0859  0.8535
  191SOL    HW2  573   1.041   0.822   1.547 -0.7921  0.4635 -2.0476
  192SOL     OW  574   1.854   2.228   1.118  0.3399  0.0440 -0.3059
  192SOL    HW1  575   1.786   2.207   1.042 -1.2665 -1.4951 -1.4415
  192SOL    HW2  576   1.914   2.309   1.100  0.8783 -1.7098 -0.4767
  193SOL     OW  577   0.518   0.609   0.403 -0.0265 -0.0902  0.3722
  193SOL    HW1  578   0.487   0.521   0.455 -0.7541 -2.5233  0.4170
  193SOL    HW2  579   0.550   0.592   0.307  0.8650  1.5280  1.6181
  194SOL     OW  580   0.300   0.824   1.261  0.4795 -0.0572  0.1794
  194SOL    HW1  581   0.240   0.743   1.252  0.7255  1.7499  0.5258
  194SOL    HW2  582   0.279   0.900   1.192  0.1953  0.7311 -1.0945
  195SOL     OW  583   1.001   2.911   0.489  0.1975 -0.1951  1.0378
  195SOL    HW1  584   0.990   2.818   0.441  1.2888  4.4093  0.7574
  195SOL    HW2  585   1.099   2.941   0.478 -2.6437 -2.1615 -0.1391
  196SOL     OW  586   0.256   1.390   1.383 -0.2840 -0.3577 -0.5745
  196SOL    HW1  587   0.280   1.474   1.436  0.4076 -0.2682  0.0440
  196SOL    HW2  588   0.255   1.307   1.445 -0.9667 -1.6470 -0.2612
  197SOL     OW  589   0.839   2.034   0.210 -1.1964 -0.1827  0.1031
  197SOL    HW1  590   0.827   2.018   0.310 -3.5224  0.1138 -0.6802
  197SOL    HW2  591   0.895   1.961   0.162 -3.2913 -0.8855 -0.8997
  198SOL     OW  592   0.282   1.242   0.256  0.1111  0.4762 -0.6159
  198SOL    HW1  593   0.176   1.230   0.253  1.7508 -0.9986  1.8087
  198SOL    HW2  594   0.303   1.340   0.265 -1.7288  0.1867 -0.2799
  199SOL     OW  595   2.211   0.352   2.533  0.4097 -0.3930 -0.1953
  199SOL    HW1  596   2.139   0.333   2.612 -2.6147  1.5629  1.2642
  199SOL    HW2  597   2.308   0.359   2.562 -3.1574 -4.2191  0.9160
  200SOL     OW  598   0.043   2.971   0.681  0.5941  0.1914  0.6234
  200SOL    HW1  599  -0.056   2.960   0.651 -0.9098  2.1294  0.1946
  200SOL    HW2  600   0.055   3.054   0.742 -0.2127  3.4437 -0.3323
  201SOL     OW  601   1.101   0.735   0.647  0.2281  0.3374 -0.1116
  201SOL    HW1  602   1.107   0.810   0.720  2.8542 -1.5252  0.4839
  201SOL    HW2  603   1.005   0.729   0.603  0.8647  0.6434 -1.4133
  202SOL     OW  604   0.482   1.222   1.832 -0.0693 -0.3351 -0.1846
  202SOL    HW1  605   0.512   1.221   1.732 -0.3117  0.7653  0.8425
  202SOL    HW2  606   0.544   1.163   1.884 -1.1473 -0.4647  0.8936
  203SOL     OW  607   0.726   0.186   1.572 -0.4730  0.0545 -0.2097
  203SOL    HW1  608   0.735   0.114   1.500 -0.7772  0.3785  1.4879
  203SOL    HW2  609   0.771   0.153   1.659  0.4991  2.0909  2.9311
  204SOL     OW  610   2.072   1.861   2.988 -0.8431 -0.1993 -0.1622
  204SOL    HW1  611   2.079   1.760   2.987 -1.4481  0.1279 -2.0316
  204SOL    HW2  612   2.054   1.894   2.893 -3.2132 -2.8165 -3.5740
  205SOL     OW  613   1.820   1.891   0.025  0.1007 -0.6180 -0.1548
  205SOL    HW1  614   1.911   1.875  -0.024 -2.0430  1.0167 -1.5924
  205SOL    HW2  615   1.786   1.988   0.011 -0.7004  0.0819 -2.0365
  206SOL     OW  616   2.516   2.785   0.315 -0.1574  0.5450  0.0276
  206SOL    HW1  617   2.577   2.698   0.317  1.8728 -1.9284  0.3726
  206SOL    HW2  618   2.550   2.866   0.254  0.5947  1.0022  0.2869
  207SOL     OW  619   0.545   1.777   2.921 -0.0313 -0.1045  0.0693
  207SOL    HW1  620   0.646   1.751   2.920  0.8163 -1.9368  1.4423
  207SOL    HW2  621   0.487   1.696   2.958 -1.0083 -1.4257  1.9502
  208SOL     OW  622   1.137   1.544   1.401  0.7440  0.0290 -0.0431
  208SOL    HW1  623   1.123   1.596   1.313  0.0040 -1.3193 -1.5807
  208SOL    HW2  624   1.203   1.597   1.465  5.1147  2.6884  0.4782
  209SOL     OW  625   0.269   0.953   2.996 -0.1403  0.3748  0.1155
  209SOL    HW1  626   0.316   0.901   2.921 -2.4076 -0.2041  0.1385
  209SOL    HW2  627   0.257   0.896   3.082  1.3565 -1.3745 -0.0551
  210SOL     OW  628   1.761   0.461   1.203 -0.1029 -0.2421 -0.1951
  210SOL    HW1  629   1.724   0.550   1.163  4.1613  0.4159  1.7521
  210SOL    HW2  630   1.863   0.455   1.187  1.2940 -1.8972 -0.2180
  211SOL     OW  631   2.105   1.054   1.622  0.5865 -0.3687  0.0174
  211SOL    HW1  632   2.169   0.969   1.629  0.0602  0.7977 -0.3086
  211SOL    HW2  633   2.152   1.140   1.591  1.2940  0.9811  0.4471
  212SOL     OW  634   0.048   1.002   1.468  0.2799  0.1794  0.4796
  212SOL    HW1  635   0.122   1.070   1.498  0.1115  1.1000 -0.7884
  212SOL    HW2  636   0.053   0.913   1.526 -0.0060 -3.0709 -0.4185
  213SOL     OW  637   2.759   0.390   0.271 -0.1664  0.0762  0.9519
  213SOL    HW1  638   2.839   0.329   0.233 -2.4128  2.4869 -0.4015
  213SOL    HW2  639   2.712   0.448   0.200  3.2778 -0.2410 -0.4403
  214SOL     OW  640   2.141   0.257   2.286 -0.3294  0.7173  0.4735
  214SOL    HW1  641   2.190   0.292   2.371 -0.2717  1.8181 -0.6800
  214SOL    HW2  642   2.129   0.153   2.280  0.6535  0.5848 -0.8877
  215SOL     OW  643   1.648   2.322   2.037  0.3005  0.9085  0.5358
  215SOL    HW1  644   1.748   2.357   2.043  2.5420  2.5135  1.3034
  215SOL    HW2  645   1.582   2.380   2.097  0.2532  2.2798 -1.7973
  216SOL     OW  646   2.221   0.559   0.710 -0.1485  0.5419 -0.7081
  216SOL    HW1  647   2.204   0.468   0.661 -1.0621 -0.2120 -4.1755
  216SOL    HW2  648   2.213   0.640   0.648  3.2040 -0.6783  1.0891
  217SOL     OW  649   0.724   2.761   2.488 -0.0211 -0.4496  0.0148
  217SOL    HW1  650   0.706   2.677   2.544 -0.3638  1.2674 -0.5108
  217SOL    HW2  651   0.760   2.736   2.394  0.4562  2.8558 -0.3061
  218SOL     OW  652   1.921   1.439   0.063 -0.0370  0.2480  0.1558
  218SOL    HW1  653   1.825   1.439   0.034  1.2652  1.4210  0.4397
  218SOL    HW2  654   1.934   1.364   0.131  1.7217 -0.8159 -0.3827
  219SOL     OW  655   2.330   1.280   2.591 -0.3514 -0.1670 -0.0916
  219SOL    HW1  656   2.349   1.221   2.507 -1.1419  1.7010  0.3462
  219SOL    HW2  657   2.341   1.225   2.680  1.6365 -2.0567  2.3478
  220SOL     OW  658   1.546   0.991   1.235 -0.4878  0.1797  0.1967
  220SOL    HW1  659   1.624   1.046   1.280  1.1828  1.2673 -2.2439
  220SOL    HW2  660   1.494   1.063   1.181  0.5886 -0.0109  0.6348
  221SOL     OW  661   1.355   1.063   2.193  0.2722  0.0457 -0.5566
  221SOL    HW1  662   1.304   1.109   2.119  0.2256  0.1609  1.2182
  221SOL    HW2  663   1.451   1.041   2.158 -1.0234  1.0615 -1.2967
  222SOL     OW  664   1.226   0.029   1.177 -0.1772  0.1163 -0.3436
  222SOL    HW1  665   1.284   0.012   1.259  0.2862  1.1385 -1.4323
  222SOL    HW2  666   1.205   0.129   1.159 -1.6221  1.0709 -0.2244
  223SOL     OW  667   2.821   0.861   2.061 -0.4187  0.2075  0.3162
  223SOL    HW1  668   2.845   0.897   2.157 -1.5867 -0.1536  0.4928
  223SOL    HW2  669   2.859   0.926   1.987 -0.2350 -0.7354  1.4018
  224SOL     OW  670   1.505   0.976   2.737  0.3158  0.6779  0.1093
  224SOL    HW1  671   1.553   0.938   2.654  1.1940 -1.0929 -1.2401
  224SOL    HW2  672   1.486   1.075   2.713  0.9820  0.5855  0.1984
  225SOL     OW  673   2.961   2.781   2.884 -0.1725 -0.0042 -0.1418
  225SOL    HW1  674   2.938   2.703   2.816 -2.3543 -0.4676 -0.8063
  225SOL    HW2  675   3.013   2.857   2.831  0.9800  1.4048 -2.9659
  226SOL     OW  676   2.416   1.575   2.826 -0.0339 -0.4743 -0.1489
  226SOL    HW1  677   2.462   1.544   2.737 -0.3344 -1.0547 -1.3579
  226SOL    HW2  678   2.387   1.493   2.887  2.2987  1.6580  0.8283
  227SOL     OW  679   0.850   0.145   3.044 -1.0359  0.2143 -0.3041
  227SOL    HW1  680   0.896   0.067   3.094  1.4243 -0.2645  4.3351
  227SOL    HW2  681   0.839   0.127   2.944 -0.5949 -2.5662 -2.2836
  228SOL     OW  682   2.393   0.628   2.845  0.6059 -0.0676  0.4005
  228SOL    HW1  683   2.339   0.638   2.758 -2.2405 -1.2322 -0.5398
  228SOL    HW2  684   2.467   0.554   2.835 -0.2712 -0.9906  0.0884
  229SOL     OW  685   0.587   0.513   1.894  0.4787 -0.6608 -0.0365
  229SOL    HW1  686   0.627   0.506   1.800  4.0600  2.3056 -0.6712
  229SOL    HW2  687   0.624   0.577   1.961 -1.9067  1.4059 -0.1477
  230SOL     OW  688   1.920   1.192   2.160  0.0699 -0.1670 -0.6300
  230SOL    HW1  689   1.994   1.242   2.110  3.4129  1.8852  2.8037
  230SOL    HW2  690   1.818   1.225   2.147 -3.6950  1.5318 -0.3268
  231SOL     OW  691   0.660   0.991   2.954 -0.0205 -0.1710 -0.5226
  231SOL    HW1  692   0.757   1.028   2.947 -0.7510 -0.8462 -2.0424
  231SOL    HW2  693   0.623   1.011   3.045 -0.2571  0.5623 -0.7801
  232SOL     OW  694   2.439   0.029   2.758  0.1121  0.0229  0.7764
  232SOL    HW1  695   2.504  -0.050   2.788 -2.8709 -2.7546 -1.1706
  232SOL    HW2  696   2.485   0.080   2.681 -0.7072 -1.3194 -1.0335
  233SOL     OW  697   1.701   1.304   1.128 -0.1387  0.1660  0.7362
  233SOL    HW1  698   1.755   1.344   1.050  0.7429 -1.0961 -0.6106
  233SOL    HW2  699   1.717   1.197   1.135  1.3305 -1.1295  0.7023
  234SOL     OW  700   1.604   2.581   1.848 -0.1536  0.0822  0.6270
  234SOL    HW1  701   1.578   2.632   1.934 -3.3573 -0.2053 -0.3549
  234SOL    HW2  702   1.548   2.498   1.835  0.5212  2.0606  1.4690
  235SOL     OW  703   0.021   3.013   2.892  0.1750 -0.2248 -0.3996
  235SOL    HW1  704   0.117   3.054   2.882 -1.3735  0.8048 -1.0893
  235SOL    HW2  705  -0.024   3.059   2.974  1.2822  0.1990 -1.2309
  236SOL     OW  706   2.876   0.711   0.137 -0.5813  0.4529 -0.4794
  236SOL    HW1  707   2.963   0.755   0.163  1.0780  0.5965  1.2217
  236SOL    HW2  708   2.893   0.635   0.070  0.0347 -0.1084 -1.1089
  237SOL     OW  709   1.441   1.679   1.048  0.2440  0.5440 -0.1954
  237SOL    HW1  710   1.541   1.650   1.038 -2.1033  0.7284  2.4009
  237SOL    HW2  711   1.434   1.754   1.121  0.8334  2.2922  0.5856
  238SOL     OW  712   1.786   1.279   0.823  0.4374 -0.0723 -0.3682
  238SOL    HW1  713   1.881   1.297   0.777  0.6327 -2.1765  1.4890
  238SOL    HW2  714   1.708   1.320   0.770 -1.3279 -1.7300  1.7841
  239SOL     OW  715   2.030   0.252   2.718 -0.7452 -0.2742 -0.2264
  239SOL    HW1  716   2.099   0.214   2.791 -0.7904 -1.6887  0.8216
  239SOL    HW2  717   1.951   0.309   2.763 -0.4996  0.1347 -0.7911
  240SOL     OW  718   0.986   0.649   0.303  0.2233 -0.7431  0.3682
  240SOL    HW1  719   0.946   0.575   0.252 -0.6276  1.5729  1.0540
  240SOL    HW2  720   0.962   0.654   0.406 -0.6964 -2.3064  1.0787
  241SOL     OW  721   0.593   0.108   0.320  0.5761  0.1998  0.0092
  241SOL    HW1  722   0.614   0.161   0.226 -1.5203 -1.2120 -1.0675
  241SOL    HW2  723   0.581   0.009   0.297  0.4874 -0.5897 -1.5042
  242SOL     OW  724   0.684   2.473   1.123  0.0888 -0.4796  0.2461
  242SOL    HW1  725   0.643   2.514   1.207  1.1811 -0.3038 -2.4210
  242SOL    HW2  726   0.777   2.507   1.096  1.6848 -0.0355 -0.2917
  243SOL     OW  727   1.114   0.618   2.441  0.5252 -0.1112  0.1969
  243SOL    HW1  728   1.036   0.687   2.425 -0.2859 -0.2264 -0.5716
  243SOL    HW2  729   1.072   0.537   2.490  0.6220 -3.1329  3.1622
  244SOL     OW  730   2.780   1.846   2.359 -0.5646 -0.1825 -0.6196
  244SOL    HW1  731   2.818   1.827   2.264 -0.4017  0.3694 -1.9242
  244SOL    HW2  732   2.690   1.797   2.382 -0.5612  2.8554 -2.2633
  245SOL     OW  733   2.487   0.680   2.175 -0.7610  0.0312 -0.2725
  245SOL    HW1  734   2.512   0.759   2.235 -0.8127 -1.4039  0.1487
  245SOL    HW2  735   2.525   0.593   2.223  0.6145 -1.1752  0.9699
  246SOL     OW  736   0.239   2.932   1.682 -0.4423 -0.4215 -0.6737
  246SOL    HW1  737   0.192   2.908   1.592 -2.0931 -0.3831  0.1560
  246SOL    HW2  738   0.324   2.988   1.672 -0.7613 -0.9289 -1.2255
  247SOL     OW  739   2.175   0.554   3.055 -0.6940 -0.0180 -0.0276
  247SOL    HW1  740   2.246   0.532   2.986 -2.2986  2.6670  3.1265
  247SOL    HW2  741   2.115   0.627   3.019 -1.8388  0.0830 -0.1016
  248SOL     OW  742   2.129   1.798   1.584 -0.3173 -0.3314  0.2151
  248SOL    HW1  743   2.187   1.733   1.641  0.7341 -0.8570 -0.9532
  248SOL    HW2  744   2.030   1.804   1.603  1.6693 -0.7759  1.6052
  249SOL     OW  745   1.952   1.925   1.929 -0.0067 -0.5887 -0.0394
  249SOL    HW1  746   1.927   1.877   1.841 -0.5416 -1.6555  3.2726
  249SOL    HW2  747   2.036   1.980   1.924 -1.0603 -0.5096 -1.5788
  250SOL     OW  748   1.124   0.744   1.875  0.3677  0.2599  0.4585
  250SOL    HW1  749   1.142   0.664   1.945 -0.5754 -0.1949  0.8684
  250SOL    HW2  750   1.161   0.731   1.777 -0.2476  1.6031 -0.2847
  251SOL     OW  751   3.041   1.563   2.542  0.0210 -0.1457 -0.5238
  251SOL    HW1  752   3.043   1.662   2.517  2.2724  2.1736  2.7247
  251SOL    HW2  753   2.945   1.528   2.542 -0.3639  0.4529  0.3862
  252SOL     OW  754   1.548   0.891   1.518  0.4942  0.1561  0.2035
  252SOL    HW1  755   1.573   0.929   1.429 -1.0142  0.5127  2.7785
  252SOL    HW2  756   1.533   0.965   1.587  0.6588  1.3474  2.5272
  253SOL     OW  757   0.888   1.539   0.393 -0.6045 -0.2941 -0.1418
  253SOL    HW1  758   0.949   1.459   0.379  2.1618 -2.0243  1.0681
  253SOL    HW2  759   0.803   1.516   0.343  2.7730  0.6536  2.0619
  254SOL     OW  760   2.069   2.125   1.562 -0.2407 -0.5727 -0.5646
  254SOL    HW1  761   2.020   2.096   1.473  0.7479  0.5432 -1.5553
  254SOL    HW2  762   2.003   2.113   1.638 -2.1828 -3.2457 -1.8827
  255SOL     OW  763   0.091   1.171   2.927  0.0274  0.3451 -0.2512
  255SOL    HW1  764   0.149   1.256   2.911 -1.6165 -1.2088  1.5175
  255SOL    HW2  765   0.150   1.092   2.967 -0.6633 -0.7919  1.9211
  256SOL     OW  766   2.811   1.357   1.824  0.1606  0.2608 -0.0988
  256SOL    HW1  767   2.740   1.415   1.869 -1.8743 -0.4332 -0.7406
  256SOL    HW2  768   2.779   1.258   1.816  0.9021 -0.6792 -0.6413
  257SOL     OW  769   0.880   0.124   1.808 -0.5555 -0.1541 -0.2985
  257SOL    HW1  770   0.916   0.212   1.759 -0.6510  3.3840 -1.8212
  257SOL    HW2  771   0.923   0.037   1.774  1.0505 -0.7862  0.7063
  258SOL     OW  772   2.945   1.292   0.414 -0.2266  0.4165  0.2087
  258SOL    HW1  773   2.915   1.384   0.364 -1.5591  1.4984 -2.6501
  258SOL    HW2  774   2.963   1.300   0.516  1.1568  2.8335 -2.2233
  259SOL     OW  775   0.494   2.932   3.011  0.9631  0.0667 -0.0548
  259SOL    HW1  776   0.427   2.867   3.058 -1.0867 -0.6352 -0.2105
  259SOL    HW2  777   0.529   2.899   2.922 -1.5776  3.5707  1.1125
  260SOL     OW  778   2.729   0.826   2.707 -0.0093 -0.4549 -0.4693
  260SOL    HW1  779   2.640   0.823   2.655 -0.1022  1.0777  0.7251
  260SOL    HW2  780   2.723   0.855   2.803  0.1588  1.4073 -2.1996
  261SOL     OW  781   2.726   1.379   1.354 -0.0154  0.2371  0.4727
  261SOL    HW1  782   2.672   1.317   1.286  0.1034 -2.3563  0.6852
  261SOL    HW2  783   2.808   1.324   1.393 -1.9990 -1.3309  0.8119
  262SOL     OW  784   1.445   2.954   1.990 -0.1930  0.4758 -0.2148
  262SOL    HW1  785   1.448   3.047   1.942  2.1976  0.5072  0.7156
  262SOL    HW2  786   1.351   2.912   1.996 -1.2028  1.7449 -1.0178
  263SOL     OW  787   0.883   0.731   2.360  0.0071  0.1210 -0.2339
  263SOL    HW1  788   0.838   0.644   2.340  1.3027 -0.7995 -1.1183
  263SOL    HW2  789   0.901   0.780   2.270 -1.4328 -1.2608 -2.7434
  264SOL     OW  790   2.229   0.772   0.351  0.0812  0.5532 -0.8865
  264SOL    HW1  791   2.135   0.795   0.394  2.8577  5.3013  1.7994
  264SOL    HW2  792   2.303   0.823   0.402 -2.4698 -0.5819  0.9663
  265SOL     OW  793   0.917   2.277   2.620  0.3148 -0.0971  0.2161
  265SOL    HW1  794   0.959   2.325   2.703 -1.7654 -1.4435 -1.8836
  265SOL    HW2  795   0.860   2.198   2.652 -0.9762  0.4371  0.8877
  266SOL     OW  796   1.333   1.756   0.002  0.3576 -0.2614 -0.7643
  266SOL    HW1  797   1.341   1.836   0.066  0.8477 -1.4665 -0.1369
  266SOL    HW2  798   1.426   1.725  -0.028 -0.5886  1.6359  1.3485
  267SOL     OW  799   1.015   3.068   2.373 -0.2592  0.0718 -0.1077
  267SOL    HW1  800   0.999   3.044   2.274 -2.3051 -1.1832  0.2488
  267SOL    HW2  801   0.974   3.163   2.395 -2.9636 -0.6152  1.1064
  268SOL     OW  802   0.638   1.134   1.073 -0.3357 -0.1646  0.5088
  268SOL    HW1  803   0.634   1.196   1.156  0.3683 -0.2020 -0.2095
  268SOL    HW2  804   0.650   1.191   0.981 -0.5054  0.8697 -2.9815
  269SOL     OW  805   2.457   2.455   1.551  0.0976  0.1040  0.0600
  269SOL    HW1  806   2.550   2.409   1.561 -1.6021 -0.9225 -1.9942
  269SOL    HW2  807   2.404   2.469   1.639 -1.4096 -0.5819 -0.5869
  270SOL     OW  808   0.131   3.081   1.889 -0.0624  0.4158  0.1079
  270SOL    HW1  809   0.196   3.045   1.817  0.4525  1.5625  0.5327
  270SOL    HW2  810   0.069   3.003   1.921  0.0569 -0.3511 -1.7956
  271SOL     OW  811   0.442   1.435   1.148 -1.1316 -0.1798  0.5744
  271SOL    HW1  812   0.402   1.409   1.055  0.7500  0.1643  1.0388
  271SOL    HW2  813   0.381   1.430   1.230  1.6530 -0.9392 -1.4470
  272SOL     OW  814   1.961   2.859   1.923 -0.6508 -0.8479 -0.3297
  272SOL    HW1  815   1.919   2.824   1.838  2.5159  2.5324  0.9935
  272SOL    HW2  816   2.036   2.928   1.897  0.8886 -1.1186 -2.3305
  273SOL     OW  817   1.382   1.447   2.844  0.3503  0.1852 -0.0781
  273SOL    HW1  818   1.290   1.494   2.819 -0.4738  1.5577  0.6081
  273SOL    HW2  819   1.391   1.431   2.950  2.5748 -2.4624  0.8323
  274SOL     OW  820   1.182   0.533   2.030  0.6082  0.2073 -0.0647
  274SOL    HW1  821   1.189   0.436   1.996  0.6995 -1.8384 -2.8624
  274SOL    HW2  822   1.238   0.550   2.113 -1.9693  1.1491 -1.8891
  275SOL     OW  823   0.622   2.084   1.906  0.0883 -0.0248 -0.4930
  275SOL    HW1  824   0.573   2.175   1.924  2.2298  0.6653 -1.9053
  275SOL    HW2  825   0.568   2.000   1.921  4.2988  2.2440 -0.3682
  276SOL     OW  826   2.171   0.914   2.820 -0.2617  0.5227  0.1552
  276SOL    HW1  827   2.127   0.870   2.737  0.6551 -0.5161  3.7610
  276SOL    HW2  828   2.137   0.868   2.907 -2.1946  0.3435  1.3611
  277SOL     OW  829   3.066   0.881   0.235  0.5241 -0.0175  0.6748
  277SOL    HW1  830   3.165   0.917   0.221 -0.3608  0.8475 -2.4626
  277SOL    HW2  831   3.063   0.811   0.310  0.2016  0.4417 -0.4568
  278SOL     OW  832   0.236   0.286   3.033  0.0291 -0.0079  0.5763
  278SOL    HW1  833   0.314   0.234   3.070 -1.5834  4.1805 -0.1451
  278SOL    HW2  834   0.246   0.386   3.046  0.1188  0.4298  0.9708
  279SOL     OW  835   0.111   0.065   0.878 -0.1169 -0.2310 -0.4821
  279SOL    HW1  836   0.114   0.033   0.977 -0.4830  1.1874  0.7127
  279SOL    HW2  837   0.199   0.055   0.827 -1.2970 -0.6412 -2.8667
  280SOL     OW  838   1.622   2.879   2.568 -0.3770 -0.3983 -0.0986
  280SOL    HW1  839   1.716   2.912   2.556  0.2843  0.1257 -0.8826
  280SOL    HW2  840   1.551   2.950   2.544  0.5414  0.9680  0.1792
  281SOL     OW  841   0.563   0.971   2.286 -0.0025  0.1261 -0.5016
  281SOL    HW1  842   0.581   0.878   2.239 -0.2850 -0.6222 -1.4752
  281SOL    HW2  843   0.507   0.963   2.377 -0.1654 -0.4479  0.8463
  282SOL     OW  844   1.725   2.388   0.509  1.1841  0.3448 -0.0159
  282SOL    HW1  845   1.682   2.320   0.448  1.9607  1.7598  0.1825
  282SOL    HW2  846   1.703   2.487   0.497 -1.9454 -3.4891 -0.7968
  283SOL     OW  847   1.150   0.936   0.827 -0.3897 -0.4795  0.0978
  283SOL    HW1  848   1.202   0.876   0.890  0.1338  0.7708 -0.5911
  283SOL    HW2  849   1.074   0.988   0.869 -1.6827 -0.1292  0.4552
  284SOL     OW  850   2.351   2.776   2.309 -0.0584 -0.1520 -0.1198
  284SOL    HW1  851   2.411   2.822   2.242 -0.9979 -2.5776  3.0071
  284SOL    HW2  852   2.311   2.836   2.384 -2.1750  0.3398  1.8906
  285SOL     OW  853   1.391   3.032   2.518 -0.3762  1.0379 -0.0144
  285SOL    HW1  854   1.379   3.022   2.418  1.1989  0.2594  3.1901
  285SOL    HW2  855   1.296   3.048   2.561 -1.4026  0.4221  1.8840
  286SOL     OW  856   0.445   0.422   0.732  0.2143 -0.1363  0.3785
  286SOL    HW1  857   0.401   0.379   0.819  0.0124  2.2843  0.0338
  286SOL    HW2  858   0.465   0.353   0.654  1.1452  1.5572 -0.4786
  287SOL     OW  859   0.151   1.309   2.544  0.0328  0.3189  0.0203
  287SOL    HW1  860   0.096   1.237   2.596  0.0792  1.4014 -3.1622
  287SOL    HW2  861   0.087   1.378   2.501 -1.4946  1.4739 -0.2957
  288SOL     OW  862   1.537   2.650   1.569 -0.0336  0.5612 -0.4332
  288SOL    HW1  863   1.591   2.625   1.655 -1.6208  1.3003  2.1357
  288SOL    HW2  864   1.583   2.620   1.488  0.3920 -1.8679  5.1597
  289SOL     OW  865   0.658   2.696   0.810 -0.5295  0.0383  0.4215
  289SOL    HW1  866   0.706   2.768   0.748 -0.2093  0.6520 -2.1451
  289SOL    HW2  867   0.666   2.716   0.909 -1.5179 -0.3318 -2.2978
  290SOL     OW  868   2.832   1.081   1.670 -0.1305 -0.2820  1.1529
  290SOL    HW1  869   2.788   1.003   1.626  0.3607  1.8694 -0.9282
  290SOL    HW2  870   2.895   1.049   1.746 -1.8437 -3.2562  0.2198
  291SOL     OW  871   1.943   0.066   0.057  0.0409  0.3987  0.2226
  291SOL    HW1  872   1.952   0.061   0.158 -3.1833 -1.7760 -0.2553
  291SOL    HW2  873   1.998   0.146   0.020 -1.1556  1.2338 -1.4144
  292SOL     OW  874   2.964   1.209   3.073 -0.1541  0.8759  0.6060
  292SOL    HW1  875   2.875   1.238   3.024 -1.7161 -0.5335 -0.0766
  292SOL    HW2  876   3.054   1.216   3.012  1.0631  0.5926 -0.4310
  293SOL     OW  877   0.580   2.102   0.158  0.2243 -0.5246  0.1517
  293SOL    HW1  878   0.562   2.159   0.238  1.9370  1.3256 -1.5443
  293SOL    HW2  879   0.675   2.056   0.169 -2.8338 -3.8393  1.4821
  294SOL     OW  880   1.713   2.223   1.763  0.4086 -0.2903  0.0413
  294SOL    HW1  881   1.690   2.259   1.859  0.6823 -2.6731  1.8750
  294SOL    HW2  882   1.699   2.285   1.684 -0.5883 -0.7605 -2.0981
  295SOL     OW  883   1.042   1.011   0.495  0.4021  0.0573  0.8235
  295SOL    HW1  884   1.128   0.992   0.551  2.2185 -0.0953  1.0710
  295SOL    HW2  885   0.953   1.008   0.546  4.6231 -0.6647 -0.7696
  296SOL     OW  886   1.282   2.074   2.500 -0.3549 -0.0964 -0.2273
  296SOL    HW1  887   1.275   2.108   2.398 -0.5373 -1.9668  1.3431
  296SOL    HW2  888   1.264   1.972   2.513 -1.1137 -0.2429  0.8501
  297SOL     OW  889   1.463   0.596   1.401 -0.0282  0.0637  0.0517
  297SOL    HW1  890   1.427   0.498   1.397 -1.8567  1.2480  0.4020
  297SOL    HW2  891   1.564   0.599   1.405 -1.4067  0.5293  0.9269
  298SOL     OW  892   0.505   1.315   2.942  0.4518  0.9550  0.1488
  298SOL    HW1  893   0.499   1.249   3.022 -3.9898  2.5375  3.9708
  298SOL    HW2  894   0.575   1.285   2.871 -0.6054  0.9434  0.4317
  299SOL     OW  895   0.480   0.280   1.379  0.1539  0.2108 -1.0148
  299SOL    HW1  896   0.496   0.384   1.360  0.3394  3.8584  0.5174
  299SOL    HW2  897   0.529   0.256   1.470 -0.4025  0.6705  0.2056
  300SOL     OW  898   1.192   1.804   2.872 -0.2071 -0.1049 -0.5098
  300SOL    HW1  899   1.142   1.718   2.845  3.4488  0.7646  1.3781
  300SOL    HW2  900   1.249   1.794   2.955  0.6953  1.6597 -3.1259
  301SOL     OW  901   0.478   0.273   0.508  0.2396 -0.0322  0.1603
  301SOL    HW1  902   0.374   0.262   0.525  1.5971 -1.2811  2.6890
  301SOL    HW2  903   0.525   0.217   0.431 -1.0120  0.9997 -1.2461
  302SOL     OW  904   1.202   2.380   2.262 -0.2589  0.7406  0.5578
  302SOL    HW1  905   1.121   2.405   2.313  0.7121 -2.0386  1.8367
  302SOL    HW2  906   1.209   2.273   2.243 -0.3347  0.4752 -0.3166
  303SOL     OW  907   0.969   2.328   0.799  0.4185  0.0122  0.0846
  303SOL    HW1  908   1.027   2.388   0.734  0.6888  2.1466 -0.1226
  303SOL    HW2  909   0.970   2.369   0.893  2.0913 -0.1298  1.2278
  304SOL     OW  910   0.162   2.051   0.634 -0.2938 -0.1736 -0.2534
  304SOL    HW1  911   0.162   1.991   0.547 -0.3773  1.0865 -0.0915
  304SOL    HW2  912   0.083   2.116   0.627  3.2555 -0.0820 -3.3443
  305SOL     OW  913   1.584   0.908   0.597  0.1644  0.4067  0.2829
  305SOL    HW1  914   1.548   0.911   0.503  3.0863  1.0805 -1.5511
  305SOL    HW2  915   1.655   0.833   0.609 -1.2071  0.2968 -0.6811
  306SOL     OW  916   0.459   1.836   1.890 -0.3555  0.0841  0.3276
  306SOL    HW1  917   0.548   1.794   1.858  0.1535  1.0211 -2.3285
  306SOL    HW2  918   0.439   1.817   1.987  2.2693 -1.4404  0.2731
  307SOL     OW  919   3.083   0.861   2.568 -0.6344  0.4527 -0.8831
  307SOL    HW1  920   3.091   0.963   2.592 -3.4362  0.7496  3.1318
  307SOL    HW2  921   3.032   0.818   2.646 -0.2041 -0.6692 -1.6612
  308SOL     OW  922   1.524   2.707   2.852  0.1140 -0.0678  0.1450
  308SOL    HW1  923   1.543   2.651   2.767  0.8979  3.0330  3.4994
  308SOL    HW2  924   1.493   2.646   2.934 -2.6924 -1.7910  0.3676
  309SOL     OW  925   1.214   0.070   1.786  0.3360  0.3050  0.0277
  309SOL    HW1  926   1.321   0.069   1.800 -0.4851 -0.3177 -1.3345
  309SOL    HW2  927   1.196   0.086   1.683 -0.2661  2.3858  0.4629
  310SOL     OW  928   1.510   2.542   0.678 -0.2984  0.1398 -0.0255
  310SOL    HW1  929   1.465   2.585   0.760 -1.2873 -2.0671 -2.4007
  310SOL    HW2  930   1.579   2.605   0.634 -0.6203 -0.1511  2.8393
  311SOL     OW  931   1.202   0.908   1.598 -0.0611  0.4522 -0.0267
  311SOL    HW1  932   1.273   0.838   1.624 -1.9759  2.0258 -0.8012
  311SOL    HW2  933   1.238   0.964   1.520  2.1940  1.4189 -0.1421
  312SOL     OW  934   1.638   0.668   0.997 -0.7845 -0.3171 -0.6219
  312SOL    HW1  935   1.601   0.751   0.945 -1.2652 -1.6612  1.6476
  312SOL    HW2  936   1.577   0.585   0.987 -0.8387  0.1967  0.4475
  313SOL     OW  937   1.562   1.413   0.682  0.6208 -0.0953  0.4838
  313SOL    HW1  938   1.485   1.420   0.750 -0.1215  0.1246 -0.8573
  313SOL    HW2  939   1.545   1.337   0.617  0.5537 -1.0954  0.9161
  314SOL     OW  940   2.999   0.034   0.036  0.2536  0.2601 -0.9908
  314SOL    HW1  941   2.997   0.118   0.103  1.0455 -0.1671 -0.9247
  314SOL    HW2  942   2.919  -0.033   0.047 -1.8018  0.1093 -2.8242
  315SOL     OW  943   1.214   0.205   2.810 -0.0307 -0.0916 -0.3762
  315SOL    HW1  944   1.178   0.118   2.770 -0.8716  2.2002  3.2821
  315SOL    HW2  945   1.273   0.194   2.896  2.5144 -1.3173  0.2499
  316SOL     OW  946   1.702   2.092   0.928  0.7614 -0.5025  0.0307
  316SOL    HW1  947   1.627   2.091   1.002 -0.5527 -0.1732 -0.9642
  316SOL    HW2  948   1.696   2.177   0.865 -0.3271  1.7012 -1.7222
  317SOL     OW  949   1.106   0.711   2.857  0.2134 -0.1643  0.2014
  317SOL    HW1  950   1.049   0.740   2.941 -1.2092  0.3335  1.2948
  317SOL    HW2  951   1.105   0.605   2.846  0.7196  0.4821 -1.0637
  318SOL     OW  952   1.339   3.033   2.254 -0.5038  0.6359 -0.1768
  318SOL    HW1  953   1.321   3.132   2.256 -0.1756  1.4377 -1.2591
  318SOL    HW2  954   1.378   3.004   2.166 -0.7553 -1.7515 -2.3218
  319SOL     OW  955   0.640   2.443   2.927  0.0744  0.4486 -0.2107
  319SOL    HW1  956   0.584   2.394   3.001 -0.7823  1.6361  3.1263
  319SOL    HW2  957   0.736   2.404   2.915  0.6967  1.6394  1.4777
  320SOL     OW  958   1.654   2.170   0.308  0.4799  0.2787 -0.0312
  320SOL    HW1  959   1.745   2.133   0.308  1.1657  2.5626  0.2501
  320SOL    HW2  960   1.581   2.105   0.345  1.2540 -0.3122  0.0100
  321SOL     OW  961   1.677   2.663   0.483  0.0984  0.2405  0.1040
  321SOL    HW1  962   1.589   2.713   0.454 -0.1885 -0.7198 -0.5944
  321SOL    HW2  963   1.757   2.716   0.441 -1.2231 -1.0887 -2.4175
  322SOL     OW  964   2.535   1.136   2.305 -0.3286  0.0405  0.3905
  322SOL    HW1  965   2.637   1.152   2.313 -1.5352  0.5183 -3.7671
  322SOL    HW2  966   2.515   1.035   2.312 -0.0497  1.3863 -0.5418
  323SOL     OW  967   1.043   2.645   0.828  0.8294 -0.2841  0.5363
  323SOL    HW1  968   1.054   2.622   0.726  0.7123 -1.7828 -1.4050
  323SOL    HW2  969   1.092   2.732   0.857  0.5641 -0.2465 -1.4432
  324SOL     OW  970   0.240   2.523   2.510 -0.0824  0.7688 -0.2691
  324SOL    HW1  971   0.239   2.441   2.574  3.9684  0.7858  0.0977
  324SOL    HW2  972   0.183   2.603   2.549 -2.9158 -1.0118  4.6435
  325SOL     OW  973   1.259   3.032   0.453 -0.3329  0.0905  0.3831
  325SOL    HW1  974   1.286   3.067   0.360 -1.8585 -0.8038  0.7015
  325SOL    HW2  975   1.265   3.109   0.525  0.2414  1.8993 -2.0834
  326SOL     OW  976   2.447   0.767   3.093 -0.1892  0.5602 -0.0859
  326SOL    HW1  977   2.424   0.719   3.003 -2.3471 -0.6067  0.4974
  326SOL    HW2  978   2.496   0.708   3.164 -1.3255  1.1128 -0.0297
  327SOL     OW  979   2.857   0.333   0.532 -0.2693 -0.2096  0.3767
  327SOL    HW1  980   2.803   0.364   0.451 -0.0954  1.4477  1.3074
  327SOL    HW2  981   2.798   0.302   0.613 -0.2551 -1.0064  2.9729
  328SOL     OW  982   2.506   0.625   0.399  0.1832 -0.2805  0.3483
  328SOL    HW1  983   2.521   0.725   0.415 -0.6778 -2.0209 -1.4924
  328SOL    HW2  984   2.564   0.564   0.463 -1.7344 -3.1071 -1.8349
  329SOL     OW  985   2.985   3.001   2.145 -0.0307  0.0582 -0.5243
  329SOL    HW1  986   2.992   2.948   2.235 -0.7669  1.4687  1.0008
  329SOL    HW2  987   3.015   3.102   2.159  0.0299  2.0046 -1.2566
  330SOL     OW  988   0.568   0.155   1.858  0.0638 -0.2707 -0.6869
  330SOL    HW1  989   0.658   0.195   1.823  0.9996 -0.5374 -1.7864
  330SOL    HW2  990   0.573   0.089   1.941  0.0795 -3.2314 -0.5171
  331SOL     OW  991   2.970   1.938   1.117  0.3747 -0.1110  0.2578
  331SOL    HW1  992   3.005   2.021   1.063 -3.5359  0.3006 -0.2859
  331SOL    HW2  993   2.898   1.974   1.184 -1.8061  1.1019 -0.8771
  332SOL     OW  994   0.438   1.134   0.063  0.4239  0.0692 -0.6468
  332SOL    HW1  995   0.365   1.082   0.012 -0.5387 -0.0021  0.0527
  332SOL    HW2  996   0.394   1.213   0.117 -0.0540  1.9199 -1.6845
  333SOL     OW  997   2.861   1.058   0.309 -0.0900 -0.6126 -0.1314
  333SOL    HW1  998   2.908   1.140   0.350 -0.0192  1.4607  0.3068
  333SOL    HW2  999   2.927   0.988   0.271 -0.4090  0.8127  0.1965
  334SOL     OW 1000   1.689   1.207   1.849  0.0426  0.7040 -0.4878
  334SOL    HW1 1001   1.783   1.159   1.835  1.0558  0.8081 -0.3765
  334SOL    HW2 1002   1.697   1.281   1.918 -0.9825  1.2916  0.0863
  335SOL     OW 1003   1.974   2.735   2.620 -0.4752  0.2273  0.3086
  335SOL    HW1 1004   1.897   2.680   2.663  1.5767  0.3152 -1.1426
  335SOL    HW2 1005   2.015   2.809   2.683 -2.0895  0.2942 -1.0196
  336SOL     OW 1006   0.242   0.079   2.850 -0.0718  0.0728  0.3013
  336SOL    HW1 1007   0.331   0.078   2.795 -1.7611  1.3026 -0.0787
  336SOL    HW2 1008   0.242   0.153   2.919 -0.1269 -3.5566 -0.1522
  337SOL     OW 1009   0.919   2.806   2.806 -0.3418 -0.3609  0.1075
  337SOL    HW1 1010   0.938   2.755   2.893  2.5455  0.1465 -1.4975
  337SOL    HW2 1011   1.000   2.802   2.747 -0.5877  1.0810 -0.4381
  338SOL     OW 1012   0.037   1.036   0.683 -0.9271  0.1514 -0.0932
  338SOL    HW1 1013  -0.069   1.024   0.693 -0.8606  1.5877  0.1047
  338SOL    HW2 1014   0.056   1.141   0.682  0.0136 -1.6136 -0.4754
  339SOL     OW 1015   1.706   1.362   2.092  0.0307  0.2423  0.0883
  339SOL    HW1 1016   1.600   1.369   2.115 -1.6110 -2.1189  1.4840
  339SOL    HW2 1017   1.762   1.447   2.115 -0.1519 -0.8679  2.0823
  340SOL     OW 1018   2.361   0.721   1.204  0.2204 -0.0130 -0.5159
  340SOL    HW1 1019   2.257   0.733   1.187  1.0189 -0.0741  0.8902
  340SOL    HW2 1020   2.392   0.636   1.154 -1.6543  0.0099 -0.7402
  341SOL     OW 1021   1.934   2.122   0.345 -0.1418 -1.1213 -0.6009
  341SOL    HW1 1022   1.946   2.183   0.261 -0.4901 -0.3656 -0.8461
  341SOL    HW2 1023   2.030   2.106   0.391 -0.2956 -1.3858 -1.9874
  342SOL     OW 1024   2.197   2.089   2.745  0.0845  0.0419 -0.2303
  342SOL    HW1 1025   2.246   1.998   2.769  0.6175 -0.4983  0.9591
  342SOL    HW2 1026   2.096   2.081   2.738  0.7718 -0.9094 -1.6986
  343SOL     OW 1027   0.381   0.798   2.751  0.4192  0.7534  0.0502
  343SOL    HW1 1028   0.392   0.844   2.660  3.7297 -3.1742  1.6317
  343SOL    HW2 1029   0.478   0.759   2.777 -0.5858 -1.1222 -0.4080
  344SOL     OW 1030   1.951   1.391   0.453 -0.1877 -0.0207 -0.6581
  344SOL    HW1 1031   1.971   1.338   0.370  1.7958  1.3179  1.3862
  344SOL    HW2 1032   1.855   1.430   0.457  1.6219  1.0378 -0.8783
  345SOL     OW 1033   1.367   2.269   2.891  0.4516  0.3980 -0.2612
  345SOL    HW1 1034   1.290   2.201   2.859 -0.9223 -1.2514  0.9213
  345SOL    HW2 1035   1.457   2.253   2.840  2.0676  0.5825  0.2954
  346SOL     OW 1036   2.327   0.899   1.424  0.4012 -0.0556 -0.2789
  346SOL    HW1 1037   2.305   1.000   1.415  0.6384  2.6038  2.0066
  346SOL    HW2 1038   2.323   0.844   1.333 -0.5079 -1.1366 -0.9452
  347SOL     OW 1039   0.713   2.774   1.467  0.0604  0.0406 -0.0203
  347SOL    HW1 1040   0.685   2.728   1.556 -0.1090 -0.0627 -2.4924
  347SOL    HW2 1041   0.671   2.870   1.455  0.0728  0.3070 -1.6151
  348SOL     OW 1042   0.155   0.675   2.817 -0.0114  0.0876  0.0647
  348SOL    HW1 1043   0.078   0.745   2.807 -1.8037 -4.3804 -1.5557
  348SOL    HW2 1044   0.254   0.711   2.784  3.4750  2.3142  1.5514
  349SOL     OW 1045   1.804   0.412   2.813  0.2244 -0.2291 -0.1684
  349SOL    HW1 1046   1.778   0.495   2.759 -0.3410  0.0360  1.2270
  349SOL    HW2 1047   1.794   0.423   2.916 -0.9314  2.4160 -2.1057
  350SOL     OW 1048   1.540   0.448   0.365 -0.3958  0.4804  0.3567
  350SOL    HW1 1049   1.612   0.449   0.439  1.0472 -2.4656  1.0190
  350SOL    HW2 1050   1.520   0.540   0.320 -3.3183  0.6717  0.0400
  351SOL     OW 1051   0.948   0.846   2.101 -0.0524 -0.2594  0.4919
  351SOL    HW1 1052   0.966   0.949   2.084  1.0657  0.5671 -0.7254
  351SOL    HW2 1053   0.991   0.798   2.020 -0.2590 -1.5697 -0.0014
  352SOL     OW 1054   2.025   1.285   0.685 -0.1952 -0.3325  0.3497
  352SOL    HW1 1055   1.996   1.331   0.594 -1.1900 -2.3144 -1.1737
  352SOL    HW2 1056   2.100   1.332   0.728  1.0364  0.6999 -0.4866
  353SOL     OW 1057   2.169   2.916   1.082  1.0213 -0.0939 -0.3992
  353SOL    HW1 1058   2.260   2.877   1.109 -1.6589  1.5223  1.5520
  353SOL    HW2 1059   2.099   2.843   1.061  2.5159  1.2503  1.8942
  354SOL     OW 1060   0.244   1.401   2.885 -0.2262 -0.1241 -0.7080
  354SOL    HW1 1061   0.226   1.461   2.796 -1.8201 -0.4512 -2.7962
  354SOL    HW2 1062   0.336   1.356   2.878  2.4572  0.7067  2.3480
  355SOL     OW 1063   0.494   1.534   0.487 -0.5330  0.1157 -0.4341
  355SOL    HW1 1064   0.469   1.632   0.516  1.8888  1.9555 -1.2906
  355SOL    HW2 1065   0.581   1.495   0.528 -1.5807 -1.6988  1.4637
  356SOL     OW 1066   0.946   0.280   2.080 -0.2940 -0.0201 -0.5034
  356SOL    HW1 1067   1.045   0.312   2.062  1.5739 -0.6753  0.9778
  356SOL    HW2 1068   0.909   0.208   2.021 -1.2692 -2.5353  1.8348
  357SOL     OW 1069   1.008   1.288   0.393 -0.4877  0.2152  0.0950
  357SOL    HW1 1070   0.971   1.194   0.360 -0.2633 -1.3442  0.6401
  357SOL    HW2 1071   1.038   1.296   0.491 -0.4680 -0.5319  0.3389
  358SOL     OW 1072   1.700   1.509   0.460  0.0758 -0.4872 -0.5440
  358SOL    HW1 1073   1.648   1.485   0.547  2.2439  0.5097  0.6667
  358SOL    HW2 1074   1.645   1.499   0.374  0.2090  1.0543 -0.0664
  359SOL     OW 1075   1.588   2.750   0.059 -0.2588  0.1187  0.0423
  359SOL    HW1 1076   1.524   2.685   0.108  2.2105  0.4658 -0.1667
  359SOL    HW2 1077   1.557   2.847   0.063 -3.3917  1.8987  0.1093
  360SOL     OW 1078   0.877   0.614   0.532 -0.3062  0.1635  0.1826
  360SOL    HW1 1079   0.792   0.627   0.591 -1.5828  0.3659  0.2460
  360SOL    HW2 1080   0.919   0.519   0.555  1.5820  1.0297  0.8345
  361SOL     OW 1081   1.193   1.381   0.696 -0.0777 -0.6822 -0.0301
  361SOL    HW1 1082   1.236   1.426   0.782  2.2740  0.4311 -2.2967
  361SOL    HW2 1083   1.094   1.397   0.692  2.3456 -0.0366  1.2683
  362SOL     OW 1084   1.339   1.787   0.784 -0.1567  0.7204  0.0537
  362SOL    HW1 1085   1.357   1.767   0.884 -1.6307  1.5110  2.0428
  362SOL    HW2 1086   1.425   1.824   0.734 -0.2402  0.4364  1.1276
  363SOL     OW 1087   1.200   1.269   2.023  0.2464  0.1937 -0.7303
  363SOL    HW1 1088   1.226   1.295   2.121  0.8214 -0.7290  0.4068
  363SOL    HW2 1089   1.239   1.338   1.957 -1.3139  2.1160  1.7360
  364SOL     OW 1090   0.519   2.348   1.923 -0.3223 -0.1361  0.2557
  364SOL    HW1 1091   0.423   2.373   1.953 -0.1198 -0.4237 -0.4688
  364SOL    HW2 1092   0.538   2.365   1.822 -0.3699 -1.4087 -2.5240
  365SOL     OW 1093   1.025   1.868   1.392  0.2238 -0.2478  0.0550
  365SOL    HW1 1094   0.932   1.909   1.414 -1.5911 -1.2454  1.2482
  365SOL    HW2 1095   1.019   1.792   1.317  0.8653 -0.7057 -1.6068
  366SOL     OW 1096   2.808   2.070   0.491 -0.6529  0.2089 -0.3148
  366SOL    HW1 1097   2.704   2.080   0.478  1.7760  0.4972  1.0380
  366SOL    HW2 1098   2.848   1.993   0.437 -0.9252 -1.4884 -0.4246
  367SOL     OW 1099   0.867   1.143   0.170  0.7111 -0.0927  0.0568
  367SOL    HW1 1100   0.882   1.042   0.191 -0.0987 -0.5682 -2.8506
  367SOL    HW2 1101   0.905   1.170   0.079  0.8296 -1.5309 -1.0765
  368SOL     OW 1102   1.485   0.575   0.708 -0.1402 -0.5052  0.0564
  368SOL    HW1 1103   1.427   0.591   0.624 -2.2147 -1.2475  1.2262
  368SOL    HW2 1104   1.574   0.628   0.697  1.3477  1.9021 -2.2196
  369SOL     OW 1105   0.238   1.719   0.065  0.1807  0.8354 -0.0021
  369SOL    HW1 1106   0.302   1.766   0.129  1.3162  0.6801 -2.2749
  369SOL    HW2 1107   0.143   1.701   0.108  0.5746  1.6689  0.6065
  370SOL     OW 1108   0.457   2.096   1.046  0.2533 -0.3474  0.0137
  370SOL    HW1 1109   0.478   2.195   1.026  0.2896  0.3105 -1.2918
  370SOL    HW2 1110   0.355   2.081   1.023  0.8734  0.1601  0.4401
  371SOL     OW 1111   2.880   2.220   2.716 -0.6674 -0.5841 -0.0977
  371SOL    HW1 1112   2.857   2.177   2.807  1.0813 -0.0902 -3.7587
  371SOL    HW2 1113   2.972   2.267   2.708 -0.4649  0.2856 -0.4714
  372SOL     OW 1114   1.075   1.954   1.054  0.1274  0.3504  1.0764
  372SOL    HW1 1115   1.004   2.023   1.075 -1.3083 -1.4256  1.1974
  372SOL    HW2 1116   1.142   1.987   0.987  1.8941  0.1689 -0.1456
  373SOL     OW 1117   1.958   2.004   0.907 -0.1244  0.5971  0.2276
  373SOL    HW1 1118   2.010   1.983   0.995 -1.3983 -0.8982 -1.1427
  373SOL    HW2 1119   1.860   2.033   0.918  0.7983 -2.0478 -0.9639
  374SOL     OW 1120   1.774   0.463   0.573 -0.2893  0.1216  0.4875
  374SOL    HW1 1121   1.799   0.407   0.658  2.0293  2.4349 -4.3651
  374SOL    HW2 1122   1.852   0.444   0.500  1.5084 -2.1172 -1.7051
  375SOL     OW 1123   2.364   2.181   1.104  0.2024  0.2397  0.2372
  375SOL    HW1 1124   2.445   2.168   1.044  0.0466  0.4455  1.0925
  375SOL    HW2 1125   2.391   2.154   1.200  2.6251  1.4562 -2.6834
  376SOL     OW 1126   2.999   0.603   1.421  0.2403 -0.5205  0.3277
  376SOL    HW1 1127   3.041   0.667   1.491 -2.4648  0.9927  1.3081
  376SOL    HW2 1128   2.898   0.589   1.441 -1.3331  0.5843 -1.2155
  377SOL     OW 1129   2.226   2.820   0.342 -0.4921 -0.2530 -0.0247
  377SOL    HW1 1130   2.212   2.915   0.382  1.9510 -1.4993  0.0789
  377SOL    HW2 1131   2.327   2.806   0.311  0.5556  3.4497 -3.7921
  378SOL     OW 1132   1.768   1.830   2.688  0.7413 -0.7484 -0.2572
  378SOL    HW1 1133   1.661   1.825   2.692 -0.0990 -0.7395  0.3661
  378SOL    HW2 1134   1.816   1.735   2.693  3.2591 -0.0257  0.8627
  379SOL     OW 1135   0.881   0.128   2.726  0.1332  0.1506 -0.1600
  379SOL    HW1 1136   0.860   0.029   2.693 -0.2453 -0.8920  2.0227
  379SOL    HW2 1137   0.817   0.192   2.686  2.3655  0.2141 -1.6541
  380SOL     OW 1138   1.507   1.196   0.520  0.4231 -0.0599 -0.1248
  380SOL    HW1 1139   1.398   1.207   0.530 -3.1404 -1.2358 -0.2897
  380SOL    HW2 1140   1.544   1.112   0.573  0.2568  0.1326 -1.2298
  381SOL     OW 1141   1.321   1.176   1.523  0.4166 -0.7402 -0.1735
  381SOL    HW1 1142   1.385   1.232   1.462  1.2754 -1.6405  1.3912
  381SOL    HW2 1143   1.365   1.155   1.616  0.9694 -0.7108  1.3597
  382SOL     OW 1144   1.788   0.808   0.224  0.6161  0.1780 -0.5426
  382SOL    HW1 1145   1.812   0.794   0.124  1.2354  1.0429 -0.0894
  382SOL    HW2 1146   1.867   0.816   0.288  2.2323  2.2454 -1.9783
  383SOL     OW 1147   2.577   0.965   1.501  0.7485  0.3643 -0.2811
  383SOL    HW1 1148   2.483   0.934   1.462 -2.6119  0.2314 -2.4123
  383SOL    HW2 1149   2.655   0.945   1.434  0.7542  2.9726 -0.0510
  384SOL     OW 1150   0.908   2.266   0.093  0.4202 -0.0455  0.2177
  384SOL    HW1 1151   0.875   2.336   0.162  0.5907 -2.9302  0.2291
  384SOL    HW2 1152   0.890   2.170   0.128 -1.0573 -1.3661  1.8534
  385SOL     OW 1153   2.995   1.979   1.801 -0.3263  0.3651 -0.3756
  385SOL    HW1 1154   3.040   2.066   1.758  2.5837  1.4315  3.3426
  385SOL    HW2 1155   3.022   1.883   1.762 -0.9715 -2.9121  0.2584
  386SOL     OW 1156   0.438   1.144   0.465  0.4003 -0.2228  0.2066
  386SOL    HW1 1157   0.478   1.046   0.465 -2.3781 -3.0545  0.0873
  386SOL    HW2 1158   0.382   1.163   0.382  3.2756 -1.7887  2.1504
  387SOL     OW 1159   1.003   0.355   1.673 -0.0852  0.3147  0.4081
  387SOL    HW1 1160   1.063   0.439   1.684 -1.2761  1.3463 -0.4782
  387SOL    HW2 1161   1.013   0.319   1.571  1.8333  0.8048 -0.5545
  388SOL     OW 1162   1.225   2.637   1.788 -0.0639 -0.3099  0.0648
  388SOL    HW1 1163   1.228   2.628   1.689  1.4683 -1.7769  1.4135
  388SOL    HW2 1164   1.280   2.565   1.839  0.9022  0.1429 -2.2048
  389SOL     OW 1165   0.205   3.093   1.139 -0.5296 -0.0879  0.4433
  389SOL    HW1 1166   0.173   3.106   1.233 -1.6575  0.4428 -1.8583
  389SOL    HW2 1167   0.248   2.999   1.123 -2.3987 -2.5384  0.1371
  390SOL     OW 1168   1.056   0.937   1.223 -0.0858 -0.4295 -0.2106
  390SOL    HW1 1169   1.134   0.883   1.263  0.7445  2.0962  0.3373
  390SOL    HW2 1170   0.994   0.972   1.301  0.5184 -2.6297  1.5795
  391SOL     OW 1171   2.046   1.160   1.032 -0.6714  0.8488 -0.0075
  391SOL    HW1 1172   1.991   1.098   1.090  2.2415  0.3406 -4.0708
  391SOL    HW2 1173   2.096   1.105   0.957 -0.1239 -1.8019  0.4732
  392SOL     OW 1174   0.943   2.655   3.048  0.3071 -0.3811 -0.1699
  392SOL    HW1 1175   0.847   2.655   3.088  1.1001 -1.2283 -2.6878
  392SOL    HW2 1176   1.012   2.707   3.105 -2.7201  0.6663 -1.6468
  393SOL     OW 1177   0.394   0.494   2.098  0.0325 -0.1670  0.1716
  393SOL    HW1 1178   0.307   0.451   2.065  0.7948 -0.3137 -0.3690
  393SOL    HW2 1179   0.464   0.471   2.028 -0.6332 -2.2201 -0.5278
  394SOL     OW 1180   2.919   1.825   2.797  0.3951 -0.3405  0.1334
  394SOL    HW1 1181   3.011   1.809   2.841 -1.8735 -0.5198  0.4572
  394SOL    HW2 1182   2.925   1.857   2.698 -1.3521  1.1859 -0.9900
  395SOL     OW 1183   1.575   1.914   0.709 -0.1918 -0.3624 -0.4040
  395SOL    HW1 1184   1.648   1.858   0.657  1.1455 -0.6815 -0.7642
  395SOL    HW2 1185   1.610   1.979   0.787  2.1862  0.4807  0.9876
  396SOL     OW 1186   2.750   2.050   1.333  0.4906 -0.3941  0.1417
  396SOL    HW1 1187   2.786   1.998   1.414  0.3453  1.1553 -1.0028
  396SOL    HW2 1188   2.658   2.095   1.356 -0.1155  0.9385  0.2522
  397SOL     OW 1189   1.020   2.114   0.625 -0.4469 -0.2600  0.1063
  397SOL    HW1 1190   0.936   2.057   0.608  2.4428  1.3399  0.8363
  397SOL    HW2 1191   1.010   2.201   0.682  0.4524  2.9751  0.4538
  398SOL     OW 1192   2.211   0.088   1.047  0.3980 -0.5283 -0.5817
  398SOL    HW1 1193   2.197  -0.016   1.052 -2.9671 -3.2245 -0.5199
  398SOL    HW2 1194   2.117   0.138   1.045  3.2400  0.1423 -2.3244
  399SOL     OW 1195   2.894   2.570   2.737 -0.6961  0.4008 -0.2798
  399SOL    HW1 1196   2.852   2.531   2.646 -1.6088 -0.4480  1.0519
  399SOL    HW2 1197   2.875   2.512   2.816  1.0666  1.8327 -1.8707
  400SOL     OW 1198   0.802   1.590   1.273 -0.2965 -0.1044 -0.1409
  400SOL    HW1 1199   0.769   1.620   1.367 -0.8024  1.9483 -2.3708
  400SOL    HW2 1200   0.808   1.669   1.206 -1.2234  1.9738 -0.0716
  401SOL     OW 1201   1.804   0.133   1.268  0.3622  0.2678  0.1042
  401SOL    HW1 1202   1.848   0.176   1.356 -2.0017  0.9220  1.7057
  401SOL    HW2 1203   1.703   0.145   1.274  0.3090  1.9300  0.5631
  402SOL     OW 1204   1.338   0.161   3.056  0.2614  0.0201  0.3110
  402SOL    HW1 1205   1.438   0.135   3.039  0.0432 -2.6796  1.2267
  402SOL    HW2 1206   1.322   0.251   3.101  1.5167 -2.6680 -2.1601
  403SOL     OW 1207   2.314   1.842   0.925 -0.1635  0.3674 -0.2634
  403SOL    HW1 1208   2.410   1.850   0.959 -1.4654 -0.9252  1.3714
  403SOL    HW2 1209   2.251   1.881   1.003 -1.4429 -2.5265  2.8731
  404SOL     OW 1210   0.173   2.496   2.861  0.0565  0.0626 -0.3146
  404SOL    HW1 1211   0.257   2.461   2.807  2.0275 -1.8026 -2.3014
  404SOL    HW2 1212   0.178   2.598   2.889 -1.2280  1.5792  0.4465
  405SOL     OW 1213   0.239   2.538   0.543  0.1253 -0.4703  0.4551
  405SOL    HW1 1214   0.164   2.553   0.470 -0.3564 -1.1800 -2.4127
  405SOL    HW2 1215   0.300   2.618   0.573  1.9325  0.6444 -1.9601
  406SOL     OW 1216   0.012   1.523   2.997  0.0448 -0.2785  0.5944
  406SOL    HW1 1217   0.088   1.476   2.949  1.1891 -1.1232  1.6833
  406SOL    HW2 1218   0.028   1.541   3.096 -2.3700 -0.9807 -2.4374
  407SOL     OW 1219   1.519   0.914   0.913  0.3912  0.2546 -0.4140
  407SOL    HW1 1220   1.456   0.896   0.835 -2.0305  1.0759  0.8245
  407SOL    HW2 1221   1.492   0.991   0.982  1.6942  0.7843  1.3865
  408SOL     OW 1222   1.563   2.416   0.974  0.3332 -0.3645 -0.2760
  408SOL    HW1 1223   1.629   2.401   0.896 -3.6396  0.2675  1.2451
  408SOL    HW2 1224   1.600   2.474   1.049  0.5371  0.6802  2.3797
  409SOL     OW 1225   0.624   0.841   0.720 -1.0710  0.8938  0.1090
  409SOL    HW1 1226   0.567   0.852   0.635  2.1276  0.2586  1.6944
  409SOL    HW2 1227   0.641   0.740   0.745 -0.5983  0.1755  0.3228
  410SOL     OW 1228   1.271   2.000   1.443 -0.3801 -0.8458 -0.6619
  410SOL    HW1 1229   1.281   2.047   1.537  4.5715  3.4219  2.1817
  410SOL    HW2 1230   1.187   1.951   1.423  0.3649 -0.7985  0.6790
  411SOL     OW 1231   2.400   1.796   3.104  0.4054 -0.2714 -0.0486
  411SOL    HW1 1232   2.319   1.796   3.038 -0.7153 -0.2455 -2.0530
  411SOL    HW2 1233   2.489   1.815   3.051  0.5400 -1.0562 -1.4455
  412SOL     OW 1234   1.511   2.469   2.221 -0.2500  0.6560  0.2157
  412SOL    HW1 1235   1.563   2.534   2.285  1.3315  2.1020  1.0951
  412SOL    HW2 1236   1.474   2.390   2.283  1.4720 -1.1285  4.4126
  413SOL     OW 1237   3.064   0.268   2.979  0.2389  0.6457 -0.0749
  413SOL    HW1 1238   3.055   0.171   3.005  0.8732 -0.4664 -1.6435
  413SOL    HW2 1239   3.165   0.287   2.970 -0.2100 -0.6175  0.2735
  414SOL     OW 1240   1.750   1.387   1.388  0.3500  0.2075 -0.0751
  414SOL    HW1 1241   1.667   1.434   1.435 -0.5396  0.4428  1.2818
  414SOL    HW2 1242   1.734   1.377   1.285  0.9273  0.6599 -0.1459
  415SOL     OW 1243   0.360   2.270   0.614  0.4909  0.2596  0.0823
  415SOL    HW1 1244   0.307   2.354   0.579 -0.3777  1.7101 -2.0546
  415SOL    HW2 1245   0.297   2.189   0.614 -1.2895 -2.1758 -2.2758
  416SOL     OW 1246   0.380   1.064   1.047  0.5261  0.4745 -0.1071
  416SOL    HW1 1247   0.371   1.014   0.953  2.1297 -1.7639 -2.1033
  416SOL    HW2 1248   0.474   1.106   1.055  0.8676 -1.2979 -2.1861
  417SOL     OW 1249   2.120   2.370   1.904  0.1663 -0.1800  0.0357
  417SOL    HW1 1250   2.153   2.269   1.908 -1.7280 -0.2667 -4.3927
  417SOL    HW2 1251   2.014   2.378   1.916 -1.2137 -1.2022 -0.6293
  418SOL     OW 1252   1.121   0.518   1.309 -0.5197 -0.1744 -0.3153
  418SOL    HW1 1253   1.021   0.509   1.268 -0.6825 -0.5028  2.5025
  418SOL    HW2 1254   1.190   0.464   1.256  0.6300  0.1491  0.5999
  419SOL     OW 1255   1.018   0.379   3.053  0.4273 -0.0484  0.3332
  419SOL    HW1 1256   1.030   0.421   2.959 -2.6556  0.9033  0.9447
  419SOL    HW2 1257   0.995   0.280   3.036  0.6926  0.0545  1.4862
  420SOL     OW 1258   0.228   2.256   0.325 -0.2316  0.1909 -0.1648
  420SOL    HW1 1259   0.177   2.186   0.266 -1.1372 -1.8166  1.4049
  420SOL    HW2 1260   0.177   2.271   0.410  0.9175 -2.5354 -0.5419
  421SOL     OW 1261   0.353   3.084   0.686 -0.2791 -0.0224  0.1510
  421SOL    HW1 1262   0.304   2.996   0.664 -0.3954  2.1954  2.5522
  421SOL    HW2 1263   0.457   3.094   0.665 -0.0742 -2.1416  1.1540
  422SOL     OW 1264   0.939   2.509   1.039  0.9450  0.6321 -0.4234
  422SOL    HW1 1265   0.962   2.559   0.951 -2.1071  0.0329  0.9341
  422SOL    HW2 1266   0.991   2.551   1.116  0.7731 -3.2830  2.0551
  423SOL     OW 1267   0.047   0.669   1.207 -0.3208 -0.7273 -0.0290
  423SOL    HW1 1268  -0.022   0.633   1.276  1.4169  0.2623  0.7014
  423SOL    HW2 1269   0.019   0.754   1.156  0.4912  2.2907 -1.9367
  424SOL     OW 1270   0.979   2.190   2.064 -0.0978  0.3622 -0.3235
  424SOL    HW1 1271   0.990   2.294   2.052  2.0270  0.6542 -0.7101
  424SOL    HW2 1272   0.950   2.160   2.162 -2.5377  1.3685 -0.3218
  425SOL     OW 1273   1.984   1.430   1.027 -0.2704  0.1774 -0.0679
  425SOL    HW1 1274   1.998   1.324   1.030  0.0134 -1.5516 -1.7664
  425SOL    HW2 1275   2.049   1.488   0.964 -0.2979 -0.6092  0.0252
  426SOL     OW 1276   1.510   1.563   1.449 -0.3127  0.1647  0.4141
  426SOL    HW1 1277   1.479   1.647   1.389  0.8093 -0.8445 -4.2454
  426SOL    HW2 1278   1.535   1.592   1.546  0.8273  2.1830 -0.6405
  427SOL     OW 1279   1.889   2.404   2.102 -0.2328 -0.3933 -0.1573
  427SOL    HW1 1280   1.961   2.370   2.166  0.8342  1.4240 -0.4056
  427SOL    HW2 1281   1.893   2.504   2.086 -0.4199  1.4384 -0.1847
  428SOL     OW 1282   0.864   2.990   0.150  0.0267 -0.6876 -0.0997
  428SOL    HW1 1283   0.917   3.072   0.188  0.0285  0.4406  1.1300
  428SOL    HW2 1284   0.935   2.913   0.117  0.8259 -1.8811 -0.7508
  429SOL     OW 1285   1.288   0.098   0.214 -0.7969 -0.2863  0.1403
  429SOL    HW1 1286   1.366   0.146   0.266 -0.6422 -1.7892 -1.8402
  429SOL    HW2 1287   1.302   0.104   0.113 -1.0582  1.3439 -0.9128
  430SOL     OW 1288   2.826   1.535   0.345  0.4846 -0.0601 -0.5491
  430SOL    HW1 1289   2.850   1.608   0.275 -1.3384 -1.7212 -0.9849
  430SOL    HW2 1290   2.799   1.577   0.436 -1.0355  1.2234  0.0228
  431SOL     OW 1291   2.135   1.629   0.884  0.1209 -0.1980 -0.5299
  431SOL    HW1 1292   2.204   1.700   0.919  0.3088 -0.4573 -2.0305
  431SOL    HW2 1293   2.046   1.672   0.846 -0.2749  1.6011  2.8789
  432SOL     OW 1294   2.930   2.232   1.245 -0.5375 -0.9204  0.3479
  432SOL    HW1 1295   2.846   2.178   1.275  2.9912  0.8478 -3.4199
  432SOL    HW2 1296   2.969   2.286   1.322 -1.8159  0.6243 -4.3713
  433SOL     OW 1297   1.871   0.347   0.806  0.4125  0.0018 -0.4070
  433SOL    HW1 1298   1.799   0.354   0.884  0.2618 -1.6082 -0.5718
  433SOL    HW2 1299   1.913   0.254   0.789  0.8976  0.2556 -1.3088
  434SOL     OW 1300   1.547   0.307   0.729  0.2257  0.0389  0.1272
  434SOL    HW1 1301   1.498   0.402   0.706  0.3371  2.9248 -0.0213
  434SOL    HW2 1302   1.564   0.298   0.828 -0.8456 -1.2588 -1.8335
  435SOL     OW 1303   1.440   1.399   2.139  0.4912 -0.7547  0.3559
  435SOL    HW1 1304   1.394   1.430   2.227  0.4497 -1.1193  1.0511
  435SOL    HW2 1305   1.452   1.481   2.072  0.2003  0.3704 -1.8558
  436SOL     OW 1306   1.608   2.619   2.410 -0.5096 -0.1885 -0.2798
  436SOL    HW1 1307   1.658   2.708   2.423  1.7658  0.1407 -0.7554
  436SOL    HW2 1308   1.563   2.584   2.494 -2.3718  1.1484 -0.6192
  437SOL     OW 1309   1.083   2.900   0.908 -0.3541  0.5342  0.1402
  437SOL    HW1 1310   1.023   2.975   0.870  0.9877 -0.0651 -5.2059
  437SOL    HW2 1311   1.062   2.877   1.006 -0.7293 -0.4654 -2.4977
  438SOL     OW 1312   1.076   2.595   1.271 -0.8102  0.4555 -0.2150
  438SOL    HW1 1313   1.115   2.641   1.350 -0.8611  0.1692  2.5571
  438SOL    HW2 1314   1.030   2.508   1.298  1.6252 -0.7903  1.5261
  439SOL     OW 1315   0.729   1.770   1.021  0.0113 -0.1243  0.4931
  439SOL    HW1 1316   0.719   1.858   0.969 -2.0212 -2.0000 -0.0115
  439SOL    HW2 1317   0.632   1.749   1.055  1.8740  0.9425  0.8924
  440SOL     OW 1318   1.047   2.458   2.029 -0.4355  0.5998 -0.6108
  440SOL    HW1 1319   1.043   2.531   1.956  0.7189 -1.3130 -3.1841
  440SOL    HW2 1320   1.141   2.458   2.079  0.9317  0.0103  0.1452
  441SOL     OW 1321   0.399   2.770   1.405  0.1104 -0.1692 -0.8522
  441SOL    HW1 1322   0.458   2.689   1.408  0.3406  1.7401 -2.7775
  441SOL    HW2 1323   0.338   2.783   1.321  0.2724  5.2582  0.2545
  442SOL     OW 1324   2.245   0.686   2.603 -0.2342  0.1790 -0.1239
  442SOL    HW1 1325   2.252   0.591   2.561  1.4194 -1.1492 -1.7705
  442SOL    HW2 1326   2.151   0.726   2.582 -0.0340  0.2740  1.4604
  443SOL     OW 1327   1.242   2.668   2.196 -0.3100 -0.2488 -0.1738
  443SOL    HW1 1328   1.268   2.577   2.244 -0.3130 -1.4610  1.0408
  443SOL    HW2 1329   1.241   2.745   2.262  0.2362  1.9093 -0.0727
  444SOL     OW 1330   1.036   1.229   1.500  0.3417  0.1237  0.5493
  444SOL    HW1 1331   1.140   1.226   1.478 -1.7183 -0.5363  0.4998
  444SOL    HW2 1332   1.018   1.197   1.594 -1.2628  0.5503 -3.5240
  445SOL     OW 1333   0.020   2.375   1.943 -0.4264  0.7038 -0.4316
  445SOL    HW1 1334   0.022   2.312   1.860 -2.7690  3.3129  0.5024
  445SOL    HW2 1335  -0.060   2.350   2.004 -2.7801 -0.1063 -1.4523
  446SOL     OW 1336   0.183   1.940   2.365  0.1876 -0.0417 -0.0674
  446SOL    HW1 1337   0.129   2.032   2.371 -0.5422 -0.6919 -0.2425
  446SOL    HW2 1338   0.136   1.865   2.314  2.8477  3.2090  1.7493
  447SOL     OW 1339   1.225   1.671   1.923 -0.0348 -0.1435 -0.2543
  447SOL    HW1 1340   1.130   1.717   1.930 -0.6667 -0.5607 -0.5931
  447SOL    HW2 1341   1.306   1.721   1.967  0.4398 -0.1295 -0.7536
  448SOL     OW 1342   0.153   1.431   2.019 -0.3647  0.2420 -0.3130
  448SOL    HW1 1343   0.161   1.516   1.955  1.5100 -1.4294  1.8386
  448SOL    HW2 1344   0.099   1.453   2.105 -0.3540 -1.6650  0.2407
  449SOL     OW 1345   1.825   2.972   0.851 -0.6851  0.7465  0.0385
  449SOL    HW1 1346   1.792   2.987   0.951 -1.6342  0.3073 -0.2689
  449SOL    HW2 1347   1.881   2.890   0.840 -3.4060  1.1003  0.8751
  450SOL     OW 1348   2.271   1.480   0.719  0.0681 -0.0344  1.2188
  450SOL    HW1 1349   2.210   1.535   0.782  0.3986 -3.9525  0.1882
  450SOL    HW2 1350   2.286   1.530   0.627  0.3615 -0.9829 -1.0464
  451SOL     OW 1351   1.388   3.062   1.490  0.6834 -0.4574 -0.1934
  451SOL    HW1 1352   1.299   3.115   1.491 -3.8679 -0.0837  1.7153
  451SOL    HW2 1353   1.394   3.002   1.578 -2.4914  0.1915 -2.5512
  452SOL     OW 1354   2.659   2.278   2.265  0.2087  0.1189 -0.1998
  452SOL    HW1 1355   2.589   2.347   2.292  2.0952  0.8973  0.2707
  452SOL    HW2 1356   2.716   2.239   2.346  0.4215  0.4021  0.6574
  453SOL     OW 1357   2.446   2.659   0.019 -0.1709 -0.5395 -0.7515
  453SOL    HW1 1358   2.385   2.742   0.022 -2.7928 -0.6093  3.2626
  453SOL    HW2 1359   2.439   2.612  -0.073 -1.1796  0.9879  1.4461
  454SOL     OW 1360   0.970   1.125   2.044  0.2041 -0.1733  0.3810
  454SOL    HW1 1361   0.951   1.079   1.953 -0.2912 -0.1360  1.8879
  454SOL    HW2 1362   1.033   1.209   2.035  0.3856 -1.0236 -2.3592
  455SOL     OW 1363   0.666   2.686   2.799  0.4352 -0.0331 -0.3491
  455SOL    HW1 1364   0.761   2.724   2.797 -2.5404  0.6524 -1.2786
  455SOL    HW2 1365   0.649   2.607   2.856  0.9197  2.1463 -2.9082
  456SOL     OW 1366   0.362   1.879   0.227 -0.3446 -0.1037  0.0240
  456SOL    HW1 1367   0.468   1.882   0.226  1.1441  0.0264 -0.5781
  456SOL    HW2 1368   0.327   1.973   0.193  1.3196  1.5162 -2.9605
  457SOL     OW 1369   0.394   2.781   0.597  0.4309 -0.3818 -0.2812
  457SOL    HW1 1370   0.363   2.826   0.511 -1.0140 -0.3973 -0.3332
  457SOL    HW2 1371   0.492   2.785   0.606 -1.2459 -1.9022 -0.5586
  458SOL     OW 1372   2.814   0.040   1.186  0.3739 -0.2436 -0.7806
  458SOL    HW1 1373   2.870   0.120   1.150 -2.3385  1.6318  0.6995
  458SOL    HW2 1374   2.837  -0.048   1.133  0.2331  1.2213 -0.3642
  459SOL     OW 1375   2.196   2.541   0.819 -0.2632  0.4988 -0.1529
  459SOL    HW1 1376   2.237   2.594   0.902  0.1261 -0.9980 -0.0844
  459SOL    HW2 1377   2.270   2.519   0.747 -1.1229 -0.3757  0.5649
  460SOL     OW 1378   1.208   2.076   2.780 -0.4972  0.3795  0.0443
  460SOL    HW1 1379   1.218   2.086   2.673  0.6082 -0.1562 -0.9107
  460SOL    HW2 1380   1.201   1.979   2.818 -1.8398  0.8648 -0.2018
  461SOL     OW 1381   0.496   2.116   2.705  0.6370  0.8210 -0.4724
  461SOL    HW1 1382   0.435   2.053   2.648 -0.4619  2.2144  0.5558
  461SOL    HW2 1383   0.489   2.103   2.810 -1.4989 -0.0048  0.6028
  462SOL     OW 1384   0.994   1.079   1.735  0.6908  0.3198  0.0925
  462SOL    HW1 1385   1.047   1.026   1.664 -1.7714  0.7824 -0.9880
  462SOL    HW2 1386   0.905   1.122   1.703  1.3056 -0.3573  0.3699
  463SOL     OW 1387   0.479   0.866   0.495  0.0017  0.0300 -0.0928
  463SOL    HW1 1388   0.496   0.782   0.442 -0.3422  2.7614  1.8209
  463SOL    HW2 1389   0.381   0.868   0.531  0.7057 -2.3826  1.6820
  464SOL     OW 1390   0.605   2.334   2.207 -0.8100 -0.0561  0.2753
  464SOL    HW1 1391   0.532   2.378   2.269 -2.4064 -1.6338 -1.1039
  464SOL    HW2 1392   0.574   2.325   2.104  0.7310 -1.1671 -0.0767
  465SOL     OW 1393   0.287   0.918   0.844 -0.1039 -0.0948 -0.2600
  465SOL    HW1 1394   0.194   0.927   0.796  0.5544  0.5573  2.0882
  465SOL    HW2 1395   0.314   0.816   0.848 -1.9765  2.6564 -1.2811
  466SOL     OW 1396   1.405   1.155   1.056  0.2645 -0.3990  0.0925
  466SOL    HW1 1397   1.444   1.236   1.002 -1.0027  1.4102  2.7087
  466SOL    HW2 1398   1.302   1.161   1.055  2.2957  2.6350  0.7311
  467SOL     OW 1399   0.612   0.416   2.461 -0.2116 -0.0843  0.2547
  467SOL    HW1 1400   0.543   0.491   2.464  1.1361 -1.1382  0.8739
  467SOL    HW2 1401   0.609   0.360   2.550  0.7478 -0.0317 -2.6502
  468SOL     OW 1402   0.391   2.266   1.612  0.5927 -0.0290 -0.0290
  468SOL    HW1 1403   0.490   2.285   1.647  1.1230  1.5594 -1.6812
  468SOL    HW2 1404   0.395   2.256   1.507 -1.4412  0.0048  0.0373
  469SOL     OW 1405   1.474   1.300   1.335  0.1666  0.3934 -0.6816
  469SOL    HW1 1406   1.535   1.272   1.248  2.6595  0.0929 -2.0942
  469SOL    HW2 1407   1.493   1.398   1.361 -2.2954 -0.9495  1.0428
  470SOL     OW 1408   3.015   1.855   0.721  0.1281  0.2698  0.0022
  470SOL    HW1 1409   3.059   1.922   0.656 -0.0975  0.9631  1.0205
  470SOL    HW2 1410   3.060   1.768   0.724 -1.2029  1.9534  0.4830
  471SOL     OW 1411   2.591   1.360   2.147 -0.4082 -0.3703  0.1240
  471SOL    HW1 1412   2.555   1.288   2.213  0.1383 -0.7663 -2.3585
  471SOL    HW2 1413   2.671   1.417   2.187  2.4157 -0.6170  0.0440
  472SOL     OW 1414   1.166   2.377   0.054 -0.2686 -0.0900 -0.7338
  472SOL    HW1 1415   1.241   2.340   0.119  1.7249 -0.2804 -0.6041
  472SOL    HW2 1416   1.070   2.359   0.090  0.2334  3.6665  1.6091
  473SOL     OW 1417   1.071   1.478   1.039 -0.3906 -0.5852  0.3205
  473SOL    HW1 1418   0.989   1.512   0.980 -0.3630  0.1122  0.1795
  473SOL    HW2 1419   1.040   1.419   1.116 -0.3471  0.5932  0.0468
  474SOL     OW 1420   0.655   1.289   0.596  0.3031  0.0588  0.2239
  474SOL    HW1 1421   0.567   1.261   0.542 -0.0444 -0.4288 -0.6819
  474SOL    HW2 1422   0.716   1.207   0.605 -1.2466 -0.4648 -2.0915
  475SOL     OW 1423   2.826   0.019   0.817  0.3010 -0.1664  0.4713
  475SOL    HW1 1424   2.901   0.096   0.814  0.5378  0.6452 -2.3832
  475SOL    HW2 1425   2.733   0.048   0.862 -0.2022  0.5649  1.1662
  476SOL     OW 1426   1.032   2.975   1.759  0.1786  0.0185 -0.3724
  476SOL    HW1 1427   1.107   3.042   1.785  2.6108 -2.7045 -0.8772
  476SOL    HW2 1428   1.024   2.958   1.655  0.2590 -0.8238  1.2010
  477SOL     OW 1429   1.448   0.318   2.425  0.4178  0.0536  0.8042
  477SOL    HW1 1430   1.437   0.337   2.530  1.1779  0.8321  1.2928
  477SOL    HW2 1431   1.532   0.264   2.400 -1.2748 -0.6481 -0.9705
  478SOL     OW 1432   2.231   1.847   0.217  0.0516  0.0112 -0.6187
  478SOL    HW1 1433   2.160   1.789   0.257 -1.8859  0.2612 -0.7409
  478SOL    HW2 1434   2.267   1.808   0.125 -2.1031 -2.5213  0.5362
  479SOL     OW 1435   1.261   0.948   2.874 -0.3318 -0.1371 -0.0068
  479SOL    HW1 1436   1.349   0.942   2.819 -0.4933  1.6200 -0.8603
  479SOL    HW2 1437   1.205   0.862   2.864 -0.1380 -1.2786 -0.7687
  480SOL     OW 1438   2.617   2.331   0.397  0.7460  0.5128  0.2754
  480SOL    HW1 1439   2.560   2.260   0.448 -0.0743 -0.6497 -2.0646
  480SOL    HW2 1440   2.565   2.373   0.320  2.3413 -0.3563 -2.1519
  481SOL     OW 1441   0.959   1.161   0.832 -0.9131 -0.1657  0.0487
  481SOL    HW1 1442   0.952   1.243   0.771  0.3554 -0.9495 -1.0261
  481SOL    HW2 1443   1.003   1.185   0.928 -0.6118 -0.5053  2.4333
  482SOL     OW 1444   1.560   0.317   1.985 -0.0670  0.0949 -0.1488
  482SOL    HW1 1445   1.565   0.416   1.963 -3.4702 -0.5760  0.9767
  482SOL    HW2 1446   1.654   0.276   2.022  1.5251 -0.3409  1.9792
  483SOL     OW 1447   0.133   2.309   1.233 -0.1760 -0.3503 -0.6729
  483SOL    HW1 1448   0.061   2.355   1.289  1.2911 -1.6470 -1.9475
  483SOL    HW2 1449   0.138   2.327   1.130  0.1413 -1.3047  0.4552
  484SOL     OW 1450   1.767   1.115   1.334 -0.0218  0.4911  0.8359
  484SOL    HW1 1451   1.827   1.047   1.392  2.7245  1.0565 -1.7076
  484SOL    HW2 1452   1.765   1.213   1.368  1.5907  2.2535 -0.6759
  485SOL     OW 1453   0.763   0.781   1.780  0.1499  0.5670 -0.3835
  485SOL    HW1 1454   0.735   0.854   1.711  0.9657 -0.9372 -1.2986
  485SOL    HW2 1455   0.862   0.761   1.770 -2.7801  1.1844  0.5714
  486SOL     OW 1456   0.839   1.883   2.455 -0.1400 -0.1239  0.2837
  486SOL    HW1 1457   0.892   1.872   2.550 -0.4274  0.3728  2.3321
  486SOL    HW2 1458   0.827   1.978   2.419 -1.9495 -1.5895  0.0432
  487SOL     OW 1459   1.761   1.585   0.939  0.2773  0.5984 -0.4442
  487SOL    HW1 1460   1.837   1.526   0.981  0.7877 -2.2795  0.3213
  487SOL    HW2 1461   1.798   1.657   0.875 -0.1543 -1.7209  0.0094
  488SOL     OW 1462   2.950   0.887   2.306 -0.4146  0.2732 -0.2323
  488SOL    HW1 1463   2.951   0.789   2.275  1.1593  1.7207 -0.3150
  488SOL    HW2 1464   2.969   0.894   2.407  2.0239  0.9727 -0.6526
  489SOL     OW 1465   2.811   0.373   1.284  0.8695  0.0393 -0.4468
  489SOL    HW1 1466   2.795   0.345   1.384  2.0099 -0.6614 -0.4155
  489SOL    HW2 1467   2.882   0.312   1.237  0.1012 -0.4383 -0.9775
  490SOL     OW 1468   1.405   2.933   2.812  0.1921  0.1808  0.3662
  490SOL    HW1 1469   1.477   2.856   2.828  2.6981 -0.8929  0.9074
  490SOL    HW2 1470   1.406   2.982   2.721 -3.4922 -0.6201 -0.9081
  491SOL     OW 1471   1.704   1.524   2.650 -0.0522  0.3044 -0.4638
  491SOL    HW1 1472   1.630   1.529   2.725 -4.7290  0.4650  0.6852
  491SOL    HW2 1473   1.805   1.524   2.690  2.1107  1.8052  2.7798
  492SOL     OW 1474   0.580   2.073   0.615  0.0556  0.3942 -1.0820
  492SOL    HW1 1475   0.599   2.064   0.718  0.1260  0.9495  1.6497
  492SOL    HW2 1476   0.526   2.158   0.595  0.9740 -2.8196 -0.3550
  493SOL     OW 1477   0.464   1.390   2.085 -0.4126  0.1276  0.3825
  493SOL    HW1 1478   0.375   1.436   2.060 -2.1956  0.4244  1.4238
  493SOL    HW2 1479   0.445   1.284   2.092 -0.7357 -0.2800 -3.2299
  494SOL     OW 1480   2.720   2.576   0.093 -0.1095  0.8849  0.5202
  494SOL    HW1 1481   2.728   2.567   0.196  0.5316  0.7894 -0.0591
  494SOL    HW2 1482   2.624   2.591   0.059  1.2601  0.8944  2.9754
  495SOL     OW 1483   2.555   2.742   2.608 -0.2131 -0.1819  0.5793
  495SOL    HW1 1484   2.547   2.638   2.606 -1.6340 -1.0570 -0.5707
  495SOL    HW2 1485   2.642   2.769   2.561  2.9872  1.1831  0.2369
  496SOL     OW 1486   2.022   2.284   0.807  0.2362  0.0133 -0.5193
  496SOL    HW1 1487   2.063   2.352   0.869 -0.2209 -2.0790 -0.8603
  496SOL    HW2 1488   2.033   2.182   0.834  0.8113 -1.9584 -1.3278
  497SOL     OW 1489   0.164   3.007   2.362  0.6322 -0.3356  0.3811
  497SOL    HW1 1490   0.170   3.074   2.440  0.7805 -1.1488 -0.6038
  497SOL    HW2 1491   0.221   3.029   2.278  0.8456  1.1358 -1.9241
  498SOL     OW 1492   1.199   1.317   1.266 -0.0195  0.0261 -0.1331
  498SOL    HW1 1493   1.287   1.282   1.301  0.1635 -0.7844  0.3291
  498SOL    HW2 1494   1.170   1.395   1.329 -0.0974  0.7228  1.7566
  499SOL     OW 1495   0.640   1.820   0.266  0.1094 -0.1955 -0.0474
  499SOL    HW1 1496   0.641   1.738   0.206  0.4724  2.6933  4.7997
  499SOL    HW2 1497   0.729   1.831   0.316 -1.3621  1.7017  1.8712
  500SOL     OW 1498   1.390   2.875   1.690 -0.0351  0.0524 -0.2964
  500SOL    HW1 1499   1.357   2.853   1.789 -2.7635 -1.9858  2.4098
  500SOL    HW2 1500   1.455   2.795   1.663  2.5085  1.6621  1.8910
  501SOL     OW 1501   0.777   1.168   2.297  0.2425  0.0015  0.5211
  501SOL    HW1 1502   0.693   1.105   2.290 -0.2358 -2.9462  1.5602
  501SOL    HW2 1503   0.832   1.170   2.204 -0.3666 -3.1544  3.8676
  502SOL     OW 1504   2.550   0.947   1.780 -0.2363  0.4107 -0.0583
  502SOL    HW1 1505   2.568   0.974   1.680 -0.4285 -0.0854 -1.2974
  502SOL    HW2 1506   2.547   0.845   1.798 -1.3204 -0.1796 -0.0939
  503SOL     OW 1507   1.297   0.171   0.587  0.1748  0.3125  0.2194
  503SOL    HW1 1508   1.226   0.220   0.639  0.9553 -0.0813 -0.8097
  503SOL    HW2 1509   1.391   0.202   0.604 -0.6091 -0.9001 -0.6370
  504SOL     OW 1510   3.010   2.333   1.476  0.0601  0.0435  0.3761
  504SOL    HW1 1511   2.953   2.398   1.536 -0.4577 -0.0774  1.8744
  504SOL    HW2 1512   3.071   2.271   1.530 -3.8811 -0.1334  0.4385
  505SOL     OW 1513   2.279   1.186   1.414 -0.4621 -0.1760  0.2606
  505SOL    HW1 1514   2.262   1.227   1.317  2.6093 -0.6723 -1.4451
  505SOL    HW2 1515   2.363   1.217   1.463 -0.3704  0.7776 -1.5328
  506SOL     OW 1516   1.927   0.207   1.818 -0.3571  0.0956  0.3937
  506SOL    HW1 1517   2.005   0.140   1.806  2.3112 -0.2726 -0.3943
  506SOL    HW2 1518   1.958   0.302   1.796  2.2573 -0.3638  0.3857
  507SOL     OW 1519   0.574   0.698   2.167  1.0760  0.1460 -0.4892
  507SOL    HW1 1520   0.479   0.652   2.140 -3.4614 -1.6405  2.1833
  507SOL    HW2 1521   0.657   0.640   2.149  0.4041 -0.4571 -3.6615
  508SOL     OW 1522   0.313   1.641   0.773 -0.1993 -0.5613 -0.5781
  508SOL    HW1 1523   0.376   1.710   0.737 -2.7068 -1.0256 -0.5735
  508SOL    HW2 1524   0.265   1.671   0.857  0.3106 -0.5168 -1.9799
  509SOL     OW 1525   1.289   1.194   2.439  0.0636 -0.2229 -0.2752
  509SOL    HW1 1526   1.345   1.147   2.364 -0.8436  2.3613  2.0657
  509SOL    HW2 1527   1.190   1.170   2.432 -1.6551 -0.4008  1.8095
  510SOL     OW 1528   1.267   2.115   2.233 -0.1741  0.5534  0.0236
  510SOL    HW1 1529   1.333   2.131   2.150  1.6806  0.1986  0.9815
  510SOL    HW2 1530   1.227   2.018   2.240  1.5359 -3.5217 -1.4562
  511SOL     OW 1531   3.000   2.699   1.258  0.0158  0.2482 -0.1407
  511SOL    HW1 1532   2.976   2.667   1.163 -4.2155 -3.0533 -2.5008
  511SOL    HW2 1533   2.916   2.714   1.312  0.3014 -2.2621  0.6290
  512SOL     OW 1534   2.413   0.447   1.379  0.3050 -0.6460  0.0597
  512SOL    HW1 1535   2.321   0.491   1.351 -0.8136  0.6309 -0.4111
  512SOL    HW2 1536   2.449   0.401   1.295  2.8650  0.0178 -0.8119
  513SOL     OW 1537   2.584   2.155   0.944  0.6936 -0.5780 -0.2328
  513SOL    HW1 1538   2.526   2.218   0.881  0.7602 -1.1828  0.0169
  513SOL    HW2 1539   2.677   2.132   0.898  3.2804 -2.2705 -0.7943
  514SOL     OW 1540   0.680   2.771   0.412  0.3025 -0.3784  0.3492
  514SOL    HW1 1541   0.608   2.846   0.401 -2.9838 -1.3441  0.7206
  514SOL    HW2 1542   0.753   2.788   0.485 -0.2040  1.8104 -1.5146
  515SOL     OW 1543   1.906   1.350   2.377 -0.1576 -0.1827  0.5863
  515SOL    HW1 1544   1.913   1.299   2.284  0.9929 -0.5442  0.1225
  515SOL    HW2 1545   1.826   1.322   2.437 -2.1069 -0.6923  2.1398
  516SOL     OW 1546   0.288   0.312   1.889 -0.2472 -0.2495 -0.3313
  516SOL    HW1 1547   0.388   0.279   1.879  2.5009  1.0309 -1.0874
  516SOL    HW2 1548   0.222   0.270   1.825  1.7328  1.5815  1.4197
  517SOL     OW 1549   0.481   0.116   1.123  0.5672  0.0497  0.1953
  517SOL    HW1 1550   0.509   0.134   1.216  0.9682 -0.8000  0.7921
  517SOL    HW2 1551   0.402   0.051   1.124 -0.9046  0.4204  1.0397
  518SOL     OW 1552   2.132   3.099   1.793  0.3161  0.1893  0.3783
  518SOL    HW1 1553   2.216   3.158   1.790 -0.2487 -1.4657 -1.0514
  518SOL    HW2 1554   2.150   3.027   1.720  0.8184 -0.4968 -2.3974
  519SOL     OW 1555   2.302   2.103   2.483 -0.0023 -0.2857 -0.5535
  519SOL    HW1 1556   2.252   2.075   2.566 -0.8333 -2.1252  0.2144
  519SOL    HW2 1557   2.304   2.202   2.458 -0.8658 -0.2142  0.2907
  520SOL     OW 1558   1.824   2.705   1.739  0.3246  0.2875  0.1144
  520SOL    HW1 1559   1.770   2.640   1.803 -0.8742 -2.1565  4.7746
  520SOL    HW2 1560   1.912   2.654   1.702  0.8628  0.4281  1.9046
  521SOL     OW 1561   0.550   0.002   2.072  0.2524 -0.3154 -0.0816
  521SOL    HW1 1562   0.450  -0.015   2.088 -0.7044  1.2000 -2.0081
  521SOL    HW2 1563   0.610   0.025   2.155 -2.6437  0.5292  0.5960
  522SOL     OW 1564   0.194   1.836   1.542 -0.3536  0.1417  0.3411
  522SOL    HW1 1565   0.252   1.896   1.604  0.1062 -1.1329  2.2183
  522SOL    HW2 1566   0.174   1.887   1.450 -0.5411 -1.0136 -1.5608
  523SOL     OW 1567   2.184   2.928   1.562 -0.0574  0.7318  0.9054
  523SOL    HW1 1568   2.244   2.841   1.547 -2.2372 -0.9890  0.3608
  523SOL    HW2 1569   2.116   2.935   1.486  1.1438 -2.9646  2.0854
  524SOL     OW 1570   0.186   2.788   2.856 -0.0706 -0.0785  0.1750
  524SOL    HW1 1571   0.137   2.870   2.886  0.3118 -0.8165  1.5038
  524SOL    HW2 1572   0.285   2.808   2.818  1.6554 -0.2485  0.6535
  525SOL     OW 1573   2.186   2.035   0.430  0.5359 -0.4361  0.5224
  525SOL    HW1 1574   2.202   1.995   0.530 -0.6003 -0.7465  1.4032
  525SOL    HW2 1575   2.224   1.981   0.353  3.3833 -0.8348  0.1638
  526SOL     OW 1576   0.444   1.534   1.816  0.2523 -0.2105 -0.9970
  526SOL    HW1 1577   0.543   1.556   1.840 -0.1129 -2.1398  2.2376
  526SOL    HW2 1578   0.436   1.436   1.840  1.2556 -1.9204  0.0922
  527SOL     OW 1579   1.102   2.877   1.201  0.3139 -0.2839 -0.3775
  527SOL    HW1 1580   1.181   2.845   1.262 -2.0706  0.1893 -2.2210
  527SOL    HW2 1581   1.119   2.976   1.178 -2.7927 -1.4338 -1.8934
  528SOL     OW 1582   1.376   2.352   0.538  0.4695  0.3059  0.6538
  528SOL    HW1 1583   1.399   2.248   0.552  0.4902 -4.2444  1.5180
  528SOL    HW2 1584   1.443   2.414   0.588 -0.2377 -0.6193 -0.8217
  529SOL     OW 1585   1.918   1.760   0.782  0.2570  0.1874  0.4565
  529SOL    HW1 1586   1.865   1.755   0.693  0.3869 -0.2146 -1.6751
  529SOL    HW2 1587   1.930   1.855   0.818 -0.9223  0.3955 -0.8576
  530SOL     OW 1588   0.408   2.539   0.178 -0.5423 -0.1168  0.5481
  530SOL    HW1 1589   0.420   2.521   0.275 -0.9253 -2.1673 -1.9326
  530SOL    HW2 1590   0.418   2.451   0.120  0.6048  0.6929  1.9271
  531SOL     OW 1591   1.830   0.958   1.114  0.2456 -0.3211 -0.2982
  531SOL    HW1 1592   1.743   0.917   1.080  1.1318 -1.5929 -0.1100
  531SOL    HW2 1593   1.818   0.998   1.206  0.6704  0.7295  0.9379
  532SOL     OW 1594   0.291   1.181   0.734  0.6180  0.2696  0.4966
  532SOL    HW1 1595   0.360   1.169   0.658  1.8776  2.5612 -0.2555
  532SOL    HW2 1596   0.269   1.094   0.786  1.7452  1.3871  3.2648
  533SOL     OW 1597   1.798   0.009   2.591  0.3355 -0.1357  0.4056
  533SOL    HW1 1598   1.900  -0.002   2.586 -2.0705 -0.5699 -2.9111
  533SOL    HW2 1599   1.759   0.080   2.654  0.7327  2.0644  0.4655
  534SOL     OW 1600   0.210   0.211   1.495 -0.3251 -0.2192 -0.2185
  534SOL    HW1 1601   0.284   0.263   1.438 -0.2845  2.9434 -2.4830
  534SOL    HW2 1602   0.135   0.277   1.527  0.2730  0.9470 -0.4485
  535SOL     OW 1603   1.846   0.332   0.202 -0.2926  0.0918 -0.4345
  535SOL    HW1 1604   1.875   0.374   0.295 -0.0904 -0.8776 -0.4049
  535SOL    HW2 1605   1.756   0.273   0.200  1.2797  1.0744 -0.6857
  536SOL     OW 1606   1.346   2.597   0.930  0.2603 -0.1107 -0.3107
  536SOL    HW1 1607   1.425   2.531   0.948  2.2869  1.9853  3.0094
  536SOL    HW2 1608   1.262   2.556   0.881  2.7350 -1.7143 -0.2799
  537SOL     OW 1609   0.887   0.223   2.355 -0.1153  0.2659  0.2186
  537SOL    HW1 1610   0.922   0.248   2.261  0.2962  1.7307 -1.6832
  537SOL    HW2 1611   0.787   0.198   2.362 -0.9805 -0.9562  0.9870
  538SOL     OW 1612   1.646   2.356   1.491 -0.3311  0.1415  0.1692
  538SOL    HW1 1613   1.629   2.263   1.452  0.6503  1.3465  0.0679
  538SOL    HW2 1614   1.744   2.380   1.469 -0.0377 -3.8150 -0.7643
  539SOL     OW 1615   0.170   1.583   2.670  0.7185 -0.1642 -0.1881
  539SOL    HW1 1616   0.077   1.557   2.628 -3.1374  1.1650  1.3888
  539SOL    HW2 1617   0.174   1.681   2.714 -0.7756  2.2465  2.2643
  540SOL     OW 1618   2.724   1.668   1.986  0.4838 -0.5325 -0.3620
  540SOL    HW1 1619   2.644   1.608   1.956  0.8646  1.9297  3.4113
  540SOL    HW2 1620   2.692   1.760   2.024 -0.5658 -3.1239 -0.1429
  541SOL     OW 1621   0.457   2.328   0.011  0.1253 -0.4041  0.3540
  541SOL    HW1 1622   0.464   2.271   0.101  0.2183 -3.1032  3.3623
  541SOL    HW2 1623   0.390   2.280  -0.050  0.4482 -2.1664  0.3257
  542SOL     OW 1624   2.253   2.576   0.443 -0.0709 -0.0742 -0.4572
  542SOL    HW1 1625   2.225   2.674   0.417  0.0379  2.0870  0.1988
  542SOL    HW2 1626   2.185   2.525   0.504  0.3368  2.1105 -0.5597
  543SOL     OW 1627   0.999   1.766   1.723  0.2127 -0.5578 -0.2222
  543SOL    HW1 1628   1.005   1.793   1.823  0.7629 -0.4339  1.1439
  543SOL    HW2 1629   0.972   1.843   1.661  2.6303 -0.4800  1.6952
  544SOL     OW 1630   0.906   0.389   0.203  0.5493 -0.5656 -0.6864
  544SOL    HW1 1631   0.940   0.308   0.258  1.5338  1.2114 -0.7080
  544SOL    HW2 1632   0.946   0.387   0.105  4.0073  2.7156  0.8659
  545SOL     OW 1633   1.101   1.714   0.636 -0.1647 -0.2797  0.6848
  545SOL    HW1 1634   1.180   1.750   0.693 -0.0958  0.9998  2.3494
  545SOL    HW2 1635   1.110   1.731   0.534 -0.5047  0.9894 -0.2655
  546SOL     OW 1636   2.636   1.541   3.054 -0.7611  0.2730 -0.4455
  546SOL    HW1 1637   2.576   1.556   2.974  2.2417  1.6026 -2.8293
  546SOL    HW2 1638   2.581   1.522   3.144 -0.7364 -0.3865 -1.3787
  547SOL     OW 1639   0.544   0.025   2.771  0.0430 -0.5556 -0.0399
  547SOL    HW1 1640   0.631   0.001   2.719  2.4776  2.2735  0.6214
  547SOL    HW2 1641   0.497  -0.061   2.790 -3.3536  2.6688 -3.3960
  548SOL     OW 1642   2.038   0.827   3.031 -0.1744 -0.2612  0.2847
  548SOL    HW1 1643   1.940   0.794   3.033 -1.7535 -0.8619  1.0211
  548SOL    HW2 1644   2.043   0.929   3.046 -1.4445 -1.9626 -0.5924
  549SOL     OW 1645   0.657   0.517   0.199  0.0502  0.8765  0.2215
  549SOL    HW1 1646   0.661   0.599   0.139 -0.1082  2.2524  0.7386
  549SOL    HW2 1647   0.755   0.485   0.221  3.8675  2.4259  1.0702
  550SOL     OW 1648   2.536   2.862   2.873 -0.4308 -0.1017 -0.1900
  550SOL    HW1 1649   2.517   2.782   2.941 -1.2899  1.3003  2.3408
  550SOL    HW2 1650   2.552   2.828   2.774  0.1387  2.9036  0.5543
  551SOL     OW 1651   0.277   0.913   0.235  0.2248 -0.0434 -0.0582
  551SOL    HW1 1652   0.379   0.888   0.231  0.0964 -2.3252 -0.7052
  551SOL    HW2 1653   0.251   0.931   0.333  1.5645  0.6184  1.9966
  552SOL     OW 1654   0.770   2.879   1.855 -0.0504  0.8379  0.3434
  552SOL    HW1 1655   0.726   2.902   1.946 -3.8446  1.7922  3.3535
  552SOL    HW2 1656   0.859   2.934   1.844 -0.6075  2.9569 -0.0720
  553SOL     OW 1657   0.010   2.526   0.362  1.0983  0.1539 -0.0314
  553SOL    HW1 1658  -0.045   2.439   0.380 -1.2556 -1.0334  3.1933
  553SOL    HW2 1659  -0.043   2.604   0.408 -1.4468  2.1141 -1.0281
  554SOL     OW 1660   2.235   0.331   0.571 -0.3955  0.4435  0.5227
  554SOL    HW1 1661   2.275   0.302   0.477 -3.6078 -0.6447  1.1299
  554SOL    HW2 1662   2.253   0.262   0.643 -0.2176  0.9397  0.3729
  555SOL     OW 1663   0.425   2.886   2.473 -0.1804  0.2936  0.7349
  555SOL    HW1 1664   0.329   2.913   2.443  0.2827 -3.5350 -0.7768
  555SOL    HW2 1665   0.468   2.833   2.397 -0.5738  1.3217  1.4881
  556SOL     OW 1666   0.907   2.378   1.654  0.1997  0.1689 -0.7427
  556SOL    HW1 1667   0.929   2.463   1.708  1.1322 -0.1659 -2.2191
  556SOL    HW2 1668   0.972   2.361   1.577 -1.1372 -0.1234 -1.3292
  557SOL     OW 1669   0.105   2.096   0.133 -0.4110 -0.1125  0.1152
  557SOL    HW1 1670   0.026   2.051   0.086  0.4612  0.2152 -2.1180
  557SOL    HW2 1671   0.137   2.171   0.067 -0.1267  0.6771  0.1356
  558SOL     OW 1672   2.938   2.281   0.358 -0.2716  0.3591 -0.3380
  558SOL    HW1 1673   2.868   2.207   0.380 -0.6783  0.6388  2.9142
  558SOL    HW2 1674   2.936   2.301   0.255 -1.0140 -0.2632  0.5595
  559SOL     OW 1675   0.394   2.273   1.334 -0.0742  0.6679  0.7444
  559SOL    HW1 1676   0.301   2.280   1.286 -2.4365 -1.6499 -0.3058
  559SOL    HW2 1677   0.437   2.179   1.326  1.0717  2.9214  1.2749
  560SOL     OW 1678   2.096   1.098   3.061  0.2007  0.0319 -0.2602
  560SOL    HW1 1679   2.053   1.183   3.097 -1.6161 -1.3038  1.0304
  560SOL    HW2 1680   2.198   1.104   3.046  0.3037 -0.2410 -0.5311
  561SOL     OW 1681   3.005   1.942   3.099 -0.0138  0.2418  0.3739
  561SOL    HW1 1682   2.942   1.872   3.140 -0.5946  2.1303 -0.5549
  561SOL    HW2 1683   2.942   2.012   3.057 -3.0478  0.2319 -0.4846
  562SOL     OW 1684   0.924   2.138   2.387  0.6265  0.4791  0.3065
  562SOL    HW1 1685   0.820   2.150   2.390 -1.8325  0.6830 -0.2638
  562SOL    HW2 1686   0.965   2.154   2.480 -1.9261 -0.2724 -3.4590
  563SOL     OW 1687   0.683   2.447   2.592 -0.0560  0.1189 -0.1567
  563SOL    HW1 1688   0.751   2.376   2.627  1.7131  1.3577  1.9489
  563SOL    HW2 1689   0.620   2.472   2.663 -1.6598  1.1132 -0.7024
  564SOL     OW 1690   2.768   1.301   2.911  0.4611  0.1821  0.7423
  564SOL    HW1 1691   2.685   1.293   2.971  1.9444 -1.3421 -0.8327
  564SOL    HW2 1692   2.781   1.394   2.866 -0.4800  0.0129  0.0966
  565SOL     OW 1693   2.539   1.996   2.570  0.2278  0.3351  0.1570
  565SOL    HW1 1694   2.459   2.040   2.520 -0.6640  0.5677 -0.1625
  565SOL    HW2 1695   2.554   2.030   2.668  1.0475 -1.2929  1.6008
  566SOL     OW 1696   2.011   2.869   1.323  0.1144 -0.0426  0.2131
  566SOL    HW1 1697   1.954   2.781   1.309  1.3350 -1.2015  1.0856
  566SOL    HW2 1698   2.056   2.901   1.232 -2.0294 -1.3881  0.8744
  567SOL     OW 1699   2.450   0.130   2.234  0.4030  0.1811  0.8945
  567SOL    HW1 1700   2.370   0.071   2.197 -2.0361 -1.2094  1.7062
  567SOL    HW2 1701   2.449   0.223   2.192  3.5165 -2.3889  0.0816
  568SOL     OW 1702   1.548   1.817   0.270 -0.2178 -0.0840 -0.4964
  568SOL    HW1 1703   1.475   1.881   0.232 -2.1917 -1.2189 -1.4409
  568SOL    HW2 1704   1.633   1.801   0.209 -0.2617  0.0181 -3.0710
  569SOL     OW 1705   0.304   0.643   0.832 -0.2309 -0.2695  0.5107
  569SOL    HW1 1706   0.347   0.598   0.754 -0.4012  1.0390  0.0411
  569SOL    HW2 1707   0.229   0.586   0.862  0.1035 -0.1022  0.6982
  570SOL     OW 1708   0.657   0.742   2.841  0.7538  0.1429  0.1171
  570SOL    HW1 1709   0.678   0.757   2.742 -0.6754  0.1866 -1.6567
  570SOL    HW2 1710   0.681   0.829   2.893  3.4323  0.9022  0.0107
  571SOL     OW 1711   0.856   3.063   1.108 -0.4311  0.0342  0.3448
  571SOL    HW1 1712   0.891   3.118   1.026  0.0280 -0.9703 -1.4249
  571SOL    HW2 1713   0.895   2.967   1.113 -1.7473  1.7009  3.0502
  572SOL     OW 1714   1.571   2.642   1.136 -0.0744 -0.0217  0.3310
  572SOL    HW1 1715   1.495   2.590   1.182  1.7932  2.8259 -0.6561
  572SOL    HW2 1716   1.542   2.742   1.125  1.1398 -1.6414 -0.0943
  573SOL     OW 1717   2.924   0.415   2.055 -0.1166 -0.0766  0.0061
  573SOL    HW1 1718   2.885   0.315   2.048  0.8309 -0.8746 -0.7429
  573SOL    HW2 1719   2.862   0.484   2.011 -0.4883 -2.2626  2.2462
  574SOL     OW 1720   0.215   1.774   0.994  0.1481 -0.2359 -0.1660
  574SOL    HW1 1721   0.217   1.872   0.959  0.7481  0.2903 -2.0986
  574SOL    HW2 1722   0.121   1.751   1.029  2.4023  0.4076  0.8683
  575SOL     OW 1723   0.812   2.161   0.968  0.8820 -0.1043  0.3525
  575SOL    HW1 1724   0.828   2.191   1.068 -0.0579 -0.8433 -0.4482
  575SOL    HW2 1725   0.849   2.231   0.900 -1.2234  0.4911  0.0022
  576SOL     OW 1726   2.934   2.929   1.699 -0.0915  0.1518 -0.4036
  576SOL    HW1 1727   2.884   2.888   1.617 -1.8846 -0.6869 -2.2376
  576SOL    HW2 1728   2.961   3.029   1.675  2.3660  3.1643 -0.5699
  577SOL     OW 1729   2.543   1.237   3.088 -0.2634 -0.3159  0.1819
  577SOL    HW1 1730   2.572   1.142   3.052  0.5973 -1.2757 -1.0920
  577SOL    HW2 1731   2.582   1.251   3.183  0.3211 -0.4671  2.0135
  578SOL     OW 1732   1.323   2.683   2.587  0.8241 -0.5013  0.3681
  578SOL    HW1 1733   1.243   2.675   2.520  1.2364 -3.8293  4.5056
  578SOL    HW2 1734   1.351   2.782   2.593 -0.9696 -1.1814  0.1416
  579SOL     OW 1735   0.119   2.511   0.109 -0.1149 -0.1080  0.2846
  579SOL    HW1 1736   0.074   2.527   0.202 -0.3845 -1.7771  0.6350
  579SOL    HW2 1737   0.222   2.489   0.117  1.6084  1.8033  1.6719
  580SOL     OW 1738   1.003   2.601   0.381 -0.1562 -0.2400  0.0359
  580SOL    HW1 1739   1.098   2.614   0.333  0.3490 -0.3049 -2.1529
  580SOL    HW2 1740   0.936   2.546   0.324  2.6095 -1.4711  1.1691
  581SOL     OW 1741   1.228   2.612   1.512 -0.5433 -0.6217  0.1400
  581SOL    HW1 1742   1.259   2.533   1.453  2.0033  0.1701 -0.8251
  581SOL    HW2 1743   1.292   2.691   1.496  1.1496 -1.4152 -1.0005
  582SOL     OW 1744   1.489   0.094   1.820 -0.0200  0.2442 -0.4682
  582SOL    HW1 1745   1.520   0.176   1.878 -1.1044  0.6943 -1.2019
  582SOL    HW2 1746   1.568   0.056   1.771 -1.6562 -2.0945 -1.1864
  583SOL     OW 1747   2.507   2.976   0.531  0.0463 -0.0663 -0.0776
  583SOL    HW1 1748   2.528   2.896   0.464  1.3405 -0.3977 -1.9430
  583SOL    HW2 1749   2.451   2.944   0.608  1.0874  4.9561 -1.5103
  584SOL     OW 1750   1.617   1.019   2.087 -0.0231 -0.5848  0.1178
  584SOL    HW1 1751   1.672   1.070   2.012  2.7582  0.7111  0.3309
  584SOL    HW2 1752   1.677   0.967   2.155 -1.1952  2.3038  2.9887
  585SOL     OW 1753   2.090   2.657   2.919 -0.2612  0.4243  0.6578
  585SOL    HW1 1754   2.112   2.561   2.898 -0.0150  3.0174  1.0795
  585SOL    HW2 1755   1.984   2.677   2.907  1.2927  2.9265 -0.3090
  586SOL     OW 1756   2.732   0.233   1.522 -0.0455 -0.3203  0.5293
  586SOL    HW1 1757   2.762   0.303   1.598 -1.6334  1.2003  0.0853
  586SOL    HW2 1758   2.638   0.184   1.537 -3.3266 -2.4221 -1.3983
  587SOL     OW 1759   1.970   1.601   2.740 -0.1520 -0.5872  0.3041
  587SOL    HW1 1760   2.033   1.565   2.665  2.0057 -2.7405  0.0543
  587SOL    HW2 1761   2.016   1.606   2.834 -0.4576  2.6431 -1.2182
  588SOL     OW 1762   0.459   2.733   2.241  0.0389 -0.2305  0.7849
  588SOL    HW1 1763   0.371   2.709   2.189 -1.5196  0.7500 -2.0487
  588SOL    HW2 1764   0.491   2.647   2.294 -1.9217 -2.8803 -2.0716
  589SOL     OW 1765   2.106   1.442   2.539  0.1419  0.1697 -0.2669
  589SOL    HW1 1766   2.037   1.395   2.477 -1.5293  0.9517  1.2480
  589SOL    HW2 1767   2.173   1.370   2.582 -1.7134 -1.6789 -0.0596
  590SOL     OW 1768   2.361   1.671   2.029 -0.5074  0.1363  0.0364
  590SOL    HW1 1769   2.435   1.604   1.996 -1.2137 -1.0417  1.6185
  590SOL    HW2 1770   2.370   1.698   2.130  0.5037  0.3860  0.0866
  591SOL     OW 1771   1.387   2.416   0.261  0.5947 -0.2187 -0.6135
  591SOL    HW1 1772   1.486   2.431   0.226  0.5526  0.1567 -1.6736
  591SOL    HW2 1773   1.385   2.375   0.359  0.5246  0.2869 -0.5108
  592SOL     OW 1774   1.774   2.370   0.802  0.2257 -0.1085  0.3048
  592SOL    HW1 1775   1.731   2.396   0.710 -1.0810  0.5120 -1.8948
  592SOL    HW2 1776   1.874   2.347   0.789 -1.9726 -1.5835  1.4539
  593SOL     OW 1777   0.656   0.273   0.088  0.6699  0.5417  0.7002
  593SOL    HW1 1778   0.745   0.258   0.031  0.4077  0.4301 -1.1569
  593SOL    HW2 1779   0.661   0.359   0.145 -0.2001 -3.1711 -1.1332
  594SOL     OW 1780   0.976   1.880   2.704  0.4107 -0.6266  0.5476
  594SOL    HW1 1781   1.073   1.872   2.741  1.7936  0.9837  0.5427
  594SOL    HW2 1782   0.917   1.946   2.759  0.9405 -1.0259  0.4936
  595SOL     OW 1783   1.521   0.064   1.015 -0.4792  0.4888  0.1701
  595SOL    HW1 1784   1.600   0.002   1.039  0.2712  2.0141  2.0288
  595SOL    HW2 1785   1.457   0.029   0.939 -1.7614 -2.5336 -1.1620
  596SOL     OW 1786   3.077   1.477   2.214  0.4272  0.6079  0.4749
  596SOL    HW1 1787   2.973   1.466   2.223 -2.4159  1.4505  1.0355
  596SOL    HW2 1788   3.109   1.554   2.275 -3.6332  0.6352 -1.7810
  597SOL     OW 1789   2.062   2.613   1.644  0.3878 -0.5562  0.0698
  597SOL    HW1 1790   2.055   2.577   1.554 -0.0283  1.9902  1.3055
  597SOL    HW2 1791   2.149   2.583   1.691  0.9010 -0.3323 -3.0258
  598SOL     OW 1792   2.465   2.934   1.350 -0.0093 -0.2625 -0.7037
  598SOL    HW1 1793   2.559   2.966   1.373 -1.3607  3.2160 -2.5088
  598SOL    HW2 1794   2.462   2.870   1.272  1.0487  4.2376 -1.7839
  599SOL     OW 1795   2.935   0.402   2.463 -0.2153  0.3131  0.4244
  599SOL    HW1 1796   2.966   0.492   2.424  1.1114  0.3580  0.5075
  599SOL    HW2 1797   2.845   0.368   2.422  0.6657  0.6152  0.2338
  600SOL     OW 1798   2.824   1.119   2.706 -0.4056 -0.2936  0.4328
  600SOL    HW1 1799   2.762   1.036   2.710 -1.5831  1.9029 -0.2809
  600SOL    HW2 1800   2.805   1.185   2.785  2.4458 -3.1057 -1.4769
  601SOL     OW 1801   3.012   1.266   1.970 -0.9186  0.1265 -0.4228
  601SOL    HW1 1802   2.940   1.302   1.905  0.6366  0.2412 -2.8309
  601SOL    HW2 1803   3.096   1.330   1.993 -1.1962  1.5491  0.4316
  602SOL     OW 1804   1.439   1.697   2.371 -0.4508 -0.4266 -0.1722
  602SOL    HW1 1805   1.385   1.609   2.378 -1.3352  0.2398  0.2571
  602SOL    HW2 1806   1.541   1.678   2.383  3.1056 -3.0250 -0.5231
  603SOL     OW 1807   0.638   1.240   2.690 -0.0771 -0.4090  0.6849
  603SOL    HW1 1808   0.558   1.245   2.622  0.3802  0.2943 -0.1305
  603SOL    HW2 1809   0.702   1.164   2.668 -0.3608  0.2013  1.8545
  604SOL     OW 1810   2.408   0.998   0.145  0.2821  0.3024 -0.3734
  604SOL    HW1 1811   2.492   1.046   0.125  2.5359 -1.5019  1.1343
  604SOL    HW2 1812   2.389   0.915   0.082 -3.5717  0.6213 -0.5730
  605SOL     OW 1813   2.641   1.154   1.941 -0.1441  0.2249 -0.2680
  605SOL    HW1 1814   2.587   1.069   1.907 -2.1955 -2.6407 -1.0477
  605SOL    HW2 1815   2.618   1.184   2.039  1.5072  0.1576  0.3857
  606SOL     OW 1816   1.519   2.504   2.655 -0.0452  0.0300 -0.2744
  606SOL    HW1 1817   1.419   2.542   2.648 -0.3744 -1.9298 -0.7765
  606SOL    HW2 1818   1.524   2.411   2.612  1.4698 -0.8985  0.1756
  607SOL     OW 1819   1.381   1.605   0.399 -0.0262  0.2861  0.4361
  607SOL    HW1 1820   1.389   1.584   0.498 -2.0942 -0.6904 -1.0126
  607SOL    HW2 1821   1.429   1.695   0.369  2.5800  1.5297 -1.1073
  608SOL     OW 1822   1.447   2.820   0.401  0.4786 -0.2467 -0.3775
  608SOL    HW1 1823   1.506   2.889   0.348  0.0932 -0.4427  1.4589
  608SOL    HW2 1824   1.371   2.870   0.453 -0.6461 -0.8315 -2.0478
  609SOL     OW 1825   1.265   1.402   0.268  0.3900  0.5219 -0.0411
  609SOL    HW1 1826   1.298   1.475   0.336  1.0129  0.1581 -0.0291
  609SOL    HW2 1827   1.177   1.425   0.228 -0.1655  0.8197 -0.3015
  610SOL     OW 1828   3.021   1.135   2.222  0.4065  0.2011 -0.7103
  610SOL    HW1 1829   2.976   1.043   2.232  0.9045  0.3050  1.3815
  610SOL    HW2 1830   3.042   1.165   2.122 -1.0113  0.4587 -3.5460
  611SOL     OW 1831   2.570   0.305   1.170  0.4566 -0.5032 -0.1760
  611SOL    HW1 1832   2.529   0.217   1.209  2.0728 -0.3819  0.7429
  611SOL    HW2 1833   2.659   0.327   1.221  0.4737 -0.6850  1.3919
  612SOL     OW 1834   0.799   2.236   1.238 -0.6413  0.2616 -0.3071
  612SOL    HW1 1835   0.725   2.166   1.261 -1.4931  1.3099 -1.3633
  612SOL    HW2 1836   0.755   2.322   1.199 -0.9953 -0.4297  1.8055
  613SOL     OW 1837   0.833   1.411   2.428 -0.3899 -0.0027  0.3030
  613SOL    HW1 1838   0.849   1.448   2.332 -1.1465  3.5774 -0.0923
  613SOL    HW2 1839   0.759   1.336   2.431  0.4862 -2.0941 -2.0567
  614SOL     OW 1840   1.635   1.646   1.924 -0.6423  0.0953  0.3330
  614SOL    HW1 1841   1.553   1.704   1.949 -0.1857  0.7588 -0.7186
  614SOL    HW2 1842   1.704   1.646   2.002 -0.2529  2.4399 -0.1297
  615SOL     OW 1843   0.790   1.274   1.681 -0.0612  0.5939 -0.5508
  615SOL    HW1 1844   0.717   1.270   1.607  3.8296 -3.4189  2.4902
  615SOL    HW2 1845   0.852   1.358   1.669 -2.8157  0.2016  0.6528
  616SOL     OW 1846   1.071   1.608   2.310 -0.2864 -0.0619  0.4905
  616SOL    HW1 1847   0.986   1.581   2.256  3.1640 -2.5884  1.6617
  616SOL    HW2 1848   1.090   1.707   2.302 -2.1033 -2.4064  0.2747
  617SOL     OW 1849   2.910   1.535   1.615 -0.1611 -0.2288  0.0677
  617SOL    HW1 1850   2.870   1.474   1.689 -3.1789 -1.0752  0.2489
  617SOL    HW2 1851   2.941   1.490   1.527 -0.7715  1.7910  1.3019
  618SOL     OW 1852   1.948   2.060   1.316  0.7220 -0.4717  0.4570
  618SOL    HW1 1853   1.905   2.117   1.238  0.3799  2.1029  1.6536
  618SOL    HW2 1854   1.967   1.961   1.294  1.8080 -3.0293  1.1934
  619SOL     OW 1855   1.749   0.473   2.373  0.0502 -0.1676 -0.0350
  619SOL    HW1 1856   1.677   0.522   2.318  1.1993  1.6326  1.7714
  619SOL    HW2 1857   1.747   0.370   2.364  1.9241  0.1131  1.4323
  620SOL     OW 1858   2.333   2.959   0.753  0.1659  0.0465  0.2641
  620SOL    HW1 1859   2.291   3.055   0.752 -1.5705  1.4211 -0.7940
  620SOL    HW2 1860   2.338   2.913   0.846 -0.6207  1.6986 -2.9221
  621SOL     OW 1861   2.106   1.818   1.318  0.4322  0.1140 -0.8497
  621SOL    HW1 1862   2.138   1.800   1.418  3.4116 -1.2233 -0.8760
  621SOL    HW2 1863   2.050   1.741   1.284 -0.1808  1.0377 -0.0537
  622SOL     OW 1864   2.293   0.911   1.786 -0.1357 -0.2759 -0.4726
  622SOL    HW1 1865   2.391   0.924   1.768  0.2652 -0.0103  0.4337
  622SOL    HW2 1866   2.286   0.828   1.851  0.4705 -1.2514 -3.0065
  623SOL     OW 1867   1.338   0.791   2.496 -0.0721  0.1237  1.4143
  623SOL    HW1 1868   1.252   0.728   2.485  0.9594 -3.7891 -0.0554
  623SOL    HW2 1869   1.309   0.892   2.493  0.1820 -0.2223  1.1810
  624SOL     OW 1870   0.557   0.680   3.082 -0.4824  0.2785 -0.0043
  624SOL    HW1 1871   0.596   0.679   2.983 -3.3665  0.0470 -1.2874
  624SOL    HW2 1872   0.555   0.781   3.116  0.4354  3.1144 -0.2959
  625SOL     OW 1873   2.778   1.723   0.997  0.4917  0.3124  0.0066
  625SOL    HW1 1874   2.685   1.771   1.014 -0.1982 -1.7921  1.7263
  625SOL    HW2 1875   2.859   1.786   1.016  1.5313  1.0634  2.6614
  626SOL     OW 1876   0.613   2.704   1.703 -0.4870  0.1009  0.0920
  626SOL    HW1 1877   0.672   2.756   1.776  0.7768 -0.7420 -0.6584
  626SOL    HW2 1878   0.509   2.714   1.715 -0.5205 -2.1256 -0.8980
  627SOL     OW 1879   0.690   0.951   1.558 -0.3763 -0.1991 -0.1236
  627SOL    HW1 1880   0.623   0.897   1.494  0.3858 -0.0955 -0.0483
  627SOL    HW2 1881   0.749   1.003   1.493 -0.4890 -0.2985 -1.1711
  628SOL     OW 1882   2.495   0.127   0.660  0.1464 -0.4297  0.0619
  628SOL    HW1 1883   2.511   0.049   0.597  0.8767  1.4583  3.2937
  628SOL    HW2 1884   2.401   0.121   0.703 -1.2443 -0.0086 -0.4859
  629SOL     OW 1885   1.948   0.927   2.080  0.5796 -0.3226 -0.6596
  629SOL    HW1 1886   1.981   0.937   1.982 -0.5198 -0.8973  0.3972
  629SOL    HW2 1887   1.954   1.018   2.135 -0.4906  2.2132 -1.3124
  630SOL     OW 1888   2.932   2.320   0.822  0.6793 -0.5216 -0.0036
  630SOL    HW1 1889   2.858   2.392   0.839  0.2555  1.5855  2.5970
  630SOL    HW2 1890   2.895   2.223   0.802  1.6709 -0.9951  1.2914
  631SOL     OW 1891   3.074   0.148   2.174 -0.2757  0.6841 -0.1065
  631SOL    HW1 1892   3.118   0.183   2.263 -0.1003 -1.8185 -2.0232
  631SOL    HW2 1893   3.096   0.215   2.099  0.8557  1.1989 -1.0845
  632SOL     OW 1894   2.457   2.592   0.639 -0.2436  0.3562 -0.0696
  632SOL    HW1 1895   2.512   2.677   0.661 -0.8175  3.0149  0.7979
  632SOL    HW2 1896   2.404   2.600   0.555 -0.1845 -0.2428 -1.2615
  633SOL     OW 1897   1.447   1.230   2.665 -0.6089 -0.1028 -0.5351
  633SOL    HW1 1898   1.419   1.314   2.724  2.0634  1.5669  2.2002
  633SOL    HW2 1899   1.378   1.207   2.592  2.1562 -0.6208 -1.1604
  634SOL     OW 1900   0.639   1.983   0.876  0.1351  0.2288  0.0873
  634SOL    HW1 1901   0.555   2.017   0.925  1.1849 -1.0318  0.0052
  634SOL    HW2 1902   0.725   2.034   0.902 -1.9397  1.0760 -0.8271
  635SOL     OW 1903   3.005   2.340   0.060  0.2794 -0.0024  0.1820
  635SOL    HW1 1904   2.950   2.384  -0.018  1.2306 -0.7477 -0.1682
  635SOL    HW2 1905   3.094   2.390   0.081 -0.5968 -2.3672 -1.5272
  636SOL     OW 1906   2.329   2.741   1.948 -0.0400  0.0524 -0.5294
  636SOL    HW1 1907   2.345   2.843   1.967  1.0736  2.2743 -1.9852
  636SOL    HW2 1908   2.287   2.694   2.027  0.6574  2.1860 -0.9843
  637SOL     OW 1909   2.740   0.625   1.959 -0.2354 -0.1669 -0.3858
  637SOL    HW1 1910   2.667   0.638   1.882 -0.5297  1.1731  3.1610
  637SOL    HW2 1911   2.773   0.714   1.996 -0.1600 -0.8826 -1.4372
  638SOL     OW 1912   2.417   1.830   1.309 -0.4871 -0.2829  0.2088
  638SOL    HW1 1913   2.319   1.866   1.317 -0.9348 -0.7321 -1.9904
  638SOL    HW2 1914   2.454   1.781   1.395  2.6694 -0.1107  3.0689
  639SOL     OW 1915   1.297   2.148   1.697 -0.2724 -1.1518 -0.2309
  639SOL    HW1 1916   1.346   2.233   1.661  1.1250  1.4677  0.6790
  639SOL    HW2 1917   1.200   2.167   1.728 -1.1454 -1.7277 -0.2564
  640SOL     OW 1918   0.220   1.197   1.576  0.0062 -0.0900 -1.1448
  640SOL    HW1 1919   0.211   1.222   1.675  0.3891 -1.9850  0.2104
  640SOL    HW2 1920   0.287   1.118   1.558  1.0097 -1.6737  2.5901
  641SOL     OW 1921   2.004   0.313   1.464 -0.8126 -0.2629  0.4519
  641SOL    HW1 1922   1.965   0.340   1.559  1.2877 -1.1254  1.1545
  641SOL    HW2 1923   2.092   0.257   1.467 -0.1813 -2.0009 -1.0807
  642SOL     OW 1924   2.013   0.036   0.324 -0.2056 -0.4550 -0.4396
  642SOL    HW1 1925   2.115   0.049   0.336  0.1223  0.5141 -0.5554
  642SOL    HW2 1926   1.959   0.083   0.399  0.7505 -1.3709  1.9795
  643SOL     OW 1927   2.925   1.793   2.124  0.0962  0.1169  0.2784
  643SOL    HW1 1928   2.872   1.736   2.053  2.0013  0.0339 -0.2629
  643SOL    HW2 1929   2.944   1.891   2.095 -2.0918  0.4889 -2.0505
  644SOL     OW 1930   2.259   2.401   1.198 -0.5172  0.5485 -0.1892
  644SOL    HW1 1931   2.299   2.311   1.163 -1.7112 -1.8039 -0.5487
  644SOL    HW2 1932   2.245   2.405   1.300 -0.5980 -0.3950  0.4614
  645SOL     OW 1933   0.573   0.872   1.283  0.1748  0.1768 -0.1191
  645SOL    HW1 1934   0.488   0.816   1.265  2.1554 -2.5452  2.0834
  645SOL    HW2 1935   0.593   0.920   1.194 -0.6613  1.5998 -1.0565
  646SOL     OW 1936   1.467   1.814   2.041 -0.0055 -0.5371  0.1247
  646SOL    HW1 1937   1.523   1.892   2.003 -3.1150  0.8636 -1.7456
  646SOL    HW2 1938   1.446   1.820   2.142 -0.8190 -0.9543 -0.7758
  647SOL     OW 1939   0.813   1.024   0.648 -1.1813 -0.1706  0.7797
  647SOL    HW1 1940   0.866   1.059   0.735  0.5266  0.7314  2.9719
  647SOL    HW2 1941   0.741   0.947   0.671 -2.7376  0.1830 -0.3245
  648SOL     OW 1942   0.154   0.230   0.236  0.2453  0.3489  0.4708
  648SOL    HW1 1943   0.221   0.177   0.177  0.8520  0.7684 -1.8857
  648SOL    HW2 1944   0.145   0.333   0.209 -0.3084 -0.8606 -0.0842
  649SOL     OW 1945   3.001   0.248   0.864  0.1040 -0.0761  0.3585
  649SOL    HW1 1946   3.068   0.168   0.860 -1.8639  0.2544 -2.2269
  649SOL    HW2 1947   3.046   0.339   0.867 -0.9314 -1.4919  0.0986
  650SOL     OW 1948   2.737   0.639   1.501  0.2142  0.2655 -0.2734
  650SOL    HW1 1949   2.637   0.649   1.532 -2.1840 -1.5475 -0.8864
  650SOL    HW2 1950   2.769   0.716   1.440  1.6814 -0.0860  0.9109
  651SOL     OW 1951   0.930   1.513   1.612  0.2151 -0.1702 -0.5567
  651SOL    HW1 1952   0.933   1.609   1.657  0.7071 -0.8657 -0.9041
  651SOL    HW2 1953   0.988   1.502   1.528 -0.7628  1.7187  1.0203
  652SOL     OW 1954   2.317   2.397   2.430  0.3458 -0.5329 -0.5588
  652SOL    HW1 1955   2.238   2.451   2.476  0.1623  1.0517 -0.5127
  652SOL    HW2 1956   2.335   2.430   2.332  0.2484 -0.0684 -1.8467
  653SOL     OW 1957   2.674   1.258   0.228 -0.9835 -0.2838 -0.5477
  653SOL    HW1 1958   2.701   1.347   0.269  1.9214 -1.9983  1.0419
  653SOL    HW2 1959   2.748   1.189   0.246  0.1855 -1.1764 -2.6860
  654SOL     OW 1960   1.276   2.228   1.298 -0.0119 -0.0060  0.7198
  654SOL    HW1 1961   1.279   2.138   1.352  1.1640 -1.3584 -2.8782
  654SOL    HW2 1962   1.279   2.217   1.196 -0.3897 -0.3295  0.1641
  655SOL     OW 1963   0.194   0.927   1.866 -0.5680  0.1432 -0.2551
  655SOL    HW1 1964   0.253   0.877   1.797 -1.2178  1.4887  1.3913
  655SOL    HW2 1965   0.219   1.027   1.874  0.8683  0.0373 -0.1220
  656SOL     OW 1966   2.556   2.463   2.616 -0.2615 -0.7052  0.0232
  656SOL    HW1 1967   2.652   2.424   2.600  0.1653 -1.1768 -0.0051
  656SOL    HW2 1968   2.485   2.413   2.562  1.1472  0.5242  2.5229
  657SOL     OW 1969   3.000   0.994   1.881  0.1479 -0.1426  0.3065
  657SOL    HW1 1970   3.013   1.096   1.894 -2.0720 -0.7231  1.0368
  657SOL    HW2 1971   3.091   0.947   1.862  1.5680 -3.6623 -0.1909
  658SOL     OW 1972   1.719   0.203   2.372 -0.3226 -0.5042  0.4315
  658SOL    HW1 1973   1.736   0.122   2.434  0.8455  0.5532 -0.8867
  658SOL    HW2 1974   1.741   0.185   2.272  1.5433 -0.5469 -2.4057
  659SOL     OW 1975   1.403   0.608   2.838  0.1832  0.3917  0.1562
  659SOL    HW1 1976   1.467   0.678   2.793 -0.5450 -1.6014  0.4887
  659SOL    HW2 1977   1.313   0.644   2.867 -0.1957 -0.3369 -1.5677
  660SOL     OW 1978   1.378   0.343   1.427 -0.1566 -0.4884  0.3506
  660SOL    HW1 1979   1.371   0.339   1.531 -1.3623 -1.1959 -1.4550
  660SOL    HW2 1980   1.462   0.292   1.397 -3.9277  2.2229 -0.8090
  661SOL     OW 1981   2.361   1.227   0.666 -0.7752 -0.2654  0.1753
  661SOL    HW1 1982   2.385   1.224   0.565 -0.8981 -1.5329 -3.9048
  661SOL    HW2 1983   2.331   1.320   0.705  1.4834  0.4773 -0.2646
  662SOL     OW 1984   1.384   0.403   1.747 -0.4604 -0.2851 -0.1749
  662SOL    HW1 1985   1.311   0.381   1.813  2.2968  4.0748  1.1363
  662SOL    HW2 1986   1.405   0.505   1.741  2.0156 -1.3543 -0.5782
  663SOL     OW 1987   0.867   1.582   2.145  0.7287  0.5088  0.7623
  663SOL    HW1 1988   0.821   1.668   2.175 -4.3294 -0.1282  0.6204
  663SOL    HW2 1989   0.821   1.536   2.058 -0.4675  1.7905 -0.1059
  664SOL     OW 1990   1.652   2.068   1.396  0.0883 -0.3370 -0.1346
  664SOL    HW1 1991   1.610   2.022   1.481  0.1756 -0.9764  2.6880
  664SOL    HW2 1992   1.738   2.022   1.368 -1.1072  1.6125  0.6684
  665SOL     OW 1993   2.310   0.695   1.979  0.2965  0.4885  0.4789
  665SOL    HW1 1994   2.251   0.617   2.009 -0.6368 -0.3704  1.3000
  665SOL    HW2 1995   2.381   0.714   2.055 -2.9153  0.2797  0.4912
  666SOL     OW 1996   0.506   2.285   0.351 -0.6384  1.0296 -0.1674
  666SOL    HW1 1997   0.553   2.340   0.428  1.5119  0.3182 -0.7626
  666SOL    HW2 1998   0.403   2.280   0.355  1.4381 -0.7179 -0.5671
  667SOL     OW 1999   1.974   0.216   1.060  0.5479 -0.1539  0.4718
  667SOL    HW1 2000   2.003   0.313   1.051 -1.9894 -0.8844  1.8800
  667SOL    HW2 2001   1.897   0.204   1.126  0.2604 -0.2785  0.4933
  668SOL     OW 2002   2.015   0.486   1.133  0.5400 -0.6561 -0.2042
  668SOL    HW1 2003   2.083   0.499   1.060 -0.9374  2.7024  1.6280
  668SOL    HW2 2004   2.042   0.535   1.220 -0.1351  2.0412  0.7312
  669SOL     OW 2005   3.075   2.171   1.014  0.1029 -0.5210  0.1924
  669SOL    HW1 2006   3.030   2.232   0.941 -1.6071  0.2194 -1.2786
  669SOL    HW2 2007   3.041   2.194   1.105  2.6616 -0.2640  0.5503
  670SOL     OW 2008   2.896   2.317   2.100  0.5824 -0.1305 -0.5922
  670SOL    HW1 2009   2.812   2.282   2.151 -1.8044 -1.9273  1.2044
  670SOL    HW2 2010   2.887   2.420   2.067  0.2187  1.0201  0.1087
  671SOL     OW 2011   1.789   1.814   1.468 -0.0811  0.1171 -0.1944
  671SOL    HW1 2012   1.793   1.803   1.365 -1.5566  1.0166 -0.3577
  671SOL    HW2 2013   1.692   1.834   1.500 -2.1297  0.5731 -2.4365
  672SOL     OW 2014   0.455   0.641   2.408 -0.2957 -0.3923 -0.8443
  672SOL    HW1 2015   0.512   0.644   2.319  0.4017 -0.4151  1.3398
  672SOL    HW2 2016   0.366   0.697   2.404 -1.8434  1.7924  0.6333
  673SOL     OW 2017   0.158   1.162   1.148  0.0218  0.0986  0.1570
  673SOL    HW1 2018   0.204   1.229   1.214  0.0230  1.1661  1.2031
  673SOL    HW2 2019   0.228   1.123   1.083 -0.3303  0.2630 -0.4442
  674SOL     OW 2020   1.642   2.989   0.318  0.4374 -0.1185 -0.0990
  674SOL    HW1 2021   1.587   3.076   0.287  1.3284  0.5045  0.3321
  674SOL    HW2 2022   1.739   2.992   0.287 -0.5967 -0.6470  2.0382
  675SOL     OW 2023   1.734   0.813   2.257  0.1603 -0.3323 -0.5784
  675SOL    HW1 2024   1.833   0.791   2.235  1.0575 -1.0435  1.6638
  675SOL    HW2 2025   1.670   0.737   2.228  1.6169  1.5016 -0.4850
  676SOL     OW 2026   2.532   1.486   1.925 -0.0771 -0.4084  0.0184
  676SOL    HW1 2027   2.494   1.425   1.853  0.1025  2.4342  0.1163
  676SOL    HW2 2028   2.545   1.438   2.022  2.7974 -0.1300  3.1146
  677SOL     OW 2029   1.924   0.720   0.923  0.1019  0.2769  0.1604
  677SOL    HW1 2030   1.836   0.751   0.965  0.6200 -1.4480 -0.9257
  677SOL    HW2 2031   1.959   0.629   0.945  0.3708  3.1579  1.2630
  678SOL     OW 2032   0.063   0.750   1.595 -0.0159  0.0872  0.3024
  678SOL    HW1 2033   0.146   0.693   1.605 -0.7426 -0.3881  0.3889
  678SOL    HW2 2034   0.005   0.747   1.684 -0.9966 -0.8134  0.9776
  679SOL     OW 2035   2.552   1.179   1.215 -0.6869 -0.1374 -0.1495
  679SOL    HW1 2036   2.456   1.210   1.183 -1.8967  1.1186  0.3945
  679SOL    HW2 2037   2.573   1.076   1.197 -1.3439  1.2107 -0.3280
  680SOL     OW 2038   2.836   0.442   1.673  0.0634  0.5697  0.5364
  680SOL    HW1 2039   2.790   0.522   1.628  0.0747 -2.0136 -0.3730
  680SOL    HW2 2040   2.928   0.466   1.704  0.5140 -0.9190  2.3623
  681SOL     OW 2041   2.959   0.095   1.596 -0.0873  0.6748  0.0860
  681SOL    HW1 2042   3.011   0.095   1.509  0.2494 -1.1283  0.2738
  681SOL    HW2 2043   2.879   0.154   1.591  3.9346 -0.3705  1.1643
  682SOL     OW 2044   0.732   0.040   1.335  0.0383 -0.4752 -0.7261
  682SOL    HW1 2045   0.648  -0.014   1.357  0.9249 -0.8857 -0.4449
  682SOL    HW2 2046   0.778   0.003   1.251 -0.3036 -0.6827  2.3354
  683SOL     OW 2047   1.395   0.202   2.176 -0.2639 -0.0125 -0.3401
  683SOL    HW1 2048   1.384   0.263   2.256  0.8425 -0.5483 -3.1180
  683SOL    HW2 2049   1.467   0.235   2.114 -1.0200  0.5035  1.8875
  684SOL     OW 2050   1.445   2.060   0.484 -0.1576 -0.3200 -0.7970
  684SOL    HW1 2051   1.485   2.013   0.565 -3.8523  0.5977 -0.5825
  684SOL    HW2 2052   1.347   2.029   0.476 -2.0150 -0.4435  1.5574
  685SOL     OW 2053   2.203   2.099   1.967  0.1081  0.6992 -0.1492
  685SOL    HW1 2054   2.276   2.097   1.891  3.1534 -1.8797 -1.4169
  685SOL    HW2 2055   2.242   2.065   2.053 -3.5615 -1.0274 -0.2866
  686SOL     OW 2056   1.512   1.845   2.800 -0.4370  0.2107 -0.3862
  686SOL    HW1 2057   1.530   1.790   2.888 -1.1835 -1.3551 -0.1159
  686SOL    HW2 2058   1.428   1.819   2.749 -2.0661  0.3884  1.6792
  687SOL     OW 2059   1.346   2.446   1.979  0.3163 -0.0538 -0.1062
  687SOL    HW1 2060   1.333   2.347   1.956 -0.9058 -0.1203 -1.6506
  687SOL    HW2 2061   1.389   2.463   2.072 -0.7172  0.1080 -0.9662
  688SOL     OW 2062   2.002   1.541   1.754  0.1586 -0.6435 -0.1565
  688SOL    HW1 2063   2.085   1.600   1.755  0.9245 -1.5081 -1.1352
  688SOL    HW2 2064   2.012   1.465   1.686 -1.1325  3.2014 -1.0195
  689SOL     OW 2065   2.378   1.085   2.764 -0.2512 -0.2696  0.4288
  689SOL    HW1 2066   2.280   1.047   2.765 -0.3530  0.0470 -0.8682
  689SOL    HW2 2067   2.424   1.071   2.856  3.5445 -1.4066 -2.0936
  690SOL     OW 2068   2.217   2.803   0.039 -0.1379  0.0791  0.7000
  690SOL    HW1 2069   2.158   2.735  -0.015  1.2077 -0.4384  2.3490
  690SOL    HW2 2070   2.166   2.852   0.108  3.6074 -1.4652 -2.8291
  691SOL     OW 2071   2.601   0.413   2.129  0.3383 -0.2852 -0.8546
  691SOL    HW1 2072   2.669   0.334   2.109 -0.6944  1.7548  0.4788
  691SOL    HW2 2073   2.616   0.493   2.067  1.4849 -0.3688  2.7458
  692SOL     OW 2074   2.675   1.216   0.752  0.4043  0.0755 -0.0411
  692SOL    HW1 2075   2.588   1.207   0.693 -0.6512  0.4147 -3.9775
  692SOL    HW2 2076   2.722   1.307   0.750  2.8179 -1.3655 -1.6167
  693SOL     OW 2077   2.824   2.951   0.610 -0.3295 -0.2211  0.7531
  693SOL    HW1 2078   2.823   3.022   0.689 -1.4363  1.6074 -1.0752
  693SOL    HW2 2079   2.795   2.997   0.523 -1.5836  1.9094  1.7468
  694SOL     OW 2080   2.390   2.247   0.091 -0.3750  0.1940  0.3053
  694SOL    HW1 2081   2.357   2.344   0.113 -1.6365  1.2259 -5.4091
  694SOL    HW2 2082   2.308   2.181   0.067  0.6626 -0.1929  0.3100
  695SOL     OW 2083   0.541   2.994   1.481  0.5823  0.8732  0.5942
  695SOL    HW1 2084   0.485   2.911   1.453  0.2329  2.6851 -0.1232
  695SOL    HW2 2085   0.497   3.052   1.557  4.0475  0.3413  3.8709
  696SOL     OW 2086   2.833   2.068   0.766 -0.6216  0.3701  0.1365
  696SOL    HW1 2087   2.885   1.982   0.790 -1.3252  0.9340 -1.2445
  696SOL    HW2 2088   2.835   2.079   0.660 -1.0395 -0.8596 -0.6960
  697SOL     OW 2089   1.638   1.961   1.841 -0.4867  1.2174 -0.4673
  697SOL    HW1 2090   1.723   1.898   1.842 -1.8119  0.0649 -1.4080
  697SOL    HW2 2091   1.646   2.052   1.793 -0.0728 -0.1134  1.9765
  698SOL     OW 2092   2.901   0.396   2.738  0.0558 -0.1676  0.2126
  698SOL    HW1 2093   2.924   0.375   2.636  3.0266 -0.9201 -1.8122
  698SOL    HW2 2094   2.937   0.329   2.813 -1.1063 -0.9720  0.5308
  699SOL     OW 2095   1.537   0.055   2.930 -0.1283  0.5924 -0.3641
  699SOL    HW1 2096   1.494  -0.035   2.901  0.4272 -1.5075  2.2960
  699SOL    HW2 2097   1.577   0.107   2.846  0.8556  0.8564 -0.2671
  700SOL     OW 2098   1.024   2.340   1.389 -0.5036  0.4025 -0.1049
  700SOL    HW1 2099   1.114   2.309   1.354 -0.3972 -0.3952 -1.1857
  700SOL    HW2 2100   0.945   2.297   1.332 -2.9236  3.7598 -1.3670
  701SOL     OW 2101   1.927   2.899   3.071 -0.5329 -0.2233 -0.8384
  701SOL    HW1 2102   1.947   2.838   3.155  1.9081  0.8744  0.5639
  701SOL    HW2 2103   1.917   3.003   3.091  0.3703 -0.0648 -1.1734
  702SOL     OW 2104   2.079   1.328   1.957  0.1052  0.3042 -0.0291
  702SOL    HW1 2105   2.155   1.269   1.912  1.0423 -0.5278  1.4197
  702SOL    HW2 2106   2.050   1.414   1.902  3.0200  0.7098  0.4057
  703SOL     OW 2107   1.920   0.922   1.450 -0.3716 -0.0573 -0.3791
  703SOL    HW1 2108   1.895   0.831   1.500  0.6921  0.2564  0.7560
  703SOL    HW2 2109   1.986   0.983   1.507 -1.2852  1.0310  1.3373
  704SOL     OW 2110   0.288   2.024   1.740  0.4183 -0.1002 -0.1930
  704SOL    HW1 2111   0.349   1.952   1.789  1.5576 -2.1243  0.0975
  704SOL    HW2 2112   0.342   2.108   1.717  0.4659 -0.7069 -2.6700
  705SOL     OW 2113   2.552   1.551   0.876 -0.2027 -0.1389 -0.2858
  705SOL    HW1 2114   2.485   1.489   0.830  0.3447 -0.4888 -0.7735
  705SOL    HW2 2115   2.643   1.502   0.900 -1.3829 -1.2348 -1.3715
  706SOL     OW 2116   0.688   1.712   1.891 -0.4011  0.3457 -0.0585
  706SOL    HW1 2117   0.700   1.612   1.922  0.2829 -1.9965  0.9735
  706SOL    HW2 2118   0.744   1.781   1.947 -0.6859 -0.8275  0.1668
  707SOL     OW 2119   2.309   1.172   1.870 -0.1998 -0.0152 -0.2732
  707SOL    HW1 2120   2.350   1.189   1.963  0.3492  0.2015  0.9306
  707SOL    HW2 2121   2.309   1.071   1.836 -2.3477 -0.1260 -0.8480
  708SOL     OW 2122   2.976   0.521   3.040  0.6977 -0.1604  0.2150
  708SOL    HW1 2123   2.993   0.570   2.949  0.3460 -1.4526 -2.4982
  708SOL    HW2 2124   3.000   0.415   3.026  0.4994 -1.5434 -0.3221
  709SOL     OW 2125   1.829   1.876   0.308  0.1250  0.1199  0.1110
  709SOL    HW1 2126   1.855   1.968   0.345  0.9985  1.6823  1.9124
  709SOL    HW2 2127   1.835   1.874   0.204 -1.2442  1.3090 -1.6333
  710SOL     OW 2128   1.692   1.619   2.380 -0.1690  0.0063  0.2287
  710SOL    HW1 2129   1.769   1.607   2.311 -2.7209 -0.4434 -3.6096
  710SOL    HW2 2130   1.698   1.575   2.476 -1.2411 -0.1729 -0.4712
  711SOL     OW 2131   2.574   2.934   1.099  0.5129  0.1243  0.0945
  711SOL    HW1 2132   2.543   3.034   1.094  2.0556  1.3908  1.1185
  711SOL    HW2 2133   2.681   2.929   1.092  2.4039  1.4381 -0.3875
  712SOL     OW 2134   1.395   2.172   1.972 -0.3778  0.4976  0.1025
  712SOL    HW1 2135   1.490   2.209   1.957 -2.5474  0.2535 -1.2168
  712SOL    HW2 2136   1.358   2.133   1.885 -0.6936  3.7673  1.2543
  713SOL     OW 2137   2.785   1.480   2.500  0.0729  0.2323  0.3161
  713SOL    HW1 2138   2.792   1.377   2.474  0.6040 -0.2614 -0.4477
  713SOL    HW2 2139   2.695   1.512   2.544  0.8050  0.8670  0.9368
  714SOL     OW 2140   2.656   0.449   2.417  0.0270  0.1253  0.0490
  714SOL    HW1 2141   2.596   0.443   2.501  3.1928 -0.0846 -0.5649
  714SOL    HW2 2142   2.620   0.414   2.331  1.9371  1.3706  1.9117
  715SOL     OW 2143   1.539   2.047   1.137  0.2434 -0.7624 -0.8457
  715SOL    HW1 2144   1.455   2.104   1.107  1.9939 -1.2776 -1.9358
  715SOL    HW2 2145   1.562   2.061   1.236  0.5714  1.4160  0.5946
  716SOL     OW 2146   1.179   0.124   1.519  0.2552  0.1280  0.5782
  716SOL    HW1 2147   1.098   0.125   1.463  0.2186  1.0100  1.5181
  716SOL    HW2 2148   1.236   0.210   1.502  2.0326  3.1344 -1.8547
  717SOL     OW 2149   1.178   0.553   1.572  0.3617  0.0359 -0.5693
  717SOL    HW1 2150   1.261   0.596   1.618  0.0955  1.0016 -2.5735
  717SOL    HW2 2151   1.175   0.566   1.467  2.4990  3.1667 -2.1310
  718SOL     OW 2152   0.680   0.862   0.989  0.6120 -0.4785  0.5368
  718SOL    HW1 2153   0.674   0.860   0.884  0.3502 -0.5395 -1.8884
  718SOL    HW2 2154   0.664   0.956   1.027  1.7952 -0.1232 -2.1190
  719SOL     OW 2155   0.689   1.696   2.301  0.2806 -0.6849  0.0240
  719SOL    HW1 2156   0.746   1.742   2.371 -0.9066 -0.9611 -0.3447
  719SOL    HW2 2157   0.657   1.603   2.338  2.1708  3.1712 -0.5556
  720SOL     OW 2158   2.188   1.114   0.266 -0.3476 -0.5087 -0.1300
  720SOL    HW1 2159   2.250   1.052   0.211 -0.8067 -0.1943 -0.9888
  720SOL    HW2 2160   2.156   1.077   0.354  3.1704  0.0998  1.4752
  721SOL     OW 2161   2.267   3.024   2.066  0.5816 -0.0807  0.0659
  721SOL    HW1 2162   2.203   3.047   1.992  1.0478 -0.2681  1.5070
  721SOL    HW2 2163   2.218   3.030   2.158  0.5866 -1.7992 -2.5929
  722SOL     OW 2164   2.290   1.599   0.467 -0.3810  0.1285  0.4776
  722SOL    HW1 2165   2.360   1.561   0.397 -2.3864  0.4094  0.0645
  722SOL    HW2 2166   2.198   1.619   0.416  0.6269  1.0887 -0.0532
  723SOL     OW 2167   2.640   2.675   1.883 -0.0959  0.2162  0.2268
  723SOL    HW1 2168   2.684   2.764   1.917 -2.1108  0.5845 -2.3857
  723SOL    HW2 2169   2.550   2.659   1.925  1.0705  0.5363 -1.7492
  724SOL     OW 2170   0.501   2.516   2.406  0.0019  0.0888  0.1532
  724SOL    HW1 2171   0.407   2.540   2.448 -0.0006 -0.3073  0.0025
  724SOL    HW2 2172   0.571   2.496   2.479 -1.5900  4.3548  1.4042
  725SOL     OW 2173   2.360   2.722   1.489 -0.1386  0.3347 -0.0961
  725SOL    HW1 2174   2.424   2.797   1.463 -2.2884 -1.8738  1.1338
  725SOL    HW2 2175   2.406   2.633   1.510 -3.1136  2.7130 -3.3942
  726SOL     OW 2176   2.505   2.311   0.734  0.3544 -0.2575  0.0764
  726SOL    HW1 2177   2.480   2.412   0.704 -0.5009  2.4869  0.7431
  726SOL    HW2 2178   2.458   2.240   0.682  1.0210  1.2586  2.3997
  727SOL     OW 2179   0.183   3.055   0.096  0.2669 -0.4657 -0.5970
  727SOL    HW1 2180   0.251   3.045   0.017 -0.4873 -0.1740 -0.4798
  727SOL    HW2 2181   0.086   3.051   0.065  1.0687  1.6682 -1.5026
  728SOL     OW 2182   2.874   0.686   0.907 -0.2162 -0.1688  0.5066
  728SOL    HW1 2183   2.794   0.678   0.840  0.3793 -2.1009 -0.0474
  728SOL    HW2 2184   2.858   0.637   0.998 -2.0133 -1.2895 -0.5675
  729SOL     OW 2185   0.017   2.539   0.713 -0.7250 -0.6215  0.0619
  729SOL    HW1 2186  -0.014   2.451   0.765 -1.0227  0.8748 -0.7248
  729SOL    HW2 2187   0.105   2.527   0.656  1.2820  0.6371 -1.0487
  730SOL     OW 2188   2.582   0.697   0.834  0.6182  0.0296  0.5996
  730SOL    HW1 2189   2.571   0.797   0.860  0.0613  0.4652  1.1747
  730SOL    HW2 2190   2.630   0.681   0.739  1.7409 -1.1322 -0.8784
  731SOL     OW 2191   0.026   2.170   2.428  0.1384 -0.5460 -0.4990
  731SOL    HW1 2192   0.046   2.211   2.522 -0.7949 -2.9548  1.0299
  731SOL    HW2 2193  -0.059   2.206   2.380 -0.8839 -0.0679  1.5350
  732SOL     OW 2194   1.198   2.842   1.981  0.7039 -0.0343 -0.2910
  732SOL    HW1 2195   1.199   2.781   2.067 -1.8637  3.6799  0.6825
  732SOL    HW2 2196   1.200   2.785   1.893 -0.2175  0.4229  1.0308
  733SOL     OW 2197   3.024   0.626   2.230 -0.6371 -0.5102 -0.0175
  733SOL    HW1 2198   3.093   0.677   2.170  1.0560  0.2896 -1.5979
  733SOL    HW2 2199   2.984   0.542   2.186 -1.3975  2.4628  3.0956
  734SOL     OW 2200   1.413   0.373   2.684 -0.2869  0.0590  0.3129
  734SOL    HW1 2201   1.408   0.460   2.741 -2.0588  1.7239  0.7768
  734SOL    HW2 2202   1.329   0.311   2.688 -1.3448 -1.3620 -0.5501
  735SOL     OW 2203   2.887   2.612   2.291 -0.0012  0.1799  0.0021
  735SOL    HW1 2204   2.884   2.634   2.184  0.7764  1.0730 -1.3197
  735SOL    HW2 2205   2.981   2.647   2.328  1.3472  0.3668  1.6180
  736SOL     OW 2206   0.930   0.422   2.551 -0.0727 -0.5763  0.1053
  736SOL    HW1 2207   0.840   0.448   2.591 -2.0071 -4.1597  2.0999
  736SOL    HW2 2208   0.908   0.345   2.484 -0.5658 -3.1456  1.5012
  737SOL     OW 2209   2.629   0.462   2.822  0.4298 -0.5165 -0.7355
  737SOL    HW1 2210   2.621   0.436   2.920  0.1441 -2.4465 -0.3793
  737SOL    HW2 2211   2.722   0.428   2.786  0.6840  1.1233 -0.9353
  738SOL     OW 2212   1.714   1.250   2.900 -0.1668 -0.3275 -0.2272
  738SOL    HW1 2213   1.809   1.268   2.870 -2.8512  0.0896 -1.4250
  738SOL    HW2 2214   1.658   1.219   2.820  1.2309 -0.5481 -0.3210
  739SOL     OW 2215   1.760   0.711   0.676  0.0193  0.3011 -0.2020
  739SOL    HW1 2216   1.835   0.738   0.745  2.3256  2.1584  0.6666
  739SOL    HW2 2217   1.774   0.610   0.643  0.5230 -0.9573 -0.7924
  740SOL     OW 2218   1.954   1.902   2.374  0.8142  0.0044 -0.0042
  740SOL    HW1 2219   2.022   1.821   2.388 -0.6704 -1.6219  1.3200
  740SOL    HW2 2220   1.880   1.894   2.305 -2.8637  1.0574 -0.3404
  741SOL     OW 2221   2.582   0.129   2.526  0.1465  0.3853 -0.0100
  741SOL    HW1 2222   2.683   0.120   2.521  0.6664  1.6214 -1.0523
  741SOL    HW2 2223   2.533   0.130   2.432  0.7556  2.0074 -1.7237
  742SOL     OW 2224   2.204   1.378   0.163 -0.3238  0.2905  0.2451
  742SOL    HW1 2225   2.118   1.441   0.174 -0.9614  2.1783 -1.5310
  742SOL    HW2 2226   2.186   1.287   0.219  0.1136 -0.8354  0.0187
  743SOL     OW 2227   1.753   0.611   2.626  0.1971 -0.0740 -0.4032
  743SOL    HW1 2228   1.755   0.547   2.550 -2.8078 -3.4045 -0.3945
  743SOL    HW2 2229   1.680   0.684   2.628  2.0124 -3.1402  0.9989
  744SOL     OW 2230   2.700   2.005   0.065 -0.2221 -0.1188  0.2641
  744SOL    HW1 2231   2.620   2.064   0.094 -3.9118  1.4662  0.2887
  744SOL    HW2 2232   2.717   1.934   0.134  0.9296  0.8974  1.3717
  745SOL     OW 2233   2.176   2.648   2.143 -0.1566 -0.3400  0.4592
  745SOL    HW1 2234   2.073   2.653   2.134 -0.5822 -1.2780  0.6034
  745SOL    HW2 2235   2.230   2.701   2.216 -0.1828  0.3178  0.1553
  746SOL     OW 2236   0.002   2.649   1.726 -0.5719  0.0739 -0.0908
  746SOL    HW1 2237   0.077   2.583   1.721  0.7574  1.8909 -0.9209
  746SOL    HW2 2238   0.025   2.732   1.783  1.9945  1.2385  1.2614
  747SOL     OW 2239   3.071   1.752   1.678 -0.2242  0.4680  0.5619
  747SOL    HW1 2240   3.035   1.665   1.641  1.1423  0.1472 -0.1357
  747SOL    HW2 2241   3.148   1.787   1.614 -2.3440 -2.2616  1.0167
  748SOL     OW 2242   1.814   2.717   2.914 -0.0247  0.2181  0.0635
  748SOL    HW1 2243   1.855   2.803   2.964  1.1418  1.5146  0.7924
  748SOL    HW2 2244   1.726   2.741   2.871  1.4649  1.3218  0.4217
  749SOL     OW 2245   1.330   3.010   0.850  0.2655 -0.4888 -0.2663
  749SOL    HW1 2246   1.239   2.973   0.868 -1.6746 -0.1272  0.4118
  749SOL    HW2 2247   1.400   2.943   0.810 -1.7744  0.9236  1.5271
  750SOL     OW 2248   2.304   0.205   1.858  0.0443  0.2636 -0.2219
  750SOL    HW1 2249   2.340   0.259   1.776  2.4777  1.7422 -1.0072
  750SOL    HW2 2250   2.293   0.265   1.946 -0.7495  0.8141 -0.7045
  751SOL     OW 2251   0.797   2.032   2.844  0.9286 -0.3629  0.4642
  751SOL    HW1 2252   0.855   2.074   2.917 -0.9600  0.4975  0.0890
  751SOL    HW2 2253   0.701   2.018   2.872  2.8655  0.7982  0.1334
  752SOL     OW 2254   1.308   0.842   1.266 -0.1226 -0.6373 -0.0576
  752SOL    HW1 2255   1.384   0.915   1.255 -1.4263 -0.1886 -0.7627
  752SOL    HW2 2256   1.345   0.761   1.317 -0.5025  0.3175 -0.1939
  753SOL     OW 2257   0.938   2.641   1.812  0.3032 -0.0255 -0.2695
  753SOL    HW1 2258   1.033   2.676   1.786 -1.0763 -0.1329  0.8762
  753SOL    HW2 2259   0.864   2.711   1.815 -1.8970 -1.4887 -1.2163
  754SOL     OW 2260   1.150   1.181   3.027  0.2239 -0.3327 -0.1551
  754SOL    HW1 2261   1.221   1.115   2.992  2.7398 -2.4095 -2.1991
  754SOL    HW2 2262   1.184   1.277   3.039  1.0624  0.1114 -0.6334
  755SOL     OW 2263   2.013   0.497   2.250  0.5423 -0.0768 -0.4190
  755SOL    HW1 2264   2.058   0.406   2.283  0.1945 -0.5499  3.1948
  755SOL    HW2 2265   1.913   0.491   2.258 -0.4475 -2.3226  1.0080
  756SOL     OW 2266   2.588   0.998   2.966 -0.0053 -0.1898  0.2983
  756SOL    HW1 2267   2.690   0.991   2.945 -1.4889 -4.2369 -1.4969
  756SOL    HW2 2268   2.549   0.914   3.007  1.1538  2.1101 -0.6661
  757SOL     OW 2269   0.092   0.468   2.014 -0.3271 -0.5144 -0.3984
  757SOL    HW1 2270   0.133   0.390   1.967  1.5262 -1.1737  1.6178
  757SOL    HW2 2271  -0.009   0.447   2.042 -3.8614 -0.7488  0.8695
  758SOL     OW 2272   2.243   0.106   1.471  0.8564  0.5055 -0.4638
  758SOL    HW1 2273   2.220   0.007   1.492 -1.5149 -0.7923 -1.1871
  758SOL    HW2 2274   2.314   0.116   1.394  2.3098  1.3384  0.1817
  759SOL     OW 2275   1.679   0.131   0.069 -0.0586 -0.2435 -0.4177
  759SOL    HW1 2276   1.619   0.095  -0.009  0.3195 -1.4005 -1.7219
  759SOL    HW2 2277   1.778   0.107   0.062 -1.2116  2.5594  2.8775
  760SOL     OW 2278   2.601   2.035   2.842  0.9990 -0.6041  0.0800
  760SOL    HW1 2279   2.628   1.947   2.889  1.6628  0.7136 -2.2409
  760SOL    HW2 2280   2.612   2.123   2.898 -2.0331 -0.4171  1.4316
  761SOL     OW 2281   1.851   1.782   1.721 -0.3869 -0.0764 -0.3728
  761SOL    HW1 2282   1.890   1.686   1.749 -1.1997  0.9812 -2.2162
  761SOL    HW2 2283   1.837   1.792   1.617  0.0749 -1.3187  0.5421
  762SOL     OW 2284   0.496   2.366   0.967  0.1381 -0.1361 -0.0044
  762SOL    HW1 2285   0.557   2.381   0.883  0.9200  0.3584  1.8665
  762SOL    HW2 2286   0.546   2.399   1.052  0.8081  0.2436  2.4685
  763SOL     OW 2287   2.087   1.586   3.004 -0.5202  0.2465 -0.3958
  763SOL    HW1 2288   2.178   1.532   2.987  1.7580  1.7145 -0.2878
  763SOL    HW2 2289   2.012   1.533   3.055  0.4812  3.5357  1.4364
  764SOL     OW 2290   0.688   0.568   0.745  0.3440 -0.7663  0.3238
  764SOL    HW1 2291   0.597   0.516   0.744 -0.8598 -0.1325  0.8067
  764SOL    HW2 2292   0.751   0.537   0.822 -1.5955  2.4892 -1.4036
  765SOL     OW 2293   0.767   0.248   0.783 -0.6040 -0.2603 -0.1563
  765SOL    HW1 2294   0.836   0.280   0.716  0.9859  0.9534 -1.4825
  765SOL    HW2 2295   0.742   0.317   0.858  0.4674 -3.1788 -0.5319
  766SOL     OW 2296   2.860   2.149   2.991  0.1604 -0.4194  0.3114
  766SOL    HW1 2297   2.778   2.111   3.049 -0.7856 -2.8569 -0.5815
  766SOL    HW2 2298   2.899   2.237   3.027  1.5508 -2.5003 -0.5615
  767SOL     OW 2299   2.781   1.680   0.583 -0.0427  0.1315  0.5060
  767SOL    HW1 2300   2.680   1.674   0.613  2.7665  0.7863 -0.5904
  767SOL    HW2 2301   2.839   1.746   0.635 -1.1065  0.4502 -0.3799
  768SOL     OW 2302   1.032   0.077   0.228  0.2389 -0.5161 -0.3143
  768SOL    HW1 2303   0.977   0.101   0.315 -2.2157  2.4774 -0.9028
  768SOL    HW2 2304   1.134   0.088   0.230 -2.1724  0.2548 -2.2415
  769SOL     OW 2305   1.106   1.877   2.336  0.2393 -0.0652 -0.1593
  769SOL    HW1 2306   1.013   1.907   2.369  2.5985  0.5790  1.0166
  769SOL    HW2 2307   1.169   1.835   2.410  1.4203 -2.3810 -0.4605
  770SOL     OW 2308   0.167   1.168   2.301  0.2393  0.7136  0.2643
  770SOL    HW1 2309   0.166   1.241   2.374 -2.5356 -0.6696  0.1281
  770SOL    HW2 2310   0.074   1.152   2.256 -0.6200  0.8681 -2.4483
  771SOL     OW 2311   3.059   2.836   1.931 -0.2562 -0.3538 -0.3550
  771SOL    HW1 2312   2.989   2.876   1.860 -0.0490  0.1793  0.6527
  771SOL    HW2 2313   3.050   2.873   2.029 -2.9953 -0.5613  0.7820
  772SOL     OW 2314   2.238   0.163   2.881  0.1532 -0.5193  1.0968
  772SOL    HW1 2315   2.302   0.097   2.826 -0.9210 -1.6934 -1.7367
  772SOL    HW2 2316   2.287   0.207   2.959  1.1854 -0.8322  0.8589
  773SOL     OW 2317   0.657   2.108   2.395  0.2613  0.2151  0.3083
  773SOL    HW1 2318   0.638   2.184   2.324 -0.2662  1.2798 -0.4503
  773SOL    HW2 2319   0.597   2.102   2.483 -2.5568 -4.3554  2.6057
  774SOL     OW 2320   2.074   3.078   2.599 -0.7999  0.8288  0.1711
  774SOL    HW1 2321   2.091   3.177   2.629 -0.3523  0.5144  1.1396
  774SOL    HW2 2322   2.102   3.015   2.670 -2.2260  1.2438  1.0284
  775SOL     OW 2323   2.568   2.971   2.281  0.4019 -0.5412  0.8294
  775SOL    HW1 2324   2.543   3.073   2.267 -1.2223  2.2883  0.9560
  775SOL    HW2 2325   2.623   2.947   2.365  0.6772 -0.8956  0.5499
  776SOL     OW 2326   0.019   1.236   0.194 -0.1480  0.2266 -0.3102
  776SOL    HW1 2327  -0.044   1.219   0.111 -2.1708  0.6093  2.8721
  776SOL    HW2 2328  -0.035   1.244   0.282 -0.2928  2.9039  1.1125
  777SOL     OW 2329   0.382   2.887   0.351 -0.6653 -0.3162 -0.9309
  777SOL    HW1 2330   0.278   2.885   0.347  1.1489  1.1518  0.8590
  777SOL    HW2 2331   0.431   2.895   0.260 -0.3115  1.3161  1.5685
  778SOL     OW 2332   1.345   1.975   0.165  0.3100 -0.0775  0.1942
  778SOL    HW1 2333   1.295   2.004   0.253 -0.0931  0.4327  0.6362
  778SOL    HW2 2334   1.378   2.056   0.115 -0.0773  0.7971 -0.3199
  779SOL     OW 2335   0.192   0.901   0.494  0.3681 -0.2109  0.5070
  779SOL    HW1 2336   0.164   0.801   0.465  0.3334 -1.5408 -2.2186
  779SOL    HW2 2337   0.125   0.955   0.549  2.2061  0.3868 -0.0670
  780SOL     OW 2338   0.099   0.308   2.422 -0.2538 -0.3366 -0.1821
  780SOL    HW1 2339   0.047   0.392   2.446 -0.6336 -1.5950 -0.8716
  780SOL    HW2 2340   0.190   0.327   2.374  1.4566  1.6628  0.7284
  781SOL     OW 2341   0.653   1.643   1.534 -0.2229  0.0570  0.2157
  781SOL    HW1 2342   0.691   1.578   1.606 -0.0866 -0.5228 -1.5716
  781SOL    HW2 2343   0.549   1.638   1.529 -0.7243 -3.0128 -0.8780
  782SOL     OW 2344   2.607   0.136   0.913 -0.6698 -0.1151 -0.0178
  782SOL    HW1 2345   2.555   0.133   0.820  0.9579 -3.4928 -0.0698
  782SOL    HW2 2346   2.589   0.211   0.980  1.6584 -0.1527  1.3296
  783SOL     OW 2347   2.789   0.678   2.461  0.1482  0.5252  0.3698
  783SOL    HW1 2348   2.766   0.720   2.554 -0.1171  1.6386  3.3493
  783SOL    HW2 2349   2.749   0.581   2.448  1.0321 -5.0555  2.1182
  784SOL     OW 2350   1.481   2.182   0.022 -0.0848  0.6835 -0.1962
  784SOL    HW1 2351   1.512   2.260   0.090 -1.5180  1.0271  0.5635
  784SOL    HW2 2352   1.445   2.216  -0.066 -1.0274  0.0146  1.2403
  785SOL     OW 2353   2.083   0.321   0.059  0.6422 -0.2662  0.2989
  785SOL    HW1 2354   2.020   0.341   0.139  0.2795 -0.6203  1.1975
  785SOL    HW2 2355   2.105   0.407   0.000  1.2145  2.1627 -3.2846
  786SOL     OW 2356   2.070   2.188   2.278 -0.3014  0.0524  0.5703
  786SOL    HW1 2357   2.052   2.101   2.326  0.2692 -1.5003  2.8015
  786SOL    HW2 2358   2.154   2.172   2.213  0.4961  1.4932 -0.8258
  787SOL     OW 2359   1.345   0.478   0.915  0.0759 -0.6728  0.3964
  787SOL    HW1 2360   1.308   0.560   0.964 -1.1977 -1.2106 -0.2628
  787SOL    HW2 2361   1.405   0.514   0.830 -1.1608  0.2740 -2.0814
  788SOL     OW 2362   1.285   0.398   0.088  0.1949  0.4966  0.0795
  788SOL    HW1 2363   1.180   0.376   0.070 -1.0747  0.1197 -0.1959
  788SOL    HW2 2364   1.303   0.503   0.110  3.4408  1.8448  1.9737
  789SOL     OW 2365   2.569   0.068   1.948  0.2070 -0.2266  0.3452
  789SOL    HW1 2366   2.476   0.084   1.897  1.5727  0.5141 -0.4008
  789SOL    HW2 2367   2.585  -0.035   1.938 -1.7378 -4.8532 -1.6057
  790SOL     OW 2368   2.607   2.808   0.791  0.0294  0.2448  0.3757
  790SOL    HW1 2369   2.660   2.856   0.719  1.8274 -1.3747 -0.1156
  790SOL    HW2 2370   2.625   2.840   0.884 -0.7894 -2.8164 -2.1767
  791SOL     OW 2371   1.900   1.200   0.208 -0.0853 -0.2629 -0.6313
  791SOL    HW1 2372   1.799   1.177   0.236  2.4902  2.7375  0.6167
  791SOL    HW2 2373   1.960   1.120   0.193  0.6811  1.2632 -3.0631
  792SOL     OW 2374   0.439   1.780   2.146  0.0638  0.0852  0.5399
  792SOL    HW1 2375   0.529   1.733   2.169  2.0869  2.4218  0.4466
  792SOL    HW2 2376   0.372   1.787   2.223  0.0774  1.4858  0.9792
  793SOL     OW 2377   2.102   1.552   2.145 -0.0379 -0.2813  0.3610
  793SOL    HW1 2378   2.183   1.604   2.107 -2.1260  1.1549 -2.4454
  793SOL    HW2 2379   2.096   1.457   2.103 -1.6336 -1.8487 -0.6784
  794SOL     OW 2380   0.534   1.388   2.346 -0.3505 -0.1980  0.3176
  794SOL    HW1 2381   0.522   1.366   2.245  0.1114  0.8941 -2.0238
  794SOL    HW2 2382   0.478   1.473   2.372 -0.5242  2.1782  1.8846
  795SOL     OW 2383   2.519   2.267   1.841  0.0983  0.1458  0.2933
  795SOL    HW1 2384   2.522   2.229   1.938 -0.1393 -2.2706  0.1965
  795SOL    HW2 2385   2.442   2.228   1.782  1.1469 -2.6111 -2.2162
  796SOL     OW 2386   3.092   1.121   2.678  0.3599  0.2554  0.0506
  796SOL    HW1 2387   2.985   1.125   2.669 -0.2388 -2.7009  0.8174
  796SOL    HW2 2388   3.130   1.125   2.777  0.3761 -1.0250 -0.5187
  797SOL     OW 2389   0.740   0.668   1.407 -0.5379 -0.8083 -0.2970
  797SOL    HW1 2390   0.820   0.720   1.453  0.8793 -1.2196 -0.3911
  797SOL    HW2 2391   0.694   0.729   1.334 -0.3917  2.0976  0.1229
  798SOL     OW 2392   1.270   0.326   1.142 -0.3927 -0.4351  0.6322
  798SOL    HW1 2393   1.338   0.342   1.226  1.5422 -2.1937  0.6331
  798SOL    HW2 2394   1.306   0.367   1.051  1.8959  1.4682 -1.3834
  799SOL     OW 2395   1.960   2.719   1.059 -0.0943  0.2078 -0.0815
  799SOL    HW1 2396   1.890   2.685   1.127  0.1019  0.4674 -0.6374
  799SOL    HW2 2397   1.932   2.712   0.963 -2.4150 -0.1383 -1.1774
  800SOL     OW 2398   3.054   0.640   1.820  0.1642  0.4235 -0.1785
  800SOL    HW1 2399   2.969   0.686   1.857 -1.9821  2.0794 -1.1710
  800SOL    HW2 2400   3.107   0.594   1.897  1.1566 -0.1314  1.6032
  801SOL     OW 2401   1.965   2.241   0.072 -0.0662 -0.2486  0.6093
  801SOL    HW1 2402   1.884   2.186   0.030  1.2675 -2.2389 -1.7181
  801SOL    HW2 2403   2.058   2.202   0.049 -0.8147  0.8301  0.0576
  802SOL     OW 2404   0.719   0.830   2.564 -0.5381  0.0445  0.2749
  802SOL    HW1 2405   0.800   0.797   2.503  2.6653  0.6231 -0.7823
  802SOL    HW2 2406   0.634   0.844   2.511  0.9097 -1.0505  2.6021
  803SOL     OW 2407   0.959   0.061   0.873 -0.2934 -0.8779 -0.1061
  803SOL    HW1 2408   1.047   0.123   0.885  0.7826  1.5936 -1.1632
  803SOL    HW2 2409   0.882   0.118   0.831 -2.0366  0.3001 -2.1232
  804SOL     OW 2410   0.282   0.028   2.135  0.0670  0.1396 -0.1698
  804SOL    HW1 2411   0.276   0.106   2.203 -1.9883 -1.5671 -1.1855
  804SOL    HW2 2412   0.208   0.035   2.064  1.1553  0.6218  2.7257
  805SOL     OW 2413   2.409   0.264   0.364 -0.1347  0.1488 -0.2997
  805SOL    HW1 2414   2.433   0.361   0.375  0.5685 -0.8048 -3.0647
  805SOL    HW2 2415   2.386   0.243   0.267 -0.2703 -2.2235  0.1605
  806SOL     OW 2416   0.643   2.410   1.679 -0.3977 -0.0563  0.2739
  806SOL    HW1 2417   0.625   2.512   1.689 -1.5312 -1.1993  0.6043
  806SOL    HW2 2418   0.743   2.385   1.691 -0.1870 -0.2660  0.2179
  807SOL     OW 2419   2.471   0.904   0.428  0.2487 -0.0249 -0.0637
  807SOL    HW1 2420   2.572   0.904   0.446  0.9289  1.0693  0.4754
  807SOL    HW2 2421   2.445   0.944   0.335  3.8666  0.3697  0.1049
  808SOL     OW 2422   0.557   2.046   2.990  0.2902  0.2947 -0.7485
  808SOL    HW1 2423   0.551   2.068   3.093  1.8713 -2.0780  0.1263
  808SOL    HW2 2424   0.540   1.942   2.968  1.2235 -2.1012 -1.2888
  809SOL     OW 2425   2.704   1.932   1.947  0.2600 -0.1123 -0.0553
  809SOL    HW1 2426   2.801   1.961   1.973 -0.6761 -1.2716 -1.4119
  809SOL    HW2 2427   2.683   1.937   1.843  1.8482  0.1450 -0.6514
  810SOL     OW 2428   2.106   1.033   0.521 -0.3437 -0.3617  0.2845
  810SOL    HW1 2429   2.166   0.977   0.580  0.3209 -1.9152  0.5355
  810SOL    HW2 2430   2.052   1.106   0.571  0.0260  1.3624  0.1394
  811SOL     OW 2431   1.367   2.487   1.277  0.1296  0.4865 -0.4219
  811SOL    HW1 2432   1.376   2.385   1.298 -0.8121 -0.9696 -0.4949
  811SOL    HW2 2433   1.274   2.514   1.249  2.5525  2.1022 -1.2759
  812SOL     OW 2434   1.445   0.850   1.936 -0.5321  0.0008 -0.4642
  812SOL    HW1 2435   1.501   0.908   2.003  1.6807 -4.5486  0.9806
  812SOL    HW2 2436   1.359   0.904   1.914  1.1553 -2.5334 -0.4179
  813SOL     OW 2437   1.757   2.103   2.463  0.4642 -0.6135  0.2858
  813SOL    HW1 2438   1.811   2.017   2.477 -0.6912 -0.1371 -2.0035
  813SOL    HW2 2439   1.717   2.090   2.367  1.3309 -0.3642 -0.0900
  814SOL     OW 2440   2.882   1.562   2.829  0.3202 -0.5037  0.1409
  814SOL    HW1 2441   2.969   1.527   2.873  1.8157 -0.6824  1.6175
  814SOL    HW2 2442   2.888   1.665   2.812  0.6914  0.8882 -2.0032
  815SOL     OW 2443   2.179   2.893   2.777 -0.0776  0.2247  0.3194
  815SOL    HW1 2444   2.162   2.803   2.833  1.5648 -3.3428  2.7560
  815SOL    HW2 2445   2.278   2.911   2.778  0.2988  1.7894  1.2489
  816SOL     OW 2446   1.635   0.338   1.667 -0.1629  0.1849  0.2180
  816SOL    HW1 2447   1.662   0.237   1.675  0.0474 -0.8786  0.8980
  816SOL    HW2 2448   1.547   0.359   1.711  2.4397 -0.6966 -1.9824
  817SOL     OW 2449   0.415   1.236   2.524 -0.0492 -0.1104  0.0106
  817SOL    HW1 2450   0.317   1.276   2.522 -0.3299  0.2015 -2.3787
  817SOL    HW2 2451   0.477   1.283   2.455  0.0500  2.8216 -2.1292
  818SOL     OW 2452   1.975   0.789   0.469 -0.4481  0.0950  0.2565
  818SOL    HW1 2453   1.998   0.892   0.482 -1.1394  1.2006  2.6398
  818SOL    HW2 2454   1.908   0.762   0.540 -2.0822  0.7427 -0.5159
  819SOL     OW 2455   2.772   2.925   3.019 -0.3403  0.3571 -0.4849
  819SOL    HW1 2456   2.850   2.876   2.977 -0.4059 -0.3685 -1.5479
  819SOL    HW2 2457   2.692   2.928   2.954 -1.1053 -1.3437  1.3354
  820SOL     OW 2458   1.264   1.124   0.653 -0.1358 -0.0373  0.1251
  820SOL    HW1 2459   1.224   1.213   0.692 -0.9746  2.8527 -1.1614
  820SOL    HW2 2460   1.239   1.050   0.713 -1.5295  1.4857 -3.0504
  821SOL     OW 2461   3.088   1.308   0.675 -0.2437  0.4241 -0.5362
  821SOL    HW1 2462   3.075   1.336   0.776  1.9369  0.4610  3.5055
  821SOL    HW2 2463   3.171   1.343   0.626  0.0194  0.3723  1.3909
  822SOL     OW 2464   2.534   1.743   2.434  0.0177  0.1035  0.4012
  822SOL    HW1 2465   2.561   1.817   2.498 -0.7318 -0.8448  0.9123
  822SOL    HW2 2466   2.441   1.758   2.384 -1.5552  1.2113 -1.2281
  823SOL     OW 2467   2.107   0.801   1.208  0.3758  0.8844 -0.0306
  823SOL    HW1 2468   2.058   0.860   1.277  1.5915  2.0323 -0.7634
  823SOL    HW2 2469   2.050   0.788   1.125  0.0997  1.1223 -2.5012
  824SOL     OW 2470   0.163   2.071   2.779  0.7020 -0.1878 -0.0205
  824SOL    HW1 2471   0.115   2.019   2.850  1.4002  0.3130 -2.1913
  824SOL    HW2 2472   0.207   2.017   2.701  0.3612  1.2823 -2.9689
  825SOL     OW 2473   1.253   1.103   0.308  0.2600 -0.3873 -0.2270
  825SOL    HW1 2474   1.251   1.206   0.317  3.9938  3.1873 -0.9951
  825SOL    HW2 2475   1.182   1.053   0.367 -4.3662  1.5059 -2.1584
  826SOL     OW 2476   1.912   0.681   1.608 -0.5240  0.1070 -0.2414
  826SOL    HW1 2477   1.994   0.626   1.643 -1.6355  1.1705  1.3770
  826SOL    HW2 2478   1.840   0.623   1.561 -0.7864  1.1080  2.4727
  827SOL     OW 2479   0.700   1.373   0.291 -0.3151 -0.2312  0.2074
  827SOL    HW1 2480   0.754   1.291   0.264  1.6226  1.6374 -0.5965
  827SOL    HW2 2481   0.622   1.343   0.352 -3.6488 -1.0819 -0.7441
  828SOL     OW 2482   2.511   0.078   1.588 -0.0962 -0.6119  0.0732
  828SOL    HW1 2483   2.419   0.116   1.563  0.7641 -1.4567 -0.0536
  828SOL    HW2 2484   2.503  -0.009   1.639 -4.7459  0.9211 -0.8318
  829SOL     OW 2485   2.827   2.439   2.965 -0.2289 -0.2765  0.0581
  829SOL    HW1 2486   2.737   2.392   2.945 -0.2922  0.1281 -0.2141
  829SOL    HW2 2487   2.816   2.512   3.038 -0.4579 -0.4523 -0.8786
  830SOL     OW 2488   2.862   0.948   2.990 -0.1080  0.0614  0.1282
  830SOL    HW1 2489   2.898   1.042   3.004  1.5917 -1.0952 -2.4898
  830SOL    HW2 2490   2.916   0.887   3.047 -0.3729  0.0833 -2.4172
  831SOL     OW 2491   0.115   0.648   0.405  0.0780 -0.5673  0.7095
  831SOL    HW1 2492   0.090   0.591   0.486  2.2530  0.1778  1.8411
  831SOL    HW2 2493   0.123   0.604   0.312 -1.2254 -0.3041  1.2925
  832SOL     OW 2494   1.792   0.732   3.067 -0.2792 -0.1590 -0.2798
  832SOL    HW1 2495   1.703   0.764   3.021 -0.6697  3.1561  0.1017
  832SOL    HW2 2496   1.799   0.628   3.073 -3.7439 -2.0396 -0.0468
  833SOL     OW 2497   2.441   2.156   0.511 -0.5395 -0.4801 -0.1548
  833SOL    HW1 2498   2.341   2.173   0.496  1.0157 -0.6833  2.1123
  833SOL    HW2 2499   2.463   2.059   0.482 -0.8194 -0.6183 -0.1193
  834SOL     OW 2500   0.193   0.209   0.504 -0.0599 -0.1570  0.4420
  834SOL    HW1 2501   0.167   0.123   0.553  1.7259  3.1197 -0.8301
  834SOL    HW2 2502   0.182   0.202   0.395  0.2103  1.2221 -0.1735
  835SOL     OW 2503   2.388   1.577   1.140  0.4704  0.3022  0.3098
  835SOL    HW1 2504   2.370   1.677   1.157 -2.0260 -2.3731  0.5276
  835SOL    HW2 2505   2.475   1.560   1.078 -0.2305 -1.3318 -0.3510
  836SOL     OW 2506   1.607   0.828   2.525 -0.0942 -0.2044 -0.3660
  836SOL    HW1 2507   1.512   0.790   2.504  0.3035  1.7345  0.2240
  836SOL    HW2 2508   1.673   0.823   2.447  0.2636 -0.7119  1.5584
  837SOL     OW 2509   1.725   0.170   0.593  0.1550 -0.7421  0.6110
  837SOL    HW1 2510   1.655   0.222   0.653  0.4607  0.1144  0.2806
  837SOL    HW2 2511   1.687   0.135   0.507  2.0333  4.4849  0.7720
  838SOL     OW 2512   1.147   1.561   2.786  0.2116 -0.1558  0.0587
  838SOL    HW1 2513   1.116   1.526   2.879 -0.8619 -0.2768  0.6047
  838SOL    HW2 2514   1.092   1.512   2.713 -2.6951  1.6268 -0.3835
  839SOL     OW 2515   1.631   0.316   1.011  0.5258  0.6495  0.6389
  839SOL    HW1 2516   1.663   0.352   1.101  0.0389  0.0874 -0.3606
  839SOL    HW2 2517   1.609   0.215   1.011 -1.6884  1.3926  1.6823
  840SOL     OW 2518   2.470   2.950   1.751  0.2188  0.1760  0.3684
  840SOL    HW1 2519   2.371   2.936   1.747  2.0242  1.6161 -2.0978
  840SOL    HW2 2520   2.519   2.856   1.742  1.2350  0.9605  1.4019
  841SOL     OW 2521   1.545   0.829   2.979 -0.3350  0.2537  0.1230
  841SOL    HW1 2522   1.511   0.860   3.068  1.8678 -2.2962 -3.2673
  841SOL    HW2 2523   1.536   0.896   2.899  0.4709 -1.5387 -2.2592
  842SOL     OW 2524   0.839   1.565   0.919 -0.3863 -0.2565 -0.0620
  842SOL    HW1 2525   0.805   1.659   0.950  0.0439 -0.4719  1.0964
  842SOL    HW2 2526   0.763   1.495   0.936 -1.2112 -2.0598 -0.5988
  843SOL     OW 2527   0.059   0.031   1.375  0.1866 -0.0305  0.2040
  843SOL    HW1 2528   0.117   0.103   1.425  1.9350  1.6314 -1.0717
  843SOL    HW2 2529   0.061  -0.059   1.432 -3.1434  0.6681  0.9965
  844SOL     OW 2530   0.812   2.478   0.239  0.4265  0.3058 -0.0694
  844SOL    HW1 2531   0.748   2.458   0.316 -2.0156  2.2841 -1.9081
  844SOL    HW2 2532   0.772   2.546   0.175 -0.8911  0.4406 -0.4460
  845SOL     OW 2533   1.640   2.899   1.344 -0.1783  0.2577  0.8447
  845SOL    HW1 2534   1.730   2.889   1.390 -0.0064  0.7846  2.3081
  845SOL    HW2 2535   1.571   2.952   1.403 -1.8768 -0.0345 -1.3633
  846SOL     OW 2536   1.553   2.902   0.734 -0.1201 -0.2459 -0.4488
  846SOL    HW1 2537   1.547   2.879   0.631 -0.9026 -0.6132 -2.3457
  846SOL    HW2 2538   1.650   2.927   0.764 -0.0589  0.2829  1.0980
  847SOL     OW 2539   2.034   1.664   0.364  0.4176  0.2488 -0.3387
  847SOL    HW1 2540   2.017   1.580   0.424 -4.2283 -2.1522  1.8615
  847SOL    HW2 2541   1.944   1.718   0.355  1.0947 -2.8667 -2.2453
  848SOL     OW 2542   2.451   0.859   2.608  0.4335  0.4856  0.2019
  848SOL    HW1 2543   2.436   0.953   2.653 -2.0785  1.3491  0.4494
  848SOL    HW2 2544   2.374   0.790   2.618  0.4854  0.1298 -0.2903
  849SOL     OW 2545   2.575   0.864   2.357  0.6767  0.1808 -0.7767
  849SOL    HW1 2546   2.668   0.814   2.353  0.4379  0.0651  1.8862
  849SOL    HW2 2547   2.537   0.861   2.456 -1.0747  0.3596  1.2001
  850SOL     OW 2548   1.533   0.152   1.288  0.4553  0.4554 -0.8900
  850SOL    HW1 2549   1.524   0.141   1.185 -0.1320 -0.4652  0.3802
  850SOL    HW2 2550   1.497   0.082   1.357 -0.6098  1.8262 -1.5653
  851SOL     OW 2551   0.472   1.791   0.542  0.2881 -0.5579 -0.3229
  851SOL    HW1 2552   0.502   1.859   0.611  1.1843 -2.8720 -0.4594
  851SOL    HW2 2553   0.487   1.821   0.445 -0.5632 -0.6769 -0.8252
  852SOL     OW 2554   0.813   2.110   1.685 -0.2336  0.3514 -0.5048
  852SOL    HW1 2555   0.828   2.209   1.658  0.2492 -0.1890 -2.8268
  852SOL    HW2 2556   0.747   2.088   1.765 -1.3783 -2.5176 -0.5446
  853SOL     OW 2557   2.543   1.506   2.594  0.3635  0.5355  0.6448
  853SOL    HW1 2558   2.479   1.427   2.569 -1.2560 -0.9565  1.0436
  853SOL    HW2 2559   2.513   1.585   2.538  1.5202  0.1097 -1.4976
  854SOL     OW 2560   2.385   1.383   1.734 -0.0057  0.2566 -0.2843
  854SOL    HW1 2561   2.403   1.376   1.630 -0.7694 -0.1777 -2.7651
  854SOL    HW2 2562   2.361   1.291   1.774 -3.1076  1.6497 -0.3518
  855SOL     OW 2563   2.028   2.425   1.052 -0.2390 -0.5860 -0.2735
  855SOL    HW1 2564   2.000   2.522   1.034 -2.6825 -2.4748  1.6941
  855SOL    HW2 2565   2.113   2.419   1.109 -1.2916 -1.3558 -5.3304
  856SOL     OW 2566   1.317   1.438   0.943 -0.2498  0.1906  0.3644
  856SOL    HW1 2567   1.361   1.522   0.982 -1.7406  0.4246 -0.2190
  856SOL    HW2 2568   1.224   1.424   0.981  1.5550  0.1141 -1.0227
  857SOL     OW 2569   3.023   2.703   0.950  0.1387  0.2360  0.0615
  857SOL    HW1 2570   3.000   2.625   0.890  0.5653  0.2823 -2.0546
  857SOL    HW2 2571   3.112   2.746   0.914 -2.0582 -0.2525  2.6295
  858SOL     OW 2572   2.335   2.097   1.706  0.3174  0.0426 -0.0749
  858SOL    HW1 2573   2.247   2.078   1.650 -2.4771 -1.6849  1.1217
  858SOL    HW2 2574   2.393   2.013   1.705 -1.0957 -0.3081  0.3770
  859SOL     OW 2575   2.479   0.532   1.048  0.2613 -0.3140 -0.0799
  859SOL    HW1 2576   2.524   0.568   0.959  2.6349 -0.7300  0.8282
  859SOL    HW2 2577   2.502   0.434   1.067 -1.1819  1.9952 -1.1202
  860SOL     OW 2578   1.942   2.798   0.431  0.6996 -0.1074 -0.2906
  860SOL    HW1 2579   1.906   2.781   0.342  1.6510 -0.4499  0.1827
  860SOL    HW2 2580   2.046   2.787   0.429  3.3577  0.0928 -1.6814
  861SOL     OW 2581   1.006   2.387   2.877  0.0056  0.1942 -0.2604
  861SOL    HW1 2582   1.034   2.479   2.840 -2.0068  1.2371 -1.5632
  861SOL    HW2 2583   1.034   2.374   2.976  0.1374 -2.3379  1.0826
  862SOL     OW 2584   2.868   2.562   1.629  0.1116  0.2707  0.2455
  862SOL    HW1 2585   2.954   2.608   1.672  0.1626  0.3196  1.5876
  862SOL    HW2 2586   2.797   2.632   1.602 -2.1524 -3.2130 -1.7430
  863SOL     OW 2587   1.842   2.708   0.189  0.4265  0.0533  0.2449
  863SOL    HW1 2588   1.869   2.608   0.205  0.9951  0.3883  1.3006
  863SOL    HW2 2589   1.748   2.720   0.140 -0.8149  1.9088 -1.7423
  864SOL     OW 2590   1.984   1.221   2.821 -0.5686 -0.0928 -0.0962
  864SOL    HW1 2591   1.991   1.185   2.725 -1.5682  0.3352  1.1981
  864SOL    HW2 2592   2.042   1.178   2.890  0.1846  0.0731  0.3606
  865SOL     OW 2593   2.192   1.900   0.674 -0.2623  0.4822 -1.0463
  865SOL    HW1 2594   2.255   1.860   0.749  0.8982  0.0337 -1.9395
  865SOL    HW2 2595   2.093   1.881   0.689  1.2696 -0.6971 -2.5047
  866SOL     OW 2596   2.848   2.917   1.003 -0.0658  0.1090 -0.2729
  866SOL    HW1 2597   2.847   2.986   0.926  0.5529  0.5804  0.9923
  866SOL    HW2 2598   2.913   2.843   0.989 -3.7438  1.0674  0.6623
  867SOL     OW 2599   0.379   1.397   0.882  0.5812  0.0423 -1.1131
  867SOL    HW1 2600   0.346   1.327   0.819  1.6370 -1.7960 -0.7183
  867SOL    HW2 2601   0.372   1.497   0.849  0.1917 -1.2821  0.6467
  868SOL     OW 2602   0.753   1.912   2.121  0.2843 -0.4582 -0.4585
  868SOL    HW1 2603   0.692   1.874   2.198 -0.2019  0.4760  2.1074
  868SOL    HW2 2604   0.724   1.998   2.079  0.9938  0.5138 -0.5196
  869SOL     OW 2605   2.551   1.930   1.672 -0.0674  0.6093  0.0034
  869SOL    HW1 2606   2.627   2.001   1.659  0.2847 -2.5405 -0.0832
  869SOL    HW2 2607   2.596   1.840   1.654  1.5954 -0.2608  0.6932
  870SOL     OW 2608   2.310   2.691   1.194 -0.4741 -0.3060  0.1224
  870SOL    HW1 2609   2.299   2.594   1.165 -2.0015  3.8709 -1.0583
  870SOL    HW2 2610   2.340   2.710   1.294 -0.6613  0.2015 -0.7468
  871SOL     OW 2611   3.106   2.272   0.558 -0.3459 -0.2990 -0.0699
  871SOL    HW1 2612   3.059   2.305   0.646 -1.8037 -3.1082  0.7234
  871SOL    HW2 2613   3.041   2.269   0.475  1.5450 -1.6842  1.4284
  872SOL     OW 2614   2.106   0.497   1.688 -0.2812  0.5103  0.5208
  872SOL    HW1 2615   2.085   0.474   1.786 -0.1983  1.6711  2.2608
  872SOL    HW2 2616   2.198   0.457   1.657 -1.0670 -0.3695 -0.4699
  873SOL     OW 2617   1.748   2.132   3.072  0.2114  0.0632  0.5696
  873SOL    HW1 2618   1.662   2.150   3.125  0.3862 -0.1165  0.6130
  873SOL    HW2 2619   1.718   2.123   2.973  3.5586  0.2614 -0.2049
  874SOL     OW 2620   0.681   2.431   0.764 -0.3523  0.1996 -0.6100
  874SOL    HW1 2621   0.696   2.531   0.789 -1.1478  1.0767  0.4886
  874SOL    HW2 2622   0.768   2.382   0.746 -0.6113  3.6188  3.7499
  875SOL     OW 2623   2.297   1.537   1.433  0.3680 -0.4146 -0.3364
  875SOL    HW1 2624   2.384   1.575   1.478 -0.8803 -1.4078  0.1077
  875SOL    HW2 2625   2.313   1.510   1.341  0.2750 -1.2360  3.6576
  876SOL     OW 2626   0.053   2.306   2.682  0.3435  0.6678  0.2976
  876SOL    HW1 2627   0.093   2.216   2.705 -0.5768  0.6057 -3.4023
  876SOL    HW2 2628   0.076   2.382   2.752  0.2825  0.6119 -1.1464
  877SOL     OW 2629   2.969   2.704   0.518  0.2066 -0.7805 -0.8265
  877SOL    HW1 2630   2.927   2.792   0.547 -0.2267  0.5865 -2.0296
  877SOL    HW2 2631   3.031   2.661   0.587  0.9719  2.2738 -1.1202
  878SOL     OW 2632   2.788   1.532   2.232 -0.0476  0.4061 -0.2730
  878SOL    HW1 2633   2.838   1.613   2.194 -2.1950 -0.0531  0.4064
  878SOL    HW2 2634   2.764   1.543   2.334 -2.8875  2.5455 -0.0726
  879SOL     OW 2635   2.422   0.093   1.264  0.1925  0.2891 -0.0362
  879SOL    HW1 2636   2.444  -0.001   1.304  1.2484 -0.9679  0.4406
  879SOL    HW2 2637   2.359   0.088   1.184  0.7744 -0.3377 -0.6757
  880SOL     OW 2638   0.772   0.494   2.226  0.1360  0.0722 -0.7041
  880SOL    HW1 2639   0.715   0.448   2.302  0.1288 -0.1705  2.1295
  880SOL    HW2 2640   0.851   0.441   2.186  0.4263 -0.4371 -1.9428
  881SOL     OW 2641   0.900   0.099   0.459  0.5671 -0.6613  0.2395
  881SOL    HW1 2642   0.937   0.004   0.476 -0.5610  0.6578 -0.1799
  881SOL    HW2 2643   0.794   0.096   0.466 -0.0796  1.4759  0.5852
  882SOL     OW 2644   2.718   1.712   1.695  0.2137 -0.2354 -0.1748
  882SOL    HW1 2645   2.807   1.673   1.663  0.7942  2.3410  1.2383
  882SOL    HW2 2646   2.707   1.710   1.802  1.0746  0.7749 -0.0577
  883SOL     OW 2647   0.877   0.485   0.932 -0.2744  0.5768  0.4314
  883SOL    HW1 2648   0.922   0.572   0.972  0.7018  0.5141 -0.3825
  883SOL    HW2 2649   0.807   0.438   0.990  2.4774  0.6929 -1.1911
  884SOL     OW 2650   1.115   1.716   1.176  0.1229 -0.0690  0.0524
  884SOL    HW1 2651   1.113   1.628   1.112 -0.9981  1.6010 -2.4409
  884SOL    HW2 2652   1.083   1.803   1.133  1.0043  2.2622  0.0254
  885SOL     OW 2653   2.320   1.786   2.287  0.3951  0.0701  0.2088
  885SOL    HW1 2654   2.248   1.754   2.351 -1.0095  3.3641 -1.2656
  885SOL    HW2 2655   2.307   1.882   2.253 -3.4601 -1.5256  0.1581
  886SOL     OW 2656   2.591   0.379   1.818 -0.1845  0.1206  0.0836
  886SOL    HW1 2657   2.610   0.306   1.893  1.5831 -0.6289  0.3414
  886SOL    HW2 2658   2.672   0.398   1.761 -1.2495 -1.2567  2.9968
  887SOL     OW 2659   0.116   1.993   1.314 -0.3364 -0.5235  0.3308
  887SOL    HW1 2660   0.049   1.960   1.245  3.5334 -0.6286 -0.7959
  887SOL    HW2 2661   0.149   2.088   1.296 -0.1689 -1.1485  2.9174
  888SOL     OW 2662   0.580   1.231   1.517 -0.8956  0.0922  0.4697
  888SOL    HW1 2663   0.588   1.265   1.417 -0.7932  0.9033  1.1736
  888SOL    HW2 2664   0.587   1.131   1.521 -0.9846  1.4385 -1.2945
  889SOL     OW 2665   0.824   2.500   2.175  0.0917 -0.2172 -1.3002
  889SOL    HW1 2666   0.754   2.424   2.190  0.6159  1.9918 -1.3265
  889SOL    HW2 2667   0.897   2.470   2.112 -1.2630 -0.7791  0.5891
  890SOL     OW 2668   2.410   2.486   0.238 -0.1611 -0.1584 -0.3924
  890SOL    HW1 2669   2.433   2.568   0.183 -0.3745  1.8102  2.2892
  890SOL    HW2 2670   2.359   2.509   0.326 -0.0277  1.2964 -1.2642
  891SOL     OW 2671   2.507   1.695   0.610 -0.1205  0.1206 -0.3922
  891SOL    HW1 2672   2.530   1.694   0.713 -0.8181  0.4997  1.2783
  891SOL    HW2 2673   2.409   1.683   0.581 -1.6480 -1.7422  1.6646
  892SOL     OW 2674   0.377   0.275   2.332 -0.3245 -0.0157  0.2664
  892SOL    HW1 2675   0.430   0.362   2.323 -0.5247 -2.3454  0.7896
  892SOL    HW2 2676   0.439   0.194   2.356 -0.4366 -0.8505 -2.6828
  893SOL     OW 2677   1.642   0.208   2.720 -0.3242  0.3898  0.0898
  893SOL    HW1 2678   1.708   0.277   2.761  0.1237 -1.2782  2.8700
  893SOL    HW2 2679   1.568   0.253   2.671 -1.6764 -1.4463 -0.5501
  894SOL     OW 2680   2.185   2.073   0.053  0.5169 -0.0094  0.0992
  894SOL    HW1 2681   2.137   2.026  -0.028  0.1564  0.2906  1.6256
  894SOL    HW2 2682   2.235   2.005   0.117 -0.8652  1.3273  1.3542
  895SOL     OW 2683   2.821   1.475   0.898  0.7324 -0.1371  0.2214
  895SOL    HW1 2684   2.880   1.405   0.941 -1.1310  2.5924 -0.5506
  895SOL    HW2 2685   2.824   1.567   0.947 -0.3675  0.4691  3.2858
  896SOL     OW 2686   1.792   1.821   1.195 -0.6967 -0.3819 -0.3639
  896SOL    HW1 2687   1.843   1.743   1.153 -1.3913 -0.0687 -0.2918
  896SOL    HW2 2688   1.732   1.875   1.130 -2.1764  0.3006 -0.6749
  897SOL     OW 2689   0.279   0.561   3.044  0.5372 -0.4708 -0.0758
  897SOL    HW1 2690   0.246   0.608   2.956  2.2986  1.0304 -0.1575
  897SOL    HW2 2691   0.366   0.600   3.081 -3.0420 -0.4361 -1.0755
  898SOL     OW 2692   0.632   2.884   1.041 -0.4870 -0.0084  0.0183
  898SOL    HW1 2693   0.639   2.986   1.039  0.7203 -1.8781  0.1275
  898SOL    HW2 2694   0.698   2.838   1.105 -2.6308  1.4625 -1.9075
  899SOL     OW 2695   2.815   0.844   1.363  0.9542  0.2369  0.0260
  899SOL    HW1 2696   2.809   0.844   1.262 -1.3199  3.3671 -0.3026
  899SOL    HW2 2697   2.899   0.884   1.398 -0.2692  0.8836 -0.4445
  900SOL     OW 2698   0.989   2.508   2.424  0.7985  0.3091  0.0292
  900SOL    HW1 2699   0.920   2.524   2.346  0.0874 -2.7886  1.8637
  900SOL    HW2 2700   0.969   2.443   2.493  3.7872  1.0032  0.7128
  901SOL     OW 2701   1.892   2.397   1.358  0.5387 -0.2045  0.1183
  901SOL    HW1 2702   1.857   2.324   1.296 -3.1894 -2.3917  1.1269
  901SOL    HW2 2703   1.987   2.377   1.395  1.5154  0.7626  0.1209
  902SOL     OW 2704   2.547   1.646   1.486  0.2561 -0.2477 -0.5337
  902SOL    HW1 2705   2.607   1.662   1.570  0.8756  1.5236 -2.5544
  902SOL    HW2 2706   2.603   1.620   1.403  0.3235 -1.1130 -1.1263
  903SOL     OW 2707   0.275   2.450   1.961 -0.9543 -0.4965  0.1540
  903SOL    HW1 2708   0.173   2.434   1.957 -0.4227 -1.1649  0.9620
  903SOL    HW2 2709   0.295   2.549   1.955  0.5553 -0.5353 -0.7749
  904SOL     OW 2710   1.973   0.785   2.577  0.0442  0.1507  0.0217
  904SOL    HW1 2711   1.917   0.708   2.615 -0.2491 -1.2854  2.7549
  904SOL    HW2 2712   1.975   0.794   2.473  1.9097 -0.8015  0.3094
  905SOL     OW 2713   2.901   0.104   2.510 -0.7129  0.0298  0.4983
  905SOL    HW1 2714   2.966   0.024   2.517 -1.4968 -0.9986  3.5272
  905SOL    HW2 2715   2.954   0.189   2.500 -2.4514  1.6264 -0.6522
  906SOL     OW 2716   0.130   1.657   1.900  0.2518 -0.0948  0.8705
  906SOL    HW1 2717   0.057   1.696   1.834 -3.7167  1.7479  0.0309
  906SOL    HW2 2718   0.224   1.702   1.882  3.0351  0.2033 -0.8400
  907SOL     OW 2719   0.214   2.422   0.975 -0.0181  0.1258  0.2136
  907SOL    HW1 2720   0.316   2.419   0.961 -1.3005  0.5785  1.4601
  907SOL    HW2 2721   0.163   2.488   0.914  0.7280  1.5064  0.4689
  908SOL     OW 2722   2.810   3.039   0.342  0.2150 -0.3883  0.7177
  908SOL    HW1 2723   2.731   3.053   0.280 -3.5370 -0.2244  2.1637
  908SOL    HW2 2724   2.875   2.966   0.311 -0.6243 -2.3406  0.4405
  909SOL     OW 2725   0.844   1.060   2.667  0.3543  0.2574 -0.4434
  909SOL    HW1 2726   0.804   0.967   2.636  0.2320 -1.3119  0.5893
  909SOL    HW2 2727   0.925   1.085   2.604  0.2633 -2.8814  0.3704
  910SOL     OW 2728   1.794   1.882   2.160  0.2637 -0.1276 -0.0793
  910SOL    HW1 2729   1.844   1.903   2.071  0.8950  0.8282  2.2818
  910SOL    HW2 2730   1.715   1.946   2.182  1.7902 -1.0293 -0.6042
  911SOL     OW 2731   1.838   2.916   1.568 -0.3439 -0.4412  0.0386
  911SOL    HW1 2732   1.925   2.925   1.516  0.6017  2.9928 -1.0179
  911SOL    HW2 2733   1.834   2.834   1.635  1.1690  0.6932  1.1438
  912SOL     OW 2734   2.853   1.008   0.706  0.1452  0.1071 -0.4525
  912SOL    HW1 2735   2.888   0.990   0.804 -2.7889 -1.4840  2.3603
  912SOL    HW2 2736   2.802   1.100   0.696 -1.3882 -0.6295  0.8979
  913SOL     OW 2737   2.516   1.266   1.517  0.1575  0.5721  0.4125
  913SOL    HW1 2738   2.560   1.175   1.515  1.0664  2.1814 -2.5980
  913SOL    HW2 2739   2.565   1.340   1.461  1.7503  0.7593 -0.1196
  914SOL     OW 2740   2.786   0.626   1.153  0.4169 -0.5072  0.0684
  914SOL    HW1 2741   2.792   0.540   1.217 -2.2919  1.4087 -0.3118
  914SOL    HW2 2742   2.692   0.666   1.169  0.2565 -1.0700 -1.0588
  915SOL     OW 2743   1.228   0.719   1.018 -0.3490  0.0407  0.2188
  915SOL    HW1 2744   1.284   0.750   1.100  0.9406  1.5599  1.4208
  915SOL    HW2 2745   1.122   0.728   1.020 -1.1648  1.2987  2.9183
  916SOL     OW 2746   0.622   0.049   0.648 -0.0282 -0.1453  0.3167
  916SOL    HW1 2747   0.688   0.127   0.672  1.0166  1.8306 -1.1005
  916SOL    HW2 2748   0.567   0.082   0.562 -1.2145 -1.3057  0.5312
  917SOL     OW 2749   2.881   2.567   2.009 -0.3664  0.2363  0.1526
  917SOL    HW1 2750   2.801   2.604   1.951 -1.9986  1.4196  2.4395
  917SOL    HW2 2751   2.971   2.565   1.960 -1.9756 -1.5915 -0.2336
  918SOL     OW 2752   1.014   2.104   2.985 -0.8605  0.2533 -0.4393
  918SOL    HW1 2753   1.004   2.175   3.059  1.1264  0.4804  0.7182
  918SOL    HW2 2754   1.076   2.142   2.912 -1.3241  0.9770  1.0381
  919SOL     OW 2755   0.814   1.682   2.861  0.2028 -0.0562  0.7050
  919SOL    HW1 2756   0.843   1.777   2.833 -1.2796  0.4485 -1.6416
  919SOL    HW2 2757   0.778   1.620   2.786 -0.7035 -2.2965  2.3193
  920SOL     OW 2758   1.253   1.796   2.566 -0.3019  0.7207  0.1556
  920SOL    HW1 2759   1.321   1.759   2.498 -0.8268 -1.3849  4.3569
  920SOL    HW2 2760   1.202   1.722   2.616  0.8323  0.6962 -2.9588
  921SOL     OW 2761   1.109   3.097   2.631 -0.2742 -0.0484 -0.4411
  921SOL    HW1 2762   1.069   3.059   2.538  0.3995  1.3846 -3.5889
  921SOL    HW2 2763   1.045   3.156   2.681  0.0551 -1.3456 -1.5839
  922SOL     OW 2764   2.214   2.375   2.783  0.4610  0.6739  0.0805
  922SOL    HW1 2765   2.225   2.275   2.800  2.8334  0.8828 -1.7940
  922SOL    HW2 2766   2.200   2.408   2.683  1.0689 -1.5642 -4.1320
  923SOL     OW 2767   1.259   2.663   0.266  0.0707 -0.3083  0.2477
  923SOL    HW1 2768   1.327   2.727   0.310  2.1845  1.9895  0.1154
  923SOL    HW2 2769   1.286   2.562   0.276  2.1336 -1.4779  1.0348
  924SOL     OW 2770   2.887   1.704   0.092 -0.6952 -0.0668 -0.2065
  924SOL    HW1 2771   2.810   1.674   0.030  0.8805 -0.0545 -1.9229
  924SOL    HW2 2772   2.967   1.637   0.093 -0.5291 -3.7472  1.1328
  925SOL     OW 2773   0.056   2.862   1.465  0.1797  0.4373  0.2658
  925SOL    HW1 2774   0.004   2.860   1.552  0.4745  1.6589 -0.8534
  925SOL    HW2 2775   0.013   2.815   1.387  1.5812  0.4614 -2.1484
  926SOL     OW 2776   1.339   2.831   1.354  0.7596  0.2082 -0.3430
  926SOL    HW1 2777   1.386   2.830   1.263  0.7154 -0.3843 -1.6223
  926SOL    HW2 2778   1.383   2.898   1.421 -2.3262 -0.2023  4.1415
  927SOL     OW 2779   0.343   2.686   1.754 -0.3299  0.9086 -0.0308
  927SOL    HW1 2780   0.288   2.603   1.728 -1.3795 -0.2323  0.3738
  927SOL    HW2 2781   0.294   2.777   1.745 -0.9228  1.9458 -0.3279
  928SOL     OW 2782   1.624   2.089   2.230 -0.5606 -0.4571  0.1313
  928SOL    HW1 2783   1.665   2.160   2.169 -1.5132  1.5231  0.8470
  928SOL    HW2 2784   1.523   2.099   2.230  3.0214  1.0628  0.3654
  929SOL     OW 2785   2.433   2.514   2.886  0.5074 -0.0659 -0.2676
  929SOL    HW1 2786   2.345   2.464   2.879  3.1527 -1.1096  0.1523
  929SOL    HW2 2787   2.478   2.540   2.795  0.2390  1.4721  0.5969
  930SOL     OW 2788   2.154   1.975   1.099 -0.2049  0.4228 -0.3184
  930SOL    HW1 2789   2.111   1.947   1.195 -2.0252 -3.9624  2.1522
  930SOL    HW2 2790   2.209   2.066   1.103 -2.3142  1.0189  0.9697
  931SOL     OW 2791   0.546   1.737   2.640 -0.5273 -0.0758 -0.0410
  931SOL    HW1 2792   0.529   1.773   2.740 -1.7766  0.0372  1.1830
  931SOL    HW2 2793   0.615   1.658   2.651  0.3596 -0.9223  1.1842
  932SOL     OW 2794   0.443   0.121   3.071  0.4220  0.0174 -0.0712
  932SOL    HW1 2795   0.524   0.183   3.101 -0.0899 -1.5568 -0.1706
  932SOL    HW2 2796   0.463   0.029   3.035  0.0089  0.7960  1.7232
  933SOL     OW 2797   0.921   0.825   3.034  0.2465  0.1189  0.2988
  933SOL    HW1 2798   0.836   0.780   3.073 -1.1877 -1.8153  0.7015
  933SOL    HW2 2799   0.905   0.924   3.003  0.0228 -1.2717  0.6956
  934SOL     OW 2800   0.787   2.996   2.653  0.1240 -0.3533 -0.0991
  934SOL    HW1 2801   0.756   2.937   2.572  1.2935 -0.6554  0.6921
  934SOL    HW2 2802   0.843   2.942   2.723  3.1983 -2.3870  1.5521
  935SOL     OW 2803   0.018   0.494   0.872 -0.0347  0.0610 -0.4388
  935SOL    HW1 2804   0.058   0.481   0.783 -0.8006 -0.5141  1.9956
  935SOL    HW2 2805  -0.070   0.552   0.874 -0.0267  0.7609 -2.3912
  936SOL     OW 2806   1.099   2.819   0.102 -0.0985  0.4506 -0.0221
  936SOL    HW1 2807   1.149   2.894   0.041  0.9591  0.8383  0.1891
  936SOL    HW2 2808   1.158   2.769   0.170 -1.3855 -1.2834  1.2693
  937SOL     OW 2809   1.843   2.684   2.082 -0.7528  0.1520 -0.5994
  937SOL    HW1 2810   1.740   2.704   2.077 -1.5543 -0.8538  1.4804
  937SOL    HW2 2811   1.906   2.745   2.025 -2.6089 -0.8539 -0.5790
  938SOL     OW 2812   2.781   2.071   1.635 -0.2321 -0.3634  0.3530
  938SOL    HW1 2813   2.764   2.172   1.648 -0.9340 -1.6617  0.9657
  938SOL    HW2 2814   2.855   2.034   1.694 -1.9915 -1.0099 -0.4718
  939SOL     OW 2815   2.811   1.197   2.410  0.2475 -0.4370  0.2379
  939SOL    HW1 2816   2.904   1.174   2.366  1.5917 -0.5793 -3.8579
  939SOL    HW2 2817   2.804   1.155   2.508 -1.6570 -3.7560  0.5679
  940SOL     OW 2818   1.080   0.448   2.790 -0.1596  0.1188  0.2464
  940SOL    HW1 2819   1.138   0.364   2.821 -0.8042 -1.1307 -0.3132
  940SOL    HW2 2820   1.033   0.437   2.700  0.8701 -3.3617  1.8839
  941SOL     OW 2821   0.030   2.778   2.292 -0.1133  0.2872  0.1726
  941SOL    HW1 2822   0.099   2.706   2.251 -2.2282 -1.2069  0.6693
  941SOL    HW2 2823   0.075   2.868   2.317  1.0638  2.2118 -0.2328
  942SOL     OW 2824   0.139   0.090   2.576 -0.1140 -0.0876 -0.1934
  942SOL    HW1 2825   0.133   0.089   2.679  3.1606 -0.5278 -2.1163
  942SOL    HW2 2826   0.129   0.185   2.532 -1.3457 -1.2615  1.6406
  943SOL     OW 2827   2.103   1.679   2.405  0.0604  0.0152 -0.1534
  943SOL    HW1 2828   2.093   1.655   2.303  1.1648  3.1132  0.6764
  943SOL    HW2 2829   2.098   1.599   2.473 -1.3280  2.6035  2.0557
  944SOL     OW 2830   2.168   2.376   1.470 -0.4550  0.3156  0.0277
  944SOL    HW1 2831   2.261   2.412   1.491 -1.7684 -1.7962  0.2818
  944SOL    HW2 2832   2.135   2.292   1.520  1.6728 -1.9241  0.2274
  945SOL     OW 2833   0.663   1.573   0.113  0.0320 -0.3703  0.8830
  945SOL    HW1 2834   0.584   1.566   0.044 -0.1590 -2.5178 -2.3168
  945SOL    HW2 2835   0.671   1.488   0.175 -1.1092  0.7937  1.4315
  946SOL     OW 2836   0.428   0.962   2.517  0.3396  0.4127 -0.3932
  946SOL    HW1 2837   0.342   0.940   2.469  0.7131  2.3705 -1.3701
  946SOL    HW2 2838   0.417   1.047   2.575 -1.0537 -2.3173  1.7200
  947SOL     OW 2839   1.496   0.500   3.051  0.5589 -0.3971  0.0019
  947SOL    HW1 2840   1.466   0.567   2.971  1.3261 -1.9504  1.4536
  947SOL    HW2 2841   1.417   0.449   3.092  0.2544  2.3654  0.3835
  948SOL     OW 2842   1.874   3.006   2.159 -0.2889  0.1211 -1.0558
  948SOL    HW1 2843   1.896   2.969   2.065 -1.4596  0.3913  0.6917
  948SOL    HW2 2844   1.852   2.933   2.229  1.7997 -1.3031  1.6627
  949SOL     OW 2845   0.649   2.492   0.462 -0.0472  0.5244  0.1080
  949SOL    HW1 2846   0.637   2.588   0.424  1.5680 -1.5861 -1.0054
  949SOL    HW2 2847   0.636   2.489   0.566  1.2183 -2.6919 -0.5152
  950SOL     OW 2848   0.200   2.238   3.008  0.4539 -0.5113  0.6035
  950SOL    HW1 2849   0.201   2.334   2.965  2.7675  1.2004  3.0496
  950SOL    HW2 2850   0.189   2.161   2.937 -0.5949 -1.5420 -2.6495
  951SOL     OW 2851   1.173   2.633   2.806 -0.3398  0.2190 -0.0281
  951SOL    HW1 2852   1.220   2.646   2.898  0.0782 -3.0203  1.4644
  951SOL    HW2 2853   1.244   2.620   2.728 -0.0258  2.4459  1.0500
  952SOL     OW 2854   0.029   1.674   0.423  0.2870  0.2828 -0.2792
  952SOL    HW1 2855   0.085   1.759   0.417 -3.9676 -1.4253 -1.6459
  952SOL    HW2 2856   0.062   1.609   0.504 -0.6659  1.6405 -0.0670
  953SOL     OW 2857   2.564   1.766   0.219  0.1376  0.2768  0.1513
  953SOL    HW1 2858   2.557   1.685   0.282 -1.7835 -1.8490 -0.9760
  953SOL    HW2 2859   2.491   1.765   0.142  0.5167 -1.6873  0.8917
  954SOL     OW 2860   2.211   0.568   0.968 -0.2011 -0.5368  0.1219
  954SOL    HW1 2861   2.206   0.566   0.866  0.0966 -1.9006 -2.4937
  954SOL    HW2 2862   2.307   0.573   1.002 -0.7291  0.2864  1.8636
  955SOL     OW 2863   0.127   2.560   1.376  0.4928  0.1046  0.1531
  955SOL    HW1 2864   0.042   2.605   1.332 -3.3646  0.2264  0.9178
  955SOL    HW2 2865   0.191   2.629   1.415 -0.2061  0.2062 -4.5329
  956SOL     OW 2866   2.808   2.445   2.498 -0.0117 -0.1398  0.5484
  956SOL    HW1 2867   2.818   2.341   2.488  2.5890 -0.7253 -0.2316
  956SOL    HW2 2868   2.839   2.492   2.411 -0.1843  2.8620 -0.2197
  957SOL     OW 2869   1.628   2.122   2.815  0.0323  0.2388 -0.6886
  957SOL    HW1 2870   1.619   2.027   2.776  3.0811  2.7755 -1.6496
  957SOL    HW2 2871   1.715   2.169   2.782  2.6777  0.6813  0.6891
  958SOL     OW 2872   2.581   2.284   2.988 -0.3836  0.4236 -0.4585
  958SOL    HW1 2873   2.536   2.354   2.924 -0.9377 -1.5633 -1.8506
  958SOL    HW2 2874   2.532   2.267   3.078  0.0935 -0.4677  1.1573
  959SOL     OW 2875   0.312   2.785   0.040 -0.6038 -0.0410 -0.3569
  959SOL    HW1 2876   0.208   2.790   0.021 -1.0819  0.0199  0.2339
  959SOL    HW2 2877   0.339   2.716   0.109 -0.0942  1.5910 -0.9762
  960SOL     OW 2878   1.998   0.476   1.944 -0.5542  0.5564  0.1733
  960SOL    HW1 2879   1.918   0.542   1.926 -2.3231  0.4430 -0.9324
  960SOL    HW2 2880   2.004   0.448   2.042  0.0597  0.5842 -2.3945
  961SOL     OW 2881   2.551   1.886   1.066  0.0151 -0.3549 -0.2190
  961SOL    HW1 2882   2.562   1.985   1.032  2.7561  1.2834  0.9163
  961SOL    HW2 2883   2.534   1.876   1.167 -0.8783 -4.3455 -1.9479
  962SOL     OW 2884   1.302   0.911   0.072 -0.4800  0.0424 -0.7962
  962SOL    HW1 2885   1.271   0.928  -0.022  1.7570 -1.5168  2.3884
  962SOL    HW2 2886   1.260   0.974   0.144  1.0846  0.8314 -0.3180
  963SOL     OW 2887   2.298   2.530   1.768 -0.3851  0.3172 -0.4439
  963SOL    HW1 2888   2.249   2.459   1.832 -0.9967 -0.7927  2.1347
  963SOL    HW2 2889   2.310   2.620   1.826  2.2191 -0.6818  0.9778
  964SOL     OW 2890   2.381   0.401   1.647  0.0380 -0.1923 -0.4290
  964SOL    HW1 2891   2.468   0.427   1.706  0.8450  0.9237  0.7697
  964SOL    HW2 2892   2.396   0.413   1.546  0.4214  2.5496 -1.8085
  965SOL     OW 2893   2.613   2.972   0.144 -0.1420 -0.2925  1.0347
  965SOL    HW1 2894   2.678   2.948   0.065 -0.3528  1.8411 -1.2956
  965SOL    HW2 2895   2.535   3.034   0.111 -1.8127  0.0319  1.2222
  966SOL     OW 2896   2.553   2.564   2.315  0.2747  0.1649  0.6365
  966SOL    HW1 2897   2.644   2.555   2.359  1.0685 -0.7353  1.9062
  966SOL    HW2 2898   2.501   2.645   2.357  0.0506  0.4783  1.6898
  967SOL     OW 2899   2.794   2.828   2.454  0.1614  0.7572 -0.3091
  967SOL    HW1 2900   2.804   2.732   2.412  1.9060  0.1037 -0.3734
  967SOL    HW2 2901   2.867   2.850   2.525  0.0369  0.7302  1.8128
  968SOL     OW 2902   1.935   1.071   2.609  0.3401 -0.0795 -0.0373
  968SOL    HW1 2903   1.857   1.103   2.544 -1.4856  2.0750  0.0820
  968SOL    HW2 2904   1.964   0.970   2.603  0.4106  2.2760  1.9202
  969SOL     OW 2905   2.759   2.461   1.127  0.0238  0.3117  0.3798
  969SOL    HW1 2906   2.741   2.470   1.024 -1.1189 -0.2738 -0.3277
  969SOL    HW2 2907   2.799   2.371   1.154  2.1059  1.7280 -0.8517
  970SOL     OW 2908   1.046   2.125   1.816  0.0796 -0.0978 -0.1872
  970SOL    HW1 2909   0.958   2.111   1.760 -0.2837  1.1338 -0.7737
  970SOL    HW2 2910   1.018   2.142   1.915 -1.6669  0.7471 -0.5382
  971SOL     OW 2911   2.944   2.058   2.053  0.8786 -0.2507 -0.1844
  971SOL    HW1 2912   2.936   2.162   2.073  0.0288  3.2074  1.1414
  971SOL    HW2 2913   2.967   2.041   1.952  1.5734 -0.7657 -3.5464
  972SOL     OW 2914   1.994   2.477   0.223  0.1120 -0.0137 -0.0034
  972SOL    HW1 2915   1.998   2.380   0.180 -0.9336  1.1991  1.8150
  972SOL    HW2 2916   2.008   2.483   0.324  2.0080 -1.2862  0.6823
  973SOL     OW 2917   1.244   1.025   1.898 -0.3874  0.3997  0.5033
  973SOL    HW1 2918   1.167   0.965   1.856 -0.3608  2.5398 -2.4109
  973SOL    HW2 2919   1.213   1.120   1.928  0.0166  0.5900  1.6047
  974SOL     OW 2920   1.569   0.599   1.906  0.0351 -0.2930  0.6465
  974SOL    HW1 2921   1.668   0.601   1.886 -1.9404 -0.7267 -1.1233
  974SOL    HW2 2922   1.525   0.690   1.918 -0.9520 -1.8565 -0.2342
  975SOL     OW 2923   2.370   3.056   0.009 -0.0744 -0.0586 -0.5973
  975SOL    HW1 2924   2.350   2.957   0.033 -0.1929  0.4262 -0.6744
  975SOL    HW2 2925   2.366   3.067  -0.095  0.3550  2.5970 -1.4576
  976SOL     OW 2926   1.886   2.811   2.348  0.1303  0.2576  0.1611
  976SOL    HW1 2927   1.895   2.746   2.269  1.8690 -0.1643 -2.2134
  976SOL    HW2 2928   1.932   2.769   2.430 -0.7582 -0.5344 -2.0621
  977SOL     OW 2929   0.498   0.661   1.029 -0.4044  0.4202  1.0963
  977SOL    HW1 2930   0.428   0.675   0.959  0.5055 -0.6536  0.3307
  977SOL    HW2 2931   0.564   0.733   1.040 -2.1774  1.1622  2.8085
   3.10000   3.10000   3.10000
